/*--------------------------------*- C++ -*----------------------------------*\
  =========                 |
  \\      /  F ield         | OpenFOAM: The Open Source CFD Toolbox
   \\    /   O peration     | Website:  https://openfoam.org
    \\  /    A nd           | Version:  7
     \\/     M anipulation  |
\*---------------------------------------------------------------------------*/
FoamFile
{
    version     2.0;
    format      ascii;
    class       surfaceScalarField;
    location    "12.5";
    object      phi;
}
// * * * * * * * * * * * * * * * * * * * * * * * * * * * * * * * * * * * * * //

dimensions      [0 3 -1 0 0 0 0];

internalField   nonuniform List<scalar> 
11512
(
150.331
-498.855
348.524
-751.614
-5.68295
757.297
405.057
-373.171
-31.886
625.784
274.707
-900.491
1511.03
-1069.41
-441.622
1216.29
-1527.13
310.84
-66.4098
476.719
-410.309
168.523
-842.446
673.923
962.137
-1610.83
648.697
-1756.89
1663.94
92.9558
-542.945
1759.24
-1140.2
1934.04
-793.84
608.691
180.869
-789.56
-24.3901
-1311.68
1336.07
219.957
-1976.85
1023.63
-381.687
-641.94
-174.333
324.664
486.25
190.305
-676.555
1155.69
-1312.85
157.153
-310.392
376.893
-66.5007
1000.19
-1309.44
309.255
1221.49
799.072
-2020.56
71.9017
-1636.49
1564.59
-465.407
-1175.28
1640.68
477.421
181.592
-659.012
-193.166
-305.689
498.234
1012.8
1643.47
-1800.1
156.624
-85.3767
-1692.95
1778.32
-1558.61
650.604
908.006
-306.66
653.376
-346.716
-192.961
-153.792
346.753
1281.61
-1209.71
355.149
-1407.44
1052.29
-1754.36
1754.36
100.154
1527.47
-1627.62
-1077.82
-480.787
635.814
-702.224
-383.736
941.403
-557.667
1331.96
-1317.33
-14.6351
-1100.31
716.57
627.572
396.054
-388.573
-37.8811
426.454
-440.993
766.954
-325.961
-1618.56
1618.56
1253.59
-1437.9
184.306
-488.444
1709.94
1255.72
-314.318
1660.75
-1161.26
-499.49
77.5405
-387.933
2064.73
-1134.55
-930.186
1808.5
-165.023
456.615
155.649
-612.264
-455.586
969.826
-514.24
-1166.93
1267.09
-568.748
971.133
-402.385
401.941
753.753
661.444
-492.921
-437.366
595.038
-157.672
1190.69
-835.542
2308.18
-1080.66
-1227.53
1163.4
-2007.97
844.578
-1598.25
1573.86
440.73
-1580.93
-759.23
1250.82
-491.595
-672.645
365.985
1661.47
-699.334
-1106.93
-870.892
1977.82
671.413
-361.569
-309.844
689.488
566.233
-258.203
1511.8
113.831
-318.156
204.324
-284.408
761.828
-334.244
566.229
-231.985
-324.227
810.477
-317.697
-149.197
466.894
324.499
80.5578
1452.91
-452.725
-972.627
480.911
491.715
277.702
90.1069
-367.809
949.852
-341.161
-1699.71
657.37
1042.34
16.0684
-850.652
834.583
-281.716
595.958
-314.242
156.788
-1093.78
936.989
1051.85
-1067.33
15.4799
372.795
519.218
-892.013
-244.894
701.509
-1103.89
-482.012
1585.9
-678.737
951.499
-272.763
1358.48
-1443.86
-627.185
275.603
351.582
-470.183
-1011.58
1481.76
-539.529
-792.804
1332.33
576.535
-996.589
420.054
-268.213
-317.631
585.844
406.814
-292.983
-1036.62
581.032
955.325
-798.536
-110.267
944.068
-833.801
-211.234
418.499
-207.265
-623.256
-349.37
-386.601
963.136
1856.38
-1856.38
-462.956
-164.229
-952.907
1553.08
-600.171
497.156
-929.894
432.738
-923.973
355.224
-941.911
-1058.08
-1487.47
346.263
1141.21
-283.38
909.164
-309.98
613.796
-303.815
-1941.9
999.994
-1136.07
-351.405
545.791
-1498.7
1728.51
-1725.54
-2.97081
208.67
-600.188
391.518
-1454.31
973.555
480.755
287.767
213.492
-501.259
311.115
-645.359
244.384
-420.583
176.199
2014.79
-868.351
-1146.44
-544.71
156.138
617.832
833.526
-1451.36
-183.124
427.508
431.124
876.982
-1308.11
-908.28
394.159
514.121
-1045.17
1447.11
-1068.88
309.652
752.382
-99.0063
544.33
-284.308
-260.022
998.747
-517.836
593.276
-1403.92
810.643
-1342.31
238.419
-547.078
265.362
-1180.28
896.896
1944.64
-984.132
-960.507
276.805
1579.58
-2093.16
894.101
1199.06
368.346
-29.9934
-338.353
-223.582
483.792
-260.21
-110.468
-378.884
489.352
-466.37
148.672
342.647
-128.889
626.045
413.564
385.602
-799.166
-2035.7
1110.89
924.809
460.808
-532.339
71.5315
224.172
-366.218
142.046
1021.64
993.153
1779.18
-251.714
716.624
-441.02
797.094
-1389.93
592.836
342.18
329.233
1048.21
-1032.14
-503.242
-224.93
728.172
477.509
-136.529
-340.98
797.672
-616.803
565.773
-727.176
161.403
503.327
1157.43
-1239.89
700.362
1046.48
-1511.89
-3.13658
-1439.43
1442.57
325.061
825.072
-1150.13
623.531
269.811
-893.342
-2270.11
1137.77
1132.33
-1103.24
-1166.87
205.834
359.939
958.514
-633.453
879.519
-899.156
19.6376
-2099.38
992.452
-231.047
-190.815
421.862
-41.6959
1770.21
-824.861
73.2476
-1027.13
-1066.03
-229.351
453.524
-662.65
199.694
-263.626
-424.74
688.366
1104.05
-1574.24
783.111
-1374.51
591.404
693.764
-419.057
1947.88
-1444.55
-378.282
-1376.08
79.8043
396.915
-529.032
523.349
11.105
-567.055
555.95
570.109
-282.343
-605.034
280.531
324.503
780.081
-366.517
32.898
335.448
1188.47
-1191.61
177.384
229.43
392.745
-656.371
619.914
-1006.51
-2026.7
2026.7
-249.413
-448.226
697.639
699.331
405.826
-1105.16
579.285
173.097
399.591
380.49
-2199.75
1328.85
-926.759
-678.698
1605.46
-491.1
-689.176
-261.296
546.183
-284.887
824.935
-186.5
-638.435
-435.047
643.717
370.724
-680.704
-354.212
-132.875
487.087
-1325.64
-474.455
618.844
-1109.94
-374.142
-1244.42
844.324
1463.86
297.863
-940.538
642.675
966.426
-338.853
1391.45
-798.17
444.686
-267.302
-328.994
-869.882
560.952
308.93
-321.693
-548.189
308.023
-418.49
-216.022
-148.554
364.576
-392.702
1092.03
435.165
-244.86
-394.358
1347.3
-169.118
-1178.18
-467.565
276.183
191.381
229.649
246.834
-476.482
26.9013
-754.078
592.078
-1729
1136.92
1481.5
-863.672
-1049.18
-405.125
-1057.31
573.178
484.136
1374.1
-400.544
929.421
-1411.43
-158.776
-204.33
363.107
-469.651
581.365
-1626.54
427.976
903.987
274.84
299.33
-574.169
568.077
1186.28
1104.12
-715.226
-388.894
404.503
-218.673
-185.83
-1419.47
444.957
738.525
-1183.48
1473.37
-543.948
-491.245
923.059
-431.815
426.143
1186.16
-1612.31
47.2827
-726.019
-145.269
422.971
225.242
-418.202
527.024
471.723
-620.591
63.5117
557.079
1024.54
-1307.67
283.132
663.077
-263.486
468.231
-1447.25
979.016
410.883
1686.08
-522.687
909.44
1035.2
-662.243
-1684.48
757.722
565.225
394.35
-959.576
453.542
78.7528
1749.91
-1828.66
1443.76
-379.479
-1064.28
1699.1
-1740.8
-367.825
-517.326
719.05
-201.723
-502.591
184.359
293.151
-373.058
-1226.01
214.43
-764.548
-639.371
-659.114
1000.62
-341.505
-654.05
644.241
9.80928
655.12
-923.781
268.661
-764.842
388.571
376.271
-648.821
-683.717
352.57
331.147
-932.356
1400.59
-413.199
884.556
-471.357
-2205.3
5.55806
180.906
-536.606
355.699
141.695
1205.6
-96.5485
-566.102
159.96
-597.327
1487.2
-704.088
376.607
-464.39
87.7836
-570.146
570.146
1223.1
395.457
1777.85
-1228.89
589.041
639.85
850.119
-52.4467
1291.39
773.347
-539.948
1337.04
293.919
302.039
277.293
-794.62
237.99
-678.984
232.006
-444.759
212.754
-232.541
575.203
-342.663
126.723
-359.264
-592.065
-564.502
1156.57
-366.244
530.6
-164.356
-1192.16
2032.05
-839.886
1289.92
-331.402
-405.742
137.53
-1980.9
805.621
1525.19
-845.741
-679.448
1986.94
-877.42
-1109.52
713.425
576.491
-239.955
471.961
-676.124
1135.44
-459.316
-770.204
1201.33
551.535
924.664
-1724.89
800.225
-540.906
-72.7365
613.642
293.752
250.578
411.376
-102.28
-309.096
896.906
-83.4087
-813.497
910.638
-555.395
-355.242
1576.21
-472.16
888.28
-1625.89
737.61
1068.48
879.391
749.373
-443.897
-305.477
-1059.06
-258.266
559.012
579.922
-1138.93
-454.546
501.697
-47.151
577.152
-345.27
-231.883
-982.66
569.461
596.159
885.345
-441.809
1096.93
1409.02
-773.915
-635.106
397.382
-925.316
527.934
-1016.12
392.866
545.541
-1036.79
451.544
-520.581
69.0375
468.363
298.591
-521.638
-48.5088
-794.451
-877.566
1672.02
194.443
210.06
-214.815
420.649
-30.3281
-547.564
577.892
490.354
866.84
-1357.19
-524.547
308.525
985.954
-89.0482
836.477
-1064.94
228.458
390.663
846.484
-1386.43
-445.623
831.225
1977.05
-1283.51
-693.54
270.195
609.324
255.993
795.862
78.9211
-960.24
881.319
1673.74
-1089.07
-584.671
-137.82
1887.73
-1866.04
-160.659
483.68
-621.79
138.11
-1014.37
526.249
488.119
-1730.48
538.319
-955.882
845.615
391.777
203.261
586.553
-288.69
-423.648
711.383
255.043
77.1726
708.691
-785.864
-1131.65
-896.759
2028.41
-535.93
1095.79
-559.859
-462.792
-341.691
110.645
-1654.13
859.681
-871.311
-590.265
1461.58
-332.197
-294.904
627.101
360.783
-643.627
282.843
238.971
-605.488
312.55
207.057
-519.607
340.2
-601.496
615.662
-254.878
314.221
-463.417
674.537
405.509
-175.861
-380.62
-303.097
1217.14
-3.17167
-1213.97
1039.89
-419.978
560.589
410.545
-1782.38
869.824
912.553
493.407
545.939
-1039.35
-535.803
203.606
-262.694
1180.64
-917.942
-1590.89
1212.61
504.615
-1096.68
386.682
-10.0746
425.689
299.363
-725.052
373.23
-618.124
-30.9354
755.544
-724.609
-526.229
796.04
381.606
322.79
527.329
654.31
86.9325
-396.77
309.837
1059.02
-645.337
-413.687
494.008
-1664.27
1170.26
-1140.45
1753.24
-612.792
1715.81
-1123.73
-334.241
614.773
-1182.25
1261.17
425.27
-797.281
1599.92
-802.64
-252.713
-214.852
-888.723
1469.64
1811.89
-611.347
-1200.54
-404.755
641.811
-1300.93
-124.814
-41.9081
453.284
-677.221
-354.169
-1236.73
-222.676
461.647
903.734
-560.471
181.587
-1674.53
-71.1861
1745.72
-1059.1
523.167
569.854
-1181.55
611.698
901.12
910.768
630.818
620.006
680.178
242.881
-1129.49
453.37
-401.659
412.764
620.768
-515.466
247.985
-733.355
485.369
684.14
-341.961
-334.64
180.848
-595.631
232.709
362.922
-888.119
-737.772
1087.67
-2145.75
399.933
-684.341
-342.846
-724.488
833.321
575.7
-345.894
308.013
366.371
208.367
655.119
-863.486
527.919
607.52
-529.374
175.162
360.461
-609.875
-1039.49
-853.557
1893.05
-1793.67
157.176
1107.18
-1369.87
1154.93
-727.625
-427.307
-503.442
1349.93
-1495.54
627.865
867.676
-288.799
-210.564
499.363
1428.39
558.551
335.378
-468.253
-485.359
-565.617
1050.98
-418.209
599.115
1582.18
-1128.94
-453.24
-769.714
321.488
654.902
404.121
-1623.43
416.157
1207.27
-195.103
507.653
797.853
784.328
196.265
-679.694
483.429
208.061
210.438
-293.725
-108.046
401.77
480.045
1.61002
-481.655
-1632.67
583.483
-1603.5
1668.26
-64.7613
9.98499
-1613.48
1069.62
756.213
-330.524
-804.658
-211.464
-1134.54
-239.977
-311.665
684.895
-1812.35
-626.627
1206.55
210.798
759.029
-1329.52
-678.455
-465.329
604.136
-329.296
-1013.29
1350.76
-1932.82
582.065
646.058
1287.99
487.214
-3.42205
717.589
701.929
-1419.52
-639.335
337.243
302.092
440.831
-99.489
-341.342
151.995
293.647
163.106
-456.753
-580.705
1145.93
465.756
-618.902
-462.239
-401.681
863.92
-330.783
172.007
-458.302
165.32
-305.574
-708.794
549.617
-108.785
-570.179
967.561
580.924
-270.014
-310.909
456.318
-780.545
-645.716
438.035
-1129.42
-833.883
1180.15
-569.765
455.532
272.64
-447.991
86.4217
1029.15
-317.522
594.392
-276.87
-509.032
1578.65
-678.067
232.407
376.026
-608.433
215.307
476.995
-23.5972
-453.398
-255.294
-203.008
1015.87
1108.95
564.791
-869.783
938.261
-68.4771
-458.52
169.721
-725.701
300.96
-593.69
320.953
363.187
819.452
-1229.6
410.148
777.77
-808.706
-948.981
-550.367
1499.35
-160.501
459.831
-537.565
253.257
1299.18
769.284
-573.019
1308.3
-689.458
487.612
-680.356
-411.22
-423.967
-378.374
802.341
503.259
-844.42
-447.749
88.0222
359.727
-323.718
572.398
729.532
-329.599
-245.254
-173.913
419.167
-490.835
143.47
347.365
1457.18
80.4692
-1537.65
-750.14
1346.3
-1144.75
-466.086
536.941
-160.915
1150.16
-372.393
1083.51
492.698
694.397
-417.104
-885.145
-522.298
-1328.46
-27.4631
985.026
-957.563
595.734
323.996
-919.73
-325.17
-219.541
-676.905
405.516
1621.19
-173.98
366.987
349.668
-716.655
-1839.78
-2106.68
1519.14
587.538
-2037.52
344.577
357.021
536.013
-893.033
-460.094
1020.68
-389.235
-672.82
1062.06
-2030.52
1391.21
639.318
598.915
-988.15
46.3817
405.162
386.51
198.226
246.461
316.494
955.935
860.009
680.572
-326.524
-354.047
-294.65
622.189
-327.539
574.135
529.985
565.563
514.835
-1080.4
-796.253
-699.289
752.784
397.378
-416.522
699.366
-1193.42
1609.58
414.175
-1086.99
-328.357
535.414
-1382.37
866.091
516.283
-715.319
-353.299
-786.855
364.471
422.383
446.978
718.492
-1165.47
1069.68
-576.276
-402.189
658.045
-255.856
255.141
325.782
-468.686
-431.904
900.59
-238.501
556.05
-948.354
392.304
-461.035
600.599
-1681.26
423.662
671.216
-1094.88
521.621
92.1746
113.407
-2212.79
535.763
-80.2305
1443.91
1777.09
-217.553
-1559.54
-438.416
1789.17
-1986.91
1194.45
792.458
403.788
345.586
-34.9248
868.246
-1283.45
718.953
-870.367
-823.146
795.683
307.234
58.6257
-365.859
231.835
186.673
-418.508
1551.33
-833.741
-1530.95
-325.43
479.162
-205.691
-273.471
395.439
366.39
244.167
359.969
-8.68104
1001.38
-992.698
375.76
275.288
-651.048
-734.035
1817.28
-1083.25
-342.577
738.015
-1215.54
-412.087
-915.938
484.034
568.355
-776.914
208.559
762.158
-381.269
-380.889
-424.747
-445.037
448.398
1073.46
1236.76
-666.909
801.659
-345.34
385.501
312.138
-248.945
-215.445
-200.882
611.766
407.795
-848.194
440.399
211.882
353.945
-565.827
-423.284
831.079
754.689
-1147.39
882.435
-62.9828
-490.679
274.893
773.317
-95.6994
1383.68
1890.5
-65.3508
341.534
-318.471
405.404
-1085.71
1077.03
619.928
376.123
386.035
68.4313
410.731
264.3
492.997
-371.184
-268.15
-564.694
-89.3556
-358.427
366.652
-8.22546
-257.359
-289.719
1011.08
-1540.71
529.625
-196.033
-177.138
-385.525
660.813
-1631.16
1591.05
-963.189
254.859
-666.079
584.31
1224.42
-1808.73
607.398
983.657
302.842
-1119.83
696.186
-287.249
-286.92
1373.76
-1443.99
824.52
619.466
417.561
-623.508
205.947
-365.67
474.962
-109.291
372.192
107.853
1723.74
459.811
-251.75
557.619
-1704.79
1147.17
-92.7972
394.375
342.778
337.794
-448.43
-615.932
1064.36
418.724
-864.347
-641.273
903.038
570.331
-513.786
-251.056
-439.46
-408.735
-307.181
-827.356
1821.12
-1821.12
-105.145
-1587.84
1692.98
292.767
284.385
-917.33
-555.288
1472.62
-408.136
973.7
-591.777
-1040.89
684.829
388.092
-1072.92
477.165
-162.944
573.059
1220.35
-1793.41
-1042.9
2115.22
-1072.32
-374.432
-298.213
-489.935
811.423
-1750.02
1599.75
150.269
1750.02
-1603.53
-146.493
-246.634
524.783
-278.149
-537.276
1620.79
1561.44
-1973.53
1077.69
-288.625
-253.369
541.995
237.51
-565.866
-696.13
279.607
1341.13
635.914
579.057
484.521
-1063.58
279.849
414.548
875.467
500.091
-1375.56
532.466
-1017.82
1574.95
-563.866
-776.23
-364.862
-118.863
483.725
-489.908
1208.4
-742.057
333.944
367.566
362.804
253.128
-615.932
600.314
831.944
-603.486
264.653
673.608
-513.786
-323.859
-229.359
553.217
1168.57
-671.004
610.592
465.335
-1075.93
-1291.78
1291.78
-386.956
763.079
-285.108
-475.712
760.821
487.032
446.573
-933.605
389.276
-674.385
611.777
-868.796
257.019
-367.108
-494.975
1074.03
-661.964
-709.528
1371.49
-375.387
931.437
-1552.69
675.267
33.6408
-410.962
377.322
-506.34
706.034
248.659
326.544
170.926
306.239
-515.852
228.602
1869.33
-1965.03
266.411
-701.459
447.971
-821.546
373.575
-917.823
1410.64
-492.816
-429.64
-486.298
600.696
1124.2
-1724.9
-715.574
341.142
-460.341
1034.48
-776.275
1040.93
-379.997
-628.891
-484.483
722.474
540.523
-358.931
905.756
-303.647
-187.188
1599.02
-1816.57
-345.121
-603.233
-335.057
478.527
258.304
-587.6
-178.07
1059.85
-784.96
210.244
-284.783
-282.063
566.847
394.088
-877.229
483.142
-486.589
-449.498
-940.538
-344.433
571.807
-227.374
-447.816
-423.896
-329.355
-190.252
-386.955
640.082
-447.024
759.163
-1072.91
624.482
-1408.45
537.138
-27.8184
-1834.66
1862.48
569.869
-449.443
1211.81
-688.645
335.397
-335.397
670.369
-436.806
1041.58
-1633.36
-1158.73
-947.945
293.279
328.91
884.53
715.391
-492.216
-301.849
794.064
1656.84
-1684.66
-434.606
347.886
222.224
1135.03
-524.442
-943.332
1550.47
-607.14
444.52
-246.294
380.645
377.924
-758.569
529.508
472.66
-1002.17
-331.435
665.379
-37.8415
1907.17
1587.37
992.916
-1697
727.231
-1177.18
449.948
-492.447
1367.91
837.879
-1341.32
-554.368
265.743
796.368
-402.017
553.02
-1188.04
635.016
-638.189
-1215.54
-695.643
1911.18
-196.81
545.578
-348.768
-171.194
298.137
-494.946
327.695
371.422
-699.117
-1482.02
757.153
724.867
884.116
-1434.48
825.476
-431.318
217.964
-363.232
-586.696
262.837
-638.553
-743.821
698.993
505.919
-1204.91
391.62
-203.6
-188.02
556.393
-958.778
-565.488
-426.164
727.125
-831.28
-1155.63
-1437.97
499.623
938.346
12.0823
-631.118
336.977
294.141
-1311.98
1045.64
266.336
-616.882
-456.029
-665.846
921.839
401.019
-202.201
-198.817
508.164
980.701
-1488.86
976.08
-564.621
167.433
397.188
-396.269
671.33
-404.918
-507.321
172.263
234.392
-1517.9
530.881
538.802
-748.251
241.911
153.764
-457.411
369.763
-819.261
1954.16
-1195.39
-758.769
413.97
-669.861
255.891
325.634
325.093
120.553
-445.646
-566.686
195.27
264.541
-691.688
1374.38
-682.695
423.961
459.397
-1174.72
267.424
1866.78
-1013.59
-853.189
785.031
-526.291
181.858
1402.38
-975.206
-427.176
334.481
-771.287
-616.491
1725.44
612.144
624.619
321.832
-14.598
269.14
-1138.45
1725.72
-587.268
-1763.52
820.188
1753.57
-1684.57
-69.0019
-658.842
257.182
564.451
-709.668
225.185
1402.7
-564.821
390.17
441.055
-1858.53
1420.12
545.773
-427.512
-118.261
207.74
-537.095
-281.257
-181.535
-353.459
696.237
-575.074
210.213
608.054
551.946
-1160
1113.67
-1947.42
833.753
159.83
327.257
-1698.79
1660.94
315.779
-732.883
-164.985
382.949
753.043
679.758
-1432.8
1074.15
-1077.32
527.076
-1103.35
-630.777
253.804
376.973
520.701
-287.992
-600.484
-1032.88
295.608
-719.504
-912.32
179.908
164.898
226.722
387.254
293.728
-680.981
-628.532
-833.94
-978.41
491.474
-1058.16
-288.113
479.494
534.988
645.158
-281.333
-124.41
-410.449
713.29
271.091
-1198.29
569.756
1307.55
-554.511
444.097
-1009.59
-390.118
155.985
389.788
1023.4
551.547
-1714.14
1609
1627.39
-559.925
-1067.46
1902.85
-1891.23
-11.6143
204.825
-523.296
-342.735
552.979
-764.323
-319.898
-338.944
1026.91
698.329
-1500.11
801.782
342.264
-26.1912
1625.21
-1079.81
408.802
-1234.14
457.907
-60.2377
1517.42
1197.48
-470.251
-489.593
-75.0277
-265.014
736.01
-1951.55
-710.868
350.411
-533.767
183.355
192.194
-509.716
1139.9
671.545
-1811.45
-604.838
177.326
942.086
-1497.37
-210.47
678.908
-468.439
877.393
1122.61
-736.765
1348.91
602.663
-482.245
-120.418
-347.149
1171.67
1039.66
-1980.4
940.742
-1171.18
544.556
1488.79
-585.751
-379.439
-149.935
-1240.76
573.846
1160.31
-117.973
946.054
775.475
-1721.53
-210.06
578.439
-1541.74
963.301
486.971
916.705
-1403.68
618.576
587.973
387.861
-1106.65
591.794
1106.29
1216.4
-452.392
-764.009
-1186.2
-1754.94
-7.7463
-1706.39
-203.429
-420.079
1606.65
-627.658
-978.992
-490.833
1121.65
-1317.12
636.672
680.443
-1361.11
1441.58
-1329.67
592.909
1520.52
-387.063
-566.667
187.228
-1477.75
235.041
176.372
225.135
377.528
437.152
395.542
-832.694
506.301
-939.083
900.887
-1444.83
-693.734
232.659
461.075
-1041.11
460.402
-472.917
863.087
695.956
28.2549
-522.566
173.797
-886.565
-1318.74
-715.924
350.514
365.409
404.486
-723.359
318.873
-479.486
-189.287
-709.87
718.531
1539.54
-593.485
813.335
737.994
1344.83
-844.735
-971.378
-570.362
-797.588
427.706
369.881
-1036.86
-643.148
304.955
338.194
-1433.7
-296.783
-791.126
398.758
392.369
-647.107
399.671
247.436
-674.68
269.762
412.544
488.046
389.647
441.432
479.469
384.451
596.986
-970.044
676.918
469.012
454.031
356.371
-810.402
1630.77
-1079.91
-550.857
-504.457
-283.905
-1028.08
454.773
347.569
409.529
594.451
-1003.98
-1380.1
752.442
-533.972
1145.67
354.585
-60.9386
411.974
-865.893
453.919
-1893.58
305.745
441.991
-726.741
284.75
-186.502
404.574
-218.072
-662.191
308.099
354.092
-674.821
320.773
370.648
392.431
613.008
-1021.14
753.422
661.381
-1414.8
438.685
625.677
340.231
392.875
-733.106
409.897
328.118
602.739
671.371
402.089
592.33
-1018.02
425.687
-1668.41
1196.93
471.474
1696.6
-539.171
621.364
-1147.35
525.983
-643.341
348.437
437.144
-935.511
498.367
747.603
-448.24
350.778
345.459
567.178
-912.299
650.958
-1253.21
602.256
370.074
734.945
-1224.85
769.738
509.452
-1279.19
482.116
406.464
-888.58
-501.625
-936.343
-302.323
630.018
352.48
542.212
-894.691
333.563
331.816
-502.177
1944.74
437.437
-847.493
410.055
-917.859
-807.031
-749.188
368.298
-1214.32
438.046
-1731.03
1603.53
127.502
1744.9
-1599.75
-145.145
-784.8
-593.599
266.747
326.852
-1753.57
1973.53
538.368
791.748
-1330.12
440.048
716.519
690.479
385.577
-1076.06
-78.1633
1617.14
-593.735
383.659
828.152
-650.306
327.196
323.11
-378.13
-297.649
552.791
-221.91
435.402
281.654
-667.15
385.496
265.707
-579.949
-283.466
442.41
-1033.74
591.329
538.037
1092.73
365.952
597.184
312.691
353.298
-665.989
1619.44
-921.107
1691.76
-1520.38
-171.379
-327.893
-823.756
415.021
857.59
-1068.06
-607.72
280.181
-1090.61
1628.65
-1581.43
-79.5017
1660.93
-340.973
-349.87
-369.866
536.645
598.389
-502.968
-29.3713
-550.056
507.127
-283.073
-224.054
1744.24
-1295.85
-625.776
299.996
325.78
402.633
357.24
734.793
-296.866
-398.673
-1744.9
1684.66
459.446
-1101.14
641.697
-43.6948
1652.69
571.441
476.377
-1047.82
104.799
1144.96
-1452.14
-16.0401
-1877.54
228.978
-599.561
307.217
292.344
-955.591
612.744
-898.705
469.065
-1128.73
673.752
454.979
364.399
267.994
-760.21
-311.027
1217.19
886.925
698.979
-1183.04
456.119
726.926
494.254
701.043
-1195.3
-358.998
-247.152
412.05
-960.998
438.343
522.655
21.2571
-1879.79
1080.08
-468.302
-494.584
558.005
-1378.25
820.24
-424.366
797.942
-405.091
496.816
-708.219
1724.09
412.309
-185.587
217.2
-171.322
-245.252
416.574
1895.32
-504.109
-1688.42
1051.69
-602.696
305.047
-1014.1
554.01
-312.525
544.249
905.368
-1449.62
-1103.98
438.134
-20.7229
-1944.3
1711.02
-671.364
-540.862
460.659
-1190.63
729.975
191.077
209.941
-282.74
768.848
700.797
838.483
818.679
-462.308
1085.12
-471.792
479.106
-194.599
-284.507
-1922.78
-714.447
-317.907
-644.441
-6.95265
651.394
467.431
-272.161
563.419
1056.02
-802.261
925.19
1244.4
-424.998
-196.748
-224.51
421.258
957.099
-888.587
-325.249
-1068.11
612.077
1555.57
-798.418
537.605
935.013
-390.79
735.539
-344.749
1130.53
-276.951
330.504
1349.75
-704.741
-220.575
448.252
-1198.74
750.489
-997.684
-103.036
1100.72
442.296
-955.987
513.691
174.909
732.935
483.466
740.85
-85.731
853.406
-425.494
1182.67
-797.089
552.047
-1465.5
913.45
-1216.66
1800.97
-431.713
-1510.19
879.749
-1402.05
-306.955
-418.097
1457.26
-1522.86
785.088
1491.51
203.006
276.101
-353.557
-1731.03
-293.45
-1007.59
1571.01
-1763.27
1763.27
1561.44
-1004.53
-634.97
-336.858
368.354
605.346
-368.28
-361.503
-1389.88
897.432
1125.16
600.556
1202.85
1789.48
-1216.42
-610.314
272.831
1658.95
-1916.4
257.448
814.234
-1267.47
1545.26
-561.602
778.976
316.812
-338.537
554.658
795.269
675.254
1353.15
-221.129
-444.786
-358.127
497.875
-342.226
471.682
736.719
-296.499
-149.147
-328.041
567.519
-239.478
27.1003
-372.37
1107.48
-1720.27
-434.046
-484.78
-566.542
863.918
691.652
-1596.54
904.855
-451.476
-619.236
-513.621
1252.15
332.999
1723.66
-1702.4
-1656.84
1891.23
-1560.86
840.316
720.548
-370.306
-1795.22
917.655
582.977
819.723
-395.113
1794.26
-680.59
-411.274
677.379
426.902
-1104.28
-1099.59
444.053
753.429
-1617.19
473.174
901.209
177.892
-402.341
224.45
-1593.67
-383.176
-427.95
990.317
-671
1442.97
-976.7
1854.09
240.987
-541.806
497.761
-294.756
474.304
893.61
543.053
977.472
-462.631
-427.832
573.869
883.387
-1392.71
-40.9879
1570.99
-833
519.941
971.573
-1475.84
-1115.9
1769.19
-1242.75
-526.44
1206.15
-318.944
-887.206
-193.129
455.21
-262.08
-457.254
-249.764
431.682
-181.917
146.703
-393.855
1728.26
-1736.01
-455.508
-530.835
-903.648
444.879
-207.919
-236.961
635.801
-453.778
-358.054
-310.084
668.138
-925.554
377.365
-1167.38
676.547
418.878
-632.923
-441.271
1573.04
-857.653
530.178
-457.712
-571.309
-462.43
373.089
-363.303
-9.78575
-1097.99
409.342
-664.692
-1033.7
1698.39
-597.009
-1423.16
713.63
562.16
-1596.27
1034.11
-384.81
-478.962
147.495
532.683
-1258.45
744.829
539.213
1006.04
-2133.18
999.99
1133.19
-357.187
420.376
-395.486
-24.8901
1478.07
-367.506
449.374
1214.98
582.11
906.679
568.101
527.314
-1095.41
166.798
-437.275
-1684.57
257.578
1127.59
-611.879
518.444
1013.8
-1532.25
1092.87
-1643.73
191.788
690.647
544.313
-869.562
-1086.56
-173.535
430.259
-256.724
-587.237
-425.776
-636.88
-629.72
346.98
-1618.56
939.86
-476.661
214.432
-400.019
535.78
-306.802
-603.122
1197.21
-1270.21
921.886
348.326
-1023.3
-362.736
-755.827
-823.172
1687.09
-476.777
1793.45
-1581.59
-211.859
-1556.65
1018.75
537.897
-724.206
-263.508
445.721
-182.213
-589.147
383.378
275.218
-658.596
-523.81
984.634
631.05
-350.869
-1620.29
1050.53
571.755
1103.56
-1675.32
-409.891
-293.646
-368.545
-743.428
-468.549
-330.293
501.219
1558
-995.835
-775.458
1497.46
661.061
-313.175
725.88
1152.37
-1878.25
284.71
302.759
-487.034
-1931.7
1719.51
212.187
739.278
-474.295
-264.983
531.819
1060.85
-1592.67
373.089
-1722.43
-233.208
1752.35
-1580.71
1073.79
506.913
-1722.07
-0.364766
-521.544
420.376
1698.79
-1719.51
939.772
624.381
-1564.15
385.304
-218.577
-166.728
-407.599
-267.081
71.3818
95.0103
-358.518
-431.822
-436.975
-407.408
220.906
1510.26
378.794
-215.905
-431.202
463.55
-199.009
316.676
1510.79
998.057
-152.874
-845.182
-1104.12
1704.81
-1728.75
1064.05
-707.102
-1021.64
-1265.09
1844.99
-579.899
1155.08
-1771.13
616.052
272.186
-878.269
1675.66
43.4546
-1719.11
-491.153
-1083.08
-1728.26
-982.438
554.606
1019.63
590.211
1133.05
-1723.26
286.019
-446.934
704.629
-383.856
374.464
924.984
680.474
-379.985
-638.032
582.879
1072.58
-1655.46
-399.402
-370.086
769.488
423.429
-1660.94
1520.38
140.562
583.982
-1044.32
544.741
1083.91
-1555.7
994.094
-238.999
232.774
320.206
1902.85
421.872
-79.4873
995.865
722.752
-1718.62
-697.443
1085.37
-1557.53
166.81
-571.893
198.746
264.804
-654.435
-559.887
582.462
1034.68
-711.26
-271.961
-1368.59
676.074
692.517
-415.184
767.923
59.7366
-827.66
561.584
-137.147
1557.26
-216.33
268.467
-770.418
-1931.7
1664.63
1033.8
388.571
298.449
449.154
-930.144
-992.636
-1767.27
637.182
1693.77
509.9
-474.193
1210.91
1087.15
-424.86
1030.21
-978.794
493.677
485.117
700.112
1047.96
-1748.07
485.953
481.608
-1494.02
-747.08
31.8541
780.887
-412.589
-883.876
389.292
-538.619
-802.703
642.675
-577.122
1397.36
1055.14
195.908
234.351
-550.602
1618.53
-772.128
1525.55
-1727.83
575.24
1152.59
544.604
-883.457
-1732.69
1916.4
-183.708
1721.74
183.049
-543.519
373.278
-278.267
-481.328
1211.3
568.268
1128.33
-491.236
432.839
858.648
-462.593
-773.382
425.472
347.91
1418.72
1089.62
-518.154
1423.01
-510.594
-533.561
1044.15
-602.739
469.845
-1197.47
1691.76
1839.58
-687.21
1585.59
-645.82
-1241.42
717.607
-562.385
205.466
-396.281
455.733
-245.295
-520.435
-1246.71
1870.94
-624.229
1173.38
-552.012
1120.29
-1659.46
1692.09
-573.922
-545.09
-549.809
1720.07
-317.241
-688.02
-473.26
1223.75
-1682.8
-1860.1
613.39
294.246
-932.681
169.601
214.688
-1719.03
1204.16
514.868
1162.86
558.887
-511.38
-465.338
1192.26
178.316
226.258
588.443
1251.14
-539.174
-1238.59
1777.76
-1025.43
999.991
866.79
-204.129
-1658.95
1702.4
-510.044
1411.25
-1732.69
-360.553
19.9754
340.577
-264.347
585.692
-321.346
71.2055
489.747
781.722
-377.236
1257.53
1270.92
-413.329
852.647
-437.626
1817.43
-662.357
1586.51
-1723.66
-412.782
-741.191
305.196
435.995
-559.458
-563.237
79.7172
-1138.78
-985.542
-669.597
1655.14
-943.708
-1189.47
158.976
-412.345
-648.581
705.598
1167.45
649.981
1410.3
-590.577
1636.75
1318.08
-573.246
-493.031
198.275
-503.259
1396.87
1240.11
-564.04
-999.989
893.732
54.0464
-947.779
603.442
-506.106
1403.54
1495.06
-588.381
-381.317
381.317
-589.391
1623.5
1239.58
-486.156
1134.16
-72.4635
1850.79
-392.586
1489.46
-588.57
-507.66
1347.98
-652.994
1218.59
-565.596
1554.8
-591.497
747.836
573.452
-1321.29
-652.904
277.94
491.345
600.05
-1957.3
-983.218
1586.51
382.106
-382.106
-70.278
389.01
436.466
379.949
-7.75693
-343.34
891.963
-521.889
-425.709
814.719
-244.359
621.332
-434.327
1545.22
-444.328
-884.132
187.909
225.098
-413.007
601.167
1250.78
-1851.95
927.481
-458.416
-363.303
126.153
-1943.01
1816.86
-451.255
183.953
1181.31
-440.421
-740.889
-304.496
-579.38
-491.945
-395.486
-480.914
256.86
1158.33
-559.946
229.916
-381.186
151.27
-22.3969
-107.671
1376.08
-1268.41
34.4467
-599.141
-586.371
-460.232
460.232
-1262.36
1985.11
-1344.4
-214.972
-1823.83
242.241
-1025.76
-974.242
-186.791
-1637.41
707.267
1229.32
-1924.96
370.158
311.787
-681.944
-1850.01
1234.27
615.739
-564.596
564.596
-959.24
-39.8564
-1866.04
-558.134
1650.87
-677.562
1636.17
-601.492
-173.714
-1703.83
-585.331
-442.743
-594.784
-473.352
473.352
-1537.81
194.525
1343.28
174.55
224.863
-399.414
486.919
511.138
997.376
-474.721
1751.3
768.734
-427.172
402.282
520.382
1702.05
-594.571
-552.956
1636.87
471.577
1812.73
-645.275
-1803.88
-1938.08
-646.924
-484.655
484.655
-586.197
228.07
-689.184
1019.73
-465.717
-1071.79
-285.936
1579.58
1852.3
1635.33
-1635.33
-276.462
739.303
1761.49
595.783
1275.15
175.696
209.608
573.218
592.838
1603.53
-1603.53
223.255
-353.202
-434.19
460.711
951.717
-458.039
-639.899
-1131.02
1706.26
281.181
-1648.36
607.472
-288.249
471.298
1744.64
-592.05
-215.116
-414.296
380.804
725.483
1738.57
-613.407
-511.759
-774.74
1960.53
-870.452
-1090.08
1642.79
-706.159
1223.98
-1824.94
600.965
327.881
-869.687
-186.049
-109.856
1098.47
-486.396
127.948
613.603
-1646.48
438.721
605.618
-1803.88
-583.271
1787.43
884.424
-1162.93
1760.49
-597.556
1783.83
-575.521
-1208.31
437.806
927.682
-1736.01
924.818
-1498
270.676
1227.32
-831.224
-1254.23
-384.992
77.4688
307.523
581.712
270.463
1025.96
-444.969
846.834
-401.865
821.251
738.164
-1559.41
643.692
1066.25
-24.481
-663.812
688.293
-1744.28
722.635
698.495
150.524
-1122.7
1936.75
-674.546
-1262.21
-537.172
1665.5
828.491
963.524
-1792.01
1227.87
683.314
-402.989
711.088
833.132
1028.6
-586.3
1761.49
626.833
1773.56
-1185.63
-587.933
-378.57
-326.177
704.747
121.436
-1185.71
1660.56
-540.263
-1437.84
1437.84
1250.58
594.413
1351.59
206.401
-565.153
281.581
-191.475
699.058
1113.67
481.961
-303.645
-870.354
-574.481
1736.37
-1736.37
1009.87
-1009.87
987.33
1025.17
-2012.5
1837.94
-613.965
-581.104
818.867
-947.848
-1052.16
998.383
690.44
-1688.82
-521.638
-344.011
-644.139
-808.42
2042.69
-1246.42
-613.676
1002.97
974.85
1289.77
646.983
326.499
1012.69
229.661
336.754
1186.28
1756.87
-1756.87
672.073
80.1342
-391.044
-997.051
-539.988
1674.15
989.92
1010.08
-1833.28
-224.186
-361.146