/*--------------------------------*- C++ -*----------------------------------*\
  =========                 |
  \\      /  F ield         | OpenFOAM: The Open Source CFD Toolbox
   \\    /   O peration     | Website:  https://openfoam.org
    \\  /    A nd           | Version:  7
     \\/     M anipulation  |
\*---------------------------------------------------------------------------*/
FoamFile
{
    version     2.0;
    format      ascii;
    class       volScalarField;
    location    "14";
    object      p;
}
// * * * * * * * * * * * * * * * * * * * * * * * * * * * * * * * * * * * * * //

dimensions      [0 2 -2 0 0 0 0];

internalField   nonuniform List<scalar> 
115545
(
0.000134429
-3.59328e-05
-0.0304488
-0.00877127
0.00212603
-0.00295525
0.541228
-0.0518203
-0.00120551
-3.80421e-05
-0.000919389
0.000109962
-0.00452982
-0.122054
-0.00121482
-0.114892
-0.000668878
-0.00132056
0.648376
0.00224072
-0.0514421
-0.0128854
-0.00151832
-0.0130442
0.902748
0.14555
0.00363755
0.0436369
-0.00014142
0.582364
-0.000539079
0.168507
0.0107182
-0.0297656
0.912196
-0.00519519
0.535174
-0.000670801
-0.141877
0.376353
0.169812
-0.00133707
-0.0397337
-0.00519888
-0.0882898
-0.121968
0.00612665
0.0110064
-0.00219059
0.000121488
-2.46193e-06
-0.00860973
0.184762
-1.76429e-05
-0.00670809
0.186932
0.150787
-0.0815538
0.0604454
-0.0258821
-0.000419714
-0.0133473
-0.00253103
-0.0377895
-0.000290707
0.00149493
-0.00395501
0.115743
0.0032539
0.138862
0.390595
0.120846
0.371512
-0.0775693
-0.0287088
-0.0552888
0.0414041
-0.00266926
0.617526
0.0965234
0.098656
-0.000250051
-0.14787
0.0425422
-0.00848033
0.000101197
-0.0398019
-7.61644e-05
-0.0586231
-8.7108e-05
-0.0623485
-0.0244023
-0.000144198
-0.00415861
-0.00159977
0.00042103
-0.00134347
-0.147329
-0.0618311
-0.058408
-0.000429339
0.0543313
-2.02636e-05
0.00464603
0.392465
-0.072098
0.406749
-0.0919625
-0.0268153
-0.000136801
0.0965788
-0.00133088
0.0443449
-0.0179095
1.14825
-0.00575571
-0.000927062
0.354149
-2.48472e-05
0.119882
0.357932
-0.117831
-0.0299663
0.0679624
-6.01005e-06
0.580326
-0.013205
0.910423
-0.00500423
0.0864398
-0.00317758
0.000249685
0.302467
0.000103465
-2.28499e-05
0.652815
0.86085
0.0104222
-0.00646211
-0.0132064
0.236849
-0.0045957
5.84436e-06
0.193437
-0.000462091
-3.39245e-06
0.0171099
-0.0134096
0.117276
0.000745167
-0.0715901
-0.0904412
-0.0242444
-6.31622e-06
-0.00848928
0.0144385
-0.000136581
0.055433
-0.0523021
-0.105833
-0.0545105
0.0169329
-0.0024904
-0.052714
-0.0201629
-0.00284651
0.0620292
-0.0387263
0.0549843
-0.0218975
-0.0244502
0.00651308
-0.0898021
-0.121073
-0.0461888
0.108824
-0.121077
-0.0058525
0.00939319
-0.00221124
0.0273144
-0.0277243
0.675
0.196796
0.408087
-0.00152348
-0.00953609
0.235565
0.0396258
-0.0633091
-0.0057439
-0.00417674
0.708348
-0.0494833
0.148189
-0.10302
-0.121568
-0.022384
-0.0530717
-0.0195971
0.210523
0.553815
0.0329104
-9.43893e-05
-0.00928316
-0.0643134
-0.00234498
-0.00028281
0.0829034
-0.0435085
-0.120768
0.402483
0.897544
-8.59515e-05
-0.0189668
-0.0500589
0.0662763
0.00760528
-0.122903
-0.000644854
-0.0602492
-0.0444209
-0.00335746
-0.0536513
-1.89802e-05
0.780209
-2.46083e-05
-0.0551316
-0.101105
0.804002
0.0502321
-0.0721746
0.274948
-0.0457611
-0.00459349
0.212064
0.000520706
-0.00202823
-0.0440369
-0.00872117
-0.0499187
-0.00514865
-0.106339
-0.0670364
-0.00516395
0.000607352
0.143116
-0.0567416
-0.0380406
-0.10913
0.727952
-0.00389361
0.182126
-0.00116467
0.926035
0.0281206
0.0257381
0.0450436
0.000307492
-0.0544416
0.028647
-0.122126
0.198475
-0.153165
-0.0277749
-0.00859214
0.0697711
-0.00495325
0.0632077
0.0205674
-0.000282526
0.0410675
-0.00195175
-0.00482856
-0.00395389
-0.0415129
-0.0814045
-0.0452409
-0.00808729
-0.0918058
-0.0533981
-0.00510394
-0.00086297
-0.0629196
-0.000534141
0.0219243
0.770778
0.171758
-0.140104
-0.131524
-0.0821177
-8.46228e-05
0.0518614
0.396726
-0.000650279
0.0370912
-0.00401098
0.162592
-0.00136176
0.0198219
-0.121748
-0.0476469
-0.0608413
-0.0149402
-0.0669602
0.105344
-0.0123021
-0.0545982
-0.189926
0.00978078
-0.00695163
0.364165
0.308162
-0.0436544
-0.0047785
0.000356188
0.707728
0.000518888
-0.0127043
0.0359413
0.0303301
-0.000635665
0.0320249
1.14142
0.122554
-0.0527618
0.0150202
0.156051
-0.122949
0.0523529
-0.00693909
-8.57626e-05
-0.00148971
-0.00394625
1.06997
-0.00825491
0.0654316
-0.000266805
-0.00299089
-0.00955173
-0.0281528
0.124078
-0.00492982
-0.0368674
-0.0201267
0.00223359
-0.00841433
0.948573
-0.0628638
-0.0069093
0.30476
0.249844
0.0284307
-0.00692168
-0.0208405
-0.00223242
0.000858747
-5.08165e-06
-0.00230686
0.026261
0.234845
-0.0726072
0.54081
1.07716
0.0352955
-5.06175e-06
-0.0287728
-0.0374059
-0.00306866
-9.25406e-06
-0.0737274
0.115936
-0.0563382
-0.00187043
0.0772184
0.00656707
-6.03256e-05
0.000115989
-0.0037256
0.0296919
-0.0726256
-0.0246798
-0.0184507
0.0255303
0.0221577
-0.000474747
0.267147
-0.112005
0.00225652
-0.0420641
0.164861
0.326902
-0.0403195
0.0437996
-0.0437796
-0.00494212
-0.187173
0.0004499
-0.00196161
-0.038142
-0.0575948
-0.00507357
0.490791
0.360861
-0.178236
0.00312307
-2.30811e-05
-0.0139717
0.0592561
-0.0152451
-0.0178125
-0.00704776
0.00241807
-0.00819082
-0.00859275
-0.00797219
-0.00171507
-0.146633
-1.41025e-05
0.0217012
-1.67486e-06
-0.121892
0.000202353
0.575666
0.313559
0.26757
0.00332782
0.290059
0.148612
-0.00493042
0.00256251
-0.00101824
-0.0105959
-0.0537912
-0.0147812
-0.0144049
0.00509447
0.000197029
-0.000610183
8.04915e-05
-0.00274022
0.0880614
0.00162325
-0.0389203
-0.000542425
-0.0669445
0.000573695
-0.000552562
0.323389
0.107635
0.433948
-1.62979e-05
-0.000327487
0.00269491
-0.0380545
-0.0125472
-0.0874331
-0.0561123
0.211928
-0.0178715
0.489878
0.000644832
0.00213471
0.510939
0.357976
-0.0533202
0.00428771
-0.120271
-0.0179356
-1.64487e-05
0.0215562
-0.111183
-0.0449678
-0.0783591
0.00326352
0.121714
-3.89699e-06
0.00440512
0.0535124
0.065679
0.60601
-2.93607e-06
-0.000263391
0.0029484
-0.044997
-0.00213579
-0.000683183
0.0548531
0.963676
0.0218387
0.404996
-0.0382493
0.755504
0.200565
-0.00811226
-0.07675
-0.106516
-0.0172451
-0.00205515
-0.00915235
-0.00404486
0.629929
-0.0447798
0.512725
-0.0130412
0.264502
-0.0385305
-0.0276386
-0.047451
0.216471
-0.00672354
-0.00114581
-0.0012893
-8.81816e-05
-0.000125626
-0.0867329
4.54406e-05
0.0543597
-0.00129922
-0.0013116
0.00349147
-0.0107199
0.000963209
-0.000412965
-0.0435802
-0.0100244
-0.010588
0.661815
-0.016556
0.0138922
-0.0244913
-0.0651097
-0.00174808
-3.88758e-05
-4.3767e-06
-0.0700432
-0.105895
-0.0596467
-3.81263e-05
-0.0298817
0.126382
-0.0049904
0.0350462
-0.000243232
-0.0534678
-0.0194032
5.35921e-05
-0.000444162
-0.0554333
0.00285084
-0.000669782
-0.081964
0.00054018
-0.0989463
-0.0439171
-0.0381356
-0.0363683
-4.19585e-06
-0.0735161
0.000143873
-2.29426e-05
0.00837801
0.415964
0.798518
0.321208
-0.00014327
-0.0246499
0.353507
0.0274224
8.98007e-05
0.0707001
-0.0301942
0.0576687
-0.00902437
0.107303
0.00148718
0.317603
0.000724026
-0.012467
-0.0382075
0.386422
0.000291361
-0.0437192
-0.0856644
0.20894
-0.0383894
-0.0124462
-0.0431926
1.46163e-05
-0.177383
-0.0104685
0.0379537
-0.0375375
0.00475505
0.125243
0.365528
0.778288
0.290277
0.29778
0.0169875
0.236551
0.0281649
0.379916
0.440634
-0.000965985
-0.00410001
0.794252
-2.21595e-05
-0.156012
0.00747258
-0.0380347
0.0010587
0.066072
-0.00396902
0.00263208
0.640259
0.901131
-0.000566964
0.000162049
0.0398239
-0.000926108
-0.0604801
0.362891
0.228699
-0.000434718
-0.058003
-0.047136
0.000790587
0.00396571
0.141182
0.88439
-0.00104682
-4.05563e-06
0.375985
0.00350277
-0.000577736
0.0690344
0.00893679
-0.00817826
-0.00598805
-0.130849
-0.0328469
-0.00391676
-0.0570723
0.000188171
-0.000516904
-0.0053226
0.0467783
-0.000839319
-0.043565
0.000846562
-0.0370296
0.39117
-0.000681926
1.134
-0.0174038
0.754861
0.0488065
-0.00180195
-0.000185452
-0.00149526
-0.0124314
0.19342
-0.00509605
-0.0288451
0.64863
-0.107446
-0.108072
0.0318041
0.0454759
0.657466
-0.00171671
-0.0432482
-0.038612
0.000158488
-0.00522178
0.000886265
0.000900226
-0.0866843
0.988421
-0.10143
-0.00559168
-0.0409978
-0.00147279
0.0859846
0.140863
-0.016677
-8.65916e-06
0.400887
-0.0276072
-0.123118
-0.00546449
0.0233797
-0.0600349
0.0086058
-0.0216738
-0.0027934
0.538083
-0.00947071
0.146058
-0.0767023
0.053433
-7.80115e-05
-0.0594981
-0.0437209
-0.0444041
0.0673683
-0.083439
0.000207854
-0.17466
-0.00411325
-0.000137603
-0.00491707
9.67807e-05
0.894824
0.000172089
0.571917
-0.0418637
0.0511676
0.0049396
0.169278
0.00621245
0.25265
-9.36711e-06
-0.0249897
-0.00429664
0.00195552
-0.0510512
-2.24278e-05
0.0232416
0.819563
0.0121736
9.80338e-05
-0.0720487
0.192565
0.669443
-0.00158809
-0.000989665
0.0406563
0.000115958
0.812438
-0.0183285
0.11567
0.236734
0.000108559
-0.139914
0.287987
-0.000517072
0.0655849
0.790981
-0.00601265
-0.000400885
0.000480417
0.0072747
-0.0380799
-0.0139981
0.493848
-0.0170448
1.00533
1.18635
-0.00722518
-0.000282514
0.515355
-0.00817987
-0.0335195
0.000117171
0.237456
-0.0766198
0.957426
-0.00407266
-0.000883095
-0.0276646
-0.0146238
-0.0575319
0.0559998
0.0411815
0.19657
-0.000734669
-0.0249672
-3.92981e-05
0.00240819
-5.04192e-06
-0.170648
-0.0537194
0.320296
-9.19367e-05
0.778124
-0.00142296
-0.00418976
-0.00205793
-0.112136
-0.0242999
0.146337
-0.000549555
-0.042573
0.00517485
-0.0252834
-0.000157887
-0.000935164
-0.000844145
-0.0702258
0.00214573
-0.00338215
-0.0575094
-4.39559e-05
0.000221144
0.000645107
-0.00177236
0.350645
0.117444
-0.0364004
-0.0474546
-0.0663711
-7.17433e-06
-0.0464803
-0.0880625
0.000439217
-0.0594356
-0.00449793
-0.0654717
-0.135647
0.000698558
-0.0104053
-0.000139962
-0.0124465
-0.00134781
0.361997
-0.0168155
1.9614e-05
-0.000663851
0.0532166
-0.0834009
-0.00811358
-0.000828745
0.498885
0.547527
0.00211013
0.123276
-0.0896883
-0.108868
-0.000263122
-9.97392e-06
0.410637
-0.0636799
-3.04644e-05
0.0905846
-0.00283909
-3.3223e-05
0.113443
-0.104445
-0.100708
-0.114676
-0.0379574
-0.0146663
-0.032964
-0.00162774
0.26768
-0.00105658
-0.0506083
0.0971164
-0.000797549
-0.0829845
-0.00690621
0.235864
-0.000961056
-0.0175115
0.674905
0.0845641
-0.042064
-0.0388603
0.385683
0.0771246
-0.025409
-0.0538244
0.359156
-0.00360504
-0.00116029
-0.160399
-0.0198278
-0.0249206
1.05704
-0.014246
-3.17648e-05
-0.147943
0.0038851
0.0102833
0.252067
-0.191267
0.0383356
-0.00556174
0.239439
-0.0398815
0.113362
-0.00892574
0.193314
0.148123
-0.0516278
0.181515
0.322214
-0.00135017
0.115804
0.898596
-0.157204
0.000113658
-0.0527732
0.228159
-0.00352821
0.0545341
0.379896
-0.00875028
-0.00499818
-0.0122456
-0.00941227
0.0669645
0.0861459
0.000220915
0.662286
0.987166
-0.0649261
-0.00520688
0.0551108
-0.0765816
-0.0557052
0.374598
0.459833
-0.00561248
-0.0607206
-0.0761662
-0.00286538
0.137036
-0.113524
-0.00723133
0.115017
6.93881e-05
0.254465
-0.0588803
0.209662
0.0585152
-0.168263
0.609332
-0.0039829
-0.0438325
-0.0767464
-0.000653351
-0.0425561
-0.0754512
-0.169896
-0.055989
-0.0102896
-0.026611
0.0549484
-0.2001
-0.00117296
-0.0244795
-0.122894
0.286616
-0.0932458
-0.100608
-0.0196615
0.002411
0.316621
-0.021083
-5.50988e-05
-0.00647429
0.00144037
-0.0250953
-0.0377696
-0.00489152
0.124059
-0.156962
0.0365356
-0.0694559
0.110994
0.0740417
0.00230123
0.00512967
-0.00916355
1.10279
-0.0499557
-3.1503e-06
-0.00714007
-0.00128144
0.457716
-0.0268731
-8.09517e-06
-0.0165306
-0.00331657
-0.0474822
0.202821
0.140713
-0.0524893
-0.0376671
0.00112086
0.68249
-0.0496235
0.158414
-0.0126398
-0.146488
0.0175995
0.00532371
-0.000541405
-0.024268
-0.00116615
-0.0509677
-0.00334578
-0.148418
-0.000881661
0.131559
-3.69995e-05
-0.00663039
2.33796e-05
0.207367
-0.0419569
0.628795
0.0291492
0.17215
-0.0870857
-0.000617242
0.621023
-0.0718978
-0.0387407
1.20376
-0.0021249
-0.018735
-0.12598
0.0593217
-3.76518e-05
-0.00511601
0.0106671
-0.0624956
-0.0507276
0.789901
0.00391384
-0.13001
0.201997
-0.163022
0.00681712
0.00261329
-4.47366e-06
-0.000527356
-0.00486862
0.0551224
-0.00146411
-0.00746244
-0.00418753
0.66772
0.584863
-0.0214497
-0.000535757
-0.0731503
0.0856964
-0.0194078
-0.000533412
-0.056418
-0.0727436
-9.46696e-06
-0.0111792
0.0728608
-0.0566405
-0.00174349
-0.10585
1.07571
-0.0723957
0.000239063
-0.114645
0.0605106
0.000168742
-2.17007e-06
-0.126845
-0.00504278
-0.17361
-0.000163037
-0.0191547
-0.0733045
0.944204
-0.0177515
0.0101061
-0.0397558
-0.0012027
0.207466
-0.00132867
0.046304
0.224546
-0.000230509
0.0631237
0.0028897
0.959903
1.20093
0.0245917
0.853826
0.686198
-0.0241267
0.0591738
9.62453e-05
-0.0267561
-0.0865108
-0.00499094
-0.000559007
0.00858947
-0.00223617
-0.000174926
-0.0244824
-0.00231141
-0.0477569
-0.102513
-0.000940745
-0.000748208
-0.0878733
-0.000929109
-9.89161e-05
0.200542
0.0458988
-0.0384168
-0.00325391
-0.113887
0.0252367
0.0989554
-0.0065266
0.00676119
0.2502
0.105342
-0.0726667
0.00308234
0.000409187
-0.000714526
-0.0505853
0.524847
0.0387394
-0.000182182
-0.122428
-0.000497704
-0.000758792
0.196317
0.000769519
0.923972
-0.00490573
0.384473
-0.00789193
0.00659085
-0.00798667
-0.00123944
0.243069
-0.00258336
0.00247643
0.843067
0.788826
1.11876
-0.00587001
-0.167948
0.114509
-6.15687e-05
-0.0735725
-0.0110211
0.380891
0.408011
0.00490565
-0.0192403
-1.36581e-05
0.112829
-0.000153293
-0.0182612
0.0098567
-0.00334417
-0.00953401
-0.00879238
-0.00816624
0.12933
0.204635
0.00323733
0.24201
-0.0539185
-0.137502
-0.0145938
0.0710254
-0.0417497
1.11056
0.572361
0.05848
-0.0382932
-3.98542e-05
-0.00173786
-0.0500813
-0.0852577
-0.040523
0.101946
0.363471
-0.049317
0.177028
-0.00149456
0.0178947
-0.0124296
0.334037
-0.118998
-0.000225163
0.249341
-0.000755405
-0.00103369
-0.000100279
-3.94905e-06
-3.04096e-06
0.336764
0.00550874
-0.0424684
-0.0014077
-0.1996
-0.081813
0.608067
0.00341316
-0.00276947
-0.0072578
-0.000100795
-0.00242118
-0.134288
0.0434436
0.234504
-0.0127208
0.20287
-0.038215
0.0155154
0.0474658
0.000675641
0.826593
-2.27249e-05
-0.00779724
-0.00232987
-0.0388021
-0.0192886
0.31938
-0.00824991
-4.35284e-05
-0.0782421
-0.0106926
0.374906
-0.000440446
-0.000783007
-0.000845941
-0.0596095
0.00538463
-0.0466527
-0.114685
0.159213
0.600079
-0.00503122
-0.000684437
0.00353297
-0.0038495
0.171572
-0.0861357
-0.00823609
0.0632308
-0.170001
0.000707616
-0.0769009
-0.00682644
0.00425108
-0.0810531
-0.00151376
0.0582865
0.367462
0.55137
0.282007
-0.00123661
-0.166759
-2.28072e-05
-0.0613844
-0.0620905
0.167598
-0.0177785
-0.164418
-0.0570325
-0.0553135
-0.00056949
-0.0176333
-0.0559114
-0.151182
-2.3292e-05
0.143413
-0.00206241
0.429446
0.089711
0.037166
-0.000496153
0.00063893
0.000930811
-4.84866e-05
0.175759
-0.0184853
-0.150729
-0.120235
0.0955181
0.663048
-0.0181058
-0.0570007
0.218911
0.0384321
-0.00344949
0.038138
1.12897
0.00257272
0.0564204
-0.0845057
-0.00478104
-0.0539723
-0.00735849
0.400711
-0.000365493
0.194538
0.677118
-9.31035e-05
-0.02656
-1.29881e-06
0.156293
-0.0240058
0.0151433
-0.0132168
-0.00492219
-0.0535791
-0.000898486
0.000555162
-0.0272908
0.0170328
-0.00688079
-0.000148674
-0.00563252
-0.0596282
-0.111278
-0.00835718
-0.000433441
0.0315535
-0.00344514
0.000618367
0.0522222
0.270874
-0.0359345
-0.0263871
0.168614
-0.00194977
-0.000927894
-0.061011
-0.00159892
-0.00154175
-0.0176055
0.1297
0.00202888
-0.0146046
-0.00581163
0.0383238
-0.000461477
-0.0014787
-1.65226e-06
0.154932
-0.00347157
-0.00800825
0.0366672
-9.11502e-06
-0.000609887
-0.000419669
0.332659
-0.003667
-0.0124282
-0.000288467
-0.0124309
0.247417
-0.00644965
-0.154139
-0.000449764
-4.02699e-05
0.0176658
-0.000789785
-0.000557342
0.623042
0.00881645
-0.0057409
-0.11679
-0.000783701
0.000718273
-0.0187882
-0.0029928
-0.00288401
0.797534
-0.000815295
-0.0419001
0.368232
-0.000603548
-0.0567148
-0.00172275
-0.0420308
-0.0779081
0.0488624
-0.0152834
-0.00200971
-0.0127504
-0.0458026
-0.00601206
-0.00896729
0.00101964
-0.00244633
-0.000275642
-0.000802442
-0.0333408
-0.046732
0.169807
0.00429312
-0.0265625
1.08911
0.191997
-0.0940007
-0.000771792
-0.0447861
-0.0615483
0.0798993
-0.0871431
-0.0719928
0.157244
0.166939
-0.030648
-0.0859581
0.572805
-0.0546443
8.13524e-05
-0.115876
-0.121663
0.00748507
0.0118228
-0.0414401
-0.00402975
0.0591974
-0.0565799
0.525276
-0.0619038
0.535833
-0.0740032
-0.00205337
0.00507397
-0.00106206
-2.29382e-05
-0.000440116
0.289559
-0.000147484
-0.0538378
-0.000272515
0.018273
-0.0769649
-0.00130294
-0.0122858
-0.0565943
-0.000551748
0.276877
0.0105516
-0.00297934
-0.0541237
0.155074
-4.17697e-06
0.0843902
0.000836511
0.259854
0.0302516
-0.0756128
-0.0560462
-0.00295376
-0.00219401
0.203496
0.331719
0.328467
-0.0111767
-0.0587048
0.521002
0.126674
0.0142473
-6.4849e-06
0.19012
0.0350719
-0.000842772
-0.0453102
0.638002
-0.0382461
0.000419508
0.982953
-0.000481052
-0.00861128
0.150791
0.350184
0.173221
0.171355
0.712555
0.370395
-0.000816472
-0.00201012
-0.00325948
-0.00287401
0.172818
-0.0534222
0.527346
-0.00280662
-0.0146581
-0.0303651
-0.0681394
0.000270943
0.000694628
-0.00197633
-0.0687272
-0.0027199
0.0394861
-6.72029e-05
-2.4591e-05
-0.000750502
-0.000725289
0.000373703
-0.0261941
0.0083504
-0.0350295
-0.0787865
1.04748
-0.0741381
-0.00154631
-0.00526806
-0.135073
-0.00284693
-0.000548187
-0.0267337
-0.00416749
-0.00225672
-0.0142268
0.0611068
-7.12539e-05
0.0386227
0.0114944
-0.00109935
-0.00106319
0.00482109
0.0368873
-0.0671901
0.111342
0.0289952
-0.0240596
0.00812046
-0.0732713
-0.00347923
-6.56361e-05
-0.000331752
-0.00903535
0.245901
-0.0348995
-0.0121667
-0.0193647
-0.0795443
-0.00162459
0.667566
-0.0224538
0.154953
0.000717267
-0.00186388
-0.0004602
-0.0369839
-0.118962
0.649652
0.684709
0.193456
-0.0265875
-0.056738
-0.000146845
-4.78039e-05
-0.0167079
-0.0773568
0.310834
-0.151567
-0.0638447
-0.0568402
0.254741
0.0915927
-0.178596
-2.46506e-06
0.102881
0.257854
0.0223834
-0.000115406
-0.0168878
-0.00949583
0.325139
0.166983
0.0105381
0.00828121
1.0879
-0.0237334
-0.000114446
-0.000145948
0.0408534
-0.0263364
0.142682
-6.45546e-05
-0.120004
0.00347062
3.58009e-06
0.770776
-0.00890638
0.144672
-0.0181301
0.000833481
0.0521807
-0.117039
0.303749
-0.0382897
-0.0244476
0.788386
0.000375152
0.044184
0.179117
0.522381
-0.0034653
0.158799
-3.6329e-06
0.000500494
0.209572
-0.020085
0.0344646
0.0831031
-0.00068581
0.313946
-0.107737
-8.74734e-05
-0.10522
-0.00461023
-0.0140904
-0.000838163
-0.00026034
-0.0686767
-0.0114835
0.000502035
-0.0078927
0.00250433
0.174189
0.597621
-4.71518e-06
-0.00545608
-0.00143383
-0.0656123
-0.00090489
-0.00018108
-0.000102567
0.559326
-0.00670994
0.000666194
-0.0397309
-0.0538864
-0.106458
0.592957
0.424564
0.340408
-8.66516e-05
-0.125268
-0.0702693
-0.0152741
-0.0852212
-0.00351969
0.254655
-0.0316477
0.0146865
-0.00271969
0.05117
-0.105718
0.0429172
-7.11528e-06
0.0961388
-0.000221219
-0.00151773
0.0734456
-0.00416455
-0.0589224
1.06015
-0.0182929
0.00184633
-0.00643051
0.222589
0.354982
0.655371
0.374499
-0.108303
-0.00552236
-0.00239193
7.18602e-05
-0.0511407
0.00351751
-0.000314893
-0.00868096
0.00214809
-0.0445652
-0.0192307
-2.87265e-05
0.00684156
0.0301312
0.741888
0.199937
-3.58729e-05
0.10172
0.000645786
-0.103026
-0.109067
-0.0220045
0.626176
-0.0017534
-0.0678964
0.0415215
-0.00156339
3.53742e-05
-0.0546486
0.185354
-0.0600365
-0.0645536
0.0779732
-0.0779003
-9.80419e-06
-4.87613e-05
0.0694216
0.0133726
-0.0523572
-0.00238608
0.327007
-0.000698041
-3.94871e-06
-0.0026339
0.00460687
-0.0199312
-5.74979e-05
-0.0462199
0.114744
0.220047
-0.00580056
0.464464
-0.0327216
0.222988
-0.0191259
0.0155233
-3.01732e-06
0.0492049
0.0691448
0.0963891
0.913091
0.281294
-0.0177244
0.00371875
0.333502
-0.0180013
0.373171
-3.29516e-06
0.129054
0.171597
0.70608
8.6608e-05
-0.000112974
0.348044
0.67688
0.174778
-2.44289e-05
-0.162151
0.120413
-0.00766963
-0.00365598
0.0434782
0.0430772
0.0154656
0.52318
-0.005361
-0.0708963
-0.00594262
0.0540312
-0.00393628
0.6058
0.164163
0.0706701
-0.00263179
0.157399
-0.0798814
0.0207129
-0.0623494
0.000124911
-0.0568737
0.0308616
-0.0110565
-0.00643431
-0.0887425
-0.0151834
-5.40962e-05
-0.125025
-0.00773739
-0.000559195
0.0172956
-0.00465477
-0.00798826
0.0503465
-0.000831202
0.0813067
-0.0864723
0.425919
-0.00078631
0.99067
-0.0001557
-0.0151989
0.011807
-0.000196322
-0.0125467
-0.00440199
-0.108972
0.282946
-0.0374172
-0.0133343
-0.0720271
0.445169
-0.000156463
-0.160411
0.0674364
0.0370268
-0.000111897
1.07731
0.0105196
0.0292461
-0.00897718
-0.00460716
-0.000248556
0.43
-0.0124423
0.201593
9.72977e-05
-0.0871348
-0.00343102
-2.357e-05
0.506039
-0.000281446
0.252454
0.840716
0.318907
-0.0167686
0.23017
0.244496
0.418468
0.51882
0.328605
0.758782
-9.03163e-05
-0.0493229
0.245166
-0.00209017
0.284473
-0.0717036
-3.22139e-05
-0.00143814
-0.0559561
0.998711
0.0609699
0.00959961
0.154648
-0.000859381
-0.000588088
0.0146243
-0.04888
0.0149411
0.391459
0.957605
-0.0387158
0.532616
-0.0686587
0.0601208
0.629837
-0.00102022
0.327043
-0.0121646
0.0549485
0.00233162
-0.129126
-0.0206767
-0.037087
-8.81802e-05
-0.0291914
-0.0001727
0.2498
0.998295
-0.0939417
0.000854835
-0.0377621
-0.0624414
-0.000255153
0.0106723
-0.0522021
0.0111801
-0.0407598
-0.0459233
-0.00202153
0.000248885
0.0759774
7.07498e-05
-0.0585295
-0.000336767
0.173488
-0.00397937
-0.0617211
5.98037e-05
-0.0124215
-0.060072
-0.0246485
0.0279288
0.000663599
0.106605
-0.0578276
-0.116106
-0.00061625
0.0718727
0.0759307
-0.0529045
0.51667
-0.0145336
-0.11795
0.0169136
-0.0090108
0.0126081
-2.03543e-06
-0.166104
-0.0378389
-0.00862102
-0.000605165
-0.00266886
0.152361
-1.85128e-06
-0.00207525
1.17928e-05
-0.000110168
-0.00543122
0.600375
1.13388
-0.0013668
-0.00152135
-0.00010968
-0.0883263
0.00551521
-0.0197607
0.0475551
-0.0046204
0.201467
0.00490761
-0.00361723
-0.00291151
-0.012437
0.00777629
-0.00106074
0.449033
-0.00484999
0.978305
-0.0396212
-0.000112537
0.159367
-0.00254503
-0.0472532
0.244816
-0.00810275
-0.0379366
0.944728
-0.0674756
0.00402183
-0.0515263
0.0849204
-0.0144805
0.0643563
-0.000210409
-0.0482303
0.000747644
0.680578
-0.00690508
-0.0522598
0.0487297
-0.0146174
0.0664805
0.00246631
-0.00375998
0.224763
0.00137561
-0.158897
-0.0144693
-0.00518823
-0.00203525
0.0123005
-0.0710133
-0.00363869
-0.0513043
0.0108367
0.00088632
-0.0597626
-0.00119675
-0.00203526
-0.00467434
-0.000277265
-0.110698
0.00158072
0.203184
-4.78434e-05
-0.00179864
-9.816e-06
0.846758
-0.000281631
-0.0939075
0.111543
0.227854
0.000315161
-0.00823736
0.00506258
0.00301751
-0.0281945
-0.0709237
-0.0604097
-0.0389494
-0.0124855
-0.00144799
0.16935
0.0539697
-0.0421509
-0.00337174
-0.202178
-0.0698156
-0.000635439
-0.0142098
0.0814332
0.945733
0.556675
-0.00825408
-0.043695
-0.021156
-0.00208915
-0.00140334
-0.0432863
-2.88567e-06
-0.0906532
-0.0435122
-3.36779e-05
-1.72696e-05
-0.0732081
0.0215734
-0.0484636
0.0757763
-4.63799e-05
-0.0706701
0.0318911
-0.0439191
6.45049e-05
-0.0682326
-0.00173306
0.284135
-0.00199302
-0.0818636
-2.44789e-05
-0.00467657
-0.0555499
-0.144599
-0.0102909
-0.0505627
4.98704e-05
0.076102
-0.0234063
-0.0473118
-0.101354
0.00867541
0.117641
1.0068
0.0122429
0.0942016
-1.51634e-05
-4.43479e-05
-0.000726474
-0.0550775
-0.000335576
-0.00401647
0.116578
0.870544
0.916009
-0.00238979
0.386877
-0.0131311
0.000774425
0.00919918
0.0661621
-0.0230425
-1.72979e-05
0.0856655
-0.000977671
-0.152115
-0.118424
-0.121298
-0.0441917
-0.000129457
0.000879617
-0.0157158
0.295151
-0.0646353
0.0141571
-0.0589956
0.904579
-0.00282942
0.22004
-0.000224136
-0.0590781
-0.0088133
-4.40262e-05
0.00136234
0.0593429
-0.00829853
-0.118822
0.00750422
0.054673
0.592964
-0.0149341
-5.48946e-06
-0.00063816
-0.0462213
0.0653188
-0.0437405
-0.0192678
0.00146813
0.00029335
0.177161
-0.000219792
-0.000647412
-0.00243954
-0.0136952
-0.00710758
-0.00846151
0.142242
0.0168443
0.0103926
0.0495554
1.19852
-0.101874
0.340972
0.17247
-0.0807387
-0.0800407
0.00888033
-0.0817631
-0.00333314
0.204479
-0.0274629
-1.61801e-06
-0.0129329
-2.90265e-06
-0.105562
-0.00631699
-0.00498203
-0.0137432
0.305967
-0.00104283
-8.70387e-05
0.0724443
-0.169422
-1.22836e-05
-6.648e-05
0.00164937
-0.166136
-0.000758145
-0.0715941
-0.0026048
-0.0520442
-0.0519901
0.0218086
-0.0166569
0.167733
-0.0637931
2.66785e-05
-0.00262073
0.399302
-0.0149519
0.0268361
-1.37905e-05
-0.0395492
-0.0398762
-0.000584878
0.00441977
-0.0442485
0.00563187
0.634797
-0.000236321
-0.166182
-0.00269064
-0.00238542
-0.00138955
-0.00902823
0.299101
0.00722905
-9.73718e-06
0.188903
-0.0228527
-0.00159361
-0.076629
-0.00376121
0.0639594
-0.0789851
-0.000731811
-0.00450518
0.0374483
-0.0504445
-9.39503e-06
-0.192743
-0.0492948
0.033279
-0.0430871
0.0199314
0.605159
-0.0137352
0.0850739
0.194634
-0.0017502
-0.000705872
0.379985
-8.85911e-06
1.17805
-0.0137971
-3.06714e-06
0.225232
0.286325
-0.19889
0.056524
-0.0637444
0.0650229
-0.0119945
0.0190046
-3.99809e-06
-0.0152238
0.104837
-0.0452312
-0.026573
-0.00623954
-0.0822371
-0.00955597
-0.00660423
-0.000627823
0.0810516
0.922906
-0.0604653
-2.90963e-06
-0.000845522
0.00155701
-0.00418287
-0.193178
0.225287
-0.0872599
-0.044969
-0.0869747
-0.0449728
0.859086
-2.28091e-05
0.0451653
0.0106065
-0.0838595
0.00268005
0.112684
-0.00618955
-0.00269002
-0.0156998
-0.000710483
-0.000413875
0.0928462
-0.00460161
0.321643
-0.000200288
0.0821733
-0.0188186
-0.0415899
-0.0429533
-0.00310983
-0.119056
0.0207661
-9.76641e-05
0.130549
-0.117045
-0.000594831
0.155299
-0.0864025
-0.0257751
-0.0527495
-0.154551
0.163651
-0.199204
0.129458
0.00103697
-0.0377309
-1.75863e-05
0.219274
0.0259918
-0.00103591
-5.43949e-05
0.176008
-0.00279083
0.0845393
0.260525
-0.173997
-0.000172773
-0.0404696
0.652771
0.155899
-0.012532
0.222215
0.136831
0.0757896
0.0002107
-0.00474905
0.0324647
0.285974
-0.054848
0.00010025
-0.00261737
-1.82402e-05
-0.0742097
0.0334397
0.0823053
0.114267
-0.0373498
-0.0779367
-0.0554459
-0.078449
-0.0274159
0.451288
0.053112
-0.119294
-0.00398429
-0.000110947
0.000812688
-0.114896
0.00260201
-0.000828465
0.191849
0.180049
-0.0566549
0.169987
0.00903062
0.642885
-0.00380556
0.253939
-0.0384448
-0.0029185
-0.000115891
0.0574879
-0.0541013
-0.00262342
-0.024059
0.345322
0.367152
-0.0321471
0.622665
0.258606
-0.053546
-0.0473398
-0.0665226
-0.00824595
0.216209
-0.0748735
-0.00100956
-8.76338e-06
-0.00256955
-0.0482574
-0.0110407
-0.0404847
-0.0398953
-0.0247298
-0.00307425
0.682333
-0.0122852
0.367925
1.00797
0.234496
-0.0142925
-3.58012e-05
-0.0516252
0.00237184
-0.0156395
0.611846
0.177899
0.162515
0.855271
0.0108811
0.064869
-0.0525489
-2.07169e-05
0.386627
-0.00988002
-0.0514823
-0.0414168
0.0143029
-6.32369e-05
-0.0501441
0.123107
-2.80421e-06
0.994665
0.118934
-0.00128951
-0.000820249
-0.00331955
0.358165
0.137646
-4.97232e-06
-0.00337569
-4.29656e-06
-0.000675171
0.00184117
-0.00332724
-0.0149291
-0.00805731
-0.00501679
-0.0157216
-0.00154909
-0.00126881
0.05158
-3.01336e-05
-3.25744e-05
-0.0107749
-0.0381886
0.00805733
0.513993
-0.0138161
-0.00211866
-0.0154811
-2.58329e-06
0.00591783
-0.0741238
-0.0686362
-0.137561
-0.00112783
0.380709
0.073589
0.211604
0.025228
-7.33525e-07
-0.0359391
-0.00900629
-1.7644e-05
0.0151889
-0.116532
0.00013367
-0.0417583
-0.0293062
-0.00015062
1.06867
0.186898
-0.00329423
-0.0831939
0.137975
-0.0406762
-0.0175333
-0.000182127
-0.0524771
-0.0283225
-5.01657e-06
0.114822
-0.000196658
-0.0030447
-0.0629409
-0.118595
-0.0109466
-0.0120051
-3.15809e-05
-0.0803696
0.00248065
0.231372
-0.0541226
-0.000793052
-0.0114294
-0.00301858
-0.102533
-0.104795
-0.0431975
-0.0164606
-0.104401
0.174856
0.00110377
-0.000229267
-0.00642562
-0.0403874
0.067243
0.804644
-0.0246877
1.14296
-0.000740343
-0.0642114
-0.116647
0.390883
0.622653
-0.0199425
-0.00397374
-0.0623045
-0.000146401
0.866315
0.35929
0.137941
-0.0662897
0.124352
0.168811
0.795632
0.309109
0.293888
-0.0843392
-0.0499289
0.36705
-0.111363
-0.00358878
0.0105489
0.0385688
0.000697125
-0.0373351
-0.00074056
0.00859937
-0.00272101
0.00281571
-0.0291325
-0.000164744
-0.0518234
-0.0811303
-0.0840922
-0.000167459
-0.0091418
-0.000262111
-8.45214e-05
0.203377
-0.0941711
-0.0247496
-0.00141877
0.0192209
-9.31241e-05
-0.00088643
-0.00196751
-0.0010015
-0.0611138
-0.0809699
-0.00190099
0.164827
-0.0045562
-0.0776906
0.0740937
-0.012992
-0.00415294
-0.000826339
0.0212175
-0.0667951
-0.00475172
-8.22597e-05
0.00594971
-0.063438
-0.044383
0.0663402
-0.000546351
-0.0519403
0.98937
0.000779827
0.0011782
0.0951937
-0.00190735
-0.00273756
-0.000225655
-4.81133e-06
-0.000616988
0.0341586
-0.0933859
0.720005
1.07246
-0.00143932
-0.000414543
-0.00102319
-0.0691424
1.20954
0.070923
-0.112843
-0.0682797
-0.000242949
0.000675401
-0.0438108
-0.00424754
-0.0444811
0.0189945
0.00726519
-0.00428676
0.00163341
0.890082
-0.0755836
0.000406296
-0.00382618
0.0492706
-0.0372143
-0.169096
-0.11384
-0.0158423
0.467902
0.664195
0.198165
0.416427
0.147289
-0.101449
-0.0162354
0.00703536
0.123929
-0.0554314
0.000254832
-5.63158e-05
-0.114117
-0.180726
-0.00207731
-0.0289934
-0.0896102
-0.0960828
0.651524
-0.00466332
-0.0507429
-0.0137044
-0.0445751
0.121543
0.0414211
0.0068931
0.00662792
-0.0275823
-0.00682149
-0.021483
-0.0559124
-0.00978593
-0.0956599
0.355086
-0.0597894
-0.0283936
-0.00925274
0.240925
-0.0160617
-0.0688314
-0.0695428
-9.08327e-05
0.3976
0.10861
-0.0159745
0.00247324
-0.0409383
-0.0244344
-0.0048329
-0.0871096
-0.0175526
-0.13432
-0.0116672
0.00249669
-3.67605e-05
-0.000957734
0.057764
-5.07184e-05
-0.0252934
-0.0636795
-0.0575734
-0.00078327
-0.000767142
7.24571e-05
0.00224996
0.0651107
0.0276848
-0.0834402
-0.0716917
0.00298279
-0.0207462
-0.0056787
0.804055
-0.0212464
-0.00877168
0.462592
-0.0285514
0.462285
0.800419
-0.0191115
0.188042
-0.0250596
0.015348
-0.00639041
-0.00503643
-0.00124278
-0.0657858
-0.141919
-0.0629973
0.00362213
0.174955
0.0119495
-0.171459
-0.00100732
-0.00186655
0.379495
0.277397
-0.02046
0.40233
-0.0177508
0.646597
-0.0123984
-0.00904788
0.0707984
0.0858965
-0.000755981
-0.00342751
0.31079
-0.0486519
-0.000424923
0.943489
0.179095
-0.0115318
-0.108036
0.359859
0.912934
-0.0110977
-0.052244
0.000219331
0.00825379
-0.00149823
-0.0724564
-0.0864747
7.23998e-05
-0.0272267
-0.171132
0.0479402
0.207749
-0.00833219
0.304166
-0.0664477
-0.0056577
-0.176517
0.0536829
-0.00076813
0.822437
-0.0110519