/*--------------------------------*- C++ -*----------------------------------*\
  =========                 |
  \\      /  F ield         | OpenFOAM: The Open Source CFD Toolbox
   \\    /   O peration     | Website:  https://openfoam.org
    \\  /    A nd           | Version:  7
     \\/     M anipulation  |
\*---------------------------------------------------------------------------*/
FoamFile
{
    version     2.0;
    format      ascii;
    class       surfaceScalarField;
    location    "40";
    object      phi;
}
// * * * * * * * * * * * * * * * * * * * * * * * * * * * * * * * * * * * * * //

dimensions      [0 3 -1 0 0 0 0];

internalField   nonuniform List<scalar> 
176195
(
184.981
80.9739
-265.955
-472.508
101.737
370.771
-47.5347
-59.7145
107.249
46.1838
-201.842
155.658
-529.701
361.938
167.764
186.691
-306.465
119.773
-98.0121
159.204
-61.1915
-90.2643
236.244
-145.979
-359.04
321.249
37.7906
-463.834
-8.67414
-215.537
334.754
-119.217
513
-359.902
-153.098
-126.659
339.744
-213.085
-27.0504
33.9591
-6.90868
-73.6609
-285.379
3.93474
-27.1464
23.2117
-457.804
111.173
346.631
-389.043
87.3839
301.659
-248.758
300.072
-51.3147
-374.84
-154.861
-88.8352
223.475
-134.64
47.7218
-48.8247
1.10294
362.863
-248.377
-114.486
91.01
-216.522
125.512
-437.206
352.818
84.3883
81.3163
94.2107
-175.527
-53.4142
28.6549
24.7593
-295.808
644.961
-349.153
-256.579
-179.645
436.225
-17.7595
107.115
-89.3554
415.856
-328.367
-87.4888
-366.243
12.0783
354.165
-321.899
502.761
-180.862
-30.3277
-30.0471
60.3748
-204.489
-129.338
333.826
173.562
20.9379
-194.5
-139.474
90.1286
49.3456
-122.742
-335.062
-248.408
-63.8664
312.275
112.657
120.917
-233.574
89.4945
-455.737
-71.319
-317.724
-66.2434
-39.0489
105.292
-34.9185
208.48
3.66621
83.6694
-87.3356
5.62819
-32.6786
305.326
74.8547
-380.181
749.646
-425.612
-324.034
448.271
-194.886
-253.385
426.894
-552.879
125.985
-391.415
478.924
-87.5096
123.604
-48.9324
-74.6712
-495.682
403.848
91.8346
-503.322
450.005
53.3178
-144.335
-147.441
291.776
-391.156
-104.526
695.304
-445.338
-249.966
-92.9845
89.0751
3.9094
-84.4876
15.847
68.6406
102.138
-158.92
56.7816
-504.017
333.591
170.427
-146.866
229.588
-82.7223
291.114
-111.296
-179.818
-62.3213
79.8531
-17.5318
287.573
91.1267
-378.699
15.7433
-478.955
463.211
-349.21
236.496
112.714
-206.603
479.615
-273.012
-28.0834
-13.7558
41.8392
-687.707
337.839
349.867
50.4007
76.4142
-126.815
-39.1517
43.496
-4.34432
275.951
-163.294
-25.884
18.3175
7.56651
-131.963
-70.5461
202.509
30.5373
-58.538
28.0007
-64.4084
110.522
-46.1135
252.724
-399.451
146.727
-431.483
117.563
313.92
-264.084
109.415
154.669
-147.356
-116.728
424.919
-428.019
3.0998
-23.4734
-89.4934
112.967
-438.062
800.038
-361.976
-39.8384
113.015
-73.1765
342.546
170.454
-78.5955
96.3297
-17.7342
-321.797
471.834
-150.037
43.1781
-39.9123
-3.26583
-91.0568
442.292
-351.235
81.2112
-146.628
65.4166
89.6683
-10.8604
-78.8078
210.783
-467.363
120.019
90.9445
-210.963
-382.428
268.483
113.945
-621.046
444.848
176.198
238.695
-294.365
55.6692
83.5571
-107.03
-207.326
-8.5294
215.856
7.07362
36.1045
-322.82
-181.197
251.804
-580.802
328.998
367.164
-188.587
-178.576
-622.871
644.357
-21.4863
159.241
-108.841
214.803
-155.621
-59.1823
-405.599
216.189
189.41
-97.8166
132.42
-34.603
-142.014
185.543
-43.5291
-316.125
-64.3858
380.511
40.1005
95.0028
-135.103
-51.8544
290.55
29.6984
-94.1068
146.35
69.5299
-215.88
-227.135
93.0712
134.064
209.238
-359.208
149.97
-290.021
74.4836
-148.867
138.12
10.7465
364.159
-544.345
180.186
9.83682
-48.9885
-147.931
-0.936092
23.4472
-19.5125
-129.283
51.4886
77.7947
90.3376
14.5184
-104.856
-230.32
531.436
-301.116
-123.177
105.418
-185.005
38.1396
-202.469
131.923
70.5454
-118.523
-33.0692
151.592
-703.231
705.359
-2.12779
-135.387
250.681
-115.293
597.814
-306.776
-291.038
-8.88689
94.538
-85.6511
557.221
-214.675
-329.684
483.363
-153.678
-172.752
246.487
-73.7343
-419.566
361.763
57.8029
85.5456
-407.445
132.706
-277.041
143.479
86.1091
77.4458
4.53996
-81.9858
-213.074
365.729
-152.655
509.483
-510.754
1.27149
417.601
-141.203
-276.398
-281.915
146.528
142.025
-533.439
533.393
-386.565
-146.828
-65.9579
-119.048
-550.735
344.132
-210.501
-244.433
454.935
102.491
112.313
75.5168
-71.8506
5.51087
84.1574
-566.506
272.696
293.809
62.2245
61.3791
-467.266
544.525
-77.2598
-410.194
94.0689
-162.377
209.003
-46.6263
41.5816
-40.7207
-0.860905
-210.088
192.15
17.9378
53.7849
-23.2477
184.622
348.771
135.055
156.059
-208.701
136.731
71.9701
228.663
-141.387
-87.276
145.111
118.277
-263.388
557.132
-315.915
-241.218
-36.6577
-94.7512
131.409
-190.029
27.6524
-204.626
124.926
79.7001
-173.944
125.129
48.8153
-120.345
425.67
157.958
-166.591
8.63352
14.235
-32.4916
18.2566
-99.3083
-53.348
152.656
242.093
-559.881
317.788
37.1999
-22.9649
112.383
130.064
-242.447
152.621
-389.082
236.461
282.217
166.054
-361.581
-182.8
544.381
-201.374
69.4109
53.4101
-251.948
198.538
-310.237
468.605
-158.368
-165.34
-240.26
-211.151
375.402
-164.252
100.772
-185.984
85.2116
315.579
184.421
-161.082
376.98
-215.898
-78.2374
159.449
-140.616
253
-366.345
195.727
170.617
415.077
56.7166
-471.793
-114.089
61.9974
52.0912
-106.323
187.639
43.5872
-169.876
126.289
14.9997
22.2002
-17.4257
16.3529
1.07275
24.464
-65.2285
40.7645
81.6375
121.41
-203.048
-593.065
462.668
130.397
-373.378
308.921
64.4567
454.407
93.6724
-548.079
481.716
-476.907
-4.80918
-215.2
135.702
79.4977
60.2542
-21.7406
-38.5137
340.485
-206.248
-134.237
-91.4747
379.047
-262.543
-276.273
538.816
76.2894
-222.632
146.342
35.4574
-20.4577
-9.81932
226.009
-17.161
-420.045
-385.255
294.198
-120.482
-77.0289
197.511
-48.5425
-65.5461
-185.906
284.593
-98.6864
-212.504
-164.391
376.895
-26.1272
31.7554
-139.587
-234.46
374.048
96.4505
36.7784
-133.229
87.5097
-12.3033
-75.2065
116.287
-352.223
235.936
-25.1696
44.8705
-19.7009
-73.4757
-429.847
-341.743
118.88
222.863
-188.001
-108.439
296.44
73.606
-29.1198
-44.4862
172.294
-128.707
-437.441
17.7605
419.68
-14.1509
-557.019
571.17
100.588
-113.053
12.4648
12.072
-73.5375
61.4654
72.0945
-142.382
70.2878
-250.108
111.372
138.736
-185.711
-407.354
-700.856
315.376
385.479
445.387
-216.964
-228.422
-44.1757
132.091
-87.915
104.488
-66.4811
-38.0071
-155.954
-20.9255
176.879
-281.646
173.426
108.22
-197.884
-12.2035
-10.0002
-197.326
185.33
-140.77
-44.5601
-208.801
453.739
-244.938
521.906
-319.895
-202.011
45.3856
-29.0416
-16.3439
-129.001
92.3436
-50.6789
22.7609
27.9181
339.567
148.401
-487.968
-297.224
143.405
153.819
277.988
-624.06
346.072
409.497
-189.979
-219.517
211.679
-134.391
-77.2879
4.97721
-366.558
131.139
-73.5905
-57.5487
-803.96
430.748
373.212
534.797
-534.797
-231.757
141.493
490.497
-485.52
4.26588
-30.393
-544.868
234.631
135.333
212.378
-347.711
6.98914
-149.003
187.301
-141.117
92.3062
-1.96856
111.631
-187.387
75.7562
-92.1173
119.876
-27.7586
-127.087
31.5079
95.579
410.694
-132.927
-277.767
-382.159
221.078
482.816
-200.599
-228.413
-53.2331
192.727
120.337
-313.064
-103.109
39.1684
63.941
76.8465
-100.058
23.2112
-168.857
69.5487
-242.448
299.223
-56.7753
45.2593
-143.076
-103.255
-105.446
66.8069
129.849
-407.899
278.05
47.8928
12.3614
468.334
-211.112
-257.221
232.508
266.798
-499.306
-4.93968
-336.803
595.907
-613.28
17.3733
124.312
-122.314
-1.99804
-244.325
-44.4417
288.767
108.451
-31.6041
-500.749
68.3762
432.372
48.7766
40.5546
-89.3312
267.63
-277.449
-222.273
403.482
-181.209
-625.855
409.262
216.594
286.326
-230.327
-55.9989
-265.824
-146.986
412.81
-129.597
373.621
-244.024
-31.2123
-95.8746
34.4723
-9.80987
-24.6625
129.865
-179.985
50.1202
-80.4595
41.3815
39.078
225.377
-151.975
-73.4012
116.626
3.692
-120.318
-203.243
281.358
-78.1154
-241.502
179.213
62.2889
44.5667
29.0392
402.952
-98.1769
-304.776
-185.259
337.881
-106.327
-78.0476
184.374
124.387
-40.0447
-84.3419
-39.3006
92.0997
-52.7991
-127.102
82.9259
-321.042
194.384
-190.575
390.693
-200.118
512.737
-97.6604
249.409
-458.209
194.442
-103.432
65.7412
-105.768
40.0263
-63.5105
-143.871
207.381
237.896
-377.483
-92.0554
546.462
-66.9455
-160.19
266.66
-35.6794
-230.981
-47.2288
24.6375
22.5913
-470.271
3.00534
304.717
-487.649
182.931
4.8062
29.6662
90.1054
-41.3288
84.9803
-191.307
-430.959
-69.7895
191.197
166.251
-357.447
220.906
65.42
257.542
-115.14
-142.402
107.198
127.179
-234.377
-195.646
47.8692
147.777
75.8952
-351.351
275.456
329.34
-142.649
175.41
-74.6383
68.9263
52.5394
-121.466
-51.1525
259.718
-208.566
-30.1918
-23.2225
55.0735
-76.1753
21.1017
182.637
-64.5537
-118.083
-247.37
-215.936
463.306
-177.864
-64.5842
-128.171
-58.0363
186.207
23.211
55.8351
-79.0461
329.316
-166.489
-162.827
-105.891
97.0044
-522.617
298.059
224.558
470.51
19.9877
89.4018
-222.672
133.27
169.53
-87.8929
211.073
63.2529
-274.326
-76.5559
261.537
-105.734
-299.655
405.389
-227.644
379.724
-152.081
-114.759
286.786
-172.027
37.7885
155.091
-192.88
146.182
-130.336
-15.8458
-67.3143
-72.1599
-285.902
163.595
122.307
96.1184
31.2647
-127.383
-438.525
332.791
-18.6377
19.2871
-0.649404
-124.775
55.8616
68.9139
327.686
-211.399
-169.482
473.403
-303.922
281.001
-199.403
-81.5975
-36.6202
57.9908
-21.3707
25.3725
20.013
20.4385
203.824
-224.262
104.246
-71.6716
-32.5748
116.479
358.231
-474.71
176.588
527.429
-100.535
123.646
149.822
-273.468
-164.831
332.246
-167.415
130.626
-30.0377
177.278
-120.218
-57.06
-41.6885
166.643
-124.955
159.465
-274.224
528.664
-296.155
-362.4
360.067
2.33358
77.8774
-65.8054
-42.9655
23.3011
19.6644
596.208
-234.271
-46.7286
203.929
-157.2
-339.066
489.63
-150.564
279.822
99.8436
-379.665
17.4926
-96.0882
-630.203
334.395
0.283114
87.2266
-262.305
96.2478
166.057
345.351
57.6019
-311.878
-191.18
503.059
273.435
209.381
-57.0225
-16.5709
73.5933
38.798
14.7063
-53.5043
-154.168
297.194
-143.026
141.378
-117.525
-23.853
-163.309
297.024
-133.715
243.005
190.651
-433.656
137.324
63.4232
-200.748
144.402
-474.086
-151.326
238.365
-87.0395
-166.176
276.02
-109.844
-21.1766
35.3423
-14.1658
222.972
-118.214
-104.758
-181.351
103.303
245.388
-492.758
-75.1731
188.922
-113.749
-98.0284
58.19
187.679
111.544
436.23
-162.795
132.915
-266.388
133.473
354.455
73.3071
-427.762
-265.008
547.629
-282.621
-232.349
-266.589
10.9062
24.5512
624.807
-410.358
-214.45
32.8127
96.4162
-129.229
-95.8719
56.5713
369.302
-353.695
-15.6068
-61.8058
199.13
-262.052
340.506
-78.4536
424.956
270.348
184.443
95.8009
-280.244
-620.001
443.631
176.369
-310.593
419.466
-108.873
-87.5365
145.844
-58.3077
71.6417
-27.075
82.4902
142.886
115.133
-266.459
-104.168
271.737
-167.569
412.752
212.056
330.54
-316.88
-13.6601
325.227
-546.876
221.648
327.646
-74.9219
-144.423
-558.808
88.1447
-225.446
137.301
19.5185
-76.541
320.842
147.491
239.635
-209.212
-30.4229
216.741
236.997
137.744
220.136
-357.88
-39.5257
319.347
518.621
-276.528
-317.438
-61.3765
378.814
-290.821
-186.344
477.165
446.704
-269.526
-177.178
599.117
-336.916
-262.202
-47.3089
-81.6924
-24.2762
201.695
-177.419
68.8122
139.127
-207.94
27.6338
-47.7731
20.1393
-8.2859
293.116
-284.83
-23.2356
4.62927
18.6063
60.2705
81.1077
459.119
-242.378
424.297
171.911
-416.846
83.5702
333.276
36.6839
87.7026
-217.616
128.78
-236.897
-250.731
487.628
-15.2992
-17.1924
-6.57436
-16.6612
172.23
-463.051
263.656
25.2367
-44.1428
18.9061
180.56
-48.4695
-22.2502
-3.63379
-267.185
163.017
-3.17933
269.839
-323.969
498.856
-174.887
300.871
-537.768
524.631
-272.827
152.991
214.87
-367.86
-161.706
31.2927
130.413
-367.419
488.553
-121.134
302.022
-226.127
688.953
-280.02
-408.933
92.4004
88.1598
339.187
-160.43
-178.757
-232.084
426.303
-194.219
184.082
-191.302
7.22081
-294.824
45.4939
249.33
76.5616
-107.774
66.7214
-333.636
266.914
13.5075
-33.0486
19.5411
469.258
-287.881
-181.377
292.26
-535.426
243.165
-201.348
126.175
202.193
78.8076
24.4659
-29.022
4.55606
230.437
-84.0868
270.933
174.454
295.293
-184.03
-111.264
-243.94
119.197
124.743
-529.671
237.224
292.447
147.209
-75.1146
-13.0738
127.377
-114.303
-199.216
-42.2859
320.024
49.278
64.4763
-16.8113
-47.665
-60.0935
129.02
-13.9953
-141.959
-575.054
331.025
244.029
249.988
-160.586
188.02
221.477
222.497
-412.476
-472.947
237.42
235.527
-243.948
180.69
63.2582
123.436
-81.1241
-42.3116
-267.339
-174.516
441.855
159.355
112.412
-271.767
-400.446
240.939
159.508
-225.362
-175.084
-707.018
463.349
243.668
-275.344
76.1286
669.518
-347.276
-322.242
-198.219
-176.493
374.713
-27.887
38.4163
-10.5293
-102.936
226.398
-123.462
-148.118
60.5817
-401.681
547.721
-146.04
-48.2942
181.523
-133.229
-447.146
245.838
201.308
-66.8445
-107.1
123.681
-118.293
-5.38804
290.128
146.102
576.598
-320.255
-256.343
252.982
-519.662
266.679
0.691498
-27.7237
27.0322
-1.26247
25.7284
-59.8164
97.7947
-37.9783
276.701
299.897
31.0318
-61.3596
-301.767
250.615
14.0104
-42.0938
-38.0904
134.209
343.677
81.2424
44.612
27.0297
35.7085
-169.669
133.961
372.612
-526.195
153.582
-87.3827
330.873
-243.49
-11.8456
39.4794
220.033
468.921
-127.438
406.351
-278.912
126.373
-229.543
103.17
-376.019
-324.837
-10.9064
-55.8538
66.7601
13.6663
-41.5533
-19.8867
33.3942
75.5173
-20.4437
183.833
-382.053
-76.2897
12.8925
63.3972
-411.66
-53.6747
465.335
-338.616
524.378
-185.761
101.79
-451.571
349.78
101.28
-119.043
17.7636
-10.2803
-427.16
291.125
82.6569
-373.782
187.921
-99.7765
168.604
-84.4988
-84.1056
487.91
-154.452
-333.458
-476.265
55.8143
420.451
316.572
128.412
-444.985
-668.659
694.245
-25.5865
-69.8571
-59.4262
-85.515
-6.60222
153.402
141.891
343.362
-723.909
380.547
447.991
-432.248
429.125
-138
618.055
-338.255
-279.799
-192.817
188.429
4.38825
-1.6228
66.0991
-47.8218
-213.722
261.544
62.0472
472.75
-56.3262
-70.7754
203.317
-134.505
261.459
-269.745
96.7393
67.7277
-164.467
148.647
-172.923
-210.175
158.935
51.2402
560.671
-560.671
385.172
-142.167
225.793
-105.126
-120.667
-388.01
-237.845
-130.083
82.7737
-475.152
-147.719
-40.8208
4.20065
112.642
-425.433
160.834
264.599
94.4414
-356.494
-62.3713
183.626
-121.255
121.963
-90.4555
74.4235
3.02226
-75.6538
-400.612
177.076
-183.576
6.50041
78.2608
-395.699
-323.569
196.131
-183.525
-121.773
305.298
12.8393
418.465
-431.304
-328.12
503.972
-175.852
-152.376
287.709
16.6724
12.2689
-28.9412
-74.5936
100.649
-26.0554
223.081
246.179
-469.26
387.566
-234.575
323.372
-102.466
-342.023
-277.978
1.76354
-250.521
-309.796
105.307
-399.995
297.946
102.049
51.2287
-462.889
145.322
105.541
-250.863
-184.205
-221.176
405.381
-42.0785
-38.3811
142.115
-105.431
-239.644
-110.165
349.809
-309.007
221.624
-134.184
-26.5937
160.778
-174.562
129.834
44.7285
398.775
-582.862
184.087
318.4
-216.27
-102.131
129.375
392.531
210.251
83.1329
-293.384
411.112
-223.092
146.608
-514.028
172.418
4.65828
159.704
158.696
-63.4899
-336.505
257.712
-469.349
211.637
492.529
-295.007
-197.521
108.883
-229.428
120.545
-139.832
-4.19828
144.03
248.75
-26.2472
-222.503
33.0342
-47.9967
14.9625
201.54
121.832
-36.6138
75.4118
-391.431
442.66
139.29
220.745
-360.035
-117.885
327.123
90.1403
-112.514
22.374
45.3258
-300.798
255.472
-28.904
42.5703
284.41
-531.465
247.055
-93.7987
190.538
219.808
-446.041
223.769
-199.52
-3.76651
203.287
9.4166
153.801
-163.217
336.517
132.741
98.478
-8.33771
288.358
-8.06169
-280.297
-131.019
443.94
-312.921
112.793
250.071
16.5247
185.17
346.122
167.046
-513.167
342.417
-294.415
-48.002
-3.23172
-15.406
-217.074
44.3213
23.4738
-29.0052
5.53146
27.2729
-3.79911
-351.557
186.726
-132.87
-147.207
280.077
390.551
-90.551
-300
-219.034
-21.2289
240.263
-129.394
73.0683
25.2288
-99.8224
-113.641
-314.472
428.113
-101.881
-126.532
597.292
-312.882
-56.0272
128.956
19.08
-148.036
-326.041
142.888
183.153
18.383
-59.6284
41.2454
137.944
102.606
-240.55
-97.9746
73.9124
24.0622
-114.966
326.039
-164.284
-35.0189
199.303
-408.868
-278.838
-227.401
108.507
118.894
-229.974
528.478
-298.504
388.671
-321.95
-26.8592
-42.5201
69.3793
34.0011
-29.1949
-178.228
345.552
-167.324
-118.851
292.886
-174.035
168.253
-99.4787
-68.7742
-342.296
444.086
-27.6139
70.7029
-43.089
-225.929
229.536
-3.60697
-147.738
49.7263
203.835
-5.28017
-198.555
-170.139
459.134
-288.995
25.4503
-2.27082
-23.1795
326.206
-653.7
327.493
-496.354
174.556
149.582
-53.1319
-40.9124
12.0084
-155.954
77.1306
78.8236
-195.593
453.305
211.074
-84.7003
50.281
-441.712
-24.6519
-160.905
185.557
-123.921
-509.08
349.769
159.311
275.671
66.7457
-361.546
-130.799
492.345
-99.5448
299.111
139.076
-106.264
-45.409
-57.7004
-334.95
-338.684
673.634
-285.182
-279.461
564.642
-183.447
292.132
-108.684
403.196
-286.717
-249.494
-273.122
340.579
-510.06
130.394
70.6289
-201.023
-394.363
257.435
136.927
134.03
290.267
-37.2344
66.1761
-28.9417
-330.375
529.081
-198.706
83.8439
-123.128
39.284
-213.696
64.684
149.012
24.9068
-8.23441
-100.94
417.512
-117.468
259.487
-142.02
573.918
-227.796
-228.625
282.035
-331.009
201.413
-269.549
269.549
-104.909
250.231
-566.234
304.301
261.933
-452.532
-18.4957
471.027
170.592
-134.884
-46.7165
1.55588
45.1606
-145.367
183.155
141.03
-500.932
-18.5919
142.904
-164.265
-278.512
442.777
-219.537
358.828
-292.932
107.026
520.3
-294.055
-226.244
-112.756
-27.0756
174.923
-363.51
-618.687
428.228
190.459
-332.849
-63.9441
-40.7714
5.83544
34.9359
-122.228
-26.3723
148.6
147.741
82.6959
-133.076
211.54
-78.4637
-3.2488
137.038
-133.789
115.158
-116.689
1.53125
183.96
-339.544
155.584
123.147
-136.221
-105.463
-95.8852
29.6172
-45.9607
16.3436
-415.22
-140.632
354.202
-213.57
25.5646
-0.11423
-0.965857
-252.425
253.39
-195.417
-153.793
229.112
-409.164
180.052
-75.2468
48.3875
-26.5695
49.3419
-22.7724
9.66269
-143.847
-31.9287
168.912
-136.983
171.864
134.318
-306.183
-235.29
-274.505
509.795
174.466
-406.881
232.415
62.2648
65.3785
-127.643
-543.189
307.781
235.408
561.244
-363.446
-197.798
-500.434
176.465
220.525
164.647
-88.4196
-129.196
313.297
-352.823
-343.065
-129.883
-340.319
-85.1142
-347.074
149.26
197.814
-219.42
117.54
-19.9036
258.423
-238.52
-17.7288
-177.732
110.888
52.4464
197.809
-250.256
251.687
-440.724
189.037
209.19
-132.901
-317.273
101.003
156.727
-54.5889
-320.114
-118.989
439.103
402.555
-173.442
-315.396
319.184
-3.78765
-97.1829
117.66
-20.4767
-459.828
243.892
-253.475
137.039
116.435
44.9546
-44.9546
-222.158
-240.269
462.427
478.012
-427.731
90.6377
-278.638
-15.3326
303.691
294.944
192.966
-213.552
-140.737
354.289
60.5478
-45.6391
-14.9087
-20.7458
37.0914
-16.3456
-220.902
172.328
48.5742
-322.029
-244.476
-20.7242
-189.451
129.528
-0.571604
-289.867
-331.18
-99.9996
40.1832
175.712
164.032
12.3013
36.1907
-48.492
-392.976
263.145
129.831
419.706
198.348
-187.233
-88.1113
-329.332
-179.748
-144.653
-49.3468
193.999
-72.8478
-242.131
314.979
-203.188
207.807
-4.61915
-37.0578
-19.0554
56.1132
323.063
-517.459
194.396
193.192
-338.738
145.546
290.216
-534.555
244.339
-26.4277
-66.5568
-210.47
105.007
245.197
-421.22
176.024
-158.767
36.5392
-308.938
-64.4395
-285.977
420.007
0.823145
-13.6402
12.8171
271.746
-158.216
-113.53
-21.9718
-28.7072
-186.998
370.958
482.58
-464.687
-17.8924
-11.1641
112.444
-48.1165
54.2188
-6.10237
246.274
-468.432
-20.0216
-50.2042
70.2258
-95.1657
240.276
389.627
-506.261
116.634
320.903
-2.5503
-318.353
0.959167
-106.031
105.072
-50.9549
69.3379
40.3787
-27.3128
-13.0659
-19.0322
107.701
-88.6684
-4.84575
31.8132
-26.9675
41.3121
-11.695
445.067
-174.135
-224.428
231.255
-6.82715
-302.217
-8.37642
172.34
-125.133
-47.2066
131.329
-318.588
187.259
-193.839
-182.281
376.121
37.1473
234.599
-265.543
169.006
96.5361
109.8
-348.865
239.064
-352.514
227.968
124.546
226.303
-132.348
-93.9544
-185.017
109.189
75.8275
260.37
-522.913
-144.669
-57.3632
202.032
-46.2362
-67.3562
113.592
166.764
-158.225
-8.53916
63.8628
40.3836
46.9739
-25.1751
-21.7989
-18.4469
-138.091
156.538
35.9667
106.148
-111.112
-107.625
218.738
-283.472
-7.31545
290.787
21.9795
-167.723
145.743
112.316
70.3206
94.7047
62.0226
-181.772
194.796
-13.0241
-40.7713
-56.1133
445.741
-347.862
99.4536
427.36
49.1553
-476.515
481.012
-395.467
-483.692
234.198
145.181
34.6508
-179.832
97.0237
-31.2825
122.679
-221.729
99.0499
243.047
-383.679
-112.48
35.9081
284.995
-54.9542
258.789
219.212
249.393
-484.978
314.839
-65.7364
28.5019
461.834
-183.846
125.696
-136.569
10.8731
229.467
-302.315
306.057
-107.193
-198.864
325.352
-286.524
-38.8279
180.449
-158.469
-282.158
-209.536
491.694
-237.124
24.7854
212.338
502.778
-498.779
-3.99873
257.817
-90.3765
-167.44
350.761
343.705
-694.465
147.774
18.9905
-125.313
277.514
-152.201
-100.824
285.267
-29.2084
82.354
-53.1456
-148.052
-67.1484
-30.8914
40.7168
-9.8254
14.7605
-179.045
383.78
94.2323
-469.849
68.1677
-102.718
-223.323
53.013
-40.7118
-97.3687
183.86
-86.491
-14.5838
-69.9039
23.2869
-5.52404
-17.7629
-122.324
103.877
-574.41
339.866
234.544
20.4371
-123.253
102.816
-98.0179
220.697
-13.1729
48.1178
-34.9449
17.4861
5.80087
-195.085
365.235
-170.15
92.8146
-146.738
53.923
-39.189
26.598
12.591
200.075
-54.7971
-145.278
170.705
-148.333
-22.3724
-398.138
-264.908
-218.785
-162.779
190.041
-27.2623
241.305
-380.299
138.994
-39.6572
8.76584
-145.859
366.384
-98.488
-332.995
235.98
-116.783
-178.199
131.471
-235.754
223.762
11.9919
325.82
-132.628
37.5762
-36.0951
-1.48112
-232.987
-2.76654
75.2513
-256.504
181.252
125.787
-214.207
122.856
-6.9874
-12.6914
19.6788
-164.144
212.328
-48.1838
212.246
-87.5928
-124.653
-248.833
-34.639
125.844
51.4333
26.7479
7.25319
93.6793
41.6326
-135.312
-113.12
84.0815
29.0389
-61.8612
-9.25243
-9.64377
18.8962
591.426
-447.217
-144.209
365.092
-51.7945
138.33
-128.913
-424.595
462.642
-38.0476
-103.379
249.963
-146.584
-231.976
322.613
24.7723
22.2016
-64.6668
-60.1087
-74.9289
186.56
-232.447
298.331
-65.8835
-347.668
406.668
-58.9999
-324.093
195.166
128.927
29.8582
-29.1667
44.0139
-0.517997
-271.46
-259.039
530.499
202.902
388.524
-589.015
303.833
97.276
-97.276
-146.019
163.029
-17.0095
175.049
-129.687
-45.3621
246.397
-541.082
294.685
73.5282
126.547
-224.83
329.997
-105.167
102.117
-81.6795
-87.3066
53.9785
33.3281
156.808
329.431
-486.238
236.288
-88.5468
-346.093
185.029
161.064
87.6456
-215.233
127.588
262.826
234.377
-497.203
-72.4622
165.277
-190.123
-2.805
192.928
121.943
-140.976
-245.406
468.487
-231.8
149.09
82.7098
90.837
-53.8684
-36.9686
-195.078
457.052
-261.974
254.286
-105.639
16.1178
138.572
-154.69
238.169
216.339
-454.508
-297.019
-291.996
-87.5585
339.245
23.2211
-43.5125
20.2913
-143.879
368.541
-224.661
187.474
-99.8287
265.253
-153.609
-111.644
271.731
-138.817
-163.967
9.84155
-9.01841
-622.728
302.473
146.608
502.388
-509.588
7.19979
290.986
126.616
-417.603
33.9264
3.64982
-228.508
-301.163
124.8
-188.31
123.244
-306.691
-147.555
160.793
-13.2377
174.173
-318.552
144.379
-158.48
395.704
-92.086
92.4553
-0.369389
48.9768
-116.333
80.9863
-152.724
71.7373
218.475
120.712
184.288
-115.991
-68.2969
32.356
216.394
-492.728
350.661
142.067
-258.519
-364.209
181.868
75.948
220.397
-620.276
399.879
-115.71
-59.8747
175.585
19.6975
-52.8178
33.1202
352.314
167.986
-37.0656
464.425
231.427
-295.293
491.842
-229.016
100.563
-263.585
163.022
-588.616
360.447
228.168
-219.239
-323.296
542.535
-365.81
565.535
-199.725
269.44
146.416
-173.013
182.259
-9.24576
-133.702
293.057
320.202
-250.294
-69.9077
-117.599
251.769
-134.17
-191.112
-175.233
86.561
-364.259
277.698
131.465
-3.0262
-128.439
107.736
-156.03
453.141
-349.441
-103.7
-254.405
76.4572
177.948
84.5016
370.032
-454.534
26.9818
-53.5513
314.827
138.314
-204.867
14.7434
-97.5892
5.50321
-228.291
518.72
-290.43
-30.539
167.719
-137.18
265.366
-490.066
224.7
-27.1625
-13.9755
41.1379
317.071
127.997
-16.4905
22.1329
-5.64236
-263.539
237.644
25.8952
-273.8
131.836
141.965
196.261
401.553
15.6916
24.6871
-344.443
-148.285
201.905
-484.063
417.205
-516.376
99.1712
263.783
151.511
-29.3236
-122.187
244.821
-169.57
87.4091
-407.523
-11.1953
-10.2526
21.4479
39.399
28.9888
-68.3878
-203.439
75.2676
130.099
92.8733
182.359
-396.509
214.15
-32.4035
41.2355
-8.83197
185.005
-328.885
400.773
-159.468
315.681
-86.2133
-514.474
-289.486
-249.499
505.483
-255.984
424.704
-317.457
-107.247
-11.8592
-483.155
495.015
-437.303
-184.1
621.404
-288.272
-6.55243
143.762
-62.7761
-724.898
378.811
346.086
-346.427
-73.1396
-73.2573
-111.759
126.234
-63.9691
94.8094
-78.9624
-574.427
382.729
191.698
13.5685
-20.5559
-6.19136
9.21975
-3.02839
118.442
-142.778
211.658
-327.065
115.407
277.479
-217.605
-59.874
85.985
-394.309
308.324
153.139
-58.434
150.491
189.994
-56.433
-118.129
120.61
-119.65
475.677
-342.182
-133.495
-254.634
348.299
-93.6648
10.4025
153.235
322.441
-416.13
31.6688
384.461
-280.264
-264.604
-25.5723
-102.668
128.241
-112.596
-118.33
230.926
122.542
136.123
-258.664
-23.4974
-382.606
-342.291
-21.8894
28.5722
-6.68287
-197.684
338.134
-140.45
611.642
-253.411
425.754
-127.695
-299.133
95.8899
67.811
-28.4119
-274.116
-56.9986
331.115
108.422
-420.3
-401.313
169.229
38.4882
-3.69048
-34.7977
76.7153
-154.495
77.7799
-131.472
303.336
-457.707
326.688
186.394
-212.641
507.682
-192.854
-199.315
397.106
-197.791
93.086
-346.284
253.198
527.762
-128.987
99.8825
111.796
-224.779
51.7664
141.492
-158.955
17.4637
-179.206
281.557
-102.351
195.695
415.947
156.916
-253.195
96.2794
393.269
-152.331
374.354
117.009
-491.363
276.117
-186.181
-89.9367
584.777
-618.2
33.4224
205.49
-122.465
-83.0248
424.337
-411.497
-19.4411
-180.079
-123.358
-105.997
229.356
425.662
-323.254
-102.408
35.4815
8.53243
-304.228
475.109
-170.882
-77.7131
1.42339
-171.394
140.855
-42.0848
56.3215
-119.081
62.7591
324.966
32.1667
-357.132
-32.0421
-19.3857
51.4278
-104.075
458.53
107.497
198.561
-155.779
329.952
-207.382
165.694
406.051
74.961
-164.196
-181.897
43.7401
131.67
-245.197
57.964
-46.8549
116.561
-69.7062
-28.6801
-12.1408
437.626
-146.64
-478.547
449.547
28.9994
-122.548
496.902
24.9302
-46.1685
21.2382
67.9499
-18.2081
-24.7665
42.9746
-203.982
43.7781
-9.85169
150.166
37.623
-187.789
25.0271
-141.578
116.551
-287.999
121.824
-65.935
-13.0147
78.9498
-266.489
-308.064
92.6193
215.445
50.2649
-30.5674
101.836
-131.06
29.2231
90.1408
-202.736
70.7223
210.636
-202.013
179.304
22.7093
-26.3417
-23.3159
49.6577
-143.124
60.7173
82.4065
-367.138
155.987
-222.701
460.87
84.1805
-191.21
107.03
253.399
88.7577
-342.157
31.5746
-18.2758
-13.2988
324.767
99.9373
290.231
-13.7449
-276.486
-186.444
402.264
-215.82
226.906
-71.1519
324.544
-253.392
327.924
121.434
-449.358
474.533
314.517
108.692
-423.208
295.35
-592.369
156.723
-4.8109
-151.912
-369.359
193.773
175.586
-68.4398
-239.756
308.196
5.78538
35.3047
-41.0901
-27.73
-133.976
-21.4479
-457.099
-358.414
163.329
90.091
81.7464
-171.837
-376.415
305.263
152.347
182.279
-334.625
-5.98807
120.445
-114.457
-133.655
-158.174
291.83
569.469
-253.889
12.6182
35.1035
-228.463
-251.976
480.438
-61.7653
110.742
-284.878
478.168
-193.29
-429.421
46.6491
382.772
-230.929
-276.726
507.655
-117.268
-96.4286
-568.019
366.762
201.257
254.786
-119.095
-135.69
-186.718
339.065
-77.9315
11.9965
14.3731
-25.5684
161.434
-35.7383
-101.587
-492.38
249.43
242.951
-232.86
-0.127449
-211
105.874
-272.45
-301.96
-83.5203
-225.486
170.476
-372.726
202.25
-171.706
-150.46
35.9468
114.513
-251.332
-65.9406
-72.8741
-29.4214
102.295
16.3868
9.24946
-25.6363
-409.088
214.01
73.9547
-109.151
35.1962
100.596
-129.919
230.682
-409.231
178.549
27.6399
-301.756
-106.294
245.637
-139.343
-140.99
264.233
120.916
-57.8033
-44.3529
102.156
569.772
-581.632
-121.478
-226.19
279.396
241.063
-520.459
-253.398
20.5384
-101.711
186.692
414.948
-452.013
38.9268
-33.1415
472.861
-174.247
-298.614
158.293
154.288
-312.58
-29.5952
-106.193
-46.1983
152.392
159.826
56.7962
-216.622
314.167
79.102
308.626
117.037
-504.862
176.742
34.5848
-47.7577
-53.5779
14.8864
38.6916
114.348
-34.2947
-80.0532
-113.411
-70.0201
183.431
-12.7835
-136.934
149.718
-41.6762
14.5138
198.552
-178.071
-20.4803
221.277
-274.607
53.3303
-185.37
71.9596
-30.911
-27.6271
-29.4503
-155.881
185.331
144.746
282.709
176.425
-188.117
168.213
118.938
-140.23
21.2914
-490.505
312.248
178.257
253.247
-147.707
305.252
202.43
338.053
159.014
-497.067
-120.282
-161.634
-539.214
254.107
285.107
132.448
-318.933
186.485
93.4328
90.8549
-107.935
124.053
-112.021
132.312
-20.291
-368.576
-304.496
673.072
-512.556
419.715
92.8414
-231.201
110.719
-43.0171
-492.177
-16.0467
508.224
298.843
333.143
-631.986
-132.061
-121.413
-185.582
-138.511
198.707
-48.541
-401.456
182.217
44.4001
139.682
14.165
-265.236
185.391
79.8448
26.4839
27.3011
-153.398
-124.054
277.452
118.339
-62.017
428.703
-263.815
-164.888
-256.163
349.249
-276.839
24.8908
455.13
26.5862
-41.4212
-27.5718
68.9931
458.895
0.799388
-459.694
-205.964
392.022
-186.058
58.4197
43.4591
-101.879
-457.613
257.801
199.813
-73.043
-84.2296
-181.006
46.86
-21.9297
-180.888
342.427
-161.539
167.556
122.946
-290.502
-63.2075
-24.0991
-320.745
-245.084
565.828
131.632
476.003
-325.218
-150.786
-83.7848
67.7122
-52.3496
-15.3626
-22.4835
-21.6593
213.562
-268.517
270.776
-354.297
-528.11
436.055
123.624
-255.686
208.534
250.585
561.562
-271.346
-240.401
15.9727
57.0788
18.4384
-70.9798
91.1566
23.1913
-292.869
340.989
-48.1201
-327.38
3.81095
75.2494
-99.2334
23.984
164.797
306.528
-213.909
232.142
-144.076
-88.0663
-35.4615
6.78143
-288.974
20.0128
-38.2209
224.939
-81.251
-143.688
-359.46
658.303
496.178
-190.926
-341.501
229.334
112.166
-23.2178
482.112
-189.964
494.682
-84.6312
-143.417
228.048
119.083
-208.889
89.806
29.3237
379.938
-334.043
-246.68
580.723
216.094
-401.339
185.245
-286.112
384.825
-98.7126
-89.5419
404.059
285.211
-161.565
109.634
-93.0452
365.687
-272.642
-59.964
27.9219
-110.302
-66.1019
176.404
168.963
169.171
150.999
-83.8288
-258.614
342.443
-385.132
-78.7012
-132.637
-253.928
-389.802
208.914
-400.074
400.074
-50.061
-287.353
337.414
217.915
-394.139
176.224
129.002
95.9368
33.4452
-26.4579
-6.98735
187.981
-409.157
289.073
-520.002
221.468
-54.8253
127.773
199.912
63.3736
157.346
-220.719
197.16
-102.792
-94.3684
-74.6567
-273.886
348.543
111.033
-214.915
103.882
-130.986
135.341
-4.35453
319.464
11.0759
-33.9475
48.6538
-233.804
293.101
-59.2974
19.8459
136.877
14.0374
35.8776
-49.9149