/*--------------------------------*- C++ -*----------------------------------*\
  =========                 |
  \\      /  F ield         | OpenFOAM: The Open Source CFD Toolbox
   \\    /   O peration     | Website:  https://openfoam.org
    \\  /    A nd           | Version:  7
     \\/     M anipulation  |
\*---------------------------------------------------------------------------*/
FoamFile
{
    version     2.0;
    format      ascii;
    class       volVectorField;
    location    "15";
    object      U;
}
// * * * * * * * * * * * * * * * * * * * * * * * * * * * * * * * * * * * * * //

dimensions      [0 1 -1 0 0 0 0];

internalField   nonuniform List<vector> 
7724
(
(1.21956 0.146071 6.15876e-21)
(1.05843 -0.0585283 1.38346e-21)
(1.03029 0.211035 -2.1246e-20)
(1.07919 0.0955992 2.73434e-20)
(0.999014 -0.00118762 -4.6835e-23)
(0.999953 -1.24582e-05 -4.05627e-24)
(1.00508 0.171949 -4.42381e-20)
(0.993784 -0.00223539 -1.01382e-23)
(0.999854 -0.000221507 -7.32269e-24)
(1.03276 -7.73296e-05 -1.29107e-21)
(0.999957 -1.45045e-05 4.47585e-24)
(1.00267 -0.0015796 -2.03061e-22)
(0.990497 -0.00283728 4.98293e-22)
(1.02429 -0.00271516 -8.1054e-21)
(1.03197 0.000984119 5.46657e-21)
(0.989517 -0.0178489 -9.96893e-22)
(1.23246 0.149711 -1.28777e-20)
(0.987233 -0.00361935 -1.7405e-22)
(1.00268 -0.0114839 -6.55209e-23)
(0.972678 -0.108762 -8.13322e-22)
(1.04485 -0.00930304 -2.7154e-21)
(1.00177 -0.000860468 3.85798e-22)
(1.02249 -0.00458085 6.93069e-22)
(1.01894 0.0446742 -1.47625e-20)
(0.983033 -0.00450855 -7.93287e-22)
(1.21166 0.153868 -6.85883e-21)
(0.999046 -0.0011218 -3.33222e-23)
(1.03051 -0.0027556 3.20577e-21)
(1.00858 0.0221841 -1.85308e-21)
(1.00426 -0.012287 5.42052e-23)
(0.98407 -0.018774 -1.80314e-21)
(0.732216 0.0831595 7.44513e-21)
(1.0219 -0.00541334 4.26201e-21)
(0.999441 -0.000477504 5.72947e-23)
(0.999877 -6.56801e-06 1.04538e-25)
(1.03102 4.53103e-05 1.91321e-21)
(1.00505 -0.0135564 6.45904e-23)
(1.01321 0.163106 -7.00388e-21)
(0.995664 -0.00956246 8.1362e-22)
(0.999606 -6.87402e-05 5.39583e-23)
(0.996112 -0.00984105 -9.30861e-23)
(0.98971 -0.0166813 -3.68924e-22)
(0.999855 -0.121077 3.61196e-21)
(1.15342 -0.0958383 6.02244e-22)
(0.999764 -1.28307e-05 1.70211e-23)
(0.999908 -1.96506e-05 -4.53033e-24)
(1.00162 -0.000715053 -2.35716e-22)
(0.995341 -0.00867075 -4.81091e-22)
(0.999921 -3.60591e-05 -3.56536e-24)
(0.977074 -0.109777 1.17973e-21)
(1.00389 -0.00139825 2.17466e-22)
(1.03027 -0.00103771 -3.33087e-21)
(0.977919 -0.0053892 -2.67083e-21)
(1.01188 -0.0376615 1.08611e-22)
(1.0312 -0.00166384 -1.11087e-21)
(0.994524 -0.00309425 -9.12194e-23)
(1.00251 -0.0107625 1.39225e-22)
(0.993743 -0.00193173 6.78411e-22)
(0.972981 -0.0223155 -3.19665e-21)
(0.999423 -0.000423705 -7.37798e-23)
(1.00005 -2.85621e-05 -1.00414e-23)
(1.00513 -0.00137765 2.4283e-22)
(1.02478 -0.00167602 -1.91301e-21)
(1.00285 -0.00136635 2.05619e-22)
(0.998883 -0.000239566 1.0781e-22)
(0.984721 -0.0195021 3.15147e-22)
(0.999888 -0.000223454 5.43102e-24)
(1.00002 -2.83526e-06 7.33748e-25)
(1.21588 0.00383212 2.21639e-21)
(0.995512 -0.00820326 -1.43114e-22)
(0.999913 -2.41036e-05 4.01525e-24)
(0.963529 -0.0653371 -5.91882e-21)
(0.983752 -0.00500457 3.86387e-22)
(0.969553 -0.00661347 5.2573e-22)
(0.987789 -0.00399559 5.453e-22)
(0.958521 -0.031722 -6.95765e-22)
(1.04069 0.210378 3.4159e-20)
(1.04221 -0.008667 3.46727e-21)
(1.10724 -0.0223661 -5.31411e-21)
(0.946109 -0.0531834 -7.43493e-21)
(0.990939 -0.00313905 -7.6498e-22)
(1.00321 0.0981793 4.40716e-20)
(1.05442 0.00270999 8.13697e-21)
(0.968919 -0.0117455 2.41727e-21)
(0.998414 -0.00301565 -7.48376e-23)
(0.997367 -0.000381061 8.09823e-23)
(0.993367 -0.00294714 9.35844e-22)
(0.97877 -0.00602897 1.71836e-21)
(0.999241 -0.00141009 5.00402e-23)
(0.994771 -0.000803119 2.90761e-22)
(1.00912 0.0253363 1.38187e-20)
(1.18856 -0.0956842 -1.07147e-21)
(0.999843 -6.67574e-05 -9.95622e-24)
(1.00212 -0.0091397 5.79283e-23)
(0.995865 -0.00123147 2.63043e-22)
(0.969161 -0.00368412 -4.20422e-21)
(0.966238 -0.0650125 4.01721e-22)
(1.01399 -0.0365069 1.05183e-22)
(0.998262 -0.00290622 2.58484e-23)
(0.99867 -0.000226065 3.63822e-23)
(0.941695 -0.0191096 1.8053e-21)
(1.11046 -0.0170831 4.42941e-21)
(0.996098 -0.00139776 -6.55783e-22)
(0.999969 -1.21997e-06 -3.36874e-25)
(1.19663 -0.0869242 -9.05718e-22)
(1.0493 0.0392434 -1.29948e-20)
(0.8679 0.0585153 8.33171e-21)
(0.994159 -0.00292536 -3.79005e-22)
(0.99999 -2.51326e-06 2.12519e-26)
(1.03053 -0.018652 -1.43835e-21)
(1.08209 0.0885051 -3.17506e-20)
(1.02114 -0.0943894 -4.2295e-21)
(0.999987 -2.97311e-06 -6.19955e-26)
(1.03273 -0.019848 -3.11586e-22)
(1.04356 0.0383337 1.36711e-20)
(1.00049 -0.000680873 -1.87693e-23)
(1.06589 -0.118333 -2.1844e-22)
(1.04517 0.0203517 -3.11377e-21)
(0.978016 -0.0526615 2.56661e-21)
(0.969174 -0.00804693 -5.4928e-22)
(0.937956 -0.0125122 -4.3541e-21)
(1.00295 0.0647041 -2.88067e-20)
(1.00644 -0.120352 -4.96974e-21)
(1.01147 -0.0097382 1.20747e-22)
(0.940008 -0.0143167 1.71608e-21)
(0.99891 -0.00162882 1.11958e-22)
(0.985461 -0.0142144 5.99507e-22)
(1.00334 -0.0103385 -9.60027e-23)
(0.998819 -0.000175151 -2.40442e-22)
(0.984142 -0.0172828 3.11607e-23)
(1.21254 -0.1242 -7.85616e-22)
(1.09956 -0.0223033 9.18894e-22)
(0.999308 -0.00063998 6.26052e-24)
(0.999124 -0.00144785 -9.68199e-23)
(0.967483 -0.0107287 7.18746e-22)
(1.07459 0.0786308 1.16056e-20)
(0.99143 0.056237 5.37256e-20)
(0.999971 -3.29965e-06 -3.96499e-25)
(1.00908 -0.00376467 1.01893e-22)
(0.916199 -0.0153563 -5.44292e-21)
(0.971462 -0.00478563 -2.14918e-21)
(0.982206 -0.0727321 -3.78729e-21)
(0.959011 -0.0341552 9.42821e-22)
(0.971249 -0.00597058 -4.70158e-23)
(0.85356 0.0460397 3.27696e-20)
(1.01135 -0.0566288 -1.34749e-22)
(1.01822 0.0255954 -7.01231e-21)
(0.975531 -0.0267322 -1.65732e-21)
(0.957729 -0.00632398 5.93464e-22)
(1.00327 0.0835805 -1.42328e-20)
(1.0319 0.00132035 4.77123e-21)
(1.17535 -0.0922128 1.67234e-22)
(0.998263 -0.00237591 -2.64932e-22)
(1.21461 -0.00621122 9.2415e-23)
(1.05173 0.00277412 -8.50636e-21)
(1.0397 0.161861 -3.40062e-20)
(0.952303 -0.0370107 2.89621e-21)
(0.990493 -0.00217506 1.68789e-22)
(0.896369 0.157231 7.12339e-20)
(0.999927 -3.00956e-05 -3.2751e-24)
(1.00153 -0.00959517 -3.84466e-23)
(1.02023 0.0500148 1.06948e-20)
(0.999975 -2.3553e-05 1.54079e-24)
(0.997953 -0.00613221 -3.76397e-22)
(0.995328 -0.00118446 -1.25996e-22)
(1.00787 0.0628693 -3.56321e-21)
(1.00449 0.05369 1.33395e-20)
(0.879149 0.175973 2.37209e-20)
(0.997642 -0.00592814 -2.37159e-22)
(0.99638 -0.000441524 -1.42463e-22)
(1.00002 -2.86115e-06 -6.87904e-25)
(0.9343 -0.00762483 -7.48504e-21)
(1.00046 -0.000604081 2.5882e-23)
(1.06149 -0.0545397 -1.62922e-21)
(1.00929 -0.00419208 6.72848e-22)
(0.958707 -0.00749183 1.22768e-21)
(1.19274 -0.0733902 -7.57337e-22)
(1.17739 0.0433999 1.63798e-22)
(0.999845 -7.84921e-05 5.39052e-24)
(0.99941 -0.000751343 -6.48312e-23)
(1.08481 0.100988 -4.76944e-21)
(0.999928 -2.23749e-05 -1.61269e-24)
(0.999869 -1.44343e-05 2.55902e-24)
(1.0096 0.184276 -3.60275e-20)
(1.05973 -0.0628914 1.44057e-22)
(1.00791 -0.0788088 -2.36185e-21)
(0.980366 -0.0512076 -3.64238e-21)
(0.972228 -0.0086318 1.5779e-21)
(1.00775 -0.0578043 2.42842e-22)
(0.918158 -0.0129941 2.86185e-21)
(0.999973 -2.14303e-05 -6.0181e-25)
(0.967174 -0.0610638 -1.42125e-21)
(1.18741 0.0486675 -5.89919e-21)
(0.996075 -0.00170326 9.42107e-23)
(1.00009 -7.77866e-06 -6.76842e-24)
(1.14886 0.074699 7.07364e-22)
(0.998556 -0.000463308 2.56995e-22)
(0.985136 -0.0166337 9.58705e-22)
(1.00481 -0.0545023 7.98018e-22)
(1.00002 -2.81406e-06 -2.98116e-25)
(1.00101 -0.00237242 -1.05715e-22)
(1.06833 0.0801755 1.47459e-20)
(1.18052 0.0683479 -8.52506e-21)
(1.02344 0.143337 -4.59385e-21)
(1.06336 -0.110944 1.83747e-21)
(1.02582 -0.0910229 9.68037e-22)
(1.10419 -0.159879 -7.03144e-22)
(1.0309 -0.00399224 9.52686e-21)
(1.06103 0.0759827 -4.8659e-21)
(0.999749 -2.56121e-05 -2.00247e-23)
(1.00005 -2.43403e-05 2.70303e-24)
(0.900504 0.0236549 -3.18439e-20)
(0.991162 -0.0160208 -3.48143e-22)
(0.99928 -0.000573232 -6.2995e-23)
(0.969813 -0.0602348 2.94468e-21)
(0.984776 -0.0149791 -6.99898e-22)
(1.05418 0.140678 -3.69938e-20)
(1.04504 0.138551 -7.8912e-21)
(0.978912 -0.0742572 1.03694e-21)
(0.786275 0.117998 -2.80089e-20)
(0.998659 -0.000528588 -1.88651e-22)
(0.987289 -0.00311651 6.22537e-22)
(0.93951 -0.0174207 2.37406e-21)
(1.04416 -0.00280704 -1.97515e-21)
(1.0009 -0.148477 -4.65965e-22)
(1.23903 0.107098 -1.12937e-20)
(0.894791 0.137033 -6.09512e-20)
(1.00008 -0.000130724 7.96594e-24)
(1.0114 -0.00914112 3.3609e-22)
(1.04284 0.024475 1.6886e-20)
(0.995488 -0.00715451 -6.18798e-22)
(1.04872 0.0199895 -2.11417e-21)
(0.999375 -0.00152905 -1.54834e-23)
(0.825543 0.203403 4.86437e-20)
(1.03601 0.147683 7.69577e-21)
(0.993368 -0.00253943 5.94653e-22)
(1.00435 -0.0102996 -1.46136e-23)
(0.999631 -8.23199e-05 -1.00227e-22)
(1.23049 0.0426682 2.46937e-21)
(0.999886 -1.41415e-05 7.55224e-24)
(0.993724 -0.0131612 2.8999e-22)
(0.926836 -0.0340929 3.24637e-21)
(0.999913 -3.12593e-05 -1.65717e-24)
(0.998546 -0.00350904 -6.48778e-23)
(0.999513 -0.00148709 2.91318e-23)
(1.11351 0.0418108 1.0813e-20)
(0.999976 -3.02275e-05 1.75884e-24)
(0.994553 -0.000618667 3.20739e-25)
(0.948828 -0.0529049 8.62264e-21)
(0.735738 0.0621718 -1.64442e-20)
(1.09662 -0.0272532 -1.27824e-21)
(0.850892 0.133264 3.72884e-20)
(0.999945 -1.05719e-05 -3.84159e-24)
(1.00199 -0.0551529 -5.98492e-23)
(0.999781 -0.000379324 -2.14714e-23)
(1.03076 0.169992 -3.46367e-20)
(1.00461 -0.000916174 -3.13235e-22)
(0.987719 0.0678907 1.73574e-20)
(1.0033 -0.0124246 -2.6705e-22)
(1.0009 -0.00248774 1.1453e-22)
(1.0334 -0.045359 -5.1829e-22)
(1.0309 -0.00218562 -8.82356e-21)
(1.00068 -0.000406966 5.27593e-23)
(0.999728 -6.69274e-05 4.75344e-25)
(1.00059 -0.000550929 1.19505e-22)
(0.995242 -0.00757541 -5.50307e-22)
(1.01531 -0.082835 2.68811e-21)
(0.999948 -1.45126e-05 2.60185e-24)
(0.954198 -0.0355321 2.03445e-21)
(0.995567 -0.0013697 -2.37632e-23)
(0.999827 -5.64677e-05 1.06024e-23)
(0.999267 -0.000711754 2.06047e-23)
(0.982606 0.106162 4.15232e-20)
(0.990443 -0.00101578 2.44963e-22)
(0.999093 -0.000136347 -2.15312e-23)
(0.801077 0.0279469 6.25639e-20)
(0.998369 -0.00337864 -1.47573e-22)
(1.15359 0.123111 -9.54027e-21)
(0.999755 -0.000351583 3.99835e-23)
(1.0089 -0.0284053 6.61543e-23)
(1.00002 -1.51535e-06 -2.47569e-25)
(0.977912 -0.0427531 -1.46209e-21)
(1.04316 -0.002462 3.07004e-21)
(1.19892 -0.0668455 1.14834e-21)
(0.973238 -0.0240116 2.70858e-21)
(0.999516 -0.000761812 7.47986e-23)
(0.972316 -0.0933875 1.84435e-21)
(0.980124 -0.000580079 1.12827e-21)
(0.999781 -2.57469e-05 1.05973e-24)
(1.00056 -0.00047662 -1.05774e-22)
(0.997519 -0.00436046 2.04686e-22)
(0.990885 -0.00181471 -7.32094e-22)
(1.00374 -0.00116139 -3.72152e-22)
(0.998528 -0.00241951 9.57854e-23)
(0.970492 -0.010983 3.79851e-22)
(1.02073 -0.0808591 -1.96877e-21)
(0.970667 -0.00922132 1.68572e-21)
(1.15077 -0.0853482 -1.38517e-22)
(0.96117 -0.010157 -2.14523e-21)
(1.08043 0.186421 3.69528e-21)
(1.07406 0.195577 -2.68625e-20)
(0.998209 -0.000960877 -1.64959e-22)
(1.21694 -0.079311 -4.13884e-21)
(0.99998 -4.35101e-06 -2.11871e-25)
(0.997476 -0.0054026 -2.49126e-22)
(0.968383 -0.00256914 4.30812e-21)
(1.01431 0.039829 8.85009e-21)
(1.05809 0.00841397 -8.00927e-21)
(1.00012 -4.52863e-05 1.53095e-23)
(0.997603 -0.00509318 -1.61284e-23)
(0.962519 -0.0112547 1.61696e-21)
(1.08836 0.0437716 -4.71053e-21)
(0.998822 -0.00150453 8.47336e-23)
(1.00407 -0.00103104 2.09892e-22)
(1.0015 -0.00123081 -1.91076e-23)
(1.16509 -0.0232394 3.24551e-21)
(1.20837 -0.134263 -4.68249e-21)
(1.15027 0.203051 1.48144e-20)
(0.998091 -0.000298416 -1.61564e-22)
(1.0706 -0.0633566 -8.25818e-22)
(0.999863 -8.55865e-05 -8.46493e-24)
(1.00583 -0.00919566 -7.08467e-22)
(0.999934 -1.67359e-05 -1.12419e-24)
(0.981988 -0.0260108 4.70528e-22)
(0.999585 -9.35473e-05 -1.93344e-23)
(1.01433 -0.028208 1.65503e-22)
(1.23652 -0.0890731 4.75391e-21)
(0.967396 -0.0338206 3.23899e-21)
(1.01039 -0.0277776 -7.37415e-23)
(1.01031 -0.00813955 -4.33482e-22)
(0.999122 -0.000177148 9.65872e-23)
(1.03281 -0.0252064 1.00773e-21)
(0.99555 -0.023535 4.49247e-22)
(1.10582 -0.00831797 -2.72712e-21)
(1.10507 0.0422155 5.12343e-21)
(1.14772 -0.185426 7.29745e-23)
(1.14732 -0.103339 -2.1573e-21)
(0.979269 -0.0011831 -1.20702e-21)
(1.0062 -0.00459521 6.69179e-22)
(0.929558 -0.0323851 -1.25666e-21)
(0.858729 0.175501 -7.44721e-20)
(1.12832 -0.0969811 2.09929e-21)
(1.03416 -0.0162771 -4.00894e-21)
(0.806131 0.127875 -3.77967e-20)
(0.998152 -0.00021913 7.98178e-23)
(0.9979 -0.00118931 -5.10084e-23)
(1.16794 -0.0996454 -2.16519e-21)
(0.998706 -0.00260611 -5.05943e-23)
(1.01211 -0.0529874 2.01078e-22)
(1.00718 -0.00237305 2.38785e-22)
(0.996561 -0.000525562 -1.26757e-22)
(0.997475 -0.00044821 -1.99701e-22)
(1.05188 0.0312056 9.8385e-21)
(0.999919 -0.000190122 -1.25804e-25)
(1.00064 -0.000320081 -4.69739e-23)
(1.0001 -1.87135e-05 1.16018e-23)
(0.995784 -0.000839991 6.77434e-22)
(0.992309 -0.0114548 7.70684e-22)
(0.999978 -3.46095e-06 1.50732e-25)
(0.998683 -0.000314702 2.06343e-23)
(0.97427 -0.0211857 9.52546e-22)
(0.898224 0.0349804 1.99956e-20)
(1.01258 -0.0292267 -4.13175e-23)
(0.991248 -0.0150002 1.24391e-21)
(0.932585 0.12991 8.3587e-21)
(1.0032 0.0600367 2.48929e-20)
(1.08795 -0.0164612 -2.33554e-21)
(1.2125 -0.0703982 1.28781e-21)
(0.932703 -0.00562553 4.08275e-21)
(1.00615 -0.00525845 -3.29413e-22)
(1.019 0.0698889 -1.39112e-21)
(0.986186 -0.00277289 -1.48708e-21)
(1.12117 0.145876 2.48558e-22)
(1.00689 -0.0617812 2.7987e-23)
(1.02642 -0.13791 -1.73486e-21)
(1.17132 0.0684486 5.47002e-21)
(1.1326 0.152643 -1.34242e-20)
(0.956005 -0.0307202 4.53242e-21)
(1.05912 0.00558572 -5.13925e-21)
(1.25055 0.103947 1.01116e-20)
(1.14468 0.131999 1.88037e-20)
(1.03195 -0.00377181 3.00583e-21)
(0.996323 -0.00183856 1.48181e-22)
(0.994882 -0.00283018 1.29749e-22)
(0.999891 -2.88511e-05 -4.0089e-24)
(1.01915 -0.0366454 1.51114e-22)
(0.9858 -0.00232601 3.49998e-22)
(1.00125 -0.00300774 -9.29251e-23)
(0.999869 -3.09764e-05 -7.59117e-24)
(0.99804 -0.000882817 6.43945e-23)
(0.969459 -0.0918591 -3.04467e-21)
(1.15658 -8.39833e-05 2.08497e-21)
(0.978612 -0.00741235 -1.92854e-21)
(0.998983 -0.0156798 4.78061e-22)
(0.995356 -0.000895113 -3.63083e-22)
(1.06677 -0.0652326 -1.28411e-23)
(0.991297 -0.00190897 -1.17553e-21)
(1.00293 -0.00931124 2.71745e-22)
(1.25005 0.0796348 1.8561e-21)
(0.997745 -0.000424812 -4.64442e-22)
(0.999973 -5.76056e-05 -1.03183e-24)
(0.999935 -0.000227627 -7.80164e-25)
(1.00006 -0.000134218 1.13392e-23)
(0.973456 -0.00963052 8.8508e-22)
(1.04838 0.0282729 -1.16222e-20)
(0.995067 -0.000684777 1.42122e-23)
(1.02923 -0.0134853 2.60756e-21)
(1.00825 -0.155341 3.41279e-21)
(1.01224 0.150603 -9.49718e-22)
(1.00495 -0.00946745 2.3458e-22)
(1.00831 -0.00594634 -1.07478e-22)
(0.993776 -0.0031837 -4.72614e-22)
(0.990665 0.104866 -4.05342e-20)
(0.99872 -0.000156076 6.55733e-23)
(1.16299 0.204908 -7.28685e-21)
(1.01486 0.0271389 -1.35872e-20)
(0.999857 -3.81202e-05 8.9052e-24)
(1.00441 -0.0626189 -1.44188e-21)
(0.995942 -0.000973015 -3.34205e-22)
(0.98603 -0.0740613 4.64111e-21)
(1.00068 -0.000166169 4.67387e-23)
(1.08341 -0.0111632 3.32401e-21)
(1.00852 -0.0207128 -9.01527e-24)
(1.00775 -0.00522624 5.38002e-23)
(0.998969 -0.000203499 -1.29369e-22)
(1.11822 0.0352006 5.11238e-21)
(1.08077 0.0440981 1.77881e-21)
(1.00495 -0.0816965 2.34383e-21)
(0.975188 -0.0247411 -1.82924e-22)
(0.997373 -0.00464985 -1.77388e-22)
(0.998637 -0.0499273 -2.64234e-21)
(1.20336 -0.0100848 -2.5302e-21)
(0.747682 0.0969745 -3.60526e-20)
(1.08437 -0.109736 -1.84363e-21)
(1.00636 -0.00995067 -1.11028e-22)
(0.999991 -3.07966e-06 -3.99145e-28)
(0.983659 -0.00608219 -1.54438e-21)
(0.997238 -0.000479425 4.31892e-22)
(1.0313 -0.0247644 1.46197e-21)
(0.995453 -0.125908 -1.47968e-21)
(1.20981 -0.0894314 1.74736e-21)
(0.987522 0.147359 -4.92231e-20)
(1.09204 0.036867 7.6091e-21)
(1.10925 -0.149455 2.99953e-21)
(1.15597 0.0831838 2.41189e-21)
(0.999439 0.0666209 4.80012e-20)
(1.0255 -0.00377277 2.16849e-21)
(1.00148 -0.00289537 2.11894e-22)
(1.05695 0.0911796 7.58347e-21)
(0.998958 -0.00254412 1.1312e-22)
(0.999778 -0.000208809 8.36373e-24)
(0.977595 -0.00249367 5.40734e-22)
(1.00012 -4.27753e-05 2.93389e-24)
(1.11057 -0.170312 1.59372e-21)
(1.0045 -0.0226604 -8.24073e-23)
(0.980505 -0.0422158 2.46066e-21)
(1.00231 -0.00199682 1.05324e-22)
(1.13783 0.0761936 1.44776e-20)
(0.997839 -0.000400854 -3.83386e-23)
(0.99997 -4.59816e-05 -2.12742e-25)
(1.01844 -0.14166 1.90039e-21)
(1.00203 -0.00168479 -6.16657e-23)
(1.1309 -0.0421538 -6.24231e-22)
(0.944614 -0.0179615 8.41667e-22)
(0.920163 -0.0212329 4.22044e-22)
(1.24525 -0.0477752 1.532e-22)
(1.03914 0.0237446 -4.40408e-21)
(1.03076 0.00638432 2.72649e-21)
(1.02907 0.00614351 -1.08369e-21)
(0.999749 -5.53108e-05 3.05421e-24)
(1.16406 -0.00639401 1.45881e-21)
(1.10855 -0.00403968 3.18799e-21)
(0.99938 -0.000812919 2.94193e-23)
(0.979563 -0.00805704 2.24043e-21)
(1.00076 -0.00025804 -5.20097e-23)
(1.01441 -0.0259792 -1.07274e-21)
(1.00982 -0.0362088 -6.06991e-23)
(1.00558 -0.00176325 2.03712e-24)
(0.99908 -0.00161364 -1.35723e-22)
(1.21976 0.0381705 -7.34037e-21)
(0.999973 -2.78451e-05 -2.22576e-24)
(1.00026 -0.000133323 -1.43182e-23)
(1.00251 -0.00131973 -4.28803e-24)
(0.972376 -0.00414913 1.49668e-21)
(1.02406 -0.0153506 1.8269e-21)
(0.979728 -0.0356125 -3.49708e-21)
(0.965988 -0.00639205 -8.70013e-22)
(1.01172 -0.0784523 1.324e-21)
(1.02582 -0.167747 -3.6329e-21)
(1.03163 -0.0415298 3.74445e-22)
(1.06502 0.0896926 -4.26176e-20)
(1.2322 -0.0791204 -3.28041e-21)
(0.991953 -0.00321797 -6.16443e-23)
(0.813949 0.189459 5.84963e-20)
(0.968993 -0.0675196 5.13974e-21)
(0.991937 -0.0121902 2.42483e-22)
(0.966846 -0.00529542 1.43454e-21)
(0.997012 -0.0227879 -1.30377e-22)
(0.974096 -0.00304387 2.28898e-21)
(0.987711 -0.00486732 -4.49333e-22)
(1.03452 -0.0190492 -2.75312e-21)
(1.13472 -0.103542 -5.1557e-22)
(0.999968 -5.41749e-05 -1.96103e-25)
(1.02937 -0.0175491 -3.10149e-22)
(0.99988 -3.77747e-05 -4.2596e-24)
(1.05174 0.163467 9.09207e-21)
(1.22329 0.00623581 3.97383e-21)
(0.994137 -0.00243079 1.48755e-22)
(0.982631 -0.00217822 -2.05311e-21)
(0.999769 -6.75181e-05 -2.27291e-23)
(0.999695 0.093325 2.97844e-20)
(1.10776 0.165941 1.86952e-20)
(1.16125 -0.0168432 -1.68064e-21)
(1.25392 0.0487783 -5.02429e-21)
(0.96873 -0.0715488 -2.20611e-21)
(0.997148 0.0228377 -4.70724e-20)
(0.999924 -0.00016649 3.35077e-24)
(1.05754 -0.0413891 3.01085e-21)
(0.977148 -0.00190115 -8.43174e-23)
(1.16684 0.048072 -2.64241e-21)
(0.872596 0.125309 -4.52474e-20)
(1.2017 -0.018957 2.21645e-21)
(1.08045 0.0309897 1.24926e-21)
(0.999837 -0.0155479 -7.52771e-23)
(0.999755 -0.000104755 -2.09914e-23)
(1.23865 0.0370171 2.10516e-21)
(1.20588 -0.112245 8.58586e-22)
(0.997923 0.106974 -8.54931e-22)
(1.12246 -0.039939 3.7661e-21)
(1.06183 0.068752 1.26387e-20)
(0.991467 -0.0028784 -2.09287e-22)
(1.00171 0.144357 1.3108e-20)
(1.10953 0.151829 6.4803e-21)
(0.989106 -0.00410505 -1.25928e-21)
(0.990893 -0.00384618 -4.67179e-22)
(1.23511 0.0198402 1.00059e-23)
(0.917195 -0.0196305 -5.74175e-21)
(0.999897 -0.000194556 -5.47241e-24)
(0.984438 -0.00657637 1.98721e-21)
(0.923497 -0.0276437 4.21428e-21)
(0.981583 -0.0908956 -6.4831e-22)
(1.01198 -0.00331012 -1.87032e-21)
(1.01024 -0.00738782 1.20528e-22)
(0.999849 -0.000241414 -1.10884e-23)
(1.11837 0.17433 -2.77708e-20)
(1.00035 -0.0140233 1.22837e-23)
(0.999874 -7.41133e-05 3.75762e-24)
(1.0213 -0.0747156 1.47131e-21)
(0.999399 -0.000531919 2.62783e-23)
(0.999728 -9.6022e-05 1.53357e-24)
(1.00638 -0.0152234 -1.2961e-22)
(1.12201 0.0873058 2.06599e-20)
(1.01186 -0.126731 2.62423e-21)
(0.912322 0.12336 2.62452e-20)
(1.00008 -1.40753e-05 -8.33332e-24)
(1.13285 0.0870209 -2.12683e-20)
(1.0141 -0.0637749 1.1292e-21)
(0.999908 -0.000234404 -1.57338e-24)
(1.00003 -7.33051e-06 -2.8516e-24)
(1.00521 0.0173896 -2.2305e-21)
(1.1059 0.0763953 7.98542e-21)
(0.995244 -0.00298789 1.29103e-22)
(1.08896 0.0586552 -1.0832e-20)
(1.00003 -2.43612e-05 2.10515e-24)
(1.09323 0.0667455 -1.4635e-20)
(1.13325 -0.182543 4.01442e-21)
(0.98852 -0.0036749 1.38561e-21)
(0.998527 0.0351428 -6.28043e-20)
(0.970353 -0.0567585 3.42162e-21)
(1.24954 0.0407706 4.54486e-21)
(0.968362 -0.00531125 8.6937e-22)
(1.10201 0.0676411 1.90792e-20)
(1.11634 0.0768907 -5.80997e-21)
(0.98055 -0.00994308 3.2303e-21)
(0.974579 -0.0120856 -2.37976e-21)
(0.993938 -0.0121899 7.16884e-22)
(0.99662 -0.00089561 -1.0939e-22)
(0.999762 -0.000233799 2.3887e-23)
(1.00011 -0.0133597 -2.21633e-23)
(1.12126 0.131985 -3.32869e-21)
(0.999966 -4.24506e-05 6.22641e-25)
(1.08017 0.0580462 1.4296e-20)
(1.02679 -0.128787 4.12242e-21)
(1.02123 0.102522 1.12775e-20)
(1.07697 0.0512514 -1.65394e-20)
(0.920489 -0.0258814 -5.20872e-22)
(0.932113 0.157779 -5.38409e-20)
(0.998121 -0.00141322 9.46035e-24)
(1.01904 -0.0337964 4.50349e-22)
(1.05239 -0.100883 1.05092e-21)
(0.975212 -0.00286571 -1.37523e-22)
(0.99242 -0.00405891 6.22024e-22)
(1.01082 -0.0650418 -1.00531e-21)
(1.06792 -0.0333418 -3.07311e-22)
(0.829685 0.114949 7.17075e-20)
(1.00005 -2.44251e-05 9.54315e-24)
(0.997786 -0.00150692 1.24025e-22)
(1.01618 -0.0928 5.22432e-23)
(1.00002 -6.00283e-06 3.65502e-25)
(1.05846 0.17578 4.44118e-21)
(1.00205 -0.00144214 0)
(1.00002 -7.51384e-06 2.90483e-25)
(1.00023 -0.000105892 3.37332e-23)
(1.00049 -0.000140232 6.61608e-25)
(0.982408 -0.0243282 2.37939e-21)
(1.02787 -0.023139 -1.04818e-21)
(0.998211 -0.00109424 1.94049e-22)
(0.999899 -2.0387e-05 7.89168e-24)
(0.991918 -0.0038009 3.45616e-22)
(1.00547 -0.0158568 -9.41137e-23)
(0.982855 -0.131632 -4.01794e-21)
(0.927106 -0.0088234 4.131e-22)
(1.02325 -0.0136438 3.2176e-21)
(0.999968 -3.2921e-06 2.09658e-24)
(1.08382 -0.189119 4.91968e-21)
(0.984714 -0.00457748 -7.96353e-22)
(1.21811 0.0261192 -2.75889e-22)
(1.00087 0.0287548 -8.13366e-21)
(1.00151 -0.00435257 4.91349e-23)
(1.19788 0.0291532 -8.04117e-21)
(1.00018 -0.000116796 -4.79759e-26)
(0.985439 -0.00514311 2.31608e-23)
(1.03236 0.000663726 -5.50001e-21)
(0.99245 -0.00461651 -2.54787e-22)
(1.13833 0.105687 -1.32798e-21)
(0.985299 -0.00803401 -1.49987e-21)
(1.05998 -0.0388758 -2.63857e-21)
(1.03346 0.00168389 -5.92701e-21)
(1.10012 0.0363212 -3.04607e-21)
(1.00895 -0.0190904 -4.96339e-22)
(0.988334 -0.00524564 3.73215e-23)
(1.15287 0.0632073 8.16341e-21)
(0.973303 -0.0986318 -3.54595e-21)
(1.03324 0.183379 3.78464e-20)
(0.989682 -0.00593442 -1.45705e-21)
(1.17362 0.137467 -4.7405e-22)
(0.989665 -0.00520553 3.89224e-22)
(0.998664 -0.000635708 -1.25576e-23)
(1.07766 0.0268579 3.61637e-21)
(1.01685 -0.0381294 -7.33979e-23)
(1.04923 -0.000709467 8.00222e-21)
(1.00209 -0.00104583 6.82709e-23)
(1.00002 -5.47181e-06 1.33124e-25)
(0.994028 -0.150255 1.46073e-21)
(1.23928 0.0769688 -8.95276e-21)
(1.00181 -0.00422186 -6.50994e-23)
(1.2071 0.0219592 6.81665e-22)
(0.986106 -0.00749726 -9.80877e-22)
(1.07402 -0.193615 -1.76766e-21)
(1.05231 -0.0576425 -3.25201e-23)
(0.979239 -0.0378122 1.9665e-21)
(0.998072 -0.00123572 -8.19761e-23)
(0.989977 -0.00131126 -2.94133e-22)
(0.967512 -0.0842662 -2.12942e-21)
(0.965808 -0.0114627 3.28713e-21)
(0.989035 -0.00484904 1.03033e-21)
(0.999831 -0.000543226 9.73564e-24)
(1.02197 0.200627 -4.76183e-21)
(1.18732 0.0243059 4.81069e-21)
(1.03089 -0.0149133 -1.00101e-21)
(0.999769 -0.000181196 1.57905e-23)
(1.09924 0.144299 -1.28565e-20)
(1.00001 -2.94639e-05 9.43007e-25)
(0.999786 -0.000161099 3.10151e-23)
(1.17759 0.0307295 4.7195e-21)
(1.01211 -0.0315531 2.77609e-22)
(1.23074 0.0578559 7.23519e-21)
(1.03076 -0.00470795 2.26709e-21)
(1.02093 -0.0167508 -2.1893e-22)
(1.09805 -0.0984148 1.05554e-21)
(1.04479 -0.159043 4.01781e-21)
(1.2409 -0.0523372 7.37621e-22)
(1.0015 -0.00104444 -1.49756e-22)
(0.946757 -0.0196072 -3.29192e-22)
(0.999978 -7.07473e-05 -2.62471e-25)
(1.00602 -0.0139823 9.19676e-23)
(1.13942 0.0954763 7.37772e-21)
(0.981578 -0.00932001 2.25452e-21)
(0.996803 -0.00179512 1.73309e-22)
(1.01579 -0.0516645 -5.89548e-22)
(0.997751 -0.0013302 1.19635e-23)
(0.999546 -0.0013324 3.3585e-23)
(0.813552 0.02638 1.28254e-20)
(0.989063 -0.00638451 -8.25191e-22)
(0.999385 -0.000890075 -1.02429e-22)
(0.999978 -8.6844e-07 -3.80241e-25)
(1.02513 0.00843215 1.1895e-20)
(0.968344 -0.0316449 -4.9779e-22)
(0.999626 -0.000674108 2.94559e-23)
(0.996813 -0.00103732 2.2308e-22)
(1.03665 0.0276136 4.86816e-21)
(1.09333 -0.00344407 7.88219e-22)
(0.955825 -0.0280433 -2.81348e-21)
(1 -1.85435e-05 7.59113e-25)
(1.00276 0.0216633 3.2442e-20)
(0.984014 -0.0212186 -1.62509e-21)
(1.13154 0.0675699 -1.47138e-20)
(1.0157 -0.00173997 -2.84311e-21)
(1.01818 -0.00164072 6.50148e-21)
(0.96383 -0.0142434 4.47711e-21)
(0.999888 -7.94472e-05 -2.4246e-24)
(1.03218 -5.56504e-05 -1.08565e-21)
(1.09768 -0.00902892 -1.00649e-21)
(1.22797 -0.0348971 2.86522e-22)
(1.0343 -0.12445 8.77575e-22)
(1.11032 0.126195 9.75713e-21)
(1.00705 -0.00206764 -4.61613e-23)
(1.16389 0.0608757 -1.11407e-20)
(0.999948 -0.0181315 -1.3456e-22)
(1.01712 -0.0714211 -2.69303e-21)
(0.99955 -0.000202221 -3.2827e-23)
(1.00363 -0.0240349 1.58353e-22)
(0.999882 -0.000523291 2.55251e-24)
(1.076 0.0368697 -1.09056e-20)
(1.20952 0.120827 -2.12966e-20)
(0.998299 -0.00145933 6.5348e-23)
(1.02253 -0.0170483 5.02657e-23)
(0.979925 -0.00561601 7.7501e-22)
(1.04069 -0.111308 3.68549e-22)
(1.03385 -0.116122 -2.07015e-21)
(0.997866 -0.0010507 1.302e-22)
(1.05317 -0.0410651 -1.03169e-21)
(0.830537 0.00758014 -2.16449e-20)
(1.21388 -0.0455424 -1.65046e-23)
(0.999938 -0.000201503 6.62335e-24)
(1.08624 -0.00482927 -2.82256e-21)
(0.996635 -0.011144 -3.45245e-22)
(0.98756 0.00575359 4.50593e-20)
(0.986109 -0.00656051 1.36502e-21)
(0.994732 -0.0328655 -4.25067e-22)
(1.01928 -0.0463802 -5.00396e-23)
(0.992998 -0.0339009 -6.45186e-23)
(0.998019 -0.0264402 -9.39701e-22)
(0.991383 -0.00412472 2.38169e-22)
(0.998916 -0.0179277 5.06438e-22)
(1.00233 -0.00786274 -7.30218e-23)
(1.06846 -0.0382335 7.11853e-22)
(1.00012 -3.42909e-05 -2.22449e-23)
(1.17977 -0.162455 -1.74924e-21)
(1.17939 -0.0703783 -3.89291e-22)
(1.09168 0.184158 2.3767e-20)
(0.958013 -0.026575 4.27565e-21)
(1.21877 0.0643168 -3.82693e-21)
(1.00229 -0.000827457 2.39824e-22)
(1.06961 -0.103261 -3.67038e-23)
(1.00398 -0.0478852 -9.884e-22)
(1.03633 0.0526363 1.43135e-20)
(0.991975 -0.00498763 5.90553e-22)
(1.00013 -0.00022352 1.50875e-23)
(0.984798 -0.0220981 2.12121e-21)
(0.994963 -0.0118653 -2.7179e-22)
(1.05029 -0.0374695 2.27129e-21)
(0.967614 -0.00878177 -2.77897e-21)
(0.973275 -0.0112622 7.84953e-22)
(1.13909 -0.0810374 -2.67891e-23)
(0.983054 -0.00364925 -1.34431e-21)
(1.01609 -0.0480422 3.64244e-22)
(0.983009 -0.0961362 2.54982e-21)
(1.00001 -9.79579e-06 2.56789e-25)
(1.07256 -0.0296678 4.04112e-21)
(0.985651 -0.0869085 -6.85071e-21)
(1.20865 0.0458083 3.65589e-21)
(1.09612 -0.105873 -2.0509e-21)
(1.04717 -0.000913743 6.69116e-22)
(1.01965 -0.123893 -5.35537e-21)
(1.14561 0.17696 5.69383e-21)
(1.03957 -0.049073 6.97053e-22)
(0.962272 -0.0131447 -2.64936e-21)
(1.0147 -0.0596133 -1.28428e-21)
(0.920681 0.0104713 2.03043e-20)
(1.14468 -0.153987 9.84586e-22)
(0.98534 -0.00609206 -4.14747e-22)
(1.01753 -0.151383 -4.08363e-22)
(1.02523 -0.0842296 1.81004e-21)
(1.03466 -0.143171 -7.22633e-22)
(1.03949 -0.103567 -2.10723e-21)
(1.14567 0.0557438 1.08992e-20)
(0.996832 -0.00205974 1.1535e-23)
(1.01645 0.0668516 5.44739e-21)
(1.00932 -0.00193022 3.35927e-22)
(0.999552 -0.000681298 -4.26062e-23)
(0.998622 -0.00291672 3.12056e-22)
(1.07753 -0.0110891 -9.82724e-22)
(0.732549 0.00925489 6.30232e-22)
(1.0019 -0.00838413 4.03379e-23)
(1.01784 -0.0667469 3.88075e-22)
(1.03773 0.0317694 -8.07629e-21)
(1.00003 -9.52482e-06 -4.83764e-25)
(0.975865 -0.0113778 1.89833e-21)
(1.02754 -0.0135414 2.31285e-21)
(1.08334 -0.0665346 6.12411e-22)
(1.00944 -0.00111147 1.87999e-21)
(0.998181 -0.00255649 5.80563e-23)
(0.980177 -0.0479246 5.25967e-23)
(0.997436 -0.0107433 -9.73027e-23)
(1.00004 -6.79891e-06 5.3328e-24)
(0.972898 -0.0557791 -5.76692e-21)
(1.1185 0.106615 -3.48805e-21)
(1.02211 -0.0412493 2.01584e-22)
(0.980812 -0.00635642 -1.45367e-21)
(1.0021 -0.00050045 -8.64537e-23)
(1.04256 0.0340027 1.06293e-20)
(0.999561 -0.000808524 -1.98194e-23)
(0.998572 -0.000831948 -6.37914e-24)
(0.999589 -0.000221666 -2.98473e-23)
(0.999146 -0.00272963 -7.72075e-23)
(1.21957 -0.0256389 1.18804e-21)
(1.03184 -0.0481009 7.13012e-22)
(1.00923 -0.0239283 1.5719e-22)
(0.979488 -0.009338 -6.63697e-22)
(1.00005 -6.54698e-05 5.2387e-24)
(1.06498 -0.156686 5.36627e-21)
(1.21453 -0.100525 7.79858e-23)
(1.0686 -0.167645 -2.56458e-21)
(0.995471 -0.0416931 -7.96207e-22)
(1.01653 -0.0121938 2.13677e-21)
(0.999756 -0.000127288 1.3243e-23)
(0.986813 -0.0144884 -8.45948e-22)
(0.951444 -0.0559973 -3.38345e-21)
(1.20692 -0.0372787 5.01517e-22)
(1.01701 0.100361 -4.0891e-22)
(0.998678 -0.00411378 6.35093e-23)
(0.936287 -0.0391151 1.91654e-21)
(0.994584 -0.00354172 -5.62935e-22)
(1.03777 -0.0453923 -8.33906e-23)
(1.15786 0.0412792 8.58833e-22)
(1.00052 -0.000173755 -7.33701e-23)
(0.999821 -0.000272844 -4.45344e-24)
(1.23966 0.0254832 4.89431e-22)
(1.19189 -0.0500696 2.45298e-22)
(1.02184 -0.0207745 7.75676e-22)
(0.996617 -0.00224737 2.95627e-22)
(0.997596 -0.000590803 -2.91299e-23)
(0.959292 -0.0572405 8.26766e-22)
(0.999802 -0.000454927 -1.53976e-23)
(1.01923 -0.0429889 1.61125e-22)
(0.984598 -0.00181278 2.78613e-21)
(1.00141 0.0313777 -6.80372e-21)
(1.13073 0.111281 -1.82963e-21)
(1.06566 -0.0958401 8.11035e-22)
(0.990117 -0.0878553 2.53708e-21)
(1.00758 -0.00196497 9.43893e-22)
(1.01645 -0.0322438 -6.49464e-22)
(1.1754 -0.0592576 2.0879e-22)
(0.988744 -0.0971427 -1.56981e-21)
(1.01843 -0.0580162 7.21461e-22)
(0.999998 -9.05645e-06 -5.74676e-26)
(1.15565 -0.0664422 -3.70443e-22)
(0.970171 -0.00358936 2.61201e-22)
(0.986729 -0.107209 3.12164e-21)
(1.02185 -0.0381053 -9.28796e-22)
(0.949226 -0.0186059 -5.93609e-22)
(0.99954 -0.000391907 -1.45405e-23)
(0.996559 -0.00168381 -1.31684e-22)
(1.0697 0.0505306 1.2777e-20)
(0.965665 -0.0133654 -1.00739e-21)
(0.999981 -2.28433e-06 4.17396e-25)
(0.9967 -0.000690265 -3.08045e-22)
(1.14688 -0.139616 -6.24022e-21)
(0.999807 -6.2502e-05 3.29447e-23)
(1.02168 -0.0649383 -2.30845e-22)
(0.999943 -0.000161413 -6.02702e-25)
(1.00773 -0.0178325 -1.22708e-24)