/*--------------------------------*- C++ -*----------------------------------*\
  =========                 |
  \\      /  F ield         | OpenFOAM: The Open Source CFD Toolbox
   \\    /   O peration     | Website:  https://openfoam.org
    \\  /    A nd           | Version:  7
     \\/     M anipulation  |
\*---------------------------------------------------------------------------*/
FoamFile
{
    version     2.0;
    format      ascii;
    class       volVectorField;
    location    "2.5";
    object      U;
}
// * * * * * * * * * * * * * * * * * * * * * * * * * * * * * * * * * * * * * //

dimensions      [0 1 -1 0 0 0 0];

internalField   nonuniform List<vector> 
7807
(
(1.03751 0.0812423 3.39447e-20)
(1.03287 -0.0255916 1.51197e-20)
(0.993786 0.0592384 -6.09128e-20)
(1.01946 0.0406715 9.09021e-20)
(0.999422 -0.000579167 -1.98935e-22)
(0.999976 -8.56275e-06 -2.24827e-23)
(0.990543 0.0505642 -1.17686e-19)
(0.996894 -0.00116017 -4.33956e-23)
(0.999915 -0.000116555 -3.72388e-23)
(1.01513 -0.00143673 -4.49635e-21)
(0.999978 -9.62366e-06 2.47703e-23)
(1.00137 -0.000880108 -7.95675e-22)
(0.995134 -0.0016701 2.06487e-21)
(1.00977 -0.00118393 -3.01732e-20)
(1.0141 -3.97989e-05 1.89862e-20)
(0.994444 -0.00900872 -3.92993e-21)
(1.0379 0.0864413 -7.15096e-20)
(0.993516 -0.00210729 -7.25831e-22)
(1.00157 -0.00546159 -3.07181e-22)
(0.990375 -0.060047 -2.95551e-21)
(1.02037 -0.000691559 -1.05568e-20)
(1.00089 -0.000368215 1.49247e-21)
(1.01061 -0.00240332 2.67079e-21)
(1.00696 0.0174806 -4.68111e-20)
(0.991338 -0.0026096 -3.33319e-21)
(1.03497 0.0797872 -3.35365e-20)
(0.999409 -0.000549344 -1.42971e-22)
(1.01481 -7.67941e-05 1.18364e-20)
(1.00398 0.00932415 -6.14269e-21)
(1.00189 -0.00610498 2.54886e-22)
(0.99274 -0.00983276 -7.38945e-21)
(0.932484 0.0192377 1.62897e-20)
(1.00931 -0.00260697 1.64548e-20)
(0.999711 -0.00024471 2.51302e-22)
(0.999935 -3.53101e-07 4.96472e-25)
(1.01336 0.000470101 6.66512e-21)
(1.0029 -0.00653693 2.94529e-22)
(0.991685 0.0474566 -1.89392e-20)
(0.998367 -0.00506162 3.2869e-21)
(0.99979 -2.95792e-05 2.39192e-22)
(0.998215 -0.00505999 -3.83255e-22)
(0.994816 -0.00799913 -1.50276e-21)
(1.00658 -0.0661 1.11493e-20)
(1.0946 -0.0296166 -2.48093e-21)
(0.999875 -2.12008e-06 7.74364e-23)
(0.999952 -1.26061e-05 -2.20695e-23)
(1.00074 -0.000339418 -9.12386e-22)
(0.997437 -0.00402402 -1.94025e-21)
(0.99996 -1.96042e-05 -1.79138e-23)
(0.993051 -0.0604004 4.23276e-21)
(1.00197 -0.00076775 8.64267e-22)
(1.01472 0.000647814 -1.23072e-20)
(0.988731 -0.00312195 -1.12371e-20)
(1.00734 -0.0194928 7.51939e-22)
(1.01222 -0.0011973 -4.06432e-21)
(0.997224 -0.00165007 -3.77898e-22)
(1.00085 -0.0056877 6.40524e-22)
(0.997012 -0.000944928 2.82141e-21)
(0.986224 -0.0118673 -1.32536e-20)
(0.999722 -0.000221857 -3.22484e-22)
(1.00003 -1.50734e-05 -3.30717e-23)
(1.0026 -0.000574988 9.68021e-22)
(1.0108 -0.000873806 -7.06027e-21)
(1.00147 -0.000801892 8.05146e-22)
(0.999449 -0.000143699 4.59766e-22)
(0.992696 -0.0103861 1.34885e-21)
(0.999945 -0.000123109 2.87632e-23)
(1.00001 -1.37629e-06 2.28655e-24)
(1.09297 0.049707 2.10855e-20)
(0.997384 -0.00406183 -5.61307e-22)
(0.999957 -1.2962e-05 1.96051e-23)
(0.982237 -0.0361932 -2.30004e-20)
(0.991623 -0.0028025 1.6183e-21)
(0.984425 -0.00340445 2.23452e-21)
(0.993696 -0.00227117 2.27151e-21)
(0.978668 -0.017276 -2.93742e-21)
(0.99565 0.0605223 9.7743e-20)
(1.01905 -0.000994231 1.33637e-20)
(1.05245 0.000706395 -3.0523e-20)
(0.972128 -0.0297586 -3.05592e-20)
(0.995321 -0.00179245 -3.17053e-21)
(0.99862 0.0279738 1.17565e-19)
(1.02152 0.00459326 3.06832e-20)
(0.983767 -0.00643799 1.02337e-20)
(0.999193 -0.00155433 -3.2341e-22)
(0.998593 -0.000188115 3.34438e-22)
(0.996713 -0.00151974 3.89199e-21)
(0.989098 -0.00344622 7.23032e-21)
(0.999592 -0.000731376 2.15289e-22)
(0.997338 -0.000461032 1.2034e-21)
(1.00396 0.0106623 4.51112e-20)
(1.11586 -0.0183215 4.65053e-21)
(0.999924 -3.55266e-05 -4.69715e-23)
(1.00118 -0.00475399 2.52961e-22)
(0.997871 -0.000640918 1.09139e-21)
(0.983707 -0.00226683 -1.78234e-20)
(0.98394 -0.0357269 1.56124e-21)
(1.00797 -0.0184003 -1.52501e-22)
(0.999252 -0.00154848 1.07167e-22)
(0.999362 -8.7714e-05 1.53302e-22)
(0.968996 -0.0106336 7.88185e-21)
(1.05376 0.00470819 2.44054e-20)
(0.998039 -0.000765019 -2.72215e-21)
(0.999983 -9.8174e-08 -1.90795e-24)
(1.11897 -0.0101529 3.11838e-21)
(1.01768 0.0165323 -4.34659e-20)
(0.961406 0.0150659 1.90509e-20)
(0.996986 -0.00156393 -1.56739e-21)
(0.999994 -1.24987e-06 4.79385e-25)
(1.01526 -0.00717402 -6.00324e-21)
(1.02378 0.0385572 -1.05577e-19)
(1.01718 -0.0496294 -1.04277e-20)
(0.999993 -1.15659e-06 -7.05948e-25)
(1.01709 -0.00677533 -1.31544e-21)
(1.01509 0.016537 4.56596e-20)
(1.00023 -0.000331591 -7.1788e-23)
(1.04334 -0.0569283 1.77129e-22)
(1.01825 0.00952849 -1.0667e-20)
(0.989657 -0.0281749 9.69353e-21)
(0.984036 -0.00414357 -2.31614e-21)
(0.966874 -0.00703413 -1.90994e-20)
(1.00036 0.0251647 -7.64355e-20)
(1.0103 -0.0645018 -1.53728e-20)
(1.00524 -0.00445114 5.20398e-22)
(0.968082 -0.00804734 7.53103e-21)
(0.999442 -0.000808472 4.79736e-22)
(0.992345 -0.0072296 2.41394e-21)
(1.00191 -0.00553454 -4.43386e-22)
(0.999405 -0.00013567 -1.02482e-21)
(0.991731 -0.00876148 1.16756e-22)
(1.14291 -0.0318652 7.88297e-22)
(1.04815 -0.000548483 5.11987e-21)
(0.999647 -0.000306615 2.72721e-23)
(0.999536 -0.000751015 -4.17701e-22)
(0.98298 -0.0059242 3.042e-21)
(1.02213 0.0305571 3.94422e-20)
(0.99473 0.0195872 1.31344e-19)
(0.999985 -2.52853e-06 -2.2201e-24)
(1.00505 -0.00169226 4.0443e-22)
(0.954548 -0.00817639 -2.41703e-20)
(0.985188 -0.00228195 -9.13744e-21)
(0.993195 -0.0391782 -1.33954e-20)
(0.978981 -0.0186133 3.97845e-21)
(0.985128 -0.00308052 -2.0096e-22)
(0.95949 0.0127204 7.32669e-20)
(1.00802 -0.0286395 -3.96331e-22)
(1.00796 0.010023 -2.31278e-20)
(0.987546 -0.0146722 -6.72641e-21)
(0.977914 -0.00374957 2.54626e-21)
(0.999513 0.0264235 -3.81608e-20)
(1.01434 0.00235301 1.70066e-20)
(1.10701 -0.0195398 3.27664e-21)
(0.999008 -0.00121046 -1.11942e-21)
(1.09776 0.0427602 4.40664e-21)
(1.02138 0.0036073 -3.17485e-20)
(1.00068 0.0500814 -9.77562e-20)
(0.974933 -0.02021 1.22552e-20)
(0.995157 -0.00108703 6.96713e-22)
(0.967489 0.0359941 1.68382e-19)
(0.999962 -1.434e-05 -1.68175e-23)
(1.00079 -0.00482049 -2.06179e-22)
(1.0077 0.019841 3.34691e-20)
(0.999987 -1.19096e-05 1.09514e-23)
(0.998957 -0.00320559 -1.52359e-21)
(0.997674 -0.000647636 -5.22567e-22)
(1.00283 0.0210138 -1.0791e-20)
(1.00187 0.0227836 3.96585e-20)
(0.961611 0.0417662 5.57794e-20)
(0.999033 -0.00318537 -9.69993e-22)
(0.998067 -0.000200225 -5.84188e-22)
(1.00001 -1.93229e-07 -2.13039e-24)
(0.964781 -0.00465988 -3.30447e-20)
(1.0002 -0.000299816 9.86456e-23)
(1.03599 -0.0234385 -1.76433e-20)
(1.00525 -0.00192411 2.71632e-21)
(0.97829 -0.00438311 5.27335e-21)
(1.11224 -0.00227023 8.72257e-21)
(1.06139 0.0468378 1.69132e-21)
(0.99992 -3.63127e-05 2.57336e-23)
(0.999668 -0.000399358 -2.85078e-22)
(1.01747 0.0419936 -1.59701e-20)
(0.999963 -1.31653e-05 -8.17714e-24)
(0.999932 -6.44399e-06 1.22645e-23)
(0.990393 0.0520409 -9.78242e-20)
(1.03256 -0.0273497 6.15221e-21)
(1.00886 -0.0407544 -6.61368e-21)
(0.990997 -0.0273911 -1.37371e-20)
(0.985522 -0.00465036 6.65639e-21)
(1.00612 -0.0299735 6.20955e-22)
(0.955671 -0.00678304 1.26722e-20)
(0.999987 -1.16646e-05 -3.89136e-24)
(0.984082 -0.0334753 -5.46111e-21)
(1.06445 0.0526019 -3.76272e-20)
(0.997995 -0.000900581 3.91114e-22)
(1.00005 -2.37585e-06 -2.5105e-23)
(1.04344 0.0479699 3.5546e-21)
(0.999266 -0.000225098 1.08401e-21)
(0.992159 -0.00889706 3.86287e-21)
(1.00494 -0.0286361 2.15347e-21)
(1.00001 -2.02369e-06 -9.40568e-25)
(1.00045 -0.00127178 -3.97858e-22)
(1.01969 0.0310357 4.79159e-20)
(1.05085 0.0542829 -4.62289e-20)
(0.997675 0.0436016 -1.30749e-20)
(1.04079 -0.0536811 2.0177e-21)
(1.01849 -0.0471335 2.58035e-21)
(1.0733 -0.0794691 -5.37651e-22)
(1.01379 -0.00299305 3.49549e-20)
(1.01737 0.0326806 -1.56533e-20)
(0.999869 -1.16065e-05 -9.10514e-23)
(1.00003 -1.15961e-05 8.74582e-24)
(0.971836 0.00608673 -7.37354e-20)
(0.995686 -0.00797991 -1.40278e-21)
(0.999643 -0.000283527 -2.70993e-22)
(0.985559 -0.032811 1.12742e-20)
(0.991913 -0.0076127 -2.8016e-21)
(1.00676 0.0451178 -1.1155e-19)
(1.00341 0.0442997 -2.36211e-20)
(0.990864 -0.040421 3.76159e-21)
(0.943474 0.0281162 -6.21332e-20)
(0.999327 -0.000275324 -7.9593e-22)
(0.993617 -0.00159204 2.58034e-21)
(0.967752 -0.00969393 1.04122e-20)
(1.02064 0.0021066 -7.4148e-21)
(1.00945 -0.0818778 -1.56898e-21)
(1.0516 0.0829854 -7.54088e-20)
(0.967834 0.031862 -1.44263e-19)
(1.00004 -6.72451e-05 2.80393e-23)
(1.00527 -0.00456542 1.33578e-21)
(1.01671 0.0116898 5.74434e-20)
(0.997673 -0.00360279 -2.51468e-21)
(1.01953 0.0103562 -7.33935e-21)
(0.999675 -0.000769515 -6.83538e-23)
(0.950575 0.046075 1.11931e-19)
(1.00103 0.0457754 2.10548e-20)
(0.99677 -0.00124588 2.47594e-21)
(1.00258 -0.00499752 -6.1135e-23)
(0.999798 -5.98409e-05 -4.45362e-22)
(1.07624 0.0674976 2.01614e-20)
(0.999939 -1.27039e-05 3.60834e-23)
(0.996578 -0.00680137 1.11984e-21)
(0.960702 -0.0193274 1.41235e-20)
(0.999955 -1.52208e-05 -8.15024e-24)
(0.999312 -0.00176121 -2.76798e-22)
(0.999752 -0.000774816 1.25408e-22)
(1.03797 0.0270037 4.43905e-20)
(0.999988 -1.49196e-05 1.30998e-23)
(0.99723 -0.000372089 1.28982e-24)
(0.973505 -0.029444 3.54147e-20)
(0.932529 0.0137569 -3.58211e-20)
(1.04813 -0.0035427 -6.85905e-21)
(0.955733 0.0311202 8.51397e-20)
(0.999972 -7.72398e-06 -2.05704e-23)
(1.00401 -0.0293506 -2.09077e-22)
(0.999888 -0.000186734 -1.01315e-22)
(0.997563 0.051949 -9.70415e-20)
(1.00207 -0.000349985 -1.24662e-21)
(0.993116 0.0175276 4.33215e-20)
(1.00209 -0.00663647 -1.22089e-21)
(1.00037 -0.00119306 4.25051e-22)
(1.01825 -0.0216489 -4.14151e-21)
(1.01365 -0.00176454 -3.23821e-20)
(1.00033 -0.000203465 2.05015e-22)
(0.999862 -3.68975e-05 2.34905e-24)
(1.00028 -0.000277746 4.63063e-22)
(0.997575 -0.00384372 -2.22061e-21)
(1.0124 -0.0434964 6.61422e-21)
(0.999974 -9.7116e-06 1.39267e-23)
(0.975976 -0.0194667 8.54229e-21)
(0.997767 -0.000784522 -9.72443e-23)
(0.999907 -3.76134e-05 4.97627e-23)
(0.99965 -0.000350124 8.8016e-23)
(0.988865 0.030992 1.05011e-19)
(0.995061 -0.000555476 1.00922e-21)
(0.999556 -0.000111779 -9.20641e-23)
(0.944882 0.00677797 1.37416e-19)
(0.999259 -0.00176331 -6.25334e-22)
(1.03325 0.0605818 -3.93697e-20)
(0.999876 -0.000184614 1.82853e-22)
(1.00555 -0.0153746 7.76386e-22)
(1.00001 -4.66248e-07 -7.71848e-25)
(0.988966 -0.0230445 -5.7038e-21)
(1.02064 0.00256433 1.13639e-20)
(1.1145 0.00384961 -2.19396e-20)
(0.986266 -0.0126262 1.1182e-20)
(0.99977 -0.000418685 3.30284e-22)
(0.98901 -0.0509485 7.05186e-21)
(0.989578 -0.000216 4.71667e-21)
(0.999883 -2.19521e-05 4.64988e-24)
(1.00025 -0.000234039 -4.0996e-22)
(0.998702 -0.00216178 8.44151e-22)
(0.995108 -0.000878485 -3.01938e-21)
(1.00207 -0.000515148 -1.48158e-21)
(0.999259 -0.00130746 4.01327e-22)
(0.984651 -0.00595323 1.60298e-21)
(1.0157 -0.0404033 -5.06513e-21)
(0.984804 -0.00496076 7.14555e-21)
(1.08918 -0.0248508 8.61161e-22)
(0.979584 -0.00553606 -9.2042e-21)
(1.00669 0.0606885 1.11373e-20)
(1.00403 0.0628473 -8.24756e-20)
(0.999136 -0.000498037 -6.91201e-22)
(1.13079 0.000613666 2.50892e-20)
(0.999989 -2.51898e-06 -1.28712e-24)
(0.998637 -0.00255587 -1.01462e-21)
(0.98354 -0.00153358 1.83381e-20)
(1.00517 0.0143084 2.78991e-20)
(1.025 0.00563758 -2.94636e-20)
(1.00006 -2.71237e-05 5.66971e-23)
(0.998621 -0.00259443 -6.65818e-23)
(0.980422 -0.00613542 6.93561e-21)
(1.03059 0.0239819 -1.72124e-20)
(0.999422 -0.000789064 3.5865e-22)
(1.00207 -0.000635648 8.30146e-22)
(1.00077 -0.000584648 -7.40523e-23)
(1.07761 0.014296 3.17437e-20)
(1.14292 -0.0407807 2.76015e-21)
(1.01503 0.0744973 5.49537e-20)
(0.999051 -8.34759e-05 -6.78596e-22)
(1.04069 -0.0269827 -1.53031e-20)
(0.99993 -4.62397e-05 -4.07605e-23)
(1.00315 -0.00453368 -2.97594e-21)
(0.999966 -7.63425e-06 -5.81052e-24)
(0.99064 -0.0137967 1.87351e-21)
(0.999792 -4.7817e-05 -8.55256e-23)
(1.00789 -0.0136484 7.17935e-22)
(1.14772 0.00133677 -2.04743e-20)
(0.983012 -0.0182515 1.32545e-20)
(1.00588 -0.0144961 -4.61448e-22)
(1.00519 -0.00385906 -1.7741e-21)
(0.999556 -0.000125943 4.11694e-22)
(1.01709 -0.0115113 4.29581e-21)
(0.997543 -0.0120597 1.59897e-21)
(1.0496 0.00857432 -1.35574e-20)
(1.03488 0.0265037 2.00376e-20)
(1.10821 -0.089518 -4.00573e-22)
(1.09354 -0.0344296 4.57206e-21)
(0.989371 -0.000541919 -5.05413e-21)
(1.00309 -0.00226582 2.67558e-21)
(0.962169 -0.0182702 -5.47385e-21)
(0.958519 0.041397 -1.72739e-19)
(1.07716 -0.0356658 -1.00384e-20)
(1.01606 -0.00635178 -1.59603e-20)
(0.946727 0.0299941 -8.50171e-20)
(0.999044 -2.7512e-05 3.34442e-22)
(0.998933 -0.000633262 -2.13635e-22)
(1.10514 -0.0264727 5.73655e-21)
(0.999332 -0.00128804 -2.1755e-22)
(1.00799 -0.0268058 3.25391e-22)
(1.00369 -0.00137844 9.1504e-22)
(0.998174 -0.000369412 -5.18095e-22)
(0.998613 -0.00033838 -8.27248e-22)
(1.01792 0.0164954 3.35297e-20)
(0.999958 -0.00010132 -2.76259e-24)
(1.0003 -0.000148796 -1.82365e-22)
(1.00005 -1.28726e-05 4.27977e-23)
(0.997897 -0.000627053 2.82077e-21)
(0.995793 -0.00571619 3.10613e-21)
(0.999989 -2.9158e-06 9.95869e-25)
(0.999345 -0.000168554 8.71168e-23)
(0.98677 -0.0112305 3.95725e-21)
(0.973374 0.00803374 4.58372e-20)
(1.00722 -0.015194 -6.04285e-22)
(0.995723 -0.00695534 4.9478e-21)
(0.977742 0.0330607 2.00874e-20)
(1.00035 0.0251683 6.96118e-20)
(1.04204 -0.0011805 -1.10234e-20)
(1.12403 0.00490226 -9.83392e-21)
(0.964109 -0.0034576 1.80326e-20)
(1.00321 -0.00244539 -1.32949e-21)
(1.00459 0.0242642 -3.81047e-21)
(0.992896 -0.00171519 -6.16227e-21)
(1.02024 0.0586514 1.87233e-21)
(1.00603 -0.0327823 2.90204e-23)
(1.02303 -0.0737995 -4.66715e-21)
(1.04868 0.053119 2.8235e-20)
(1.02127 0.0625171 -4.89748e-20)
(0.977111 -0.0168683 1.92587e-20)
(1.02792 0.00471588 -1.93834e-20)
(1.05403 0.0859726 7.10718e-20)
(1.02986 0.0607871 7.26625e-20)
(1.01371 -0.00178553 1.10642e-20)
(0.998166 -0.000984295 6.15157e-22)
(0.997383 -0.00146785 5.37762e-22)
(0.999943 -1.11121e-05 -1.9359e-23)
(1.01092 -0.017807 1.06343e-21)
(0.992859 -0.00144355 1.45632e-21)
(1.00062 -0.00166311 -3.48498e-22)
(0.999932 -1.55591e-05 -3.61329e-23)
(0.998944 -0.000495765 2.68837e-22)
(0.987411 -0.0502903 -1.15342e-20)
(1.06788 0.0225621 1.29831e-20)
(0.988941 -0.00402607 -8.12207e-21)
(0.999546 -0.00844804 1.67224e-21)
(0.997717 -0.000398954 -1.49837e-21)
(1.04071 -0.0272339 5.77779e-22)
(0.995433 -0.00108313 -4.87967e-21)
(1.00146 -0.00453085 1.16525e-21)
(1.06456 0.0844029 1.13661e-20)
(0.998795 -0.000245872 -1.93618e-21)
(0.999987 -2.82281e-05 -8.89054e-24)
(0.999965 -0.00012144 -4.94775e-24)
(1.00003 -7.14556e-05 3.65304e-23)
(0.986205 -0.00526401 3.72786e-21)
(1.01729 0.0132378 -4.00381e-20)
(0.997487 -0.000299234 5.75967e-23)
(1.01369 -0.00567605 1.02684e-20)
(1.01327 -0.0857034 9.9452e-21)
(0.994042 0.0434644 -1.85444e-21)
(1.00259 -0.00508394 9.93979e-22)
(1.00455 -0.00259663 -4.42201e-22)
(0.996914 -0.00172876 -1.96728e-21)
(0.995307 0.031078 -1.02999e-19)
(0.999351 -9.77591e-06 2.78769e-22)
(1.01735 0.077054 -2.81845e-20)
(1.00721 0.0100217 -4.43565e-20)
(0.999928 -1.97611e-05 4.23302e-23)
(1.00527 -0.0337029 -4.33824e-21)
(0.998028 -0.000628305 -1.38701e-21)
(0.995373 -0.0392089 1.63435e-20)
(1.00032 -6.60632e-05 1.83156e-22)
(1.03794 0.00144985 1.52859e-20)
(1.00478 -0.0102641 -4.66729e-23)
(1.00398 -0.00223862 2.3724e-22)
(0.999458 -9.35801e-05 -5.5179e-22)
(1.0453 0.0246142 2.21717e-20)
(1.02725 0.0234625 6.83274e-21)
(1.00653 -0.0428975 6.94632e-21)
(0.987267 -0.0131884 -7.64039e-22)
(0.998651 -0.00232834 -7.29155e-22)
(1.00008 -0.0256641 -8.14283e-21)
(1.09375 0.0356281 -2.84327e-20)
(0.935969 0.0232122 -7.88036e-20)
(1.05297 -0.0516492 -6.22219e-22)
(1.00315 -0.00509335 -4.71866e-22)
(0.999995 -7.48495e-07 -3.78484e-25)
(0.991564 -0.00327275 -6.47357e-21)
(0.998573 -0.000222676 1.7879e-21)
(1.01742 -0.00994436 6.30164e-21)
(1.00365 -0.0693572 -4.82302e-21)
(1.1287 -0.00878443 -7.98343e-21)
(0.988989 0.0419656 -1.27927e-19)
(1.03336 0.0215319 2.89528e-20)
(1.07524 -0.0714427 3.14939e-21)
(1.04327 0.052694 1.17772e-20)
(0.998801 0.0243168 1.22143e-19)
(1.01277 -0.00207368 8.39581e-21)
(1.00072 -0.00148986 8.00514e-22)
(1.01324 0.0329675 2.37838e-20)
(0.999452 -0.00134332 4.84694e-22)
(0.999888 -0.000100566 4.062e-23)
(0.988508 -0.00167321 2.27556e-21)
(1.00007 -2.34843e-05 1.0555e-23)
(1.07925 -0.0852825 2.96767e-21)
(1.00262 -0.0116999 -7.5237e-23)
(0.991039 -0.0225185 9.49522e-21)
(1.00115 -0.00109887 4.09658e-22)
(1.03964 0.0453385 6.0971e-20)
(0.998835 -0.000189978 -1.59835e-22)
(0.999985 -2.23589e-05 -8.66804e-25)
(1.01866 -0.0768326 5.32764e-21)
(1.00104 -0.000788835 -2.37748e-22)
(1.06836 -0.0024784 -3.32398e-21)
(0.970571 -0.00997193 3.64996e-21)
(0.956696 -0.0122165 1.89465e-21)
(1.13613 0.0371985 -2.71125e-21)
(1.01542 0.00992054 -1.49856e-20)
(1.01355 0.00243055 9.27253e-21)
(1.01247 0.00233243 -3.78243e-21)
(0.999871 -2.98088e-05 1.41257e-23)
(1.07346 0.0228152 1.04941e-20)
(1.05046 0.0104897 1.58109e-20)
(0.999691 -0.000398395 1.2987e-22)
(0.989502 -0.00434583 9.43341e-21)
(1.0004 -0.000124014 -2.03824e-22)
(1.00761 -0.0125108 -5.20424e-21)
(1.00685 -0.0173224 3.34774e-23)
(1.003 -0.000943013 1.18141e-23)
(0.999545 -0.000841199 -5.81733e-22)
(1.07651 0.0625537 -6.15066e-20)
(0.999987 -1.48046e-05 -1.5244e-23)
(1.00013 -6.03535e-05 -5.45005e-23)
(1.00139 -0.000586971 -1.62489e-23)
(0.985402 -0.00210348 6.37098e-21)
(1.01182 -0.00677842 7.43999e-21)
(0.989942 -0.0187259 -1.37608e-20)
(0.982274 -0.00323387 -3.69007e-21)
(1.0111 -0.0405548 3.70121e-21)
(1.02575 -0.0918228 -1.02645e-20)
(1.01725 -0.0187051 2.52859e-21)
(1.01776 0.0335257 -1.3717e-19)
(1.14165 0.00642275 1.20675e-20)
(0.995938 -0.0016826 -2.5938e-22)
(0.948836 0.043039 1.32198e-19)
(0.985301 -0.0365978 1.98473e-20)
(0.995882 -0.00589307 9.80862e-22)
(0.982416 -0.00264523 6.114e-21)
(0.998957 -0.0120583 -4.72804e-22)
(0.986356 -0.00178757 9.70237e-21)
(0.993666 -0.00266693 -1.87127e-21)
(1.01689 -0.00963297 -1.13129e-20)
(1.08192 -0.03728 2.56087e-21)
(0.999984 -2.82848e-05 -1.21596e-24)
(1.01383 -0.00839702 -1.19448e-21)
(0.999937 -1.99353e-05 -2.04996e-23)
(1.00336 0.05149 2.62877e-20)
(1.09319 0.0545926 4.84446e-20)
(0.996931 -0.00130385 6.14175e-22)
(0.990999 -0.00140083 -8.58249e-21)
(0.999879 -3.72473e-05 -1.03653e-22)
(0.996404 0.0276838 7.77175e-20)
(1.01369 0.0601848 6.39412e-20)
(1.07519 0.0154234 -1.72905e-20)
(1.08141 0.0808646 -5.24582e-20)
(0.985156 -0.0391894 -8.25978e-21)
(0.99953 0.0127544 -1.12135e-19)
(0.99996 -8.23892e-05 1.8862e-23)
(1.0318 -0.0158351 1.70984e-20)
(0.988412 -0.00125607 -3.6138e-22)
(1.05676 0.0442631 -1.36084e-20)
(0.96211 0.0307681 -1.04022e-19)
(1.09668 0.0308167 3.89895e-20)
(1.03122 0.0189334 4.91699e-21)
(1.00018 -0.00827204 -2.43806e-22)
(0.999879 -5.42009e-05 -9.54579e-23)
(1.08178 0.0691697 2.18173e-20)
(1.13226 -0.0252158 -2.23892e-21)
(0.996618 0.0312258 -2.64254e-21)
(1.06215 -0.00484473 3.14914e-20)
(1.02016 0.028633 4.04361e-20)
(0.995539 -0.00146395 -8.67347e-22)
(0.99356 0.0418187 3.51631e-20)
(1.01671 0.0575691 2.28458e-20)
(0.99451 -0.00222522 -5.2422e-21)
(0.995304 -0.00208352 -1.9441e-21)
(1.09176 0.0649142 1.22105e-21)
(0.955114 -0.0113086 -2.53841e-20)
(0.999944 -9.67046e-05 -2.94981e-23)
(0.992034 -0.00353027 8.32974e-21)
(0.958755 -0.0157963 1.8479e-20)
(0.99415 -0.0489773 -2.46389e-21)
(1.00595 -0.00200414 -7.47868e-21)
(1.00442 -0.0035477 5.08245e-22)
(0.999917 -0.00011646 -5.65505e-23)
(1.01404 0.0644061 -9.62333e-20)
(1.0005 -0.0066609 4.31616e-23)
(0.999934 -3.61743e-05 1.81454e-23)
(1.0148 -0.0381661 2.51983e-21)
(0.999692 -0.000271098 1.14254e-22)
(0.99986 -5.1403e-05 7.29551e-24)
(1.00346 -0.00789869 -5.68995e-22)
(1.0337 0.0432759 8.11277e-20)
(1.0132 -0.0682531 7.57756e-21)
(0.971451 0.030873 6.18323e-20)
(1.00004 -1.08152e-05 -2.93985e-23)
(1.03543 0.0476309 -8.52147e-20)
(1.00988 -0.0325618 2.69696e-21)
(0.999956 -0.000114769 -8.50392e-24)
(1.00002 -3.13423e-06 -9.04224e-24)
(1.00248 0.00647219 -7.43407e-21)
(1.03051 0.0380653 2.99603e-20)
(0.997618 -0.00157605 5.34345e-22)
(1.02891 0.029088 -3.85403e-20)
(1.00002 -1.19299e-05 6.4242e-24)
(1.029 0.0322571 -5.39824e-20)
(1.09619 -0.0892265 4.83537e-21)
(0.994133 -0.00192793 5.76166e-21)
(0.999799 0.0190943 -1.5573e-19)
(0.985665 -0.0308007 1.32194e-20)
(1.08437 0.077188 5.22131e-20)
(0.983231 -0.00304473 3.65063e-21)
(1.03142 0.0343173 7.01777e-20)
(1.03403 0.0403195 -2.16155e-20)
(0.989996 -0.00527449 1.35361e-20)
(0.986867 -0.00651724 -1.00205e-20)
(0.997014 -0.0059837 2.84492e-21)
(0.998235 -0.000444858 -4.53266e-22)
(0.999884 -0.000120116 1.09969e-22)
(1.00053 -0.00622737 -7.46219e-23)
(1.02327 0.0552447 -1.15102e-20)
(0.999983 -2.21488e-05 3.79441e-24)
(1.02579 0.0280316 5.10227e-20)
(1.02235 -0.0684968 1.04966e-20)
(1.00221 0.0288344 3.11054e-20)
(1.02597 0.0256484 -5.77358e-20)
(0.957031 -0.0148585 -2.27309e-21)
(0.97302 0.0390646 -1.30869e-19)
(0.999039 -0.000704658 3.83488e-23)
(1.0104 -0.0165383 2.39764e-21)
(1.03463 -0.0492335 1.58816e-21)
(0.987035 -0.00147943 -5.63756e-22)
(0.996213 -0.00212693 2.58583e-21)
(1.00861 -0.0343219 -2.58142e-21)
(1.03372 -0.0114179 -1.7874e-21)
(0.952012 0.0259142 1.619e-19)
(1.00003 -1.44327e-05 3.15915e-23)
(0.998873 -0.000760339 5.19036e-22)
(1.01422 -0.0482936 8.87457e-23)
(1.00001 -2.83764e-06 1.1282e-24)
(1.00226 0.0561989 1.29218e-20)
(1.00093 -0.000728438 0)
(1.00001 -2.92868e-06 8.56205e-25)
(1.0001 -5.23383e-05 1.27678e-22)
(1.00027 -5.43576e-05 2.57263e-24)
(0.991064 -0.0125032 9.56442e-21)
(1.0125 -0.0106644 -4.55863e-21)
(0.999085 -0.000509556 8.14912e-22)
(0.999954 -8.0723e-06 3.82646e-23)
(0.995861 -0.0019977 1.43732e-21)
(1.0025 -0.0083239 -4.54792e-22)
(0.996342 -0.0728471 -1.31915e-20)
(0.960587 -0.00489724 1.83255e-21)
(1.0111 -0.00605214 1.27344e-20)
(0.999983 -1.71189e-06 1.19512e-23)
(1.06503 -0.100154 1.1143e-20)
(0.992138 -0.00233423 -3.33361e-21)
(1.08215 0.0568869 -3.95262e-21)
(1.00047 0.02036 -2.29329e-20)
(1.00067 -0.00234059 1.97153e-22)
(1.07424 0.0490083 -5.82925e-20)
(1.00009 -6.00979e-05 -9.89181e-26)
(0.992608 -0.00274864 9.56882e-23)
(1.01376 0.000492422 -1.93975e-20)
(0.996157 -0.00235045 -1.0595e-21)
(1.03435 0.051456 -4.77427e-21)
(0.992481 -0.00423307 -6.27506e-21)
(1.03212 -0.0170112 -1.42234e-20)
(1.0153 0.00271502 -2.07874e-20)
(1.03675 0.0247733 -1.25714e-20)
(1.00475 -0.00962734 -2.23266e-21)
(0.994066 -0.00284083 1.55462e-22)
(1.04736 0.0456541 3.96915e-20)
(0.988791 -0.0542529 -1.26543e-20)
(0.996333 0.0537593 1.07014e-19)
(0.994718 -0.00305911 -6.06115e-21)
(1.03418 0.0694954 -2.59838e-22)
(0.994782 -0.00276069 1.6193e-21)
(0.999313 -0.000318634 -5.29287e-23)
(1.03014 0.0191006 1.3538e-20)
(1.00973 -0.0191666 -8.15664e-22)
(1.02085 0.00256582 3.00329e-20)
(1.00092 -0.000576753 2.6588e-22)
(1.00001 -2.05986e-06 3.94411e-25)
(1.00535 -0.0837085 4.65e-21)
(1.06282 0.0792608 -6.53314e-20)
(1.00091 -0.00226236 -2.56505e-22)
(1.07998 0.0504442 6.01958e-21)
(0.992845 -0.00391751 -4.09397e-21)
(1.05928 -0.103671 -2.88109e-21)
(1.02894 -0.0252667 7.44689e-22)
(0.989937 -0.0199943 7.70411e-21)
(0.998998 -0.00063577 -3.43481e-22)
(0.994835 -0.000681335 -1.21222e-21)
(0.985882 -0.0461827 -8.12459e-21)
(0.982238 -0.00632315 1.39985e-20)
(0.994375 -0.00258311 4.29167e-21)
(0.999914 -0.000270551 4.74776e-23)
(0.99186 0.0566816 -1.28566e-20)
(1.07206 0.0435639 3.60916e-20)
(1.01571 -0.00648233 -3.85366e-21)
(0.999885 -9.22485e-05 7.32648e-23)
(1.01586 0.0541621 -4.33325e-20)
(1 -1.44974e-05 1.72628e-24)
(0.99989 -7.76046e-05 1.44987e-22)
(1.06593 0.0423187 3.01251e-20)
(1.00771 -0.0154622 1.69838e-21)
(1.07105 0.0729816 5.56143e-20)
(1.01421 -0.00292901 8.40223e-21)
(1.01098 -0.00793347 -9.5356e-22)
(1.06017 -0.041982 -1.74024e-21)
(1.03541 -0.0853867 9.25195e-21)
(1.13557 0.0319298 -1.19209e-20)
(1.00073 -0.00055844 -5.80855e-22)
(0.971796 -0.0108533 -1.46127e-21)
(0.99999 -3.4914e-05 -2.58183e-24)
(1.00347 -0.00742811 3.91159e-22)
(1.03632 0.0526833 3.06376e-20)
(0.990448 -0.00492297 9.43675e-21)
(0.998408 -0.000936662 7.19908e-22)
(1.01003 -0.0254828 -7.92283e-22)
(0.998884 -0.000680392 4.88802e-23)
(0.999772 -0.000662799 1.48632e-22)
(0.947846 0.00538354 2.84867e-20)
(0.994444 -0.0033333 -3.43736e-21)
(0.999737 -0.000477952 -4.48462e-22)
(0.999988 -8.34589e-07 -2.6242e-24)
(1.01095 0.00339952 4.02481e-20)
(0.983864 -0.0167214 -2.11816e-21)
(0.99981 -0.000358579 1.3099e-22)
(0.998405 -0.000555343 9.25475e-22)
(1.01468 0.0120044 1.62365e-20)
(1.04234 0.00630546 3.29448e-21)
(0.976988 -0.0153497 -1.19243e-20)
(1 -9.01309e-06 6.2741e-25)
(1.00173 0.0106416 1.06024e-19)
(0.992386 -0.0110908 -6.60372e-21)
(1.04022 0.0414122 -6.14004e-20)
(1.00774 -0.00115912 -1.11945e-20)
(1.00883 -0.000792086 2.5375e-20)
(0.981184 -0.00776754 1.91235e-20)
(0.999943 -4.25967e-05 -1.18516e-23)
(1.01438 -0.0002116 -3.71037e-21)
(1.04403 0.00478323 -5.16071e-21)
(1.11751 0.0366236 2.93499e-20)
(1.02647 -0.0648712 1.6702e-21)
(1.02122 0.0520646 3.5047e-20)
(1.00385 -0.000912601 -1.72177e-22)
(1.05185 0.0495464 -5.45897e-20)
(1.00046 -0.00930964 -4.39699e-22)
(1.01249 -0.0366475 -6.47023e-21)
(0.999772 -0.000102458 -1.43586e-22)
(1.0022 -0.0120712 1.17309e-22)
(0.999938 -0.000274625 1.70567e-23)
(1.02675 0.0196582 -3.91471e-20)
(1.0431 0.0766111 -1.10107e-19)
(0.99914 -0.000764248 2.74213e-22)
(1.01102 -0.00761275 3.55135e-22)
(0.989577 -0.00300979 3.24541e-21)
(1.02936 -0.0564904 3.12072e-22)
(1.02554 -0.0599216 -5.26114e-21)
(0.998999 -0.000539125 5.44225e-22)
(1.028 -0.0160492 -6.10853e-21)
(0.956719 0.000734116 -4.82971e-20)
(1.11467 0.0215053 2.31785e-20)
(0.999968 -9.94401e-05 4.02277e-23)
(1.03884 0.0052075 -1.22007e-20)
(0.998332 -0.00559028 -1.35341e-21)
(0.993511 0.00160645 1.05215e-19)
(0.992918 -0.00348606 5.70834e-21)
(0.99821 -0.0173648 -1.50423e-21)
(1.01143 -0.0225538 -2.52503e-22)
(0.996577 -0.0179121 -2.59092e-22)
(0.999221 -0.0139733 -3.21966e-21)
(0.995632 -0.00222087 9.89249e-22)
(1.00005 -0.00928271 1.80508e-21)
(1.0012 -0.00409402 -3.09912e-22)
(1.03477 -0.0145844 3.87967e-21)
(1.00006 -2.46042e-05 -8.27952e-23)
(1.12529 -0.0669864 1.31719e-21)
(1.10177 -0.00603527 6.71158e-21)
(1.00866 0.061552 7.72911e-20)
(0.978099 -0.0144632 1.818e-20)
(1.06513 0.0684399 -2.80821e-20)
(1.00116 -0.000467633 9.393e-22)
(1.04534 -0.0482609 -2.86249e-22)
(1.00379 -0.0245139 -2.93902e-21)
(1.01293 0.0207769 4.52086e-20)
(0.995942 -0.00258227 2.45014e-21)
(1.00007 -0.000112761 5.44283e-23)
(0.992712 -0.0114009 8.60832e-21)
(0.997494 -0.00603839 -1.07654e-21)
(1.02602 -0.0162888 1.16267e-20)
(0.982916 -0.00474099 -1.17979e-20)
(0.986093 -0.00612724 3.3026e-21)
(1.08157 -0.0230544 4.51828e-21)
(0.991352 -0.00181934 -5.57909e-21)
(1.00978 -0.02384 1.76877e-22)
(0.994576 -0.0520654 8.68006e-21)
(1.00001 -5.27814e-06 6.94056e-25)
(1.03437 -0.009254 2.0307e-20)
(0.996279 -0.0469934 -2.36586e-20)
(1.07083 0.0589127 2.75866e-20)
(1.06054 -0.0474403 2.01232e-21)
(1.0192 0.00209962 2.58989e-21)
(1.01794 -0.0659562 -1.47417e-20)
(1.02027 0.0689103 2.17426e-20)
(1.0223 -0.0224229 5.29701e-21)
(0.980267 -0.00722737 -1.13128e-20)
(1.00992 -0.0301357 -2.63615e-21)
(0.975333 0.00230885 4.67942e-20)
(1.09891 -0.0674079 -1.12653e-21)
(0.992445 -0.00322885 -1.7338e-21)
(1.0188 -0.0827973 -1.14716e-21)
(1.01733 -0.0420606 3.5367e-21)
(1.02812 -0.0763869 -2.33952e-21)
(1.02772 -0.0523428 -4.02292e-21)
(1.04752 0.0417334 5.00013e-20)
(0.998392 -0.00103281 4.77797e-23)
(1.00298 0.023664 1.6632e-20)
(1.00481 -0.000863585 1.3434e-21)
(0.999763 -0.000345865 -1.88673e-22)
(0.999234 -0.00152277 1.33932e-21)
(1.03575 0.00170343 -4.87357e-21)
(0.932 0.00181798 1.35925e-21)
(1.00098 -0.00417991 1.83108e-22)
(1.01238 -0.034034 9.78873e-22)
(1.01423 0.012801 -2.69603e-20)
(1.00002 -5.24956e-06 -1.61383e-24)
(0.98745 -0.00610518 7.98656e-21)
(1.0136 -0.00572475 9.14498e-21)
(1.04754 -0.0259048 1.10293e-20)
(1.00478 -0.000749908 7.5466e-21)
(0.999011 -0.00116215 2.4802e-22)
(0.990838 -0.02593 3.38262e-22)
(0.998697 -0.00548134 -3.59496e-22)
(1.00002 -2.70589e-06 1.73345e-23)
(0.987075 -0.0302014 -2.21887e-20)
(1.0278 0.0497915 -1.25754e-20)
(1.01265 -0.0199388 4.81127e-22)
(0.990124 -0.00342835 -6.0953e-21)
(1.00109 -0.000182713 -3.38154e-22)
(1.01663 0.0153401 3.56111e-20)
(0.999783 -0.000390347 -8.7407e-23)
(0.999258 -0.000411365 -2.72812e-23)
(0.999794 -0.000118844 -1.30739e-22)
(0.999551 -0.00137003 -3.3171e-22)
(1.10752 0.0371782 2.19085e-20)
(1.01867 -0.0243183 8.27774e-21)
(1.00543 -0.0118334 8.93503e-22)
(0.989399 -0.00493365 -2.78619e-21)
(1.00003 -3.35069e-05 1.66419e-23)
(1.04775 -0.0812312 1.0487e-20)
(1.13533 -0.0146449 5.72364e-22)
(1.05161 -0.0886008 -5.11531e-21)
(0.998728 -0.02164 -2.77476e-21)
(1.0082 -0.00551485 8.61549e-21)
(0.999878 -6.20944e-05 6.02916e-23)
(0.993132 -0.00762435 -3.43208e-21)
(0.975071 -0.0310205 -1.38354e-20)
(1.10605 0.0238302 7.2469e-22)
(1.00087 0.0286254 -1.11727e-21)
(0.99933 -0.00206792 2.64831e-22)
(0.966111 -0.0218529 8.23962e-21)
(0.99723 -0.00184811 -2.3301e-21)
(1.02095 -0.0210366 -1.45742e-21)
(1.05562 0.0398514 5.75613e-21)
(1.00029 -8.84335e-05 -2.85855e-22)
(0.999914 -0.000124631 -2.23921e-23)
(1.09054 0.0690861 6.45705e-21)
(1.10137 0.010217 -4.42965e-21)
(1.01282 -0.0100248 3.23193e-21)
(0.998317 -0.00116268 1.22795e-21)
(0.998828 -0.00022112 -1.21876e-22)
(0.979396 -0.0313338 3.35524e-21)
(0.999902 -0.000226746 -7.32865e-23)
(1.01109 -0.0212445 2.77157e-21)
(0.992172 -0.000988524 1.16425e-20)
(1.0005 0.021478 -1.89142e-20)
(1.03029 0.0513605 -6.36391e-21)
(1.04157 -0.0445231 -6.7051e-22)
(0.998626 -0.0470461 8.93165e-21)
(1.00361 -0.00103696 3.7374e-21)
(1.00918 -0.0157094 -3.65145e-21)
(1.09677 -0.00125443 2.10522e-20)
(0.998041 -0.052399 -5.39394e-21)
(1.01183 -0.0286613 1.36796e-21)
(0.999999 -4.60576e-06 3.14272e-25)
(1.08718 -0.0116571 1.45632e-20)
(0.984006 -0.00203271 1.09477e-21)
(0.997798 -0.0583335 1.08903e-20)
(1.01205 -0.0186111 -6.36031e-21)
(0.97307 -0.0102452 -2.57808e-21)
(0.99978 -0.000211096 -6.43226e-23)
(0.998239 -0.000873271 -5.47286e-22)
(1.02319 0.0241684 4.45129e-20)
(0.982117 -0.00728837 -4.296e-21)
(0.99999 -1.0954e-06 2.63176e-24)