/*--------------------------------*- C++ -*----------------------------------*\
  =========                 |
  \\      /  F ield         | OpenFOAM: The Open Source CFD Toolbox
   \\    /   O peration     | Website:  https://openfoam.org
    \\  /    A nd           | Version:  7
     \\/     M anipulation  |
\*---------------------------------------------------------------------------*/
FoamFile
{
    version     2.0;
    format      ascii;
    class       volVectorField;
    location    "11";
    object      U;
}
// * * * * * * * * * * * * * * * * * * * * * * * * * * * * * * * * * * * * * //

dimensions      [0 1 -1 0 0 0 0];

internalField   nonuniform List<vector> 
20933
(
(0.997163 -0.000314993 -5.49415e-23)
(0.988516 -0.000863471 1.59254e-21)
(1.02198 -0.00279628 -2.1128e-22)
(1.00027 -2.28418e-05 -3.61588e-25)
(1.0008 -0.00747162 5.66857e-23)
(1.00054 -0.00792546 -5.49707e-23)
(1.03207 -0.131399 -8.15262e-22)
(1.08365 0.0563521 -2.77299e-20)
(1.00657 -0.0655761 -2.15108e-21)
(1.08805 0.057158 1.98335e-20)
(1.04128 -0.118599 -2.10577e-21)
(1.17008 0.104898 -1.25661e-21)
(0.99052 -0.0428551 -4.71359e-22)
(0.997094 -0.000371944 4.02761e-23)
(0.996662 -0.00293925 2.20212e-22)
(1.00027 -3.19631e-05 -2.26202e-25)
(1.23278 -0.020629 2.44822e-21)
(1.09385 0.000842065 -1.58771e-20)
(1.00535 -0.098185 -1.83442e-21)
(0.990789 -0.00042808 -1.3976e-21)
(1.01627 -0.0753615 2.43831e-21)
(1.16604 0.104095 -2.13009e-21)
(1.08984 0.0620294 -1.50367e-20)
(1.10775 -0.155291 -1.15379e-21)
(1.02027 -0.0010723 1.26221e-23)
(0.995684 0.0678534 -4.06044e-20)
(1.00765 -0.00219018 -1.12046e-22)
(0.997175 -0.0460459 1.41361e-21)
(1.15064 -0.148775 -7.1684e-22)
(1.00735 -0.0992804 6.16542e-21)
(0.999023 -0.00189547 -3.01691e-24)
(0.947426 0.0145615 6.17677e-20)
(1.11543 0.0968744 1.24446e-20)
(0.994908 -0.0270522 1.51171e-22)
(1.00009 -0.00139478 7.19977e-24)
(0.999077 -0.00203913 -1.05797e-23)
(1.07733 0.071457 -2.95971e-20)
(0.999863 -4.16007e-06 7.60888e-25)
(1.01254 -0.0157036 -1.1493e-22)
(1.10228 0.00227381 -5.68002e-21)
(1.03377 -0.00685853 6.08517e-23)
(1.08709 0.116169 2.1178e-20)
(1.02856 0.034481 -1.19091e-20)
(1.00687 -0.00259231 9.34258e-23)
(0.995369 0.0652431 1.59865e-20)
(0.975742 -0.00163819 9.18293e-22)
(1.0791 0.00711967 -4.25329e-20)
(1.21476 0.0513452 -6.88962e-21)
(0.999634 -9.44582e-05 3.62909e-24)
(0.980857 -0.0379817 3.33185e-22)
(1.00001 -0.00148228 -1.83868e-23)
(1.06169 -0.0070836 5.06995e-21)
(1.15597 -0.0949247 -1.94885e-21)
(1.0004 -0.00323955 -2.00864e-23)
(1.18959 -0.0986142 9.85572e-23)
(0.958961 -0.0165547 -4.52967e-22)
(0.984323 -0.02576 8.20943e-23)
(0.99893 -0.00243889 6.44073e-24)
(1.00928 -0.0385624 -7.91756e-22)
(1.22904 -0.0164732 -1.75031e-21)
(0.978265 0.0250211 3.36965e-20)
(0.968983 -0.00450189 1.41817e-21)
(0.990767 -0.0032148 -3.73332e-22)
(1.09867 0.0568128 -1.32054e-21)
(0.999389 -0.000106057 -2.38115e-23)
(0.996621 -0.00682646 3.24057e-24)
(0.996976 0.0467365 1.02489e-21)
(0.996218 -0.00713841 1.15176e-22)
(1.09941 -0.0621055 5.71516e-21)
(1.00027 0.0689042 1.51408e-20)
(1.03367 -0.0341133 1.66965e-21)
(1.23704 -0.0482938 2.09615e-21)
(0.996981 -0.00293153 -4.35154e-23)
(0.988747 -0.0317343 1.78791e-21)
(0.999638 0.0140763 -1.52602e-20)
(1.06219 -0.0689036 -1.42657e-21)
(1.00039 0.0644351 7.06347e-21)
(0.959879 -0.00515742 3.9216e-22)
(1.1008 0.00108873 3.54603e-21)
(1.00336 0.0272859 2.25133e-20)
(0.99736 -0.00707392 2.87441e-22)
(1.00196 -0.00378513 7.84692e-24)
(1.13461 -0.149277 5.97951e-22)
(1.0073 -0.0635295 1.78379e-21)
(0.97111 -0.00358907 -1.56204e-21)
(1.02658 0.0324238 5.74869e-20)
(0.992638 -0.0399934 -8.90661e-22)
(0.91722 0.0465607 5.75509e-21)
(1.09566 0.0528061 -1.2292e-20)
(0.984758 0.0690995 2.55436e-20)
(1.09011 0.0213051 -1.67718e-20)
(1.00032 -5.39161e-05 -3.43027e-25)
(1.00005 -0.00026552 6.42191e-24)
(0.950003 0.00509965 -1.71793e-20)
(1.21964 0.0460767 3.49812e-21)
(0.991266 -0.00335081 -2.31175e-22)
(0.958658 0.00328778 2.63274e-20)
(0.99969 -0.00388015 2.61305e-23)
(1.04477 -0.114677 -7.86081e-22)
(1.05817 0.0122445 -1.57046e-20)
(0.982418 0.0710145 -7.56002e-20)
(0.980782 -0.00957014 1.17914e-22)
(0.97547 0.0655508 -8.25457e-20)
(1.14445 -0.0856576 -5.21521e-21)
(1.08373 -0.00217816 -1.14572e-20)
(1.08331 -0.0668771 -3.88331e-21)
(1.01945 0.0765622 2.90711e-20)
(1.13378 -0.0703669 -4.18568e-21)
(0.987947 -0.000522273 -1.69805e-21)
(1.03245 0.0869929 6.69345e-21)
(1.1575 -0.152227 -2.24744e-21)
(1.02816 -0.130861 -1.93661e-21)
(0.983455 -0.0204859 8.06567e-22)
(1.02783 -0.0177685 -1.30952e-21)
(1.06362 -0.0635546 -1.01132e-21)
(1.00009 -6.06982e-05 -1.07783e-24)
(1.04044 0.0566258 2.84102e-20)
(0.997796 -0.00661369 -1.06671e-22)
(1.13801 -0.0955097 -6.27408e-22)
(1.00295 0.0238276 -5.32728e-20)
(1.00032 -3.5702e-05 -7.47739e-26)
(1.02567 -0.0784247 1.15009e-21)
(1.11665 0.016624 -7.61369e-21)
(1.01009 -0.0440311 -1.10207e-21)
(0.99476 -0.0256864 -1.86269e-22)
(1.09458 0.00227373 8.35707e-21)
(1.14057 0.108942 -3.12298e-20)
(0.996944 -0.0443615 1.18692e-21)
(0.942442 0.0172233 -1.79579e-20)
(1.03706 0.0583889 1.51125e-20)
(0.994135 -0.0510949 -1.10983e-21)
(0.980533 -0.0366058 -1.00778e-21)
(1.03383 -0.00356305 6.89995e-22)
(1.01185 -0.0144022 3.01147e-22)
(1.01559 0.0718416 -3.93967e-20)
(1.08069 -0.00475246 -3.35675e-21)
(1.19441 0.0650397 -8.50162e-21)
(1.01874 -0.0758144 -1.06457e-21)
(0.9851 -0.00947229 1.04042e-21)
(0.996123 -0.0672873 4.7695e-21)
(1.02259 -0.0808619 2.69795e-22)
(0.98755 -0.0327878 -1.75129e-21)
(1.23711 -0.058604 1.61933e-21)
(0.973118 0.0714114 -2.5932e-20)
(1.17085 -0.00576266 4.63813e-21)
(1.01481 0.0740011 3.55399e-20)
(1.11845 0.119948 -3.12522e-21)
(0.97487 -0.0102921 -1.02055e-21)
(1.14722 0.101773 -2.20089e-20)
(1.00859 -0.00292987 2.50185e-22)
(0.974249 -0.00949017 2.05903e-21)
(1.00146 0.0675735 1.82173e-21)
(1.00007 -0.000224651 -4.05318e-24)
(1.00595 -0.0588765 6.97895e-22)
(1.0019 -0.00339897 -1.96049e-23)
(1.11533 0.122152 1.73851e-20)
(1.02352 0.0339624 -6.17009e-21)
(1.10371 -0.151809 4.78364e-21)
(0.955869 -0.0190653 8.30669e-22)
(0.989876 -0.0438937 1.00165e-21)
(1.19465 -0.106536 -2.44285e-22)
(1.03552 -0.12706 1.22127e-21)
(0.998892 -0.00225772 -9.32687e-24)
(1.16853 -0.00109471 -7.15902e-21)
(1.09503 -0.00256823 -1.70849e-21)
(0.920287 0.0482072 1.36406e-20)
(0.981805 -0.00965143 8.1685e-22)
(1.12874 -0.154809 2.46143e-22)
(1.0587 -0.0703842 1.6457e-21)
(1.07821 0.0684042 -1.74196e-20)
(1.19879 0.0647744 2.73738e-21)
(0.991332 0.0522971 1.5865e-20)
(1.04824 0.101893 4.56034e-20)
(0.992562 -0.0237552 3.51553e-23)
(0.918163 0.0144166 -2.02857e-20)
(1.11928 0.0980876 1.53612e-20)
(0.996959 -0.000691726 6.23811e-23)
(0.989095 0.00729328 -3.99263e-20)
(1.06868 -0.0622364 -5.49727e-23)
(1.0271 0.0902676 1.26536e-20)
(1.01146 0.0784442 -1.79942e-20)
(0.999806 -6.76573e-06 -1.01429e-24)
(0.970454 0.0506727 1.14349e-21)
(1.04688 0.0889119 3.85541e-20)
(0.990208 -0.000682152 9.07948e-23)
(0.95207 -0.0141718 4.79412e-21)
(1.03322 -0.0318517 -1.1149e-21)
(1.06301 0.00884183 -3.99236e-21)
(1.13921 -0.0899402 1.4323e-21)
(0.944796 0.0405273 1.82056e-20)
(1.13904 0.105405 -1.06234e-20)
(1.20376 -0.0342396 2.95611e-21)
(1.05492 0.00895881 3.17391e-20)
(1.09865 -0.0570073 4.81751e-21)
(0.956801 -0.0199366 2.04281e-21)
(1.16994 0.0777801 -1.44978e-20)
(0.971324 0.0532035 -1.24841e-21)
(1.21195 0.0163825 -1.09593e-20)
(0.992247 -0.000272024 8.46255e-24)
(0.941401 0.0402719 -1.77688e-20)
(1.18801 0.0422067 -1.98295e-20)
(1.20241 -0.0776 -1.34047e-21)
(1.15506 -0.0889503 3.44623e-21)
(0.951349 0.0455915 -2.20077e-20)
(0.964524 0.047082 5.18284e-20)
(0.973087 -0.0214241 -8.11666e-22)
(1.00153 -0.0328695 -1.02949e-22)
(1.06173 -0.00420407 -6.97141e-22)
(0.959662 -0.0177744 -2.07485e-21)
(0.998577 -0.000142166 -6.5979e-23)
(0.998281 0.0479581 -7.57688e-21)
(0.988924 0.0195942 -1.43598e-20)
(0.974866 -0.0127545 1.49924e-21)
(0.966726 -0.0291723 1.06827e-21)
(1.02864 0.0877982 1.9625e-20)
(0.999033 0.0201872 2.30769e-20)
(0.998398 -6.75035e-05 2.20502e-22)
(1.00178 0.021632 -3.60371e-20)
(1.13764 -0.0661024 -2.03431e-21)
(1.0127 -0.0126617 -6.64616e-22)
(1.00542 -0.0475436 1.18282e-22)
(1.02602 0.0538511 -3.0339e-21)
(0.96654 0.0790226 2.41509e-20)
(1.08789 0.0188834 2.21705e-20)
(1.03348 0.0835225 -3.2138e-20)
(0.984098 -0.00947393 -1.76133e-21)
(1.0032 -0.0324112 -4.38674e-22)
(1.00012 -6.85255e-05 2.56739e-26)
(0.998853 -5.07564e-05 -7.76139e-23)
(1.00067 -0.00627399 1.12412e-22)
(1.11479 0.014366 3.64672e-21)
(1.10948 -0.0965128 4.47292e-22)
(1.02104 0.0744279 -3.71095e-20)
(1.00278 -0.078471 1.32812e-21)
(1.01915 0.0274478 2.20249e-20)
(0.99372 -0.0385879 -1.61004e-22)
(1.0783 -0.0639077 2.74579e-21)
(0.993079 0.0511581 2.83138e-20)
(0.952178 0.00397956 8.86984e-20)
(1.02694 0.0509656 5.2314e-20)
(1.00225 0.0624929 -4.34975e-20)
(0.965399 -0.0286432 -9.60037e-22)
(1.08319 0.103979 -1.28077e-20)
(1.01084 -0.0426788 1.18799e-21)
(1.08628 -0.00368956 2.29605e-20)
(0.997641 -0.00598925 -2.03022e-22)
(1.22487 -0.0909002 7.55045e-22)
(1.14262 -0.0438325 1.05684e-20)
(1.0688 -0.0213178 7.90526e-21)
(0.999647 -7.06297e-05 -4.44285e-24)
(0.986124 -0.000728119 1.97376e-21)
(0.963643 0.0806946 -3.71394e-20)
(1.13797 0.0376718 5.48724e-20)
(1.01207 -0.0169657 3.61672e-22)
(0.978535 -0.0411344 -1.75105e-21)
(1.10479 -0.0927231 -3.36903e-22)
(1.06046 -0.140696 2.79144e-21)
(1.08351 0.115201 -2.62821e-21)
(0.996999 -0.0665008 -1.2956e-21)
(0.971833 -0.00200031 -1.66242e-21)
(0.999157 -0.0522191 1.54836e-21)
(0.995302 -0.0227998 -1.93355e-22)
(0.999291 -8.52995e-05 3.17706e-24)
(0.992914 -0.036878 8.11242e-22)
(1.03858 -0.127167 -6.21622e-22)
(0.972454 0.0687009 4.91845e-20)
(1.22673 0.0203948 5.38311e-21)
(0.984734 -0.0195175 -1.58671e-21)
(1.01729 0.0287876 -3.39688e-20)
(0.966088 0.0503307 -6.14253e-21)
(0.993198 -0.0415271 1.89403e-22)
(1.00057 -0.000227411 5.62823e-24)
(1.00536 -0.0611684 -1.27814e-21)
(0.997028 0.044081 8.75799e-21)
(1.20647 -0.123265 -3.83073e-22)
(0.979843 0.0231927 -5.09464e-20)
(1.00005 -7.25239e-05 6.3679e-25)
(0.968367 -0.0317668 1.75565e-21)
(1.03919 0.101724 3.6812e-21)
(0.999503 0.0202035 4.70754e-20)
(1.0262 -0.0586108 -6.43092e-23)
(0.985362 -0.0245908 9.72153e-22)
(0.95291 0.0734204 3.93076e-20)
(1.19653 -0.0635671 -7.33349e-22)
(1.19744 -0.0374555 -2.21357e-21)
(0.978456 0.0663745 3.40621e-20)
(0.947246 0.0452796 -3.7124e-21)
(0.992194 -0.0429357 -5.37323e-22)
(1.03786 0.103785 -2.33701e-20)
(1.12026 -0.00715181 -1.11383e-20)
(1.00474 0.0272836 -6.1516e-20)
(1.05208 0.0623193 1.75088e-20)
(1.00059 -0.000168589 -8.37358e-24)
(1.23328 0.022379 -4.65421e-21)
(1.07275 0.0658265 1.04988e-20)
(0.996764 -0.00062098 2.03595e-22)
(1.00169 -0.0827251 -5.24694e-22)
(1.19962 0.0203767 -4.28192e-21)
(1.11721 -0.147485 -7.2747e-22)
(1.18608 0.0369471 1.11885e-20)
(1.14687 -0.0271417 -5.89005e-21)
(1.00011 -0.000141242 -6.23047e-25)
(0.999735 -0.00275308 7.11454e-23)
(0.986143 0.0781915 -6.06564e-20)
(1.00138 -0.0111105 -3.23342e-23)
(1.01053 -0.0986227 -1.37983e-21)
(0.994871 -0.0550674 1.71775e-22)
(1.16332 0.0995349 -1.20393e-20)
(0.971742 -0.00442104 -2.79637e-22)
(1.02806 0.0924876 2.2396e-20)
(1.16229 0.0115384 1.49095e-20)
(0.997274 -0.0526597 9.54457e-22)
(0.957667 -0.00613189 -1.10295e-21)
(1.08204 0.0653106 1.89464e-21)
(1.1605 0.075444 1.06267e-20)
(1.00007 -0.000144621 -1.16524e-24)
(0.982259 0.0491937 5.06504e-20)
(1.03647 0.0612022 7.6482e-21)
(0.992421 0.0150226 -1.24089e-20)
(1.19226 -0.0903155 6.4558e-22)
(0.999397 -8.10005e-05 1.86445e-23)
(0.953811 0.0707283 -2.58065e-21)
(0.997712 -0.00418915 -2.1905e-22)
(0.996332 -0.0406493 3.23667e-22)
(1.16629 0.0738455 -4.44777e-21)
(1.20493 0.0146297 1.36335e-21)
(0.98723 -0.0432012 -1.48188e-21)
(1.19564 -0.0722846 -2.345e-21)
(1.02158 0.0322256 8.74732e-21)
(0.951758 0.00491556 3.23163e-20)
(1.00931 0.0711511 -4.65649e-20)
(1.14018 0.0172351 -1.67646e-20)
(0.910719 0.0190615 4.37076e-21)
(1.0003 -1.31299e-05 -1.4159e-25)
(0.993615 -0.0225156 -2.36077e-22)
(1.00007 0.0135902 6.22461e-20)
(1.15747 -0.126656 5.28389e-23)
(1.07227 0.0627402 -2.47678e-20)
(0.990409 -0.0320504 -6.91536e-22)
(0.997379 0.0636569 4.31702e-20)
(1.14929 -0.00320303 9.49926e-21)
(1.00022 -0.00298055 2.6842e-23)
(1.14499 -0.00698807 -8.3105e-21)
(1.04058 0.0525606 -3.66109e-20)
(1.12607 -0.131397 4.3665e-23)
(0.972059 0.0067171 -9.25699e-21)
(1.05178 0.0928854 5.54117e-21)
(0.999438 -0.000292057 -5.4483e-24)
(1.02947 -0.0160375 -2.37431e-21)
(1.10811 0.0811188 1.33071e-20)
(1.09359 0.000294431 3.02601e-20)
(0.997674 -0.000123344 -2.25025e-22)
(1.049 0.0991686 -4.08376e-20)
(1.01109 -0.0379705 -5.83566e-23)
(0.908781 0.0473256 -2.46203e-21)
(1.01955 -0.0796753 -1.87375e-21)
(0.974175 -0.01171 6.63872e-22)
(0.986849 -0.000818882 -1.7643e-21)
(1.01028 0.0736715 5.20109e-20)
(1.04692 0.0866664 -6.16011e-20)
(0.973811 -0.00279821 7.19762e-22)
(1.08056 0.0603577 6.79226e-21)
(0.984384 0.0658958 -1.47886e-20)
(1.00147 -0.0119364 -2.37389e-23)
(1.03884 0.00482758 9.07064e-21)
(1.02076 0.0134315 -2.48465e-20)
(0.904535 0.0281109 2.88881e-20)
(0.998021 -0.00350916 6.8215e-23)
(1.14421 0.0815896 -2.36991e-20)
(1.13795 -0.0478021 -3.17291e-21)
(0.957483 -0.0162057 -7.38119e-22)
(0.9996 -6.30992e-05 4.6105e-24)
(0.999713 0.00786709 3.73277e-20)
(1.08837 0.11906 1.23987e-20)
(1.20679 -0.00555823 -2.43703e-20)
(0.992831 0.0780023 -1.56643e-20)
(1.13587 0.0200867 8.48667e-21)
(0.982976 -0.0254961 6.79871e-22)
(1.0858 0.100572 -9.55981e-21)
(1.09431 -0.00143393 -5.55887e-21)
(1.13272 0.0348435 1.54766e-20)
(0.911227 0.0300822 -7.5451e-20)
(1.02124 -0.0698153 5.18933e-22)
(1.17399 0.0664718 5.87007e-21)
(0.991335 0.0182471 -3.25212e-20)
(0.977513 -0.0418176 1.6041e-21)
(1.1152 -0.0156576 8.31758e-22)
(1.0502 -0.11503 1.7954e-21)
(1.11036 0.0773776 -5.87786e-21)
(0.993563 -0.000204084 -2.62372e-21)
(1.0834 0.0079391 -4.91174e-21)
(1.20769 0.00107896 1.04263e-20)
(1.17621 0.0617962 1.51033e-20)
(1.00111 -0.00379531 1.46892e-23)
(1.07648 0.00581381 4.49562e-20)
(0.997058 0.0140218 -3.1159e-20)
(1.0423 0.0370612 6.59512e-20)
(1.11758 -0.143664 -2.71444e-21)
(0.996212 -0.0215145 4.25765e-22)
(0.953949 0.0420821 -2.56871e-20)
(0.94929 0.0165527 -6.62458e-20)
(0.998038 -0.00561023 -4.69804e-23)
(0.969659 -0.0310412 8.26184e-22)
(1.01481 0.0540606 6.87953e-21)
(1.01401 -0.103379 -1.11207e-21)
(1.07321 -0.0663548 -2.26171e-21)
(1.08244 0.111278 3.98259e-20)
(0.988684 -0.000557859 2.19983e-21)
(0.898537 0.0255626 4.90237e-20)
(1.02746 -0.0524606 2.70258e-23)
(1.13541 0.0877856 7.42935e-21)
(0.992905 -0.00826587 9.85957e-23)
(0.995246 0.0134298 -1.32795e-20)
(1.05456 0.090675 -1.14692e-20)
(1.06914 -0.0165295 -7.85121e-21)
(1.08399 -0.0720672 8.68474e-22)
(1.20501 -0.0285519 -4.84646e-21)
(1.18595 0.0463782 2.12851e-21)
(0.999834 -0.00421413 -2.87622e-24)
(1.0122 0.0445743 -1.27226e-20)
(1.24357 -0.043218 -4.64683e-21)
(1.09138 0.0526508 3.00934e-20)
(0.911825 0.0494764 7.54976e-20)
(1.20131 -0.0870763 -7.60155e-22)
(1.05574 -0.060557 3.17546e-21)
(1.00041 -0.00680357 -1.13651e-22)
(1.2155 0.0577762 1.4384e-20)
(1.21752 0.0109448 6.47219e-21)
(0.982312 -0.0200516 2.77912e-21)
(1.06965 0.10196 -3.59474e-21)
(1.00007 -0.00113292 -2.77409e-23)
(0.981688 -0.0338742 -3.4973e-22)
(1.01198 -0.0114404 9.53732e-22)
(1.18974 -0.0588955 -4.50615e-22)
(0.993817 -0.0354216 6.93936e-22)
(0.999655 -0.000122387 -1.72814e-24)
(0.993203 -0.0455997 1.95865e-21)
(1.17556 0.0769607 -7.68417e-21)
(1.1265 -0.138662 -7.75785e-22)
(1.03852 -0.0553748 1.00554e-22)
(0.971914 -0.0219942 -1.62322e-21)
(1.19278 0.0192593 -1.40952e-20)
(1.14159 -0.0242503 8.96282e-21)
(0.983131 -0.0431093 -7.88876e-22)
(0.954177 -0.00866473 3.49234e-21)
(1.00087 -0.00397593 -3.13903e-24)
(1.10436 -0.0648168 -6.06593e-21)
(1.02247 -0.111305 -1.57822e-22)
(1.00968 -0.00245423 -2.009e-22)
(1.02878 -0.055977 -2.54778e-22)
(1.15644 0.0719681 -1.65518e-20)
(1.04371 0.0343667 -4.04017e-20)
(1.17241 0.00619316 3.37406e-21)
(0.999395 -0.000252727 -1.96304e-23)
(0.948055 0.0776111 -5.7059e-20)
(1.0098 -0.00129611 -7.678e-22)
(1.00001 -0.00122666 3.32915e-23)
(1.03193 -0.00831448 2.08211e-21)
(0.972644 -0.0311476 -1.32563e-21)
(1.00983 -0.0721995 1.48114e-22)
(0.966645 0.0438746 -3.06128e-20)
(1.01996 -0.0432163 -2.76844e-23)
(1.11632 -0.00635347 -4.9945e-21)
(1.01899 -0.0966093 2.24407e-21)
(1.01663 -0.0982283 -3.06052e-21)
(1.08497 0.108241 -2.76284e-20)
(0.997901 -0.0410917 -4.89355e-22)
(0.996532 -0.0635207 9.11559e-22)
(1.00309 -0.0814026 1.11874e-21)
(0.999637 -4.18917e-05 -8.93285e-24)
(1.1435 -0.0787422 3.58406e-21)
(0.940114 0.0747114 -5.49522e-21)
(1.06257 -0.135974 6.61394e-22)
(0.971461 -0.0387649 -3.28301e-22)
(1.06928 0.0977436 -4.96769e-22)
(0.987932 -0.0407987 -1.55433e-22)
(1.05195 0.0586701 -1.45816e-20)
(1.14924 0.104738 -2.56588e-21)
(0.997353 -0.00448629 3.37155e-22)
(0.998517 -0.000205946 5.29879e-23)
(1.03322 0.0557785 4.48745e-21)
(0.91917 0.0591287 2.46379e-20)
(1.04974 -0.134365 1.94875e-22)
(1.12335 0.114016 3.92147e-21)
(1.18513 0.0804487 -2.1428e-20)
(0.975731 -0.0344923 -5.47603e-22)
(0.975802 -0.0361239 -1.26833e-21)
(1.01601 0.0564537 -1.90012e-21)
(1.08094 -0.00879095 5.00691e-21)
(1.13448 -0.142169 1.76361e-21)
(1.05339 -0.110035 -1.15348e-21)
(0.977247 -0.00171599 7.87829e-23)
(1.04999 -0.0117129 3.93826e-21)
(0.951087 0.0242173 -1.14658e-20)
(1.11554 0.00649941 -2.97172e-20)
(1.00028 -6.11105e-05 -1.05611e-25)
(0.974298 0.063126 5.32126e-20)
(1.02962 -0.0499188 8.34614e-22)
(1.01087 -0.0734821 1.67394e-21)
(1.0419 0.10068 -2.13449e-20)
(1.01427 -0.0187422 8.35795e-22)
(0.992284 -0.00794501 -2.95911e-22)
(0.999472 -0.000409929 -1.00752e-23)
(1.12949 -0.0579199 3.58652e-21)
(0.972891 -0.017148 -1.33587e-21)
(1.00029 -1.87898e-05 9.41765e-26)
(1.12578 0.11599 -9.63448e-21)
(1.20887 -0.116137 -1.25377e-22)
(1.01054 0.0433821 -2.19385e-20)
(0.999278 -0.000120195 6.75374e-24)
(1.0003 -0.00355452 -9.7366e-24)
(0.987121 -0.0418489 -7.08419e-22)
(1.00002 -5.68043e-05 4.34115e-26)
(1.05044 -0.138417 -1.01579e-21)
(1.14999 -0.139937 -6.82692e-22)
(0.999842 -0.00356741 1.55229e-23)
(1.00846 -0.0580415 -4.70374e-22)
(0.953246 -0.0139742 1.11902e-21)
(1.04149 0.0913224 -2.2283e-21)
(0.991262 0.0770872 1.27245e-20)
(0.997667 -0.0038249 6.91794e-23)
(1.00267 -0.000917555 -4.33141e-23)
(1.0004 -0.0771999 -3.08225e-21)
(0.987917 0.0703401 4.04015e-20)
(1.00459 -0.0267404 3.00814e-22)
(0.983223 0.0461838 -1.44308e-21)
(0.985894 -0.0102768 -1.16878e-22)
(0.905423 0.0395501 -2.05911e-20)
(1.03385 0.0111317 -4.92329e-21)
(1.11199 0.0498208 -3.19397e-20)
(0.928083 0.0478951 -2.24905e-20)
(1.24147 -0.0327866 -2.71003e-22)
(0.991747 -0.00275586 -1.32626e-22)
(1.13151 -0.0469701 2.91518e-21)
(1.00801 -0.027573 -4.02371e-23)
(0.993054 0.0698262 1.02951e-20)
(1.015 0.0488601 2.98624e-20)
(0.975546 -0.00758388 8.04215e-22)
(1.21824 -0.0864341 -1.75407e-21)
(1.10288 -0.0204034 -8.26406e-22)
(1.05339 -0.0641274 7.33845e-22)
(0.995114 -0.000323618 -2.68371e-22)
(1.22452 -0.0999523 -7.36806e-22)
(1.00027 -9.92562e-06 5.18424e-25)
(1.03924 0.0885606 1.33389e-20)
(0.951424 -0.0132313 -4.40619e-21)
(0.995775 -0.0509494 -3.21838e-22)
(0.99786 -0.0247066 3.56639e-22)
(1.0071 -0.0467448 1.56408e-21)
(1.13288 0.0836654 2.28896e-21)
(1.16971 0.0110887 -1.2895e-20)
(0.998002 -7.33231e-05 2.72114e-22)
(1.02224 -0.0415044 5.3228e-22)
(0.999907 -0.000104361 1.8907e-24)
(0.905327 0.0371005 1.54906e-20)
(0.954729 0.0218828 2.36528e-20)
(0.995592 -0.00106338 -1.43362e-22)
(0.9782 -0.0114634 -7.86526e-22)
(1.02875 -0.0306313 1.34322e-21)
(1.01648 0.0513427 1.28318e-20)
(0.953195 -0.0201573 -2.11779e-21)
(1.1875 0.0839636 -4.70005e-21)
(0.973127 -0.0395364 3.43296e-22)
(1.00595 0.0707938 -9.346e-22)
(1.11509 0.0533702 -3.62369e-21)
(0.972269 -0.0185883 -8.84522e-22)
(0.904645 0.0208675 -3.1429e-20)
(1.0437 -0.00204379 -3.77692e-21)
(1.01271 0.0748173 -2.78269e-20)
(0.994609 -0.0116024 4.37628e-23)
(1.02397 -0.118126 4.82835e-21)
(0.975987 0.00415737 -7.76106e-20)
(1.01301 -0.0345753 -3.99576e-23)
(0.917761 0.0627584 -1.11442e-20)
(1.02389 0.0598052 1.64252e-21)
(0.909424 0.023255 -7.57925e-21)
(0.992254 -0.00282451 7.97675e-23)
(0.991593 -0.000628603 6.84696e-22)
(1.0252 -0.0748103 -3.79668e-22)
(1.14158 -0.0374474 -1.43689e-20)
(1.01326 -0.0186153 -9.18205e-22)
(1.02443 -0.0675934 -1.13493e-22)
(1.00943 0.0662326 2.52929e-21)
(1.00523 0.0765644 8.57898e-21)
(1.03534 0.00183502 6.11466e-24)
(0.99018 0.0686159 -2.88576e-20)
(0.925022 0.0665619 6.11037e-21)
(1.11328 0.0933423 2.43496e-20)
(0.99876 0.00896538 -5.3336e-20)
(1.03917 0.0286079 -1.26461e-20)
(1.00476 -0.0143232 3.72491e-23)
(1.0308 0.057381 -1.46867e-21)
(0.995302 -0.0631087 -7.88499e-22)
(0.974396 -0.0385977 9.00301e-22)
(0.998969 -0.00110234 8.49681e-24)
(1.04812 -0.0640495 -1.89434e-21)
(1.09424 -0.123996 -3.30931e-22)
(1.06974 0.0337825 1.08857e-20)
(1.07019 -0.00712051 9.58361e-21)
(1.00268 0.0259708 4.41173e-21)
(1.00883 -0.0402067 7.24252e-22)
(1.10552 -0.0124805 4.78838e-21)
(1.0041 0.0208041 -5.16036e-21)
(1.00903 -0.0289057 5.74124e-23)
(1.08115 -0.0753623 -1.90124e-21)
(0.999938 -0.000127454 -3.89983e-25)
(1.00042 -0.00019361 -7.55245e-25)
(1.06875 0.0307155 -2.30931e-23)
(0.99657 -0.0547079 -9.36616e-22)
(0.978877 -0.0360176 1.3877e-21)
(1.00046 -0.000182525 1.36481e-24)
(1.00015 -0.0024866 1.57162e-23)
(1.10244 -0.0239186 -1.46982e-21)
(0.999435 -7.58622e-05 -1.12959e-23)
(1.21737 0.0386236 -6.90077e-22)
(0.904478 0.0304953 3.96916e-20)
(1.1187 0.115927 1.46048e-21)
(1.09769 0.0612767 -8.6844e-22)
(0.97136 -0.00750027 -1.29721e-21)
(1.0253 0.0794756 1.02154e-20)
(1.20941 0.0624458 -7.28465e-21)
(1.00491 -0.0249273 -1.72179e-23)
(0.978869 -0.0126148 -7.47622e-22)
(0.998011 -0.00325374 4.39923e-25)
(0.999421 -0.000370318 5.4676e-24)
(1.00164 -0.0040176 -4.28257e-24)
(0.99845 -0.026236 3.20883e-22)
(1.03646 -0.117765 2.24698e-21)
(1.08475 0.0755533 3.46815e-20)
(1.16452 -0.037799 2.85952e-21)
(0.963958 -0.00374776 2.85306e-22)
(0.999913 -6.72e-05 -4.58161e-25)
(1.00166 0.0437456 2.93376e-20)
(1.22205 -0.016469 -8.98444e-21)
(1.228 -0.0635155 -1.12242e-21)
(1.01496 -0.0355257 5.82523e-23)
(1.19025 0.0625929 1.00358e-20)
(1.04656 -0.0664685 2.59901e-22)
(0.98189 -0.000912769 -2.18937e-22)
(1.00279 0.0192146 2.5999e-20)
(0.977211 0.000874536 -9.9111e-20)
(1.05665 0.110585 -2.8433e-20)
(0.98865 -0.000436309 -1.48948e-21)
(1.05444 0.109885 2.19892e-20)
(0.970333 -0.00556636 5.2174e-22)
(0.990097 -0.0381584 -8.88136e-22)
(1.10612 0.108817 -2.71146e-20)
(1.00026 -7.50884e-05 -5.61423e-26)
(0.992926 -0.025142 -1.43842e-22)
(1.14351 0.0858279 8.08392e-21)
(1.11 0.084718 2.83575e-20)
(0.973448 -0.0199218 -2.349e-22)
(1.01958 0.0514305 1.95765e-21)
(0.969527 0.0809034 -2.51255e-21)
(1.01368 0.0245067 -6.00904e-20)
(0.97122 -0.0319422 2.04511e-21)
(0.955279 -0.00852399 -1.61869e-21)
(1.04149 -0.0524161 5.76607e-22)
(1.09809 -0.00161303 8.35658e-22)
(1.01956 0.0112311 -1.47816e-20)
(0.996003 -0.00139295 -4.65986e-23)
(0.975283 0.00919465 -2.90065e-20)
(0.995729 -0.038839 1.72247e-21)
(1.02778 -0.11799 -3.22541e-21)
(1.12863 -0.0420405 3.11569e-21)
(0.945407 0.0791721 8.11394e-20)
(1.08587 0.0799505 -2.86689e-20)
(1.01247 0.0490652 -3.13791e-20)
(1.15808 -0.135084 2.9683e-22)
(0.960131 0.00238781 -4.38167e-20)
(0.974431 -0.0168955 1.34937e-21)
(0.991143 -0.0367522 6.38527e-22)
(0.922809 0.0112116 1.51667e-20)
(1.06628 -0.0235063 -2.56522e-21)
(1.03684 -0.109249 -4.05805e-22)
(1.01387 0.069158 -6.41173e-21)
(1.00469 0.0680478 -1.95223e-20)
(0.983014 -0.032742 -1.26059e-21)
(1.02372 0.0147051 -3.3464e-20)
(0.988375 0.0732315 -5.3652e-21)
(1.00533 0.0630969 2.5523e-20)
(1.03382 0.0933334 8.49704e-21)
(1.01082 0.0692025 4.12556e-20)
(1.04881 0.0643689 -2.27049e-20)
(0.988393 -0.00354927 5.19604e-22)
(0.975487 -0.0181505 1.57514e-21)
(1.00255 -0.00638006 2.7033e-24)
(1.01219 -0.0968286 3.4786e-21)
(0.993589 0.0199938 -7.5253e-21)
(1.01666 -0.10232 2.02369e-21)
(1.15919 0.0811475 -7.28568e-22)
(1.13259 0.0457291 -1.97452e-20)
(0.979734 -0.0414527 9.40446e-22)
(1.21078 0.0368666 1.63388e-23)
(1.14973 0.0975186 -8.12681e-21)
(0.991628 0.00912075 -2.28187e-21)
(1.20196 0.0277155 5.42363e-21)
(0.999854 -0.00299949 -7.14408e-24)
(1.05281 -0.0116208 1.63004e-22)
(0.989719 -0.0410907 4.38025e-22)
(1.20465 -0.0595827 1.13651e-22)
(1.22043 -0.059071 2.91924e-21)
(1.01951 -0.108601 6.87533e-22)
(1.03474 0.0896066 4.80293e-21)
(0.981184 0.0790053 4.2591e-20)
(1.1529 -0.0233753 6.53493e-21)
(0.996538 0.00937732 2.36104e-20)
(0.917109 0.0559308 -2.7425e-20)
(0.99814 -0.000125439 -5.89077e-23)
(1.00293 -0.000943164 7.22626e-24)
(0.997404 -0.00492783 -1.50922e-22)
(0.976631 -0.0079516 2.97335e-22)
(1.06977 0.0714501 -1.79786e-20)
(0.923848 0.0127709 -3.29532e-20)
(1.11754 0.00983839 2.55969e-20)
(1.02657 0.0850397 6.09853e-21)
(0.986196 -0.0201769 -7.62221e-22)
(1.06248 0.102343 3.75066e-20)
(1.05942 0.108078 1.19769e-20)
(1.20356 -0.1076 -4.77029e-23)
(0.963895 -0.0114109 1.47981e-21)
(0.954164 -0.0191181 1.28475e-21)
(1.16296 0.084796 2.08562e-21)
(1.01135 -0.0354385 8.00861e-23)
(1.16338 -0.0331761 4.10267e-21)
(0.977162 -0.033552 2.88356e-22)
(0.96214 -0.0334321 -3.05175e-21)
(1.0189 0.0715048 4.58544e-20)
(0.993106 -0.00240433 2.72586e-22)
(1.02303 -0.0474621 7.98091e-23)
(1.00639 0.0753866 2.1335e-20)
(1.20886 0.0293963 2.43178e-20)
(0.95153 0.067581 9.30449e-21)
(1.01527 -0.0696513 -7.05026e-22)
(1.03768 0.00968036 1.61793e-20)
(1.212 -0.0641425 -2.44938e-21)
(1.00187 -0.0577039 3.33976e-22)
(0.977708 0.00707064 -1.06982e-20)
(0.988321 0.00053077 6.43236e-20)
(0.990982 0.0242496 -1.16805e-20)
(0.996123 -0.0279507 -8.22651e-22)
(0.940853 0.0156952 3.62448e-20)
(0.972671 -0.0294654 1.05121e-21)
(0.979086 0.0592594 1.29903e-21)
(1.10297 -0.0526801 -1.90968e-21)
(0.989311 0.0374347 -6.63685e-21)
(0.987347 -0.0392701 5.55892e-22)
(1.00005 -0.000186982 1.02432e-25)
(0.988956 0.0329036 2.19875e-20)
(0.977101 0.0533814 2.54283e-20)
(0.981089 0.0642949 -4.07822e-20)
(0.989522 0.0285793 -2.56174e-20)
(1.06333 0.00501242 -5.86725e-20)
(1.11262 -0.0134408 -4.51016e-22)
(1.05987 0.0621823 -4.44673e-20)
(1.03437 -0.105857 9.35716e-22)
(0.996091 0.0180307 7.70827e-20)
(1.01932 0.0460311 -3.902e-20)
(1.21592 -0.0205291 1.09668e-20)
(1.07325 -0.00925729 -1.01007e-20)
(0.988741 -0.00337817 2.93928e-22)
(1.24737 -0.0279244 1.02612e-21)
(1.0241 0.073852 -7.83053e-21)
(0.962187 -0.0265173 8.78107e-23)
(0.969385 -0.00477722 -1.62702e-21)
(0.989865 0.00485982 -1.53054e-20)
(0.985402 0.0404404 -4.70366e-20)
(0.993363 -0.0444474 -7.79265e-22)
(0.992068 0.0436802 3.44776e-20)
(1.02155 -0.115131 1.16273e-21)
(1.18932 0.0571607 -1.66058e-20)
(0.992677 -0.000362765 -5.99712e-22)
(0.981142 0.0436534 -2.63976e-20)
(0.97631 0.047526 6.704e-20)
(0.914251 0.033254 6.13408e-20)
(0.985757 0.0752493 5.56187e-20)
(0.996704 -0.000408085 -7.0614e-23)
(0.986412 -0.0218108 5.01105e-22)
(0.998831 -0.00113784 -7.29494e-23)
(0.999009 -0.0604723 -2.92753e-21)
(0.951036 0.0533829 -1.32399e-20)
(1.10946 0.0683025 -4.09733e-20)
(1.0311 0.0810367 -4.53666e-22)
(0.96245 -0.0321573 2.00603e-21)
(1.03946 0.0312668 3.97619e-20)
(1.03058 -0.0298431 -1.55164e-21)
(0.951018 0.0608053 1.91852e-20)
(1.07296 -0.0811361 4.94961e-22)
(0.994369 0.00782641 2.61221e-20)
(0.992902 -0.000356408 -3.57283e-22)
(0.957776 0.050122 -4.46374e-20)
(0.944688 0.0645069 -5.33828e-20)
(0.985054 -0.0228497 -1.28331e-21)
(1.15709 0.0341272 1.01812e-20)
(0.958468 0.0428021 -4.45561e-20)
(0.996314 -0.000603281 3.28995e-22)
(0.930872 0.0328026 -6.9505e-21)
(1.03924 -0.0586355 -2.02237e-22)
(0.996063 -0.000438722 -1.00058e-22)
(0.962757 -0.0125088 -1.03333e-21)
(1.01282 0.0776381 -2.71197e-20)
(1.13074 0.0605808 -2.50853e-20)
(1.0084 -0.0815112 1.59275e-21)
(0.996258 0.0754996 2.17997e-21)
(0.941199 0.0718793 3.52884e-21)
(1.05923 0.104403 -4.06378e-20)
(1.04683 -0.00867608 -1.92838e-21)
(1.0008 -0.0537825 5.40658e-22)
(1.12741 -0.0527566 -3.94618e-21)
(0.986334 0.0455311 3.87372e-20)
(0.939193 0.0327009 -4.01904e-21)
(0.908163 0.0323737 3.97201e-21)
(1.10815 0.0592165 6.34063e-21)
(1.00073 -0.00858588 1.83007e-23)
(0.975298 -0.00194774 1.90159e-22)
(1.02612 0.0762399 -2.7784e-20)
(1.00185 -0.00664046 5.96793e-24)
(0.986814 -0.00507053 -5.29524e-24)
(1.00291 -0.0103599 2.82336e-24)
(0.995893 -0.0244152 -4.12436e-22)
(1.07154 -0.119644 1.07194e-21)
(1.14853 -0.1236 -2.65254e-22)
(0.970383 0.0638541 -5.93296e-20)
(1.01729 -0.0392798 9.13568e-24)
(0.999116 -0.000915034 4.86278e-23)
(1.02462 0.0481602 -5.99905e-22)
(1.12712 0.0843007 2.03564e-20)
(1.00193 -0.0105193 -1.90937e-23)
(1.16807 0.0674125 -1.26722e-20)
(1.00161 -0.00112359 -2.59661e-24)
(1.1226 0.0461 2.16407e-21)
(1.01362 0.0258235 4.20786e-20)
(0.99012 0.0419205 -6.68599e-20)
(1.11921 -0.127175 4.44134e-22)
(1.14245 0.0346748 -1.36493e-20)
(0.995341 -0.0118491 -8.09457e-23)
(1.09941 -0.0820305 -4.13267e-22)
(0.995795 -0.00169144 -2.12038e-23)
(0.983761 0.0513855 -6.86327e-20)
(0.969008 0.0622678 1.83902e-20)
(1.17593 -0.129627 6.30383e-23)
(1.14237 -0.136639 3.88109e-22)
(1.11043 -0.138792 2.3657e-21)
(1.02791 -0.0692223 3.19006e-22)
(0.993435 0.0725162 4.62032e-21)
(1.0302 -0.063168 5.1955e-23)
(1.08961 -0.112689 1.20794e-22)
(1.05942 -0.13064 -7.73015e-22)
(1.09395 -0.0720041 2.13404e-21)
(0.922687 0.0331239 3.37444e-20)
(1.11188 -0.153213 -4.82262e-21)
(1.20225 0.00642587 -1.60298e-21)
(0.985973 0.0149612 1.33652e-20)
(0.994318 -0.00046088 3.44612e-22)
(1.16064 0.0161202 6.14303e-21)
(1.03216 -0.0568169 2.02701e-22)
(1.05982 -0.120105 1.26248e-21)
(0.995918 -0.00110052 1.05058e-23)
(0.99983 -0.00254769 -2.3077e-23)
(0.925868 0.0408644 -5.75556e-20)
(1.04622 0.0334182 3.06492e-20)
(1.17224 -0.136747 1.28016e-21)
(1.24476 -0.00274968 2.42872e-21)
(1.0478 0.0566517 -1.64935e-20)
(0.994798 0.0426546 -5.44386e-21)
(1.02136 0.0488704 1.19251e-20)
(1.18676 -0.0760013 2.52251e-21)
(0.988143 -0.0439549 1.60881e-21)
(0.996696 -0.0372319 -4.45809e-22)
(0.990715 -0.0397546 -1.21751e-22)
(1.03074 0.0497013 -3.98867e-20)
(0.970957 -0.00597237 1.46551e-21)
(1.00458 -0.0547649 7.40629e-22)
(0.999646 -4.11867e-05 2.35538e-24)
(0.976937 -0.0177926 -2.64552e-21)
(0.997923 -0.000642451 5.47364e-24)