/*--------------------------------*- C++ -*----------------------------------*\
  =========                 |
  \\      /  F ield         | OpenFOAM: The Open Source CFD Toolbox
   \\    /   O peration     | Website:  https://openfoam.org
    \\  /    A nd           | Version:  7
     \\/     M anipulation  |
\*---------------------------------------------------------------------------*/
FoamFile
{
    version     2.0;
    format      ascii;
    class       volVectorField;
    location    "23";
    object      U;
}
// * * * * * * * * * * * * * * * * * * * * * * * * * * * * * * * * * * * * * //

dimensions      [0 1 -1 0 0 0 0];

internalField   nonuniform List<vector> 
30084
(
(1.01048 -0.0126361 2.20383e-22)
(1.00819 0.00362652 8.82372e-22)
(0.990935 -0.00338447 -1.29253e-21)
(0.971956 -0.0546056 3.92385e-22)
(0.997664 -5.08757e-05 1.87074e-22)
(0.955471 -0.0343514 -5.97185e-22)
(1.06974 -0.0654972 4.48605e-22)
(1.01421 -0.0189327 -2.31176e-23)
(1.00193 -0.00186524 2.98006e-23)
(1.00017 -4.58298e-05 7.22281e-24)
(1.01664 -0.0253323 4.39204e-24)
(0.998481 -0.0163147 -4.51121e-22)
(0.999553 -0.000184931 2.67998e-23)
(0.999975 -9.0389e-06 9.18005e-25)
(1.10094 0.091827 2.68505e-21)
(0.994105 -0.00193762 1.9843e-22)
(0.999847 -0.000820536 -1.27932e-23)
(1.11336 0.0218159 -2.41823e-22)
(0.997952 -0.00175518 -6.41145e-23)
(0.989227 -0.000819512 -2.84298e-22)
(0.999188 -0.000263578 -8.95119e-23)
(1.00182 -0.00186286 1.04023e-22)
(0.990846 -0.0035818 1.42083e-21)
(0.997956 -0.000166738 8.2505e-23)
(0.913554 0.0882185 3.07696e-22)
(1.00897 0.00287337 4.75242e-21)
(0.999522 -5.57682e-05 6.08849e-23)
(0.955519 0.0738919 -2.22811e-20)
(1.10413 0.0929358 -6.81598e-21)
(0.999381 -0.0088504 -8.90657e-23)
(1.01466 -0.00990635 1.52984e-22)
(1.03354 -0.00412295 -1.11539e-21)
(0.995658 -0.128602 3.91524e-21)
(0.999192 -0.0226501 2.22376e-22)
(0.953912 0.0704624 1.83031e-20)
(1.00558 -0.031797 5.71026e-22)
(1.05205 0.0437365 -1.53328e-21)
(0.972254 -0.0302471 1.67144e-21)
(1.00506 -0.000777123 -4.08948e-22)
(1.00488 -0.000549714 7.77179e-22)
(1.0004 -0.0001566 -2.34987e-23)
(0.990406 -0.0312057 -1.6e-21)
(0.999865 -0.000797177 -1.28367e-25)
(1.03577 -0.0670637 -2.05967e-21)
(1.00003 -4.46405e-06 -1.11518e-24)
(0.999578 -0.00896982 6.74672e-23)
(0.997879 -0.0121105 -1.29906e-22)
(1.00007 -8.0256e-05 3.14154e-24)
(1.0032 -0.00347569 -4.27497e-22)
(1.05234 0.041601 -6.33519e-22)
(1.12964 -0.0534262 2.49983e-22)
(0.974972 -0.0475478 -1.86545e-21)
(1.03328 -0.00337544 3.92259e-22)
(0.957003 -0.0339548 -9.97441e-22)
(0.994252 -0.00198747 -1.74895e-22)
(1.10895 0.0875447 -4.39067e-21)
(0.99675 -0.00220452 6.30456e-23)
(0.999164 -0.000290963 1.13373e-22)
(1.00093 -0.0211904 -3.0248e-22)
(1.01682 -0.0567451 -1.01152e-21)
(0.999944 -6.32183e-06 1.98635e-24)
(0.998023 -0.00179727 -1.32869e-23)
(1.17574 0.0760282 1.25353e-21)
(1.00585 -0.0309957 -3.12204e-22)
(1.04104 0.088323 1.15873e-20)
(0.932012 0.0244787 4.57458e-20)
(1.0005 -0.0268816 -5.87107e-22)
(0.993206 -0.0138485 5.96737e-22)
(0.949164 0.0156041 1.85146e-20)
(1.00042 -0.000148187 1.51816e-23)
(1.01031 0.00347643 -6.47736e-21)
(0.988841 0.0623891 1.32641e-20)
(1.00326 -0.00864198 -1.6896e-22)
(0.929534 0.101427 1.13813e-20)
(0.992155 -0.000633432 9.19865e-22)
(1.11279 -0.0185417 3.55105e-22)
(1.12519 0.132903 8.61423e-21)
(0.97273 -0.0170828 4.00726e-22)
(0.999959 -1.98809e-05 -5.78506e-24)
(1.00802 -0.0475416 -1.01815e-21)
(0.95613 -0.00079545 -6.64688e-22)
(1.017 0.0343514 3.70507e-21)
(1.01072 -0.0131803 -6.59199e-22)
(1 -5.68174e-05 1.80782e-24)
(1.07153 -0.062803 -6.43102e-22)
(1.24965 -0.0476056 -2.24395e-21)
(1.02386 0.0765158 -2.18014e-20)
(0.999535 -0.000182703 -2.41525e-23)
(0.999567 -0.000164523 -7.0681e-24)
(0.931998 -0.0458042 -2.44808e-21)
(0.998299 -0.0538346 2.0651e-21)
(0.972655 -0.017899 4.47444e-22)
(1.00301 -0.00359532 7.33847e-23)
(1.0529 -0.00347043 -6.79532e-22)
(0.923805 -0.0197057 -2.06175e-21)
(1.02911 0.0911309 1.04595e-20)
(1.00332 -0.0700351 3.24056e-21)
(1.00044 -0.000369063 3.78948e-23)
(0.974642 -0.0687859 -3.43904e-21)
(1.09263 0.104921 1.12282e-20)
(0.999957 -1.96366e-05 8.47568e-24)
(0.973915 -0.0110829 -2.41139e-21)
(0.999946 -7.73135e-06 -1.02462e-24)
(1.04367 -0.0135523 -3.41572e-21)
(0.97346 -0.0475294 1.22542e-21)
(1.03068 0.0127956 6.75474e-21)
(1.00134 0.060128 2.05314e-20)
(0.999585 -0.000166225 -6.02198e-23)
(0.999996 -6.48093e-05 -2.22399e-25)
(1.01277 -0.118955 -1.86576e-22)
(0.992733 -0.127611 -3.52932e-21)
(1.04434 -0.0337281 3.4742e-22)
(1.00001 -1.69345e-06 1.55853e-25)
(0.998971 -0.00598188 -2.38117e-22)
(0.999898 -0.00211997 1.10888e-23)
(0.99094 0.063906 5.85002e-23)
(1.03135 0.0497519 -7.90066e-21)
(0.988516 -0.00734915 -9.70983e-22)
(1.00002 -6.28229e-05 9.38975e-26)
(1.00356 -0.00854278 -1.29698e-22)
(1.22711 0.0505545 -5.49464e-22)
(1.00541 0.0109756 1.03367e-20)
(1.1629 -0.00799292 8.33877e-22)
(0.93061 0.0299386 -4.23409e-20)
(1.00103 -0.000343363 -9.85313e-23)
(1.14662 0.00511801 -6.68461e-22)
(1.11081 0.0241001 -1.32954e-21)
(1.02091 -0.0537615 7.07053e-22)
(1.00382 -0.00328911 -3.81931e-22)
(1.00002 -0.000418769 -3.18883e-25)
(1.03488 -0.0650732 7.35945e-22)
(1.12793 0.130913 4.8333e-21)
(0.999191 0.108821 2.08048e-20)
(1.17492 -0.0193553 -6.72389e-23)
(1.04224 -0.0135272 2.89121e-21)
(1.01424 -0.00954977 2.88899e-21)
(1.04326 0.137744 1.60095e-21)
(0.972579 -0.000820268 3.37727e-21)
(1.18611 -0.160194 9.20179e-21)
(1.0945 0.101951 -8.55525e-21)
(1.14376 0.0082156 8.09885e-22)
(0.938145 -0.00569971 -2.70535e-21)
(0.951418 -0.0483664 7.72714e-22)
(1.00001 -1.42824e-06 -6.71477e-26)
(0.999991 -3.15891e-06 5.78766e-25)
(0.997603 -8.42391e-05 -1.46238e-22)
(0.998051 -0.0118544 2.67029e-22)
(0.993075 -0.0957164 -2.70741e-21)
(1.16664 -0.110186 3.64747e-21)
(1.16715 0.112065 5.71325e-21)
(1.02937 -0.0157314 1.50538e-21)
(1.01774 -0.0178008 5.02217e-22)
(1.00041 -0.000598724 5.78703e-23)
(0.999878 -0.000209792 7.58321e-24)
(1.00139 0.0222065 -2.2012e-20)
(1.00051 -0.00147294 6.86028e-24)
(0.993694 -0.0112368 5.01859e-25)
(1.05187 0.139748 -4.81804e-21)
(1.0037 0.0398691 -2.33163e-20)
(1.13114 -0.0489325 -2.70751e-22)
(0.958283 -0.00300865 1.13683e-21)
(0.972912 -0.0533536 2.84942e-21)
(1.10794 0.0909434 1.11266e-21)
(0.999958 -4.23656e-05 1.84972e-24)
(0.99999 -3.21331e-06 -2.17906e-25)
(0.988468 -0.00772764 3.50441e-22)
(0.952684 -0.0472692 -4.29237e-21)
(1.00005 -0.000213717 -2.4486e-24)
(1 -6.09207e-05 8.80242e-25)
(0.993466 -0.00505841 -1.15839e-22)
(1.00003 -0.000406315 2.73713e-25)
(1.00551 -0.00561069 -2.14468e-22)
(1.0492 0.141701 5.44835e-21)
(0.972995 -0.000430404 -2.85957e-21)
(1.06274 -0.107371 -9.85535e-22)
(0.995144 -9.6282e-05 5.96513e-22)
(1.00202 -0.00257939 2.22019e-23)
(0.973176 -0.010915 3.98349e-21)
(0.999258 -0.00596239 -2.16665e-23)
(1.16228 0.00227818 -1.22771e-21)
(0.999983 -8.73876e-06 3.15628e-24)
(1.01532 -0.0365098 -2.9298e-22)
(1.02538 0.0781451 7.71856e-21)
(0.993466 -0.0128497 -3.52748e-23)
(1.1779 -0.159013 -8.84413e-21)
(1.02467 0.0423909 -6.96002e-21)
(0.993925 -0.00277942 -8.6754e-22)
(0.98239 -0.0157562 1.07399e-21)
(1.00362 -0.00330822 5.80227e-22)
(0.999423 -0.00824396 -1.3186e-22)
(0.999751 -6.77669e-06 7.14708e-24)
(1.0064 -0.0170207 1.13444e-22)
(0.926772 0.0149814 1.77325e-20)
(1.00093 0.018503 1.69823e-20)
(0.985986 -0.0062635 2.75386e-23)
(0.993982 -0.0110567 -3.75509e-22)
(0.982901 0.0340018 -1.78755e-20)
(1.01109 0.027073 3.19187e-21)
(0.925507 -0.019453 2.55612e-21)
(1.00108 -0.000462181 -7.70219e-23)
(1.08863 -0.0811751 1.13671e-21)
(0.976669 -0.0920937 3.58611e-21)
(0.998769 -0.0166359 2.16791e-22)
(1.00079 -0.00101116 -1.21307e-22)
(1.04494 0.140463 2.25753e-21)
(0.993679 -0.005066 -7.89176e-23)
(1.0064 -0.00500731 -2.40403e-22)
(0.990998 -0.095456 3.52506e-21)
(1.01366 -0.122115 4.59835e-22)
(0.99997 -3.88914e-06 7.07375e-25)
(0.98001 0.0882929 -2.09057e-20)
(0.999043 -2.21483e-05 -1.45874e-24)
(0.999999 -4.80259e-05 4.67979e-25)
(0.999499 -0.000195507 1.02512e-23)
(1.00136 -0.0537121 -7.50585e-22)
(1.16176 0.0834929 -4.68322e-21)
(1.01617 -0.0356367 5.7112e-23)
(1.00619 -0.00467977 -1.64859e-22)
(0.997978 -0.000229709 2.05149e-22)
(0.927033 -0.0216642 -4.7251e-22)
(1.00003 -0.000445684 -5.60768e-25)
(1.00046 -0.00150257 7.82596e-25)
(0.99782 -0.00019477 -1.34946e-22)
(1.02403 0.00133407 6.29921e-21)
(0.99751 -0.00380391 -4.30387e-23)
(0.998985 -0.00555716 7.09972e-23)
(1.0244 -0.00096952 3.15981e-21)
(1.00012 -0.000365225 5.04211e-24)
(1.00003 -3.65031e-06 2.88472e-25)
(1.00466 -0.000560111 8.35637e-23)
(0.976834 -0.0342081 -1.40865e-21)
(0.976071 -0.000418114 -1.39349e-21)
(0.995444 -0.000365753 -6.32404e-22)
(1.01117 0.00273641 5.36428e-21)
(0.984649 -0.00114986 6.66493e-22)
(1.01788 -0.0171727 -4.80945e-22)
(0.999975 -9.98379e-06 2.58241e-24)
(0.997209 -0.00251154 -2.45691e-22)
(1.00074 -0.00100303 1.31002e-22)
(1.08684 -0.077658 1.1085e-21)
(1.097 -0.185549 7.13933e-21)
(0.998715 -0.000117933 1.07247e-22)
(1.00043 -0.000532583 -4.48264e-23)
(0.99889 -0.00542475 -2.40682e-23)
(1.00343 -0.0076239 -3.1772e-22)
(0.989449 -0.000604134 -1.21568e-21)
(0.99996 -4.00782e-05 -9.91973e-26)
(1.24216 -0.0473764 -4.41585e-21)
(1.00004 -0.000456195 2.03632e-25)
(1.02371 0.00120973 -4.43847e-21)
(0.996854 -0.00220727 -1.27448e-22)
(1.00013 -0.000353937 2.2477e-24)
(1.02976 0.0130152 -4.29533e-21)
(0.970417 -0.088759 -3.65052e-21)
(1.00023 -3.96398e-05 2.42856e-23)
(1 -9.30935e-06 2.38165e-25)
(0.937953 -0.00408079 -3.0809e-21)
(1.07343 -0.174418 -1.09399e-21)
(0.991763 -0.00812649 -9.37008e-23)
(1.02021 -0.0551881 -1.93493e-22)
(1.03023 -0.0162523 -2.46433e-22)
(1.0297 0.0765949 9.48889e-22)
(1.00007 -7.56042e-05 8.88364e-25)
(0.97728 -0.0334309 1.43476e-21)
(1.20022 0.0222025 -6.75357e-22)
(0.968516 0.0480245 4.3383e-22)
(0.99337 -0.0125666 2.78445e-22)
(1.02392 0.041046 8.50597e-21)
(1.11173 -0.0153857 2.83986e-22)
(0.999894 -0.00233299 -1.12153e-23)
(0.859863 0.0432283 2.32443e-20)
(0.999496 -0.000413043 -6.94411e-23)
(1.06292 -0.111217 -1.32255e-21)
(0.928335 -0.0216073 3.14485e-21)
(1.00214 -0.00243671 -1.22249e-22)
(1.15895 0.0461974 3.16169e-21)
(0.991745 -0.000919526 -7.27143e-22)
(1.00071 0.116843 1.48365e-20)
(0.996707 -0.000254645 5.76537e-23)
(0.982973 -0.0169719 -5.62128e-23)
(0.999811 -0.00211996 -6.20657e-23)
(1.07669 0.120927 2.52252e-21)
(1.00062 -0.0167488 5.37616e-23)
(1.02674 0.0913809 6.4016e-22)
(0.999535 -4.27258e-05 -2.6604e-23)
(0.994407 -0.00183882 -2.76607e-22)
(0.967321 0.106714 -8.81385e-21)
(1.02847 0.00131245 -5.28309e-21)
(1.02422 -0.000667423 3.67164e-21)
(0.972445 -0.0440208 3.44137e-21)
(0.999866 -2.95664e-05 7.51591e-24)
(1.00333 -0.00736127 -3.62234e-23)
(0.999844 -0.000897062 -2.3148e-23)
(1 -4.53978e-05 3.35686e-25)
(1.04972 0.00953079 1.52032e-21)
(1.00003 -4.60486e-06 3.88658e-26)
(0.98047 -0.0151395 2.52041e-21)
(1.19897 0.0177775 5.34293e-22)
(0.91181 0.0922379 -2.15094e-20)
(1.00149 0.109218 -3.31447e-20)
(0.972876 -0.0759142 1.12545e-21)
(0.987607 -0.0305736 8.72564e-22)
(0.97728 -0.00160415 6.65499e-22)
(1.03576 -0.0323122 1.06319e-21)
(1.00693 -0.0167532 -1.94754e-22)
(0.982297 -0.0165163 -1.48246e-21)
(0.974632 -0.0833989 4.98923e-22)
(1.0282 0.0782427 -1.45602e-20)
(0.999543 0.0153316 2.9426e-20)
(0.998801 -0.000143891 5.90508e-23)
(1.00243 0.0608131 -2.81454e-20)
(1.04917 0.00812366 5.40815e-22)
(1.16537 -0.00307605 -2.18697e-22)
(1.01347 -0.0144969 2.28091e-22)
(1.00155 -0.0153454 -2.44313e-22)
(1.02733 -0.0489134 -3.98119e-22)
(0.994816 -0.00177494 -6.55844e-22)
(0.997463 -0.000636743 -4.31387e-23)
(0.999949 -6.06494e-06 1.05856e-23)
(0.999273 -0.00845317 1.9334e-22)
(1.09481 -0.0238934 1.98273e-22)
(1.07646 0.124088 -4.02249e-21)
(1.00154 -0.00132276 5.75726e-23)
(0.973282 -0.0282539 -1.99835e-21)
(1.01529 -0.0146601 -7.2515e-22)
(0.999969 -1.41327e-05 -9.59937e-25)
(0.973681 -0.0795015 -1.79626e-21)
(0.891207 0.0727829 -1.08014e-20)
(0.99401 -0.00475248 9.73011e-22)
(0.998981 -0.00443671 6.42526e-23)
(1.01401 -0.0142753 -1.41632e-22)
(1.00751 -0.0461297 1.30737e-21)
(1.07023 0.0369832 1.92273e-21)
(0.999696 -0.00957858 -3.25986e-23)
(0.999972 -4.93508e-05 6.67089e-24)
(1.00001 -2.31843e-06 6.3594e-26)
(0.99743 -0.000580172 -4.76366e-23)
(0.965777 0.105968 1.27226e-20)
(1.04933 -0.0219924 7.70573e-22)
(1.10243 -0.181604 -1.88453e-21)
(1 -9.26165e-06 4.05474e-26)
(1.07159 -0.180095 7.28032e-22)
(1.07222 0.00791541 -2.37101e-21)
(0.995024 -0.000161038 -2.9642e-22)
(0.930942 -0.00783176 -3.81768e-21)
(0.999061 -0.00435767 -6.46437e-23)
(0.999594 -0.000185996 -4.41187e-24)
(0.977788 -0.0301471 -4.32127e-22)
(1.00088 -0.00110913 -5.87615e-23)
(1.16427 0.00682492 1.24783e-21)
(1.00875 -0.00101719 -1.7225e-21)
(1.12976 0.11277 -4.35629e-21)
(0.999927 -0.00230195 1.4494e-23)
(1.00459 -0.0134225 6.2801e-23)
(1.00525 0.00971809 -1.40099e-20)
(1.22187 0.0480088 4.83527e-22)
(1.0004 -0.000563411 -3.40714e-23)
(1.00042 -0.000499204 3.33706e-24)
(0.992323 0.0753275 1.32633e-21)
(0.999643 -0.0546983 -4.14582e-22)
(0.999522 -0.00943984 3.96068e-23)
(1.01005 0.0299602 1.67136e-21)
(0.976582 0.0171703 3.46961e-20)
(1.13188 -0.0571901 -7.79785e-22)
(1.00042 -0.0259235 -1.82904e-22)
(1.15799 0.0824894 4.68828e-21)
(0.999282 -7.03086e-05 -4.49944e-23)
(0.991467 -0.00424097 2.58069e-22)
(0.996777 -0.000267217 -1.62606e-22)
(1.01239 0.0258766 1.9589e-23)
(0.999987 -0.000736032 2.26994e-24)
(1.00846 -0.00123535 1.75987e-21)
(1.18555 -0.0879561 1.24727e-22)
(0.997705 0.103126 3.21557e-20)
(0.932169 0.104542 -5.0536e-21)
(0.994112 -0.00277027 3.43558e-23)
(0.991508 -0.0079426 2.80479e-22)
(1.03881 0.0901932 -9.19608e-21)
(1.01759 -0.0585558 1.44859e-21)
(0.999951 -7.23322e-06 -1.03216e-23)
(1.14977 0.122284 9.42462e-21)
(1.02334 0.00175305 -1.88267e-21)
(1.02288 0.00170591 -1.27042e-21)
(0.994658 -0.0136146 -4.04008e-22)
(1.01749 -0.00175681 -2.66408e-21)
(0.95911 0.0952401 4.99179e-21)
(1.16547 -0.122742 -1.10328e-21)
(0.981628 0.0945124 5.12083e-21)
(0.992286 0.0939635 -9.10725e-21)
(0.999997 -6.15993e-05 7.08598e-25)
(1.09173 -0.0238154 -5.63401e-22)
(1.16351 -0.117002 7.22301e-22)
(0.997392 -0.00383992 1.12418e-22)
(1.00158 -0.00142062 -9.47288e-23)
(0.972459 0.0199033 8.26273e-21)
(1.05108 -0.0224268 -9.96213e-22)
(1.00027 -7.34674e-05 5.56081e-24)
(0.985854 -0.0650465 -4.16571e-21)
(0.976116 -0.0947516 -1.69778e-21)
(0.99453 -0.00188911 3.89031e-22)
(0.999887 -0.000203621 -9.531e-24)
(1.0327 0.106491 -1.55169e-21)
(1.03136 0.0480874 1.33801e-20)
(1.00005 -0.000500131 -4.08717e-25)
(1.00398 -0.0035459 7.50718e-23)
(1.0051 -0.00353071 4.07229e-22)
(1.20381 -0.0335784 2.67666e-21)
(0.972405 -0.0428181 -3.12083e-21)
(1.00006 -0.000594779 -1.46486e-24)
(0.999988 -2.10862e-06 -3.03461e-25)
(1.00047 -0.000162843 8.97701e-24)
(1.06868 0.0375823 -1.9199e-22)
(0.972174 -0.0291745 -1.59855e-21)
(1.00174 0.0411815 6.59193e-21)
(0.943834 -0.0540492 1.8624e-21)
(0.988435 -0.0303665 -9.25249e-22)
(0.975351 -0.00125515 -2.67505e-21)
(1.01138 0.0289476 -8.22559e-21)
(1.1716 0.0726687 2.31416e-22)
(0.998838 -0.000153102 1.08196e-22)
(1.00769 -0.00567885 -4.35874e-22)
(1.00082 -0.00109813 6.65731e-23)
(0.980586 0.103262 -1.28879e-20)
(0.974247 -0.0263135 8.59842e-22)
(1.00105 -0.000279054 -3.22233e-23)
(0.992506 -0.00376056 -3.51814e-22)
(1.14524 0.0141231 1.67879e-21)
(0.999819 -0.0102901 -8.39124e-23)
(0.988574 -0.013258 -1.93065e-22)
(1.00022 -0.000139818 -1.66983e-23)
(1.00023 -5.30032e-05 -7.37189e-25)
(0.888387 0.0779358 1.62745e-20)
(0.991805 -0.00136935 -4.51635e-22)
(0.995267 -0.00488012 3.99001e-22)
(0.999634 -0.00187844 -5.27354e-23)
(0.999301 -5.36922e-05 -6.17005e-24)
(1.03483 0.0755799 -4.99218e-21)
(1.19144 -0.0857617 2.19439e-22)
(0.987527 -0.0462279 5.43436e-22)
(1.00001 -1.69486e-06 -8.39715e-26)
(0.999999 -3.64343e-05 3.03502e-25)
(0.9732 -0.0273215 2.25847e-21)
(0.993248 -0.00199545 9.29367e-23)
(0.994856 -0.00226248 -5.35766e-23)
(1.01396 -0.00497356 8.34487e-22)
(1.00569 -0.00238305 1.46138e-22)
(1.00092 -0.0171333 -9.47934e-23)
(1.11651 0.00862972 2.94295e-21)
(0.980974 -0.00480756 -5.59258e-22)
(0.983115 0.0928002 -4.36079e-21)
(1.01579 -0.0254611 -2.14886e-22)
(1.00024 -0.000140507 1.85999e-23)
(0.971712 -0.0746169 1.66773e-22)
(0.985091 -0.0410434 -1.92028e-21)
(1.14996 0.0454411 2.11326e-21)
(0.997197 -0.00634665 -1.18706e-22)
(0.992571 -0.0539801 -6.32646e-22)
(0.999981 -6.42266e-06 1.70772e-24)
(0.941703 0.0764712 -1.72604e-20)
(1.01476 -0.00205262 1.50994e-21)
(1.00008 -0.000238939 -4.86914e-24)
(0.926698 0.0205004 -2.3015e-20)
(0.986418 -0.0465677 1.22018e-21)
(0.999981 -7.0008e-06 2.66701e-25)
(1.00143 -0.00129426 2.79526e-23)
(0.972336 -0.0780334 -9.88933e-22)
(1.04256 -0.0327602 3.53832e-22)
(1.04681 -0.00727743 1.93485e-21)
(0.999993 -3.14525e-06 4.85991e-25)
(0.991764 -0.000698318 3.5877e-22)
(1.02798 -0.0476427 6.1122e-22)
(0.994684 -0.00173206 5.38236e-22)
(0.999555 -4.89864e-05 -1.44418e-22)
(0.991638 -0.00437736 7.53094e-24)
(0.980059 0.0352442 2.06397e-21)
(0.993053 -0.0134559 -4.98242e-22)
(0.989068 -0.0129643 1.41968e-22)
(1.00165 0.0254609 -6.77508e-21)
(0.997263 -0.00237139 1.2828e-22)
(0.97639 0.104583 -1.58901e-21)
(0.99998 -6.82456e-06 -8.63891e-25)
(0.990692 -0.0303909 3.72434e-22)
(0.989761 -0.0905899 4.07484e-21)
(0.993752 -0.0542018 1.07183e-21)
(1.2021 0.00548745 9.35273e-23)
(0.998871 -0.00581365 1.59572e-22)
(1.01081 -0.0243283 9.99525e-23)
(0.999923 -0.00247936 3.16729e-24)
(0.983082 -0.0240403 -1.10156e-21)
(1.04465 -0.0356803 1.32907e-22)
(0.99997 -1.33321e-05 4.94719e-24)
(1.00001 -6.34596e-07 -1.44122e-25)
(0.993593 -0.000446118 2.45343e-22)
(0.982747 0.0661288 1.33386e-20)
(1.01379 -0.0196671 8.82164e-22)
(1.0026 -0.00363309 -1.18493e-22)
(0.926747 -0.0407022 2.64019e-21)
(1 -8.27131e-06 1.19085e-25)
(1.00097 -0.0012108 -1.06902e-22)
(0.999964 -0.000701564 -1.64629e-24)
(1.01509 -0.0186907 9.67519e-22)
(0.982924 -0.0177293 1.97269e-22)
(0.999624 -0.000291179 1.83474e-23)
(0.993474 -0.0119875 1.86322e-22)
(0.987328 -0.00769602 -2.0651e-22)
(1.00101 -0.000166979 -8.88256e-24)
(0.99998 -7.32e-06 -5.35392e-25)
(1.18965 0.0410245 1.41879e-21)
(0.999672 -0.001847 5.67172e-23)
(1.07113 0.00309422 1.81639e-21)
(1.00886 0.10142 3.37904e-20)
(1.0355 0.0887848 -8.35016e-21)
(1.00155 -0.0216797 -3.54251e-22)
(1.00557 -0.00215797 -4.84418e-23)
(1.01779 -0.00139405 1.63363e-21)
(0.999972 -0.00253477 -3.60008e-24)
(0.99799 -0.0110331 1.9069e-22)
(1 -1.52761e-05 4.7356e-25)
(0.990221 0.0941787 -6.80819e-22)
(0.987799 -0.0175262 2.73711e-22)
(1.01367 -0.00458536 -5.96305e-22)
(0.98142 -0.00498417 1.16543e-21)
(1.00409 -0.0132256 6.23884e-24)
(0.997368 -0.00623859 2.60013e-22)
(0.999898 -0.000208435 2.27645e-24)
(1.00001 -8.9901e-07 -8.22436e-25)
(0.995431 -0.00485789 -2.90584e-22)
(1.0534 -0.00489321 -1.07915e-21)
(1.00389 0.0414522 1.05122e-21)
(1.00122 -0.000495897 -1.30966e-22)
(0.976599 -0.0686596 -9.07718e-22)
(0.974128 -0.0255308 -3.79492e-22)
(0.99197 -0.000548495 -1.34748e-21)
(1.16476 0.108905 -3.60864e-21)
(0.9987 -0.00101273 -6.47706e-23)
(1.00426 -0.0149744 -1.7387e-22)
(0.994447 -0.00298197 2.72255e-22)
(0.999907 -0.00020062 1.91115e-24)
(0.973081 -0.081743 1.12853e-21)
(1.00171 0.0365822 -1.0394e-20)
(1.02486 0.0377045 -8.80267e-21)
(0.976428 -0.0169348 -1.832e-22)
(1.00124 0.0350082 -4.68319e-22)
(1.00008 -0.000224052 9.14878e-24)
(1.00001 -7.82336e-07 2.44167e-25)
(1.14865 0.119509 -3.55272e-21)
(1.15502 0.0480494 -2.01899e-21)
(0.929365 0.0780523 -8.48174e-22)
(1.01082 -0.0915576 2.91657e-21)
(0.975628 -0.00173121 -8.54906e-22)
(1.14162 0.0177068 -2.32844e-21)
(1.00116 -0.000517881 1.48252e-22)
(0.994247 -0.00402299 1.55823e-22)
(1.00045 -0.000173096 -8.59762e-24)
(0.988996 -0.000776753 -2.88342e-22)
(0.988077 -0.0142981 -4.0196e-22)
(0.999995 -3.24675e-05 -1.88552e-24)
(0.999129 -3.41405e-05 2.56146e-23)
(0.997467 0.100942 -3.14401e-20)
(0.99987 -0.000728694 2.13261e-23)
(0.948022 0.0705453 2.17667e-20)
(1 -1.41939e-05 -3.59972e-25)
(1.20045 0.0777729 2.44743e-21)
(1.0716 0.00143043 -3.83683e-21)
(1.11522 0.0109101 -3.26336e-21)
(1.00104 -0.00049217 8.8416e-24)
(1.00018 -4.21649e-05 1.472e-23)
(0.986272 0.0627197 -2.03306e-20)
(1.07302 0.00593452 7.70675e-21)
(0.989407 -0.0926455 -3.69985e-21)
(1.01753 0.0359678 3.97964e-21)
(0.998655 -0.0222524 1.56271e-22)
(0.986123 -0.00589683 -3.00673e-22)
(0.995899 -0.000230618 -1.62982e-22)
(1.07838 0.141611 -1.81923e-20)
(0.975632 -0.0304767 1.39673e-21)
(1.03592 -0.0306877 -7.02369e-22)
(0.993743 -0.0118661 -1.06961e-22)
(1 -8.28647e-06 -1.24604e-27)
(0.998713 -0.000955858 -5.50681e-23)
(1.00607 -0.00604678 2.56035e-22)
(0.980763 -0.00890922 1.49293e-21)
(0.977076 -0.0170487 2.74254e-22)
(0.954576 -0.0480487 -4.14895e-22)
(0.980564 -0.00945456 -1.1324e-21)
(1.01663 0.00258969 7.28374e-22)
(0.997874 -0.000146953 3.38269e-24)
(0.93378 -0.0462724 1.35565e-21)
(0.985363 -0.00100559 -4.13485e-22)
(1.00004 -0.000216151 5.38159e-25)
(0.987281 -0.000799567 -2.85927e-22)
(1.03712 -0.033391 -1.16959e-21)
(1.01594 0.00276122 -4.0286e-21)
(0.973356 -0.030804 -3.47548e-22)
(0.999988 -5.55584e-07 -7.95903e-27)
(0.982097 -0.0181628 2.95727e-22)
(1.00272 -0.0154062 1.9634e-23)
(1.00139 -0.00120182 3.58434e-23)
(1.18912 -0.110989 -3.23533e-21)
(1.00133 0.034211 -2.40032e-20)
(1.00091 -0.00119639 9.91616e-23)
(0.987505 -0.00060193 4.00006e-24)
(1.12354 -0.0607299 -3.94508e-23)
(1.02485 0.000603808 6.35845e-21)
(0.991455 0.0257676 -2.22826e-21)
(1.00187 -0.00254212 3.19613e-23)
(1.00144 -0.0226108 1.11202e-22)
(1.065 0.109846 -2.81944e-21)
(1.0133 0.023145 -2.05799e-20)
(0.991823 -0.030189 9.83835e-22)
(1.00481 -0.00354126 -4.56016e-23)
(0.949716 -0.0576015 1.90062e-21)
(0.999997 -3.73684e-06 3.61769e-25)
(0.946193 -0.00243453 -1.38895e-21)
(1.00008 -7.02279e-05 1.85314e-24)
(1.12118 -0.0633318 -2.08866e-21)
(0.999971 -2.66525e-06 -5.5271e-25)
(1.00002 -6.13717e-05 5.74975e-25)
(1.00129 -0.0253691 -1.32844e-22)
(1.17487 0.0810735 -2.71635e-21)
(1.01828 0.126265 1.42105e-20)
(1.04069 -0.0337617 -1.84769e-21)
(1.01463 -0.0148761 4.82447e-22)
(0.999999 -2.5876e-06 -1.09306e-25)
(0.993788 -0.00479083 -5.25317e-22)
(1.00008 -2.1927e-05 -1.42203e-24)
(0.996826 -0.00253015 1.83374e-22)
(1.00003 -5.69272e-05 -4.38964e-25)
(1.04653 -0.00557026 -6.03698e-21)
(0.999531 -0.000486127 -7.15211e-23)
(1.04343 0.0520151 8.8439e-21)
(0.999877 -0.000222734 -1.45598e-23)
(0.986645 -0.00575096 -5.10055e-22)
(0.95512 -0.00128937 3.21382e-21)
(0.995684 -0.000314196 -2.10381e-22)
(0.986098 0.0359749 2.14092e-20)
(0.981903 -0.000800678 7.81786e-22)
(1.04747 -0.110372 2.28666e-22)
(0.994401 -0.00421733 8.07268e-22)
(1.02408 -0.0020505 -1.34649e-21)
(0.973755 -0.0700948 3.94322e-21)
(1.01887 -0.00127564 -4.54908e-21)
(1.05358 -0.0680727 -7.54266e-23)
(0.999988 -1.66224e-06 8.0721e-26)
(1.00018 -0.0214444 1.24748e-22)
(0.995967 -0.000304117 2.56084e-23)
(1.00024 -9.50799e-05 1.12811e-23)
(1.00008 -1.86211e-05 2.33234e-24)
(1.08115 0.14356 1.9788e-20)
(0.995029 -0.00226834 4.52027e-22)
(1.02446 0.00137503 7.23648e-21)
(1.00216 -0.0230994 1.33957e-22)
(1.00086 -0.000313502 3.41345e-23)
(1.02311 -0.00723164 -5.02077e-21)
(1.00016 -3.92948e-05 -3.2106e-23)
(0.999979 -4.27471e-06 -7.58508e-26)
(0.946889 -0.00323996 1.0726e-21)
(0.996465 -0.00128489 2.04734e-22)
(1.00003 -5.5427e-05 8.16438e-25)
(1.04384 0.0889701 6.3265e-21)
(0.900799 0.0632005 -3.04406e-20)
(0.999794 -0.000236211 3.47808e-23)
(0.95723 -0.00259252 -8.85568e-22)
(1.00001 -8.96021e-07 1.78881e-25)
(0.956392 0.093235 -2.02506e-20)
(1.2041 0.0815859 2.76895e-21)
(0.9722 -0.0558903 -3.21622e-21)
(1.00005 -0.000575143 -1.54715e-24)
(1.03454 -0.0297175 1.62651e-21)
(1.02873 -0.0012692 -1.85721e-21)
(1.02913 0.00140661 5.40294e-22)
(1.04803 -0.00768651 -7.56301e-22)
(0.999641 -0.00198064 -8.85747e-24)
(0.999867 -0.00087468 1.8335e-23)
(0.98582 -0.0175263 -8.74448e-22)
(1 -7.38279e-06 3.18475e-25)
(1.00001 -7.86931e-07 -4.50296e-26)
(0.974628 -0.0299953 -8.23831e-22)
(1.00479 -0.0688593 -1.58025e-21)
(0.955984 -0.0470275 -1.06715e-22)
(0.9184 0.0884636 -6.20418e-22)
(1.00019 -2.56348e-05 -1.36438e-23)
(1.03031 -0.082565 -3.11429e-21)
(1.00744 -0.00533698 -4.48016e-22)
(0.99998 -4.6614e-06 8.72158e-25)
(0.999002 -0.00412898 -1.4067e-22)
(1.00003 -0.000486426 -5.88853e-25)
(0.995787 -0.0137472 3.04816e-22)
(1.00004 -1.01103e-05 1.27145e-24)
(1.05527 -0.0662014 -1.65176e-22)
(1.01854 -0.00156751 4.41201e-21)
(0.977625 0.102761 4.47821e-21)
(1.02361 -0.0019705 5.05619e-21)
(0.999729 -0.000230615 2.71333e-23)
(1.00045 -0.000403127 -3.30125e-23)
(1.20638 -0.0389786 -2.77218e-21)
(1.02447 0.00112057 -5.82314e-21)
(0.996884 -0.000414501 1.83918e-22)
(1.00001 -1.54084e-06 3.87746e-25)
(1.05683 0.0814138 -1.05902e-20)
(1.16298 -0.167105 -1.58367e-21)
(1.01049 -0.0893102 -1.29095e-21)
(0.984948 -0.000857281 -2.19127e-22)
(0.999984 -1.96338e-05 1.7681e-24)
(0.999732 -0.000217309 -1.58772e-23)
(1.1719 -0.167752 4.47441e-21)
(1.00281 -0.0544823 -4.33219e-22)
(1.03167 0.0284699 1.25664e-21)
(0.982731 0.0896923 1.88068e-20)
(1.04515 -0.107553 1.74627e-21)
(0.998747 -8.75181e-05 -3.36898e-23)
(0.999983 -9.51491e-06 -2.05122e-24)
(0.963216 -0.0607921 3.1828e-21)
(0.988523 -0.121797 -4.15127e-21)
(0.999801 -0.00024461 1.88054e-23)
(1.01137 -0.0235792 4.33198e-22)
(0.992094 -0.0293362 -1.71602e-22)
(0.995289 -0.00242995 1.78402e-22)
(0.998401 0.0276097 -1.71226e-20)
(0.998717 -0.000571752 1.19881e-22)
(1.06147 -0.0444767 2.08206e-22)
(1.12456 0.13601 -8.70417e-21)
(0.992085 -0.00355372 -5.13402e-22)
(0.927552 0.0736957 -3.07185e-21)
(0.933653 0.0349392 9.66547e-21)
(0.999972 -5.21599e-05 -6.71891e-24)
(0.999973 -0.000767304 -2.0454e-24)
(0.98213 -0.00106272 -5.01069e-22)
(1.01302 -0.00457964 -1.07939e-21)
(0.959123 -0.00238162 1.84315e-21)
(1.00525 -0.00438491 -4.68601e-22)
(0.992375 -0.00356097 4.80689e-22)
(0.999437 -0.000520248 -5.40837e-23)
(0.96348 0.0935737 -3.60693e-21)
(1.04419 0.0501133 -1.37913e-20)
(1.0023 -0.00245948 8.23979e-23)
(0.865855 0.040698 -5.96466e-21)
(1.00001 -4.88215e-07 -2.51549e-25)
(1.02229 0.00630998 -1.00148e-20)
(1.00782 -0.11374 2.88439e-21)
(1.03306 -0.081909 1.21018e-21)
(1.00009 -0.000217501 -4.49877e-25)
(0.957042 -0.00131171 1.51755e-21)
(1.02004 0.00552143 5.61843e-21)
(1.01271 -0.00492244 8.93713e-22)
(1.02807 -0.000443677 2.56775e-21)
(0.999567 -3.82148e-05 1.01809e-22)
(0.999524 -0.000518675 6.47866e-23)
(1.03105 -0.0456185 1.04905e-22)
(0.996523 -0.00138486 -5.86898e-22)
(0.987094 -0.0130381 -9.49342e-22)
(0.999122 -0.00373879 8.33636e-24)
(1.0662 0.0426537 7.24142e-21)
(0.999983 -0.0223817 -8.68115e-23)
(0.994989 -0.00517111 9.4639e-24)
(0.922222 -0.0346423 -3.90646e-21)
(0.994188 0.0753564 2.17821e-21)
(1.11356 -0.0107158 -2.41357e-21)
(1.02258 -0.00695921 4.0371e-21)
(0.999611 -0.000186602 1.95075e-23)
(0.999498 -0.000338497 8.76159e-24)
(0.982238 -0.0238038 2.22237e-21)
(1.001 -0.00130323 -7.97764e-23)
(0.997394 -0.000729235 -3.33243e-23)
(0.999984 -1.8454e-05 -6.67468e-25)
(0.999679 -0.00201756 1.7964e-24)
(1.01951 0.00507338 -2.18285e-21)
(0.985458 0.0653312 -1.94718e-20)
(0.999881 -1.53748e-05 4.48656e-24)
(1.09636 0.136089 -1.70158e-20)
(0.999995 -4.07422e-05 7.94686e-25)
(0.996727 -0.00299847 2.49169e-22)
(0.999993 -9.74584e-05 8.91009e-25)
(1.00527 -0.00379309 -2.0749e-22)
(1.19368 0.0394213 -1.00769e-21)
(0.999964 -4.33003e-05 5.15498e-25)
(0.999963 -4.64892e-05 3.74224e-24)
(0.942605 -0.0547912 -1.77805e-21)
(1 -7.42409e-06 1.68241e-27)
(1.05102 -0.00692687 6.37077e-21)
(0.990277 -0.0470727 1.73199e-21)
(0.999976 -0.000674102 1.88326e-24)
(1.05884 0.0659607 -8.24419e-21)
(0.999999 -2.94634e-05 -6.53955e-25)
(0.999617 -3.97326e-05 8.94958e-23)
(0.999918 -3.63824e-05 1.47755e-25)
(0.995173 -0.00517943 -1.49641e-22)
(0.999665 -0.00160762 -2.74921e-23)
(0.993718 -0.000337468 -1.64903e-22)
(1.02696 -0.136015 -3.35146e-22)
(0.999702 -0.00156517 1.83264e-23)
(1.00423 -0.00355598 -1.61195e-22)
(0.999979 -3.23076e-06 -3.23056e-25)
(1.01983 0.124169 -2.7709e-20)
(1.06002 -0.0461033 4.79536e-22)
(1.11641 -0.0103324 -2.21601e-22)
(0.9622 -0.0070788 1.98798e-21)
(0.976141 -0.00487133 -3.63836e-22)
(0.999091 -0.00403613 2.32077e-22)
(1.00294 -0.00272893 2.24255e-22)
(1.03406 0.0597787 3.65489e-21)
(0.984481 -0.0423395 2.61055e-22)
(1.08063 0.100605 4.0926e-21)
(0.952489 -0.0163908 -3.5906e-21)
(0.996608 -0.00289624 -2.34994e-22)
(0.999992 -3.83779e-06 -8.68912e-25)
(0.994254 -0.00299474 -3.2826e-22)
(1.00312 0.118232 6.83231e-21)
(1.05137 0.0715063 -1.90412e-21)
(0.987571 -0.0643159 1.41282e-21)
(0.934033 -0.00726654 8.36232e-22)
(1.02349 0.118871 7.60438e-21)
(0.99134 -0.00062668 4.26514e-22)
(0.999579 -0.10467 2.28764e-22)
(0.999993 -9.31283e-05 2.02508e-24)
(0.989049 -0.0474535 2.16561e-21)
(0.999183 -0.000234467 -1.27161e-22)
(0.876673 0.0686903 -1.71263e-20)
(0.987683 -0.0860821 -3.09668e-21)
(0.999921 -3.26647e-05 8.53764e-24)
(0.929911 -0.0237947 -2.19535e-22)
(0.984637 -0.0449846 1.17008e-22)
(1.02314 0.0634817 1.27829e-20)
(0.99743 -0.000795606 -3.15077e-22)
(0.982287 -0.0436166 -7.8117e-22)
(0.997812 -0.0113232 -2.65273e-22)
(1.00129 -0.0244879 -2.77233e-22)
(0.998751 -0.000581464 -8.19223e-23)
(1.02231 0.0622077 -1.55211e-20)
(1.08815 -0.182545 3.17987e-21)
(0.982067 -0.0189138 -6.56273e-22)
(0.986351 -0.0162604 1.38746e-23)
(0.986756 -0.00542896 -2.05076e-22)
(1.00523 -0.00207187 -1.90025e-22)
(1.02486 0.116172 3.00676e-20)
(0.981842 -0.0153362 2.99072e-22)
(1.012 0.0339485 8.66601e-21)
(1.0027 -0.00219531 1.70538e-22)
(1.20413 0.0109603 -1.20209e-22)
(0.945776 0.0755136 3.1801e-21)
(0.991165 -0.000489537 -1.47266e-21)
(0.999784 -4.10277e-05 1.80124e-23)
(1.03314 0.077303 3.88364e-21)
(0.995485 0.0969424 -2.54137e-20)
(1.02987 -0.0440096 -7.42349e-23)
(1.08684 -0.0276907 2.73352e-22)
(0.99558 -0.0142781 -3.37536e-22)
(0.962804 -0.00639107 -1.17731e-21)
(1.06342 0.107675 1.14046e-20)
(0.961632 -0.0612148 5.44518e-22)
(0.999982 -1.90122e-05 2.27104e-24)
(0.992512 -0.000120149 -7.59381e-22)
(1.00003 -5.29219e-06 1.24889e-24)
(0.995533 -0.000282272 5.70668e-22)
(0.999981 -2.05057e-05 -3.54093e-24)
(0.998476 -0.0158106 4.33049e-22)
(0.99907 -3.8077e-05 4.51373e-23)
(0.99732 -0.0059138 3.03477e-23)
(1.20422 -0.0194935 -3.84953e-22)