/*--------------------------------*- C++ -*----------------------------------*\
  =========                 |
  \\      /  F ield         | OpenFOAM: The Open Source CFD Toolbox
   \\    /   O peration     | Website:  https://openfoam.org
    \\  /    A nd           | Version:  7
     \\/     M anipulation  |
\*---------------------------------------------------------------------------*/
FoamFile
{
    version     2.0;
    format      ascii;
    class       volScalarField;
    location    "33";
    object      p;
}
// * * * * * * * * * * * * * * * * * * * * * * * * * * * * * * * * * * * * * //

dimensions      [0 2 -2 0 0 0 0];

internalField   nonuniform List<scalar> 
19930
(
0.00217418
0.00417576
-0.00314138
-8.30933e-05
-0.00316553
-0.0033626
-0.0902885
0.282935
-0.0390739
0.264381
-0.0900376
-0.0272522
-0.0219664
0.00197651
9.96715e-05
-8.64843e-05
-0.155347
0.153184
-0.0512926
0.00463438
-0.0368886
-0.0197676
0.25464
-0.124944
-0.00464427
0.724607
-0.0032906
-0.0216087
-0.165645
-0.0537365
2.9569e-05
0.926889
0.131576
-0.0101982
-0.000579131
-0.000133151
0.319673
0.000126926
-0.00756741
0.110811
-0.00341243
0.204128
0.535175
-0.00307067
0.729431
0.00967147
0.270971
-0.0940558
0.000183591
-0.0161587
-0.000579348
0.00748105
-0.131586
-0.00134538
-0.157749
-0.00225842
-0.0106503
-0.000253103
-0.0191966
-0.153366
0.818024
0.00566939
0.0013383
0.223064
0.000478196
-0.00185285
0.712474
-0.00182535
-0.0437536
0.718182
-0.0166111
-0.168769
0.000102799
-0.0134738
0.727418
-0.0397506
0.702261
-0.000390829
0.11132
0.652524
-0.0016368
-0.00206658
-0.159994
-0.0367043
0.00670622
0.544432
-0.0182407
1.0512
0.227774
0.786121
0.226747
-0.000174609
-0.000109253
0.992105
-0.104836
0.00167269
1.0038
-0.00110872
-0.079322
0.386096
0.797283
-0.00123877
0.823575
-0.0971933
0.0396191
-0.0428137
0.607096
-0.0716603
0.00859621
0.520673
-0.175717
-0.0892863
-0.00691226
-0.0089325
-0.0349182
-2.21911e-05
0.491884
-0.00170625
-0.110933
0.638249
-0.000167915
-0.0448804
0.111811
-0.0239876
-0.0102646
0.15278
0.0412471
-0.0208468
0.943614
0.511825
-0.0259066
-0.0143891
-0.0032425
-0.00636536
0.625062
0.0317137
-0.0645771
-0.0412899
-0.00098525
-0.0449974
-0.0467576
-0.0148949
-0.181331
0.839761
-0.042474
0.636424
0.0959074
0.000497689
0.0324002
-0.00377161
0.00164736
0.70307
-0.000101957
-0.0312115
-0.00199537
0.0924229
0.561506
-0.13062
-0.00188867
-0.0233046
-0.167846
-0.0830298
-5.13955e-05
-0.0342969
0.0823602
1.03721
-0.000549765
-0.145007
-0.0373477
0.31698
-0.0701068
0.750116
0.439425
-0.00854526
1.08508
0.113304
0.00150912
0.789012
-0.0335898
0.559287
0.650409
0.000116751
0.84487
0.467274
0.00445932
-0.00269476
-0.0154853
0.359628
-0.0964615
0.954971
0.0527292
-0.108182
0.400845
-0.0359621
-0.00350839
-0.0093116
0.835448
-0.10046
0.00371029
0.970436
-0.0383209
-0.152256
-0.12057
0.928199
0.87192
-0.00776986
-0.0142531
0.00912261
-0.00265279
0.00117628
0.700899
0.783773
-0.00151398
-0.0122013
0.547942
0.726745
0.00346345
0.638586
-0.0655447
-0.0055331
-0.022419
0.569215
0.879098
0.233412
0.523955
-0.00181195
-0.0136738
-2.63551e-05
0.00280015
-0.00241235
0.11104
-0.0823425
0.595685
-0.043747
0.573546
-0.0174388
-0.0352782
0.743057
1.01563
0.558099
0.694033
-0.0108452
0.25382
-0.0228882
0.04597
-0.00123582
-0.189741
-0.0442133
0.0068051
0.000170462
0.00846516
0.889758
0.0745805
-0.00837816
-0.0212172
-0.0803178
-0.114363
0.229018
-0.0421704
0.0107955
-0.0255609
-0.00875908
0.000588384
-0.0164847
-0.0793561
0.835303
-0.12037
-0.00628293
0.583147
0.86403
-0.0178913
-0.000490689
-0.0323057
0.715054
-0.189115
0.810348
-3.12616e-05
-0.0147113
0.483012
0.700062
-0.0307351
-0.00942867
0.942921
-0.132814
-0.108924
0.815706
0.945395
-0.0198287
0.4901
0.0439642
0.642556
0.434229
-0.00049063
-0.13358
0.339159
0.0016146
-0.0546706
-0.0770981
-0.175203
-0.0413274
-0.0303737
-7.88725e-05
-0.000745004
0.775115
-0.00416569
-0.0698204
-0.0279476
-0.00374819
0.00427073
0.544058
-0.00628153
-0.0269842
-0.00208102
0.288914
0.015203
-7.05799e-05
0.790521
0.51292
0.77855
-0.149088
0.000505117
0.930419
-0.000516741
-0.0171186
0.00160389
-0.0877129
-0.0168908
-0.140089
0.568052
0.992173
0.661478
0.0458273
1.10232
-5.67281e-05
-0.00841002
0.70039
-0.153555
0.339265
-0.0125621
0.720023
0.00335258
-0.000955618
0.00410643
0.490235
-0.138209
0.833472
0.415949
0.000304181
-0.0066704
0.17939
0.16875
0.00405881
0.440254
-0.0173416
1.08542
-0.045131
-0.000372092
0.00725273
0.645905
0.458655
0.00366096
0.298661
0.784694
-0.0043437
0.473954
0.54798
1.08832
-0.000260644
0.0600909
-0.0449026
-0.00528757
0.000251546
0.738831
0.196755
-0.0959166
0.72742
0.0608398
-0.00962949
0.249614
0.0867098
0.0866786
1.09096
-0.03862
-0.0146827
0.778204
-0.0212381
0.0288172
-0.0823622
0.175303
0.00993561
0.250343
-0.0987461
-0.0138925
-0.00183891
0.278974
0.768504
0.478327
-0.160818
-0.00829078
0.914026
0.91699
-0.00130762
-0.013527
0.622455
-0.0643708
-0.0397558
0.244758
0.00679885
1.13936
-0.026026
0.0734457
-0.000911628
0.777129
0.410801
0.0112534
-0.0515588
-0.10945
-0.0384756
-0.00124573
0.629318
-0.173797
0.248219
1.06879
-0.157661
-0.0312187
-0.00246466
-0.0930182
-0.109978
-0.00601487
0.311563
-0.000457814
-0.0138817
-0.00531908
-0.120049
-0.0156316
0.000160847
-0.0250148
-0.0209955
-0.148991
-0.0298977
-0.00851479
-0.0629324
-0.0178236
-0.0184685
0.00343369
-0.00183598
-0.0447487
-0.0737546
-0.00389782
-0.0276962
0.0282843
0.467882
-0.0323355
0.000352728
0.975017
-0.00380079
-0.000443383
-0.00348731
-0.0129337
-0.03068
0.862675
-0.0202525
0.0526835
-0.0624283
-0.0669748
0.237893
-0.0176663
-0.0280244
-0.0517396
0.000213095
-0.0917458
0.997159
-0.112272
-0.0194563
0.323035
-0.0202007
0.435386
0.0220432
-0.000513019
0.00113629
0.530178
1.05237
-0.114314
0.0737034
-0.0421173
-0.0143734
-0.0153943
0.617159
0.0281026
-0.158853
-0.0806194
0.00852707
0.00273484
0.909505
0.0907093
-0.000108828
0.830186
-0.0250201
-0.0352075
0.461238
-0.00680136
-0.000646324
0.000236899
-0.0554718
-0.00448092
-3.80703e-05
0.060109
-0.190797
0.637326
0.000573761
-0.00134211
-0.0205437
-8.51038e-06
-0.117162
-0.16039
-0.00120495
-0.0296272
-0.00487242
0.464255
0.743321
-0.000256721
-0.00157775
-0.041373
0.768486
-0.010976
0.788456
-0.00086083
1.06635
0.497399
0.167661
1.02375
-0.167463
0.00187812
-0.0429582
-0.0109826
0.740941
0.617966
0.000656837
-0.180506
0.0260748
-0.0395192
0.00328357
-0.189061
-4.8602e-05
0.487603
-0.000317764
-0.0251115
-0.0095087
-0.0233294
0.0925607
-0.0236633
0.00273702
-0.0185971
1.47058e-06
1.06354
0.897052
0.00181896
-0.00160822
-0.0106119
0.611428
-0.00659088
-0.0485721
-0.017071
0.677608
0.155004
-0.00546596
1.12586
-9.90931e-05
0.639636
-0.00296363
-0.0773546
0.828693
-0.0147832
1.0743
0.570294
1.08994
0.00163193
0.00395729
-0.0423254
-0.0388905
-0.00580004
-0.0376867
0.654313
0.688499
0.488906
0.758071
1.0628
0.150525
0.770299
0.48522
-0.00597049
0.543182
-0.025745
-0.0174392
0.000216344
-0.0383867
-0.108707
0.340138
0.0147802
0.651336
-0.0209689
0.0468476
0.616194
-0.0107694
-0.0478225
-1.24925e-05
-0.000326413
0.343648
-0.0283653
-0.0160211
-0.000380594
-0.000780008
0.0195437
0.000372258
-0.102659
1.06269
0.0925526
0.22951
0.0015553
0.57123
-0.085236
-0.0104439
-0.00197716
3.19853e-05
0.000276864
-0.00211616
-0.00954732
-0.0819886
0.279902
-0.0695119
0.00561583
6.3e-06
0.687411
-0.137169
-0.172491
-0.0153598
-0.0514575
-0.042677
0.00806382
0.616583
0.946176
0.348545
0.00856579
0.375815
0.00341034
-0.0165866
0.155266
-0.000114399
-0.00910717
0.0648522
0.160672
-0.00543069
0.595869
0.862789
0.592454
-0.0131075
4.04098e-06
-0.0238543
0.0901108
0.549974
0.00146298
0.826557
-0.0179546
-0.0804477
-0.0310881
0.99456
0.265828
0.629533
-0.168203
1.02575
-0.00442458
-0.0163833
1.09811
0.00455807
-0.0701972
0.629669
0.680236
-0.0134432
0.537828
0.765306
0.675881
0.518255
0.650703
0.452009
0.00126605
-0.00501667
-0.00277832
-0.068589
0.767184
-0.0626213
0.0178938
0.0948962
-0.0177671
-0.0896642
0.0339869
0.787191
-0.0761718
-0.000886495
0.00511849
-0.0197304
-0.138846
-0.158482
-0.0719884
0.510589
0.802794
-0.0328307
0.778904
1.06014
0.00292915
-0.00175598
-0.000796604
0.00147364
0.346352
1.0686
0.094453
0.557652
-0.00648175
0.351596
0.356113
-0.172526
-0.00171185
-0.00893103
0.00493949
-0.0162985
-0.0615514
-0.0138819
-0.0133593
0.607206
0.00172463
-0.0246442
0.673136
-0.0901586
0.940216
-0.0417862
0.480508
-0.152956
-0.0302259
0.821238
0.938549
0.76624
-0.0108328
0.953896
-0.0116652
0.805162
-0.0284916
0.757744
-0.0176904
-6.48011e-05
0.76299
0.821605
0.80372
0.764222
0.359132
0.0376112
0.393963
-0.069866
0.764311
0.593909
-0.116486
0.0169884
0.000781588
-0.169152
0.573454
-0.0093162
0.00358332
0.787334
0.776307
-0.0248422
0.741818
-0.0821879
-0.041869
0.00663751
0.797743
0.817729
1.0604
0.777103
0.00185481
-0.00750607
0.000292614
-0.0318378
0.935443
0.179043
0.536072
-0.0117675
0.487292
-0.00989783
0.938496
-0.0576978
0.784768
0.00588591
0.903403
0.967679
-0.00738492
0.0187344
0.894865
0.00215641
0.993042
-0.0316857
0.0026612
-0.00143914
0.650919
0.105041
-0.0486757
0.728032
1.00111
0.364675
3.4447e-06
-0.0268693
-0.0459565
0.77175
0.963002
1.11952
0.182574
-0.00287401
0.00951358
0.564024
-0.00282022
0.00196121
-0.00366902
-0.010009
-0.0900266
-0.144871
0.837364
-0.0180253
0.000206483
0.566418
0.110113
-0.00419599
-0.00175328
-0.00128944
0.128023
0.600405
0.752325
-0.124978
0.0571718
-0.00314977
-0.0645228
0.00134332
0.77747
0.849925
-0.17456
-0.155781
-0.13326
-0.0402876
0.740281
-0.0331251
-0.0936329
-0.0981126
-0.0504954
1.0236
-0.122893
-0.0895637
0.792399
0.00320586
0.00053478
-0.0288874
-0.0924003
0.00171645
-0.000847334
1.01856
0.453435
-0.16927
-0.147543
0.455872
0.726638
0.585567
-0.133373
-0.0172081
-0.0172818
-0.0180458
0.53618
0.00303361
-0.0282547
0.000197264
-0.00493556
0.00103977
-0.106243
0.656593
-0.0766447
0.773524
0.744763
-0.0162691
-0.00921365
1.05065
0.473611
-0.0388691
-0.0104752
0.359071
-0.024341
0.359146
1.01913
0.204425
0.00205664
-0.0120654
0.662658
-0.0204621
-0.0637724
-0.0294638
0.876656
-0.0139821
-0.125241
0.344974
0.133379
0.58242
-0.0256801
0.194166
-0.0353908
0.790274
-0.100372
0.00809394
-0.0351884
-0.0348984
0.00026781
0.00111978
-0.000818167
0.869532
-0.0432489
0.417517
-0.0501349
-0.0709213
-0.0815363
0.185732
1.05774
0.912003
-0.0780146
0.148312
-0.0253083
-0.0803861
0.00427895
0.104655
-0.0123833
-0.00234342
0.55045
-0.0294371
-0.00481364
0.86664
0.591264
0.794605
0.0015403
-0.149935
-0.00753305
0.189245
-0.0398457
-0.000155603
0.886117
-0.045669
0.117869
-0.133846
0.000188911
-0.00799652
-0.00134904
0.0883625
-0.000559689
-0.015347
-0.0142721
-0.0208516
0.92625
1.82091e-05
-0.0312122
-0.00222898
0.966112
-0.00424658
-7.88086e-06
-0.116864
0.138778
0.502712
-0.00771696
-0.0077021
-0.0230674
0.545825
-0.0117312
0.188104
-0.147221
-0.135508
0.075879
0.402087
0.0525983
0.121532
0.00203401
0.573336
0.982804
-0.00204501
0.311502
-0.0388525
1.01269
0.956447
-0.0874588
-0.0819479
-0.118195
0.417737
-0.000278867
0.761549
1.08176
0.00177638
-0.00647689
0.135413
-0.00128987
-0.000666372
-0.00256289
1.06194
-0.0110766
-0.0346631
0.757291
-0.00470854
0.398051
0.793227
-0.0125049
0.898837
-0.0162276
-0.00999009
0.806037
0.196132
0.580972
0.00224731
0.788765
0.0565998
0.753572
-0.057181
-0.00823138
0.00642539
0.889375
0.807468
0.915045
0.777216
-0.157899
-0.0042321
-0.0982499
0.471857
0.756798
0.976918
-0.0143803
0.342185
0.992434
0.671879
-0.00129635
-0.0090219
-0.00132829
0.0278765
-0.0725699
0.851026
0.263168
0.753198
0.0783055
-0.056259
0.759973
-0.11572
0.522808
-0.0997838
-0.0611874
-0.0129428
-0.089317
-0.0544065
0.9613
-0.0495803
-0.0158335
-0.112814
0.158292
-0.051195
-0.0137226
-0.014854
-0.0278503
-0.0654684
0.52413
0.225405
0.618649
-0.15999
0.7979
-0.0752254
-0.000855466
-0.00924885
-0.0221344
-0.124332
-0.146134
-0.00608808
0.161631
0.923373
0.0447335
-0.00906373
-0.0367677
-0.0583483
0.296465
-0.0298844
1.00815
0.184849
-0.00604285
-0.00883412
-0.0349892
-0.0871833
-0.0157178
-0.0286952
-0.0440299
-0.0954591
0.159459
0.945826
0.83872
0.0841535
0.00306765
-0.0145575
0.00149193
-0.00721513
0.563556
0.00653779
0.504992
-0.0683256
-0.0086253
0.930729
0.959028
-0.00108018
0.770635
0.826866
0.0142262
-0.0197895
0.137156
0.564335
0.95731
0.381633
-0.0790254
0.9268
0.0590417
-0.0361601
-0.0387448
-0.0916885
0.989789
-0.027554
0.791286
0.217824
0.909716
-0.057066
0.460184
0.371775
-0.0875918
0.813237
-0.0587513
0.883863
-0.000589606
0.274361
0.529234
0.432995
-0.00273721
-0.103129
-0.000957778
-0.0169967
0.320844
-0.0143344
0.396428
0.262524
1.07389
-0.0300837
0.891408
-0.0248545
-0.022708
-0.0713483
0.766738
-0.0269118
-0.111024
-0.0063437
0.55625
-0.00604657
1.04281
-0.00450044
-0.112756
-0.0837634
-0.00204852
0.781151
-0.0423086
0.84464
0.60778
0.0821301
-0.019926
0.042959
-0.000967873
-0.0258539
0.852023
-0.029629
-0.0857763
0.224323
-0.0514221
-0.0293889
-0.0241057
-0.00172829
0.922969
-0.0126281
-0.0685683
-0.120665
-0.0114467
0.748205
1.0749
-0.00699974
-0.0622824
-0.00415734
0.0317182
-0.00113447
0.0140553
0.965007
0.906104
-0.02908
0.133176
-0.000314521
-0.0150279
0.587368
-0.0173001
0.218411
-0.00519031
1.0529
0.511671
-0.0761122
-0.0205371
-0.0284498
1.04529
-0.0140668
-0.000396801
0.00552859
0.0470969
-0.0751741
-0.00131779
-0.0170848
0.921234
-0.09057
0.999751
1.12189
-0.0143875
-0.0827322
-0.000784888
0.0022484
-0.0642993
-0.0280878
1.03147
-0.00575341
0.00354853
0.521527
-0.0510008
0.588781
0.00455412
-0.144752
0.498936
0.546705
-0.0702952
-0.019618
-0.0567988
0.701983
-0.0129854
0.292083
-0.015461
-0.00718203
-0.0144031
-0.00934859
-0.00234193
-0.0947423
-0.0931899
-0.159669
-0.00443147
0.0276722
0.000390234
-0.0129673
-0.0624213
-0.00764095
-0.0320781
0.930722
0.00440962
-0.0210711
-0.019092
0.676115
0.00133139
0.557218
-0.106317
-0.0996354
0.0060475
0.571928
0.312865
-0.0155696
-0.0332791
-0.0329955
0.374883
-0.000357965
0.539936
0.650647
-0.012893
-0.0669834
0.0659754
0.114098
-0.064344
-0.00704481
0.582844
-0.00439641
0.504387
-0.0170446
-0.010865
0.465717
0.963319
-0.0280164
-0.00639836
0.743695
0.333045
-0.00623973
-0.0318864
-0.106072
-0.00115614
-0.00388371
0.00131274
0.671084
-0.132493
-0.0690848
0.647101
-0.0780682
-0.0171594
0.112642
0.00179156
0.108697
0.525947
-0.0686485
0.407981
-0.00749815
0.906944
-0.0779286
-0.000338086
0.000152699
-0.120992
-0.000747547
-0.00754301
0.0985459
-0.0631253
-0.00509218
-0.026279
-0.00906229
0.159329
0.781791
0.000713442
-0.00452338
-0.0221965
0.417735
-0.0530943
-0.00957643
-0.00334789
0.0381663
0.141092
-0.011214
0.000304018
-0.119569
0.576615
0.6017
-0.027236
0.547794
0.812976
-0.0115228
0.455648
0.117203
-0.0328027
-0.00493441
-0.0330247
1.08406
-0.0165006
-0.0899451
-0.0108129
0.534206
0.000422813
-0.00200748
-0.0133022
-0.015173
0.00153364
0.784672
0.196547
0.385767
0.667285
0.5574
0.005077
0.139661
0.399213
-0.0837525
0.75954
0.129751
0.178906
2.06454e-05
0.362236
-0.0375718
0.100201
0.253009
-0.086877
0.0617697
0.0151704
-0.0118186
0.00125935
-0.111378
0.0704911
0.940173
0.0492421
-8.557e-05
0.327438
-0.00465852
0.218697
0.153375
0.00125359
-0.012184
0.35245
0.750579
-0.00404923
-0.00678481
-0.00286201
0.231641
0.498231
-0.00815436
0.651435
-0.00629629
0.115187
-0.0526893
0.855521
-0.000163577
-0.00158043
-0.00043681
-0.00191404
-0.134044
0.00532998
0.412602
0.614561
-0.00398263
0.212553
-0.00470135
0.0020797
2.84738e-05
0.196972
-0.00928134
0.1249
6.00836e-05
0.5159
-0.00107713
0.639125
-0.174254
0.714708
-0.0105551
-0.000201972
0.000984381
0.758681
-0.0164058
-0.067239
0.0606151
-0.00416267
0.627487
0.000501053
-0.0152711
-0.00139766
0.00143469
0.791501
-0.000393754
-0.00360229
-0.00453367
-2.09782e-05
0.00280457
0.65173
-0.000905503
-0.00779704
-0.00392712
-0.000736241
0.577625
-0.1989
-0.0263183
-0.0464562
-0.00136487
-0.0110517
-0.149255
0.000239615
-0.00179878
0.00109369
0.269754
-0.000403835
0.00190133
-0.13555
0.0797166
0.723095
0.00633299
-0.00337363
0.000160026
-0.0267008
0.467954
0.613742
0.796855
7.62141e-05
0.136658
-0.00995452
-0.00711608
0.162533
-0.0135699
0.00188222
0.00392688
-0.00503276
-0.00352048
-0.00386479
0.00180752
-0.00320475
-0.00324722
0.515805
-0.00429028
0.336547
0.0555733
0.0258252
0.24806
0.134135
0.419479
0.0042192
0.324008
-0.00106702
-0.0113459
0.290376
-0.0215957
0.566435
0.527503
-0.0104363
-0.00557611
-0.000431351
0.000946354
-0.121797
0.00353272
0.00437239
0.000957512
0.00406263
0.00104922
-0.012516
0.00266395
0.000945669
-0.0113588
0.419924
0.00149501
0.0020011
-0.00280114
-0.00538594
0.00058891
0.62488
0.610474
0.153671
0.854494
-0.0122581
-0.0807533
-0.000204108
-0.00382066
-0.00220031
9.06304e-05
4.21596e-05
0.137369
-0.035747
0.000130906
-0.109891
0.0868606
0.230024
-0.0347421
0.00654751
-0.013383
-0.0015793
-0.001702
-0.00199799
0.000200814
-0.0324006
0.894722
-0.00436392
-0.0320455
-0.00273425
-0.0127124
0.00514587
0.00937721
-0.00112036
0.00363577
-0.0106243
0.00100696
-0.0329279
-0.0685222
0.000765247
0.199159
0.00251912
0.00178951
-0.0841548
0.562235
0.586781
0.392344
-0.0023381
-0.118909
-0.0378394
-0.141554
-0.0184048
-0.136937
-0.0070433
-0.1279
0.00480006
-0.00841614
1.50646e-05
0.0337855
0.00397236
0.00101038
-0.0168353
0.949979
-0.00772923
-0.107184
0.878494
0.910209
0.00576357
0.884976
0.821107
0.490883
-0.00379805
-0.173684
0.911429
0.00113134
4.94691e-05
-0.0109899
-0.00108018
0.00128846
-0.0339645
-0.00166741
0.00179912
0.00558579
-0.0199652
0.000617512
-0.034332
0.000596428
1.04288
0.00632128
0.00529733
1.0349
0.00140957
0.968073
0.903096
0.500413
0.00477332
1.04554
-0.00672682
0.689511
-0.0145706
-0.000506721
-0.00903679
-0.0227701
0.0111509
0.774338
0.00153296
-0.000778992
-0.000422965
0.00014416
-0.172164
0.222743
0.000176627
0.550528
-0.0370302
-0.000508292
-0.0118696
0.00523983
-0.0186411
0.000941104
0.91559
-0.00165456
0.825564
-0.00419698
-0.00406437
0.000150116
0.00412694
-0.00788369
0.00261398
0.688898
0.759218
8.24382e-05
0.916652
-0.0129596
-0.00234954
-0.0216486
0.836965
-0.143757
0.000925418
-5.0424e-05
-0.00161783
-0.000893459
0.000318086
-0.00033514
0.923521
0.000626728
0.00153345
-0.0219642
1.01326
1.12108
0.00464345
-0.0141859
0.561909
1.01875
-0.0184335
0.00135621
1.95446e-05
-0.00783977
0.793453
0.560622
-0.00134841
0.00316431
-0.00858318
0.856972
-0.0798077
-0.006498
-0.00251634
-0.000308087
-0.0237026
0.609628
0.000264763
0.879636
0.0013494
0.98583
-0.000535765
0.903684
0.00367576
0.021093
-0.0169876
8.12148e-05
-0.00107133
0.000252812
-0.000630982
-0.00696496
-0.00092596
-0.00365101
0.00225377
-0.00936174
-0.000937177
0.00147551
0.00137498
-0.00271899
0.0671409
-0.000664769
0.553886
0.00197241
-0.0130128
-0.00493143
-0.117205
1.03139
0.00172939
-0.000353336
-0.00121268
-0.00885794
0.0056471
0.476234
0.60916
-0.00427073
0.00365198
-0.0785042
0.102848
0.87747
-0.00274733
0.490892
0.650861
9.01634e-05
-0.0164028
0.00693438
-0.00175468
0.00117204
0.000925625
-0.00139135
0.00377431
0.00094669
-0.00686271
-0.0128056
-0.00976032
0.0662117
-0.0839541
0.533789
-0.0595052
-0.0815372
8.64862e-05
-0.000983586
0.769765
-0.000804317
-0.00896118
0.000837472
-0.000824841
-0.00240029
0.379782
0.0243997
0.934597
-0.00063999
-0.00154972
0.00253894
0.0922947
-0.00279061
0.878193
-0.0585405
0.00504541
0.00748297
-0.0561628
-0.00310844
0.449481
0.0112847
0.797691
-0.00573823
3.69597e-05
0.000132588
4.0386e-06
-0.000294442
9.7748e-05
0.00193443
-0.00507515
-0.00673719
-0.00508485
0.000167219
-0.00639726
-0.0729227
-1.46472e-05
0.000297267
-0.00301021
-0.000881762
7.78192e-05
-0.00409799
-0.00132367
-0.00126647
0.016144
0.00457424
0.57378
-0.00411371
-0.0508346
5.17797e-05
-0.0474555
-0.0202553
-0.0205846
0.000531326
5.2858e-05
0.000860322
0.000239531
-0.060105
-0.109768
0.0390822
-0.103149
-0.00064031
0.0248238
-0.115457
0.602212
0.3513
0.44523
0.00191037
0.00109145
0.00069011
0.00370882
0.808163
0.503668
-0.000722604
-0.00227562
0.304745
0.524323
0.95341
-0.000497914
0.00130138
-0.00221354
4.27723e-05
-0.000480537
0.00020071
-0.00368323
-0.00114727
0.569314
-0.0242235
-0.000782902
-0.00421657
-0.00136713
-0.132007
-0.00350367
0.102707
-0.0016032
0.119747
-0.0159743
0.00162686
0.030348
-0.0227321
-0.00052534
0.0903634
0.87057
-0.00983017
0.600302
0.00382024
0.00359776
0.673132
-0.00102434
0.390451
0.00135251
-0.0492804
-0.0709705
0.00346264
0.00271414
-0.00114023
1.50536e-05
-0.0062151
5.73134e-05
0.00111476
0.00300817
0.894618
-0.0382101
-0.0030079
0.554133
3.32939e-05
-0.000806515
-0.0199545
-0.00064139
0.86246
0.00127414
-0.000962188
0.00229914
0.025135
-0.0192239
-0.00138343
0.000675448
-0.0670163
-0.00640327
-0.000669498
0.744034
1.00572
-0.00233967
-0.0588326
-0.00162455
0.618099
0.000116657
0.00196173
0.000116026
3.74744e-05
-0.0644975
-0.00348742
-0.0012532
-0.124731
-0.000467226
-0.0734202
0.000571845
-1.11847e-05
-0.00442071
0.684847
0.732871
-0.0181236
0.304104
-0.0218325
0.000125684
0.53752
-0.00582495
-0.00174054
-0.00366212
-0.130963
-0.000114183
-0.030873
0.00117981
-0.0302522
0.0186436
0.000646616
0.000645025
-0.0306204
0.355145
0.0461147
-6.51534e-05
5.92865e-06
0.00650793
0.0927938
-0.00123316
-0.0595247
0.000554984
0.527999
-0.177995
0.685522
0.213392
0.0070045
0.136547
0.000786341
0.564212
-0.0847493
-0.0117892
0.000195955
-0.00127812
0.00792166
0.00871525
0.00671576
0.00846044
0.0980734
0.00628164
0.2056
-0.00077395
-0.00307638
0.000749666
-0.0716666
-0.0292103
-0.00575265
-6.45271e-06
-0.0270927
0.144729
0.010316
-0.0249111
-0.0221965
0.00435517
-0.0202136
-0.000172427
-0.000914564
0.640493
0.713746
0.772127
-0.000529594
0.724509
0.628691
0.726465
0.00227111
0.000576753
-0.000553745
0.171323
0.419478
-0.0796447
-0.00914229
0.0100265
-0.00286643
-0.0176406
0.00851913
0.00573975
0.471718
-0.00168121
0.00658347
0.000252367
0.00962891
0.73707
-0.0231742
-0.000734918
4.56924e-05
0.835975
0.572934
-0.0964767
0.0756717
0.007857
-0.0990337
0.00830457
-0.101564
-0.102871
-0.100072
0.0608039
0.00805169
-0.0115262
-0.000263337
0.700756
-0.0182258
-0.00447596
0.467441
-0.00816653
-0.00292621
0.0117757
-0.150573
0.0932688
-0.0158879
0.000512745
0.508394
-0.00074141
-0.00380551
-0.00494127
-6.56926e-05
0.00368653
-0.00153404
0.00196523
0.0102674
-0.0110989
0.000619124
-0.0170089
-0.0140456
-0.0198386
-0.0220216
0.00143351
0.00270885
-0.0224443
0.00274464
0.00827151
0.00781483
0.326348
0.00957813
0.00559148
0.000151465
-0.00410851
-0.0171866
9.44666e-05
0.226394
0.651381
0.000230417
0.00417226
0.00280774
0.00626396
0.000480401
-0.00816288
0.00262752
0.0158867
-3.37646e-05
-0.00867378
4.38036e-05
0.0107144
-0.00116584
-8.85802e-06
0.267688
0.0025102
-0.0293607
0.384655
-0.0229183
-0.0107496
0.0107243
0.000316982
-0.0386576
0.00318056
0.0098398
-0.0494544
0.0548216
-2.79814e-05
-0.0574488
0.169305
9.46248e-05
0.0738045
0.000853559
-0.0290798
0.497807
0.00133584
-0.000315375
-0.000391891
0.319592
-0.162614
-0.016372
0.0103972
0.00372228
0.00621273
-0.00614667
0.00404032
0.0522419
0.791644
0.925653
0.5529
4.86099e-05
0.270512
0.0413963
0.000422269
0.0107293
0.291185
-0.00186493
-0.185986
0.000130608
0.00858454
0.389357
0.000130523
-0.0631538
-0.000559094
-0.069282
-0.000876106
0.544288
-0.0058215
0.502421
1.47748e-05
0.0109063
-0.0143761
0.000937821
0.467893
-0.00366058
0.00546491
1.01238e-05
-0.10057
-0.00855872
0.0389846
-0.00351679
-0.000868213
0.144018
3.5232e-05
0.258508
0.0239442
-0.000789227
0.300046
-0.044542
6.66673e-06
-0.00120645
0.000828696
-0.00130112
-0.00991207
0.286709
-0.0138951
-0.00166899
-0.0442633
0.00429029
0.437902
0.718697
-0.00065473
-0.00647996
0.00429029
0.00160226
0.376921
-0.0123121
-0.000935908
0.227417
-0.0346892
0.577939
-0.00610087
-0.00105653
0.238838
-0.00578767
0.00606771
-0.00812374
0.805464
-0.031492
-0.00167411
-0.00112585
-0.000924297
0.796935
-0.00552206
0.968242
0.147818
-0.00149089
0.00108848
-0.0200315
-0.0390581
-0.000326257
-0.00410493
0.781328
-2.80249e-05
-0.0196222
0.798624
0.000740367
-0.0052759
-0.000377198
0.0012221
-0.000379261
0.00192397
-0.0122787
0.00139896
-0.0956431
5.05769e-05
-0.000279169
-0.000249246
8.21855e-05
-0.0243333
-0.000289005
0.00144763
-0.03587
-0.0149243
0.96274
0.0184556
-0.00748427
0.00379598
-4.85008e-05
-0.00321045
-0.000199496
0.101388
0.46985
0.00124754
-0.0241936
-0.0067811
0.0290069
-0.0032934
1.02783
-0.00217433
0.00173355
0.298037
-0.0060981
-0.000295688
-0.00972088
0.541479
0.000952369
0.436495
0.562581
-0.00284965
-0.0113549
0.700988
-0.00276498
0.00214218
-0.00691056
0.155696
0.10026
-0.0209339
0.000148433
0.752109
0.00125556
-0.00938695
0.00432791
0.00260843
0.89096
-0.0019969
-0.000152044
-0.000724058
0.16298
0.971471
0.534822
1.0399
0.00120432
0.884644
0.000206453
0.357573
0.00322174
0.000793786
0.146536
-0.0114495
0.0816639
-0.000320681
-0.0127949
0.982639
-0.0101688
-0.0760392
-0.00265901
0.00158451
0.0180677
-0.00250958
-0.00452852
-0.000280374
-0.0199241
0.000282173
0.992457
0.00256324
0.00191404
0.0451351
-0.109676
0.147371
0.378147
-0.000430591
-0.132681
0.228952
0.593294
1.02684
4.69748e-05
-0.133489
-0.11642
0.00193204
0.271817
0.316348
-0.126973
0.806078
0.0935776
0.133026
0.000948387
0.505699
0.00326942
-0.000598526
-0.000158861
-0.000291787
0.000798238
-0.00201515
0.00419747
-0.000144904
-0.00116778
-0.00473481
0.000163563
0.21417
-0.0427503
2.38624e-05
0.994649
-0.000662037
5.25223e-05
0.707344
1.02918
-0.00127596
-0.0109126
0.694714
0.0021489
0.86671
0.0331712
0.000203558
-0.0510766
-0.027028
-0.00356603
-0.000983928
0.401449
-4.07223e-05
-0.000483892
0.820709
0.0008871
-0.003105
-0.0359601
0.00336366
0.00285525
-0.000427489
-0.01288
0.00475839
-0.000294814
-0.000663205
0.00170484
0.333202
0.000139355
0.000102031
0.001576
0.78504
0.00196285
0.00257921
0.000427545
-0.00249422
0.749425
-0.0054006
0.0548264
0.687838
0.000880779
0.911319
0.630228
0.00537364
-0.0516699
-0.000632649
0.00284813
0.86769
-0.00416449
0.00105283
-0.000196974
0.00228391
0.00448921
0.00117445
-0.00053846
0.900426
-0.000168372
0.56987
-0.0154601
-0.0560332
-0.000207402
-0.0514548
-0.00192354
0.724205
0.745037
-0.0238819
-0.000602746
-0.0189342
-0.0582501
0.140054
0.0692511
0.205985
-0.0700659
-0.0441655
0.00472691
0.000147146
-0.000443533
0.00137508
-0.00112297
-0.000741907
-0.000933207
8.93641e-05
0.00389123
0.00942251
-0.00266508
-0.000166427
0.00357411
-0.000132315
-0.00142235
-0.000194568
1.12392
0.0763937
-0.00234209
-0.00473349
-0.00181723
-0.000149791
-0.000183331
-0.000402637
-0.000244907
-0.0147041
-0.000138567
0.00456633
-0.000348998
0.00151452
-0.000348072
0.000476526
-0.0218627
-0.000688769
0.783128
-0.0120488
0.544144
-0.0214607
0.841835
-0.00303602
-0.00583414
-0.0072874
-0.0092047
-0.00992044
-0.0120629
-0.0127881
-9.3679e-05
-0.0143318
-0.0142539
0.734656
-0.0177979
-0.058503
-0.0194371
-0.00020674
-0.062767
0.000851587
-0.000200042
-0.00308531
-9.97029e-06
0.000190406
-0.00409786
0.00170331
0.0237343
0.607755
-0.00193404
-0.00192505
0.00521059
-0.00546533
-0.00133566
-0.00387945
0.00259938
0.000361249
1.01449
0.00361145
-0.00527252
-0.0040711
0.00185679
-0.00115389
0.0011268
-0.00172453
-0.00178628
0.00110969
0.00597863
-0.0563178
-0.000217042
-6.20998e-05
-0.00469715
-0.00221745
0.00116137
0.00111042
0.00112781
-0.000226639
-0.000560226
-0.00193582
-0.000527971
0.00103106
0.00107167
0.00245294
0.716412
0.000644023
0.00178701
0.00214246
-0.00233544
-0.000453075
-0.00053648
0.186044
-0.00562537
0.569596
0.000875683
0.000686228
-0.000227469
0.51521
-0.0719321
-0.000519318
-3.75498e-05
5.40539e-05
0.000976349
0.000989552
-0.147679
0.000200102
-0.0317553
0.000596927
0.00137415
0.000727916
0.000735098
-0.00230186
-0.0354165
0.695057
-0.0180213
0.00297043
0.00026446
5.19932e-05
-0.00212759
-0.000196156
-0.0202339
0.00274665
0.00333978
-0.000815599
-0.00603795
-0.000134022
-0.0942922
0.000541579
-0.00021395
0.00102054
0.000485008
0.000555608
0.00312527
0.00290592
6.88366e-05
0.875683
0.000428309
1.05112
-0.00354082
0.00304099
-0.0041003
-0.000211119
-0.000248871
-0.0472199
-0.000553808
-0.0747833
-0.000227924
-0.181322
0.000186957
0.000306767
-0.000141439
-0.00519591
0.883759
-0.000176263
-0.0110001
-0.00425549
0.677344
-0.0218032
-0.0531421
-0.000253321
-0.136268
0.00465048
-0.11152
-0.0227408
-0.000433541
-0.00775869
0.955111
-0.0489991
-0.00339353
0.00411614
1.74236e-05
0.571173
0.67729
-3.61534e-05
0.0017775
0.259464
-0.000131716
-0.00244392
2.29982e-05
-0.000323264
-0.0213714
-0.00873935
-0.124356
-0.0279513
-0.000616426
-0.000206456
-9.68093e-05
-0.0499825
-0.0183969
0.308352
-0.00173557
-4.64577e-05
0.607788
-0.0067869
0.000265597
-0.0179996
0.00348032
-0.000812271
-0.000177778
-0.0126019
-0.00011238
-0.0100022
-0.000219269
-0.000505084
0.321256
-0.00217286
0.240898
0.820648
-0.00652726
-0.00647428
-0.0600124
-0.00213437
0.97302
-0.00690856
0.00154777
-0.000153235
0.456028
0.891615
0.108037
-0.0792632
-0.00768444
-0.000166269
0.0041364
-0.000332275
-0.0013232
0.00428651
0.510773
-0.0112043
-0.000276608
-0.00300702
-0.000998097
0.0170398
0.496445
-0.0186352
0.00701495
-0.00116696
4.01919e-05
0.000609078
0.852373
-0.00319748
0.000886103
0.000355762
0.00364043
-0.00277141
0.0329723
-0.00444832
-0.0084748
-0.0181361
0.000228667
-0.00595738
0.316344
0.00344641
0.000857533
-0.00937832
0.541458
-0.00148172
0.036835
0.694985
-0.00112632
-0.000149235
-0.00280744
0.288689
0.110417
0.191362
-0.0221153
0.0010919
-0.000647349
0.486295
0.0092386
-0.00261599
-0.0212867
-0.00322822
-0.0655505
-0.00571209
-0.00186379
-0.000680198
0.437154
-0.00345741
-0.00037308
0.741148
-0.0079415
0.680045
6.90341e-05
0.000867152
0.632267
0.979747
-0.0189512
-0.00411863
-0.00252716
0.000549168
-0.00286033
0.583463
-0.00831723
-0.0115048
-0.0022396
0.000585928
0.000144335
-0.00398493
0.000462668
0.345379
0.000410978
-0.01624
-0.000234098
0.00234572
0.000462229
0.126044
0.41381
-0.00234528
-0.00531242
-0.00841986
0.00050796
-0.00340138
0.000373498
-0.0078367
-0.0097709
0.25524
0.560321
-0.0114848
0.188904
0.0036205
-0.0522757
0.00272317
-0.0119607
0.107717
0.0702635
-0.014148
0.00582556
0.612034
0.247904
-0.00287519
-0.000344966
0.00126533
0.873232
-0.000636922
-0.000272016
-0.000381478
0.000941861
0.000614643
-0.00227613
0.00105355
-0.00606884
0.10157
-0.0289853
-0.000278304
-0.00492868
-0.00852567
0.00288113
-0.0088334
-0.0024055
0.000903672
0.00266669
-0.0005103