/*--------------------------------*- C++ -*----------------------------------*\
  =========                 |
  \\      /  F ield         | OpenFOAM: The Open Source CFD Toolbox
   \\    /   O peration     | Website:  https://openfoam.org
    \\  /    A nd           | Version:  7
     \\/     M anipulation  |
\*---------------------------------------------------------------------------*/
FoamFile
{
    version     2.0;
    format      ascii;
    class       volScalarField;
    location    "8";
    object      p;
}
// * * * * * * * * * * * * * * * * * * * * * * * * * * * * * * * * * * * * * //

dimensions      [0 2 -2 0 0 0 0];

internalField   nonuniform List<scalar> 
30084
(
0.0393312
0.381819
-0.0376079
-0.1393
-0.0104041
-0.157779
0.00084778
0.0409144
0.0087447
0.000794886
0.0323879
-0.0177576
-0.00207472
-0.00010841
0.502956
-0.0252782
-0.000707954
0.264306
-0.00922253
-0.0440157
-0.00370878
0.00821189
-0.0379396
-0.00912422
1.13748
0.379439
-0.00223205
0.996335
0.49549
-0.00644017
0.0671879
0.199872
-0.198688
-0.0238084
1.00389
-0.0199868
0.451202
-0.113018
0.0240488
0.0232683
0.00186294
-0.0644074
-0.000628678
-0.0400303
0.000137762
-0.00557232
-0.0156931
0.000324103
0.0143623
0.441098
0.0384395
-0.123838
0.205281
-0.153244
-0.0247111
0.473098
-0.0144894
-0.00381271
-0.0155139
-0.0464949
-0.000266856
-0.00892916
0.307107
-0.0168019
0.656416
1.08008
-0.0264548
-0.0345684
1.03788
0.00194228
0.376312
0.858636
0.0108184
1.09236
-0.0328055
0.138043
0.546204
-0.102399
-0.000198968
-0.0456
-0.143993
0.493258
0.0392293
1.38964e-05
0.00913967
-0.0412772
0.683657
-0.00215328
-0.00200583
-0.212212
-0.0791348
-0.103055
0.0132873
0.215645
-0.219809
0.705521
-0.0984265
0.00204371
-0.151626
0.557286
-0.00021015
-0.0965485
-0.000259461
0.157204
-0.127277
0.335265
0.76109
-0.00192768
-2.05893e-05
-0.170858
-0.200378
0.0722118
1.21676e-05
-0.00617028
-0.000668011
0.843911
0.538548
-0.0478498
0.000106366
0.0123488
0.170196
0.403054
0.131843
1.07973
0.00470545
0.176326
0.274987
-0.0316958
0.0174096
0.000102725
-0.0358654
0.533739
0.860365
0.0929093
0.155151
0.0651965
0.779401
-0.0988208
-0.176073
0.544508
0.18964
-0.186073
-0.17724
8.67169e-06
-8.37791e-06
-0.0106656
-0.0145923
-0.155705
-0.0896896
0.40646
0.114036
0.058977
0.00186172
-0.000566755
0.510568
0.00224985
-0.0309518
0.758152
0.593882
0.049005
-0.138411
-0.135602
0.485375
-0.000205403
-9.3568e-06
-0.0481039
-0.172686
0.000226079
8.11247e-06
-0.0285755
0.00016059
0.0245087
0.768176
-0.0974522
-0.102737
-0.0209749
0.00895508
-0.0991856
-0.00489945
0.156105
-6.51468e-05
-0.00173808
0.681582
-0.0326917
-0.176908
0.520536
-0.026107
-0.0731132
0.016288
-0.00571953
-0.00118809
0.0126979
1.09259
0.503799
-0.0564463
-0.0297123
0.943243
0.463506
-0.216456
0.00495332
-0.0298431
-0.177421
-0.0167953
0.00360899
0.780398
-0.0276302
0.0292962
-0.157573
-0.174958
-0.000133246
0.910351
-0.00438064
2.56165e-06
-0.00231627
-0.0724011
0.347146
0.00278458
0.0285535
-0.00903719
-0.215164
0.000126031
0.0020077
-0.0097211
0.276774
-0.0115994
-0.00590761
0.193856
0.000545893
0.000128626
0.0223147
-0.106667
-0.088327
-0.0197023
0.373038
-0.0603271
0.0615659
-0.000113727
-0.0124989
0.00336512
-0.0223752
-0.221604
-0.0058201
0.00200185
-0.00632287
0.0127094
-0.0430269
-0.000194662
-0.0302127
0.000189831
0.280503
-0.0140184
0.000622051
0.339286
-0.182759
0.00107692
1.30289e-06
-0.186524
-0.216982
-0.0363552
-0.0365859
0.11435
0.658827
0.000338327
-0.103075
0.157847
0.964706
-0.0330498
0.514034
0.148728
-0.000756977
1.26521
-0.00231006
-0.11094
-0.212255
0.00957986
0.263617
-0.034367
0.870448
-0.0144826
-0.0720284
-0.00105856
0.642879
-0.00997981
0.715511
-0.00217131
-0.0240792
0.969822
0.246939
0.193332
-0.12544
-0.000645783
0.0123
-0.000748667
7.68434e-06
0.285695
0.000162841
-0.0786866
0.149725
1.14761
0.853556
-0.162751
-0.0719163
-0.0845329
0.061633
0.0153291
-0.0739417
-0.169489
0.670819
0.860795
-0.00543091
0.751983
0.278547
0.140776
0.0496189
-0.0044246
-0.00785737
-0.0223837
-0.011244
-0.000242974
-0.00670248
0.133421
0.65399
0.00701963
-0.108494
0.0577188
-0.000148701
-0.166012
1.19326
-0.0262159
-0.0055438
0.0527769
-0.0435154
0.382176
-0.00548523
-0.000130971
1.1196e-05
-0.0113679
0.975052
0.124845
-0.216738
3.98738e-06
-0.229595
0.258486
-0.0214513
-0.202464
-0.00506537
-0.00188586
-0.0983614
0.00399064
0.165902
0.044288
0.491705
-0.000495152
0.011106
0.399814
0.172755
0.00183652
0.0019499
0.84148
-0.0777373
-0.00613233
0.48127
0.97678
0.0263452
-0.0248976
0.353151
-0.00331259
-0.0357596
-0.0141572
0.455417
-6.82008e-05
0.0426687
-0.0536513
0.860726
1.08352
-0.0253328
-0.0372272
0.6702
-0.0488394
-0.000235548
0.472389
0.290299
0.294597
-0.0293687
0.104229
0.991698
-0.120842
0.912303
0.865616
-1.2591e-05
0.132948
-0.107114
-0.0121842
0.00715281
0.983407
0.125489
0.00122383
-0.12401
-0.181555
-0.0236004
-0.000521806
0.736852
0.529158
0.000208514
0.0179694
0.0236794
0.0309788
-0.124669
0.000276901
-1.01963e-05
0.00216834
0.39001
-0.112299
0.694484
-0.197031
-0.0691021
-0.090001
0.473341
0.308998
-0.005265
0.0353362
0.00371874
0.924427
-0.104416
0.00477785
-0.0318222
0.204256
-0.00562809
-0.0509588
0.00103668
0.00106278
1.20542
-0.0342857
-0.021268
-0.00186369
-0.00323395
0.636655
-0.0506253
-0.0930507
2.18944e-05
4.06548e-06
-0.107911
-0.0286919
-0.0223003
0.0731921
0.0271774
-0.0091314
0.218243
-0.0732134
0.901868
0.0291287
0.00109883
-0.163223
-0.0915098
0.279191
-0.0140921
-0.0915135
-6.21869e-05
1.0479
0.0819855
0.000375148
1.09245
-0.0965818
-6.6367e-05
0.00646857
-0.166224
0.0731714
0.194095
-6.59725e-06
-0.034241
-0.00256815
-0.0229092
-0.00208106
-0.0352482
0.950308
-0.0346886
-0.0491107
0.530176
-0.0122501
0.944354
-7.38098e-05
-0.0623799
-0.15724
-0.0889267
0.116205
-0.00653581
0.0145615
-0.000665749
-0.0775561
0.0654494
-0.000139797
3.00107e-05
-0.0271559
0.889446
0.0373043
0.0113198
-0.219248
5.2256e-06
0.00440096
-0.000179282
0.0454034
-0.0726146
-0.0017283
-0.0327132
-0.0523394
0.00458609
-7.80685e-05
0.202595
-0.00165066
0.239633
0.81305
0.676908
-0.0140589
0.0267619
0.106985
-0.000400019
-0.0140126
1.43706e-07
0.873353
-0.0568207
0.0721772
-0.0715404
0.00914866
-0.0131941
-0.000466689
3.61465e-05
-0.0206011
0.207505
0.606254
0.00558622
-0.146246
-0.103977
-0.0336418
0.405195
-0.00586357
0.00737076
-0.0240297
-0.000429009
-0.169733
0.658739
0.492603
-0.0923667
0.645251
0.000377108
1.86556e-05
0.467543
0.276322
1.08282
-0.127322
-0.0895977
0.217726
0.00530443
-0.0250691
0.00207135
-0.0449897
-0.0533707
-1.7137e-05
-0.0039851
0.85536
-0.000615454
1.02236
2.3284e-06
0.265395
0.231545
0.227479
0.00473493
0.000843544
0.873026
0.249492
-0.161117
0.501451
-0.0249187
-0.0557991
-0.0178422
0.688372
-0.104488
0.0679494
-0.031321
7.45798e-06
-0.00579901
0.0267329
-0.074609
-0.0902508
-0.169396
-0.0754221
0.348299
-0.00948856
-0.210275
-0.0578222
0.000176514
-0.0509904
0.0606362
0.353218
-0.110689
-1.76418e-05
-0.075525
0.000470778
0.00634177
-0.102827
0.693033
0.00409675
-0.0502377
0.0281179
0.248188
0.936432
0.00827001
-0.0159764
0.648083
0.4392
-0.0584572
0.0221223
-0.186505
-2.91885e-06
-0.16734
0.000385416
0.0219819
-0.000126934
0.000121873
-0.0211213
0.319881
0.830263
0.0660097
0.0541702
-6.32486e-07
-0.0270952
0.000399224
-0.0141851
0.000122275
0.203328
-0.00214362
0.510559
-0.000573033
-0.0538964
-0.146238
-0.0187111
0.931393
-0.0693971
-0.119508
-0.0244897
0.173791
-0.15587
0.115872
-0.0198483
-7.33376e-06
-0.0185131
-0.0175228
0.00112517
0.000384163
0.686661
-0.0215958
0.267945
-0.0141311
0.00390432
0.130555
0.000754977
-7.97692e-05
-0.165443
-0.0154944
0.000136001
0.648618
1.16122
-0.000951535
-0.140767
2.72788e-05
1.00193
0.265358
-0.138946
0.000201105
0.0685644
0.214838
0.247155
0.192616
-0.00181323
-0.000625871
-0.0631416
7.92538e-06
1.08434e-05
-0.106663
-0.0943167
-0.16585
1.12132
0.000914392
-0.0812338
0.0343772
-7.20201e-05
-0.00525131
0.000153042
-0.0249781
0.000194161
-0.0131937
0.112468
0.935964
0.169085
-0.00125904
0.00209571
0.0160475
0.262632
-0.0137157
3.98903e-05
0.583842
-0.18714
-0.123547
-0.0591289
-8.17112e-05
-0.00124863
-0.190827
-0.0706648
0.42433
0.89898
-0.116935
-0.00567513
-6.78708e-05
-0.16437
-0.199411
-0.000915162
0.0184312
-0.0564974
-0.0205375
0.85932
-0.00578992
0.0553514
0.560457
-0.0333184
1.08676
1.07486
-0.000131201
-0.000137235
-0.0685296
0.0676467
-0.136142
0.0238325
-0.0322557
-0.00257854
0.977906
0.500228
0.0103088
1.25052
2.0854e-05
0.326418
-0.166305
-0.0765496
0.000432559
-0.141284
0.335689
0.0649489
0.225033
-0.00202912
-0.00217716
0.0095141
-0.015273
-0.0557805
-0.00458567
0.415618
-0.0207989
-0.0225912
-0.22461
0.83056
0.166506
0.128228
-0.00180827
-0.00231032
-0.0799198
0.00450527
-0.0115231
-7.76141e-05
-0.00157271
0.336555
0.87676
-0.000573871
0.628233
-1.91817e-05
-0.0146736
-3.43661e-05
0.0243693
0.188449
-0.000170614
-0.000175443
-0.200977
9.88891e-06
0.197605
-0.087495
-0.000123064
0.526687
-4.66336e-07
-0.00180144
-0.000393943
-0.0217546
-0.00162105
-0.0266861
-0.181446
-0.00143428
0.0192091
-8.10028e-05
0.820454
0.0493208
0.167427
-0.128175
-0.0893165
-0.00482266
0.0132406
0.575601
-0.0947856
0.577715
-0.155623
-0.0151634
-9.97583e-06
-0.0248036
0.862945
0.565545
-0.11988
-0.195478
0.797084
-0.0359275
-0.162087
-3.49833e-05
-0.0913012
-0.00373832
1.22613
-0.151991
-0.000384421
-0.209062
-0.0975049
0.635831
-0.0113836
-0.102155
-0.0150298
-0.0196295
-0.00564738
0.633369
-0.220593
-0.0762498
-0.0603889
-0.0534692
0.0249581
0.786235
-0.0745643
0.501856
0.012328
0.125888
1.03371
-0.0365651
-0.00102551
0.648862
0.858288
0.0119997
0.121007
-0.0265067
-0.126557
0.646155
-0.166984
-9.04248e-05
-0.0314208
0.000153901
-0.0193492
-9.58268e-05
-0.0172981
-0.00425491
-0.0132641
0.0615818
-0.00265235
-0.00222401
-0.00449634
0.541754
-0.00899702
-0.0140082
-0.0125384
0.476101
0.0232233
-0.00152766
0.855177
1.06201
-0.0778086
0.98014
-0.0686717
0.808315
0.023824
-0.0262947
0.0113527
-0.00200108
6.90926e-05
0.0113628
-0.0471424
-0.077906
0.493403
-0.089883
-0.0790386
-0.00398114
0.0880723
-0.0886746
0.0285644
-1.45648e-05
0.0671961
0.484962
0.851273
0.150929
-0.0522677
0.404758
-0.00135045
0.141254
-0.0701554
0.00296757
-0.206147
0.0164491
0.808388
-0.00865832
-0.00227495
-0.000413136
-0.15874
-0.00483666
1.23103
1.26568
0.0488599
-0.000141452
0.0343409
-6.82273e-05
0.269586
-0.00224504
0.088617
1.15668
0.288956
7.36568e-05
-0.0320651
-1.16031e-05
-0.227343
-0.134056
0.971487
0.000957225
0.0471284
0.0169123
0.00118422
-0.00922061
-0.00123409
-0.0235616
-0.12522
-0.0877728
0.0363376
0.517025
-0.051072
0.0258785
-0.0772814
-0.00639604
-0.100979
4.60485e-05
0.00018276
-0.00867668
0.112533
-0.086169
-0.0596753
-0.0142652
0.0108143
-0.011911
0.704375
-0.0492497
-1.09177e-05
-0.199593
0.907092
0.0868892
-0.0458546
0.332572
8.50451e-06
-0.00267006
-0.107401
-0.000113455
-0.00175441
-7.08154e-05
1.24987
0.0347647
0.0142908
1.72829e-06
8.42315e-06
-2.00545e-05
-3.61765e-06
-0.0861832
0.862857
-0.13287
-0.00173076
-0.000620835
-0.0174977
0.962419
-0.15985
0.90672
0.169244
0.390498
-0.000407022
0.951845
-0.00844604
-0.0351822
0.121412
0.0409466
0.0450973
0.499763
-0.152687
0.941937
0.736414
-0.0293916
-0.0974341
0.0482194
-0.108884
-6.0932e-07
-0.00353869
0.0105375
0.226882
-0.0243212
-0.0865145
-0.0118847
1.11912
-0.174584
-0.000116222
-0.000100655
0.979449
-0.0184275
0.0136898
-0.0489859
-0.00844926
-0.0551534
-0.0355866
0.106914
0.381351
0.176955
-0.0366978
-0.0513735
0.000320322
-0.0212211
-0.00173874
-0.0292777
-9.60746e-05
0.000211239
-0.0407504
-0.0721949
0.933317
-0.0166213
-0.000702558
-0.00545381
-0.00114211
0.850185
0.0913357
-0.000118906
-0.0845095
-0.0164763
-0.0125666
-0.0989435
-0.118482
0.0248325
0.204672
-0.170386
0.000271008
0.0215036
-0.0490035
-3.22512e-05
-0.000219445
0.328791
0.261826
0.189479
-0.179608
-0.155778
0.00190738
1.024
0.000304681
-0.0441045
0.877023
-0.061697
-0.128835
1.31993e-05
0.000584691
-0.127434
-0.0336569
0.00496579
-0.11865
0.589865
0.738714
0.00242558
0.000932149
0.591983
-0.0447531
-3.42134e-05
-0.00513282
-0.100659
-0.0731661
-0.029775
-0.00330025
0.631822
4.9708e-05
0.2324
0.696429
0.00013085
0.052729
-0.00155784
-0.160915
-0.0482962
-0.00233246
0.0896987
0.000736749
0.586375
0.00490633
0.0745751
0.139666
1.14813
0.813413
-0.192817
-0.0242066
1.33857e-05
0.235693
-0.0446233
0.437158
0.794155
-0.117722
0.0520891
-0.0528738
-0.0201404
0.387262
-0.000626837
0.969468
0.0838384
0.000167946
0.000135043
0.000340497
-0.0402249
-0.0552847
0.00242382
0.297592
0.394537
-0.177399
0.00223936
0.000232576
-0.0698503
-0.000118861
-0.00869147
-0.0329907
-0.00170419
0.243049
0.0148439
-0.00410883
-0.0114867
-0.0474633
0.813236
0.83241
0.116836
-1.3504e-05
-0.00162944
0.615189
-0.00135476
-0.0926658
-0.000599688
-0.058663
-0.197747
-0.000592859
-0.000675996
-0.0917832
0.00446828
-0.000213191
-0.00390095
0.555546
-0.102904
-0.000101789
0.267682
0.805135
0.833794
0.00202223
-0.113874
-0.0275339
0.902868
-0.17879
-0.182573
0.0246262
-0.0381707
0.0875628
-0.0755666
0.832702
0.27834
-0.000503315
-0.159226
-0.220382
-0.010914
-3.67875e-06
-0.00501515
0.522986
-0.000537455
0.0418857
-0.01144
-0.00345639
0.0267091
0.0828325
-0.000523144
-0.00035407
-0.0127116
-0.154707
-0.102235
-0.1925
0.586192
-0.00178525
-0.000785877
-0.0991067
-0.0690819
0.0304364
0.0390277
0.000231593
0.201433
0.390068
0.0539364
0.0724414
-0.00181507
-0.0387691
0.265073
0.00381551
-0.000121694
-0.0254875
-0.0116448
-0.00209916
-0.0309244
-0.00243002
0.701306
-0.0259605
-0.211539
-0.0673188
-0.0309559
0.0338521
0.998568
-0.128995
-0.000339876
0.947017
0.427876
0.0223612
-0.016909
0.0217777
0.183109
0.406665
0.00102257
-0.00549614
1.15174
0.674703
0.783997
-0.126563
-0.00401458
-0.00352981
-0.000103923
-0.00370122
0.740247
0.225675
0.0267782
-0.00411995
-0.00100361
0.114887
1.08461
0.873348
0.218926
-0.00809877
-0.188818
-0.0082502
-0.00206843
-0.046571
0.053669
-0.0789261
-0.0101045
0.00272865
-0.208253
-0.161748
0.0847956
-0.0695746
-0.00103075
-0.0751332
-0.00056928
-0.0195369
-0.00196988
0.809159
0.000149233
7.83366e-06
-0.0364077
-0.0568182
-0.0830424
0.109545
0.000160762
-0.213069
0.200433
0.495376
1.22023
-0.0130641
-0.125063
0.0885374
-0.00586572
0.297607
-0.00170411
0.0303381
-0.000539514
0.668851
0.0460836
0.0306645
0.395897
0.307945
0.00437738
0.0106099
1.11895e-05
0.916884
-1.56976e-07
-0.131463
0.000979962
0.00510264
0.471856
0.276566
-0.177204
-0.112911
-0.0112647
1.25798
-0.190767
1.36454e-05
-0.0438626
-0.00010883
-0.0260124
0.281766
0.492508
0.00257558
-0.100668
-0.0265782
0.383562
0.295119
-0.0928173
1.12987
-0.0279097
0.000195919
-0.127636
1.16129
0.00789272
0.248841
-0.120462
0.414188
0.00540837
0.115816
-0.226352
0.0187592
0.152431
-0.0316336
0.571553
-0.0743144
-0.0544585
-0.00224542
-0.00226746
1.03054
-1.28994e-05
-0.0131124
-8.93178e-05
-0.0227826
0.00102573
-0.0202123
0.656285
1.20547e-06
-0.00288896
0.435683
-0.198258
-0.0581035
0.00337909
0.875609
-0.12024
0.436706
-0.0336548
0.401452
0.0220447
-0.00209659
0.0977138
0.00223757
1.05482
-0.0733513
-0.000320054
0.00645705
0.36945
-0.0316928
-0.0019581
-0.000352967
-0.167391
-0.00732777
-0.0268231
-0.188835
6.99182e-06
-0.199892
0.00127712
0.796296
-0.0280584
0.388022
0.0137213
-0.0102591
0.669357
-0.111065
-0.11686
-0.0119241
-0.16792
0.687181
0.725218
-0.0396416
-6.38875e-05
-0.0435424
0.0132458
3.66319e-05
0.254847
0.84423
0.0357356
0.00452779
0.0400789
-0.203306
-0.000471505
0.242405
0.147268
0.22614
0.0377351
0.0787132
-0.00108572
0.447485
0.071924
-0.202375
-0.00283077
0.0745944
0.386785
0.00230361
-0.210735
0.541011
-0.0912715
-0.212719
-0.223975
-0.107274
-0.11454
0.147197
0.53873
-0.165037
-1.13457e-06
0.00267485
0.0851335
-0.00505353
0.0467256
-1.2915e-05
-0.0161601
0.0113313
-0.000195091
0.157254
-0.00144891
0.319382
-0.0890089
-0.0097555
-0.0194486
-0.024343
-0.176599
-0.0166701
-0.00273983
0.0599218
0.219362
0.0142135
-0.0949204
-0.00836119
0.0856578
-0.0268354
-0.0546584
-0.218786
-0.0451859
-9.43379e-05
-0.0432123
0.943823
9.20108e-05
0.480521
-0.0528218
1.10956
0.136692
-0.13625
-6.99369e-07
0.00483762
-0.212272
-5.36205e-05
-0.0076714
-1.19714e-05
-0.186085
0.012951
-0.157628
-0.0658457
-0.000352878
0.653532
0.62914
-0.100695
0.00129547
-0.000484076
-3.22049e-06
-0.000161102
1.02712
-0.00375487
0.00652174
0.0614206
0.00273902
-0.00167794
-0.22411
-0.0006518
0.141071
0.0137794
-0.00588782
-0.002086
-0.0739978
-0.118268
0.468073
0.334431
-0.000459606
-0.0372787
0.00157973
-0.0338233
-0.00125386
0.378599
-0.0167052
1.26456
-0.0252276
-0.00413714
0.206048
-0.0541035
0.788755
-0.120143
-0.0323571
-0.0371202
0.0517444
-0.0101378
2.45106e-05
-0.0236089
0.720346
-0.127813
-0.00929692
-0.121267
-0.0782604
0.390929
-0.00144285
0.672583
0.0066455
-0.173001
-0.00151099
0.0379624
0.131808
0.0073244
0.785489
-0.00134386
0.0924735
0.239822
0.00150178
-0.000374256
1.08723
0.221376
-1.43593e-05
0.086215
0.0804883
0.000382535
-0.0360521
-0.0628267
-0.200934
-0.0283763
0.758202
0.0132845
0.531495
-0.00113409
0.87558
-0.20801
-0.015283
0.0179199
0.0885119
-0.163975
-0.105777
-0.0247214
0.000152032
1.16808
-0.0653143
0.00238145
0.0235498
-0.115556
0.796339
0.00868575
-0.0470488
-0.000155421
0.311397
0.0232885
-0.11187
0.00236623
-0.0100437
-0.0816753
0.000109602
-0.151289
-0.00448107
-0.042645
-0.186824
0.672684
-0.0295519
0.234425
-0.0620673
-0.0862462
-6.63612e-05
0.000431088
-0.0106542
0.000114244
-0.0326097
0.222201
-0.00592468
5.07838e-06
1.0541
0.0145689
0.000993581
-0.000109582
-0.0061455
0.774884
-0.156665
1.16908
0.471951
0.0652211
0.668615
-1.36608e-05
-0.0395279
-0.00243197
-0.00719155
0.49044
-0.0282399
1.18188
0.624851
-0.16265
0.638943
0.0275448
-0.0408406
0.00651548
-0.0521302
-0.0115529
-0.15178
-0.167053
-0.00876358
0.6358
-0.0287029
0.000416472
-0.0124841
-0.00193725
-0.101938
-0.000477047
-0.0036483
-7.55077e-05
0.415696
-0.0906825
0.653412
0.0842727
-0.00795225
-0.0859379
-0.0570238
0.200549
-0.00894788
-0.00310226
-0.193964
-0.129554
0.0419712
-0.126889
-0.0131236
0.0590139
0.011277
0.00010338
0.372602
-0.000114584
0.158335
-0.00235452
9.83945e-06
0.00576716
-0.00195432
-0.00357697
-0.0456744
0.491839
0.388263
-0.0585474
-0.0366002
0.00847421
-0.0150875
-0.0298835
0.000255305
-0.00143659
0.00202897
0.30686
-0.0239583
-0.160417
-0.118805
-0.00554219
-0.0506369
-0.019071
-0.0050362
0.015549
-0.0365367
0.600487
-0.179978
0.0195713
0.00899353
-0.108124
1.15296
-0.0290399
-0.00961399
0.0227241
0.226061
0.0117533
0.0100553
0.638793
-0.00107046
0.130067
-0.0612581
-0.120417
0.0185027
-0.010802
-0.0162111
0.118428
-0.0106307
-0.00182212
0.0115916
0.00763334
-0.00067874
0.116367
-0.0273749
-0.00598178
-1.34513e-05
0.419865
-0.000110879
-0.0817205
0.219115
-0.0623435
0.000433793
0.303188
-0.0829769
0.44836
-0.000137129
-0.0113074
0.370254
0.000520935
0.014501
-0.0132262
0.030484
-0.0603918
-0.0954969
-0.0230613
-0.00788935
0.0289227
0.0594544
0.418312
-0.000543631
0.314616
-0.118352
-0.00952972
-0.0204192
0.0011823
-0.118801
0.000221201
0.951263
0.588205
-0.00143894
-0.0613236
0.000762417
-0.00631325
-0.0139111
-0.0279051
0.416235
0.495401
0.109084
0.0297695
-0.217204
0.115833
0.246412
0.291246
-0.151131
0.0595849
0.563938
-0.0279523
0.849446
-0.0026987
-0.0320773
-0.131604
-0.000268546
-0.00219763
-0.000112964
0.843759
-0.0302271
0.000796129
-0.0450275
-0.0103823
-0.000946071
-0.038456
0.709083
0.00300541
0.0322495
-0.0754962
-0.00127306
-0.0133994
-0.00233776
1.19418
0.000620026
8.1808e-05
-0.00527174
-0.0397998
0.395336
0.00159434
0.0659165
0.219868
-0.000427142
0.00629026
-0.215543
0.323649
-0.0641871
3.27442e-06
0.00101699
0.0607082
0.0940555
0.731656
0.253706
-0.102007
3.731e-06
-0.120414
-0.00765547
-0.0358471
-0.0346175
0.455862
0.921304
-0.00030289
0.39143
0.589929
-0.028158
0.0112423
-0.0601015
-0.0205572
0.000324347
-0.116835
-0.0242279
-0.000307672
-0.00154638
-0.0045344
-0.00548626
-0.00192968
0.723002
0.785518
0.56769
-1.1372e-05
-0.0673536
0.228322
0.288077
0.962075
-0.00140706
-0.0582233
-0.0532794
0.764989
-0.0547145
-0.0263223
0.0599027
0.399751
0.000884679
-0.001365
-0.0676216
-0.0858402
0.423542
0.190363
-0.0997813
-0.0625202
0.415165
0.0606006
-0.134918
0.0201665
0.250479
0.467908
-0.000986896
-0.00176615
0.339364
0.000601079
0.157413
0.0895001
-1.28918e-05
0.743141
-0.0294737
-0.012771
1.21304
-0.105769
-0.0192003
-0.107739
-0.00650219
0.914234
0.00337118
1.15436
-0.00037619
0.0182005
1.17917
0.0197585
0.914173
-0.0164807
1.78948e-05
-0.045471
0.943036
-0.0045119
-0.0190244
-0.0230762
-0.00286458
-0.0595074
0.934368
0.3233
2.6186e-05
0.0598028
-0.0107046
0.086076
-0.00252818
0.0654008
-0.00755299
-0.00128382
0.89396
0.959003
0.900533
-0.148389
0.280003
0.000433895
-0.165399
0.66676
0.0541274
0.000713694
-0.11605
0.00171719
-0.000290948
0.949599
0.000370907
0.0122765
-0.00547325
-0.0248978
0.907363
0.941468
0.957512
0.0343346
0.00141536
0.537697
0.0217356
0.0870457
-0.0259996
0.000207037
-0.00837544
-5.91356e-05
-0.0129401
-0.00211027
-0.0159707
-0.000168549
0.390355
0.00608212
-0.160153
-0.0254984
-0.206335
-0.0464365
-0.00218798
0.80568
-0.0307171
1.55557e-05
-7.52404e-05
1.14063
8.66238e-05
0.0326948
0.175023
-0.0512247
0.718213
-0.0148326
-0.124531
-0.104343
-0.00126489
0.000368232
0.606823
0.954571
-0.00437639
-0.0545713
-0.000653824
0.952175
1.10793
-0.0040701
-0.0179597
0.0547908
0.00913583
-0.0691274
0.000211254
0.0289712
-0.106066
0.17739
0.81955
-0.00421328
0.0808069
0.379719
0.221267
-0.127012
0.0809804
1.08017
0.50028
-0.155851
0.966982
-0.00163533
0.96114
-0.0184023
0.82419
0.235247
-0.0143151
0.122836
0.0069268
0.0500873
-0.211547
-0.00188913
-0.0659172
0.835932
-0.0723723
0.094396
-0.00415261
0.16679
0.488945
-0.0257493
0.182176
0.002067
-0.0100616
-0.0673914
-0.00608978
0.00580092
-0.0250059
-0.00140182
0.00695575
0.819735
0.0065757
-0.0452486
-0.16007
-0.0810381
-0.183634
-0.183665
0.0120448
-4.55807e-06
-1.87094e-07
0.629324
-0.123064
0.000179484
-0.00998076
0.442662
-0.163182
-0.0417844
0.000339004
-0.00532199
-0.131642
0.406763
-0.0211738
-0.00133696
-0.131377
-0.052957
1.18016
0.28817
0.198969
-0.128405
-4.63199e-06
-0.0188954
0.176075
-0.00101516
5.66613e-05
0.431402
0.278007
0.00177059
-0.00238861
0.0297704
-0.0827603
0.0296731
0.0251141
-0.0421998
0.000159562
0.729527
0.00168747
-0.00160949
-0.000639169
-0.000600836
-0.000417635
0.216826
0.00284033
-0.00781435
-0.0265855
-0.012094
0.0811801
-0.0149843
-0.116396
-0.0288735
0.886704
0.756992
-0.00134606
-0.00402481
0.269604
-0.00225485
-0.0503347
0.248165
0.367118
-0.00267747
0.0568026
0.109901
0.00379984
0.34347
-0.000271964
0.020749
0.0435518
0.0390067
-0.0395302
0.13082
0.00021644
0.00430628
0.000818314
-0.000120718
-0.0037648
-0.0266824
-0.0352089
-0.0792724
0.234134
0.115178
0.025202
-0.151348
0.0370129
0.027539
0.0364105
0.000172872
0.932517
-0.0224465
-0.00894283
0.0775179
1.19398
1.90645e-05
0.306395
1.58589e-05
0.0143676
-0.0174736
-0.0575185
0.428817
-0.0108359
-4.07127e-05
0.537598
0.18633
-0.00149425
0.137715
-2.07414e-05
0.392381
0.0232923
-0.074713
-0.00037321
0.59028
0.0773248
-0.0554705
0.000119962
0.408291
0.709018
-0.00302789
-7.33449e-05
-0.0964795
-0.0243427
0.0447981
0.0811439
0.965952
0.606275
0.00134138
0.783792
0.60346
-0.00762743
-0.154703
-0.07624
-0.037214
-0.122119
0.466273
0.00226618
1.00396
0.387682
0.0339917
0.000281409
0.00175218
2.66762e-05
-0.00146999
-0.00739555
1.0714
3.22286e-05
0.200495
0.0719155
-0.000592705
1.00982
1.11034
0.472392
0.531846
0.181976
0.00670906
-0.000743718
-0.0292766
-2.41118e-05
-0.00291181
-0.205504
-2.19536e-05
-0.00379009
1.02656
-0.0307725
-4.38376e-05
1.05338
0.00127735
-0.0957374
-0.184197
-0.00345694
-0.167561
-0.000607081
0.45277
0.00900097
-0.040234
0.00518615
-0.001685
-0.00100854
-0.000572388
-0.223656
-0.159049
0.365637
0.00773307
0.00646167
0.570205
0.00021133
1.15746
-0.00127933
-0.23662
0.00605896
0.00436032
0.131
0.139183
2.01759e-05
-0.0107045
0.000299386
-0.00175863
0.00228657
0.211162
0.12545
0.718151
-0.0795247
-0.000250114
0.000467322
0.242356
0.802216
-0.0117362
-0.016521
1.15002
-0.00729893
-0.0545552
0.00280204
0.254211
-0.0677024
-0.0223638
0.372877
0.00358788
-0.000625961
0.0044044
0.157735
1.14877
0.926654
-0.0637825
-0.0819176
-0.0165023
0.00416391
8.1293e-05
0.188678
0.496923
2.70633e-05
-0.0190855
-4.08202e-05
0.000380849
0.886687
-4.51769e-07
-0.174203
-0.124063
-0.168392
0.177452
2.3117e-05
0.0264596
-0.0155063
0.831042
0.0965424
0.0132399
-0.078739
0.00171393
0.797244
0.477741
0.0305278
0.175025
1.03867
-0.164669
-0.143223
-0.0049693
-0.0183743
-0.000949062
0.0873257
-0.000142699
0.390109
0.00776632
0.499625
-0.0865473
-2.12337e-06
0.159542
-0.00041681
4.41103e-07
-0.00193129
1.12956
1.08911
0.749525
0.00016682
0.503902
0.957258
-0.00252812
0.00740608
-0.0221093
0.280494
0.952837
-0.0721452
0.294745
-0.00623457
-0.174061
-0.197331
1.2297
-0.00155027
0.928996
0.218609
0.440818
0.000345428
0.000578933
0.0144045
-0.0232477
0.213008
-0.000123913
0.000188592
0.910481
-0.15496
0.000802073
0.949057
-0.00599111
0.000427949
0.814447
-0.0152186
-0.00383001
0.21026
0.448992
0.000858911
-0.000318403
0.00947733
-0.0105492
0.90857
1.12489
0.677897
1.19993
0.420843
-0.122525
1.04638
-0.000185699
-0.00821261
0.46347
-0.00878015
-0.00167598
-0.000246023
0.949965
0.13023
-0.00166193
1.09663
0.186472
0.648441
0.112378
-0.00705588
-0.0531893
0.424121
0.197478
0.955159
-0.0557925
-0.00201077
0.882519
0.854674
0.0363677
0.723668
-0.0942433
-0.0203003
-0.0231897
-0.00163669
-0.000342882
0.889401
-0.159576
0.167607
0.00281657
0.376072
-0.083081
-0.0259621
-0.00236728
-0.00836273
0.979857
-0.00204925
-0.0445733
-0.00771985
0.973955
-0.0484426
0.0516153
-0.0193987
0.00367181
0.361367
-0.0575313
0.991792
0.448959
1.19806
0.550247
-0.161544
0.0792624
-0.00453589
0.0788232
0.122896
0.918944
0.972914
1.06882
0.742469
0.896338
-0.000902402
1.02078
-6.73349e-05
0.000193005
-0.125487
1.09608
0.125491
0.579721
4.35735e-05
-0.00553657
0.044193
-0.0800715
0.903239
-0.00173629
-0.0198941
0.74884
0.00270771
-0.0108413
1.16633
0.119074
-0.0757836
-0.0580722
-0.00134953
0.300715
0.446869
1.21161
0.382851
0.243732
0.0118448
-0.000591937
0.0146798
0.439144
0.0200722
0.000352848
-0.0475981
0.531786
-0.00378413
0.937607
-0.154906
0.94447
-0.00183034
-0.0579436
1.04088
-0.0136804
0.253983
-0.00101692
-0.00334558
-0.172965
-0.0580242
-0.0952701
-0.0247692
0.0703198
-0.0638048
-0.187778
0.948164
0.000710019
0.00199459
-0.0506231
0.296291
-0.0972332
-0.153551
2.23813e-05
-0.0472501
0.120326
-0.000248676
-0.159915
0.202022
0.948367
-0.143434
0.940998
-0.0347679
0.33072
0.540947
-0.0910468
0.746017
-0.00423897
0.321636
0.00512478
0.205037
0.450698
0.392053
-0.0713795
0.0158845
-0.00157415
0.399959
-0.000198734
-0.000313393
-0.00264235
0.0696509
0.0496724
0.038399
0.819116
0.390172
1.14249
0.768725
-0.00387599
-0.085225
-0.000403588
-0.11947
-0.0026883
0.0147604
0.00165941
-0.0724716
0.702525
0.922039
-0.000726192
6.11346e-05
0.230335
-1.29869e-05
-0.0231156
-0.000438489
0.343847
-0.0912272
0.412929
-0.169018
0.000116257
-0.0353931
-0.101573
-0.0554619
-0.0414705
-0.137167
0.197266
-0.000401441
-7.19482e-05
0.00531221
-0.000327862
0.224758
0.363345
0.102213
1.07389
0.113832
-0.190191
-0.229731
-0.00108537
0.124688
-0.000294776
0.892715
0.232301
1.01829
0.000380639
-0.0823113
-0.0171494
0.129532
0.552281
0.842011
-0.018942
0.101261
-0.00484517
-0.0426385
-0.0201363
-0.0153279
0.246672
0.00403721
-0.0155579
-0.0509404
0.62689
0.189536
1.20664e-05
-0.00220878
-0.0155949
-0.00151374
0.301994
-0.0016619
-0.0428003
0.372406
0.000208509
0.571243
0.000234419
-6.91417e-06
-0.198344
-0.0280951
0.000435881
-0.0566047
0.000461342
1.05923
0.0312786
-0.0619856
0.979928
0.287866
-0.0801097
0.806829
-0.00690538
-0.00466261
-0.00520446
0.217338
1.26956
-0.00370626
-0.00145477
1.09891e-05
0.0197049
-0.00310862
0.0622826
0.0153854
-0.0530091
-0.150379
0.0464608
0.0278712
-0.0463925
-0.00133158
0.0777364
0.828545
-0.00447031
-0.034576
-0.000563771
0.818282
0.141302
0.818054
0.00110597
-0.00209715
-0.0585095
1.07338
0.328535
-0.0711461
-0.000312693
0.0789886
0.311471
0.00167765
0.460055
-0.122599
0.0538286
-0.194053
0.839862
-0.0349673
0.530326
-0.00788523
1.2148
-0.104847
-0.0275436
0.996648
-0.109193
0.365749
-0.210725
0.397619
0.0161467
0.122938
0.676386
0.120918
-0.123696
-0.024225
-0.0183649
-0.0128246
0.0865514
-0.00335828
-0.137839
-0.0720579
0.00506792
-0.16847
-0.210408
-8.05595e-05
0.417923
-0.022742
0.447166
1.01701
0.773676
-0.137997
-0.179086
0.00118537
-0.119829
-0.00941511
1.17736
-0.0890885
-0.0769131
0.762371
0.115251
-0.0962974
0.563191
-0.0935699
-0.00154591
-0.0293224
0.0252326
0.00176364
0.796682
-0.0067346
0.314425
0.75043
-0.0143401
0.503849
-0.169893
-0.000918382
0.0168465
0.270139
0.756612
-0.00629627
0.22647
-0.171541
0.195173
-0.0572776
0.774197
0.0623479
-0.019049
-0.00631247
0.000477199
0.934566
-0.0060679
-0.048826
-0.000252897
0.444705
-0.000144835
-0.0976063
0.00156552
-0.107598
0.00171832
-0.024259
0.498786
-0.0096507
0.00232895
0.00165987
-0.0101807
0.211799
-0.000191348
-4.81508e-05
-0.0212032
-0.0263257
-0.0550639
0.0202989
-0.00474068
0.179275
0.185392
-0.00313567
0.00255942
-0.000476486
0.924695
-0.0104981
-0.0169326
0.828898
-0.0452883
0.782435
0.143375
0.938986
0.486622
0.269287
-0.00370771
0.023071
0.192022
0.0634163
-0.0108934
0.000487308
0.0210457
-0.123819
-0.00236437
-0.0207036
-0.020024
-0.0218869
-6.38831e-05
-0.00813988
0.000171151
-0.000177386
0.00218308
0.692138
0.496077
-0.0276564
-0.00700239
-0.117835
-0.0518385
0.620233
0.852201
-0.123826
0.00516314
0.447974
0.0120982
0.00152023
-0.185813
3.4896e-08
0.274106
0.365635
-0.00162632
-0.0899067
0.000537105
-0.019587
-0.0193403
0.236084
0.0604076
-0.133046
-9.65114e-05
0.0269495
0.00437555
-0.0853777
0.0139809
0.950873
0.000954728
-0.00974936
-0.0799622
0.589315
0.686395
0.749492
0.151024
0.000147309
0.0165518
-0.0015785
-0.0035088
-0.00238506
0.221308
0.465173
-0.0301583
-0.0739906
0.693931
-0.0103367
-0.0139868
-0.146991
0.21649
-0.00239364
0.207186
-0.0349629
0.242179
0.350966
-0.148243
0.00128189
-0.0101338
0.246583
0.00338183
-0.000159239
0.425994
-0.00099314
0.785077
0.677167
-0.21972
0.635234
0.0967186
-0.00902918
-0.12019
0.735172
-0.0507394
0.61334
0.117718