/*--------------------------------*- C++ -*----------------------------------*\
  =========                 |
  \\      /  F ield         | OpenFOAM: The Open Source CFD Toolbox
   \\    /   O peration     | Website:  https://openfoam.org
    \\  /    A nd           | Version:  7
     \\/     M anipulation  |
\*---------------------------------------------------------------------------*/
FoamFile
{
    version     2.0;
    format      ascii;
    class       volScalarField;
    location    "2";
    object      p;
}
// * * * * * * * * * * * * * * * * * * * * * * * * * * * * * * * * * * * * * //

dimensions      [0 2 -2 0 0 0 0];

internalField   nonuniform List<scalar> 
29540
(
0.0833151
0.879818
-0.0791588
-0.295435
-0.021921
-0.330014
-0.036541
0.0837373
0.0184631
0.00164111
0.065056
-0.0388454
-0.0043999
-0.000217832
1.07036
-0.0531183
-0.00153483
0.497942
-0.0196088
-0.0923095
-0.00786358
0.0173097
-0.0796373
-0.0192897
2.735
0.873578
-0.00469446
2.39163
1.0484
-0.0139098
0.144157
0.438721
-0.430698
-0.0527585
2.40589
-0.0454686
1.00944
-0.239511
0.0511348
0.0495734
0.00387837
-0.138449
-0.00137881
-0.103734
0.00026495
-0.0119375
-0.0331123
0.000663224
0.030451
0.985658
-0.000268758
-0.263768
0.450576
-0.321577
-0.0519641
0.982264
-0.0305322
-0.00807392
-0.0349402
-0.110366
-0.00055735
-0.0190098
0.449575
-0.0389925
1.52784
2.5763
-0.0585713
-0.073292
2.4712
0.00405478
0.865664
2.04218
0.0229175
2.6425
-0.0687493
0.224311
1.14308
-0.216173
-0.000419748
-0.104018
-0.300317
1.14081
0.0825475
2.89414e-05
-0.0201052
-0.274415
1.60166
-0.00454836
-0.00425806
-0.44288
-0.175163
-0.217229
0.0281161
0.456245
-0.454054
1.65744
-0.217956
0.00427399
-0.321137
1.22312
-0.00044538
-0.20297
-0.000548853
0.328052
-0.270759
0.754826
1.80145
-0.00410198
-3.36847e-05
-0.368279
-0.433804
0.136231
2.17473e-05
-0.013394
-0.00163806
2.00804
1.23788
-0.10102
0.000211763
0.0261511
0.0593296
0.930857
0.143786
2.58078
0.00988797
0.263789
0.525763
-0.0788628
0.0369854
0.000169449
-0.0944902
1.10025
2.06791
0.0508844
0.325353
0.1402
1.8609
-0.207032
-0.45275
1.18778
0.293662
-0.387606
-0.369602
1.67504e-05
-1.72476e-05
-0.022451
-0.0308898
-0.339529
-0.281141
0.669568
0.241078
0.12274
0.00388056
-0.00120604
1.19008
0.00469964
-0.0650393
1.80416
1.38995
0.0188701
-0.289265
-0.28761
1.01469
-0.000438585
-1.91232e-05
-0.101438
-0.361753
0.000446777
1.8215e-05
-0.0597567
0.000299026
0.0521979
1.83709
-0.204616
-0.246352
-0.0440426
0.0188019
-0.207619
-0.0105731
0.192642
-0.000133257
-0.0108335
1.59622
-0.0692071
-0.44469
1.20069
-0.0547912
-0.155014
0.0344487
-0.0119761
-0.00251732
0.0265222
2.60847
1.17421
-0.118979
-0.0626655
2.23713
1.07363
-0.446744
0.0104263
-0.112726
-0.376844
-0.0368179
0.00752097
1.86561
-0.057968
0.0625157
-0.344075
-0.377776
-0.000267769
2.18047
-0.00918622
2.96624e-06
-0.00485449
-0.161425
0.56849
-0.00151326
0.06097
-0.0190814
-0.442703
0.000197299
0.00421431
-0.0205409
0.62517
-0.0246203
-0.0128013
0.43129
0.00111862
0.000246943
0.047558
-0.224005
-0.184945
-0.0414934
0.857662
-0.126756
0.128359
-0.000232059
-0.0266671
0.0069936
-0.0954538
-0.489261
-0.0121515
0.00418196
-0.0137905
0.0268699
-0.0904712
-0.000414226
-0.254713
0.000336477
0.634271
-0.02966
0.00128325
0.764485
-0.388235
0.0022356
-2.25063e-06
-0.388572
-0.467654
-0.0770569
-0.0896977
0.240709
1.53428
0.000695097
-0.21795
0.113127
2.29278
-0.070075
1.18625
0.250385
-0.00161241
3.02637
-0.00489189
-0.26274
-0.436729
0.020137
0.415078
-0.072207
2.09732
-0.0303127
-0.152757
-0.00236258
1.4679
-0.0224479
1.68429
-0.00458172
-0.05059
2.34854
0.551487
0.430008
-0.267015
-0.00139398
0.0259609
-0.0016141
1.31625e-05
0.618375
0.000322377
-0.166271
0.102757
2.76054
2.04909
-0.346675
-0.153681
-0.177494
0.116764
0.0314586
-0.156736
-0.360391
1.56586
2.03227
-0.0113559
1.77951
0.602755
0.155742
0.104526
-0.00990962
-0.0299051
-0.0471782
-0.0237988
-0.00051637
-0.0140027
0.227277
1.49522
0.0148274
-0.230016
0.121371
-0.000306755
-0.353169
2.86074
-0.0551126
-0.0116294
0.111232
-0.10019
0.829361
-0.0121538
-0.000275925
2.32814e-05
-0.0240775
2.36153
0.250499
-0.479465
6.52066e-07
-0.488184
0.534341
-0.0450574
-0.419522
-0.0107193
-0.00402337
-0.209085
0.00833778
0.204878
0.0952541
0.980857
-0.00104793
0.022673
0.923294
0.0756183
0.00383583
0.00407444
2.00317
-0.172686
-0.0135218
1.11657
2.3187
-0.0258122
-0.0558233
0.592789
-0.00705286
-0.0752236
-0.0296669
1.05336
-0.000205716
0.0917217
-0.237681
2.06078
2.6263
-0.0532531
-0.0787423
1.56255
-0.116272
-0.000502899
0.86776
0.65694
0.667154
-0.0620947
0.227851
2.39216
-0.326409
2.18568
2.07096
-1.98982e-05
0.231097
-0.299889
-0.025725
0.0151051
2.33502
0.249773
0.00254565
-0.266899
-0.385285
-0.0496648
-0.00111352
1.73959
1.2163
0.000370958
0.0381063
0.0504702
-0.0942223
-0.264671
0.000519525
-2.05193e-05
0.00453559
0.848454
-0.237946
1.63404
-0.409251
-0.147839
-0.189577
1.09699
0.465094
-0.0110112
0.0752907
0.00775327
2.22429
-0.221526
0.0100401
-0.0668927
0.317738
-0.0126201
-0.108052
0.0021455
0.00220594
2.8899
-0.071893
-0.0446225
-0.00396308
-0.00689394
1.47806
-0.239875
-0.199208
4.17384e-05
4.93882e-06
-0.229049
-0.0600485
-0.0471632
0.158398
0.0582397
-0.0206956
0.396751
-0.153465
2.16067
0.0578891
0.00227619
-0.347665
-0.196164
0.462304
-0.0298515
-0.201224
-0.000129199
2.51471
0.177997
0.000763519
2.60818
-0.206179
-0.000138276
0.013602
-0.354107
0.138728
0.411407
-1.25716e-05
-0.0719536
-0.0193129
-0.0481711
-0.00440248
-0.0740985
2.25221
-0.0736139
-0.104045
1.23364
-0.026272
2.27168
-0.000154637
-0.134208
-0.333754
-0.196282
0.0449089
-0.0142147
0.0281325
-0.00157665
-0.165249
0.12135
-0.00029047
5.30604e-05
-0.0571356
2.11797
0.0762043
0.0238243
-0.457083
6.40469e-06
0.00921128
-0.00044671
0.0925905
-0.154047
-0.00368596
-0.068088
-0.110282
0.00963807
-0.00016266
0.229168
-0.00353144
0.496122
1.93676
1.58091
-0.0320652
0.0573321
0.233959
-0.00102538
-0.0300718
-8.40994e-06
2.09224
-0.120898
0.156112
-0.150376
0.0183209
-0.0281029
-0.00100056
6.56757e-05
-0.0433673
0.438206
1.41975
0.0117512
-0.312841
-0.221178
-0.0704245
0.672113
-0.0124164
0.0146577
-0.0506367
-0.000923223
-0.361146
1.55001
1.13397
-0.194095
1.51016
0.000768664
3.54068e-05
0.860037
0.448217
2.60417
-0.278331
-0.188195
0.352221
0.0111486
-0.0527742
0.00432479
-0.0943559
-0.113142
-3.83122e-05
-0.00839757
2.04854
-0.00136707
2.453
-1.38042e-06
0.288914
0.478828
0.420228
0.00994583
0.00174566
2.07671
0.514827
-0.34279
1.15885
-0.0549556
-0.117785
-0.0376128
1.5983
-0.221851
0.130862
-0.0652532
9.65887e-06
-0.0122624
0.057144
-0.157283
-0.189818
-0.355485
-0.159065
0.796739
-0.0200522
-0.437052
-0.121695
0.000345104
-0.107417
0.114102
0.808885
-0.23474
-3.12171e-05
-0.16024
6.96253e-05
0.0133358
-0.316565
1.63263
0.0085564
-0.105752
-0.0264713
0.556889
2.21877
0.0173428
-0.0365553
1.48632
1.01463
-0.126246
0.0470636
-0.39213
-5.54973e-06
-0.349862
0.000793251
-0.0366855
-0.000257679
0.000242101
-0.0477247
0.475633
1.99557
0.124672
0.113717
-1.13279e-07
-0.0568777
0.00082536
-0.0300289
0.000245582
0.433235
-0.00455491
1.15992
-0.00123416
-0.113876
-0.30568
-0.0394627
2.20932
-0.146126
-0.277158
-0.051559
0.384387
-0.329307
0.253359
-0.0710626
-1.47952e-05
-0.0410941
-0.0369693
0.0023345
0.000793793
1.59158
-0.0456736
0.603892
-0.0326177
0.00819115
0.28463
0.00155639
-0.00017035
-0.346453
-0.0327461
0.000272547
1.5063
2.78839
-0.00203261
-0.294473
5.08118e-05
2.41359
0.276329
-0.296726
0.000350823
0.132842
0.475605
0.551568
0.40734
-0.00398453
-0.00135586
-0.134083
1.39936e-05
2.07023e-05
-0.226161
-0.208716
-0.347849
2.69874
0.00189374
-0.191131
0.0733248
-0.000152361
-0.011345
0.000248481
-0.053151
0.00038976
-0.0582333
0.245889
2.25087
0.373857
-0.00268585
0.0043878
-0.122407
0.590864
-0.0288549
7.61001e-05
1.33092
-0.453149
-0.269388
-0.124563
-0.000171473
-0.00266868
-0.460635
-0.158255
0.967566
2.15413
-0.269767
-0.0118852
-0.000135406
-0.345867
-0.428796
-0.00196174
0.0361855
-0.122135
-0.0434335
2.03137
-0.0120944
0.0862316
1.17305
-0.0700031
2.61184
2.56381
-0.000278541
-0.000354555
-0.144473
0.14605
-0.284677
0.0507249
-0.0677736
-0.00545515
2.35443
1.13494
0.0217079
2.98878
3.93859e-05
0.741489
-0.361488
-0.182176
0.000884073
-0.295281
0.763809
0.139989
0.500507
-0.00431489
-0.00463404
0.00426302
-0.0322487
-0.117887
-0.0100837
0.911742
-0.0463263
-0.047265
-0.468533
1.97742
0.274785
0.279542
-0.00386564
-0.00490535
-0.169947
0.00942843
-0.024424
-0.000164418
-0.00348617
0.766064
2.08609
-0.00124678
1.40943
-4.19125e-05
-0.0312159
-8.11899e-05
0.0519421
0.198032
-0.000371438
-0.000380175
-0.41641
1.5554e-05
0.415479
-0.189185
-0.000323859
1.18231
-3.5588e-06
-0.00385337
-0.000859896
-0.0456352
-0.003548
-0.0561119
-0.398361
-0.0031548
0.0407729
-0.000174984
1.96871
0.0746352
0.273163
-0.268848
-0.186662
-0.0104775
0.0279605
1.32623
-0.203026
1.28892
-0.324876
-0.032236
-2.07398e-05
-0.0522179
2.08
1.2905
-0.257887
-0.405911
1.90396
-0.075348
-0.351215
-8.18828e-05
-0.196566
-0.00793726
2.94339
-0.325692
-0.000840048
-0.431739
-0.210002
1.4822
-0.0241319
-0.218444
-0.0321085
-0.0446059
-0.0118474
1.4771
-0.482979
-0.16149
-0.128142
-0.113007
0.053342
1.87441
-0.157908
1.16432
0.0260694
0.0546552
2.47838
-0.0767248
-0.00219979
1.50872
2.05315
0.0102351
0.209153
-0.0561783
-0.26536
1.48223
-0.352677
-0.000181439
-0.0660166
0.000302337
-0.0407748
-0.00019382
-0.0370062
-0.00894034
-0.0283777
-0.0494177
-0.00561203
-0.00468862
-0.00974949
1.25598
-0.0192223
-0.0294094
-0.0268548
1.0841
0.0494215
-0.00334509
2.0544
2.532
-0.164208
2.36549
-0.144342
1.92356
0.0508813
-0.0703696
0.023911
-0.00425515
0.000135765
0.0238828
-0.0992272
-0.164487
1.14265
-0.188335
-0.166713
-0.00840758
-0.00423109
-0.190084
0.0609336
-2.843e-05
0.128032
0.972302
2.02604
0.267618
-0.10989
0.928368
-0.00293902
0.309098
-0.14742
0.00597558
-0.425587
0.0338602
1.92511
-0.018245
-0.0047838
-0.00111273
-0.345961
-0.0105792
2.94892
3.02561
0.105155
-0.000285348
0.0736602
-0.000140899
0.551577
-0.00475874
0.190415
2.79733
0.495688
0.000146162
-0.0672829
-3.102e-05
-0.494958
-0.280407
2.32149
0.00198569
0.101355
0.0335281
0.00246312
-0.0194898
-0.00261847
-0.0497412
-0.270423
-0.18345
0.0734417
1.15905
-0.107505
0.0551731
-0.163686
-0.0143763
-0.21409
8.91632e-05
0.000364676
-0.0185628
0.241476
-0.192705
-0.127268
-0.0302864
0.0228649
-0.0565635
1.64836
-0.104152
-2.27691e-05
-0.414323
2.15731
0.04157
-0.0963593
0.66227
1.17084e-05
-0.00564473
-0.22356
-0.000231643
-0.00376576
-0.000148678
2.98776
0.0742925
0.0302438
2.00238e-06
1.67925e-05
-4.12292e-05
-7.65134e-06
-0.181134
2.06716
-0.279176
-0.00376308
-0.00134578
-0.0383268
2.28671
-0.349074
2.16977
0.303646
0.903687
-0.00109426
2.25691
-0.0178447
-0.073675
0.207205
0.0826297
0.0913224
1.1503
-0.318647
2.23005
1.74018
-0.0625648
-0.210842
0.0755895
-0.226706
-4.48346e-06
-0.00753761
0.0221583
0.503805
-0.0513116
-0.181726
-0.025543
2.70252
-0.381992
-0.000250232
-0.000205325
2.33972
-0.0388734
0.0267817
-0.103086
-0.0178409
-0.1166
-0.0753892
0.0826896
0.752442
0.323711
-0.0777637
-0.10886
0.000649938
-0.0448775
-0.00467654
-0.0613702
-0.000197367
0.000419105
-0.0983038
-0.153553
2.20973
-0.0666518
-0.00154939
-0.0115983
-0.002435
2.04081
0.0613728
-0.000255473
-0.184577
-0.0348574
-0.0269851
-0.210284
-0.24903
0.0529052
0.437236
-0.370824
0.000544409
0.045763
-0.103662
-7.4133e-05
-0.000469512
0.74694
0.580982
0.256425
-0.374835
-0.333558
0.0039733
2.48172
0.000583041
-0.100659
2.09678
-0.129576
-0.273065
3.14151e-05
0.00116725
-0.270815
-0.0707599
0.0104511
-0.249685
1.37135
1.75039
0.00507826
0.00193826
1.35033
-0.0940639
-7.58746e-05
-0.0109513
-0.21048
-0.156866
-0.0655121
-0.00723037
1.42059
9.95343e-05
0.517218
1.63086
0.000259845
0.102521
-0.00333769
-0.371216
-0.10159
-0.00490442
0.195224
0.00152446
1.35294
0.0103048
0.159227
0.242871
2.75243
1.924
-0.400911
-0.051029
2.41937e-05
0.297783
-0.093763
0.979677
1.90075
-0.247309
0.0575561
-0.111454
-0.0426246
0.8863
-0.00135146
2.3382
0.179291
0.000332681
0.000265786
0.000701839
-0.0845416
-0.116594
0.00490166
0.544971
0.838139
-0.369822
0.00465659
0.00046216
-0.148701
-0.00024404
-0.0183381
-0.0698634
-0.00396584
0.385579
0.0318382
-0.00864121
-0.0243689
-0.100627
1.92168
1.97227
0.250067
-2.85194e-05
-0.00348796
1.43433
-0.00289228
-0.288719
-0.00129841
-0.124575
-0.423958
-0.00127951
-0.00145869
-0.196891
0.00922919
-0.000454829
-0.00827151
1.26505
-0.216928
-0.000202111
0.594474
1.91574
1.99411
0.00405892
-0.294859
-0.0578602
2.14848
-0.379673
-0.388088
0.0274726
-0.0804431
0.187647
-0.159316
1.99072
0.572366
-0.0011046
-0.333744
-0.458011
-0.0233433
-7.82758e-06
-0.0109645
1.22047
-0.00116109
0.0623389
-0.0243901
-0.00737243
0.0570226
0.180189
-0.00114345
-0.000769513
-0.031444
-0.361391
-0.217413
-0.405898
1.37369
-0.00390967
-0.00168774
-0.211623
-0.147148
0.0636205
0.0829893
0.000430515
0.444682
0.881402
0.116281
0.154334
-0.00387934
-0.081521
0.365149
0.00800156
-0.000321993
-0.0542429
-0.0247065
-0.0044588
-0.0652819
-0.00513858
1.63979
-0.0546416
-0.47681
-0.143385
-0.0649379
0.0726116
2.40722
-0.270102
-0.000737877
2.24431
0.976391
0.0477192
-0.0356569
0.0465183
0.24485
0.940159
0.00212253
-0.0119734
2.78042
1.58565
1.87169
-0.269195
-0.00851266
-0.00749165
-0.000214069
-0.00784166
1.75187
0.502553
0.0333888
-0.0144475
-0.0021632
0.107817
2.58351
2.08033
0.484683
-0.0171254
-0.392762
-0.0199189
-0.00441285
-0.106272
0.10456
-0.166598
-0.021346
0.00550413
-0.441555
-0.367385
0.184096
-0.148001
-0.00852807
-0.158109
-0.0012393
-0.0413265
-0.0041964
1.93655
0.000298772
1.0724e-05
-0.099525
-0.119639
-0.174434
0.238008
0.000277797
-0.453838
0.424381
1.14269
2.94191
-0.0277567
-0.31595
0.189919
-0.0127272
0.535657
-0.00363895
0.06458
-0.00116665
1.54989
-0.0816792
0.0653742
0.846099
0.698981
0.00902646
0.0214992
2.3049e-05
2.20382
-6.04407e-06
-0.27634
0.00202577
0.0105989
1.07223
0.616599
-0.383063
-0.23733
-0.0242701
3.0016
-0.400464
2.47948e-05
-0.0926506
-0.000249421
-0.0634132
0.62785
1.1422
0.00539232
-0.21126
-0.0557846
0.885208
0.437814
-0.195035
2.73355
-0.0584844
0.000395177
-0.409798
2.80135
0.0156063
0.559225
-0.255528
0.909171
0.0113628
0.231877
-0.470436
0.0384602
0.333691
-0.0888377
1.27269
-0.156813
-0.115467
-0.00477538
-0.00481186
2.46992
-2.94449e-05
-0.0290271
-0.000182533
-0.0481076
0.00212029
-0.0426116
1.51741
-3.78765e-06
-0.00615246
0.757341
-0.463364
-0.12758
0.00688499
2.06822
-0.264766
1.00774
-0.0707075
0.91909
0.0452744
-0.00446731
0.0055522
0.00466676
2.53642
-0.157844
-0.000696282
0.0135725
0.849115
-0.0664037
-0.00417662
-0.000766751
-0.374721
-0.0154795
-0.0569401
-0.397333
9.4548e-06
-0.414079
0.00264748
1.89179
-0.0594619
0.885019
0.0292225
-0.0220336
1.56114
-0.256583
-0.402735
-0.025698
-0.379419
1.60798
1.70804
-0.0831859
-0.000133184
-0.0918745
0.0280478
7.38416e-05
0.475033
2.00788
0.0762936
0.00951866
0.0753625
-0.4208
-0.00103017
0.512683
0.31097
0.477364
0.0801526
0.168984
-0.00232197
1.03463
-0.0399138
-0.471308
-0.00602376
0.146517
0.874589
0.00481637
-0.43498
1.25434
-0.203097
-0.437612
-0.466756
-0.317228
-0.323678
0.321947
1.25942
-0.383201
-5.9464e-06
0.00531858
0.0485659
-0.0105955
0.0839242
-2.90749e-05
-0.0342155
0.0239649
-0.000414312
0.346736
-0.00308982
0.726076
-0.190869
-0.0252648
-0.0411547
-0.0512561
-0.376748
-0.0351648
-0.00616297
0.128989
0.482118
0.030398
-0.199437
-0.0176824
0.183437
-0.0563924
-0.115267
-0.4567
-0.0949431
-0.000198319
-0.0911845
2.22878
0.000181208
0.948791
-0.153526
2.68351
0.298749
-0.284951
-2.98921e-07
0.0101351
-0.451346
-0.000111373
-0.0162483
-2.34965e-05
-0.391868
0.0273678
-0.355676
-0.13853
-0.000768061
1.53039
1.47054
-0.212129
0.00269795
-0.00104817
-9.57823e-06
-0.0003293
2.48741
-0.00796253
0.0137067
0.132145
0.00574143
-0.00360091
-0.467397
-0.00160821
0.297164
0.0260761
-0.0126908
-0.0044276
-0.15565
-0.246269
1.06558
0.67673
-0.00100558
-0.0785473
0.00328543
-0.157224
-0.00303187
0.831832
-0.040158
3.0349
-0.062078
-0.00875938
0.454918
-0.114126
1.87396
-0.250146
-0.0680523
-0.0779924
0.111504
-0.021839
4.49402e-05
-0.0497091
1.69554
-0.269046
-0.0196436
-0.255197
-0.164558
0.905133
-0.00309281
1.57252
0.00551643
-0.36858
-0.00323632
0.0808803
0.283581
0.00123759
1.86964
-0.00287665
0.201389
0.535058
0.00311479
-0.000810916
2.6246
0.452505
-0.000733257
0.184847
0.155532
0.000779143
-0.165635
-0.133365
-0.453751
-0.0602742
1.79158
0.0284558
1.13223
-0.00241943
2.08743
-0.429421
-0.0321324
0.0381647
0.192192
-0.355396
-0.314775
-0.0519948
0.000304296
2.79464
-0.137504
0.00497888
-0.0145702
-0.242801
1.89815
0.0182473
-0.0988747
-0.000314342
0.600491
0.0494857
-0.235226
0.00495215
-0.0212123
-0.171679
0.000210512
-0.317875
-0.00941767
-0.0899435
-0.393862
1.58136
-0.0620171
0.401253
-0.162129
-0.184795
-0.000188347
0.000879237
-0.0229585
0.000217514
-0.0686318
0.260351
-0.0127311
9.06553e-06
2.50956
0.0308522
0.00202979
-0.000231514
-0.0128263
1.84065
-0.328053
2.7943
1.09735
0.139493
1.56829
-3.00485e-05
-0.0846044
-0.00515312
-0.0151695
1.13801
-0.0597595
2.85169
1.45697
-0.341958
1.49397
0.057207
-0.0861473
0.0137281
-0.146456
-0.024488
-0.318447
-0.349564
-0.0184679
1.4863
-0.0600976
0.000858387
-0.0264887
-0.00413054
-0.215747
-0.00103532
-0.00773957
-0.000154791
0.953045
-0.295017
1.53041
0.179464
-0.0170512
-0.186308
-0.121403
0.446596
-0.0188954
-0.0066067
-0.402879
-0.274874
0.080473
-0.26581
-0.0276493
0.105663
0.0223683
0.000204944
0.840664
-0.00024363
0.349659
-0.00499856
2.24199e-05
0.0121092
-0.00417309
-0.00758362
-0.0967825
1.09554
0.896776
-0.124542
-0.077173
0.0178238
-0.0317388
-0.0627835
0.000229515
-0.00307053
0.00422893
0.695261
-0.0508096
-0.339369
-0.260654
-0.0123674
-0.114142
-0.0523498
-0.010555
0.0329578
-0.0768238
1.39701
-0.383304
0.0403157
0.0175545
-0.231109
2.7592
-0.0608815
-0.0230159
0.0483046
0.504052
0.0248212
0.00760255
1.49373
-0.00229093
0.280895
-0.133849
-0.270516
0.0393698
-0.0231514
-0.0342804
0.257536
-0.0224226
-0.00389278
0.0160423
0.0160065
-0.0014613
0.232319
-0.0573671
-0.0125307
-3.02365e-05
0.961652
-0.000225878
-0.177802
0.487764
-0.136445
0.000851638
0.687573
-0.188653
1.03478
-0.000329825
-0.0243761
0.723398
0.00107428
0.030724
-0.0281251
0.0653425
-0.128407
-0.201135
-0.0499123
-0.0166778
0.0618456
0.12841
0.701013
-0.00118775
0.714702
-0.248264
-0.0205486
-0.0429601
0.00246065
-0.272761
0.00045106
2.25157
1.34539
-0.00308298
-0.130339
0.00135785
-0.0136616
-0.0303552
-0.0681993
0.961446
1.05583
0.187952
0.0636398
-0.450858
0.241405
0.423454
0.510455
-0.315354
0.117927
1.28584
-0.0585733
2.0193
-0.00569939
-0.0673607
-0.279139
-0.000584964
-0.00466747
-0.000234596
2.0057
-0.0633871
0.00163626
-0.0953099
-0.0244703
-0.00203725
-0.0806814
1.66219
0.00640753
0.0686346
-0.16537
-0.00304779
-0.0282309
-0.00490749
2.87842
0.00128238
0.000160554
-0.0114923
-0.0851425
0.724348
0.00329569
0.120791
0.483816
-0.00097712
0.0131723
-0.443284
0.523597
-0.16802
4.16168e-06
0.00208085
0.0778379
0.202243
1.72688
0.569816
-0.215621
5.82817e-06
-0.269673
-0.0161259
-0.0758972
-0.0733246
1.05364
2.18143
-0.000655654
0.895973
1.37303
-0.0591365
-0.0188473
-0.129619
-0.0554971
0.00066688
-0.245521
-0.051621
-0.000713476
-0.00329232
-0.00948998
-0.0115901
-0.00411577
1.70319
1.8723
1.26597
-2.27841e-05
-0.141645
0.360688
0.649199
2.28046
-0.00301494
-0.123893
-0.112182
1.82297
-0.115407
-0.0558129
0.0750849
0.918447
0.0018182
-0.00301141
-0.145034
-0.196663
0.913839
0.353228
-0.221949
-0.137086
0.723279
0.128105
-0.286649
0.0428666
0.322796
0.977405
-0.0021426
-0.00374711
0.692369
0.00124547
0.277309
0.194339
-2.58909e-05
1.76501
-0.0623111
-0.0269219
2.90722
-0.223101
-0.0456349
-0.230859
-0.0144867
2.16635
0.00705629
2.7586
-0.000818286
-0.00458209
2.84072
0.0420449
2.17552
-0.0348564
1.28977e-05
-0.109731
2.26876
-0.00944844
-0.040244
-0.0485939
-0.00606389
-0.126833
2.22641
0.697988
5.03313e-05
0.126656
-0.0226076
0.185
-0.00534858
0.141544
-0.0159136
-0.00283017
2.1257
2.30237
2.1389
-0.309645
0.39169
0.000887011
-0.345963
1.56402
0.110432
0.00146526
-0.268976
0.00359655
-0.000628743
2.27081
0.000761357
0.0258733
-0.0114715
-0.0528824
2.15302
2.25474
2.28345
0.0730051
0.00293108
1.2344
0.0463671
0.173962
-0.0546153
0.000419983
-0.0179634
-0.000122923
-0.0274453
-0.00448346
-0.0338554
-0.000395032
0.886697
0.0127741
-0.350057
-0.0541925
-0.426743
-0.0976008
-0.00461117
1.92341
-0.0645506
-4.69302e-05
-0.000160583
2.73581
0.000171632
0.0698378
0.366015
-0.107822
1.68924
-0.0315705
-0.260933
-0.220085
-0.00304067
0.000760226
1.42481
2.28046
-0.0092419
-0.119377
-0.00140626
2.28727
2.65866
-0.00863337
-0.0380554
0.117629
0.0191741
-0.145725
0.00039203
0.0619591
-0.222616
0.370221
1.96404
-0.00898492
0.175249
0.752291
0.366674
-0.267246
0.174397
2.58929
1.12188
-0.327116
2.33227
-0.00347986
2.28052
-0.0402487
1.95172
0.496873
-0.0304865
0.248651
0.014561
0.107584
-0.443209
-0.00404364
-0.138759
1.99469
-0.153564
0.185547
-0.0087466
0.192075
1.09112
-0.0544418
0.071529
0.00432131
-0.0216794
-0.141763
-0.0129309
0.0120536
-0.0525706
-0.00300437
0.0146272
1.94789
0.0138517
-0.095265
-0.338846
-0.170872
-0.382811
-0.405278
0.0254134
-1.0369e-05
-2.3187e-05
1.45969
-0.276558
0.000357517
-0.108607
1.01302
-0.343976
-0.0882228
0.000701241
-0.0111895
-0.275493
0.888958
-0.0460429
-0.00286639
-0.275013
-0.113231
2.82978
0.648567
0.426214
-0.272392
-8.19052e-06
-0.0398078
0.386834
-0.00214789
0.000111969
0.973745
0.603648
0.00370964
-0.00500647
0.0608682
-0.185617
0.0632896
0.0521865
-0.0886279
0.000314383
1.72234
0.00352015
-0.00379957
-0.00137967
-0.00129911
-0.000906678
0.481387
0.00606018
-0.016547
-0.0558503
-0.0262228
0.174152
-0.0318215
-0.244481
-0.0605997
2.12057
1.79234
-0.00287963
-0.00846962
0.584625
-0.00479369
-0.110482
0.474246
0.638865
-0.00563353
0.122572
0.239478
0.00778618
0.691366
-0.000593759
0.0442269
0.0389252
0.0831049
-0.0833267
0.287257
0.000437096
0.00830695
0.00166381
-0.000257769
-0.00832528
-0.0560515
-0.0741109
-0.168268
0.44086
0.241007
0.0537576
-0.326845
0.0750748
0.05607
0.0775299
0.000344934
2.21746
-0.0473111
-0.0188786
0.0669328
2.86546
3.57187e-05
0.557328
3.76165e-05
-0.0343653
-0.0369619
-0.122855
0.969802
-0.0228575
-0.000148428
1.15376
0.41395
-0.00318945
0.301168
-5.24016e-05
0.894804
0.0470825
-0.15905
-0.00081118
1.3546
0.167309
-0.116804
0.000236018
0.93011
1.66889
-0.00645744
-0.000176998
-0.203457
-0.0512134
0.0787523
0.160498
2.29029
1.42131
0.00278011
1.87199
1.3836
-0.0161094
-0.323862
-0.171692
-0.081634
-0.268272
0.923016
0.0047379
2.40041
0.856156
0.0723903
0.000544399
0.00365275
4.99343e-05
-0.003139
-0.0157868
2.58467
6.58795e-05
0.446479
0.155995
-0.00128258
2.43758
2.67064
1.07806
1.23013
0.180592
0.0141168
-0.00160147
-0.0613531
-6.03719e-05
-0.00615586
-0.471349
-0.000126654
-0.00839551
2.47224
-0.0645766
-8.95777e-05
2.52208
0.002651
-0.201513
-0.385003
-0.00733323
-0.370414
-0.00131813
0.937865
0.0189669
-0.0888475
0.0108899
-0.0035738
-0.00217981
-0.0012383
-0.490676
-0.334368
0.839551
0.0162178
0.00050634
1.30116
0.000424908
2.78663
-0.00303377
-0.489774
0.0127515
0.00916413
0.287384
0.304732
4.55168e-05
-0.023081
0.000609096
-0.00376987
0.00478661
0.468758
0.274509
1.69186
-0.18561
-0.000539791
0.000962539
0.544596
1.92664
-0.0248952
-0.0349399
2.75573
-0.0153557
-0.114876
0.00581451
0.492304
-0.165201
-0.0472587
0.857571
0.00750998
-0.00136436
0.00924838
0.179122
2.77825
2.1965
-0.134254
-0.183266
-0.0350552
0.00874692
0.00016104
0.418951
1.11541
5.33926e-05
-0.0403901
-8.68804e-05
0.000775568
2.10945
-1.801e-06
-0.374518
-0.272652
-0.374784
0.390539
4.24263e-05
0.0564222
-0.0328362
1.97548
0.142452
0.0280616
-0.166942
0.00357287
1.90643
1.11195
0.0641391
0.356078
2.50726
-0.3461
-0.305309
-0.0104701
-0.0387168
-0.00204941
0.16946
-0.000349085
0.894025
0.0164087
1.1079
-0.185511
-3.61627e-06
0.337249
-0.000904773
-1.97875e-06
-0.00407871
2.71075
2.6083
1.7812
0.000331176
1.0839
2.25803
-0.00534478
0.0146269
-0.0467863
0.539996
2.29884
-0.152171
0.666128
-0.0133578
-0.363788
-0.409767
2.94651
-0.00333179
2.21116
0.486242
1.01598
0.000670647
0.00119255
0.0303576
-0.0489906
0.467305
-0.000265766
0.000376103
2.15594
-0.363638
0.00164218
2.2541
-0.0124801
0.000873139
1.94021
-0.03353
-0.00851754
0.248243
0.932295
0.00177694
-0.000693114
0.0198729
-0.0222684
2.16134
2.70189
1.57556
2.86816
0.800333
-0.257413
2.5245
-0.000403578
-0.0177518
0.919987
-0.0189653
-0.00359581
-0.000529801
2.26411
0.233569
-0.00354559
2.62865
0.414347
1.4771
0.244053
-0.0148441
-0.112311
0.912881
0.421447
2.29038
-0.121781
-0.00428649
2.0992
2.054
0.0768931
1.70733
-0.202087
-0.0427257
-0.0493405
-0.00351491
-0.000745391
2.11326
-0.336258
0.257312
0.00600863
0.847901
-0.174643
-0.0653108
-0.00538173
-0.0184307
2.34103
-0.00436409
-0.0944066
-0.0164571
2.33932
-0.103203
0.11074
-0.0410444
0.00768613
0.816852
-0.121107
2.35761
0.8419
2.87035
1.28631
-0.338054
0.172321
-0.00966193
0.131458
0.0698434
2.18454
2.32217
2.56001
1.75754
2.12786
-0.001946
2.44226
-0.000143574
0.000386894
-0.262446
2.64328
0.274899
1.32653
2.12314e-05
-0.0118771
-0.0683733
-0.174838
2.14165
-0.00370395
-0.0418828
1.7765
0.0056747
-0.0232541
2.79438
0.259979
-0.175026
-0.301966
-0.00289137
0.53886
0.789591
2.90526
0.690314
0.410766
0.0251375
-0.00128677
0.0122218
1.00334
0.0402268
0.00073161
-0.207533
1.23455
-0.00802369
2.24358
-0.337027
2.25761
-0.0407995
-0.121971
2.50901
-0.0290295
0.390525
-0.00219639
-0.00706554
-0.361692
-0.122173
-0.200271
-0.0523795
0.111208
-0.233719
-0.391559
2.27817
0.00146423
0.00416917
-0.107894
0.644452
-0.27875
-0.322075
4.27496e-05
-0.208654
0.259344
-0.000542188
-0.354318
0.119181
2.26296
-0.3386
2.26177
-0.0735114
0.675275
1.25664
-0.191215
1.77288
-0.00909412
0.634883
0.010046
0.454844
1.02212
0.895901
-0.151427
0.0334997
-0.00370019
0.917209
-0.000420461
-0.000683061
-0.00556178
0.0998346
0.100787
0.0820692
1.94782
0.84796
2.74849
1.82284
-0.0082052
-0.179894
-0.000873128
-0.254084
-0.00582114
0.031379
0.00345377
-0.158767
1.65012
2.17809
-0.00156635
0.000122433
0.374019
-2.2798e-05
-0.0486727
-0.000945804
0.736058
-0.191795
0.956871
-0.373806
0.000229665
-0.0743555
-0.212
-0.121751
-0.0869601
-0.287358
0.372596
-0.000881907
-0.000152453
0.0111528
-0.000714695
0.458129
0.645058
0.218843
2.5777
0.245739
-0.438965
-0.475627
-0.00234653
0.272553
-0.000642549
2.13292
0.517072
2.45281
0.000773652
-0.173823
-0.0362874
0.274718
1.16199
2.01526
-0.0402678
0.19959
-0.0104457
-0.0933151
-0.0424876
-0.0323885
0.551788
0.00847303
-0.0357969
-0.107168
1.41252
0.384922
1.71567e-05
-0.00468385
-0.0329378
-0.00324997
0.635435
-0.00355087
-0.107684
0.799248
0.00042384
1.30727
0.000478722
-1.25667e-05
-0.424257
-0.0679939
0.000895888
-0.119411
0.000955283
2.56056
0.066785
-0.130722
2.32655
0.64971
-0.16841
1.91664
-0.0146868
-0.00974687
-0.0110265
0.460916
3.04897
-0.00803833
-0.00320521
2.05535e-05
0.0417889
-0.00659694
0.134633
0.0327159
-0.111655
-0.316524
0.0996339
0.0590387
-0.0983144
-0.0028459
0.0636531
1.98817
-0.00950234
-0.0726222
-0.00122029
1.94493
0.299751
1.95765
0.00229401
-0.00444534
-0.123873
2.57001
0.739443
-0.150036
-0.000682896
0.169077
0.604038
-0.0294166
1.03409
-0.256941
0.111208
-0.446274
2.00754
-0.0771122
1.22194
-0.0168855
2.92473
-0.220638
-0.0578061
2.38372
-0.229616
0.82713
-0.479635
0.912648
0.0343372
0.266147
1.58373
0.262753
-0.259472
-0.0509364
-0.0392666
-0.0399209
0.120809
-0.00734727
-0.292939
-0.151832
0.0104914
-0.35288
-0.437181
-0.00017094
0.800241
-0.0480676
0.844651
2.45863
1.83961
-0.288916
-0.37506
0.00243502
-0.279567
-0.0205729
2.82666
-0.187372
-0.161835
1.80812
0.251466
-0.20462
1.24634
-0.196146
-0.00340867
-0.0616424
0.0537606
0.00372189
1.90071
-0.0143237
0.712734
1.78593
-0.0303141
1.16806
-0.384691
-0.00198109
0.0355668
0.521902
1.79672
-0.0133683
0.468175
-0.359945
0.399968
-0.120784
1.83867
0.0975627
-0.125801
-0.0141272
0.000985576
2.24122
-0.0126045
-0.116921
-0.000553947
1.03061
-0.000311606
-0.216074
-0.000194067
-0.353252
0.00359078
-0.0514747
1.07341
-0.0207683
0.00488803
0.00347488
-0.0218845
0.387897
-0.000402963
-0.000103115
-0.0447126
-0.0553152
-0.117467
0.0431947
-0.0100493
0.391758
0.409319
-0.00682823
0.00535862
-0.00103354
2.21719
-0.022222
-0.0358946
1.97882
-0.0960663
1.86259
0.291223
2.23188
1.12167
0.585645
-0.00788137
0.0273223
0.421316
0.130354
-0.0230489
0.00100245
0.044694
-0.26366
-0.0049744
-0.0436423
-0.0421346
-0.0466148
-0.000136358
-0.0173643
0.000341248
-0.000372138
0.00458436
1.62394
1.10166
-0.0581398
-0.0147336
-0.254936
-0.109706
1.39429
2.02753
-0.277409
0.0107116
1.01757
-0.0092288
0.00314357
-0.387634
1.09455e-06
0.61688
0.827735
-0.00346886
-0.189468
0.00110397
-0.0417876
-0.0407368
0.195713
0.120512
-0.278849
-0.000205712
0.0575506
0.00920135
-0.180006
0.0294961
2.24523
0.0016641
-0.0206161
-0.168052
1.37259
1.61175
1.77533
0.257312
0.000291214
0.0352258
-0.00336561
-0.00778491
-0.005053
0.494951
1.06154
-0.0632289
-0.263523
1.63023
-0.0218445
-0.0297489
-0.308659
0.156776
-0.00503372
0.445529
-0.0732479
0.543778
0.679123
-0.310841
0.00238273
-0.0345073
0.551967
0.00708805
-0.000327027
0.766487
-0.00213518
1.86763
1.56514
-0.455758
1.47177
0.208235
-0.0195156
-0.256401
1.74065
-0.106796
1.41516
0.209905
-0.00306953
0.174396
0.00496928
0.854472
0.750828
-0.010218
0.535651
-0.0384801
0.0281162
1.53091
-0.00686887
-0.00408078
-0.000740873
-0.0773877
1.34185
-0.030484
-0.0643785
-0.031175
0.973546
2.53563
0.00359323
1.03275
0.922207
-0.0032356
-0.36323
0.148009
1.19709
-0.0495794
-0.110993
1.50566
1.51567
-0.138531
1.46506
-0.367784
1.71983
0.513606
-0.365572
-0.000120897
-0.0374179
0.380373
-0.0914732
0.996097
-2.54401e-06
1.90956
-0.00806302
1.36072
0.00906465
-0.372824
1.29381
0.000300862
-0.00218015
-0.028465
-0.0183221
-0.221254
-0.00707685
0.247577
-0.188029
2.14275
0.00494662
-0.152914
1.32979
-0.0478454
1.58074
0.238695
-0.0287077
1.35618
0.491999
-0.353397
-0.163965
1.74589
3.42669e-05
0.00514734
0.680811
-0.335224
-0.0882084
-0.00698244
-0.000186521
-0.210886
1.84067
0.0760955
-0.0312471
-0.0412087
1.56426
-0.14313
1.42795
2.97948
-0.00265342
-0.00160868
-1.20515e-05
-0.000284449
0.00029353
-0.0195701