/*--------------------------------*- C++ -*----------------------------------*\
  =========                 |
  \\      /  F ield         | OpenFOAM: The Open Source CFD Toolbox
   \\    /   O peration     | Website:  https://openfoam.org
    \\  /    A nd           | Version:  7
     \\/     M anipulation  |
\*---------------------------------------------------------------------------*/
FoamFile
{
    version     2.0;
    format      ascii;
    class       volScalarField;
    location    "20";
    object      p;
}
// * * * * * * * * * * * * * * * * * * * * * * * * * * * * * * * * * * * * * //

dimensions      [0 2 -2 0 0 0 0];

internalField   nonuniform List<scalar> 
7807
(
0.299104
-0.0105724
0.414424
0.26637
-0.00108972
-1.63479e-05
0.406479
-0.00628755
-0.000125906
0.107447
-1.60812e-05
0.00229923
-0.00958725
0.0513784
0.111918
-0.0182137
0.311187
-0.0128812
-0.00132584
-0.104812
0.0704202
0.00142314
0.0364177
0.207013
-0.0169602
0.30758
-0.00101045
0.0641826
0.173608
0.000333521
-0.0232649
0.554266
0.0357286
-0.000507533
-5.6129e-05
0.0873524
0.000574007
0.394312
-0.00776987
-0.00025025
-0.0074121
-0.0172852
-0.110505
-0.0567925
-0.000123062
-4.45168e-05
0.00140494
-0.00774649
-4.17249e-05
-0.103923
0.00369713
0.0605538
-0.0215758
-0.0134895
0.0864694
-0.00593691
-0.00103382
-0.00613402
-0.0346254
-0.000506732
1.79854e-05
0.00491454
0.0516767
0.0025963
-0.000838801
-0.0232331
-0.000107692
1.32501e-06
0.106633
-0.00725058
-4.08161e-05
-0.0742136
-0.0164966
-0.028469
-0.0125327
-0.0501486
0.409831
0.0687706
0.0618545
-0.0739123
-0.00928391
0.351371
0.103978
-0.0317295
-0.00220316
-0.00228027
-0.00697999
-0.0210657
-0.000936708
-0.00464275
0.177908
-0.0614934
-9.14022e-05
-0.000570098
-0.00396346
-0.0269895
-0.0710476
-0.0100499
-0.00233036
-0.0010409
-0.0525733
0.0712624
-0.00381179
-6.85604e-06
-0.0484877
0.184866
0.472455
-0.00622121
-1.42199e-07
0.0311468
0.25155
-0.0733925
-7.55159e-07
0.0333948
0.184664
0.000298981
-0.0898502
0.14766
-0.0537543
-0.0300857
-0.0520138
0.334992
-0.105075
0.011294
-0.0504874
-0.00132121
-0.019974
0.000170773
-0.000885941
-0.022998
-0.116259
0.061807
-0.000671637
-0.00106276
-0.0325502
0.242881
0.40024
-6.07095e-06
0.00915585
-0.0689792
-0.0263069
-0.0689344
-0.0516654
-0.0273651
0.472691
-0.0346426
0.175281
-0.0356323
-0.0360131
0.334466
0.0829943
-0.0515075
-0.00211621
0.0842172
0.103415
0.370446
-0.0585818
-0.00925662
0.481844
-3.64382e-05
-0.00150081
0.214625
-1.13876e-05
-0.00384152
-0.00445577
0.264264
0.264817
0.501064
-0.00409825
-0.00324058
1.51483e-06
-0.0480969
0.000295059
-0.0026186
0.0100593
-0.0354745
-0.0245724
0.168936
-9.70108e-05
-0.000606144
0.272972
-3.21198e-05
-5.97094e-05
0.41181
-0.0164008
-0.0610791
-0.0509943
-0.0278678
-0.0384112
-0.0690069
-1.17812e-05
-0.0679019
0.177101
-0.00395987
3.63246e-05
0.217096
-0.00124991
-0.0216208
-0.0363714
2.26326e-06
0.000569614
0.248201
0.208984
0.367104
-0.0822526
-0.0671038
-0.144574
0.0702963
0.243633
-0.000132506
1.58463e-05
0.444534
-0.0156081
-0.000672514
-0.0653853
-0.021011
0.339602
0.344577
-0.0743174
0.538323
-0.00117117
-0.0124141
-0.0534567
0.086037
-0.13683
0.265851
0.476572
2.12167e-05
0.012142
0.157394
-0.00676452
0.144575
-0.000870309
0.539094
0.36103
-0.00676572
0.00130949
-0.000232645
0.174614
-5.12461e-05
-0.0114992
-0.0705473
-4.49694e-05
-0.00228753
-0.000742467
0.172488
-1.3194e-05
-0.00482105
-0.0722906
0.548727
0.0523006
0.506928
-2.03175e-05
-0.0392203
-0.000227706
0.386086
0.00470193
0.401744
-0.00104092
0.000373738
-0.00446944
0.0737502
0.000477516
-0.000165201
0.000397966
-0.00717344
-0.0621513
-1.95126e-05
-0.0564036
-0.00427698
-9.94455e-05
-0.000735042
0.392972
-0.00878461
-0.000657817
0.499556
-0.00239331
0.279137
-0.000238087
-0.00676751
3.10975e-06
-0.0461678
0.0822554
-0.0130886
-0.0356158
-0.000533079
-0.0902508
-0.0180473
-0.000111999
0.000382282
-0.0035788
-0.00883278
0.00326147
-0.00187046
-0.0303155
-0.0558624
-0.0290338
-0.0420403
-0.0368197
0.36821
0.381773
-0.0017185
-0.0455053
-2.61465e-06
-0.00412669
-0.0271426
0.201407
0.117262
5.37027e-05
-0.00380665
-0.0358954
0.179015
-0.00135792
0.0041373
0.00113039
0.0591183
-0.134024
0.363866
-0.00162753
-0.0127782
-8.97908e-05
0.00361486
-2.92692e-05
-0.0301385
-0.000274404
-0.000823378
-0.0762307
-0.0465506
-0.00451709
0.0107723
-0.000634661
0.0251869
-0.0165926
0.0853257
0.174871
-0.181625
-0.0664443
-0.0185119
0.00592148
-0.0689987
0.509961
-0.0576996
0.0433992
0.529063
-0.00156574
-0.00208073
-0.0638692
-0.00176813
-0.030302
0.00791769
-0.00302215
-0.00216502
0.167044
-8.37553e-05
0.000453171
3.966e-05
-0.00376972
-0.0120298
-3.28676e-06
-0.001076
-0.0330887
0.451059
-0.00395807
-0.0150489
0.447575
0.29948
0.0704891
-0.0318159
-0.0488276
0.00554037
0.25672
-0.0132004
0.314054
-0.0436673
-0.121087
0.210441
0.318363
-0.0516284
0.109695
0.265293
0.290402
0.0684819
-0.00378008
-0.00550508
-5.71374e-05
-0.00517532
-0.0134327
0.000612019
-6.92169e-05
-0.00183477
-0.0892491
0.0984328
-0.022078
-0.00760986
-0.00433885
-0.0158486
-0.00850499
0.000280514
0.23461
-0.00193859
-2.19463e-05
-8.31626e-05
1.23286e-05
-0.0271769
0.161964
-0.00461457
0.0397932
-0.147617
0.384523
0.00238074
0.00802812
-0.00669038
0.380863
-0.000984681
0.361689
0.178986
-7.60898e-05
-0.0464415
-0.00368317
-0.0672769
0.000473004
0.0796091
-0.000373623
0.00737921
-0.000808467
0.158041
0.181622
-0.0685188
-0.0345973
-0.00382454
-0.0372167
0.0794455
0.544755
-0.0771107
0.00407428
-4.20367e-07
-0.0171784
-0.00241744
0.0223108
-0.119472
-0.060697
0.405318
0.166112
-0.129737
0.228739
0.370239
0.0402668
0.000901083
0.272658
-0.00155629
-0.000180671
-0.0192365
4.87276e-05
-0.158919
-0.00637814
-0.0427358
0.00189518
0.22084
-0.00188943
-2.05565e-05
-0.128587
0.00170906
0.0317997
-0.0510252
-0.0641103
0.00479023
0.158745
0.129409
0.133035
-0.000152488
0.0893799
0.0940826
-0.000670248
-0.0215251
0.000516538
0.00166173
-0.0136548
0.00562849
-0.00116124
0.165458
-1.33057e-05
0.000131729
0.00203605
-0.0257366
0.0276033
-0.0387098
-0.0313648
-0.057626
-0.15133
-0.000108099
0.265263
-0.0595204
-0.00839482
0.539918
-0.0710042
-0.0126948
-0.0309191
-0.0143731
-0.0233966
-0.0130698
0.0384815
-0.0652528
-2.34909e-05
0.0330655
-6.28803e-05
0.363927
0.118083
-0.00604382
-0.0155738
-0.000140517
0.351302
0.340476
0.0692103
0.184028
-0.0762663
0.407221
-7.50844e-05
0.0173872
-0.0200713
0.17476
0.489364
0.063931
0.158009
-0.00640263
-0.000164217
0.164526
-0.0946016
0.367372
0.0338069
0.230552
-0.00873453
0.38814
0.324363
-0.0114148
-0.00968168
0.136433
-0.0658152
-9.73352e-05
-0.0166756
-0.0678304
-0.0854229
0.0145887
0.0112583
-0.000139594
0.345587
-0.00491243
-7.98459e-05
-0.0500887
-0.000553903
-0.000176629
0.00110235
0.238213
-0.114161
0.461762
3.28536e-05
0.237186
-0.0410595
-0.000100352
8.18323e-06
0.171097
0.227209
-0.00523991
0.203836
1.18648e-05
0.215654
-0.175368
-0.0118106
0.383859
-0.062023
0.172767
-0.0292156
0.214581
0.225458
-0.0216777
-0.0276124
-0.0106662
-0.00316562
-0.000201408
-0.00487381
0.296974
-2.1497e-05
0.205824
-0.111687
0.326363
0.194986
-0.0684316
0.460356
-0.00195541
-0.00198598
-0.0702041
-0.0234034
-0.00833692
-0.0449533
0.0346813
0.513347
2.11848e-05
-0.00229722
-0.0710317
2.22393e-06
0.372794
0.00176473
1.81487e-06
0.000124702
0.000287985
-0.0283866
0.0215575
-0.0017717
-4.96544e-05
-0.00869873
-0.000532554
-0.129143
-0.0581992
0.0284269
-7.8245e-06
-0.177202
-0.0156151
0.141599
0.316035
0.000465764
0.145904
9.20822e-05
-0.0151297
0.0967648
-0.00858094
0.258562
-0.0166635
0.0218926
0.10059
0.163699
0.00147749
-0.0126242
0.200289
-0.0993544
0.394943
-0.0117612
0.294173
-0.0114088
-0.0012086
0.149665
-0.0090198
0.0946489
0.00184133
1.63148e-06
-0.14364
0.226998
0.000865952
0.134721
-0.0157253
-0.179643
-0.0100281
-0.0405008
-0.00194041
-0.0092804
-0.0853627
-0.0337174
-0.0118443
-0.000234988
0.416881
0.138517
0.0391885
-0.000178963
0.320158
-1.36069e-06
-0.000160926
0.148254
-0.0066766
0.197429
0.0630745
0.0204108
-0.0598952
-0.147699
-0.000197892
0.00117751
-0.0502702
-2.25302e-05
0.00176747
0.249009
-0.0205848
-0.00331697
-0.0256596
-0.00226221
-0.00067691
0.496722
-0.0125102
-0.000686383
-9.44684e-07
0.143078
-0.0437183
-0.000425627
-0.0030223
0.166838
0.0928874
-0.049801
-1.12437e-06
0.182992
-0.0249016
0.208914
0.0214858
0.0271102
-0.0366221
-7.24199e-05
0.0980311
0.0837439
0.0364132
-0.103433
0.294636
0.00701039
0.196453
-0.00809287
-0.0479679
-0.000343852
-0.00845757
-0.000191874
0.170807
0.27824
-0.00180354
0.0232426
-0.0203625
-0.0856591
-0.094618
-0.00204744
0.0149221
0.48327
0.0145032
-7.58515e-05
0.091199
-0.00744534
0.417663
-0.0152268
-0.0242194
-0.0166064
-0.0269725
-0.0161408
-0.00932311
-0.00908223
0.000157657
0.026475
5.76336e-05
-0.15799
-0.0192943
0.362961
-0.0477555
0.202704
0.00200014
-0.0681056
-0.0302814
0.213757
-0.00917398
4.26927e-05
-0.0248668
-0.00955115
0.0186253
-0.0311249
-0.0283967
-0.0299062
-0.0164077
-0.0214138
-0.0918519
1.83402e-06
0.0434788
-0.0803658
0.173985
-0.071726
0.0939839
-0.106519
0.337177
-0.00564331
-0.037421
-0.0358972
0.43586
-0.134759
-0.0157131
-0.138984
-0.058431
-0.127161
-0.0774384
0.189191
-0.00339808
0.250039
0.0105034
-0.000483919
-0.00193891
0.0785575
0.539334
-0.000553296
-0.0425256
0.175109
1.01044e-05
-0.0263411
0.0358282
-0.0133829
0.0106989
-0.00230663
-0.0483398
-0.0064148
1.30489e-05
-0.0594896
0.267673
-0.0080096
-0.0196943
0.00184011
0.175141
-0.000514324
-0.00135581
-0.000320464
-0.00142462
0.0537328
-0.0100918
-0.00211127
-0.0223011
1.85286e-05
-0.138262
-0.0789872
-0.155566
-0.0312411
0.0177321
-0.000171771
-0.0187295
-0.0723004
0.0318388
0.327201
-0.00233964
-0.0689072
-0.00609801
-0.00172257
0.165819
0.00032648
-0.000170607
0.147241
0.013814
0.0160193
-0.00366722
-0.00211373
-0.0686342
-0.000235408
-0.0126548
-0.0141089
0.28234
0.268864
-0.0600868
-0.0787299
0.0084749
-0.00293646
-0.00241354
-0.0898629
-0.0311902
-8.35478e-07
-0.0099647
-0.0274323
-0.0989049
-0.00442404
-0.0490698
-0.000404087
-0.00350296
0.196386
-0.0351078
-1.83578e-06
-0.00295236
-0.1198
-0.000117267
-0.0374064
-6.28284e-05
0.00101303
-0.125066
-0.0600182
-4.29653e-05
1.41384e-05
0.123705
-0.0684276
0.351563
0.282171
-0.0158325
-0.00119162
-0.028807
0.00014105
-0.120486
-0.117025
-0.010441
-0.0199099
0.277499
0.00387359
0.000122487
-0.000123426
-0.14422
0.00190491
-0.0443788
-0.0704399
-0.00674843
0.0192567
0.0679702
0.00237149
-0.0308843
-0.0891808
0.182875
-0.0518636
-1.41575e-07
-0.13242
-0.0661248
-0.060355
-7.32003e-05
0.000619412
0.000523911
-0.127849
0.0298265
-0.0302365
0.140263
-0.0690255
0.0025001
0.0161439
0.00488512
-0.0319758
-0.133108
-0.000176153
0.141555
0.200456
0.00647861
0.230925
-0.0981096
0.0438109
-0.0689836
0.192846
0.0979965
0.514385
1.36199e-06
0.0996282
0.173537
0.013225
-0.00126081
-0.0148791
-0.0256629
1.53562e-05
-0.0172324
-0.0698529
-0.0162748
-0.0205225
7.18846e-05
-0.100965
-0.000402757
-0.000576508
0.227437
0.0026473
0.083048
0.0167049
0.19734
0.00524292
-0.000560061
-0.128587
0.00371156
0.339316
0.000828574
-0.0719149
-0.000301651
-0.000394421
0.001052
-0.078156
-2.46635e-05
-0.00841174
0.0248188
-0.00128556
1.31756e-05
-5.52163e-05
0.145508
-0.0523872
0.0039133
-0.000764148
0.00542713
0.0139037
0.00480064
-0.00033809
0.356872
-0.112997
0.210762
0.309078
-0.000112333
0.0706401
0.109556
-0.000618768
-0.000250237
-0.000653138
-0.0190671
0.00600878
-0.0248078
-0.0334204
-0.0852205
0.164396
-0.126635
3.82592e-06
-0.0188296
-0.0230338
-0.0318113
-0.00339331
0.00326866
0.000799516
0.0253904
-0.000326058
-0.00032626
-0.0182571
-0.00389255
-0.0243255
-4.60083e-06
-0.014242
0.0309721
-0.0386838
-0.049501
-0.00777408
-0.0107118
-0.00787858
-0.00446878
-0.00180236
-0.00780697
-6.66225e-05
-0.000438864
0.0190181
-0.0107159
-0.0044232
0.00560128
-0.0025101
-0.163559
-0.0105342
0.149136
-0.0106381
-0.0616613
-0.0323936
-0.0223798
-0.014371
-0.00314227
0.000891062
-0.00307592
-0.0116965
-0.0142877
0.190895
0.148357
0.044939
0.316143
-3.37112e-05
-0.00478449
-0.014027
-0.0076133
0.0939797
-0.0188959
0.0420677
-0.00593622
0.211325
-0.00181066
-0.00162161
0.00420978
-0.0322401
-0.000185331
-0.0325802
-0.00498381
-0.0187971
-9.55356e-06
-0.00555383
0.00129724
-0.0171385
0.0269402
0.0338496
0.0171651
-0.0130208
-0.0308
0.111015
-0.00139176
-0.0015794
-0.00161958
0.448912
-0.000140269
0.068477
-0.0185436
-0.0198904
-0.0226915
-0.0538083
-0.0257376
-0.0330521
-0.0192704
-0.00429081
-5.94998e-05
-0.00353866
-0.0187019
0.0956487
0.00113271
0.165287
-0.0322101
-0.0128336
-0.00060386
-0.0285522
-5.8507e-05
0.141265
-0.0299531
-0.0255902
-0.0235791
-0.00597943
-0.0376501
-0.00119579
-0.0396085
0.0980437
-0.0242523
-0.100007
-0.00106144
-0.0253732
-0.0181424
0.0135183
-0.00294286
0.135562
-0.0018323
-0.0158614
-0.000654859
0.152333
-0.0379859
-0.0239888
-0.00251704
-0.00938858
-0.00252208
0.193279
-0.00427415
0.220971
-0.0062625
-0.000847877
-0.00091466
-0.0021444
0.191977
-0.0648993
-0.00670029
0.000167569
-0.0140052
-0.0263597
-0.00112421
-0.0269541
-0.015114
0.0550831
-0.00428058
-0.00201975
0.416867
-0.0637297
-0.0241028
-0.0602159
1.15636e-05
0.0728393
-0.00298841
-0.0235637
-0.00536893
-0.0344139
0.00142634
-0.000447491
-0.00226535
0.00237706
0.189421
-0.00476832
-0.00150635
-0.00419526
-0.0657811
-0.00753595
-0.0190742
0.00211698
-0.00756048
-0.00729925
-0.00288914
0.194443
-0.0453665
0.00226834
-0.00336224
-0.0248987
-0.0116145
-0.0479374
-0.00143945
0.0882406
0.020061
-0.00742396
-0.00164458
-0.0136337
0.471315
0.190604
-0.0103583
-0.000376848
-0.00212624
-0.0077197
-0.0037309
0.0182475
-0.000384487
-0.0283073
-0.00152944
-0.0146783
-0.0897191
-0.00121067
-0.0176173
-0.0010353
0.300325
-0.00687375
-0.0102866
-0.0410919
-0.00134479
-0.0264804
0.0705511
0.417045
-0.0102585
-0.0112269
-0.00155056
-0.000519991
-2.76172e-06
-1.49488e-06
-0.00960673
-0.000549431
0.115569
-0.000735128
-0.00147796
0.00564886
-0.000156185
-0.0437039
-0.0840286
0.0153644
0.0375074
0.0242624
0.0507076
-0.0673105
0.0868558
0.0670118
0.092432
0.117336
-0.0112673
-0.000729788
-0.00793085
-0.0938999
-0.00281403
-0.0138678
0.0304722
0.334495
-0.0736106
-0.000331534
-3.9385e-05
-0.00101958
-1.80441e-06
0.00315409
-0.000565398
-0.00645969
-0.0462872
0.000293153
0.00170908
-0.000142858
0.0606772
-0.013637
-0.0651848
-0.00143854
0.300871
0.292497
-0.0100161
-0.107247
-0.0260518
-0.0210181
-0.0138386
-0.00165358
-0.10765
-0.0527594
-0.0482116
-0.0822832
-7.04233e-05
0.188783
-0.0320605
-0.00818033
-0.0496296
0.016094
-0.000414104
-0.00814447
-0.00100137
0.00635246
-0.00198587
0.17192
0.000174925
0.00842341
-0.000247116
-0.113949
0.00714914
-0.00110072
-0.00328754
0.000154293
0.0156939
0.11556
-0.00449992
-0.00115832
-7.43762e-05
-0.000455845
-0.000369529
-0.0599615
0.119585
0.00413634
-0.000147575
0.00434511
-0.000396234
0.215353
-0.0613883
0.252118
-0.0428218
-0.000288509
-0.000309006
-0.00718577
-0.0048015
-0.000675857
-5.66308e-06
0.0216324
0.0260489
-0.000139367
-0.000395622
-0.0182201
-6.40965e-06
0.160345
-0.000852788
-0.0517115
-0.01827
-0.00534463
-0.055768
-0.0666189
0.144606
-0.0386117
-0.0179379
-0.000192806
-0.0544949
-0.0177513
-0.00341886
0.10925
0.335462
-0.000806885
-0.0589206
0.00518419
0.305424
0.0363392
-6.44016e-05
-0.00577199
-0.00338043
-0.00461162
-0.0378792
0.0868054
2.36839e-05
0.00856469
0.000980097
0.0727997
-0.00036411
-0.000133038
-0.107848
0.279696
-0.052795
0.148196
-0.00181276
-0.000128702
-8.03574e-07
-0.122089
-0.0328339
-0.00033211
0.104381
0.00947384
-0.00488871
0.370383
-0.000513784
-0.00377152
-0.0624071
-0.0456394
-0.00174992
0.129276
-0.0906203
-8.15483e-05
0.00362318
-0.000178302
-6.62662e-05
0.137385
-0.0119667
-0.000274266
-0.0455966
-0.023545
-0.00267163
-0.0529207
0.0016376
-0.0195952
0.000891508
-0.00317809
-0.0650816
-0.0372095
0.00785666
-0.000867213
0.152576
0.197195
-0.129334
0.00539435
0.0165698
-0.00401934
0.15886
0.105869
-0.0241157
-0.000104136
0.00617179
-0.0457578
0.00181394
-0.0305513
-0.00196565
0.0368383
-0.0277383
-6.70665e-05
-5.51949e-05
-0.0613516
-0.0341508
-0.0228243
0.00649091
-0.00869894
-0.0464415
-0.000144492
-0.00152481
-0.000191185
-0.0456664
-9.46631e-06
-0.00163802
-0.0701449
-0.137996
0.120181
-0.002729
0.00308852
-0.0228801
-0.0233271
-8.34164e-05
-0.0369323
0.116981
0.150419
7.16479e-06
-5.4464e-05
0.153256
-0.00232304
-0.123197
-0.0317829
0.00244987
7.47838e-05
-0.0587273
-0.0467016
0.157053
-0.0465946
-0.00113306
-0.0168031
-0.0624739
-0.000489116
-0.000133894
-0.00080764
-0.0320768
-0.0467673
0.148123
-0.000126555
0.438015
-0.0324545
2.36434e-05
-0.00122161
6.79948e-05
8.4106e-05
-7.65483e-06
4.20027e-05
-0.0470139
-0.000712246
0.000220558
-0.000109836
0.134892
-0.00499043
-0.000113302
-4.19789e-05
0.362097
-0.0216055
-0.0598983
0.000483306
-0.00060043
0.052857
-7.16658e-05
-0.0204552
-0.153863
0.00149588
-0.00904238
-5.20236e-05
-0.000141188
-0.0323029
-0.093141
0.00580818
-0.144588
-0.0895377
-9.89596e-06
0.019315
0.0305257
0.104753
-0.00132016
-9.19558e-05
-0.0579196
-0.00534136
-0.000568072
-0.0453154
-8.31562e-05
0.0323995
-0.000128409
-0.000877216
-0.004937
-0.00299609
-0.0554204
0.422712
-0.00172184
0.000125783
-0.0652542
-0.0765074
0.00640125
0.00355362
-7.60748e-05
-0.0296485
-5.76752e-05
0.187082
0.50066
0.0777821
0.00217293
0.00252894
-9.40721e-06
-0.0297637
-4.63246e-05
-0.0130287
-0.00151259
0.000137305
-0.0026866
-0.0127098
-6.15363e-05
0.00046965
-0.013407
-0.000198737
-0.0125071
-0.0164462
-0.021218
-0.00155126
0.455196
-0.000936472
0.0016949
0.000107187
0.0120218
-0.0437549
0.00774029
-0.000115588
-5.00931e-05
0.00129186
-7.36452e-05
-3.03513e-05
-0.0150792
0.000388086
-8.76831e-06
-0.0499429
-0.00326958
-0.0475342
-0.00139007
-2.97065e-05
-0.00240221
-0.0208018
-0.0176586
-0.0359674
0.00159656
0.000229129
-0.000369386
-0.00134666
-6.12131e-05
0.267518
0.00100679
-7.8914e-06
0.000171088
-0.00195277
-0.000432157
-0.0536679
-0.0482365
-0.00014727
-0.00655981
2.23814e-06
-0.00404943
-3.55107e-05
0.0332881
-9.25628e-05
-0.00019659
-0.00512064
-1.78298e-05
0.011635
-0.000156597
-0.000966704
0.0168742
1.44011e-06
0.357806
-0.05372
-0.0410744
-1.48395e-05
-7.53782e-06
0.00103588
-0.000859409
-0.0592045
-6.68065e-06
-1.93006e-06
0.000372456
-9.82095e-07
0.000183677
0.00023221
-0.000338272
0.000446395
-0.0479148
0.448913
-0.0470203
0.330187
0.00744912
-0.0214669
-7.92148e-06
-0.000573161
-0.0122224
4.69124e-05
0.00013107
6.65141e-05
0.0609024
-0.00197014
-0.000256032
0.414905
-0.000299053
0.000208805
0.000264663
-1.57919e-06
0.0412239
-0.0021125
0.000687305
3.87747e-05
-0.000885806
-2.73912e-05
-0.00149333
-0.0443801
-0.00026708
-0.00249422
-2.93195e-07
-0.00333625
-0.000133906
0.183416
-0.000303169
-0.0004122
-0.0552678
0.00274624
-0.00010691
-0.00107187
-2.37945e-05
0.16742
-0.0722019
-0.000519283
-0.000231675
-0.00314999
-0.000239931
0.0540731
0.112386
0.022922
0.000134641
-2.3579e-06
-1.99166e-07
0.051273
0.000113169
-0.0473257
-0.0389172
-0.0176354
-0.0230206
0.468046
0.00131119
0.199394
-0.0165847
-0.0299662
0.170376
-0.000197534
-0.0636475
-5.59109e-06
-0.00888099
-0.0391447
1.86664e-05
-0.0651955
-0.000651118
-0.0215666
-0.00793801
-0.033857
-0.0403945
-0.00509675
-0.0688782
-0.0353179
-7.3609e-05
-0.00968889
-6.04459e-05
-0.0304186
-8.86459e-06
-8.23116e-05
0.00679843
0.161489
-3.96805e-09
-0.046143
0.00243129
2.54249e-05
-0.0261628
3.44261e-07
-0.0107118
-0.000257437
-0.0309909
4.53589e-05
-5.27011e-05
-0.0025
-9.84815e-05
0.157574
-0.030848
0.0752802
-3.33008e-05
0.000341034
-0.0257509
-9.08742e-08
-0.0568209
-0.0619407
-0.0491804
0.444729
-0.00629632
-6.32317e-06
0.0232452
-0.0343265
-0.00377778
-5.30923e-05
-4.67084e-05
-0.0443323
4.111e-05
0.00049915
-2.20644e-07
5.05316e-05
-0.0226909
0.130555
-0.0972365
0.0974445
-0.00503959
-2.67971e-07
0.00298112
-0.0683551
-5.62127e-06
-5.54795e-06
0.000152845
2.2658e-05
0.000204731
0.252309
0.0326921
1.946e-05
1.74988e-06
-0.0591072
0.198188
0.176691
-1.02134e-05
-0.0356423
-0.0244749
-0.0137893
-0.043031
-0.0115406
-0.00249083
0.13979
-3.45371e-05
-0.0263789
0.167095
-0.0489997
-2.3419e-05
-0.0531327
-0.000103095
0.310293
0.0238057
-2.94392e-05
-1.69898e-05
0.186529
5.12476e-07
-0.000125511
-0.00964201
-8.35047e-07
0.253875
0.00111125
-0.00596211
-0.0545719
-0.00347019
-0.104795
0.181844
-0.0237398
-0.0504608
0.000579659
-1.21552e-05
-0.00110316
-1.60904e-05
-1.26958e-05
0.0153148
0.17843
0.148508
-0.000361258
0.23982
-0.0191601
5.08824e-07
-0.0374744
-2.15095e-05
-0.028549
0.0251835
-0.0186423
0.00280247
0.00121623
-0.00758534
5.06663e-05
-0.00150947
0.0150758
-0.00203474
-4.6307e-05
9.0583e-06
-2.71093e-05
0.0293833
1.57881e-05
-0.0301511
0.252377
-0.00634488
1.75284e-05
-0.00277974
-1.22996e-05
0.0821406
-0.000176473
-3.20171e-05
-2.64255e-05
-6.44247e-06
0.206931
-0.000132166
0.242726
-0.0709171
3.44592e-05
-0.0592188
-0.000706496
0.155147
0.421308
-0.000924191
6.44674e-07
1.02677e-06
-1.09701e-05
0.14305
-3.64358e-09
0.00053692
-0.0191526
0.227738
8.51599e-07
1.89147e-06
8.77084e-07
7.44007e-06
-0.0204705
3.08163e-07
0.290932
-0.0201528
-4.59338e-05
9.39148e-06
-0.00143963
-0.0243731
4.1879e-07
-2.22078e-05
0.163888
1.09769e-05
-0.0323166
-0.0827483
4.88328e-05
2.46341e-08
-0.175223
2.83562e-07
0.165445
4.51539e-06
-0.00033815
2.16367e-06
-6.5827e-05
0.0916696
7.05707e-08
-0.00139453
-1.38425e-07
0.00724239
-0.00343661
-0.00495884
-0.00165667
0.15226
-0.000379856
-5.17892e-05
-0.00713424
-0.00715448
-0.000105303
-7.72835e-05
-0.000822257
9.94103e-06
0.191724
-0.0128679
0.461944
-1.4888e-06
-0.00689189
-0.000222184
0.135944
1.71258e-05
-0.0292511
6.95915e-06
-0.00127896
-0.0332225
-0.000119838
-0.0155071
-0.0507939
0.00281026
-1.47466e-05
-0.0774733
-0.000143674
-0.000479894
-0.00475087
-0.0256455
0.000607756
-9.01913e-05
-0.000306187
-0.00137732
-0.000986213
6.39771e-07
-0.000885277
0.417738
3.50449e-05
-0.00250839
-0.0347382
-0.0577759
-0.0621603
-0.0398073
-0.0221475
-0.000820512
-0.0265342
2.62282e-05
-4.7047e-05
0.436565
-4.42421e-05
0.185379
-0.000211097
0.000156934
-0.000787325
-0.101204
-0.000274509
-0.00130472
-1.11345e-05
-0.000240539
-2.71256e-05
-4.14432e-05
-0.0120458
-7.93179e-05
-4.89422e-05
-4.02379e-05
-7.42103e-06
-1.09439e-05
-0.0468596
0.256931
-4.39849e-06
-0.000302044
-8.37873e-05
9.41217e-06
-0.000521163
1.67545e-06
-0.000595698
9.06866e-05
-0.000209733
-0.0602445
-0.000478895
-0.00175358
5.70961e-07
-0.0023111
0.000154331
-4.76127e-06
-5.11653e-06
3.53571e-06
-0.000425258
0.000237793
-0.0478177
-0.0319132
-0.0581301
-0.000422421
-0.00293122
-0.0402511
-0.0559617
-3.3786e-05
0.0107847
0.00435217
-0.000564692
-0.0114827
-0.044347
0.416199
-0.000223319
-6.68404e-06
0.000319907
1.4296e-05
4.74582e-06
0.072954
0.00160554
0.085313
-0.0500376
0.393431
-0.000254677
1.39554e-07
5.37588e-05
-1.05149e-05
-0.000780709
0.156295
0.215187
-4.77007e-06
-0.000114325
-1.58948e-05
0.204207
0.00926854
-0.0111124
3.01091e-06
5.62031e-06
0.00547169
-0.000360087
-0.0773026
-0.0168369
1.14958e-06
0.00218684
-0.0368204
-2.81858e-05
0.00100006
-5.68309e-05
-0.0429884
-0.00105227
0.146909
4.43575e-06
0.00103792
-0.00207615
3.47401e-06
6.21586e-05
-0.023362
3.54904e-06
-0.000497148
3.78573e-06
-0.0150727
-0.0400031
-0.00471698
-0.0118052
-0.00688665
0.00721794
-0.00830862
-0.00159613
2.24228e-05
2.69547e-05
4.07996e-06
3.96717e-06
-2.37204e-05
0.00631647
-0.0707829
0.000234155
-0.0634872
-0.00199837
-0.0683913
3.09443e-05
-9.63486e-06
0.000758924
-0.0856493
4.29674e-06
-0.0613564
-0.0166745
0.0138338
-0.0654488
7.1826e-06
-0.00228457
6.95756e-05
-0.160048
0.131093
-3.22652e-06
-0.0656243
-0.0264695
-0.00290016
8.26329e-06
-4.25029e-06
0.0185795
-0.0126167
2.90219e-06
-0.00559143
-1.81236e-05
7.58195e-05
0.121523
-3.54863e-06
-1.15614e-05
-9.77388e-05
8.24619e-06
0.000486124
3.11778e-05
-0.00363983
7.76796e-05
-0.0124595
0.000587803
-0.000174754
-0.0426707
-0.0446839
-0.0058663
-5.20276e-06
4.86908e-06
-0.0855119
0.00409736
-0.0471331
1.92239e-06
-0.00469143
-8.57518e-06
5.02435e-06
0.0691021
-0.00489593
-0.00180428
-1.0534e-05
-0.0199041
1.47592e-05
-0.0674437
4.7392e-06
-0.0773852
-6.4289e-06
-2.62971e-06
3.00499e-05
0.00057618
-0.115607
-0.0139349
-0.0789627
-6.00149e-07
2.44201e-05
-0.0751956
-0.0379125
-0.00608912
-3.41341e-06
-0.0526847
-0.0602499
-0.0728452
-6.4055e-06
-4.65875e-06
-2.08995e-05
-0.115002
-0.0785404
0.000333906
-0.00796721
-4.18523e-05
0.244831
3.43563e-05
-3.173e-06
5.40738e-05
-3.29471e-05
-5.54065e-06
-0.00321671
2.67224e-05
-0.00231809
-0.077629
-0.00973376
-0.0439464
4.29706e-06
-1.91358e-05
0.0465464
-0.0798671
-0.00327244
0.109533
-3.88116e-05
-8.36759e-06
-7.1435e-06
0.121883
6.37313e-05
-7.44316e-05
-8.10675e-06
-0.08158
-0.0117034
-1.2212e-05
-4.76813e-05
-0.00901283
-0.00449228
0.000148511
0.218228
-0.0743297
-0.00084533
0.539776
-6.0873e-05
-0.000863367
-0.0108806
-0.069513
-3.41256e-06
-1.94277e-05
5.89387e-06
0.00312772
-0.0444914
-0.000303795
-0.0539843
-0.00550156
-1.46471e-06
-1.93362e-06
-0.0073617
-0.0167093
-0.0312401
-0.0976644
-0.041094
-0.0384636
-0.011717
-0.0300835
-3.26467e-05
0.000133866
-0.00521259
0.000268639
-0.00019372
0.000331042
-1.11831e-05
-0.000160591
-0.00884487
-4.5348e-06
-2.51402e-05
0.0298543
-0.0417717
-0.000340962
-0.000112454
-5.56984e-06
0.23641
-0.00637214
0.00031075
-0.0314324
9.60792e-05
7.39811e-05
6.53639e-05
-2.82554e-05
0.000208773
-0.0411612
0.00976129
-3.53136e-06
-0.000275224
-0.0484838
-0.0404753
0.045619
-0.000230732
0.00117551
0.0149605
-5.84735e-06
1.19095e-05
-0.064946
5.97212e-06
0.15887
-2.20091e-05
0.00292881
6.37951e-05
8.28312e-05
-0.0640891
-0.00736439
-0.0178411
-0.00163621
7.30108e-06
0.00253637
0.0581684
-0.0127037
-9.11538e-05
0.0913493
0.155748
-3.93798e-07
-0.0528922
-4.45461e-05
-8.6766e-06
-1.83066e-05
-0.000276675
0.0169142
-3.52979e-05
8.91641e-05
-0.0202012
-0.0255337
-0.0164141
0.293572
-1.2768e-05
-3.68407e-05
0.163671
-0.0170238
-0.00349308
-0.000326237
0.161429
-2.53998e-06
-0.000594333
-2.35057e-05
-2.41537e-05
8.67123e-06
9.31316e-06
2.6003e-05
-0.0141783
-6.70101e-06
-0.00340475
-0.0420532
0.240939
-0.00041404
-2.12112e-05
0.00328641
0.081752
-0.0649258
-0.000392198
-0.0567503
0.294283
1.24941e-05
0.377505
-2.80318e-06
0.00195669
0.021033
0.000195653
0.397286
-6.5851e-05
-3.19232e-06
0.000525043
7.90508e-06
-0.00045165
0.000105938
-6.92866e-06
-0.00140389
-4.16327e-05
-0.000100515
-0.00261762
0.232968
0.0468747
0.0189541
-0.0382036
-2.51462e-06
-1.78585e-05
0.00185567
-0.07516
-7.48859e-06
-0.0421757
-2.86636e-05
0.100416
0.0585039
-0.0383278
-0.00107994
-0.0140934
-0.000523826
-0.0110823
-0.000743273
-0.0090468
0.0604163
2.26465e-07
0.264389
0.0271226
-0.00101929
0.207997
-0.0132502
-4.35476e-06
-6.45527e-06
2.2011e-05
-8.16763e-05
-0.000111399
0.23399
-0.000672253
0.241719
-0.00174694
0.159461
0.220392
0.123872
-0.00682876
-7.1762e-06
-4.7466e-05
-0.00766989
-0.168754
-0.0571176
0.0008954
-2.30928e-05
-0.0343807
-0.000728887
-7.91948e-05
0.000569876
-0.000691298
-0.00127403
0.029686
2.62804e-05
-0.040598
0.0543696
1.85953e-05
9.14797e-05
-0.0176339
-0.0761907
-0.000457665
-0.0002907
-1.26164e-05
7.53435e-05
0.0941529
-0.0189689
-0.0576555
0.000740343
0.102876
-0.0429771
-4.26746e-06
-1.86698e-06
0.0105683
-0.000172319
0.0850001
-0.00473233
-0.0101911
-0.000318575
0.000871342
-0.0422644
-0.000120314
0.000219399
-0.0118745
-0.0738707
0.158885
-0.0566832
-0.028328
-0.00029669
-1.74136e-05
0.00511111
8.60969e-06
-0.0706272
-0.0768073
0.000267158
0.00168041
0.00265408
-0.144083
0.000302711
3.92231e-05
-1.12474e-05
-0.0451353
3.83144e-06
0.000269614
0.118644
0.174064
-0.159989
0.0462464
0.0447627
0.00943694
-0.000366343
0.00610324
4.47868e-05
2.54712e-06
-0.000206207
-5.3811e-07
-0.000146376
-0.000220424
-0.00729841
-0.0877514
-0.00962404
-0.0367112
0.0494229
0.040611
0.00266208
-0.0763656
1.60102e-05
0.00249058
0.00818298
-0.000275546
0.0730495
-0.00220034
-0.0119762
0.00820737
0.00407802
-0.000578837
-0.0037625
0.0388533
0.000387868
-0.0196653
-0.0173137
0.471063
-0.0284166
0.0791231
0.0133436
-0.0482572
0.00131622
-1.86526e-05
-0.00169936
-2.39103e-05
-0.00165375
-0.0277685
-4.12503e-05
-0.000248112
0.286336
-0.00212758
-0.0432925
-0.0141953
-2.1029e-05
-0.00277249
-1.57328e-05
-1.40791e-06
0.0335636
7.19833e-06
-0.00191014
0.0739273
0.00385614
0.000648416
0.0143774
-0.00547368
0.00294553
-0.157351
0.000385362
-0.00406568
-0.0612368
-0.000953856
-0.0078141
0.000189197
-0.00227688
0.000511071
0.0319197
-0.000637847
0.003896
-0.0460422
-0.021784
-5.61119e-05
-0.0432104
-0.0148163
-0.0131332
-8.3296e-05
0.00486434
-0.0949666
-0.000555891
-0.00503172
-0.0407236
-0.00353088
-0.000906828
0.219551
-0.029633
-9.13099e-06
0.00635049
-0.063357
-0.000733376
0.189048
-0.00366817
0.000541877
0.0569553
-0.00115977
0.00568521
0.124511
-0.000311421
0.00065983
5.20135e-05
-4.75415e-05
-0.00307269
-0.00967872
-0.000441622
-0.0242212
0.0968112
-0.0329481
-0.10095
0.000661313
-0.00267593
-0.0010999
-0.0749449
-4.51468e-05
0.0107728
-8.65225e-05
-0.012224
-0.00135472
-0.00342845
-0.0342326
0.118185
-0.110141
-3.17824e-05
0.201653
-0.00253999
-0.00454556
-0.0572476
-0.11757
-0.0163425
-1.54136e-05
-0.00188551
0.00530785
-0.00243292
-0.0043739
-1.87874e-05
0.0846055
-0.0566427
-0.010895
-0.00467155
0.0151282
-0.00734144
-0.00529945
0.00103461
-0.000577154
-0.00236764
0.114909
0.000268999
-0.172442
-0.000232719
-0.00521437
-0.00584425
-0.12871
-0.0119366
-0.156313
-3.6794e-05
-4.00564e-05
-0.00964182
0.0077729
0.00042326
-0.181062
0.0856795
-0.05551
4.83061e-05
-0.198938
-0.000286821
-0.209062
-0.0262059
-0.225035
-0.222833
-0.211316
-0.16364
-0.0667405
-0.0283399
0.00693172
0.0428362
0.0784263
0.178854
0.210956
0.240632
0.289984
-0.00579017
-0.00827155
0.0592188
-0.0282504
0.000369139
0.00717423
-0.0435497
-0.000118732
-0.00137456
-1.23197e-06
-0.0155649
0.0147886
1.00087e-05
-0.000779287
-0.00751624
-0.0169465
-0.228303
-0.0224711
-0.0626359
-0.000137197
0.000105342
-1.20473e-05
-0.0815187
-0.00968733
-0.0420778
-0.0186058
0.000969452
-0.000169724
0.00332467
-9.8234e-06
-0.0268361
-0.000130923
0.000147416
-0.0123241
-0.00840254
-0.00108903
0.000126077
0.0459091
-0.0112476
0.0608473
-0.219483
-0.0152557
0.146806
-0.0186235
0.00218196
-0.0232146
-0.00318796
-0.00929998
-0.0160916
0.317916
-0.0023858
-7.45601e-06