/*--------------------------------*- C++ -*----------------------------------*\
  =========                 |
  \\      /  F ield         | OpenFOAM: The Open Source CFD Toolbox
   \\    /   O peration     | Website:  https://openfoam.org
    \\  /    A nd           | Version:  7
     \\/     M anipulation  |
\*---------------------------------------------------------------------------*/
FoamFile
{
    version     2.0;
    format      ascii;
    class       surfaceScalarField;
    location    "20";
    object      phi;
}
// * * * * * * * * * * * * * * * * * * * * * * * * * * * * * * * * * * * * * //

dimensions      [0 3 -1 0 0 0 0];

internalField   nonuniform List<scalar> 
11512
(
146.062
-500.057
353.995
-758.155
-2.20683
760.362
407.386
-371.387
-35.9988
633.213
269.124
-902.338
1510.91
-1069.38
-441.531
1216.29
-1527.13
310.84
-59.8703
473.629
-413.759
168.489
-842.078
673.589
962.114
-1610.82
648.703
-1759.95
1667.14
92.8084
-542.945
1759.24
-1140.55
1934.34
-793.793
608.272
180.781
-789.053
-24.7411
-1313.83
1338.57
220.706
-1980.65
1022.87
-382.276
-640.594
-180.371
326.433
485.816
190.187
-676.004
1155.23
-1313.2
157.967
-314.565
375.811
-61.2458
1002.93
-1313.52
310.593
1221.51
799.244
-2020.76
72.7296
-1639.33
1566.6
-472.792
-1170.44
1643.23
476.895
181.478
-658.373
-189.037
-311.02
498.137
1012.77
1646.46
-1803.72
157.261
-88.5148
-1691.5
1780.02
-1558.79
651.864
906.931
-307.268
652.757
-345.489
-193.311
-153.743
347.054
1283.95
-1211.22
355.159
-1407.4
1052.24
-1754.36
1754.36
100.046
1530.77
-1630.82
-1079.07
-479.724
636.858
-696.728
-384.396
941.329
-556.933
1331.95
-1317.31
-14.6373
-1100.09
715.697
626.352
396.518
-394.772
-31.1213
425.893
-447.907
778.042
-330.135
-1618.57
1618.57
1253.59
-1437.9
184.306
-488.572
1710.08
1255.03
-313.699
1660.75
-1161.26
-499.49
71.9021
-386.467
2065.23
-1134.97
-930.257
1811.9
-165.441
456.086
155.539
-611.625
-459.654
971.662
-512.008
-1169.57
1269.62
-568.42
970.761
-402.341
400.864
754.37
661.21
-492.721
-436.836
593.404
-156.568
1190.66
-835.499
2308.19
-1080.66
-1227.53
1163.63
-2008.65
845.014
-1601.24
1576.5
440.677
-1581.23
-759.221
1250.78
-491.564
-671.838
364.57
1661.46
-699.346
-1106.93
-870.893
1977.82
680.352
-369.831
-310.521
689.553
565.475
-258.203
1511.79
110.039
-315.392
205.353
-284.144
761.039
-333.869
565.831
-231.962
-324.001
809.817
-317.169
-147.589
464.758
321.643
85.7432
1457.23
-454.3
-980.351
485.035
495.316
274.221
91.0558
-365.277
949.27
-340.998
-1700.01
652.037
1047.97
17.1815
-854.386
837.205
-280.944
594.546
-313.602
157.044
-1093.75
936.708
1051.82
-1067.29
15.4756
372.685
518.883
-891.567
-244.591
700.677
-1103.73
-482.092
1585.82
-678.769
951.479
-272.71
1356.79
-1445.3
-637.161
280.055
357.107
-470.182
-1011.57
1481.75
-538.79
-793.586
1332.38
576.366
-996.323
419.957
-268.47
-317.732
586.203
404.35
-294.311
-1038.56
578.903
955.309
-798.265
-110.262
944.06
-833.798
-210.548
417.083
-206.535
-627.221
-353.13
-386.536
962.902
1856.39
-1856.39
-469.373
-167.789
-951.027
1556.64
-605.611
497.42
-929.39
431.97
-923.565
355.145
-941.91
-1058.08
-1490.14
345.068
1145.07
-279.065
912.278
-316.739
617.155
-300.415
-1941.9
999.994
-1139.39
-350.743
551.157
-1502.18
1728.5
-1725.6
-2.90444
204.197
-603.667
399.47
-1458.27
974.016
484.25
284.716
215.214
-499.93
310.518
-644.387
244.276
-420.509
176.233
2015.14
-872.09
-1143.05
-545.719
150.947
616.92
835.082
-1452
-182.746
427.022
431.195
876.816
-1308.01
-906.915
392.997
513.919
-1046.26
1447.13
-1068.88
309.661
750.933
-98.1758
554.478
-288.898
-265.581
1006.09
-521.058
593.281
-1403.86
810.577
-1342.24
238.508
-545.831
264.887
-1182.05
902.981
1945.19
-981.654
-963.539
276.805
1579.58
-2094.42
894.988
1199.43
368.709
-29.9847
-338.724
-223.507
483.852
-260.344
-106.06
-381.497
487.557
-464.095
146.926
342.324
-129.108
626.528
417.812
382.465
-800.276
-2037.34
1114.59
922.752
460.357
-530.496
70.1386
224.297
-366.443
142.146
1018.27
996.869
1782.86
-252.087
727.441
-447.386
796.81
-1389.7
592.894
349.301
331.051
1051.95
-1034.77
-498.429
-231.514
729.943
474.698
-134.897
-339.801
797.393
-616.612
560.434
-724.596
164.162
503.326
1157.42
-1239.81
701.022
1042.83
-1515.62
-3.13489
-1439.43
1442.56
325.448
824.56
-1150.01
623.349
269.76
-893.109
-2269.73
1140.95
1128.78
-1099.61
-1170.11
201.441
358.993
958.505
-633.057
879.515
-899.15
19.6347
-2099.38
992.452
-231.488
-191.013
422.501
-41.7447
1770.25
-829.411
71.2568
-1028.05
-1066.37
-229.193
453.491
-672.999
203.627
-271.283
-424.312
695.595
1104.04
-1574.22
783.03
-1374.45
591.422
694.024
-424.9
1947.87
-1444.54
-378.279
-1376.08
75.6965
397.932
-530.749
528.543
16.5637
-571.979
555.415
568.785
-284.069
-603.913
279.894
324.019
781.051
-363.24
32.8821
335.827
1188.47
-1191.61
173.95
230.399
393.148
-664.431
619.697
-1006.23
-2026.71
2026.71
-256.17
-446.79
702.959
699.263
405.797
-1105.06
578.977
171.956
403.694
377.357
-2199.75
1328.85
-926.558
-678.982
1605.54
-486.935
-695.111
-257.4
548.865
-291.465
826.19
-193.049
-633.141
-443.131
647.328
367.197
-683.936
-363.499
-130.287
493.786
-1328.63
-475.094
626.397
-1113.33
-374.138
-1244.43
844.328
1463.86
298.189
-941.931
643.742
965.972
-339.62
1391.39
-798.111
442.613
-268.662
-327.938
-870.835
565.741
305.095
-327.761
-543.074
309.659
-415.719
-214.403
-148.417
362.82
-392.687
1091.95
434.942
-244.754
-393.295
1351.17
-169.808
-1181.36
-469.518
283.736
185.782
225.965
255.129
-481.094
24.3376
-748.934
592.092
-1729.01
1136.91
1482.21
-865.292
-1048.91
-409.352
-1056.89
573.281
483.607
1378.45
-404.434
929.269
-1411.36
-158.958
-200.503
359.461
-469.393
580.637
-1626.9
427.97
903.98
283.11
298.249
-581.36
568.077
1186.29
1103.52
-714.064
-389.452
401.708
-216.828
-184.88
-1419.46
445.224
738.175
-1183.4
1473.31
-544.045
-489.294
927.882
-438.588
426.144
1186.16
-1612.3
47.2841
-726.053
-146.075
420.296
225.866
-419.177
531.147
474.946
-615.738
62.0256
553.713
1024.54
-1307.67
283.132
664.334
-260.64
468.247
-1447.23
978.986
405.343
1686.57
-522.942
908.129
1037.06
-661.337
-1684.51
757.948
564.08
398.727
-962.808
454.234
78.7897
1749.95
-1828.74
1443.74
-379.474
-1064.27
1699.12
-1740.86
-367.334
-523.051
720.374
-197.324
-502.59
182.311
292.387
-372.974
-1226
214.43
-764.55
-639.308
-653.247
998.633
-345.386
-654.134
644.334
9.80051
655.12
-923.786
268.666
-766.202
389.226
376.976
-648.528
-687.322
349.585
337.738
-932.324
1400.57
-415.892
886.034
-470.142
-2205.3
5.5579
178.353
-534.479
356.126
142.086
1209.08
-99.2159
-573.783
158.702
-595.538
1487.15
-704.118
378.937
-462.869
83.9322
-570.4
570.4
1223.11
395.458
1777.91
-1228.62
589.134
639.486
849.858
-52.4646
1291.57
773.665
-540.082
1336.89
293.395
301.151
273.8
-796.85
240.233
-688.141
231.539
-444.016
212.477
-237.761
577.098
-339.337
122.513
-360.274
-591.957
-564.481
1156.44
-370.863
539.338
-168.475
-1192.16
2032.04
-839.886
1289.51
-331.002
-406.1
137.629
-1980.84
810.398
1530.8
-847.185
-683.613
1986.95
-877.427
-1109.52
713.503
576.004
-239.43
470.969
-675.246
1140.84
-465.594
-770.05
1201.25
551.599
924.629
-1725.03
800.397
-544.958
-75.8135
620.772
299.152
255.327
409.669
-97.3492
-312.32
896.896
-83.4062
-813.49
917.347
-561.882
-355.465
1576.2
-472.161
889.478
-1626.58
737.101
1068.48
879.389
748.207
-442.084
-306.123
-1059.05
-258.262
561.99
578.289
-1140.28
-460.557
510.623
-50.0658
575.362
-343.087
-232.275
-983.719
567.827
595.59
886.621
-441.79
1096.91
1412.8
-777.524
-635.28
395.512
-924.299
528.787
-1024.26
397.037
552.816
-1042.11
458.251
-531.947
73.6957
473.73
304.312
-521.877
-48.523
-794.262
-878.337
1672.6
192.689
209.019
-215.481
416.922
-28.4042
-555.872
584.276
492.992
867.667
-1360.66
-521.436
307.033
985.954
-89.0581
836.319
-1064.79
228.47
397.306
846.227
-1386.31
-449.376
831.841
1977.97
-1284.37
-693.601
270.182
609.333
255.975
795.844
83.5234
-965.199
881.676
1673.74
-1089.05
-584.681
-137.845
1887.8
-1866.05
-160.657
483.619
-621.719
138.1
-1013.56
526.388
487.177
-1730.48
538.319
-955.819
845.557
391.362
202.042
586.709
-288.52
-421.728
710.408
255.563
73.5294
708.177
-781.706
-1127.91
-900.389
2028.3
-538.572
1102.77
-564.197
-470.079
-342.275
110.787
-1654.74
860.478
-864.654
-596.866
1461.52
-332.159
-294.727
626.886
356.945
-646.429
289.484
243.384
-606.624
320.321
202.135
-522.456
348.335
-605.735
618.178
-261.233
313.405
-460.993
676.412
408.646
-182.681
-387.914
-299.408
1219.57
-2.80958
-1216.76
1039.64
-419.94
560.282
410.479
-1782.37
869.82
912.549
491.667
549.502
-1041.17
-535.777
203.618
-263.014
1180.85
-917.838
-1590.89
1212.61
504.572
-1096.53
385.103
-6.16592
427.587
304.542
-732.129
372.521
-617.112
-32.3637
756.18
-723.816
-526.193
795.954
386.597
322.65
527.208
653.541
93.5092
-404.286
310.777
1058.97
-645.321
-413.649
494.012
-1664.27
1170.26
-1140.43
1753.23
-612.806
1715.82
-1123.73
-333.664
613.559
-1182.19
1265.72
425.286
-797.83
1603.1
-805.271
-260.8
-208.718
-889.777
1470.11
1812.67
-611.162
-1201.51
-404.682
647.71
-1300.96
-124.822
-47.7264
457.396
-680.553
-354.167
-1236.72
-220.013
463.397
903.576
-559.195
177.698
-1674.58
-71.2029
1745.78
-1065.42
526.851
568.609
-1182.34
613.731
901.028
911.64
630.791
619.993
686.459
241.423
-1134.63
459.38
-398.983
415.547
619.059
-515.116
244.506
-731.803
487.297
692.9
-343.599
-334.304
180.562
-602.216
239.964
362.252
-887.584
-738.994
1087.67
-2145.75
399.319
-683.463
-342.808
-724.486
833.981
578.823
-342.646
311.525
371.549
214.284
649.097
-863.382
527.046
613.794
-536.847
173.348
358.738
-614.908
-1036.46
-856.952
1893.41
-1796.58
157.247
1107.05
-1370.07
1156.97
-723.175
-433.797
-503.592
1349.82
-1495.52
627.867
867.655
-288.993
-210.591
499.584
1428.39
558.557
344.857
-475.144
-483.825
-567.442
1051.27
-419.263
597.616
1582.34
-1129.31
-453.025
-775.404
328.615
654.879
404.09
-1623.42
416.16
1207.26
-189.629
509.95
797.776
784.562
198.492
-686.8
488.308
207.206
209.877
-293.318
-107.752
401.07
488.863
-0.694418
-488.169
-1636.27
587.354
-1605.45
1671.48
-66.0324
10.9261
-1616.38
1069.61
764.313
-336.726
-809.657
-214.601
-1134.52
-239.936
-311.303
683.825
-1812.42
-629.386
1207.68
213.309
758.353
-1330.12
-678.529
-465.421
612.115
-329.005
-1013.28
1350.76
-1932.84
582.085
646.293
1288.05
487.301
-3.44941
717.438
704.535
-1421.97
-637.791
334.985
302.807
440.811
-99.4213
-341.389
148.396
302.705
157.517
-460.222
-584.904
1148.98
461.861
-629.032
-461.905
-401.526
863.431
-328.101
169.143
-456.251
161.94
-304.77
-708.794
549.694
-108.884
-571.566
967.078
581.229
-270.09
-311.139
455.788
-779.789
-646.4
445.326
-1129.41
-836.93
1182
-569.762
451.741
278.203
-454.203
84.3715
1028.73
-317.664
594.531
-276.867
-509.026
1578.63
-681.743
238.825
372.024
-610.849
219.355
484.965
-28.0486
-456.916
-257.061
-199.189
1018.35
1108.94
564.798
-874.768
941.834
-67.0655
-458.816
169.823
-732.168
307.856
-591.401
323.072
369.828
826.025
-1234.71
408.687
777.224
-809.587
-948.967
-550.363
1499.33
-166.639
464.888
-546.848
257.951
1299.75
776.492
-577.999
1312.8
-686.405
487.365
-675.492
-407.604
-423.558
-378.157
801.714
502.822
-843.82
-456.112
93.1362
362.976
-323.303
572.405
728.667
-329.348
-244.046
-173.093
417.14
-489.445
139.298
350.147
1458.09
81.0217
-1539.11
-751.306
1346.9
-1144.74
-466.071
539.101
-167.077
1150.6
-373.374
1083.51
492.697
696.004
-422.204
-885.091
-522.307
-1328.44
-25.9179
985.019
-959.101
594.532
331.068
-925.6
-332.309
-213.41
-675.404
405.519
1621.19
-180.872
371.406
346.495
-717.901
-1839.77
-2106.68
1519.14
587.54
-2037.2
345.696
363.806
534.417
-898.223
-460.055
1020.34
-395.709
-671.587
1067.3
-2030.53
1391.21
639.321
597.457
-993.166
42.7254
415.526
386.26
195.161
247.452
318.326
961.264
865.485
679.479
-325.757
-353.722
-293.765
620.844
-327.078
573.19
530.326
565.434
514.758
-1080.19
-796.231
-699.291
752.267
398.331
-413.098
702.582
-1193.42
1609.58
420.487
-1092.07
-335.726
537.861
-1381.68
870.788
510.893
-714.138
-351.798
-782.438
359.385
423.053
446.985
718.341
-1165.33
1071.28
-579.612
-408.897
661.583
-252.685
255.256
325.974
-468.294
-431.798
900.092
-235.218
560.564
-953.572
393.008
-459.411
600.598
-1681.26
423.657
671.058
-1094.72
520.741
96.4137
113.407
-2212.79
537.895
-86.1543
1444.07
1777.09
-217.553
-1559.54
-438.435
1789.19
-1986.96
1194.47
792.49
402.177
346.029
-37.3548
871.335
-1283.3
718.823
-869.82
-822.701
796.783
302.673
64.4487
-367.122
232.227
187
-419.227
1553.8
-836.358
-1530.96
-325.43
490.104
-214.862
-275.242
394.959
366.079
251.049
361.066
-9.15129
1001.7
-992.554
376.473
282.172
-658.646
-734.055
1817.3
-1083.24
-342.289
737.249
-1218.06
-412.759
-915.39
483.591
574.701
-780.1
205.399
761.263
-380.591
-380.672
-428.452
-446.316
449.078
1079.86
1237.58
-668.966
800.961
-345.173
383.833
319.127
-244.066
-218.803
-206.097
611.441
407.63
-847.479
439.849
219.351
351.667
-571.019
-422.804
830.435
754.606
-1147.29
886.042
-60.0176
-489.055
276.349
775.598
-95.867
1383.92
1890.5
-58.8388
342.574
-317.452
410.961
-1086.15
1077
627.522
375.881
385.381
76.2677
413.836
262.704
497.658
-371.946
-265.845
-564.801
-89.3338
-360.282
364.477
-4.19455
-256.81
-289.021
1011.04
-1540.69
529.656
-191.835
-179.552
-385.982
668.155
-1634.76
1591.03
-963.168
261.313
-668.918
584.312
1224.42
-1808.73
607.397
983.638
309.613
-1121.09
699.357
-286.244
-295.115
1376.83
-1446.24
827.355
618.887
425.516
-630.034
204.518
-375.082
477.91
-102.828
377.413
111.45
1723.87
458.037
-250.831
557.623
-1704.79
1147.17
-94.0511
393.829
342.446
337.033
-448.405
-615.732
1064.14
416.181
-865.558
-641.132
902.916
570.398
-514.634
-251.568
-438.881
-408.598
-307.23
-827.286
1821.12
-1821.12
-104.204
-1590.51
1694.71
292.929
282.433
-917.264
-555.321
1472.59
-408.079
973.513
-596.23
-1040.04
688.218
391.682
-1079.9
474.938
-161.533
573.06
1220.35
-1793.41
-1040.98
2114.61
-1073.63
-374.998
-296.839
-488.655
817.269
-1752.04
1601.28
150.759
1752.04
-1605.7
-146.344
-245.781
523.279
-277.497
-537.277
1620.78
1564.53
-1977.29
1085.25
-290.685
-259.635
550.32
233.185
-568.911
-699.532
286.433
1341.54
636.436
580.578
483.132
-1063.71
276.478
419.525
875.44
500.081
-1375.52
534.136
-1017.96
1574.94
-563.901
-775.332
-362.439
-126.258
488.697
-489.931
1208.27
-741.707
333.467
367.21
369.702
249.564
-619.267
602.887
831.846
-603.376
263.323
678.51
-514.634
-326.618
-234.626
561.244
1168.55
-673.741
609.753
465.899
-1075.65
-1293.09
1293.09
-386.377
762.259
-282.777
-477.474
760.25
490.762
444.433
-935.195
390.538
-673.315
609.958
-868.771
258.813
-366.998
-493.612
1074.19
-661.342
-710.285
1371.63
-376.211
936.775
-1552.7
675.269
32.4184
-418.344
385.925
-512.573
716.2
254.37
322.728
169.479
305.459
-521.861
235.616
1869.51
-1965.38
264.038
-707.169
451.038
-821.822
370.784
-914.847
1414.03
-499.187
-429.562
-485.827
600.719
1124.2
-1724.91
-714.7
339.701
-460.872
1034.06
-781.52
1044.84
-379.5
-627.43
-491.035
731.268
540.295
-358.816
906.943
-307.202
-182.243
1599.02
-1816.57
-346.139
-607.433
-338.366
477.664
265.498
-594.503
-176.7
1063.18
-786.833
205.552
-290.56
-277.868
568.428
392.769
-880.437
487.668
-485.212
-453.781
-941.931
-352.373
581.183
-228.809
-450.43
-429.654
-337.459
-184.997
-393.567
643.131
-446.234
765.36
-1072.66
624.26
-1407.22
542.565
-28.0414
-1835.71
1863.75
569.885
-449.601
1218.64
-691.785
335.955
-335.955
671.034
-441.423
1040.39
-1636.62
-1158.73
-947.947
292.418
328.426
887.458
715.643
-497.964
-302.085
800.048
1657.77
-1685.81
-434.396
344.813
223.973
1134.81
-525.052
-943.332
1550.47
-607.141
442.93
-247.769
376.925
385.748
-762.674
533.234
470.84
-1004.07
-331.045
664.512
-37.8909
1907.4
1591.55
992.836
-1696.95
727.135
-1177.07
449.935
-492.444
1367.88
837.632
-1341.22
-562.619
271.934
799.882
-401.154
551.537
-1188.92
637.379
-637.06
-1215.54
-695.649
1911.19
-192.583
550.452
-357.869
-175.299
308.706
-501.289
329.563
369.083
-698.646
-1483.91
756.841
727.068
884.101
-1434.46
824.453
-431.456
214.893
-360.968
-595.007
268.388
-643.4
-738.281
698.655
506.146
-1204.8
388.803
-202.814
-185.989
556.03
-958.371
-570.039
-425.978
733.833
-831.29
-1155.67
-1437.96
499.632
938.327
8.77558
-639.765
343.036
296.729
-1314.83
1046.26
268.569
-616.643
-456.021
-665.759
921.734
399.024
-199.305
-199.719
508.191
980.661
-1488.85
977.668
-564.808
167.485
397.323
-403.175
675.574
-411.535
-506.354
167.988
234.32
-1518.69
529.096
542.183
-758.445
245.873
149.112
-456.314
366.958
-820.739
1954.16
-1195.39
-758.769
419.327
-678.437
259.11
325.858
329.144
115.464
-444.608
-570.329
194.304
263.733
-691.69
1374.35
-682.657
423.905
465.442
-1179.58
266.468
1866.78
-1013.59
-853.188
784.94
-534.71
182.337
1402.37
-975.196
-427.173
331.576
-772.999
-616.5
1725.44
610.916
626.659
322.639
-19.9664
266.676
-1138.43
1725.71
-587.28
-1763.52
820.19
1756.59
-1687.06
-69.5294
-660.191
261.208
568.936
-718.085
227.05
1402.63
-564.996
387.377
444.464
-1858.56
1420.13
555.428
-435.463
-119.965
203.349
-540.808
-284.19
-185.889
-352.78
695.225
-579.846
217.407
611.184
550.519
-1161.7
1113.64
-1947.45
833.81
156.61
337.176
-1699.02
1661.13
312.715
-734.919
-165.896
380.789
755.388
679.354
-1434.74
1076.8
-1079.61
525.661
-1105.27
-629.199
252.635
376.564
527.844
-287.88
-605.455
-1031.16
292.424
-722.078
-912.32
175.37
163.005
225.798
393.532
290.616
-684.148
-630.803
-833.998
-978.427
489.97
-1060.3
-296.54
482.322
534.515
647.483
-281.556
-124.543
-410.878
720.49
268.016
-1199.34
568.541
1309.06
-553.675
442.979
-1013.02
-390.44
157.062
398.366
1023.36
551.575
-1715.6
1611.39
1630.29
-565.603
-1064.68
1903.51
-1892.09
-11.4211
211.991
-529.443
-349.246
554.799
-767.093
-323.417
-336.774
1024.83
700.791
-1504.29
803.502
338.231
-26.1902
1625.21
-1085.96
412.221
-1239.25
463.918
-60.5492
1518.64
1197.39
-470.255
-489.728
-75.08
-268.813
736.017
-1951.55
-709.938
353.474
-532.923
179.449
192.286
-509.95
1139.91
671.553
-1811.46
-615.057
179.594
942.021
-1497.34
-210.462
678.89
-468.428
874.551
1125.45
-738.612
1349.53
612.567
-487.272
-125.295
-345.642
1173
1041.98
-1979.91
937.932
-1172.7
543.318
1488.75
-585.835
-388.084
-148.764
-1241.76
572.795
1160.46
-112.49
946.074
775.555
-1721.63
-205.721
578.481
-1541.72
963.24
486.966
916.669
-1403.64
621.089
586.586
394.643
-1106.65
591.869
1107.71
1216.46
-452.404
-764.057
-1186.2
-1754.93
-7.08826
-1708.51
-202.951
-427.083
1607.55
-629.09
-978.462
-490.809
1121.6
-1318
635.917
682.086
-1361.83
1442.85
-1330.63
592.014
1520.5
-387.909
-574.866
186.782
-1480.45
230.264
176.369
231.568
380.999
437.888
399.998
-837.886
506.301
-939.043
900.752
-1444.8
-701.192
233.702
467.49
-1044.12
459.213
-476.328
863.705
695.544
24.8206
-528.082
170.213
-886.565
-1318.74
-714.899
349.765
365.134
402.898
-722.549
319.652
-478.922
-189.269
-709.881
719.969
1539.62
-593.547
815.854
737.942
1344.79
-844.714
-971.304
-570.418
-796.533
427.586
368.947
-1036.58
-641.888
304.092
337.797
-1433.69
-296.783
-790.304
398.123
392.181
-653.125
406.196
246.929
-679.638
268.102
412.425
487.667
389.469
440.965
479.142
384.289
596.764
-969.738
681.571
467.413
453.79
356.225
-810.015
1630.76
-1079.9
-550.86
-504.506
-285.804
-1029.03
454.35
347.364
409.469
594.203
-1003.67
-1380.96
751.868
-532.54
1146.27
356.728
-54.0234
411.86
-865.25
453.39
-1894.72
304.217
441.689
-726.299
284.61
-187.033
402.576
-215.544
-661.018
306.101
354.917
-673.633
319.911
370.386
391.873
612.844
-1020.92
753.057
661.967
-1415.02
438.646
625.491
340.039
392.763
-732.802
409.403
327.846
601.703
672.677
407.185
596.376
-1023.06
426.679
-1669.44
1193.15
476.288
1696.59
-539.17
620.796
-1147.12
526.324
-642.885
348.158
437.073
-935.021
497.948
754.718
-450.176
350.422
344.804
571.634
-917.772
651.333
-1252.9
601.562
376.83
734.782
-1224.71
769.567
509.498
-1279.06
486.459
405.435
-891.895
-501.642
-936.317
-300.079
629.642
352.378
542.005
-894.383
333.041
331.471
-502.178
1944.74
437.26
-847.197
409.937
-917.797
-807.23
-748.232
367.56
-1219.55
438.031
-1733.75
1605.7
128.047
1746.36
-1601.28
-145.073
-784.054
-592.059
265.78
326.279
-1756.59
1977.29
538.445
791.564
-1330.01
440.025
716.413
690.389
385.544
-1075.93
-74.2613
1617.13
-593.765
385.704
832.932
-649.861
326.903
322.958
-377.866
-297.538
552.794
-219.246
434.461
281.217
-666.343
385.126
264.736
-578.337
-282.614
442.381
-1033.44
591.058
538.038
1092.72
365.884
597.017
312.725
353.427
-666.152
1623.76
-922.971
1691.88
-1520.52
-171.359
-327.323
-823.002
414.405
857.551
-1068.01
-606.282
279.204
-1090.6
1628.64
-1584.8
-78.3322
1663.13
-340.502
-349.47
-369.541
537.198
597.607
-502.041
-28.4549
-550.023
505.437
-282.378
-223.059
1747.97
-1298.89
-624.572
299.263
325.309
401.046
357.221
734.73
-296.147
-398.467
-1746.36
1685.81
459.436
-1100.93
641.489
-43.2544
1654.65
571.36
476.329
-1047.69
104.803
1144.86
-1452.09
-14.6675
-1880.06
227.94
-598.629
306.826
291.803
-955.459
612.65
-898.123
468.56
-1128.55
673.559
454.988
371.036
268.133
-766.096
-309.87
1216.81
886.8
699.022
-1182.97
456.098
726.869
494.268
700.864
-1195.13
-358.886
-246.296
409.301
-960.567
438.313
522.254
21.2518
-1879.81
1079.86
-469.902
-498.6
558.104
-1378.17
820.066
-427.288
798.072
-404.923
498.067
-706.913
1725.26
409.622
-183.824
217.211
-169.641
-244.4
414.041
1895.32
-504.111
-1691.85
1051.49
-602.337
304.799
-1013.73
553.68
-311.869
544.263
905.315
-1449.58
-1103.82
438.056
-20.7954
-1944.59
1711.28
-669.306
-540.732
460.656
-1190.52
729.86
191.793
207.23
-282.651
769.854
700.261
838.079
818.45
-462.225
1084.93
-477.352
477.194
-193.544
-283.65
-1923.11
-714.307
-317.412
-644.571
-6.96831
651.539
465.533
-271.229
564.995
1058.77
-804.555
924.741
1244.28
-424.88
-192.195
-226.427
418.622
959.024
-888.555
-322.503
-1067.84
611.822
1557.26
-800.418
537.627
934.958
-393.297
735.307
-342.01
1130.41
-276.806
335.324
1349.67
-705.152
-219.147
448.237
-1198.65
750.417
-992.895
-110.944
1103.84
441.849
-955.568
513.719
175.397
732.972
483.489
739.063
-89.9661
852.825
-425.401
1182.56
-797.013
552.092
-1465.46
913.365
-1216.65
1800.97
-431.712
-1510.19
879.692
-1402
-312.919
-419.21
1457.2
-1523.66
784.669
1491.5
201.878
275.316
-357.242
-1733.75
-290.404
-1010
1575
-1766.68
1766.68
1564.53
-1004.49
-634.193
-340.85
368.297
605.216
-371.377
-364.935
-1389.85
897.401
1125.15
600.564
1202.78
1789.48
-1216.42
-612.758
271.989
1658.98
-1916.45
257.464
814.5
-1267.53
1545.24
-561.606
783.816
318.953
-344.917
554.758
795.061
672.566
1355.73
-228.179
-444.733
-365.562
497.741
-342.202
471.693
736.579
-301.082
-143.526
-332.703
568.401
-235.698
28.1621
-371.25
1107.46
-1720.27
-440.408
-489.163
-567.921
863.788
693.471
-1596.5
904.811
-451.43
-622.185
-513.842
1252.02
339.383
1723.68
-1702.43
-1657.77
1892.09
-1560.83
840.296
720.535
-377.648
-1796.02
917.679
583.108
819.521
-393.977
1794.28
-680.649
-415.409
679.902
431.544
-1111.45
-1099.98
444.048
753.342
-1617.18
473.176
901.172
176.51
-400.018
223.509
-1596.04
-384.608
-432.565
990.304
-673.22
1442.94
-979.114
1853.66
239.981
-539.852
495.886
-294.008
474.298
893.586
543.085
977.417
-462.619
-427.732
573.912
883.286
-1392.71
-40.988
1573.27
-835.326
519.939
971.558
-1475.81
-1115.9
1771.11
-1242.21
-528.901
1206.11
-318.979
-887.129
-191.905
453.045
-261.14
-457.123
-248.869
429.335
-180.466
144.768
-391.064
1730.31
-1737.4
-460.284
-530.834
-903.63
442.736
-206.712
-236.024
635.683
-458.975
-359.052
-317.001
676.053
-927.828
384.754
-1167.31
676.503
416.49
-636.042
-438.218
1575.89
-860.242
530.178
-457.704
-571.022
-462.416
373.36
-363.581
-9.77922
-1103.8
412.015
-664.735
-1033.67
1698.4
-601.138
-1423.4
713.11
562.176
-1596.26
1034.08
-392.529
-476.24
152.043
534.416
-1258.37
744.523
539.215
1006.03
-2133.18
999.989
1133.19
-365.438
420.663
-395.763
-24.8996
1478.04
-371.77
449.314
1211.67
582.171
906.581
567.805
527.349
-1095.15
164.9
-442.495
-1687.06
253.641
1127.59
-615.303
518.466
1013.77
-1532.24
1092.86
-1643.72
189.925
696.117
548.253
-870.756
-1086.53
-173.519
429.851
-256.331
-587.162
-431.462
-636.839
-629.642
346.992
-1618.72
939.74
-476.665
213.447
-397.27
534.102
-306.162
-607.583
1197.16
-1276.25
923.452
352.794
-1020.89
-371.472
-757.831
-824.903
1688.69
-476.785
1793.56
-1582.44
-211.123
-1556.64
1018.74
537.899
-725.989
-263.738
445.825
-182.088
-592.886
383.127
273.886
-657.013
-523.849
989.384
629.702
-350.499
-1620.28
1050.52
571.759
1103.55
-1675.31
-416.132
-291.457
-369.561
-745.041
-474.142
-329.672
499.15
1557.99
-995.81
-775.251
1497.45
659.578
-314.766
725.88
1152.37
-1878.25
292.913
309.103
-487.057
-1932.16
1719.82
212.343
738.087
-474.084
-264.002
531.822
1060.84
-1592.66
373.36
-1723.18
-233.209
1752.35
-1580.7
1073.79
506.912
-1723.54
0.362777
-521.573
420.663
1699.02
-1719.82
939.688
624.513
-1564.2
385.231
-218.334
-166.897
-413.841
-265.797
70.0249
95.0975
-358.835
-429.997
-438.774
-405.362
218.33
1510.24
378.821
-215.804
-437.321
462.213
-198.48
322.955
1510.77
996.195
-153.483
-842.711
-1104.11
1704.82
-1728.77
1064.03
-707.15
-1021.61
-1265.09
1844.99
-579.901
1155.07
-1771.14
616.07
272.306
-878.18
1675.7
43.4486
-1719.14
-491.153
-1083.07
-1730.31
-982.09
554.358
1019.62
590.217
1133.04
-1723.26
281.836
-448.913
703.529
-383.618
381.325
924.863
680.677
-381.366
-641.689
582.883
1072.57
-1655.45
-401.079
-368.165
769.244
430.785
-1661.13
1520.52
140.616
583.043
-1043.91
544.741
1083.9
-1555.68
994.075
-237.837
228.872
325.926
1903.51
432.419
-75.8229
995.863
722.751
-1718.61
-697.359
1085.36
-1557.52
165.172
-571.611
198.017
264.197
-658.619
-560.932
582.485
1034.64
-711.214
-277.054
-1368.44
675.637
692.804
-413.246
763.111
64.419
-827.53
561.641
-137.154
1557.28
-213.569
271.943
-771.796
-1932.16
1664.62
1030.73
389.226
302.841
451.877
-930.04
-993.065
-1767.27
635.762
1693.77
508.294
-474.23
1210.81
1087.13
-424.81
1030.03
-978.132
492.477
485.656
700.212
1047.94
-1748.15
484.483
482.594
-1494
-746.531
32.467
780.006
-412.446
-885.543
386.942
-538.808
-802.417
643.742
-577.246
1397.31
1055.14
195.641
234.21
-550.607
1618.53
-772.675
1525.73
-1727.83
575.246
1152.59
543.23
-882.851
-1732.75
1916.45
-183.699
1721.74
181.816
-543.881
373.801
-278.704
-481.341
1211.2
568.267
1128.33
-491.166
430.615
857.763
-461.244
-772.555
427.443
345.112
1418.83
1089.6
-518.169
1422.98
-510.552
-533.549
1044.1
-602.745
477.229
-1200.4
1691.88
1839.58
-687.21
1585.65
-645.959
-1241.27
717.423
-562.445
205.626
-396.639
454.811
-244.934
-520.058
-1246.71
1870.94
-624.231
1173.25
-552.45
1120.29
-1659.46
1694.65
-573.926
-545.558
-549.812
1720.07
-317.066
-688.025
-473.256
1223.67
-1684.19
-1860.1
613.393
301.066
-934.208
168.195
213.508
-1719.03
1204.16
514.87
1162.86
558.887
-511.67
-465.328
1192.2
178.718
223.859
588.444
1251.14
-539.175
-1238.58
1777.76
-1025.39
999.991
866.79
-204.118
-1658.98
1702.43
-510.052
1411.22
-1732.75
-356.336
16.3858
339.95
-261.388
584.605
-323.217
77.7593
487.981
780.901
-378.003
1257.53
1270.87
-413.316
851.964
-437.56
1817.44
-662.374
1586.53
-1723.68
-412.787
-748.008
306.918
441.09
-559.711
-563.277
79.7157
-1138.77
-985.48
-669.712
1655.19
-943.707
-1189.47
159.202
-418.837
-648.378
705.623
1167.45
649.998
1410.26
-590.735
1636.75
1318
-573.479
-490.971
196.964
-503.259
1396.84
1240
-564.366
-999.989
893.039
55.0589
-948.098
603.437
-506.11
1403.51
1495.04
-588.457
-381.744
381.744
-589.411
1623.49
1239.5
-486.161
1134.16
-70.2854
1850.3
-389.922
1489.43
-588.679
-507.657
1347.95
-652.472
1218.47
-566.003
1554.79
-591.546
751.091
574.292
-1325.38
-654.419
280.052
496.44
600.166
-1957.3
-988.799
1586.53
382.482
-382.482
-67.4688
387.975
436.478
387.777
-10.3637
-342.681
897.686
-520.856
-425.904
813.879
-243.326
619.89
-432.044
1546.63
-444.323
-884.118
186.572
224.156
-410.727
601.167
1250.78
-1851.94
926.96
-458.4
-363.581
126.152
-1943.01
1816.86
-449.406
180.743
1181.26
-440.412
-740.847
-301.963
-583.579
-492.61
-395.763
-479.259
256.2
1158.12
-560.509
229.34
-378.13
148.79
-22.4032
-107.67
1376.08
-1268.41
34.4486
-599.249
-586.384
-460.541
460.541
-1262.36
1985.11
-1344.39
-213.384
-1823.63
241.187
-1025.75
-974.242
-185.512
-1637.74
707.696
1229.32
-1924.97
368.528
312.522
-681.05
-1850.01
1234.27
615.74
-564.755
564.755
-959.196
-39.8776
-1866.05
-558.137
1650.86
-677.253
1636.16
-601.519
-176.051
-1704
-583.829
-445.167
-594.792
-473.626
473.626
-1537.81
194.526
1343.28
173.834
224.333
-398.167
487.182
509.013
996.991
-474.737
1751.3
768.714
-427.613
402.713
520.774
1702.05
-594.587
-552.958
1636.86
470.006
1812.74
-645.288
-1803.95
-1938.08
-646.946
-484.896
484.896
-590.186
224.624
-691.579
1019.41
-465.732
-1072.51
-287.465
1579.58
1852.3
1635.34
-1635.34
-274.314
739.527
1761.49
595.785
1275.15
175.592
209.638
578.545
591.439
1603.53
-1603.53
222.233
-354.022
-434.902
459.837
951.191
-458.714
-639.727
-1131.02
1706.26
280.232
-1651.36
611.321
-287.345
469.162
1744.64
-592.056
-214.883
-417.216
380.029
727.684
1738.57
-613.417
-511.762
-773.807
1960.53
-870.452
-1090.08
1642.78
-705.946
1223.97
-1824.94
600.969
336.098
-875.95
-185.987
-110.048
1098.24
-486.42
131.745
617.96
-1649.12
436.417
610.714
-1803.95
-583.273
1787.43
884.247
-1162.92
1760.49
-597.562
1783.83
-575.524
-1208.31
437.261
926.369
-1737.4
924.773
-1494.82
266.269
1228.55
-831.075
-1254.23
-385.481
77.6109
307.87
581.718
269.392
1027.51
-443.486
846.09
-402.605
821.014
738.771
-1559.79
643.816
1066.27
-24.5059
-663.862
688.368
-1744.3
722.683
700.619
150.524
-1122.69
1936.75
-674.547
-1262.21
-537.173
1665.5
830.308
964.237
-1794.54
1227.87
683.32
-403.965
710.066
829.885
1028.22
-586.368
1761.49
626.68
1773.56
-1185.62
-587.936
-379.948
-332.453
712.402
121.435
-1185.71
1660.55
-540.264
-1437.84
1437.84
1250.57
594.414
1351.57
206.418
-562.125
280.253
-189.198
699.07
1113.67
479.672
-300.954
-870.197
-574.599
1737.04
-1737.04
1011.24
-1011.24
987.33
1025.17
-2012.5
1837.94
-613.968
-581.105
824.72
-947.849
-1052.16
998.339
690.577
-1688.92
-521.877
-350.153
-643.013
-808.422
2042.69
-1246.42
-613.679
1002.97
974.851
1289.77
646.985
325.663
1012.68
227.737
337.415
1186.29
1756.87
-1756.87
672.005
80.1751
-391.314
-997.052
-539.988
1674.15
990.522
1009.48
-1833.28
-223.18
-360.649
606.367
-352.727
1849.49