/*--------------------------------*- C++ -*----------------------------------*\
  =========                 |
  \\      /  F ield         | OpenFOAM: The Open Source CFD Toolbox
   \\    /   O peration     | Website:  https://openfoam.org
    \\  /    A nd           | Version:  7
     \\/     M anipulation  |
\*---------------------------------------------------------------------------*/
FoamFile
{
    version     2.0;
    format      ascii;
    class       surfaceScalarField;
    location    "12.5";
    object      phi;
}
// * * * * * * * * * * * * * * * * * * * * * * * * * * * * * * * * * * * * * //

dimensions      [0 3 -1 0 0 0 0];

internalField   nonuniform List<scalar> 
44078
(
-594.973
669.235
-74.2625
1068.38
-1075.99
7.60608
-334.499
381.371
-46.8724
223.401
-258.217
34.8165
-498.175
498.175
217.246
-261.693
44.4466
-379.999
370.108
9.89167
30.0381
-567.429
537.391
664.252
-833.835
169.583
-1009.35
1102.31
-92.9596
559.376
-149.508
-409.868
-532.881
535.808
-2.92714
-687.735
582.61
105.125
-859.808
868.867
-9.05849
276.416
56.859
-333.275
385.027
-10.2103
-374.816
814.453
-666.896
-147.556
-413.977
410.734
3.24329
160.788
314.805
-475.592
289.848
-356.165
66.3173
-593.947
81.6931
512.254
724.718
-60.466
49.4884
-383.987
136.436
-489.2
352.765
213.798
-91.4623
-122.335
1072
-3.61877
659.771
-680.901
21.1293
-293.465
23.9757
269.489
310.769
-34.3535
-443.132
543.831
-100.699
955.134
-247.494
-707.64
-679.454
767.136
-87.6819
247.971
-222.204
-25.7675
480.729
-73.384
-407.345
105.645
-399.11
263.522
-431.039
167.517
446.894
-596.469
149.575
291.004
-40.3736
-250.631
825.429
-980.376
154.947
1063.19
-237.757
-1018.29
1035.79
-17.4989
400.265
-89.0402
-311.225
704.06
110.392
186.299
-310.837
124.538
1228.49
-777.714
-450.771
-591.092
147.96
537.031
-538.679
1.64842
230.485
645.556
-876.041
225.558
537.192
-762.75
-107.963
554.857
-383.643
176.268
207.375
-10.8571
-225.55
236.407
-671.65
-7.80375
238.084
-20.8376
423.607
-38.5805
-277.333
-61.9587
339.292
524.075
-499.496
-24.5789
-34.3161
-559.631
-465.024
44.9148
420.109
-295.814
-32.8989
328.713
799.491
17.5788
-817.07
-409.148
569.936
-15.5184
-238.6
254.119
-220.038
483.56
-342.704
453.706
-111.002
255.936
216.898
-472.834
495.193
-122.763
-372.43
429.023
-49.5447
-379.478
-433.54
-19.5709
453.111
-986.776
-31.515
1066.37
5.62741
320.711
259.409
-580.12
-244.828
547.757
-302.929
185.812
54.53
-240.342
-431.065
381.015
50.0499
-382.913
386.159
-3.24533
297.088
-155.006
-142.083
-250.421
-59.443
309.864
-699.284
16.5356
682.749
405.716
-88.3744
-317.342
-251.682
251.682
75.7783
-763.908
688.13
-665.063
70.0905
-947.215
848.234
98.9811
-317.362
-62.6374
-39.9041
224.325
-184.421
531.266
-127.6
-403.666
-644.474
-43.2617
652.383
-69.7728
96.3779
81.6474
-178.025
-357.343
95.0341
262.309
-307.63
57.2088
846.856
-621.298
574.583
-601.432
26.8494
222.014
-93.3558
-128.658
-380.642
149.38
231.261
-26.7527
255.245
-228.492
-846.758
847.556
-0.798887
-33.9535
-156.977
190.931
277.744
11.3713
-289.115
-711.442
12.1577
-264.109
282.053
-17.944
778.726
20.7654
429.863
-638.764
208.9
203.408
-214.265
-762.813
826.573
-63.7602
661.415
-715.785
54.3704
74.642
577.741
943.835
-846.978
-96.8565
-212.385
241.426
-29.0407
196.701
51.2702
352.074
126.123
-478.198
1009.1
-256.886
-752.212
17.7571
564.078
-581.835
-12.4816
-587.595
600.076
540.953
-220.242
118.289
428.612
-546.901
-302.897
406.768
-103.871
76.7291
-814.824
738.095
-699.715
454.886
-13.0063
-200.038
213.044
23.9346
-860.591
836.656
-314.168
328.641
-14.4738
-23.0538
278.989
24.0135
-890.967
866.954
-364.37
345.626
18.7443
-90.3529
-323.624
16.4164
-290.872
274.455
704.915
-787.051
82.1365
726.087
-860.288
134.201
-155.395
341.695
174.466
122.622
213.291
-209.636
-3.65548
292.344
-315.725
23.3811
-132.364
562.228
628.671
326.463
160.103
87.1809
-247.284
275.107
-314.232
39.1249
206.437
-247.238
40.801
-31.8948
309.639
-352.41
-11.9595
1.78817
-185.139
183.351
220.209
-59.0837
-161.125
181.124
827.974
-198.074
-739.274
937.347
-101.108
-397.066
522.914
14.117
231.817
-223.66
-8.15725
269.971
-211.018
-58.9537
8.68427
-221.651
212.966
-396.043
637.267
-241.224
48.6557
511.605
-560.26
984.116
-886.617
-97.4988
790.87
-787.083
-3.78737
-559.478
-250.503
809.981
-145.657
722.065
-576.408
453.777
-443.268
-10.5089
-242.159
2.96532
239.193
9.96144
-751.818
741.857
-176.814
-206.829
-245.148
231.629
13.519
241.204
-17.8032
33.4356
1020.86
-572.446
-448.417
735.192
-933.266
-398.323
95.4258
12.5093
207.699
16.5306
-778.286
761.756
-90.3701
-856.845
416.457
-451.585
35.1285
-106.754
832.842
53.1558
-736.62
683.464
-231.625
-10.5337
275.107
10.8941
242.783
-253.677
-432.178
432.178
82.4028
680.094
-762.497
-313.003
48.8943
-579.835
597.592
333.002
-303.365
-29.6371
-777.829
-63.2678
841.097
-150.915
450.629
-299.714
452.923
78.3427
429.563
-442.018
12.4547
259.457
-53.0207
-201.442
-339.907
541.349
500.42
-380.997
-119.423
-327.889
19.1779
308.712
785.956
-81.041
-519.595
-80.7794
600.374
-661.038
661.038
-130.209
504.158
-373.948
96.0069
-324.74
228.734
-920.655
361.177
306.142
-357.068
50.9263
436.557
17.2207
794.371
-467.26
-327.111
926.181
-75.2055
-850.975
75.071
146.943
-847.433
614.511
232.922
-29.5753
271.972
-242.396
-206.983
222.308
-15.3253
-44.8534
-488.027
875.334
-890.283
14.949
-71.5219
429.249
-12.7923
788.885
-793.571
4.6866
244.418
-12.6006
26.163
-238.548
822.124
-963.808
141.685
267.35
-340.275
72.925
570.532
-570.532
899.938
-93.2279
-806.71
594.159
73.0945
-667.254
60.6839
-329.526
268.842
-205.168
275.441
-70.2727
-476.071
325.155
52.7342
736.15
-392.858
529.294
251.288
-176.217
-684.09
-176.199
484.812
-630.468
453.356
-500.889
47.5329
-903.424
1039.08
-135.658
-579.665
555.513
24.152
506.453
-581.92
75.4672
129.439
737.981
-867.42
211.226
530.787
-742.013
723.351
505.135
322.365
740.821
322.588
-231.476
-91.1122
-293.892
293.892
370.713
-401.634
30.9201
-27.7143
1094.09
269.013
-322.438
53.4257
530.766
-482.11
-297.429
-562.379
551.491
-565.086
13.595
-29.1555
904.49
256.674
-286.25
-226.12
196.921
29.1994
498.849
-587.569
88.7204
-197.589
959.094
-761.505
588.612
-82.1594
772.103
-382.887
-389.216
338.236
-48.3886
471.986
548.877
-212.086
172.182
-743.841
59.7516
-940.204
36.7801
477.386
46.6896
-679.939
891.165
-700.986
-61.8271
185.427
-202.087
16.6593
-73.9998
915.252
-841.253
-38.0558
-817.791
855.847
181.563
-179.775
50.5913
165.474
-216.065
-8.03722
-365.853
373.89
325.776
-309.359
-610.281
214.239
-260.964
457.85
-196.886
908.562
-678.077
303.586
19.0013
288.669
9.84505
-298.514
-562.334
182.293
380.041
460.088
-30.5249
534.669
-736.111
-370.351
-12.5626
646.503
-746.156
99.6534
-192.863
140.483
52.38
-656.119
638.925
17.1933
225.689
-214.794
72.1462
179.142
-743.733
826.136
-329.958
325.105
4.85287
67.9814
-362.65
294.669
251.269
-207.084
-44.1859
526.105
-328.412
-197.693
9.71521
-346.287
336.572
-497.022
484.54
-75.5679
299.365
-223.797
-662.112
160.01
502.101
-356.251
-24.3908
653.727
6.04476
444.811
-21.2038
-182.513
33.3398
149.173
-21.7962
730.288
-708.492
-859.266
988.705
319.822
-151.386
-168.436
677.305
-775.085
97.78
424.972
347.132
706.234
59.7416
-765.976
818.106
81.8321
557.312
-534.07
-23.2418
1093.73
-1012.32
-81.4075
3.30829
-293.907
290.599
292.893
-4.22413
73.7653
140.032
214.566
-1.2746
196.18
-197.712
1.53135
141.227
150.223
-291.45
-303.105
283.035
20.0701
-167.519
-295.434
462.953
419.202
-549.411
-318.174
197.234
-191.042
-6.19246
191.959
1011.52
-578.02
-433.499
525.737
-109.085
-416.651
152.617
508.798
78.7171
478.595
18.8349
-696.428
714.479
-18.051
43.8753
-546.375
502.5
-94.5719
-245.711
340.283
-448.198
38.8988
409.299
-140.322
-335.895
476.217
779.989
-1.26388
24.2366
185.446
-379.548
194.102
175.516
-251.084
-920.874
849.677
71.1977
-293.978
305.467
-11.4891
673.631
-87.2947
-586.336
1047
-603.803
-443.201
195.529
-190.04
-5.48913
235.092
-118.858
-116.233
-420.745
417.855
2.88989
662.584
-30.9977
-631.586
-695.519
-0.909733
376.615
29.1011
-578.458
456.907
121.551
584.373
-577.999
-6.37395
-855.761
44.4058
811.355
856.375
33.198
-889.573
-424.325
284.003
-206.046
23.5328
-323.295
536.114
-212.82
-174.585
-51.5353
754.993
-793.049
-140.05
190.642
548.064
-178.153
-369.911
-123.444
-308.734
217.465
-218.059
0.594263
619.563
43.0214
683.365
-608.723
23.2681
-301.548
278.28
837.846
-876.515
38.669
-314.317
10.9521
957.494
-960.534
3.03981
43.104
221.873
-264.977
680.188
-33.6846
570.456
-592.331
21.8754
-829.153
853.087
192.004
-205.011
786.526
212.05
747.044
178.643
176.577
-355.22
-296.659
-6.71929
832.696
-79.7284
-752.968
585.794
-136.099
-449.695
249.172
-72.9041
81.0703
414.123
70.5459
-275.714
473.759
-503.801
30.042
141.694
-348.002
206.308
137.55
388.555
64.0393
862.141
653.128
-773.196
120.068
-22.4125
979.906
-263.211
-33.2252
296.436
-216.215
217.334
-1.11921
25.5928
160.219
48.1023
452.318
334.821
-342.859
-370.235
27.5305
-341.089
45.2748
838.334
-58.3447
60.9112
-237.73
176.819
-962.559
22.3551
-926.07
-36.4885
-486.044
58.2127
427.831
-736.119
905.173
-169.055
-223.889
-35.3674
259.256
-125.215
-76.4537
201.669
-138.775
-64.5015
203.276
-158.08
235.62
-77.54
853.465
418.01
-232.565
144.756
-12.0505
-567.614
-879.687
-41.1869
428.659
157.135
196.687
-519.982
200.787
-1107.12
906.338
22.6181
204.701
-227.32
-4.90338
-202.08
418.236
26.5746
89.1098
701.76
290.762
24.1184
-314.88
-475.5
593.79
728.838
72.76
-801.598
-779.707
-7.34388
802.294
-855.941
53.6469
307.493
-271.674
-35.8189
84.8796
234.942
850.864
-864.93
14.0663
978.825
-862.145
-116.68
939.265
-943.786
4.52138
-404.394
-174.064
-2.9734
-871.999
564.384
307.615
-180.582
160.975
19.6068
-245.043
386.271
139.779
91.2988
-231.077
757.49
260.499
-276.017
431.559
94.1773
783.684
-698.335
-85.3484
-52.4373
-123.578
-75.4288
199.007
-305.945
260.748
45.1973
862.713
-838.7
-21.2583
378.821
-357.563
-342.547
-9.86379
571.634
-583.139
11.5055
366.765
-327.203
-39.5614
-828.571
731.239
97.3325
-905.839
831.839
143.34
91.7512
-405.524
276.267
129.257
467.235
-453.568
-13.6675
620.991
-622.626
1.63484
518.019
-44.2592
-337.375
-129.711
467.086
22.9859
-286.197
-68.2555
-247.939
316.194
544.289
563.933
-1108.22
-900.863
849.221
51.6419
-0.478277
-404.451
418.184
-13.7335
431.343
-399.415
-31.9278
673.195
-848.345
175.149
711.682
-882.967
171.285
-502.052
-160.06
-450.047
78.406
371.641
303.691
-6.10589
-297.585
-327.815
189.04
475.645
83.7315
-719.729
-108.843
10.298
185.882
-299.841
301.432
-1.59094
52.0022
-355.733
303.731
489.379
40.0876
-529.467
-234.364
300.719
-66.355
-896.19
-19.638
915.828
-167.305
-60.85
228.155
6.0865
-848.856
842.769
804.704
-118.374
-686.33
312.905
143.401
-211.657
-874.871
-21.3193
808.708
40.9681
-2.1826
547.616
-195.542
-515.818
-11.5768
527.395
-801.989
913.792
-111.803
313.232
-245.25
-401.291
306.719
-29.9613
590.648
63.0792
382.968
-241.274
283.251
511.12
-12.9946
25.0499
341.715
-766.971
67.718
699.253
456.263
95.2283
-114.187
-51.1801
165.367
-851.802
-23.069
67.9045
332.361
-192.539
228.655
-36.1158
45.0078
-279.371
-269.341
282.799
-13.4587
-17.842
25.0555
-512.383
487.328
-611.546
-134.61
-20.8115
300.49
-279.678
-331.524
457.647
599.384
447.62
-1102.78
430.49
672.293
328.96
0.282073
-329.242
-209.234
-188.818
398.052
-524.275
554.313
-661.254
-19.1576
680.411
99.3485
85.2432
-184.592
-44.2538
799.247
839.294
-862.681
23.3867
807.423
-154.295
36.1324
-603.561
-323.452
-22.8344
556.787
57.7396
-614.527
437.885
22.2027
-348.778
391.559
-42.7812
-853.878
-3.72953
857.608
-27.82
-823.982
300.151
-280.437
-19.7138
625.214
-4.22307
580.544
-414.851
-165.693
-214.094
287.031
-72.9368
-83.9875
-286.247
-419.483
-45.5407
895.847
-184.166
-825.217
89.0986
-629.211
17.6651
-538.501
48.9388
489.562
820.547
-39.6243
-780.923
-271.969
113.888
2.01894
-356.179
354.16
862.067
-188.871
306.561
-2.86957
636.716
-66.2604
494.231
-4.85153
801.348
-712.238
-1045.14
-57.6422
444.602
22.6328
536.089
38.4937
725.337
-715.375
796.394
-38.6339
-757.76
191.476
-225.43
273.697
-12.9494
-117.833
205.632
-196.948
474.905
15.3958
-490.301
575.824
-95.7831
-480.041
-458.632
421.539
37.0927
128.844
672.504
7.19446
-68.0404
-781.398
849.438
72.099
-673.513
601.414
224.615
-302.334
77.7191
-726.765
658.725
91.7085
712.996
-504.411
1048.7
233.862
-172.951
-277.955
-187.236
233.972
-46.7359
204.774
-262.701
57.9277
-179.132
318.911
-8.13858
-334.408
-51.0389
5.03487
-410.036
405.001
-47.5106
-161.506
-194.659
-28.5726
366.106
-337.533
-870.857
944.462
-73.6049
45.4818
-527.996
482.515
48.2459
-264.461
-755.74
106.041
649.698
346.397
-240.752
819.407
1.1403
-8.93358
219.142
-210.209
441.036
139.508
-120.367
-329.68
816.162
-201.651
-95.2227
-914.128
607.489
-348.08
133.212
51.8783
657.147
-581.369
494.835
-14.1059
341.258
-35.116
338.679
-421.027
82.3488
222.879
-265.216
42.3373
49.9109
247.092
-297.003
335.775
-503.294
-5.3835
761.956
-806.21
537.502
-62.5969
-107.18
738.702
-631.522
-268.689
302.582
-33.8924
-69.4772
294.092
201.861
-189.352
-280.132
11.4423
-1065.54
591.279
474.266
-35.8446
-77.2597
173.638
-308.561
294.129
14.4318
-675.999
692.53
267.674
-272.454
4.77909
-480.477
185.044
-506.492
-559.052
237.55
-277.923
847.159
-946.589
99.4305
-343.253
19.8006
487.63
-626.378
138.748
-2.68908
811.398
244.152
-276.445
32.293
-298.171
-573.828
-37.2204
292.85
-25.1759
353.103
-116.788
-236.315
-20.4135
-847.171
867.585
-869.296
465.352
403.945
-55.6631
735.757
-459.476
39.9928
-154.09
-132.887
286.977
879.511
-829.579
-49.932
391.219
-323.314
797.488
4.80606
107.192
82.1238
-189.316
-580.553
1024.4
-443.844
143.871
-191.973
48.1017
-759.005
-144.973
903.978
132.293
220.81
853.503
-31.3798
813.47
-736.741
501.99
-420.92
7.22657
-245.827
62.2781
152.974
-215.252
306.422
241.195
-21.8877
-1098.2
619.197
479.003
8.50353
891.714
-60.5405
-831.173
-430.515
622.352
-191.836
57.1332
756.337
21.9369
-537.755
-590.505
-18.2169
608.722
426.724
145.147
-571.871
-264.763
-522.319
278.494
62.7638
-176.417
-75.2646
-405.922
352.449
53.4726
-781.085
313.826
200.155
-261.108
60.9529
219.63
-255.838
36.2084
429.315
-424.28
730.985
53.0276
-784.013
-202.042
45.0649
825.238
20.6228
-845.861
-366.266
23.0896
343.176
118.639
860.186
-408.17
453.084
411.075
-72.3969
-954.563
99.7319
854.831
789.123
102.591
-30.1649
253.043
50.2399
381.103
904.525
134.556
24.5682
-484.044
28.789
-827.099
798.31
699.942
-770.302
70.3602
636.345
465.965
769.006
-56.0313
-712.974
193.208
-49.3366
76.1491
339.255
-415.404
-735.26
792.393
278.613
175.093
-248.308
167.879
80.4289
-111.228
-426.778
538.006
-31.6721
-213.476
1004.42
-573.93
58.4859
-282.374
202.064
-210.998
-104.748
-153.47
30.7574
820.106
-169.445
505.22
-604.678
761.038
-156.36
689.29
-711.086
-396.247
384.671
-442.936
-179.69
39.3378
348.666
-13.9271
-334.739
-46.2916
808.248
-505.251
-623.37
1128.62
287.461
-239.6
212.847
5.45918
196.402
-230.451
138.989
-885.346
909.013
-23.6671
-277.035
255.072
21.963
73.1465
710.537
3.36296
765.643
635.191
-15.6289
-15.0037
-511.314
471.703
39.6111
933.093
17.1511
-950.245
-315.657
-50.6088
0.0212857
-237.765
801.39
-70.4054
529.01
-623.073
94.0629
-762.109
-84.6483
32.555
274.938
893.966
10.5588
-490.402
440.556
49.8459
-950.461
-94.6797
44.7258
-397.38
352.654
-201.839
233.207
-31.3684
249.018
-44.2443
-39.5481
1050.29
-313.214
-737.077
579.551
-50.541
57.6187
-262.211
-67.3147
-697.81
786.211
-88.4007
-60.4651
-16.653
236.283
504.623
-5.77434
92.787
-870.616
-88.5723
210.353
-121.781
-198.57
214.483
-15.9133
-681.782
570.553
-453.846
478.902
343.267
47.952
-459.947
424.509
35.4378
557.612
453.908
498.241
-459.815
-38.4262
487.664
-311.53
-176.134
-202.924
47.9185
349.717
-21.0684
-328.648
-237.15
49.9144
-298.142
275.088
-219.048
-636.713
-691.625
-81.5714
258.737
-58.5827
665.21
196.857
7.00601
224.623
816.859
-84.0397
-732.819
328.459
-142.003
646.898
-504.895
255.203
-290.571
-95.7972
522.521
-751.027
7.2935
-94.2106
-98.6523
500.009
-96.8677
789.498
-692.63
-195.705
223.506
-27.8006
-35.7574
-241.278
829.587
-737.878
220.009
-429.847
-410.491
840.338
864.906
-199.696
-44.8113
794.791
-749.979
597.317
-6.6699
17.638
-608.143
279.359
143.391
-422.75
-403.883
480.032
-23.6293
-315.794
339.423
-616.562
65.2497
551.312
-145.739
524.857
-379.118
-481.554
408.604
-482.58
73.9752
104.815
-174.97
70.1546
-169.604
348.247
-178.755
-191.596
733.715
-33.7726
102.246
581.119
-610.995
648.78
-37.7847
269.214
-290.026
-810.814
-51.8673
96.9275
-432.822
590.118
460.172
-615.756
172.82
420.941
-850.788
398.255
-681.863
28.6478
653.215
-219.674
260.415
-40.7409
-816.301
886.698
-70.3968
-47.9393
-432.096
480.036
1005.36
-405.633
-599.728
-68.1511
-787.79
4.79624
295.355
-950.458
207.43
743.029
-857.694
-92.7645
-171.302
-9.27953
-777.77
731.479
-135.099
-297.92
433.019
-11.2912
-268.346
279.638
160.231
647.192
244.122
156.754
-400.876
-902.866
154.569
748.296
541.13
-580.891
39.7605
604.53
58.5872
-663.118
-44.9633
673.63
-639.895
-33.735
352.627
-23.6674
-31.6213
231.342
-199.721
608.443
65.1867
13.2848
-792.992
721.533
-777.565
-181.422
243.701
326.314
161.35
144.777
-323.532
202.155
-205.645
3.48958
339.764
-198.62
-141.143
592.18
43.0118
-748.396
801.335
-52.9395
-419.486
-95.4847
514.971
-9.91429
-289.927
264.325
55.3107
-319.636
246.883
-98.0518
-148.831
418.213
-466.152
-61.7146
-740.275
-410.529
108.712
142.558
521.759
-452.474
-69.285
-230.876
253.494
-199.691
192.412
7.27857
31.9566
-242.827
210.871
-321.859
378.598
-56.7381
215.651
-15.7641
-199.887
450.459
554.902
-259.23
555.432
-473.739
138.144
-203.463
65.3191
-197.999
-16.76
214.759
701.262
-96.7321
239.018
-166.872
-357.311
273.736
83.5753
-426.13
-27.2338
453.364
-351.899
448.826
308.713
-323.448
14.7348
-15.5876
29.8764
472.114
462.671
35.5702
45.3294
-471.46
202.046
-5.12581
-336.49
-6.76252
-368.634
297.8
70.8331
341.176
-62.6819
674.833
221.015
-239.778
271.735
-287.032
306.209
110.262
656.969
-767.231
-737.313
-25.3111
762.624
23.5527
179.091
16.7742
-338.634
-690.646
621.077
69.5691
120.475
-189.129
168.419
20.7095
431.61
-152.251
-242.174
-181.729
423.903
-163.678
-347.636
218.826
-16.6711
-274.996
120.906
94.4236
-182.996
-1009.53
696.316
-347.262
347.262
851.473
242.257
-35.2083
-509.089
-500.442
208.911
326.897
527.996
42.5357
544.878
-50.6472
275.905
-255.582
-20.323
-629.348
662.177
-32.8295
-50.3145
-532.084
-47.7511
-638.319
726.645
-88.3254
83.9324
-493.081
-352.852
539.371
5.50636
534.802
25.563
-560.365
748.707
-647.052
7.15701
-107.447
-80.5078
187.954
-396.761
98.6197
310.445
-32.2519
-278.193
-145.907
-60.1392
-300.703
288.373
12.3304
-301.627
87.5327
870.344
-195.512
-336.549
45.6773
768.781
-1.93069
-766.85
584.15
-658.924
74.7738
-922.862
830.382
92.4806
-22.9204
-638.333
110.228
296.541
-22.4092
-260.68
283.09
-795.898
31.9903
-202.593
-289.11
266.701
-466.034
511.516
-250.068
271.243
-21.1759
-300.941
300.588
0.353143
-812.474
705.295
995.973
-148.814
-174.056
302.918
-259.814
361.096
-184.519
424.202
-315.436
-108.765
286.327
54.8489
816.598
-88.0293
-728.568
184.495
-681.517
-758.461
676.223
82.2382
5.85725
-617.111
624.632
-7.52084
62.4349
176.583
-101.229
520.43
-268.834
303.877
-35.0431
378.97
-458.092
79.1219
-608.576
649.131
-40.5549
585.932
43.9474
-629.879
247.807
-219.699
-28.1081
556.853
-25.1995
-531.653
204.988
-95.7337
-109.255
-106.148
-44.7469
150.895
957.671
-948.402
-9.26952
-575.491
-388.317
-45.907
-758.045
803.952
-897.633
834.365
-595.207
366.493
228.714
605.058
-623.275
-12.8895
675.243
-662.354
46.3381
122.734
-169.072
-71.2291
-284.504
-855.984
-66.8784
15.4656
365.549
334.055
-739.688
205.572
-3.52535
-227.015
227.015
398.356
-117.589
-280.767
-911.317
25.9714
-2.8622
-24.0387
-479.737
503.776
-753.776
-80.5681
486.81
-406.242
-252.387
-408.652
431.721
-10.1818
-52.6856
257.387
154.512
185.252
-546.317
396.809
-170.502
414.624
338.67
-52.3434
763.137
-709.981
-283.723
-6.36489
270.36
-946.9
-3.56117
5.61421
927.479
532.631
-448.698
-842.713
575.529
267.184
7.85267
257.702
-265.554
350.299
-8.8727
-341.426
-461.542
31.0262
-835.414
749.14
86.2734
-126.752
-188.905
217.023
37.9219
-254.945
212.86
125.811
-800.988
17.7743
-584.229
332.179
252.051
42.2735
250.071
361.022
-324.618
-36.4035
-392.271
402.941
-10.6703
847.409
-513.354
-454.924
312.921
-320.609
190.468
130.141
423.374
-720.803
568.35
-27.2195
811.241
-807.878
81.6207
123.368
-829.812
813.397
16.4141
-794.965
46.5691
-472.164
-527.848
1042.66
-186.281
931.091
-835.185
-95.9057
-521.121
-463.313
984.434
-48.2966
-254.808
46.4915
224.873
-230.731
5.85843
-21.8372
-56.0627
733.368
469.787
-35.9133
-433.874
-354.225
-208.109
24.1472
-71.5972
-268.677
-159.765
429.685
-269.92
-927.104
927.104
92.5926
-794.754
467.643
-510.614
69.1119
441.502
-211.201
-194.323
175.836
-168.795
-377.522
-557.07
388.275
606.768
56.4222
190.461
433.271
-927.513
494.242
-33.8792
324.641
-224.254
-261.79
-213.91
424.877
-98.563
-180.271
-140.338
-65.4786
-835.384
452.425
-518.003
65.5778
17.7543
-700.289
781.959
-81.6705
415.718
-420.125
4.40723
245.595
-567.165
529.705
37.4591
76.3783
131.166
-207.544
193.727
-225.349
378.941
-708.782
329.841
110.537
758.33
154.052
244.303
-68.5782
-492.105
468.067
292.134
-306.363
14.2291
416.353
-37.3837
353.774
-382.346
-21.6166
-367.478
389.094
-36.2782
-279.447
325.765
10.7364
-336.501
-431.857
272.091
-387.47
38.9026
631.15
-749.525
-409.707
531.505
-312.696
-91.755
976.642
-866.105
-492.766
-312.29
805.055
292.877
36.9459
290.463
-327.409
-436.025
148.245
-274.997
-51.6794
450.727
-563.764
113.037
47.4189
613.62
-197.042
89.5953
335.118
-292.845
708.742
-329.801
270.787
-175.753
23.7462
364.66
-388.406
-27.7931
-294.019
-7.52887
-253.957
250.03
3.92616
2.08185
559.436
-537.499
45.7207
-891.586
113.3
800.23
-2.7424
328.891
-116.031
525.491
328.702
-854.193
598.391
239.943
674.879
-771.746
-754.346
105.201
649.145
284.104
60.4781
-344.583
184.821
-177.513
-7.30752
30.6558
274.623
572.934
-205.956
52.9675
152.989
-156.724
-607.021
763.746
-338.104
363.027
-24.9235
-267.999
290.747
-22.7474
-147.889
-174.55
-254.989
209.644
45.345
920.098
-920.098
-87.2011
727.022
-639.821
293.715
-208.835
344.425
-68.1582
-658.045
189.041
27.2339
-216.275
34.0259
-589.383
555.357
35.08
-257.223
222.143
908.418
-914.085
5.66678
301.205
-674.594
373.389
356.885
-312.16
51.2474
309.774
-350.742
876.233
556.942
-106.215
-72.4616
-241.77
-399.792
320.455
79.3372
222.533
-345.296
331.147
-500.113
168.965
-258.264
38.5895
-873.301
-73.5991
33.0393
-733.328
330.147
-180.766
796.378
-773.253
-23.125
431.03
55.0738
-486.104
-685.515
610.633
74.8822
-259.415
213.694
45.721
319.906
-27.7721
-426.073
-254.828
880.984
-836.658
-44.3266
-357.558
658.763
126.816
-546.302
-864.931
11.0533
-54.3371
-604.104
658.441
44.6536
-140.31
-107.998
-920.442
390.75
529.692
189.458
2.95448
449.401
-33.6829
543.45
272.275
-266.262
-6.01252
-333.937
-5.89325
339.83
-558.416
450.453
3.06246
-221.416
218.354
230.072
-41.0312
-99.3657
365.173
-265.808
-354.391
5.61298
434.343
-9.83356
58.0956
-813.106
755.01
-664.269
664.269
71.0022
184.201
-92.1748
-505.926
598.101
-854.488
938.115
-83.6265
741.136
55.2415
-14.1237
-834.56
848.683
323.628
-340.849
17.2205
324.631
13.6599
-338.291
584.65
-636.813
52.1627
46.6821
313.858
-360.54
-218.684
-119.21
337.894
193.712
-8.89122
107.442
-710.962
603.519
-760.027
267.262
348.707
-311.761
793.73
59.7729
-77.3143
-433.3
341.213
-390.758
-681.715
102.486
579.229
320.849
-282.75
-38.0993
-530.687
615.773
-85.0858
-81.7562
-362.797
444.553
407.184
-382.134
-618.502
-301.94
614.094
-720.901
106.806
-408.183
-434.53
837.863
-39.716
-645.799
115.068
470.322
-585.391
563.553
-644.735
81.1823
40.3518
-251.369
11.111
-692.974
-319.45
321.469
-1.86898
570.479
-692.699
122.22
-344.486
-430.599
0.490657
-685.348
697.962
-12.6139
763.062
-164.671
645.393
-102.759
-542.634
221.733
300.026
287.55
-296.36
8.80988
807.724
-935.868
128.144
-656.408
-97.9382
-306.129
37.2949
-330.933
73.4048
257.528
-55.9736
640.624
94.9812
-264.709
169.728
357.251
-335.327
-21.9236
-353.796
-230.433
-18.8104
204.238
-31.6541
-170.433
228.903
142.746
-371.65
-271.077
319.008
-47.9308
590.009
-682.184
22.7645
287.68
-281.248
-49.6851
-295.91
-299.297
-711.315
540.727
170.589
-111.8
-149.893
-159.446
66.0901
-577.744
536.281
41.4624
576.954
-1098.07
-24.3824
-1017.47
-140.836
370.463
54.4145
-22.2308
-51.376
-759.746
128.224
854.514
-848.428
617.368
-76.6415
1.85936
589.229
-591.089
-285.97
-163.065
449.035
-51.3194
-208.095
9.5669
192.79
-211.069
18.2787
-1000.4
248.583
448.811
-117.664
19.6306
-627.928
608.297
298.799
-364.838
28.6474
336.191
62.6193
573.516
-636.135
-102.143
772.342
-670.199
-669.543
-195.387
-731.976
37.8867
694.089
-31.8193
574.663
-542.843
925.814
-917.167
-8.64766
566.193
-620.53
-611.183
-23.5603
634.744
-395.066
123.989
271.415
-270.072
-1.34305
801.509
-772.72
-95.8813
730.798
-634.917
458.369
13.3341
-433.655
-669.751
604.133
65.6171
399.426
-92.1389
-563.98
-48.1928
-10.8041
-399.232
-34.3776
226.716
-192.338
21.297
327.41
-359.813
363.827
-4.0139
747.559
-793.466
105.375
153.88
212.211
-223.791
11.5807
684.159
-775.254
91.0952
-329.403
-687.88
-9.92994
795.495
74.8493
290.789
120.286
812.395
-16.9003
-30.213
-1031.53
170.939
3.93546
21.6271
-568.002
153.586
-107.248
-1079.57
-255.389
258.451
72.8873
220.828
-107.529
-467.105
574.634
-2.42777
-477.446
479.874
838.917
-31.1929
570.031
75.3625
-42.8959
-219.544
262.44
747.145
-791.957
-156.396
385.3
-408.583
445.26
-36.6775
-679.319
723.092
-43.7726
292.363
-338.312
13.572
392.035
-127.531
-264.505
177.281
-511.343
465.947
45.3965
4.31891
-460.507
463.328
-2.82121
613.663
-596.025
38.5113
-166.462
597.492
-292.932
57.4431
440.732
40.8658
607.852
-648.718
-73.7731
-148.431
206.683
7.01075
32.1285
-389.402
24.5643
-414.312
5.72873
249.976
-251.918
1.94218
711.225
-682.577
-484.22
83.4272
400.793
-42.2225
626.373
-30.6284
-212.199
914.261
-141.754
-772.507
518.883
537.488
-1056.37
-297.742
-13.0953
289.917
4.21235
10.2772
272.758
-693.331
-4.43841
697.77
592.222
-748.947
-215.1
190.898
24.2016
-531.347
-18.8144
-654.699
22.2102
115.934
-136.945
-428.141
-108.205
203.186
19.1836
-639.011
619.827
-38.4334
-497.86
536.294
-260.681
307.364
-69.2586
626.046
-730.271
754.424
-24.1533
217.68
-482.443
256.917
-272.883
15.9658
4.23114
-839.124
26.6497
244.996
-463.68
915.491
-925.83
10.3392
637.312
13.1218
-650.434
-51.5513
-540.78
-807.255
840.453
133.08
-208.508
897.67
-78.2635
238.832
-13.9592
-60.4292
-716.008
776.437
-88.5795
-596.768
-23.9276
558.73
-677.884
21.4762
205.094
-236.47
31.3759
-234.719
1.41782
233.301
-557.935
533.502
24.4332
-185.664
79.5157
55.162
91.6638
-146.826
-880.256
314.468
19.058
-333.526
54.9333
637.899
-692.833
-339.169
370.083
-30.9137
-655.955
-21.9288
-665.757
776.019
-896.818
127.668
769.15
-144.587
-168.416
-444.549
63.5515
-458.13
-617.856
262.914
-2.41556
-288.113
289.566
-1.45277
166.001
-89.623
-421.936
393.333
28.6038
-954.895
972.046
-307.001
106.83
200.172
110.578
43.0077
524.272
862.746
-883.16
276.59
-41.648
374.174
-519.913
-789.658
811.525
-21.8665
-348.394
-189.601
537.995
130.859
-170.799
39.9408
425.688
-526.917
751.675
-686.069
-65.6061
-261.104
-36.6386
342.091
-77.7656
314.036
-291.271
330.144
-652.029
-17.7212
5.58938
633.336
-358.01
117.259
20.6433
-891.5
548.932
-388.922
608.141
368.501
423.274
8.44689
744.667
-805.096
-39.6177
-18.0787
827.284
70.3861
421.066
-499.76
78.6934
231.671
-183.651
-48.0203
-192.598
222.64
-30.042
-7.10935
341.15
-334.04
-617.961
658.826
421.98
252.113
-215.504
-36.6087
362.948
516.563
312.631
-333.7
715.924
100.674
80.4608
-603.553
523.092
639.678
-35.5448
32.7317
-930.608
114.071
816.537
201.718
-262.568
-249.569
-793.264
732.27
60.9935
5.18411
814.638
-819.822
932.831
-932.831
-377.441
17.628
602.82
36.858
-109.105
-31.8552
-190.548
222.403
437.465
27.7151
-465.18
-434.016
20.1653
413.851
187.887
972.172
-453.289
-225.085
37.8119
187.273
-627.415
630.724
-3.3081
443.504
-472.46
28.9555
-430.596
-3.41969
43.6902
-769.098
725.408
-636.296
-63.4186
-548.9
518.42
30.48
-384.94
300.952
31.0535
-244.07
213.016
-166.573
-140.428
-28.2298
229.601
-22.9182
43.8994
312.086
-287.967
-71.4373
791.603
365.808
-51.3399
-769.644
32.3316
-890.022
814.437
75.5858
123.32
287.414
366.382
174.571
-756.665
858.983
328.617
193.023
-521.64
-162.65
594.439
-644.016
49.5765
488.379
54.9747
-543.354
643.856
-348.183
-295.673
-485.059
-116.373
-782.624
680.481
25.5752
-687.479
661.903
-711.271
108.498
602.774
-765.54
15.6617
40.6089
508.515
-87.4487
-523.809
354.364
561.563
-593.383
-35.3681
-65.9159
226.626
-160.71
58.0946
-696.414
-231.747
-230.122
164.206
-28.5874
278.486
-109.907
-168.579
170.281
-6.78621
-648.162
715.88
-38.7156
207.405
-168.689
869.864
-629.858
12.7468
141.529
193.589
0.999214
397.451
-398.45
-221.437
-202.617
424.054
180.927
763.535
379.182
-355.435
-843.079
7.66515
626.395
-609.86
-1.22193
-815.836
817.058
589.532
16.0293
-605.562
850.413
46.6319
-897.045
308.486
-7.89771
121.976
-407.946
425.629
8.71368
-254.89
334.598
-79.7084
190.654
381.228
-90.4394
610.923
-54.6706
-556.253
-757.648
784.488
-26.8407
12.0882
654.107
-666.196
-646.45
115.764
-6.06037
-442.231
609.192
34.3313
322.92
-29.76
186.539
-87.191
-335.589
1.65226
95.9507
742.966
3.06433
-276.803
273.738
-428.833
-498.68
-57.4354
-757.764
815.2
263.249
-41.3764
190.244
-267.571
77.3276
185.696
-94.0792
-220.009
-516.876
-581.323
-792.105
-18.7085
-163.829
-815.751
776.441
39.3107
-34.36
469.516
-435.156
59.7812
821.334
-881.115
194.777
-139.615
775.617
25.7179
-229.181
197.326
19.9393
-305.472
285.532
575.711
-573.851
-649.898
123.332
526.566
-575.209
590.079
-14.8705
30.072
257.478
-665.249
-441.876
608.535
45.7948
-654.33
-721.939
606.75
-679.205
72.4545
-141.156
-64.8004
449.935
-484.251
-846.858
852.042
107.259
-307.942
-588.876
-642.341
593.241
49.1004
178.832
-74.0165
-43.2798
461.374
182.481
-573.348
60.9646
514.323
-526.902
12.5788
73.2832
-717.65
644.367
266.331
-16.3551
-310.716
165.495
145.221
-574.96
600.523
-134.575
480.747
-346.172
681.401
-86.9611
0.167591
-316.916
316.748
-447.013
-442.744
889.757
-146.692
254.719
-108.027
-102.707
-579.008
-579.756
425.546
154.21
405.888
-41.1578
-364.73