/*--------------------------------*- C++ -*----------------------------------*\
  =========                 |
  \\      /  F ield         | OpenFOAM: The Open Source CFD Toolbox
   \\    /   O peration     | Website:  https://openfoam.org
    \\  /    A nd           | Version:  7
     \\/     M anipulation  |
\*---------------------------------------------------------------------------*/
FoamFile
{
    version     2.0;
    format      ascii;
    class       surfaceScalarField;
    location    "38.5";
    object      phi;
}
// * * * * * * * * * * * * * * * * * * * * * * * * * * * * * * * * * * * * * //

dimensions      [0 3 -1 0 0 0 0];

internalField   nonuniform List<scalar> 
11512
(
138.812
-509.031
370.219
-779.609
5.30383
774.306
422.744
-371.562
-51.1821
660.048
252.675
-912.723
1510.16
-1069.39
-440.777
1216.25
-1527.09
310.841
-34.2353
468.923
-434.688
169.278
-840.309
671.031
961.908
-1610.7
648.797
-1772.21
1680.77
91.445
-542.947
1759.2
-1142.68
1936.39
-793.713
604.6
181.438
-786.038
-25.8796
-1323.72
1349.6
223.867
-1996.08
1021.83
-387.207
-634.623
-195.518
334.329
481.765
190.638
-672.403
1154.11
-1316.41
162.307
-335.571
379.977
-44.4066
1015.1
-1329.94
314.843
1221.76
800.391
-2022.15
75.6677
-1652.19
1576.52
-499.058
-1154.68
1653.74
471.558
181.968
-653.526
-182.034
-326.997
497.398
1012.77
1659.8
-1819.25
159.456
-98.7053
-1688.01
1786.72
-1561.42
658.739
902.684
-313.404
652.359
-338.956
-192.038
-125.188
317.226
1294.49
-1218.82
355.388
-1407.16
1051.77
-1754.23
1754.23
100.024
1544.26
-1644.28
-1086.18
-475.239
649.085
-683.32
-389.138
942.266
-553.128
1331.68
-1317.1
-14.5855
-1100.35
711.211
620.867
400.963
-419.776
-12.5355
432.312
-462.383
808.362
-345.979
-1618.32
1618.32
1253.52
-1437.83
184.308
-489.44
1711.2
1252.31
-310.044
1660.7
-1161.19
-499.506
54.461
-390.032
2068.31
-1137.44
-930.862
1827.08
-167.282
449.218
156.103
-605.321
-476.239
982.333
-506.094
-1180.42
1280.44
-565.926
968.899
-402.973
395.808
758.298
660.107
-490.829
-438.421
587.505
-149.084
1190.51
-835.123
2308.24
-1080.71
-1227.54
1165.03
-2012.57
847.537
-1614.24
1588.36
440.453
-1583.13
-758.632
1250.17
-491.534
-670.426
357.022
1661.41
-699.498
-1106.93
-870.904
1977.84
703.707
-390.72
-312.988
690.97
561.341
-258.219
1511.74
93.6216
-308.001
214.38
-284.682
756.24
-332.4
557.721
-225.321
-324.323
806.088
-320.756
-136.736
457.492
318.066
104.678
1474.65
-459.554
-1005.28
500.084
505.194
259.055
101.079
-360.134
945.98
-341.38
-1704.99
630.178
1074.81
22.5829
-868.798
846.215
-273.468
587.227
-313.759
158.945
-1093.92
934.972
1050.33
-1065.98
15.6532
373.168
516.213
-889.382
-245.253
694.471
-1102.66
-482.834
1585.5
-676.373
949.005
-272.631
1351.76
-1450.46
-662.725
295.689
367.036
-470.213
-1011.45
1481.67
-535.311
-798.292
1333.6
574.777
-994.639
419.861
-260.573
-313.281
573.854
399.047
-305.426
-1049.45
573.21
955.636
-796.691
-110.426
943.539
-833.112
-198.243
405.674
-207.432
-638.984
-366.294
-386.735
961.513
1856.35
-1856.35
-482.878
-179.847
-944.812
1570.86
-626.05
463.03
-899.261
436.231
-921.511
355.585
-941.901
-1058.08
-1503.08
342.484
1160.6
-266.193
926.241
-339.4
634.684
-295.284
-1941.89
999.992
-1153.3
-349.777
571.55
-1516.36
1728.5
-1726.12
-2.37707
199.607
-622.078
422.47
-1473.68
975.911
497.765
273.272
226.03
-499.302
303.097
-635.497
230.214
-403.176
172.961
2017.63
-872.248
-1145.38
-559.024
139.248
614.011
842.543
-1456.55
-182.472
412.687
431.918
875.726
-1307.64
-901.614
386.294
515.32
-1052.63
1448.44
-1068.16
309.53
744.895
-92.5351
576.089
-294.478
-281.611
1030.22
-530.138
593.503
-1403.55
810.045
-1341.99
239.326
-538.212
264.744
-1192.27
926.075
1945.42
-986.897
-958.528
276.796
1579.55
-2101.27
899.619
1201.65
349.96
-34.7524
-315.208
-222.499
476.601
-254.102
-89.8847
-396.583
486.468
-457.083
136.327
335.222
-132.178
595.208
435.479
374.026
-809.505
-2043.91
1128.61
915.304
462.143
-523.398
61.2557
215.284
-355.315
140.031
1004.37
1013.25
1798.15
-253.898
756.648
-460.959
795.003
-1388.61
593.607
367.985
335.723
1066.65
-1044.06
-486.111
-258.365
744.477
464.868
-124.392
-340.476
794.497
-613.059
545.278
-735.467
190.189
503.332
1157.37
-1240.48
705.168
1030.78
-1529.84
-3.11163
-1439.42
1442.53
328.303
821.789
-1150.09
621.518
269.889
-891.407
-2270.42
1152.98
1117.44
-1098.84
-1171.58
175.046
370.232
959.258
-630.955
877.728
-897.554
19.8252
-2099.39
992.463
-214.879
-184.825
399.704
-42.1727
1770.67
-847.206
67.5967
-1032.99
-1068.29
-226.914
442.198
-700.038
217.16
-291.648
-425.224
716.871
1103.92
-1574.13
782.399
-1374.1
591.701
698.549
-445.874
1947.81
-1444.48
-378.28
-1375.95
60.6853
408.238
-540.163
545.467
34.2868
-593.606
559.319
568.141
-294.869
-596.665
273.449
323.216
789.847
-354.368
35.3634
314.597
1188.47
-1191.58
159.92
239.128
396.267
-687.915
617.946
-1004.68
-2026.79
2026.79
-275.556
-445.35
720.906
698.615
405.831
-1104.45
579.971
164.924
421.681
368.166
-2199.77
1328.86
-925.505
-680.797
1606.3
-474.177
-718.09
-249.405
558.832
-309.427
839
-221.173
-617.827
-466.052
665.659
361.683
-701.083
-384.48
-132.791
517.271
-1340.2
-479.052
654.172
-1128.35
-374.133
-1244.18
844.366
1463.88
305.406
-915.48
610.074
966.099
-345.232
1391.11
-797.607
438.897
-278.977
-321.643
-881.664
586.806
294.858
-352.888
-528.776
320.877
-410.761
-186.565
-159.641
346.206
-392.832
1091.45
433.131
-242.493
-380.715
1367.45
-173.511
-1193.94
-486.634
310.673
175.961
220.937
275.47
-496.407
-4.66491
-730.802
592.218
-1729.1
1136.89
1487.05
-873.038
-1048.24
-425.441
-1055.35
574.87
480.48
1394.97
-419.062
928.301
-1411.14
-175.64
-181.418
357.058
-467.14
577.463
-1630.09
427.833
903.852
303.427
297.944
-601.371
568.026
1186.2
1102.07
-708.404
-393.667
388.895
-201.035
-187.86
-1419.41
447.192
736.133
-1183.32
1473.17
-544.868
-484.522
944.42
-459.898
426.167
1186.13
-1612.3
47.4402
-723.813
-155.284
414.339
193.939
-385.977
542.617
487.605
-592.115
37.964
554.151
1024.5
-1307.63
283.13
673.702
-252.021
468.449
-1447.19
978.737
390.72
1689.49
-524.458
894.2
1051.22
-657.674
-1684.97
759.467
563.535
414.057
-977.592
457.954
79.1403
1750.23
-1829.37
1443.58
-379.491
-1064.09
1699.24
-1741.42
-364.38
-545.551
732.092
-186.54
-502.59
170.096
294.772
-373.12
-1225.9
214.446
-764.772
-638.776
-626.677
995.791
-369.114
-650.535
640.307
10.2278
654.711
-923.294
268.583
-706.244
348.927
357.317
-646.725
-703.021
345.416
357.605
-932.052
1400.5
-427.958
894.513
-466.556
-2205.32
5.55601
166.815
-528.837
362.023
144.719
1222.73
-107.82
-592.218
150.894
-589.315
1486.91
-704.511
395.098
-466.216
71.1182
-559.887
559.887
1222.94
395.381
1778.38
-1227.59
590.322
637.269
845.957
-51.4596
1292.86
775.442
-541.266
1336.27
293.568
293.659
266.227
-811.779
251.174
-713.557
223.866
-435.321
211.455
-257.244
590.395
-333.151
111.453
-368.697
-590.991
-564.72
1155.71
-379.946
560.377
-180.431
-1192.14
2032.03
-839.883
1287.8
-328.54
-395.298
134.725
-1982.24
827.554
1550.89
-851.908
-698.978
1987.06
-877.503
-1109.56
714.636
573.162
-239.572
463.438
-673.392
1160.16
-486.772
-768.976
1200.89
552.045
924.51
-1726.08
801.568
-555.281
-85.6062
640.887
313.649
262.44
411.46
-86.1418
-325.319
896.167
-83.5837
-812.583
941.417
-580.791
-360.625
1576.13
-472.209
895.894
-1631
735.104
1068.43
879.375
745.991
-433.869
-312.122
-1058.78
-258.315
574.857
573.725
-1148.58
-470.943
530.273
-59.3301
571.477
-333.087
-238.39
-990.627
562.67
593.732
893.317
-441.744
1096.46
1429.14
-791.173
-637.965
387.437
-922.165
534.728
-1050.87
411.888
576.481
-1061
481.811
-557.708
75.8968
492.889
315.473
-511.037
-48.85
-793.724
-882.503
1676.23
178.865
210.029
-237.982
413.028
-29.5913
-576.175
605.766
502.414
873.038
-1375.45
-500.029
313.464
984.983
-88.8162
835.113
-1064.06
228.948
410.668
844.652
-1385.92
-464.929
838.955
1983.19
-1288.9
-694.288
269.382
608.347
255.398
794.931
100.549
-984.213
883.664
1673.7
-1088.9
-584.809
-138.105
1888.33
-1866.15
-160.642
482.176
-620.319
138.143
-1010.81
528.646
482.167
-1730.46
538.315
-955.328
844.902
393.079
194.426
577.932
-272.526
-415.77
706.395
259.704
45.6697
722.841
-768.51
-1127.75
-901.157
2028.91
-546.175
1126.09
-579.913
-487.766
-320.116
105.238
-1658.56
864.834
-842.991
-621.01
1464
-328.496
-294.214
622.71
350.175
-660.769
310.594
260.935
-615.303
345.629
194.818
-540.447
370.997
-620.402
631.323
-281.148
315.556
-452.292
682.088
419.506
-198.569
-410.725
-292.296
1230.07
-2.13925
-1227.93
1038.26
-420.313
557.984
410.915
-1782.29
869.802
912.483
487.4
564.13
-1051.53
-531.397
202.901
-264.98
1182.39
-917.413
-1590.79
1212.51
504.582
-1095.57
386.193
8.90451
432.654
320.203
-752.857
366.423
-611.676
-39.7653
760.717
-720.952
-524.553
794.442
401.253
320.314
525.643
650.145
108.056
-423.792
315.736
1057.86
-644.405
-413.458
494.057
-1664.27
1170.21
-1140.25
1753.21
-612.965
1715.9
-1123.68
-333.58
607.029
-1182.61
1283.16
424.451
-801.444
1617.17
-815.731
-286.377
-200.256
-904.493
1473.36
1817.37
-610.486
-1206.88
-405.297
679.04
-1305.72
-124.623
-62.5485
474.009
-692.154
-354.185
-1236.61
-212.505
473.441
902.037
-561.548
164.964
-1674.96
-71.3504
1746.31
-1087.15
540.972
564.389
-1187.94
623.553
901.051
916.316
630.367
619.799
706.724
237.696
-1153.6
480.209
-395.271
429.558
613.037
-512.956
232.421
-730.692
498.27
715.903
-347.918
-308.324
183.136
-624.485
256.303
368.182
-885.596
-745.402
1087.66
-2145.74
394.372
-679.054
-342.758
-723.225
838.794
590.344
-341.061
328.526
380.53
244.038
630.642
-874.679
525.03
635.133
-561.498
177.018
356.687
-632.243
-1041.47
-854.622
1896.09
-1809.77
157.585
1106.51
-1371.49
1168.8
-710.229
-458.573
-504.832
1349.48
-1495.41
627.942
867.463
-283.162
-208.785
491.947
1428.45
558.612
365.795
-498.586
-478.098
-576.643
1054.74
-428.212
595.027
1583.57
-1131.58
-451.995
-795.344
349.994
654.366
403.496
-1623.42
416.195
1207.22
-181.407
527.036
797.5
786.073
208.071
-708.949
500.878
195.863
209.812
-272.731
-110.643
383.375
509.187
-6.66708
-502.52
-1650.29
602.054
-1613.21
1684.38
-71.1773
14.5877
-1627.79
1069.45
787.335
-354.682
-825.491
-225.381
-1134.57
-239.525
-312.065
678.488
-1813.06
-641.289
1215.01
223.78
758.553
-1333.63
-678.943
-466.265
633.8
-330.373
-1013.26
1350.82
-1933.07
582.253
647.692
1288.7
478.704
-2.10304
718.486
715.014
-1433.5
-634.826
325.235
309.592
433.833
-100.855
-332.978
138.486
330.469
150.106
-480.576
-600.238
1163.77
450.712
-651.374
-459.053
-401.836
860.889
-326.392
150.752
-454.501
149.075
-300.122
-710.692
538.602
-104.77
-579.775
967.211
571.146
-266.92
-304.225
451.63
-775.953
-650.89
463.298
-1129.36
-849.16
1191.64
-569.771
444.337
300.14
-470.492
79.7722
1026.62
-313.07
588.079
-275.009
-509.039
1578.49
-700.618
259.689
365.204
-624.893
232.055
505.214
-37.1908
-468.024
-268.932
-185.569
1013.1
1108.81
564.896
-892.835
957.394
-64.5598
-450.372
167.209
-752.452
327.229
-596.78
327.96
387.944
849.056
-1253.36
404.306
775.419
-815.185
-948.799
-550.398
1499.2
-180.829
478.772
-568.551
274.073
1309.22
799.227
-591.156
1331.35
-677.174
486.926
-660.455
-401.08
-419.995
-378.455
798.45
499.417
-840.797
-477.058
105.176
371.882
-307.484
572.51
724.516
-330.144
-226.487
-174.992
401.479
-492.702
126.526
366.176
1463.25
83.5171
-1546.77
-756.961
1350.69
-1144.78
-465.92
551.377
-186.174
1154.24
-378.816
1083.4
492.725
707.302
-441.075
-884.634
-522.527
-1328.29
-18.9532
985.995
-967.042
594.677
353.025
-947.702
-356.989
-202.035
-685.132
405.549
1621.24
-200.668
389.06
338.557
-727.616
-1839.75
-2106.71
1519.15
587.555
-2037.19
349.178
385.616
532.063
-917.679
-460.632
1018.62
-417.485
-669.083
1086.57
-2030.57
1391.21
639.353
595.053
-1012.54
43.708
438.103
386.093
182.782
256.115
324.386
980.669
885.089
674.651
-319.965
-354.686
-286.832
614.832
-328
568.452
533.619
564.19
514.451
-1078.64
-796.02
-699.385
750.511
403.724
-406.885
717.479
-1193.37
1609.57
442.377
-1111.46
-359.431
554.25
-1384.96
893.154
491.805
-711.224
-337.131
-775.246
337.383
437.863
447.411
717.193
-1164.6
1080.58
-593.178
-429.283
679.195
-249.912
249.868
321.278
-465.277
-432.427
897.703
-226.244
574.131
-972.666
398.534
-462.065
600.598
-1681.31
424.049
669.848
-1093.9
524.652
110.032
113.414
-2212.81
551.437
-107.1
1445.19
1777.1
-217.547
-1559.55
-438.573
1789.39
-1987.36
1194.63
792.738
394.631
351.36
-45.0647
883.859
-1282.52
717.805
-867.113
-821.823
802.87
296.17
83.5418
-379.711
220.432
172.454
-392.886
1565.37
-846.888
-1530.92
-325.432
520.572
-232.83
-287.743
390.508
365.733
268.484
365.316
-11.897
1003.95
-992.054
379.804
300.453
-680.257
-734.209
1817.46
-1083.25
-342.639
733.147
-1228.96
-415.323
-912.885
480.459
595.787
-794.537
198.751
757.295
-375.647
-381.648
-439.835
-453
451.808
1101.51
1242.99
-678.604
797.569
-345.939
381.455
339.451
-231.38
-234.836
-228.581
619.301
408.283
-844.267
435.985
239.891
350.123
-590.015
-419.114
827.397
753.89
-1146.72
898.665
-49.6096
-485.319
283.111
783.535
-96.8153
1385.51
1890.51
-43.6879
354.361
-318.342
426.398
-1088.92
1077.02
648.287
376.554
380.741
88.1874
432.385
261.071
513.235
-379.242
-255.584
-560.818
-89.7175
-374.492
362.131
12.3612
-257.428
-280.784
1010.7
-1540.67
529.97
-179.656
-191.906
-388.523
688.976
-1650.6
1590.91
-962.966
282.799
-683.879
584.339
1224.41
-1808.75
607.449
983.459
328.348
-1129.39
713.615
-286.295
-315.076
1389.53
-1457.28
839.182
618.103
445.18
-652.051
206.871
-402.226
496.063
-93.8366
388.323
120.863
1724.9
447.138
-251.275
557.675
-1704.79
1147.12
-100.189
395.119
343.1
331.551
-448.796
-614.159
1062.96
409.886
-874.815
-640.013
902.121
571.048
-477.896
-228.347
-434.738
-409.529
-307.761
-826.813
1821.09
-1821.09
-100.383
-1601.22
1701.61
298.82
272.657
-916.75
-555.694
1472.44
-408.159
972.349
-613.201
-1037.09
698.163
405.017
-1103.18
466.661
-151.106
573.078
1220.34
-1793.42
-1039.61
2114.05
-1074.45
-380.87
-289.556
-487.126
837.121
-1761.9
1609.09
152.813
1761.9
-1615.92
-145.986
-237.464
515.775
-278.311
-537.318
1620.72
1577.47
-1992.79
1110.05
-295.184
-275.364
570.548
227.255
-586.686
-715.217
308.332
1344.09
639.098
589.109
477.192
-1066.3
268.269
439.034
875.161
500.113
-1375.27
542.864
-1020.96
1574.94
-564.238
-773.152
-360.897
-143.957
504.854
-490.428
1207.62
-742.271
328.369
366.102
392.014
245.088
-637.103
619.269
831.475
-602.526
262.221
695.174
-477.896
-332.347
-248.641
580.988
1168.41
-682.13
605.61
469.97
-1075.58
-1289.16
1289.16
-381.877
758.431
-273.217
-487.548
760.765
505.902
439.415
-945.317
398.466
-671.684
603.09
-871.413
268.323
-367.696
-487.774
1076.88
-658.495
-714.679
1373.17
-382.08
956.211
-1552.8
675.293
37.9384
-440.032
402.093
-526.367
743.527
274.396
315.999
159.408
307.254
-539.507
253.212
1870.85
-1967.67
263.79
-729.842
465.491
-827.661
362.17
-904.702
1428.17
-523.471
-430.426
-482.46
600.916
1124.15
-1725.06
-713.375
332.505
-464.855
1033.31
-799.061
1061.28
-370.753
-620.411
-506.596
757.769
536.675
-354.707
915.788
-324.397
-168.305
1599.04
-1816.58
-352.828
-619.838
-354.988
481.513
283.989
-614.362
-179.306
1076.54
-793.426
197.261
-309.36
-270.229
579.589
391.532
-894.947
503.416
-477.036
-470.948
-915.48
-368.03
609.158
-241.128
-467.785
-450.096
-362.063
-178.384
-414.826
659.914
-445.872
785.323
-1071.43
622.636
-1405.39
562.401
-29.0264
-1841.42
1870.45
570.16
-450.946
1242.41
-701.441
292.82
-292.82
675.108
-459.348
1036.5
-1649.7
-1158.74
-947.968
286.019
328.813
899.13
718.045
-514.185
-307.435
821.62
1662.9
-1691.93
-432.975
333.16
234.982
1134.81
-529.198
-943.342
1550.5
-607.158
440.766
-257.985
369.354
410.409
-779.763
548.168
466.718
-1014.89
-331.113
659.483
-38.2263
1909.08
1608.05
992.265
-1696.78
726.345
-1176.46
450.115
-492.52
1367.68
836.173
-1341.01
-583.432
288.248
815.121
-401.065
546.7
-1195.14
648.441
-632.03
-1215.52
-695.715
1911.24
-191.457
573.382
-381.925
-188.021
334.28
-525.737
339.686
360.963
-700.648
-1493.21
756.92
736.286
883.934
-1434.33
820.695
-434.401
201.562
-356.847
-616.207
283.86
-666.769
-718.19
696.704
507.929
-1204.63
379.576
-206.429
-173.147
553.447
-956.42
-586.06
-427.072
754.3
-831.363
-1156
-1437.93
499.763
938.169
1.7143
-662.133
360.909
301.225
-1328.18
1051.07
277.117
-614.861
-456.571
-665.426
920.824
395.738
-187.251
-208.487
508.466
980.357
-1488.82
987.582
-558.567
164.866
393.701
-425.183
694.315
-430.525
-510.443
155.456
234.073
-1522.97
524.403
556.175
-785.696
259.329
135.848
-460.245
360.196
-831.144
1954.16
-1195.38
-758.779
430.989
-702.507
271.518
319.752
348.68
101.048
-449.727
-584.812
184.213
262.924
-691.84
1374.13
-682.287
424.1
486.962
-1198.19
258.347
1866.77
-1013.59
-853.178
783.833
-558.946
190.917
1402.29
-975.084
-427.203
325.032
-784.38
-616.611
1725.42
606.604
636.388
332.647
-36.4778
265.031
-1138.32
1725.72
-587.402
-1763.55
820.212
1768.93
-1697.23
-71.6922
-672.75
277.479
585.307
-742.976
236.38
1402.52
-566.351
379.46
459.495
-1858.82
1420.25
580.385
-450.274
-130.112
198.295
-560.358
-289.995
-197.771
-347.375
690.475
-597.259
236.362
624.18
547.076
-1171.26
1113.43
-1947.71
834.279
157.08
360.19
-1700.67
1662.45
306.448
-747.524
-175.041
376.603
765.367
679.08
-1444.45
1087.37
-1089.51
522.498
-1115.68
-623.357
245.305
378.052
550.632
-294.329
-624.518
-1025.18
286.597
-736.692
-912.323
171.156
150.527
229.049
414.549
285.982
-700.531
-641.242
-834.469
-978.592
486.853
-1071.67
-325.001
500.962
534.369
657.275
-275.806
-119.491
-413.215
741.563
264.37
-1206.02
564.78
1316.94
-551.576
442.313
-1028.37
-380.576
166.755
413.631
1023.08
551.856
-1721.67
1621.29
1642.33
-587.263
-1055.07
1907.44
-1896.98
-10.4611
229.565
-547.907
-371.692
568.953
-777.566
-338.111
-334.639
1017.82
710.98
-1520.48
809.503
316.169
-26.1816
1625.22
-1107.25
425.118
-1258.03
484.875
-61.8161
1525.07
1196.88
-470.532
-485.287
-73.2797
-282.568
736.09
-1951.61
-705.791
369.172
-536.757
167.585
190.1
-503.169
1139.96
671.634
-1811.59
-641.109
190.835
941.542
-1497.24
-210.542
678.719
-468.178
872.742
1127.26
-747.424
1354.03
636.992
-500.231
-136.76
-341.036
1180.22
1049.21
-1979.6
930.384
-1181.28
539.991
1488.69
-586.564
-407.218
-154.279
-1247.98
569.378
1165.12
-90.3051
946.303
776.133
-1722.44
-192.376
578.896
-1541.71
962.81
487.032
916.345
-1403.38
632.471
582.543
415.747
-1106.59
588.848
1115.53
1215.01
-452.068
-762.942
-1186.2
-1754.93
-4.58329
-1717.09
-208.162
-443.889
1613
-636.156
-976.847
-490.802
1121.17
-1323.39
633.338
690.049
-1365.92
1449.44
-1336.47
589.044
1520.44
-395.502
-600.228
193.009
-1491.97
220.599
176.388
247.709
389.282
439.529
415.451
-854.98
506.476
-938.72
899.904
-1444.77
-724.362
241.134
483.228
-1058.14
457.897
-490.969
870.428
697.912
11.7013
-550.546
168.62
-886.569
-1318.76
-710.502
344.526
365.977
395.398
-721.283
325.885
-471.608
-189.357
-708.197
727.407
1540.26
-593.955
826.344
739.03
1344.57
-844.455
-970.789
-570.917
-792.417
429.191
363.226
-1035.17
-636.529
297.937
338.592
-1433.68
-296.776
-786.732
393.732
393
-673.839
422.999
250.84
-699.25
268.726
412.891
484.813
389.89
437.507
476.491
384.398
594.895
-968.015
699.252
464.522
451.352
355.888
-807.241
1630.71
-1079.8
-550.915
-504.971
-293.338
-1034.84
450.907
347.543
409.786
592.3
-1002.09
-1386.08
749.923
-527.413
1150.97
371.823
-41.3533
412.648
-862.401
449.753
-1899.51
298.287
438.495
-722.986
284.491
-194.438
398.09
-203.652
-659.222
297.534
361.688
-668.671
313.985
370.754
387.677
611.492
-1019.65
751.398
665.418
-1416.82
438.887
624.068
336.892
391.607
-728.499
405.199
327.948
599.797
677.419
424.092
608.961
-1041.7
432.737
-1675.68
1180.52
495.166
1696.55
-539.186
617.772
-1146.84
529.073
-638.669
344.455
437.773
-932.806
495.033
775.729
-455.526
350.661
339.814
584.877
-937.705
654.435
-1252.36
597.922
397.962
733.614
-1224.04
768.396
510.126
-1278.52
501.088
405.424
-906.512
-501.836
-936.096
-291.89
631.576
352.46
540.149
-892.608
328.393
331.09
-502.195
1944.73
435.344
-845.015
409.671
-917.519
-808.559
-744.191
362.543
-1239.94
440.884
-1745.95
1615.92
130.031
1753.75
-1609.09
-144.656
-780.677
-585.34
258.587
326.753
-1768.93
1992.79
539.248
790.362
-1329.61
440.18
715.531
689.562
385.609
-1075.17
-52.4055
1617.14
-594.06
394.605
847.808
-643.953
322.436
321.517
-378.951
-295.628
545.496
-208.681
434.711
275.404
-658.438
383.034
257.113
-570.872
-277.097
442.873
-1031.99
589.116
538.078
1092.64
365.961
595.552
308.2
349.861
-658.061
1640.97
-929.985
1692.74
-1521.49
-171.249
-328.227
-819.764
410.235
857.145
-1067.69
-600.273
272.273
-1090.52
1628.59
-1597.96
-73.8118
1671.78
-341.686
-350.51
-370.734
541.146
593.662
-501.341
-22.0571
-549.498
497.919
-283.485
-214.434
1762.92
-1311.11
-618.791
293.439
325.352
403.141
357.326
734.122
-289.978
-399.666
-1753.75
1691.93
459.86
-1099.86
639.999
-41.4338
1662.72
570.589
476.249
-1046.84
102.792
1144.2
-1451.96
-9.45415
-1890.06
219.608
-592.455
306.131
286.324
-954.364
611.606
-895.577
465.152
-1127.65
672.174
455.479
391.249
272.279
-786.464
-309.942
1215.78
885.96
699.538
-1182.49
456.16
726.329
494.756
699.582
-1194.34
-361.15
-249.824
400.351
-958.65
439.131
519.518
21.2075
-1880.03
1081.68
-478.593
-514.618
559.018
-1377.97
818.957
-440.529
802.699
-405.991
503.357
-710.842
1723.94
399.574
-170.524
211.784
-157.327
-247.622
404.949
1895.35
-504.136
-1706.98
1050.38
-594.818
299.19
-1011.99
551.36
-312.525
544.498
904.881
-1449.38
-1102.71
437.287
-21.1935
-1946.48
1712.8
-663.59
-538.947
460.93
-1189.89
728.958
199.892
195.845
-277.851
775.361
697.996
835.751
815.725
-459.836
1083.93
-498.547
468.766
-184.073
-284.693
-1925.29
-712.68
-317.051
-639.919
-6.3068
646.226
456.118
-271.905
571.963
1069
-814.126
922.586
1243.74
-426.033
-173.182
-245.108
418.291
960.394
-888.241
-315.634
-1066.6
610.03
1565.94
-809.024
537.908
934.536
-405.383
738.111
-332.728
1129.74
-272.936
342.253
1349.38
-709.495
-212.67
448.367
-1198.15
749.784
-977.792
-142.008
1119.8
438.974
-953.882
514.909
181.594
732.066
482.943
742.92
-112.279
850.155
-426.417
1181.77
-796.162
552.577
-1465.34
912.766
-1216.64
1800.98
-431.705
-1510.19
879.219
-1401.75
-330.097
-422.76
1457.01
-1528.64
783.237
1491.38
192.791
275.975
-374.595
-1745.95
-286.533
-1018.78
1590.74
-1781.53
1781.53
1577.47
-1004.3
-630.379
-359.197
368.309
604.04
-378.273
-381.301
-1389.63
897.112
1125.06
600.662
1202.23
1789.49
-1216.41
-623.478
272.045
1659.28
-1916.87
257.588
816.155
-1268.15
1545.15
-561.69
801.599
324.49
-361.659
555.732
793.752
662.429
1366.48
-247.135
-445.825
-388.392
492.815
-336.711
472.082
735.538
-320.723
-129.004
-351.276
576.542
-225.266
36.6648
-369.752
1107.31
-1720.28
-461.207
-506.111
-577.52
864.364
701.58
-1596.27
904.431
-452.347
-634.204
-515.535
1251.67
358.251
1723.89
-1702.68
-1662.9
1896.98
-1560.6
840.088
720.509
-392.192
-1800.67
918.168
584.223
818.302
-393.86
1794.58
-681.156
-424.788
687.729
447.994
-1135.72
-1104.06
444.261
752.617
-1617.12
473.287
900.84
164.251
-389.059
224.808
-1605.61
-390.462
-443.178
990.159
-683.203
1442.79
-980.797
1853.54
242.247
-537.293
488.136
-295.345
474.344
893.337
543.425
977.013
-463.617
-427.867
574.423
882.585
-1392.69
-40.9938
1583.98
-844.953
519.977
971.406
-1475.76
-1115.89
1779.24
-1240.78
-538.458
1205.99
-319.399
-886.591
-180.9
443.581
-262.681
-457.264
-251.291
420.075
-168.784
133.236
-383.06
1738.67
-1743.25
-477.932
-530.889
-903.443
432.175
-194.462
-237.713
629.716
-471.457
-362.336
-335.3
697.636
-942.773
413.998
-1166.85
676.052
406.497
-648.758
-432.418
1588.61
-870.569
530.203
-458.546
-568.929
-463.059
355.581
-344.607
-10.9746
-1124.21
422.769
-665.098
-1033.47
1698.56
-615.822
-1425.51
710.827
562.372
-1596.24
1033.86
-409.311
-471.431
166.343
540.382
-1258.3
742.765
539.275
1005.87
-2133.17
999.98
1133.19
-389.202
404.141
-378.707
-25.434
1477.96
-385.962
449.687
1195.48
582.758
905.928
565.856
528.195
-1094.05
152.729
-460.927
-1697.23
247.577
1127.48
-628.823
518.703
1013.51
-1532.21
1092.76
-1643.68
183.33
715.336
563.675
-879.309
-1086.25
-164.041
417.568
-253.527
-586.055
-450.711
-636.633
-621.848
343.996
-1619.96
939.158
-477.224
215.423
-385.947
526.936
-307.328
-622.949
1196.94
-1297.72
929.315
368.409
-1019.2
-393.466
-767.09
-832.649
1697.01
-477.485
1794.56
-1586.03
-208.534
-1556.56
1018.6
537.96
-734.343
-249.517
430.078
-180.56
-607.143
385.266
266.239
-651.505
-524.46
1007.49
624.208
-351.935
-1620.21
1050.43
571.827
1103.46
-1675.28
-436.161
-282.099
-377.123
-752.742
-487.982
-332.439
491.847
1557.98
-995.603
-773.878
1497.44
658.118
-324.958
725.884
1152.34
-1878.23
317.679
326.64
-487.653
-1935.03
1721.87
213.159
733.639
-475.835
-257.804
531.881
1060.72
-1592.61
355.581
-1726.54
-233.216
1752.37
-1580.64
1073.71
506.927
-1729.63
3.08664
-522.164
404.141
1700.67
-1721.87
939.203
625.472
-1564.68
366.556
-214.456
-152.1
-431.04
-268.21
64.9379
94.2582
-343.775
-423.1
-448.313
-401.312
206.874
1510.14
379.177
-220.934
-452.905
451.335
-188.411
341.085
1510.68
993.593
-170.377
-823.216
-1104.02
1704.94
-1728.98
1063.89
-707.569
-1021.41
-1265.06
1844.98
-579.919
1155.04
-1771.28
616.235
266.037
-877.536
1675.99
43.4016
-1719.39
-491.197
-1082.93
-1738.67
-980.267
552.4
1019.48
590.296
1132.95
-1723.25
274.406
-460.579
698.997
-385.012
397.604
924.208
682.095
-388.526
-653.172
582.956
1072.45
-1655.41
-410.361
-360.526
770.887
451.569
-1662.45
1521.49
140.952
578.512
-1043.37
544.766
1083.83
-1555.59
993.898
-230.278
221.788
347.165
1907.44
454.878
-71.4452
995.842
722.75
-1718.59
-696.607
1085.24
-1557.44
153.658
-569.352
188.677
262.659
-672.285
-567.66
582.727
1034.41
-710.693
-290.993
-1368.32
673.223
695.098
-401.893
749.419
90.3911
-839.81
562.392
-137.205
1557.45
-201.42
289.137
-778.716
-1935.03
1664.59
1020.65
348.927
316.84
458.889
-929.791
-995.5
-1767.26
630.57
1693.75
501.908
-474.764
1210.3
1087.01
-424.94
1028.98
-976.807
486.674
490.134
700.914
1047.88
-1748.79
478.223
488.988
-1493.85
-745.013
36.6098
776.334
-413.792
-896.26
381.642
-540.284
-800.721
610.074
-578.275
1397.23
1055.18
186.404
231.164
-550.689
1618.48
-775.885
1527.28
-1727.83
575.315
1152.52
536.724
-881.956
-1733.23
1916.87
-183.639
1721.73
171.676
-546.532
357.147
-262.889
-481.703
1210.66
568.274
1128.28
-491.106
424.819
855.163
-454.2
-774.147
438.683
335.464
1419.64
1089.52
-518.385
1422.82
-510.459
-532.915
1043.37
-602.831
504.82
-1215.05
1692.74
1839.56
-687.222
1586.13
-646.932
-1240.59
716.13
-562.994
191.725
-376.55
441.938
-232.126
-517.288
-1246.7
1870.95
-624.256
1173.37
-555.594
1120.23
-1659.42
1706.55
-574.003
-548.923
-549.856
1720.07
-316.358
-688.125
-473.453
1223.24
-1691.42
-1860.12
613.419
329.976
-947.802
157.394
204.651
-1719.02
1204.12
514.898
1162.84
558.89
-513.444
-465.462
1191.79
185.598
212.493
588.449
1251.12
-539.189
-1238.57
1777.76
-1025.21
999.985
866.781
-204.04
-1659.28
1702.68
-510.214
1411.05
-1733.23
-344.688
-0.299441
344.988
-250.433
584.678
-334.245
100.491
486.315
779.344
-383.946
1257.51
1270.52
-413.378
849.068
-438.833
1817.57
-662.526
1586.68
-1723.89
-412.835
-768.447
310.327
458.12
-561.596
-563.655
79.7497
-1138.53
-985.129
-670.531
1655.66
-943.697
-1189.47
159.078
-434.442
-646.983
705.789
1167.43
650.141
1410.26
-591.959
1636.71
1317.97
-575.201
-483.013
187.668
-503.338
1396.67
1239.96
-566.733
-999.979
890.282
60.4501
-950.732
603.405
-506.227
1403.34
1495.04
-589.112
-350.447
350.447
-589.627
1623.49
1239.05
-486.437
1134.12
-62.6374
1849.35
-376.027
1489.46
-589.553
-507.707
1347.79
-649.679
1218.58
-568.897
1554.8
-591.993
762.745
579.456
-1342.2
-659.255
289.606
509.622
601.006
-1957.28
-1008.36
1586.68
356.001
-356.001
-56.9895
381.986
438.709
406.375
-18.0517
-321.328
917.424
-519.462
-429.003
810.989
-236.208
614.261
-423.629
1552.24
-444.351
-883.939
173.636
223.965
-397.6
601.176
1250.76
-1851.93
924.707
-459.555
-344.607
126.146
-1943.06
1816.91
-447.431
168.454
1180.94
-440.518
-740.42
-296.17
-600.089
-497.068
-378.707
-471.172
256.738
1157.99
-564.323
233.218
-367.916
134.698
-23.1256
-107.686
1375.95
-1268.26
34.662
-595.48
-586.525
-444.264
444.264
-1262.34
1985.09
-1344.3
-211.338
-1823.79
237.76
-1025.75
-974.246
-175.759
-1639.96
710.167
1229.32
-1925.04
360.903
318.744
-679.647
-1850.02
1234.27
615.758
-558.622
558.622
-958.853
-40.1237
-1866.15
-558.188
1650.82
-675.396
1636.19
-601.779
-184.94
-1705.12
-577.894
-451.606
-594.879
-459.498
459.498
-1537.81
194.532
1343.28
161.198
221.628
-382.826
502.951
490.642
995.293
-475.775
1751.29
769.857
-414.412
388.978
523.687
1702.07
-594.757
-552.995
1636.82
460.722
1812.84
-645.408
-1804.58
-1938.07
-647.134
-472.922
472.922
-609.747
221.356
-699.092
1017.96
-466.596
-1077.04
-298.356
1579.55
1852.29
1635.38
-1635.38
-272.438
741.725
1761.52
595.806
1275.15
162.46
204.096
598.674
586.649
1603.48
-1603.48
214.411
-360.38
-440.083
449.063
950.189
-463.515
-638.419
-1130.94
1706.25
273.698
-1663.06
625.971
-288.776
460.452
1744.65
-592.132
-211.451
-429.169
378.335
737.198
1738.58
-613.522
-511.797
-771.066
1960.55
-870.463
-1090.08
1642.69
-702.777
1223.96
-1824.96
601.007
362.352
-899.645
-184.909
-99.684
1097.17
-487.142
148.597
634.63
-1659.81
429.9
629.87
-1804.58
-583.301
1787.42
883.115
-1162.87
1760.5
-597.627
1783.83
-575.56
-1208.27
438.333
925.555
-1743.25
924.404
-1486.51
252.407
1234.11
-833.461
-1254.22
-369.61
72.1033
297.506
581.78
262.326
1035.61
-436.455
844.71
-408.255
820.115
742.258
-1562.37
644.659
1066.54
-23.9014
-661.167
685.069
-1744.51
723.097
710.03
150.526
-1122.59
1936.78
-674.569
-1262.21
-537.188
1665.47
838.162
968.283
-1806.44
1227.86
683.381
-411.201
708.735
828.423
1026.75
-587.779
1761.52
625.44
1773.56
-1185.58
-587.982
-383.425
-349.717
733.142
121.455
-1185.55
1660.52
-540.288
-1437.77
1437.77
1250.55
594.428
1351.36
206.615
-555.328
280.353
-179.274
699.178
1113.66
474.132
-288.534
-869.212
-575.56
1740.16
-1740.16
998.392
-998.392
987.339
1025.17
-2012.51
1837.96
-614.006
-581.127
843.762
-947.857
-1052.16
998.133
691.524
-1689.66
-511.037
-370.913
-641.625
-808.441
2042.71
-1246.41
-613.71
1002.98
974.86
1289.78
647.005
320.046
1012.69
226.262
342.889
1186.2
1756.9
-1756.9
671.312
79.4053
-383.631
-997.061
-539.997
1674.12
991.016
1008.98
-1833.31