/*--------------------------------*- C++ -*----------------------------------*\
  =========                 |
  \\      /  F ield         | OpenFOAM: The Open Source CFD Toolbox
   \\    /   O peration     | Website:  https://openfoam.org
    \\  /    A nd           | Version:  7
     \\/     M anipulation  |
\*---------------------------------------------------------------------------*/
FoamFile
{
    version     2.0;
    format      ascii;
    class       volVectorField;
    location    "38.5";
    object      U;
}
// * * * * * * * * * * * * * * * * * * * * * * * * * * * * * * * * * * * * * //

dimensions      [0 1 -1 0 0 0 0];

internalField   nonuniform List<vector> 
7807
(
(1.08884 0.155318 5.26693e-21)
(1.07068 -0.0466258 4.05962e-22)
(0.994981 0.127785 -1.18616e-20)
(1.04248 0.0818622 1.62423e-20)
(0.998974 -0.0012731 -2.927e-23)
(0.99995 -1.11618e-05 -3.285e-24)
(0.989715 0.106507 -2.37818e-20)
(0.993277 -0.00245475 -5.74617e-24)
(0.999852 -0.000233912 -5.52386e-24)
(1.02855 0.00195177 -7.50474e-22)
(0.999954 -1.35345e-05 3.62329e-24)
(1.00279 -0.00154533 -1.16507e-22)
(0.98966 -0.00313273 2.92528e-22)
(1.02485 -0.00202358 -4.71516e-21)
(1.0276 0.00221619 3.17957e-21)
(0.989341 -0.0200544 -5.99286e-22)
(1.09179 0.161946 -1.10866e-20)
(0.986016 -0.00405661 -1.01364e-22)
(1.00321 -0.0121788 -3.27124e-23)
(0.988725 -0.133821 -5.5004e-22)
(1.04301 -0.00394642 -1.60512e-21)
(1.00185 -0.00096698 2.18344e-22)
(1.02256 -0.00383982 4.03375e-22)
(1.01189 0.0369447 -8.45554e-21)
(0.981246 -0.00514928 -4.59312e-22)
(1.0836 0.153676 -5.3221e-21)
(0.999028 -0.00121234 -2.04692e-23)
(1.02869 -0.00203237 1.87647e-21)
(1.00527 0.0170049 -1.07721e-21)
(1.00505 -0.0128693 2.63115e-23)
(0.983025 -0.0214661 -1.05511e-21)
(0.853191 0.045795 3.66941e-21)
(1.02241 -0.00472994 2.49029e-21)
(0.999407 -0.000506798 3.63292e-23)
(0.999871 -8.83976e-06 6.97662e-26)
(1.02898 0.000569136 1.10692e-21)
(1.00575 -0.0140363 3.31559e-23)
(0.994965 0.103745 -3.79391e-21)
(0.995435 -0.0103629 4.88644e-22)
(0.999585 -7.53915e-05 3.50037e-23)
(0.995988 -0.0106563 -5.48472e-23)
(0.98945 -0.0188176 -2.18248e-22)
(1.02786 -0.140095 2.63722e-21)
(1.18376 -0.0362739 5.32333e-22)
(0.999753 -1.6096e-05 1.13232e-23)
(0.999901 -1.97413e-05 -3.25852e-24)
(1.00178 -0.000781996 -1.33229e-22)
(0.995198 -0.00950345 -2.90058e-22)
(0.999916 -3.76769e-05 -2.63406e-24)
(0.994909 -0.133674 8.01502e-22)
(1.00408 -0.00133944 1.26689e-22)
(1.02829 -0.00134632 -1.94613e-21)
(0.975333 -0.00625583 -1.54798e-21)
(1.01646 -0.0384779 3.78454e-23)
(1.02962 3.05869e-05 -6.50753e-22)
(0.994127 -0.00336863 -5.3841e-23)
(1.00308 -0.0112985 7.24595e-23)
(0.993225 -0.00212759 3.99291e-22)
(0.970436 -0.0266025 -1.87569e-21)
(0.999383 -0.000451289 -4.64664e-23)
(1.00005 -2.91524e-05 -4.78449e-24)
(1.0053 -0.00152461 1.41753e-22)
(1.02503 -0.0013196 -1.11323e-21)
(1.00303 -0.00135483 1.17945e-22)
(0.998805 -0.000242785 6.58131e-23)
(0.983876 -0.022243 1.77474e-22)
(0.999881 -0.000233419 4.24065e-24)
(1.00002 -3.43084e-06 3.06934e-25)
(1.17074 0.0893917 1.96649e-21)
(0.995437 -0.009004 -8.93834e-23)
(0.999908 -2.41718e-05 2.88683e-24)
(0.965148 -0.0809868 -3.75461e-21)
(0.982087 -0.00570662 2.2504e-22)
(0.965437 -0.00798754 3.03836e-22)
(0.986661 -0.00447397 3.18287e-22)
(0.953558 -0.0394569 -4.07117e-22)
(0.999366 0.129383 1.90816e-20)
(1.04101 -0.0040755 2.04251e-21)
(1.10174 0.00641447 -3.36019e-21)
(0.940548 -0.0683273 -4.53817e-21)
(0.990165 -0.00346121 -4.49003e-22)
(1.00008 0.0643771 2.3536e-20)
(1.04811 0.00925838 4.80916e-21)
(0.964918 -0.01413 1.40177e-21)
(0.998305 -0.00321088 -4.79579e-23)
(0.997192 -0.000411492 4.87923e-23)
(0.992829 -0.00324027 5.49925e-22)
(0.976342 -0.00698343 9.95508e-22)
(0.999213 -0.00149635 3.13051e-23)
(0.994371 -0.000867545 1.72077e-22)
(1.00556 0.0192759 7.98386e-21)
(1.21561 -0.0131759 -8.69523e-22)
(0.999834 -6.78545e-05 -6.84191e-24)
(1.00248 -0.00957154 3.11407e-23)
(0.995553 -0.00132744 1.56216e-22)
(0.964963 -0.00443754 -2.4362e-21)
(0.968467 -0.0801505 2.79454e-22)
(1.01859 -0.0368407 1.09309e-22)
(0.998121 -0.00309769 1.56756e-23)
(0.998575 -0.000246412 2.18884e-23)
(0.931156 -0.0246613 1.03719e-21)
(1.10214 0.0123181 2.82729e-21)
(0.995807 -0.00150806 -3.89049e-22)
(0.999968 -1.75635e-06 -2.80639e-25)
(1.21713 0.000294687 -7.12745e-22)
(1.03508 0.038001 -7.5631e-21)
(0.927764 0.0331921 4.15469e-21)
(0.993724 -0.00318561 -2.24285e-22)
(0.99999 -3.61223e-06 5.63961e-26)
(1.03193 -0.0162824 -8.25972e-22)
(1.04599 0.0778696 -1.88659e-20)
(1.04343 -0.0992152 -3.15911e-21)
(0.999987 -4.16999e-06 -9.55294e-26)
(1.03395 -0.0165613 -1.80513e-22)
(1.03127 0.0361435 7.95706e-21)
(1.00054 -0.000724728 -1.02095e-23)
(1.10523 -0.107564 -1.80691e-22)
(1.03549 0.0220471 -1.81743e-21)
(0.980697 -0.0624292 1.6136e-21)
(0.965046 -0.00971213 -3.191e-22)
(0.925963 -0.0162223 -2.49248e-21)
(1.00116 0.0267755 -1.53418e-20)
(1.03617 -0.136646 -3.62517e-21)
(1.01242 -0.00990919 6.95391e-23)
(0.928702 -0.0185045 9.82538e-22)
(0.998843 -0.00174563 6.95245e-23)
(0.984496 -0.0162263 3.58087e-22)
(1.00378 -0.0107185 -4.92915e-23)
(0.99874 -0.000179483 -1.46761e-22)
(0.983105 -0.0197901 1.9455e-23)
(1.25561 -0.0247937 -6.30585e-22)
(1.09542 0.0032918 5.77002e-22)
(0.999262 -0.000694192 3.95708e-24)
(0.999076 -0.00153163 -6.08516e-23)
(0.963133 -0.0129665 4.17023e-22)
(1.04315 0.0703874 6.92889e-21)
(0.996738 0.023388 2.77162e-20)
(0.999971 -3.01687e-06 -3.3029e-25)
(1.00908 -0.0039639 5.95566e-23)
(0.89708 -0.0208707 -3.12095e-21)
(0.967708 -0.00576073 -1.2394e-21)
(0.990203 -0.0859663 -2.48838e-21)
(0.954435 -0.0424361 5.52481e-22)
(0.967471 -0.00716816 -2.68524e-23)
(0.919871 0.0259083 1.63408e-20)
(1.02044 -0.0596164 -9.3254e-23)
(1.01191 0.0225117 -4.05908e-21)
(0.973863 -0.0315669 -9.89102e-22)
(0.950967 -0.00783284 3.41294e-22)
(1.001 0.0450956 -7.61752e-21)
(1.02929 0.000914373 2.77873e-21)
(1.20192 -0.0185934 1.18713e-22)
(0.998206 -0.00257323 -1.65455e-22)
(1.17674 0.0809338 2.16723e-22)
(1.0457 0.0086296 -5.00923e-21)
(1.00798 0.107293 -1.89945e-20)
(0.946344 -0.0467736 1.69692e-21)
(0.98965 -0.00242307 9.99692e-23)
(0.938046 0.0875807 3.611e-20)
(0.999924 -3.2225e-05 -2.47629e-24)
(1.00192 -0.0101514 -1.54336e-23)
(1.01185 0.0403121 6.09606e-21)
(0.999973 -2.4919e-05 1.58162e-24)
(0.997895 -0.00654044 -2.3213e-22)
(0.994968 -0.00128818 -7.47264e-23)
(1.0034 0.0378764 -2.0025e-21)
(1.00162 0.0243385 7.46915e-21)
(0.928684 0.0957974 1.196e-20)
(0.99752 -0.00633668 -1.43179e-22)
(0.996123 -0.000489694 -8.53155e-23)
(1.00002 -4.50024e-06 -2.87414e-25)
(0.921064 -0.00990764 -4.26411e-21)
(1.00053 -0.000649274 1.40964e-23)
(1.07244 -0.0417476 -4.84147e-22)
(1.00952 -0.00423639 3.98783e-22)
(0.952238 -0.00927119 7.04707e-22)
(1.20552 0.0102302 -5.06127e-22)
(1.12104 0.0889514 1.65774e-22)
(0.999836 -8.46531e-05 3.73209e-24)
(0.999385 -0.000793 -4.1913e-23)
(1.04416 0.0861926 -2.85597e-21)
(0.999924 -2.23872e-05 -1.2046e-24)
(0.999862 -1.61446e-05 1.79088e-24)
(0.989864 0.112822 -1.95903e-20)
(1.07394 -0.0505964 -1.44424e-22)
(1.02259 -0.0859385 -1.68434e-21)
(0.983233 -0.0602307 -2.28995e-21)
(0.968728 -0.0102915 9.15185e-22)
(1.01662 -0.0618256 1.7291e-22)
(0.899717 -0.0176127 1.64782e-21)
(0.999971 -2.27624e-05 -5.64707e-25)
(0.968859 -0.0749088 -9.10009e-22)
(1.12381 0.0971874 -4.8338e-21)
(0.995791 -0.00183861 5.58877e-23)
(1.00009 -8.48129e-06 -3.5418e-24)
(1.08875 0.0930321 5.32604e-22)
(0.998456 -0.000499842 1.54934e-22)
(0.984206 -0.0189792 5.71853e-22)
(1.01246 -0.0588493 5.57566e-22)
(1.00002 -2.81586e-06 -1.21818e-25)
(1.00114 -0.0025013 -5.67015e-23)
(1.03894 0.0696833 8.6397e-21)
(1.10913 0.104251 -6.61478e-21)
(1.00317 0.0957852 -2.55474e-21)
(1.09854 -0.100161 1.49144e-21)
(1.04764 -0.093739 7.24693e-22)
(1.16924 -0.1326 -5.94672e-22)
(1.02917 -0.00187799 5.57822e-21)
(1.03591 0.0653618 -2.81868e-21)
(0.999735 -2.84433e-05 -1.32691e-23)
(1.00005 -2.63682e-05 1.26063e-24)
(0.946836 0.013688 -1.60238e-20)
(0.990984 -0.0179455 -2.05572e-22)
(0.999233 -0.000617543 -3.91266e-23)
(0.972025 -0.0733745 1.85501e-21)
(0.983751 -0.0171455 -4.20053e-22)
(1.01872 0.0999848 -2.1144e-20)
(1.01467 0.0971229 -4.47943e-21)
(0.986699 -0.0886027 6.83103e-22)
(0.882667 0.0639633 -1.38751e-20)
(0.998568 -0.0005645 -1.14118e-22)
(0.986062 -0.00351068 3.63353e-22)
(0.928216 -0.0225728 1.35797e-21)
(1.04033 0.00132563 -1.16401e-21)
(1.04092 -0.174109 -3.59674e-22)
(1.11285 0.151389 -1.08158e-20)
(0.938507 0.0771185 -3.09185e-20)
(1.00008 -0.000137581 3.9903e-24)
(1.01238 -0.0090804 1.96204e-22)
(1.03297 0.0249882 9.84897e-21)
(0.99531 -0.00781305 -3.68259e-22)
(1.0388 0.0225022 -1.2413e-21)
(0.999351 -0.00162938 -1.00889e-23)
(0.901807 0.107267 2.43004e-20)
(1.00861 0.0999468 4.19568e-21)
(0.992816 -0.0028006 3.49021e-22)
(1.00482 -0.0107829 -8.76804e-24)
(0.999612 -8.47302e-05 -6.49821e-23)
(1.14939 0.1209 2.36262e-21)
(0.999881 -1.32442e-05 5.30377e-24)
(0.993685 -0.0144057 1.79184e-22)
(0.912585 -0.0456492 1.9031e-21)
(0.999908 -3.34297e-05 -1.1969e-24)
(0.998449 -0.00375125 -3.96694e-23)
(0.999493 -0.00158109 1.84072e-23)
(1.08046 0.0585009 6.94241e-21)
(0.999974 -3.23391e-05 1.90603e-24)
(0.994128 -0.000667228 1.96609e-25)
(0.943957 -0.0675744 5.26106e-21)
(0.854906 0.0343068 -8.10898e-21)
(1.09477 -0.00251169 -7.8252e-22)
(0.916327 0.073126 1.86814e-20)
(0.999941 -1.00922e-05 -3.01956e-24)
(1.00927 -0.0601543 -3.21115e-23)
(0.999767 -0.000404483 -1.47178e-23)
(1.00222 0.109666 -1.91508e-20)
(1.005 -0.00104467 -1.82426e-22)
(0.994991 0.0352535 8.98846e-21)
(1.00386 -0.0129956 -1.37581e-22)
(1.00101 -0.00269662 6.01249e-23)
(1.04107 -0.0413433 -1.93268e-22)
(1.02904 -0.000910973 -5.16722e-21)
(1.00073 -0.000434377 2.95769e-23)
(0.999711 -6.99735e-05 3.43091e-25)
(1.00065 -0.000585194 6.62129e-23)
(0.995069 -0.00829467 -3.30786e-22)
(1.03266 -0.0879246 1.96365e-21)
(0.999944 -1.3326e-05 2.04029e-24)
(0.948578 -0.0446557 1.20518e-21)
(0.995227 -0.00147533 -1.42603e-23)
(0.999819 -5.8918e-05 7.26457e-24)
(0.999208 -0.00076789 1.26859e-23)
(0.988725 0.0671835 2.17691e-20)
(0.989598 -0.00113086 1.43496e-22)
(0.999027 -0.000134583 -1.32557e-23)
(0.890753 0.0153886 3.1011e-20)
(0.998247 -0.00360599 -9.0173e-23)
(1.07198 0.119633 -6.4641e-21)
(0.99974 -0.000373429 2.65826e-23)
(1.01161 -0.0290233 -6.45467e-24)
(1.00002 -2.6606e-06 -1.09448e-25)
(0.978863 -0.0504462 -8.98958e-22)
(1.03963 0.000633546 1.80616e-21)
(1.20646 0.0211861 6.61864e-22)
(0.970897 -0.0286208 1.59386e-21)
(0.999482 -0.000801751 4.8364e-23)
(0.983759 -0.114206 1.18415e-21)
(0.97786 -0.000678844 6.55069e-22)
(0.99977 -2.49918e-05 6.84676e-25)
(1.00063 -0.000513801 -5.8579e-23)
(0.997419 -0.00472067 1.24489e-22)
(0.990104 -0.00202539 -4.3091e-22)
(1.0038 -0.00122983 -2.16197e-22)
(0.998465 -0.00258652 6.00647e-23)
(0.966767 -0.0131537 2.20773e-22)
(1.03836 -0.0841279 -1.43074e-21)
(0.966885 -0.0110474 9.73879e-22)
(1.1747 -0.0280076 -1.21571e-22)
(0.9554 -0.0125155 -1.23223e-21)
(1.02151 0.126351 2.12329e-21)
(1.01675 0.129423 -1.56037e-20)
(0.99808 -0.00103187 -9.94798e-23)
(1.23004 0.0215893 -2.92275e-21)
(0.999979 -4.11098e-06 -1.83525e-25)
(0.997373 -0.00584014 -1.52767e-22)
(0.963988 -0.00310373 2.48291e-21)
(1.00871 0.0325318 5.05884e-21)
(1.04917 0.0152117 -4.72812e-21)
(1.00013 -4.22519e-05 8.10397e-24)
(0.997544 -0.00550808 -1.00533e-23)
(0.957101 -0.0138166 9.29025e-22)
(1.06244 0.0509588 -2.85161e-21)
(0.998745 -0.00160727 5.17845e-23)
(1.00436 -0.000986933 1.22113e-22)
(1.00159 -0.00131991 -1.07704e-23)
(1.15024 0.0360517 2.55889e-21)
(1.25616 -0.0389794 -3.92215e-21)
(1.04541 0.150636 9.76556e-21)
(0.997958 -0.000337122 -9.66075e-23)
(1.0852 -0.0467131 -4.12564e-23)
(0.999854 -9.06848e-05 -5.95916e-24)
(1.00632 -0.00949202 -4.15111e-22)
(0.999931 -1.83192e-05 -8.55139e-25)
(0.981418 -0.0300603 2.86448e-22)
(0.999557 -0.000100747 -1.24419e-23)
(1.01745 -0.0281679 9.45978e-23)
(1.25266 0.0267043 3.43603e-21)
(0.964858 -0.0411123 1.93718e-21)
(1.01315 -0.0281376 -2.98661e-23)
(1.0111 -0.0081771 -2.55364e-22)
(0.999065 -0.000176114 5.95729e-23)
(1.03505 -0.0212446 5.79043e-22)
(0.996641 -0.0258195 2.85582e-22)
(1.09496 0.0174886 -1.75287e-21)
(1.07447 0.0558541 3.19081e-21)
(1.22729 -0.132383 1.35346e-22)
(1.18159 -0.0479424 -1.84886e-21)
(0.976859 -0.00137294 -6.99023e-22)
(1.00655 -0.00473417 3.89065e-22)
(0.916105 -0.0430764 -7.3145e-22)
(0.918641 0.0946896 -3.73857e-20)
(1.15887 -0.052211 1.88994e-21)
(1.0348 -0.012537 -2.3338e-21)
(0.893177 0.0692911 -1.878e-20)
(0.998029 -0.000258271 4.78143e-23)
(0.997753 -0.00127258 -3.0652e-23)
(1.1995 -0.0308186 -1.78827e-21)
(0.998658 -0.00280267 -3.19771e-23)
(1.02036 -0.055367 1.54393e-22)
(1.00747 -0.00224788 1.36138e-22)
(0.996316 -0.00056834 -7.61441e-23)
(0.99731 -0.000472931 -1.20044e-22)
(1.03938 0.0321349 5.76614e-21)
(0.999914 -0.00019959 -4.54147e-25)
(1.0007 -0.000358743 -2.63099e-23)
(1.00011 -1.69591e-05 6.06772e-24)
(0.995468 -0.000892258 4.00456e-22)
(0.992016 -0.0127124 4.59612e-22)
(0.999978 -3.10853e-06 1.3948e-25)
(0.998587 -0.000334301 1.22467e-23)
(0.971891 -0.0251411 5.58703e-22)
(0.945235 0.0204509 1.00226e-20)
(1.01568 -0.0294248 8.87835e-24)
(0.991018 -0.0168334 7.42996e-22)
(0.958809 0.0758154 4.27675e-21)
(1.00089 0.0255789 1.3585e-20)
(1.08306 0.00392725 -1.42354e-21)
(1.22038 0.0270278 8.83771e-22)
(0.918917 -0.00731957 2.3224e-21)
(1.00652 -0.00549308 -1.9249e-22)
(1.01051 0.0537762 -7.46992e-22)
(0.984829 -0.00310944 -8.68154e-22)
(1.04966 0.119176 2.61925e-22)
(1.01662 -0.0664916 2.13311e-23)
(1.06831 -0.14917 -1.33264e-21)
(1.10356 0.100372 4.12656e-21)
(1.05276 0.125619 -8.59393e-21)
(0.950323 -0.0384312 2.64788e-21)
(1.05039 0.012731 -3.03803e-21)
(1.11861 0.156431 1.00855e-20)
(1.06514 0.120305 1.23359e-20)
(1.03041 -0.00230955 1.75279e-21)
(0.99606 -0.00198333 8.79241e-23)
(0.99451 -0.00308604 7.66541e-23)
(0.999885 -3.30237e-05 -2.8018e-24)
(1.02408 -0.035919 5.95486e-23)
(0.984377 -0.00260937 2.04019e-22)
(1.00134 -0.00311875 -4.95717e-23)
(0.999861 -3.26965e-05 -5.27855e-24)
(0.99792 -0.000943061 3.88931e-23)
(0.979498 -0.113109 -1.96342e-21)
(1.13049 0.0483133 1.47916e-21)
(0.97621 -0.00861703 -1.11924e-21)
(0.999566 -0.0167332 3.13917e-22)
(0.994999 -0.000990612 -2.15971e-22)
(1.08187 -0.0505609 -3.27505e-23)
(0.990554 -0.0021188 -6.89661e-22)
(1.00336 -0.00972549 1.51544e-22)
(1.1326 0.148736 1.62507e-21)
(0.997598 -0.000450952 -2.783e-22)
(0.999971 -6.18349e-05 -1.31752e-24)
(0.999931 -0.000241721 -7.43831e-25)
(1.00006 -0.000140694 5.2137e-24)
(0.970233 -0.011419 5.14434e-22)
(1.03745 0.0295221 -6.81732e-21)
(0.994691 -0.000754833 8.60673e-24)
(1.02963 -0.0112164 1.51364e-21)
(1.05325 -0.179142 2.66319e-21)
(0.996316 0.097565 -4.1988e-22)
(1.00537 -0.00971642 1.36751e-22)
(1.00862 -0.00603176 -6.39419e-23)
(0.993288 -0.00347586 -2.77578e-22)
(0.993603 0.0658785 -2.12849e-20)
(0.998633 -0.000177957 3.97589e-23)
(1.04986 0.155211 -4.92014e-21)
(1.0091 0.0229141 -7.85078e-21)
(0.999849 -4.00671e-05 6.17615e-24)
(1.01388 -0.0679416 -9.79449e-22)
(0.995628 -0.00103329 -1.98041e-22)
(0.99535 -0.0866338 3.04552e-21)
(1.00073 -0.000193584 2.63926e-23)
(1.07715 0.00678003 2.03086e-21)
(1.01018 -0.0211914 -4.46012e-24)
(1.00808 -0.00552713 3.30358e-23)
(0.998899 -0.000215588 -7.91192e-23)
(1.08612 0.0555138 3.32283e-21)
(1.05715 0.048922 1.10568e-21)
(1.02037 -0.0900954 1.6419e-21)
(0.97327 -0.0292686 -1.0635e-22)
(0.997276 -0.00504254 -1.07427e-22)
(1.00456 -0.0550769 -1.78039e-21)
(1.17167 0.0702512 -2.36159e-21)
(0.861889 0.0531028 -1.77732e-20)
(1.12038 -0.0887048 -1.60558e-21)
(1.00699 -0.0102463 -6.25081e-23)
(0.999991 -4.75746e-06 -4.13509e-26)
(0.982024 -0.00694753 -8.99043e-22)
(0.997047 -0.000520441 2.59066e-22)
(1.03346 -0.0217287 8.39623e-22)
(1.02443 -0.147768 -1.06807e-21)
(1.23025 0.00714552 1.3018e-21)
(0.984764 0.0921093 -2.61411e-20)
(1.06717 0.0472522 4.65356e-21)
(1.16894 -0.118202 2.56613e-21)
(1.08875 0.10055 1.77439e-21)
(0.999631 0.0279329 2.51464e-20)
(1.02425 -0.00293942 1.27935e-21)
(1.00161 -0.00302136 1.14141e-22)
(1.0301 0.0740702 4.37839e-21)
(0.998913 -0.00273011 7.11779e-23)
(0.999763 -0.000224483 5.85296e-24)
(0.974938 -0.0028674 3.11731e-22)
(1.00012 -4.18705e-05 1.51952e-24)
(1.18209 -0.140046 1.43317e-21)
(1.00626 -0.0237475 -7.20676e-23)
(0.981798 -0.0494337 1.51291e-21)
(1.00246 -0.0020601 5.90045e-23)
(1.08218 0.089444 9.65704e-21)
(0.997705 -0.00042914 -2.29563e-23)
(0.999968 -4.95195e-05 -1.25359e-25)
(1.06018 -0.157575 1.45629e-21)
(1.00219 -0.00179122 -3.4617e-23)
(1.13171 0.000968305 -4.17722e-22)
(0.93487 -0.0230423 4.85146e-22)
(0.902685 -0.0286215 2.43148e-22)
(1.22922 0.0736332 3.61409e-23)
(1.02982 0.0239055 -2.57065e-21)
(1.02556 0.00716813 1.58372e-21)
(1.02385 0.0067457 -6.30472e-22)
(0.999734 -5.76942e-05 2.06993e-24)
(1.13973 0.047777 1.09979e-21)
(1.09526 0.0225452 2.03596e-21)
(0.999332 -0.000862203 1.85636e-23)
(0.977343 -0.0093411 1.30021e-21)
(1.00079 -0.000273035 -2.93757e-23)
(1.01719 -0.0258459 -5.65525e-22)
(1.01395 -0.0375539 -5.69802e-23)
(1.00579 -0.00178013 7.97773e-25)
(0.999023 -0.00171776 -8.43607e-23)
(1.14763 0.112083 -7.26792e-21)
(0.999971 -2.96057e-05 -2.20415e-24)
(1.00027 -0.000147424 -7.80024e-24)
(1.00256 -0.00140056 -2.59524e-24)
(0.968829 -0.00496212 8.62119e-22)
(1.02511 -0.0137576 1.05827e-21)
(0.979965 -0.0416968 -2.12476e-21)
(0.961146 -0.0078063 -5.04781e-22)
(1.02715 -0.0842704 9.4464e-22)
(1.08182 -0.18644 -2.90433e-21)
(1.0383 -0.03802 1.69651e-22)
(1.03499 0.0748173 -2.48878e-20)
(1.24282 0.0323195 -2.38066e-21)
(0.99129 -0.00356955 -3.57391e-23)
(0.896389 0.10035 2.90484e-20)
(0.972586 -0.0827462 3.23631e-21)
(0.991617 -0.0135057 1.43368e-22)
(0.9622 -0.00646194 8.26018e-22)
(0.998111 -0.0248339 -8.27381e-23)
(0.970861 -0.00358638 1.32141e-21)
(0.986599 -0.00545901 -2.62579e-22)
(1.03535 -0.0147348 -1.59871e-21)
(1.16939 -0.0554613 -4.55673e-22)
(0.999966 -5.75698e-05 -1.83704e-25)
(1.03056 -0.014786 -1.8122e-22)
(0.999874 -4.00311e-05 -3.00027e-24)
(1.01322 0.110438 5.08717e-21)
(1.17243 0.0964335 4.50704e-21)
(0.993689 -0.0026514 8.81595e-23)
(0.980771 -0.00248233 -1.19377e-21)
(0.999757 -7.15933e-05 -1.51688e-23)
(0.999204 0.0560902 1.57787e-20)
(1.03796 0.124485 1.15359e-20)
(1.14302 0.0381441 -1.34401e-21)
(1.1549 0.140903 -5.87126e-21)
(0.973146 -0.0878617 -1.41493e-21)
(0.998673 0.00832277 -2.40248e-20)
(0.99992 -0.000176935 2.80575e-24)
(1.06382 -0.030192 1.66818e-21)
(0.974399 -0.00218888 -4.77498e-23)
(1.11202 0.0861716 -1.88991e-21)
(0.92792 0.0697889 -2.27418e-20)
(1.17626 0.0624504 2.36153e-21)
(1.06055 0.0393178 7.76265e-22)
(1.00047 -0.0165354 -5.31753e-23)
(0.999738 -0.000111535 -1.3865e-23)
(1.15753 0.124228 2.4232e-21)
(1.24186 -0.0176702 6.56767e-22)
(0.996342 0.0700881 -4.82148e-22)
(1.12313 -0.00113942 2.41131e-21)
(1.03786 0.0607508 7.33896e-21)
(0.990752 -0.00319341 -1.23097e-22)
(0.992201 0.0924079 7.07404e-21)
(1.04258 0.118521 4.04289e-21)
(0.988132 -0.00459554 -7.35639e-22)
(0.990137 -0.00425655 -2.73603e-22)
(1.16932 0.112817 6.74271e-23)
(0.898565 -0.0265991 -3.32019e-21)
(0.999891 -0.000205193 -4.37734e-24)
(0.982933 -0.00749073 1.15704e-21)
(0.907553 -0.0371439 2.45068e-21)
(0.994627 -0.108426 -4.14271e-22)
(1.01241 -0.00304987 -1.10467e-21)
(1.01108 -0.0074213 6.90904e-23)
(0.99984 -0.000255571 -8.26901e-24)
(1.04054 0.130981 -1.7341e-20)
(1.00086 -0.0150231 8.15588e-24)
(0.999867 -7.89274e-05 2.6576e-24)
(1.03702 -0.0769377 1.13602e-21)
(0.999364 -0.000567692 1.65105e-23)
(0.999712 -9.92656e-05 1.05038e-24)
(1.00735 -0.0156845 -6.9963e-23)
(1.0688 0.0895105 1.33526e-20)
(1.04545 -0.142127 1.97497e-21)
(0.948742 0.0708553 1.3292e-20)
(1.00008 -1.24684e-05 -4.23603e-24)
(1.07511 0.09371 -1.38812e-20)
(1.02545 -0.066876 8.22403e-22)
(0.999902 -0.000252667 -1.24103e-24)
(1.00003 -8.30451e-06 -1.29423e-24)
(1.00265 0.0117806 -1.29396e-21)
(1.06358 0.0777539 5.01825e-21)
(0.994904 -0.00325263 7.63722e-23)
(1.05825 0.0610957 -6.54176e-21)
(1.00004 -2.67573e-05 9.40229e-25)
(1.05835 0.0675376 -9.01782e-21)
(1.21205 -0.139063 3.52071e-21)
(0.987469 -0.00412716 8.08916e-22)
(0.99934 0.0133133 -3.2578e-20)
(0.972039 -0.0688912 2.14024e-21)
(1.15936 0.134005 5.64177e-21)
(0.964026 -0.00641843 5.10163e-22)
(1.06388 0.0710763 1.17592e-20)
(1.06941 0.081632 -3.63512e-21)
(0.978579 -0.011504 1.88192e-21)
(0.971689 -0.0142716 -1.38389e-21)
(0.993835 -0.0133979 4.31282e-22)
(0.996374 -0.000969145 -6.52751e-23)
(0.999744 -0.000249275 1.59049e-23)
(1.00053 -0.0144084 -1.52841e-23)
(1.05398 0.112524 -2.05124e-21)
(0.999964 -4.52177e-05 5.6053e-25)
(1.05289 0.0584121 8.65053e-21)
(1.06465 -0.137998 3.16236e-21)
(1.00806 0.0747186 6.13097e-21)
(1.0525 0.0528237 -9.86786e-21)
(0.903368 -0.0349213 -2.99043e-22)
(0.956016 0.0905898 -2.77203e-20)
(0.998002 -0.0015196 5.54043e-24)
(1.02334 -0.0329735 2.28858e-22)
(1.08175 -0.0939961 8.30659e-22)
(0.972168 -0.00337254 -8.24583e-23)
(0.991828 -0.00448077 3.64773e-22)
(1.02202 -0.0691772 -7.25473e-22)
(1.07132 -0.0188162 -1.71887e-22)
(0.905674 0.0629493 3.57121e-20)
(1.00006 -2.47758e-05 4.56789e-24)
(0.997637 -0.00162236 7.43699e-23)
(1.03695 -0.0993423 5.78083e-23)
(1.00002 -6.69692e-06 1.53617e-25)
(1.01401 0.117381 2.50191e-21)
(1.00222 -0.00155489 0)
(1.00002 -9.04193e-06 1.18026e-25)
(1.00025 -0.000114305 1.83425e-23)
(1.0005 -0.000160366 3.65749e-25)
(0.981727 -0.0281038 1.41969e-21)
(1.03046 -0.0205631 -6.01799e-22)
(0.998091 -0.00118726 1.17219e-22)
(0.99989 -2.30051e-05 5.55654e-24)
(0.991275 -0.00420371 2.02559e-22)
(1.00655 -0.0163692 -4.86703e-23)
(1.01032 -0.160354 -2.91502e-21)
(0.911629 -0.01169 2.34836e-22)
(1.02414 -0.012305 1.86756e-21)
(0.999966 -3.66576e-06 1.75297e-24)
(1.16231 -0.176676 4.24948e-21)
(0.983174 -0.0052219 -4.63365e-22)
(1.15494 0.103913 -3.65536e-22)
(1.00029 0.0103278 -4.46346e-21)
(1.00167 -0.00455155 2.63716e-23)
(1.14128 0.0920159 -6.83521e-21)
(1.0002 -0.000123024 -6.61893e-27)
(0.984014 -0.00584292 1.34736e-23)
(1.02902 0.00112916 -3.19484e-21)
(0.991881 -0.00509958 -1.49374e-22)
(1.07089 0.105279 -8.03984e-22)
(0.983974 -0.0091265 -8.74812e-22)
(1.06526 -0.0266366 -1.48677e-21)
(1.02935 0.00197529 -3.43624e-21)
(1.0735 0.0496789 -1.96348e-21)
(1.01046 -0.0194033 -2.73154e-22)
(0.98731 -0.00587412 2.18172e-23)
(1.09629 0.0884666 5.84763e-21)
(0.986539 -0.120547 -2.42397e-21)
(1.00088 0.115886 2.10202e-20)
(0.988847 -0.00662701 -8.53212e-22)
(1.07541 0.133502 -1.49686e-22)
(0.9888 -0.00580909 2.27951e-22)
(0.998576 -0.000680086 -7.64218e-24)
(1.06006 0.0352853 2.19666e-21)
(1.02195 -0.0379665 -7.96267e-24)
(1.04488 0.00503753 4.7169e-21)
(1.0023 -0.00107471 3.85776e-23)
(1.00002 -7.30316e-06 5.40494e-26)
(1.03228 -0.179386 1.10288e-21)
(1.1305 0.141794 -8.7797e-21)
(1.00197 -0.00441542 -3.69407e-23)
(1.15139 0.0940869 6.16658e-22)
(0.984875 -0.0084924 -5.73038e-22)
(1.15247 -0.188094 -1.72394e-21)
(1.06429 -0.0479158 -6.02438e-23)
(0.979669 -0.0443899 1.19704e-21)
(0.997948 -0.00132415 -4.95981e-23)
(0.989079 -0.0014662 -1.72679e-22)
(0.974725 -0.104334 -1.36017e-21)
(0.961126 -0.0139273 1.89827e-21)
(0.988089 -0.00542412 6.02048e-22)
(0.999822 -0.000578438 7.01219e-24)
(0.992937 0.122009 -2.60178e-21)
(1.13787 0.0827674 4.11267e-21)
(1.03129 -0.0123961 -5.83031e-22)
(0.999754 -0.000194253 1.06668e-23)
(1.03973 0.112167 -7.81233e-21)
(1.00001 -3.18567e-05 2.37428e-25)
(0.999773 -0.000173277 2.11124e-23)
(1.12816 0.0811078 3.67501e-21)
(1.01561 -0.0321275 1.2123e-22)
(1.14025 0.128568 7.05818e-21)
(1.02922 -0.00297877 1.32338e-21)
(1.02219 -0.0155409 -1.21663e-22)
(1.12929 -0.070071 9.46081e-22)
(1.1004 -0.164982 3.27483e-21)
(1.23014 0.0651613 2.28884e-22)
(1.00161 -0.00111185 -8.49088e-23)
(0.937726 -0.0250483 -1.85936e-22)
(0.999977 -7.56709e-05 -3.86402e-25)
(1.00685 -0.0142339 5.06827e-23)
(1.07539 0.100666 4.95177e-21)
(0.979756 -0.0107464 1.31445e-21)
(0.99658 -0.00193875 1.03141e-22)
(1.02404 -0.0530185 -4.62324e-22)
(0.997594 -0.00143177 7.10437e-24)
(0.999523 -0.00142392 2.17679e-23)
(0.897686 0.0146633 6.38369e-21)
(0.988164 -0.00714304 -4.82719e-22)
(0.999333 -0.000940283 -6.41901e-23)
(0.999978 -7.94122e-07 -3.66109e-25)
(1.02002 0.00829579 6.91639e-21)
(0.965756 -0.038388 -2.88589e-22)
(0.999602 -0.00070966 1.92095e-23)
(0.996583 -0.00112836 1.33009e-22)
(1.02719 0.0263367 2.82596e-21)
(1.08252 0.0166385 4.86412e-22)
(0.949854 -0.0351037 -1.64558e-21)
(1 -2.03541e-05 8.2122e-26)
(1.00102 0.0105332 1.87628e-20)
(0.983213 -0.0243215 -9.62337e-22)
(1.08203 0.0819436 -9.69331e-21)
(1.01597 -0.00149043 -1.67787e-21)
(1.01843 -0.00152884 3.82917e-21)
(0.95885 -0.0174224 2.58572e-21)
(0.999882 -8.35623e-05 -1.73811e-24)
(1.02863 0.000564896 -6.31955e-22)
(1.08865 0.0138806 -6.41689e-22)
(1.20757 0.0698119 1.15272e-21)
(1.07169 -0.129441 6.73294e-22)
(1.05029 0.106398 6.11193e-21)
(1.00708 -0.00211413 -2.72354e-23)
(1.10393 0.0926236 -8.03244e-21)
(1.00077 -0.0193475 -9.07102e-23)
(1.03125 -0.0746195 -1.97742e-21)
(0.999519 -0.000213757 -2.08143e-23)
(1.00555 -0.025424 1.40809e-22)
(0.999876 -0.000553978 2.60098e-24)
(1.0558 0.0428013 -6.53041e-21)
(1.09673 0.142645 -1.70814e-20)
(0.998195 -0.00156199 3.94157e-23)
(1.02405 -0.0155881 2.55582e-23)
(0.977689 -0.00649264 4.52777e-22)
(1.07329 -0.111098 2.99261e-22)
(1.06741 -0.119747 -1.58297e-21)
(0.997712 -0.00113069 7.81209e-23)
(1.05976 -0.0313998 -5.59791e-22)
(0.906823 0.00432852 -1.07773e-20)
(1.20472 0.0498778 4.49231e-22)
(0.999934 -0.000215084 6.0461e-24)
(1.07713 0.0130256 -1.73453e-21)
(0.996714 -0.0120945 -2.10728e-22)
(0.995632 0.0021917 2.28178e-20)
(0.984839 -0.00742842 7.96064e-22)
(0.996823 -0.0363141 -2.71014e-22)
(1.02663 -0.046425 -2.71938e-23)
(0.995105 -0.0377119 -4.07978e-23)
(0.999649 -0.0286444 -6.08644e-22)
(0.990687 -0.00456009 1.39657e-22)
(0.999583 -0.0192401 3.23363e-22)
(1.00264 -0.00823436 -4.14657e-23)
(1.0735 -0.0231728 4.06799e-22)
(1.00013 -3.12654e-05 -1.18045e-23)
(1.2469 -0.0874842 -1.48364e-21)
(1.19195 0.00427786 -2.73084e-22)
(1.02664 0.12823 1.42909e-20)
(0.952474 -0.0330944 2.48879e-21)
(1.13067 0.124054 -3.617e-21)
(1.00244 -0.000834068 1.37746e-22)
(1.10159 -0.0890084 -2.44949e-23)
(1.01013 -0.0516824 -6.73882e-22)
(1.02335 0.0453665 8.20228e-21)
(0.991365 -0.00551456 3.46733e-22)
(1.00014 -0.000237145 7.7991e-24)
(0.984234 -0.025276 1.2542e-21)
(0.99492 -0.0129996 -1.63601e-22)
(1.05575 -0.0286258 1.26839e-21)
(0.963222 -0.0106266 -1.60631e-21)
(0.970106 -0.0133587 4.5732e-22)
(1.16087 -0.0305626 -5.90691e-23)
(0.981258 -0.00419264 -7.87976e-22)
(1.02352 -0.0489887 3.04546e-22)
(0.997902 -0.114558 1.7518e-21)
(1.00001 -1.07066e-05 1.00599e-25)
(1.07454 -0.0136043 2.37887e-21)
(0.998528 -0.10234 -4.59749e-21)
(1.13687 0.108689 3.30052e-21)
(1.13122 -0.0787747 -1.80715e-21)
(1.04297 0.00437571 3.97358e-22)
(1.05382 -0.135257 -4.02086e-21)
(1.05121 0.139021 3.73896e-21)
(1.04861 -0.0435506 2.93486e-22)
(0.956889 -0.0161451 -1.53036e-21)
(1.02493 -0.0620246 -9.54967e-22)
(0.959017 0.00613653 1.02058e-20)
(1.20911 -0.100045 9.08784e-22)
(0.98395 -0.00692156 -2.42106e-22)
(1.0633 -0.169988 -3.15181e-22)
(1.04452 -0.0862837 1.37054e-21)
(1.08063 -0.151548 -5.95703e-22)
(1.06845 -0.102617 -1.64047e-21)
(1.0956 0.0807413 7.46116e-21)
(0.996617 -0.00222883 6.79246e-24)
(1.0088 0.0502036 3.07458e-21)
(1.00955 -0.00202948 1.98361e-22)
(0.999524 -0.000718301 -2.75667e-23)
(0.998582 -0.0030999 1.96152e-22)
(1.07231 0.00466631 -6.01809e-22)
(0.852894 0.00512963 3.10689e-22)
(1.0022 -0.00881956 2.063e-23)
(1.03053 -0.0691303 2.81999e-22)
(1.0274 0.0301298 -4.69125e-21)
(1.00003 -9.52841e-06 -2.25968e-25)
(0.973175 -0.0133758 1.10377e-21)
(1.02796 -0.0116407 1.34221e-21)
(1.09905 -0.044544 1.15732e-22)
(1.00971 -0.00100935 1.11302e-21)
(0.998075 -0.00277572 3.57065e-23)
(0.982423 -0.056298 1.74591e-23)
(0.997566 -0.0115938 -6.32702e-23)
(1.00004 -7.86145e-06 2.47872e-24)
(0.975006 -0.0672002 -3.61342e-21)
(1.06054 0.0990659 -2.15313e-21)
(1.02834 -0.040124 1.4297e-22)
(0.978737 -0.00733297 -8.44655e-22)
(1.00222 -0.000573027 -4.93794e-23)
(1.0311 0.032207 6.17771e-21)
(0.999536 -0.000875639 -1.2696e-23)
(0.99848 -0.000891843 -3.97298e-24)
(0.999561 -0.000233716 -1.89786e-23)
(0.999124 -0.00292112 -4.92296e-23)
(1.19412 0.0706383 1.47277e-21)
(1.0401 -0.0445833 1.14802e-22)
(1.01143 -0.0245023 7.0957e-23)
(0.977317 -0.0108429 -3.86147e-22)
(1.00006 -6.9917e-05 2.40833e-24)
(1.1231 -0.151643 4.46247e-21)
(1.24149 -4.40381e-05 6.88055e-23)
(1.13345 -0.162207 -2.14807e-21)
(0.999242 -0.0461867 -5.1088e-22)
(1.01744 -0.0117087 1.25214e-21)
(0.99974 -0.000136552 8.75089e-24)
(0.986021 -0.0164438 -5.027e-22)
(0.947785 -0.0712015 -2.06242e-21)
(1.19316 0.0515204 3.82132e-22)
(1.00636 0.0722215 -2.21184e-22)
(0.998633 -0.00439249 3.96936e-23)
(0.925834 -0.0513781 1.12783e-21)
(0.994201 -0.00385961 -3.32456e-22)
(1.04557 -0.0402565 7.74568e-24)
(1.10992 0.0775397 7.18546e-22)
(1.00054 -0.000181744 -4.15537e-23)
(0.999807 -0.000295366 -3.23987e-24)
(1.16698 0.119852 6.10155e-22)
(1.189 0.0306549 1.27219e-22)
(1.02332 -0.019445 4.48793e-22)
(0.996383 -0.00243091 1.75615e-22)
(0.997424 -0.000646914 -1.73686e-23)
(0.958109 -0.0715289 5.05941e-22)
(0.999788 -0.000484049 -1.06754e-23)
(1.02572 -0.0426862 -4.15055e-23)
(0.983009 -0.00205667 1.61704e-21)
(1.00038 0.012196 -3.7075e-21)
(1.06523 0.105198 -1.12395e-21)
(1.09384 -0.0827709 7.09322e-22)
(1.00429 -0.102195 1.69463e-21)
(1.00797 -0.00182752 5.49876e-22)
(1.0204 -0.0319508 -3.11665e-22)
(1.1812 0.0113285 2.0049e-22)
(1.00536 -0.114109 -1.07418e-21)
(1.02861 -0.0592201 5.42228e-22)
(0.999998 -1.05292e-05 4.28117e-26)
(1.16778 -0.0070733 -3.44311e-22)
(0.966205 -0.00431615 1.53503e-22)
(1.0062 -0.12726 2.14436e-21)
(1.02727 -0.0368444 -3.87968e-22)
(0.940834 -0.0236425 -3.41701e-22)
(0.999507 -0.000409153 -9.26617e-24)
(0.996322 -0.00181687 -7.83903e-23)
(1.0475 0.0504033 7.62344e-21)
(0.96105 -0.0162543 -5.80538e-22)
(0.999981 -3.14624e-06 3.81858e-25)
(0.996452 -0.000754892 -1.83685e-22)
(1.20259 -0.0838018 -5.27527e-21)
(0.999795 -7.15754e-05 2.214e-23)
(1.03428 -0.0659384 -1.87127e-22)
(0.99994 -0.000170767 -4.63522e-25)
(1.00906 -0.0182055 -3.13776e-24)
(1.0091 -0.15324 1.34029e-21)