/*--------------------------------*- C++ -*----------------------------------*\
  =========                 |
  \\      /  F ield         | OpenFOAM: The Open Source CFD Toolbox
   \\    /   O peration     | Website:  https://openfoam.org
    \\  /    A nd           | Version:  7
     \\/     M anipulation  |
\*---------------------------------------------------------------------------*/
FoamFile
{
    version     2.0;
    format      ascii;
    class       volScalarField;
    location    "24";
    object      p;
}
// * * * * * * * * * * * * * * * * * * * * * * * * * * * * * * * * * * * * * //

dimensions      [0 2 -2 0 0 0 0];

internalField   nonuniform List<scalar> 
7724
(
0.176883
-0.00309627
0.557312
0.327644
-0.00161405
-5.78084e-05
0.589172
-0.00995245
-0.000201526
0.142578
-5.41026e-05
0.00462655
-0.0148979
0.0705934
0.148641
-0.0197889
0.181029
-0.0193562
0.00196038
-0.0916722
0.0924221
0.0030624
0.0515595
0.2832
-0.025133
0.204842
-0.00149239
0.0869722
0.234747
0.00457472
-0.0266112
1.02344
0.0506819
-0.000890595
-0.00018003
0.116574
0.00526578
0.56435
-0.00844469
-0.000617103
-0.00773037
-0.018943
-0.0950433
-0.0778545
-0.000360053
-0.000138241
0.00300383
-0.0087685
-0.000111513
-0.0904502
0.00691262
0.0824227
-0.0316016
-0.00594671
0.115285
-0.00888803
0.0021016
-0.00992213
-0.0408449
-0.000927695
9.29275e-05
0.00883955
0.0710529
0.00510266
-0.00181634
-0.0261267
-0.00015618
1.0284e-05
0.012523
-0.00824792
-0.00012555
-0.0723253
-0.0243369
-0.0406468
-0.0187667
-0.0576553
0.542725
0.0907939
0.0587449
-0.0779941
-0.0142981
0.537875
0.131467
-0.042721
-0.00269525
-0.00431851
-0.0106487
-0.0306889
-0.00121357
-0.0084135
0.240363
-0.0993846
-0.000231277
0.00225222
-0.00668671
-0.042186
-0.068538
-0.00197375
-0.00297693
-0.00217012
-0.0694037
0.0673208
-0.00633881
-2.99114e-05
-0.0938913
0.239801
0.874459
-0.00945613
-2.03868e-07
0.0459652
0.307007
-0.0622282
-1.56672e-06
0.0487215
0.241911
0.0009205
-0.0819839
0.191637
-0.0518012
-0.0417851
-0.0720136
0.51116
-0.0898747
0.0192554
-0.0701883
-0.0018052
-0.0241158
0.00369856
-0.00192253
-0.0269594
-0.152897
0.0620878
-0.00112183
-0.00143572
-0.0441875
0.29958
0.670527
-2.55578e-05
0.0153887
-0.089817
-0.038524
-0.0626742
-0.0583206
-0.0391469
0.885258
-0.0267447
0.235985
-0.0400706
-0.0531216
0.509095
0.111116
-0.0840167
-0.00284215
-0.00404273
0.131361
0.503951
-0.0662558
-0.0148261
0.797671
-0.000100305
0.00105886
0.29434
-2.47889e-05
-0.00393562
-0.00752874
0.376856
0.377916
0.834782
-0.00444916
-0.00586659
1.19636e-05
-0.074386
0.00090413
0.0053422
0.0167146
-0.0525133
-0.0719082
0.110417
-0.00022959
-0.000933928
0.328945
-0.000100192
-0.000194148
0.583806
-0.0102184
-0.0514845
-0.0488672
-0.0386969
-0.0309007
-0.0877614
-2.82114e-05
-0.0662502
0.110488
-0.00640324
0.000160669
0.193418
-0.00235701
-0.0253818
-0.0293301
1.37881e-05
0.00185178
0.312955
0.141963
0.519972
-0.074706
-0.056565
-0.136504
0.0946523
0.314128
-0.000386873
8.31549e-05
0.819398
-0.0168145
-0.00116802
-0.0634002
-0.0252454
0.445225
0.464544
-0.0686829
0.967054
-0.0021822
-0.0189294
-0.0711233
0.112533
-0.11646
0.122106
0.803644
0.000147492
0.0202327
0.205391
-0.00798483
0.186166
-0.00102244
0.901251
0.496486
-0.0105619
0.00542164
-0.000571279
0.0477403
-0.000164103
-0.0123434
-0.0853785
-0.000124868
-0.00256815
-0.00080163
0.176983
-2.38023e-05
-0.00873136
-0.0760755
1.02353
0.0535884
0.883218
-7.33684e-05
-0.0325836
-0.000335733
0.534294
0.00847583
0.671797
0.00263443
0.00157437
0.00569279
0.0991059
0.00123151
-0.000422472
0.00109514
-0.00842047
-0.0521899
-6.80111e-05
-0.0641663
-0.00717425
-0.000256878
-0.00120829
0.630041
-0.0148626
-0.00148787
0.976952
-0.00282579
0.25484
-0.000378292
-0.000123701
1.93483e-05
-0.0464889
0.10825
-0.0659273
-0.0413022
-0.00078077
-0.0800517
-0.0287861
-0.000331419
0.00105851
-0.00429152
-0.0143672
0.00620673
-0.00241211
-0.0408745
-0.0457197
-0.0402838
-0.0649169
-0.0504199
0.448187
0.47576
-0.00292827
-0.106022
-1.02549e-05
-0.00469205
-0.0422448
0.274859
0.147369
0.000218393
-0.00433362
-0.0490301
0.206814
-0.00194617
0.00757862
0.00259641
0.0130076
-0.156553
0.346351
-0.00313821
-0.00746727
-0.000204349
0.0084531
-8.87664e-05
-0.0326588
-0.000658536
0.00760066
-0.142977
-0.0513875
0.00261268
0.0182588
-0.00143877
0.0390441
-0.0149818
0.086131
0.18693
-0.173816
-0.0807354
-0.0294359
0.0107431
-0.0832374
0.855006
-0.0702515
0.0605442
0.945503
-0.00302848
-0.00344106
-0.0892913
-0.00212625
-0.0225524
0.0133456
-0.00553952
-0.00411921
0.214273
-0.000110479
0.00117807
0.000176914
-0.00672134
-0.0138624
-1.28099e-05
-0.00215707
-0.0392461
0.807193
0.00381949
-0.016461
0.738385
0.440806
0.0773878
-0.0946204
-0.0749935
0.0103432
0.360786
-0.0209369
0.334771
-0.0361464
-0.104575
0.156053
0.32722
-0.0601955
0.137715
0.0992051
0.282847
0.092113
-0.00601856
-0.00832296
-0.00015632
0.00404677
-0.0213415
0.00207656
-0.000192983
-0.00318907
-0.079526
0.0607805
-0.031039
-0.00565049
-0.00747357
-0.00869329
-0.0136805
0.003568
0.0842648
-0.00372643
-2.74251e-05
-8.35198e-05
0.000122466
-0.0372926
0.208459
-0.00791396
0.0562735
-0.126963
0.554409
0.00669977
0.0140689
-0.0100594
0.604871
-0.00208742
0.331875
0.241661
-0.0002117
-0.0390683
-0.00648898
-0.0600871
0.00120754
0.0896094
0.00616677
0.013049
-0.001681
0.157052
0.21525
-0.0594427
-0.0395606
-0.00455876
-0.0320037
0.00229045
1.00383
-0.0737399
0.00928665
-2.2785e-07
-0.0245453
-0.00450471
0.0357727
-0.103975
-0.112657
0.615543
0.187871
-0.124887
0.19824
0.590922
0.0564917
0.00253846
0.356877
-0.0017719
-0.00034104
-0.0314896
0.00020035
-0.149514
-0.00130057
-0.0421526
0.00401526
0.209112
-0.0035293
-3.29232e-05
-0.110686
0.00365641
0.0141055
-0.0670672
-0.0881775
-0.0907071
0.208463
0.171737
0.176825
-0.000387927
0.0463795
0.0938765
-0.00102545
-0.0299201
0.00129735
0.0102217
-0.00644848
0.00992221
-0.00152728
0.0561574
-2.70748e-05
0.000438771
0.00416112
-0.0386447
0.0412629
-0.0397286
-0.0446636
-0.0477149
-0.128784
0.0104873
0.339009
-0.123786
-0.0127718
0.914949
-0.0671722
-0.0145019
-0.044882
-0.0122119
-0.0364356
-0.0190217
0.0545871
-0.0797683
-3.57134e-05
0.0480202
-0.000172699
0.478375
0.0112825
-0.00945945
-0.0254599
-0.000354741
0.542231
0.381152
0.0289171
0.027998
-0.0719614
0.697461
-0.0001016
0.027764
-0.0320748
0.127073
0.850128
-0.00786229
0.186494
-0.00399745
-0.000383983
0.0207186
-0.135933
0.569036
0.019462
0.29612
-0.0134772
0.575232
0.36248
-0.016937
-0.014426
0.0167914
-0.0896216
-0.000143908
-0.0235309
-0.0865311
-0.0755832
0.0228778
0.0187747
-0.00022346
0.374685
-0.00230141
-0.000185804
-0.040697
-0.000954008
-0.000423795
0.00647803
0.246848
-0.0985885
0.780782
0.000145753
0.233729
-0.0326185
-0.000123236
4.59767e-05
0.230652
0.250559
-0.00779163
0.237888
6.5981e-05
0.249085
-0.168325
-0.0177199
0.62821
-0.060649
0.027193
-0.0430352
0.240025
0.238701
-0.0290014
-0.0364776
-0.0115133
-0.00548119
-0.000373313
-0.00249465
0.316506
-3.94582e-05
0.246852
-0.0966037
0.470788
0.235988
-0.0881988
0.743898
-0.0030796
0.0073266
-0.0614332
-0.034855
-0.0121675
-0.0367193
0.0440754
0.910426
0.000103133
-0.00363465
-0.0596088
1.62053e-05
0.48368
0.00371333
1.62348e-05
0.000418679
0.000807514
-0.0309863
0.0343332
-0.00292474
-0.000150833
-0.0128938
0.00439653
-0.112105
-0.0811048
0.0421236
-3.42403e-05
-0.156963
-0.0230096
0.0387358
0.474518
0.00228268
0.065939
0.000336468
-0.0220572
0.128872
-0.0122138
0.249732
-0.0226451
0.0318929
0.133681
0.179488
0.00816758
-0.0181411
0.168908
-0.0891208
0.537321
-0.0163934
0.250464
-0.0162821
-0.00217945
0.178282
-0.000317275
0.121318
0.00380433
1.39813e-05
-0.122271
0.0811094
0.00287798
0.0445117
-0.0215339
-0.156124
-0.00154383
-0.0411168
-0.00315752
-0.0154805
-0.0776383
-0.0458894
-0.0171463
-0.000255163
0.57538
0.0696078
0.0556136
-0.000357299
0.369651
1.9085e-05
-0.000327517
0.0897777
0.00104924
0.0737642
0.0854753
0.0323784
-0.0608621
-0.129582
-0.088393
0.00264656
-0.0654219
-1.86605e-05
0.0070148
0.241585
-0.0277139
-0.0052466
-0.017349
-0.00367984
-0.000746503
0.956373
-0.0172951
-0.00101713
-7.98577e-06
0.190821
-0.0485596
-0.000599356
-0.00518696
0.220539
0.100325
-0.0592464
1.03486e-05
0.247768
-0.0276276
0.203465
0.0321113
0.039504
-0.0483716
-0.000162007
0.130521
0.0873191
-0.0567289
-0.0897042
0.326637
0.0120189
0.154498
-0.00523813
-0.0387383
-0.000725379
-0.00361949
-0.000172088
0.204594
0.18003
-0.00278298
0.0359558
-0.0292875
-0.0740664
-0.0819707
-0.00347499
0.0254293
0.900902
-0.0595532
-7.93847e-05
0.101682
-0.00719606
0.751405
-0.0213391
-0.0215072
-0.00774918
-0.0247875
-0.0132116
-0.0137
-0.00672248
0.00293496
0.0347465
0.000231019
-0.169324
-0.0616825
0.426177
-0.0570895
0.0915492
0.00405524
-0.0613268
-0.0238897
0.287734
-0.0129398
0.000238777
-0.027093
-0.00999869
0.0298246
-0.0439778
-0.0380054
-0.048491
-0.0247877
-0.0131089
-0.0814363
1.57617e-05
0.0521482
-0.0709974
0.0774267
-0.0713203
0.121123
-0.0915707
0.331158
0.0044109
-0.0499372
-0.0275532
0.802539
-0.140467
-0.022328
-0.119608
-0.048377
-0.110587
-0.0666407
0.166086
-0.0052226
0.351024
0.0171387
-0.000718902
-0.00229338
0.0912409
1.03699
0.00204127
-0.0336558
0.231246
5.46091e-05
-0.0349769
0.0514213
-0.0114897
0.0173772
-0.00307388
-0.0468749
-0.00585456
6.88429e-05
-0.0578283
0.286177
0.00144299
-0.0281444
0.00375448
0.229844
-0.000695825
-0.00233174
-0.000659157
-0.00145881
-0.035378
-0.000327608
0.00477099
-0.0302344
0.000107612
-0.123453
-0.129185
-0.138539
-0.0272344
0.0282708
-0.000381199
-0.0221811
-0.0744076
-0.0404641
0.477554
-0.00238655
-0.079443
-0.00887676
0.00861101
0.12826
0.000892068
-0.00027095
0.0190258
-0.0444322
0.0275164
-0.00557686
-0.00389423
-0.0690017
-0.000306012
-0.00373035
-0.0228241
0.410136
0.272594
-0.0537499
-0.0689449
0.0141548
0.00586267
-0.0429466
-0.0790007
-0.0225043
2.83619e-06
-0.0389701
-0.0414833
-0.0859309
0.00512918
-0.0634404
-0.000733783
-0.00563352
0.242912
-0.0465363
-5.71165e-06
-0.00528809
-0.128146
-0.000294068
-0.0283201
-7.22337e-05
0.00718384
-0.109399
-0.0521421
-1.71174e-05
7.24246e-05
0.164693
-0.0576677
0.549835
0.245131
-0.0344875
-0.00109166
-0.0214447
0.000453057
-0.146698
-0.102212
-0.0823957
-0.0274299
0.196314
0.013538
0.000562079
0.00880212
-0.132941
0.00385582
-0.0349942
-0.0722775
0.00136364
0.030561
0.0913981
0.0123825
-0.0375812
-0.0844398
0.243489
-0.0421314
1.26478e-07
-0.116447
-0.0765589
-0.0504651
0.00693699
0.00150486
0.0107632
-0.109308
0.0440796
-0.0433739
0.0920568
-0.0592681
0.0101891
0.026684
0.0157986
-0.044265
-0.147745
-0.000165299
0.188953
0.269888
0.0111891
0.104464
-0.0844439
0.0611697
-0.057678
0.257114
0.12791
0.87896
1.24935e-05
0.113867
0.212192
0.0209566
-0.00212711
-0.0237112
-0.0550149
0.000102948
-0.0237455
-0.0613825
-0.0259111
-0.0286055
0.000274284
-0.128263
-0.000517176
-0.00124744
0.316691
0.00897184
-0.0284326
0.0277422
0.269496
0.0145743
-0.000545304
-0.127927
0.0110462
0.510327
0.00192042
-0.0640456
-0.00029343
-0.000780548
0.00912063
-0.068896
-2.90429e-05
-0.0143914
0.0382778
-0.00281151
7.37867e-05
-4.43035e-05
0.194546
-0.0583337
0.00952234
-0.0015847
0.012052
0.0219946
0.0118119
-0.000394271
0.362116
-0.115111
0.284983
0.301279
-0.000285665
-0.0333084
0.112588
-0.00109343
-0.000358506
-0.000589544
-0.0298341
0.0171973
-0.0174267
-0.0278707
-0.0768193
0.213504
-0.114304
2.37724e-05
-0.0251809
-0.024339
-0.0448704
-0.00610685
0.00842734
0.00185785
0.0382894
-0.00072195
-0.000305769
-0.0226857
-0.00602008
-0.0320583
-1.73565e-05
-0.0193645
0.0454458
-0.039659
-0.0440843
-0.0114557
-0.0154195
-0.0120904
-0.00726198
0.00865995
-0.0124868
-0.0001314
-0.000550737
0.0312499
-0.0160238
-0.00688369
0.0117835
0.0033791
-0.138993
-0.0145875
0.199129
-0.0164827
-0.065284
-0.0321782
-0.0292946
-0.0202834
-0.00524239
0.00323253
-0.00491547
-0.018263
-0.0209338
0.217367
0.158585
0.0572449
0.468427
-8.82863e-05
-0.00464244
-0.0213269
-0.0107604
0.0644255
-0.0261779
0.0495489
-0.00602291
0.216156
-0.00269533
-0.00225394
0.0144822
-0.0254215
-0.000285611
-0.0291104
-0.0081687
-0.0269004
-1.88534e-05
-0.00919946
0.00290756
-0.0227694
0.0394019
0.0482551
0.0263279
-0.0182562
-0.0401044
0.147657
-0.00176423
-0.00272699
-0.00293873
0.726892
-9.55851e-05
0.0809132
-0.0273681
-0.0264085
-0.0337436
-0.0524256
-0.0365975
-0.043408
-0.0237787
-0.00638678
-0.000119817
-0.00593692
-0.0280354
0.125564
0.00247093
0.0835891
-0.0417553
-0.0173283
-0.00126205
-0.0368891
-0.000127526
0.187733
-0.0384675
-0.0335199
-0.0306523
-0.00554858
-0.0422713
-0.00232742
-0.0509565
0.130195
-0.0330717
-0.0873154
-0.00202046
-0.0344811
-0.0239179
0.021337
-0.00449153
0.180748
-0.00332878
-0.0247489
-0.000916096
0.203742
-0.0490207
-0.0338058
-0.00450786
-0.0129148
-0.00382379
0.1807
-0.00230563
0.110549
-0.00676537
-0.00111352
-0.00173742
-0.00322497
0.0946532
-0.0743276
-0.00940023
0.000516458
-0.0108291
-0.0177433
-0.00122999
-0.0206148
-0.0203908
0.0754482
-0.00685439
0.0052979
0.7302
-0.0757036
-0.0366133
-0.070987
6.34106e-05
0.0978355
-0.00491127
-0.0342976
-0.00776068
-0.0450856
0.00584301
-0.000720698
-0.00402563
0.00469807
0.257409
-0.00807029
-0.00247131
-0.0064232
-0.0667239
-0.0113873
-0.0284091
0.00608657
-0.0119232
-0.0123023
-0.00453935
0.257777
-0.0574077
0.00462849
-0.00586605
-0.0351681
-0.0188527
-0.06137
-0.00193163
0.116273
0.0313465
-0.0107674
-0.00238716
-0.0182607
0.739548
0.259168
-0.0152877
-0.000783271
-0.00330172
0.0019344
-0.00551209
0.0287093
-0.000552037
-0.0231368
-0.00272697
-0.0223669
-0.144513
-0.00145507
-0.0157672
-0.00186556
0.421887
-0.00888948
-0.0158113
-0.0535511
-0.00267749
-0.0382341
-0.0278938
0.631415
-0.0145471
-0.015413
-0.00293148
-0.000617768
1.30115e-05
-3.07678e-06
-0.0137555
-0.000903161
0.0768997
-0.000907501
-0.00250676
0.0114391
-0.000336204
-0.0554592
-0.0736188
0.0238616
0.052943
0.0357775
-0.0291414
-0.0567414
0.114892
0.0906847
0.123324
0.156132
-0.0173899
-0.00116313
-0.0081109
-0.0817285
-0.00487701
-0.0200686
-0.0335106
0.344792
-0.0642585
-0.000650178
-1.81005e-05
-0.00202087
6.81726e-06
0.0113338
-0.000750894
-0.00647609
-0.0593077
0.000807197
0.00375085
-0.000280587
0.0676261
-0.0205047
-0.0611498
-0.00166588
0.442641
0.230339
-0.0136552
-0.0937127
-0.0357892
-0.031086
-0.0192446
-0.00258633
-0.0939922
-0.0443983
-0.0535226
-0.119402
-4.24781e-05
0.208319
-0.0231172
-0.0130489
-0.0410267
0.0257999
-0.000716615
-0.0114053
-0.00187099
0.0161611
-0.00211129
0.144236
0.000530513
0.0140763
-0.000555096
-0.128726
0.0124568
-0.00103196
0.00649408
0.00061267
-0.0314851
0.12939
0.00119229
-0.00198262
-0.0001546
-0.000776037
-0.000680282
-0.0741936
0.158903
-0.0312818
-0.000352571
0.0121653
-0.000611152
0.296989
-0.0731978
0.272932
-0.0536439
-0.000604992
-0.000369963
-0.00998528
-0.00775341
-0.000851792
-1.96377e-05
0.0336614
0.0389163
-0.000306621
-0.000432438
-0.0258218
-2.36888e-05
0.214555
-0.00126694
-0.0645116
-0.0249665
-0.00868623
-0.0676496
-0.0746159
0.193365
-0.0294516
-0.0264127
-0.000417901
-0.0688538
-0.0270015
-0.0274605
0.0349905
0.459838
-0.00160647
-0.0720543
0.0153439
0.352857
0.0519388
-0.000147133
-0.00826475
-0.00559358
-0.0067998
-0.0585085
0.102384
0.000287711
0.0198605
0.00418585
0.0768226
-0.000702366
-0.000141445
-0.115434
0.310993
-0.0666554
0.148772
-0.0017285
-0.000257667
-2.17796e-06
-0.107913
-0.0515239
-0.000446061
0.103523
0.0156014
-0.00733542
0.589006
-0.000513991
-0.00508501
-0.0719083
-0.0362987
-0.00313636
0.172296
-0.0778048
-0.000210661
0.0140194
-0.000214358
-0.000119786
0.159449
-0.00260344
-0.000607849
-0.0625248
-0.0316972
-0.00480568
-0.0434269
0.0034456
-0.0295461
0.00239577
-0.00479897
-0.078114
-0.0474212
0.0186418
-0.0012107
0.186954
0.268791
-0.119433
0.0128655
0.0262103
-0.0058767
0.213233
0.114172
-0.0354689
-0.00020324
0.0132895
-0.0665781
0.0123515
-0.0359299
-0.00288944
0.0476461
-0.0353546
-0.000171542
-8.11606e-05
-0.0520348
-0.0336301
-0.033206
0.0132023
-0.0240832
-0.0547101
-0.000184259
-0.00190454
-0.00026081
-0.0439922
-2.42765e-05
-0.00265044
-0.0602326
-0.119848
0.0541393
-0.00408816
0.00588572
-0.0276939
-0.0325758
-0.000157425
-0.0563563
0.031435
0.201367
4.14487e-05
-0.000136641
0.205364
-0.00345203
-0.105965
-0.0498099
0.0048025
0.000721739
-0.0805449
-0.0435328
0.210689
-0.0678231
-0.00200789
-0.0133557
-0.0650367
-0.000774116
-0.000311969
-0.00122462
-0.0367792
-0.0622697
0.108799
-0.000269157
0.766694
-0.0664603
0.00019191
-0.00131175
0.000386752
0.000438446
-1.01199e-05
0.000220991
-0.0639427
-0.000970865
0.00064253
-0.000253407
0.179939
-0.00783027
-0.000246022
-4.03376e-05
0.395995
-0.0278833
-0.0671649
0.00164793
-0.000972791
0.0649972
-0.000114386
-0.0178242
-0.165133
0.00312488
-0.00898517
-0.000115844
-0.000260524
-0.0390776
-0.0797114
0.0101608
-0.142552
-0.0816808
-2.98821e-05
0.0292127
0.0439472
0.139419
-0.00234588
-0.000195955
-0.0686233
-0.00830426
-0.000659505
-0.0602072
-0.000169485
0.0447594
-9.29945e-05
-0.00173067
-0.0647093
-0.00290769
-0.0707821
0.671028
-0.0022457
0.000413829
-0.0673033
-0.0682557
0.0126482
0.00663918
-0.000189644
-0.0395452
-9.64988e-05
0.253765
0.966023
0.0498579
0.00432068
0.00510489
-1.53684e-05
-0.0357064
-5.88498e-05
-0.0101071
-0.00231408
0.000554252
-0.00459203
-0.0130742
-0.000151062
0.00126599
-0.011503
-0.000409415
-0.013698
-0.0215287
-0.0121773
-0.00155801
0.850987
-0.000923046
0.0034807
0.000370546
0.0192395
-0.0605611
0.0133952
-0.000221372
-0.000120311
0.00373106
-0.000130422
-1.98596e-05
-0.0157386
0.00101387
-2.4749e-05
-0.0623669
-0.00313531
-0.0676997
-0.00223607
-7.93708e-05
-0.00427042
-0.0128033
-0.0200296
-0.0315556
0.00332027
0.00076394
-0.000615447
-0.00266364
-8.77829e-05
0.35525
0.00223549
-1.86307e-05
0.000862189
-0.00276216
-0.00045899
-0.076393
-0.0660692
-0.000151118
-0.00945388
2.84633e-05
-0.00363161
-8.55168e-05
0.0475674
-0.000171312
-0.000228187
-0.00489397
-1.66223e-05
0.0187692
-0.00028371
-0.00170634
0.0259941
2.75524e-05
0.512012
-0.0653944
-0.0516945
-2.12915e-05
-2.14709e-05
0.00269538
-0.00159813
-0.063362
-1.605e-05
2.61275e-06
0.00108364
-3.11941e-06
0.000560662
0.000662951
-0.000604257
0.00113971
-0.064013
0.679017
-0.0438581
0.428561
0.0126396
-0.0223867
-1.63555e-05
-0.00118005
-0.016249
0.000227077
0.00042527
0.000259814
0.0410456
-0.00183638
-0.000268539
0.739293
-0.00071899
0.000862293
0.0007387
-4.17684e-06
-0.0623111
-0.00295746
0.00163218
0.000200022
-0.000693852
-7.97558e-05
-0.00124868
-0.054437
-0.000545514
-0.00218384
-1.62217e-06
-0.000738034
-0.000333936
0.248714
-0.000579027
-0.000338906
-0.0832646
0.00531009
-8.7664e-05
-0.00179714
-7.09604e-05
0.225101
-0.0879018
-0.000369384
-0.00050565
-0.00259345
-0.000180803
0.0727138
0.128208
0.0125773
0.000755846
-6.67722e-06
-5.92114e-07
0.0615234
0.000380928
-0.0737789
-0.0329769
-0.0210521
-0.113092
0.861591
0.00279393
0.208329
-0.0194776
-0.0371807
0.22938
-0.000464509
-0.0793332
-1.03093e-05
-0.0120175
-0.0600493
9.17918e-05
-0.0621061
-0.00126883
-0.012241
-0.00754888
-0.0527847
-0.0526044
-0.00437617
-0.0753806
-0.0541435
-0.000234706
-0.0161333
-4.55596e-05
-0.0469389
-2.97143e-05
-0.000233259
0.0167423
0.216868
5.22055e-07
-0.0563111
0.00501894
0.000126929
-0.0276277
1.50565e-05
-0.018056
-0.000324484
-0.0478643
0.00019685
-9.97879e-05
-0.00274512
-3.45771e-05
0.211242
-0.0388128
0.054109
-1.99145e-05
0.000912249
-0.041157
2.30937e-06
-0.0697671
-0.0801724
-0.0677806
0.774279
-0.00868095
-1.70119e-05
0.0353044
-0.051853
-0.00345565
-6.2163e-06
-9.86497e-05
-0.058299
0.00020191
0.0012561
6.27423e-07
0.000250214
-0.0357953
0.0145703
-0.0851662
0.114129
-0.00715514
-1.00131e-06
0.00850745
-0.064496
-2.22957e-05
-1.20983e-05
0.000477551
0.000106032
0.00059892
0.130611
0.0473754
9.34523e-05
2.37602e-05
-0.0796417
0.267911
0.226646
-4.89325e-05
-0.0456275
-0.0255491
-0.0140982
-0.0589762
-0.0115574
-0.00388969
0.186722
-3.65778e-05
-0.0338343
0.221937
-0.0604163
-3.54974e-06
-0.0743714
-0.00021508
0.234674
0.0370306
3.995e-06
-2.31175e-05
0.232175
7.05804e-06
-0.000219931
-0.0155588
3.20901e-05
0.288526
0.00459586
-0.00981694
-0.0772815
-0.00503183
-0.0938717
0.243207
-0.0167768
-0.0509669
0.00142155
-1.37174e-05
-0.00135155
7.7508e-06
-7.6224e-06
0.0268467
0.241251
0.198798
-0.000567158
0.33695
-0.0159355
1.86145e-05
-0.0563016
-5.05023e-06
-0.0356479
0.038522
-0.0193429
0.00615333
0.00265173
-0.012309
0.000384173
-0.00222285
0.0258776
-0.00382429
-4.25733e-05
5.18926e-05
-6.88945e-05
0.0427055
9.58754e-05
-0.0295209
0.358042
-0.00801673
8.46565e-05
-0.00461786
1.8884e-06
0.0221716
-0.000457157
-7.29922e-05
-9.89367e-05
-8.96835e-06
0.284158
-0.000176775
0.2779
-0.0754163
0.000179341
-0.0648103
-0.000615977
0.208091
0.76266
-0.00185801
4.55751e-06
3.56434e-05
-1.70385e-05
0.146663
1.391e-06
0.0014982
-0.0311587
0.269662
1.52463e-05
3.25134e-05
5.24568e-06
4.41566e-05
-0.0266034
3.56962e-06
0.185597
-0.0212551
-0.000148527
5.0985e-05
-0.00272918
-0.0363497
2.49705e-06
-6.3121e-05
0.220164
5.82905e-05
-0.0404168
-0.0708654
0.000207525
1.52497e-06
-0.161112
2.26072e-06
0.204611
2.58665e-05
-0.000572764
2.36878e-05
-0.000214661
0.121846
8.92597e-06
-0.00216524
2.13116e-05
0.0166549
-0.00451383
-0.00848256
0.00108066
0.204032
-0.00032489
-8.8649e-05
-0.0116966
-0.0112944
-0.000305376
-4.27596e-05
-0.00116835
7.22504e-05
0.122886
-0.0136889
0.721269
5.15981e-06
-0.0100911
-0.000177008
0.154252
9.7154e-05
-0.0339245
4.12803e-05
-0.00208345
-0.0421547
-0.000286075
-0.0204553
-0.0612703
0.00688697
5.52305e-06
-0.0708746
-0.000422229
-0.000357123
-0.00732946
-0.0197538
0.00181915
-3.63255e-05
-0.000556851
-0.00118226
-0.00167676
3.0496e-05
-0.0015862
0.731097
0.000156016
-0.0043216
-0.0438482
-0.0873836
-0.076847
-0.0589575
-0.0279894
-0.000663738
-0.0217579
0.000126411
-9.1086e-05
0.721897
-0.000109102
0.187419
-0.000577324
0.000582415
-0.00148534
-0.0903481
-0.000533875
0.000848497
-7.35101e-06
-0.000500465
1.38354e-06
-8.96272e-05
-0.0192776
-0.000123843
-9.43817e-06
-9.45336e-05
0.000235086
8.74113e-07
-0.0534001
0.150897
-6.74908e-06
-0.000778618
7.63558e-05
5.44102e-05
-0.00108592
1.91364e-05
-0.00117945
0.000422643
-0.000466312
-0.0775756
-0.000894753
-0.00240429
1.1539e-05
-0.00206905
0.000495017
-1.48233e-05
-5.10068e-06
2.44959e-05
-0.00103513
0.000771434
-0.055269
-0.0348796
-0.0780885
0.000856496
-0.00247338
-0.0465092
-0.0786009
-0.00010971
0.020473
0.00926256
-0.00137024
-0.015393
-0.0678107
0.615501
-0.000534057
-1.18703e-05
0.00126432
8.54292e-05
3.23596e-05
0.0982238
0.00494071
0.114044
-0.0470571
0.612446
-0.000673035
6.49678e-06
0.000233418
-1.25486e-05
-0.00179506
0.179477
0.297254
2.71904e-06
-0.000202844
-7.13978e-06
0.279557
0.0207249
-0.00794515
2.12429e-05
3.43581e-05
0.00990285
-0.000902987
-0.0866828
-0.0215547
5.08275e-05
0.00480878
-0.0397386
-6.58424e-05
0.00253239
-6.73964e-05
-0.0564194
-0.00229004
0.176299
3.00068e-05
0.00235182
-0.000150527
2.88531e-05
0.000264192
-0.0293171
2.76621e-05
-0.00119162
4.51815e-05
-0.0251488
-0.0557014
-0.00410954
-0.00962227
-0.0111662
0.0124368
-0.0113433
-0.00323911
0.000112248
0.000169401
4.03455e-05
3.48279e-05
-6.18902e-05
0.0121471
-0.071401
0.000707256
-0.0565817
-0.00404673
-0.063731
0.000140892
1.27091e-05
0.00183979
-0.110915
3.43171e-05
-0.0558669
-0.0191
-0.0683907
-0.0573347
4.86502e-05
-0.00452762
0.000295428
-0.17251
0.174525
3.17028e-05
-0.0728952
-0.0285566
-0.00556086
6.98424e-05
-4.55575e-06
0.0306815
-0.0211404
4.88981e-05
-0.00883476
1.47645e-05
0.000326765
0.156518
-5.71494e-06
2.35468e-05
-8.53107e-05
6.33454e-05
0.00127777
0.000139817
-0.00685645
0.000352646
-0.0161842
0.00156006
-0.000246763
-0.0412722
-0.0530286
-0.00816702
-1.44123e-05
4.08703e-05
-0.076012
0.00784033
-0.0583182
5.79797e-05
-0.0067256
-3.86991e-05
4.68397e-05
0.0834809
-0.00907497
-0.00363689
1.5444e-05
-0.0226409
8.47677e-05
-0.0808179
5.20633e-05
-0.0908979
4.67338e-05
-3.23482e-06
0.000136548
0.00144607
-0.111557
-0.022897
-0.0845373
3.72095e-05
0.000152293
-0.0920002
-0.0330897
-0.0108699
1.32947e-06
-0.044999
-0.0623566
-0.0924287
2.02158e-05
-1.78441e-06
3.04893e-05
-0.104008
-0.0820166
0.00103645
-0.0141599
-5.48765e-05
0.153988
0.000149871
3.67254e-05
0.000230582
1.39122e-05
-1.73797e-06
-0.00471479
0.000182502
-0.00333084
-0.079007
-0.0166834
-0.0696295
7.53067e-05
-5.59982e-05
0.0601472
-0.0680583
-0.00615489
0.141903
3.5433e-05
-6.5742e-06
-6.05852e-06
0.0741368
0.000263522
3.03161e-05
7.87575e-06
-0.0751987
-0.019665
2.80379e-05
0.000140975
-0.0118941
-0.00830726
0.000626214
0.298231
-0.0730728
0.000276611
0.97902
5.50714e-06
-0.000873071
-0.0110789
-0.0915289
2.25535e-05
1.86027e-05
3.86257e-05
0.00651835
-0.0418606
-0.000417288
-0.0605138
-0.00994745
5.72284e-05
-2.6588e-06
-0.0129935
-0.00764409
-0.0309486
-0.0998526
-0.0554411
-0.0480098
-0.0198644
-0.0341821
-6.80275e-05
0.000516784
0.0036538
0.000761499
-6.75995e-05
0.00109124
6.82602e-05
-8.84304e-05
-0.015451
-1.02086e-05
-1.93424e-05
0.0430146
-0.0360652
-0.000173395
-2.09166e-05
3.65322e-06
0.330332
-0.00854607
0.0011213
-0.0353867
0.000338134
0.000299582
0.000259274
-4.87069e-05
0.000691229
-0.0470935
0.0207376
-7.05244e-06
-0.00017919
-0.051896
-0.0402855
0.0633179
-0.000622838
0.00256506
0.0238005
1.71137e-05
0.000104379
-0.0601577
4.03781e-05
0.21314
3.68173e-05
0.00573269
0.000251955
0.000334959
-0.0839457
-0.00944432
-0.022673
-0.00311265
4.73824e-05
0.00852566
0.0793014
-0.015729
-0.000154367
0.120926
0.20793
1.13871e-05
-0.0635798
-6.91537e-05
-8.99172e-07
-4.68682e-05
-0.000721918
0.0263353
1.9164e-05
0.000368403
-0.0310556
-0.0323061
-0.0277237
0.422755
4.77299e-05
-7.49128e-05
0.220009
-0.00901626
-0.00491141
-0.000835355
0.216511
8.55124e-05
-0.000371195
9.26621e-05
6.46181e-05
5.63049e-05
6.42534e-05
0.000118202
-0.0223869
2.90227e-05
-0.00430641
-0.0545938
0.282309
-0.000142758
-5.26391e-05
0.00640497
0.108879
-0.0594711
-0.000966082
-0.0845272
0.415809
7.45081e-05
0.563671
7.09102e-07
0.00455067
0.0322057
0.00062486
0.629079
1.13926e-05
-1.79975e-06
0.00162893
5.62971e-05
-0.00111126
0.000387965
3.38542e-05
-0.0025371
4.34917e-05
-0.000166979
-0.00427762
0.31907
0.0638865
0.0292516
-0.0536251
-1.6747e-06
-6.90871e-06
0.00461246
-0.0697981
-1.20981e-06
-0.0571626
-5.55552e-05
0.132036
0.0796383
-0.0416446
-0.00174171
-0.0154772
-0.00126516
-0.0188312
0.00489185
-0.00959322
0.0811393
5.61735e-06
0.197909
0.02028
-0.000732522
0.26199
-0.0170727
-1.11534e-05
5.3601e-05
0.000109482
-0.000256725
-0.000132156
0.326891
-0.00126144
0.332699
-0.00138412
0.213989
0.270876
0.0919023
-0.00907516
6.30529e-06
0.000119718
-0.0135676
-0.148321
-0.0607097
0.00208004
5.48195e-05
-0.0471981
-0.000371232
4.09838e-05
0.00141968
-0.00137582
-0.000812656
0.043425
0.000121993
-0.0592661
0.0731936
9.64327e-05
0.000397199
-0.0185348
-0.0730761
-0.000934917
-0.000658563
4.02318e-05
0.000373164
0.0404658
-0.0218704
-0.0602249
0.0018309
0.0787946
-0.0487311
7.27391e-05
5.02499e-05
0.0148918
-8.51893e-05
0.0684891
0.00135177
-0.0173019
-0.000475955
0.00226841
-0.0457806
-1.3673e-05
0.000699873
-0.00199823
-0.090048
0.152018
-0.0758338
-0.0342073
-0.000180521
-4.85224e-05
0.00909445
8.33741e-05
-0.0902647
-0.081535
0.000797924
0.00459776
0.00517293
-0.12366
0.000898927
0.000291558
7.84285e-05
-0.0519137
5.60091e-05
0.000791722
0.156339
0.232583
-0.141632
0.064181
0.0623963
0.0163738
-0.000169752
0.0149779
0.000191165
1.51537e-05
-5.87375e-05
2.06475e-06
7.71564e-05
-0.000445429
-0.00988243
-0.0765961
-0.0125901
-0.0373748
0.0680454
0.0572232
0.00553853
-0.0792012
0.00025262
0.00625115
0.0150457
-0.000484704
0.094207
-0.00161378
-0.0141919
0.0159406
0.00746928
0.00138949
-0.00523578
0.055104
0.00116646
-0.0251824
-0.0211694
0.765525
-0.0318201
0.102081
0.0138483
-0.0482976
0.00305225
0.000171037
-0.00333351
0.0001072
-0.0034212
-0.0324262
-7.41738e-05
-1.90127e-05
0.291333
-0.00429421
-0.0524026
-0.0240127
0.000318579
-0.00188909
-1.57551e-05
2.2716e-05
0.0486712
7.42467e-05
-0.00382051
0.0942927
0.00838925
0.00156774
0.0243055
-0.00748058
0.0056648
-0.143585
0.00122412
-0.00577556
-0.0698269
-0.00109592
-0.0104842
0.00107731
0.00115524
0.00139248
0.046701
-0.000375465
0.00764619
-0.0669002
-0.0265654
0.000470182
-0.066305
-0.0192535
-0.0219594
0.000183582
0.00894975
-0.0872899
-0.00107803
-0.00632818
-0.0614157
5.87472e-05
-0.00150817
0.275111
-0.0282951
-4.33585e-05
0.0111503
-0.063948
-0.00135399
0.254773
-0.00290865
0.0014244
0.0778503
-0.00184319
0.011123
0.165648
0.000135303
0.00163857
0.000271427
8.0431e-05
-0.00585483
-0.00950491
-0.00012951
-0.0308382
0.121975
-0.0466733
-0.0907768
0.00162338
-0.00425303
-0.000763015
-0.0637381
6.75763e-05
0.0214646
9.53456e-05
-0.0204014
-0.00253027
-0.00646443
-0.107917
0.137945
-0.0987461
-5.32973e-05
0.219296
-0.00254542
-0.00339262
-0.0730113
-0.103356
-0.0201398
-2.64254e-05
-0.00145596
0.00977215
-0.00402175
-0.00615179
0.000641443
0.109895
-0.0555899
-0.0143776
-0.00866777
0.0272012
-0.0036146
-0.00164289
0.00236912
1.85905e-05
-0.00401646
0.136724
0.00112582
-0.157455
-3.32931e-05
-0.00951568
-0.0048358
-0.111658
-0.0148964
-0.132709
-6.77443e-05
-6.37821e-05
-0.00583025
0.0141356
0.00249168
-0.152274
0.10312
-0.0609614
0.000285311
-0.170131
5.91826e-05
-0.17899
-0.0325002
-0.20887
-0.21443
-0.214638
-0.195637
-0.149858
-0.130586
-0.112768
-0.0932185
-0.071115
-0.00786982
0.015442
0.0412269
0.109297
-0.0104345
-0.00960225
0.0688714
-0.024051
0.00126658
0.0184019
-0.0510446
0.00077238
-0.000845476
-1.09348e-06
-0.0184249
0.0237563
7.916e-05
-0.000368945
-0.0135406
-0.00945884
-0.205378
-0.0180243
-0.0699814
3.18684e-05
0.000824394
-5.53728e-05
-0.0709161
-0.0114202
-0.0464228
-0.0143372
0.0023908
0.000352135
0.00639635
-3.42593e-05
-0.0175945
1.61861e-05
0.000533846
-0.00843128
-0.0148157
-0.000315126
0.000473807
0.0636336
-0.0134276
0.0749756
-0.193287
-0.0112057
-0.0306604
-0.0240246
0.00499706
-0.027534
-0.00423281
-0.0161043
-0.0165626
0.474534
-0.00171276
0.000122683
-0.00754864
-0.0116267
7.1887e-06
0.104185
-0.00532486
0.433942
-0.171727
-0.0550175
-0.0340091
0.053832
-0.00651371
-5.02976e-05
-7.36051e-06
-0.00541954
-0.073874
0.000105886
0.405041
-0.00355799
-0.00644452
-6.36329e-05
-0.000472137
-0.00842134
-0.0506522
-0.113605
0.152522
0.000889569
-0.0182548
-5.80409e-06
0.0355856