/*--------------------------------*- C++ -*----------------------------------*\
  =========                 |
  \\      /  F ield         | OpenFOAM: The Open Source CFD Toolbox
   \\    /   O peration     | Website:  https://openfoam.org
    \\  /    A nd           | Version:  7
     \\/     M anipulation  |
\*---------------------------------------------------------------------------*/
FoamFile
{
    version     2.0;
    format      ascii;
    class       volScalarField;
    location    "35";
    object      p;
}
// * * * * * * * * * * * * * * * * * * * * * * * * * * * * * * * * * * * * * //

dimensions      [0 2 -2 0 0 0 0];

internalField   nonuniform List<scalar> 
115546
(
-0.00910118
-3.34247e-06
-0.0109746
-0.00261649
0.00114519
-0.000552883
0.274707
-0.0426335
-0.000125832
-3.62515e-06
-0.000148794
0.000201493
-0.00123132
-0.0426798
-0.000127249
-0.0414989
-7.96581e-06
-0.000200216
0.327656
0.00118585
-0.0445596
-0.00380043
-0.000229585
-0.00420453
0.448908
0.0469151
-0.104673
0.0175001
1.06258e-05
0.314385
-7.33486e-05
0.0736266
0.00381325
-0.0104311
0.45472
-0.00118598
0.273437
-5.77825e-06
-0.204059
0.185284
0.074009
-0.000203001
-0.0149228
-0.00118926
-0.0369662
-0.0428365
0.00181482
0.0044733
-0.0005225
0.000191156
1.7661e-06
-0.00224001
0.0832692
-1.79938e-06
-0.00218235
0.0844951
0.0676232
-0.0315777
-0.0332211
-0.00967375
6.65231e-06
-0.00434513
-0.000473404
-0.0137327
-2.56183e-05
0.000809107
-0.00101688
0.0483782
-0.109258
0.0616493
0.199835
0.0214091
0.182624
-0.0282237
-0.0210286
-0.0205482
-0.0252287
-0.000523316
0.308215
0.0198522
0.0207331
-2.77874e-05
-0.0714726
0.0171926
-0.00222208
0.00019658
-0.0147753
1.96418e-06
-0.0212804
1.10318e-05
-0.139078
-0.00833781
1.00521e-05
-0.000884107
-0.00025355
0.000354457
-0.000228467
-0.0717792
-0.0972023
-0.0212308
6.11982e-06
0.0217606
-0.000236999
0.002043
0.20042
-0.0405955
0.200903
-0.0415047
-0.0119095
1.97303e-05
0.0136341
-0.00022642
-0.0233868
-0.00749271
0.570715
-0.00233825
-0.00014911
0.179314
4.63563e-05
0.019554
0.181645
-0.0432109
-0.0109012
-0.0170635
-4.4947e-07
0.312362
-0.00426309
0.458763
-0.00107617
0.0366216
-0.0150846
0.000267082
0.155992
0.000196298
4.62957e-05
0.332328
0.430447
0.00366031
-0.00208813
-0.00430062
0.15724
-0.00175707
8.92871e-05
0.0869777
-0.0138421
2.24293e-06
0.00586633
-0.00434698
0.0492889
0.000618246
-0.0401368
-0.0382386
-0.00826942
-5.42437e-07
-0.00219426
0.0055282
2.08897e-05
-0.00400762
-0.0194517
-0.0590673
-0.0201475
0.00582539
-0.000463903
-0.0267292
-0.00792232
-0.000522717
0.0238218
-0.0165138
-0.00447846
-0.00858556
-0.00923791
0.00202762
-0.181878
-0.0430875
-0.0232705
0.0462847
-0.0431202
-0.00154993
0.00270282
-0.000511991
0.0104125
-0.0208044
0.34037
0.0894263
0.201841
-0.000152771
-0.00277763
0.112346
0.0120395
-0.136763
-0.00153031
-0.00158621
0.352824
-0.0187683
0.0490446
-0.0532571
-0.0432248
-0.0074368
-0.0198381
-0.0116094
0.0971005
0.277664
0.0126715
4.92698e-06
-0.00270389
-0.0239699
-0.00038243
-2.38945e-05
0.0340769
-0.0279422
-0.0428057
0.19887
0.446784
1.19107e-05
-0.00928858
-0.0190161
0.0121648
0.00249743
-0.043267
-4.20989e-05
-0.025339
-0.0169583
-0.00112938
-0.0197749
-1.90817e-06
0.39276
-0.00104653
-0.0207762
-0.0524305
0.400935
0.0202435
-0.0284794
0.169903
-0.0187775
-0.0167033
0.0978964
0.000401866
-0.000671722
-0.0182786
-0.00225937
-0.121593
-0.00807563
-0.0594798
-0.10078
-0.00113746
0.000556315
0.0610647
-0.0207763
-0.0162257
-0.0403678
0.361875
-0.000852529
0.0835981
-5.60351e-05
0.465353
0.0107198
-0.0464979
0.0182491
0.000297058
-0.0442456
0.0109155
-0.0428906
0.0901453
-0.19799
-0.0123897
-0.00255255
-0.0143197
-0.00107639
-0.012589
-0.0402969
-2.95064e-05
0.0127424
-0.000416056
-0.00795938
-0.000991531
-0.0154726
-0.0328547
-0.0229939
-0.0029626
-0.0418997
-0.0274211
-0.00112232
6.9829e-05
-0.0231676
0.000121951
0.00836779
0.387913
0.0782444
-0.0675445
-0.192
-0.0331328
5.4928e-06
-0.0377155
0.196026
2.41971e-05
0.0144282
-0.000910167
0.0697968
-0.000153887
-0.0415305
-0.0431672
-0.0222742
-0.177735
-0.00502388
-0.0285809
0.0286398
-0.0130955
-0.0204878
-0.16858
0.00283458
-0.00182246
0.195874
0.179147
-0.0182289
-0.00132887
-4.13276e-05
0.353022
0.000522778
-0.00405784
-0.0529171
-0.00856116
-3.74673e-05
0.0122839
0.56737
0.0379116
-0.0194803
0.00578085
0.0671431
-0.0437417
-0.0382734
-0.00182891
5.75436e-06
-0.000141141
-0.000885652
0.531321
-0.00246808
0.000379955
-2.65578e-05
-0.000558589
-0.0027622
-0.0103283
0.044862
-0.118764
-0.0133709
-0.00712852
0.00115747
-0.00312864
0.475374
-0.0237197
-0.00249457
0.155676
0.11835
0.010845
-0.00195248
-0.012168
-0.00243024
-0.0085543
1.76495e-06
-0.000364862
0.0033364
0.104241
-0.0315704
0.276036
0.534305
-0.0239658
1.87978e-06
-0.0100455
-0.0144532
-0.00102043
3.21895e-06
-0.0680219
0.0525807
-0.0207162
-0.000326486
-0.0032995
0.00268827
-0.000215583
0.00018743
-0.000793906
0.00447299
-0.0286229
-0.0111752
-0.00746889
0.00293217
0.0084809
-6.66977e-05
0.166446
-0.041187
0.00120239
-0.0340779
0.0719258
0.158703
-0.0149739
0.0175749
-0.0166768
-0.00121737
-0.168696
0.000489722
-0.000406328
-0.0137734
-0.0215668
-0.00128283
0.273502
0.176849
-0.187703
-0.0288519
4.68226e-05
-0.00512837
0.00940701
-0.00466718
-0.007717
-0.00184858
0.00121886
-0.00236343
-0.00227253
-0.00285779
-0.00031865
-0.0988471
7.18318e-05
0.00836795
1.23049e-08
-0.0432851
0.000265777
0.30028
0.181675
0.126671
-0.0287311
0.138687
0.0665008
-0.00131785
0.00129098
-4.59018e-05
-0.00305266
-0.0201703
-0.00498697
-0.00530285
-0.0068589
0.00026237
-7.74203e-05
0.000182672
-0.000542179
0.0373494
-0.00784214
-0.0142174
0.000113858
-0.0692577
0.000546008
-6.61515e-05
0.156942
0.045618
0.214933
7.66353e-05
0.00015111
0.00132653
-0.0162414
-0.00418829
-0.0598072
-0.0205396
0.0927512
-0.00566079
0.274001
0.000570344
0.00115418
0.254598
0.191054
-0.0457603
0.00191642
-0.042743
-0.00564744
7.7313e-05
0.00829301
-0.0409723
-0.0189884
-0.0285411
-0.00799238
0.0377775
2.06963e-07
0.00195235
0.0213805
0.0219493
0.317073
8.33974e-07
-2.56162e-05
0.00138744
-0.0191517
-0.000315287
2.37231e-05
-0.00494905
0.478986
-0.0409377
0.199856
-0.0135651
0.375072
0.0926495
-0.0023503
-0.0694104
-0.038166
-0.00722914
-0.000659737
-0.00303142
-0.000863034
0.31408
-0.0184047
0.268735
-0.0139286
0.12509
-0.0139561
-0.0100911
-0.118537
0.100614
-0.00186635
-4.32413e-05
-0.000107023
-8.44836e-06
-0.00791396
-0.0367662
0.000260235
0.00842276
-0.000103023
-0.000104494
0.00159304
-0.0128736
0.000595061
-7.19437e-06
-0.0158461
-0.00316057
-0.0030616
0.33178
-0.0497229
0.00476691
-0.00919607
-0.0259417
-0.000314834
4.54577e-05
8.13994e-07
-0.0252379
-0.0378841
-0.02284
4.44777e-05
-0.0104978
0.0465142
-0.120628
-0.0225782
-2.62927e-05
-0.0200371
-0.0116216
0.000139335
1.92282e-05
-0.0201304
0.00134735
7.09075e-05
-0.0502696
0.000411022
-0.0392701
-0.016019
-0.0135112
-0.0131475
0.000161413
-0.028001
0.000294242
4.42331e-05
0.0033371
0.223802
0.397506
0.156393
-0.00873729
-0.00899666
0.17269
0.0106496
0.000259846
0.0294413
-0.0109385
-0.0178078
-0.00297242
0.0463341
0.000804982
0.154399
0.000490765
-0.00405611
-0.0138752
0.190605
0.000288094
-0.0182669
-0.0590051
0.0904793
-0.018752
-0.00398786
-0.0848279
0.000101275
-0.186647
-0.0033394
0.0148025
-0.0160589
0.00208119
0.0539557
0.179389
0.389688
0.138722
0.143679
-0.0421984
0.159051
0.0109591
0.189178
0.218155
-7.63095e-05
-0.00103016
0.395183
5.49882e-05
-0.201506
-0.0999463
-0.0141152
0.000736466
0.0221509
-0.000887545
0.0013053
0.322898
0.449065
-8.30981e-05
0.000301478
-0.00321574
3.89771e-05
-0.180966
0.193413
0.103968
2.35728e-05
-0.0277578
-0.0227558
0.000519365
-0.00224083
0.0601866
0.440882
-9.63756e-06
1.02856e-06
0.186998
-0.00245194
-8.56696e-05
0.0259654
0.0031632
-0.00240595
-0.00138575
-0.203773
-0.0116741
-0.000868408
-0.0214261
0.000309691
-5.79573e-05
-0.00215283
-0.0298172
-0.000126094
-0.0158505
0.000622205
-0.0180874
0.192897
1.62555e-05
0.564666
-0.032877
0.374842
-0.026376
-0.000303739
1.39925e-05
-0.000225939
-0.00418741
0.0894616
-0.00185734
-0.0100141
0.32996
-0.0394595
-0.0396257
0.00539708
0.00362297
0.330134
-0.000264528
-0.0181193
-0.0143358
0.000241837
-0.00878077
0.000636285
-0.00732563
-0.0387211
0.49223
-0.0400788
-0.00144313
-0.0152199
-0.00205151
0.0145052
0.0626581
-0.0112452
6.664e-06
0.197545
-0.00960662
-0.0439672
-0.00183471
0.0027709
-0.0256367
0.00343343
-0.128653
-0.000533166
0.27265
-0.00428255
0.0621447
-0.0280405
0.021711
1.46671e-06
-0.0250848
-0.0158975
-0.0185102
0.0251272
-0.0501972
0.000317622
-0.0989799
-0.00088272
2.47837e-05
-0.00177734
0.00027802
0.446134
0.00024784
0.297959
-0.0155541
0.0207561
0.00215241
0.0666951
0.00251582
0.11994
3.32573e-06
-0.0197912
-0.00115346
0.00100467
-0.0189236
5.06041e-05
-0.06736
0.418348
-0.0978136
0.00026016
-0.0882144
0.0889692
0.338058
-0.000263521
-0.00016103
-0.00232459
0.000209541
0.404305
-0.0111509
0.0445666
0.105614
0.000202144
-0.0670752
0.138982
-5.88536e-05
0.0115401
0.391978
-0.00137934
-0.000385133
0.000382255
0.00234473
-0.0137998
-0.00418586
0.25899
-0.00710362
0.500576
0.589816
-0.0017785
0.000127911
0.26928
-0.00236776
-0.012044
0.000286256
0.108624
-0.0281939
0.476125
-0.00107984
6.48062e-05
-0.00966595
-0.140159
-0.02771
-0.0068376
0.0071648
0.0905152
-9.41802e-05
-0.106564
4.17196e-05
0.00120453
2.30632e-07
-0.181951
-0.0468261
0.15529
-8.96278e-06
0.389732
-0.000240794
-0.00841366
-0.00035138
-0.0412964
-0.00919303
0.050786
-8.12297e-05
-0.0276266
-0.00197057
-0.00940711
2.14006e-05
4.68148e-05
-0.000135666
-0.0293589
0.00112828
-0.000658878
-0.0213856
0.00015144
0.000315187
-0.000758559
-0.000296306
0.171032
0.0449998
-0.159559
-0.0174698
-0.0384596
-6.26935e-07
-0.0889966
-0.0392983
0.000363307
-0.0228294
-0.001228
-0.0242611
-0.129649
0.000480347
-0.012907
2.56366e-05
-0.00396645
-0.000221637
0.177854
-0.00525375
0.000193301
-8.92419e-05
0.0207825
-0.0327237
-0.00235467
8.40597e-05
0.261749
0.274404
0.00106884
0.0361282
-0.0900965
-0.0402678
0.000133375
-9.36769e-07
0.220267
-0.0235041
0.000157405
-0.00383147
-0.000518283
-7.57302e-07
0.0377512
-0.0517992
-0.0399934
-0.0418615
-0.0159953
-0.00442416
-0.0117173
-0.000471689
0.124928
-5.87068e-05
-0.0232948
0.0257873
1.22535e-05
-0.0831847
-0.00845387
0.108163
-0.000656091
-0.0068649
0.351115
0.0348734
-0.0324834
-0.0146311
0.19332
-0.00247202
-0.00874357
-0.0263596
0.190434
-0.000713269
-0.000196041
-0.0912574
-0.0069489
-0.00924649
0.524951
-0.0043165
-5.90882e-07
-0.212501
0.00168568
0.0038216
0.119684
-0.110116
-0.0518629
-0.00142333
0.109596
-0.0150952
0.0384349
-0.00402034
0.0874674
0.0633508
-0.0191779
0.0833712
0.160289
-0.000220839
0.0342454
0.445586
-0.0894365
0.000368656
-0.0408252
0.108091
-0.0134182
0.0222309
0.190189
-0.00283204
-0.00132869
-0.00359576
-0.00274852
-0.0258026
0.0142771
0.00031177
0.331551
0.491667
-0.024067
-0.00116391
-0.0386869
-0.027657
-0.0273844
0.184436
0.258241
-0.00143446
-0.0223695
-0.0276222
-0.000593428
0.0386716
-0.0414425
-0.00191979
0.0283304
0.000269252
0.120998
-0.122512
0.0948304
-0.0361372
-0.180624
0.303816
-0.000844994
-0.0352361
-0.0759427
-8.53514e-05
-0.015734
-0.0766204
-0.114072
-0.0482102
-0.00326332
-0.00907269
-0.002564
-0.115851
-0.000196146
-0.0110233
-0.043521
0.137603
-0.0387534
-0.0401577
-0.00631286
0.00123082
0.153326
-0.0352031
-5.30584e-06
-0.00178506
-0.000421071
-0.00859119
-0.0145716
-0.001052
0.0394652
-0.197537
0.000615046
-0.0249448
0.0189403
0.0298328
0.00118275
0.00222972
-0.00242665
0.547266
-0.0235572
2.08118e-06
-0.00188642
-0.000206615
0.259674
-0.00946235
4.27341e-07
-0.00694789
-0.00130947
-0.0473573
0.093673
0.0417151
-0.0946129
-0.0160873
0.000756222
0.351588
-0.018566
0.0694819
-0.00409155
-0.075555
0.00634175
0.00230134
-7.80631e-05
-0.00821775
-8.64555e-05
-0.0491302
-0.000652175
-0.0988782
6.63411e-05
0.042629
4.7136e-05
-0.00183764
0.000111693
0.0950603
-0.0154119
0.31384
-0.00941235
0.0683944
-0.175207
-0.00069991
0.309492
-0.0285162
-0.0146147
0.599574
-0.000316505
-0.00655067
-0.196479
0.0228611
4.81592e-05
-0.0140538
0.00430136
-0.0334169
-0.0186308
0.391533
0.00169287
-0.198549
0.0932158
-0.111519
0.00285228
0.00125473
-3.73727e-07
-7.11651e-05
-0.00110009
0.00921652
-0.000253441
-0.00220842
-0.00160685
0.335615
0.310857
-0.0527907
0.000103559
-0.0698931
0.0352203
-0.14489
0.000103639
-0.097577
-0.028958
6.52044e-05
-0.00353465
0.0277877
-0.0206895
-0.00050561
-0.0382345
0.535421
-0.0644673
0.000262069
-0.0418727
0.0233487
0.000386833
8.40321e-05
-0.19361
-0.00107059
-0.113929
2.01757e-05
-0.00610993
-0.0286499
0.47362
-0.00769357
0.00340392
-0.0144774
-9.7428e-05
0.0935
-0.000215646
0.0188007
0.104997
-1.92411e-05
0.0259752
0.00140112
0.477335
0.597195
0.00982805
0.426212
0.3559
-0.103415
-0.0338853
0.000198763
-0.00913821
-0.0306579
-0.00106672
-8.28805e-05
-0.00163026
-0.000409829
-1.74628e-05
-0.00910022
-0.00036874
-0.0232383
-0.0507215
4.26788e-05
-0.000117078
-0.180104
4.25233e-05
-9.36582e-06
0.0911527
-0.0178234
-0.0280491
-0.000630906
-0.0416955
0.0100803
0.0225565
-0.00234543
0.00282812
0.118595
0.0280872
-0.028411
0.000341436
0.000473367
1.56047e-05
-0.0185296
0.26679
0.00598386
1.61044e-05
-0.195561
0.000112434
1.52996e-05
0.0852789
0.000508245
0.464509
-0.00113144
0.190413
-0.00583601
0.0027917
-0.00665401
-8.50756e-05
0.116238
-0.00048409
0.00120292
0.428277
0.392768
0.555939
-0.00153193
-0.148957
0.0227691
2.62592e-05
-0.0278568
-0.00349361
0.188506
0.233779
0.00189796
-0.142464
7.09992e-05
0.0326438
-0.000513459
-0.00753855
0.00368681
-0.0013487
-0.00279386
-0.0124076
-0.00212059
0.0564842
0.0936786
0.00155568
0.115646
-0.0198655
-0.199724
-0.00442454
0.0268394
-0.0153889
0.551258
0.303344
0.00871462
-0.0139592
4.27995e-05
-0.000380142
-0.0182746
-0.0385858
-0.029491
0.0267447
0.179731
-0.176871
0.0680558
-0.000142261
0.00648669
-0.00394302
0.16248
-0.0420531
-1.86404e-05
0.114837
-1.06807e-05
-1.52247e-06
-8.69129e-06
1.0644e-06
8.32948e-07
0.164375
0.00237242
-0.0206759
-0.000760722
-0.155221
-0.0310062
0.316841
0.00160893
-0.000564069
-0.0019044
-8.7911e-06
-0.000421299
-0.0633644
0.00734657
0.111821
-0.00372922
0.0935842
-0.0145387
0.00544922
0.016976
0.000497453
0.421473
5.78252e-05
-0.0023375
-0.000390276
-0.014155
-0.00618042
0.158444
-0.00241689
3.77062e-05
-0.0787956
-0.00341445
0.18481
2.38824e-05
0.000109903
9.22269e-05
-0.0246814
-0.0018902
-0.0177598
-0.0405494
0.0699215
0.309273
-0.00106222
0.000145468
0.000463456
-0.000804683
0.0685624
-0.038841
-0.00209883
0.0260476
-0.200291
0.000517836
-0.0797565
-0.00179021
0.00181791
-0.0306404
-0.000181663
0.0127154
0.182196
0.285749
0.132818
-8.77622e-05
-0.147374
5.53794e-05
-0.0226678
-0.0229907
0.0611382
-0.0065308
-0.0937797
-0.0208741
-0.0270697
-0.00349204
-0.00650195
-0.0208255
-0.0853837
4.47222e-05
0.0607533
-0.000347474
0.230306
0.0357167
-0.00469869
0.000110548
0.000553269
-0.0134166
3.15976e-05
0.0718085
-0.00641145
-0.0784153
-0.0536221
0.0407662
0.329573
-0.00896071
-0.0208556
0.102919
0.0153434
-0.000681001
0.00131082
0.560719
0.00123084
-0.00311603
-0.174281
-0.00950961
-0.0199532
-0.00247162
0.231608
0.000140731
0.0840487
0.341634
4.70949e-06
-0.00919154
8.00502e-05
0.0650645
-0.00826528
0.00522607
-0.00427594
-0.00984432
-0.0197279
5.41492e-05
-0.00132116
-0.00967472
0.00661969
-0.00247787
2.49329e-05
-0.00144767
-0.022671
-0.0410983
-0.00385241
2.57595e-05
0.0120704
-0.000681296
0.000563928
0.0203594
0.126943
-0.012978
-0.0203137
0.0619827
-0.000438514
-2.53259e-05
-0.023425
-0.000216092
-0.000299236
-0.01199
0.0544547
-0.000175716
-0.00441041
-0.00140685
0.0153172
0.000117871
-0.000225422
7.8786e-05
0.0667427
-0.000686603
-0.002315
0.0141363
-7.28427e-07
0.000149176
-5.58252e-05
0.162264
-0.00078902
-0.00400595
-2.66095e-05
-0.128203
0.112377
-0.0022879
-0.0868243
1.33347e-05
-3.78533e-06
0.00594167
8.39053e-05
-8.25592e-05
0.312622
0.00265841
-0.00137327
-0.0425576
9.38192e-05
0.000513721
-0.00767712
-0.00098314
-0.000548211
0.408636
-0.000121252
-0.0446774
0.193887
-7.65962e-05
-0.0208296
-0.000277859
-0.0205137
-0.0297202
0.0176224
-0.00465063
-0.000279722
-0.00460734
-0.112751
-0.00210812
-0.0128743
0.000685993
-0.000445517
-2.83363e-05
-0.000117033
-0.0561092
-0.0179125
0.0772437
0.00183464
-0.00917775
0.540452
0.086318
-0.0392946
-0.000111044
-0.0187014
-0.0233884
0.0329577
-0.0364807
-0.0706056
0.0656278
0.0730233
-0.012939
-0.0359427
0.304795
-0.0430869
0.000181166
-0.0419521
-0.0430303
-0.00599973
0.00479797
-0.0152741
-0.001003
0.0135948
-0.0249301
0.266925
-0.033541
0.271983
-0.0268113
-0.000368503
0.00199014
-3.72848e-05
5.10313e-05
1.71169e-05
0.139397
-1.49179e-05
-0.0198132
-0.000236422
0.00617115
-0.0292156
-0.000211261
-0.0100518
-0.0210552
-6.66966e-05
0.129813
0.00361868
-0.000560272
-0.0199149
0.0563696
-2.26206e-07
0.0344775
0.000533043
0.160377
-0.0423061
-0.0274675
-0.0206225
-0.000552692
-0.000398227
0.0895888
0.161833
0.160054
-0.00360912
-0.0221563
0.264145
0.0350332
0.00503771
-5.53575e-07
0.0851478
0.0140954
-0.000200043
-0.0912642
0.331169
-0.0146598
0.000494262
0.490651
-6.74253e-05
-0.00567255
0.0647134
0.170995
0.0701822
0.0703705
0.363774
0.227796
-0.000120332
-0.000347962
-0.000630189
-0.000546204
0.0737977
-0.0195117
0.282094
-0.0140258
-0.00441847
-0.0128133
-0.0687577
0.000418903
0.000591919
-0.000342038
-0.0251424
-0.000871488
0.00326127
2.82441e-05
4.57274e-05
0.000124189
1.59549e-05
0.000478553
-0.129907
-0.00568072
-0.14338
-0.126062
0.520339
-0.0267233
-0.000174633
-0.00118114
-0.129845
-0.000537139
-7.45967e-05
-0.00939312
-0.00160406
-0.000350313
-0.00471376
0.0235686
-6.62431e-06
0.000916756
0.00187608
-0.00028853
-0.000161434
0.00213532
0.000127492
-0.0285585
0.0262151
-0.0605014
-0.00813534
-0.0123107
-0.0321971
-0.000689959
2.91397e-05
0.000148169
-0.0029295
0.117707
-0.153584
-0.00384848
-0.00679124
-0.0818483
-0.000256404
0.33482
-0.00740777
0.0535294
0.000518141
-0.000323184
0.000115951
-0.057899
-0.0429709
0.328826
0.352278
0.0872386
-0.0090712
-0.0226093
-1.48138e-05
3.37553e-05
-0.00522747
-0.123844
0.150957
-0.0749865
-0.0232832
-0.0250999
0.116965
-0.00296953
-0.101752
1.77717e-06
0.0251983
0.121648
0.00215383
1.8873e-06
-0.00529188
-0.00286131
0.158361
0.0591786
0.00151553
-0.0125778
0.541179
-0.00813786
2.81022e-06
2.41832e-05
0.0037175
-0.00918966
0.0635594
2.66538e-05
-0.0539742
0.00153467
8.68417e-05
0.389745
-0.00565021
0.0645572
-0.00573997
0.00052999
0.00735448
-0.0532108
0.190204
-0.0139991
-0.00842669
0.404079
0.000475454
0.0176351
0.0671322
0.280374
-0.000684865
0.0585426
8.24966e-07
0.00039151
0.0915747
-0.00781249
-0.00571983
0.0341009
0.000126308
0.152237
-0.047313
1.25206e-05
-0.0376574
-0.00125931
-0.00466153
-0.000126087
-2.35729e-05
-0.0253009
-0.11438
0.000527501
-0.00365285
0.00124872
0.0702656
0.305006
0.000158945
-0.00125211
-0.000246192
-0.0264844
-0.000147735
8.69784e-05
-9.93093e-06
0.298739
-0.00851214
0.000586785
-0.0315626
-0.0200268
-0.0391064
0.306653
0.228267
0.165746
1.33363e-05
-0.189015
-0.0265545
-0.00586257
-0.0371737
-0.000699483
0.119873
-0.0111686
0.00523505
-0.000548479
0.00915374
-0.0388649
0.00701312
2.89111e-06
0.0242897
-2.37485e-05
-0.000148704
-0.00305285
-0.000855549
-0.0240659
0.526519
-0.00756116
0.000959032
-0.00160282
0.104116
0.173595
0.325965
0.184667
-0.0403044
-0.0012742
-0.000431153
-0.0178578
-0.0212677
0.00155087
-3.65156e-05
-0.0566275
0.00112159
-0.0171695
-0.00673924
-2.77189e-06
-0.0989787
0.00935917
0.368685
0.0922874
-3.18225e-06
0.0179704
0.000543809
-0.0372574
-0.0402766
-0.00855065
0.312322
-0.000284899
-0.0245719
-0.0210063
-0.000242792
0.000123889
-0.0204327
0.0842761
-0.0269206
-0.0248671
0.00316852
-0.0925089
-8.47357e-07
3.23877e-05
0.000913333
0.00260806
-0.0195068
-0.000426186
0.185075
-5.53082e-05
-2.80912e-07
-0.000465148
0.00203824
-0.00781379
-5.37175e-06
-0.0171543
0.0274645
0.103571
-0.00150805
0.258058
-0.0116698
0.1052
-0.00611207
0.00541388
8.22129e-05
0.009602
0.00275989
0.041155
0.45765
0.135563
-0.00689748
0.000251326
0.161563
-0.00568697
0.197656
2.30184e-06
0.0336842
0.104681
0.360653
0.000187224
1.3086e-05
0.210601
0.347031
0.0750103
4.78689e-05
-0.140139
0.0468049
-0.00228675
-0.000731931
-0.000681706
0.0173715
0.00551458
0.268664
-0.00121613
-0.0278909
-0.00205169
-0.00360483
-0.000865005
0.315488
0.0706848
-0.012527
-0.00046334
0.0553511
-0.0574235
0.00213257
-0.0229582
0.00021584
-0.0224777
0.00961754
-0.00991596
-0.00159616
-0.0407508
-0.00582767
-1.27704e-06
-0.0809803
-0.00194807
0.000170875
0.00666411
-0.00099005
-0.00240514
0.0168732
2.25008e-06
0.0051154
-0.0309453
0.229915
-0.000114407
0.494155
9.99879e-06
-0.00480218
0.0047577
-1.70331e-05
-0.00450033
-0.00121991
-0.039932
0.136377
-0.0162345
-0.0608024
-0.0270741
0.222275
1.07468e-05
-0.0909155
0.0278965
-0.0249759
1.39772e-05
0.53542
0.00383372
0.00470532
-0.00254481
-0.00176211
-2.26106e-05
0.231913
-0.00359253
0.0903408
0.000192368
-0.0312391
-0.000677359
-9.33065e-07
0.252711
-2.89564e-05
0.119037
0.424984
0.193371
-0.00526052
0.109381
0.111538
0.206944
0.265294
0.160328
0.382007
4.51322e-06
-0.0185098
0.112378
-0.00030658
0.181574
-0.0267925
-3.04074e-06
-0.000128014
-0.0205466
0.495713
-0.00275575
0.00353055
0.0677153
-0.000129272
0.000109479
0.0055576
-0.0182779
0.00563236
0.192946
0.475319
-0.0185247
0.273806
-0.0256391
0.0242087
0.3177
-2.72972e-05
0.164466
-0.00435641
0.0158658
0.00117701
-0.0817835
-0.00806766
-0.0339423
5.29806e-06
-0.0145948
1.67804e-05
0.117679
0.497406
-0.206278
0.000623917
-0.0346541
-0.0236581
-2.83569e-05
0.00435837
-0.019511
0.00452739
-0.0211343
-0.0176667
-0.000368945
0.000251666
0.0306331
0.00017029
-0.0215834
2.07329e-05
0.0754103
-0.000983185
-0.0235572
0.00016794
-0.00368061
-0.0257233
-0.0093727
-0.0494189
0.000558937
0.0459785
-0.0235241
-0.0421399
-7.56778e-05
0.0299504
0.0305225
-0.0651376
0.265225
-0.00452892
-0.0424609
0.00652927
-0.00325353
0.00346478
7.93472e-05
-0.112447
-0.0138427
-0.00223051
-7.39055e-05
-0.000491429
0.0632267
-7.69592e-08
-0.000299895
9.84602e-05
-9.464e-06
-0.00123942
0.308255
0.562811
-0.000226068
-0.00731675
-9.58407e-06
-0.0376615
0.00213754
-0.00635544
0.0135556
-0.000983154
0.0934667
0.00192561
-0.000885018
-0.00108504
-0.00360801
-0.00135866
-0.000161339
0.224665
-0.00135842
0.489916
-0.0163683
1.14006e-05
0.0688734
-0.000475675
-0.0177825
0.117104
-0.0024391
-0.0163842
0.470599
-0.0243831
0.000396519
-0.0620625
0.0359078
-0.00459789
-0.028665
-1.88564e-05
-0.0180625
0.000584344
0.341627
-0.0101619
-0.0192421
0.013977
-0.00443541
-0.0160464
-0.0146783
-0.0167445
0.105161
0.000848154
-0.0798805
-0.00435512
-0.0013171
-0.00029693
0.0034153
-0.0263392
-0.000734384
-0.0602329
0.00396335
0.000635658
-0.0270967
-0.000186008
-0.00028639
-0.000998806
-2.91777e-05
-0.0411043
0.000881731
0.0943512
3.46463e-05
-0.000316137
8.23187e-05
0.428659
-2.94659e-05
-0.0378281
0.0177658
0.107936
0.00031137
-0.00339399
0.00223331
0.00144648
-0.00975762
-0.026635
-0.0251088
-0.0161055
-0.0040841
-0.000246636
0.0690931
0.0220041
-0.0279507
-0.000648224
-0.157984
-0.0261409
-8.27544e-05
-0.00546937
0.0336965
0.469908
0.297164
-0.00209009
-0.166488
-0.00824222
-0.000318386
-0.000116423
-0.018367
-1.51748e-07
-0.0759314
-0.0166266
-3.15434e-06
4.78054e-05
-0.0292293
0.00748707
-0.0224925
0.030683
6.80346e-05
-0.026387
0.0121831
-0.023198
0.000165877
-0.0255213
-0.000270566
0.135081
-0.000364276
-0.0342141
-1.07399e-06
-0.00185498
-0.0206501
-0.101054
-0.00942296
-0.0211027
0.000136388
-0.0176024
-0.00807899
-0.0172853
-0.0497598
0.00347046
0.0323518
0.50006
0.00213701
0.0126715
0.000321666
6.94813e-05
-0.000104141
-0.0283191
1.94571e-05
-0.00101762
0.0493467
0.433067
0.461388
-0.000440255
0.222238
-0.00474941
0.000594933
-0.000721413
-0.0256142
-0.0287338
4.67735e-05
0.0148087
-0.0158504
-0.0737806
-0.0424926
-0.0430008
-0.0168768
2.57924e-05
0.000672582
-0.00501977
0.142198
-0.0256603
-0.0426884
-0.0225337
0.455021
-0.00794119
0.103405
-2.39106e-05
-0.023538
-0.00317582
3.86772e-05
0.000788719
-0.00482787
-0.00245616
-0.042702
-0.00266346
0.0157728
0.301934
-0.00468142
2.10076e-06
2.49014e-05
-0.0190036
0.0247633
-0.0184759
-0.00613718
0.000882753
0.000429476
0.0755216
-1.75001e-05
-0.0163996
-0.000442848
-0.00497161
-0.00237586
-0.00251691
0.0497205
0.00605332
0.00419008
0.0198454
0.597072
-0.0509578
0.166093
0.0613797
-0.0308573
-0.0431304
0.00356321
-0.0308853
-0.0158528
0.0944351
-0.0129393
8.05707e-05
-0.00378166
-1.5657e-07
-0.0378249
-0.00161487
-0.00124021
-0.00412132
0.190957
-0.000115256
-8.07843e-06
-0.00402059
-0.0982048
1.02071e-05
2.61495e-05
0.000907066
-0.142907
7.38469e-06
-0.0282138
-0.000798473
-0.0192622
-0.0191544
-0.0810825
-0.0114247
0.103205
-0.0298583
0.000193883
-0.000469571
0.19889
-0.00479923
0.0107388
7.83124e-05
-0.0162832
-0.016432
0.000106453
-0.0138957
-0.0162513
0.00218523
0.319057
-2.04519e-05
-0.0968945
-0.00048201
-0.000734374
-0.000234107
-0.00236319
0.144691
0.00303929
1.21087e-07
0.0763578
-0.00772249
-0.000277693
-0.119263
-0.00093615
0.0241884
-0.0421255
-9.41461e-05
-0.000954128
-0.0372671
-0.0187027
6.5543e-05
-0.108518
-0.0184294
0.00597762
-0.0278149
0.0068575
0.31003
-0.005265
0.0147102
0.0877333
-0.000282585
-0.000146248
0.187623
6.98859e-06
0.584514
-0.0105118
-1.81017e-07
0.105543
0.136789
-0.149303
-0.00440872
-0.023112
0.0251709
-0.00378358
0.00761891
-7.10088e-09
-0.00494041
0.0295921
-0.0172133
-0.0124476
-0.0015353
-0.0309863
-0.00287115
-0.00171793
-8.09676e-05
0.0335833
0.45888
-0.0228999
-6.43587e-08
4.82781e-06
0.000901843
-0.0008547
-0.109615
0.105586
-0.0314099
-0.0168698
-0.0741446
-0.1108
0.433186
5.32161e-05
0.00343502
0.00421152
-0.0327697
0.00127632
0.0489137
-0.00152653
-0.000480853
-0.00502905
-5.4656e-06
1.5932e-05
0.0227956
-0.00111914
0.182315
-2.10469e-05
0.0339143
-0.00596267
-0.022348
-0.0163988
-0.0199542
-0.0425765
0.00715182
4.13239e-06
0.0398023
-0.071032
-0.00718691
0.0679412
-0.0305388
-0.0122684
-0.025026
-0.18797
0.0702439
-0.125615
0.037753
0.00028092
-0.016493
0.000152937
0.102188
0.00780707
-0.000111225
-2.00688e-06
0.0748481
-0.000519366
0.0300974
0.157685
-0.117748
-1.69546e-05
-0.0147286
0.329169
0.067511
-0.0039962
0.103858
0.0447198
0.0317226
0.000267355
-0.0010216
0.0102223
0.136572
-0.0263631
-8.9558e-05
-0.00047998
7.6002e-05
-0.03467
-0.0408256
0.0339211
0.0207046
-0.0135668
-0.121352
-0.0287791
-0.0555073
-0.0311258
0.260206
0.0215798
-0.0542592
-0.00106437
1.26697e-05
-0.00655052
-0.0700356
0.00129294
-0.000124448
0.0874648
0.0712539
-0.0209502
0.0770226
0.00270407
0.33244
-0.000822053
0.120777
-0.0814429
-0.00105943
3.91172e-06
0.0226226
-0.0199437
-0.000482238
-0.00827712
0.168356
0.182686
-0.0114654
0.314107
0.11937
-0.0198958
-0.0179236
-0.0388787
-0.00214373
0.101395
-0.0348033
-0.000166363
-8.30736e-07
-0.000456153
-0.0227638
-0.00331544
-0.0148217
-0.0604519
-0.131819
-0.000581455
0.348883
-0.0102448
0.180993
0.502002
0.107262
-0.0534722
-2.12163e-06
-0.019116
0.001156
-0.00486548
0.321469
0.0794351
0.065044
0.433368
0.00433229
0.026277
-0.0250253
3.39881e-05
0.231637
-0.002809
-0.041682
-0.0153787
0.00492724
2.59401e-05
-0.0637473
0.036153
1.76711e-06
0.496751
0.0519246
-0.000200423
-0.000123891
-0.000650921
0.188931
0.0451474
-4.2865e-07
-0.000663707
7.32095e-05
-0.000101881
0.00101028
-0.000650785
-0.00472999
-0.00231897
-0.00124078
-0.0049024
-0.000235887
-0.000197635
0.0209261
-2.79432e-06
-3.8724e-07
-0.0512405
-0.0307064
-0.00274035
0.255642
-0.0296035
-0.000335436
-0.00505639
3.35489e-08
0.00252237
-0.0372884
-0.0849624
-0.0869412
-0.000173995
0.187917
-0.00596686
0.0927659
0.0101011
-0.0153197
-0.0144502
-0.00648531
4.41142e-05
0.00529244
-0.0863234
0.000197531
-0.027706
-0.0324796
1.14879e-05
0.530488
0.0849872
-0.000676999
-0.0324912
0.0739166
-0.0147986
-0.00679611
1.33802e-05
-0.0194175
-0.0112764
-4.44546e-07
0.0499481
1.56164e-05
-0.000577506
-0.0231612
-0.0427391
-0.00329614
-0.00428336
-2.93693e-07
-0.0334215
0.00122979
0.105272
-0.0198578
6.37692e-06
-0.00338254
-0.000674603
-0.0457674
-0.145181
-0.0883056
-0.00536574
-0.03862
0.0762539
0.000726468
3.44034e-06
-0.00164684
-0.0218233
-0.016285
0.400397
-0.0298532
0.567352
0.000104762
-0.0235094
-0.0423719
0.226124
0.310863
-0.00642821
-0.00090608
-0.039165
1.20013e-05
0.430985
0.189775
0.0612214
-0.0244221
0.0391684
0.0765189
0.403505
0.149777
0.147973
-0.0346345
-0.116525
0.180491
-0.0416221
-0.000715066
-0.0952781
0.0139388
0.000508589
-0.0164676
-0.000107274
0.00303311
-0.00243746
0.00136756
-0.0181155
8.11236e-05
-0.0191091
-0.0931866
-0.0348675
1.77108e-05
-0.00263331
-2.2459e-05
3.67213e-05
0.0911994
-0.038319
-0.00915412
-0.000204873
0.00654406
5.69325e-06
-1.04547e-05
-0.000268283
-0.000146275
-0.126542
-0.0294044
-0.000696266
0.0667596
-0.000966745
-0.0303944
0.0297936
-0.00576566
-0.00111944
8.55851e-05
0.00410276
-0.024214
-0.00109179
3.84613e-05
0.00252788
-0.0543881
-0.0180872
0.0258139
0.000164394
-0.0190743
0.493219
0.000599729
0.000752534
0.0228628
-0.000250407
-0.000507301
5.6776e-06
-3.77571e-07
-3.29611e-05
0.00977224
-0.0380173
0.357935
0.531122
-0.000165869
8.45399e-06
-0.000167496
-0.0403305
0.603692
-0.0235197
-0.0417404
-0.025229
-2.2443e-05
0.000557599
-0.0334242
-0.00168193
-0.0458713
0.00746282
-0.0872942
-0.0458576
0.000921354
0.451823
-0.113044
0.000345845
-0.000958155
0.00238734
-0.0134749
-0.114048
-0.0397972
-0.00556849
0.233436
0.333724
0.0912826
0.205766
0.0461967
-0.0450507
-0.00526769
0.00295812
0.0297636
-0.0204866
0.000285058
-1.48498e-06
-0.0855114
-0.103096
-0.000373166
-0.0181341
-0.0409329
-0.0414635
0.324612
-0.00106101
-0.0188065
-0.0106066
-0.0230343
0.0376322
0.0167294
0.0026852
-0.00262102
-0.0109834
-0.0102943
-0.00719352
-0.0207425
-0.00277432
-0.0413241
0.173681
-0.0229241
-0.0099725
-0.00267142
0.111924
-0.119608
-0.0395804
-0.0712928
5.93458e-06
0.196597
0.0299938
-0.0300362
0.00121895
-0.0150381
-0.00966994
-0.00118533
-0.0310978
-0.00893091
-0.0849216
-0.00416946
0.00125011
7.81223e-05
-9.21056e-05
0.0219949
-4.6008e-06
-0.0120894
-0.0247895
-0.026575
-0.000102138
0.000106155
0.000165036
0.00116072
-0.0164322
0.0110934
-0.034173
-0.0410599
-0.0550074
-0.00692916
-0.0015236
0.40942
-0.00709921
-0.00227033
0.258111