/*--------------------------------*- C++ -*----------------------------------*\
  =========                 |
  \\      /  F ield         | OpenFOAM: The Open Source CFD Toolbox
   \\    /   O peration     | Website:  https://openfoam.org
    \\  /    A nd           | Version:  7
     \\/     M anipulation  |
\*---------------------------------------------------------------------------*/
FoamFile
{
    version     2.0;
    format      ascii;
    class       volVectorField;
    location    "16.5";
    object      U;
}
// * * * * * * * * * * * * * * * * * * * * * * * * * * * * * * * * * * * * * //

dimensions      [0 1 -1 0 0 0 0];

internalField   nonuniform List<vector> 
20933
(
(0.997329 -0.000280654 -2.07733e-23)
(0.989312 -0.000808365 8.15482e-22)
(1.02418 -0.00316708 -1.12845e-22)
(1.00028 -3.18302e-05 -1.10028e-24)
(1.00079 -0.00822155 5.95482e-23)
(1.00048 -0.00872888 -5.8009e-23)
(1.037 -0.14871 -7.89989e-22)
(1.09268 0.0624762 -2.02501e-20)
(1.00692 -0.0737749 -2.03216e-21)
(1.09757 0.0633472 1.44987e-20)
(1.04726 -0.133782 -2.18758e-21)
(1.1867 0.113891 -8.24911e-22)
(0.988718 -0.0478859 -3.8065e-22)
(0.99721 -0.000333334 1.40186e-23)
(0.996287 -0.00312914 1.2652e-22)
(1.00027 -4.14974e-05 -9.2382e-25)
(1.25557 -0.0186277 9.10227e-22)
(1.10411 0.00125172 -1.12951e-20)
(1.00568 -0.111072 -1.58725e-21)
(0.991561 -0.000393895 -7.15389e-22)
(1.01792 -0.0848528 2.49701e-21)
(1.18244 0.113105 -1.4282e-21)
(1.09961 0.0687616 -1.09671e-20)
(1.1242 -0.173021 -1.35294e-21)
(1.02241 -0.00136746 8.45583e-24)
(0.994602 0.0758335 -3.08489e-20)
(1.00839 -0.00242051 -4.75786e-23)
(0.996239 -0.0515659 1.19808e-21)
(1.17209 -0.163186 -1.06666e-21)
(1.008 -0.112293 5.42667e-21)
(0.998892 -0.0020369 -1.79374e-24)
(0.945347 0.0147825 4.71365e-20)
(1.12809 0.106363 8.95979e-21)
(0.993847 -0.0300611 1.28593e-22)
(1.00008 -0.0015107 6.76801e-24)
(0.998948 -0.00219505 -6.19137e-24)
(1.08587 0.0791404 -2.177e-20)
(0.999891 -3.36495e-06 -1.27225e-24)
(1.01379 -0.0175146 -1.94205e-23)
(1.11347 0.00266961 -3.96835e-21)
(1.03756 -0.00751724 4.7518e-23)
(1.09769 0.128278 1.55133e-20)
(1.03121 0.0386839 -8.9443e-21)
(1.00751 -0.00282771 3.97128e-23)
(0.994283 0.072868 1.21679e-20)
(0.977382 -0.00155278 4.66533e-22)
(1.08789 0.00876714 -3.10025e-20)
(1.2342 0.0574428 -4.10166e-21)
(0.999618 -9.80162e-05 3.03361e-25)
(0.97781 -0.0422214 2.33218e-22)
(0.999991 -0.00160822 -1.70037e-23)
(1.069 -0.00788111 3.16088e-21)
(1.17533 -0.102891 9.25401e-22)
(1.00039 -0.00354668 -2.17783e-23)
(1.21242 -0.105324 -4.4135e-22)
(0.954416 -0.0173203 -2.65955e-22)
(0.981966 -0.0283796 6.01165e-23)
(0.998784 -0.0026332 3.45028e-24)
(1.00998 -0.0431331 -9.83826e-22)
(1.25143 -0.0143614 -5.99179e-22)
(0.976096 0.0272965 2.5656e-20)
(0.969037 -0.00439367 7.69935e-22)
(0.989957 -0.0032848 -2.03134e-22)
(1.10938 0.0628044 -9.54339e-22)
(0.999399 -9.67983e-05 -2.18257e-24)
(0.99616 -0.00745155 3.22544e-24)
(0.996196 0.0522261 7.8036e-22)
(0.9957 -0.00778769 7.61867e-23)
(1.11152 -0.0686098 2.72895e-21)
(0.99979 0.0769977 1.15093e-20)
(1.03749 -0.0381865 7.11329e-22)
(1.26142 -0.0482277 3.6999e-22)
(0.996639 -0.00312797 -2.6631e-23)
(0.986851 -0.0352231 1.33258e-21)
(0.999702 0.0121351 -1.15651e-20)
(1.06981 -0.0769192 -2.61403e-22)
(0.999935 0.0719678 5.356e-21)
(0.96024 -0.00500888 2.24773e-22)
(1.11163 0.0014874 2.49223e-21)
(1.00334 0.030405 1.7007e-20)
(0.996966 -0.00773269 2.02747e-22)
(1.0021 -0.0041641 -8.05801e-24)
(1.15423 -0.164655 8.6636e-22)
(1.00774 -0.0714344 1.68881e-21)
(0.971709 -0.00348999 -8.48528e-22)
(1.02908 0.0364124 4.31533e-20)
(0.991135 -0.0446601 -7.13389e-22)
(0.907782 0.0497197 4.41773e-21)
(1.106 0.0585619 -8.92027e-21)
(0.982238 0.0771133 1.94775e-20)
(1.10005 0.0237032 -1.2109e-20)
(1.00033 -6.27661e-05 7.43779e-25)
(1.00005 -0.000289279 6.76934e-24)
(0.951706 0.00491627 -1.31167e-20)
(1.23947 0.0519905 2.07817e-21)
(0.990435 -0.00344157 -1.2086e-22)
(0.960621 0.00317667 2.01086e-20)
(0.999589 -0.00423811 2.19269e-23)
(1.0511 -0.129234 -8.87356e-22)
(1.06431 0.0135347 -1.16577e-20)
(0.97955 0.0792588 -5.76605e-20)
(0.97851 -0.0100749 7.04428e-23)
(0.971685 0.0729481 -6.29854e-20)
(1.16213 -0.0932774 -7.60636e-22)
(1.09275 -0.00262046 -7.59225e-21)
(1.09354 -0.0742794 -1.62852e-21)
(1.02141 0.0855686 2.19522e-20)
(1.14979 -0.0768118 -1.71811e-21)
(0.988981 -0.000471668 -8.02788e-22)
(1.03608 0.0971936 5.01966e-21)
(1.1799 -0.166621 -3.50153e-21)
(1.03249 -0.148202 -1.83466e-21)
(0.981094 -0.0224129 5.5029e-22)
(1.03095 -0.0198163 -6.54365e-22)
(1.07139 -0.0709371 -3.59991e-22)
(1.00008 -7.6548e-05 -1.4928e-24)
(1.0447 0.0631079 2.12648e-20)
(0.997453 -0.00723114 -7.64346e-23)
(1.15538 -0.104394 1.1118e-22)
(1.00287 0.0255052 -4.02023e-20)
(1.00033 -4.48183e-05 1.38699e-25)
(1.02866 -0.0882585 1.3955e-21)
(1.12908 0.0184757 -5.32392e-21)
(1.01087 -0.0493175 -1.35857e-21)
(0.993706 -0.0285328 -1.36049e-22)
(1.10498 0.00289404 5.90323e-21)
(1.15546 0.118738 -2.18808e-20)
(0.995983 -0.0496514 9.91156e-22)
(0.939614 0.017535 -1.37218e-20)
(1.04097 0.065062 1.13397e-20)
(0.992766 -0.057267 -9.42684e-22)
(0.977459 -0.0406424 -7.21326e-22)
(1.03766 -0.00391523 4.00831e-22)
(1.01301 -0.0160993 1.31752e-22)
(1.01705 0.0803215 -2.97869e-20)
(1.0895 -0.00519048 -2.14189e-21)
(1.21247 0.0717039 -5.36647e-21)
(1.02076 -0.0853394 -1.07207e-21)
(0.983247 -0.0100896 6.34067e-22)
(0.994989 -0.0757043 4.12505e-21)
(1.0252 -0.0910542 2.76616e-22)
(0.985487 -0.0364075 -1.30873e-21)
(1.26193 -0.0592901 1.3006e-22)
(0.968954 0.079631 -1.98286e-20)
(1.18836 -0.00468852 2.7786e-21)
(1.01619 0.0827311 2.68944e-20)
(1.13199 0.131193 -2.26059e-21)
(0.972099 -0.0107129 -5.88727e-22)
(1.1624 0.110919 -1.5393e-20)
(1.00946 -0.00324276 1.08584e-22)
(0.971618 -0.00981435 1.18018e-21)
(1.00113 0.0755144 1.37123e-21)
(1.00007 -0.000247347 -4.30702e-24)
(1.00619 -0.0661433 6.53191e-22)
(1.00205 -0.00374252 1.10943e-23)
(1.12868 0.133724 1.2481e-20)
(1.02557 0.0380349 -4.62126e-21)
(1.11957 -0.169326 5.90091e-21)
(0.950695 -0.0200808 5.07726e-22)
(0.987978 -0.0490603 8.04957e-22)
(1.21847 -0.11383 5.78724e-22)
(1.04084 -0.143648 1.20208e-21)
(0.998741 -0.00243516 -5.86692e-24)
(1.18582 0.000317857 -4.37803e-21)
(1.10571 -0.00266679 -1.16357e-21)
(0.910757 0.0516595 1.04838e-20)
(0.979616 -0.0101935 4.78423e-22)
(1.14785 -0.171205 3.38227e-22)
(1.06581 -0.0786673 3.03191e-22)
(1.08673 0.0757673 -1.28217e-20)
(1.2171 0.0714783 1.74086e-21)
(0.989872 0.0582188 1.20529e-20)
(1.05411 0.113613 3.41187e-20)
(0.991272 -0.0263071 2.6109e-23)
(0.917966 0.01445 -1.55768e-20)
(1.13225 0.107606 1.09592e-20)
(0.996847 -0.000669982 2.39713e-23)
(0.989395 0.00735613 -3.03026e-20)
(1.07703 -0.069381 -5.97009e-23)
(1.03013 0.100907 9.54575e-21)
(1.01237 0.087732 -1.36243e-20)
(0.999841 -3.77785e-06 1.50869e-24)
(0.96633 0.056024 8.63754e-22)
(1.05237 0.0990949 2.89277e-20)
(0.990964 -0.000646043 4.70033e-23)
(0.948181 -0.0145067 2.84188e-21)
(1.03701 -0.0356482 -4.57463e-22)
(1.0697 0.0101494 -2.97255e-21)
(1.15645 -0.0982495 4.44251e-23)
(0.937974 0.0437239 1.39481e-20)
(1.15372 0.11497 -7.47273e-21)
(1.22493 -0.034638 1.44229e-21)
(1.06052 0.0100884 2.35081e-20)
(1.11046 -0.0628424 2.56721e-21)
(0.951514 -0.0210691 1.26546e-21)
(1.1864 0.0851088 -9.82147e-21)
(0.967229 0.0589133 -9.45606e-22)
(1.23204 0.0201957 -6.11936e-21)
(0.992955 -0.000253205 4.32645e-25)
(0.934265 0.0433082 -1.3621e-20)
(1.20588 0.047232 -1.25872e-20)
(1.22543 -0.0816463 -1.00475e-22)
(1.17401 -0.0963512 1.05496e-22)
(0.944952 0.0496961 -1.68514e-20)
(0.959739 0.0517919 3.95952e-20)
(0.969378 -0.0232418 -5.2251e-22)
(1.00125 -0.0366617 -9.80452e-23)
(1.06898 -0.00466942 -4.32978e-22)
(0.954898 -0.0187015 -1.26846e-21)
(0.998669 -0.000127876 -1.72633e-23)
(0.997595 0.0535902 -5.74858e-21)
(0.988405 0.0213084 -1.09093e-20)
(0.971773 -0.0134753 9.09678e-22)
(0.961937 -0.0318595 7.09436e-22)
(1.0318 0.0981031 1.47645e-20)
(0.999054 0.0194715 1.74991e-20)
(0.998613 -6.10755e-05 6.83675e-23)
(1.0017 0.0217444 -2.72129e-20)
(1.15389 -0.0719466 -8.58071e-22)
(1.01394 -0.0141534 -2.68366e-22)
(1.00556 -0.0532534 1.11061e-22)
(1.02865 0.0600805 -2.28467e-21)
(0.961357 0.0882049 1.84948e-20)
(1.09743 0.0211891 1.60083e-20)
(1.03719 0.093263 -2.41562e-20)
(0.98215 -0.01007 -1.07454e-21)
(1.00314 -0.0361594 -4.46254e-22)
(1.00012 -8.43242e-05 3.87115e-26)
(0.99902 -4.44954e-05 -2.91157e-23)
(1.00064 -0.00688799 1.17598e-22)
(1.12713 0.0159557 2.53521e-21)
(1.12364 -0.10682 -1.9505e-22)
(1.02314 0.0831636 -2.8007e-20)
(1.0026 -0.0884835 1.13024e-21)
(1.02068 0.0308032 1.65706e-20)
(0.992372 -0.0430718 -1.27789e-22)
(1.08785 -0.0710812 1.13165e-21)
(0.991867 0.0570046 2.15155e-20)
(0.954199 0.00386239 6.77905e-20)
(1.02962 0.0569034 3.93383e-20)
(1.00203 0.0697958 -3.29894e-20)
(0.96044 -0.0312244 -6.33667e-22)
(1.09296 0.114958 -9.39834e-21)
(1.01172 -0.0477759 1.47822e-21)
(1.09588 -0.00426042 1.53727e-20)
(0.997288 -0.00652959 -1.40294e-22)
(1.25051 -0.0949191 -1.64988e-21)
(1.15867 -0.0471375 5.90085e-21)
(1.07663 -0.0235 4.89646e-21)
(0.999638 -7.45049e-05 -4.03014e-25)
(0.987189 -0.000655879 9.41802e-22)
(0.958004 0.0900557 -2.84423e-20)
(1.15209 0.0418644 3.77541e-20)
(1.01327 -0.0188842 1.01644e-22)
(0.975116 -0.0457649 -1.29998e-21)
(1.11834 -0.102698 -2.55512e-23)
(1.06986 -0.158438 2.92971e-21)
(1.0937 0.12734 -1.93806e-21)
(0.995992 -0.0748115 -1.13666e-21)
(0.973427 -0.00188872 -8.60843e-22)
(0.998473 -0.0585742 1.35101e-21)
(0.994373 -0.0252933 -1.51237e-22)
(0.999327 -7.48996e-05 9.9816e-25)
(0.991482 -0.0411223 6.49585e-22)
(1.04435 -0.143682 -5.84084e-22)
(0.968214 0.0765241 3.75429e-20)
(1.24767 0.0248629 2.88219e-21)
(0.982558 -0.0213697 -1.05989e-21)
(1.01856 0.0323057 -2.55648e-20)
(0.961399 0.0555121 -4.69876e-21)
(0.991751 -0.0464104 1.45555e-22)
(1.00061 -0.000247404 -3.12509e-24)
(1.00552 -0.0687558 -1.18674e-21)
(0.996375 0.0492399 6.64433e-21)
(1.23215 -0.131486 -1.41674e-21)
(0.977917 0.0253153 -3.87519e-20)
(1.00005 -9.01868e-05 7.74587e-25)
(0.963729 -0.0348675 1.19894e-21)
(1.04388 0.11362 2.75004e-21)
(0.999447 0.0189675 3.56568e-20)
(1.02909 -0.0658098 -1.82918e-22)
(0.983162 -0.0270924 6.73308e-22)
(0.945876 0.0815608 3.01774e-20)
(1.2184 -0.0666888 -2.52627e-22)
(1.21831 -0.0383448 -1.02473e-21)
(0.975093 0.0739143 2.59845e-20)
(0.940395 0.04919 -2.84629e-21)
(0.990607 -0.0479923 -4.29839e-22)
(1.04246 0.115972 -1.75901e-20)
(1.13341 -0.00723859 -7.36591e-21)
(1.00481 0.0306074 -4.64659e-20)
(1.05771 0.0693422 1.30454e-20)
(1.00063 -0.000181903 3.26707e-24)
(1.25455 0.02717 -2.40995e-21)
(1.08079 0.0729506 7.74234e-21)
(0.996703 -0.000588971 8.2936e-23)
(1.0014 -0.0933354 -4.53394e-22)
(1.21878 0.0241561 -2.55603e-21)
(1.13465 -0.163532 -9.92008e-22)
(1.20395 0.0415936 7.13939e-21)
(1.16298 -0.0286974 -3.42404e-21)
(1.00011 -0.000158201 -1.1462e-24)
(0.999658 -0.00299472 5.8452e-23)
(0.983712 0.0874448 -4.61984e-20)
(1.00136 -0.0123209 -2.88566e-23)
(1.01168 -0.111476 -1.24914e-21)
(0.993583 -0.06179 1.4285e-22)
(1.17949 0.108274 -8.28244e-21)
(0.971605 -0.0042982 -1.51647e-22)
(1.03124 0.103428 1.68881e-20)
(1.17875 0.0138081 9.4814e-21)
(0.996337 -0.0590668 8.11033e-22)
(0.957745 -0.00602296 -6.26022e-22)
(1.09092 0.0724074 1.39638e-21)
(1.17633 0.0826362 7.21992e-21)
(1.00007 -0.00016184 -1.36132e-24)
(0.979697 0.0546457 3.8536e-20)
(1.04033 0.0682927 5.72579e-21)
(0.992411 0.0155294 -9.41833e-21)
(1.21498 -0.0961009 -3.35481e-22)
(0.999425 -7.15423e-05 1.54947e-24)
(0.946943 0.0784717 -1.98201e-21)
(0.997408 -0.00453352 -1.36864e-22)
(0.995301 -0.0454261 2.67083e-22)
(1.1825 0.0809172 -3.0298e-21)
(1.22459 0.0181313 7.63029e-22)
(0.984967 -0.0482556 -1.11355e-21)
(1.21782 -0.0762138 -3.6834e-22)
(1.02341 0.0361362 6.59196e-21)
(0.953401 0.00475374 2.46896e-20)
(1.00999 0.0795508 -3.52652e-20)
(1.15467 0.0196812 -1.13202e-20)
(0.909093 0.0193148 3.35738e-21)
(1.0003 -9.54517e-06 -5.93836e-25)
(0.992486 -0.0249309 -1.75583e-22)
(1.00001 0.0115578 4.71272e-20)
(1.17843 -0.138141 2.7238e-22)
(1.08019 0.0695523 -1.82673e-20)
(0.988714 -0.0356117 -5.26709e-22)
(0.996559 0.0710565 3.27957e-20)
(1.16494 -0.00255943 6.07545e-21)
(1.00018 -0.00325037 2.8548e-23)
(1.16042 -0.0067818 -5.30609e-21)
(1.04483 0.0586292 -2.74026e-20)
(1.14365 -0.145118 1.34046e-23)
(0.972076 0.00675085 -7.03488e-21)
(1.05778 0.103469 4.1215e-21)
(0.999394 -0.000298278 -2.66934e-24)
(1.03274 -0.0179038 -1.27486e-21)
(1.11978 0.0892375 9.59348e-21)
(1.10315 0.000680492 2.15952e-20)
(0.99796 -0.000104737 -6.76534e-23)
(1.05486 0.11054 -3.05191e-20)
(1.01201 -0.0424574 -1.0224e-22)
(0.898995 0.0503981 -1.84438e-21)
(1.02173 -0.0897337 -1.97865e-21)
(0.971136 -0.0122854 3.91969e-22)
(0.987865 -0.00075503 -8.70687e-22)
(1.01104 0.0824011 3.93641e-20)
(1.05233 0.0965853 -4.6118e-20)
(0.974744 -0.0026957 3.81873e-22)
(1.08925 0.0668595 4.96863e-21)
(0.981844 0.0734778 -1.12629e-20)
(1.00145 -0.0132236 -3.16292e-23)
(1.04238 0.00544401 6.76996e-21)
(1.02244 0.0152293 -1.86754e-20)
(0.89985 0.028994 2.21986e-20)
(0.997757 -0.0037966 4.20155e-23)
(1.1589 0.0893156 -1.65431e-20)
(1.15374 -0.0517363 -1.70456e-21)
(0.952972 -0.0169063 -4.5085e-22)
(0.999615 -6.21891e-05 7.56274e-25)
(0.999735 0.00653676 2.8321e-20)
(1.09921 0.131409 9.08035e-21)
(1.22713 -0.00353875 -1.28952e-20)
(0.991279 0.0872664 -1.18959e-20)
(1.15006 0.02276 5.67804e-21)
(0.980439 -0.0280485 4.74139e-22)
(1.09578 0.111134 -7.01153e-21)
(1.10477 -0.00150225 -3.81403e-21)
(1.14644 0.0387269 1.07408e-20)
(0.905307 0.0311755 -5.80504e-20)
(1.02357 -0.0785432 6.29829e-22)
(1.19068 0.0730688 3.94486e-21)
(0.991112 0.0195325 -2.46931e-20)
(0.973938 -0.0465294 1.18564e-21)
(1.12803 -0.0168583 5.66439e-22)
(1.05732 -0.129502 2.05109e-21)
(1.12216 0.0851328 -4.24606e-21)
(0.994237 -0.000188802 -1.28269e-21)
(1.09199 0.00966611 -3.53625e-21)
(1.2279 0.00368131 5.58388e-21)
(1.19308 0.0680463 9.94976e-21)
(1.00117 -0.00414457 5.45538e-23)
(1.08543 0.00673416 3.27967e-20)
(0.997252 0.013231 -2.36507e-20)
(1.04657 0.0412856 4.92514e-20)
(1.13475 -0.159239 -3.91639e-21)
(0.995422 -0.0238551 3.3435e-22)
(0.948007 0.0457977 -1.9643e-20)
(0.94647 0.016937 -5.05626e-20)
(0.997736 -0.00611293 -3.15247e-23)
(0.965219 -0.0340755 5.56918e-22)
(1.01605 0.0603991 5.19965e-21)
(1.0157 -0.116894 -1.01467e-21)
(1.0822 -0.0738822 -8.82039e-22)
(1.09237 0.123043 2.92478e-20)
(0.989663 -0.000506401 1.08576e-21)
(0.895099 0.0262591 3.77455e-20)
(1.03048 -0.0588151 -2.6231e-23)
(1.1495 0.0961366 5.29956e-21)
(0.991968 -0.0089333 5.85206e-23)
(0.99551 0.0130781 -1.00809e-20)
(1.06088 0.100939 -8.54403e-21)
(1.07686 -0.0183291 -4.95822e-21)
(1.09439 -0.0800086 2.45403e-22)
(1.226 -0.028385 -2.25492e-21)
(1.20359 0.0517081 1.33472e-21)
(0.999739 -0.00460019 -9.36881e-25)
(1.01315 0.0498121 -9.6021e-21)
(1.26814 -0.0424328 -8.73e-22)
(1.10115 0.058415 2.18554e-20)
(0.901714 0.0529078 5.81157e-20)
(1.22471 -0.092039 1.02294e-22)
(1.06244 -0.0676812 1.08522e-21)
(1.00035 -0.00747789 -1.1851e-22)
(1.23487 0.0642579 8.72133e-21)
(1.23815 0.0145386 3.52035e-21)
(0.979805 -0.0218921 1.83597e-21)
(1.07795 0.113127 -2.7106e-21)
(1.00006 -0.00122535 -2.60525e-23)
(0.978822 -0.0375499 -2.50738e-22)
(1.01313 -0.0128296 3.89608e-22)
(1.21082 -0.0619068 -2.08297e-22)
(0.992519 -0.0394795 5.50443e-22)
(0.999635 -0.000125799 -4.53037e-25)
(0.99175 -0.0510369 1.60737e-21)
(1.19236 0.0842314 -5.15668e-21)
(1.14452 -0.153227 -1.32767e-21)
(1.04302 -0.0620619 -1.12676e-23)
(0.968042 -0.0238437 -1.05811e-21)
(1.21149 0.0227902 -8.52899e-21)
(1.15714 -0.0257126 5.51069e-21)
(0.980309 -0.0480851 -5.89902e-22)
(0.952823 -0.00859634 1.97411e-21)
(1.0009 -0.00433778 -9.29056e-24)
(1.11698 -0.0716114 -2.87294e-21)
(1.02555 -0.125871 -1.51939e-22)
(1.01066 -0.00271896 -8.89327e-23)
(1.03197 -0.06282 3.69583e-22)
(1.17198 0.0789125 -1.13012e-20)
(1.04798 0.0382326 -3.01227e-20)
(1.18982 0.00828902 2.12822e-21)
(0.999351 -0.000255631 -5.7744e-24)
(0.940242 0.0862834 -4.39307e-20)
(1.0108 -0.00140873 -3.51588e-22)
(0.999993 -0.00132716 3.12305e-23)
(1.03542 -0.00906161 1.18395e-21)
(0.968613 -0.0342639 -8.99151e-22)
(1.0106 -0.081321 1.37518e-22)
(0.962245 0.0482138 -2.33696e-20)
(1.02203 -0.0484017 3.02291e-23)
(1.12912 -0.00645898 -3.35657e-21)
(1.02132 -0.109073 2.18656e-21)
(1.01865 -0.110938 -2.89994e-21)
(1.09506 0.119619 -2.03045e-20)
(0.997072 -0.0459287 -4.22328e-22)
(0.995438 -0.0714204 7.4015e-22)
(1.00299 -0.0918201 1.00386e-21)
(0.999659 -4.32821e-05 -9.97598e-25)
(1.1608 -0.0856564 8.26162e-22)
(0.931229 0.0827473 -4.20945e-21)
(1.07209 -0.152983 7.28112e-22)
(0.967097 -0.0429288 -2.17774e-22)
(1.07745 0.108443 -3.68866e-22)
(0.985805 -0.0455226 -1.16817e-22)
(1.05753 0.0652681 -1.0859e-20)
(1.16465 0.114051 -1.74094e-21)
(0.99701 -0.00485148 2.13911e-22)
(0.99857 -0.000186104 1.35998e-23)
(1.03667 0.0621985 3.36347e-21)
(0.908431 0.0642051 1.89608e-20)
(1.05741 -0.151557 1.99498e-22)
(1.13714 0.124659 2.7992e-21)
(1.20253 0.0879346 -1.41743e-20)
(0.972046 -0.0381424 -3.81046e-22)
(0.972093 -0.0400047 -8.89743e-22)
(1.01738 0.0630685 -1.43197e-21)
(1.08985 -0.00959614 3.21879e-21)
(1.1537 -0.15672 2.85041e-21)
(1.06082 -0.123723 -1.51516e-21)
(0.978592 -0.00161665 5.78242e-23)
(1.05537 -0.0130303 2.36843e-21)
(0.946505 0.0254572 -8.76006e-21)
(1.12806 0.00755257 -2.04954e-20)
(1.00028 -7.08016e-05 8.2577e-25)
(0.970412 0.0701887 4.06001e-20)
(1.03295 -0.0559691 -5.59181e-23)
(1.01181 -0.0827789 1.62124e-21)
(1.04692 0.112405 -1.59943e-20)
(1.01563 -0.0208985 3.21835e-22)
(0.991283 -0.00856188 -1.81291e-22)
(0.999424 -0.000427393 -3.8231e-24)
(1.14475 -0.0630985 1.78909e-21)
(0.969319 -0.0183988 -8.38508e-22)
(1.00029 -1.46238e-05 9.70611e-25)
(1.1398 0.12673 -6.87767e-21)
(1.23444 -0.123531 -8.99378e-22)
(1.01132 0.0485644 -1.65714e-20)
(0.999292 -0.000106811 8.21879e-25)
(1.00028 -0.00388591 -1.18832e-23)
(0.984871 -0.0467143 -5.44314e-22)
(1.00001 -7.35906e-05 1.14993e-25)
(1.05835 -0.1562 -1.02694e-21)
(1.1709 -0.153357 -1.25629e-21)
(0.99977 -0.00389907 1.23921e-23)
(1.00902 -0.0651945 -4.70878e-22)
(0.949414 -0.0143207 6.73566e-22)
(1.04627 0.101955 -1.70515e-21)
(0.989519 0.0862299 9.66071e-21)
(0.997366 -0.004136 4.32679e-23)
(1.00288 -0.00100342 -1.33663e-23)
(0.999874 -0.0870435 -2.68696e-21)
(0.985803 0.0785461 3.07614e-20)
(1.00478 -0.0298385 3.7e-22)
(0.98089 0.051267 -1.08618e-21)
(0.984091 -0.0110136 -7.30656e-23)
(0.897008 0.04162 -1.58184e-20)
(1.03706 0.012374 -3.68117e-21)
(1.12382 0.0550492 -2.27547e-20)
(0.919097 0.0515551 -1.72962e-20)
(1.26541 -0.0313052 -9.94299e-23)
(0.991051 -0.00280939 -6.75676e-23)
(1.1467 -0.0509123 1.57977e-21)
(1.0086 -0.0308041 -4.42222e-23)
(0.991621 0.078012 7.81391e-21)
(1.01627 0.0546019 2.25406e-20)
(0.973463 -0.00772719 4.61967e-22)
(1.24307 -0.0904545 1.27424e-21)
(1.11436 -0.0220434 -5.33601e-22)
(1.05988 -0.0716623 -1.66146e-23)
(0.995524 -0.000302292 -1.20233e-22)
(1.25059 -0.10477 1.63585e-21)
(1.00027 -2.2826e-05 1.65658e-24)
(1.04374 0.0988711 9.9961e-21)
(0.947947 -0.0134902 -2.60212e-21)
(0.994634 -0.057112 -2.73418e-22)
(0.997222 -0.0274673 3.04811e-22)
(1.00748 -0.0523546 1.6446e-21)
(1.1467 0.0916751 1.62806e-21)
(1.18678 0.0135306 -8.08463e-21)
(0.998255 -6.14201e-05 9.41414e-23)
(1.02459 -0.0464764 -7.72334e-23)
(0.999898 -0.000119429 1.13423e-24)
(0.897852 0.0388393 1.18645e-20)
(0.950679 0.0229633 1.80448e-20)
(0.995374 -0.00104179 -6.36219e-23)
(0.975537 -0.0121146 -4.75706e-22)
(1.03183 -0.0341806 6.24309e-22)
(1.01793 0.0573732 9.68831e-21)
(0.947732 -0.0212592 -1.31324e-21)
(1.20504 0.0916583 -3.11214e-21)
(0.968973 -0.0438467 2.4212e-22)
(1.00618 0.079163 -7.06368e-22)
(1.1272 0.0589876 -2.57804e-21)
(0.968562 -0.0200096 -5.66797e-22)
(0.902675 0.0212289 -2.42012e-20)
(1.04859 -0.00225039 -2.23575e-21)
(1.01378 0.0836464 -2.10433e-20)
(0.993793 -0.0126927 2.74755e-23)
(1.02738 -0.13368 4.59133e-21)
(0.976852 0.00411059 -5.89387e-20)
(1.01418 -0.0386482 2.47068e-22)
(0.906638 0.0683875 -8.59049e-21)
(1.02617 0.0668327 1.23988e-21)
(0.906288 0.0237596 -5.81695e-21)
(0.991549 -0.00289431 4.28086e-23)
(0.992135 -0.000572819 3.18266e-22)
(1.0281 -0.0841557 -4.24689e-22)
(1.15744 -0.0400993 -8.11016e-21)
(1.01447 -0.0207456 -3.55381e-22)
(1.02715 -0.0759913 -1.35523e-22)
(1.01008 0.074023 1.91019e-21)
(1.00534 0.0856401 6.50908e-21)
(1.03863 0.00222519 5.02084e-24)
(0.988383 0.0766154 -2.19778e-20)
(0.914465 0.0729278 4.70543e-21)
(1.12566 0.102483 1.75536e-20)
(0.998946 0.00743653 -4.04982e-20)
(1.04321 0.0320235 -9.461e-21)
(1.00511 -0.0158742 -1.39928e-22)
(1.03391 0.063963 -1.10407e-21)
(0.994029 -0.070951 -6.40603e-22)
(0.970441 -0.0428019 6.35061e-22)
(0.998861 -0.0011659 4.41198e-24)
(1.05393 -0.0717017 -4.20419e-23)
(1.10751 -0.138201 -4.44572e-22)
(1.07727 0.0376733 8.03102e-21)
(1.07863 -0.00835132 6.08459e-21)
(1.00259 0.028279 3.33584e-21)
(1.00946 -0.0449936 9.02309e-22)
(1.11711 -0.0134902 3.16566e-21)
(1.00394 0.0224067 -3.89708e-21)
(1.00973 -0.0322822 3.52559e-22)
(1.09118 -0.083819 -5.10713e-22)
(0.999929 -0.00014441 -1.81065e-25)
(1.00044 -0.000207072 8.85003e-25)
(1.07617 0.0340842 -2.85237e-23)
(0.995527 -0.0613884 -7.93257e-22)
(0.975594 -0.0399413 9.90119e-22)
(1.00048 -0.000196748 -1.18357e-24)
(1.00012 -0.00270623 1.74629e-23)
(1.11372 -0.0259423 -9.38893e-22)
(0.999452 -6.97542e-05 -1.13254e-24)
(1.23723 0.0440347 -4.42227e-22)
(0.898706 0.0315384 3.05355e-20)
(1.13216 0.126843 1.04866e-21)
(1.10822 0.0676494 -6.50402e-22)
(0.969433 -0.00756279 -7.33601e-22)
(1.02797 0.0887821 7.69848e-21)
(1.22836 0.0691131 -4.51296e-21)
(1.00517 -0.0278081 -2.16252e-23)
(0.976197 -0.0134312 -4.5823e-22)
(0.997749 -0.00351758 2.2678e-25)
(0.999371 -0.000382607 1.64765e-24)
(1.00175 -0.00439928 -2.01734e-23)
(0.997855 -0.0291689 2.68781e-22)
(1.04171 -0.132983 2.33987e-21)
(1.094 0.0836054 2.53674e-20)
(1.1825 -0.0397802 1.49177e-21)
(0.964974 -0.00357439 1.67337e-22)
(0.999905 -8.31689e-05 -1.45527e-25)
(1.00145 0.0489172 2.22251e-20)
(1.24396 -0.0146283 -4.14142e-21)
(1.25241 -0.0650427 -7.22617e-23)
(1.01638 -0.0397182 -2.69426e-22)
(1.20809 0.0690292 6.46074e-21)
(1.0522 -0.074445 -1.29645e-22)
(0.983353 -0.000864062 -1.28686e-22)
(1.0025 0.0193936 1.96101e-20)
(0.978742 0.000805021 -7.55035e-20)
(1.06367 0.123141 -2.11343e-20)
(0.989698 -0.00040506 -7.33422e-22)
(1.06117 0.122427 1.63716e-20)
(0.969546 -0.00548497 2.88739e-22)
(0.988278 -0.0425472 -6.8906e-22)
(1.11826 0.119563 -1.96576e-20)
(1.00026 -8.74181e-05 1.59566e-24)
(0.991651 -0.0278655 -1.01097e-22)
(1.15814 0.093849 5.66355e-21)
(1.12193 0.0932192 2.03499e-20)
(0.969825 -0.021552 -1.45366e-22)
(1.02144 0.0574773 1.47909e-21)
(0.964742 0.090386 -1.92353e-21)
(1.01472 0.0275803 -4.52644e-20)
(0.966974 -0.0351365 1.39545e-21)
(0.953913 -0.00848877 -9.28004e-22)
(1.0463 -0.058725 1.85584e-22)
(1.10851 -0.00193252 5.85377e-22)
(1.02116 0.0126619 -1.1094e-20)
(0.995668 -0.00140184 -2.19118e-23)
(0.974587 0.00947089 -2.20511e-20)
(0.994644 -0.0433785 1.43434e-21)
(1.03177 -0.133448 -3.09699e-21)
(1.14325 -0.0455078 1.78826e-21)
(0.937181 0.0879996 6.24608e-20)
(1.09537 0.088512 -2.09675e-20)
(1.01344 0.0548319 -2.3689e-20)
(1.17961 -0.147458 6.07468e-22)
(0.962193 0.00231288 -3.34751e-20)
(0.971041 -0.0181472 8.45002e-22)
(0.989482 -0.0409536 4.96684e-22)
(0.923666 0.0111656 1.16405e-20)
(1.07372 -0.0258891 -1.5761e-21)
(1.04192 -0.123248 -4.14231e-22)
(1.01507 0.0773105 -4.84542e-21)
(1.00475 0.0760652 -1.48053e-20)
(0.980345 -0.0362831 -9.00036e-22)
(1.02565 0.0165539 -2.5107e-20)
(0.986283 0.0818309 -4.08498e-21)
(1.00547 0.0704892 1.9348e-20)
(1.0377 0.10428 6.39102e-21)
(1.01166 0.0773565 3.12409e-20)
(1.05405 0.0716268 -1.69427e-20)
(0.987498 -0.00358608 2.7768e-22)
(0.972172 -0.0195961 1.00256e-21)
(1.00271 -0.0070295 -8.66975e-24)
(1.01357 -0.109404 3.27168e-21)
(0.993511 0.0211449 -5.71136e-21)
(1.01873 -0.115651 1.90709e-21)
(1.17493 0.0887252 -5.13057e-22)
(1.14622 0.050566 -1.37577e-20)
(0.976467 -0.0461439 6.83945e-22)
(1.23027 0.0420164 2.06794e-23)
(1.16498 0.106343 -5.60523e-21)
(0.991917 0.00913054 -1.74099e-21)
(1.22109 0.0320468 3.27606e-21)
(0.999782 -0.00326697 -6.13323e-24)
(1.05855 -0.0127686 1.10794e-22)
(0.987825 -0.0458754 3.38264e-22)
(1.227 -0.0619818 1.0917e-22)
(1.24402 -0.0606256 4.6996e-22)
(1.02211 -0.122831 6.35841e-22)
(1.0387 0.100113 3.61416e-21)
(0.978069 0.0883328 3.24969e-20)
(1.16944 -0.0244344 3.92871e-21)
(0.996825 0.00857013 1.79232e-20)
(0.906536 0.0604446 -2.11265e-20)
(0.998373 -0.000112439 -1.82888e-23)
(1.00317 -0.001026 3.1963e-24)
(0.997054 -0.00534051 -9.55402e-23)
(0.974447 -0.00814809 1.65546e-22)
(1.07752 0.079277 -1.33116e-20)
(0.92394 0.0127367 -2.52863e-20)
(1.13011 0.0110315 1.76604e-20)
(1.02945 0.0950345 4.60822e-21)
(0.984188 -0.0221433 -5.21427e-22)
(1.07 0.113741 2.78686e-20)
(1.06674 0.120224 8.90326e-21)
(1.22823 -0.114554 2.81905e-22)
(0.960731 -0.0117454 8.76605e-22)
(0.948909 -0.0201046 8.02389e-22)
(1.17897 0.0926104 1.42594e-21)
(1.01232 -0.0396078 1.54214e-22)
(1.18113 -0.0348261 2.25271e-21)
(0.973691 -0.0370985 2.01933e-22)
(0.956589 -0.0366368 -2.0253e-21)
(1.02074 0.0799167 3.46378e-20)
(0.992502 -0.002456 1.38534e-22)
(1.0255 -0.0531746 -4.29979e-23)
(1.00664 0.0843212 1.61656e-20)
(1.2284 0.0340163 1.41622e-20)
(0.944418 0.0747795 7.13653e-21)
(1.0168 -0.0783549 -7.63869e-22)
(1.04118 0.0108682 1.20846e-20)
(1.23517 -0.0665425 -1.13145e-22)
(1.00156 -0.0648096 2.99586e-22)
(0.977522 0.00718507 -8.11822e-21)
(0.989257 0.000497753 4.89724e-20)
(0.990468 0.0266649 -8.86823e-21)
(0.995191 -0.0310376 -6.562e-22)
(0.938631 0.0158722 2.76901e-20)
(0.968683 -0.0323509 7.12133e-22)
(0.975905 0.0658657 1.00481e-21)
(1.11512 -0.0579691 -9.69722e-22)
(0.987943 0.041595 -5.03774e-21)
(0.985153 -0.0437773 4.26814e-22)
(1.00005 -0.000208057 -8.81489e-26)
(0.98773 0.0365511 1.66997e-20)
(0.973838 0.0592271 1.93807e-20)
(0.978138 0.0716273 -3.11096e-20)
(0.988577 0.0317102 -1.94468e-20)
(1.06997 0.00547143 -4.3252e-20)
(1.125 -0.0143402 -2.68129e-22)
(1.06634 0.069136 -3.30031e-20)
(1.03906 -0.119445 1.00817e-21)
(0.996242 0.018001 5.85037e-20)
(1.02109 0.0514206 -2.9421e-20)
(1.23747 -0.019256 5.07231e-21)
(1.08173 -0.0108617 -6.42195e-21)
(0.98788 -0.00340846 1.55817e-22)
(1.2715 -0.0258474 3.52691e-22)
(1.02656 0.0825274 -5.89014e-21)
(0.956894 -0.0287208 5.51491e-23)
(0.969188 -0.00467229 -8.8265e-22)
(0.990582 0.00478384 -1.16108e-20)
(0.983465 0.0448292 -3.57756e-20)
(0.991936 -0.0497341 -6.46359e-22)
(0.990844 0.0486516 2.61936e-20)
(1.02456 -0.130284 1.09704e-21)
(1.20704 0.0632433 -1.06865e-20)
(0.993363 -0.000329017 -2.56153e-22)
(0.9786 0.0483366 -2.00982e-20)
(0.973022 0.0525769 5.10944e-20)
(0.907346 0.0347388 4.72028e-20)
(0.983293 0.0840963 4.23913e-20)
(0.996827 -0.000381096 -2.85739e-23)
(0.984397 -0.0239804 3.43197e-22)
(0.998708 -0.0012027 -3.74966e-23)
(0.998294 -0.0679561 -2.51907e-21)
(0.944299 0.0585505 -1.01555e-20)
(1.12107 0.0753114 -2.94437e-20)
(1.03448 0.0904987 -3.43423e-22)
(0.956976 -0.0351777 1.32008e-21)
(1.04355 0.0349616 2.97294e-20)
(1.03391 -0.0333097 -7.42113e-22)
(0.944034 0.0670052 1.47133e-20)
(1.08219 -0.0905484 -2.24982e-24)
(0.994818 0.00737239 1.98254e-20)
(0.993554 -0.000324265 -1.55666e-22)
(0.952021 0.0550484 -3.41351e-20)
(0.936715 0.0710686 -4.09846e-20)
(0.982837 -0.0251159 -8.8753e-22)
(1.17289 0.0381552 6.85308e-21)
(0.953046 0.0467517 -3.40563e-20)
(0.996322 -0.000575268 1.25354e-22)
(0.924087 0.0345954 -5.32768e-21)
(1.04384 -0.0657736 -9.19257e-25)
(0.996269 -0.000398242 -3.36211e-23)
(0.959287 -0.0129375 -6.131e-22)
(1.01391 0.0868059 -2.05374e-20)
(1.14415 0.0667436 -1.76564e-20)
(1.00905 -0.0919136 1.49043e-21)
(0.995207 0.0844529 1.66406e-21)
(0.932558 0.0794945 2.71502e-21)
(1.06642 0.116128 -3.02101e-20)
(1.05206 -0.00975313 -1.18588e-21)
(1.00033 -0.0603488 4.78384e-22)
(1.14229 -0.0574437 -2.07121e-21)
(0.984394 0.0505853 2.94719e-20)
(0.932738 0.034686 -3.08102e-21)
(0.901907 0.0336363 3.0534e-21)
(1.11962 0.0653899 4.55354e-21)
(1.00066 -0.00945165 2.31155e-23)
(0.976513 -0.00181463 7.24055e-23)
(1.02886 0.0851814 -2.09111e-20)
(1.00193 -0.00731824 1.37273e-23)
(0.985493 -0.00520017 -2.57989e-24)
(1.00305 -0.0114674 -6.30877e-24)
(0.995016 -0.0271167 -3.2554e-22)
(1.08169 -0.134132 1.55109e-21)
(1.16836 -0.135224 -7.6209e-22)
(0.96593 0.0709384 -4.52745e-20)
(1.01902 -0.0439547 1.41301e-23)
(0.999026 -0.0009664 2.41509e-23)
(1.02697 0.0537959 -4.56361e-22)
(1.1405 0.0924453 1.44727e-20)
(1.00197 -0.0116294 -2.56401e-23)
(1.18442 0.0740539 -8.44831e-21)
(1.00174 -0.00123248 3.54852e-25)
(1.13543 0.0509421 1.54948e-21)
(1.01475 0.0290534 3.17119e-20)
(0.988717 0.0466166 -5.07954e-20)
(1.13575 -0.140707 9.48218e-22)
(1.15702 0.0386738 -9.35403e-21)
(0.994602 -0.0129803 -5.88878e-23)
(1.11192 -0.0908702 -1.36715e-22)
(0.995401 -0.00172412 -9.78729e-24)
(0.981309 0.057101 -5.22168e-20)
(0.964426 0.069097 1.40157e-20)
(1.19908 -0.140368 6.03095e-22)
(1.16222 -0.150094 7.88953e-22)
(1.12641 -0.154148 3.279e-21)
(1.03111 -0.0778022 5.19287e-22)
(0.992019 0.0810548 3.5165e-21)
(1.03362 -0.0709463 2.52661e-22)
(1.10186 -0.125636 3.96596e-22)
(1.0683 -0.147015 -8.65369e-22)
(1.10554 -0.0797618 7.62188e-22)
(0.915747 0.0347634 2.59121e-20)
(1.1288 -0.170328 -6.20296e-21)
(1.22196 0.00926889 -9.01582e-22)
(0.985226 0.0161076 1.01503e-20)
(0.994724 -0.000440438 1.49283e-22)
(1.17686 0.0187727 3.98186e-21)
(1.03581 -0.0637553 -2.42794e-22)
(1.06842 -0.135005 1.45603e-21)
(0.995667 -0.00108183 2.45781e-24)
(0.999774 -0.0027716 -1.87023e-23)
(0.91758 0.0435271 -4.41894e-20)
(1.05074 0.0371293 2.28436e-20)
(1.19528 -0.148519 2.92108e-21)
(1.26759 0.00084586 1.1524e-21)
(1.05291 0.0630941 -1.23127e-20)
(0.993903 0.0475681 -4.12546e-21)
(1.02336 0.0545499 8.9761e-21)
(1.20831 -0.0806986 2.62795e-22)
(0.985991 -0.0491152 1.20659e-21)
(0.995751 -0.0415555 -3.7438e-22)
(0.988962 -0.0443705 -1.00871e-22)
(1.03382 0.0555137 -2.9959e-20)
(0.969866 -0.00591081 8.08028e-22)
(1.00462 -0.061471 6.86079e-22)
(0.999659 -4.29595e-05 8.76776e-27)
(0.973811 -0.0192268 -1.67666e-21)
(0.997785 -0.000637042 2.15897e-24)
(1.10124 -0.140808 1.06546e-21)
(1.00913 0.084589 -1.92162e-20)