/*--------------------------------*- C++ -*----------------------------------*\
  =========                 |
  \\      /  F ield         | OpenFOAM: The Open Source CFD Toolbox
   \\    /   O peration     | Website:  https://openfoam.org
    \\  /    A nd           | Version:  7
     \\/     M anipulation  |
\*---------------------------------------------------------------------------*/
FoamFile
{
    version     2.0;
    format      ascii;
    class       volVectorField;
    location    "7";
    object      U;
}
// * * * * * * * * * * * * * * * * * * * * * * * * * * * * * * * * * * * * * //

dimensions      [0 1 -1 0 0 0 0];

internalField   nonuniform List<vector> 
7724
(
(1.18688 0.126172 1.40746e-20)
(1.04927 -0.0510299 5.01071e-21)
(1.02649 0.18026 -3.67072e-20)
(1.06749 0.0817776 4.94474e-20)
(0.99911 -0.00100019 -9.43042e-23)
(0.99996 -1.2574e-05 -1.05954e-23)
(1.00334 0.147147 -7.42931e-20)
(0.994747 -0.00189984 -2.05555e-23)
(0.999866 -0.000191883 -1.72345e-23)
(1.02884 -0.00161953 -2.37369e-21)
(0.999963 -1.42646e-05 1.16854e-23)
(1.00231 -0.00143185 -3.8495e-22)
(0.99192 -0.00248755 9.82413e-22)
(1.01938 -0.00240603 -1.5249e-20)
(1.02781 0.000120043 1.00315e-20)
(0.990854 -0.0150235 -1.90895e-21)
(1.19713 0.129912 -2.94851e-20)
(0.989162 -0.00312837 -3.44513e-22)
(1.0023 -0.00964632 -1.38641e-22)
(0.97544 -0.0912943 -1.48763e-21)
(1.03791 -0.00735232 -5.19958e-21)
(1.00151 -0.000678473 7.24308e-22)
(1.01905 -0.00423029 1.31946e-21)
(1.01691 0.0378286 -2.61332e-20)
(0.985626 -0.00387585 -1.57656e-21)
(1.18013 0.13248 -1.47478e-20)
(0.999108 -0.000940635 -6.83827e-23)
(1.02669 -0.00174139 6.00909e-21)
(1.0082 0.0192894 -3.3288e-21)
(1.00333 -0.0104419 1.16122e-22)
(0.986658 -0.015903 -3.53369e-21)
(0.765735 0.073104 1.18484e-20)
(1.01778 -0.00477773 8.13121e-21)
(0.99952 -0.000410774 1.18018e-22)
(0.999893 -3.33776e-06 2.24743e-25)
(1.02615 0.000127571 3.52918e-21)
(1.00442 -0.0114873 1.34481e-22)
(1.0096 0.138437 -1.18327e-20)
(0.996566 -0.00821412 1.57834e-21)
(0.999656 -5.57083e-05 1.12503e-22)
(0.996785 -0.00841715 -1.83342e-22)
(0.991129 -0.0138522 -7.22015e-22)
(0.997655 -0.102455 6.09952e-21)
(1.13103 -0.0865906 3.45443e-23)
(0.999794 -7.75447e-06 3.67582e-23)
(0.999921 -1.86662e-05 -1.0605e-23)
(1.00132 -0.000592035 -4.42777e-22)
(0.995909 -0.00717533 -9.30848e-22)
(0.999933 -3.17322e-05 -8.60153e-24)
(0.97905 -0.0922906 2.14381e-21)
(1.00333 -0.00126343 4.13721e-22)
(1.02651 1.22648e-05 -6.25033e-21)
(0.981322 -0.00461785 -5.30846e-21)
(1.00999 -0.0325337 2.88219e-22)
(1.02522 -0.00219862 -2.07001e-21)
(0.995324 -0.00266224 -1.80519e-22)
(1.00183 -0.0093417 2.88942e-22)
(0.994734 -0.00162079 1.33902e-21)
(0.977052 -0.0187626 -6.29526e-21)
(0.999514 -0.000364303 -1.51715e-22)
(1.00004 -2.50314e-05 -1.56467e-23)
(1.00442 -0.00108245 4.63942e-22)
(1.02037 -0.00154763 -3.58315e-21)
(1.00245 -0.00126187 3.89686e-22)
(0.999054 -0.000224794 2.17549e-22)
(0.98711 -0.0165687 6.33296e-22)
(0.999906 -0.000198311 1.33713e-23)
(1.00001 -2.35161e-06 1.08077e-24)
(1.18862 0.00264146 6.88244e-21)
(0.99592 -0.00685954 -2.69026e-22)
(0.999926 -2.14545e-05 9.42031e-24)
(0.968545 -0.0548702 -1.12321e-20)
(0.986206 -0.00429329 7.66364e-22)
(0.974313 -0.00551269 1.04946e-21)
(0.9896 -0.00345491 1.07885e-21)
(0.964891 -0.0265392 -1.38034e-21)
(1.03531 0.179603 5.89684e-20)
(1.03536 -0.00680684 6.62471e-21)
(1.0924 -0.0204449 -1.23441e-20)
(0.954305 -0.0444225 -1.45089e-20)
(0.99227 -0.00274052 -1.50863e-21)
(1.00239 0.080957 7.39965e-20)
(1.04552 0.00209541 1.54986e-20)
(0.973649 -0.00991346 4.81188e-21)
(0.998653 -0.00259278 -1.48457e-22)
(0.997718 -0.000324947 1.59617e-22)
(0.994402 -0.00250797 1.85116e-21)
(0.982028 -0.00516741 3.41583e-21)
(0.999331 -0.00121383 1.01294e-22)
(0.995541 -0.000703685 5.72103e-22)
(1.0086 0.0220824 2.46608e-20)
(1.16229 -0.0875548 -2.89345e-23)
(0.999868 -5.9516e-05 -2.22131e-23)
(1.00181 -0.007896 1.15667e-22)
(0.99647 -0.00106243 5.18953e-22)
(0.973833 -0.00314693 -8.37875e-21)
(0.970868 -0.0545744 7.52422e-22)
(1.01157 -0.0314997 5.68786e-23)
(0.998593 -0.00250981 5.08631e-23)
(0.998882 -0.000178951 7.34198e-23)
(0.950855 -0.0159362 3.64299e-21)
(1.09565 -0.0155921 1.00411e-20)
(0.99668 -0.0012075 -1.29373e-21)
(0.999973 -6.15752e-07 -8.92506e-25)
(1.17017 -0.0800538 -2.04741e-22)
(1.04287 0.0321932 -2.35061e-20)
(0.881841 0.0506922 1.34058e-20)
(0.994997 -0.00252693 -7.45877e-22)
(0.999991 -2.03803e-06 2.05146e-25)
(1.02603 -0.0153719 -2.85347e-21)
(1.07151 0.0760738 -5.74222e-20)
(1.01666 -0.0808877 -6.52592e-21)
(0.999988 -2.17493e-06 -3.14826e-25)
(1.02826 -0.0163789 -6.20829e-22)
(1.03736 0.0320153 2.47164e-20)
(1.0004 -0.000571232 -3.41133e-23)
(1.05325 -0.102232 -1.68989e-22)
(1.03941 0.0166478 -5.67708e-21)
(0.980892 -0.0443514 4.80096e-21)
(0.973952 -0.00671455 -1.09163e-21)
(0.947788 -0.0104594 -8.80948e-21)
(1.00279 0.0656459 -4.83511e-20)
(1.00312 -0.101894 -8.39635e-21)
(1.00938 -0.00808496 2.37155e-22)
(0.949495 -0.0119608 3.47275e-21)
(0.999068 -0.00138028 2.26417e-22)
(0.987462 -0.0119558 1.16139e-21)
(1.00293 -0.00908091 -1.99477e-22)
(0.998994 -0.000171242 -4.85106e-22)
(0.986444 -0.0145252 5.81324e-23)
(1.18291 -0.114978 -5.96368e-22)
(1.08548 -0.0203905 2.10273e-21)
(0.999408 -0.000532213 1.27732e-23)
(0.99924 -0.00125235 -1.97126e-22)
(0.972458 -0.00905719 1.43115e-21)
(1.06538 0.0647778 2.11422e-20)
(0.98954 0.0551873 8.79267e-20)
(0.999975 -3.50763e-06 -1.05356e-24)
(1.0082 -0.00307619 1.95471e-22)
(0.929695 -0.0126051 -1.10693e-20)
(0.975838 -0.00397268 -4.29054e-21)
(0.98417 -0.0612911 -6.86387e-21)
(0.965269 -0.0285814 1.86964e-21)
(0.97569 -0.00498942 -9.43543e-23)
(0.870152 0.040203 5.21491e-20)
(1.00895 -0.0483335 -2.23756e-22)
(1.01698 0.0213007 -1.25867e-20)
(0.979152 -0.0226366 -3.22577e-21)
(0.964342 -0.00538109 1.19052e-21)
(1.00242 0.0726707 -2.39558e-20)
(1.02737 0.00234521 8.82675e-21)
(1.15056 -0.083787 8.95775e-22)
(0.99843 -0.00201368 -5.23043e-22)
(1.18787 -0.0067651 1.03117e-21)
(1.04384 0.00197114 -1.61273e-20)
(1.03384 0.138029 -5.85693e-20)
(0.959543 -0.0308917 5.75195e-21)
(0.991919 -0.00183133 3.31369e-22)
(0.909409 0.134138 1.15587e-19)
(0.999937 -2.50842e-05 -8.10311e-24)
(1.00126 -0.00817926 -8.31737e-23)
(1.01869 0.0425953 1.882e-20)
(0.999978 -2.01911e-05 5.11529e-24)
(0.998246 -0.00530058 -7.27523e-22)
(0.996047 -0.00101938 -2.481e-22)
(1.0081 0.0532066 -6.21051e-21)
(1.00513 0.0535268 2.30711e-20)
(0.894133 0.15201 3.85475e-20)
(0.998088 -0.00513033 -4.617e-22)
(0.996874 -0.000355834 -2.77632e-22)
(1.00002 -1.32194e-06 -9.86228e-25)
(0.944757 -0.00646202 -1.51996e-20)
(1.00037 -0.000510678 4.70536e-23)
(1.05245 -0.0477889 -5.86323e-21)
(1.00834 -0.00350836 1.28881e-21)
(0.965118 -0.00635164 2.46441e-21)
(1.16693 -0.0676088 1.13511e-21)
(1.15325 0.0368847 5.31753e-22)
(0.999866 -6.44825e-05 1.21479e-23)
(0.999471 -0.000653989 -1.33134e-22)
(1.07154 0.0857664 -8.66342e-21)
(0.999938 -2.05707e-05 -3.92148e-24)
(0.999887 -1.15685e-05 5.82726e-24)
(1.00765 0.157483 -6.09662e-20)
(1.04983 -0.054782 1.61561e-21)
(1.00599 -0.0670606 -3.86457e-21)
(0.982934 -0.0431966 -6.80929e-21)
(0.97647 -0.00726445 3.13759e-21)
(1.00592 -0.049406 3.80981e-22)
(0.931321 -0.0106456 5.80845e-21)
(0.999978 -1.87578e-05 -1.82359e-24)
(0.971665 -0.0512599 -2.68044e-21)
(1.1625 0.042037 -1.4356e-20)
(0.996651 -0.00146964 1.85814e-22)
(1.00008 -5.48297e-06 -1.14097e-23)
(1.1281 0.0641775 1.52837e-21)
(0.99877 -0.000388536 5.16555e-22)
(0.987219 -0.0140641 1.85685e-21)
(1.0037 -0.0465601 1.28014e-21)
(1.00002 -2.90742e-06 -4.42632e-25)
(1.0008 -0.00207811 -1.98291e-22)
(1.05994 0.066397 2.64173e-20)
(1.15479 0.0585194 -1.9119e-20)
(1.01897 0.121498 -7.88728e-21)
(1.05135 -0.0959622 2.21919e-21)
(1.02046 -0.0781345 1.53749e-21)
(1.0845 -0.140311 -7.96148e-22)
(1.02618 -0.00472996 1.77991e-20)
(1.05269 0.0652899 -8.64195e-21)
(0.999783 -2.06164e-05 -4.28069e-23)
(1.00004 -2.01473e-05 4.14212e-24)
(0.911565 0.0200235 -5.12279e-20)
(0.99248 -0.013365 -6.76886e-22)
(0.99939 -0.00048322 -1.2821e-22)
(0.973897 -0.0505797 5.54837e-21)
(0.986853 -0.0125763 -1.35004e-21)
(1.04648 0.118778 -6.47701e-20)
(1.03798 0.117078 -1.37591e-20)
(0.981228 -0.0625861 1.89878e-21)
(0.812836 0.103422 -4.46412e-20)
(0.998858 -0.000454379 -3.7902e-22)
(0.98922 -0.00264131 1.22803e-21)
(0.949047 -0.0145221 4.80359e-21)
(1.03817 -0.00155254 -3.73552e-21)
(0.997593 -0.125357 -8.14675e-22)
(1.20439 0.0944289 -2.8378e-20)
(0.90754 0.117011 -9.887e-20)
(1.00007 -0.000112635 1.27206e-23)
(1.00934 -0.00796387 6.43685e-22)
(1.03708 0.020702 3.07013e-20)
(0.996108 -0.00607509 -1.21345e-21)
(1.04212 0.0166714 -3.87115e-21)
(0.999458 -0.00130315 -3.29576e-23)
(0.84818 0.177393 7.85668e-20)
(1.03053 0.125184 1.30402e-20)
(0.99442 -0.00213336 1.17642e-21)
(1.00389 -0.00871709 -2.79429e-23)
(0.999675 -8.07013e-05 -2.09629e-22)
(1.20017 0.037714 6.91171e-21)
(0.9999 -1.59824e-05 1.73618e-23)
(0.994434 -0.0112566 5.45981e-22)
(0.93838 -0.0283606 6.52743e-21)
(0.999925 -2.62762e-05 -3.90442e-24)
(0.998792 -0.00298666 -1.29807e-22)
(0.99958 -0.00128111 5.97303e-23)
(1.09684 0.0340524 2.12949e-20)
(0.99998 -2.55797e-05 6.18484e-24)
(0.995359 -0.000546689 6.12959e-25)
(0.956546 -0.0441919 1.68222e-20)
(0.768227 0.0544711 -2.61101e-20)
(1.08305 -0.0244804 -2.87674e-21)
(0.868261 0.114994 5.98423e-20)
(0.999954 -1.07584e-05 -9.71291e-24)
(1.00145 -0.0470191 -1.08433e-22)
(0.999812 -0.000320901 -4.81966e-23)
(1.02587 0.145184 -5.91876e-20)
(1.00373 -0.000694544 -5.98248e-22)
(0.985777 0.0570099 2.85885e-20)
(1.00296 -0.0108529 -5.58938e-22)
(1.0007 -0.00206245 2.13993e-22)
(1.02786 -0.0395768 -1.50151e-21)
(1.02617 -0.00273059 -1.64829e-20)
(1.00057 -0.000345795 9.77104e-23)
(0.999768 -5.91802e-05 1.13789e-24)
(1.00049 -0.00047128 2.2074e-22)
(0.995874 -0.00641919 -1.0687e-21)
(1.01182 -0.0707462 4.16458e-21)
(0.999955 -1.44551e-05 6.56526e-24)
(0.961152 -0.0296956 4.01823e-21)
(0.996235 -0.0012082 -4.719e-23)
(0.999848 -5.30987e-05 2.35894e-23)
(0.999393 -0.000597013 4.18847e-23)
(0.981999 0.089947 6.84797e-20)
(0.991848 -0.000866004 4.81341e-22)
(0.999238 -0.000138666 -4.34934e-23)
(0.824165 0.0244702 9.92545e-20)
(0.998662 -0.00290545 -2.93271e-22)
(1.13176 0.105372 -1.88649e-20)
(0.999791 -0.000303446 8.70564e-23)
(1.00759 -0.0248278 2.68876e-22)
(1.00002 -9.05626e-07 -3.63908e-25)
(0.9809 -0.0360453 -2.78313e-21)
(1.03756 -0.00056748 5.77706e-21)
(1.17304 -0.0620925 -3.62534e-21)
(0.977227 -0.0201675 5.32235e-21)
(0.999597 -0.000673114 1.54608e-22)
(0.975464 -0.0782818 3.4753e-21)
(0.983133 -0.000464109 2.23759e-21)
(0.999808 -2.81448e-05 2.44221e-24)
(1.00045 -0.000400717 -1.95403e-22)
(0.997849 -0.00368642 4.02013e-22)
(0.992176 -0.00151426 -1.43774e-21)
(1.00334 -0.000939288 -7.09077e-22)
(0.998734 -0.00211059 1.87725e-22)
(0.97499 -0.00925335 7.5481e-22)
(1.01651 -0.0688483 -3.10327e-21)
(0.975179 -0.00775093 3.36107e-21)
(1.12882 -0.077526 5.81139e-23)
(0.967144 -0.00852492 -4.30133e-21)
(1.06882 0.159014 6.47877e-21)
(1.06348 0.167061 -4.74531e-20)
(0.998495 -0.000824189 -3.28194e-22)
(1.18938 -0.0743611 1.36011e-21)
(0.999982 -4.06264e-06 -6.02976e-25)
(0.997807 -0.0045145 -4.82043e-22)
(0.973232 -0.00218546 8.60992e-21)
(1.01276 0.0326704 1.56362e-20)
(1.05036 0.00605955 -1.50675e-20)
(1.0001 -4.27136e-05 2.60451e-23)
(0.997833 -0.00432352 -3.15682e-23)
(0.968296 -0.0094465 3.24163e-21)
(1.07598 0.0364964 -8.81552e-21)
(0.999004 -0.00129463 1.69784e-22)
(1.00347 -0.000979959 3.98861e-22)
(1.00129 -0.00102319 -3.58961e-23)
(1.14256 -0.0225669 1.03911e-20)
(1.17894 -0.123606 -3.90378e-21)
(1.12777 0.173032 2.82398e-20)
(0.998385 -0.000216124 -3.24249e-22)
(1.05977 -0.0556616 -4.44115e-21)
(0.999883 -7.48049e-05 -1.93059e-23)
(1.00505 -0.00785404 -1.37842e-21)
(0.999943 -1.35993e-05 -2.78405e-24)
(0.98449 -0.0219975 9.04518e-22)
(0.999648 -7.94652e-05 -4.0094e-23)
(1.012 -0.024185 3.30606e-22)
(1.20696 -0.0841855 2.64947e-22)
(0.972158 -0.0283773 6.31921e-21)
(1.0087 -0.0242944 -1.82937e-22)
(1.00874 -0.00692098 -8.33377e-22)
(0.999248 -0.000176436 1.95071e-22)
(1.02816 -0.0222345 2.01549e-21)
(0.995871 -0.0199487 8.14761e-22)
(1.09169 -0.00745504 -5.8465e-21)
(1.08926 0.0348271 9.84714e-21)
(1.12095 -0.164967 -2.99517e-23)
(1.12562 -0.0926006 -1.08829e-21)
(0.982448 -0.000977628 -2.39688e-21)
(1.00528 -0.00392332 1.28175e-21)
(0.940637 -0.0269552 -2.52865e-21)
(0.876735 0.152231 -1.2036e-19)
(1.1084 -0.086575 -2.40761e-22)
(1.02872 -0.0141252 -7.77945e-21)
(0.829659 0.111502 -6.05036e-20)
(0.998415 -0.000138637 1.59988e-22)
(0.998214 -0.001031 -1.01328e-22)
(1.1439 -0.0900727 -8.48781e-22)
(0.998875 -0.00220191 -1.01587e-22)
(1.00963 -0.0452984 2.69787e-22)
(1.00621 -0.00219661 4.53732e-22)
(0.997037 -0.000473012 -2.47281e-22)
(0.997802 -0.000423368 -3.94841e-22)
(1.04358 0.0270199 1.79404e-20)
(0.99993 -0.000165758 -1.40276e-24)
(1.00053 -0.00026066 -8.70211e-23)
(1.00009 -1.89559e-05 1.94972e-23)
(0.996412 -0.000772305 1.33351e-21)
(0.993299 -0.00958983 1.49828e-21)
(0.999981 -3.89035e-06 4.65748e-25)
(0.998889 -0.000275224 4.16197e-23)
(0.978116 -0.0178178 1.87744e-21)
(0.91014 0.0292986 3.20869e-20)
(1.0107 -0.0254744 -1.86134e-22)
(0.992534 -0.0123973 2.39728e-21)
(0.940788 0.111029 1.3598e-20)
(1.00347 0.0611873 4.22736e-20)
(1.07577 -0.0159035 -4.91142e-21)
(1.18547 -0.0661528 -8.7256e-22)
(0.943481 -0.00478129 8.29503e-21)
(1.00531 -0.00438966 -6.31867e-22)
(1.01612 0.0579115 -2.34619e-21)
(0.988249 -0.00243349 -2.9336e-21)
(1.10318 0.124204 6.65589e-22)
(1.00521 -0.0529055 3.28287e-23)
(1.01917 -0.117614 -2.74663e-21)
(1.14679 0.0588026 1.19664e-20)
(1.11289 0.130227 -2.5276e-20)
(0.962755 -0.0256995 9.01656e-21)
(1.05255 0.00401036 -9.79332e-21)
(1.21434 0.0921749 2.61579e-20)
(1.12396 0.11292 3.61905e-20)
(1.02661 -0.00358908 5.6477e-21)
(0.996878 -0.00158682 2.93361e-22)
(0.99563 -0.00242035 2.56497e-22)
(0.999905 -2.18511e-05 -9.27588e-24)
(1.01607 -0.0315722 4.02163e-22)
(0.987948 -0.00203873 6.9175e-22)
(1.00106 -0.00266221 -1.7573e-22)
(0.999887 -2.64857e-05 -1.71731e-23)
(0.998288 -0.000775476 1.27706e-22)
(0.973152 -0.0768972 -5.70499e-21)
(1.13547 -0.00178816 5.04386e-21)
(0.98185 -0.00629565 -3.83345e-21)
(0.99904 -0.013558 8.4901e-22)
(0.996063 -0.000720409 -7.11582e-22)
(1.05679 -0.05672 1.13962e-22)
(0.992551 -0.00162893 -2.31992e-21)
(1.00243 -0.00789873 5.37942e-22)
(1.21551 0.0718832 4.41568e-21)
(0.99805 -0.000377007 -9.25401e-22)
(0.999978 -4.84822e-05 -4.2975e-24)
(0.999944 -0.000198332 -2.34856e-24)
(1.00005 -0.000117195 1.66853e-23)
(0.977489 -0.00813638 1.75773e-21)
(1.04062 0.0233824 -2.1242e-20)
(0.995803 -0.000555568 2.75217e-23)
(1.02464 -0.0116883 5.03909e-21)
(1.00325 -0.131503 5.55876e-21)
(1.00936 0.127432 -1.47779e-21)
(1.00426 -0.00833553 4.58882e-22)
(1.00734 -0.00490386 -2.07169e-22)
(0.994733 -0.00275362 -9.34648e-22)
(0.991514 0.0891527 -6.69684e-20)
(0.998912 -9.97567e-05 1.32391e-22)
(1.1386 0.174658 -1.41455e-20)
(1.01461 0.0224137 -2.42723e-20)
(0.999878 -3.29878e-05 2.00961e-23)
(1.00322 -0.0536062 -2.43235e-21)
(0.996579 -0.000895882 -6.55836e-22)
(0.987341 -0.0623845 8.39721e-21)
(1.00056 -0.000125976 8.69781e-23)
(1.07134 -0.0108711 6.89625e-21)
(1.00724 -0.0177787 -1.97159e-23)
(1.0067 -0.0041903 1.03003e-22)
(0.999113 -0.000168787 -2.61352e-22)
(1.10278 0.0282788 1.03098e-20)
(1.06916 0.0371377 3.39792e-21)
(1.00314 -0.069485 3.91535e-21)
(0.978854 -0.0208552 -3.61899e-22)
(0.997716 -0.00393331 -3.47074e-22)
(0.99814 -0.0422895 -4.47384e-21)
(1.17766 -0.010464 -8.78121e-21)
(0.779445 0.0854833 -5.73062e-20)
(1.06957 -0.0962499 -1.88565e-21)
(1.00533 -0.00861774 -2.2048e-22)
(0.999992 -1.88243e-06 -1.59091e-25)
(0.9861 -0.00517992 -3.06508e-21)
(0.997631 -0.000397423 8.49214e-22)
(1.02739 -0.0207674 2.93587e-21)
(0.993636 -0.106405 -2.5586e-21)
(1.18231 -0.0832888 -2.05518e-23)
(0.987986 0.125795 -8.20595e-20)
(1.07939 0.030306 1.446e-20)
(1.08951 -0.131427 3.57729e-21)
(1.13439 0.0718066 5.14671e-21)
(0.998929 0.0660978 7.9595e-20)
(1.02248 -0.00360784 4.13401e-21)
(1.00123 -0.00250552 4.00561e-22)
(1.04861 0.0759215 1.33716e-20)
(0.999093 -0.00219407 2.2672e-22)
(0.999811 -0.000174628 1.88455e-23)
(0.981004 -0.00219857 1.07678e-21)
(1.00011 -3.826e-05 4.90366e-24)
(1.08942 -0.149653 2.17005e-21)
(1.00369 -0.0195087 -9.42299e-23)
(0.983239 -0.0355771 4.66156e-21)
(1.00195 -0.0017789 1.99611e-22)
(1.11817 0.0650461 2.88461e-20)
(0.998119 -0.000340315 -7.66786e-23)
(0.999975 -3.8555e-05 -4.26878e-25)
(1.01234 -0.120462 3.05983e-21)
(1.00173 -0.00140087 -1.16123e-22)
(1.11264 -0.0380921 -1.38486e-21)
(0.95328 -0.0149853 1.69236e-21)
(0.932914 -0.0176626 8.62155e-22)
(1.21659 -0.0453532 -4.16479e-22)
(1.03422 0.0191722 -8.0103e-21)
(1.02703 0.00479723 4.95802e-21)
(1.02543 0.00465375 -1.99339e-21)
(0.999785 -4.87874e-05 6.71361e-24)
(1.14201 -0.00727134 3.82621e-21)
(1.09402 -0.00439819 6.82162e-21)
(0.99948 -0.000690089 6.10711e-23)
(0.982653 -0.0068329 4.45303e-21)
(1.00066 -0.000215606 -9.67972e-23)
(1.01205 -0.0222489 -2.27942e-21)
(1.00839 -0.0306905 -4.79221e-23)
(1.00491 -0.00156797 5.12668e-24)
(0.99922 -0.00138926 -2.74621e-22)
(1.19095 0.0334659 -2.08933e-20)
(0.999977 -2.41944e-05 -7.17488e-24)
(1.00022 -0.000107667 -2.55295e-23)
(1.00224 -0.00107176 -7.95458e-24)
(0.976525 -0.00347751 2.98979e-21)
(1.0204 -0.0131751 3.56285e-21)
(0.982549 -0.0299964 -6.69168e-21)
(0.971235 -0.0052911 -1.73352e-21)
(1.00913 -0.0667962 2.16716e-21)
(1.01751 -0.142614 -5.85579e-21)
(1.02641 -0.0356701 9.69309e-22)
(1.05687 0.0745668 -7.60006e-20)
(1.20352 -0.0746537 -6.40533e-22)
(0.993156 -0.00272394 -1.24291e-22)
(0.837907 0.165433 9.39702e-20)
(0.973054 -0.0566395 9.73189e-21)
(0.99308 -0.0101917 4.70655e-22)
(0.971884 -0.00436921 2.86881e-21)
(0.997376 -0.0194807 -2.37887e-22)
(0.977975 -0.00260551 4.56458e-21)
(0.989526 -0.00418632 -8.89065e-22)
(1.02949 -0.0176876 -5.41196e-21)
(1.11366 -0.0923866 7.15434e-23)
(0.999973 -4.67742e-05 -5.96271e-25)
(1.02465 -0.0158453 -5.95286e-22)
(0.999896 -3.27534e-05 -9.76041e-24)
(1.04441 0.139181 1.56971e-20)
(1.19513 0.00494245 1.44141e-20)
(0.994964 -0.00209604 2.92533e-22)
(0.985233 -0.00189923 -4.06867e-21)
(0.999799 -5.92756e-05 -4.89906e-23)
(0.997998 0.0788296 4.97269e-20)
(1.09157 0.141073 3.43445e-20)
(1.1396 -0.0168126 -5.57209e-21)
(1.22167 0.0447108 -1.64184e-20)
(0.972742 -0.0601057 -4.11203e-21)
(0.9979 0.0283988 -7.64132e-20)
(0.999934 -0.000141047 9.01774e-24)
(1.04929 -0.0362351 6.99943e-21)
(0.980666 -0.0016756 -1.69675e-22)
(1.14413 0.0407941 -5.77292e-21)
(0.88739 0.108355 -7.27296e-20)
(1.17622 -0.018517 1.06949e-20)
(1.07007 0.0261158 2.40533e-21)
(0.999826 -0.0134245 -1.26398e-22)
(0.999794 -8.98521e-05 -4.51549e-23)
(1.20801 0.0327747 6.86768e-21)
(1.17726 -0.103668 3.55015e-22)
(0.998135 0.0899985 -1.51396e-21)
(1.10497 -0.036301 1.09477e-20)
(1.05425 0.0582415 2.24168e-20)
(0.992705 -0.00244241 -4.13713e-22)
(1.00101 0.123225 2.20816e-20)
(1.09323 0.129149 1.20243e-20)
(0.990759 -0.00349831 -2.493e-21)
(0.992225 -0.00331544 -9.26227e-22)
(1.20583 0.0177459 2.67055e-22)
(0.930499 -0.01632 -1.1646e-20)
(0.99991 -0.000165596 -1.39472e-23)
(0.986764 -0.00559644 3.94464e-21)
(0.935658 -0.0230037 8.50968e-21)
(0.983224 -0.0764404 -1.21554e-21)
(1.01023 -0.00317686 -3.58356e-21)
(1.00824 -0.00630756 2.35359e-22)
(0.999868 -0.000203548 -2.60991e-23)
(1.10047 0.14853 -5.12889e-20)
(1.00034 -0.0117366 1.97703e-23)
(0.999891 -6.25131e-05 8.61494e-24)
(1.01703 -0.0639853 2.00289e-21)
(0.999483 -0.000454011 5.37358e-23)
(0.999767 -8.4542e-05 3.42618e-24)
(1.00544 -0.0131476 -2.63343e-22)
(1.10533 0.0738096 3.99497e-20)
(1.0073 -0.107577 4.28402e-21)
(0.922043 0.10567 4.2483e-20)
(1.00007 -1.49855e-05 -1.36483e-23)
(1.11387 0.0741362 -4.14846e-20)
(1.01117 -0.0545691 1.72209e-21)
(0.999923 -0.00019681 -3.95976e-24)
(1.00003 -5.7629e-06 -4.25816e-24)
(1.00519 0.0147306 -4.02414e-21)
(1.09081 0.0645491 1.51376e-20)
(0.995956 -0.00255953 2.55619e-22)
(1.07687 0.0493361 -2.00547e-20)
(1.00003 -2.03947e-05 3.08389e-24)
(1.08109 0.056217 -2.7529e-20)
(1.10819 -0.161387 4.89958e-21)
(0.990246 -0.00312058 2.73968e-21)
(0.998927 0.0423969 -1.03267e-19)
(0.974393 -0.0476685 6.47674e-21)
(1.21806 0.0373329 1.57872e-20)
(0.97317 -0.00447851 1.72142e-21)
(1.08797 0.0570076 3.58588e-20)
(1.10017 0.0650345 -1.09746e-20)
(0.983461 -0.00840678 6.40283e-21)
(0.978424 -0.0102028 -4.72486e-21)
(0.994783 -0.0102491 1.38116e-21)
(0.997102 -0.000757891 -2.15613e-22)
(0.999801 -0.000199835 5.21935e-23)
(1.00023 -0.0110495 -3.55242e-23)
(1.10349 0.112273 -6.12698e-21)
(0.999971 -3.66216e-05 1.82775e-24)
(1.0689 0.0490348 2.6509e-20)
(1.0198 -0.109963 6.38994e-21)
(1.01805 0.0825721 1.92018e-20)
(1.06641 0.0435033 -3.04141e-20)
(0.933172 -0.021522 -1.05049e-21)
(0.939409 0.134679 -8.79523e-20)
(0.99839 -0.00119696 1.83199e-23)
(1.01595 -0.0291847 1.01047e-21)
(1.04274 -0.0871825 1.37446e-21)
(0.978936 -0.00241616 -2.68095e-22)
(0.993567 -0.00345966 1.23353e-21)
(1.00847 -0.0557465 -1.57623e-21)
(1.0576 -0.0296645 -7.24471e-22)
(0.84991 0.0990989 1.14782e-19)
(1.00005 -2.24721e-05 1.49341e-23)
(0.998111 -0.0012819 2.46367e-22)
(1.0125 -0.0791722 6.75833e-23)
(1.00002 -4.9344e-06 5.20952e-25)
(1.04964 0.150037 7.68001e-21)
(1.00168 -0.00122222 0)
(1.00001 -5.66142e-06 3.92124e-25)
(1.00019 -8.9235e-05 5.97491e-23)
(1.00044 -0.000105952 1.21771e-24)
(0.984903 -0.0204615 4.61276e-21)
(1.02275 -0.0201153 -2.11186e-21)
(0.99847 -0.000903903 3.86511e-22)
(0.999918 -1.57746e-05 1.83314e-23)
(0.993109 -0.00324556 6.84363e-22)
(1.00441 -0.0137441 -1.98586e-22)
(0.982935 -0.110598 -6.95255e-21)
(0.938733 -0.00733182 8.40863e-22)
(1.0196 -0.0117096 6.20404e-21)
(0.999972 -2.78718e-06 5.64003e-24)
(1.06561 -0.164168 7.26537e-21)
(0.987028 -0.00386009 -1.57948e-21)
(1.19016 0.0224257 -1.13021e-21)
(1.00094 0.0389431 -1.3812e-20)
(1.00123 -0.00379832 9.42274e-23)
(1.17211 0.0247002 -2.10687e-20)
(1.00015 -0.000100591 -3.46493e-27)
(0.987648 -0.0043574 4.52333e-23)
(1.02743 0.000549226 -1.01567e-20)
(0.993567 -0.00391228 -5.05403e-22)
(1.11922 0.0895849 -2.48089e-21)
(0.987484 -0.00681492 -2.97482e-21)
(1.05135 -0.0350093 -5.95095e-21)
(1.02933 0.00264127 -1.09438e-20)
(1.08599 0.0309726 -6.01129e-21)
(1.00755 -0.0164696 -1.0063e-21)
(0.99007 -0.004493 7.37843e-23)
(1.13162 0.0542277 1.7338e-20)
(0.975933 -0.0827849 -6.4049e-21)
(1.0283 0.156417 6.48739e-20)
(0.991204 -0.00503075 -2.88744e-21)
(1.14849 0.118375 -6.26911e-22)
(0.991213 -0.00443578 7.7147e-22)
(0.998856 -0.000541337 -2.527e-23)
(1.0669 0.0236242 6.82734e-21)
(1.01411 -0.0329389 -2.69289e-22)
(1.04143 -0.000640072 1.51939e-20)
(1.00168 -0.000930409 1.29016e-22)
(1.00001 -3.93577e-06 1.81152e-25)
(0.991862 -0.126659 2.494e-21)
(1.2061 0.0686807 -2.35661e-20)
(1.00153 -0.00368168 -1.23331e-22)
(1.1804 0.0183834 2.01143e-21)
(0.988158 -0.00635342 -1.94397e-21)
(1.05714 -0.167254 -2.30595e-21)
(1.04364 -0.0500716 1.48662e-22)
(0.982159 -0.0318466 3.75537e-21)
(0.998339 -0.00105783 -1.62852e-22)
(0.991455 -0.00110059 -5.77945e-22)
(0.971695 -0.070571 -4.00926e-21)
(0.971075 -0.00966023 6.56474e-21)
(0.990659 -0.00413659 2.0413e-21)
(0.999855 -0.000461346 2.29332e-23)
(1.01872 0.171503 -8.06475e-21)
(1.16255 0.0201464 1.28652e-20)
(1.02677 -0.0129313 -1.91185e-21)
(0.999804 -0.000154271 3.45106e-23)
(1.08463 0.122757 -2.34463e-20)
(1.00001 -2.48102e-05 8.01552e-25)
(0.999817 -0.000134714 6.81674e-23)
(1.15361 0.0256476 1.15232e-20)
(1.01046 -0.0269703 6.71258e-22)
(1.19983 0.0516643 1.95323e-20)
(1.02637 -0.0049555 4.25862e-21)
(1.01811 -0.0145551 -4.41186e-22)
(1.08201 -0.0867799 6.03858e-22)
(1.03372 -0.136398 5.94982e-21)
(1.2123 -0.0494346 -1.7873e-21)
(1.00126 -0.000910968 -2.81043e-22)
(0.955061 -0.016361 -6.70963e-22)
(0.999982 -5.97489e-05 -1.25582e-24)
(1.00521 -0.0122805 1.84669e-22)
(1.1198 0.081777 1.46239e-20)
(0.984309 -0.00788071 4.46791e-21)
(0.997285 -0.00153623 3.43104e-22)
(1.01287 -0.0440994 -7.51905e-22)
(0.998093 -0.00113443 2.3444e-23)
(0.999612 -0.0011305 7.11085e-23)
(0.835101 0.0226374 2.03819e-20)
(0.990685 -0.00542237 -1.63567e-21)
(0.999506 -0.000773767 -2.11843e-22)
(0.999981 -1.02704e-06 -1.18447e-24)
(1.02232 0.00687456 2.15666e-20)
(0.973054 -0.026475 -9.92841e-22)
(0.99968 -0.000586608 6.19401e-23)
(0.997289 -0.000884502 4.40196e-22)
(1.03235 0.0232053 8.78233e-21)
(1.0807 -0.00396442 1.55818e-21)
(0.96262 -0.0234521 -5.58979e-21)
(1 -1.55093e-05 2.99802e-25)
(1.00336 0.0220075 5.79684e-20)
(0.986502 -0.0179225 -3.17167e-21)
(1.11304 0.0576405 -2.91911e-20)
(1.01347 -0.00177052 -5.43147e-21)
(1.01552 -0.00143006 1.23858e-20)
(0.969399 -0.0119642 8.94798e-21)
(0.999905 -6.9334e-05 -5.63755e-24)
(1.02781 -0.000443137 -1.98121e-21)
(1.08367 -0.00903706 -2.19557e-21)
(1.2001 -0.0329902 6.51423e-21)
(1.02635 -0.106493 1.23282e-21)
(1.09396 0.107336 1.82137e-20)
(1.00631 -0.00169427 -8.60354e-23)
(1.14096 0.0525994 -2.375e-20)
(1.00003 -0.0155259 -2.35296e-22)
(1.01366 -0.0611351 -4.12844e-21)
(0.999617 -0.000173451 -6.80703e-23)
(1.0029 -0.020502 1.75364e-22)
(0.999898 -0.000452658 8.55467e-24)
(1.06498 0.0303508 -2.02829e-20)
(1.17875 0.105092 -4.67623e-20)
(0.998546 -0.00125461 1.2995e-22)
(1.01889 -0.0145932 1.29845e-22)
(0.982964 -0.00476769 1.53498e-21)
(1.0324 -0.0956384 4.2762e-22)
(1.02636 -0.099455 -3.20645e-21)
(0.998211 -0.000894515 2.58301e-22)
(1.04489 -0.0354726 -2.46427e-21)
(0.852325 0.0059586 -3.44608e-20)
(1.18712 -0.0430856 4.99248e-21)
(0.999946 -0.000170429 1.91518e-23)
(1.07432 -0.00526035 -5.68005e-21)
(0.997082 -0.00944122 -6.5763e-22)
(0.984966 0.00562882 7.26384e-20)
(0.988182 -0.00557446 2.70743e-21)
(0.995383 -0.0279525 -7.70098e-22)
(1.01586 -0.0396463 -1.1014e-22)
(0.993705 -0.0288331 -1.22429e-22)
(0.998087 -0.0227258 -1.66895e-21)
(0.99266 -0.00354039 4.70519e-22)
(0.99922 -0.0153142 9.25098e-22)
(1.00196 -0.00679534 -1.42422e-22)
(1.05808 -0.0342562 1.61934e-21)
(1.00011 -3.51484e-05 -3.79428e-23)
(1.15034 -0.146842 -1.45798e-21)
(1.15464 -0.0646412 1.0951e-21)
(1.07827 0.156769 4.28754e-20)
(0.964444 -0.0222278 8.51424e-21)
(1.18907 0.0566393 -1.00681e-20)
(1.00195 -0.000749854 4.53286e-22)
(1.05736 -0.0895712 -9.97061e-23)
(1.00295 -0.0407471 -1.64972e-21)
(1.03235 0.0443585 2.52938e-20)
(0.993163 -0.00423766 1.17019e-21)
(1.00011 -0.000190749 2.50875e-23)
(0.987108 -0.0186211 4.13627e-21)
(0.995671 -0.0100219 -5.23628e-22)
(1.04258 -0.0330314 4.99072e-21)
(0.97256 -0.00737321 -5.54415e-21)
(0.977314 -0.00950955 1.55725e-21)
(1.11861 -0.0728595 9.9426e-22)
(0.985624 -0.00306725 -2.65065e-21)
(1.01315 -0.0410939 3.88243e-22)
(0.984166 -0.0809142 4.50956e-21)
(1.00001 -8.58054e-06 3.20824e-25)
(1.06101 -0.0266243 8.83907e-21)
(0.986757 -0.0733137 -1.22476e-20)
(1.1812 0.0397485 9.77934e-21)
(1.08014 -0.0933235 -1.49887e-21)
(1.03942 -0.000866675 1.27594e-21)
(1.01402 -0.105489 -8.58058e-21)
(1.12429 0.151039 1.09571e-20)
(1.03327 -0.0425304 1.94594e-21)
(0.968079 -0.0110446 -5.29451e-21)
(1.01176 -0.0509916 -1.85572e-21)
(0.92712 0.00869933 3.26101e-20)
(1.11985 -0.137418 7.20755e-22)
(0.987519 -0.00516922 -8.22721e-22)
(1.01119 -0.128598 -6.57657e-22)
(1.02001 -0.0719598 2.57432e-21)
(1.02587 -0.12241 -1.22198e-21)
(1.03169 -0.0891148 -2.95993e-21)
(1.12552 0.0477722 2.2538e-20)
(0.997299 -0.00174705 2.28374e-23)
(1.01322 0.0559573 9.51954e-21)
(1.00811 -0.00156575 6.42799e-22)
(0.999612 -0.000585641 -8.86683e-23)
(0.998767 -0.00251687 6.21166e-22)
(1.06627 -0.0100338 -2.11614e-21)
(0.764938 0.00802589 9.97222e-22)
(1.00159 -0.00715377 8.09525e-23)
(1.01436 -0.0572045 6.05686e-22)
(1.03305 0.0259308 -1.45883e-20)
(1.00003 -8.52772e-06 -7.58871e-25)
(0.979492 -0.00960661 3.76844e-21)
(1.02363 -0.0115814 4.46723e-21)
(1.07059 -0.058553 3.1919e-21)
(1.00814 -0.0011081 3.59609e-21)
(0.998417 -0.00209891 1.15339e-22)
(0.982833 -0.0404917 1.39396e-22)
(0.997745 -0.00915034 -1.7514e-22)
(1.00003 -5.15613e-06 8.18828e-24)
(0.976555 -0.0469006 -1.08931e-20)
(1.10147 0.090625 -6.49198e-21)
(1.01842 -0.0355819 3.05749e-22)
(0.983712 -0.00538385 -2.88401e-21)
(1.00182 -0.000371007 -1.63431e-22)
(1.03743 0.0290054 1.923e-20)
(0.999628 -0.000674316 -4.08945e-23)
(0.998772 -0.000704195 -1.29905e-23)
(0.99965 -0.000193529 -6.22999e-23)
(0.999253 -0.00232358 -1.56185e-22)
(1.19218 -0.0244597 5.90883e-21)
(1.02686 -0.0421399 2.70193e-21)
(1.00784 -0.0204782 3.66969e-22)
(0.982564 -0.00788674 -1.31692e-21)
(1.00004 -5.6018e-05 7.96258e-24)
(1.05098 -0.135237 7.51352e-21)
(1.18609 -0.0936579 2.0099e-22)
(1.05358 -0.144984 -3.60828e-21)
(0.995815 -0.0354358 -1.43107e-21)
(1.01404 -0.010329 4.10154e-21)
(0.999793 -0.000107011 2.85513e-23)
(0.988629 -0.0122902 -1.64718e-21)
(0.958684 -0.04677 -6.58999e-21)
(1.18063 -0.0352914 6.7532e-22)
(1.01398 0.0816649 -6.78097e-22)
(0.998864 -0.00350737 1.25799e-22)
(0.946185 -0.0325624 3.8298e-21)
(0.995373 -0.00303506 -1.11394e-21)
(1.03182 -0.039499 -4.30784e-22)
(1.13632 0.0347835 2.15312e-21)
(1.00046 -0.000149011 -1.34457e-22)
(0.999851 -0.000224063 -1.05026e-23)
(1.2099 0.0230455 1.86724e-21)
(1.16655 -0.0469367 -7.30703e-22)
(1.01963 -0.0180544 1.52469e-21)
(0.997128 -0.00191777 5.86341e-22)
(0.997964 -0.000470135 -5.80063e-23)
(0.965127 -0.0478643 1.60463e-21)
(0.999833 -0.000386693 -3.51666e-23)
(1.01591 -0.0369766 8.34828e-22)
(0.986928 -0.0015459 5.5243e-21)
(1.00145 0.040026 -1.15226e-20)
(1.11226 0.0942472 -3.35616e-21)
(1.05427 -0.0831217 6.16213e-22)
(0.990415 -0.0741812 4.57626e-21)
(1.00635 -0.00176836 1.8038e-21)
(1.01375 -0.027707 -1.49914e-21)
(1.15154 -0.0545079 4.88971e-21)
(0.988964 -0.0819385 -2.78833e-21)
(1.01495 -0.0495918 1.01552e-21)
(0.999998 -7.62434e-06 1.3527e-25)
(1.13372 -0.0607558 2.901e-21)
(0.97462 -0.00304989 5.1658e-22)
(0.987062 -0.0904201 5.59203e-21)
(1.01825 -0.0329679 -2.43458e-21)
(0.957106 -0.0155256 -1.19474e-21)
(0.999614 -0.000346486 -3.03377e-23)
(0.997061 -0.00144535 -2.61056e-22)
(1.06015 0.0428378 2.34697e-20)
(0.970933 -0.0112435 -2.01431e-21)
(0.999984 -1.81105e-06 1.25977e-24)
(0.997204 -0.000572158 -6.06236e-22)
(1.1229 -0.124976 -6.25064e-21)
(0.999838 -4.7812e-05 7.24348e-23)
(1.0176 -0.0555745 -2.62415e-22)
(0.999951 -0.000139852 -1.48579e-24)