/*--------------------------------*- C++ -*----------------------------------*\
  =========                 |
  \\      /  F ield         | OpenFOAM: The Open Source CFD Toolbox
   \\    /   O peration     | Website:  https://openfoam.org
    \\  /    A nd           | Version:  7
     \\/     M anipulation  |
\*---------------------------------------------------------------------------*/
FoamFile
{
    version     2.0;
    format      ascii;
    class       surfaceScalarField;
    location    "20";
    object      phi;
}
// * * * * * * * * * * * * * * * * * * * * * * * * * * * * * * * * * * * * * //

dimensions      [0 3 -1 0 0 0 0];

internalField   nonuniform List<scalar> 
31093
(
588.064
-435.454
-152.61
270.898
43.1656
-314.064
941.815
-1130.59
188.777
-395.209
994.334
-599.125
-633.238
670.664
-37.4251
-687.303
54.0644
214.792
-34.4046
-180.388
581.3
-444.504
-136.797
212.788
-289.552
76.7638
81.9347
499.366
-77.7912
255.267
-177.476
-242.967
267.232
-24.2651
-235.428
-17.8381
253.266
34.6654
553.399
621.705
-650.441
28.7367
-965.117
569.908
-285.107
343.87
-58.7628
-90.9203
-970.511
1061.43
-257.315
233.414
23.9006
305.398
-34.4999
-301.007
294.812
6.19478
-3.60688
-239.36
-445.576
527.51
271.248
-320.325
49.0771
941.815
-360.543
94.9559
265.587
890.268
-974.556
84.2884
340.746
-149.554
-191.192
-169.722
-95.2888
265.011
-108.505
-148.81
-592.231
740.977
-148.746
362.594
-310.739
-51.8552
344.344
-64.4091
-279.935
556.385
-292.096
-264.288
-717.292
780.429
-63.1375
-731.316
139.085
135.468
-346.82
211.352
932.327
-932.327
783.62
-346.748
-436.871
273.699
417.129
-690.828
3.53344
793.068
-796.602
-268.602
84.2668
184.335
-859.497
683.465
176.032
972.352
-82.0839
-138.594
-221.948
116.538
72.5225
-189.061
1073.36
-459.602
-613.76
313.171
-251.429
-61.7425
842.883
-30.4216
-812.462
239.224
-230.935
-8.28888
-787.813
70.5208
48.2261
-744.532
696.306
-270.201
-145.138
415.339
762.805
-835.878
73.0732
151.931
-379.688
227.757
15.8893
-211.193
195.304
382.373
-111.995
-270.378
694.683
-751.598
56.9149
-54.8207
-297.349
352.17
-55.5995
-229.508
-664.013
433.252
230.761
-50.4402
244.906
-194.465
480.594
-483.07
2.47565
-182.338
-338.955
521.293
-697.622
828.082
-130.46
-716.182
108.239
607.943
511.423
-575.362
63.9383
-650.996
-65.1858
-153.517
-366.191
519.708
-145.56
-68.6219
214.182
364.019
-550.482
186.463
321.502
-242.476
-79.0261
675.566
-53.8617
-273.982
-34.2506
308.233
1062.31
-556.588
-505.718
-67.5491
464.559
-397.01
332.949
-143.857
-189.092
-227.206
15.3353
211.871
888.246
-614.547
565.865
-832.964
267.099
633.602
-525.363
816.902
-195.016
-621.886
293.647
-89.8774
-203.769
296.85
-84.0618
134.013
-184.453
-586.635
-272.862
240.396
-282.342
41.9462
-63.444
167.411
-103.967
-615.215
432.877
152.329
-307.491
155.163
-403.135
672.954
-269.818
738.989
148.766
-887.755
904.509
-130.216
-774.293
184.576
-301.236
116.661
208.874
104.297
424.642
55.9525
263.018
-78.4423
-779.187
790.041
-10.8533
-320.264
242.473
969.705
-879.201
-90.5031
281.77
-129.441
407.454
-418.217
10.7636
184.795
101.282
-286.077
453.578
-196.607
-256.971
1198.32
-1198.32
474.382
24.0104
-498.393
-47.0714
254.861
-207.79
-469.759
224.341
245.417
265.25
8.93321
-274.184
-245.828
-85.9067
331.734
35.3265
-205.049
182.888
31.9046
397.603
-111.802
-285.801
-259.337
-402.043
661.38
-560.31
492.761
-568.64
-431.439
-359.777
-175.735
535.512
576.711
56.8907
-298.797
-12.7526
311.549
-1029.94
259.263
770.673
-170.774
909.764
47.6971
260.849
-308.546
373.672
-592.011
218.339
237.719
-362.578
124.86
129.15
427.234
745.584
-836.504
34.2377
182.822
-217.059
181.275
159.471
271.058
91.536
139.633
-499.41
-26.6496
-153.244
179.894
19.6753
219.548
850.634
-847.1
292.528
491.092
143.541
-347.949
204.408
255.206
943.112
258.871
-40.0003
-218.871
-280.245
-20.7622
-407.896
36.3601
371.536
105.584
62.3101
-167.894
289.507
-241.81
29.1461
-303.128
195.286
126.215
-296.909
219.502
77.4062
-536.619
66.6129
470.006
-92.5348
236.075
-264.218
87.1861
177.032
-95.2136
-223.914
319.128
-18.2888
288.986
-270.697
-762.836
-211.72
127.73
-222.944
187.389
971.732
-67.2231
-233.033
-47.4992
280.533
151.621
665.281
-235.795
-28.4232
-733.026
146.391
86.1703
185.077
69.8294
-161.091
91.2618
-12.8731
-222.555
-189.576
341.507
-235.602
201.198
-36.6322
-401.415
-135.204
-187.726
-651.2
838.926
-173.002
109.558
346.9
60.5537
277.165
16.4818
437.626
26.9333
-326.44
461.908
329.873
-71.0012
-203.874
-114.738
318.611
-11.5002
-183.251
194.751
401.301
-442.906
41.6046
104.954
110.767
-215.721
25.9724
318.372
-571.815
509.249
62.5661
-544.845
-27.0332
571.879
-441.957
-118.353
-34.0762
218.544
-184.468
25.4514
-197.53
172.079
735.548
196.779
331.467
73.5249
-404.992
-87.6946
202.455
-114.761
267.133
38.2655
228.808
-124.978
-103.83
582.276
-218.256
25.4592
944.245
154.782
254.041
103.742
-357.784
270.312
-236.074
259.759
-386.7
126.94
64.6843
-943.886
-579.69
426.174
219.412
-149.583
-14.139
268.417
-254.279
63.2008
268.266
-23.3864
293.218
-269.832
325.242
-58.1092
16.0035
238.038
265.07
-375.254
110.184
-71.293
317.518
-246.225
-466.808
188.794
-364.889
176.095
255.135
-403.716
148.581
-315.328
286.435
28.8931
-5.68051
-329.69
335.371
761.994
-713.768
199.401
-183.512
619.599
-634.883
15.2832
417.298
94.1252
-862.793
535.762
327.031
-39.7594
305.731
-265.972
-88.001
-151.003
239.004
-279.904
572.407
489.898
513.753
-513.753
-519.198
-510.737
-245.601
-224.158
897.347
-604.819
3.40253
263.033
-266.435
-187.409
-240.245
427.654
106.642
136.158
-242.8
496.371
-899.506
-326.064
240.157
-13.2056
-394.691
354
-359.681
-1068.64
499.996
-485.12
485.12
-642.056
-5.4507
647.507
619.858
-246.186
303.397
119.629
-423.025
-316.495
269.424
-219.919
204.421
15.498
-513.976
816.408
-302.432
306.771
-66.3749
556.993
-82.6103
-420.998
217.125
192.294
70.7234
-634
446.591
212.656
-356.514
87.7603
-175.761
231.025
97.5286
-328.554
352.106
-114.388
-956.088
-242.229
622.949
-46.2373
-60.9435
271.908
-210.964
539.509
-445.1
-94.409
-69.6263
754.293
-684.667
-53.2208
896.104
263.526
1.72399
-83.6685
190.311
-64.2494
517.678
-453.429
-541.543
194.794
-168.35
13.2461
155.104
-116.022
419.419
-40.2556
224.086
-183.831
-63.3245
-205.277
194.053
-88.4697
-77.4439
193.982
16.6972
-248.032
231.335
32.3015
458.414
-490.716
710.391
49.3845
-759.776
288.846
17.9247
-73.8113
-161.791
-112.113
13.6786
247.636
-261.315
36.1278
361.475
227.187
-741.162
328.659
-196.338
-86.0043
122.567
-820.614
698.047
63.8168
-373.492
-201.869
-286.33
219.909
66.4208
-356.293
-307.72
567.741
-999.18
239.779
-51.6092
-188.17
-27.8773
211.443
-183.566
-1037.93
332.985
704.948
-40.6423
375.091
-334.449
324.889
57.4843
-259.508
117.557
141.951
345.018
-81.1002
-263.918
372.011
-112.252
-196.594
297.876
292.536
-214.176
139.951
-167.828
-82.2895
579.181
-496.892
751.467
-185.602
-128.508
-325.987
454.495
853.98
-731.413
235.298
-221.619
-37.3272
-289.113
-537.149
78.432
84.8552
-163.287
336.226
-54.7518
-281.474
-76.4862
180.848
-104.362
366.138
-101.069
-91.021
-355.331
446.352
7.60483
843.966
-851.57
-776.515
804.218
-27.7032
-244.033
80.0638
163.969
-754.295
441.422
312.873
56.6332
-165.138
3.13691
174.138
-177.275
-256.818
253.211
6.30188
-231.122
224.82
221.515
-2.97083
147.129
-515.171
368.043
229.805
-213.108
-40.2642
-186.942
-62.3686
524.277
318.14
-45.9014
-272.238
-733.895
741.5
-477.124
340.282
136.842
441.217
-301.584
472.548
-861.007
388.46
-301.517
-78.1715
-726.548
28.9256
-165.559
-93.9489
-646.341
631.656
14.6845
-179.149
351.75
-172.601
304.001
312.84
263.851
-168.447
-95.4032
273.725
-273.355
-459.671
-208.486
-92.7506
271.419
-175.472
-95.9467
-516.456
-5.47886
521.935
200.783
-95.8291
1006.23
-1006.23
433.603
-494.282
-543.651
141.972
202.912
-344.884
-450.306
412.979
-331.722
297.471
-327.686
418.628
137.886
-556.514
50.2342
712.57
531.93
-113.302
392.379
-568.114
88.7951
220.406
-309.201
-210.499
-227.81
438.309
260.233
84.2678
-344.501
-297.388
-544.695
842.083
490.527
-749.863
346.321
14.458
-360.779
-970.511
417.647
96.1062
238.348
-249.848
303.264
-358.085
-38.8841
157.967
-119.083
9.26226
-263.674
-254.414
11.8312
242.583
225.655
45.7645
268.924
-356.619
227.176
-93.163
-506.872
-168.123
-139.368
-390.072
-364.223
-938.638
-169.765
1108.4
-498.224
941.314
-443.09
-143.034
-19.9169
162.951
-669.06
636.802
32.2582
-240.027
335.726
-95.6998
258.462
281.047
1.97826
-213.171
873.946
-912.496
38.5492
443.412
-101.009
185.276
-372.796
182.308
190.488
-229.877
41.0395
188.838
-478.045
-38.4104
134.364
-246.36
307.225
-76.2001
-1067.19
879.466
-511.997
447.748
-128.782
249.142
-120.36
-66.2463
381.522
-315.276
360.845
-312.949
-47.8955
-390.245
44.5712
-212.922
-281.931
663.052
-381.121
-59.6174
-260.647
-71.8876
418.208
4.42796
192.19
-196.618
883.827
189.534
-331.142
-41.6544
180.223
180.622
-373.378
-455.787
829.165
-815.92
356.318
447.423
-951.387
503.963
79.3633
-411.156
331.792
-274.413
197.927
-9.5612
467.976
-172.674
-192.215
-460.285
149.546
616.099
6.85006
26.077
213.702
429.68
-105.321
-324.359
-103.397
-91.1051
194.502
115.035
195.894
-259.218
9.11205
-118.311
-59.9702
178.281
-386.688
-11.6494
398.338
-4.3328
280.068
-275.735
-104.254
495.05
-390.797
-413.584
344.8
-84.5674
-882.087
812.46
345.806
-321.795
-85.4644
-301.235
-86.89
-288.364
-655.853
-123.334
-510.768
261.772
248.996
-281.264
38.7879
-115.849
128.527
16.0015
180.332
414.058
-594.39
28.6071
-266.874
15.4458
-2.1907
295.409
150.538
-262.34
-56.0481
-240.096
296.144
-810.847
796.235
14.6123
234.067
-253.04
18.9735
363.207
534.14
283.586
-364.686
-17.0222
305.868
-724.615
694.193
291.507
-210.952
-80.5544
284.165
-15.7473
-185.618
-156.97
-317.076
474.045
-215.482
-99.8465
306.302
-361.054
440.29
-531.311
117.842
79.2076
-197.05
207.005
-129.052
-77.9531
277.549
-650.927
141.435
-507.626
244.06
-98.3721
-145.688
47.9921
-810.828
-427.331
299.233
-345.134
-567.079
646.442
-469.753
68.338
368.325
-665.712
159.709
-256.336
96.627
-847.978
895.97
-30.4178
-8.93025
801.999
-221.176
217.551
3.62469
-311.346
199.558
111.788
-228.874
-174.842
-51.8466
422.849
-371.002
541.557
-623.846
39.764
-226.465
186.701
171.47
-131.706
293.422
85.7106
-264.859
171.256
22.7978
-141.487
766.83
107.116
-438.85
181.879
-244.143
175.516
68.6273
198.3
-238.556
-1.04712
192.63
-191.583
-308.609
252.56
-225.262
-12.6755
237.937
-508.604
380.096
170.5
-188.789
-580.996
-65.3448
614.874
4.72518
-267.818
-231.592
195.973
-76.4668
-119.506
-123.535
-91.7224
215.257
136.957
-205.865
68.9084
-70.4917
280.568
-210.076
-226.617
215.969
10.6476
-198.043
-28.5738
320.621
109.059
958.234
-703.028
-275.495
-306.544
246.926
191.243
33.0107
-224.254
-968.15
795.854
172.296
-396.724
169.017
227.707
-491.413
-122.428
613.841
-158.949
-806.168
16.1358
-302.213
-464.186
452.537
-93.914
-217.432
231.973
-20.5302
655.243
-98.4574
-556.786
347.505
-451.759
-159.281
756.366
-597.085
-207.292
-218.978
426.27
-287.481
272.015
15.4658
5.93846
-71.9805
208.937
-97.3321
-188.998
-527.695
16.9269
-16.1565
-91.1732
-744.705
38.5888
-432.267
-215.856
92.3214
-278.374
183.085
698.867
258.665
-306.164
164.499
64.3084
-310.192
20.3168
289.876
-268.472
38.5942
-37.4037
-996.369
778.323
218.046
-24.8174
229.239
-120.645
275.808
495.248
-522.303
27.0555
-279.996
-197.128
-362.026
398.386
-36.2807
157.736
-121.455
956.839
-798.214
-158.625
25.786
-523.97
498.184
-5.5421
-166.169
171.711
-172.015
-109.249
488.211
-63.5699
-229.032
487.494
-557.735
118.074
439.662
-180.453
275.409
508.334
-350.216
-158.118
295.889
8.21443
-304.104
-267.351
206.408
642.919
-83.2194
-559.7
426.35
-246.018
-433.319
389.618
43.7015
276.029
-4.12108
-244.554
-65.6389
-181.383
56.4059
203.155
-500.306
63.4815
436.825
-260.246
263.648
-343.672
339.339
-322.624
-67.4735
-417.647
-453.543
401.697
-530.59
1001.81
-471.224
-132.631
96.3506
-176.89
-219.834
488.497
-50.2654
-438.231
-16.9125
-300.771
317.684
-497.131
559.024
-61.8931
403.013
204.922
-100.583
-104.339
162.329
-232.821
201.079
-202.126
-306.509
131.036
417.217
-391.431
-10.3026
-277.179
82.4721
-893.689
893.689
133.12
4.80589
420.494
-425.3
-161.55
183.567
-22.0168
-523.566
313.067
-421.774
64.3069
357.468
42.7184
153.255
-486.433
363.748
122.685
-238.863
437.002
51.2091
308.247
42.0198
-350.267
336.038
-75.1892
-421.744
-23.3555
113.7
-355.791
289.545
331.229
-218.29
-112.939
-57.5141
147.009
-89.4945
-938.638
-301.099
-218.965
122.414
96.5513
-292.115
227.706
-431.267
-520.12
255.971
518.901
-774.872
-147.325
-529.686
677.011
-444.831
177.014
-22.6374
193.893
215.505
-14.4257
-657.571
640.645
16.9266
70.5551
355.795
285.709
-60.7293
-224.98
-102.251
-516.533
618.783
-568.729
798.073
-229.344
-573.701
54.7569
-769.713
181.818
587.894
-981.619
414.186
567.434
-284.524
-273.211
-125.371
471.177
-968.598
438.008
-675.475
814.344
-138.869
604.967
-707.217
-209.971
251.973
-232.297
124.343
-799.818
-164.576
-694.105
858.681
657.12
-14.2004
501.268
326.814
-60.2181
269.092
-116.511
96.594
-118.679
192.822
-531.777
254.956
-227.865
-27.0918
-142.189
321.026
-178.837
-179.891
-86.9837
521.582
-26.3345
-292.395
275.483
12.9311
623.871
-703.977
-650.803
-252.723
-247.583
33.0388
222.229
25.3
427.492
-452.792
-358.238
340.164
18.0735
-141.449
156.784
561.611
440.203
-348.248
-197.714
545.962
185.168
-240.767
-81.6059
276.892
-66.9913
-354.783
187.977
-227.977
-238.16
308.715
202.604
-130.081
-458.776
-522.844
-295.725
-12.3418
308.067
-283.986
157.589
126.396
-173.881
178.309
-193.718
-90.2679
226.055
-219.753
252.515
-282.537
30.0223
267.724
-66.2608
-201.463
-805.209
646.259
-313.756
-295.387
55.3609
-287.308
301.766
276.133
-108.732
511.744
193.367
-57.2092
289.366
526.52
-815.886
-195.099
166.426
40.5788
-566.878
409.908
-935.17
283.97
301.415
-799.639
-473.355
-73.131
546.486
-539.956
468.449
71.5072
285.375
-210.334
48.7841
-620.169
391.138
-11.1745
170.884
-312.41
337.71
159.108
-509.324
-136.402
-37.6392
229.934
-6.71561
278.731
270.439
-86.2673
197.034
759.49
-5.19705
299.057
-277.259
-21.7981
-235.282
-112.667
-119.119
-32.1555
266.222
684.531
256.783
84.0062
191.802
337.409
-124.752
-87.1808
289.092
-201.912
-423.26
97.2731
495.579
-230.79
-264.789
290.425
-297.14
-17.7
-673.297
690.997
228.103
-834.307
444.062
-235.103
43.7934
-316.031
-95.5054
-375.659
471.165
-124.697
137.943
251.145
-311.363
284.418
4.56838
-874.927
330.082
55.4773
-336.952
-726.281
-517.325
-450.825
240.591
78.2038
-342.121
240.635
-322.241
164.464
79.596
123.903
-223.814
99.9111
-484.879
129.548
510.85
-924.434
-172.568
96.1012
458.302
26.8176
-574.602
-421.767
18.6431
-599.639
-3.25141
299.141
-103.284
373.344
-270.06
-125.346
-90.3747
128.445
-190.928
-88.9762
-344.073
380.201
-216.219
-61.245
277.464
-69.1035
226.693
-286.908
-261.355
243.527
17.8286
43.8307
-240.359
284.152
367.571
-39.5656
-318.672
-20.1132
236.083
206.093
-27.7151
-178.378
-112.087
-467.274
54.0504
413.223
-294.801
-128.115
422.916
154.097
-211.611
306.622
-265.85
100.292
-200.898
-116.198
317.096
787.074
318.839
-36.0102
-213.409
249.419
-18.9984
-520.957
-295.725
-742.601
370.222
372.379
6.18641
-298.283
-4.27949
275.338
-13.9775
231.529
252.762
-341.771
89.0092
-464.518
-115.173
-552.53
213.627
338.904
212.973
24.964
237.837
320.695
-622.846
302.152
216.089
-422.579
206.49
-364.717
385.28
-676.323
291.044
931.018
-905.559
-734.08
452.149
-398.017
-120.73
518.748
169.31
129.747
-330.344
562.317
-372.33
-189.988
378.012
-192.844
-810.415
241.686
251.095
244.485
-232.834
60.8186
378.568
-109.145
180.535
-183.491
2.95622
233.226
11.68
586.858
-613.891
-513.59
207.666
305.924
77.3308
-336.84
-159.033
495.873
85.1949
367.699
-179.722
265.285
59.9569
-469.923
189.927
285.737
150.851
-436.588
122.911
-251.693
-160.027
-229.269
-206.185
-363.588
19.515
-28.6295
-628.942
-32.4139
230.492
-198.078
-329.104
172.491
156.614
-354.03
-98.9798
453.009
-232.05
-94.0147
190.688
15.4058
-311.108
85.1446
168.153
116.993
-285.146
-274.308
-128.67
402.978
-364.077
-291.647
271.843
19.8036
153.009
-369.695
216.686
150.452
-258.552
108.1
-38.6988
-86.8476
-284.114
370.962
-393.789
221.114
211.657
-440.926
-282.974
137.868
145.106
-462.687
145.611
35.1145
-440.295
405.18
-198.214
-63.1412
158.571
381.28
-329.149
-52.1313
-208.081
205.811
2.26929
-259.967
143.593
116.373
-111.964
-132.179
-285.322
-113.237
909.092
-218.463
-29.5689
280.202
-488.44
291.311
138.949
-345.19
206.241
-368.508
-120.462
488.97
-471.028
-216.275
220.353
-29.1093
236.38
689.455
-707.156
-48.9384
-273.115
322.054
80.8302
-710.432
629.602
214.84
88.9638
-303.804
301.478
-98.5658
-217.496
233.632
-364.847
-43.2956
408.143
-710.721
39.3808
671.341
-453.586
-180.414
-69.121
-274.55
522.252
-8.94863
-774.408
-19.5554
793.964
-171.484
512.555
-341.071
-189.418
478.784
182.516
-519.356
320.225
-99.8184
89.038
428.64
-425.927
430.733
-328.8
-131.305
460.105
-524.057
50.7021
329.247
11.0348
55.9388
-273.435
257.344
-55.5589
-201.785
-92.4103
-99.2908
297.217
-77.6056
-278.186
76.67
198.739
-302.848
-93.0566
395.905
-284.461
340.289
-55.8281
-75.6347
273.935
-339.32
-123.091
462.41
-267.262
133.959
133.303
-139.477
-18.3022
41.5719
-652.105
610.533
-181.157
-252.163
-268.469
-246.703
-337.915
-89.4157
-216.559
-70.779
287.338
415.366
639.642
178.544
-266.834
88.29
141.836
504.606
229.793
27.5506
194.685
-248.027
53.3425
-353.818
-154.786
-532.525
-75.2913
349.016
-181.321
315.674
-30.299
624.509
-177.918
-4.4576
230.512
-244.522
277.152
-32.63
713.609
1.55201
288.873
-602.083
492.414
109.669
225.84
59.8691
199.861
-34.7859
191.555
-330.924
109.544
-331.492
17.4613
-355.175
360.6
-5.42488
117.626
-221.593
181.693
24.6075
-320.589
321.64
-1.05067
244.363
-305.608
247.323
-15.9883
-328.46
-121.846
-52.6154
236.951
11.8665
243.09
304.54
3.69305
-360.586
-143.125
503.712
-79.934
-151.001
-200.481
-25.9841
92.2798
236.38
261.877
-294.032
292.548
-64.2452
-228.235
241.635
-13.3999
-1060.89
708.715
352.175
-421.286
126.486
285.202
2.40529
-287.607
-61.4562
351.001
577.333
-182.212
-26.6915
208.904
-40.5252
-216.293
-265.324
-57.1631
322.487
-288.699
-55.6958
344.395
-70.0767
-510.195
-91.888
-797.781
785.447
12.3341
75.7884
222.614
-298.403
56.4778
280.809
-173.455
467.886
-294.431
-238.36
-68.1841
-425.917
111.102
-236.448
171.417
-265.366
-323.527
-100.511
424.038
-94.1603
414.232
-320.071
-384.63
-79.5563
-240.058
-71.305
2.10332
-417.05
-94.9473
-202.613
684.005
9.17504
637.158
-646.334
-198.568
45.324
227.185
-811.924
584.739
183.308
-412.182
276.829
-21.9677
121.743
-1006.93
-234.552
-87.6888
440.753
-7.15047
-467.488
-396.617
-101.776
-657.401
212.781
-422.136
209.355
20.978
259.59
-315.1
-67.9065
383.007
10.1565
-284.056
273.899
830.033
-116.424
-491.105
481.544
-59.5449
-714.863
-64.2911
403.63
-846.628
783.49
298.652
-470.181
403.189
-91.6623
-119.29
200.749
169.377
-370.125
-438.264
-245.823
184.629
19.5388
-204.168
-220.828
911.729
30.0864
-992.005
559.738
-220.934
-89.6081
310.542
714.381
31.2025
332.5
-92.3421
374.965
-355.45
-402.204
409.161
-6.95716
326.291
-327.353
1.06112
340.837
-104.458
-16.0493
-400.831
-123.139
-235.476
-109.409
-209.068
-100.134
-593.345
776.572
-183.227
-204.987
11.269
-192.523
-384.221
-462.469
412.204
97.3584
-288.286
-136.25
-112.205
248.455
-44.0883
390.474
-346.386
310.164
-57.6033
218.072
-66.1322
-151.939
86.1553
-252.324
121.195
171.341
309.139
-94.2986
-301.8
-108.136
212.433
525.503
-145.407
26.3555
-773.629
747.273
-298.539
121.687
-207.954
-30.2711
-45.6358
298.847
39.4887
771.925
-698.852
856.292
-110.815
-745.477
378.776
-76.0438
-302.732
127.762
-248.122
-94.5554
509.206
-414.65
-227.955
-61.5974
24.5459
-734.978
404.773
-111.955
-291.023
287.797
3.22588
-196.311
-80.4169
276.728
204.89
24.4868
-229.377
-33.5347
-125.682
-451.473
-609.416
-427.355
203.967
-15.3197
-231.835
-15.236
243.339
54.2802
-536.576
482.296
-285.994
247.504
-424.394
188.407
-380.622
697.253
-313.578
68.8207
-270.314
201.493
-111.399
293.706
558.769
-166.39
-237.566
-144.025
231.859
855.949
88.2963
-308.067
229.624
46.8245
725.101
-12.5637
193.099
-324.996
-93.221
355.611
-56.3778
-444.822
-528.262
156.413
371.849
-152.885
-498.4
651.284
-568.733
1012.15
-708.28
114.935
-470.624
-303.944
282.732
89.2788
-913.216
67.1778
846.038
-345.19
370.333
-64.0309
-6.55116
360.551
333.016
7.27331
226.967
-199.98
-26.9869
-322.621
101.793
-196.374
-11.7064
242.996
359.331
-75.745
609.795
-111.612
289.964
76.1749
540.935
-100.646
509.234
-95.1759
253.146
-32.11
-221.036
392.917
-468.44
-317.012
785.451
530.447
-268.675
-291.035
-556.093
80.3586
475.735
309.161
-62.2343
-711.09
677.545
33.5445
520.667
-68.1306
-31.5517
635.475
-603.923
-321.966
255.706
280.679
55.0469
425.993
105.936
-380.454
215.216
-28.5142
310.062
0.10169
-430.971
-129.394
-36.7648
590.392
324.5
-316.85
-7.64968
-508.833
44.3151
-379.355
-331.476
301.177
46.5011
328.59
-292.194
293.335
-37.6297
-144.441
-254.141
-237.509
1.31455
236.194
-401.389
-112.364
-33.492
547.368
-38.119
-7.51287
475.488
543.053
-26.362
-175.197
-274.375
325.7
-51.3249
-97.6969
250.743
32.4763
-743.566
-299.963
-213.204
346.662
-392.552
-60.9913
438.311
620.581
224.042
-844.623
-141.559
537.667
-132.894
322.476
-251.338
-71.138
-112.655
-584.049
-185.663
28.3972
209.677
123.339
-129.85
237.95
-262.257
-260.425
300.167
-39.7416
247.205
301.893
-427.265
694.832
413.571
-257.137
330.835
-73.6977
-246.661
-464.578
-210.48
837.379
18.9124
360.549
-50.4866
-938.574
25.3579
354.254
-85.33
-744.581
13.2589
-314.494
634.742
207.16
-89.3183
-93.8935
8.78572
297.083
-361.91
9.33877
352.571
-210.225
-118.328
240.538
-101.629
-477.266
-89.6124
492.365
-82.4565
352.031
22.0411
-310.405
-81.9541
-105.317
-519.153
371.828
-117.735
653.178
-628.633
-284.04
361.031
-76.991
-220.25
40.3591
282.631
23.1006
-444.554
-479.88
-428.983
972.483
-468.866
-503.616
529.613
-81.8652
-517.58
-102.59
-64.4551
18.4653
501.759
-110.621
-20.1856
51.4772
179.015
-235.518
-203.333
46.8
-71.0903
543.258
-117.084
-406.114
-360.534
308.679
266.37
-0.148084
414.315
-62.2837
-53.7636
-148.849
-180.452
-308.237
31.0584
70.6384
-271.12
439.387
-651.107
573.464
-86.2281
-487.235
758.9
-726.423
389.895
-43.2324
-277.809
-308.966
31.9684
540.218
-101.907
-758.231
784.586
218.337
-3.2763
-215.06
-115.288
212.646
459.596
-57.8998
561.918
-129.042
-281.659
283.211
-106.855
-112.11
-201.196
230.318
-29.1215
-103.527
272.836
298.247
-39.5819
-63.01
250.833
-473.445
-278.153
271.754
-235.946
-35.8074
-378.749
386.57
-7.82114
-18.1404
-100.012
280.235
309.301
-312.122
2.82143
-251.287
-121.728
-1.29182
159.259
-322.936
406.221
-43.233
787.181
-743.948
-507.768
345.413
-43.5197
30.9557
347.184
12.4982
-359.682
7.14154
382.476
202.432
481.033
30.5923
469.843
41.901
356.207
-47.9593
-44.3918
239.076
216.992
72.1003
-856.281
865.456
-301.953
285.569
16.3844
-550.117
250.709
0.123549
749.769
-552.106
-197.664
260.871
-185.701
-75.1704
433.241
228.984
27.3703
494.212
-199.217
618.503
-419.286
72.6134
-50.6606
842.852
-792.191
-387.225
300.377
476.696
198.87
236.208
-0.125752
227.162
-169.976
-481.642
651.618
38.0609
209.262
58.0022
-558.3
571.34
-508.774
793.209
-276.098
-517.111
-295.789
-171.019
36.7901
271.058
0.785212
-229.599
-256.835
-338.419
-477.501
4.96952
186.153
-191.123
293.838
266.791
190.288
-792.555
768.466
24.0889
2.33103
409.004
-452.571
43.5666
286.65
51.5676
5.76159
742.991
-748.753
89.5726
236.127
29.8736
97.9917
-292.593
306.871
-14.2784
-890.814
-47.8241
197.599
-121.766
-487.493
609.26
-294.138
813.039
-138.779
-398.45
-110.383
-561.237
138.813
357.06
37.3673
-256.116
-25.5429
198.64
-147.163
8.23024
847.1
46.5888
-15.4903
304.363
473.419
-357.225
-116.194
-626.435
262.918
363.517
123.796
173.422
367.375
-348.519
235.58
135.959
288.079
229.854
227.012
14.6232
69.8415
-484.05
414.208
805.833
-249.785
-556.048
183.532
195.684
-379.216
322.616
402.011
254.292
3.67978
-626.322
-306.005
245.446
-889.861
368.007
55.0047
-430.664
71.105
-634.484
-100.494
247.584
-360.875
358.849
555.446
-568.291
645.15
-76.8586
-12.5033
373.978
412.809
-305.432
-34.6329
169.98
-135.347
-303.39
297.057
-18.3262
633.967
-347.279
-23.0426
377.625
-354.583
65.2421
-183.865
227.921
-44.0555
-248.617
225.824
22.7935
285.856
507.353
168.435
-404.23
403.983
-1061.43
1067.19
103.309
-9.38169
441.482
180.175
-58.4881
416.301
345.636
215.578
23.4262
246.823
365.655
-26.2292
-339.426
-650.154
648.499
1.65497
232.609
198.375
-12.2219
502.196
-432.355
-210.93
766.376
263.402
87.663
236.783
-361.535
-179.059
26.9128
244.841
729.524
-149.767
-579.758
-840.874
905.559
302.916
346.325
210.804
-208.399
554.128
-992.392
415.821
318.716
284.349
-42.3835
460.162
291.49
59.892
-417.756
357.864
-224.525
307.93
-13.3199
-0.385515
-824.354
694.138
799.047
-194.08
334.681
240.807
98.1368
340.602
-20.2975
-320.304
269.596
266.59
289.882
-189.894
89.3108
-274.111
284.298
-10.1872
415.387
-519.506
-255.366
-4.29924
219.877
430.438
-573.564
-277.124
21.0076
445.271
-110.058
-244.424
354.482
-334.849
-193.413
634.843
106.134
426.474
-943.301
516.827
-460.86
418.439
42.4211
-3.42454
254.269
-250.844
336.087
-270.845
259.691
-236.845
-22.8465
269.687
10.8583
-194.724
-847.978
67.5057
321.458
-388.964
-31.5028
721.144
-689.641
323.376
-296.159
-27.2174
-445.69
438.779
272.656
-233.168
-400.01
978.679
-578.67
286.327
-14.1101
198.739
537.197
462.803
-194.738
209.944
11.7655
-221.71
-28.3832
399.919
-593.489
33.5911
559.898
202.563
260.777
-332.082
-17.7356
-361.014
-911.729
861.068
-496.384
1033.58
337.272
-53.8798
239.822
-2.14912
-237.672
489.44
-435.389
66.4365
-718.541
-460.25
-0.610172
-258.645
319.369
-469.514
-499.085
299.138
-18.9449
-280.193
-959.867
440.668
-797.781
157.32
33.5527
-190.873
31.511
598.091
648.634
-633.949
-293.023
819.543
-90.76
216.975
378.942
-516.496
137.554
-125.292
353.375
-228.082
-703.733
750.557
-387.595
234.621
-224.515
233.914
-9.39854
-275.154
701.628
314.373
596.885
27.8345
-786.065
-232.322
252.843
-340.531
-61.2272
-228.834
240.665
-895.97
980.259
176.277
39.6688
-215.946
265.617
-266.861
-89.7583
28.2857
399.522
208.721
-608.243
502.754
-902.764
477.897
-60.6798
-223.15
-4.00379
227.154
-114.379
-193.858
-258.209
56.7453
-165.105
-138.024
303.079
291.931
-265.018
-115.777
-318.513
434.291
281.567
290.085
-17.7801
-293.906
311.686
-691.2
17.9029
850.634
-890.814
931.018
-956.088
943.112
948.917
-948.917
-840.874
-1006.93
242.393
-205.025
-241.397
-210.124
-188.218
-3.36491
736.544
-956.689
220.146
-865.456
12.9507
-283.329
193.221
-35.9006
-763.365
791.199
228.807
-7.05693
-221.751
-253.754
263.911
-11.9646
-250.115
262.08
248.81
-14.2773
-234.532
202.481
-229.573
-23.7452
-253.775
277.52
-188.443
201.415
-12.9723
250.561
281.358
-347.813
407.705
106.354
-183.33
76.9764
-363.967
-579.919
-194.648
208.129
-13.4805
-419.855
-84.1748
504.029
195.391
-175.852
42.5272
202.553
-26.2754
-349.926
237.259
456.389
-97.5397
199.317
458.529
-49.5251
318.873
-386.063
67.1906
19.0111
-635.533
667.044
262.662
-461.879
-783.783
730.31
53.4728
480.809
497.87
49.739
406.65
-236.269
257.247
-73.1458
-710.637
244.556
-334.164
703.269
-886.496
318.34
-713.895
395.556
129.602
264.233
-206.045
-58.1889
-49.3812
-388.334
-867.594
592.44
-2.6467
260.333
3.24809
-312.293
309.045
17.6455
-45.8308
236.332
281.984
-37.143
185.506
-58.316
-127.19
738.461
20.4387
272.986
304.441
6.76644
182.006
-227.685
45.6788
242.889
-300.988
297.736
-293.273
-203.611
218.051
-14.4403
74.8057
-494.66
249.315
156.906
-88.8485
825.392
-594.405
404.417
547.172
-637.675
229.066
-328.884
314.603
-439.895
198.067
-307.476
218.589
-194.102
-324.018
225.453
-191.041
-8.25029
199.292
226.692
-326.826
368.536
-266.433
-102.103
-2.86538
485.161
-442.524
-560.357
1002.88
-722.602
639.382
-50.5984
-320.554
371.152
21.3851
53.3594
-311.5
307.221
-270.853
-6.27074
203.23
53.8698
-257.1
-188.903
-233.233
-308.874
223.493
-209.006
-14.4867
-312.293
-413.05
413.05
187.584
-658.612
179.804
161.703
309.045
727.449
-235.036
-41.7435
-645.884
687.628
523.805
-84.143
236.397
-365.285
316.347
387.763
244.082
4.51826
232.586
-172.453
-60.133
-36.287
-686.795
686.795
-175.281
-388.328
-98.1228
-138.325
206.903
20.2732
-156.886
227.61
-423.61
479.563
-182.244
-198.378
699.422
-488.759
-210.663
-136.12
-112.002
513.815
-145.772
-80.5749
-33.9251
-488.275
522.201
-500.423
-287.39
510.16
-15.9475
-22.9486
-717.346
547.37
-458.259
-65.7982
767.676
19.5058
231.765
-113.022
773.807
-660.784
93.3914
814.71
683.22
828.909
150.921
-217.053
-387.524
-72.7256
-237.128
249.956
-218.744
49.8082
-201.108
-897.341
41.2747
856.066
29.6128
403.639
811.349
-263.62
247.848
15.772
1066.42
-542.393
-524.028
-169.316
6.28099
475.263
203.508
-37.0824
295.042
250.921
430.124
-772.058
956.341
-184.283
-368.603
8.06857
232.483
18.4738
665.531
-82.2736
-219.68
-201.745
-227.238
209.966
92.376
635.073
690.106
-731.849
91.8615
-795.594
23.1045
654.441
752.33
-849.656
97.3263
-627.596
536.139
91.4577
627.352
-563.636
-63.7169
-446.792
521.598
51.9135
-118.604
-113.862
232.466
156.444
305.608
-584.525
404.111
191.985
-191.985
-200.126
219.409
-879.254
436.73
-658.18
536.413
-556.093
856.281
-945.129
24.1338
-238.249
205.645
-200.773
-211.409
-249.215
22.5532
357.648
36.3033
342.473
-352.632
-360.979
33.6263
397.78
-666.455
-55.3372
-726.802
782.14
207.281
-287.698
55.4038
145.367
-257.572
-623.573
655.831
-179.031
-86.3351
8.30506
537.959
125.094
-310.729
-20.7466
-455.124
957.878
864.026
-864.026
333.683
43.9422
12.6766
462.812
-761.566
17.6172
650.106
16.9379
80.4522
417.609
-498.061
215.874
303.228
-4.08717
9.32159
672.505
18.4922
-812.189
626.525
195.751
303.054
-498.805
-809.741
533.643
210.994
-410.781
21.209
-649.842
-191.823
-46.0382
237.862
-117.66
226.361
-108.701
15.5274
45.3367
356.764
41.622
-203.605
17.4483
-241.567
513.707
658.755
62.3887
12.5018
124.988
-121.518
-176.884
197.369
388.314
-497.064
-707.874
-64.1844
-200.391
-467.082
-476.219
-274.09
-360.792
624.828
-515.159
6.78313
798.24
-805.023
318.391
50.1444
393.492
-59.8087
616.906
-53.1865
-563.719
313.784
-16.3128
-571.158
-95.7752
666.933
-6.91048
-229.164
-584.485
406.568
-181.587
-40.7191
222.306
234.237
611.297
66.2453
-211.795
-119.129
25.061
204.864
-546.241
638.617
194.782
3.95705
-200.07
397.778
-197.708
288.457