/*--------------------------------*- C++ -*----------------------------------*\
  =========                 |
  \\      /  F ield         | OpenFOAM: The Open Source CFD Toolbox
   \\    /   O peration     | Website:  https://openfoam.org
    \\  /    A nd           | Version:  7
     \\/     M anipulation  |
\*---------------------------------------------------------------------------*/
FoamFile
{
    version     2.0;
    format      ascii;
    class       volScalarField;
    location    "19";
    object      p;
}
// * * * * * * * * * * * * * * * * * * * * * * * * * * * * * * * * * * * * * //

dimensions      [0 2 -2 0 0 0 0];

internalField   nonuniform List<scalar> 
7639
(
0.270095
0.0032321
0.489345
0.300042
-0.00150914
-6.61676e-05
0.495007
-0.00918937
-0.000210955
0.126713
-6.2363e-05
0.00417451
-0.0136976
0.0634899
0.131882
-0.0178518
0.284693
-0.0178558
0.00186566
-0.0771206
0.0843857
0.00274069
0.0470351
0.245211
-0.0231176
0.286164
-0.00139251
0.0781991
0.204645
0.00432529
-0.0244046
0.771391
0.0461828
-0.000852414
-0.000185994
0.103616
0.00488961
0.477862
-0.00776386
-0.000595288
-0.00709402
-0.0172057
-0.0761526
-0.0588655
-0.00035619
-0.000145924
0.00269993
-0.00796368
-0.000120802
-0.0761598
0.00625761
0.0742809
-0.0290604
-0.00384928
0.102754
-0.00819033
0.00206936
-0.00919597
-0.0372284
-0.000889432
6.95254e-05
0.00801193
0.0638322
0.00460332
-0.00170837
-0.0238892
-0.000171067
7.27664e-06
0.0362659
-0.00745009
-0.000133975
-0.0626
-0.0223548
-0.0375921
-0.0172585
-0.0524882
0.481133
0.0827181
0.0618
-0.06908
-0.0131398
0.440921
0.119609
-0.0391716
-0.00252636
-0.00398551
-0.00981959
-0.0282026
-0.00115188
-0.00774577
0.209467
-0.0815595
-0.000237053
0.00207974
-0.00617722
-0.0385949
-0.059808
-0.000312714
-0.00278346
-0.00203569
-0.063633
0.0701507
-0.00586314
-3.5684e-05
-0.0793906
0.212883
0.663688
-0.00869976
-1.06343e-06
0.0424358
0.281842
-0.0491822
-2.64641e-06
0.0449884
0.2137
0.00080413
-0.0627057
0.170654
-0.0453863
-0.038383
-0.0659318
0.420559
-0.072936
0.0177234
-0.0643959
-0.00169722
-0.0218612
0.00344866
-0.00180155
-0.0244114
-0.129909
0.0639552
-0.00106635
-0.00135722
-0.0405036
0.273471
0.529639
-3.0773e-05
0.0139769
-0.0817224
-0.0356441
-0.0534586
-0.0528803
-0.0360822
0.671444
-0.0215211
0.206123
-0.0361045
-0.0489836
0.419098
0.0990595
-0.0675073
-0.00262152
0.0105159
0.119243
0.439159
-0.059661
-0.0136442
0.624367
-0.000109429
0.00100019
0.254809
-3.36693e-05
-0.00362273
-0.00695607
0.319684
0.32031
0.64938
-0.00411252
-0.00540033
8.26408e-06
-0.0682728
0.000791913
0.0105179
0.0151731
-0.0483303
-0.0574476
0.135337
-0.000235337
-0.000888257
0.304759
-0.000108962
-0.000199996
0.496888
-0.00299685
-0.0416823
-0.0427563
-0.0354759
-0.0252243
-0.0800599
-3.66901e-05
-0.0577936
0.138263
-0.00591423
0.000127134
0.208887
-0.0022051
-0.0229566
-0.024387
9.79133e-06
0.00165485
0.28234
0.176944
0.442965
-0.0562765
-0.0443069
-0.102121
0.0852808
0.280006
-0.000381698
6.14136e-05
0.629042
-0.0152718
-0.00111005
-0.0553538
-0.0228882
0.396162
0.406704
-0.0580266
0.730898
-0.00204529
-0.0175806
-0.0651585
0.101664
-0.0924782
0.214655
0.625586
0.000110324
0.018608
0.182227
-0.00731618
0.166424
-0.000978009
0.695929
0.430042
-0.00976368
0.00499161
-0.000552815
0.0914729
-0.000170731
-0.0110987
-0.0772412
-0.000133611
-0.002405
-0.000776311
0.175155
-3.39121e-05
-0.00804371
-0.0672855
0.770252
0.0558979
0.675968
-8.19372e-05
-0.0272294
-0.000341194
0.461074
0.00771336
0.531032
0.00249445
0.00140292
0.00817288
0.0888657
0.00108546
-0.000415341
0.000965831
-0.00770901
-0.0417187
-7.65811e-05
-0.0576979
-0.00662643
-0.000259666
-0.00115217
0.505348
-0.0136536
-0.0014026
0.731186
-0.00264809
0.280644
-0.000379828
0.000792687
1.37247e-05
-0.0408798
0.0978334
-0.0531956
-0.0375071
-0.000754272
-0.0691328
-0.0264128
-0.000329798
0.000931494
-0.00395228
-0.0131589
0.00561436
-0.00224582
-0.0374811
-0.036641
-0.0370125
-0.047372
-0.0463139
0.418574
0.437872
-0.00273569
-0.0969047
-1.34111e-05
-0.00429187
-0.03894
0.238202
0.134035
0.00017659
-0.00394754
-0.045096
0.193906
-0.00182864
0.00685688
0.00232243
0.0246101
-0.120095
0.386282
-0.00292265
-7.02156e-06
-0.000211458
0.00774456
-9.74213e-05
-0.0293379
-0.000635765
0.0078518
-0.142728
-0.0461531
0.00324497
0.0167053
-0.00135603
0.0366266
-0.0131197
0.0864639
0.18148
-0.127865
-0.0591645
-0.0271563
0.00976955
-0.0752461
0.663146
-0.0522531
0.0556148
0.71634
-0.00281842
-0.0032023
-0.0689707
-0.00198897
-0.0178211
0.0120836
-0.00510891
-0.00380147
0.191318
-0.000127109
0.00103643
0.000141755
-0.00621929
-0.0125977
-1.61413e-05
-0.0020225
-0.0357241
0.621057
0.00447279
-0.0149825
0.582445
0.368184
0.0763938
-0.0860635
-0.0690378
0.00941027
0.307634
-0.0192424
0.337884
-0.0294356
-0.0817979
0.185653
0.338272
-0.0546174
0.125701
0.203616
0.29945
0.0829918
-0.00556597
-0.00767227
-0.000164198
0.00525438
-0.0196359
0.00186246
-0.000199295
-0.00295799
-0.06897
0.0720186
-0.0285039
-0.00487268
-0.00691149
-0.00154339
-0.012554
0.00331345
0.163654
-0.00344624
-4.15809e-05
-0.000103876
8.80455e-05
-0.0342312
0.186009
-0.00729107
0.0513505
-0.0986811
0.467922
0.0061697
0.0128079
-0.00927298
0.487514
-0.00195375
0.379283
0.210657
-0.000217413
-0.0318945
-0.00601983
-0.0514977
0.00106694
0.0867
0.00601215
0.0118871
-0.00157926
0.157317
0.199398
-0.0482228
-0.0357964
-0.0041934
-0.0269174
0.0193841
0.758054
-0.0539761
0.00855251
-1.6124e-06
-0.0225447
-0.00416758
0.0335384
-0.0831407
-0.0982361
0.505093
0.177694
-0.0933294
0.218494
0.476553
0.0512611
0.00228353
0.316116
-0.00166312
-0.000342153
-0.0290647
0.000160306
-0.1105
-0.000717111
-0.0374593
0.00363058
0.21865
-0.00326557
-4.52871e-05
-0.0865005
0.00328711
0.0229764
-0.0613935
-0.079873
-0.0928166
0.184424
0.151734
0.156105
-0.000382984
0.0596449
0.0943568
-0.000979603
-0.0274962
0.00114631
0.010127
-0.00476314
0.00899174
-0.0014438
0.0966401
-3.67984e-05
0.00037028
0.00374016
-0.0353078
0.0378689
-0.0354609
-0.0412408
-0.0389134
-0.0995498
0.0119117
0.304135
-0.11424
-0.0117635
0.704488
-0.0588467
-0.0132333
-0.0410033
-0.0107339
-0.0333379
-0.017466
0.0504913
-0.0609463
-4.88506e-05
0.0442834
-0.000179975
0.425655
0.0362926
-0.00870075
-0.02341
-0.000351813
0.442759
0.375079
0.0403094
0.0834865
-0.0620715
0.546862
-0.000118247
0.0289753
-0.0295856
0.147156
0.653522
0.00555044
0.173032
-0.00348002
-0.00038069
0.0660438
-0.117544
0.464232
0.0272446
0.264361
-0.012382
0.478594
0.355199
-0.0155909
-0.0132572
0.0498024
-0.0813798
-0.0001585
-0.0216344
-0.0784133
-0.0642355
0.0209168
0.0172044
-0.000233232
0.376773
-0.00207446
-0.000193272
-0.0319521
-0.000911568
-0.000416932
0.00614058
0.247159
-0.078017
0.607891
0.00011436
0.240963
-0.02609
-0.000141515
3.32157e-05
0.201413
0.241895
-0.00718795
0.222339
4.72332e-05
0.2343
-0.126985
-0.0162933
0.500655
-0.053195
0.0736418
-0.0393417
0.229506
0.235501
-0.0266155
-0.0334434
-0.010461
-0.00506417
-0.000373176
-0.00230092
0.317304
-5.09713e-05
0.227554
-0.075565
0.397232
0.216555
-0.0800341
0.589333
-0.00286714
0.00809551
-0.0466042
-0.0319403
-0.011208
-0.0295951
0.0446285
0.692614
7.83291e-05
-0.00337831
-0.0483584
1.10249e-05
0.433471
0.00334421
1.05505e-05
0.000354759
0.000699881
-0.0280476
0.0323952
-0.00272566
-0.000159591
-0.011862
0.00436734
-0.0905098
-0.0738805
0.0385262
-4.05668e-05
-0.114999
-0.0211359
0.0663115
0.39305
0.00209736
0.0915989
0.000279635
-0.0202903
0.114674
-0.0112298
0.262711
-0.0207866
0.0331976
0.11887
0.172233
0.00780345
-0.0166839
0.185867
-0.0744576
0.468799
-0.015049
0.290774
-0.0149769
-0.00204067
0.165032
0.00129654
0.110075
0.00345135
9.23576e-06
-0.095672
0.157549
0.00259483
0.0718844
-0.0197499
-0.114798
0.00356892
-0.0367158
-0.00293616
-0.0142386
-0.0673855
-0.0421348
-0.0157584
-0.000269104
0.497246
0.0931641
0.0509019
-0.000356663
0.354778
7.04782e-06
-0.000328183
0.110366
0.00193961
0.130205
0.0768416
0.0298445
-0.0430377
-0.0973408
-0.0816806
0.00236798
-0.0598962
-3.4718e-05
0.00652088
0.252327
-0.0253978
-0.00485791
-0.0132423
-0.0034241
-0.000726579
0.716485
-0.0158883
-0.000977389
-1.04445e-05
0.167896
-0.0440628
-0.000585789
-0.0048038
0.194359
0.0978933
-0.0539889
2.35582e-06
0.215448
-0.0251974
0.208785
0.0292764
0.0359066
-0.0443831
-0.000171144
0.116031
0.0867323
-0.0497145
-0.0701316
0.319667
0.0108868
0.176419
-0.00460302
-0.0308723
-0.000697998
-0.00280776
-0.000192142
0.188523
0.251301
-0.00259545
0.0331389
-0.0268705
-0.0575298
-0.0640177
-0.00324512
0.0266988
0.683896
-0.0502438
-9.90165e-05
0.0980534
-0.0065395
0.58211
-0.01961
-0.0187807
-0.00481229
-0.0215666
-0.0114576
-0.0126097
-0.00596171
0.00269091
0.0364599
0.000188079
-0.134642
-0.0487428
0.40794
-0.051961
0.141737
0.00366397
-0.0450961
-0.0199595
0.25088
-0.0119021
0.000189039
-0.0246548
-0.00908507
0.0304924
-0.0402544
-0.0347761
-0.034116
-0.0228802
-0.00957391
-0.0678449
9.76837e-06
0.0522046
-0.0599223
0.113829
-0.0517724
0.109757
-0.0725758
0.355443
0.00750257
-0.0457597
-0.0218045
0.616367
-0.110981
-0.0205101
-0.0931731
-0.0381569
-0.0853016
-0.0515203
0.178365
-0.00483045
0.299816
0.0156161
-0.000695058
-0.00213174
0.0872821
0.777717
0.00187699
-0.026504
0.203748
3.98475e-05
-0.0320252
0.0469239
-0.002818
0.0158611
-0.00284871
-0.0411859
-0.00530236
5.13183e-05
-0.050704
0.284202
0.00336038
-0.0258739
0.0033765
0.203106
-0.000676039
-0.00218016
-0.00063772
-0.00137592
-0.0250324
0.00294468
0.00487637
-0.0277433
7.92737e-05
-0.0933935
-0.115462
-0.101989
-0.0234796
0.025878
-0.000378232
-0.0201913
-0.0661161
-0.0306885
0.400465
-0.0022228
-0.0716824
-0.00817118
0.0109901
0.14455
0.000775157
-0.000279603
0.0562373
-0.0344482
0.0255832
-0.00516024
-0.00362888
-0.061044
-0.000315349
-0.00130829
-0.0209939
0.345129
0.279186
-0.0394307
-0.0580521
0.0128886
0.00659291
-0.0289227
-0.0656767
-0.0173206
-9.64848e-07
-0.0250409
-0.0377021
-0.0715537
0.006516
-0.0579409
-0.000710421
-0.00520555
0.220564
-0.0426304
-7.41924e-06
-0.00491297
-0.0982038
-0.00029613
-0.0218638
-9.07823e-05
0.00683395
-0.0882585
-0.0385937
-4.01386e-05
5.38478e-05
0.145584
-0.0487292
0.447084
0.279134
-0.0205419
-0.00104085
-0.0172873
0.000384032
-0.122894
-0.0790173
-0.0770249
-0.0251818
0.256066
0.0133475
0.000479398
0.00913159
-0.0988191
0.00347701
-0.0269698
-0.0640587
0.00255109
0.0280437
0.0823432
0.0125958
-0.034226
-0.0622855
0.213613
-0.0324897
-5.4127e-07
-0.0888966
-0.0693085
-0.0386699
0.00683261
0.00133153
0.0115154
-0.0864523
0.040591
-0.0402611
0.109803
-0.0452579
0.00975395
0.0245936
0.0173262
-0.0409616
-0.11328
-0.000185408
0.166217
0.235149
0.0102054
0.170128
-0.0668017
0.0559082
-0.0487453
0.225278
0.114978
0.676936
7.45112e-06
0.108291
0.193573
0.0191188
-0.00199446
-0.0218409
-0.0403024
7.41845e-05
-0.0217936
-0.0518346
-0.0238688
-0.0262359
0.000225433
-0.10302
-0.000510829
-0.00119025
0.271822
0.0084452
-0.0142576
0.0258104
0.233449
0.014017
-0.000541764
-0.0969191
0.0103854
0.422138
0.00171346
-0.0541798
-0.000307106
-0.000747972
0.00896169
-0.0525918
-4.39715e-05
-0.0132108
0.0357259
-0.00260632
5.34957e-05
-6.56945e-05
0.170918
-0.0421254
0.00880474
-0.00149338
0.0111477
0.0201345
0.0109838
-0.000398596
0.383253
-0.0859759
0.247832
0.322521
-0.000287407
-0.0216777
0.111019
-0.00104054
-0.000363109
-0.000584286
-0.0165909
0.0179881
-0.0137443
-0.0232637
-0.0667644
0.189758
-0.085913
1.68791e-05
-0.0230803
-0.0219664
-0.0413247
-0.00563039
0.00775297
0.00166177
0.0350102
-0.000694759
-0.00031865
-0.0207058
-0.0055612
-0.0293645
-2.1385e-05
-0.0177646
0.0416751
-0.0258781
-0.0309256
-0.0105432
-0.0141672
-0.0111171
-0.00669892
0.0100218
-0.0114826
-0.000142736
-0.000542105
0.0288908
-0.0147278
-0.00635305
0.0108694
0.00351483
-0.105078
-0.0133954
0.175083
-0.0151553
-0.0584335
-0.0286438
-0.0268172
-0.0186203
-0.0048494
0.00292051
-0.00454879
-0.0167206
-0.0192297
0.20529
0.153595
0.0556409
0.39076
-9.79086e-05
-0.00425155
-0.0195983
-0.00989541
0.0741741
-0.0240087
0.0502073
-0.00550844
0.216206
-0.00251161
-0.0021073
0.0167562
-0.0208753
-0.000293978
-0.0253022
-0.00753484
-0.0246921
-2.71867e-05
-0.00846438
0.00260642
-0.0208638
0.0388575
0.043824
0.0239508
-0.0167671
-0.0366838
0.130931
-0.00165834
-0.00254351
-0.00273417
0.576723
-0.000120673
0.0778565
-0.0251372
-0.0242282
-0.0310199
-0.0462483
-0.0335688
-0.0396963
-0.0217291
-0.00589544
-0.000131094
-0.00548401
-0.0256444
0.112661
0.00221232
0.115714
-0.0382358
-0.0158933
-0.00119879
-0.0337514
-0.00013796
0.165649
-0.0352346
-0.0307253
-0.0280876
-0.00505256
-0.0380841
-0.00218457
-0.0466974
0.115817
-0.0303142
-0.0728912
-0.00189443
-0.031645
-0.0219333
0.0194553
-0.00416057
0.159267
-0.00309877
-0.0226923
-0.000879623
0.178935
-0.0448765
-0.0310099
-0.00417921
-0.011861
-0.00354831
0.187952
0.00559137
0.1679
-0.00618149
-0.00106474
-0.00163347
-0.00299824
0.138423
-0.0672853
-0.00865244
0.000440228
-0.0093423
-0.0132056
-0.00117129
-0.0169288
-0.0187192
0.068061
-0.00633384
0.00553665
0.568741
-0.0687735
-0.033678
-0.0645308
4.57423e-05
0.0881229
-0.00454994
-0.0314974
-0.00715009
-0.0412923
0.00547598
-0.000696951
-0.00373194
0.00422809
0.223796
-0.0074537
-0.00230681
-0.00593588
-0.059234
-0.0104957
-0.0262007
0.00558578
-0.0109846
-0.0113082
-0.00420927
0.226455
-0.0525495
0.00416875
-0.00541766
-0.032321
-0.0173091
-0.0561841
-0.00181514
0.10457
0.0287019
-0.00991646
-0.00223165
-0.0167627
0.593565
0.225251
-0.0140614
-0.000752472
-0.00307314
0.00421669
-0.00509499
0.0262443
-0.000541941
-0.0194118
-0.00254648
-0.020646
-0.13193
-0.00137657
-0.0138856
-0.00175153
0.360725
-0.0081757
-0.0145511
-0.0364203
-0.00248339
-0.0350613
-0.0142943
0.518517
-0.013383
-0.0141628
-0.00272631
-0.000606079
1.87086e-06
-5.21025e-06
-0.0126446
-0.000864364
0.0899362
-0.000873691
-0.00234198
0.0105034
-0.000336619
-0.0506795
-0.0610898
0.0217246
0.0481354
0.0325699
-0.0167296
-0.0441673
0.103081
0.081483
0.109603
0.138278
-0.0160254
-0.00111698
-0.00739635
-0.0675362
-0.00451141
-0.0184446
-0.0218696
0.358331
-0.0537932
-0.000628794
-4.01876e-05
-0.00189352
-5.58225e-07
0.0109331
-0.000725567
-0.00589647
-0.0542202
0.000701962
0.00340605
-0.000285137
0.0673023
-0.0189069
-0.0455688
-0.00156786
0.370032
0.281195
-0.0125501
-0.0725374
-0.0328101
-0.028704
-0.0176904
-0.00241355
-0.0763805
-0.0363179
-0.0481662
-0.102416
-6.72122e-05
0.199821
-0.0174218
-0.0120501
-0.0334085
0.0235929
-0.000692131
-0.0104965
-0.00175815
0.0156045
-0.00196741
0.156371
0.000453524
0.0128348
-0.000539002
-0.101875
0.0113
-0.000988995
0.00965689
0.000529632
-0.0185865
0.12336
0.00156434
-0.0018597
-0.000164452
-0.000746451
-0.000657726
-0.0676173
0.140702
-0.0187784
-0.000350387
0.0114994
-0.000596475
0.255719
-0.0664906
0.267641
-0.0490602
-0.000586392
-0.000375377
-0.00919463
-0.00715174
-0.000820408
-2.41258e-05
0.0309056
0.0355103
-0.000308137
-0.000435565
-0.0237324
-2.90568e-05
0.188085
-0.00120586
-0.0589406
-0.0229318
-0.00803197
-0.0616993
-0.0674709
0.16992
-0.0223284
-0.024302
-0.000412725
-0.0628865
-0.024782
-0.0150878
0.0554878
0.398628
-0.00151213
-0.0657392
0.0151392
0.337091
0.0472918
-0.000156465
-0.00761751
-0.00517629
-0.0062781
-0.053715
0.096883
0.000229909
0.0206336
0.00383385
0.0767259
-0.000677575
-0.00016085
-0.0888421
0.302392
-0.0607809
0.148005
-0.00162206
-0.000263091
-3.17951e-06
-0.0824987
-0.0472774
-0.000445023
0.103839
0.0142414
-0.00675982
0.475335
-0.000512533
-0.00469911
-0.0651002
-0.027549
-0.00291794
0.152057
-0.0615778
-0.000216592
0.0142956
-0.000229288
-0.000132317
0.14908
0.000228256
-0.000588227
-0.0574642
-0.0291018
-0.00445217
-0.033068
0.00308268
-0.0270886
0.00213588
-0.00444576
-0.0708247
-0.0434233
0.0201626
-0.00116007
0.170793
0.232986
-0.0900795
0.012007
0.0239252
-0.00543365
0.186824
0.110831
-0.0327466
-0.000211776
0.012324
-0.0611685
0.0132035
-0.0326123
-0.00269182
0.0471998
-0.0323636
-0.000179194
-9.67118e-05
-0.03942
-0.0298532
-0.0305256
0.0121778
-0.0121864
-0.0499358
-0.000200229
-0.00178591
-0.000272034
-0.0385723
-3.10941e-05
-0.00247444
-0.0484837
-0.0919439
0.0730713
-0.00379463
0.00535113
-0.0253304
-0.0299249
-0.00016835
-0.051885
0.0524922
0.176709
3.00329e-05
-0.00014579
0.18008
-0.00320857
-0.0835473
-0.045752
0.00433313
0.000612982
-0.0745381
-0.0304711
0.184598
-0.062418
-0.0018844
-0.0115285
-0.0580357
-0.000746807
-0.000313165
-0.00116607
-0.0237992
-0.0570517
0.123285
-0.000273579
0.593693
-0.0504249
0.000147051
-0.00124585
0.00031936
0.000366313
-1.87342e-05
0.000174244
-0.0587637
-0.000929844
0.000552463
-0.000257932
0.158551
-0.00721182
-0.000251345
-5.90921e-05
0.398161
-0.0255432
-0.0490828
0.00145893
-0.000927839
0.0628195
-0.000128643
-0.0156014
-0.128352
0.00280337
-0.00815264
-0.000126252
-0.000266912
-0.0356212
-0.0641387
0.00923642
-0.105715
-0.0624308
-3.65165e-05
0.026586
0.0398871
0.12384
-0.00219556
-0.00020393
-0.0623469
-0.00766206
-0.00064524
-0.0550851
-0.000179172
0.0437405
-0.000117689
-0.0016287
-0.0531159
-0.00269936
-0.0645877
0.539105
-0.00209569
0.000349754
-0.0598784
-0.0578809
0.0116361
0.00601605
-0.000196705
-0.0362495
-0.00011043
0.2207
0.729191
0.0587766
0.00390063
0.00461527
-2.42811e-05
-0.0325335
-7.56625e-05
-0.00887494
-0.00216622
0.000472048
-0.00425515
-0.0118591
-0.000160009
0.00111285
-0.0101711
-0.000404735
-0.0122756
-0.0197384
-0.00825675
-0.0014627
0.648949
-0.000890555
0.00313171
0.000309567
0.0175662
-0.0555123
0.0122179
-0.000229353
-0.000130154
0.00338132
-0.000143081
-3.87887e-05
-0.0142167
0.000886295
-3.13019e-05
-0.056907
-0.00288351
-0.0622859
-0.00209272
-8.8688e-05
-0.00395816
-0.0096753
-0.018173
-0.0272587
0.00297214
0.000664362
-0.000599129
-0.00249537
-0.000103732
0.312265
0.00199468
-2.55847e-05
0.000743647
-0.00257305
-0.000460624
-0.0697898
-0.0606001
-0.00017041
-0.00871297
1.68042e-05
-0.00333213
-9.56201e-05
0.0431895
-0.00018212
-0.00024285
-0.00446953
-3.08189e-05
0.0171035
-0.000289927
-0.0016067
0.0236229
1.51726e-05
0.433732
-0.059574
-0.0472251
-3.28484e-05
-2.72424e-05
0.00242201
-0.00150718
-0.0567518
-2.1975e-05
-3.02423e-06
0.000948713
-3.92745e-06
0.000480459
0.000570919
-0.000587705
0.00100098
-0.0585642
0.556698
-0.0382207
0.38308
0.0115256
-0.0201519
-2.39058e-05
-0.00111951
-0.0149176
0.000180961
0.000359762
0.000214065
0.0482999
-0.00171763
-0.000282066
0.574135
-0.000690354
0.000744791
0.000639591
-6.04199e-06
-0.0619474
-0.00275127
0.00144634
0.000156817
-0.000679665
-8.87279e-05
-0.00118282
-0.0496094
-0.000532244
-0.00202776
-2.0742e-06
-0.000499216
-0.00033112
0.216303
-0.000563811
-0.000351855
-0.0757938
0.00480686
-0.000110926
-0.00169076
-7.94459e-05
0.196826
-0.0793731
-0.000381871
-0.000494603
-0.00238862
-0.000203049
0.0669597
0.121499
0.0208021
0.000645228
-8.80642e-06
-1.23901e-06
0.0605238
0.00032084
-0.067281
-0.0279905
-0.019163
-0.123318
0.654918
0.00250647
0.205663
-0.0177492
-0.0339861
0.200635
-0.000455373
-0.0720703
-1.63928e-05
-0.0110474
-0.0552409
6.94394e-05
-0.0542664
-0.00120266
-0.00795712
-0.00683419
-0.0485996
-0.0481771
-0.0039714
-0.0670097
-0.0499856
-0.000238898
-0.014815
-6.76909e-05
-0.0429931
-3.59196e-05
-0.000237596
0.0191013
0.189869
-4.99097e-08
-0.0514243
0.00454038
9.60839e-05
-0.0249455
7.17175e-06
-0.0166347
-0.000332654
-0.0440468
0.000158443
-0.000112218
-0.00255754
-6.34144e-05
0.185101
-0.0354856
0.0617399
-3.97478e-05
0.000796201
-0.0376955
8.87356e-07
-0.0635541
-0.0729547
-0.0620792
0.600121
-0.00799666
-2.25378e-05
0.0322215
-0.0474612
-0.00318656
-3.32615e-05
-0.000109965
-0.0534732
0.00015983
0.00110893
-6.28579e-07
0.000200636
-0.0328053
0.0434783
-0.0656996
0.107596
-0.00660326
-1.58348e-06
0.00795757
-0.0562004
-2.68255e-05
-1.76707e-05
0.000406459
8.13483e-05
0.000514089
0.205284
0.0431779
7.11016e-05
1.35843e-05
-0.072937
0.232905
0.202445
-5.68933e-05
-0.0417217
-0.022995
-0.0126839
-0.0541566
-0.0104404
-0.0036149
0.164286
-5.36634e-05
-0.0309498
0.195141
-0.0551698
-2.31484e-05
-0.0681953
-0.000222462
0.301059
0.034337
-1.93043e-05
-3.54824e-05
0.210237
4.38999e-06
-0.000228844
-0.0142926
1.56594e-05
0.275474
0.00424864
-0.00901934
-0.0714284
-0.00465761
-0.07823
0.212886
-0.0135052
-0.0361099
0.00125445
-2.51151e-05
-0.00128032
-1.11404e-05
-2.08433e-05
0.027446
0.210432
0.174523
-0.000555028
0.287421
-0.0138698
9.31824e-06
-0.051778
-2.36256e-05
-0.0325553
0.035689
-0.01743
0.00558817
0.00236593
-0.0113356
0.000314128
-0.00207946
0.0242086
-0.00355727
-6.20278e-05
3.71924e-05
-7.85369e-05
0.0387094
6.93828e-05
-0.0262326
0.304581
-0.00738036
6.40295e-05
-0.00427477
-1.3475e-05
0.0377752
-0.000447623
-8.36e-05
-0.000107558
-1.66517e-05
0.245603
-0.000191827
0.263844
-0.0681283
0.000139758
-0.0578068
-0.000608751
0.182333
0.589755
-0.00174413
3.04087e-06
1.96902e-05
-2.68745e-05
0.144636
8.05858e-07
0.00132172
-0.0285415
0.25084
8.16084e-06
1.86532e-05
3.66718e-06
3.12436e-05
-0.0243506
2.20913e-06
0.265655
-0.0191904
-0.00015645
3.73154e-05
-0.00254459
-0.03361
1.79294e-06
-7.18748e-05
0.192742
4.23864e-05
-0.0369995
-0.0559437
0.000166304
9.89187e-07
-0.11642
1.56098e-06
0.185893
1.85965e-05
-0.00055848
1.43112e-05
-0.00021973
0.108923
3.78412e-06
-0.00202631
9.88278e-06
0.0158445
-0.00417834
-0.00781999
0.0010307
0.178938
-0.000338422
-0.000102281
-0.0107576
-0.0103948
-0.000305785
-6.80406e-05
-0.00111099
5.01834e-05
0.155499
-0.0124762
0.580264
-9.75025e-07
-0.00929079
-0.000198943
0.145758
7.13824e-05
-0.0308087
2.94354e-05
-0.00195272
-0.0385524
-0.000288772
-0.018745
-0.0557804
0.00631541
-1.22605e-05
-0.0615582
-0.000415003
-0.000370983
-0.00676287
-0.0164659
0.00161733
-6.44701e-05
-0.000543519
-0.00112293
-0.00157899
1.59981e-05
-0.00149489
0.569509
0.000122012
-0.00400288
-0.0401639
-0.0799144
-0.0699898
-0.0539376
-0.0255997
-0.000653171
-0.0185183
9.65381e-05
-0.000103273
0.569659
-0.000118787
0.187232
-0.000559977
0.000499498
-0.0014017
-0.0690039
-0.000521189
0.000793725
-1.96074e-05
-0.000489852
-2.08233e-05
-0.000100689
-0.017808
-0.000138301
-3.54675e-05
-0.000104942
0.000180145
-1.34412e-05
-0.0485168
0.218858
-1.24805e-05
-0.000746104
3.46377e-05
3.86806e-05
-0.00103295
1.12887e-05
-0.00111848
0.000353526
-0.000456792
-0.0708859
-0.000855953
-0.00224845
5.91691e-06
-0.00192538
0.00042022
-1.90709e-05
-1.23684e-05
1.67234e-05
-0.000984984
0.000673996
-0.0503063
-0.0313368
-0.0715172
0.000739058
-0.00228414
-0.0310293
-0.072001
-0.000118476
0.0190473
0.00849879
-0.00129063
-0.0141224
-0.0624268
0.5116
-0.000522566
-1.89506e-05
0.00110998
6.16078e-05
2.20481e-05
0.087914
0.00452217
0.101657
-0.041096
0.497798
-0.000647721
2.60689e-06
0.000187723
-2.30633e-05
-0.00167725
0.16866
0.255992
-6.95357e-06
-0.000212474
-2.24404e-05
0.241959
0.0209269
-0.0068493
1.4622e-05
2.41911e-05
0.00900259
-0.000861176
-0.0779073
-0.0197217
2.95862e-05
0.00435154
-0.0357287
-7.60308e-05
0.00226651
-8.542e-05
-0.0516331
-0.00214095
0.162618
2.07186e-05
0.00209913
-0.0001121
1.85252e-05
0.000214117
-0.0268436
1.82284e-05
-0.00112833
2.7908e-05
-0.0229988
-0.0512576
-0.0037423
-0.00843115
-0.0102897
0.0112791
-0.0104235
-0.00301515
8.44499e-05
0.000129657
2.53222e-05
2.21308e-05
-7.10683e-05
0.0111485
-0.0632175
0.000612681
-0.0480509
-0.00375637
-0.0552885
0.00010916
-4.00985e-06
0.00163632
-0.0903162
2.24843e-05
-0.0478915
-0.0173463
-0.0630336
-0.0481109
3.31465e-05
-0.00418831
0.000241134
-0.135275
0.153993
1.35962e-05
-0.0656979
-0.0258395
-0.00514206
4.71628e-05
-1.08014e-05
0.0304973
-0.0194708
2.95253e-05
-0.00814023
-6.86998e-06
0.000268071
0.140548
-1.05e-05
2.83361e-06
-0.000107738
4.29689e-05
0.00112613
0.000109475
-0.00631307
0.000290444
-0.0148356
0.00138126
-0.00025878
-0.0365813
-0.0482159
-0.00752077
-1.90768e-05
2.65977e-05
-0.0649653
0.00712275
-0.0531951
3.52558e-05
-0.00620398
-4.56109e-05
3.02297e-05
0.0793615
-0.0083701
-0.00337429
-2.44576e-06
-0.0207494
6.18792e-05
-0.0731675
3.32116e-05
-0.0823151
2.25558e-05
-7.48642e-06
0.000106055
0.00127627
-0.0844428
-0.0210806
-0.0754981
1.93787e-05
0.000115841
-0.083867
-0.0283954
-0.0100229
-6.08304e-06
-0.0328915
-0.0556653
-0.0841528
3.5775e-06
-9.67926e-06
4.26115e-06
-0.078621
-0.0731479
0.000903357
-0.0130308
-7.10939e-05
0.210155
0.000117212
1.72593e-05
0.000186112
-1.24414e-05
-1.06761e-05
-0.00436369
0.000139961
-0.00309472
-0.070183
-0.0153565
-0.0642612
4.88627e-05
-6.4359e-05
0.0577
-0.0544127
-0.00568771
0.127492
4.10417e-06
-1.68654e-05
-1.53595e-05
0.0891003
0.000214702
-4.74789e-06
-6.32609e-06
-0.0652079
-0.0180738
6.04807e-06
9.49708e-05
-0.0109235
-0.00764703
0.000533364
0.258282
-0.0643297
0.000213143
0.738154
-2.46887e-05
-0.000844804
-0.00999013
-0.0843418
7.40557e-06
-4.29962e-06
2.6718e-05
0.00592472
-0.0367125
-0.000417834
-0.054907
-0.00917591
3.29431e-05
-5.77145e-06
-0.0119613
-0.00438178
-0.0191798
-0.0758604
-0.0508925
-0.043855
-0.00880661
-0.0308262
-7.93151e-05
0.000438532
0.00785983
0.000664078
-0.000100322
0.000952056
3.73091e-05
-0.000116243
-0.0142012
-1.49653e-05
-3.62914e-05
0.0416666
-0.0247675
-0.000201696
-5.30278e-05
-7.12329e-06
0.282917
-0.00785934
0.000978727
-0.0321117
0.000282944
0.000245949
0.00021138
-6.12668e-05
0.00059814
-0.0427487
0.0199249
-1.13935e-05
-0.000203761
-0.0466382
-0.0358694
0.0569398
-0.000601357
0.00229384
0.0217103
1.6824e-06
7.38363e-05
-0.0521067
2.75101e-05
0.186867
9.26809e-06
0.00518153
0.000205565
0.000276796
-0.0766678
-0.00868987
-0.0207502
-0.00289701
3.28327e-05
0.00792621
0.0713969
-0.01441
-0.00016671
0.108321
0.182716
4.14705e-06
-0.0578978
-8.381e-05
-1.29973e-05
-5.58199e-05
-0.000693489
0.0239941
-8.48585e-06
0.000305981
-0.0282982
-0.0295694
-0.0254333
0.357194
2.0873e-05
-8.66317e-05
0.192373
-0.00634015
-0.00454128
-0.000798487
0.189488
5.39553e-05
-0.000385871
5.51946e-05
3.17648e-05
3.91021e-05
4.46125e-05
9.12923e-05
-0.0206394
9.47649e-06
-0.00397948
-0.0500527
0.264677
-0.000176377
-6.20913e-05
0.0058002
0.0974838
-0.0511361
-0.000919901
-0.0767394
0.354511
5.3425e-05
0.467235
-5.56147e-06
0.00411127
0.0293685
0.000537603
0.507095
-1.99666e-05
-7.54922e-06
0.00144036
3.83273e-05
-0.00105449
0.000324059
1.29995e-05
-0.00237
1.09232e-05
-0.000179436
-0.00396925
0.27601
0.0593239
0.0266509
-0.0492604
-6.36122e-06
-2.31982e-05
0.00417657
-0.060303
-1.23048e-05
-0.0523468
-6.72836e-05
0.1182
0.0717517
-0.0376393
-0.00163699
-0.0139355
-0.00119975
-0.0173232
0.00474597
-0.00872263
0.0738875
2.60419e-06
0.245607
0.0268978
-0.000714993
0.235891
-0.0156646
-1.54478e-05
2.79167e-05
8.28181e-05
-0.000259868
-0.000149804
0.2798
-0.00119454
0.286834
-0.00130349
0.187391
0.247056
0.102529
-0.00835102
-6.78786e-06
7.57594e-05
-0.0124948
-0.10745
-0.0544438
0.00185263
2.34218e-05
-0.043346
-0.000385833
4.63967e-06
0.00125349
-0.00130101
-0.000784404
0.0395233
9.35363e-05
-0.0544934
0.0672532
7.18958e-05
0.000331382
-0.0167053
-0.0643157
-0.000893188
-0.000635498
1.48485e-05
0.000308104
0.0545426
-0.019837
-0.0539175
0.00162419
0.0865885
-0.044308
4.29904e-05
2.74198e-05
0.0200225
-0.000113934
0.0743795
0.00187753
-0.0159448
-0.000471301
0.00202221
-0.0413152
-4.68022e-05
0.000606846
0.000840255
-0.0816497
0.155083
-0.0693239
-0.0311591
-0.000205464
-5.70585e-05
0.00824914
5.70333e-05
-0.0824431
-0.0731166
0.000695093
0.0041745
0.0046645
-0.095085
0.000786977
0.000234579
4.58238e-05
-0.0468673
3.50988e-05
0.000689384
0.138982
0.203779
-0.10727
0.0578576
0.0567606
0.0204313
-0.000198204
0.0141965
0.000151867
1.08652e-05
-9.24242e-05
-7.53756e-07
3.02627e-05
-0.000439191
-0.00908708
-0.0590283
-0.0115702
-0.0332725
0.0620105
0.0519613
0.00501213
-0.0703514
0.000197756
0.0057067
0.0137481
-0.000477506
0.0866562
-0.00150621
-0.012956
0.0146951
0.00675656
0.00125082
-0.00484305
0.0510175
0.00102324
-0.0230714
-0.0193452
0.605077
-0.0287974
0.0933811
0.0200178
-0.0425668
0.00272817
0.000123943
-0.00311238
6.80033e-05
-0.00318126
-0.0294696
-8.71629e-05
-5.91565e-05
0.300185
-0.00397723
-0.0478212
-0.0220612
0.000250697
-0.00173927
-2.90214e-05
9.3344e-06
0.0454077
4.95167e-05
-0.00355075
0.0871657
0.00767623
0.00138587
0.0223518
-0.00689827
0.00516566
-0.107233
0.00107521
-0.00533553
-0.0631645
-0.00104627
-0.00964564
0.000938079
0.00120103
0.00122692
0.0438758
-0.000389229
0.00694158
-0.0611374
-0.0242284
0.000385566
-0.0608249
-0.0176557
-0.0202438
0.00012899
0.00812274
-0.0748056
-0.00102543
-0.00582956
-0.0567093
0.000193955
-0.00142699
0.248511
-0.0250149
-5.10314e-05
0.0101102
-0.0567668
-0.001282
0.222073
-0.00266002
0.00125908
0.0698909
-0.00173721
0.0101608
0.146445
7.73141e-05
0.00145076
0.000218589
4.21171e-05
-0.00540694
-0.00858308
-0.000163504
-0.0282173
0.11147
-0.0429638
-0.0778312
0.00144032
-0.0039427
-0.000740292
-0.0499601
3.07658e-05
0.0202888
5.15395e-05
-0.0187565
-0.00236623
-0.0059758
-0.100041
0.129315
-0.082539
-6.64687e-05
0.212202
-0.0023611
-0.00307255
-0.0667845
-0.0864314
-0.0183914
-3.73218e-05
-0.0013651
0.0088798
-0.00372965
-0.00568397
0.000539768
0.0996821
-0.0489457
-0.0132007
-0.00799816
0.0271436
-0.00300633
-0.00128401
0.00211113
-2.91229e-05
-0.00373206
0.127273
0.000981904
-0.116409
-7.23846e-05
-0.00878131
-0.00436169
-0.0918219
-0.0136419
-0.104492
-8.03176e-05
-7.79434e-05
-0.00490644
0.012963
0.00224163
-0.1155
0.0967651
-0.0551033
0.000230018
-0.12451
9.81729e-06
-0.129877
-0.0296815
-0.149055
-0.157518
-0.164067
-0.167856
-0.162398
-0.151123
-0.134381
-0.105963
-0.0788064
0.0506619
0.0972802
0.147498
0.233465
-0.00961119
-0.0088223
0.0674984
-0.0206707
0.00111266
0.0186067
-0.0464004
0.000661369
-0.000809801
-3.54351e-06
-0.016806
0.0216713
5.47923e-05
-0.000381724
-0.0124734
-0.00692937
-0.145009
-0.0153692
-0.0632804
-8.1882e-06
0.000708485
-6.38191e-05
-0.0588247
-0.0104456
-0.041958
-0.0122771
0.00213688
0.000277268
0.00579584
-4.07469e-05
-0.0125182
-2.21664e-05
0.000455711
-0.00714257
-0.0136267
-0.000324665
0.000400424
0.0574337
-0.0122694
0.0715116
-0.137066
-0.00954803
-4.59656e-05
-0.0219832
0.00453396
-0.0252251
-0.00391621
-0.0147982
-0.0149256
0.394714
-0.0015882
8.36254e-05
-0.0069407
-0.0106067
3.85395e-06
0.0934606
-0.00487617
0.366493
-0.17231
-0.050913
-0.0310761
0.0518674
-0.0058728
-6.14445e-05
-9.44446e-06
-0.0050082
-0.063486
6.87036e-05
0.388224
-0.00331062
-0.00591722
-0.000103436
-0.000464535