/*--------------------------------*- C++ -*----------------------------------*\
  =========                 |
  \\      /  F ield         | OpenFOAM: The Open Source CFD Toolbox
   \\    /   O peration     | Website:  https://openfoam.org
    \\  /    A nd           | Version:  7
     \\/     M anipulation  |
\*---------------------------------------------------------------------------*/
FoamFile
{
    version     2.0;
    format      ascii;
    class       surfaceScalarField;
    location    "19";
    object      phi;
}
// * * * * * * * * * * * * * * * * * * * * * * * * * * * * * * * * * * * * * //

dimensions      [0 3 -1 0 0 0 0];

internalField   nonuniform List<scalar> 
11265
(
145.475
-527.31
381.835
-755.837
3.51502
752.322
425.704
-373.212
-52.4924
654.335
264.515
-918.85
1510.92
-1069.45
-441.476
1216.28
-1527.12
310.842
-35.0415
470.421
-435.38
168.816
-842.315
673.499
962.093
-1610.81
648.722
-1764.32
1670.41
93.914
-542.947
1759.23
-1140.57
1934.4
-793.83
608.106
181.213
-789.319
-25.3122
-1314.18
1339.49
220.722
-1985.04
1023.73
-382.094
-641.638
-202.972
348.447
485.655
190.649
-676.304
1155.48
-1313.2
157.716
-304.238
375.233
-70.9948
999.491
-1314.7
315.212
1221.55
799.272
-2020.82
73.2991
-1639.9
1566.6
-487.149
-1164.66
1651.81
476.716
182.032
-658.747
-190.022
-337.287
498.094
1012.83
1647.25
-1805.74
158.489
-94.4481
-1690.13
1784.57
-1558.79
651.502
907.288
-307.16
653.609
-346.448
-191.099
-124.577
315.676
1284.39
-1211.09
355.212
-1407.41
1052.2
-1754.31
1754.31
101.376
1532.37
-1633.75
-1078.7
-480.092
651.463
-686.505
-384.379
941.637
-557.258
1331.9
-1317.29
-14.6138
-1100.45
716.073
627.214
396.518
-379.854
-42.4542
422.308
-466.356
757.502
-291.146
-1618.47
1618.47
1253.58
-1437.88
184.308
-488.587
1710.14
1255.5
-313.867
1660.74
-1161.25
-499.496
81.6883
-385.927
2065.27
-1134.98
-930.295
1813.18
-165.937
455.76
156.16
-611.92
-457.097
969.359
-512.262
-1170.86
1272.24
-568.342
970.957
-402.615
401.208
754.271
661.415
-492.599
-437.87
595.329
-157.459
1190.68
-835.466
2308.2
-1080.67
-1227.53
1163.66
-2008.66
845
-1602.38
1577.06
440.698
-1581.27
-759.077
1250.7
-491.626
-672.786
365.626
1661.46
-699.37
-1106.93
-870.895
1977.82
710.331
-358.498
-351.833
689.781
565.724
-258.21
1511.79
116.107
-319.395
203.288
-284.874
761.589
-334.913
565.661
-230.748
-324.57
810.225
-318.343
-149.421
467.764
319.54
106.164
1458.08
-458.585
-981.896
472.15
509.746
279.77
89.5995
-369.369
949.554
-341.448
-1705.05
632.144
1072.91
11.9286
-855.292
843.363
-281.146
596.143
-314.998
157.158
-1093.89
936.732
1051.51
-1067.08
15.5691
373.054
518.774
-891.829
-245.469
701.229
-1103.71
-482.17
1585.88
-678.099
950.973
-272.874
1355.9
-1450.35
-614.188
234.008
380.181
-470.195
-1011.55
1481.75
-539.05
-793.457
1332.51
576.224
-996.376
420.152
-265.586
-317.021
582.607
407.578
-291.471
-1035.91
578.812
955.449
-798.291
-110.339
943.968
-833.629
-210.613
419.319
-208.706
-641.588
-340.307
-386.741
962.965
1856.37
-1856.37
-494.03
-120.158
-955.274
1569.44
-614.162
460.901
-894.982
434.082
-923.781
355.439
-941.909
-1058.08
-1487.76
342.752
1145.01
-277.384
931.72
-307.013
607.529
-300.516
-1941.9
999.994
-1139.4
-348.363
558.025
-1513.3
1728.53
-1725.65
-2.88109
196.634
-582.997
386.363
-1466.26
980.065
486.196
288.484
212.594
-501.079
310.374
-645.287
242.725
-419.09
176.365
2019.39
-859.806
-1159.58
-536.832
156.978
616.892
834.858
-1451.75
-184.364
427.088
431.29
876.794
-1308.08
-908.19
393.678
514.513
-1046.04
1447.25
-1068.7
309.625
752.218
-98.6093
526.856
-321.746
-205.109
1006.41
-534.262
593.342
-1403.88
810.539
-1342.3
238.596
-547.277
266.131
-1200.07
922.682
1940.39
-995.759
-944.632
276.802
1579.57
-2094.34
894.909
1199.43
365.956
-31.1609
-334.795
-223.941
482.637
-258.697
-112.592
-376.15
488.742
-467.392
149.049
341.72
-131.509
592.41
412.782
383.609
-796.391
-2042.84
1121.25
921.591
461.183
-532.584
71.4005
222.302
-364.042
141.739
998.408
1020.98
1785.3
-252.927
700.712
-466.704
796.787
-1389.8
593.017
333.383
376.948
1053.62
-1041.69
-490.167
-258.329
748.495
478.876
-137.031
-341.844
797.397
-616.184
543.116
-733.34
190.223
503.331
1157.41
-1239.98
700.93
1040.02
-1527.17
-3.13021
-1439.43
1442.56
325.515
824.721
-1150.24
623.174
269.962
-893.135
-2272.29
1156
1116.29
-1112.18
-1160.11
173.526
369.59
958.706
-633.19
879.083
-898.819
19.7363
-2099.38
992.454
-225.838
-189.935
415.773
-41.757
1770.29
-821.438
65.6011
-1027.99
-1066.35
-229.766
452.068
-651.506
157.476
-268.895
-454.619
723.513
1104.02
-1574.22
782.987
-1374.47
591.479
707.414
-442.899
1947.86
-1444.53
-378.285
-1376.02
60.5324
409.889
-521.98
525.495
9.8919
-562.939
553.047
569.896
-281.412
-605.048
279.886
325.162
777.902
-365.12
33.9035
332.053
1188.47
-1191.6
179.055
228.523
425.932
-694.827
619.592
-1006.33
-2026.72
2026.72
-265.06
-464.943
730.003
699.195
405.872
-1105.07
579.626
172.592
398.66
379.241
-2199.75
1328.86
-926.603
-679.013
1605.62
-486.306
-713.761
-277.738
581.041
-303.303
841.866
-219.378
-622.487
-433.821
630.455
366.295
-673.307
-349.363
-116.021
465.384
-1331.11
-474.621
643.574
-1129.88
-374.148
-1244.32
844.333
1463.86
303.539
-910.801
607.263
966.591
-339.377
1391.41
-798.069
445.114
-266.059
-328.564
-886.605
587.909
298.696
-351.699
-534.906
306.039
-418.631
-185.391
-159.001
344.391
-392.768
1091.96
435.107
-244.458
-394.976
1351.04
-166.151
-1184.89
-457.592
264.669
192.923
240.334
277.679
-518.013
-4.86057
-728.479
592.106
-1729.02
1136.91
1482.02
-865.129
-1053.64
-412.621
-1057.24
573.488
483.757
1385.83
-405.765
929.254
-1411.42
-175.491
-179.783
355.273
-469.26
580.865
-1626.91
427.939
903.963
282.727
342.216
-624.942
568.062
1186.25
1104.11
-714.743
-389.363
406.917
-219.56
-187.357
-1419.46
445.342
738.206
-1183.55
1473.37
-544.116
-506.989
950.644
-443.655
426.149
1186.16
-1612.3
47.3723
-725.471
-144.724
424.494
193.045
-384.143
542.528
463.884
-589.488
37.5318
551.956
1024.53
-1307.66
283.132
661.564
-262.903
468.28
-1447.25
978.968
393.135
1686.6
-522.935
887.131
1053.26
-661.694
-1684.6
757.995
560.643
397.397
-958.039
454.187
78.8001
1749.98
-1828.78
1443.73
-379.49
-1064.23
1699.15
-1740.9
-367.464
-513.538
714.007
-200.469
-502.592
184.952
293.923
-373.202
-1225.99
214.438
-764.616
-639.265
-627.514
995.221
-367.708
-653.158
643.136
10.0217
655.009
-923.654
268.646
-703.031
347.301
355.73
-648.548
-716.594
359.009
357.585
-932.301
1400.58
-414.455
884.818
-470.363
-2205.31
5.5577
181.374
-536.869
355.495
139.324
1211.72
-62.1787
-589.327
159.821
-597.691
1487.17
-704.181
372.659
-462.956
90.2969
-565.074
565.074
1223.03
395.434
1777.95
-1228.82
589.286
639.538
849.5
-52.103
1291.61
773.667
-540.199
1336.99
294.674
301.469
274.449
-787.988
207.889
-674.245
231.301
-444.673
213.371
-259.757
596.405
-336.649
112.093
-371.849
-591.862
-564.606
1156.47
-402.6
523.057
-120.457
-1192.16
2032.04
-839.886
1289.74
-331.039
-401.898
136.313
-1984.72
820.056
1538.8
-855.202
-683.594
1986.97
-877.436
-1109.53
713.664
576.081
-240.823
472.125
-687.726
1159.52
-471.796
-770.012
1201.3
551.618
924.657
-1725.09
800.43
-580.189
-45.0533
625.243
264.576
262.28
418.521
-87.1314
-331.39
896.763
-83.4885
-813.274
908.144
-563.949
-344.195
1576.2
-472.175
889.247
-1626.5
737.249
1068.47
879.389
749.534
-443.839
-305.694
-1059
-258.291
560.53
578.073
-1138.6
-504.36
486.225
18.135
577.804
-345.804
-232
-982.502
568.047
595.6
886.421
-441.824
1096.83
1410.84
-778.355
-632.487
396.72
-924.986
528.266
-1025.96
384.375
556.936
-1063.93
412.799
-493.606
80.8065
442.974
314.528
-516.355
-48.7193
-794.332
-878.267
1672.6
195.172
211.745
-237.729
411.256
-1.68221
-559.736
561.418
495.309
865
-1360.31
-497.554
312.164
985.71
-88.9467
836.253
-1064.86
228.604
409.566
846.233
-1386.43
-445.449
829.058
1977.97
-1284.35
-693.617
269.98
609.103
255.837
795.673
84.5354
-973.674
889.138
1673.74
-1089.04
-584.701
-137.855
1887.84
-1866.06
-160.656
483.351
-621.531
138.18
-1014.25
526.632
487.618
-1730.47
538.318
-955.812
845.474
392.291
203.039
574.985
-271.446
-421.972
711.114
255.477
45.8782
721.139
-767.017
-1140.19
-887.823
2028.02
-552.017
1106.52
-554.508
-464.779
-334.191
108.353
-1654.72
860.388
-852.482
-615.103
1467.59
-331.402
-295.14
626.541
358.866
-669.524
310.658
237.997
-603.117
302.771
204.76
-507.531
356.503
-634.241
642.472
-283.606
315.103
-464.524
683.503
444.114
-203.781
-413.762
-302.832
1220.17
-1.204
-1218.96
1039.73
-420.138
560.207
410.75
-1782.36
869.822
912.537
490.945
547.375
-1038.32
-535.007
203.605
-263.019
1180.92
-917.897
-1590.87
1212.59
504.669
-1096.53
386.127
-13.4681
459.436
291.011
-750.447
372.576
-618.045
-31.7429
756.016
-724.273
-525.858
795.819
386.164
322.295
527.205
653.793
97.8849
-440.335
342.45
1058.81
-645.112
-413.696
494.02
-1664.27
1170.25
-1140.41
1753.24
-612.829
1715.83
-1123.72
-334.886
614.772
-1189.45
1273.98
425.115
-795.917
1602.55
-806.635
-241.69
-215.901
-905.883
1470.11
1812.61
-611.208
-1201.4
-405.007
676.711
-1304.23
-124.735
-65.781
484.302
-686.943
-354.177
-1236.7
-222.046
460.042
903.503
-558.84
182.69
-1674.61
-71.2092
1745.82
-1069.51
517.489
568.843
-1181.67
612.83
901.074
911.537
630.718
619.986
695.981
254.664
-1151.59
463.866
-399.655
409.547
621.004
-515.16
247.416
-731.914
484.498
716.231
-382.849
-306.791
182.214
-584.851
239.172
345.679
-887.746
-738.75
1087.67
-2145.75
399.328
-684.202
-342.909
-724.17
831.871
578.971
-344.115
301.661
402.898
242.477
632.1
-874.577
541.182
618.341
-505.602
156.239
375.891
-640.951
-1055.37
-840.415
1895.78
-1796.98
157.077
1107.11
-1370.13
1174.45
-721.719
-452.731
-503.685
1349.92
-1495.52
627.889
867.634
-286.888
-210.374
497.261
1428.4
558.563
324.698
-440.72
-484.479
-566.47
1050.95
-417.752
599.126
1582.4
-1129.33
-453.064
-802.712
337.769
654.825
403.982
-1623.42
416.166
1207.26
-194.698
497.469
797.812
784.585
174.468
-678.037
503.569
207.593
211.726
-292.632
-109.525
402.157
469.897
51.8133
-521.71
-1644.74
591.098
-1609.58
1675.69
-66.1029
11.0747
-1620.66
1069.58
779.541
-320.105
-823.125
-202.838
-1134.57
-239.895
-312.21
684.786
-1812.47
-628.348
1206.42
211.552
757.807
-1330.11
-678.554
-465.51
647.884
-365.158
-1013.28
1350.77
-1932.87
582.1
646.305
1288.1
485.546
-2.90899
716.272
704.903
-1421.17
-639.45
337.385
302.066
440.1
-100.219
-339.881
151.068
279.316
162.604
-441.92
-583.792
1144.43
460.689
-624.816
-461.759
-401.938
863.697
-324.902
149.411
-458.488
167.017
-305.129
-709.121
547.77
-107.67
-570.694
967.414
578.238
-269.512
-308.726
455.748
-780.318
-644.091
441.291
-1129.41
-838.063
1180.82
-569.77
448.2
300.295
-478.188
119.69
1028.94
-316.102
592.792
-276.69
-509.041
1578.62
-706.646
260.64
371.562
-632.202
199.352
523.403
-18.5105
-504.893
-253.336
-205.152
1004.24
1108.92
564.815
-872.991
935.021
-62.0306
-455.516
168.629
-762.307
307.688
-594.348
363.702
352.529
831.691
-1250.6
418.905
777.545
-809.288
-948.942
-550.383
1499.32
-163.959
506.175
-523.224
201.478
1308.86
770.496
-596.028
1332.16
-688.587
487.796
-663.406
-408.884
-423.413
-378.693
802.106
502.743
-844.191
-474.345
72.4301
401.915
-323.793
572.424
729.377
-330.048
-245.444
-175.658
421.102
-488.896
145.418
343.478
1458.02
81.0301
-1539.05
-751.211
1346.81
-1144.76
-466.053
559.824
-188.262
1150.58
-373.032
1083.49
492.708
690.042
-415.593
-885.055
-522.359
-1328.43
-26.4166
985.006
-958.589
612.2
343.132
-955.332
-316.964
-219.868
-682.601
405.523
1621.2
-190.511
365.809
347.467
-713.277
-1839.78
-2106.68
1519.14
587.542
-2039.17
349.045
374.36
547.276
-921.636
-460.303
1020.51
-404.934
-682.415
1087.35
-2030.53
1391.21
639.325
609.37
-1014.3
26.7384
386.061
386.812
199.452
245.662
359.444
983.73
890.409
680.518
-325.972
-354.546
-294.112
622.262
-328.151
573.674
530.433
565.307
514.872
-1080.18
-796.207
-699.316
752.553
398.025
-417.361
728.019
-1193.41
1609.58
428.362
-1110.78
-320.858
525.618
-1388.54
890.824
497.714
-723.231
-354.969
-773.872
336.349
437.522
447.111
718.284
-1165.39
1069.09
-578.149
-400.89
647.86
-246.97
253.808
324.43
-468.218
-432.182
900.401
-237.307
566.586
-950.45
383.864
-460.022
600.599
-1681.27
423.793
670.998
-1094.79
517.124
90.4049
113.408
-2212.79
555.649
-107.448
1444.12
1777.09
-217.552
-1559.54
-438.445
1789.21
-1986.99
1194.48
792.509
403.609
345.924
-38.9295
870.801
-1283.36
718.758
-870.156
-822.81
796.394
308.133
52.0583
-360.192
228.444
183.397
-411.841
1553.18
-836.912
-1530.94
-325.432
454.682
-198.649
-256.033
394.804
366.786
242.127
405.758
-9.1015
1001.75
-992.65
415.693
275.21
-690.903
-734.068
1817.32
-1083.25
-342.987
737.791
-1219.7
-414.05
-915.766
483.584
598.853
-808.219
209.367
762.03
-380.722
-381.308
-432.873
-440.117
450.708
1098.12
1237.08
-668.238
801.457
-345.709
405.804
324.198
-251.632
-211.324
-229.84
622.974
408.127
-848.028
439.9
239.257
363.334
-602.591
-422.764
830.891
754.543
-1147.31
897.06
-65.3689
-488.534
272.357
781.26
-95.8662
1383.96
1890.5
-70.8378
335.507
-345.926
443.811
-1086.18
1077.07
657.82
376.522
385.508
63.8588
390.824
257.032
495.291
-370.987
-268.463
-563.561
-89.5964
-355.376
366.95
-11.5743
-258.206
-289.07
1011.02
-1540.72
529.696
-180.049
-193.162
-419.547
694.757
-1633.98
1591.03
-963.144
281.643
-690.528
584.317
1224.42
-1808.74
607.416
983.617
303.967
-1119.22
697.243
-315.97
-308.972
1378.66
-1445.3
827.243
618.061
424.436
-611.88
187.443
-353.371
461.095
-107.725
399.545
70.3522
1723.93
460.709
-253.116
557.632
-1704.79
1147.16
-93.6923
408.341
343.252
337.266
-448.581
-615.644
1064.22
416.267
-861.716
-641.064
902.901
570.469
-475.753
-227.278
-438.937
-409.091
-307.299
-827.272
1821.11
-1821.11
-103.775
-1594.87
1698.65
293.133
284.671
-917.232
-555.373
1472.61
-408.239
973.546
-601.968
-1042.77
704.394
382.707
-1087.1
478.104
-163
573.063
1220.35
-1793.41
-1044.9
2114.94
-1070.05
-374.837
-297.949
-505.14
842.909
-1752.05
1601.25
150.804
1752.05
-1605.84
-146.213
-246.123
525.155
-279.032
-537.289
1620.78
1567.05
-1981.1
1088.77
-334.483
-223.311
557.794
233.119
-553.978
-722.576
305.215
1341.57
636.397
579.873
483.815
-1063.69
277.539
412.503
875.404
500.111
-1375.52
533.119
-1017.6
1574.96
-563.939
-786.731
-379.007
-142.864
521.87
-490.044
1208.33
-740.402
333.287
367.942
357.316
247.277
-604.594
590.436
831.93
-603.326
256.881
678.14
-475.753
-368.37
-200.529
568.899
1168.54
-686.799
610.142
465.863
-1076
-1285.74
1285.74
-386.389
762.912
-284.696
-475.803
760.498
487.55
443.798
-931.348
389.289
-673.984
611.079
-868.601
257.522
-367.413
-494.368
1074.24
-661.557
-710.178
1371.74
-366.577
933.163
-1552.71
675.272
-3.33519
-363.071
366.407
-542.066
699.542
276.666
319.74
170.965
307.139
-557.883
241.913
1869.57
-1965.44
254.207
-688.028
447.452
-819.857
372.405
-914.203
1425.85
-511.649
-429.942
-485.824
600.738
1124.2
-1724.93
-715.698
340.862
-460.832
1034.51
-783.122
1040
-379.156
-628.998
-503.929
711.818
540.267
-358.236
903.817
-299.185
-189.711
1599.02
-1816.57
-334.675
-615.776
-331.231
476.649
264.971
-630.129
-160.415
1064.64
-792.286
208.654
-314.764
-276.218
590.982
388.972
-874.819
485.847
-486.946
-448.924
-910.801
-348.466
540.093
-191.627
-436.388
-421.693
-320.22
-187.311
-383.69
630.968
-466.485
790.683
-1072.78
624.197
-1408.99
556.507
-28.0331
-1835.67
1863.7
569.937
-449.7
1219.98
-702.49
291.422
-291.422
670.95
-435.738
1044.04
-1646.01
-1158.73
-947.95
292.774
329.488
888.233
714.318
-501.174
-287.89
789.064
1657.72
-1685.76
-434.355
348.378
221.518
1135.12
-524.976
-943.334
1550.48
-607.144
444.695
-245.243
383.033
404.633
-787.666
530.767
469.701
-1000.47
-331.91
665.197
-37.888
1907.46
1602.07
992.812
-1696.99
727.075
-1177.1
450.023
-492.475
1367.88
837.651
-1341.34
-576.314
241.83
795.877
-398.48
551.785
-1187.97
636.181
-638.182
-1215.54
-695.657
1911.19
-187.269
526.994
-339.726
-120.326
286.366
-473.635
327.414
370.925
-698.339
-1483.45
756.486
726.968
884.078
-1434.46
825.411
-431.733
219.726
-364.451
-605.533
237.162
-663.703
-724.834
698.71
506.248
-1204.96
393.646
-204.58
-189.067
555.989
-958.604
-569.067
-450.598
758.286
-831.298
-1155.7
-1437.97
499.656
938.315
31.8299
-646.137
308.221
337.915
-1313.79
1045.18
268.611
-616.571
-456.207
-665.854
921.691
401.818
-203.785
-198.033
508.229
980.642
-1488.87
974.565
-562.8
166.666
396.134
-425.186
660.758
-406.552
-504.759
173.528
234.334
-1518.68
528.691
540.403
-754.097
212.031
155.619
-454.804
366.991
-815.915
1954.16
-1195.39
-758.771
441.407
-669.496
228.089
323.91
319.347
123.238
-442.584
-568.619
194.94
265.77
-691.735
1374.35
-682.614
424.086
472.638
-1195.87
266.948
1866.78
-1013.59
-853.186
784.852
-500.802
152.336
1402.37
-975.18
-427.188
331.347
-767.085
-616.518
1725.44
611.182
625.898
317.798
-9.66412
259.868
-1138.42
1725.72
-587.296
-1763.53
820.193
1760.38
-1690.8
-69.5812
-653.557
253.902
598.266
-705.192
201.263
1402.73
-565.076
388.442
440.616
-1858.59
1420.14
517.125
-444.01
-73.1149
202.54
-522.761
-317.487
-147.291
-352.876
696.128
-614.313
235.306
609.912
549.811
-1159.72
1113.64
-1947.48
833.846
146.553
318.831
-1699.07
1661.18
312.053
-727.646
-164.287
384.014
755.277
678.812
-1434.09
1078.68
-1079.88
524.603
-1102.75
-631.028
253.52
377.508
511.973
-272.801
-613.474
-1032.54
291.145
-712.837
-912.32
173.624
165.701
227.946
384.744
288.146
-672.89
-629.888
-834.023
-978.444
488.486
-1057.1
-277.602
470.524
532.942
647.873
-279.67
-122.228
-439.923
743.889
264.169
-1198.45
568.558
1308.46
-553.187
438.897
-1007.96
-387.34
119.56
397.565
1023.35
551.61
-1718.98
1615.2
1640.27
-576.219
-1064.05
1903.52
-1892.06
-11.4626
223.73
-569.656
-336.454
545.108
-768.98
-316.655
-336.902
1026.79
699.512
-1508.3
808.787
314.227
-26.1892
1625.21
-1092.3
405.496
-1254.05
467.319
-60.5597
1518.58
1197.42
-470.341
-488.545
-74.2549
-232.838
736.026
-1951.56
-710.77
347.277
-531.452
184.175
191.326
-507.428
1139.92
671.562
-1811.48
-581.658
137.648
941.998
-1497.37
-210.509
678.888
-468.379
880.817
1119.18
-738.042
1349.22
628.753
-534.332
-94.421
-344.99
1172.23
1049.7
-1981.15
931.452
-1171.22
542.874
1488.8
-585.9
-379.49
-126.112
-1241.1
572.863
1166.27
-93.3596
946.097
775.58
-1721.68
-211.563
578.53
-1541.75
963.224
487
916.634
-1403.63
619.918
586.503
383.485
-1106.64
591.033
1106.08
1215.81
-452.316
-763.491
-1186.2
-1754.94
-6.57137
-1712.41
-179.563
-432.317
1607.36
-628.76
-978.604
-490.861
1121.58
-1317.68
636.019
681.662
-1361.75
1442.78
-1330.14
592.101
1520.53
-401.896
-543.573
164.083
-1490.42
228.71
176.38
199.365
429.388
456.991
391.969
-848.96
506.356
-939.019
900.746
-1444.86
-688.473
212.403
476.071
-1040
456.206
-473.029
861.471
694.868
30.751
-503.305
163.579
-886.566
-1318.74
-715.857
349.997
365.86
404.144
-723.391
319.247
-479.375
-189.387
-709.433
719.618
1539.66
-593.562
816.027
737.157
1344.79
-844.675
-971.286
-570.467
-797.527
428.112
369.415
-1036.71
-643.193
304.455
338.738
-1433.69
-296.781
-790.993
398.248
392.745
-638.613
407.349
231.264
-664.991
258.439
412.797
487.604
389.946
440.946
479.032
384.665
596.641
-969.843
679.095
465.339
453.593
356.498
-810.091
1630.76
-1079.89
-550.872
-504.559
-286.18
-1027.61
454.246
347.86
409.692
594.121
-1003.81
-1380.73
751.969
-532.986
1145.82
344.888
-65.5719
412.291
-865.732
453.441
-1898.31
303.436
441.459
-726.447
284.988
-186.258
405.511
-219.252
-662.084
307.998
354.086
-674.822
320.277
371.011
391.901
612.75
-1020.99
753.173
661.934
-1415.11
438.807
625.417
339.636
392.935
-732.57
409.307
328.484
615.553
691.956
406.162
602.023
-1021.21
419.183
-1677.92
1183.68
494.242
1696.59
-539.176
621
-1147.4
526.399
-642.959
347.82
437.405
-935.349
497.944
767.705
-476.694
351.217
344.911
578.065
-912.74
651.441
-1253.26
601.821
385.268
734.74
-1224.78
769.54
509.603
-1279.14
485.952
400.157
-886.109
-501.672
-936.299
-302.114
629.528
352.63
541.866
-894.495
332.985
332.213
-502.182
1944.74
437.051
-847.212
410.161
-917.827
-807.26
-749.097
367.789
-1215.36
432.236
-1734.14
1605.84
128.3
1746.31
-1601.25
-145.065
-784.646
-593.834
266.305
327.529
-1760.38
1981.1
538.544
791.548
-1330.09
440.124
716.344
690.307
385.639
-1075.95
-52.7323
1617.15
-593.799
377.662
842.317
-649.783
326.535
323.248
-378.591
-297.769
551.577
-222.755
435.349
280.934
-666.883
385.949
265.253
-580.251
-283.014
442.589
-1033.6
591.007
538.048
1092.71
366.063
596.902
311.678
352.387
-664.065
1626.56
-927.052
1691.92
-1520.56
-171.361
-328.58
-823.617
414.526
857.499
-1068.01
-607.892
279.742
-1090.59
1628.64
-1589.94
-77.9924
1667.93
-341.587
-350.419
-370.367
537.189
597.929
-503.317
-29.2669
-549.94
507.64
-283.96
-223.68
1751.61
-1300.9
-625.768
299.444
326.324
401.035
357.298
734.665
-296.279
-399.1
-1746.31
1685.76
459.592
-1101.03
641.435
-43.1728
1658.38
571.277
476.417
-1047.69
104.247
1144.84
-1452.14
-13.3693
-1884.94
228.608
-599.427
307.706
291.721
-955.436
612.527
-898.551
468.609
-1128.64
673.509
455.13
376.425
256.603
-757.777
-334.153
1217.17
886.776
699.102
-1182.98
456.163
726.812
494.397
700.817
-1195.21
-388.216
-248.105
413.806
-960.855
438.603
522.253
21.2486
-1879.83
1079.9
-468.825
-494.725
558.193
-1378.26
820.063
-424.294
796.699
-405.485
499.001
-714.262
1718.5
414.138
-186.192
216.035
-171.787
-246.308
418.094
1895.32
-504.115
-1693.58
1051.56
-601.983
304.214
-1013.95
553.646
-313.303
544.312
905.283
-1449.59
-1103.82
437.968
-20.7941
-1944.64
1714.29
-664.595
-540.505
460.755
-1190.56
729.804
190.574
211.244
-281.841
769.675
700.437
838.258
818.316
-461.818
1085.01
-486.505
479.874
-194.324
-285.551
-1923.16
-714.116
-318.493
-643.259
-6.64342
649.903
468.307
-273.367
563.817
1062.75
-804.642
925.009
1244.34
-425.369
-172.159
-245.497
417.656
955.104
-888.515
-321.372
-1067.98
611.778
1556.93
-800.445
537.673
934.933
-390.646
734.653
-344.008
1130.43
-276.174
365.899
1349.74
-704.817
-220.169
448.31
-1198.67
750.361
-987.056
-133.527
1120.58
441.908
-955.884
513.976
152.083
732.512
483.296
743.981
-111.881
853.237
-425.831
1182.55
-796.911
552.153
-1465.5
913.345
-1216.65
1800.97
-431.711
-1510.19
879.658
-1402.02
-303.191
-447.256
1457.25
-1523.51
784.763
1491.49
202.762
277.112
-349.14
-1734.14
-288.563
-1013.56
1577.37
-1768.31
1768.31
1567.05
-1004.51
-634.59
-331.567
368.434
605.111
-408.974
-357.924
-1389.84
897.37
1125.14
600.579
1202.77
1789.48
-1216.42
-611.943
273.983
1659.01
-1916.48
257.472
814.523
-1267.59
1545.24
-561.626
777.433
329.092
-342.349
554.858
795.06
656.941
1371.08
-250.979
-445.11
-351.437
497.363
-341.204
471.8
736.528
-290.276
-152.309
-326.264
565.049
-238.785
27.0624
-372.867
1107.45
-1720.28
-448.372
-484.568
-563.571
863.549
693.382
-1596.51
904.778
-451.765
-621.411
-513.936
1252.14
340.085
1723.7
-1702.46
-1657.72
1892.06
-1560.82
840.267
720.552
-381.242
-1795.98
917.715
583.196
819.532
-388.868
1794.32
-680.682
-445.875
695.132
424.607
-1119.74
-1099.46
444.128
753.288
-1617.18
473.21
901.139
178.066
-404.075
226.009
-1599.87
-385.174
-457.465
990.283
-672.542
1442.96
-973.953
1854.77
242.351
-550.7
498.409
-295.647
474.325
893.555
543.13
977.397
-462.911
-427.978
573.981
883.264
-1392.7
-40.9897
1572.84
-835.685
519.956
971.538
-1475.85
-1115.9
1776.03
-1243.53
-532.505
1206.15
-319.038
-887.116
-193.029
456.316
-263.287
-457.444
-250.908
432.988
-182.08
147.626
-395.731
1733.97
-1740.54
-455.031
-530.855
-903.605
446.145
-207.809
-238.336
634.926
-477.103
-396
-305.987
701.987
-945.235
410.329
-1167.31
676.447
420.417
-635.12
-440.932
1575.51
-861.19
530.187
-457.959
-570.963
-462.633
364.62
-354.324
-10.2956
-1107.87
405.378
-664.765
-1033.66
1698.43
-601.1
-1423.47
713.29
562.205
-1596.27
1034.06
-391.237
-482.451
144.341
551.639
-1258.5
744.567
539.232
1006.01
-2133.18
999.988
1133.19
-349.137
412.484
-387.345
-25.1385
1478.06
-366.134
449.547
1189.14
582.234
906.567
567.801
527.524
-1095.32
167.498
-436.502
-1690.8
253.982
1127.57
-614.267
518.499
1013.75
-1532.25
1092.85
-1643.72
199.71
697.35
545.216
-866.588
-1086.49
-172.098
429.661
-257.564
-587.001
-424.691
-636.858
-628.428
346.587
-1618.79
939.781
-476.83
215.918
-402.11
536.189
-307.581
-607.807
1197.2
-1288.36
935.384
352.975
-1026.05
-356.751
-757.28
-824.875
1688.42
-476.978
1795.36
-1585.11
-210.249
-1556.64
1018.72
537.915
-725.58
-260.76
443.727
-182.967
-591.766
383.829
274.984
-658.813
-523.967
985.887
631.16
-351.419
-1620.28
1050.51
571.772
1103.54
-1675.31
-408.721
-293.684
-368.401
-744.71
-487.211
-331.033
501.998
1558
-995.795
-775.234
1497.47
660.867
-312.489
725.882
1152.36
-1878.25
273.784
298.756
-487.204
-1932.2
1719.86
212.338
739.287
-474.707
-264.58
531.835
1060.83
-1592.66
364.62
-1725.78
-233.21
1752.35
-1580.69
1073.77
506.919
-1726.91
1.13235
-521.705
412.484
1699.07
-1719.86
939.701
624.562
-1564.26
383.933
-219.67
-164.263
-412.547
-252.444
68.4538
95.0548
-355.815
-431.19
-437.411
-408.314
222.056
1510.24
378.882
-195.837
-442.776
464.053
-198.283
318.363
1510.77
989.278
-169.222
-820.056
-1104.1
1704.84
-1728.8
1064.03
-707.182
-1021.61
-1265.08
1844.99
-579.904
1155.07
-1771.16
616.087
271.629
-878.157
1675.72
43.4461
-1719.17
-491.168
-1083.05
-1733.97
-982.243
554.266
1019.6
590.23
1133.03
-1723.26
278.32
-466.582
704.6
-384.323
381.855
924.895
680.721
-372.356
-648.85
582.898
1072.55
-1655.45
-399.7
-369.599
769.299
394.23
-1661.18
1520.56
140.622
583.51
-1044.34
544.749
1083.89
-1555.68
994.056
-238.737
231.174
313.933
1903.52
413.981
-71.0235
995.859
722.752
-1718.61
-697.288
1085.34
-1557.52
167.186
-571.493
198.208
265.845
-662.345
-553.013
582.516
1034.63
-711.145
-251.412
-1368.67
675.742
692.923
-416.516
749.277
88.8581
-838.135
561.752
-137.158
1557.3
-217.74
265.086
-771.544
-1932.2
1664.62
1027.35
347.301
288.043
479.662
-930.099
-993.065
-1767.27
637.349
1693.77
509.21
-474.331
1210.86
1087.14
-424.958
1030.07
-978.747
493.149
485.597
700.247
1047.95
-1748.2
485.368
482.046
-1494
-747.021
32.2781
780.781
-412.991
-880.857
386.132
-538.893
-802.442
607.263
-577.324
1397.39
1055.15
194.886
234.776
-550.625
1618.52
-772.648
1525.82
-1727.84
575.257
1152.58
544.089
-883.465
-1732.78
1916.48
-183.697
1721.74
182.949
-543.945
368.2
-273.145
-481.433
1211.24
568.271
1128.32
-491.295
430.787
858.611
-462.093
-772.311
424.833
347.478
1418.87
1089.61
-518.21
1422.99
-510.626
-533.394
1044.02
-602.76
495.557
-1217.28
1691.92
1839.58
-687.213
1585.7
-646
-1241.36
717.391
-562.501
203.123
-393.058
455.847
-244.121
-520.002
-1246.71
1870.94
-624.235
1173.48
-552.477
1120.28
-1659.46
1694.9
-573.942
-545.578
-549.82
1720.07
-317.096
-688.048
-473.326
1223.69
-1684.11
-1860.1
613.397
326.71
-949.197
169.701
214.45
-1719.03
1204.15
514.876
1162.85
558.889
-511.682
-465.392
1192.2
178.285
227.226
588.445
1251.13
-539.177
-1238.58
1777.76
-1025.4
999.989
866.788
-204.114
-1659.01
1702.46
-510.088
1411.23
-1732.78
-344.428
-1.03057
345.458
-264.817
585.24
-320.423
96.3459
491.563
781.711
-377.568
1257.53
1270.86
-413.361
852.508
-437.982
1817.46
-662.389
1586.55
-1723.7
-412.792
-755.936
332.473
423.463
-559.793
-563.319
79.7352
-1138.73
-985.492
-669.751
1655.24
-943.706
-1189.47
205.461
-428.771
-648.342
705.636
1167.45
650.012
1410.34
-590.809
1636.74
1318.12
-573.555
-493.832
198.185
-503.286
1396.84
1240.17
-564.432
-999.987
893.383
54.7131
-948.096
603.439
-506.142
1403.51
1495.08
-588.514
-367.499
367.499
-589.439
1623.5
1239.53
-486.238
1134.15
-67.4349
1852.01
-395.218
1489.49
-588.742
-507.681
1347.95
-652.642
1218.68
-566.037
1554.81
-591.591
753.771
570.314
-1324.09
-667.689
261.207
509.289
600.21
-1957.3
-988.132
1586.55
370.105
-370.105
-70.3501
388.552
436.859
344.491
55.0536
-319.998
920.626
-535.357
-426.107
814.659
-244
621.508
-429.612
1550.86
-444.343
-884.089
188.156
226.788
-414.944
601.169
1250.77
-1851.94
927.337
-458.728
-354.324
126.151
-1943.02
1816.87
-451.345
185.286
1181.26
-440.464
-740.797
-301.117
-579.739
-492.494
-387.345
-481.507
257.827
1158.4
-560.468
230.501
-383.044
152.543
-22.7254
-107.678
1376.02
-1268.35
34.5754
-598.137
-586.403
-452.453
452.453
-1262.35
1985.11
-1344.38
-207.968
-1824.83
239.712
-1025.75
-974.243
-186.693
-1637.79
707.69
1229.32
-1924.98
369.909
312.089
-681.998
-1850.01
1234.27
615.743
-561.56
561.56
-959.175
-39.9698
-1866.06
-558.148
1650.86
-677.299
1636.18
-601.548
-178.87
-1706.07
-585.587
-467.893
-594.805
-466.538
466.538
-1537.81
194.526
1343.28
174.16
226.231
-400.391
500.481
488.798
997.245
-474.992
1751.3
768.201
-423.21
398.072
520.836
1702.06
-594.608
-552.967
1636.86
472.191
1812.75
-645.301
-1803.99
-1938.08
-646.963
-478.813
478.813
-572.545
221.108
-702.372
1019.6
-465.952
-1072.3
-284.328
1579.57
1852.3
1635.34
-1635.34
-291.977
738.597
1761.49
595.788
1275.15
174.271
209.661
587.764
595.762
1603.51
-1603.51
222.886
-353.482
-434.658
460.73
951.681
-458.532
-639.661
-1131.01
1706.26
280.741
-1658.87
616.098
-289.295
472.244
1744.65
-592.067
-215.967
-441.002
378.708
727.373
1738.57
-613.432
-511.768
-781.412
1960.54
-870.454
-1090.08
1642.78
-705.78
1223.97
-1824.95
600.974
351.775
-902.475
-185.796
-105.747
1098.37
-486.59
123.601
624.592
-1657.13
437.177
594.792
-1803.99
-583.278
1787.43
884.231
-1162.92
1760.49
-597.572
1783.83
-575.53
-1208.3
432.196
929.952
-1740.54
924.746
-1487.89
252.986
1234.9
-830.89
-1254.23
-379.979
75.7823
304.196
581.727
270.09
1026.58
-444.573
846.821
-402.248
821.107
738.721
-1559.83
643.839
1066.3
-24.1992
-663.198
687.397
-1744.33
722.718
700.189
150.561
-1122.68
1936.76
-674.551
-1262.21
-537.178
1665.49
830.584
963.977
-1794.56
1227.87
683.328
-402.954
710.953
839.888
1028.51
-586.597
1761.49
626.599
1773.56
-1185.62
-587.943
-419.35
-319.139
738.488
121.448
-1185.68
1660.55
-540.27
-1437.81
1437.81
1250.57
594.417
1351.55
206.447
-569.861
282.501
-192.902
699.082
1113.67
483.084
-304.799
-870.193
-574.669
1739.41
-1739.41
993.613
-993.613
987.332
1025.17
-2012.5
1837.95
-613.974
-581.109
836.297
-947.85
-1052.16
998.358
690.614
-1688.97
-516.355
-361.859
-652.445
-808.425
2042.7
-1246.42
-613.683
1002.97
974.853
1289.77
646.988
326.008
1012.69
238.971
337.139
1186.25
1756.88
-1756.88
671.923
79.8513
-388.577
-997.054
-539.992
1674.14
989.644
1010.36
-1833.28
-223.824
-361.764
596.386
-342.404
1849.5
-1077.86