/*--------------------------------*- C++ -*----------------------------------*\
  =========                 |
  \\      /  F ield         | OpenFOAM: The Open Source CFD Toolbox
   \\    /   O peration     | Website:  https://openfoam.org
    \\  /    A nd           | Version:  7
     \\/     M anipulation  |
\*---------------------------------------------------------------------------*/
FoamFile
{
    version     2.0;
    format      ascii;
    class       volScalarField;
    location    "1";
    object      p;
}
// * * * * * * * * * * * * * * * * * * * * * * * * * * * * * * * * * * * * * //

dimensions      [0 2 -2 0 0 0 0];

internalField   nonuniform List<scalar> 
30084
(
0.153581
1.45876
-0.14311
-0.538734
-0.0395574
-0.621507
0.0778436
0.160151
0.0332888
0.00296076
0.135306
-0.0674079
-0.00794691
-0.000398339
2.00747
-0.0959329
-0.00281897
1.12526
-0.0355197
-0.167369
-0.0142407
0.0311817
-0.143579
-0.0349105
3.92005
1.44856
-0.00846776
3.49257
1.99289
-0.0244682
0.261148
0.778051
-0.740728
-0.0896426
3.50816
-0.0660889
1.7215
-0.443866
0.0918876
0.0890526
0.00701756
-0.246816
-0.00252574
-0.105942
0.000476227
-0.0207723
-0.0582332
0.00119301
0.0551039
1.68562
0.294551
-0.480662
0.797091
-0.605261
-0.0939183
1.90128
-0.0551838
-0.0146149
-0.0575735
-0.154766
-0.00101608
-0.0344632
1.39995
-0.05496
2.46252
3.71115
-0.0968274
-0.131171
3.57624
0.00735197
1.43576
3.04449
0.042497
3.81413
-0.12406
0.648327
2.24559
-0.403025
-0.000768332
-0.15832
-0.569527
1.84555
0.152324
4.77825e-05
0.107904
0.195335
2.51429
-0.00821422
-0.00769515
-0.846375
-0.294659
-0.404133
0.0509212
0.85117
-0.875831
2.61159
-0.358119
0.0077098
-0.57829
2.20026
-0.000814493
-0.379407
-0.00099923
0.620243
-0.494948
1.27902
2.73622
-0.00741337
-6.91872e-05
-0.60174
-0.751076
0.309251
4.02384e-05
-0.0240764
-0.00304405
3.0035
2.00824
-0.184918
0.00037779
0.0484295
0.947923
1.53554
0.698394
3.7194
0.0179679
0.859263
1.16001
-0.0956221
0.0668446
0.000270741
-0.0931227
2.20605
3.1216
0.57076
0.613325
0.253508
2.93046
-0.388388
-0.452537
2.15556
0.898526
-0.744338
-0.694234
3.01751e-05
-3.29849e-05
-0.0404617
-0.0543542
-0.581727
-0.138636
1.7709
0.447512
0.231071
0.00697751
-0.00219807
1.90906
0.00843783
-0.116808
2.87622
2.1847
0.334504
-0.548429
-0.524217
1.94589
-0.000806214
-3.6459e-05
-0.185323
-0.679242
0.000797305
2.68263e-05
-0.107681
0.000510546
0.0947766
2.91437
-0.384124
-0.301694
-0.0791754
0.0340364
-0.387811
-0.0189205
0.79013
-0.000244058
0.00801858
2.51172
-0.123671
-0.453778
1.94197
-0.0988831
-0.286959
0.0622505
-0.020878
-0.00454703
0.0537743
3.75237
1.88594
-0.218992
-0.112735
3.27982
1.7437
-0.861083
0.0188907
-0.0106373
-0.670951
-0.0635188
0.013542
2.94274
-0.104544
0.113083
-0.593112
-0.617218
-0.00049039
3.23702
-0.0165364
2.17506e-06
-0.00876181
-0.266786
1.542
0.0240629
0.110197
-0.0345114
-0.852246
0.000317451
0.0075384
-0.0371601
1.06043
-0.0446208
-0.0230939
0.7476
0.00199319
0.000444454
0.0852133
-0.408822
-0.345635
-0.0747729
1.42299
-0.233101
0.240293
-0.000426417
-0.0484426
0.0125742
0.0155131
-0.704288
-0.0218109
0.00750408
-0.0250057
0.0494276
-0.164048
-0.000761028
0.215552
0.000573997
1.07514
-0.0536873
0.00229554
1.29338
-0.70033
0.00404354
-3.55459e-06
-0.746551
-0.696712
-0.140496
-0.114073
0.448368
2.43111
0.00125272
-0.398412
0.835464
3.35604
-0.125458
1.92012
0.686769
-0.00301824
4.2816
-0.00884089
-0.330562
-0.840387
0.036427
1.20666
-0.130506
3.16455
-0.0542065
-0.281922
-0.00434679
2.49066
-0.037282
2.64337
-0.00826372
-0.0914279
3.45947
0.949898
0.745136
-0.489881
-0.0025275
0.0476535
-0.00298128
2.11259e-05
1.10276
0.000581256
-0.308669
0.805386
3.95131
3.09886
-0.624796
-0.276557
-0.331851
0.255562
0.0623891
-0.290107
-0.64575
2.4729
3.01779
-0.0203921
2.70899
1.07702
0.735082
0.193604
-0.0146786
-0.00386896
-0.0854724
-0.0430459
-0.000940153
-0.024599
0.5932
2.52844
0.026805
-0.425363
0.224898
-0.000563776
-0.634847
4.07411
-0.0995089
-0.0209866
0.20576
-0.153498
1.50173
-0.0210695
-0.000512072
4.13898e-05
-0.0435566
3.47524
0.506856
-0.67472
2.60912e-06
-0.737026
1.02896
-0.0809292
-0.808029
-0.0193295
-0.00727228
-0.383957
0.0150381
0.82437
0.170772
2.02889
-0.00195853
0.0439383
1.52419
0.950874
0.00689653
0.00732246
3.00697
-0.288431
-0.0236034
1.80556
3.38239
0.262713
-0.0929601
1.5579
-0.0127857
-0.135713
-0.0531477
1.71458
-0.00041041
0.164328
0.0112144
3.10601
3.79649
-0.0962504
-0.143438
2.50411
-0.163411
-0.000914677
1.98658
1.11034
1.12674
-0.110482
0.402629
3.50427
-0.232784
3.24693
3.10778
-4.20929e-05
0.591266
-0.190945
-0.0465621
0.0272822
3.4034
0.50885
0.00461988
-0.468736
-0.686606
-0.089895
-0.00202747
2.739
1.97739
0.000653993
0.0689286
0.0911702
0.395193
-0.485945
0.000926131
-3.89818e-05
0.00823301
1.52546
-0.441195
2.5111
-0.772736
-0.265779
-0.354832
1.77769
1.39494
-0.0197782
0.136402
0.0139716
3.30226
-0.409221
0.0182512
-0.120775
0.948147
-0.0217053
-0.197842
0.003881
0.00399169
4.1096
-0.130136
-0.0804243
-0.0072698
-0.0124995
2.36567
0.0272379
-0.350622
7.58059e-05
6.77039e-06
-0.424134
-0.107991
-0.0856133
0.283422
0.104874
-0.033797
0.966872
-0.283815
3.21622
0.121443
0.00412212
-0.628548
-0.34987
1.24127
-0.0540644
-0.347738
-0.000235727
3.64534
0.316769
0.00137015
3.75201
-0.363766
-0.000251611
0.0246077
-0.638537
0.309054
0.764484
-2.51729e-05
-0.129979
0.0139866
-0.0871529
-0.00794118
-0.133732
3.30053
-0.131898
-0.190423
1.97051
-0.0477536
3.35848
-0.000281196
-0.239681
-0.57539
-0.337216
0.696913
-0.0256297
0.0640154
-0.0029736
-0.303225
0.285532
-0.000532478
9.75288e-05
-0.103376
3.1437
0.147481
0.0431604
-0.877463
1.15515e-05
0.0166298
-0.000833341
0.17626
-0.284034
-0.00666814
-0.121607
-0.201967
0.0175285
-0.000296139
1.03322
-0.0064837
0.965274
2.95529
2.52
-0.0518247
0.103292
0.413364
-0.00194802
-0.0533495
-1.35389e-05
3.13418
-0.220651
0.279367
-0.278128
0.0357991
-0.0508765
-0.00181732
0.000119809
-0.0783126
0.823335
2.22611
0.0212729
-0.561302
-0.409061
-0.127096
1.7584
-0.0224909
0.0301146
-0.0916319
-0.00167406
-0.649633
2.40028
1.84569
-0.360465
2.34667
0.00138305
6.45756e-05
1.96236
1.24567
3.75932
-0.444883
-0.35223
0.992685
0.020168
-0.0953524
0.00783852
-0.171201
-0.206915
-7.16209e-05
-0.0151385
3.09
-0.00248538
3.56769
5.97857e-07
1.28464
0.940247
0.998977
0.0179953
0.00315227
3.08878
1.00106
-0.591585
1.87212
-0.0937506
-0.216903
-0.0678759
2.68579
-0.408621
0.279414
-0.116463
1.80434e-05
-0.0222093
0.103747
-0.291567
-0.35247
-0.666212
-0.29507
1.32903
-0.036281
-0.834136
-0.223902
0.000610936
-0.196786
0.254757
1.34781
-0.434045
-5.79883e-05
-0.295933
0.00364999
0.0241031
-0.151098
2.50854
0.0154405
-0.193573
0.234784
0.952346
3.25208
0.0313919
-0.0596052
2.47637
1.65777
-0.224197
0.0850936
-0.735554
-1.1871e-05
-0.668578
0.00143311
0.206818
-0.000471112
0.000432916
-0.0781498
1.44873
3.05782
0.281359
0.210975
-1.68017e-06
-0.102623
0.00149719
-0.054405
0.00044037
0.799313
-0.008233
1.92332
-0.00225892
-0.209388
-0.58007
-0.0712295
3.24403
-0.270763
-0.382783
-0.0931236
0.67041
-0.593272
0.447397
-0.0182277
-2.81042e-05
-0.0686579
-0.0666652
0.00423031
0.00144016
2.6846
-0.0829024
1.02696
-0.0516602
0.0148844
0.506504
0.0028058
-0.000309584
-0.661884
-0.0591316
0.000489492
2.44166
3.98667
-0.00369994
-0.55852
9.31089e-05
3.52836
1.29516
-0.540227
0.000622498
0.279364
0.827977
0.951221
0.760644
-0.00734595
-0.0025085
-0.245459
2.44891e-05
3.80042e-05
-0.416946
-0.341048
-0.651382
3.87727
0.00342137
-0.264501
0.132754
-0.000277746
-0.0205171
0.000428083
-0.0941999
0.00070344
0.00611339
0.433985
3.33305
0.652496
-0.00487248
0.00791162
0.346222
1.00623
-0.0519525
0.000138131
2.22245
-0.506936
-0.430546
-0.229211
-0.000313646
-0.00484169
-0.506453
-0.25952
1.60954
3.20642
-0.374171
-0.0213461
-0.000246718
-0.637405
-0.746368
-0.00357165
0.0777815
-0.217321
-0.0787907
3.01738
-0.0217711
0.264187
2.28378
-0.126433
3.76745
3.6961
-0.000519728
-0.000682454
-0.267593
0.26177
-0.539565
0.0919244
-0.122357
-0.00984939
3.45585
1.88776
0.0392741
4.23411
7.20129e-05
1.24589
-0.598215
-0.244677
0.00159189
-0.55998
1.28008
0.251254
0.866696
-0.00778285
-0.00837383
0.0591942
-0.058226
-0.215783
-0.0182591
1.61686
-0.0779273
-0.0850587
-0.903044
2.97618
0.739149
0.497406
-0.00698835
-0.00886916
-0.312259
0.0170311
-0.0441995
-0.000298538
-0.00642611
1.28374
3.10279
-0.00225885
2.49916
-7.83122e-05
-0.0566901
-0.000160383
0.0938732
0.994692
-0.000683228
-0.000699294
-0.786561
2.85021e-05
0.779711
-0.330721
-0.000604634
1.99843
-7.56067e-06
-0.00696695
-0.0015621
-0.0821508
-0.0065128
-0.101532
-0.637169
-0.00579846
0.0737631
-0.000317725
3.02516
0.242544
0.74833
-0.508046
-0.349233
-0.0189434
0.0505913
2.1423
-0.362122
2.24682
-0.616549
-0.0585547
-3.94499e-05
-0.0944242
3.14609
2.13951
-0.450974
-0.780791
2.94489
-0.136269
-0.592523
-0.000160341
-0.344543
-0.0143738
4.17947
-0.565846
-0.00152583
-0.829903
-0.373138
2.34146
-0.043668
-0.392129
-0.0569254
-0.0731184
-0.0213731
2.33261
-0.705472
-0.297475
-0.234265
-0.207699
0.0961598
2.9075
-0.292663
1.87554
0.0470823
0.733326
3.59909
-0.138769
-0.00397538
2.40483
3.0899
0.0668944
0.538731
-0.0995643
-0.501296
2.46589
-0.651482
-0.000333113
-0.119343
0.000545674
-0.0735548
-0.000356793
-0.0638353
-0.0160971
-0.0515968
0.498694
-0.0101525
-0.00846729
-0.0173797
2.01709
-0.0349067
-0.0528105
-0.04883
1.79798
0.0895306
-0.0061502
3.11672
3.65535
-0.305108
3.47512
-0.266787
2.93666
0.0917703
-0.0801716
0.0432882
-0.00769506
0.000245746
0.0432593
-0.181726
-0.305863
1.84676
-0.352055
-0.310331
-0.0151711
0.596989
-0.340108
0.110469
-5.21633e-05
0.283
1.99783
3.03516
0.666526
-0.201551
1.53225
-0.00539426
0.548027
-0.272593
0.0109764
-0.817662
0.0661469
2.93384
-0.0329687
-0.00864176
-0.00205116
-0.589104
-0.0187596
4.1854
4.28236
0.18846
-0.000524481
0.132403
-0.000257056
1.07826
-0.00859985
0.344176
4.00479
1.27987
0.000264397
-0.121447
-7.08252e-05
-0.737322
-0.531358
3.40098
0.00359213
0.181483
0.0690174
0.00446918
-0.0352541
-0.00473656
-0.0900906
-0.477218
-0.343194
0.149525
1.96615
-0.197074
0.09999
-0.303939
-0.0249959
-0.393632
0.000161451
0.000657538
-0.0337194
0.440004
-0.308247
-0.232554
-0.0549451
0.0412351
0.0203419
2.7313
-0.190809
-4.30193e-05
-0.797856
3.19055
0.537888
-0.175445
1.36775
7.58949e-06
-0.0102104
-0.419647
-0.000426134
-0.006811
-0.000271069
4.23117
0.134133
0.0546489
4.12986e-06
3.00956e-05
-7.8171e-05
-1.52314e-05
-0.338813
3.10732
-0.525756
-0.00691606
-0.00244
-0.065699
3.34783
-0.598157
3.22101
0.738434
1.49764
-0.00204825
3.3031
-0.03228
-0.133438
0.543136
0.166916
0.181747
1.87068
-0.604463
3.26293
2.7452
-0.111407
-0.373898
0.238479
-0.425559
-1.0386e-05
-0.0136735
0.0401142
0.874791
-0.0926161
-0.339854
-0.0465484
3.88566
-0.603829
-0.000457943
-0.000374554
3.42392
-0.0701913
0.0572509
-0.18805
-0.0322256
-0.213308
-0.137306
0.622185
1.57436
0.762676
-0.141792
-0.199097
0.00116152
-0.0814219
-0.00535857
-0.110328
-0.000361408
0.000748521
-0.132676
-0.28166
3.23889
0.00723547
-0.00281801
-0.0210772
-0.00439761
3.09824
0.548215
-0.000467327
-0.312926
-0.0631053
-0.0491662
-0.385846
-0.467245
0.0961471
0.80219
-0.613875
0.00097447
0.0826584
-0.189682
-0.000135895
-0.000857311
1.25479
1.0078
0.912214
-0.718745
-0.579486
0.0071633
3.62014
0.00102593
-0.158415
3.13504
-0.238351
-0.506277
5.46559e-05
0.00208258
-0.499629
-0.128166
0.0189734
-0.470663
2.18352
2.82593
0.00921804
0.00342668
2.25332
-0.171186
-0.000139
-0.0198872
-0.394796
-0.284318
-0.109559
-0.00831747
2.50175
0.000179791
0.895775
2.57595
0.000464003
0.215118
-0.0060385
-0.503273
-0.18522
-0.00885134
0.346863
0.00267037
2.17808
0.0187264
0.289474
0.624868
3.94002
2.8821
-0.771016
-0.0920391
4.4887e-05
1.13999
-0.170414
1.67198
2.95569
-0.465977
0.294881
-0.20413
-0.0773367
1.46889
-0.00244889
3.43857
0.330148
0.000599209
0.000474754
0.00126907
-0.153777
-0.213979
0.0088744
1.27079
1.56396
-0.708603
0.00892107
0.000828624
-0.272455
-0.000444635
-0.0331607
-0.12464
-0.00681246
1.08775
0.0591938
-0.0155668
-0.0440939
-0.183845
2.87974
2.94474
0.455376
-5.45621e-05
-0.00630877
2.26794
-0.00524087
-0.129555
-0.00235258
-0.227331
-0.733307
-0.00234075
-0.00264748
-0.3527
0.016868
-0.000831288
-0.0149887
2.10761
-0.401232
-0.00037292
1.03009
2.91903
3.02695
0.00733062
-0.236528
-0.104522
3.17784
-0.684199
-0.697941
0.140852
-0.146558
0.34396
-0.295494
3.0208
1.1086
-0.00201919
-0.628237
-0.884565
-0.0423752
-1.54835e-05
-0.0198506
1.95223
-0.00211958
0.214093
-0.0442559
-0.0133648
0.103549
0.320398
-0.00209517
-0.00139708
-0.043823
-0.477927
-0.39899
-0.727246
2.16231
-0.00241766
-0.00307058
-0.379421
-0.270225
0.118158
0.150265
0.000767345
0.776874
1.48806
0.208279
0.281442
-0.00701864
-0.148339
1.24047
0.0145271
-0.000634495
-0.096434
-0.044714
-0.0080733
-0.116297
-0.00928806
2.7291
-0.0987235
-0.643253
-0.262601
-0.117153
0.130533
3.52321
-0.511119
-0.00134324
3.2851
1.62014
0.08602
-0.0642534
0.0838998
0.88264
1.54999
0.00383987
-0.0181444
3.98171
2.44669
2.91876
-0.497198
-0.0154218
-0.0135747
-0.000396686
-0.014204
2.80034
0.869077
0.147582
-0.00440932
-0.00396352
0.641908
3.71844
3.10121
0.843611
-0.0309786
-0.754488
-0.0276988
-0.00797802
-0.167168
0.216458
-0.309918
-0.0385834
0.00999135
-0.757903
-0.506343
0.327673
-0.271596
0.00623405
-0.294339
-0.0022453
-0.074918
-0.00758874
2.9818
0.000531652
2.12312e-05
-0.0943781
-0.220137
-0.326021
0.42515
0.000470592
-0.795945
0.791757
1.85513
4.18214
-0.0503657
-0.271193
0.346199
-0.023153
1.27253
-0.00658388
0.117543
-0.00213937
2.53759
0.445212
0.118515
1.5687
1.17698
0.0164084
0.0420869
4.16035e-05
3.27591
-9.55281e-06
-0.520373
0.0036659
0.019353
1.78513
1.06323
-0.651184
-0.445908
-0.0442852
4.24993
-0.71194
4.57837e-05
-0.168784
-0.000462179
-0.0821166
1.08222
1.84346
0.00969606
-0.394706
-0.100621
1.46778
1.34317
-0.364654
3.92579
-0.105373
0.000713693
-0.223941
4.00655
0.0314992
0.955612
-0.468317
1.60372
0.0206264
0.468908
-0.909615
0.0742557
0.590434
-0.0727816
2.23772
-0.290636
-0.211538
-0.00864483
-0.0086997
3.58734
-5.54796e-05
-0.0491807
-0.000331351
-0.0871752
0.00383777
-0.077094
2.49969
-4.78174e-06
-0.0111652
1.86948
-0.559383
-0.217208
0.0124925
3.06275
-0.430142
1.64808
-0.127653
1.51964
0.0856981
-0.00808446
0.636435
0.00837412
3.67418
-0.28544
-0.00126771
0.0246068
1.40913
-0.119839
-0.00755766
-0.00139407
-0.556047
-0.027976
-0.10303
-0.711687
1.91092e-05
-0.794138
0.00469637
2.86616
-0.10753
1.47077
0.0541696
-0.0400342
2.48938
-0.363645
-0.187332
-0.0469083
-0.535391
2.55229
2.6964
-0.151288
-0.00024327
-0.167204
0.0506404
0.000129459
1.08247
3.00538
0.13788
0.0173155
0.165466
-0.807502
-0.00187101
0.949444
0.580109
0.888237
0.145256
0.305661
-0.00419396
1.68691
0.540487
-0.559444
-0.0109266
0.302292
1.47541
0.00873433
-0.839064
2.01225
-0.327557
-0.844166
-0.902471
-0.245174
-0.272526
0.570437
2.00686
-0.481857
-1.29382e-05
0.0098014
0.51321
-0.0190671
0.20784
-5.4622e-05
-0.0619723
0.0431949
-0.000758023
0.607081
-0.00559496
1.21984
-0.342857
-0.0320587
-0.0746391
-0.0925496
-0.673724
-0.0633145
-0.0111224
0.231721
0.849195
0.0565975
-0.372962
-0.0319912
0.335702
-0.101857
-0.211492
-0.877293
-0.172608
-0.000364393
-0.166587
3.25805
0.000326958
2.00789
-0.111726
3.86376
0.530525
-0.540172
-2.78959e-06
0.0183171
-0.787903
-0.000203928
-0.0293939
-4.40835e-05
-0.694083
0.0494718
-0.518706
-0.255771
-0.00139431
2.39118
2.29985
-0.39221
0.00489672
-0.00190947
-1.91195e-05
-0.000607202
3.62615
-0.0144202
0.0248501
0.237254
0.0103252
-0.00651384
-0.901099
-0.00296066
0.55557
0.0613709
-0.023085
-0.00802844
-0.289568
-0.463121
1.76827
1.35628
-0.00182548
-0.142502
0.00591331
0.0280312
-0.00505367
1.45888
-0.0542133
4.29521
-0.0740609
-0.0158741
0.794648
-0.209066
2.8455
-0.470297
-0.122992
-0.141676
0.199739
-0.0397338
8.09599e-05
-0.0897572
2.62085
-0.506016
-0.0355313
-0.479246
-0.307001
1.50024
-0.00559781
2.47156
0.0381152
-0.660777
-0.00585638
0.146367
0.511451
0.0478352
2.88433
-0.00521349
0.357784
0.922838
0.00554383
-0.00147304
3.78987
0.889179
0.00259844
0.33505
0.336423
0.00140612
0.024066
-0.244147
-0.599679
-0.10715
2.72187
0.052921
2.14255
-0.00437205
3.11257
-0.828026
-0.0575844
0.0687188
0.342639
-0.604743
-0.170396
-0.0939278
0.000541762
3.99109
-0.253762
0.00894739
0.228641
-0.456535
2.91333
0.0329933
-0.17996
-0.000578943
1.29612
0.0898184
-0.441673
0.00892011
-0.0383463
-0.320941
0.000381071
-0.598576
-0.0170329
-0.164116
-0.74014
2.44158
-0.111939
1.04081
-0.1654
-0.331757
-0.000358156
0.0015856
-0.0418797
0.000393514
-0.124167
1.09721
-0.0231547
1.26523e-05
3.62466
0.0557719
0.00363554
-0.00043799
-0.0230723
2.84639
-0.623109
3.98978
1.77709
0.253646
2.4363
-5.67727e-05
-0.151658
-0.00930677
-0.0274005
1.83663
-0.107886
4.06949
2.3003
-0.639148
2.33119
0.106828
-0.156735
0.0247761
-0.106376
-0.0442843
-0.600741
-0.665882
-0.033386
2.32765
-0.108198
0.00155107
-0.0478824
-0.00745964
-0.404297
-0.00188601
-0.0140164
-0.000281903
1.57077
-0.101858
2.38906
0.330841
-0.0309843
-0.323527
-0.221499
0.772246
-0.0341666
-0.0119839
-0.771255
-0.509422
0.17308
-0.502744
-0.0497759
0.265733
0.048284
0.000364931
1.42203
-0.000461201
0.611668
-0.00903746
3.97745e-05
0.0219737
-0.00754896
-0.0137396
-0.176612
1.88792
1.48641
-0.228223
-0.140216
0.0321996
-0.0568458
-0.113537
0.000795366
-0.00556059
0.00760153
1.17415
-0.090203
-0.625508
-0.428662
-0.0210043
-0.177004
-0.0517249
-0.018981
0.0595709
-0.139541
2.21955
-0.67899
0.0770624
0.0391168
-0.421519
3.94653
-0.109603
-0.0326683
0.0876729
0.86975
0.0448604
0.0570013
2.33921
-0.0041396
0.506389
-0.230629
-0.417518
0.0709233
-0.0420511
-0.0619976
0.459411
-0.0405122
-0.00704332
0.0564414
0.0291285
-0.00266668
0.473748
-0.103345
-0.0225622
-5.68983e-05
1.58482
-0.00042552
-0.307203
0.843756
-0.233843
0.00150599
1.15884
-0.273829
1.6886
-0.000614581
-0.044505
1.546
0.0019414
0.0555783
-0.0509213
0.117534
-0.2351
-0.375954
-0.0848764
-0.030157
0.111525
0.229783
1.81678
-0.00215257
1.20191
-0.466448
-0.0373624
-0.0773421
0.00445953
-0.394301
0.000816255
3.29112
2.23506
-0.00558608
-0.238328
0.00292557
-0.0248463
-0.0516762
-0.0835196
1.57994
1.97243
0.488645
0.114823
-0.864187
0.454948
1.08585
1.27577
-0.597778
0.239612
2.12092
-0.10543
3.02433
-0.0103124
-0.121595
-0.496765
-0.00106928
-0.00843845
-0.000426569
3.00584
-0.114362
0.00293227
-0.174062
-0.0367012
-0.00368254
-0.146357
2.64781
0.0115069
0.124969
-0.281755
-0.00550544
-0.0508695
-0.00886587
4.1017
0.00231665
0.00029076
-0.0204884
-0.152744
1.68126
0.00590483
0.289441
0.849519
-0.00179
0.0240036
-0.855427
1.43922
-0.169755
8.70527e-06
0.00373675
0.311846
0.367685
2.65515
0.973421
-0.403707
1.07771e-05
-0.422757
-0.0290682
-0.138131
-0.133285
1.71569
3.20298
-0.00119388
1.48386
2.18303
-0.106787
0.119441
-0.224219
-0.0591104
0.00120358
-0.460834
-0.0934765
-0.00134455
-0.00598497
-0.0170621
-0.0209974
-0.00744344
2.63394
2.90134
2.20822
-4.28644e-05
-0.261705
1.03882
1.10453
3.33132
-0.00545858
-0.226822
-0.206014
2.88474
-0.211473
-0.0999111
0.319124
1.51593
0.00326651
-0.00553207
-0.259349
-0.284909
1.66408
0.8127
-0.367433
-0.237077
1.78407
0.236515
-0.523817
0.0774371
1.19425
1.88335
-0.00388308
-0.00679892
1.36647
0.00225155
0.693431
0.346152
-5.03657e-05
2.86281
-0.112434
-0.0485155
4.13358
-0.415068
-0.0654137
-0.421541
-0.0249599
3.187
0.0126774
3.94399
-0.00148871
0.146931
4.0533
0.0756928
3.21068
-0.0630559
9.1805e-06
-0.148006
3.35263
-0.0170013
-0.0729561
-0.0875427
-0.0109704
-0.231793
3.27704
1.25462
8.84126e-05
0.233173
-0.0408726
0.334157
-0.00967051
0.252945
-0.0286539
-0.00520156
3.14561
3.38737
3.15902
-0.586725
1.29366
0.00159837
-0.658724
2.43236
0.216022
0.00262167
-0.358381
0.00652081
-0.00114341
3.34081
0.00137311
0.0468683
-0.0207031
-0.0948128
3.17347
3.32476
3.35006
0.132648
0.00523168
2.00819
0.0831621
0.351032
-0.0986039
0.000759301
-0.0326529
-0.000225105
-0.0496118
-0.0081079
-0.0611253
-0.00073264
1.48435
0.0231662
-0.565784
-0.0981625
-0.822505
-0.177693
-0.00832898
2.94339
-0.116793
-8.34314e-05
-0.000295405
3.91965
0.000310183
0.126118
0.688513
-0.197293
2.64362
-0.0573488
-0.49311
-0.409027
-0.0054687
0.00137492
2.23105
3.34984
-0.0167352
-0.204587
-0.00254848
3.37188
3.82376
-0.0156457
-0.0688121
0.211371
0.03506
-0.269393
0.000689926
0.11144
-0.414158
0.69807
3.0155
-0.0163071
0.312843
1.55664
0.995139
-0.502662
0.314587
3.7358
1.91097
-0.62321
3.43508
-0.00631068
3.33417
-0.0694216
2.92051
0.927034
-0.0553573
0.495068
0.0263809
0.193429
-0.847837
-0.00730505
-0.256149
3.01442
-0.281843
0.388285
-0.0158491
0.844746
1.87579
-0.0984943
0.991625
0.00777054
-0.0394738
-0.26165
-0.0234252
0.0218763
-0.0949611
-0.00543847
0.0265083
2.92928
0.0252541
-0.172942
-0.626075
-0.317152
-0.734978
-0.655823
0.0459485
-2.01959e-05
-5.94191e-05
2.33641
-0.432378
0.000644397
0.132291
1.67094
-0.638081
-0.160484
0.00127444
-0.0202267
-0.521773
1.58906
-0.0779262
-0.00518965
-0.520751
-0.206046
4.03722
1.10464
0.778305
-0.483798
-1.7008e-05
-0.0717909
0.680738
-0.00390496
0.000202613
1.63926
1.0756
0.00673447
-0.00904918
0.12513
-0.297419
0.115073
0.0975933
-0.160697
0.000565893
2.78746
0.00634193
-0.00685884
-0.00252249
-0.00235362
-0.0016488
0.836296
0.0108558
-0.0299349
-0.100718
-0.0463276
0.315206
-0.057748
-0.459497
-0.109411
3.16294
2.74169
-0.00521312
-0.0153331
1.04433
-0.00867966
-0.188172
1.04128
1.57403
-0.0101839
0.219417
0.426521
0.0141457
1.40095
-0.00108565
0.0792404
0.26002
0.150742
-0.151724
0.506211
0.000788738
0.0209193
0.00296827
-0.000481949
-0.0146484
-0.101209
-0.134071
-0.309806
0.98988
0.45256
0.0968822
-0.555305
0.146263
0.117435
0.140866
0.00062207
3.26168
-0.0855004
-0.0341371
0.431352
4.08225
6.56485e-05
1.31344
5.84794e-05
0.201616
-0.066945
-0.224209
1.63097
-0.0413185
-0.000316448
2.16148
0.718348
-0.00577073
0.533382
-9.65243e-05
1.48652
0.0933886
-0.291877
-0.00147412
2.23129
0.298914
-0.21475
0.000421175
1.54629
2.60171
-0.011719
-0.00032995
-0.376204
-0.0925167
0.201877
0.329067
3.3438
2.22614
0.00501336
2.91553
2.28162
-0.0291125
-0.616529
-0.276086
-0.138741
-0.440994
1.93748
0.00851772
3.4979
1.49337
0.131296
0.000963396
0.00657883
9.09688e-05
-0.00569447
-0.0286497
3.74022
0.000114622
0.771919
0.278324
-0.00232887
3.5619
3.84193
1.78242
1.98294
0.925172
0.0254808
-0.0029169
-0.110526
-0.000111728
-0.0111349
-0.60489
-0.000229744
-0.0139902
3.59953
-0.116476
-0.00016332
3.65061
0.0047755
-0.377879
-0.720435
-0.0132754
-0.586196
-0.00239387
1.82684
0.0342364
-0.151549
0.0197796
-0.00649613
-0.0039531
-0.00225064
-0.682267
-0.624474
1.39409
0.0295133
0.0418284
2.14745
0.000766087
3.98702
-0.00550147
-0.950515
0.0230153
0.0166696
0.506129
0.538947
7.48734e-05
-0.0420916
0.00109471
-0.00681807
0.00863312
0.814215
0.48387
2.62923
-0.258939
-0.000983824
0.00173866
0.931971
2.98682
-0.0450405
-0.0632191
3.94382
-0.0276835
-0.211198
0.0111029
1.05811
-0.20572
-0.0856943
1.42262
0.0135158
-0.00249167
0.0168112
0.807115
3.98076
3.22557
-0.247523
-0.298016
-0.0635456
0.0159058
0.000290374
0.727275
1.89582
9.27702e-05
-0.0732376
-0.000157207
0.00139861
3.12818
-2.99035e-06
-0.636378
-0.442954
-0.538871
0.68582
7.57032e-05
0.102113
-0.0593256
2.96078
0.478143
0.0506153
-0.307656
0.00643465
2.95261
1.79816
0.118791
0.711784
3.64548
-0.640869
-0.547179
-0.0189362
-0.0698408
-0.00376899
0.362861
-0.000648635
1.47992
0.0295708
1.92657
-0.334345
-7.93086e-06
0.631065
-0.00164422
-6.06662e-06
-0.0073974
3.88913
3.75811
2.84104
0.000596859
1.99826
3.29485
-0.00967026
0.031639
-0.0849355
1.16548
3.39323
-0.28169
1.12947
-0.0241721
-0.69178
-0.784992
4.1837
-0.00603845
3.25574
0.84214
1.66047
0.00119601
0.00215432
0.0551136
-0.0885149
0.825741
-0.000497473
0.000677696
3.17245
-0.447528
0.00294391
3.30658
-0.0223725
0.00157555
2.94824
-0.0570762
-0.0154205
1.0329
1.8056
0.00320721
-0.00126339
0.0364002
-0.0402625
3.19123
3.8788
2.56285
4.08395
1.76733
-0.483726
3.66618
-0.000741765
-0.0322631
1.91402
-0.0344901
-0.00650875
-0.000964405
3.32479
0.575186
-0.00641407
3.78467
0.718942
2.55316
0.43632
-0.026752
-0.205575
1.67056
0.773519
3.37012
-0.209929
-0.00774888
3.11356
3.1084
0.141813
2.63193
-0.358694
-0.0769029
-0.088276
-0.00635915
-0.00135882
3.12819
-0.62323
0.808933
0.0113487
1.43531
-0.326566
-0.0768422
-0.00970962
-0.0317275
3.42418
-0.00788882
-0.17246
-0.0298474
3.43324
-0.187111
0.199219
-0.0744354
0.0138414
1.37305
-0.222669
3.43147
1.90473
4.08726
2.04366
-0.642729
0.306722
-0.0175406
0.360645
0.71227
3.21925
3.39905
3.69798
2.80086
3.14298
-0.00355981
3.55053
-0.00026424
0.000697733
-0.493182
3.81198
0.484801
2.19564
1.46505e-05
-0.0216062
0.418751
-0.299958
3.15737
-0.00669793
-0.0755119
2.84018
0.0103018
-0.0422446
3.99196
0.462048
-0.257734
0.140097
-0.00524578
1.30917
1.91023
4.13091
1.65452
1.08504
0.0463608
-0.00233713
0.0879454
1.65905
0.0814944
0.00132954
0.0291434
1.97625
-0.0145432
3.30886
-0.563545
3.32296
0.0630522
-0.223307
3.64579
-0.0525444
1.1559
-0.00398489
-0.0127933
-0.692288
-0.22488
-0.375409
-0.0946979
0.329193
-0.0292276
-0.747037
3.35958
0.0026227
0.00750744
-0.195953
1.14107
-0.170363
-0.607442
7.43301e-05
0.0480842
0.468622
-0.000992488
-0.554237
1.05976
3.32598
-0.414217
3.34204
-0.133833
1.3341
2.00757
-0.358099
2.86511
-0.0163326
1.32273
0.0218481
0.790861
1.71066
1.48571
-0.278274
0.0608778
-0.00670573
1.51513
-0.000770321
-0.00124704
-0.0100549
0.345134
0.199535
0.148985
2.93552
1.51492
3.93761
2.77565
-0.0148654
-0.336759
-0.00158459
-0.466417
-0.0102656
0.0565909
0.00623989
-0.270627
2.5692
3.19656
-0.00283951
0.000221238
1.03865
-5.42166e-05
-0.0876744
-0.00171591
1.34636
-0.358565
1.57579
-0.5817
0.000409614
-0.134584
-0.397406
-0.20735
-0.157725
-0.544147
0.83526
-0.00159944
-0.000280603
0.0201748
-0.00130129
0.903386
1.56252
0.40152
3.72283
0.445387
-0.559078
-0.919036
-0.00425093
0.483429
-0.00117175
3.17354
0.894451
3.57623
0.00139662
-0.322568
-0.0657063
0.507127
2.24035
3.04932
-0.0732575
0.414217
-0.0189984
-0.15968
-0.0769133
-0.058526
0.94814
0.0152945
-0.056875
-0.196047
2.46917
0.766247
3.31847e-05
-0.0084661
-0.0595115
-0.00588604
1.18668
-0.00642285
-0.129522
1.45317
0.000766691
2.14555
0.000866562
-2.48105e-05
-0.738653
-0.0880401
0.00161718
-0.219175
0.00170917
3.71264
0.120815
-0.240558
3.39198
1.10316
-0.314678
2.89392
-0.0266122
-0.0175288
-0.0199796
0.853977
4.3124
-0.014634
-0.00588189
3.36453e-05
0.0757061
-0.0119439
0.240784
0.0589484
-0.204864
-0.594705
0.180568
0.108812
-0.179831
-0.00515343
0.436866
3.03965
-0.0172492
-0.13134
-0.00221881
2.92356
0.55517
2.99755
0.00415211
-0.00806233
-0.225947
3.70993
1.25434
-0.277635
-0.00124733
0.306825
1.28963
0.0766644
1.754
-0.485304
0.210026
-0.559078
3.03636
-0.130635
1.98117
-0.0306691
4.15877
-0.41326
-0.104136
3.47786
-0.430728
1.39056
-0.606988
1.5075
0.0618749
0.479654
2.48229
0.469108
-0.489674
-0.0919832
-0.0710061
-0.0303047
0.441385
-0.013001
-0.538336
-0.282028
0.0190561
-0.668519
-0.833307
-0.000313862
1.74732
-0.087211
1.88586
3.5886
2.8549
-0.547425
-0.705888
0.00437971
-0.373077
-0.0356893
4.03423
-0.350196
-0.301783
2.80906
0.447034
-0.373455
2.2058
-0.36733
-0.00625426
-0.111602
0.0974438
0.00666283
2.92921
-0.0259583
1.20161
2.86494
-0.0546622
1.88194
-0.550778
-0.0035806
0.0646023
1.12625
2.8441
-0.0242156
0.908299
-0.668801
0.785526
-0.221658
2.84016
0.294124
0.111574
-0.0239139
0.00178853
3.31214
-0.0225404
-0.158629
-0.00101306
1.68111
-0.000575173
-0.358763
0.0131652
-0.125124
0.00643401
-0.0916639
1.97319
-0.0377526
0.00889091
0.00620731
-0.0397757
0.919727
-0.000739361
-0.000190105
-0.0809643
-0.0998146
-0.213973
0.0778809
-0.0182103
0.695771
0.715793
-0.0124544
0.00972075
-0.0018936
3.28368
-0.0401828
-0.0650345
2.99992
-0.175454
2.86482
0.578628
3.27949
1.824
1.04259
-0.0142957
0.12802
0.745311
0.251607
-0.0416717
0.00181017
0.0809704
-0.479368
-0.00898707
-0.078967
-0.075902
-0.0834708
-0.000251314
-0.0315003
0.000615364
-0.000684929
0.00833989
2.53286
1.91137
-0.105068
-0.026564
-0.443294
-0.200864
2.43636
3.03124
-0.440618
0.019449
1.69692
0.109644
0.00565975
-0.739734
7.44551e-07
1.05165
1.3884
-0.00627488
-0.354918
0.00199337
-0.075616
-0.0734785
1.18873
0.242495
-0.527752
-0.000378037
0.103907
0.0167183
-0.336905
0.0533617
3.27864
0.00313123
-0.0372926
-0.313814
2.17634
2.48554
2.78051
0.671886
0.000525022
0.0634086
-0.00611502
-0.0140734
-0.00913157
0.851225
1.75589
-0.113914
-0.0535729
2.53778
-0.0395001
-0.0540015
-0.579287
1.14796
-0.00909126
0.808809
-0.132415
0.930698
1.46104
-0.585664
0.00441229
-0.0186151
0.94753
0.0127583
-0.000601648
1.81984
-0.00385793
2.87391
2.63844
-0.878884
2.38293
0.377152
-0.035473
-0.464713
2.82194
-0.195159
2.30272
0.521444
-0.0055548
0.34853
0.0124403
1.48051
1.48218
-0.0185999
0.922665
-0.0694606
0.0510133
2.41882
-0.0124216
-0.00740111
-0.00135025
-0.0721971
2.13136
-0.0549209
-0.116403
-0.0511084
1.59794
3.65712
0.00649489
1.72211
1.52317
-0.00585274
-0.691613
0.264383
2.13419
-0.0895073
-0.143707
2.35212
2.40317
-0.253446
2.30481
-0.699283
2.68078
1.44763
-0.69963
-0.000222987
-0.0675598
0.698841
-0.166852
1.64428
-4.04231e-06
2.91682
-0.0146207
2.22283
0.0163669
-0.702528
2.12276
0.000542685
-0.00256865
-0.0514536
-0.0333032
-0.414618
-0.0129008
0.489548
-0.282111
3.15429
0.00899707
-0.25168
2.13314
-0.0868789
2.50823
0.434249
-0.0492125
2.17077
1.38022
-0.675314
-0.30566
2.73183
5.95776e-05
0.00935608
1.15189
-0.638973
-0.160013
-0.0126449
-0.000343143
-0.384627
2.86952
0.161941
-0.0564493
-0.0742342
2.43738
-0.264365
2.2485
4.22364
-0.00480302
-0.00291625
-2.40743e-05
-0.000517504
0.00051234
-0.0354066
0.270832
2.79266
-0.345266
1.28987
-0.0271418
0.504956
-0.0965211
-0.249083
0.492252
0.0111496
0.959426
-0.111423
2.38674
-0.130082
-0.177492
1.22475
0.732389
0.691849
1.89185
1.05039
-0.0115735
-0.513352
-0.00620947
2.87937
3.93747
0.264524
-0.330465
-0.0426067
-0.178113
3.15049
-0.0921819
-0.0377932
-0.421552
3.11394
1.22246
0.0666793
-0.00993004
-0.332995
2.77642
0.297836
2.39932
2.17609
-0.602791
2.16092
-0.655682
3.79857
1.52541
-0.167948
0.550782
-0.317471
-0.0705684
-0.00381818
2.17224
1.98266
1.95653
2.84241
-0.0911669
-0.0122071
3.02691
-6.63003e-06
0.244382
-0.177843
1.27303
-0.000232914
2.65154
2.41563