/*--------------------------------*- C++ -*----------------------------------*\
  =========                 |
  \\      /  F ield         | OpenFOAM: The Open Source CFD Toolbox
   \\    /   O peration     | Website:  https://openfoam.org
    \\  /    A nd           | Version:  7
     \\/     M anipulation  |
\*---------------------------------------------------------------------------*/
FoamFile
{
    version     2.0;
    format      ascii;
    class       surfaceScalarField;
    location    "1";
    object      phi;
}
// * * * * * * * * * * * * * * * * * * * * * * * * * * * * * * * * * * * * * //

dimensions      [0 3 -1 0 0 0 0];

internalField   nonuniform List<scalar> 
44730
(
-595.3
663.283
-67.9827
1058.06
-1069.49
11.424
-335.604
383.45
-47.846
231.909
-261.071
29.1627
-498.917
498.917
225.602
-267.156
41.554
-357.953
366.195
-8.24211
20.5021
-557.771
537.269
662.831
-833.077
170.246
-1009.21
1102.19
-92.9841
548.928
-136.556
-412.372
-529.847
537.562
-7.71485
-688
582.748
105.251
-859.827
868.889
-9.0625
244.328
49.1323
-293.46
386.753
-10.7313
-376.022
814.78
-666.838
-147.941
-378.348
385.385
-7.03653
161.707
314.763
-476.47
291.641
-358.578
66.9373
-594.187
81.625
512.562
724.083
-61.2516
50.5557
-386.16
136.695
-489.876
353.181
254.903
-156.54
-98.363
1063.54
-5.47634
659.971
-681.133
21.1623
-266.321
-26.5935
292.915
274.583
-30.2545
-440.064
543.9
-103.836
948.506
-250.87
-697.636
-660.392
749.966
-89.5741
242.362
-230.216
-12.1457
476.581
-65.4538
-411.127
156.705
-423.027
272.576
-432.354
159.778
412.778
-563.667
150.889
292.792
-35.5254
-257.267
823.137
-977.055
153.917
1059.96
-236.821
-1017.92
1035.53
-17.6129
406.893
-97.0214
-309.872
703.998
110.781
199.332
-309.163
109.831
1228.45
-777.689
-450.765
-591.293
151.229
540.995
-538.939
-2.05598
230.525
645.487
-876.013
223.111
537.345
-760.456
-112.713
525.491
-359.538
151.907
207.63
-17.9529
-224.985
242.938
-657.1
-3.29223
241.965
-16.3628
425.013
-38.2597
-246.527
-53.5077
300.034
525.582
-500.309
-25.2731
-34.2054
-559.982
-461.502
38.0243
423.478
-303.178
-19.5503
322.728
799.536
17.5766
-817.113
-409.165
570.872
0.537833
-221.131
220.593
-210.918
483.494
-292.324
417.975
-125.651
267.186
260.631
-527.818
498.742
-130.36
-368.381
428.087
-45.2298
-382.857
-463.905
-38.4955
502.4
-986.492
-31.4234
1054.57
8.97002
274.905
311.466
-586.371
-239.977
545.274
-305.297
158.929
105.978
-264.908
-433.244
382.774
50.4701
-350.928
369.113
-18.185
253.013
-135.55
-117.463
-251.992
-63.1302
315.122
-699.32
16.5553
682.764
410.979
-98.4595
-312.519
-258.009
258.009
101.812
-763.554
661.742
-659.829
64.529
-947.228
848.211
99.0164
-313.629
-44.3237
-15.1904
195.051
-179.86
517.329
-156.519
-360.811
-644.657
-43.3427
652.609
-69.8604
104.877
80.1856
-185.063
-353.547
84.2828
269.264
-312.962
60.9701
844.715
-621.604
548.86
-582.166
33.3058
231.914
-99.2068
-132.707
-337.214
108.816
228.398
-13.6191
248.244
-234.625
-846.64
847.242
-0.601651
-25.6765
-165.798
191.474
240.541
13.8214
-254.362
-711.464
12.1445
-269.475
285.614
-16.1389
778.76
20.7759
426.235
-621.969
195.735
202.941
-220.893
-745.754
803.468
-57.7142
624.128
-721.363
97.2348
74.7406
577.868
943.864
-846.971
-96.8931
-226.937
239.471
-12.5346
204.617
37.7453
354.982
109.728
-464.71
1009.09
-256.884
-752.205
19.9284
562.955
-582.883
-13.5616
-586.925
600.487
538.597
-263.692
85.7593
427.386
-513.145
-303.752
409.513
-105.761
76.773
-814.833
738.06
-696.69
456.713
8.17566
-194.535
186.359
13.6871
-849.791
836.104
-301.493
297.818
3.67473
-48.948
316.134
24.2112
-890.495
866.284
-326.745
324.248
2.49689
-74.2807
-304.067
2.12608
-278.858
276.732
702.019
-785.888
83.869
726.267
-860.256
133.989
-138.522
337.854
153.417
99.5957
182.453
-206.871
24.4176
281.015
-285.225
4.21033
-120.177
546.412
620.6
327.906
158.525
47.3196
-205.845
279.434
-319.341
39.9068
214.757
-233.483
18.7259
-31.4733
272.014
-331.71
4.96539
1.28409
-191.154
189.87
228.892
-66.0923
-162.8
181.123
827.965
-198.079
-739.276
937.355
-101.228
-397.689
522.909
18.0858
223.92
-229.029
5.10843
250.155
-215.103
-35.0515
21.9437
-201.926
179.983
-395.173
625.807
-230.634
57.8694
502.07
-559.939
984.011
-886.209
-97.8018
790.993
-787.107
-3.88601
-579.769
-232.179
811.948
-146.48
722.194
-575.715
457.997
-444.486
-13.5108
-186.373
-22.2218
208.595
56.0156
-774.19
718.174
-150.97
-208.568
-251.233
236.923
14.31
242.394
-10.4857
28.0561
1020.9
-572.444
-448.457
735.193
-933.273
-401.664
97.912
18.623
210.269
16.3806
-778.157
761.776
-90.4135
-856.814
419.133
-453.353
34.2201
-106.524
832.791
56.0781
-736.06
679.982
-197.605
11.2314
279.434
-9.81039
249.303
-239.492
-433.485
433.485
83.4908
678.51
-762.001
-317.722
48.2471
-578.7
598.628
302.221
-290.143
-12.0788
-777.839
-63.2733
841.112
-136.591
442.239
-305.648
414.961
102.369
427.82
-444.335
16.5142
242.641
-27.8842
-224.347
-307.787
532.135
502.625
-382.025
-120.601
-329.322
15.7581
313.564
784.442
-82.4225
-522.315
-77.3927
599.707
-661.156
661.156
-121.393
499.392
-378
93.7642
-361.008
267.244
-919.923
340.154
307.814
-360.469
52.6552
437.284
20.7124
824.243
-517.223
-307.02
902.08
-51.4143
-850.665
80.169
151.745
-846.879
613.838
233.041
-10.706
254.396
-243.69
-217.396
222.601
-5.20448
-39.8446
-490.003
874.409
-889.909
15.4999
-39.0794
430.5
-11.3673
787.155
-788.927
1.77176
247.752
-23.8319
11.9783
-238.915
822.142
-963.836
141.694
228.226
-347.845
119.619
570.9
-570.9
899.95
-93.26
-806.69
594.413
73.0541
-667.467
50.3247
-325.49
275.165
-170.82
243.735
-72.9148
-467.501
330.91
55.0328
732.122
-393.308
530.003
262.435
-182.266
-683.844
-176.412
484.07
-630.549
453.954
-501.624
47.6705
-886.777
1019.52
-132.741
-581.724
556.059
25.6643
505.126
-582.843
77.7174
128.224
724.415
-852.639
211.412
530.587
-742
723.328
505.126
321.618
738.34
329.458
-233.434
-96.0241
-298.065
298.065
371.697
-402.819
31.1224
-29.1528
1083.72
271.332
-325.499
54.1672
530.271
-472.402
-297.43
-562.396
551.986
-566.471
14.4847
-29.7272
904.136
257.248
-267.954
-207.974
197.852
10.1217
499.244
-588.088
88.8445
-197.833
958.956
-761.123
588.995
-83.8691
771.192
-384.951
-386.24
340.459
-48.8181
472.022
548.88
-186.417
171.227
-743.853
60.0087
-922.758
35.981
478.135
47.4471
-679.738
891.151
-681.43
-64.3233
194.093
-202.21
8.11721
-74.0201
915.123
-841.103
-38.0438
-817.798
855.842
187.56
-186.276
27.1314
175.519
-202.65
-10.6366
-366.135
376.772
317.792
-315.666
-598.383
203.21
-212.16
427.144
-214.985
908.529
-678.004
304.189
25.2695
279.594
-7.86055
-271.733
-570.875
147.884
422.992
461.822
-34.0017
501.698
-726.046
-352.713
1.78447
647.633
-746.148
98.5144
-253.052
166.553
86.4995
-656.423
639.044
17.3786
209.024
-218.835
77.3052
185.13
-741.924
825.415
-289.96
299.17
-9.21009
68.1331
-364.498
296.365
225.059
-214.737
-10.3219
527.211
-329.056
-198.155
6.18995
-347.677
341.487
-497.835
484.273
-53.0845
253.252
-200.167
-659.179
154.495
504.685
-343.868
6.65372
653.937
6.03419
446.761
-21.7476
-151.118
-4.6213
155.739
-22.1776
715.516
-693.338
-843.991
972.215
323.34
-148.246
-175.094
677.362
-775.17
97.8085
422.245
348.946
706.616
59.3722
-765.988
818.089
81.8611
537.429
-513.705
-23.724
1093.7
-1012.29
-81.4039
6.70366
-299.285
292.581
264.212
15.3814
112.505
142.397
213.103
-30.6495
195.004
-204.447
9.44264
148.675
146.804
-295.478
-307.358
286.688
20.6701
-152.759
-299.991
452.75
422.767
-544.16
-323.132
196.466
-199.302
2.83561
202.801
1008.11
-564.026
-444.088
526.162
-109.216
-416.946
110.774
513.354
77.4073
460.022
0.728165
-685.522
709.919
-24.3969
50.0024
-549.946
499.943
-76.9761
-252.308
329.284
-450.045
39.5942
410.451
-140.792
-336.253
477.045
780.028
-1.2677
21.5855
192.211
-366.036
173.825
157.746
-210.83
-920.508
848.608
71.8993
-300.268
306.911
-6.64267
663.23
-78.9508
-584.28
1047.03
-603.813
-443.22
194.549
-197.678
3.12898
281.526
-105.824
-175.702
-423.056
418.87
4.18578
664.431
-32.6573
-631.773
-691.397
5.87501
371.175
39.8035
-543.488
428.293
115.195
581.328
-578.553
-2.77533
-855.761
44.3809
811.38
856.363
33.1999
-889.563
-425.106
284.314
-202.858
51.7402
-324.578
520.731
-196.153
-180.028
-27.9457
754.997
-793.041
-155.259
182.391
518.948
-163.945
-355.004
-123.768
-309.718
225.246
-226.838
1.59142
619.602
44.8282
683.593
-608.852
18.0025
-302.621
284.618
836.929
-876.147
39.2183
-285.112
-5.03006
951.443
-955.003
3.55922
43.9438
186.999
-230.943
680.34
-32.7064
565.923
-593.574
27.6509
-831.004
844.691
185.282
-177.107
786.178
212.257
746.699
131.761
211.132
-342.893
-303.223
-9.96457
809.422
-52.3288
-757.093
602.835
-125.131
-477.704
236.372
-84.465
88.9201
409.821
73.478
-244.298
473.97
-504.054
30.0837
143.745
-350.236
206.491
137.915
389.296
39.8153
862.264
652.943
-773.384
120.441
-23.4713
974.915
-265.445
-8.90756
274.353
-227.495
202.904
24.5902
-23.5801
182.51
49.0726
453.553
335.574
-346.21
-344.301
51.977
-336.143
32.9654
838.367
-58.3394
65.6021
-208.846
143.244
-945.425
22.6662
-909.039
-36.3851
-486.299
54.2377
432.061
-726.516
894.924
-168.408
-184.901
-80.3191
265.22
-101.213
-91.0761
192.289
-171.62
-29.3531
200.973
-111.97
226.565
-114.595
853.45
400.487
-208.276
148.942
-13.3216
-568.402
-878.596
-41.9121
459.321
143.514
182.381
-506.958
200.701
-1106.91
906.206
33.7607
200.086
-233.847
-16.8927
-200.504
419.57
27.1907
89.2326
701.761
284.547
-10.1125
-274.434
-472.124
557.884
728.652
72.9834
-801.636
-776.597
-9.291
798.753
-854.087
55.3338
272.121
-259.938
-12.1835
80.6302
242.71
850.635
-865.004
14.3693
978.837
-862.155
-116.683
938.886
-943.499
4.61333
-376.866
-166.622
-7.47634
-873.542
534.749
338.793
-189.566
163.661
25.9056
-243.08
391.755
142.02
92.497
-234.517
758.008
241.527
-240.989
431.857
94.3043
781.437
-693.402
-88.0349
-52.98
-90.0063
-106.431
196.437
-311.774
261.03
50.7441
862.241
-838.029
-22.3997
381
-358.601
-308.85
-22.8606
568.746
-584.423
15.6761
370.953
-327.629
-43.3243
-828.398
731.168
97.2304
-905.717
831.697
141.858
139.668
-407.623
277.969
129.654
469.786
-454.715
-15.0706
621.794
-622.718
0.924368
518.263
-44.2929
-287.477
-150.084
437.561
0.461304
-265.906
-78.009
-245.249
323.258
544.281
563.925
-1108.21
-900.873
849.208
51.6647
-4.86344
-405.942
420.196
-14.2544
433.006
-400.355
-32.6505
670.234
-840.918
170.684
710.507
-879.847
169.339
-505.006
-154.174
-412.217
61.0216
351.196
307.761
-6.9743
-300.786
-329.298
157.678
474.35
74.5788
-719.651
-108.747
2.63331
192.371
-306.934
300.789
6.14513
32.4446
-316.306
283.861
491.713
38.4923
-530.206
-228.258
302.531
-74.2734
-896.203
-19.6393
915.842
-221.277
-19.2985
240.575
7.20584
-841.386
834.18
804.708
-118.503
-686.205
354.396
139.33
-217.339
-874.886
-21.3168
808.336
40.2725
-9.89748
534.575
-179.594
-495.663
-20.2719
515.935
-801.996
913.799
-111.803
314.733
-246.6
-391.462
314.486
-30.4749
590.814
63.1228
385.363
-241.618
318.554
505.688
-16.2476
28.4972
342.456
-782.838
96.8187
686.019
457.424
94.562
-145.912
-12.8815
158.793
-851.815
-23.0716
74.9365
331.957
-205.578
229.51
-23.9315
53.9907
-282.248
-259.252
253.797
5.45456
-19.8887
34.1734
-515.149
480.975
-610.527
-135.62
-25.7539
305.431
-279.677
-332.597
442.325
599.39
447.643
-1102.76
430.479
672.284
330.183
0.416261
-330.599
-260.178
-145.274
405.452
-526.198
546.7
-661.174
-17.3875
678.562
99.6129
92.7749
-192.388
-44.2441
799.241
838.33
-862.312
23.9825
807.598
-154.654
43.4303
-601.201
-328.541
-19.1362
556.841
57.8895
-614.731
442.653
19.1692
-350.365
395.052
-44.687
-853.263
-3.8616
857.124
-27.8179
-823.997
259.855
-259.905
0.0500025
625.252
-3.45813
548.816
-398.103
-150.713
-229.424
269.764
-40.3407
-103.72
-240.581
-423.134
-38.3682
892.838
-182.331
-815.488
88.9714
-629.422
18.8945
-541.955
53.0268
488.928
820.56
-39.6374
-780.923
-250.491
138.521
-2.53669
-356.243
358.779
854.765
-184.531
309.585
-1.82472
636.72
-70.7973
494.181
-2.46773
801.45
-712.217
-1045.12
-57.6387
445.553
24.2328
518.95
29.9101
737.904
-681.888
795.559
-38.2691
-757.29
199.054
-224.73
278.005
-16.9749
-118.511
187.171
-165.227
475.027
15.8243
-490.851
577.478
-101.478
-476.001
-460.638
422.566
38.0729
128.959
672.491
-1.2119
-112.415
-751.422
863.837
94.9174
-665.335
570.417
230.342
-306.872
76.5296
-749.681
637.266
91.83
712.877
-504.401
1048.68
207.235
-141.633
-257.515
-169.55
266.024
-96.4738
218.105
-264.478
46.3733
-181.521
323.541
6.19022
-315.04
-51.3201
6.16817
-412.084
405.916
-47.6063
-162.707
-195.871
-32.4213
370.456
-338.035
-870.846
944.473
-73.6268
45.5354
-528.31
482.774
10.6225
-238.117
-756.012
106.406
649.606
367.147
-210.442
819.402
1.15807
-24.8053
203.18
-178.374
422.988
125.828
-101.187
-311.031
815.621
-201.783
-95.1829
-914.025
623.486
-312.02
120.846
42.1741
652.731
-550.919
496.583
-20.0025
344.271
-36.4572
339.616
-422.13
82.5136
192.056
-218.193
26.1365
44.692
253.87
-298.562
338.906
-491.665
-1.83296
761.958
-806.202
538.007
-62.9802
-103.633
735.385
-631.752
-270.529
306.397
-35.868
-67.5874
297.929
210.191
-191.568
-284.135
13.6053
-1050.91
581.767
469.14
-35.9227
-76.1437
181.021
-311.38
296.599
14.7816
-676.07
692.45
269.635
-274.635
4.99977
-469.68
169.689
-497.86
-553.046
244.349
-279.875
847.175
-946.608
99.4326
-344.82
16.279
483.632
-628.015
144.383
-2.05342
810.389
242.456
-252.914
10.4585
-331.171
-542.371
-37.8171
295.084
-25.4487
340.417
-126.251
-214.165
-20.1553
-831.109
851.264
-878.962
500.532
378.43
-56.8745
735.384
-455.598
32.4646
-152.167
-102.082
254.248
872.235
-805.677
-66.5577
396.694
-321.758
795.951
2.8026
104.793
90.464
-195.257
-580.559
1024.4
-443.839
148.531
-197.899
49.3684
-758.926
-145.011
903.938
139.633
200.784
853.524
-31.3823
813.475
-736.702
506.03
-417.11
-7.61275
-213.518
20.4879
158.367
-178.855
311.374
223.202
-28.1668
-1098.2
619.2
479
7.44445
891.668
-60.5489
-831.119
-430.734
623.754
-193.021
57.1746
756.301
28.1082
-523.771
-590.56
-18.4349
608.994
388.741
152.367
-541.107
-264.672
-522.436
279.641
64.6299
-181.046
-76.9632
-407.054
353.331
53.7229
-797.746
280.523
202.458
-263.98
61.5216
230.096
-250.179
20.0837
431.375
-425.207
719.868
50.3245
-770.192
-205.591
39.7934
814.366
21.0371
-835.404
-345.222
5.92626
339.295
118.642
860.195
-412.476
450.5
412.096
-72.4791
-954.368
99.6549
854.713
789.072
102.595
-16.1643
208.221
51.0742
381.931
886.882
132.637
31.7685
-487.367
28.5748
-826.548
797.973
693.58
-758.66
65.0802
636.257
465.935
769.02
-56.0328
-712.987
198.931
-50.4003
76.7549
339.713
-416.468
-735.222
792.397
237.6
180.375
-297.701
168.651
129.05
-111.12
-426.931
538.051
-32.7273
-218.505
1004.4
-573.923
111.834
-296.735
170.551
-195.357
-101.64
-159.431
30.4634
820.171
-154.77
493.676
-594.276
744.936
-150.659
673.742
-695.92
-387.336
367.064
-442.263
-180.455
39.7774
349.194
-9.65259
-339.541
-46.2838
808.242
-505.24
-623.36
1128.6
289.041
-233.535
219.915
11.3927
198.799
-267.599
111.06
-885.233
908.884
-23.6508
-266.023
258.943
7.08007
75.5082
705.929
3.36402
765.656
636.73
-17.1273
-15.2005
-514.127
470.265
43.8627
933.058
17.1564
-950.214
-312.043
-33.1788
-1.12123
-235.918
787.648
-67.781
529.029
-623.219
94.19
-761.752
-84.8876
10.6075
261.514
877.158
9.7236
-491.436
441.373
50.0631
-950.445
-94.6793
58.1689
-371.514
313.345
-206.713
215.998
-9.28428
246.877
-28.7722
-40.0486
1050.32
-313.237
-737.082
579.677
-50.6475
35.9277
-268.359
-57.1306
-684.16
756.985
-72.8252
-101.072
2.21361
227.882
505.041
-5.79711
92.7969
-870.635
-96.8928
217.302
-120.409
-192.862
220.68
-27.8173
-681.815
570.695
-445.951
480.124
342.208
54.4867
-461.656
425.398
36.2577
590.687
417.426
498.809
-460.185
-38.6237
468.523
-311.35
-157.174
-171.172
35.6227
351.876
-22.0771
-329.799
-268.083
98.5326
-350.705
301.757
-219.021
-636.74
-691.46
-81.9233
261.462
-59.0036
656.715
198.05
6.94871
229.974
815.344
-86.186
-729.158
329.476
-142.272
647.23
-504.957
226.151
-306.47
-107.593
496.334
-750.53
8.60632
-142.09
-110.962
500.001
-91.5721
773.682
-682.11
-206.034
219.596
-13.5622
-19.6497
-246.373
829.592
-737.762
225.281
-426.489
-400.496
826.985
857.888
-201.172
-41.9573
777.937
-735.98
597.496
-6.68188
17.8904
-608.45
285.297
128.665
-413.962
-404.512
481.267
-20.0942
-320.645
340.739
-617.875
66.8614
551.014
-141.649
492.739
-351.09
-477.93
411.229
-484.135
72.9064
106.257
-182.776
76.5184
-199.021
330.782
-184.329
-168.384
722.004
-28.424
102.362
581.231
-611.12
649.048
-37.9283
269.559
-295.313
-809.812
-52.5002
97.38
-433.633
590.123
460.195
-615.848
173.585
411.713
-838.202
363.308
-681.929
28.6596
653.269
-187.232
218.586
-31.3531
-816.287
886.711
-70.4234
-49.0017
-432.382
481.384
1005.36
-405.593
-599.772
-70.0652
-784.022
-11.5444
271.399
-950.475
207.414
743.061
-857.735
-92.74
-175.656
-13.9107
-777.763
731.48
-123.351
-294.985
418.336
-21.7381
-264.626
286.365
160.554
647.043
211.569
154.715
-366.283
-902.875
154.588
748.287
541.262
-581.052
39.79
604.555
58.6112
-663.167
-43.4863
674.263
-639.886
-34.377
354
-23.8173
-13.4113
220.279
-206.868
608.302
65.9614
15.1071
-791.705
721.548
-777.58
-183.544
204.032
324.528
143.995
122.836
-307.165
205.939
-210.539
4.59986
344.594
-200.903
-143.691
592.11
44.6197
-746.244
800.498
-54.254
-373.334
-116.939
490.273
-17.8567
-289.077
238.172
39.4933
-277.666
254.236
-102.709
-151.527
418.529
-467.53
-61.719
-740.277
-411.566
69.8079
155.251
478.925
-429.962
-48.9627
-228.143
261.904
-207.383
198.937
8.44619
-4.72153
-203.449
208.17
-323.696
380.552
-56.8552
211.138
-2.92474
-208.213
450.427
554.938
-266.987
555.688
-474.063
143.611
-258.355
114.744
-207.822
-5.75554
213.578
701.31
-96.7543
249.374
-172.069
-359.192
281.397
77.7948
-434.684
3.26068
431.423
-352.26
449.64
316.747
-324.495
7.74825
-19.0456
37.1942
468.836
462.99
35.8185
14.4261
-449.11
181.631
16.2211
-341.672
-3.14854
-372.751
297.225
75.5262
343.8
-64.1592
671.365
221.474
-233.949
229.228
-292.047
307.805
80.6953
661.907
-742.603
-735.376
-26.5353
761.912
4.96041
145.871
16.7763
-340.473
-690.763
621.162
69.6018
139.667
-159.017
175.379
-16.3623
423.461
-138.163
-245.349
-160.615
405.964
-168.416
-345.711
223.754
-17.8147
-243.881
91.7142
90.5509
-187.444
-1009.56
696.32
-348.858
348.858
851.449
242.246
-35.3569
-509.114
-500.443
211.858
325.705
528.31
42.59
547.097
-52.9159
246.317
-246.052
-0.265156
-629.503
662.497
-32.9943
-50.2441
-533.284
-45.4157
-639.765
698.452
-58.6873
84.7896
-493.955
-353.521
539.652
7.44447
519.983
8.14896
-528.132
745.279
-647.847
7.96051
-127.85
-48.7744
176.624
-430.151
79.4464
315.204
-35.091
-280.113
-166.33
-36.5287
-304.385
291.02
13.3648
-285.556
56.1322
867.627
-196.262
-333.493
54.6354
766.779
-0.487947
-766.291
584.227
-659.178
74.9504
-922.846
830.366
92.4803
-24.618
-636.556
109.916
299.597
-24.8113
-262.355
287.166
-768.953
5.39902
-205.568
-293.531
268.719
-466.294
511.829
-240.817
242.529
-1.71189
-307.485
299.842
7.64241
-807.725
704.092
995.991
-148.816
-158.307
266.341
-222.397
365.949
-154.817
396.8
-307.834
-88.9658
289.545
54.2555
807.829
-98.9382
-708.891
183.893
-681.728
-747.128
661.391
85.7377
5.20086
-617.734
623.518
-5.78369
67.3225
182.052
-93.3619
516.129
-278.161
281.897
-3.73552
379.47
-458.669
79.1988
-608.751
649.377
-40.6257
585.197
45.0193
-630.216
242.156
-226.848
-15.3081
555.551
-22.5336
-533.017
259.398
-146.947
-112.45
-146.91
-53.1235
200.033
951.183
-942.513
-8.66917
-575.505
-388.33
-47.1646
-753.806
800.971
-897.649
834.375
-562.064
351.531
210.533
605.141
-623.576
-18.4775
670.172
-651.694
1.66678
165.132
-166.799
-53.568
-262.738
-855.967
-66.8793
15.4681
367.306
334.118
-739.71
203.262
-21.6311
-232.23
232.23
422.257
-168.694
-253.562
-911.174
25.941
-3.82002
-31.4926
-472.99
504.483
-753.667
-80.7992
487.504
-406.705
-252.427
-408.729
433.517
-10.9514
-62.0493
262.136
157.271
187.324
-537.136
400.58
-172.433
384.001
341.089
-51.5442
761.942
-705.864
-285.344
-9.8065
271.873
-946.885
-3.55998
5.60562
927.452
533.593
-448.803
-828.285
571.458
256.827
-5.4883
265.824
-260.336
350.449
-4.1647
-346.284
-462.782
32.0486
-834.239
748.011
86.2289
-139.72
-172.323
188.134
20.198
-208.332
213.312
127.777
-800.995
17.8634
-597.95
317.1
280.851
56.0554
224.96
364.071
-326.489
-37.5826
-357.991
373.778
-15.7868
847.426
-513.308
-455.153
312.881
-326.291
193.756
132.535
423.392
-720.822
568.498
-27.2357
811.255
-807.891
77.281
182.117
-827.204
808.454
18.7492
-794.06
47.816
-472.161
-527.844
1042.64
-186.28
931.108
-835.169
-95.9391
-521.119
-463.317
984.436
-49.1625
-258.196
67.5482
227.998
-237.003
9.00519
-22.5946
-56.0811
733.443
466.958
-29.9051
-437.053
-383.932
-186.944
13.1268
-113.325
-234.52
-137.884
402.748
-264.865
-926.007
926.007
93.4145
-812.105
505.086
-511.299
69.3237
441.975
-212.512
-195.111
155.138
-156.498
-380.638
-547.697
391.199
596.616
60.0327
194.203
414.197
-929.15
514.953
-4.55828
289.105
-221.201
-265.097
-219.862
406.353
-81.8245
-183.547
-142.744
-65.5041
-835.368
452.636
-518.274
65.6379
16.2488
-683.577
765.562
-81.9846
415.891
-422.236
6.34449
248.902
-569.312
529.852
39.4603
130.787
104.107
-234.895
203.194
-216.605
378.931
-708.796
329.865
110.548
758.341
186.671
235.585
-68.7991
-493.36
461.867
293.916
-308.848
14.9318
416.832
-37.3614
354.437
-386.858
-24.1565
-367.837
391.994
-16.6267
-268.599
289.727
16.0468
-305.774
-405.932
268.049
-390.292
42.8272
631.037
-749.54
-410.581
533.635
-314.373
-91.5686
976.663
-866.115
-492.694
-312.329
805.022
298.241
42.0229
290.394
-332.417
-464.766
131.127
-270.847
-52.0135
451.742
-564.191
112.448
47.4375
613.719
-178.953
51.1031
318.675
-262.619
708.756
-329.825
268.424
-184.141
24.4917
365.146
-389.638
-29.6599
-300.424
-2.19683
-260.432
253.527
6.90555
-0.675161
545.992
-517.884
33.4377
-891.585
113.428
796.937
-0.986055
331.139
-117.827
525.487
328.712
-854.199
598.412
239.955
664.187
-755.759
-734.687
102.715
631.972
273.555
41.5378
-315.093
190.634
-183.646
-6.98744
21.6877
274.362
572.88
-190.421
17.3957
173.026
-157.117
-606.752
763.868
-343.988
358.888
-14.9003
-235.917
301.292
-65.3746
-149.43
-176.069
-257.14
216.159
40.9817
920.087
-920.087
-87.5653
727.095
-639.53
296.099
-215.469
346.098
-68.1288
-657.454
192.116
28.793
-220.909
66.2392
-585.893
519.653
11.2698
-206.475
195.205
908.025
-913.791
5.76566
300.665
-674.367
373.703
329.95
-271.781
52.6836
311.388
-350.753
876.24
557.291
-105.549
-73.514
-245.827
-401.596
327.301
74.2949
216.559
-346.919
336.41
-500.506
164.097
-215.596
28.3634
-873.286
-73.5993
34.529
-718.106
302.575
-193.759
796.392
-773.224
-23.1673
433.25
42.528
-475.778
-685.714
610.738
74.9763
-240.7
213.782
26.9183
322.334
-28.4181
-426.199
-254.934
871.544
-828.884
-42.6606
-357.916
658.58
143.394
-516.728
-864.376
11.1135
-59.5352
-594.289
653.824
30.7634
-134.143
-163.559
-914.165
428.686
485.479
196.455
2.48133
451.241
-35.3501
543.442
237.586
-247.628
10.0429
-335.85
-6.30872
342.159
-534.149
421.436
-27.3278
-174.23
201.558
234.507
-42.3907
-77.0806
340.782
-263.702
-357.826
7.46035
435.873
-10.4755
68.0599
-805.353
737.293
-664.333
664.333
29.9616
196.189
-83.5883
-505.741
589.329
-854.457
938.092
-83.6353
741.104
55.2879
-14.1696
-834.483
848.652
325.416
-343.023
17.607
326.129
15.6865
-341.816
583.668
-637.068
53.4
31.5209
293.197
-324.718
-202.914
-109.742
312.656
200.06
-9.42582
104.818
-709.852
605.034
-759.988
267.295
354.144
-312.121
793.747
59.7767
-77.508
-433.79
344.622
-389.852
-680.38
99.9165
580.464
301.367
-252.161
-49.2056
-532.493
613.218
-80.7255
-82.2396
-363.15
445.389
411.447
-382.95
-581.135
-333.03
583.837
-727.531
143.694
-406.277
-422.008
837.848
-39.79
-645.924
144.348
434.211
-578.559
563.583
-644.889
81.3066
15.7109
-230.814
11.1069
-693.035
-324.203
321.667
11.7545
570.67
-692.758
122.088
-344.536
-430.634
-6.69587
-683.916
698.396
-14.4802
763.089
-164.677
645.906
-103.175
-542.731
193.587
285.337
293.863
-299.578
5.715
807.725
-935.906
128.181
-639.346
-95.3411
-274.6
-3.56143
-331.342
103.19
228.152
-57.1556
640.823
67.8056
-245.286
177.481
358.772
-336.556
-22.2155
-320.364
-277.587
-10.22
204.313
-23.0111
-179.199
236.072
127.053
-363.125
-272.915
320.765
-47.8499
586.581
-670.169
25.4775
289.727
-249.1
-82.2417
-276.57
-285.494
-711.365
540.655
170.709
-111.241
-155.916
-166.607
67.4005
-579.47
536.648
42.8221
576.959
-1098.08
-25.7652
-1015.02
-140.695
365.683
40.6696
-23.411
-51.418
-756.839
125.087
846.888
-839.682
617.434
-76.7784
1.86236
589.261
-591.124
-277.623
-169.162
446.785
-30.1327
-210.568
3.76466
204.6
-213.524
8.92364
-990.898
216.708
448.45
-112.04
19.7568
-628.066
608.309
298.89
-365.448
24.1329
341.315
56.8471
573.71
-630.557
-104.913
770.015
-665.102
-669.325
-195.679
-719.004
39.778
679.226
-40.7081
558.568
-517.86
919.057
-911.058
-7.99887
556.945
-616.48
-611.194
-23.8102
635.004
-397.446
124.53
236.906
-250.63
13.7243
800.995
-772.42
-96.3152
731.008
-634.692
461.636
8.6288
-434.499
-670.073
604.149
65.9248
398.86
-92.3384
-564.084
-30.0589
-11.9081
-400.176
-12.8967
208.735
-195.839
26.3377
327.807
-361.661
365.354
-3.69241
743.419
-790.584
145.701
119.519
216.659
-228.9
12.2404
684.137
-775.34
91.2032
-311.573
-660.343
-23.8177
794.103
73.5242
291.428
120.668
809.837
-15.7343
-11.5576
-1030.11
180.316
3.94926
16.7291
-566.675
164.194
-162.527
-1082.59
-241.436
214.108
68.8502
227.249
-107.937
-467.151
575.088
-2.57023
-477.602
480.172
838.944
-31.2188
570.156
75.7502
-13.5081
-202.62
216.128
733.366
-775.323
-140.921
376.994
-397.877
443.746
-45.8691
-679.207
723.354
-44.1473
281.192
-381.411
20.4035
400.442
-170.096
-230.347
171.285
-512.014
466.415
45.5991
5.30137
-463.451
458.9
4.55087
613.947
-596.057
27.1877
-153.463
586.713
-297.446
57.5682
441.349
42.2549
606.664
-648.919
-88.7045
-141.512
186.597
27.1855
30.1582
-394.88
29.4325
-412.694
14.8176
252.781
-255.01
2.22913
711.292
-682.632
-486.479
85.1734
401.306
-42.3692
626.596
6.51886
-209.968
914.274
-141.804
-772.469
518.88
537.481
-1056.36
-283.43
-25.7329
292.455
4.1434
10.2748
276.413
-686.986
0.268521
686.717
591.976
-749.093
-211.848
199.957
11.8917
-510.687
-41.4927
-623.842
-12.8735
156.485
-138.021
-428.449
-121.182
188.988
12.1033
-627.852
615.749
-39.378
-497.67
537.048
-244.849
276.37
-69.3865
626.228
-724.856
752.455
-27.5996
217.773
-482.444
211.426
-246.034
34.6077
-13.6203
-837.243
29.5178
227.027
-429.941
899.959
-909.093
9.13345
635.935
14.7971
-650.732
-56.9173
-536.657
-807.243
840.443
102.47
-208.9
897.68
-78.2772
244.831
-16.8331
-60.3184
-715.956
776.274
-86.5115
-597.404
-7.34682
527.33
-659.66
20.3145
214.604
-233.577
18.9733
-240.136
3.60592
236.531
-559.837
533.626
26.2104
-240.813
93.9037
67.435
85.1337
-152.569
-880.244
314.943
21.6313
-336.574
55.0184
637.866
-692.884
-345.813
364.028
-18.2153
-638.902
-20.7579
-672.078
752.773
-896.37
127.337
769.034
-148.103
-169.619
-446.672
64.6469
-456.557
-612.93
228.782
12.7454
-293.372
293.029
0.342405
186.709
-55.9213
-424.1
394.535
29.5654
-954.858
972.014
-293.389
117.193
176.196
160.331
3.86333
520.561
846.851
-867.007
278.056
-35.3468
348.398
-490.047
-788.945
811.034
-22.0887
-348.259
-174.752
523.011
135.058
-178.524
43.4666
428.251
-521.613
735.995
-676.252
-59.7433
-263.217
-20.2132
300.609
-62.4365
318.673
-293.195
334.343
-652.061
-18.0126
5.43989
633.604
-386.404
175.962
20.6653
-891.512
546.872
-392.377
608.148
368.515
424.254
9.26315
744.602
-804.921
-40.9265
-32.455
827.282
70.3977
421.227
-499.979
78.7521
197.166
-168.992
-28.1738
-197.903
205.969
-8.06587
-15.7809
346.317
-330.536
-616.724
658.979
435.974
249.734
-225.489
-24.2456
372.571
499.664
313.682
-335.759
695.717
112.112
73.1349
-597.248
524.113
639.973
-35.8247
12.9805
-930.157
113.733
816.423
232.463
-251.762
-254.792
-793.344
732.254
61.0903
5.36015
813.813
-819.174
923.217
-923.217
-379.157
17.4962
602.832
37.1417
-109.207
-13.8944
-199.65
213.545
437.773
27.9915
-465.764
-437.226
23.1455
414.08
187.707
972.162
-453.283
-234.638
41.9514
192.687
-626.866
630.94
-4.0734
406.434
-470.449
64.0148
-431.209
-6.0164
53.8044
-758.999
705.194
-637.421
-59.2689
-550.358
518.644
31.714
-359.983
256.264
14.7496
-235.624
220.874
-144.287
-149.102
-29.9845
225.653
-39.0561
61.9938
268.209
-278.322
-72.0295
791.616
368.699
-53.7561
-768.816
33.4399
-890.032
814.413
75.6186
123.855
261.529
397.078
141.519
-751.695
858.379
335.271
180.653
-515.924
-167.316
594.468
-644.073
49.6044
466.006
57.5348
-523.541
627.476
-333.591
-293.884
-463.562
-118.604
-779.897
674.984
30.8628
-682.968
652.106
-711.395
108.532
602.863
-765.862
-3.52367
18.0949
508.721
-87.4939
-511.241
356.471
537.858
-578.566
-35.4741
-68.9306
235.896
-166.965
25.1684
-664.933
-239.023
-239.684
170.753
-31.5494
271.356
-121.604
-149.752
150.173
-11.1329
-629.845
726.664
-17.4012
192.242
-174.841
869.873
-628.576
10.8423
146.836
171.839
1.01593
397.727
-398.743
-227.477
-188.031
415.508
180.948
763.525
380.314
-355.822
-841.696
7.45638
626.428
-609.872
0.486253
-803.933
803.447
589.575
16.1457
-605.721
836.657
44.6303
-881.287
314.339
-14.497
128.862
-406.485
426.471
9.4019
-255.868
335.758
-79.8901
199.59
382.126
-90.6978
611.772
-56.2736
-555.498
-754.089
778.011
-23.9227
15.0649
636.144
-651.209
-644.921
112.428
-7.75752
-442.691
598.684
34.7294
324.042
-31.6962
193.242
-93.6287
-338.001
2.15144
95.9807
742.963
4.60762
-279.243
274.636
-423.644
-505.505
-57.4623
-757.737
815.199
227.954
-40.9547
201.067
-262.288
61.2203
210.086
-97.2699
-225.281
-516.88
-581.32
-791.78
-18.0326
-174.103
-815.764
776.452
39.3128
-34.6504
470.115
-435.465
59.7829
821.341
-881.124
203.636
-136.201
773.532
26.9651
-219.791
205.896
21.0399
-309.038
287.998
575.746
-573.884
-645.486
154.323
491.163
-533.476
588.333
-54.8563
33.9793
259.884
-665.142
-441.765
608.552
45.8449
-654.396
-721.927
606.772
-679.225
72.4536
-167.422
-22.9992
450.229
-484.435
-845.993
851.353
103.799
-307.575
-588.795
-642.543
593.338
49.2045
185.816
-79.5585
-44.2245
456.74
170.736
-567.045
51.8964
514.166
-527.68
13.5136
72.9942
-717.697
644.703
269.445
-16.6641
-316.822
167.718
149.104
-560.799
568.948
-120.444
443.868
-323.424
681.455
-86.9871
2.15535
-319.703
317.548
-446.733
-442.793
889.526
-161.507
245.838
-84.3315
-100.245
-580.135
-551.14
401.111
150.028
399.559
-30.8344
-368.725
-6.08713
172.64