/*--------------------------------*- C++ -*----------------------------------*\
  =========                 |
  \\      /  F ield         | OpenFOAM: The Open Source CFD Toolbox
   \\    /   O peration     | Website:  https://openfoam.org
    \\  /    A nd           | Version:  7
     \\/     M anipulation  |
\*---------------------------------------------------------------------------*/
FoamFile
{
    version     2.0;
    format      ascii;
    class       volVectorField;
    location    "2.5";
    object      U;
}
// * * * * * * * * * * * * * * * * * * * * * * * * * * * * * * * * * * * * * //

dimensions      [0 1 -1 0 0 0 0];

internalField   nonuniform List<vector> 
7807
(
(1.03584 0.0804956 2.13215e-20)
(1.03157 -0.0252139 5.90234e-21)
(0.992233 0.0573711 -3.75015e-20)
(1.01851 0.0395906 5.49562e-20)
(0.999458 -0.000531462 -9.95153e-23)
(0.999978 -7.42928e-06 -8.39023e-24)
(0.989693 0.0483334 -7.16462e-20)
(0.997079 -0.00100967 -2.30276e-23)
(0.999921 -0.000106316 -1.66427e-23)
(1.01455 -0.00136921 -2.59797e-21)
(0.99998 -8.473e-06 9.25838e-24)
(1.00128 -0.000826607 -3.65857e-22)
(0.995424 -0.00143197 1.05197e-21)
(1.00937 -0.00114971 -1.66432e-20)
(1.01357 -3.84074e-05 1.09766e-20)
(0.994518 -0.00842104 -2.35601e-21)
(1.03646 0.0854411 -4.49129e-20)
(0.993881 -0.00177312 -3.73627e-22)
(1.00139 -0.00518276 -5.99874e-23)
(0.988627 -0.0579252 -2.1476e-21)
(1.01961 -0.000835065 -5.84859e-21)
(1.00082 -0.000346745 6.67987e-22)
(1.01013 -0.00232155 1.41638e-21)
(1.00667 0.0168236 -2.77124e-20)
(0.991816 -0.00216989 -1.72473e-21)
(1.03331 0.0789942 -2.09655e-20)
(0.999446 -0.000504917 -7.22946e-23)
(1.01419 -0.000119591 6.60666e-21)
(1.00382 0.00896489 -3.60375e-21)
(1.00171 -0.00580455 3.64388e-23)
(0.992832 -0.00906154 -4.36414e-21)
(0.934046 0.0128646 9.56858e-21)
(1.0089 -0.00252194 8.83689e-21)
(0.999731 -0.000222108 1.15265e-22)
(0.999947 -3.15903e-07 1.68179e-25)
(1.01284 0.000431017 3.847e-21)
(1.00264 -0.00622506 7.43e-23)
(0.991022 0.045703 -1.15027e-20)
(0.998367 -0.00470123 1.96608e-21)
(0.999806 -2.46725e-05 9.76878e-23)
(0.998234 -0.00472012 -2.26695e-22)
(0.994878 -0.00746006 -8.811e-22)
(1.00454 -0.0644324 8.89019e-21)
(1.09264 -0.0298991 -8.20115e-22)
(0.999899 -1.88516e-06 3.0675e-23)
(0.999956 -1.09909e-05 -8.64298e-24)
(1.00069 -0.000319279 -4.08712e-22)
(0.997514 -0.00375572 -1.15431e-21)
(0.999964 -1.75161e-05 -7.23164e-24)
(0.991218 -0.0584298 3.09604e-21)
(1.00184 -0.000723796 4.03983e-22)
(1.0141 0.000593841 -6.85593e-21)
(0.989326 -0.00254539 -5.91812e-21)
(1.00672 -0.0187573 1.75121e-22)
(1.01177 -0.00116434 -2.28519e-21)
(0.997375 -0.00148061 -1.97455e-22)
(1.00074 -0.00538619 1.82534e-22)
(0.997176 -0.000804502 1.3931e-21)
(0.986547 -0.0108198 -7.7461e-21)
(0.99974 -0.000199889 -1.46873e-22)
(1.00002 -1.38164e-05 -1.22268e-23)
(1.00244 -0.000547041 4.58359e-22)
(1.01034 -0.000845988 -3.90454e-21)
(1.00137 -0.000751945 3.703e-22)
(0.99949 -0.000123308 2.02636e-22)
(0.99282 -0.00959895 7.57704e-22)
(0.999949 -0.000112301 1.33566e-23)
(1.00001 -1.25691e-06 8.25425e-25)
(1.09137 0.0488748 1.24749e-20)
(0.997467 -0.00378278 -3.41554e-22)
(0.999961 -1.14315e-05 7.75657e-24)
(0.981763 -0.0340936 -1.51486e-20)
(0.992079 -0.00238458 8.57118e-22)
(0.985169 -0.00265368 1.16822e-21)
(0.994045 -0.00195749 1.17956e-21)
(0.979059 -0.0156657 -1.75427e-21)
(0.994205 0.0586406 6.02017e-20)
(1.01833 -0.00108663 7.43559e-21)
(1.05104 0.000430425 -1.65882e-20)
(0.972179 -0.0273928 -1.90646e-20)
(0.995595 -0.00156091 -1.61654e-21)
(0.998322 0.0266398 7.0514e-20)
(1.02086 0.00432953 1.76336e-20)
(0.984456 -0.00551996 5.61684e-21)
(0.999228 -0.00143389 -1.75499e-22)
(0.998699 -0.000148008 1.52613e-22)
(0.996894 -0.00134636 1.99412e-21)
(0.989668 -0.00288773 3.79456e-21)
(0.999613 -0.000673713 1.10024e-22)
(0.997516 -0.000378639 5.77085e-22)
(1.00381 0.0102518 2.64688e-20)
(1.11398 -0.018951 1.7534e-21)
(0.99993 -3.16132e-05 -1.91109e-23)
(1.00105 -0.00448948 6.97834e-23)
(0.998003 -0.000551954 5.31345e-22)
(0.984949 -0.00157337 -9.25062e-21)
(0.983378 -0.0337554 9.23764e-22)
(1.00735 -0.0177475 3.66008e-22)
(0.999281 -0.00142337 5.80097e-23)
(0.999407 -7.18527e-05 7.01522e-23)
(0.970118 -0.00876225 4.42989e-21)
(1.05231 0.00433796 1.33826e-20)
(0.998158 -0.000667393 -1.31804e-21)
(0.999986 -9.00348e-08 -6.59443e-25)
(1.1171 -0.010836 1.18286e-21)
(1.01704 0.0160038 -2.57019e-20)
(0.962866 0.0122315 1.12639e-20)
(0.997155 -0.00139728 -7.94382e-22)
(0.999995 -1.12593e-06 1.83717e-25)
(1.01457 -0.00702171 -3.05993e-21)
(1.02272 0.0374805 -6.38321e-20)
(1.01553 -0.0484668 -9.60059e-21)
(0.999994 -1.05175e-06 -2.69601e-25)
(1.01629 -0.00669332 -6.69247e-22)
(1.01453 0.0159838 2.7018e-20)
(1.00021 -0.000308839 -2.87322e-23)
(1.04141 -0.0565357 -1.65866e-22)
(1.01761 0.00919571 -6.25012e-21)
(0.989273 -0.0267025 6.51386e-21)
(0.984787 -0.00337927 -1.25303e-21)
(0.96838 -0.00519973 -1.04673e-20)
(1.00021 0.0238953 -4.56899e-20)
(1.00821 -0.0631142 -1.2212e-20)
(1.00495 -0.00427635 2.26614e-22)
(0.969398 -0.00623328 4.07139e-21)
(0.999471 -0.000743441 2.50069e-22)
(0.992595 -0.00665736 1.40174e-21)
(1.00174 -0.00523863 -1.17867e-22)
(0.999449 -0.000111321 -4.52926e-22)
(0.991973 -0.00809966 8.06928e-23)
(1.14078 -0.0326556 4.67007e-23)
(1.04684 -0.000795083 2.79136e-21)
(0.999669 -0.000279049 1.2719e-23)
(0.999561 -0.000690736 -2.18134e-22)
(0.983734 -0.00499565 1.6274e-21)
(1.02111 0.0298289 2.37164e-20)
(0.994848 0.0181447 7.81295e-20)
(0.999986 -2.19755e-06 -7.8234e-25)
(1.00475 -0.00161441 2.00545e-22)
(0.956777 -0.00583279 -1.33142e-20)
(0.985952 -0.00167178 -4.77638e-21)
(0.992288 -0.0375135 -9.55254e-21)
(0.979305 -0.016986 2.3799e-21)
(0.985896 -0.00237956 -1.0935e-22)
(0.961967 0.00964853 4.26954e-20)
(1.00711 -0.0277379 -3.36437e-22)
(1.00765 0.00965785 -1.35791e-20)
(0.987753 -0.0135398 -4.03333e-21)
(0.979244 -0.00258517 1.31328e-21)
(0.999397 0.0251694 -2.28388e-20)
(1.01377 0.00222778 9.67244e-21)
(1.10509 -0.0201358 1.69773e-21)
(0.99906 -0.00111404 -5.8561e-22)
(1.09602 0.0421063 2.5551e-21)
(1.02068 0.0034124 -1.82322e-20)
(0.999683 0.0484196 -5.96918e-20)
(0.975357 -0.0183632 7.33615e-21)
(0.995447 -0.000897064 3.50608e-22)
(0.966905 0.0331961 1.01518e-19)
(0.999965 -1.2811e-05 -6.79722e-24)
(1.00067 -0.00455424 4.89725e-23)
(1.00737 0.0190876 1.98215e-20)
(0.999988 -1.07451e-05 4.36917e-24)
(0.998977 -0.00298531 -9.38615e-22)
(0.997819 -0.000551737 -2.52797e-22)
(1.00265 0.0201948 -6.40376e-21)
(1.00173 0.021833 2.3538e-20)
(0.961325 0.0384134 3.39126e-20)
(0.999041 -0.00295167 -5.64873e-22)
(0.998214 -0.000142908 -2.66441e-22)
(1.00001 -2.06801e-07 -7.44771e-25)
(0.968542 -0.00274308 -1.76156e-20)
(1.00019 -0.00027897 3.9666e-23)
(1.03455 -0.023107 -6.88872e-21)
(1.00493 -0.00183849 1.32506e-21)
(0.979429 -0.0032516 2.77862e-21)
(1.11046 -0.00298903 4.29633e-21)
(1.06005 0.0460985 1.00265e-21)
(0.999926 -3.24586e-05 1.04664e-23)
(0.999689 -0.000365338 -1.37579e-22)
(1.0167 0.0409541 -9.70384e-21)
(0.999966 -1.1681e-05 -3.23655e-24)
(0.999938 -5.43876e-06 4.81625e-24)
(0.989452 0.050208 -5.97464e-20)
(1.03137 -0.0270121 1.96835e-21)
(1.00755 -0.0395828 -5.55139e-21)
(0.990585 -0.0259935 -9.25032e-21)
(0.986202 -0.00390556 3.56298e-21)
(1.00523 -0.028974 6.11857e-22)
(0.958401 -0.00436444 7.01454e-21)
(0.999988 -1.04752e-05 -1.5153e-24)
(0.983653 -0.0315997 -3.63872e-21)
(1.06297 0.0517256 -2.27868e-20)
(0.998116 -0.000798692 1.88303e-22)
(1.00005 -2.21122e-06 -9.29722e-24)
(1.04215 0.0471635 2.20223e-21)
(0.999318 -0.000197561 4.97672e-22)
(0.992375 -0.0082039 2.23502e-21)
(1.0041 -0.0275744 2.03828e-21)
(1.00001 -1.8316e-06 -3.39884e-25)
(1.00041 -0.00118938 -1.62531e-22)
(1.01875 0.0302113 2.88366e-20)
(1.04977 0.053622 -2.82719e-20)
(0.996944 0.0419852 -7.98664e-21)
(1.03895 -0.0531992 2.95948e-21)
(1.01698 -0.0461268 2.24121e-21)
(1.07084 -0.079425 -8.69822e-22)
(1.01324 -0.00288018 1.9631e-20)
(1.01658 0.0316648 -9.30864e-21)
(0.999881 -9.49648e-06 -3.55252e-23)
(1.00002 -1.06389e-05 3.21387e-24)
(0.974428 0.00456479 -4.26832e-20)
(0.995735 -0.00742998 -8.31616e-22)
(0.999666 -0.000256971 -1.26348e-22)
(0.985092 -0.0310251 7.53333e-21)
(0.992169 -0.00701396 -1.6262e-21)
(1.00562 0.0438878 -6.80325e-20)
(1.00255 0.0429008 -1.4307e-20)
(0.990045 -0.038671 2.60742e-21)
(0.943796 0.0228886 -3.69842e-20)
(0.999374 -0.000243597 -3.67696e-22)
(0.993937 -0.00130684 1.30137e-21)
(0.968988 -0.00779938 5.75057e-21)
(1.01985 0.00191229 -4.17194e-21)
(1.00679 -0.0803329 -1.19044e-21)
(1.0501 0.0821367 -4.71547e-20)
(0.967655 0.0289761 -8.66919e-20)
(1.00004 -6.18202e-05 9.82501e-24)
(1.00497 -0.00438278 6.65475e-22)
(1.01612 0.0112788 3.37291e-20)
(0.997747 -0.0033428 -1.45085e-21)
(1.01886 0.00999013 -4.29724e-21)
(0.999689 -0.000710582 -4.2097e-23)
(0.949559 0.042023 6.80446e-20)
(1.00009 0.0442621 1.28596e-20)
(0.996948 -0.0010874 1.24639e-21)
(1.00236 -0.00474494 -2.31463e-23)
(0.999814 -5.21423e-05 -1.82018e-22)
(1.07481 0.0667464 1.22568e-20)
(0.999945 -1.10711e-05 1.41173e-23)
(0.996641 -0.00636512 6.65819e-22)
(0.961653 -0.0166728 8.2445e-21)
(0.999959 -1.35148e-05 -3.21219e-24)
(0.999333 -0.00163171 -1.55959e-22)
(0.999761 -0.000715673 6.81817e-23)
(1.03696 0.0264454 2.65562e-20)
(0.999989 -1.35149e-05 5.42691e-24)
(0.997444 -0.000289813 1.73929e-25)
(0.973568 -0.0272127 2.21258e-20)
(0.937099 0.00780284 -2.0975e-20)
(1.04675 -0.00373098 -3.70289e-21)
(0.956019 0.0276197 5.09974e-20)
(0.999975 -6.5756e-06 -7.67283e-24)
(1.00315 -0.0281371 -6.98109e-23)
(0.999895 -0.000170853 -4.91788e-23)
(0.99654 0.0501497 -5.93615e-20)
(1.00195 -0.000335064 -5.93886e-22)
(0.993246 0.0162878 2.5842e-20)
(1.00188 -0.0062844 -3.16151e-22)
(1.00033 -0.00111729 1.65736e-22)
(1.01731 -0.0211581 -1.29337e-21)
(1.01311 -0.00169655 -1.8176e-20)
(1.00031 -0.000189437 8.63671e-23)
(0.999872 -3.18733e-05 9.88376e-25)
(1.00026 -0.000258444 1.92168e-22)
(0.997643 -0.00356358 -1.28888e-21)
(1.011 -0.0423296 6.25025e-21)
(0.999976 -8.5e-06 5.17129e-24)
(0.976418 -0.0176721 5.10858e-21)
(0.997904 -0.000681254 -5.4161e-23)
(0.999915 -3.31887e-05 2.01743e-23)
(0.999671 -0.00031859 4.17657e-23)
(0.988933 0.0291945 6.2819e-20)
(0.995471 -0.000404584 4.89625e-22)
(0.999588 -9.07898e-05 -3.9788e-23)
(0.9568 0.00330655 7.92429e-20)
(0.999284 -0.00162717 -3.41374e-22)
(1.03178 0.0596502 -2.42816e-20)
(0.999884 -0.000168325 8.59339e-23)
(1.00507 -0.0146939 -1.10867e-22)
(1.00001 -4.34049e-07 -2.77481e-25)
(0.988813 -0.0216926 -3.66173e-21)
(1.01985 0.00236353 6.43743e-21)
(1.11258 0.003052 -1.11914e-20)
(0.986565 -0.011573 6.55739e-21)
(0.999783 -0.000383197 1.62057e-22)
(0.987575 -0.0490145 4.97194e-21)
(0.994776 -0.000142047 2.329e-21)
(0.999895 -1.89164e-05 1.90555e-24)
(1.00023 -0.000217912 -1.70104e-22)
(0.99875 -0.00200355 4.80229e-22)
(0.995426 -0.000720177 -1.49511e-21)
(1.00193 -0.000487109 -6.86985e-22)
(0.999294 -0.00120354 2.07606e-22)
(0.985319 -0.00510499 8.88054e-22)
(1.01422 -0.0394596 -4.59695e-21)
(0.985501 -0.00415141 3.84331e-21)
(1.08737 -0.0250915 3.36888e-22)
(0.980515 -0.00445783 -4.98628e-21)
(1.00523 0.0591654 6.88241e-21)
(1.00258 0.0610327 -5.09357e-20)
(0.999191 -0.000444058 -3.28073e-22)
(1.12896 -9.43736e-05 1.20258e-20)
(0.99999 -2.20941e-06 -4.419e-25)
(0.99868 -0.00238145 -5.86944e-22)
(0.985921 -0.000842582 9.45723e-21)
(1.00495 0.0138008 1.65301e-20)
(1.02417 0.00541445 -1.70577e-20)
(1.00006 -2.49006e-05 2.13428e-23)
(0.998669 -0.0024115 -4.20507e-23)
(0.981263 -0.00507048 3.7573e-21)
(1.02963 0.0233634 -1.01874e-20)
(0.999453 -0.000722291 1.81061e-22)
(1.00194 -0.000597435 3.9205e-22)
(1.00071 -0.000548424 -3.22179e-23)
(1.07618 0.0139426 1.78807e-20)
(1.14036 -0.0416466 -1.1527e-21)
(1.0135 0.0734 3.43878e-20)
(0.999117 -6.14731e-05 -3.09271e-22)
(1.03921 -0.0266706 -5.69761e-21)
(0.999936 -4.15093e-05 -1.69496e-23)
(1.00292 -0.00430884 -1.2746e-21)
(0.999969 -6.72967e-06 -2.268e-24)
(0.990751 -0.0128656 1.12557e-21)
(0.999808 -4.07579e-05 -3.49914e-23)
(1.00734 -0.0131644 3.30779e-22)
(1.146 0.000621989 -9.53161e-21)
(0.98325 -0.0168567 8.07558e-21)
(1.0054 -0.0139228 -8.32136e-23)
(1.00489 -0.00369999 -8.53545e-22)
(0.999589 -0.000107385 1.7953e-22)
(1.0163 -0.0112111 2.19314e-21)
(0.997421 -0.0114173 1.14778e-21)
(1.04828 0.00812279 -7.57586e-21)
(1.03388 0.0258918 1.18278e-20)
(1.10539 -0.0901423 -1.91729e-22)
(1.09132 -0.0348373 8.52176e-22)
(0.992089 -0.000212126 -2.52552e-21)
(1.0029 -0.00215466 1.26864e-21)
(0.963126 -0.0157636 -3.1488e-21)
(0.957925 0.0376063 -1.04294e-19)
(1.07533 -0.0357717 -3.17238e-21)
(1.01539 -0.00624711 -8.57632e-21)
(0.947189 0.0253556 -5.10132e-20)
(0.999115 -1.13426e-05 1.52332e-22)
(0.999001 -0.000567054 -1.0302e-22)
(1.10312 -0.0270368 1.60336e-21)
(0.999358 -0.00119015 -1.2487e-22)
(1.00714 -0.0259706 5.08216e-22)
(1.00347 -0.0013051 4.49623e-22)
(0.998308 -0.000299212 -2.31467e-22)
(0.998719 -0.000284164 -3.78056e-22)
(1.01734 0.0158994 1.97912e-20)
(0.99996 -9.25091e-05 -1.8905e-24)
(1.00028 -0.000138756 -7.69566e-23)
(1.00005 -1.17855e-05 1.58672e-23)
(0.998032 -0.000515611 1.31794e-21)
(0.995922 -0.00530743 1.81799e-21)
(0.99999 -2.51758e-06 3.8088e-25)
(0.999393 -0.00014583 3.99867e-23)
(0.987116 -0.0102404 2.28965e-21)
(0.973979 0.00528238 2.66754e-20)
(1.00669 -0.0146077 1.02197e-22)
(0.995763 -0.0065064 2.97789e-21)
(0.977452 0.0305368 1.20474e-20)
(1.00026 0.0240365 4.14758e-20)
(1.04083 -0.00132314 -6.0762e-21)
(1.12229 0.0043759 -4.79652e-21)
(0.971329 -0.0018206 9.54446e-21)
(1.003 -0.00232735 -6.22062e-22)
(1.00432 0.0233333 -2.27959e-21)
(0.993314 -0.00139196 -3.09668e-21)
(1.01898 0.0575019 1.17147e-21)
(1.00512 -0.0316569 7.59167e-23)
(1.02069 -0.0727248 -3.96479e-21)
(1.04748 0.0522813 1.72487e-20)
(1.01994 0.0613849 -3.03075e-20)
(0.977591 -0.015215 1.13213e-20)
(1.02693 0.00450687 -1.11572e-20)
(1.05265 0.0853024 4.44925e-20)
(1.02838 0.0597087 4.48042e-20)
(1.01317 -0.00173939 6.22379e-21)
(0.998273 -0.000877757 3.06185e-22)
(0.997528 -0.00131796 2.76302e-22)
(0.999948 -9.78624e-06 -7.64446e-24)
(1.01019 -0.0172472 2.55133e-22)
(0.993286 -0.00111738 7.51678e-22)
(1.00056 -0.0015546 -1.44613e-22)
(0.999938 -1.3212e-05 -1.41551e-23)
(0.999016 -0.000440551 1.27731e-22)
(0.986029 -0.0481991 -8.1492e-21)
(1.06645 0.0220815 7.43355e-21)
(0.989487 -0.00344333 -4.38322e-21)
(0.999452 -0.00795719 1.29997e-21)
(0.997849 -0.000320325 -7.07107e-22)
(1.03899 -0.0269806 1.74808e-22)
(0.995721 -0.000899366 -2.41861e-21)
(1.00132 -0.0042956 4.23163e-22)
(1.06302 0.0834431 7.11045e-21)
(0.998886 -0.000203928 -8.92427e-22)
(0.999988 -2.56996e-05 -4.14542e-24)
(0.999967 -0.000111147 -2.55287e-24)
(1.00003 -6.56118e-05 1.20561e-23)
(0.986823 -0.0045018 2.04068e-21)
(1.0167 0.0127943 -2.35429e-20)
(0.99765 -0.000234508 2.88725e-23)
(1.01309 -0.00553947 5.51575e-21)
(1.01065 -0.0843354 7.98066e-21)
(0.993265 0.0418304 -1.04125e-21)
(1.00239 -0.00481891 4.10168e-22)
(1.00426 -0.00248528 -2.15944e-22)
(0.99708 -0.00154351 -1.00011e-21)
(0.995035 0.0293482 -6.16395e-20)
(0.9994 -5.26287e-06 1.24729e-22)
(1.01562 0.075929 -1.7638e-20)
(1.00691 0.00966182 -2.60632e-20)
(0.999934 -1.72662e-05 1.67686e-23)
(1.00429 -0.0323681 -3.47992e-21)
(0.99815 -0.000535527 -6.42366e-22)
(0.994374 -0.0377049 1.17077e-20)
(1.0003 -6.18896e-05 7.75785e-23)
(1.03683 0.00122001 8.47133e-21)
(1.00439 -0.00982809 -1.16359e-23)
(1.00373 -0.0021389 9.14483e-23)
(0.999498 -7.97136e-05 -2.42424e-22)
(1.04393 0.024166 1.31621e-20)
(1.02636 0.02281 4.06872e-21)
(1.00534 -0.0416314 5.59258e-21)
(0.987523 -0.012151 -4.41827e-22)
(0.998697 -0.00215706 -4.09406e-22)
(0.999495 -0.0246663 -6.4399e-21)
(1.09214 0.0349642 -1.66265e-20)
(0.936828 0.0168347 -4.67878e-20)
(1.05113 -0.0513388 -2.05607e-21)
(1.00292 -0.00484752 -1.78836e-22)
(0.999996 -6.87829e-07 -1.48359e-25)
(0.991996 -0.00283335 -3.44926e-21)
(0.998673 -0.000177127 8.12938e-22)
(1.01657 -0.00971824 3.17144e-21)
(1.00165 -0.0676166 -3.68212e-21)
(1.12688 -0.00944565 -3.50226e-21)
(0.988375 0.0400225 -7.75505e-20)
(1.03234 0.0209905 1.69864e-20)
(1.07289 -0.0714792 4.08569e-21)
(1.04195 0.0517741 7.26101e-21)
(0.998665 0.0228661 7.29535e-20)
(1.0122 -0.00199242 4.52769e-21)
(1.00066 -0.00139777 3.37748e-22)
(1.01249 0.0320052 1.42558e-20)
(0.999473 -0.00124181 2.72269e-22)
(0.999896 -9.12663e-05 1.80933e-23)
(0.989381 -0.0011241 1.1528e-21)
(1.00006 -2.1569e-05 3.97241e-24)
(1.07666 -0.0853837 2.80615e-21)
(1.00231 -0.0111592 -3.77318e-22)
(0.990768 -0.0212139 6.25412e-21)
(1.00107 -0.00103204 1.84119e-22)
(1.03838 0.0445162 3.7146e-20)
(0.998922 -0.000158972 -7.18372e-23)
(0.999986 -2.03075e-05 -3.71384e-25)
(1.01625 -0.0755994 4.42125e-21)
(1.00096 -0.000742872 -1.06624e-22)
(1.0668 -0.00288327 -1.85697e-21)
(0.971673 -0.0082236 2.07216e-21)
(0.958322 -0.00958412 9.96368e-22)
(1.1343 0.0363528 -1.51232e-21)
(1.01486 0.00958384 -8.81824e-21)
(1.01305 0.00234227 5.4099e-21)
(1.01201 0.0022539 -2.19034e-21)
(0.999881 -2.48925e-05 5.85777e-24)
(1.07195 0.0222406 6.05602e-21)
(1.04902 0.00999534 8.79433e-21)
(0.999708 -0.000365071 6.4945e-23)
(0.989996 -0.00376567 5.07161e-21)
(1.00037 -0.000115654 -8.63652e-23)
(1.0071 -0.0120724 -1.93152e-21)
(1.00616 -0.0166943 -2.23724e-22)
(1.00281 -0.00089271 7.11865e-24)
(0.999567 -0.0007737 -3.04607e-22)
(1.07501 0.0616967 -3.75407e-20)
(0.999988 -1.3356e-05 -6.15719e-24)
(1.00012 -5.5954e-05 -2.16361e-23)
(1.00129 -0.000553212 -7.67526e-24)
(0.986301 -0.00150831 3.33009e-21)
(1.01125 -0.00658183 3.80658e-21)
(0.989884 -0.0175863 -8.73543e-21)
(0.983168 -0.00243059 -1.93339e-21)
(1.00969 -0.0394264 3.12772e-21)
(1.02282 -0.0907205 -8.44363e-21)
(1.01632 -0.0182931 8.9749e-22)
(1.01679 0.0326248 -8.2469e-20)
(1.1398 0.00574141 5.53124e-21)
(0.996161 -0.00147431 -1.47985e-22)
(0.947843 0.0387517 8.00463e-20)
(0.984648 -0.0347533 1.32556e-20)
(0.995983 -0.00547304 5.76099e-22)
(0.983432 -0.00198079 3.21706e-21)
(0.998775 -0.0114015 -3.1361e-22)
(0.987402 -0.00126495 5.0023e-21)
(0.994001 -0.00233554 -9.78999e-22)
(1.01618 -0.00935893 -5.95479e-21)
(1.08021 -0.0375675 9.25975e-22)
(0.999985 -2.56807e-05 -5.68418e-25)
(1.01322 -0.00817908 -6.66444e-22)
(0.999942 -1.75147e-05 -8.18064e-24)
(1.00218 0.0500209 1.60468e-20)
(1.09174 0.0535717 2.89375e-20)
(0.997113 -0.00115234 3.14545e-22)
(0.991629 -0.00100279 -4.33963e-21)
(0.999889 -3.23921e-05 -4.19356e-23)
(0.996289 0.0262473 4.65318e-20)
(1.01242 0.0589536 3.95786e-20)
(1.07363 0.0150347 -9.73991e-21)
(1.07961 0.0801198 -3.2356e-20)
(0.984479 -0.0372744 -5.6399e-21)
(0.999544 0.0114845 -6.63428e-20)
(0.999963 -7.5288e-05 8.96334e-24)
(1.03052 -0.0157337 8.0953e-21)
(0.989825 -0.000724104 -1.88368e-22)
(1.05536 0.0435908 -8.17525e-21)
(0.962396 0.0275327 -6.21484e-20)
(1.095 0.0301862 2.24045e-20)
(1.03021 0.0183763 2.89288e-21)
(1.00005 -0.00779764 -2.65379e-22)
(0.999889 -4.80387e-05 -3.97295e-23)
(1.08039 0.0686518 1.3346e-20)
(1.13043 -0.0259508 -7.04365e-22)
(0.996241 0.0295399 -1.59536e-21)
(1.06069 -0.00508532 1.64783e-20)
(1.01929 0.0277633 2.41421e-20)
(0.995799 -0.00127428 -4.50641e-22)
(0.992842 0.0399541 2.14007e-20)
(1.01546 0.0563847 1.40649e-20)
(0.9948 -0.00193451 -2.73072e-21)
(0.995563 -0.00183898 -1.02116e-21)
(1.09019 0.0639337 7.18957e-22)
(0.956874 -0.00861345 -1.4194e-20)
(0.999948 -8.83553e-05 -1.38655e-23)
(0.992425 -0.00308799 4.47278e-21)
(0.960003 -0.0131417 1.05683e-20)
(0.99276 -0.0472869 -1.73221e-21)
(1.00563 -0.0019115 -3.76998e-21)
(1.00418 -0.00340443 2.36842e-22)
(0.999923 -0.000106477 -2.59106e-23)
(1.01276 0.0631462 -5.97223e-20)
(1.00034 -0.00630748 4.58325e-23)
(0.999939 -3.24867e-05 7.51899e-24)
(1.01352 -0.0372022 3.20718e-21)
(0.999712 -0.000246135 5.30203e-23)
(0.999871 -4.52597e-05 3.03402e-24)
(1.00319 -0.00751841 -2.04486e-22)
(1.03242 0.0424478 4.94267e-20)
(1.01113 -0.0669561 6.21642e-21)
(0.971522 0.0282497 3.70546e-20)
(1.00004 -9.85557e-06 -1.09503e-23)
(1.03423 0.0467704 -5.1933e-20)
(1.00885 -0.0316165 2.72365e-21)
(0.999958 -0.000105024 -3.9829e-24)
(1.00001 -2.88101e-06 -3.2686e-24)
(1.00238 0.00624568 -4.35595e-21)
(1.02939 0.0372217 1.81531e-20)
(0.997745 -0.00142071 2.80821e-22)
(1.02792 0.0283605 -2.30036e-20)
(1.00002 -1.09318e-05 2.34128e-24)
(1.02797 0.031468 -3.24358e-20)
(1.09359 -0.0897147 5.53606e-21)
(0.994455 -0.00165555 2.95487e-21)
(0.999792 0.0176834 -9.28119e-20)
(0.985277 -0.0290947 8.72139e-21)
(1.08268 0.0762848 3.21506e-20)
(0.984149 -0.00225744 1.87994e-21)
(1.03034 0.0335299 4.22296e-20)
(1.03285 0.0394603 -1.3087e-20)
(0.990425 -0.00467029 7.46519e-21)
(0.987403 -0.00572471 -5.52812e-21)
(0.99705 -0.00558983 1.72084e-21)
(0.998351 -0.000378691 -2.14641e-22)
(0.999892 -0.000108915 4.95694e-23)
(1.00037 -0.00587709 -8.18791e-23)
(1.022 0.0541761 -7.06649e-21)
(0.999984 -2.00598e-05 1.61004e-24)
(1.02485 0.0272819 3.04855e-20)
(1.02018 -0.0674134 9.22733e-21)
(1.00168 0.0278009 1.88171e-20)
(1.02508 0.0249336 -3.43744e-20)
(0.958428 -0.0121115 -1.36048e-21)
(0.972744 0.0366781 -7.91345e-20)
(0.999096 -0.000638306 1.68107e-23)
(1.00973 -0.0160117 8.85673e-22)
(1.03285 -0.0486592 1.91902e-21)
(0.987967 -0.000987029 -3.15698e-22)
(0.996407 -0.00190101 1.36233e-21)
(1.00755 -0.0331925 -2.41859e-21)
(1.03262 -0.011371 -8.7712e-22)
(0.952505 0.0220817 9.61404e-20)
(1.00003 -1.31896e-05 1.16966e-23)
(0.99894 -0.000686509 2.53139e-22)
(1.01253 -0.0472315 1.16623e-22)
(1.00001 -2.5989e-06 3.92486e-25)
(1.00119 0.0545794 7.9174e-21)
(1.00087 -0.000684683 0)
(1.00001 -2.69858e-06 2.88794e-25)
(1.0001 -4.84305e-05 5.03216e-23)
(1.00025 -5.07904e-05 1.0677e-24)
(0.991159 -0.0116373 5.84561e-21)
(1.01194 -0.0103667 -2.28805e-21)
(0.999142 -0.000458245 3.91226e-22)
(0.999958 -7.03414e-06 1.51911e-23)
(0.996084 -0.00177631 7.39318e-22)
(1.00229 -0.0079233 -1.21953e-22)
(0.994197 -0.0710291 -9.97141e-21)
(0.964547 -0.00287641 9.82583e-22)
(1.01057 -0.00587373 6.68153e-21)
(0.999985 -1.46207e-06 4.2485e-24)
(1.06196 -0.0999736 1.00241e-20)
(0.992563 -0.00197947 -1.74402e-21)
(1.08055 0.0561539 -2.38372e-21)
(1.00044 0.0192159 -1.36488e-20)
(1.00061 -0.00219406 7.27591e-23)
(1.07273 0.0482951 -3.50375e-20)
(1.00008 -5.54924e-05 6.36759e-26)
(0.992988 -0.00236636 3.64114e-23)
(1.01324 0.000466437 -1.11039e-20)
(0.99635 -0.00211905 -5.59152e-22)
(1.03282 0.0506514 -2.86355e-21)
(0.99282 -0.00377468 -3.41335e-21)
(1.03095 -0.0167036 -6.89557e-21)
(1.01471 0.00256752 -1.19596e-20)
(1.03568 0.024122 -7.51928e-21)
(1.0044 -0.00921532 -8.42427e-22)
(0.994368 -0.0025064 8.04297e-23)
(1.04608 0.0448903 2.41328e-20)
(0.987477 -0.0522792 -9.08882e-21)
(0.995231 0.0520471 6.54815e-20)
(0.994973 -0.00274595 -3.26233e-21)
(1.03262 0.0683599 -1.37545e-22)
(0.995041 -0.002454 8.74687e-22)
(0.999361 -0.000284823 -2.59123e-23)
(1.0292 0.0184349 7.93248e-21)
(1.00902 -0.0185178 -6.46935e-23)
(1.02013 0.00237596 1.7177e-20)
(1.00086 -0.000541071 1.20267e-22)
(1.00001 -1.89105e-06 1.33956e-25)
(1.00267 -0.0819093 3.62164e-21)
(1.06146 0.0784752 -4.05827e-20)
(1.00083 -0.00212077 -1.0131e-22)
(1.07847 0.0497355 3.58418e-21)
(0.993178 -0.00349702 -2.22808e-21)
(1.05609 -0.103441 -2.95078e-21)
(1.02769 -0.0249231 1.31442e-22)
(0.989817 -0.0187908 4.94589e-21)
(0.999061 -0.000572917 -1.6734e-22)
(0.995192 -0.000510728 -5.88364e-22)
(0.984753 -0.0441589 -5.64823e-21)
(0.983002 -0.0053309 7.64995e-21)
(0.994666 -0.00228007 2.25504e-21)
(0.999918 -0.000248843 2.62128e-23)
(0.990747 0.0548021 -7.91046e-21)
(1.07059 0.0428743 2.16186e-20)
(1.01501 -0.00631481 -2.09158e-21)
(0.999893 -8.3325e-05 3.1902e-23)
(1.01468 0.0529683 -2.66297e-20)
(1 -1.32396e-05 4.44819e-25)
(0.999898 -7.01403e-05 6.19672e-23)
(1.06448 0.0416263 1.79605e-20)
(1.00709 -0.0148903 3.53355e-22)
(1.06948 0.0720678 3.42729e-20)
(1.01363 -0.0028274 4.68017e-21)
(1.01041 -0.00766555 -4.44947e-22)
(1.05835 -0.0418821 2.7503e-22)
(1.03283 -0.0845241 8.26176e-21)
(1.13376 0.0309108 -6.51225e-21)
(1.00068 -0.000522471 -2.57284e-22)
(0.972788 -0.00913879 -7.91378e-22)
(0.99999 -3.18606e-05 -1.24973e-24)
(1.00319 -0.00705828 1.47261e-22)
(1.03502 0.0515377 1.88096e-20)
(0.990874 -0.00436341 5.182e-21)
(0.998501 -0.000839274 3.54863e-22)
(1.00915 -0.0247198 -1.49399e-21)
(0.998951 -0.000609876 2.07951e-23)
(0.99978 -0.000612313 8.51624e-23)
(0.959681 0.00364588 1.66001e-20)
(0.994706 -0.00298935 -1.85727e-21)
(0.99975 -0.000436683 -2.23213e-22)
(0.99999 -7.31842e-07 -8.49961e-25)
(1.01054 0.00327813 2.34874e-20)
(0.984057 -0.0154213 -1.2478e-21)
(0.999821 -0.000328567 6.50843e-23)
(0.998505 -0.000479774 4.3885e-22)
(1.01414 0.0115806 9.55425e-21)
(1.04113 0.00600571 1.8795e-21)
(0.977535 -0.0137396 -7.03744e-21)
(1 -8.22131e-06 3.52264e-26)
(1.00166 0.0102386 6.22422e-20)
(0.992481 -0.0102709 -4.01185e-21)
(1.03901 0.0406118 -3.72527e-20)
(1.00736 -0.00110817 -5.82762e-21)
(1.0084 -0.000765908 1.33554e-20)
(0.981919 -0.00666489 1.05858e-20)
(0.999948 -3.83536e-05 -4.94835e-24)
(1.01382 -0.000209332 -2.17141e-21)
(1.04284 0.00449163 -2.85168e-21)
(1.11588 0.0357491 1.68216e-20)
(1.02435 -0.0639647 1.78202e-21)
(1.02008 0.0509701 2.146e-20)
(1.00362 -0.000869213 -8.7036e-23)
(1.05048 0.0486732 -3.32077e-20)
(1.00028 -0.00880976 -4.35454e-22)
(1.01127 -0.0356593 -6.30321e-21)
(0.999789 -9.12986e-05 -6.17353e-23)
(1.00188 -0.0115235 7.42467e-22)
(0.999941 -0.000252533 1.24186e-23)
(1.0259 0.0191043 -2.31192e-20)
(1.0417 0.0756555 -6.86881e-20)
(0.999191 -0.000694299 1.33141e-22)
(1.01046 -0.00738969 1.07203e-22)
(0.99012 -0.00251843 1.75554e-21)
(1.0274 -0.0557264 6.1508e-22)
(1.02356 -0.0590367 -4.62486e-21)
(0.999058 -0.000476413 2.57971e-22)
(1.0269 -0.0158688 -2.81004e-21)
(0.978874 0.000770637 -2.75984e-20)
(1.11302 0.0208648 1.28514e-20)
(0.999969 -9.10755e-05 2.0132e-23)
(1.03771 0.0048976 -6.9046e-21)
(0.998326 -0.00523498 -8.62117e-22)
(0.995053 0.00150509 6.13983e-20)
(0.993257 -0.00307954 3.06727e-21)
(0.997907 -0.0164693 -1.07256e-21)
(1.01058 -0.0218925 -1.15839e-22)
(0.996355 -0.0169974 -1.26604e-22)
(0.999005 -0.013268 -2.48677e-21)
(0.995864 -0.00197166 5.05683e-22)
(0.999882 -0.00876377 1.4104e-21)
(1.00109 -0.00386405 -1.10775e-22)
(1.03363 -0.0144367 1.95945e-21)
(1.00006 -2.2492e-05 -3.11477e-23)
(1.12314 -0.0678897 -3.2704e-22)
(1.10007 -0.0065337 3.29626e-21)
(1.00723 0.0601703 4.79127e-20)
(0.978655 -0.0129493 1.0588e-20)
(1.06365 0.0676454 -1.73098e-20)
(1.00108 -0.000438797 4.29789e-22)
(1.04339 -0.0478638 -1.39368e-22)
(1.00306 -0.0235846 -2.47635e-21)
(1.0124 0.0200588 2.68522e-20)
(0.996141 -0.00232533 1.31869e-21)
(1.00006 -0.000103988 1.96708e-23)
(0.992777 -0.0106038 5.23205e-21)
(0.997523 -0.00563583 -6.53156e-22)
(1.025 -0.016012 5.68585e-21)
(0.983753 -0.00389139 -6.33199e-21)
(0.98669 -0.00533491 1.84674e-21)
(1.07973 -0.0233773 2.10454e-21)
(0.991813 -0.00144906 -2.84696e-21)
(1.00896 -0.023106 9.42863e-22)
(0.993177 -0.0503454 6.43914e-21)
(1.00001 -4.79964e-06 2.2903e-25)
(1.0333 -0.00923056 1.08787e-20)
(0.994967 -0.045326 -1.74486e-20)
(1.06933 0.0581923 1.67201e-20)
(1.05863 -0.0472018 -1.04805e-21)
(1.01856 0.00193544 1.43895e-21)
(1.01582 -0.0647789 -1.25018e-20)
(1.01869 0.0677571 1.34831e-20)
(1.02122 -0.0219838 1.8717e-21)
(0.981085 -0.00610401 -6.24581e-21)
(1.00895 -0.0292571 -3.10381e-21)
(0.98278 0.00210559 2.68969e-20)
(1.09659 -0.0679666 2.38365e-22)
(0.992825 -0.00282739 -9.42528e-22)
(1.01624 -0.0815284 -9.48331e-22)
(1.01589 -0.0412144 3.93723e-21)
(1.02574 -0.0754267 -1.74454e-21)
(1.02591 -0.0515558 -4.2924e-21)
(1.04626 0.040946 3.02098e-20)
(0.998483 -0.000933042 2.27011e-23)
(1.00284 0.0227804 9.86619e-21)
(1.00454 -0.000824343 6.63042e-22)
(0.999777 -0.00031711 -9.13786e-23)
(0.999267 -0.00140882 7.40794e-22)
(1.03465 0.00145598 -2.65161e-21)
(0.977529 0.000610094 7.58343e-22)
(1.00087 -0.00394851 2.20471e-23)
(1.01125 -0.0331039 9.15809e-22)
(1.0137 0.0123727 -1.59032e-20)
(1.00001 -4.80007e-06 -5.93114e-25)
(0.987983 -0.0053696 4.385e-21)
(1.01299 -0.00557266 4.85202e-21)
(1.04599 -0.0257929 4.45172e-21)
(1.00451 -0.000711684 3.73373e-21)
(0.99906 -0.00107227 1.31056e-22)
(0.990504 -0.0245213 1.68379e-22)
(0.998681 -0.0051375 -2.66651e-22)
(1.00002 -2.50413e-06 6.35619e-24)
(0.986669 -0.0285446 -1.46988e-20)
(1.02662 0.0487317 -7.61451e-21)
(1.01183 -0.0193694 4.6273e-22)
(0.990613 -0.00291569 -3.20211e-21)
(1.00101 -0.000173026 -1.54372e-22)
(1.01602 0.0148087 2.09995e-20)
(0.999794 -0.000358655 -4.2825e-23)
(0.999308 -0.00036996 -1.4933e-23)
(0.999809 -0.000106376 -5.74463e-23)
(0.999564 -0.00127093 -1.97988e-22)
(1.10593 0.0363675 1.27799e-20)
(1.01765 -0.0236394 1.94689e-21)
(1.00498 -0.0113446 1.78115e-22)
(0.989877 -0.00433071 -1.53047e-21)
(1.00002 -3.07556e-05 6.08969e-24)
(1.04524 -0.0807788 1.01001e-20)
(1.13348 -0.0153782 3.38625e-22)
(1.04892 -0.0880631 -4.85222e-21)
(0.998273 -0.0206809 -2.0226e-21)
(1.00777 -0.00531948 4.2764e-21)
(0.999887 -5.55028e-05 2.53122e-23)
(0.993337 -0.0070246 -1.98265e-21)
(0.974982 -0.0288227 -8.71603e-21)
(1.10446 0.023132 5.34599e-22)
(1.00043 0.0275261 -6.51193e-22)
(0.999344 -0.00192246 1.63514e-22)
(0.966736 -0.0194653 4.88118e-21)
(0.997376 -0.0016716 -1.22672e-21)
(1.01992 -0.020583 -3.25132e-22)
(1.05429 0.0391099 3.47485e-21)
(1.00026 -8.21072e-05 -1.17836e-22)
(0.999919 -0.00011399 -1.08297e-23)
(1.08882 0.0681734 3.91816e-21)
(1.09983 0.00959995 -2.2934e-21)
(1.01212 -0.00968026 1.57833e-21)
(0.99841 -0.00104965 6.24201e-22)
(0.998904 -0.000182131 -5.68171e-23)
(0.979169 -0.0293415 2.13622e-21)
(0.999907 -0.000207976 -3.71627e-23)
(1.0103 -0.0205944 2.05037e-22)
(0.992736 -0.000700065 5.83405e-21)
(1.00047 0.0203954 -1.12726e-20)
(1.02897 0.0504671 -3.86019e-21)
(1.03983 -0.04414 8.01416e-22)
(0.997299 -0.0455229 6.51488e-21)
(1.0034 -0.000985337 1.83358e-21)
(1.00855 -0.0151779 -1.12829e-21)
(1.09501 -0.00170468 1.09223e-20)
(0.996564 -0.0507715 -3.97519e-21)
(1.01083 -0.027868 1.7399e-21)
(0.999999 -4.1855e-06 1.46137e-25)
(1.08546 -0.0119906 6.97462e-21)
(0.985219 -0.00138005 5.70233e-22)
(0.996085 -0.0566223 8.07409e-21)
(1.01129 -0.0180572 -1.86122e-21)
(0.974051 -0.00864363 -1.43235e-21)
(0.999794 -0.000191196 -2.95883e-23)
(0.998344 -0.00077924 -2.73485e-22)
(1.02236 0.0234677 2.65128e-20)
(0.982845 -0.00625501 -2.32404e-21)