/*--------------------------------*- C++ -*----------------------------------*\
  =========                 |
  \\      /  F ield         | OpenFOAM: The Open Source CFD Toolbox
   \\    /   O peration     | Website:  https://openfoam.org
    \\  /    A nd           | Version:  7
     \\/     M anipulation  |
\*---------------------------------------------------------------------------*/
FoamFile
{
    version     2.0;
    format      ascii;
    class       surfaceScalarField;
    location    "28.5";
    object      phi;
}
// * * * * * * * * * * * * * * * * * * * * * * * * * * * * * * * * * * * * * //

dimensions      [0 3 -1 0 0 0 0];

internalField   nonuniform List<scalar> 
29574
(
588.033
-435.419
-152.614
270.883
43.145
-314.028
947.365
-1138.58
191.215
-395.194
994.35
-599.157
-632.019
671.103
-39.0838
-687.274
55.2548
218.72
-42.7428
-175.977
643.487
-497.848
-145.639
206.565
-288.577
82.0122
89.106
554.381
-89.1625
259.182
-170.02
-292.478
293.686
-1.2076
-231.89
-21.0263
252.916
34.6587
553.374
620.822
-649.839
29.0177
-965.135
569.942
-317.005
356.978
-39.9726
-91.6743
-1033.69
1125.37
-259.336
229.793
29.5426
305.39
-34.5069
-306.162
293.917
12.2456
-31.3428
-261.135
-500.987
590.093
263.552
-323.765
60.2132
947.365
-353.162
62.0951
291.066
892.558
-976.484
83.9259
339.083
-146.01
-193.073
-159.856
-110.162
270.018
-114.613
-144.722
-592.311
740.772
-148.461
335.2
-280.38
-54.8208
409.678
-88.5702
-321.108
555.478
-293.98
-261.498
-717.034
780.479
-63.4448
-731.01
138.699
163.629
-395.099
231.47
932.346
-932.346
784.778
-344.344
-440.435
278.098
451.873
-729.972
1.61457
803.35
-804.964
-323.086
100.328
222.759
-885.476
728.923
156.553
973.873
-81.3155
-100.753
-252.409
116.403
72.4985
-188.901
1149.72
-491.282
-658.442
342.258
-245.942
-96.3158
842.861
-30.4368
-812.424
238.863
-228.236
-10.6273
-787.792
70.7579
45.7317
-759.296
713.564
-301.666
-128.343
430.009
763.104
-835.44
72.3353
177.178
-397.16
219.982
15.0244
-208.885
193.861
379.197
-108.995
-270.202
694.724
-751.235
56.5111
-60.9323
-293
353.932
-86.6863
-230.319
-645.41
402.555
242.855
-50.2759
244.298
-194.022
479.582
-482.161
2.57887
-206.943
-374.021
580.963
-697.611
828.067
-130.455
-714.575
106.92
607.655
541.808
-568.343
26.5351
-650.472
-64.1029
-179.334
-356.576
535.91
-110.606
-101.425
212.032
359.758
-554.324
194.567
334.462
-228.702
-105.76
675.074
-54.2525
-270.491
-37.4546
307.946
1063.19
-562.769
-500.422
-83.4902
478.64
-395.15
334.962
-109.398
-225.565
-226.593
15.4032
211.19
936.712
-658.614
591.926
-832.603
240.677
632.432
-525.512
816.803
-194.176
-622.627
303.535
-108.247
-195.288
297.088
-90.5235
133.881
-184.156
-629.668
-255.808
237.008
-282.017
45.0097
-32.3894
135.159
-102.769
-682.002
475.059
115.335
-302.183
186.848
-437.97
725.848
-287.877
739.006
148.795
-887.801
904.474
-130.145
-774.33
173.591
-284.016
110.425
202.746
139.512
423.986
55.5961
249.999
-76.4076
-779.392
789.566
-10.1737
-325.777
236.615
1035.05
-929.289
-105.763
276.809
-161.475
405.014
-416.169
11.1553
157.052
140.683
-297.735
466.226
-183.814
-282.412
1242.57
-1242.57
474.099
41.2564
-515.355
-11.1943
255.965
-244.771
-485.444
248.997
236.447
265.24
8.93469
-274.175
-295.307
-60.0753
355.382
49.0736
-208.929
178.894
39.8253
394.55
-109.18
-285.37
-266.956
-401.245
668.201
-574.548
491.058
-568.687
-431.393
-417.294
-157.028
574.322
576.729
55.7029
-321.76
4.33316
317.427
-1028.53
238.203
790.327
-170.793
909.799
55.3488
256.11
-311.458
382.487
-632.966
250.48
232.08
-361.895
129.815
131.619
423.859
796.535
-888.209
14.7737
227.711
-242.485
183.661
155.422
242.068
93.1321
114.325
-531.619
-30.9934
-149.711
180.704
22.0915
216.772
859.082
-857.467
290.409
494.37
115.15
-361.744
246.594
269.785
972.784
304.731
-75.7199
-229.011
-276.786
-29.3758
-405.598
35.3128
370.285
100.264
65.5618
-165.826
292.678
-237.329
31.635
-302.126
183.189
151.273
-299.713
187.256
112.458
-583.144
95.9234
487.221
-131.502
246.652
-310.082
89.9076
220.174
-94.236
-222.838
317.074
8.37361
314.426
-322.8
-765.277
-211.207
127.358
-221.594
224.356
971.751
-67.2765
-228.809
-52.9435
281.752
150.963
665.84
-289.487
-20.5948
-753.724
124.056
73.237
190.315
68.3596
-159.146
90.7863
-10.0308
-221.859
-172.53
349.708
-240.036
197.293
-36.2854
-410.454
-172.69
-203.377
-679.606
882.984
-142.99
110.6
345.494
59.5195
274.593
28.9423
440.884
37.7561
-358.759
522.388
358.869
-54.1387
-164.092
-152.993
317.085
16.1207
-228.589
212.468
398.444
-442.658
44.2145
97.6267
95.81
-193.437
45.4916
364.186
-571.624
509.116
62.5077
-535.864
-32.1001
567.964
-439.89
-134.658
-1.13574
219.338
-218.202
63.8154
-231.651
167.836
735.564
196.782
342.096
35.7201
-377.816
-66.3298
216.259
-149.929
267.137
38.2526
226.927
-123.751
-103.175
587.012
-227.254
30.9828
1004.07
144.467
207.408
117.495
-324.903
299.077
-284.304
248.884
-397.995
149.11
72.9318
-1002.22
-604.076
424.743
216.784
-148.425
-45.7379
313.957
-268.219
95.5146
246.581
-55.7052
324.843
-269.137
325.255
-58.1178
-6.58085
213.989
262.362
-401.736
139.375
-96.0802
334.899
-238.819
-485.481
145.161
-332.214
187.053
268.18
-376.32
108.14
-312
284.657
27.343
-9.81001
-327.136
336.946
777.968
-732.236
197.07
-182.046
619.585
-634.867
15.2823
412.989
128.819
-852.062
510.431
341.631
-38.8293
303.281
-264.452
-85.4831
-150.322
235.805
-296.442
560.406
502.785
513.786
-513.786
-530.793
-497.737
-267.626
-217.817
899.526
-609.117
-2.04081
266.054
-264.013
-158.86
-280.411
439.272
62.742
164.504
-227.246
531.055
-969.025
-348.43
288.354
-12.5755
-393.023
351.809
-361.619
-1068.66
499.968
-485.151
485.151
-641.311
-6.70553
648.016
662.616
-280.13
291.784
136.33
-428.114
-330.041
318.846
-216.645
206.957
9.68772
-559.911
843.105
-283.195
306.696
-69.6886
574.129
-100.03
-411.661
247.569
182.146
67.8533
-659.747
500.886
247.422
-356.82
87.9392
-173.422
277.322
111.067
-388.389
352.31
-120.231
-996.888
-245.682
621.984
-45.255
-83.2569
286.584
-203.327
553.222
-477.455
-75.7673
-80.5931
778.191
-697.598
-53.2149
896.076
263.52
1.72022
-118.29
181.032
-92.1916
573.979
-481.787
-542.672
198.329
-165.145
10.6887
154.456
-136.001
427.785
-52.7572
231.368
-178.61
-71.0037
-252.083
192.482
-92.2177
-77.3746
193.777
21.2596
-249.326
228.067
35.1454
455.599
-490.744
710.38
49.3836
-759.764
285.529
21.1672
-80.878
-159.158
-142.661
44.8954
243.87
-288.765
33.8574
360.693
204.855
-764.765
303.9
-193.563
-88.4543
122.529
-820.685
698.156
68.2797
-402.702
-165.64
-298.168
214.814
83.3542
-330.145
-315.266
567.777
-999.17
236.353
-49.4465
-186.906
-62.7809
264.505
-201.724
-1039.43
344.766
694.665
-48.9163
379.911
-330.995
324.525
54.6724
-234.431
84.1384
150.293
363.771
-108.879
-254.891
391.392
-142.507
-156.159
296.842
262.657
-214.589
139.698
-202.479
-111.451
623.978
-512.526
753.334
-161.408
-114.441
-376.266
490.707
854.06
-731.531
264.451
-219.555
-26.5191
-332.24
-536.965
72.5645
88.5591
-161.124
370.511
-90.7413
-279.77
-94.2916
190.153
-95.8618
400.26
-137.898
-121.519
-355.94
477.459
7.66375
843.944
-851.608
-776.661
803.878
-27.217
-241.182
46.5231
194.659
-754.025
439.812
314.213
48.4752
-163.089
-1.54422
175.875
-174.331
-301.083
269.74
6.19083
-230.607
224.416
248.454
-29.1162
181.289
-553.938
372.648
230.861
-209.602
-40.2707
-186.323
-62.1359
584.524
366.718
-80.5157
-286.202
-733.865
741.529
-460.708
363.881
96.8266
460.882
-346.558
482.653
-855.572
372.919
-295.337
-101.824
-726.536
28.9247
-178.876
-55.5547
-645.568
631.567
14.0005
-182.219
351.343
-169.124
320.98
314.806
262.529
-169.665
-92.8649
267.69
-258.544
-495.18
-198.936
-85.08
271.347
-211.602
-59.7449
-568.865
17.7698
551.095
174.626
-76.9992
1006.26
-1006.26
433.589
-499.578
-539.853
160.963
192.45
-353.413
-493.649
467.13
-331.894
294.439
-326.318
421.642
171.078
-592.72
50.7685
712.336
568.113
-146.471
444.263
-601.291
107.106
209.964
-317.071
-208.444
-214.547
422.991
321.109
72.373
-393.482
-297.325
-544.65
841.975
491.755
-758.712
387.182
27.2928
-414.475
-1033.69
417.676
96.11
294.699
-278.579
300.366
-361.298
-11.3069
121.325
-110.018
15.8911
-261.668
-254.407
11.8235
242.584
252.397
18.9503
324.631
-390.961
226.944
-93.0635
-559.984
-200.409
-101.774
-391.586
-362.438
-977.441
-184.93
1162.37
-496.039
963.977
-467.938
-130.877
-4.25196
135.129
-668.416
636.785
31.6309
-250.87
383.44
-132.57
245.436
307.786
2.38309
-211.268
873.948
-912.491
38.5435
437.231
-124.037
224.365
-382.25
167.19
215.06
-257.162
72.1435
185.019
-502.736
-66.1292
135.249
-244.244
361.174
-83.8524
-1124.86
921.484
-565.389
473.197
-98.1415
211.269
-113.127
-74.3609
384.59
-310.229
386.797
-362.878
-23.9195
-369.409
46.2318
-211.377
-317.962
698.193
-380.231
-72.2884
-253.489
-90.5346
477.717
4.42634
192.207
-196.633
945.814
203.91
-366.829
-15.4209
172.491
214.306
-372.624
-456.413
829.037
-872.487
381.205
436.639
-949.922
513.284
105.06
-442.539
337.479
-282.711
188.419
-12.8137
468.412
-132.953
-199.261
-428.507
148.127
616.083
5.90066
23.9938
212.359
437.383
-75.4086
-361.975
-110.132
-86.5291
196.662
134.239
238.075
-309.078
9.11289
-108.28
-41.5875
149.867
-384.176
-21.1628
405.339
-26.9834
332.898
-305.915
-102.864
493.477
-390.613
-418.933
391.519
-70.4102
-908.682
828.089
363.184
-321.928
-70.4933
-327.501
-74.0541
-327.682
-655.327
-124.065
-536.807
300.57
236.237
-294.5
65.798
-127.62
123.852
39.5621
196.378
411.183
-607.561
29.7919
-294.127
48.1842
27.9385
296.904
150.95
-260.13
-50.818
-292.708
343.526
-810.669
796.29
14.3787
231.158
-252.366
21.2078
362.155
537.371
276.551
-385.431
-20.6904
306.219
-724.581
694.144
288.507
-211.088
-77.4194
300.808
13.1488
-175.604
-168.691
-311.521
480.212
-214.212
-97.7883
305.241
-395.982
444.201
-565.719
119.367
76.0854
-195.452
206.033
-128.352
-77.6806
278.204
-650.827
160.631
-517.207
243.656
-91.5648
-152.091
47.5598
-812.837
-433.092
313.731
-394.246
-593.284
698.344
-509.212
98.7579
368.301
-665.626
115.706
-231.252
115.546
-850.611
898.171
-30.1897
-6.27418
809.624
-218.018
216.328
1.68971
-312.341
196.555
115.786
-241.939
-134.381
-58.8917
427.052
-368.161
557.248
-668.699
47.6366
-229.373
181.737
174.6
-126.964
349.141
81.741
-263.96
174.217
18.2651
-144.08
766.83
107.118
-454.735
172.323
-211.405
177.399
34.0066
190.679
-243.436
-3.20383
191.413
-188.209
-353.927
303.109
-222.007
-15.5697
237.577
-548.469
434.029
211.132
-202.759
-580.879
-64.6894
614.862
4.72297
-319.987
-211.632
173.811
-88.4856
-85.3255
-113.314
-101.511
214.825
177.37
-242.682
65.3114
-44.1406
294.937
-250.796
-225.499
212.873
12.6261
-194.931
-30.5684
355.976
81.4073
993.253
-723.468
-283.852
-312.355
240.067
191.092
33.0177
-224.11
-985.841
806.259
179.582
-366.893
170.066
196.827
-509.64
-148.817
658.457
-158.924
-806.211
-14.5911
-283.144
-470.605
449.442
-98.9867
-213.354
258.348
6.157
660.194
-102.989
-557.205
347.299
-450.163
-159.204
756.25
-597.045
-233.524
-208.804
442.328
-285.545
269.38
16.1654
5.94663
-70.3902
247.76
-116.049
-182.12
-526.692
-10.1153
-16.1562
-90.5057
-744.934
40.5224
-432.225
-214.349
101.035
-282.814
172.652
699.06
254.833
-307.777
163.452
63.4749
-332.29
-6.37022
338.66
-264.141
6.97905
-36.8481
-997.106
778.677
218.429
-19.3867
226.344
-84.6718
271.52
492.894
-523.995
31.1008
-303.228
-157.479
-360.995
396.308
-45.1514
136.579
-91.4275
1002.97
-823.435
-179.538
42.833
-582.943
540.11
-27.27
-124.033
151.303
-157.907
-136.593
487.353
-63.3678
-261.261
506.697
-559.508
122.338
437.17
-210.365
272.46
520.008
-392.103
-127.905
294.351
8.38545
-302.737
-282.401
199.144
678.879
-104.518
-574.361
435.98
-239.602
-433.302
389.598
43.7045
272.04
14.5441
-293.976
-38.3141
-180.005
56.2539
199.868
-500.594
66.8851
433.709
-262.568
260.528
-397.95
370.967
-327.923
-67.4758
-417.676
-458.452
399.56
-530.615
1001.79
-471.177
-118.85
73.6987
-175.611
-191.283
488.191
-50.2177
-437.973
-17.4599
-298.627
316.087
-507.087
563.241
-56.1534
444.599
202.905
-100.05
-102.855
200.247
-244.387
197.892
-201.096
-310.796
99.1938
470.546
-427.713
-11.3606
-274.184
66.3462
-906.916
906.916
120.895
2.96006
420.487
-423.447
-166.042
181.757
-15.7149
-513.212
304.768
-425.786
70.1828
355.603
56.3374
117.474
-510.862
408.682
102.18
-207.876
436.431
50.9229
308.224
42.0042
-350.228
339.605
-83.4949
-427.353
-50.1019
117.522
-359.247
284.886
337.784
-254.373
-83.4107
-29.2542
144.121
-114.867
-977.441
-295.037
-184.433
81.3061
103.127
-342.864
254.294
-427.487
-522.435
244.703
564.547
-809.25
-144.291
-532.066
676.357
-484.747
164.761
-18.6837
192.9
214.254
-16.3612
-657.281
640.522
16.759
84.2022
351.777
293.281
-74.9754
-218.305
-99.9182
-565.518
665.436
-579.185
819.733
-240.548
-594.4
59.3107
-813.722
208.598
605.123
-984.858
432.865
551.993
-288.734
-270.774
-116.42
479.605
-968.576
437.961
-675.564
814.4
-138.836
658.613
-758.532
-211.146
250.973
-228.882
124.309
-799.872
-164.119
-694.44
858.56
679.482
-0.603291
501.254
326.813
-92.9032
295.65
-92.4187
88.1667
-152.774
220.042
-594.063
254.003
-226.802
-27.2015
-119.525
344.28
-224.755
-172.326
-121.801
523.505
-30.6112
-290.912
273.452
13.3261
623.459
-703.855
-650.589
-255.483
-245.111
41.5216
217.66
23.4435
488.283
-511.726
-388.988
350.044
38.9437
-141.131
156.534
561.631
440.16
-381.35
-166.986
548.336
174.305
-260.991
-107.221
290.411
-72.9116
-352.874
184
-259.719
-232.67
316.873
202.549
-130.05
-448.674
-536.184
-290.833
-11.2945
302.128
-335.887
199.591
136.296
-173.883
178.309
-248.13
-87.7571
225.281
-219.09
249.554
-282.356
32.8024
320.187
-86.4559
-233.731
-805.22
646.297
-311.039
-332.541
81.6718
-326.402
353.695
273.296
-73.4882
518.087
179.733
-15.2297
263.023
561.742
-824.765
-194.024
165.823
40.2099
-576.011
407.321
-985.299
305.693
320.18
-816.219
-473.005
-73.0212
546.026
-529.199
451.562
77.6365
281.654
-207.139
41.0968
-652.729
391.468
-40.8014
156.507
-360.797
384.241
134.381
-526.484
-121.851
-36.8374
218.983
-7.69053
277.07
270.721
-81.0717
176.882
775.406
2.78557
295.931
-283.62
-12.3112
-278.039
-83.7055
-86.4403
-34.3826
265.541
716.895
247.082
51.0802
220.44
340.813
-93.3912
-61.406
316.306
-254.9
-457.779
81.5135
494.583
-230.381
-264.202
287.651
-295.342
-16.2798
-674.417
690.697
223.075
-828.742
459.332
-237.096
76.3554
-362.557
-124.679
-399.177
523.856
-124.993
135.681
248.906
-341.809
331.532
-17.1062
-870.491
334.627
89.4847
-369.254
-725.893
-523.788
-462.054
237.346
105.163
-360.054
231.758
-338.979
158.079
85.5765
153.58
-220.696
67.1162
-518.327
162.388
504.227
-923.161
-146.869
58.3834
458.331
26.8206
-574.861
-422.245
17.8544
-598.733
-3.61604
297.967
-99.5524
414.037
-314.485
-108.114
-85.3225
152.976
-231.221
-65.2217
-343.48
377.337
-267.079
-51.9951
319.074
-63.7694
263.361
-288.579
-259.737
241.718
18.0188
43.7591
-253.374
329.73
370.549
-65.8612
-323.127
-22.1979
235.071
204.285
-28.7023
-175.583
-83.4464
-466.574
53.8042
412.77
-290.118
-136.599
426.717
185.688
-214.943
338.391
-238.095
59.2192
-194.93
-124.05
318.98
818.043
336.921
-40.9719
-209.579
250.551
-22.6205
-506.578
-290.833
-733.132
342.245
390.887
2.33169
-296.312
-9.28581
251.354
-12.1398
228.468
283.128
-329.511
46.3838
-466.416
-137.661
-542.373
177.726
364.647
210.258
27.3186
237.885
346.469
-611.909
265.44
242.762
-409.185
166.422
-356.568
408.964
-664.277
255.312
993.186
-962.204
-778.572
460.609
-454.638
-111.607
566.245
174.565
121.366
-315.458
578.453
-415.859
-162.594
390.582
-216.277
-833.705
254.52
250.465
244.118
-240.404
82.4972
401.677
-82.8303
178.937
-180.739
1.80228
232.761
11.5371
580.098
-612.198
-501.834
170.242
331.592
73.9177
-364.052
-123.352
487.404
90.1926
396.267
-212.268
265.292
59.963
-454.791
151.562
312.358
105.662
-418.02
118.207
-216.348
-190.102
-229.242
-206.177
-360.516
17.0364
-28.481
-628.8
-37.01
231.67
-194.66
-297.391
185.221
112.17
-393.381
-120.014
513.395
-279.058
-69.3713
187.794
16.4913
-348.58
79.9243
183.021
73.4045
-256.425
-265.471
-144.894
410.364
-366.264
-291.648
271.842
19.8057
110.338
-339.599
229.261
162.945
-228.444
65.4984
-35.9914
-123.135
-288.092
411.227
-364.412
231.459
211.577
-440.82
-249.538
107.291
142.247
-464.992
153.471
35.1061
-440.275
405.168
-196.642
-63.0954
184.71
430.241
-356.389
-73.8516
-210.548
201.94
8.60815
-263.097
120.132
142.965
-75.0504
-136.355
-330.849
-117.935
924.194
-215.062
-34.2644
273.174
-477.238
319.758
108.195
-307.408
199.213
-405.924
-143.079
549.003
-472.079
-215.195
220.197
-29.1046
282.152
690.215
-706.495
-49.0843
-272.151
321.235
82.9902
-711.796
628.806
207.977
100.539
-308.516
310.046
-117.596
-238.694
224.103
-362.553
-49.8104
412.363
-710.469
39.2369
671.232
-504.965
-154.782
-96.61
-301.34
522.802
-41.8979
-774.54
-19.8019
794.342
-206.315
566.759
-360.444
-214.824
477.846
145.645
-509.698
326.917
-116.952
124.231
449.748
-426.039
428.999
-322.359
-150.339
472.698
-523.52
50.5151
315.258
48.6227
17.817
-256.511
267.379
-75.1276
-192.251
-111.2
-114.532
302.951
-86.8594
-272.388
43.7014
228.759
-298.686
-102.239
400.925
-279.088
350.988
-71.8994
-87.5064
278.185
-335.289
-142.594
477.883
-232.939
103.436
129.503
-133.612
-52.0228
55.7051
-651.725
596.02
-181.141
-252.161
-305.986
-247.952
-333.948
-99.1443
-209.467
-83.1988
292.666
415.169
639.759
170.26
-226.765
56.5051
167.893
530.45
227.494
39.8844
178.455
-256.937
78.4821
-408.457
-140.012
-526.054
-100.775
368.465
-179.695
316.348
-34.6938
656.369
-155.483
-4.59307
229.874
-240.78
278.596
-37.8159
713.615
0.301103
287.35
-601.872
492.29
109.583
221.037
72.2437
204.639
-47.0053
221.555
-323.329
73.4822
-325.891
19.3226
-354.877
357.659
-2.78212
83.2388
-186.008
165.865
50.1055
-320.364
318.728
1.63611
297.557
-349.553
248.392
-20.3252
-375.413
-118.236
-61.8547
284.613
11.9627
242.041
301.45
6.49595
-391.803
-113.726
505.528
-77.5629
-150.673
-195.28
-34.0936
53.9567
249.943
258.812
-293.194
320.089
-56.3693
-262.821
290.144
-27.3223
-1061.37
715.498
345.868
-422.184
132.066
335.478
6.4269
-341.905
-69.9303
354.816
566.136
-176.674
-39.1775
215.851
-72.1314
-228.952
-260.54
-64.6257
325.165
-283.925
-62.3464
346.272
-69.9469
-510.026
-91.8465
-797.988
785.607
12.3812
30.7303
249.249
-279.98
36.0689
322.213
-193.497
480.422
-286.926
-231.336
-81.0197
-483.915
103.984
-212.099
185.853
-241.408
-315.98
-116.953
432.934
-119.108
471.914
-352.806
-381.068
-89.5369
-237.998
-103.811
2.15399
-442.08
-123.308
-199.768
683.51
16.3214
647.789
-664.111
-197.346
47.6353
230.6
-816.086
585.486
144.905
-386.844
306.585
-50.6194
86.7073
-1024.85
-225.635
-113.345
438.057
-4.46773
-525.938
-393.316
-122.04
-657.417
206.004
-399.723
193.719
-7.31403
302.251
-345.793
-93.0271
438.82
-16.9019
-283.741
300.643
830.04
-116.425
-491.979
479.166
-59.2372
-715.303
-92.609
463.576
-846.804
783.36
295.657
-474.721
401.809
-95.0422
-116.045
162.059
175.834
-337.893
-438.223
-246.589
183.527
19.0911
-202.618
-210.23
916.085
31.2801
-991.991
559.766
-212.385
-105.273
317.658
758.135
38.4002
358.707
-70.3528
372.079
-355.043
-401.873
406.341
-4.46778
330.735
-324.588
-6.14661
363.458
-81.3062
-18.9141
-437.885
-145.058
-223.921
-129.492
-198.847
-118.224
-615.908
824.878
-208.969
-241.399
-6.73104
-221.324
-442.403
-462.317
412.099
74.2729
-305.494
-91.4813
-125.117
216.598
-42.8237
388.331
-345.508
356.46
-53.3511
218.257
-70.9537
-147.303
98.3678
-222.401
134.351
128.306
314.535
-106.557
-334.314
-91.43
230.942
569.626
-135.597
26.2049
-773.534
747.329
-273.8
111.34
-192.412
-30.1436
-77.7472
347.488
57.3659
771.735
-699.399
856.46
-110.87
-745.591
376.321
-74.5697
-301.751
103.892
-217.019
-90.4064
507.143
-416.737
-231.61
-56.9671
22.2259
-734.022
458.019
-73.4403
-290.447
284.687
5.75965
-212.014
-39.7901
251.804
202.174
26.9957
-229.169
-36.1489
-86.7493
-449.941
-611.426
-427.211
200.103
0.35681
-195.903
-22.6834
245.759
58.27
-538.41
480.14
-331.122
222.503
-398.114
149.069
-348.33
683.876
-331.395
67.7363
-267.995
200.258
-144.468
311.658
596.14
-151.877
-202.945
-141.343
228.775
915.158
88.9116
-302.128
225.72
46.2474
725.487
-11.4212
190.358
-322.876
-93.2925
402.578
-88.8475
-458.36
-520.087
153.208
366.879
-164.634
-540.484
705.118
-572.513
1009.74
-756.773
140.865
-485.627
-273.389
276.182
115.21
-934.9
54.6342
880.266
-354.064
402.316
-97.0753
-10.9882
362.797
332.897
18.091
229.628
-195.372
-34.256
-308.535
98.3045
-192.345
-18.2024
243.061
378.742
-102.191
675.387
-135.277
291.537
108.723
573.413
-129.212
519.657
-108.475
256.224
-40.8384
-215.386
444.737
-499.298
-339.994
839.291
543.764
-243.194
-299.049
-553.316
80.868
472.448
314.251
-74.1839
-711.398
677.392
34.0063
526.309
-76.8673
-28.4115
634.903
-606.491
-382.55
296.095
297.343
86.0971
430.36
137.753
-385.546
218.055
-36.3187
367.937
-11.4771
-436.186
-125.648
-47.0726
592.755
321.362
-315.542
-5.81977
-532.588
66.1725
-387.88
-333.008
298.315
53.7432
326.168
-296.974
348.43
-52.3353
-145.349
-272.153
-271.154
-15.8407
286.994
-401.415
-112.37
-35.5944
547.228
-38.1115
-4.64598
473.058
584.561
-26.3563
-156.554
-267.246
329.356
-62.1106
-55.0747
222.164
31.9846
-743.383
-324.108
-236.76
360.68
-389.71
-68.7417
469.071
644.365
211.049
-855.414
-155.039
585.695
-127.676
329.026
-244.271
-84.7548
-71.2039
-603.554
-210.168
35.0546
199.692
133.204
-139.071
204.569
-284.549
-306.557
352.974
-46.4171
216.584
318.735
-435.156
731.506
430.865
-311.13
375.665
-64.5353
-266.458
-476.431
-219.507
837.488
18.9727
418.158
-50.2212
-967.969
33.0696
393.705
-69.0741
-745.579
-13.4704
-314.031
633.937
206.065
-86.6983
-92.8543
12.0927
294.127
-388.435
-7.35171
395.787
-241.497
-146.892
201.446
-116.503
-474.575
-101.436
500.225
-92.9043
350.293
-5.50652
-322.176
-109.249
-135.36
-518.48
374.189
-112.912
652.782
-630.556
-277.967
379.464
-101.497
-239.501
67.1751
281.133
22.1475
-445.596
-477.565
-406.534
973.022
-466.143
-506.879
583.268
-110.071
-523.311
-129.418
-96.9034
17.8954
527.499
-136.031
22.0036
56.0123
175.657
-228.372
-226.363
54.6179
-104.446
562.372
-137.63
-403.819
-342.26
287.439
263.343
2.19786
443.437
-93.1432
-51.5784
-148.19
-145.05
-305.748
31.5639
79.0165
-274.296
441.234
-652.44
616.924
-114.596
-502.328
758.807
-726.823
434.844
-74.164
-246.52
-283.218
45.0823
595.741
-126.669
-758.319
784.524
215.147
-1.3209
-213.826
-149.298
223.571
464.423
-64.8633
621.494
-146.435
-280.215
280.516
-109.042
-75.3912
-208.998
269.838
-60.8393
-94.3549
268.92
300.146
-45.3127
-36.2689
249.983
-473.524
-277.712
271.434
-235.67
-35.7642
-432.126
420.558
11.5674
-17.4931
-137.791
310.282
294.937
-300.361
5.42388
-250.898
-84.5177
-14.0741
135.399
-319.801
421.32
-42.9008
787.113
-744.212
-507.75
349.192
-30.4567
35.4887
344.187
13.8076
-357.994
7.13521
382.463
230.03
498.893
37.2826
504.039
14.0485
356.191
-47.9666
-70.324
248.779
267.284
49.0225
-871.22
887.541
-302.917
282.464
20.4527
-546.99
247.686
2.29684
808.006
-598.458
-209.548
259.45
-182.557
-76.8931
433.411
227.773
31.2667
492.238
-197.505
617.219
-419.714
98.102
-51.6824
846.663
-794.981
-430.369
307.233
476.104
198.97
233.17
1.90098
222.131
-190.147
-486.031
676.178
41.1837
207.208
64.4997
-558.789
571.026
-508.518
814.838
-261.535
-553.303
-289.895
-195.586
69.2534
271.056
0.785867
-223.627
-287.235
-359.811
-512.676
3.09043
184.925
-188.016
290.191
262.819
190.831
-792.423
768.524
23.8988
-27.0122
407.703
-456.858
49.1553
279.201
80.5325
-0.504173
789.258
-788.753
99.3958
229.961
61.511
81.8291
-291.249
304.229
-12.9807
-920.611
-56.8304
194.503
-132.31
-488.504
620.815
-292.632
857.179
-147.114
-398.697
-133.891
-560.477
102.278
385.126
26.3665
-253.487
-26.7273
199.244
-143.232
17.0187
857.467
49.4486
-14.365
301.715
472.147
-356.515
-115.632
-630.053
234.187
395.866
138.529
164.423
363.469
-355.999
272.588
151.136
281.798
229.492
258.045
32.0987
69.6144
-483.449
413.835
837.225
-237.55
-599.675
168.645
219.228
-387.873
367.072
401.873
248.006
3.86699
-626.332
-306.013
271.808
-889.705
367.611
81.4452
-480.623
83.7215
-636.421
-97.6007
244.332
-357.825
394.287
554.404
-568.176
645.005
-76.8287
-10.5401
371.233
410.688
-352.366
-40.9436
172.336
-131.392
-303.152
294.411
-17.3404
669.208
-345.89
-22.4819
376.044
-353.562
89.5685
-177.862
255.006
-77.1442
-292.58
237.648
54.9324
270.922
543.916
135.367
-401.657
456.128
-1125.37
1124.86
128.802
-10.7328
440.333
167.406
-56.0654
414.613
350.828
214.274
21.5309
294.087
363.967
-25.7494
-338.218
-649.598
648.97
0.627878
229.462
195.345
-10.4195
501.458
-431.844
-211.17
765.575
305.901
80.389
273.404
-366.795
-171.854
26.8315
244.602
787.063
-173.777
-613.286
-889.272
962.204
298.968
378.886
254.629
-248.202
554.139
-992.362
467.459
346.211
334.306
-35.0463
470.454
291.183
59.3861
-416.5
357.114
-219.512
331.005
-13.5977
-23.7225
-824.317
694.172
860.402
-201.789
333.647
287.287
124.911
339.168
-19.9733
-319.195
269.103
319.296
297.053
-187.661
87.6109
-272.342
281.792
-9.4499
446.516
-562.372
-246.878
-2.67946
216.954
464.155
-577.881
-275.533
22.0455
472.432
-132.067
-236.137
368.204
-331.685
-188.402
634.48
106.292
426.358
-943.782
517.424
-459.536
417.924
41.6119
-2.9017
252.16
-249.258
356.21
-266.642
259.321
-236.517
-22.8035
323.295
43.4313
-221.293
-850.611
81.6429
361.458
-443.101
-32.9109
724.121
-691.21
322.227
-295.243
-26.9845
-445.651
476.436
326.518
-269.152
-399.982
978.645
-578.664
274.853
-13.7957
197.322
540.799
459.201
-184.299
206.861
12.8209
-219.682
-27.7366
398.022
-593.478
33.5862
559.892
201.638
260.532
-364.343
-42.0691
-390.057
-916.085
864.403
-493.121
1033.92
336.231
-60.1082
237.988
-1.77227
-236.216
488.588
-434.784
55.8209
-707.546
-459.5
-0.0357849
-256.177
318.037
-469.462
-499.115
298.206
-18.8075
-279.399
-959.641
428.848
-797.988
156.008
32.3328
-188.341
29.5528
599.253
647.941
-633.94
-274.756
836.498
-73.4145
224.688
380.574
-552.252
171.678
-135.164
355.882
-220.718
-704.2
750.447
-385.636
220.385
-223.284
232.351
-9.06744
-275.748
702.106
313.419
643.372
27.6634
-785.982
-231.395
244.844
-358.189
-34.3377
-228.721
240.545
-898.171
982.097
175.424
39.1659
-214.59
262.33
-320.393
-70.5681
1.88144
392.114
210.61
-602.725
502.749
-902.731
525.921
-55.3756
-221.75
-2.48131
224.231
-114.128
-191.621
-307.543
73.8117
-166.466
-135.66
302.254
291.32
-264.488
-117.813
-316.055
433.868
280.046
288.734
-17.5517
-292.878
310.43
-690.857
16.44
859.082
-920.611
993.186
-996.888
972.784
1014.58
-1014.58
-889.272
-1024.85
278.509
-252.143
-242.779
-252.974
-186.48
-1.72878
753.372
-964.961
211.589
-887.541
10.3333
-280.535
190.747
-34.7387
-763.5
791.163
227.534
-6.83504
-220.699
-281.483
264.581
-11.8783
-249.479
261.358
248.396
-14.2341
-234.161
201.307
-228.508
-23.6511
-253.2
276.851
-187.614
200.366
-12.752
249.884
280.654
-347.031
406.417
103.964
-180.819
76.8547
-393.481
-608.74
-193.866
207.146
-13.2802
-419.545
-84.0858
503.631
193.615
-174.523
39.9355
201.409
-25.9854
-360.056
276.35
515.577
-121.29
209.259
462.387
-54.6844
312.361
-400.345
87.9843
18.4347
-637.15
666.703
263.357
-460.862
-783.676
730.278
53.3978
480.776
497.869
71.205
444.372
-276.888
269.574
-73.0754
-710.601
237.045
-342.318
731.858
-940.827
344.483
-766.346
421.863
126.039
264.039
-205.886
-58.153
-55.0485
-387.115
-868.333
592.585
-1.5817
255.748
3.76829
-308.199
304.431
15.6321
-52.0287
235.467
281.715
-37.1122
185.427
-58.294
-127.133
738.781
20.0266
272.512
301.516
6.50006
178.309
-228.664
50.3554
237.069
-299.581
295.965
-332.832
-202.863
217.121
-14.2589
74.6215
-494.167
241.625
179.696
-82.593
835.965
-609.392
446.798
576.663
-682.426
220.476
-337.429
309.751
-444.915
186.999
-316.49
218.069
-191.073
-333.755
216.159
-189.405
-7.3135
196.718
217.73
-335.955
368.272
-266.221
-102.051
-6.35147
486.491
-442.47
-560.378
1002.85
-760.897
656.379
-50.588
-320.409
370.997
21.3838
59.489
-292.863
283.577
-267.909
-7.62407
196.435
65.6925
-262.128
-184.035
-215.688
-296.593
223.274
-208.814
-14.4593
-308.199
-409.598
409.598
185.705
-657.784
167.69
182.018
304.431
727.275
-234.986
-41.9457
-645.572
687.518
526.323
-89.1527
235.087
-364.267
315.183
396.86
242.71
4.2833
232.158
-172.158
-59.9997
-31.16
-686.81
686.81
-176.395
-386.749
-92.8101
-119.289
206.66
20.2836
-142.297
210.151
-422.84
478.436
-146.216
-202.115
743.68
-504.884
-238.796
-111.103
-105.916
553.864
-181.216
-115.749
-43.9096
-488.962
532.872
-500.654
-287.139
511.974
-19.7362
-16.8457
-745.754
555.608
-457.862
-65.6582
767.882
19.2307
230.579
-112.926
773.677
-660.751
105.643
875.537
683.174
855.483
146.652
-217.606
-386.063
-73.4374
-233.89
249.804
-231.069
49.3066
-167.827
-897.972
41.4423
856.53
10.9505
391.604
813.752
-261.143
246.164
14.9796
1066.42
-542.389
-524.027
-168.623
3.05459
476.111
202.631
-36.8085
265.761
282.574
422.037
-772.038
956.297
-184.258
-348.114
5.85412
231.363
17.3079
666.202
-87.3934
-215.523
-163.93
-242.604
211.766
92.3182
634.957
689.834
-731.78
91.2776
-795.477
22.7084
654.683
752.263
-849.589
97.3255
-627.585
535.719
91.866
627.242
-563.545
-63.6972
-446.338
520.959
58.5567
-77.5273
-121.926
199.454
122.505
305.603
-603.422
448.64
188.883
-188.883
-198.918
218.467
-879.206
436.736
-671.329
539.019
-553.316
871.22
-953.813
23.6247
-237.517
204.182
-163.886
-222.958
-246.446
20.3297
357.007
34.9361
341.385
-350.793
-364.136
39.548
437.716
-680.91
-55.3112
-726.748
782.059
225.4
-265.19
55.1205
102.892
-228.008
-623.59
655.221
-196.729
-44.6788
8.15743
549.416
148.777
-307.998
-25.0101
-455.111
957.861
864.314
-864.314
332.845
43.1991
9.77401
463.284
-761.489
17.2771
651.478
15.2251
80.3318
417.411
-497.743
214.472
301.854
-3.88708
8.97661
673.433
17.2643
-859.957
649.79
195.451
303.255
-498.707
-826.406
564.871
210.286
-412.645
18.8667
-649.423
-184.617
-57.194
241.811
-79.3331
194.367
-115.034
15.187
44.4601
355.796
40.5115
-200.826
17.3882
-291.915
524.348
660.076
64.0451
12.363
140.86
-81.4414
-198.538
195.998
395.1
-500.441
-707.828
-64.2105
-197.326
-466.926
-476.856
-274.076
-360.791
624.552
-514.969
6.68505
798.652
-805.337
318.206
50.0659
392.058
-59.2129
621.477
-56.9924
-564.484
313.781
-19.3422
-572.267
-104.507
676.773
-28.1436
-256.16
-608.753
453.27
-171.215
-73.2403
244.455
238.815
611.304
66.326
-239.951
-83.3777
24.3511
203.179
-546.073
638.391
193.718
3.60393
-199.74
395.937
-196.197