/*--------------------------------*- C++ -*----------------------------------*\
  =========                 |
  \\      /  F ield         | OpenFOAM: The Open Source CFD Toolbox
   \\    /   O peration     | Website:  https://openfoam.org
    \\  /    A nd           | Version:  7
     \\/     M anipulation  |
\*---------------------------------------------------------------------------*/
FoamFile
{
    version     2.0;
    format      ascii;
    class       volScalarField;
    location    "17";
    object      p;
}
// * * * * * * * * * * * * * * * * * * * * * * * * * * * * * * * * * * * * * //

dimensions      [0 2 -2 0 0 0 0];

internalField   nonuniform List<scalar> 
29540
(
0.0152215
0.187549
-0.0150163
-0.0580769
-0.00409797
-0.0619844
-0.029817
0.0144093
0.00363664
0.00038266
0.00899501
-0.00807679
-0.000766873
-2.29527e-05
0.163671
-0.0101124
-0.000215173
0.0515642
-0.00363504
-0.017645
-0.00141284
0.00342057
-0.0151984
-0.00356927
0.724285
0.186293
-0.000830923
0.609537
0.151137
-0.00281915
0.0274222
0.0849916
-0.0900964
-0.011424
0.617204
-0.0124677
0.205372
-0.0453778
0.0100156
0.0096492
0.000836571
-0.0282236
-0.000181827
-0.0346891
8.00742e-05
-0.00251373
-0.00701518
0.000179193
0.00589858
0.199875
-0.045836
-0.0514181
0.0878477
-0.0600482
-0.00989109
0.144106
-0.00580971
-0.00145642
-0.00804797
-0.029566
-7.46635e-05
-0.00352387
-0.0357739
-0.0109831
0.329164
0.682058
-0.0134278
-0.0144456
0.650219
0.000871892
0.184446
0.507996
0.00409588
0.682185
-0.0131346
0.000752994
0.1317
-0.0404482
-4.9317e-05
-0.02587
-0.0555041
0.252463
0.0151514
4.21495e-05
-0.0268185
-0.162067
0.363805
-0.000799424
-0.000739173
-0.0805987
-0.0376897
-0.0408436
0.00544118
0.0812292
-0.0826329
0.370324
-0.0485785
0.000908279
-0.0644996
0.203836
-5.34021e-05
-0.038104
-7.15866e-05
0.0579185
-0.0525631
0.156795
0.434775
-0.000708104
2.98427e-05
-0.0852446
-0.0894622
0.0151599
8.01729e-06
-0.00256873
-0.00018634
0.495641
0.272285
-0.0192272
8.21322e-05
0.00475594
-0.135461
0.200173
-0.0438257
0.679358
0.00201746
-0.0168622
0.0580421
-0.0240464
0.00716836
0.000108231
-0.0322926
0.115055
0.489901
-0.0671624
0.0574081
0.0266194
0.398451
-0.038806
-0.143141
0.194357
-0.00908759
-0.0702449
-0.0700505
5.95937e-06
-3.02201e-07
-0.0041972
-0.00654948
-0.0706129
-0.110375
-0.00920912
0.043858
0.0216763
0.000834676
-0.000169401
0.266443
0.000983836
-0.0129594
0.373738
0.320666
-0.0441684
-0.0533949
-0.0565071
0.152375
-4.70726e-05
-5.31424e-07
-0.0193524
-0.0680889
0.000153673
4.09377e-05
-0.0115974
0.000130947
0.00996252
0.381387
-0.0381734
-0.0719202
-0.00835876
0.00372126
-0.0393293
-0.00206357
-0.0361665
-1.10644e-05
-0.00723454
0.36036
-0.013536
-0.141655
0.26597
-0.0104781
-0.0294377
0.00673012
-0.00262419
-0.000419719
0.00348045
0.690429
0.262003
-0.0225758
-0.0124272
0.577108
0.235643
-0.0816199
0.00210919
-0.0525777
-0.0769844
-0.00774793
0.00155454
0.394587
-0.0111773
0.0120224
-0.0705324
-0.0875383
-3.1087e-05
0.540618
-0.00168825
3.44926e-05
-0.000866302
-0.0357486
-0.0141214
-0.00535623
0.0117194
-0.00353818
-0.0816585
0.000125945
0.000881819
-0.00381853
0.128992
-0.00470502
-0.00243672
0.0868022
0.000290178
7.51515e-05
0.00923161
-0.0445054
-0.0349194
-0.007828
0.182495
-0.0240615
0.0229747
-2.4131e-05
-0.00498686
0.0014551
-0.0487165
-0.123822
-0.00226452
0.000886566
-0.00257137
0.00498188
-0.0171794
-4.35381e-05
-0.157488
0.000152209
0.131036
-0.00561117
0.000321504
0.159302
-0.0775069
0.000502754
1.11007e-05
-0.0703553
-0.118835
-0.0147076
-0.0263509
0.0436177
0.345009
0.000185092
-0.0426383
-0.0758911
0.591932
-0.0136109
0.262043
0.00674745
-0.000288039
0.823252
-0.000858152
-0.0750832
-0.0806634
0.00398587
-0.0115972
-0.0137048
0.495754
-0.00574939
-0.0291479
-0.000369147
0.273547
-0.00510042
0.378202
-0.000805668
-0.00964563
0.579839
0.111804
0.0866603
-0.0514197
-0.000210013
0.00484423
-0.000232104
3.55027e-05
0.119458
9.38409e-05
-0.0315857
-0.0786862
0.733034
0.484923
-0.0689087
-0.0308465
-0.0333741
0.0144206
0.0047165
-0.0298473
-0.0726005
0.353309
0.512881
-0.00210426
0.427515
0.116117
-0.0448498
0.0192026
-0.0029184
-0.0153277
-0.00894731
-0.00441278
-6.59857e-05
-0.003065
0.0124336
0.279935
0.00293924
-0.0435494
0.0223531
-3.41162e-05
-0.0706642
0.769065
-0.0105875
-0.0023193
0.0205126
-0.0244668
0.148923
-0.00249396
-1.73648e-05
7.90509e-06
-0.00445456
0.583647
0.0382165
-0.125578
1.21004e-05
-0.125056
0.0885846
-0.00853153
-0.0762902
-0.00211235
-0.000691031
-0.0401842
0.00171158
-0.036621
0.0184683
0.0995231
-0.000186886
0.00364365
0.198287
-0.132007
0.00082138
0.000866089
0.490545
-0.0376892
-0.00272326
0.246813
0.602696
-0.0566679
-0.0125411
-0.005898
-0.00125693
-0.0142746
-0.00561979
0.230551
4.76569e-05
0.0177867
-0.112401
0.495387
0.672725
-0.0101681
-0.0150643
0.340887
-0.030862
-6.34335e-05
0.0455955
0.136242
0.138581
-0.0124714
0.0445773
0.601814
-0.12266
0.54203
0.502874
3.21915e-05
0.0139242
-0.111588
-0.0049596
0.00299437
0.608091
0.0378824
0.000570752
-0.0548756
-0.0784523
-0.00945261
-0.000151993
0.384292
0.266806
0.000161774
0.00740684
0.00976763
-0.108251
-0.0511849
0.000192412
-1.19834e-06
0.000965997
0.155478
-0.045044
0.389993
-0.0772436
-0.0298579
-0.0352098
0.241598
-0.024909
-0.00203899
0.0145314
0.00160061
0.547504
-0.0418257
0.00204734
-0.0127449
-0.00535382
-0.00265446
-0.02081
0.000488803
0.000497116
0.779532
-0.0137425
-0.00864782
-0.000712983
-0.00122545
0.326449
-0.114379
-0.0411545
1.42224e-05
3.0002e-05
-0.0431841
-0.0115007
-0.00890781
0.0306081
0.0112077
-0.00484161
0.0292246
-0.0291844
0.532789
0.00802446
0.000515449
-0.0686054
-0.0394292
0.00707583
-0.00586041
-0.0412642
-1.16885e-05
0.652827
0.0347606
0.000216172
0.690489
-0.04238
-1.2496e-05
0.00272892
-0.0703556
0.016731
0.0738904
5.14071e-07
-0.0136453
-0.0131002
-0.00917323
-0.000770429
-0.0140993
0.583098
-0.0144238
-0.0201078
0.279461
-0.00485353
0.565714
-1.4364e-05
-0.0273803
-0.0722152
-0.0405139
-0.0905427
-0.00269628
0.00260435
-0.000199038
-0.0318819
0.0118781
-3.13785e-05
1.88722e-05
-0.0108151
0.530227
0.0126858
0.00464852
-0.0825493
1.17123e-05
0.0018801
4.95106e-06
0.016377
-0.0294235
-0.000625672
-0.0137994
-0.0210385
0.00196847
-1.51938e-05
-0.0726754
-0.000624993
0.0799065
0.456412
0.347861
-0.00759755
0.011032
0.0458296
-9.24328e-05
-0.00619043
1.515e-05
0.508338
-0.02338
0.0301971
-0.0284275
0.00293088
-0.00545796
-0.000128907
2.27655e-05
-0.00837013
0.0764383
0.327411
0.00236799
-0.0622485
-0.0414341
-0.0134883
-0.00540208
-0.00227793
0.00188944
-0.00963874
-0.000114338
-0.0720955
0.364405
0.24874
-0.0370267
0.356592
0.00021659
1.20744e-05
0.0504041
-0.00265688
0.67856
-0.0655136
-0.0352372
0.0034066
0.00225628
-0.0100822
0.000924762
-0.0180332
-0.0218434
1.96657e-05
-0.00152609
0.490923
-0.000171577
0.631462
1.53784e-05
-0.0959828
0.0752195
0.0347083
0.0020192
0.000403422
0.518865
0.0835005
-0.0738666
0.257613
-0.0116985
-0.022272
-0.00707638
0.287735
-0.0423592
0.0174961
-0.0132121
1.26231e-05
-0.00225241
0.0108239
-0.0296437
-0.0362194
-0.0669845
-0.0299571
0.168294
-0.00372483
-0.0804097
-0.0230395
0.000131359
-0.0203182
0.0133454
0.171152
-0.0445887
-3.0565e-06
-0.0305732
-0.000909238
0.00267286
-0.124868
0.388673
0.00175703
-0.0200436
-0.0462729
0.114294
0.571813
0.00344125
-0.0084847
0.293736
0.220547
-0.0258066
0.0091324
-0.0733016
3.08015e-06
-0.0634483
0.000205793
-0.0456947
-2.922e-05
8.8497e-05
-0.0110461
-0.0336524
0.456018
0.0142267
0.0209143
2.75456e-06
-0.0109492
0.000208755
-0.0056677
8.76409e-05
0.0790538
-0.000788405
0.245835
-0.000168372
-0.0214756
-0.0561145
-0.00742065
0.567441
-0.0274795
-0.0738857
-0.00985986
0.0768435
-0.0665599
0.0500161
-0.0310151
-7.82034e-07
-0.00929068
-0.00693642
0.000526828
0.00020128
0.283923
-0.00862858
0.12453
-0.0079269
0.00168665
0.0552577
0.000364326
-1.65126e-05
-0.0626701
-0.00613516
9.33103e-05
0.320687
0.741168
-0.000318774
-0.0541413
1.73464e-05
0.611736
-0.105969
-0.0577147
0.000163396
0.0184511
0.0953359
0.111581
0.0722488
-0.000649896
-0.000183092
-0.0258085
1.18378e-05
7.01253e-06
-0.0430726
-0.0472802
-0.0657651
0.709751
0.000433538
-0.0500697
0.0141537
-1.45474e-05
-0.00214663
0.000140275
-0.010722
0.000110395
-0.0287252
0.0484251
0.558425
0.0746431
-0.00044108
0.00092831
-0.113077
0.121911
-0.00543506
2.52527e-05
0.270667
-0.136842
-0.0635472
-0.0235057
-1.02973e-05
-0.000436616
-0.13998
-0.0354529
0.20514
0.530331
-0.072121
-0.00220073
-1.13579e-05
-0.0672292
-0.0891566
-0.000303538
0.00440289
-0.0249576
-0.00821385
0.512592
-0.00225797
-0.000994175
0.144373
-0.0133423
0.681771
0.678144
-1.6341e-05
2.09293e-05
-0.0270984
0.0283773
-0.0525469
0.00980453
-0.0129134
-0.000964152
0.592193
0.239681
0.00427752
0.813033
1.34311e-05
0.155498
-0.0808249
-0.0492003
0.000238944
-0.0543827
0.161154
0.0271624
0.100828
-0.00074897
-0.00080136
-0.00843009
-0.00606189
-0.022666
-0.00184884
0.172195
-0.0102922
-0.00920266
-0.0837684
0.481644
0.011306
0.0543114
-0.000660155
-0.000857582
-0.0327767
0.00192385
-0.00452884
-9.2507e-06
-0.000551067
0.161716
0.521064
-0.000182847
0.220001
2.29036e-05
-0.00586674
3.17874e-05
0.0100464
-0.0806113
-3.35634e-05
-3.47599e-05
-0.0790093
1.26159e-05
0.0733747
-0.0391311
2.67079e-05
0.241164
2.42086e-05
-0.000658279
-0.000115637
-0.00884295
-0.00059428
-0.0106398
-0.0915597
-0.000516678
0.00791986
-1.70316e-05
0.447921
-0.00274294
0.00882882
-0.0495686
-0.0355028
-0.00197
0.00547825
0.292033
-0.040786
0.233425
-0.0599399
-0.00606199
1.61899e-07
-0.00994697
0.488101
0.266651
-0.0536919
-0.0737354
0.430382
-0.0143792
-0.0763367
3.10711e-05
-0.0406261
-0.00142299
0.79164
-0.0687027
-0.000112539
-0.0793371
-0.0420823
0.336492
-0.00447374
-0.0435845
-0.00663128
-0.0103091
-0.00219677
0.335578
-0.121692
-0.0309901
-0.0246164
-0.021289
0.0103519
0.422359
-0.0299689
0.259357
0.00510712
-0.0925922
0.642245
-0.0146204
-0.000354291
0.335592
0.495974
-0.00679829
0.0127937
-0.0114572
-0.0490029
0.295281
-0.0675696
-1.29663e-05
-0.012548
8.90765e-05
-0.00769006
-1.46342e-05
-0.00807577
-0.00163563
-0.00545841
-0.102665
-0.000994908
-0.000826648
-0.00190947
0.279591
-0.00355235
-0.0055573
-0.00516934
0.230693
0.0095654
-0.000560786
0.483005
0.668667
-0.0310101
0.59236
-0.0273352
0.453835
0.00986684
-0.0214737
0.00470651
-0.000734471
4.23147e-05
0.00466298
-0.0190419
-0.0309423
0.252995
-0.0354609
-0.0313891
-0.0015239
-0.0980814
-0.0379785
0.0116853
-2.56529e-06
0.0154091
0.106469
0.498017
0.0189516
-0.0209678
0.1994
-0.00049773
0.0602112
-0.0279091
0.00119921
-0.0783813
0.00530494
0.455244
-0.00339467
-0.000847489
-0.000108972
-0.0732437
-0.00207724
0.796358
0.822271
0.020456
-3.35488e-05
0.0142422
-1.22575e-05
0.0888675
-0.000830176
0.0363891
0.729804
0.0154154
4.51235e-05
-0.0128165
4.1028e-05
-0.121441
-0.0517697
0.593609
0.000452962
0.0197087
0.00473365
0.000552663
-0.00361229
-0.000436806
-0.00943066
-0.0547575
-0.0349109
0.0106979
0.235
-0.0204695
0.0105703
-0.0310252
-0.00290455
-0.0411181
2.89655e-05
0.000104583
-0.00342687
0.0452592
-0.0449806
-0.0247159
-0.00568708
0.00450532
-0.0322453
0.30782
-0.0195932
-1.26727e-07
-0.0751494
0.545662
-0.0640843
-0.0183955
0.0884184
4.91841e-05
-0.000998107
-0.0424025
-2.36241e-05
-0.000639089
-1.40545e-05
0.813822
0.0143545
0.00590121
1.10159e-06
5.91833e-06
2.65383e-05
1.02046e-06
-0.0339331
0.498213
-0.0517931
-0.000645298
-0.000199852
-0.00828081
0.590312
-0.0726933
0.538466
0.0241984
0.192668
-8.65537e-05
0.583801
-0.00331115
-0.0141357
0.0109382
0.0124233
0.0143197
0.252802
-0.0589578
0.576122
0.380371
-0.0124523
-0.0420187
-0.00210221
-0.0429457
2.92344e-05
-0.00134687
0.00437663
0.100927
-0.00985024
-0.0340795
-0.00488252
0.705389
-0.0899825
-1.72838e-05
-2.07122e-05
0.600685
-0.00731158
0.00330992
-0.0195571
-0.00329784
-0.0225823
-0.0144733
-0.0611977
0.0898145
0.0300201
-0.0148951
-0.021066
0.00019316
-0.00848439
-0.00172194
-0.0116963
-1.87916e-05
0.000134197
-0.0271677
-0.0296861
0.569938
-0.035174
-0.000205833
-0.00215526
-0.000399774
0.48001
-0.0568878
-1.89182e-05
-0.0399216
-0.00657234
-0.00516188
-0.0405798
-0.0465498
0.0100739
0.0806561
-0.0827444
0.000172758
0.00887537
-0.0194668
3.21056e-06
-5.77554e-05
0.156606
0.116874
-0.0256542
-0.0678441
-0.0704633
0.000854085
0.625194
0.000200886
-0.0239126
0.51387
-0.0246076
-0.0519819
9.00052e-06
0.000316475
-0.0518277
-0.0134382
0.00211782
-0.0458798
0.30864
0.349654
0.00107248
0.000457532
0.274808
-0.0179539
2.15488e-06
-0.00202006
-0.0396064
-0.0310038
-0.0147284
-0.00289945
0.2291
3.14626e-05
0.103925
0.365026
9.72361e-05
0.0138909
-0.00056138
-0.0971656
-0.0192957
-0.000869443
0.0381684
0.000375458
0.299257
0.00209971
0.0302407
0.0144073
0.732434
0.475682
-0.0727062
-0.00978915
8.5697e-06
-0.0563552
-0.0178601
0.198617
0.420608
-0.0456688
-0.0205994
-0.0212481
-0.00804302
0.189694
-0.000203024
0.583222
0.0328792
9.73972e-05
9.7894e-05
0.000185603
-0.0161074
-0.0222153
0.00103541
0.044877
0.14147
-0.0672034
0.000772479
0.00014396
-0.0288547
-2.68752e-05
-0.00341054
-0.0138501
-0.000779016
0.0019133
0.00558292
-0.00157698
-0.00451894
-0.0194915
0.476118
0.48968
0.0471459
2.80988e-05
-0.000589567
0.326063
-0.000478485
-0.11807
-0.000192525
-0.024107
-0.0892851
-0.000177241
-0.000221633
-0.0392298
0.00179853
-5.55694e-05
-0.00149472
0.259144
-0.0413085
-6.55524e-06
0.119715
0.454567
0.471627
0.000876509
-0.106301
-0.0109854
0.542269
-0.0759437
-0.0777533
-0.00999138
-0.0152211
0.0347853
-0.0301907
0.471752
0.0937548
-0.000136237
-0.0624587
-0.0820464
-0.00440108
1.65032e-06
-0.00202821
0.27405
-0.000154229
-0.0040443
-0.00461729
-0.00131013
0.0108082
0.0351275
-0.000144515
-0.00010366
-0.00844805
-0.0969733
-0.0418021
-0.0831346
0.314911
-0.00224494
-0.000254609
-0.0423956
-0.02817
0.0115761
0.016075
0.000172992
0.0887726
0.183075
0.0226194
0.0291767
-0.000654984
-0.0155047
-0.0426766
0.00164665
2.71024e-05
-0.0108378
-0.00458168
-0.000770875
-0.0130288
-0.000906508
0.301207
-0.0104361
-0.128106
-0.0278337
-0.0123728
0.0140209
0.608947
-0.0498963
-7.89025e-05
0.580441
0.20812
0.00924923
-0.00668813
0.00899802
-0.0269661
0.202291
0.000480469
-0.00341365
0.728524
0.375778
0.413249
-0.0513245
-0.00153398
-0.00134081
-7.59362e-06
-0.00141638
0.36536
0.101384
-0.00834128
-0.00633296
-0.000328239
-0.0528946
0.686744
0.515556
0.0971979
-0.00317156
-0.0713189
-0.00564535
-0.000756534
-0.0250743
0.0150904
-0.0313853
-0.0039702
0.00115981
-0.0961962
-0.097089
0.0360051
-0.028539
-0.00520056
-0.0297132
-0.000180936
-0.00791053
-0.000721109
0.441116
0.000106193
5.93747e-06
-0.0325951
-0.0226359
-0.0327946
0.046072
0.000141475
-0.0941237
0.0754116
0.251206
0.781686
-0.00522326
-0.112812
0.0356214
-0.00230552
0.0409589
-0.0006161
0.0122732
-0.000153175
0.318838
-0.109002
0.0125678
0.144608
0.145852
0.00181883
0.00335873
7.79331e-06
0.542179
1.33124e-05
-0.0512118
0.000466546
0.00205251
0.226684
0.124739
-0.0823856
-0.0442263
-0.00460443
0.819758
-0.0830809
8.91606e-06
-0.0177435
1.07876e-05
-0.0183142
0.12734
0.253521
0.00112954
-0.0397613
-0.0106615
0.188459
-0.0273002
-0.0367366
0.71131
-0.0112121
0.000111182
-0.144216
0.737926
0.00219798
0.114656
-0.049513
0.174009
0.00230085
0.0356984
-0.0841639
0.00632029
0.0653874
-0.0317366
0.222577
-0.0297242
-0.0221243
-0.000826913
-0.000839958
0.638981
2.23441e-05
-0.00640885
-1.72114e-05
-0.00912307
0.000485591
-0.00820012
0.308226
1.31207e-05
-0.0010868
0.0138786
-0.135122
-0.0273264
0.00142903
0.524862
-0.0603139
0.218629
-0.0134621
0.197248
0.00790727
-0.000767542
-0.100616
0.000988316
0.655781
-0.0310497
-7.20588e-05
0.00273233
0.180466
-0.0126939
-0.000712549
-8.45202e-05
-0.093847
-0.00286085
-0.0111188
-0.0814786
5.0894e-06
-0.0760614
0.000579996
0.456071
-0.0116325
0.189154
0.00524107
-0.00411529
0.344364
-0.0667312
-0.146902
-0.00487094
-0.097126
0.356213
0.377518
-0.0159138
-1.23886e-05
-0.0176031
0.00548145
5.01297e-05
0.0506489
0.495794
0.0147485
0.0019448
0.00897816
-0.0772983
-0.000143246
0.0928204
0.0560417
0.0859043
0.0155036
0.0323014
-0.00037792
0.225896
-0.105971
-0.138898
-0.00106559
0.0214153
0.181952
0.00102152
-0.0794248
0.280301
-0.0468785
-0.0804189
-0.0830655
-0.107291
-0.107136
0.062879
0.284036
-0.109938
2.69958e-05
0.00107773
-0.0541702
-0.00195067
0.00626163
2.02679e-05
-0.00644575
0.00471967
-4.74213e-05
0.0690545
-0.000515182
0.152265
-0.0378657
-0.0073336
-0.00776615
-0.00966968
-0.0757714
-0.00658381
-0.00109325
0.0250221
0.0948797
0.00529112
-0.0375116
-0.00327568
0.0341734
-0.0107067
-0.0219495
-0.0822024
-0.0180797
-4.55072e-06
-0.017343
0.578505
6.96175e-05
0.0807897
-0.0568105
0.696834
0.0579763
-0.0525606
3.79512e-06
0.00205967
-0.094378
-1.01354e-05
-0.00299975
-1.84612e-06
-0.0816901
0.00536022
-0.09011
-0.0262014
-0.000103155
0.354408
0.342549
-0.040498
0.000601811
-0.000143959
2.40452e-05
-3.94273e-05
0.627817
-0.00143032
0.00276
0.0256623
0.00119829
-0.000607283
-0.0835966
-0.000198945
0.0533379
0.00216282
-0.00231005
-0.000763217
-0.029303
-0.0466797
0.226768
0.0994946
-0.000139224
-0.0150681
0.000716383
-0.0818876
-0.000609008
0.162583
-0.0111484
0.818779
-0.0189667
-0.00158275
0.0908795
-0.0217637
0.449937
-0.0473898
-0.0128914
-0.0148532
0.021685
-0.00409082
3.40744e-05
-0.00950584
0.39645
-0.049768
-0.00364176
-0.0474697
-0.0309441
0.192955
-0.000515938
0.357908
-0.00402788
-0.0739367
-0.000542766
0.0156384
0.0542569
-0.00817286
0.429247
-0.000473722
0.0393624
0.108293
0.000671603
-9.18366e-05
0.680197
0.072898
-0.00123283
0.0351779
0.0203359
0.000215881
-0.0848425
-0.0256164
-0.124816
-0.0121428
0.433654
0.00499282
0.159853
-0.000396592
0.5161
-0.0784939
-0.00603434
0.00740683
0.0373633
-0.0761023
-0.122016
-0.00983781
0.00010613
0.748257
-0.0259858
0.00104791
-0.0455654
-0.0452117
0.439933
0.00362192
-0.0188213
-3.74852e-05
0.0708193
0.00954802
-0.0438942
0.00103924
-0.00394461
-0.0322471
6.45522e-05
-0.0591943
-0.00173078
-0.0171372
-0.0729735
0.375019
-0.0118167
0.0186985
-0.052508
-0.0367721
4.1862e-05
0.00023579
-0.00433539
6.68713e-05
-0.0129833
-0.0668881
-0.0023226
3.76328e-05
0.663219
0.00600921
0.000482209
-5.04671e-06
-0.00239808
0.421958
-0.0599598
0.74954
0.241012
0.0263758
0.367206
2.61014e-05
-0.0169277
-0.000904688
-0.00280718
0.252541
-0.0117612
0.753006
0.332448
-0.0646458
0.349611
0.0103095
-0.0165658
0.00273866
-0.055399
-0.00455777
-0.0592458
-0.0637723
-0.0034407
0.344015
-0.0115286
0.000219496
-0.00496195
-0.000711598
-0.0396292
-0.000141779
-0.00139162
-1.41896e-05
0.205524
-0.122179
0.355298
0.0329858
-0.00314376
-0.0389147
-0.0235731
0.0902185
-0.00350457
-0.00117369
-0.0739169
-0.0523064
0.0101294
-0.0491058
-0.00518323
0.00741907
0.00257792
8.20743e-05
0.174575
-7.58504e-06
0.0696327
-0.000874734
6.78081e-06
0.00245178
-0.000710504
-0.00135951
-0.0187818
0.215738
0.191416
-0.0235544
-0.0148076
0.00353291
-0.0059458
-0.0119344
1.30642e-05
-0.000510135
0.000904323
0.144697
-0.0102543
-0.0653575
-0.0585596
-0.00273159
-0.0278447
-0.0177824
-0.00194249
0.00639319
-0.0146025
0.31534
-0.0785275
0.00677539
0.00182063
-0.0444158
0.736206
-0.0117302
-0.00634294
0.00932396
0.102178
0.00486829
-0.00644862
0.345675
-0.000371862
0.0534618
-0.0279322
-0.0642059
0.00765327
-0.00433738
-0.00644499
0.0500055
-0.00418222
-0.000658366
-0.00196824
0.00310026
-0.000211352
0.0349727
-0.0109892
-0.00232585
2.41582e-05
0.207971
-9.98391e-06
-0.0373617
0.0985673
-0.0289272
0.000253633
0.143217
-0.0489157
0.225645
1.08069e-05
-0.00460367
0.0791946
0.000266345
0.00597526
-0.00526406
0.0125942
-0.0244931
-0.0376882
-0.0107148
-0.00308511
0.0119048
0.025001
-0.00446433
-0.000171301
0.149547
-0.0465008
-0.00384503
-0.00812152
0.000549763
-0.0697447
0.000123955
0.584032
0.276022
-0.000514846
-0.0251539
0.000196782
-0.00248798
-0.00668905
-0.0203871
0.207733
0.167177
0.010854
0.0122425
-0.082364
0.0428116
0.0208763
0.0240787
-0.0585152
0.0177848
0.271428
-0.0111937
0.498662
-0.00101328
-0.0128046
-0.0573105
-5.80923e-05
-0.000813375
-2.54072e-05
0.494834
-0.012092
0.000396071
-0.01825
-0.00637181
-0.000323252
-0.0154092
0.361995
0.00126213
0.0130837
-0.0353651
-0.000478629
-0.00529865
-0.000872545
0.763541
0.000306461
4.94695e-05
-0.0022314
-0.0169426
0.0447848
0.000729759
0.0110925
0.0956879
-9.35149e-05
0.00253241
-0.0814509
-0.00615457
-0.0544147
2.28542e-06
0.000491864
-0.0134942
0.0380632
0.406609
0.117128
-0.0397753
2.52401e-06
-0.0623607
-0.00298215
-0.014617
-0.0141396
0.230366
0.559815
-8.40665e-05
0.191905
0.309519
-0.0112448
-0.0280763
-0.0273842
-0.0174079
0.00017881
-0.0459203
-0.0100252
-4.82158e-05
-0.000546224
-0.00175235
-0.00212535
-0.000702169
0.396706
0.423056
0.231131
-1.66267e-06
-0.0267959
-0.00198252
0.13345
0.591653
-0.000501134
-0.0234693
-0.0212492
0.385757
-0.022032
-0.0110764
-0.01674
0.197334
0.000433902
-0.00048197
-0.0294073
-0.0506008
0.163226
0.0364905
-0.0482335
-0.0279933
0.0175232
0.0236329
-0.0558968
0.0083225
-0.0558406
0.142313
-0.000323966
-0.00063651
0.105907
0.000297799
0.0194185
0.0378703
3.03874e-05
0.343235
-0.0122585
-0.00504049
0.782275
-0.0418393
-0.0118348
-0.0439899
-0.00307373
0.554399
0.00144442
0.738274
-9.54772e-05
-0.0264058
0.754596
0.00817642
0.5514
-0.00655004
6.51161e-05
-0.0302511
0.563869
-0.00174059
-0.00758332
-0.00932336
-0.00107791
-0.0245638
0.565754
0.131771
4.1841e-05
0.0234813
-0.00421596
0.0354097
-0.00094579
0.0275807
-0.00293703
-0.000446261
0.536281
0.579252
0.542384
-0.0575502
-0.0406834
0.00023831
-0.063223
0.365053
0.0180849
0.000361432
-0.0747038
0.000770246
-7.92999e-05
0.575126
0.000199571
0.00504728
-0.00212874
-0.010494
0.54829
0.566869
0.583743
0.014015
0.00065431
0.269668
0.00900439
0.026827
-0.0103835
0.000116866
-0.00331311
-1.13928e-05
-0.00514728
-0.000777815
-0.00659966
-2.48148e-06
0.186671
0.00258101
-0.0800731
-0.0105325
-0.0777744
-0.0185786
-0.000813042
0.447233
-0.012271
8.34273e-05
1.30648e-06
0.726976
5.23505e-05
0.0134822
0.065004
-0.0204543
0.38294
-0.00593722
-0.0482441
-0.0414028
-0.000485047
0.000198135
0.328648
0.579885
-0.00168191
-0.0253364
-0.000213203
0.573229
0.700058
-0.00156084
-0.00742567
0.0228709
0.0036563
-0.027721
0.000158198
0.0119945
-0.0422311
0.0655563
0.449567
-0.0016314
0.0339506
0.0959572
0.00989408
-0.0494923
0.0333985
0.678681
0.225621
-0.0591358
0.581949
-0.000583859
0.590629
-0.00853388
0.483051
0.0881223
-0.00573005
0.0395145
0.00292429
0.0208602
-0.0798902
-0.000692025
-0.0263233
0.479744
-0.0297316
0.0264727
-0.00160061
-0.0485775
0.215986
-0.0104514
-0.138144
0.000915006
-0.0040732
-0.0269169
-0.00237142
0.00241187
-0.00996884
-0.000499758
0.0029385
0.47731
0.00263955
-0.0180168
-0.0647435
-0.0325754
-0.0693138
-0.0907174
0.00499155
2.87249e-06
5.83867e-05
0.322821
-0.0640572
0.000103183
-0.0743061
0.218059
-0.0657626
-0.0168691
0.000181221
-0.00206556
-0.0508726
0.165114
-0.0100006
-0.000474402
-0.0507659
-0.0221431
0.756398
0.133261
0.0793548
-0.0562354
4.02252e-07
-0.00750421
0.0764958
-0.000348365
3.52936e-05
0.202878
0.116675
0.000796107
-0.000894218
0.0083689
-0.0432625
0.011996
0.00933127
-0.0168879
9.28285e-05
0.345516
0.000759651
-0.000614104
-0.000194607
-0.000193101
-0.000113082
0.0965004
0.00119209
-0.00305796
-0.0106311
-0.00535357
0.0332379
-0.00598112
-0.0456551
-0.0115403
0.521935
0.425645
-0.00047292
-0.00155397
0.112761
-0.000829954
-0.023702
0.0555205
0.0272096
-0.00100499
0.0238596
0.0466264
0.00159073
0.0964074
-5.99663e-05
0.0086011
-0.0225485
0.0159504
-0.016098
0.0568325
0.00012617
0.000139992
0.000409414
-7.47386e-06
-0.00164809
-0.0106549
-0.0141117
-0.0320993
0.0483393
0.0427899
0.0105372
-0.0703073
0.0124307
0.00718484
0.0149045
9.91545e-05
0.566135
-0.00903174
-0.00350857
-0.0381099
0.766826
1.2376e-05
0.042975
4.58224e-05
-0.0519411
-0.00696516
-0.0239099
0.201936
-0.00426999
5.89185e-05
0.166253
0.083263
-0.000531695
0.0590082
1.16121e-05
0.191348
0.00732743
-0.030652
-9.36174e-05
0.282943
0.0324621
-0.0221048
8.97469e-05
0.19832
0.382137
-0.00114323
2.56165e-05
-0.0389796
-0.00969405
0.00482275
0.0238688
0.594064
0.329005
0.000616956
0.413896
0.289362
-0.00298173
-0.0589765
-0.0396693
-0.0174759
-0.0601561
0.0903967
0.000995537
0.619289
0.1682
0.0139322
0.000187084
0.00078949
1.72923e-05
-0.000515562
-0.00291363
0.667782
4.93708e-05
0.0902432
0.0304225
-0.000182516
0.617082
0.701334
0.230625
0.272689
-0.0754741
0.00282103
-0.000236502
-0.0117559
9.85966e-06
-0.0010975
-0.131798
6.74378e-05
-0.00195424
0.632486
-0.0123476
-7.58216e-07
0.658252
0.000589145
-0.0374671
-0.0732844
-0.00131585
-0.0862246
-0.000193075
0.135057
0.00375126
-0.0186566
0.00221403
-0.000605902
-0.000335193
-0.00017618
-0.130171
-0.0633648
0.178229
0.00314526
-0.00731429
0.272477
0.000122969
0.735841
-0.000475532
-0.0877087
0.00255356
0.00187599
0.0570223
0.0598557
4.68879e-05
-0.00433433
0.000169064
-0.000638923
0.00100775
0.094206
0.0545054
0.389507
-0.0485375
-6.55385e-05
0.000242283
0.111422
0.425832
-0.004626
-0.00657463
0.733686
-0.00285009
-0.0217513
0.00102047
0.0613322
-0.0476539
-0.00894653
0.182448
0.00154068
-0.000183228
0.00189335
-0.0467139
0.725049
0.564269
-0.0253994
-0.0418294
-0.00673405
0.0017932
6.51671e-05
0.0842226
0.22565
4.53033e-05
-0.00761387
-2.98144e-07
0.000216318
0.529853
3.62351e-07
-0.0814122
-0.0621384
-0.0984173
0.0773982
3.45631e-05
0.0108603
-0.00643031
0.486639
-0.0102259
0.00550999
-0.0319203
0.000772512
0.427957
0.244867
0.0116876
0.0551473
0.64082
-0.0667309
-0.0613358
-0.00192175
-0.00729871
-0.000306157
0.0228061
1.06666e-05
0.191487
0.00324069
0.212671
-0.0366355
2.1315e-06
0.0599938
-0.000112024
3.16923e-05
-0.000704163
0.716386
0.686289
0.368639
0.000100629
0.175975
0.589248
-0.000945605
0.00159256
-0.00881081
0.0659506
0.568928
-0.0289053
0.137504
-0.00260119
-0.0669057
-0.0750766
0.794069
-0.00055774
0.562758
0.0980756
0.221326
0.000217941
0.000292841
0.00588877
-0.00934729
0.0914317
-9.39567e-06
0.000111582
0.551754
-0.104938
0.000400649
0.579656
-0.00233602
0.00023336
0.462268
-0.00739319
-0.00152853
-0.060405
0.138026
0.000409105
-7.51073e-05
0.00378208
-0.00414835
0.547401
0.712305
0.328341
0.773244
0.0667823
-0.0479088
0.64736
-2.92453e-05
-0.00331107
0.0981509
-0.00354112
-0.000608298
-6.46359e-05
0.577911
0.0186419
-0.000598383
0.692064
0.0833661
0.250142
0.0472269
-0.00275128
-0.0216406
0.160243
0.0778666
0.577112
-0.0255242
-0.00073789
0.526941
0.484152
0.0140331
0.399766
-0.0408181
-0.00806485
-0.00981629
-0.000590633
-9.04182e-05
0.533273
-0.0644892
-0.0125666
0.000995104
0.175879
-0.03277
-0.019618
-0.000940907
-0.00401302
0.600382
-0.000753611
-0.0181911
-0.00304263
0.591515
-0.0202697
0.0215046
-0.00773627
0.00157909
0.172258
-0.0229162
0.614114
0.0495448
0.771107
0.291752
-0.0618055
0.0336005
-0.00176512
0.00428092
-0.0838803
0.555933
0.595597
0.670268
0.370045
0.539332
-0.000289385
0.632597
3.60488e-06
0.000114529
-0.0492888
0.68767
0.0544739
0.274579
9.75233e-05
-0.00216614
-0.100433
-0.0370365
0.545701
-0.000631848
-0.00791164
0.367495
0.00118918
-0.00435297
0.746447
0.0507221
-0.044022
-0.165715
-0.000467683
0.0315387
0.0254403
0.781456
0.0280649
0.0145208
0.00457479
-0.000187603
-0.00922753
0.215228
0.00589507
0.000187739
-0.102389
0.278165
-0.0014502
0.564461
-0.0738175
0.571049
-0.0299662
-0.0236615
0.643504
-0.00545088
-0.00738875
-0.000339018
-0.00127682
-0.0653831
-0.023226
-0.0373955
-0.0100661
-0.000220128
-0.105991
-0.0718004
0.569315
0.000358349
0.000887009
-0.0211531
0.125806
-0.109018
-0.0599648
4.13965e-05
-0.10752
0.0493552
-5.19051e-05
-0.0835722
-0.130708
0.575886
-0.0989214
0.563031
-0.0141072
0.103514
0.284333
-0.0357883
0.349011
-0.00174705
0.0850685
0.000933027
0.0913509
0.214084
0.191791
-0.0291096
0.00648701
-0.00059192
0.196872
-5.12619e-05
-8.04523e-05
-0.000989933
-0.00858416
0.0160375
0.0156258
0.47417
0.159054
0.726212
0.436098
-0.00148748
-0.0334337
-0.000104997
-0.0488544
-0.00118363
0.00611548
0.000751203
-0.0340249
0.380863
0.561352
-0.000239131
3.80318e-05
0.00499487
3.42645e-05
-0.00932781
-0.00011825
0.133274
-0.0360859
0.205811
-0.0890858
8.93375e-05
-0.0141296
-0.0400569
-0.0260886
-0.0166505
-0.0529269
0.0418543
-0.000119882
3.5908e-06
0.00225038
-7.53822e-05
0.0736437
0.0302364
0.0403268
0.672529
0.0462638
-0.123533
-0.0858358
-0.000364647
0.0533393
-6.69159e-05
0.528161
0.104274
0.62595
0.000212419
-0.0330328
-0.00682744
0.0503966
0.151644
0.479773
-0.00762141
0.0291192
-0.0018663
-0.0195752
-0.0080297
-0.00609053
0.112292
0.00172711
-0.00863191
-0.020531
0.237839
0.0605797
1.11958e-05
-0.000816086
-0.00619646
-0.000544563
0.111142
-0.000602439
-0.0317017
0.146439
0.000117536
0.277927
0.000130454
-3.23213e-07
-0.0895667
-0.0196047
0.000228324
-0.0227801
0.000252549
0.655773
0.0128609
-0.0245475
0.605079
0.133953
-0.0316538
0.465708
-0.00270262
-0.00180339
-0.00201653
0.0834648
0.822958
-0.00142083
-0.000514778
3.88907e-05
0.00812886
-0.00117555
0.0262236
0.00638509
-0.0211253
-0.0590227
0.0189636
0.0108451
-0.0189159
-0.000467258
-0.0395818
0.4584
-0.00173669
-0.0138353
-0.000173396
0.476464
0.0543357
0.452725
0.000516363
-0.000768009
-0.024025
0.673895
0.153111
-0.0284827
-8.07479e-05
0.0321345
0.0738973
-0.0277204
0.211153
-0.0475313
0.0196799
-0.127134
0.479995
-0.0166014
0.26857
-0.00311151
0.779699
-0.0412255
-0.0110122
0.613154
-0.0429128
0.174238
-0.135908
0.19592
0.00668777
0.050678
0.36194
0.0510276
-0.0479468
-0.00965821
-0.00761671
-0.0152203
-0.0138632
-0.00145103
-0.0564473
-0.0284744
0.00210475
-0.065171
-0.0807668
1.07941e-06
0.0733274
-0.00909162
0.0596193
0.621191
0.41653
-0.0532245
-0.0700356
0.000561373
-0.0773843
-0.00440158
0.753344
-0.0352705
-0.0304012
0.410699
0.0490976
-0.0399155
0.219439
-0.0368206
-0.000553937
-0.0117094
0.0103299
0.000773776
0.435156
-0.0026383
0.14883
0.360559
-0.00565602
0.260211
-0.0996177
-0.000312766
0.00690292
0.0644928
0.383906
-0.00245467
0.0767815
-0.0690717
0.0645331
-0.0230839
0.422723
-0.000822883
-0.0799124
-0.00317177
0.000242836
0.559809
-0.00237053
-0.0320979
-5.39695e-05
0.22481
-2.32265e-05
-0.0471193
-0.00278688
-0.146924
0.000763901
-0.0103203
0.177614
-0.00385659
0.00103238
0.0007416
-0.00407037
0.0325389
-4.87023e-05
1.03469e-05
-0.00846345
-0.0105379
-0.0229416
0.00840376
-0.00183247
0.0761
0.0816252
-0.00119181
0.00112745
-0.000128012
0.551734