/*--------------------------------*- C++ -*----------------------------------*\
  =========                 |
  \\      /  F ield         | OpenFOAM: The Open Source CFD Toolbox
   \\    /   O peration     | Website:  https://openfoam.org
    \\  /    A nd           | Version:  7
     \\/     M anipulation  |
\*---------------------------------------------------------------------------*/
FoamFile
{
    version     2.0;
    format      ascii;
    class       surfaceScalarField;
    location    "17";
    object      phi;
}
// * * * * * * * * * * * * * * * * * * * * * * * * * * * * * * * * * * * * * //

dimensions      [0 3 -1 0 0 0 0];

internalField   nonuniform List<scalar> 
43924
(
-594.89
665.669
-70.7784
1063.07
-1072.3
9.22804
-335.172
382.656
-47.4846
228.721
-259.416
30.6948
-498.628
498.628
222.877
-265.075
42.1983
-366.47
364.131
2.33939
24.887
-561.734
536.847
663.42
-833.393
169.973
-1009.26
1102.24
-92.974
553.082
-142.495
-410.587
-530.896
536.732
-5.83565
-687.893
582.694
105.199
-859.82
868.883
-9.06243
264.265
58.5859
-322.851
386.084
-10.5273
-375.557
814.639
-666.849
-147.79
-403.251
399.967
3.28417
161.342
314.777
-476.119
290.957
-357.662
66.7055
-594.098
81.6532
512.445
724.344
-60.9241
50.1613
-385.333
136.588
-489.61
353.022
235.946
-127.264
-108.682
1067.51
-4.44009
659.893
-681.045
21.1516
-278.392
-2.81836
281.21
301.029
-36.7638
-441.321
543.839
-102.519
951.107
-249.119
-701.988
-670.262
758.17
-87.9076
241.085
-225.262
-15.8225
477.953
-68.5715
-409.381
132.641
-411.033
268.524
-431.221
162.697
432.811
-582.793
149.982
291.828
-36.9381
-254.89
824.082
-978.422
154.34
1061.31
-237.228
-1018.07
1035.63
-17.5612
404.039
-94.0577
-309.981
704.011
110.628
191.977
-307.762
115.785
1228.46
-777.698
-450.766
-591.274
149.953
539.275
-538.684
-0.590746
230.51
645.513
-876.023
224.121
537.283
-761.404
-110.066
542.877
-368.8
167.175
201.625
-15.7978
-224.588
240.385
-664.01
-6.25167
240.379
-17.5028
424.453
-38.3687
-272.245
-56.5273
328.772
524.984
-499.986
-24.998
-34.2471
-559.851
-462.682
40.7878
421.894
-298.829
-25.0965
323.926
799.518
17.5776
-817.095
-409.166
570.508
-17.2294
-236.464
253.694
-214.455
482.979
-321.46
436.026
-114.567
261.953
240.432
-502.385
496.983
-127.334
-369.65
428.37
-46.8704
-381.499
-450.173
-29.5541
479.727
-986.611
-31.4614
1060.35
7.16909
298.259
284.548
-582.808
-242.061
546.34
-304.278
169.751
82.9661
-252.717
-432.403
382.087
50.316
-370.757
375.32
-4.56327
293.019
-162.364
-130.654
-251.285
-61.9252
313.21
-699.307
16.5457
682.761
407.844
-94.2697
-313.574
-255.91
255.91
87.1242
-763.02
675.895
-661.845
66.9552
-947.223
848.219
99.0033
-311.892
-54.578
-43.8962
212.98
-169.084
522.422
-138.779
-383.642
-644.582
-43.3105
652.519
-69.8251
102.652
80.1369
-182.789
-353.883
87.8734
266.01
-311.026
59.7406
845.579
-621.458
563.228
-591.416
28.1882
229.039
-97.6644
-131.375
-359.935
132.61
227.324
-18.2959
249.578
-231.282
-846.684
847.361
-0.676485
-27.9348
-162.58
190.515
268.895
6.70617
-275.601
-711.458
12.1507
-267.589
284.28
-16.6908
778.748
20.7699
426.493
-629.52
203.027
202.566
-218.364
-755.138
815.755
-60.6171
643.427
-717.592
74.1648
74.7011
577.818
943.851
-846.972
-96.8788
-219.621
237.423
-17.8019
200.218
40.8668
351.616
118.325
-469.941
1009.09
-256.883
-752.206
19.0804
563.398
-582.478
-13.1314
-587.186
600.318
539.09
-240.831
104.691
427.284
-531.975
-303.381
408.444
-105.063
76.7551
-814.828
738.073
-697.902
455.841
-23.4243
-189.331
212.755
19.2349
-855.03
835.796
-302.161
317.886
-15.7247
-37.0703
299.023
24.1295
-890.669
866.54
-354.529
334.843
19.6857
-88.0075
-315.244
8.2492
-283.006
274.757
703.209
-786.341
83.1318
726.195
-860.271
134.076
-145.542
337.519
180.478
112.541
196.263
-205.832
9.56801
279.78
-304.798
25.0184
-127.289
553.782
624.101
327.006
149.783
74.8811
-224.664
277.885
-317.523
39.638
197.573
-228.748
31.1744
-27.3951
296.29
-341.821
-12.7081
1.39525
-189.274
187.879
225.983
-64.1732
-161.81
181.122
827.967
-198.076
-739.277
937.353
-101.181
-397.447
522.727
16.5483
224.66
-225.671
1.01059
252.884
-201.765
-51.1187
13.1144
-227.054
213.939
-394.798
630.695
-235.897
53.3157
506.128
-559.444
984.057
-886.374
-97.683
790.945
-787.097
-3.84763
-571.646
-239.038
810.683
-146.138
722.133
-575.995
456.267
-443.897
-12.3703
-218.701
0.506325
218.195
31.9898
-762.443
730.454
-168.152
-200.648
-249.21
235.139
14.0709
241.334
-12.6127
28.7838
1020.89
-572.446
-448.441
735.196
-933.272
-400.371
96.9902
17.0375
208.946
16.4431
-778.212
761.769
-90.3956
-856.827
418.082
-452.64
34.5583
-106.618
832.813
54.8283
-736.208
681.38
-211.06
-7.64113
277.885
-0.212358
242.554
-242.342
-432.985
432.985
83.0551
679.153
-762.208
-316.005
48.4166
-579.142
598.222
322.963
-292.325
-30.6376
-777.835
-63.2727
841.108
-142.768
445.048
-302.28
434.911
87.5104
428.429
-443.421
14.9918
239.582
-42.0086
-210.951
-325.682
536.634
501.764
-381.616
-120.148
-328.666
16.909
311.757
785.04
-81.8301
-521.167
-78.7527
599.919
-661.113
661.113
-125.246
501.262
-376.016
94.8741
-344.471
249.597
-919.694
348.048
307.144
-359.187
52.0434
436.9
19.3673
810.55
-492.888
-317.662
914.959
-64.6018
-850.358
78.8237
150.216
-847.101
614.101
233
-21.802
260.124
-238.322
-213.08
221.056
-7.97601
-41.7387
-489.158
874.807
-890.085
15.2775
-61.2767
429.979
-11.8974
787.833
-790.86
3.02698
245.014
-20.3542
16.2527
-235.874
822.136
-963.827
141.69
246.287
-342.45
96.1622
570.753
-570.753
899.945
-93.2477
-806.697
594.314
73.0678
-667.381
53.9679
-326.017
272.049
-202.812
273.369
-70.5567
-470.467
327.699
54.0445
733.788
-393.138
529.726
259.167
-180.343
-683.947
-176.324
484.371
-630.509
453.715
-501.334
47.6191
-895.364
1029.3
-133.937
-580.864
555.797
25.0675
505.65
-582.483
76.8332
128.72
730.94
-859.66
211.34
530.666
-742.006
723.336
505.128
321.915
739.395
326.825
-232.467
-94.3586
-296.562
296.562
371.319
-402.367
31.0485
-28.3083
1088.65
270.469
-324.366
53.8966
529.843
-476.528
-297.429
-562.391
551.788
-565.932
14.1439
-29.4813
904.289
252.607
-274.409
-207.974
191.117
16.8565
499.086
-587.88
88.7936
-197.742
959.016
-761.273
588.836
-83.1861
771.447
-384.037
-387.411
339.607
-48.6502
472.008
548.88
-202.081
158.185
-743.854
59.9065
-931.515
36.1515
477.818
47.1666
-679.819
891.159
-691.637
-63.5004
190.618
-200.885
10.2664
-74.0136
915.172
-841.158
-38.0478
-817.796
855.843
185.699
-184.304
34.6517
167.363
-202.015
-9.6464
-366.014
375.66
319.916
-311.667
-603.536
208.738
-240.185
443.033
-202.847
908.542
-678.032
303.587
23.2383
274.595
16.1155
-290.711
-567.092
164.721
402.371
461.1
-32.6706
520
-730.951
-360
-10.7567
647.169
-746.151
98.9826
-225.605
154.841
70.7635
-656.302
638.995
17.307
213.046
-213.259
75.9393
183.228
-742.672
825.727
-324.536
317.694
6.84182
68.0769
-363.784
295.707
235.175
-207.401
-27.774
526.777
-328.801
-197.975
7.37517
-347.009
339.634
-497.499
484.368
-74.9111
283.66
-208.749
-660.199
156.629
503.57
-347.761
-12.1736
653.856
6.03735
445.987
-21.5343
-164.432
13.1694
151.263
-21.6213
722.606
-700.984
-851.354
980.074
321.563
-148.836
-172.727
677.341
-775.139
97.7972
423.327
348.121
706.453
59.5152
-765.969
818.094
81.8503
547.534
-525.044
-22.4901
1093.71
-1012.3
-81.4043
5.56172
-297.316
291.754
284.924
-10.3287
95.1564
140.79
210.984
-14.7202
194.352
-201.559
7.20708
145.949
147.798
-293.746
-305.809
285.349
20.4608
-160.081
-296.378
456.459
420.876
-546.122
-321.291
195.558
-195.875
0.317515
194.726
1009.58
-564.584
-444.995
525.994
-109.161
-416.833
133.178
510.249
77.148
470.386
20.8021
-690.304
711.663
-21.3586
47.4914
-548.303
500.811
-84.9377
-248.073
333.011
-449.31
39.3182
409.992
-140.604
-336.128
476.732
780.014
-1.2656
22.6727
183.578
-370.35
186.772
161.164
-236.075
-920.661
849.035
71.6258
-297.948
306.056
-8.10805
667.771
-82.9556
-584.815
1047.02
-603.81
-443.215
193.784
-194.509
0.724383
260.436
-111.563
-148.874
-422.147
418.447
3.70032
663.633
-31.9737
-631.66
-693.027
2.72239
372.426
35.4177
-565.425
445.496
119.929
582.601
-578.382
-4.21853
-855.762
44.3897
811.372
856.368
33.1988
-889.567
-424.803
284.199
-202.733
38.3014
-321.885
527.303
-205.418
-171.441
-36.5325
754.996
-793.044
-145.608
180.26
535.839
-173.787
-362.052
-123.641
-309.343
222.864
-224.233
1.3688
619.524
44.1094
683.502
-608.8
19.6199
-301.879
282.259
837.322
-876.319
38.9969
-305.623
13.2972
954.149
-957.45
3.30115
50.3682
212.586
-262.954
680.269
-33.1001
567.681
-592.865
25.1841
-829.433
848.668
182.381
-205.805
786.315
212.182
746.833
155.436
192.773
-348.209
-299.915
-8.67267
821.811
-67.6229
-754.188
595.931
-130.852
-465.078
239.566
-72.3916
85.7576
411.226
70.4487
-273.261
473.887
-503.957
30.0692
142.95
-349.375
206.425
137.767
389.01
53.324
861.635
653.015
-773.306
120.291
-22.8653
977.014
-248.842
-29.5495
278.391
-219.343
208.247
11.0963
-1.91569
171.666
48.699
453.065
335.262
-344.908
-356.657
35.1979
-336.724
37.8947
838.356
-58.3428
71.0926
-241.844
170.751
-954.243
22.7272
-917.604
-36.6385
-486.078
55.7425
430.335
-730.911
899.447
-168.536
-201.877
-58.968
260.845
-113.309
-76.5259
189.834
-154.34
-46.3419
200.682
-134.598
229.463
-94.8654
853.455
407.534
-223.956
139.575
-12.8103
-568.054
-879.027
-41.6344
445.353
150.578
190.122
-512.008
200.735
-1106.99
906.256
30.0731
200.775
-230.848
-13.5669
-199.513
419.036
26.9512
89.1834
701.761
282.4
12.1535
-294.554
-473.219
577.91
728.727
72.8977
-801.624
-777.897
-8.44425
800.254
-854.866
54.6125
294.74
-256.865
-37.8753
81.7045
239.858
850.73
-864.979
14.2489
978.833
-862.152
-116.681
939.043
-943.619
4.57609
-393.363
-172.062
-6.11966
-872.915
548.885
324.031
-186.748
162.389
24.3597
-243.501
389.449
141.226
92.0616
-233.288
757.209
256.86
-274.089
431.74
94.2541
782.299
-695.399
-86.8997
-52.7627
-105.478
-90.4259
195.903
-309.59
260.627
48.9632
862.419
-838.289
-21.9633
380.164
-358.201
-333.755
-8.06526
569.933
-583.885
13.9527
369.328
-327.391
-41.937
-828.465
731.193
97.272
-905.764
831.75
142.272
118.164
-406.819
277.31
129.509
468.75
-454.226
-14.524
621.453
-622.668
1.21505
518.168
-44.2806
-316.373
-136.498
452.872
20.6196
-269.461
-74.5831
-245.604
320.187
544.284
563.926
-1108.21
-900.868
849.211
51.6564
-3.53409
-405.367
419.416
-14.0484
432.356
-399.987
-32.3687
671.425
-844.075
172.65
710.987
-881.11
170.123
-503.673
-156.526
-437.834
76.263
361.571
306.262
-6.66481
-299.597
-326.599
172.259
474.343
78.7387
-719.68
-108.786
4.68318
189.669
-304.015
300.464
3.5505
52.5399
-348.765
296.225
490.771
39.1175
-529.889
-229.673
301.031
-71.3576
-896.199
-19.6393
915.838
-195.991
-38.1704
234.162
6.70113
-844.69
837.988
804.707
-118.452
-686.254
335.306
140.336
-214.919
-874.882
-21.3172
808.486
40.5491
-7.77437
539.331
-187.715
-506.453
-14.0491
520.502
-801.994
913.796
-111.802
314.154
-246.077
-394.552
309.614
-30.2748
590.75
63.1055
384.455
-241.506
301.563
508.986
-15.0514
27.2359
342.092
-776.082
84.2904
691.792
456.967
94.8212
-129.458
-31.0116
160.47
-851.811
-23.071
72.3321
331.707
-200.271
227.769
-27.498
50.715
-280.388
-255.956
274.387
-18.4314
-19.0851
30.1628
-513.441
483.278
-610.949
-135.202
-24.084
303.534
-279.45
-330.181
448.505
599.39
447.635
-1102.77
430.484
672.286
329.715
0.36789
-330.083
-234.131
-166.839
400.97
-524.795
549.682
-661.188
-18.108
679.296
99.11
90.8603
-189.97
-44.2468
799.243
838.741
-862.483
23.7419
807.524
-154.509
39.9847
-601.718
-326.643
-20.366
556.821
57.831
-614.652
440.734
20.3664
-349.707
393.715
-44.0084
-853.501
-3.80723
857.309
-27.8171
-823.994
298.166
-273.456
-24.7097
625.207
-3.75328
567.4
-406.253
-161.147
-218.543
276.141
-57.5985
-90.0736
-266.584
-421.403
-41.2788
894.059
-183.072
-819.845
88.9344
-629.35
18.4013
-540.444
51.3867
489.058
820.554
-39.6313
-780.922
-259.674
125.076
-0.9269
-356.056
356.983
857.893
-186.468
308.444
-2.18186
636.59
-68.9094
494.179
-3.40766
801.409
-712.226
-1045.13
-57.6408
445.141
23.6092
527.186
36.0421
730.474
-698.484
795.902
-38.435
-757.467
196.014
-223.949
276.355
-15.7283
-118.249
208.542
-195.428
474.982
15.6584
-490.64
576.587
-99.071
-477.516
-459.853
422.158
37.695
128.913
672.496
1.04878
-92.8744
-763.507
856.381
81.796
-669.311
587.515
228.348
-305.179
76.8308
-740.104
647.229
91.7818
712.925
-504.404
1048.69
236.98
-165.887
-271.996
-177.012
250.827
-73.8149
211.746
-261.755
50.0095
-180.645
321.871
-8.96593
-324.79
-51.1994
5.74035
-411.285
405.544
-47.5685
-162.254
-195.408
-31.0196
368.769
-337.75
-870.849
944.468
-73.6187
45.5098
-528.189
482.679
30.1532
-249.497
-755.897
106.261
649.636
356.758
-224.116
819.404
1.1494
-3.10004
216.338
-213.238
431.923
135.477
-116.965
-320.869
815.827
-201.726
-95.1997
-914.064
614.538
-329.989
129.585
44.7431
654.535
-567.411
495.668
-17.715
343.135
-35.9904
339.252
-421.705
82.4533
200.067
-245.4
45.3331
46.2336
251.422
-297.656
336.022
-496.103
-3.16312
761.958
-806.205
537.814
-62.8321
-105.121
736.692
-631.571
-269.792
304.988
-35.196
-68.1303
296.478
207.408
-190.37
-282.675
12.8837
-1057.99
586.524
471.466
-35.8946
-76.0554
178.708
-310.329
295.671
14.6578
-676.041
692.484
268.889
-273.816
4.92702
-473.549
177.17
-502.165
-555.825
241.925
-278.863
847.17
-946.601
99.4315
-344.091
17.4481
485.12
-627.12
142
-2.30921
810.795
230.639
-257.824
27.1854
-318.468
-554.447
-37.578
294.236
-25.3467
340.907
-115.302
-225.605
-20.2568
-839.11
859.367
-875.771
484.546
391.225
-56.3767
735.53
-456.873
35.4701
-146.689
-124.708
271.397
875.619
-818.366
-57.2526
394.302
-321.97
796.58
3.67373
104.923
88.1041
-193.027
-580.556
1024.4
-443.841
147.081
-196.029
48.9478
-758.957
-144.996
903.953
130.569
210.338
853.519
-31.3821
813.472
-736.717
504.034
-418.276
8.66664
-245.131
44.4786
150.623
-195.102
307.293
232.038
-25.2562
-1098.2
619.199
479.001
7.8325
891.684
-60.5465
-831.137
-430.64
623.204
-192.564
57.1579
756.314
23.5628
-530.016
-590.539
-18.3501
608.889
410.947
147.501
-558.449
-264.706
-522.391
279.174
63.9608
-179.531
-76.3793
-406.618
352.99
53.6285
-790.716
297.829
201.616
-262.923
61.307
222.659
-249.043
26.3848
430.562
-424.821
725.012
51.7432
-776.755
-203.659
41.0791
819.3
20.8101
-840.11
-353.004
14.7411
338.263
118.64
860.193
-410.526
451.314
411.7
-72.4486
-954.445
99.6859
854.759
789.091
102.593
-36.1276
236.194
50.7464
381.61
895.813
133.487
28.8391
-485.712
28.6562
-826.757
798.101
696.157
-763.827
67.6701
636.29
465.947
769.016
-56.0324
-712.984
197.103
-50.0218
76.5214
339.535
-416.056
-735.236
792.394
262.055
173.971
-275.031
168.031
107
-111.163
-426.871
538.034
-32.3877
-216.822
1004.41
-573.924
86.7894
-288.666
206.646
-209.746
-102.204
-157.212
30.5801
820.15
-162.134
498.157
-598.905
752.841
-153.936
681.681
-703.302
-390.795
376.746
-442.521
-180.148
39.6047
348.823
-11.126
-337.697
-46.286
808.244
-505.244
-623.364
1128.61
288.159
-234.653
216.357
9.83478
197.573
-250.196
122.932
-885.275
908.932
-23.6573
-268.481
255.315
13.1653
74.507
707.792
3.36375
765.652
636.064
-16.5401
-15.1268
-512.95
470.741
42.2086
933.07
17.1545
-950.225
-310.915
-42.0896
-0.545239
-234.936
794.142
-69.1301
529.023
-623.162
94.1393
-761.889
-84.7953
34.9131
259.827
885.563
10.2503
-491.027
441.048
49.979
-950.45
-94.6794
47.3304
-384.821
337.49
-193.435
214.678
-21.2436
245.865
-34.1194
-39.8599
1050.31
-313.227
-737.079
579.627
-50.6042
46.1473
-265.241
-60.7759
-691.67
773.033
-81.363
-80.3114
-5.72085
228.379
504.877
-5.79034
92.7927
-870.628
-94.3381
214.641
-120.303
-192.354
216.778
-24.424
-681.803
570.64
-448.983
479.145
342.238
52.0634
-460.98
425.04
35.9401
577.196
432.383
498.579
-460.036
-38.5435
475.944
-308.652
-167.292
-198.186
35.8214
351.051
-21.6929
-329.359
-253.492
76.4797
-326.459
289.389
-219.031
-636.731
-691.519
-81.7867
260.453
-58.8372
660.543
197.349
6.95253
228.186
815.953
-85.2819
-730.671
329.088
-142.169
647.102
-504.933
238.425
-297.393
-100.33
511.278
-750.72
8.04823
-120.18
-105.424
500.004
-94.302
781.604
-687.302
-200.582
218.57
-17.9876
-26.3986
-242.082
829.588
-737.806
223.523
-427.987
-405.62
833.607
860.878
-200.335
-43.8221
786.221
-742.399
597.428
-6.67788
17.7914
-608.331
281.313
135.204
-416.517
-404.264
480.786
-21.3635
-318.804
340.167
-617.311
66.2077
551.104
-144.562
512.534
-367.973
-479.098
410.185
-483.507
73.3212
105.497
-180.445
74.9485
-183.259
338.695
-174.707
-185.293
727.275
-31.118
102.315
581.187
-611.069
648.943
-37.8735
269.218
-293.302
-810.234
-52.2489
97.1957
-433.324
590.12
460.186
-615.808
173.288
416.416
-844.404
380.406
-681.905
28.6556
653.249
-199.042
245.846
-46.8038
-816.292
886.705
-70.4135
-48.5895
-432.266
480.856
1005.36
-405.607
-599.754
-69.2524
-785.614
10.4751
287.691
-950.468
207.419
743.049
-857.72
-92.7483
-173.928
-12.8206
-777.765
731.479
-130.822
-294.776
425.598
-18.0881
-265.349
283.437
160.426
647.098
232.313
154.7
-387.013
-902.87
154.58
748.29
541.212
-580.991
39.7789
604.547
58.6021
-663.149
-44.0404
673.984
-639.86
-34.1246
353.474
-23.7589
-19.2857
220.603
-201.317
608.344
65.6402
14.3241
-792.221
721.543
-777.576
-177.734
222.213
322.964
152.98
139.707
-314.414
204.62
-208.902
4.28148
342.859
-200.061
-142.798
592.082
43.9817
-747.126
800.843
-53.7173
-399.89
-103.749
503.639
-15.2114
-288.803
251.077
54.598
-305.675
251.846
-101.32
-150.526
418.399
-466.989
-61.7169
-740.277
-411.154
89.4282
145.747
503.724
-441.458
-62.2658
-228.133
258.206
-205.075
196.919
8.15612
17.6654
-222.177
204.511
-322.983
379.801
-56.8179
210.676
-6.88754
-203.789
450.438
554.923
-263.692
555.589
-473.936
141.102
-233.495
92.3929
-203.591
-9.06057
212.651
701.292
-96.7454
246.304
-170.365
-357.77
278.274
79.4956
-428.378
-14.357
442.735
-352.134
449.329
313.49
-323.462
9.97177
-17.7174
34.258
469.776
462.862
35.7177
32.2076
-460.586
183.371
7.74629
-339.716
-4.37531
-371.144
297.313
73.8317
342.806
-63.6325
672.82
221.239
-232.43
250.096
-290.205
307.114
97.2318
658.513
-755.745
-736.164
-26.0193
762.184
28.9683
160.766
16.7798
-339.763
-690.719
621.129
69.5896
126.659
-173.164
170.283
2.88035
425.787
-144.474
-239.161
-174.132
413.293
-166.571
-346.379
222.087
-17.4668
-260.197
113.508
91.1936
-185.532
-1009.55
696.319
-348.247
348.247
851.458
242.249
-35.2994
-509.104
-500.442
210.714
326.018
528.189
42.5644
546.17
-51.9905
265.503
-241.727
-23.7759
-629.439
662.369
-32.9296
-50.2689
-532.804
-46.3378
-638.12
713.534
-75.414
84.4498
-493.616
-353.26
539.476
6.69335
528.14
18.0909
-546.231
746.701
-647.494
7.63405
-114.229
-64.9407
179.17
-414.905
88.446
313.452
-34.1168
-279.335
-155.583
-47.1509
-303.025
290.02
13.005
-291.406
72.863
868.707
-195.887
-333.475
50.4689
767.609
-1.10145
-766.507
584.197
-659.078
74.881
-922.851
830.371
92.48
-23.9316
-637.256
110.003
298.44
-23.9988
-261.684
285.683
-783.307
20.2869
-204.501
-291.921
267.922
-466.194
511.704
-237.003
262.25
-25.2469
-304.793
299.611
5.18268
-809.651
704.529
995.985
-148.815
-166.256
300.254
-249.886
362.176
-169.403
411.847
-308.288
-103.559
288.351
54.4547
812.222
-93.0001
-719.222
184.136
-681.635
-752.291
668.583
83.7085
5.4182
-617.473
623.935
-6.46236
66.0342
180.27
-96.8272
517.704
-270.872
291.376
-20.5043
379.275
-458.444
79.1699
-608.682
649.279
-40.5973
585.488
44.6008
-630.089
241.927
-222.803
-19.1242
556.071
-23.6097
-532.462
234.705
-123.65
-111.055
-128.211
-49.3142
177.525
954.091
-945.116
-8.9749
-575.501
-388.326
-46.5975
-755.617
802.215
-897.645
834.373
-581.392
358.409
222.983
605.109
-623.459
-15.6913
672.146
-656.455
21.4447
146.02
-167.465
-70.4292
-278.336
-855.972
-66.8785
15.4589
366.628
334.093
-739.7
198.02
-14.6495
-230.475
230.475
409.913
-143.934
-265.979
-911.228
25.953
-3.35857
-28.2606
-475.613
503.874
-753.71
-80.705
487.233
-406.528
-252.412
-408.701
432.817
-10.6589
-58.9043
259.679
156.305
186.554
-540.752
398.257
-169.927
402.24
340.163
-51.812
762.385
-707.556
-284.643
-8.44974
271.042
-946.889
-3.56082
5.60878
927.462
533.209
-448.759
-834.7
572.779
261.921
-0.495831
261.538
-261.042
350.208
-5.82269
-344.385
-462.301
31.6609
-834.724
748.45
86.2746
-131.304
-179.611
195.704
39.3489
-235.053
213.11
127.053
-800.994
17.7888
-590.747
324.303
266.444
39.0968
240.683
362.896
-325.753
-37.1431
-382.123
392.587
-10.4644
847.42
-513.328
-455.064
312.895
-324.301
192.594
131.707
423.386
-720.815
568.442
-27.2297
811.251
-807.887
79.3378
155.367
-828.256
810.539
17.7178
-794.433
47.307
-472.162
-527.845
1042.65
-186.28
931.101
-835.175
-95.9259
-521.12
-463.316
984.436
-48.8482
-256.961
56.2996
226.769
-234.891
8.12251
-22.287
-56.0742
733.416
467.943
-32.2815
-435.662
-369.818
-197.275
16.2564
-92.228
-250.222
-153.854
417.641
-263.787
-926.054
926.054
93.0824
-805.128
487.466
-511.028
69.2373
441.79
-212.006
-194.812
168.373
-162.186
-378.567
-551.431
389.246
601.796
58.9747
192.872
422.191
-929.469
507.278
-23.4522
305.852
-222.294
-263.784
-217.434
413.841
-90.8766
-182.406
-141.895
-65.4946
-835.373
452.552
-518.169
65.617
16.889
-692.277
773.533
-81.2561
415.799
-421.413
5.61453
247.714
-568.401
529.739
38.6618
106.486
115.364
-221.85
197.089
-216.375
378.934
-708.792
329.857
110.544
758.339
170.866
239.047
-68.7151
-492.469
464.209
293.229
-307.911
14.6825
416.648
-37.3732
354.104
-385.123
-23.2021
-367.669
390.871
-37.0759
-267.722
317.178
11.5393
-328.717
-420.338
266.484
-389.216
41.3779
631.082
-749.535
-410.234
532.611
-313.726
-91.6417
976.656
-866.113
-492.72
-312.315
805.034
294.819
40.2735
290.206
-330.479
-453.581
138.833
-270.137
-51.8857
451.339
-564.02
112.682
47.4302
613.683
-185.548
71.3185
321.698
-282.602
708.752
-329.817
268.499
-180.626
24.2041
364.956
-389.16
-28.9245
-298.011
-3.86803
-258.208
252.194
6.01378
0.484337
551.903
-528.341
36.8409
-891.589
113.376
798.329
-1.74882
330.271
-117.16
525.487
328.71
-854.197
598.404
239.952
669.585
-763.887
-744.75
103.721
641.029
273.961
61.4388
-335.399
188.802
-181.764
-7.03786
24.1782
274.463
572.898
-195.867
33.2322
162.635
-156.955
-606.862
763.817
-340.87
359.688
-18.8185
-250.702
294.126
-43.4238
-148.861
-175.505
-255.975
213.837
42.1378
920.089
-920.089
-87.4196
727.067
-639.647
294.768
-213.064
345.452
-68.1418
-657.669
191.022
28.3095
-219.331
47.5297
-586.761
539.231
32.6761
-234.604
201.928
908.185
-913.911
5.72619
300.876
-674.457
373.582
344.144
-296.814
52.1392
310.757
-350.751
876.238
557.152
-105.813
-73.1376
-244.385
-400.542
324.595
75.9476
218.697
-346.031
334.09
-500.12
166.031
-244.061
45.0187
-873.29
-73.5988
33.1878
-725.464
316.374
-183.763
796.384
-773.232
-23.1517
431.077
48.6654
-479.743
-685.634
610.695
74.9381
-242.954
208.792
34.1614
321.413
-28.1842
-426.152
-254.892
875.766
-832.34
-43.4263
-357.775
658.65
132.797
-532.687
-864.591
11.0892
-56.9473
-598.656
655.603
41.4977
-136.767
-138.264
-917.698
410.876
506.821
194.337
2.58248
450.526
-34.7269
543.444
270.315
-260.332
-9.98271
-335.103
-6.17074
341.273
-548.293
438.227
-6.82941
-198.24
205.07
232.977
-41.9555
-91.3825
351.943
-260.561
-356.524
6.8175
435.273
-10.2333
62.6472
-809.139
746.492
-664.31
664.31
49.0733
189.351
-87.7755
-505.228
593.004
-854.468
938.099
-83.6316
741.115
55.2694
-14.1508
-834.512
848.663
324.721
-342.189
17.4676
325.512
14.9756
-340.488
584.059
-636.961
52.9016
45.925
305.924
-351.849
-213.704
-115.317
329.021
198.077
-9.2748
105.871
-710.244
604.373
-760.002
267.282
352.028
-311.754
793.742
59.7764
-77.428
-433.6
343.26
-390.131
-680.896
100.948
579.948
311.814
-276.525
-35.2886
-531.642
614.154
-82.5123
-82.0418
-363.026
445.068
409.757
-382.521
-596.121
-321.576
599.619
-724.713
125.093
-406.704
-427.996
837.853
-39.7613
-645.872
127.383
453.939
-581.322
563.572
-644.83
81.2587
33.642
-235.407
11.1083
-693.013
-322.382
321.455
7.86371
570.592
-692.736
122.144
-344.517
-430.622
-4.32905
-684.476
698.222
-13.7459
763.081
-164.677
645.699
-103.007
-542.692
210.986
292.738
291.583
-298.247
6.66353
807.725
-935.889
128.164
-648.357
-96.3931
-289.489
18.617
-327.649
86.2491
241.4
-56.6831
640.742
82.1987
-248.622
166.423
358.19
-336.088
-22.1018
-336.891
-253.856
-12.4587
203.077
-25.1613
-175.724
230.535
134.604
-365.139
-272.214
320.091
-47.8773
587.696
-675.471
24.551
288.901
-263.62
-64.029
-288.995
-292.397
-711.346
540.683
170.663
-111.093
-153.982
-164.54
66.8759
-578.753
536.467
42.2859
576.957
-1098.08
-25.2289
-1015.12
-140.754
365.625
48.2153
-22.9564
-51.4043
-757.974
126.403
850.245
-843.544
617.408
-76.7249
1.86101
589.251
-591.112
-280.71
-166.493
447.203
-38.8518
-204.102
5.5758
200.034
-211.275
11.2408
-994.851
232.408
448.399
-114.31
19.7039
-628.01
608.306
298.278
-365.016
25.6646
339.351
59.3556
573.42
-632.776
-103.695
770.868
-667.172
-669.41
-195.569
-725.071
38.618
686.453
-35.9566
567.583
-531.626
922.08
-913.754
-8.32578
561.043
-617.99
-611.19
-23.7129
634.903
-396.526
124.312
269.687
-265.201
-4.48585
801.192
-772.536
-96.1402
730.92
-634.78
460.286
10.4554
-434.175
-669.948
604.144
65.804
399.003
-92.2573
-564.045
-49.6952
-11.493
-399.792
-21.7501
208.411
-186.661
24.5774
327.45
-360.948
364.762
-3.8139
745.167
-791.764
126.311
134.534
215.143
-227.181
12.0372
684.145
-775.306
91.1607
-320.581
-675.363
-16.3079
794.653
74.0532
291.18
120.52
810.851
-16.198
-31.662
-1030.15
175.121
3.94422
18.6313
-566.934
159.076
-137.631
-1081.97
-242.976
236.147
69.8658
224.902
-107.774
-467.139
574.914
-2.51498
-477.544
480.059
838.934
-31.2094
570.104
75.5954
-36.1581
-205.292
241.45
739.828
-783.65
-148.393
378.928
-401.87
443.703
-41.833
-679.25
723.251
-44.0014
280.81
-361.754
17.2829
394.877
-148.081
-246.796
174.628
-511.747
466.227
45.5199
5.06278
-461.934
460.424
1.50995
613.836
-596.045
31.5564
-159.656
590.733
-295.801
57.519
441.109
41.6904
607.152
-648.843
-83.608
-141.654
190.644
18.1477
31.0766
-392.759
27.7432
-412.798
10.9279
251.747
-253.882
2.13508
711.268
-682.612
-485.562
84.4719
401.09
-42.3129
626.51
-15.3993
-206.777
914.266
-141.785
-772.481
518.881
537.484
-1056.37
-288.091
-19.6713
291.507
4.16391
10.2639
275.085
-689.557
-2.13691
691.694
592.077
-749.032
-210.251
195.448
14.803
-521.617
-28.6422
-640.669
2.8165
138.285
-137.608
-428.325
-108.271
190.47
15.6084
-632.797
617.189
-39.0086
-497.741
536.749
-254.34
300.265
-69.3368
626.158
-727.153
753.281
-26.1281
217.736
-482.443
240.698
-258.448
17.7491
8.63806
-837.945
28.2939
237.846
-451.55
907.865
-917.555
9.6896
636.497
14.1
-650.597
-54.6666
-538.198
-807.247
840.446
116.622
-207.048
897.675
-78.2712
242.781
-16.0119
-60.3629
-715.974
776.337
-87.3418
-597.134
-16.9401
545.08
-668.92
20.5632
209.721
-232.083
22.3622
-238.282
2.94577
235.336
-559.034
533.524
25.5096
-215.604
87.3929
63.6729
86.1837
-149.857
-880.247
314.719
20.6947
-335.414
54.985
637.879
-692.864
-342.064
365.627
-23.5633
-647.893
-21.0265
-667.818
765.05
-896.548
127.467
769.081
-146.894
-169.112
-445.844
64.228
-457.091
-615.211
261.367
-4.50724
-291.499
291.72
-0.221003
176.836
-70.3506
-423.258
394.05
29.2077
-954.871
972.025
-281.862
99.1472
182.715
138.11
20.966
521.92
854.627
-874.884
277.045
-37.1865
363.555
-508.116
-789.223
811.214
-21.9911
-346.574
-182.807
529.38
133.679
-176.298
42.619
426.831
-523.658
743.63
-680.545
-63.0852
-260.194
-27.8972
327.335
-76.2581
316.956
-292.405
332.74
-652.048
-17.8994
5.49584
633.5
-372.648
148.532
20.6576
-891.507
547.494
-390.866
608.146
368.51
423.862
8.95485
744.626
-804.989
-40.4213
-19.4991
827.282
70.393
421.165
-499.895
78.7293
231.995
-190.716
-41.2795
-185.947
204.925
-18.9774
-12.597
343.874
-331.277
-617.224
658.915
435.416
248.91
-220.481
-28.4287
367.033
508.586
313.277
-334.97
706.381
105.841
76.3888
-599.842
523.453
639.859
-35.7156
37.3843
-930.341
113.869
816.471
217.887
-256.058
-252.745
-793.312
732.26
61.0523
5.28336
814.142
-819.425
927.793
-927.793
-378.498
17.5494
602.828
37.0314
-109.167
-20.4547
-192.54
212.995
437.651
27.8866
-465.538
-435.924
21.9998
413.924
186.467
972.166
-453.285
-231.776
40.9
190.876
-627.081
630.853
-3.77234
424.938
-470.443
45.5054
-430.875
-5.04863
48.3471
-764.191
715.843
-636.881
-61.0217
-549.762
518.532
31.2301
-371.984
281.911
21.1524
-236.329
215.177
-153.559
-128.303
-29.2946
222.379
-31.735
49.7898
291.647
-279.493
-71.805
791.612
367.582
-52.8629
-769.143
32.9786
-890.028
814.421
75.6064
120.147
279.82
380.763
158.327
-753.75
858.612
331.16
186.213
-517.373
-165.742
594.459
-644.053
49.594
478.732
54.7826
-533.515
635.011
-341.185
-293.826
-475.723
-115.693
-780.928
677.232
28.2144
-684.638
656.423
-711.349
108.518
602.83
-765.042
20.5226
28.731
508.641
-87.4761
-516.328
354.193
550.759
-586.716
-35.4336
-68.0605
233.16
-165.1
43.8152
-681.936
-235.149
-236.877
168.816
-30.8615
264.621
-108.651
-155.971
156.35
-8.66117
-636.583
720.873
-26.9877
193.474
-166.486
869.869
-629.071
11.598
135.452
186.247
1.00989
397.622
-398.632
-223.247
-194.948
418.195
180.94
763.528
379.875
-355.671
-842.249
7.52495
626.415
-609.869
-0.447272
-809.448
809.895
589.558
16.103
-605.661
843.602
45.6158
-889.218
311.92
-12.3096
125.92
-406.63
426.132
9.14157
-255.498
335.316
-79.8179
195.895
381.78
-90.5996
611.425
-55.6335
-555.792
-755.53
780.751
-25.2213
12.8999
645.513
-658.413
-645.414
113.772
-7.21917
-442.51
603.304
34.5734
323.616
-31.0119
191.063
-91.953
-337.082
1.97903
95.9689
742.965
4.03495
-278.319
274.284
-423.66
-505.809
-57.4519
-757.747
815.199
259.369
-46.7827
192.198
-260.963
68.7652
198.33
-95.2444
-223.523
-516.878
-581.321
-791.926
-18.3081
-169.384
-815.761
776.449
39.312
-34.5397
469.884
-435.344
59.7825
821.341
-881.123
199.754
-136.081
774.394
26.4496
-219.527
199.073
20.6479
-307.715
287.067
575.733
-573.872
-646.745
136.765
509.98
-556.384
588.791
-32.4073
32.7244
258.859
-665.186
-441.805
608.546
45.8257
-654.372
-721.93
606.764
-679.219
72.4554
-154.411
-41.4563
450.12
-484.367
-846.341
851.624
105.348
-307.714
-588.833
-642.463
593.299
49.1641
183.645
-78.1482
-43.8622
457.893
177.118
-569.219
55.7775
514.224
-527.369
13.1459
73.1039
-717.676
644.572
268.299
-16.5519
-314.705
166.893
147.811
-568.524
586.615
-131.249
468.4
-337.151
681.436
-86.977
1.41477
-318.633
317.218
-446.842
-442.775
889.617
-145.294
244.322
-99.0276
-101.219
-579.677
-567.86
414.781
153.08
401.592
-35.0853
-366.507
2.8171
152.024