/*--------------------------------*- C++ -*----------------------------------*\
  =========                 |
  \\      /  F ield         | OpenFOAM: The Open Source CFD Toolbox
   \\    /   O peration     | Website:  https://openfoam.org
    \\  /    A nd           | Version:  7
     \\/     M anipulation  |
\*---------------------------------------------------------------------------*/
FoamFile
{
    version     2.0;
    format      ascii;
    class       surfaceScalarField;
    location    "9";
    object      phi;
}
// * * * * * * * * * * * * * * * * * * * * * * * * * * * * * * * * * * * * * //

dimensions      [0 3 -1 0 0 0 0];

internalField   nonuniform List<scalar> 
44730
(
-595.356
666.18
-70.8237
1061.82
-1071.75
9.93247
-335.077
382.432
-47.3546
227.516
-260.042
32.526
-498.566
498.566
221.019
-264.39
43.3705
-369.936
371.025
-1.08893
24.8075
-562.447
537.639
663.521
-833.451
169.931
-1009.27
1102.24
-92.9728
554.315
-142.617
-411.698
-531.518
536.844
-5.32562
-687.876
582.685
105.191
-859.82
868.881
-9.06167
247.169
58.2826
-305.452
385.906
-10.4663
-375.44
814.616
-666.857
-147.758
-389.514
398.171
-8.65713
161.257
314.787
-476.044
290.754
-357.38
66.6254
-594.08
81.6588
512.421
724.395
-60.8744
50.018
-385.095
136.567
-489.555
352.988
245.678
-141.909
-103.769
1066.58
-4.76211
659.881
-681.03
21.1493
-272.103
-14.9473
287.05
283.971
-36.8018
-441.66
543.92
-102.26
951.715
-249.517
-702.198
-667.853
757.292
-89.4392
247.611
-227.334
-20.2769
478.92
-69.4765
-409.443
144.786
-416.889
268.403
-432.147
163.744
425.69
-573.146
147.455
292.117
-38.3171
-253.8
824.236
-978.632
154.397
1061.5
-237.264
-1018.09
1035.65
-17.556
403.696
-92.8423
-310.854
704.02
110.596
194.215
-311.551
117.337
1228.47
-777.699
-450.767
-591.34
149.68
539.063
-538.858
-0.204578
230.506
645.518
-876.024
224.266
537.295
-761.561
-108.276
533.966
-373.595
161.599
211.996
-13.9313
-225.746
239.677
-663.541
-4.31226
240.078
-19.0587
424.32
-38.4138
-260.536
-48.3882
308.924
524.848
-499.92
-24.9281
-34.2568
-559.823
-463.476
41.4932
421.983
-300.451
-26.1806
326.632
799.516
17.5777
-817.094
-409.17
570.427
3.89697
-233.655
229.758
-215.588
483.991
-305.944
424.547
-118.603
264.373
250.251
-514.624
497.328
-126.67
-370.658
428.695
-47.472
-381.223
-456.619
-33.9792
490.598
-986.626
-31.4667
1058.83
7.74585
286.226
297.864
-584.09
-242.381
546.581
-304.2
164.427
94.6708
-259.098
-432.173
381.907
50.2658
-363.52
379.955
-16.4352
265.366
-147.167
-118.2
-251.314
-61.0924
312.406
-699.305
16.5455
682.76
409.149
-93.605
-315.544
-254.573
254.573
92.6059
-762.538
669.932
-662.405
67.0485
-947.222
848.22
99.0015
-318.273
-51.6628
-19.2893
209.48
-190.191
517.906
-146.432
-371.474
-644.571
-43.3048
652.504
-69.8192
99.823
81.374
-181.197
-356.366
90.1937
266.172
-310.211
58.8973
845.737
-621.472
558.437
-591.089
32.6522
226.235
-95.7369
-130.498
-347.195
120.631
226.565
-20.6725
252.867
-232.194
-846.692
847.385
-0.692907
-30.5799
-161.184
191.764
252.693
7.54683
-260.239
-711.457
12.1511
-266.637
283.795
-17.158
778.746
20.7701
429.344
-629.763
200.419
203.592
-217.523
-751.649
812.272
-60.6231
633.363
-718.793
85.4302
74.6946
577.81
943.85
-846.974
-96.8763
-220.497
242.406
-21.909
201.457
46.1544
355.425
116.325
-471.75
1009.09
-256.884
-752.206
18.8814
563.541
-582.422
-13.0445
-587.245
600.29
538.28
-252.054
97.6312
425.377
-523.008
-303.36
408.153
-104.793
76.753
-814.828
738.075
-698.215
455.833
10.4978
-206.883
196.385
17.3512
-853.464
836.112
-314.131
311.703
2.42801
-43.0018
307.375
24.1164
-890.706
866.59
-339.932
336.99
2.94108
-74.8325
-314.681
8.96434
-285.453
276.489
703.403
-786.452
83.0485
726.181
-860.272
134.091
-147.041
341.256
165.449
99.9174
188.505
-205.93
17.4254
292.886
-299.303
6.41691
-124.238
553.583
624.339
327.376
153.658
59.2261
-212.885
277.172
-316.665
39.4933
218.451
-247.116
28.6652
-26.2017
278.894
-344.957
5.02548
1.59922
-187.812
186.213
224.183
-61.9843
-162.199
181.122
827.968
-198.076
-739.276
937.352
-101.171
-397.395
522.909
16.1535
229.65
-227.201
-2.44864
264.403
-220.152
-44.2511
28.2003
-214.987
186.787
-396.393
631.322
-234.929
53.89
506.633
-560.523
984.061
-886.403
-97.6579
790.937
-787.097
-3.84006
-572.552
-238.309
810.861
-146.077
722.128
-576.051
455.879
-443.904
-11.9756
-199.111
-11.9421
211.053
41.6488
-766.871
725.222
-160.418
-213.177
-247.933
234.075
13.8581
242.244
-14.7285
23.4348
1020.89
-572.446
-448.44
735.195
-933.271
-399.987
96.6275
14.9631
209.22
16.452
-778.219
761.767
-90.3938
-856.828
417.804
-452.483
34.6784
-106.633
832.815
54.722
-736.349
681.627
-202.113
3.00138
277.172
0.101009
248.766
-248.867
-432.859
432.859
82.9806
679.273
-762.253
-315.282
48.6452
-579.286
598.167
315.857
-302.581
-13.2763
-777.835
-63.2718
841.107
-143.641
446.934
-303.293
423.812
94.0938
428.834
-443.29
14.4558
257.671
-39.2205
-215.285
-318.18
533.465
501.542
-381.527
-120.016
-328.713
17.6262
311.086
785.17
-81.7671
-521.007
-79.0542
600.061
-661.106
661.106
-125.716
501.873
-376.157
94.3232
-352.513
258.19
-919.882
347.33
306.992
-358.753
51.7614
436.951
18.9288
816.56
-504.473
-312.088
910.044
-59.6155
-850.429
77.1306
149.104
-847.141
614.154
232.986
-18.2031
264.662
-246.459
-212.25
223.475
-11.2248
-42.2817
-489.237
874.866
-890.102
15.2367
-48.4542
429.883
-12.0786
788.012
-791.137
3.12527
247.09
-17.4401
20.1887
-240.686
822.135
-963.825
141.69
236.644
-344.817
108.173
570.727
-570.727
899.944
-93.246
-806.698
594.297
73.0715
-667.368
55.8824
-328.361
272.479
-174.795
254.515
-79.72
-472.365
328.724
53.9757
734.037
-393.101
529.668
256.051
-178.92
-683.964
-176.308
484.431
-630.508
453.668
-501.274
47.6064
-893.318
1027.24
-133.926
-580.697
555.775
24.9215
505.803
-582.435
76.6327
128.881
729.936
-858.817
211.324
530.682
-742.006
723.337
505.129
321.972
739.528
326.02
-232.636
-93.3836
-295.904
295.904
371.226
-402.253
31.0271
-28.5457
1087.38
270.172
-323.959
53.7865
530.747
-476.857
-297.43
-562.39
551.755
-565.808
14.0531
-29.4445
904.31
260.164
-278.367
-221.968
201.312
20.6565
499.058
-587.842
88.7845
-197.72
959.022
-761.302
588.837
-83.034
771.64
-383.985
-387.656
339.352
-48.5977
472.006
548.88
-199.188
179.899
-743.851
59.8869
-929.563
36.2452
477.761
47.0872
-679.833
891.157
-688.576
-63.0727
189.781
-203.078
13.2971
-74.0112
915.18
-841.168
-38.0477
-817.796
855.843
184.221
-182.622
40.5846
172.895
-213.479
-9.28438
-366.066
375.35
322.621
-313.657
-604.054
207.661
-226.414
433.711
-207.298
908.542
-678.036
304.227
21.7932
294.356
-8.90167
-285.455
-568.533
156.044
412.488
461.044
-32.2097
512.282
-727.567
-363.463
-0.0565854
647.082
-746.159
99.0772
-238.899
160.732
78.1663
-656.28
638.987
17.2927
219.489
-219.388
74.228
181.823
-742.8
825.781
-300.855
312.692
-11.8376
68.0652
-363.588
295.523
229.244
-210.867
-18.3772
526.679
-328.746
-197.933
8.09917
-347.1
339.001
-497.44
484.396
-63.7159
264.623
-200.907
-660.869
157.243
503.626
-344.245
-2.9504
653.843
6.03782
445.792
-21.4719
-157.372
3.81489
153.557
-22.5792
721.607
-699.028
-850.267
979.148
321.885
-150.304
-171.581
677.338
-775.134
97.7959
423.553
348.087
706.427
59.546
-765.973
818.095
81.8486
546.394
-520.903
-25.4912
1093.71
-1012.3
-81.4047
4.84915
-296.494
291.645
277.821
16.5352
103.871
141.807
211.608
-23.1029
196.418
-201.247
4.82882
144.835
148.752
-293.586
-305.149
284.802
20.3465
-159.083
-299.121
458.204
421.083
-546.799
-320.613
197.736
-195.263
-2.47293
197.398
1009.25
-565.222
-444.025
525.962
-109.152
-416.81
122.082
511.281
80.0798
466.315
1.72553
-690.848
712.354
-21.5059
47.0443
-548.332
501.287
-85.3311
-250.038
335.369
-449.129
39.2418
409.887
-140.561
-336.096
476.658
780.012
-1.26541
22.9132
193.936
-374.938
181.002
156.326
-220.042
-920.688
849.112
71.5758
-297.04
306.419
-9.37855
668.301
-82.7517
-585.549
1047.02
-603.809
-443.214
195.887
-193.958
-1.92944
271.111
-109.045
-162.065
-421.914
418.374
3.53994
663.511
-31.8305
-631.68
-693.749
2.90113
374.612
34.5368
-552.505
438.37
114.134
582.966
-578.43
-4.5358
-855.763
44.3921
811.371
856.368
33.1992
-889.567
-424.735
284.173
-202.713
45.3418
-326.129
528.391
-202.262
-181.099
-40.8695
754.996
-793.044
-149.542
190.127
529.988
-166.809
-363.179
-123.612
-309.247
220.878
-221.842
0.964401
619.558
43.9528
683.486
-608.792
20.9512
-302.346
281.395
837.382
-876.337
38.9557
-297.537
-5.04397
954.354
-957.655
3.30046
52.321
190.781
-243.102
680.262
-33.1797
568.205
-593.105
24.9005
-830.202
847.553
196.436
-185.938
786.341
212.162
746.86
143.163
201.823
-344.986
-300.484
-8.37384
816.931
-61.7125
-755.218
598.894
-127.844
-471.051
245.017
-83.4182
85.0709
412.258
80.3067
-255.101
473.874
-503.939
30.0656
142.697
-349.128
206.431
137.735
388.944
48.4469
861.597
653.03
-773.291
120.261
-22.9005
977.255
-274.123
-15.8903
290.014
-223.16
204.988
18.172
-12.9651
177.392
48.5874
452.955
335.241
-344.525
-348.576
42.6317
-339.635
39.1841
838.354
-58.3429
75.4208
-221.144
145.724
-952.078
22.5149
-915.638
-36.4393
-486.275
56.2802
429.995
-730.808
899.481
-168.673
-193.078
-69.9464
263.024
-112.925
-88.3725
201.297
-163.127
-37.428
200.555
-122.633
227.546
-104.913
853.456
410.45
-216.514
151.479
-12.6867
-568.01
-879.111
-41.5769
451.988
146.907
187.764
-513.893
200.742
-1107.01
906.264
27.5916
203.271
-230.862
-9.78472
-202.465
418.912
26.8805
89.1751
701.762
281.709
0.963686
-282.673
-470.924
568.555
728.74
72.8792
-801.62
-778.099
-8.35298
800.463
-855.012
54.549
288.74
-272.887
-15.853
83.2109
238.674
850.746
-864.971
14.2251
978.832
-862.151
-116.681
939.065
-943.635
4.56953
-387.361
-165.144
-4.92291
-872.99
542.943
330.048
-184.559
162.484
22.0749
-244.342
389.177
140.851
91.88
-232.731
757.315
254.689
-250.793
431.718
94.244
782.529
-695.68
-86.8492
-52.7208
-97.2286
-98.7315
195.96
-308.805
261.128
47.6769
862.456
-838.34
-21.8174
379.929
-358.112
-320.742
-24.2152
570.299
-583.904
13.6048
368.854
-327.516
-41.3376
-828.477
731.198
97.2787
-905.77
831.759
142.393
128.718
-406.592
277.121
129.471
468.509
-454.145
-14.3637
621.395
-622.669
1.27438
518.151
-44.2778
-302.119
-141.421
443.539
6.4698
-280.593
-72.7989
-247.135
319.934
544.284
563.927
-1108.21
-900.867
849.212
51.655
-2.3863
-405.22
419.207
-13.9868
432.191
-399.904
-32.2873
671.76
-844.33
172.569
711.096
-881.311
170.216
-503.741
-157.128
-425.647
63.1192
362.528
305.655
-6.49545
-299.16
-327.568
164.441
475.415
78.9
-719.684
-108.793
7.19024
189.228
-303.494
301.558
1.93666
31.1026
-328.03
296.927
490.579
39.2896
-529.869
-232.036
302.164
-70.1281
-896.198
-19.6385
915.836
-208.761
-28.6342
237.395
6.77444
-844.871
838.097
804.704
-118.442
-686.262
344.574
141.782
-214.581
-874.88
-21.3182
808.513
40.599
-5.35981
541.687
-186.262
-503.337
-18.4248
521.762
-801.994
913.796
-111.802
313.997
-245.932
-397.2
311.869
-30.2169
590.74
63.1033
384.189
-241.493
309.882
506.678
-14.5955
26.6943
342.159
-777.175
87.148
690.027
456.864
94.8912
-137.998
-21.436
159.434
-851.809
-23.0702
71.2901
332.406
-199.064
230.095
-31.0314
49.2866
-281.322
-272.621
267.267
5.35387
-18.8944
29.997
-514.303
484.306
-611.037
-135.122
-23.0855
302.972
-279.886
-333.772
450.098
599.389
447.634
-1102.77
430.483
672.287
329.592
0.35082
-329.943
-247.063
-155.7
402.763
-525.673
550.48
-661.229
-18.2172
679.446
99.7688
88.2597
-188.029
-44.2469
799.243
838.805
-862.503
23.6978
807.511
-154.48
40.231
-602.678
-325.969
-21.1314
556.818
57.8199
-614.637
440.274
20.7702
-349.596
393.296
-43.6998
-853.547
-3.79831
857.345
-27.8177
-823.992
271.627
-273.37
1.7434
625.215
-3.81967
560.609
-406.738
-153.871
-223.552
272.01
-48.4576
-95.7466
-252.829
-421.527
-41.9497
894.247
-183.152
-819.823
89.0152
-629.338
18.3008
-540.263
50.999
489.264
820.555
-39.6316
-780.923
-254.496
131.863
-0.124372
-356.361
356.486
858.125
-186.365
308.051
-2.39578
636.869
-68.6644
494.228
-3.64904
801.403
-712.228
-1045.13
-57.6404
445.079
23.43
526.771
31.6657
733.541
-691.892
795.959
-38.4542
-757.505
195.283
-225.863
275.851
-14.7225
-118.175
198.627
-170.427
474.975
15.6184
-490.593
576.814
-98.7745
-478.04
-459.653
422.07
37.5829
128.906
672.497
3.77775
-98.9496
-760.071
859.021
86.1019
-666.492
580.39
227.327
-304.556
77.2293
-742.475
643.526
91.7729
712.932
-504.404
1048.69
219.248
-143.827
-269.752
-173.309
258.539
-85.2302
212.027
-264.983
52.9559
-180.284
321.136
7.03547
-327.777
-51.1813
5.60243
-411.078
405.475
-47.5612
-162.108
-195.272
-30.3849
368.278
-337.893
-870.85
944.467
-73.6174
45.5068
-528.166
482.659
19.8893
-243.05
-755.877
106.231
649.646
361.955
-217.169
819.405
1.15027
-29.1207
214.884
-185.763
431.448
129.161
-104.217
-321.43
815.87
-201.716
-95.2012
-914.07
618.338
-320.474
123.249
48.026
653.032
-560.426
495.972
-17.0527
342.759
-35.7672
339.164
-421.602
82.4379
192.493
-227.217
34.7239
47.6741
250.352
-298.026
338.687
-497.77
-3.62986
761.958
-806.205
537.772
-62.7968
-105.252
736.943
-631.691
-269.638
304.446
-34.8076
-68.6697
295.997
205.668
-190.705
-282.075
12.4368
-1056.13
585.303
470.822
-35.8875
-77.0969
176.92
-309.962
295.36
14.6015
-676.037
692.489
268.654
-273.545
4.89027
-475.499
176.378
-501.044
-555.082
240.791
-279.108
847.17
-946.602
99.4316
-344.171
18.2023
485.682
-627.374
141.692
-2.3562
810.869
251.151
-269.01
17.8588
-321.496
-551.495
-37.5323
293.965
-25.3104
350.879
-126.212
-224.667
-20.01
-837.721
857.731
-876.753
491.716
385.038
-56.2957
735.568
-457.758
36.2315
-146.799
-112.746
259.544
874.168
-813.661
-60.5072
394.126
-322.836
796.705
3.75746
106.589
85.6069
-192.196
-580.556
1024.4
-443.841
145.944
-194.621
48.6765
-758.961
-144.993
903.954
140.061
210.818
853.517
-31.3823
813.472
-736.719
504.318
-419.247
-11.4639
-222.191
31.3211
154.325
-185.646
310.584
231.103
-25.4484
-1098.2
619.199
479
7.96874
891.686
-60.5449
-831.142
-430.635
623.081
-192.446
57.1558
756.316
27.1068
-530.444
-590.534
-18.3335
608.868
401.697
147.501
-549.198
-264.714
-522.382
279.092
63.6668
-178.525
-76.0476
-406.511
352.908
53.6035
-793.506
289.033
201.284
-262.518
61.2336
226.931
-255.441
28.5104
430.36
-424.757
724.76
51.2293
-775.99
-204.206
43.0221
819.16
20.8714
-840.031
-356.793
13.4517
343.341
118.64
860.192
-410.52
452.013
411.606
-72.4425
-954.457
99.6914
854.766
789.094
102.593
-24.934
217.427
50.6553
381.536
894.244
133.001
28.2507
-486.009
28.6741
-826.8
798.126
696.868
-763.817
66.9484
636.295
465.948
769.015
-56.0316
-712.983
195.776
-49.832
76.4593
339.498
-415.957
-735.238
792.394
249.243
175.304
-286.286
168.545
117.742
-111.171
-426.86
538.031
-32.139
-215.794
1004.41
-573.925
99.6266
-292.704
177.843
-206.964
-103.681
-156.361
30.6032
820.143
-161.024
499.711
-599.053
751.457
-152.404
679.641
-702.22
-391.922
373.497
-442.583
-180.086
39.5695
349.055
-11.9254
-337.13
-46.2861
808.244
-505.244
-623.364
1128.61
288.465
-237.577
216.904
7.85034
197.817
-259.062
117.153
-885.282
908.94
-23.6581
-273.076
258.465
14.6106
74.4619
708.067
3.36295
765.652
635.963
-16.4049
-15.1103
-512.832
471.105
41.7275
933.072
17.1543
-950.226
-315.983
-40.81
-0.663705
-235.226
793.425
-68.6649
529.023
-623.153
94.1304
-761.917
-84.7751
14.1774
274.563
883.788
10.4559
-490.936
440.978
49.9577
-950.45
-94.6794
50.4655
-375.16
324.695
-210.901
230.22
-19.3184
249.309
-37.282
-39.7895
1050.31
-313.227
-737.08
579.62
-50.5971
46.7699
-265.817
-62.5442
-687.542
766.665
-79.123
-90.9239
-7.26626
234.197
504.846
-5.78833
92.7927
-870.628
-92.1941
213.779
-121.585
-197.675
218.549
-20.8745
-681.801
570.63
-449.917
479.914
343.008
51.118
-460.815
424.965
35.8496
581.913
427.334
498.534
-460.008
-38.5261
479.067
-313.961
-165.106
-179.039
31.8724
350.814
-21.5621
-329.251
-260.836
87.5272
-338.395
295.393
-219.033
-636.729
-691.534
-81.757
260.077
-58.7931
660.636
197.489
6.98944
227.086
816.099
-85.1966
-730.902
328.996
-142.146
647.076
-504.93
231.946
-301.892
-101.322
503.019
-750.77
7.97024
-130.636
-108.262
500.005
-93.8899
779.627
-685.737
-201.689
223.372
-21.683
-27.6939
-245.382
829.587
-737.814
222.434
-427.376
-404.335
831.711
861.134
-200.498
-42.617
784.392
-741.775
597.417
-6.67726
17.7716
-608.306
283.595
135.65
-419.245
-404.212
480.671
-21.9872
-318.164
340.151
-617.223
66.0701
551.153
-139.505
501.351
-361.846
-479.996
409.926
-483.378
73.4529
105.674
-178.339
72.6652
-191.001
334.164
-188.45
-175.013
727.113
-30.2445
102.307
581.179
-611.061
648.923
-37.862
269.56
-292.645
-810.303
-52.1998
97.154
-433.25
590.12
460.187
-615.806
173.223
415.268
-842.644
371.275
-681.901
28.6547
653.246
-187.949
226.579
-38.6291
-816.292
886.704
-70.412
-48.4792
-432.255
480.734
1005.36
-405.611
-599.751
-69.1779
-785.834
-13.5272
285.154
-950.468
207.42
743.048
-857.718
-92.7502
-173.497
-11.062
-777.766
731.48
-126.665
-297.996
424.661
-16.0783
-267.137
283.216
160.399
647.111
224.183
151.862
-376.044
-902.87
154.579
748.29
541.204
-580.981
39.7767
604.546
58.6004
-663.146
-44.2194
673.94
-639.871
-34.0693
353.335
-23.7429
-23.7341
228.741
-205.007
608.362
65.5783
14.2398
-792.338
721.543
-777.575
-180.218
211.539
327.565
151.502
128.387
-316.837
203.948
-207.905
3.9574
342.098
-199.744
-142.354
592.121
43.8416
-747.278
800.913
-53.6345
-387.697
-108.222
495.919
-13.5016
-289.993
239.891
49.0791
-288.97
250.209
-100.067
-150.142
418.384
-466.863
-61.7171
-740.277
-411.065
78.7151
150.529
489.758
-432.763
-56.9955
-230.335
257.926
-203.028
195.297
7.73089
5.71616
-211.282
205.566
-322.784
379.592
-56.8083
214.997
-10.2248
-204.772
450.441
554.922
-263.213
555.571
-473.912
142.673
-245.8
103.127
-203.117
-12.0717
215.189
701.29
-96.744
243.471
-169.242
-358.742
277.63
81.112
-429.715
-6.54706
436.262
-352.101
449.255
312.778
-324.434
11.6552
-17.3535
33.611
470.707
462.839
35.6957
24.4335
-454.149
196.294
5.01766
-339.054
-5.11759
-370.717
297.662
73.054
342.494
-63.4018
673.013
221.235
-232.189
237.906
-289.464
307.09
90.7917
659.412
-750.204
-736.302
-25.9466
762.248
5.20031
153.194
16.7807
-339.565
-690.711
621.124
69.5874
131.593
-165.456
172.618
-7.16228
428.375
-144.78
-248.179
-167.667
415.846
-166.056
-346.776
221.113
-17.1657
-249.314
102.516
93.1484
-185.342
-1009.55
696.319
-348.08
348.08
851.458
242.25
-35.2852
-509.104
-500.443
210.507
326.337
528.166
42.5614
545.997
-51.7686
260.409
-258.297
-2.11194
-629.43
662.346
-32.9157
-50.2742
-532.737
-46.5483
-637.456
706.044
-68.5873
84.3689
-493.539
-353.201
539.501
6.49608
522.748
15.4604
-538.209
746.921
-647.439
7.56763
-121.273
-56.0558
177.329
-422.374
83.9786
312.744
-33.5441
-279.2
-161.139
-41.5744
-302.495
289.686
12.8091
-287.557
64.0045
868.892
-195.879
-336.011
50.5577
767.751
-1.1863
-766.565
584.192
-659.059
74.8678
-922.852
830.372
92.4799
-23.8226
-637.406
110.095
298.057
-23.5045
-261.571
285.075
-777.188
14.6494
-204.024
-291.242
267.738
-466.176
511.683
-252.986
255.856
-2.86988
-304.316
300.635
3.68109
-809.948
704.696
995.985
-148.815
-164.915
280.195
-227.874
363.564
-161.74
408.76
-314.988
-93.7712
287.918
54.5765
810.381
-94.7228
-715.658
184.187
-681.628
-752.321
667.733
84.5876
5.55601
-617.453
624.053
-6.60006
64.4021
179.068
-97.1933
518.276
-273.909
285.739
-11.8301
379.234
-458.398
79.1641
-608.671
649.263
-40.5922
585.558
44.5103
-630.068
246.764
-224.087
-22.6767
556.232
-23.8431
-532.389
246.838
-134.864
-111.974
-137.134
-51.1879
188.322
954.295
-945.322
-8.97247
-575.499
-388.326
-46.5781
-755.809
802.388
-897.643
834.372
-575.307
360.558
214.75
605.103
-623.436
-16.1875
672.705
-656.517
11.857
155.562
-167.419
-53.3594
-274.671
-855.973
-66.8785
15.4625
366.445
334.089
-739.7
208.29
-11.9953
-229.423
229.423
415.89
-156.45
-259.439
-911.236
25.9548
-3.36011
-28.0188
-476.411
504.43
-753.715
-80.6851
487.174
-406.489
-252.41
-408.696
432.638
-10.5686
-56.9078
260.179
155.828
186.27
-541.879
399.262
-167.51
391.692
339.886
-51.9681
762.543
-707.821
-284.615
-8.13131
271.303
-946.89
-3.56072
5.60909
927.463
533.126
-448.757
-835.078
573.889
261.188
1.51536
262.475
-263.991
350.529
-6.65722
-343.872
-462.187
31.5522
-834.802
748.535
86.2675
-135.434
-180.549
188.876
28.7156
-217.591
213.113
126.773
-800.993
17.8498
-593.921
320.315
273.606
56.3725
236.513
362.528
-325.56
-36.9681
-367.091
386.429
-19.3382
847.419
-513.331
-455.047
312.901
-323.299
192.025
131.274
423.385
-720.815
568.432
-27.2285
811.249
-807.886
78.6198
168.218
-828.48
810.806
17.6748
-794.515
47.2371
-472.162
-527.845
1042.65
-186.28
931.1
-835.175
-95.9243
-521.12
-463.316
984.436
-48.7025
-256.446
62.0897
226.442
-233.622
7.18038
-22.224
-56.0733
733.411
468.538
-32.9004
-435.637
-376.77
-191.763
19.563
-102.995
-241.822
-143.557
414.809
-271.252
-926.281
926.281
93.0165
-807.85
495.763
-510.971
69.2188
441.752
-211.859
-194.733
162.271
-162.184
-379.695
-552.498
390.314
598.384
57.9564
192.252
419.287
-929.27
509.982
-13.6493
295.358
-222.794
-263.481
-216.96
416.025
-88.4603
-181.82
-141.48
-65.4932
-835.374
452.538
-518.15
65.612
16.9807
-689.993
772.24
-82.2473
415.831
-421.211
5.38008
247.201
-568.237
529.77
38.4677
118.769
109.869
-228.638
199.875
-223.609
378.936
-708.792
329.856
110.543
758.338
178.827
237.063
-68.6938
-493.056
465.037
293.033
-307.604
14.5711
416.61
-37.3762
354.217
-384.602
-22.8506
-367.718
390.569
-19.0718
-280.231
297.019
21.4377
-318.456
-417.388
273.831
-388.916
40.7619
631.09
-749.532
-410.16
532.726
-313.546
-91.674
976.655
-866.112
-492.725
-312.312
805.037
296.441
39.3214
290.599
-329.92
-457.466
139.417
-274.851
-51.857
451.252
-563.989
112.737
47.4294
613.677
-181.551
60.278
331.898
-275.525
708.752
-329.816
270.276
-180.082
24.1244
364.919
-389.043
-28.7369
-297.197
-5.14928
-256.958
251.763
5.19462
0.594083
552.473
-525.366
40.7178
-891.586
113.368
798.528
-1.82283
330.018
-116.905
525.488
328.71
-854.197
598.403
239.951
667.861
-761.751
-743.373
104.894
638.479
285.528
43.0159
-328.544
187.411
-180.216
-7.19502
26.9783
274.483
572.902
-193.064
24.979
168.085
-156.925
-606.882
763.807
-341.616
361.552
-19.9351
-242.699
297.389
-54.6891
-148.649
-175.31
-256.326
212.759
43.567
920.09
-920.09
-87.3906
727.06
-639.669
295.236
-212.025
345.275
-68.1539
-657.72
190.517
27.9198
-218.437
55.1351
-584.83
529.695
20.7284
-216.951
196.223
908.21
-913.929
5.71882
300.921
-674.476
373.555
334.069
-283.603
51.9333
310.595
-350.751
876.238
557.127
-105.875
-72.9702
-243.695
-400.971
323.89
77.0806
219.734
-346.404
333.93
-500.464
166.535
-224.784
36.8348
-873.291
-73.5988
34.4392
-724.432
308.107
-187.476
796.384
-773.235
-23.1485
433.212
47.8627
-481.075
-685.62
610.689
74.9319
-253.94
216.986
36.9539
321.12
-28.0875
-426.144
-254.886
875.849
-832.538
-43.311
-357.745
658.667
136.226
-523.923
-864.632
11.0848
-57.3234
-598.81
656.134
33.8219
-135.611
-150.675
-916.216
418.591
497.625
192.513
2.78377
450.358
-34.5263
543.444
248.12
-260.672
12.552
-334.898
-6.10272
341.001
-540.203
431.928
-17.8884
-184.238
202.127
232.164
-41.6468
-84.9469
353.103
-268.156
-356.097
6.50167
435.125
-10.16
64.126
-807.719
743.593
-664.306
664.306
39.1226
192.823
-87.1253
-506.328
593.454
-854.469
938.101
-83.6314
741.117
55.2663
-14.1485
-834.516
848.664
324.528
-341.941
17.4127
325.411
14.6276
-340.039
584.145
-636.952
52.8069
29.9552
305.141
-335.096
-203.364
-116.892
320.256
196.524
-9.11318
106.085
-710.413
604.328
-760.006
267.28
351.426
-312.105
793.741
59.776
-77.4115
-433.56
342.967
-390.439
-681.065
101.172
579.892
314.339
-261.486
-52.8528
-531.698
614.454
-82.7558
-81.997
-362.995
444.992
409.309
-382.615
-591.698
-324.518
591.755
-725.73
133.975
-407.791
-427.286
837.854
-39.7561
-645.864
134.447
444.293
-578.741
563.57
-644.82
81.2494
24.5041
-244.656
11.1087
-693.009
-321.821
321.696
3.78219
570.579
-692.732
122.153
-344.514
-430.619
-2.75827
-684.62
698.222
-13.602
763.079
-164.676
645.657
-102.972
-542.686
203.113
286.645
290.571
-298.038
7.46646
807.725
-935.888
128.163
-645.761
-97.6116
-281.204
7.29519
-328.748
94.9066
233.842
-56.5901
640.736
80.3644
-258.766
178.402
358.033
-335.964
-22.0685
-328.125
-265.796
-15.3803
205.161
-28.2815
-174.796
234.458
134.184
-368.642
-272
319.899
-47.8982
588.544
-675.669
24.0074
288.737
-255.436
-73.3125
-281.737
-293.57
-711.343
540.689
170.654
-111.789
-152.601
-162.493
66.7562
-578.613
536.458
42.1553
576.957
-1098.08
-25.102
-1015.48
-140.764
369.787
46.2384
-22.8381
-51.4007
-758.237
126.546
850.408
-843.634
617.405
-76.7153
1.86093
589.249
-591.11
-281.882
-166.347
448.229
-41.101
-212.839
7.02956
198.541
-213.183
14.642
-993.555
226.684
448.727
-114.797
19.6957
-628.001
608.305
299.277
-365.318
26.5794
338.739
59.5261
573.772
-633.298
-103.691
771.129
-667.438
-669.427
-195.544
-724.894
39.7339
685.16
-35.8421
563.001
-527.159
922.268
-913.954
-8.31378
561.273
-618.596
-611.189
-23.6928
634.882
-396.261
124.261
247.054
-263.994
16.9401
801.231
-772.557
-96.1065
730.905
-634.798
460.078
11.0262
-434.098
-669.921
604.142
65.7782
399.247
-92.2422
-564.038
-38.3412
-11.3567
-399.721
-24.0585
222.819
-198.76
23.6579
327.768
-360.752
364.606
-3.85485
745.374
-791.952
136.347
126.677
214.286
-226.153
11.8671
684.147
-775.3
91.1532
-316.135
-669.443
-18.099
794.767
74.1249
291.123
120.484
811.019
-16.252
-12.0086
-1030.39
176.926
3.94317
19.0734
-567.405
161.878
-150.021
-1081.57
-240.931
223.043
71.2896
223.946
-107.739
-467.136
574.876
-2.50279
-477.532
480.035
838.933
-31.2074
570.096
75.5619
-23.7442
-202.167
225.912
739.195
-781.812
-147.873
382.331
-403.494
444.991
-41.4967
-679.26
723.23
-43.9703
292.631
-371.348
18.8354
397.212
-159.099
-238.114
173.188
-511.692
466.191
45.5012
4.70105
-462.288
461.329
0.958783
613.814
-596.042
32.996
-159.194
592.406
-295.115
57.5084
441.058
41.5856
607.253
-648.838
-80.5378
-146.797
199.711
17.2758
30.9776
-392.156
26.8376
-414.094
10.5995
251.349
-253.425
2.07588
711.263
-682.609
-485.353
84.2887
401.065
-42.3019
626.493
-3.59377
-207.688
914.265
-141.781
-772.484
518.881
537.484
-1056.37
-291.546
-20.0053
291.181
4.17852
10.2767
274.526
-690.042
-1.56446
691.606
592.096
-749.021
-215.446
195.986
19.46
-518.587
-33.1101
-633.382
-4.61302
147.286
-137.5
-428.308
-118.97
199.334
14.9903
-632.923
617.933
-38.9213
-497.767
536.688
-255.801
285.756
-69.3276
626.145
-727.495
753.526
-26.0313
217.729
-482.444
224.301
-249.661
25.3598
-12.4783
-838.169
28.2215
236.029
-439.393
905.86
-915.54
9.68078
636.613
13.9814
-650.594
-54.386
-538.719
-807.248
840.447
109.034
-207.765
897.676
-78.2714
241.615
-15.1728
-60.3706
-715.978
776.349
-87.4961
-597.123
-14.5602
537.308
-667.534
21.773
210.542
-236.874
26.3317
-237.247
2.35698
234.89
-558.889
533.553
25.3361
-227.764
90.6294
60.4668
89.5104
-149.977
-880.248
314.762
20.3019
-335.064
54.979
637.882
-692.861
-343.264
367.676
-24.4115
-645.403
-22.1312
-669.19
759.982
-896.583
127.494
769.089
-146.222
-169.06
-445.626
64.0994
-457.053
-614.695
238.104
16.5856
-290.609
291.262
-0.653146
182.07
-63.301
-423.032
393.944
29.088
-954.872
972.026
-311.15
119.418
191.732
149.269
12.6089
522.428
853.289
-873.299
277.667
-38.9932
358.53
-498.035
-789.276
811.255
-21.9783
-350.163
-180.301
530.464
132.758
-174.084
41.3259
427.062
-524.255
742.734
-680.7
-62.0348
-263.78
-27.7662
309.933
-70.0424
316.286
-292.278
332.23
-652.046
-17.8743
5.50811
633.479
-379.42
162.25
20.6562
-891.506
548.03
-390.787
608.146
368.51
423.779
8.85955
744.63
-805.001
-40.2747
-25.0129
827.283
70.3933
421.155
-499.88
78.7247
205.138
-181.292
-23.8459
-201.014
219.543
-18.529
-11.2854
344.075
-332.789
-617.329
658.915
434.778
252.202
-221.165
-31.0362
368.829
505.34
313.181
-334.743
702.843
107.538
76.6841
-600.441
523.757
639.835
-35.6921
14.2808
-930.373
113.895
816.478
225.235
-253.87
-252.219
-793.306
732.261
61.0454
5.27286
814.201
-819.474
926.62
-926.62
-378.318
17.5666
602.827
37.0078
-109.159
-23.5941
-197.26
220.854
437.628
27.8602
-465.488
-435.638
21.6362
414.002
188.756
972.166
-453.285
-229.216
39.4517
189.764
-627.13
630.84
-3.71008
415.083
-469.884
54.8009
-430.927
-4.711
49.6522
-762.06
712.408
-636.962
-61.2529
-549.642
518.531
31.1104
-364.279
268.533
23.2037
-241.811
218.607
-156.948
-154.202
-29.1196
230.886
-31.1754
55.2775
278.179
-277.215
-71.7328
791.611
367.268
-52.5063
-769.215
32.9135
-890.027
814.422
75.6047
128.571
269.601
388.633
149.647
-754.019
858.658
332.993
186.372
-519.365
-164.814
594.457
-644.049
49.592
473.76
58.3641
-532.124
634.964
-339.396
-295.568
-471.238
-119.851
-781.202
677.511
28.6029
-685.191
656.588
-711.341
108.517
602.824
-765.214
-2.44109
29.2056
508.628
-87.4729
-517.674
356.65
546.716
-582.558
-35.4246
-67.1875
230.608
-163.421
36.4613
-673.918
-236.061
-234.218
167.03
-29.7349
281.246
-120.365
-160.88
162.276
-9.58613
-635.412
722.56
-27.9853
203.307
-175.322
869.868
-629.203
11.7497
150.909
180.988
1.00837
397.602
-398.61
-225.848
-194.592
420.44
180.938
763.529
379.769
-355.644
-842.343
7.54051
626.414
-609.868
-0.0631319
-809.212
809.275
589.556
16.0936
-605.65
841.807
45.4705
-887.278
311.536
-10.9014
125.681
-407.563
426.061
9.06385
-255.398
335.201
-79.803
195.194
381.697
-90.5745
611.372
-55.4966
-555.875
-755.813
780.968
-25.1551
14.6083
643.198
-657.806
-645.695
113.997
-6.81429
-442.473
603.534
34.5284
323.504
-30.6863
189.568
-89.7991
-336.797
1.89836
95.9673
742.966
3.79835
-278.022
274.223
-423.832
-505.437
-57.4503
-757.749
815.199
237.707
-46.9262
198.559
-267.482
68.9233
204.539
-96.0838
-222.434
-516.878
-581.321
-791.946
-18.3568
-169.292
-815.759
776.448
39.3115
-34.5119
469.833
-435.321
59.7825
821.339
-881.122
199.436
-138.969
774.538
26.3744
-227.336
203.742
20.4507
-307.212
286.762
575.732
-573.871
-645.033
144.642
500.39
-545.827
588.178
-42.3514
31.8204
258.751
-665.191
-441.814
608.545
45.8224
-654.368
-721.931
606.763
-679.218
72.4554
-161.157
-31.9067
450.096
-484.353
-846.401
851.674
105.321
-307.746
-588.837
-642.45
593.293
49.1568
181.91
-76.2361
-43.78
459.774
175.19
-570.479
56.1753
514.247
-527.307
13.0598
73.1294
-717.674
644.545
267.85
-16.501
-313.602
166.592
147.009
-563.523
578.983
-120.929
456.648
-335.719
681.432
-86.9752
1.13073
-318.313
317.182
-446.865
-442.77
889.634
-160.263
254.208
-93.9444
-101.43
-579.635
-560.054
411.294
148.76
403.093
-35.9052