/*--------------------------------*- C++ -*----------------------------------*\
  =========                 |
  \\      /  F ield         | OpenFOAM: The Open Source CFD Toolbox
   \\    /   O peration     | Website:  https://openfoam.org
    \\  /    A nd           | Version:  7
     \\/     M anipulation  |
\*---------------------------------------------------------------------------*/
FoamFile
{
    version     2.0;
    format      ascii;
    class       volVectorField;
    location    "5";
    object      U;
}
// * * * * * * * * * * * * * * * * * * * * * * * * * * * * * * * * * * * * * //

dimensions      [0 1 -1 0 0 0 0];

internalField   nonuniform List<vector> 
7807
(
(1.04187 0.0903338 1.31808e-20)
(1.03507 -0.0279392 2.69715e-21)
(0.990789 0.0651541 -2.36358e-20)
(1.02092 0.043761 3.40184e-20)
(0.99944 -0.000584555 -5.72371e-23)
(0.999977 -6.9685e-06 -4.07548e-24)
(0.988731 0.0533055 -4.51773e-20)
(0.996765 -0.00104994 -1.31529e-23)
(0.999917 -0.000112383 -9.10317e-24)
(1.01587 -0.000911267 -1.57421e-21)
(0.999979 -8.12514e-06 4.50545e-24)
(1.00139 -0.000881965 -2.02253e-22)
(0.994969 -0.00137885 6.0326e-22)
(1.01093 -0.00128762 -9.89953e-21)
(1.01508 0.00016476 6.65133e-21)
(0.994046 -0.00937397 -1.44363e-21)
(1.04284 0.0951576 -2.77661e-20)
(0.993204 -0.00170051 -2.14966e-22)
(1.00142 -0.00586089 -1.28244e-23)
(0.985998 -0.0648368 -1.36462e-21)
(1.022 -0.00186191 -3.46735e-21)
(1.0009 -0.00039984 3.64939e-22)
(1.01125 -0.00246008 8.29051e-22)
(1.00732 0.0186196 -1.69902e-20)
(0.990908 -0.00208973 -9.91052e-22)
(1.03882 0.0886274 -1.29592e-20)
(0.999434 -0.000551629 -4.18183e-23)
(1.0155 -0.000507977 3.93955e-21)
(1.0041 0.00983174 -2.18727e-21)
(1.00199 -0.00639745 1.18632e-24)
(0.991466 -0.00994235 -2.62517e-21)
(0.927751 0.0127479 6.0496e-21)
(1.01031 -0.00271792 5.17948e-21)
(0.999708 -0.00023753 6.36377e-23)
(0.999948 -1.2594e-06 7.33887e-26)
(1.01443 0.000448435 2.3369e-21)
(1.00278 -0.00699583 2.68942e-23)
(0.99128 0.0515569 -7.21792e-21)
(0.997904 -0.00505256 1.1937e-21)
(0.999795 -2.66587e-05 5.04696e-23)
(0.997978 -0.00517026 -1.36498e-22)
(0.994277 -0.00853237 -5.29115e-22)
(1.0041 -0.0720039 5.84588e-21)
(1.10273 -0.0325206 -1.09962e-22)
(0.999903 -3.32489e-06 1.54509e-23)
(0.999953 -1.03593e-05 -4.35543e-24)
(1.00078 -0.000355827 -2.23365e-22)
(0.997356 -0.00431484 -6.99484e-22)
(0.999961 -1.79505e-05 -3.74406e-24)
(0.988848 -0.065429 1.97226e-21)
(1.00201 -0.000777352 2.23906e-22)
(1.01548 0.000388528 -4.08803e-21)
(0.988101 -0.00244471 -3.41713e-21)
(1.00721 -0.0203882 5.60903e-23)
(1.0137 -0.00102815 -1.36856e-21)
(0.997095 -0.00155126 -1.14239e-22)
(1.00102 -0.00578666 7.08738e-23)
(0.99677 -0.000861729 7.88913e-22)
(0.98488 -0.0117976 -4.61236e-21)
(0.999709 -0.000209222 -8.07025e-23)
(1.00002 -1.47542e-05 -5.72361e-24)
(1.00267 -0.000636908 2.55389e-22)
(1.01168 -0.00086093 -2.3285e-21)
(1.00148 -0.000784802 2.04752e-22)
(0.999437 -0.000120372 1.08041e-22)
(0.991731 -0.0104153 4.46147e-22)
(0.999943 -0.000117174 7.49435e-24)
(1.00001 -1.35353e-06 3.73902e-25)
(1.10146 0.0526123 7.20618e-21)
(0.997334 -0.00416572 -2.10726e-22)
(0.999957 -1.1759e-05 3.94684e-24)
(0.979086 -0.037551 -9.43436e-21)
(0.99126 -0.00238362 4.94174e-22)
(0.983455 -0.00273573 6.71335e-22)
(0.993458 -0.00193858 6.79357e-22)
(0.976332 -0.0170305 -1.03808e-21)
(0.99309 0.0664637 3.79568e-20)
(1.02056 -0.00183713 4.417e-21)
(1.05632 0.000401185 -9.57403e-21)
(0.968454 -0.0298947 -1.15439e-20)
(0.995175 -0.00155097 -9.2712e-22)
(0.998126 0.0306749 4.41906e-20)
(1.02436 0.00427039 1.06121e-20)
(0.982748 -0.00573243 3.26751e-21)
(0.999155 -0.00155426 -1.02933e-22)
(0.998634 -0.000145571 8.52605e-23)
(0.996537 -0.00142577 1.14318e-21)
(0.988536 -0.00284008 2.1904e-21)
(0.999581 -0.000723073 6.37911e-23)
(0.997306 -0.000347563 3.24023e-22)
(1.00414 0.0112218 1.61299e-20)
(1.1268 -0.0210726 4.2733e-22)
(0.999923 -3.32342e-05 -9.86863e-24)
(1.00109 -0.0048629 2.63884e-23)
(0.99783 -0.000574974 3.01476e-22)
(0.984624 -0.0012619 -5.28338e-21)
(0.980799 -0.0372837 5.6626e-22)
(1.00811 -0.0195569 3.08727e-22)
(0.999144 -0.00150767 3.43424e-23)
(0.999336 -8.26238e-05 3.84017e-23)
(0.966657 -0.00901303 2.5524e-21)
(1.05722 0.00419554 7.80177e-21)
(0.997965 -0.000672302 -7.47642e-22)
(0.999987 -2.43683e-07 -2.99182e-25)
(1.12975 -0.0121901 2.67011e-22)
(1.01907 0.0181834 -1.57389e-20)
(0.959176 0.0120036 7.07592e-21)
(0.996885 -0.00146308 -4.55343e-22)
(0.999995 -1.16233e-06 8.77904e-26)
(1.01617 -0.0081474 -1.76223e-21)
(1.02449 0.0414686 -3.95153e-20)
(1.01642 -0.0536071 -6.57378e-21)
(0.999993 -1.20807e-06 -1.31697e-25)
(1.01766 -0.00839128 -3.83889e-22)
(1.01649 0.0179063 1.65505e-20)
(1.00023 -0.000341505 -1.45801e-23)
(1.04717 -0.0639053 -1.93369e-22)
(1.01958 0.0104459 -3.80348e-21)
(0.987768 -0.0295998 4.06278e-21)
(0.983088 -0.00355537 -7.29243e-22)
(0.965588 -0.0049412 -5.98556e-21)
(1.00023 0.026338 -2.863e-20)
(1.00839 -0.0709716 -8.02813e-21)
(1.00565 -0.00478619 1.20291e-22)
(0.966161 -0.00611698 2.3229e-21)
(0.999421 -0.000813671 1.46259e-22)
(0.99188 -0.00736425 8.42773e-22)
(1.00181 -0.00563219 -4.22268e-23)
(0.999405 -8.77411e-05 -2.42098e-22)
(0.991214 -0.00902607 5.15301e-23)
(1.1559 -0.0354513 -2.51741e-22)
(1.0521 -0.00114809 1.61388e-21)
(0.999639 -0.000305498 7.07184e-24)
(0.999526 -0.000744306 -1.27776e-22)
(0.981976 -0.00511624 9.43567e-22)
(1.023 0.0348236 1.46316e-20)
(0.994921 0.0197397 4.92246e-20)
(0.999986 -1.99555e-06 -3.62667e-25)
(1.00506 -0.00182359 1.14041e-22)
(0.954469 -0.00583108 -7.66853e-21)
(0.984789 -0.00176832 -2.73217e-21)
(0.990813 -0.0417164 -6.13215e-21)
(0.976569 -0.0184898 1.40875e-21)
(0.984396 -0.00242479 -6.43196e-23)
(0.958752 0.00869808 2.6796e-20)
(1.00761 -0.030951 -2.22399e-22)
(1.00831 0.0108663 -8.27086e-21)
(0.986289 -0.0145182 -2.43371e-21)
(0.977919 -0.00231771 7.59193e-22)
(0.99957 0.0286713 -1.4302e-20)
(1.01536 0.00193672 5.83075e-21)
(1.11662 -0.0228009 8.60232e-22)
(0.999003 -0.00119857 -3.41003e-22)
(1.10591 0.0462776 1.4125e-21)
(1.02358 0.00374147 -1.09683e-20)
(0.999591 0.0546291 -3.74539e-20)
(0.972397 -0.0200495 4.35669e-21)
(0.994981 -0.000929612 1.98348e-22)
(0.961938 0.0384463 6.41547e-20)
(0.999963 -1.38159e-05 -3.53081e-24)
(1.00074 -0.00501039 6.46291e-23)
(1.00808 0.0209638 1.21801e-20)
(0.999987 -1.1471e-05 2.24166e-24)
(0.998874 -0.00323675 -5.80256e-22)
(0.997587 -0.000543998 -1.43228e-22)
(1.00283 0.0232598 -3.95176e-21)
(1.00172 0.0240687 1.45488e-20)
(0.956318 0.0430259 2.15065e-20)
(0.998816 -0.00313336 -3.41515e-22)
(0.998142 -0.000139914 -1.50737e-22)
(1.00001 -6.05036e-07 -3.26714e-25)
(0.969336 -0.00218336 -9.91957e-21)
(1.00021 -0.000304718 2.02261e-23)
(1.03706 -0.0254698 -3.15085e-21)
(1.00517 -0.0020833 7.44186e-22)
(0.977615 -0.00298314 1.59593e-21)
(1.12228 -0.00400285 1.94079e-21)
(1.06772 0.0508155 5.85822e-22)
(0.999921 -3.54438e-05 5.40724e-24)
(0.99967 -0.000386459 -7.79546e-23)
(1.02055 0.045752 -6.02294e-21)
(0.999964 -1.16222e-05 -1.64533e-24)
(0.999936 -5.58485e-06 2.43516e-24)
(0.988539 0.0565576 -3.77125e-20)
(1.03604 -0.0302018 6.73543e-22)
(1.00726 -0.0444457 -3.78648e-21)
(0.989192 -0.0287486 -5.77302e-21)
(0.984736 -0.00402258 2.06496e-21)
(1.00556 -0.0320207 4.14768e-22)
(0.957148 -0.00419722 4.06445e-21)
(0.999987 -1.07552e-05 -7.63023e-25)
(0.981288 -0.0348351 -2.27295e-21)
(1.06975 0.0564761 -1.36871e-20)
(0.997939 -0.000834676 1.06662e-22)
(1.00005 -2.95311e-06 -4.2784e-24)
(1.04755 0.0524514 1.33905e-21)
(0.999259 -0.000210338 2.75315e-22)
(0.991687 -0.00878418 1.34384e-21)
(1.00394 -0.0302346 1.37837e-21)
(1.00001 -1.76684e-06 -1.53548e-25)
(1.00046 -0.00127128 -8.56331e-23)
(1.02058 0.0347317 1.78589e-20)
(1.05834 0.0599655 -1.71606e-20)
(0.996982 0.0474253 -5.01407e-21)
(1.04436 -0.0594132 2.29588e-21)
(1.0188 -0.0511375 1.51749e-21)
(1.07991 -0.0883327 -7.43637e-22)
(1.01483 -0.00274285 1.17271e-20)
(1.01863 0.0345526 -5.7343e-21)
(0.999878 -9.35691e-06 -1.76331e-23)
(1.00002 -1.16734e-05 1.49505e-24)
(0.973843 0.00376676 -2.67435e-20)
(0.995197 -0.00824898 -5.04672e-22)
(0.999631 -0.000277224 -7.03036e-23)
(0.982901 -0.0342805 4.69837e-21)
(0.991453 -0.00776648 -9.80091e-22)
(1.00606 0.0505446 -4.25874e-20)
(1.00348 0.0487984 -8.94117e-21)
(0.988687 -0.0428375 1.65975e-21)
(0.935547 0.0240023 -2.343e-20)
(0.999312 -0.000253317 -2.04024e-22)
(0.993237 -0.001365 7.50099e-22)
(0.96548 -0.00790684 3.29212e-21)
(1.02175 0.00123209 -2.49379e-21)
(1.0065 -0.090292 -7.80261e-22)
(1.05765 0.0909254 -2.89538e-20)
(0.962754 0.0331747 -5.47161e-20)
(1.00004 -6.64866e-05 4.25805e-24)
(1.00561 -0.00480224 3.79911e-22)
(1.01801 0.012443 2.05475e-20)
(0.997522 -0.00368261 -8.7149e-22)
(1.02106 0.011062 -2.61203e-21)
(0.999658 -0.000774269 -2.64297e-23)
(0.941492 0.0473575 4.32123e-20)
(1.0002 0.0501154 8.08719e-21)
(0.996561 -0.00117702 7.09638e-22)
(1.00244 -0.00529718 -1.12386e-23)
(0.999806 -4.59798e-05 -9.40912e-23)
(1.08478 0.0734446 7.31448e-21)
(0.999944 -9.48129e-06 7.09525e-24)
(0.996383 -0.0069887 4.09245e-22)
(0.956945 -0.0175973 4.81723e-21)
(0.999956 -1.43629e-05 -1.62686e-24)
(0.999243 -0.00178977 -9.31129e-23)
(0.999735 -0.000767028 4.07368e-23)
(1.04259 0.0302521 1.61379e-20)
(0.999988 -1.45642e-05 2.87666e-24)
(0.997299 -0.00024775 6.01376e-26)
(0.970105 -0.0297568 1.34043e-20)
(0.935632 0.00748934 -1.32671e-20)
(1.05162 -0.004317 -2.13098e-21)
(0.950671 0.0305901 3.22436e-20)
(0.999973 -5.85069e-06 -3.72326e-24)
(1.00246 -0.0306189 -5.17484e-23)
(0.999885 -0.000186384 -2.82678e-23)
(0.995988 0.0559505 -3.73606e-20)
(1.00221 -0.000404198 -3.3203e-22)
(0.993155 0.0190985 1.62633e-20)
(1.00188 -0.00674102 -1.15758e-22)
(1.00039 -0.00123695 8.54799e-23)
(1.01936 -0.0233835 -5.41995e-22)
(1.01471 -0.00155183 -1.08561e-20)
(1.00034 -0.000206867 4.51082e-23)
(0.999862 -3.15869e-05 5.30684e-25)
(1.00028 -0.000281742 9.9451e-23)
(0.997369 -0.00389899 -7.7578e-22)
(1.01171 -0.0466054 4.28554e-21)
(0.999974 -8.12384e-06 2.49662e-24)
(0.973593 -0.019222 3.02928e-21)
(0.997693 -0.000672328 -3.2074e-23)
(0.99991 -3.06391e-05 1.03989e-23)
(0.999633 -0.000344646 2.34722e-23)
(0.989015 0.0322476 3.94825e-20)
(0.995302 -0.000344803 2.79953e-22)
(0.999554 -7.08222e-05 -2.10603e-23)
(0.960135 0.00244923 4.99439e-20)
(0.999171 -0.00174723 -2.01465e-22)
(1.03587 0.0669233 -1.49525e-20)
(0.999873 -0.000177716 4.85489e-23)
(1.00524 -0.0155703 -1.72031e-22)
(1.00001 -5.11056e-07 -1.24938e-25)
(0.987557 -0.0237538 -2.25522e-21)
(1.02168 0.00169524 3.86433e-21)
(1.12421 0.00315614 -5.35295e-21)
(0.984974 -0.0127507 3.91611e-21)
(0.999755 -0.000400889 9.26258e-23)
(0.985211 -0.0548695 3.11244e-21)
(0.995836 -0.000160421 1.33951e-21)
(0.999893 -1.61972e-05 1.06691e-24)
(1.00026 -0.000238967 -8.80154e-23)
(0.998635 -0.00220965 2.88441e-22)
(0.995134 -0.000743515 -8.52489e-22)
(1.00205 -0.00055739 -3.79221e-22)
(0.999212 -0.00127174 1.20503e-22)
(0.983684 -0.00532067 5.17405e-22)
(1.01502 -0.0445962 -3.13387e-21)
(0.983868 -0.00429741 2.22916e-21)
(1.09748 -0.0266314 9.90154e-23)
(0.978396 -0.00454176 -2.88185e-21)
(1.00567 0.0666937 4.32195e-21)
(1.00279 0.0683505 -3.19395e-20)
(0.999092 -0.000467771 -1.85474e-22)
(1.14226 0.000815931 4.88168e-21)
(0.99999 -2.23164e-06 -2.0291e-25)
(0.998591 -0.0027006 -3.5393e-22)
(0.986698 -0.000726492 5.3964e-21)
(1.00554 0.0158287 1.01419e-20)
(1.02686 0.00628202 -1.03016e-20)
(1.00006 -2.58063e-05 1.00311e-23)
(0.998592 -0.00261765 -2.65892e-23)
(0.979126 -0.00521892 2.17195e-21)
(1.03338 0.0262492 -6.22074e-21)
(0.999388 -0.000767053 1.0457e-22)
(1.0021 -0.000615408 2.18668e-22)
(1.00077 -0.000612287 -1.734e-23)
(1.08586 0.0162156 1.0066e-20)
(1.15505 -0.0454603 -2.38636e-21)
(1.01645 0.0827558 2.14851e-20)
(0.999036 -8.6036e-05 -1.70871e-22)
(1.04331 -0.0293058 -2.44053e-21)
(0.99993 -4.27731e-05 -8.91449e-24)
(1.00312 -0.00477359 -6.72507e-22)
(0.999967 -7.22576e-06 -1.14169e-24)
(0.989857 -0.014064 6.83327e-22)
(0.999791 -4.09447e-05 -1.80997e-23)
(1.008 -0.0146995 1.82922e-22)
(1.16144 0.00182891 -3.40858e-21)
(0.981383 -0.0184259 4.85286e-21)
(1.00586 -0.0151417 -1.61209e-23)
(1.00533 -0.00413809 -4.76355e-22)
(0.999551 -9.62523e-05 9.57051e-23)
(1.01791 -0.0124041 1.25619e-21)
(0.997348 -0.012568 7.39131e-22)
(1.05311 0.00791536 -4.49631e-21)
(1.03904 0.0291518 7.19363e-21)
(1.11774 -0.100507 -7.14611e-23)
(1.1005 -0.039098 -5.63802e-22)
(0.993067 -0.000187093 -1.45596e-21)
(1.00319 -0.00237418 7.08093e-22)
(0.958667 -0.0166527 -1.82817e-21)
(0.951379 0.041869 -6.60328e-20)
(1.08474 -0.0393235 -4.22347e-22)
(1.01727 -0.00718383 -5.02847e-21)
(0.939741 0.0272124 -3.23244e-20)
(0.999064 -3.71721e-05 8.41323e-23)
(0.99891 -0.000592476 -5.85436e-23)
(1.11395 -0.0304473 -1.16389e-22)
(0.99929 -0.00130873 -7.5174e-23)
(1.00781 -0.0288429 3.69588e-22)
(1.00377 -0.001367 2.58325e-22)
(0.998207 -0.000235684 -1.30225e-22)
(0.998667 -0.000227873 -2.11176e-22)
(1.02011 0.0169441 1.21169e-20)
(0.999957 -9.74591e-05 -1.30599e-24)
(1.00031 -0.000154354 -4.02585e-23)
(1.00005 -1.17066e-05 7.31896e-24)
(0.997819 -0.000409897 7.41606e-22)
(0.995665 -0.00586348 1.0957e-21)
(0.999989 -2.21259e-06 1.91134e-25)
(0.999335 -0.000146577 2.22069e-23)
(0.985612 -0.0111716 1.35727e-21)
(0.969824 0.00538647 1.67417e-20)
(1.00724 -0.0157921 1.40546e-22)
(0.995215 -0.00758167 1.8215e-21)
(0.973762 0.0341977 7.5919e-21)
(1.00045 0.0263294 2.58361e-20)
(1.04516 -0.00105999 -3.55899e-21)
(1.13518 0.00561638 -2.05942e-21)
(0.974041 -0.00157212 5.35063e-21)
(1.00324 -0.00263 -3.44136e-22)
(1.00503 0.0263291 -1.42999e-21)
(0.992666 -0.00124577 -1.78372e-21)
(1.02211 0.0647874 7.21706e-22)
(1.00537 -0.0345819 5.13142e-23)
(1.02284 -0.0815127 -2.67577e-21)
(1.05521 0.0576843 1.04727e-20)
(1.02335 0.068963 -1.88389e-20)
(0.974809 -0.016415 6.6555e-21)
(1.02877 0.00519061 -6.71723e-21)
(1.06084 0.0947142 2.73166e-20)
(1.03176 0.0668411 2.77352e-20)
(1.015 -0.00170141 3.72389e-21)
(0.998083 -0.000911315 1.75139e-22)
(0.997286 -0.00140194 1.59153e-22)
(0.999944 -1.12139e-05 -3.86152e-24)
(1.0111 -0.0191933 8.3352e-23)
(0.992575 -0.000970928 4.33417e-22)
(1.00062 -0.0016383 -7.7488e-23)
(0.999934 -1.34381e-05 -7.11401e-24)
(0.998949 -0.000443807 7.23447e-23)
(0.983384 -0.0539309 -5.11129e-21)
(1.0742 0.0248357 4.36138e-21)
(0.98836 -0.00355851 -2.53534e-21)
(0.999389 -0.00848416 8.67425e-22)
(0.997596 -0.000341754 -3.98667e-22)
(1.04173 -0.0305933 6.17059e-23)
(0.995373 -0.000837042 -1.37143e-21)
(1.00146 -0.00480549 2.02519e-22)
(1.07148 0.0915584 4.35589e-21)
(0.998821 -0.000191573 -4.97411e-22)
(0.999987 -2.78558e-05 -2.39035e-24)
(0.999965 -0.000117192 -1.53457e-24)
(1.00003 -6.95444e-05 4.88117e-24)
(0.985392 -0.00464655 1.18726e-21)
(1.01907 0.0144072 -1.43357e-20)
(0.997462 -0.000239564 1.64175e-23)
(1.01475 -0.00623431 3.23734e-21)
(1.01167 -0.0946561 5.36562e-21)
(0.992941 0.0477515 -6.44371e-22)
(1.00261 -0.00515453 2.1217e-22)
(1.00453 -0.00289476 -1.20661e-22)
(0.996737 -0.00160055 -5.71697e-22)
(0.993834 0.0327508 -3.87309e-20)
(0.99936 -3.18295e-05 6.68927e-23)
(1.01874 0.0858055 -1.09975e-20)
(1.00721 0.0110623 -1.58911e-20)
(0.999929 -1.77435e-05 8.50402e-24)
(1.00405 -0.0351415 -2.34236e-21)
(0.997923 -0.000493468 -3.6108e-22)
(0.993209 -0.0423211 7.52523e-21)
(1.00033 -7.29598e-05 4.05527e-23)
(1.04125 0.00132449 4.98016e-21)
(1.0047 -0.0109006 -4.03924e-24)
(1.00408 -0.00246733 4.41467e-23)
(0.999465 -8.37562e-05 -1.29458e-22)
(1.04791 0.0283306 7.96387e-21)
(1.03001 0.0253724 2.48198e-21)
(1.00539 -0.0464342 3.74501e-21)
(0.986075 -0.0132668 -2.62267e-22)
(0.998551 -0.00236382 -2.44179e-22)
(0.999685 -0.0274405 -4.28772e-21)
(1.10204 0.0387485 -9.47267e-21)
(0.928397 0.0168435 -2.96316e-20)
(1.05803 -0.0563648 -1.88968e-21)
(1.00325 -0.00527786 -9.02418e-23)
(0.999996 -9.56186e-07 -7.17476e-26)
(0.991158 -0.00294467 -1.99013e-21)
(0.998565 -0.000185159 4.55456e-22)
(1.01765 -0.0114018 1.79404e-21)
(1.00129 -0.075485 -2.41077e-21)
(1.14052 -0.00951318 -1.20054e-21)
(0.98699 0.044802 -4.8828e-20)
(1.03637 0.0239314 1.03227e-20)
(1.08208 -0.079722 3.35351e-21)
(1.04725 0.0572152 4.42036e-21)
(0.99863 0.0250755 4.58688e-20)
(1.01336 -0.00208424 2.65182e-21)
(1.00072 -0.00152466 1.81925e-22)
(1.01427 0.0366243 8.83802e-21)
(0.999424 -0.00132275 1.62928e-22)
(0.999886 -9.95613e-05 9.85303e-24)
(0.988991 -0.00085094 6.58883e-22)
(1.00006 -2.27948e-05 1.87711e-24)
(1.0864 -0.0950339 2.10267e-21)
(1.00248 -0.0121586 -2.90376e-22)
(0.989235 -0.02335 3.87167e-21)
(1.00117 -0.00109679 1.0117e-22)
(1.04345 0.0497132 2.26812e-20)
(0.998858 -0.000168444 -3.93907e-23)
(0.999985 -2.20204e-05 -2.0214e-25)
(1.01775 -0.0846962 2.96802e-21)
(1.00104 -0.000838271 -5.86046e-23)
(1.07379 -0.00413552 -1.10439e-21)
(0.968435 -0.00844571 1.19975e-21)
(0.953905 -0.00950112 5.57645e-22)
(1.14741 0.0399017 -7.80319e-22)
(1.01658 0.0110286 -5.37831e-21)
(1.01434 0.00285729 3.28482e-21)
(1.01334 0.00269645 -1.32767e-21)
(0.999873 -2.43891e-05 3.07132e-24)
(1.08001 0.0244722 3.51736e-21)
(1.05326 0.0102647 5.2054e-21)
(0.99968 -0.000401892 3.71261e-23)
(0.988874 -0.00393039 2.93244e-21)
(1.00039 -0.000128176 -4.51574e-23)
(1.00787 -0.0134562 -9.61921e-22)
(1.00617 -0.0190399 -1.79332e-22)
(1.003 -0.000961806 4.07343e-24)
(0.999517 -0.000827497 -1.78501e-22)
(1.08434 0.0674131 -2.24706e-20)
(0.999987 -1.39104e-05 -3.19665e-24)
(1.00013 -6.28674e-05 -1.07052e-23)
(1.00137 -0.000634916 -4.33448e-24)
(0.985472 -0.00147574 1.90322e-21)
(1.01247 -0.00740085 2.19047e-21)
(0.988631 -0.0194964 -5.35684e-21)
(0.981579 -0.00249817 -1.11342e-21)
(1.00952 -0.0439843 2.13236e-21)
(1.025 -0.102177 -5.72324e-21)
(1.01812 -0.0207385 4.19089e-22)
(1.01807 0.0372996 -5.10904e-20)
(1.15395 0.00727809 1.82296e-21)
(0.995738 -0.00153254 -8.69596e-23)
(0.939307 0.043356 5.08176e-20)
(0.982422 -0.0387221 8.27079e-21)
(0.995565 -0.00620456 3.48376e-22)
(0.982326 -0.00205753 1.85918e-21)
(0.998439 -0.0123099 -1.98629e-22)
(0.987058 -0.00111061 2.85872e-21)
(0.99339 -0.00240135 -5.64306e-22)
(1.01801 -0.00968936 -3.45937e-21)
(1.09079 -0.0421623 1.92382e-22)
(0.999984 -2.70889e-05 -3.29038e-25)
(1.01496 -0.00881665 -3.95675e-22)
(0.999939 -1.78677e-05 -4.1822e-24)
(1.00236 0.0567764 1.00625e-20)
(1.10249 0.0577255 1.68869e-20)
(0.996867 -0.00119261 1.80916e-22)
(0.991175 -0.000806402 -2.47747e-21)
(0.999881 -3.2122e-05 -2.15644e-23)
(0.996419 0.0298421 2.92106e-20)
(1.01478 0.0667809 2.46384e-20)
(1.08187 0.0176695 -5.46248e-21)
(1.08858 0.0881586 -1.9407e-20)
(0.982301 -0.0413383 -3.56443e-21)
(0.99928 0.0104995 -4.18133e-20)
(0.99996 -8.17508e-05 5.15922e-24)
(1.03311 -0.0182604 4.42286e-21)
(0.990047 -0.000594275 -1.03542e-22)
(1.06217 0.0486672 -4.91561e-21)
(0.957228 0.0299239 -3.92182e-20)
(1.1051 0.0333393 1.23599e-20)
(1.03338 0.0202713 1.75688e-21)
(0.999919 -0.00837695 -1.81458e-22)
(0.999878 -4.98187e-05 -2.08211e-23)
(1.09065 0.0761054 7.97412e-21)
(1.14558 -0.0281103 -3.96019e-23)
(0.995632 0.0332605 -9.948e-22)
(1.06795 -0.0053933 9.12105e-21)
(1.02081 0.0310778 1.49175e-20)
(0.995439 -0.00135 -2.59295e-22)
(0.991644 0.0451376 1.34626e-20)
(1.01806 0.063749 8.73826e-21)
(0.994207 -0.00197424 -1.57412e-21)
(0.995129 -0.0019034 -5.88591e-22)
(1.10022 0.0692511 4.07733e-22)
(0.952802 -0.00852464 -8.14515e-21)
(0.999945 -9.59926e-05 -7.89713e-24)
(0.991584 -0.00322761 2.58446e-21)
(0.955227 -0.0134987 6.12354e-21)
(0.990982 -0.0530399 -1.08505e-21)
(1.00617 -0.00197606 -2.1471e-21)
(1.00487 -0.00377244 1.30223e-22)
(0.999918 -0.000117414 -1.43073e-23)
(1.01558 0.0709945 -3.72063e-20)
(1.00022 -0.00716974 3.23341e-23)
(0.999935 -3.49893e-05 3.951e-24)
(1.01478 -0.041226 2.31501e-21)
(0.999685 -0.000262646 2.94132e-23)
(0.999862 -4.65349e-05 1.57834e-24)
(1.00343 -0.00812628 -1.01516e-22)
(1.03617 0.0481999 3.03496e-20)
(1.01219 -0.0750186 4.13704e-21)
(0.968002 0.0313493 2.3372e-20)
(1.00004 -9.38843e-06 -5.12742e-24)
(1.03904 0.0518454 -3.1842e-20)
(1.00966 -0.0351648 1.86915e-21)
(0.999953 -0.000114254 -2.24783e-24)
(1.00002 -3.27858e-06 -1.48406e-24)
(1.00258 0.00727416 -2.64163e-21)
(1.03307 0.0416286 1.11557e-20)
(0.997493 -0.00149644 1.63007e-22)
(1.03122 0.0318942 -1.41039e-20)
(1.00002 -1.18669e-05 1.09164e-24)
(1.0314 0.0353946 -1.98822e-20)
(1.10564 -0.100576 4.48494e-21)
(0.993881 -0.00171923 1.70112e-21)
(0.999591 0.0168586 -5.844e-20)
(0.983182 -0.0321524 5.41396e-21)
(1.09214 0.0837076 1.92128e-20)
(0.982986 -0.00203855 1.06889e-21)
(1.03397 0.0376638 2.59041e-20)
(1.03666 0.0440333 -8.04665e-21)
(0.989356 -0.00497816 4.3462e-21)
(0.985972 -0.00605227 -3.21942e-21)
(0.996667 -0.00627785 1.05533e-21)
(0.998223 -0.000397545 -1.21504e-22)
(0.999881 -0.000115346 2.7325e-23)
(1.00018 -0.00670562 -5.7411e-23)
(1.02526 0.0611142 -4.39241e-21)
(0.999983 -2.11079e-05 8.71789e-25)
(1.02783 0.0305299 1.86944e-20)
(1.02232 -0.0753916 6.26608e-21)
(1.00197 0.0330565 1.18004e-20)
(1.02806 0.0276672 -2.10864e-20)
(0.953543 -0.0122505 -8.04611e-22)
(0.970342 0.0415982 -5.00161e-20)
(0.99901 -0.000691205 9.24251e-24)
(1.01079 -0.017691 4.33651e-22)
(1.0366 -0.0544741 1.41114e-21)
(0.987539 -0.000939553 -1.83196e-22)
(0.995988 -0.00200941 7.86468e-22)
(1.00789 -0.0363086 -1.64511e-21)
(1.03675 -0.0126792 -4.85067e-22)
(0.946178 0.0244907 6.0714e-20)
(1.00003 -1.34943e-05 5.48164e-24)
(0.998839 -0.000739032 1.44297e-22)
(1.0131 -0.05277 7.87086e-23)
(1.00001 -2.85269e-06 1.71371e-25)
(1.00194 0.0611692 4.97074e-21)
(1.00099 -0.000742325 0)
(1.00001 -3.17945e-06 1.22943e-25)
(1.00011 -5.286e-05 2.47541e-23)
(1.00026 -6.05887e-05 5.49504e-25)
(0.990144 -0.0129681 3.54407e-21)
(1.01405 -0.011382 -1.29533e-21)
(0.999063 -0.000508666 2.21972e-22)
(0.999953 -7.96253e-06 7.71774e-24)
(0.995691 -0.00187024 4.23693e-22)
(1.00271 -0.00851895 -4.38001e-23)
(0.993085 -0.0798143 -6.52718e-21)
(0.965373 -0.00256916 5.60473e-22)
(1.01186 -0.00657618 3.88801e-21)
(0.999984 -1.42702e-06 1.98634e-24)
(1.06949 -0.112297 7.16006e-21)
(0.991796 -0.00209612 -1.00304e-21)
(1.0899 0.061806 -1.40049e-21)
(1.00036 0.017801 -8.49309e-21)
(1.00071 -0.00233407 3.4127e-23)
(1.08118 0.0533191 -2.07993e-20)
(1.00009 -5.98139e-05 8.19515e-26)
(0.992191 -0.00243907 1.95429e-23)
(1.015 0.000575579 -6.71717e-21)
(0.995967 -0.00228918 -3.2285e-22)
(1.03633 0.0576346 -1.75969e-21)
(0.992019 -0.00402833 -1.97919e-21)
(1.03395 -0.0175012 -3.81636e-21)
(1.01623 0.00219611 -7.2473e-21)
(1.03988 0.0264604 -4.57282e-21)
(1.00482 -0.0100995 -4.21034e-22)
(0.993741 -0.00260134 4.61986e-23)
(1.05224 0.0499542 1.46287e-20)
(0.985781 -0.0583152 -5.78965e-21)
(0.994743 0.0589622 4.11904e-20)
(0.994444 -0.00295428 -1.89251e-21)
(1.03668 0.0759691 -1.12228e-22)
(0.994473 -0.00258125 5.07646e-22)
(0.999306 -0.000304505 -1.48206e-23)
(1.03256 0.0191302 4.82219e-21)
(1.00991 -0.0203147 3.94312e-23)
(1.02279 0.00226638 1.03225e-20)
(1.00098 -0.000573795 6.60382e-23)
(1.00001 -2.19181e-06 5.76423e-26)
(1.00186 -0.0919684 2.38786e-21)
(1.07032 0.0864411 -2.4722e-20)
(1.00091 -0.00226069 -5.28331e-23)
(1.08777 0.0549042 2.09488e-21)
(0.992459 -0.00374417 -1.2932e-21)
(1.06263 -0.116622 -2.26143e-21)
(1.03113 -0.0280105 -5.51553e-24)
(0.988404 -0.0207857 3.04346e-21)
(0.99898 -0.000609452 -9.54651e-23)
(0.994856 -0.000469647 -3.34533e-22)
(0.981945 -0.0492705 -3.54632e-21)
(0.981033 -0.00547157 4.43997e-21)
(0.994116 -0.00238341 1.30115e-21)
(0.999909 -0.000271087 1.60677e-23)
(0.989724 0.061958 -5.02883e-21)
(1.07891 0.0472184 1.27855e-20)
(1.01637 -0.00694209 -1.23463e-21)
(0.999883 -8.82475e-05 1.72085e-23)
(1.01705 0.0599209 -1.65675e-20)
(1 -1.43446e-05 1.08794e-25)
(0.99989 -7.62323e-05 3.30241e-23)
(1.07237 0.0459126 1.06618e-20)
(1.00733 -0.0166133 9.94662e-23)
(1.07831 0.0784772 2.07055e-20)
(1.01517 -0.00272968 2.79049e-21)
(1.0113 -0.0084708 -2.46751e-22)
(1.06544 -0.0464501 6.79867e-22)
(1.03712 -0.0945316 5.80824e-21)
(1.14715 0.0336548 -3.28781e-21)
(1.00075 -0.000556796 -1.39625e-22)
(0.969628 -0.00951243 -4.49171e-22)
(0.999989 -3.45263e-05 -7.38106e-25)
(1.0033 -0.00760146 7.49426e-23)
(1.03918 0.0562752 1.15426e-20)
(0.989916 -0.00465539 3.01383e-21)
(0.998334 -0.000883798 2.02605e-22)
(1.00997 -0.027703 -1.10594e-21)
(0.998835 -0.00064869 1.13439e-23)
(0.999755 -0.000670148 5.21219e-23)
(0.962581 0.00371347 1.04351e-20)
(0.994112 -0.00319541 -1.0774e-21)
(0.999704 -0.000458131 -1.27736e-22)
(0.999991 -6.10238e-07 -3.55361e-25)
(1.01161 0.0037712 1.42615e-20)
(0.982033 -0.0170645 -7.34785e-22)
(0.999803 -0.000347538 3.76677e-23)
(0.998346 -0.00048228 2.48433e-22)
(1.01558 0.012912 5.82985e-21)
(1.04537 0.00689081 1.12926e-21)
(0.97476 -0.0148088 -4.14403e-21)
(1 -8.92834e-06 -7.01093e-26)
(1.00166 0.0111581 3.78789e-20)
(0.991318 -0.0112834 -2.41799e-21)
(1.0439 0.0452376 -2.27163e-20)
(1.00808 -0.0011128 -3.36586e-21)
(1.00926 -0.000826157 7.75685e-21)
(0.9798 -0.00698609 6.14044e-21)
(0.999944 -3.97795e-05 -2.61734e-24)
(1.01535 -0.000148305 -1.3175e-21)
(1.04811 0.00501006 -1.67504e-21)
(1.12848 0.0382964 9.16705e-21)
(1.02704 -0.0717505 1.26009e-21)
(1.02339 0.0574147 1.33045e-20)
(1.00387 -0.00100405 -5.08048e-23)
(1.0567 0.053178 -2.01326e-20)
(1.00011 -0.00967199 -2.97438e-22)
(1.01212 -0.0395948 -4.35004e-21)
(0.999771 -9.66231e-05 -3.29845e-23)
(1.002 -0.0127622 5.76052e-22)
(0.999935 -0.000268884 8.4871e-24)
(1.02931 0.0214242 -1.41164e-20)
(1.04836 0.0836805 -4.23018e-20)
(0.999108 -0.00073504 7.58022e-23)
(1.01163 -0.00828048 4.40959e-23)
(0.989126 -0.00259113 1.01579e-21)
(1.03021 -0.0625054 4.81862e-22)
(1.02606 -0.0662842 -3.13811e-21)
(0.99892 -0.000500988 1.45826e-22)
(1.03006 -0.0182144 -1.50847e-21)
(0.981961 0.00115384 -1.73301e-20)
(1.12501 0.0234358 6.74326e-21)
(0.999966 -9.91384e-05 1.19261e-23)
(1.04191 0.00504229 -4.11637e-21)
(0.998125 -0.00579208 -5.38543e-22)
(0.996071 0.00181614 3.85688e-20)
(0.9925 -0.00324436 1.7738e-21)
(0.997346 -0.0179135 -6.88502e-22)
(1.01162 -0.0244602 -6.29877e-23)
(0.996153 -0.0185497 -7.54073e-23)
(0.99892 -0.0144335 -1.62372e-21)
(0.99541 -0.00204975 2.89638e-22)
(0.999606 -0.00955102 9.25942e-22)
(1.00118 -0.0041784 -5.21293e-23)
(1.03791 -0.015638 1.09833e-21)
(1.00006 -2.18731e-05 -1.46112e-23)
(1.13847 -0.075706 -8.76221e-22)
(1.11174 -0.00699478 1.50283e-21)
(1.00827 0.0680805 2.99324e-20)
(0.976072 -0.0139828 6.21499e-21)
(1.07206 0.0744959 -1.04636e-20)
(1.00117 -0.000464581 2.36718e-22)
(1.04794 -0.0536292 -7.50254e-23)
(1.003 -0.0261817 -1.65847e-21)
(1.01357 0.0224723 1.65092e-20)
(0.995711 -0.00248872 7.66382e-22)
(1.00007 -0.000112784 8.89024e-24)
(0.991702 -0.0117366 3.15992e-21)
(0.997234 -0.00616471 -4.01319e-22)
(1.02798 -0.0173506 3.15674e-21)
(0.982119 -0.00397431 -3.67149e-21)
(0.985237 -0.00557101 1.07715e-21)
(1.08858 -0.0261537 9.81459e-22)
(0.990913 -0.00152639 -1.63779e-21)
(1.00988 -0.0256879 7.37263e-22)
(0.991919 -0.0563763 4.14344e-21)
(1.00001 -5.01352e-06 9.59832e-26)
(1.03809 -0.00998608 6.23279e-21)
(0.993467 -0.0505248 -1.1215e-20)
(1.07753 0.0643604 9.98645e-21)
(1.06561 -0.0518609 -1.54323e-21)
(1.02152 0.00184249 8.55794e-22)
(1.01725 -0.0725749 -8.35955e-21)
(1.02143 0.0764962 8.3689e-21)
(1.02345 -0.0245912 8.6055e-22)
(0.978924 -0.00631629 -3.62243e-21)
(1.00976 -0.0325911 -2.1787e-21)
(0.984896 0.00233858 1.68409e-20)
(1.10917 -0.0761044 6.00591e-22)
(0.992074 -0.00296756 -5.4635e-22)
(1.01781 -0.0913907 -6.38182e-22)
(1.01772 -0.0464738 2.78602e-21)
(1.02878 -0.084442 -1.16758e-21)
(1.02866 -0.0576845 -3.04842e-21)
(1.05219 0.0452603 1.82926e-20)
(0.998333 -0.00100967 1.27873e-23)
(1.00404 0.0257579 6.07541e-21)
(1.00493 -0.000933538 3.74796e-22)
(0.99976 -0.000343618 -5.20824e-23)
(0.999212 -0.00151562 4.38606e-22)
(1.0386 0.000983606 -1.53993e-21)
(0.982078 0.000354917 4.78654e-22)
(1.00095 -0.00436832 -4.29633e-24)
(1.01219 -0.036741 6.23984e-22)
(1.01532 0.0141777 -9.71851e-21)
(1.00002 -5.04821e-06 -2.72671e-25)
(0.986691 -0.00568407 2.54978e-21)
(1.01432 -0.00629513 2.83526e-21)
(1.05115 -0.028884 2.04311e-21)
(1.00493 -0.000709037 2.11057e-21)
(0.998999 -0.00122369 7.625e-23)
(0.989057 -0.0268564 9.34402e-23)
(0.998537 -0.00562822 -1.74828e-22)
(1.00002 -2.92921e-06 2.94496e-24)
(0.984731 -0.0315433 -9.13629e-21)
(1.03029 0.0540261 -4.69616e-21)
(1.01293 -0.0216036 3.17849e-22)
(0.989595 -0.00300334 -1.84966e-21)
(1.00109 -0.000212687 -8.49931e-23)
(1.01757 0.0163762 1.28259e-20)
(0.99977 -0.000393817 -2.44168e-23)
(0.999251 -0.00039982 -8.90345e-24)
(0.999791 -0.000110035 -3.12094e-23)
(0.999519 -0.00139174 -1.21408e-22)
(1.11794 0.0390864 7.15191e-21)
(1.01914 -0.025351 5.5693e-22)
(1.00522 -0.0125736 4.20254e-23)
(0.988778 -0.00461259 -8.89514e-22)
(1.00003 -3.29673e-05 2.83088e-24)
(1.05108 -0.0907541 7.33106e-21)
(1.14823 -0.0161126 2.03142e-22)
(1.05517 -0.0984064 -3.5168e-21)
(0.997871 -0.0229066 -1.29767e-21)
(1.00858 -0.00602809 2.43059e-21)
(0.999877 -5.95459e-05 1.33497e-23)
(0.992648 -0.0076209 -1.18607e-21)
(0.97166 -0.0316548 -5.29606e-21)
(1.1163 0.0253462 4.00859e-22)
(1.00077 0.032539 -4.05478e-22)
(0.999271 -0.00211199 1.01329e-22)
(0.96261 -0.0210035 2.87046e-21)
(0.997115 -0.00178271 -7.11541e-22)
(1.02204 -0.0228312 -8.0528e-23)
(1.06105 0.0432519 2.0805e-21)
(1.00028 -8.90779e-05 -6.02943e-23)
(0.99991 -0.000128044 -6.18083e-24)
(1.0985 0.0741669 2.30954e-21)
(1.11178 0.0108828 -1.11147e-21)
(1.01269 -0.0106284 8.95765e-22)
(0.998231 -0.00111536 3.5948e-22)
(0.998772 -0.000226572 -3.18725e-23)
(0.976409 -0.0324218 1.30338e-21)
(0.999897 -0.000226157 -2.18933e-23)
(1.01138 -0.0227495 -1.63572e-22)
(0.992282 -0.00061247 3.33764e-21)
(1.00051 0.0193067 -7.0288e-21)
(1.0327 0.0572597 -2.39531e-21)
(1.04445 -0.0494684 8.34494e-22)
(0.996243 -0.0509171 4.16387e-21)
(1.0038 -0.00108225 1.03931e-21)
(1.00932 -0.0168558 -4.92124e-22)
(1.10535 -0.00146111 5.49299e-21)
(0.995626 -0.0568441 -2.55207e-21)
(1.01185 -0.0312675 1.23547e-21)
(0.999999 -4.41089e-06 8.04576e-26)
(1.0951 -0.0126258 3.21767e-21)
(0.984962 -0.00117626 3.26624e-22)
(0.994813 -0.0634764 5.17142e-21)
(1.01255 -0.0199477 -7.47835e-22)
(0.971106 -0.00902005 -8.24665e-22)
(0.999769 -0.000201469 -1.64753e-23)
(0.99819 -0.000824932 -1.56776e-22)
(1.02522 0.0261396 1.62683e-20)
(0.980875 -0.00654436 -1.34712e-21)