/*--------------------------------*- C++ -*----------------------------------*\
  =========                 |
  \\      /  F ield         | OpenFOAM: The Open Source CFD Toolbox
   \\    /   O peration     | Website:  https://openfoam.org
    \\  /    A nd           | Version:  7
     \\/     M anipulation  |
\*---------------------------------------------------------------------------*/
FoamFile
{
    version     2.0;
    format      ascii;
    class       volScalarField;
    location    "13";
    object      p;
}
// * * * * * * * * * * * * * * * * * * * * * * * * * * * * * * * * * * * * * //

dimensions      [0 2 -2 0 0 0 0];

internalField   nonuniform List<scalar> 
117990
(
22.83
-0.0440016
9.05596
2.61741
8.24988
0.0179827
38.1011
17.4505
-0.251474
-0.0458912
-0.453758
0.386184
5.52802
74.5648
-0.24356
69.9382
-0.0648996
-0.47267
36.8269
8.34645
17.3156
-4.36913
-0.491723
3.84665
36.6681
32.8768
12.3102
21.5719
-0.0830366
34.271
-0.304386
33.6464
15.7044
5.10343
35.7782
-1.42309
37.7708
-0.0571151
-6.53369
38.9889
33.7244
-0.472881
14.4559
-1.46562
24.7181
74.7441
15.7485
11.1237
8.81128
0.348351
-0.000270886
-3.13454
34.3378
-0.0238835
8.70943
34.4236
32.7144
36.3641
23.8041
10.2814
-0.0895682
4.04265
-0.924067
10.787
-0.187403
3.50851
5.33021
30.7707
11.9371
31.8429
37.6065
30.5851
38.9418
59.4641
20.0952
25.8837
24.684
2.95022
38.1066
30.4145
30.4817
-0.182658
23.4274
21.0556
-2.72048
0.370495
12.8895
-0.0611106
33.9991
-0.0588089
-0.107075
4.15334
-0.0860767
-1.12691
-0.533232
0.828916
-0.587197
22.919
10.9196
33.9843
-0.0905739
23.8759
13.3675
7.1896
37.7266
17.7518
39.2346
17.045
17.4484
-0.0682564
30.4203
-0.582075
24.798
15.0457
29.5438
12.2481
-0.457287
37.1649
0.0254309
30.5017
37.0617
70.0061
9.26799
25.4328
-0.00816017
34.5286
4.15735
26.5956
-1.762
26.8744
22.1252
0.555366
35.2481
0.368096
0.0264043
36.4399
36.1687
15.7758
8.83472
4.00927
23.3117
12.0795
0.103493
34.5864
22.4109
-0.000376724
19.622
4.19769
30.8184
5.20682
17.6047
25.5504
4.05792
-0.00801768
-3.09123
15.675
-0.0657779
28.2623
31.3286
18.0493
24.9179
19.5047
-0.910757
17.383
13.4843
-0.87659
25.8417
18.0393
28.0881
13.3564
11.2969
15.6781
-3.42686
71.708
17.6684
29.7036
71.9795
1.91495
17.962
8.70018
19.9185
20.1961
36.192
34.7119
39.2343
-0.0253867
1.50904
36.9894
24.7885
0.108234
1.96857
11.7762
37.2608
16.8232
33.0262
17.1372
72.1
-1.27759
18.1364
19.899
35.4866
38.6885
20.999
-0.0697718
0.874244
27.6478
-0.377129
-0.18256
27.3555
18.7962
72.4265
39.2021
36.711
-0.0570509
18.2758
17.0517
29.1918
15.805
74.623
-0.189452
17.376
14.8579
10.1357
35.0337
-0.0252773
35.1069
17.3131
19.6746
16.9628
37.0289
22.7768
21.2526
25.4098
17.5358
21.8683
35.5693
0.991596
11.4626
17.8036
-3.18874
7.11212
21.4996
17.9979
10.1979
-1.81569
5.54998
32.6057
39.7933
18.0435
56.3509
37.1825
-0.394662
34.6364
4.90392
27.7627
20.0447
21.996
21.5016
0.634402
17.2859
20.0687
74.8244
34.7707
-6.89247
17.5039
2.7294
25.7646
-1.73101
27.9807
21.9662
-0.19632
24.8765
8.68226
21.5363
4.13702
13.4236
23.4449
17.7944
10.7453
16.4978
17.4428
-1.7889
2.58121
27.3224
0.502546
17.8342
35.2857
34.1265
22.6009
-5.63957
24.289
-0.0633534
21.4948
39.1673
0.0672091
21.669
-0.0212439
33.4919
6.81027
21.6037
73.57
17.2739
-2.90817
6.07234
15.5545
31.1056
21.253
19.5304
0.373746
17.9743
-0.599379
34.234
30.6969
17.8364
5.44858
13.1887
37.2614
5.54595
3.89783
19.3934
26.6119
-0.179046
20.8732
29.6904
31.6675
28.3705
15.8449
33.1997
73.7156
21.7288
-0.419823
-0.0636781
0.0659952
-0.0593341
34.1344
3.88283
28.7913
-0.188671
-0.0670163
1.40429
9.25614
32.2987
11.5187
10.1069
6.88866
7.41008
10.8004
25.0407
22.9517
10.7191
35.4094
36.8493
19.9494
1.92963
19.8083
18.4277
22.8634
-0.000977871
0.869287
24.4963
36.9028
14.5402
37.7856
32.4676
24.8409
-0.00087145
3.53035
14.688
10.1594
-0.00396445
14.2562
27.3758
38.9731
-0.740327
28.9477
11.1631
13.2209
0.341833
-0.0307764
24.9165
21.9217
17.5207
14.7528
24.454
17.8046
-0.292418
25.9979
59.7617
8.1975
18.9432
33.4975
38.3858
13.0367
21.6287
14.7144
0.776869
0.733684
3.18726
8.59264
11.6315
20.3031
1.15836
28.0025
38.8253
-3.0137
22.5292
0.0268615
10.0133
28.6989
-4.46781
16.1453
-0.673111
7.51109
2.97889
-2.78882
10.6112
8.57242
12.1465
0.070665
17.5142
-0.000895456
72.5981
0.565719
36.3242
31.063
37.0151
22.8519
37.6544
32.5638
3.74256
6.11093
0.0391562
-0.138649
18.9612
6.02088
9.98583
23.1642
0.552684
-0.312316
0.330347
2.823
27.0627
22.9124
11.7275
0.474697
14.1944
5.4428
-0.286496
38.3178
29.6459
39.1721
0.0782246
0.39716
6.369
18.0215
5.05321
17.0357
39.9888
35.7085
-4.01731
28.0903
5.43838
8.10358
38.957
34.3467
17.1746
7.89957
71.6278
-3.93408
0.0789393
17.5688
58.5741
17.793
60.0336
23.0706
31.6378
-0.00312565
7.95314
23.8103
27.5824
35.8818
-0.00220242
-0.186817
5.54851
17.8032
-0.287029
0.0894071
27.6274
36.0142
21.7858
39.0907
10.5627
37.0048
35.205
3.10472
14.3299
67.7464
14.97
11.3581
7.27321
-1.08133
38.0774
17.571
36.4029
21.276
36.8999
10.9744
9.27478
6.32064
35.7955
2.00656
4.78566
4.87884
-0.0864805
22.5676
19.5264
0.675612
28.1013
-0.0117707
-0.000405448
6.19988
21.455
2.12676
10.4888
16.4258
4.70632
0.0291902
37.5297
18.7304
18.2107
11.4957
19.9651
8.47432
0.0160088
-0.00214411
53.5406
67.8687
20.5341
0.0144787
5.2679
32.3451
11.0524
24.4629
-0.179375
18.7892
19.8403
0.215653
-0.0598975
39.7119
5.42455
7.98809
17.9759
1.02736
39.9302
16.7114
10.4334
9.97439
10.597
33.0154
0.761063
0.0237151
11.5789
34.3462
37.0128
38.309
22.7945
9.63595
38.7616
19.4048
0.640717
25.1227
9.45325
27.5836
7.18381
29.0362
3.51137
38.2487
1.46325
5.69914
10.8089
39.0934
0.615714
17.8194
17.0446
35.6601
17.869
4.89487
12.9667
0.12859
-3.07934
4.71477
21.8423
18.0154
7.29435
27.5753
38.8821
36.3146
37.6697
37.6103
21.7048
22.728
19.5359
39.0055
39.1733
7.96761
3.7167
36.9799
0.0387211
-6.80659
13.8291
12.456
5.49311
27.6227
-0.191347
6.21289
36.9727
35.7945
-0.331386
0.788724
27.3592
4.70462
-3.1103
34.5651
36.1142
-0.0510701
16.1204
17.3703
1.62469
21.6933
32.4983
36.0311
4.79975
-0.00278123
39.0293
21.6293
-0.335002
27.0542
15.6918
3.64326
-2.13019
-6.94849
5.86826
-0.226822
19.9462
0.803938
-0.267837
12.2407
24.779
-0.412649
16.3056
3.51904
17.8777
39.1331
0.0533962
31.1339
20.5486
36.9997
25.0597
-0.618931
-0.0853847
-0.487905
5.02388
35.156
10.8601
3.65604
36.5501
65.4441
65.9807
25.0574
27.5267
37.2865
-0.561446
17.8473
12.586
0.518448
21.696
3.49024
22.6266
16.3106
32.7267
41.6334
1.48439
13.189
18.3752
30.0977
32
20.2624
0.000246056
39.056
5.36248
74.0543
10.2692
24.1669
16.0676
11.5898
6.68758
-1.00374
38.2128
14.565
32.7758
57.6562
23.0262
-0.0627236
17.3952
16.5655
17.7333
26.9423
17.9819
0.834679
15.1721
-1.09134
-0.0553311
10.7737
0.716789
36.0089
0.529052
36.4292
13.639
22.6281
8.2826
33.9132
11.1157
36.9096
-0.00380404
20.3235
6.03126
8.02293
17.4051
0.0321458
18.0478
29.2205
14.539
0.640676
11.4608
35.1123
36.3176
6.77319
-0.476931
27.4711
0.404671
37.005
19.9012
27.0011
36.9071
0.388442
22.643
37.7749
-0.270868
29.1663
36.8131
-2.1513
13.3951
0.933658
15.8323
10.9218
-4.52382
36.0396
14.8065
27.4432
30.6649
-2.60705
0.289591
36.5929
3.26295
5.32282
0.744869
36.4328
57.1836
34.8174
5.40741
1.38366
5.50382
8.2643
16.3236
27.9156
26.3585
34.9901
-0.336444
9.28429
0.00971713
5.73967
-0.0039661
-2.74983
17.1171
38.2791
-0.0889357
36.4451
-0.5807
21.8281
-0.687705
59.2339
11.7482
32.872
-0.324012
18.8857
21.8501
10.3223
-0.0649819
1.28463
-0.430133
16.9145
7.42702
-1.02621
40.7033
0.267374
0.85547
17.4596
-0.608723
38.7522
31.8918
1.62637
22.1111
18.1037
-0.00958738
12.4751
16.7603
0.85945
20.415
5.41748
28.4566
4.70536
1.39361
21.494
-0.0541182
4.48783
-0.553878
39.0363
-1.04762
0.391536
-0.335833
24.4158
36.3316
3.38277
1.59027
35.8656
38.7486
8.03678
29.9499
11.6941
55.935
0.298969
-0.0137172
34.526
29.3856
0.280464
28.3479
-0.886175
-0.0341815
31.7528
16.8325
41.1505
61.2554
18.0132
-4.5106
5.19268
11.288
37.3658
0.0286448
16.9403
30.9852
0.139576
12.103
21.2633
36.2658
13.5337
13.2441
31.87
27.4474
18.834
14.4777
38.4529
29.0474
1.61657
16.8107
34.6677
-1.23505
-0.529758
16.2747
6.76382
10.1722
30.2868
-4.54408
-0.032824
-6.83359
9.33286
15.69
36.9212
14.5962
19.7596
1.25764
36.4704
14.5445
31.7344
14.5235
34.5972
32.8529
17.6238
34.6015
36.7638
-0.549762
31.4799
36.6116
16.3066
2.2158
17.5015
36.7728
21.8621
23.0777
38.5337
6.92625
3.60025
-1.98564
0.90692
24.2446
30.0493
0.839224
37.5525
33.1
27.5674
-1.78076
23.0307
59.8196
16.6328
38.8412
31.8975
1.136
30.0485
59.3299
3.09357
32.621
62.314
-1.22901
31.2211
0.704693
36.9806
6.2394
35.216
23.5189
-2.78958
38.1775
-1.04798
18.8174
13.404
-0.330424
14.0745
13.2767
10.615
16.9854
4.64047
2.05588
28.2114
13.6839
-0.534404
17.4563
74.1121
37.499
25.9637
40.4215
-3.02236
5.84606
38.2105
20.2298
-0.061158
2.00461
17.4727
1.51114
14.829
-1.70878
31.7846
-5.07156
26.6055
53.201
31.1017
26.7443
5.74419
8.35686
-3.34775
27.6926
17.0309
0.00022457
-1.24143
-0.523989
31.4054
4.8245
-0.00665677
14.7547
12.2866
17.2693
35.2285
32.7052
11.2209
18.0315
5.47727
34.3262
16.8598
33.1988
4.71929
18.6102
18.5105
8.4908
-0.32221
0.917234
-0.0446067
17.0519
-1.0388
12.2254
1.49166
30.3207
0.019742
1.94992
0.150618
35.1312
13.6011
38.1024
26.4021
34.0386
-1.80039
14.7319
38.1165
25.7009
14.5576
29.6383
-0.302885
6.73612
-6.4871
25.4733
0.0210186
21.7283
11.6675
17.4457
17.7468
36.819
9.29173
-6.68312
35.1752
10.1659
9.75584
5.62987
-0.00615512
-0.301111
-1.11916
28.1145
-0.620511
3.84338
11.9043
36.9642
35.0645
18.2368
0.382048
14.1057
27.7175
7.38838
0.360402
10.5039
26.0009
0.0594346
4.86336
27.3867
40.3747
11.1815
69.6108
32.4095
14.6646
0.537083
61.8094
25.6124
2.32234
0.0931979
-6.33236
-1.79164
10.6531
-0.0680307
-2.93077
29.6123
25.9731
16.018
16.5074
11.124
-0.0638866
35.1413
-0.540168
21.7067
36.0938
-0.162853
24.2244
6.4158
36.0419
29.7482
16.891
36.3014
32.1465
9.75577
23.9818
0.375622
2.0683
68.1925
-1.76138
-0.327156
22.5847
-0.841472
-0.141205
10.2244
-0.388253
17.3369
16.5639
3.12885
-0.398144
-2.62179
3.0801
-0.0938539
34.8641
26.2858
19.0948
-0.936664
61.7651
17.0861
27.1486
10.5731
11.0643
36.8332
31.0817
28.8737
17.6361
3.22722
0.0758737
29.33
38.036
26.1728
-0.0800722
-7.13481
0.371719
0.108869
35.1496
1.58831
27.119
-1.05306
39.0474
19.722
10.9336
20.4334
0.0074959
37.1632
-0.940835
4.89248
30.2533
36.9879
31.5395
1.60873
3.13035
31.4859
-0.0228868
33.8126
4.99715
39.01
29.6641
11.9532
6.28552
0.0691618
31.3626
14.6987
14.8038
15.5171
12.43
1.30866
21.6858
-2.67967
27.6386
35.0305
9.12381
37.1379
34.6347
-5.95574
-4.40604
27.2517
13.1292
28.2386
35.1508
28.6679
11.8974
0.0112942
8.08122
17.529
15.4612
18.9863
30.9994
38.9912
0.110337
35.4571
0.00883048
18.4551
3.67865
38.4852
71.3765
-0.160154
36.8509
-0.0268311
4.68639
-0.093803
-0.00240186
-0.0019723
38.5583
8.57225
17.7969
13.2923
2.96351
47.3935
35.9332
9.22695
3.22269
-0.660587
-0.0938854
1.85359
23.2117
26.6638
36.9711
-4.33182
35.1728
14.5144
18.2866
24.7751
1.80601
29.6698
0.0428039
3.88443
1.88834
12.0516
-2.74471
36.6914
3.52826
0.00178051
12.917
4.65198
38.839
-0.0437713
3.3507
3.27045
17.8542
21.8944
16.3402
76.9437
33.2338
36.6964
-1.79065
3.57907
17.7738
-1.0044
34.0064
15.852
-3.00455
24.2231
-5.36712
2.06165
12.7786
-0.347146
9.38689
46.6351
8.23396
28.2397
38.9897
36.7884
37.7543
-0.00712404
3.45471
0.0391615
31.2563
27.0763
35.3428
10.7991
16.1094
40.8805
16.5695
20.9272
10.9781
26.5198
16.5042
0.0241947
32.6579
-0.698342
34.2625
29.0199
27.0947
0.355655
3.52228
22.528
-0.00892532
34.1888
6.63719
18.7738
24.0303
27.8713
37.8372
18.4102
40.3747
36.292
20.6931
-1.04255
26.7434
28.2075
5.64253
27.7206
-0.984149
21.9671
24.3201
9.20618
30.268
0.407269
35.0999
36.1593
-0.0697383
4.0265
0.085892
33.4559
4.94931
18.5629
3.88732
22.0222
33.8465
5.88339
18.8512
4.92101
15.742
10.5993
-0.0564176
1.36397
21.3568
58.0611
14.6368
-0.0335932
20.9176
-1.02792
5.33109
24.3344
37.4333
9.70504
20.2135
35.3973
9.80317
8.03706
21.2293
8.14333
8.11076
20.3052
27.8543
17.6132
-4.31389
-1.62114
20.6141
0.367901
-0.495791
0.0836731
33.14
-1.17009
2.32075
21.5676
-0.0121102
6.14565
-0.267351
38.4927
0.0381979
4.63497
-0.190033
6.90263
37.462
10.4519
16.4694
-0.0745633
-0.0478043
19.822
5.94799
-0.328015
37.7262
17.3998
-1.63866
63.7961
4.83633
1.8733
14.6106
10.023
-1.03721
29.115
-0.397327
17.522
35.3447
-0.311879
20.5601
-0.584697
17.8125
40.5119
24.8904
-4.50012
0.347752
9.75137
8.44234
10.4349
21.7232
3.84008
-0.889787
-0.190544
-0.388248
17.0789
16.3538
34.0093
9.33864
4.14486
27.8966
34.5651
25.6078
-0.377427
17.7473
21.6935
26.8601
24.3701
14.0514
33.4811
33.5666
17.4046
23.5103
35.1124
17.4142
0.327995
66.1428
73.194
23.2985
11.5171
12.7267
3.98387
28.3066
16.3871
38.2371
17.6323
38.0672
58.5207
-0.786764
11.9035
5.76286
0.0326137
-0.0656756
37.5386
-0.125238
25.8442
12.7748
19.8982
39.4767
-0.533305
20.6758
27.0696
-0.289309
37.6504
16.5048
-0.931555
27.2482
33.3082
-0.0046624
27.6892
1.7762
25.9407
22.5794
56.4117
37.5357
-0.929513
-0.828225
35.3666
38.4165
38.426
4.64445
20.9864
38.3129
31.4956
17.0884
-0.00855927
34.4749
19.5624
10.8142
12.0635
35.1615
14.6103
3.95166
24.4996
-0.295724
19.6429
32.9664
38.6991
34.0715
34.0799
34.0973
26.1344
-0.394707
-0.692054
-0.953016
-1.03494
34.1482
35.5802
34.3363
21.9916
-4.45872
17.3099
14.2421
2.42893
5.32829
-0.681118
52.9932
10.0362
26.6104
-0.0232799
0.0250357
3.49151
0.0832515
3.67672
6.16193
23.3372
5.27751
4.96401
30.7829
58.7951
5.47867
-1.80853
4.25648
-1.02427
-0.309065
4.61301
12.2
0.979706
5.4743
25.7013
-0.0735917
26.8893
21.5584
10.8182
-0.447984
9.39774
26.7492
15.6811
31.0512
18.4704
0.971458
23.2925
14.6541
-1.16492
-0.0214052
0.377688
6.84811
37.2287
1.46307
3.7336
6.80238
12.4066
-0.538991
37.4627
-1.12233
33.3368
2.04766
-0.736658
0.351786
16.6239
67.3776
36.6102
34.484
34.6061
1.89398
18.9001
-0.124974
-0.00545038
-0.678619
5.57251
38.1405
21.3769
48.3996
16.3368
37.4911
28.1207
15.119
9.95349e-05
27.4427
36.6837
24.1341
-0.0873318
-0.828799
3.10878
38.3675
35.1571
21.4662
23.2983
33.634
4.46663
-0.0857727
-0.0576411
26.753
4.50087
32.13
-0.0237702
23.4404
9.27971
0.0990278
33.8769
19.5654
32.2753
-1.36179
1.78182
27.9104
22.4724
24.5475
11.9347
4.25452
28.3925
3.6058
21.9897
35.6737
34.3709
-1.08393
33.5285
-0.00189442
0.967977
35.6015
13.062
26.9
27.4238
4.85324
38.196
26.4791
-0.0571168
69.3527
5.13444
5.35254
-0.415114
-0.177036
52.4806
9.16296
4.00807
14.6037
7.49094
34.1177
37.169
0.278997
-1.85224
-0.611518
20.0569
-0.448647
0.101984
-0.0960044
33.9767
21.3132
5.21408
18.974
28.9683
63.5757
36.7472
34.136
38.5666
-0.055272
-5.8088
29.8273
12.5519
16.7468
-1.18993
36.5866
5.27221
17.1183
3.03046
27.5872
62.9776
26.6052
-0.0013885
30.735
-0.166873
0.0263371
25.0053
-1.45751
18.5039
32.9492
14.971
4.05787
-1.60717
36.076
38.7661
37.9079
39.0416
54.9031
-1.87455
-0.878608
22.9304
17.6537
9.23206
-0.216575
18.2965
7.59386
16.4909
6.70123
-0.0364624
12.6119
23.4034
37.1161
35.1569
-0.043637
30.5865
2.94702
74.9364
66.6753
13.4929
38.027
-0.597179
51.3576
25.7693
-0.519191
0.179043
29.7368
34.4031
16.0045
23.0626
29.105
11.0883
-0.0129516
-0.00804079
28.9866
21.7978
18.2719
-0.880199
31.6941
-0.208561
-0.00506112
-0.766342
7.97501
13.3507
-0.0627546
19.0584
31.1823
36.3342
1.71617
32.537
5.83753
36.4736
-2.68613
18.7253
0.0906436
27.2563
28.9511
27.9596
31.6725
37.6876
13.002
17.8367
38.5798
-1.23273
35.1782
-4.15851e-05
32.2525
23.2304
34.3509
0.342292
-0.0699553
25.4052
34.7809
34.2052
0.0276025
4.33416
31.9889
3.79952
-1.25554
27.7026
21.1664
18.0363
37.5248
-1.83096
25.9241
10.3043
28.0933
-0.352243
36.0491
33.5414
27.7617
-0.77679
33.5165
16.521
23.8579
33.4064
0.416929
19.0882
23.4945
20.8296
-1.69164
15.5352
12.4289
-0.0518078
15.287
-2.802
4.97843
16.4652
-1.60879
3.84538
25.7658
0.126018
29.3112
67.0726
34.3435
-0.3838
25.6953
-0.0920995
1.10869
12.2502
-0.148365
9.60619
6.17696
67.1553
37.7014
17.9584
17.8359
32.3311
39.2092
-0.0906747
16.1105
24.7576
24.9785
-0.0675294
33.0538
15.4872
24.792
0.402169
11.9449
-0.172921
34.1738
-1.8867
34.9353
0.355269
67.4464
-1.14475
-0.0263295
38.9745
-0.193433
36.7018
32.1854
26.4743
-0.470562
36.8883
37.4874
39.2556
37.8038
38.3847
35.2729
-0.067734
16.6413
36.739
0.717788
24.496
32.9629
-0.0399317
0.090724
38.2547
25.1711
28.4861
14.8737
33.0026
-0.415237
0.50742
16.422
16.4626
16.6248
39.0177
34.7806
17.8178
37.566
38.8242
24.7552
37.0582
5.72109
36.6691
9.63045
26.9143
5.63536
15.4215
13.5104
18.73
-0.0657441
18.2596
-0.0767866
36.6128
27.8617
-5.79782
3.3884
18.5899
22.4467
-0.185569
10.9419
18.128
11.2139
18.169
16.2343
-0.774477
10.5755
26.9702
0.298286
26.3887
-0.0755517
33.9263
3.86678
21.6197
0.292643
-2.13801
16.1411
11.9046
21.0125
3.49859
28.9573
18.3945
65.5797
-0.306411
25.2707
27.0245
15.0392
37.5771
1.20622
69.2735
15.8326
9.68205
20.4112
0.0849102
10.2713
11.7939
-3.1462
-0.299519
-0.902281
33.2725
-0.00134846
0.308468
0.123179
-0.0996048
-1.85524
36.9346
31.0981
-0.562454
22.1321
-0.099544
21.4969
12.025
-2.87409
26.0384
-1.58753
35.4171
12.3385
4.15285
11.8004
-1.69578
22.2284
-0.45243
39.2104
5.54422
24.8792
17.7792
-0.0723029
33.3154
-0.927861
16.4848
37.2
3.93394
17.9744
36.055
50.7937
17.7547
15.3763
26.7053
2.6355
24.7432
-0.156481
16.2304
3.17413
36.9617
21.6916
31.6991
26.1466
-4.53012
27.2656
22.7503
21.9709
36.1226
6.21451
19.8256
-4.23696
1.14488
-0.270576
20.2704
32.4627
-1.26057
15.3138
15.4353
3.6346
16.1036
-0.482592
0.838871
-1.61013
-0.193582
56.9517
4.35889
35.5039
-0.00441169
-0.719716
0.08926
28.2288
-0.195333
34.7263
31.0124
36.7462
0.71749
13.4954
9.51587
6.51013
2.49879
31.2648
17.7753
17.822
5.89872
-0.587157
33.9847
22.9741
18.8896
-1.03715
2.5844
30.5852
-0.32404
12.1832
26.946
36.1434
33.956
-3.02604
0.630798
13.367
-0.296067
0.133658
17.826
-0.00400009
14.4582
14.6931
-0.0414989
0.0303868
22.1128
20.5446
17.1996
26.8455
0.051806
31.5936
21.0712
18.1426
0.286514
37.7263
-0.556353
37.5963
-0.766718
20.322
-0.027534
12.3572
37.8653
11.073
20.8472
17.6337
0.210573
25.7114
5.22447
22.5053
17.0418
11.4017
31.541
25.7539
21.6996
30.2057
1.99727
0.0554663
-0.365859
17.3385
-0.0805166
5.17817
26.8126
36.8074
27.3086
-0.87977
30.8663
9.72912
3.27679
22.3328
24.9238
19.9853
0.0286105
29.7898
22.2438
23.257
69.9855
72.9915
16.4041
-0.0524813
5.2929
3.35416
37.5547
19.5766
21.7714
20.2896
26.6067
21.9973
36.2971
-0.168492
19.5695
9.61747
0.00320343
3.84365
28.3035
3.76329
69.6403
22.6785
26.8435
37.2548
0.931276
-0.00215213
0.0604726
17.566
26.5027
17.8068
-2.98129
6.27527
2.55092
34.3534
-0.156744
22.3694
-0.891409
9.85284
9.33006
2.69698
30.6765
18.374
11.597
22.7812
29.1778
16.8115
38.5829
35.332
37.1152
16.8943
11.4056
48.1634
22.0442
35.2149
17.8129
0.0872467
-4.37797
-0.00389976
70.4989
-0.584459
1.04974
-4.48162
26.4065
-0.289377
-0.0854651
24.9373
14.5762
0.000815862
-0.025317
4.4191
3.9789
0.0691635
26.1759
9.89259
17.9008
30.9494
15.5196
20.3028
22.3366
14.994
0.394087
-0.497504
39.0697
2.82981
17.5002
0.0812959
17.4599
17.5346
0.483239
22.9746
16.5091
11.9878
37.4257
-0.16632
14.7009
-0.813912
9.91632
-0.575439
-3.31109
37.9813
9.08554
-0.00980595
35.5865
3.29684
-0.631815
6.20107
4.09463
26.3558
16.7272
-0.340788
-1.54108
23.7241
17.1414
0.0607726
14.8253
16.6491
25.1726
18.7883
20.2211
36.9013
12.2376
29.8051
34.6317
-0.57522
10.5046
39.0726
0.000340317
30.5171
20.5357
-0.00341034
36.1775
37.5868
4.30041
27.8279
48.6989
26.1393
3.67689
14.8777
-0.00388849
3.08326
31.2103
16.2862
17.7974
-1.63418
48.952
2.95712
-0.346336
-0.318959
26.8628
36.4519
21.2985
-0.00271474
0.13387
7.40283
-1.46842
15.1746
36.206
67.4473
15.0107
14.5531
9.10612
31.924
0.0357655
27.486
12.5355
38.877
5.23156
29.5761
-1.65191
-0.8042
3.46119
-0.0282458
-0.060677
30.8371
1.22142
31.2889
-0.155763
27.1226
0.0296052
18.3953
14.5724
22.6266
70.2549
20.4473
-0.0717186
32.0387
16.9784
22.2888
33.0516
68.1893
17.8776
16.5287
-4.69956
33.5412
11.4594
31.7122
12.8198
17.9015
0.26614
35.9016
22.9656
-0.27779
-0.0537799
34.3392
-0.949243
29.6087
26.4532
10.8482
-0.140226
12.1385
36.574
33.1518
3.85002
36.0446
30.355
25.6719
0.590052
-1.65663
23.6275
37.575
16.4525
12.7367
-0.939806
0.0760261
14.362
23.1298
27.1862
31.2088
10.5296
5.65889
17.3871
16.6088
19.5987
26.8628
22.9441
23.0545
5.68454
-0.0700567
22.4201
17.1279
6.26007
-0.402958
34.6341
35.4695
40.0254
33.8242
17.3854
35.1213
-0.348878
36.9947
13.5854
11.6795
-0.0852562
24.9469
25.5795
-0.936905
4.42654
38.6392
38.5733
5.78342
37.2083
37.1326
29.0592
16.4944
18.1823
-2.73498
36.1568
14.3672
-0.481511
-0.0122328
-0.481416
17.2371
1.63879
11.8516
16.2208
6.16316
-0.974907
34.5106
20.7089
38.8005
26.8036
36.2542
18.5333
-0.0400387
30.4124
4.78823
1.38448
35.7573
34.0467
33.702
28.406
12.6123
25.329
16.6012
0.0144657
26.15
-0.547192
17.5231
13.3785
18.3812
-0.0243065
15.3724
31.7373
8.10407e-05
25.2018
30.1566
-0.493819
-0.410773
-1.03278
34.994
32.4552
-0.00699804
-1.12785
0.0727967
-0.372738
6.15245
-1.10773
2.29859
2.19407
0.868614
1.27309
-0.505949
-0.489832
22.7146
-0.0378671
-0.0328834
19.0216
19.0774
22.8495
38.9137
20.7119
2.71846
3.1269
-0.00145439
9.26651
15.1547
11.8347
15.7215
-0.467667
38.8912
28.5393
35.6907
17.0333
22.4343
16.5673
19.7203
0.0252733
18.3432
12.195
0.370356
18.8556
19.4208
-0.0834576
30.511
34.4501
0.14508
38.5592
24.8625
12.3378
12.8812
-0.0862253
32.195
15.54
-0.00711247
29.7713
-0.0830216
-0.954408
34.2634
67.8783
1.56813
9.49291
-0.0316079
19.6999
5.6863
36.2167
26.9135
0.0939398
0.340411
4.48427
21.2415
0.159192
12.6084
1.53863
60.5403
33.954
4.46063
-0.113264
-0.660385
18.5085
26.4641
37.004
19.8191
31.1359
6.06259
46.2963
64.3826
30.358
38.1204
-2.52451
0.868129
18.3686
-0.083649
36.8017
34.8943
31.7563
50.1458
31.7999
33.7519
32.4987
38.1479
35.8507
28.0856
7.47517
39.0567
55.5
-1.25754
13.5851
23.5045
1.92503
17.8754
-0.371908
15.497
18.3224
6.44913
19.8099
0.0807499
28.8954
11.0871
23.4058
-0.0736363
0.658655
-0.177103
-0.0178383
35.0204
34.0411
9.47177
-0.445429
20.1354
-0.0677161
0.115495
0.873556
-0.42468
5.48973
62.6956
11.0909
33.7861
-1.56347
32.3485
26.7938
15.1569
5.64207
1.70494
23.3743
49.9939
-1.02422
-0.0144699
9.22741
16.069
17.4078
26.2631
6.47174
29.7369
26.3759
3.56968
4.50472
30.7052
0.470645
-0.946569
-0.108032
-0.00651916
-0.169364
24.2775
33.3229
37.2257
31.9911
-0.226616
-0.0967272
-0.487572
18.1563
30.6946
24.959
57.5724
34.0906
-0.171592
3.06319
18.7361
12.3338
17.2897
15.9418
15.9295
19.8723
7.38942
26.4714
6.75423
0.810572
4.19952
28.1306
10.3733
11.0667
76.9071
8.02958
39.2592
37.1645
35.0452
39.2571
32.9787
21.442
1.5259
9.87583
31.8959
36.5663
0.647295
-0.0535231
12.1461
14.8154
-0.795298
19.8442
15.9631
21.9876
37.8804
-0.973761
28.4975
20.5746
17.9616
28.4201
20.8488
12.4126
22.4675
15.5385
21.7527
3.35392
26.2665
-0.435829
21.5045
38.8225
20.6669
6.24019
0.717308
36.3952
8.15899
17.9803
13.9207
-0.0658673
39.0282
31.1895
20.5214
5.64283
12.2466
14.7192
0.845627
67.8399
18.6556
15.8245
9.52055
7.33375
0.0739817
-0.248851
25.3582
-0.0572673
17.8606
22.3086
15.815
-0.349817
1.81588
0.282753
7.57447
26.3485
17.7177
27.6143
17.9151
20.0796
3.3479
2.45438
31.0282
3.39019
-3.21698
32.1137
2.53339
36.7111
36.8437
-2.14496
34.7908
3.9574
17.4525
-2.29254
-1.76121
20.8056
48.47
5.15343
22.2683
6.3091
35.5467
12.8047
11.3987
-0.482405
0.562369
38.8983
37.627
18.2188
39.0509
-1.29467
36.7762
15.2054
7.51203
28.6337
28.6891
-0.204313
-0.991865
38.2048
16.4679
-0.0636022
36.1824
34.0485
20.3622
26.9291
38.8401
36.5002
9.41752
17.9054
0.599633
9.67596
11.1054
5.38848
19.6698
0.278858
3.45828
14.9895
27.0706
35.5315
19.2373
38.064
49.3141
2.25894
11.3099
22.9749
2.62916
30.8034
4.41874
-1.30077
34.6878
19.8373
56.8702
-0.728476
29.378
18.1787
-0.057271
10.9785
-0.202854
9.37508
38.4154
34.7944
36.7481
11.6988
24.9964
-0.413888
-0.149678
1.01545
36.0028
-6.72399
10.9631
-0.199204
37.6157
29.1664
0.131822
10.1264
31.6473
-1.0167
16.2628
-0.870816
7.91525
22.7751
34.8948
35.0729
28.5783
-0.101393
18.9974
4.7987
16.2557
-0.210815
12.4558
0.061568
20.7337
0.389223
37.6291
17.7844
17.6428
38.599
-0.187741
38.6273
-1.63048
38.1621
0.0298019
36.6449
12.8537
24.1071
23.8451
30.869
36.1014
34.0132
35.7485
68.8462
28.6098
9.33737
18.2298
0.443082
47.6501
37.6382
-0.424395
26.144
21.4733
-0.3757
36.1326
27.375
27.6926
-1.16943
-2.37464
22.6805
19.5412
22.7321
26.5405
6.63305
27.407
24.8708
28.0867
27.6889
24.1871
8.96042
-0.461357
52.0582
26.6277
15.2437
-0.00167651
9.81284
36.9884
37.0101
14.552
18.4042
32.6388
-0.197946
27.7469
27.6354
35.9896
26.6411
18.1685
35.8472
2.66508
28.9918
38.1186
-0.952424
4.39911
26.6605
-0.471032
-0.220092
17.8397
0.000980201
-1.87162
-0.434781
38.4474
29.2933
21.925
-0.0199143
38.2697
9.0332
0.169373
37.8404
17.57
25.5377
16.2063
38.7858
0.448096
-0.00857429
-0.536895
38.0802
33.8972
16.8542
28.8578
29.3586
2.21065
25.6686
57.1456
35.3119
26.0399
19.2028
13.6393
17.5461
30.979
18.0136
-0.278751
25.3715
33.2488
35.0687
14.8262
26.9312
33.0916
29.5241
-0.151165
17.538
25.95
31.3448
0.076991
39.1411
27.241
38.5093
-1.27293
35.0214
33.3775
-1.55503
18.3298
17.4116
26.7197
0.767323
3.96693
14.9192
28.2191
54.5374
3.42718
28.0159
2.37973
3.31786
8.60201
57.0995
2.53444
13.4238
21.334
14.1262
8.15966
2.03486
0.580024
1.754
31.3447
12.6651
35.0393
0.0683631
19.0884
1.26367
14.7185
-0.189806
27.4743
0.0820508
0.192683
31.1045
22.0692
11.0581
28.1569
17.4814
37.568
-0.060287
11.1516
28.5806
8.48337
28.6205
1.58647
5.61823
4.68709
9.66543
28.3143
31.6382
21.3111
19.7402
19.8059
4.45571
7.90125
-0.0519226
-0.439637
14.3199
16.2617
13.0252
18.6554
0.192909
38.0468
9.19193
-2.79142
17.2552
-0.270551
35.4863
23.5367
61.1283
18.7689
18.8853
38.6454
24.8371
28.9563
2.07996
34.2613
17.7722
-0.725314
37.0086
1.94166
5.96982
-1.04313
27.3352
4.28743
36.6607
13.8771
13.118
6.72082
33.1175
38.8583
14.0347
5.52305
-0.338802
15.8668
35.4283
-2.57252
17.8259
21.7364
-0.0412287
37.946
-2.8256
-1.11244
24.212
31.942
-0.624464
14.4795
0.0957945
28.6484
28.1666
30.0827
4.9697
29.5825
20.3377
38.3094
0.0637799
52.5605
13.9672
7.57846
7.45022
26.5832
16.3871
6.13078
-0.00620064
33.094
-0.00561982
23.9664
5.29495
28.7852
30.9964
32.596
0.815392
31.4787
36.9513
2.90253
10.1373
9.51012
19.4646
-0.000775213
27.7892
37.8359
12.6959
0.0308202
23.1338
3.6563
20.3143
22.1678
29.0153
34.4969
18.8452
54.2983
30.2666
0.564693
7.22395
-1.68641
-0.499365
36.24
23.4212
0.655708
64.2378
-2.63857
14.6894
0.485201
16.9273
31.1658
0.0282742
0.133998
9.13204
-1.89749
-1.38658
14.6088
19.3896
3.00273
34.1009
-1.76533
5.43778
23.1498
17.1251
-0.794504
6.73271
10.4105
14.499
28.9648
5.37363
14.6726
38.7761
13.8927
75.6498
16.9967
-0.285392
1.77045
18.1746
37.5501
59.6129
8.23821
-1.60929
24.2895
30.3832
5.21775
0.425269
0.0601057
32.2569
0.388209
27.5169
0.940642
61.7523
0.862071
36.969
-0.344185
-0.909198
-0.155524
14.637
5.41112
14.4295
1.31017
35.9046
24.7181
34.5809
37.6553
31.1433
6.82174
35.5176
7.13868
15.1795
16.6691
6.97652
0.433343
-0.031283
36.2534
29.86
-0.402719
22.0492
30.9451
-0.0171676
16.7052
-0.782696
27.8969
35.7453
32.668
23.1032
19.4559
13.27
13.7055
9.64155
0.934272
13.4808
12.6622
0.872755
6.92783
20.9795
-2.41753
64.8189
15.3778
-1.0228
34.6634
23.5148
37.478
35.4149
10.454
21.2166
5.10658
0.0259963
36.1314
22.861
29.6128
12.6313
31.7889
49.6217
-0.0867349
12.2014
16.9662
23.284
-0.180551
35.3165
16.287
29.2405
-0.00465367
25.2833
-0.343844
14.5051
21.0848
29.2158
8.84257
0.705109
1.82484
33.3095
25.6509
-3.82459
-0.224968
17.1817
32.2383
26.5472
27.9846
28.6722
34.7395
17.0761
7.21378
21.396
12.1439
23.8318
38.6564
1.72943
69.5257
33.5076
0.625583
15.3702
41.2664
11.8755
7.6001
1.47352
20.9981
7.23435
18.1318
9.10145
17.9372
19.7803
26.6041
32.838
36.8101
-0.247836
38.9678
31.7244
29.767
10.4032
-1.02402
30.3164
35.237
39.1522
-0.00929158
21.2069
30.3157
31.5557
-2.51303
0.3738
18.776
13.4067
-0.283639
-1.64946
10.7433
3.67531
12.352
1.81256
-0.795597
24.7886
1.50303
30.6449
-0.474941
-0.717285
22.2533
13.7077
16.8458
23.1374
1.86198
4.9931
16.2204
30.7847
17.9688
27.4057
36.5547
17.4515
3.4341
3.87047
29.645
-0.584826
33.7374
21.3564
3.93653
18.4848
15.6427
22.3001
28.8452
36.8707
35.5539
-4.20764
26.5711
15.6654
5.71347
5.06326
0.0578656
14.6396
-2.55666
22.9659
0.186521
67.5831
20.4436
26.4259
35.3477
69.7893
0.0707134
36.8049
-1.0721
0.17255
20.5593
14.9839
-0.465276
35.6132
68.3495
28.7457
5.84005
11.6225
37.5602
10.6659
70.1783
-0.0308721
-0.275291
30.8954
36.4323
12.2333
22.6314
37.3708
3.36195
-0.417401
68.0948
17.0269
-0.706316
-0.577479
35.1174
-0.981811
32.8026
-0.295602
20.3849
-0.926185
28.4762
6.2098
9.62766
7.76886
31.3754
2.05115
17.2842
26.3785
-0.214011
13.2457
34.2467
24.046
26.8699
-0.0775681
31.6502
4.99976
24.3275
37.4565
35.8024
-2.39303
36.186
3.37966
-1.15716
-0.118018
12.7816
55.794
36.8783
-1.59118
8.1841
27.3813
15.6231
38.1434
32.1254
36.0445
-0.0812959
25.8491
15.4842
20.5061
2.8619
-1.03187
35.5298
1.81554
74.3592
37.0303
-0.0150522
32.3811
37.9726
17.1831
-4.47333
15.1424
23.6401
37.5027
17.1373
6.30196
37.8179
-0.342426
28.4502
38.7967
16.0326
8.30868
25.7156
24.6677
26.8327
29.1039
19.2184
28.7486
16.4709
-1.16093
30.1506
-0.103274
35.7379
5.45249
28.5411
23.2649
37.4955
0.380282
19.8059
16.3581
2.29085
54.5489
27.4183
0.156651
33.1941
21.9571
3.80691
4.32949
24.1231
1.15028
9.63163
19.4384
-0.29605
3.3777
19.7311
-4.02236
36.8008
0.000850524
25.1622
-0.223372
18.2584
38.3004
3.73022
37.549
-0.472321
-0.000431248
17.128
-0.508429
-0.331301
26.9868
36.9775
18.4116
4.99602
13.1782
16.0757
0.00800333
25.9632
-0.0216571
21.4662
19.6475
5.21335
-0.175314
-0.499962
-0.151239
36.8935
22.0561
18.521
34.434
-0.00705216
-0.896641
-0.0137838
30.7262
21.7993
7.93987
18.3802
-1.656
0.0645001
3.72769
4.39953
-0.0573263
30.5007
26.8587
33.5945
-3.62105
-0.590429
19.1858
37.496
45.3149
0.0843033
33.5483
31.1198
30.3927
1.94907
-2.83077
13.153
36.9922
22.8762
14.5791
17.1186
7.48444
31.5932
30.5916
20.5188
14.3708
27.8508
26.9075
15.9065
6.65671
16.059
31.2394
5.58591
0.594673
35.5851
43.6424
-0.338812
32.844
54.0312
38.7484
34.551
12.9003
32.3292
3.23222
1.97761
17.7647
25.9606
0.0153613
37.2201
35.3785
-0.764218
20.8685
7.90127
8.09665
-0.870103
29.736
70.9651
36.9801
-0.344635
36.9742