/*--------------------------------*- C++ -*----------------------------------*\
  =========                 |
  \\      /  F ield         | OpenFOAM: The Open Source CFD Toolbox
   \\    /   O peration     | Website:  https://openfoam.org
    \\  /    A nd           | Version:  7
     \\/     M anipulation  |
\*---------------------------------------------------------------------------*/
FoamFile
{
    version     2.0;
    format      ascii;
    class       volScalarField;
    location    "12";
    object      p;
}
// * * * * * * * * * * * * * * * * * * * * * * * * * * * * * * * * * * * * * //

dimensions      [0 2 -2 0 0 0 0];

internalField   nonuniform List<scalar> 
19930
(
-0.00170469
-0.0173902
0.0215599
-3.31091e-05
-0.00295215
-0.00356204
-0.096911
0.687429
-0.044413
0.662375
-0.0818869
0.322245
-0.0377939
-0.00170857
-0.00369274
-4.00004e-05
0.031367
0.422965
-0.0715111
-0.0161719
-0.038153
0.335544
0.657278
-0.0932277
0.0187671
1.29769
0.00480346
-0.0320752
-0.101338
-0.0717569
-0.00125526
1.58212
0.543608
-0.0192198
-0.000645995
-0.00135268
0.751283
2.24445e-05
0.00557915
0.357953
0.0386143
0.680719
1.02154
0.00409146
1.3007
-0.0443482
0.622917
0.168001
-5.20042e-05
-0.0414372
-0.000741864
0.099573
-0.0237675
-0.00122333
-0.0414114
-0.0472573
-0.0303613
-0.0016363
-0.0140503
0.0382369
1.41486
-0.0339483
-0.00894915
0.601236
-0.00010768
-0.00607966
1.27309
-0.00660563
0.0558638
1.27999
0.0194262
-0.00492727
-0.0033664
-0.0296527
1.28904
0.013213
1.26351
-0.052389
0.354688
1.17941
-0.00522853
-0.000337084
-0.102863
-0.0404983
-0.0334369
1.03203
-0.0319836
1.75446
0.60675
1.37863
0.564376
-5.32075e-05
-0.000121329
1.68345
0.146269
-0.00818371
1.70256
-0.00188165
-0.0682912
0.797068
1.3956
-0.0226004
1.4336
0.0112248
0.18653
0.0357912
1.14297
0.045774
-0.0223854
1.04691
-0.109941
-0.0984254
-0.0269867
0.0236914
0.0234618
-1.62464e-05
0.972913
-0.00478307
-0.0129233
1.15935
-5.5409e-05
-0.0362558
0.388811
-0.0194168
-0.0191158
0.425517
0.433157
-0.031082
1.60634
0.999729
-0.0401936
-0.0402138
0.0387378
0.00580249
1.16355
0.167885
0.223719
-0.0389924
-0.0179029
-0.0593615
-0.0421302
-0.0323168
-0.027109
1.45369
0.171358
1.17724
0.52936
-0.0278433
0.407577
0.00548623
-0.0273473
1.26278
-9.83108e-05
-0.0357043
-0.00028134
0.534464
1.05581
-0.0987115
-0.050908
-0.0400566
-0.0572529
-0.0862341
-0.00149995
0.187112
0.290265
1.73742
-0.0211645
-0.0971723
0.00972359
0.743761
0.213154
1.32338
0.953263
-0.0197612
1.81359
0.521352
-0.0018587
1.38031
0.0314478
1.09407
1.2018
3.02121e-05
1.45733
0.965576
-0.0153167
-0.0549793
0.0212861
0.758959
0.00570832
1.6092
0.442224
0.0673829
0.819292
0.0696605
-0.0512847
0.314226
1.4477
0.127425
-0.0154985
1.6315
0.228865
-0.0155851
-0.00736801
1.57245
1.49373
-0.0380627
-0.0171475
0.10232
-0.0466496
-0.000680996
1.25939
1.36918
-0.029667
-0.0501284
1.07968
1.28759
-0.00327937
1.15865
0.0576517
0.00765313
-0.0246203
1.07282
1.50858
0.574492
1.04324
-0.019551
-0.0147319
-1.25618e-05
-0.00245343
-0.00230718
0.383349
-0.0078142
1.12791
-0.0573239
1.06874
-0.0297547
0.0393168
1.31118
1.72075
1.05837
1.25039
-0.050268
0.719053
-0.016908
0.204291
-0.00447151
-0.0599301
0.11031
0.104372
-3.34705e-05
-0.0218253
1.52736
0.37365
0.00394584
-0.0484712
-0.00524027
-0.100736
0.709914
-0.0557022
-0.0418518
-0.0355717
-0.0166014
-0.000178095
-0.0293111
-0.0814133
1.451
0.105144
-0.0248257
1.08311
1.48396
-0.0316421
-7.96351e-05
-0.0382413
1.27311
-0.08608
1.40503
-3.06686e-05
-0.0509661
1.01307
1.24813
-0.0133367
-0.0279579
1.5905
0.0151847
0.0642077
1.41923
1.59631
-0.0345156
1.022
0.260418
1.16585
0.89991
-7.28346e-05
0.0916679
0.77095
-0.00198884
-0.0682707
0.160452
-0.121337
0.221816
0.151805
-5.71227e-05
-0.00136015
1.37265
-0.00385046
-0.080067
-0.0427216
0.351255
-0.0311726
1.08177
0.233962
-0.0386266
-0.0549093
0.708707
0.345313
-6.13014e-05
1.38081
1.00515
1.36485
-0.0252584
-0.000119847
1.57758
-0.00344844
-0.0275208
0.323847
0.140663
-0.0377954
-0.000776153
1.06426
1.68152
1.21073
0.307185
1.83533
-2.03522e-05
-0.018141
1.24978
-0.0704525
0.768697
-0.0274154
1.28626
0.223789
-0.0010777
0.218804
0.967367
-0.0745143
1.44969
0.917436
-0.000231583
0.0279098
0.578239
0.450256
-0.00230262
0.949449
-0.0105718
1.80073
-0.0431755
-0.0292757
-0.0209898
1.19755
0.9557
-0.0350482
0.713352
1.37683
-0.00401107
0.924582
1.02879
1.81741
-0.00279831
0.414357
0.10133
-0.0511671
-5.15336e-05
1.30527
0.675154
0.109147
1.31587
0.330982
-0.0310055
0.705331
0.297187
0.38614
1.80198
-0.0309503
0.291235
1.36132
-0.0498327
0.219212
-0.0667986
0.56551
-0.0276965
0.592225
0.113936
0.283382
-0.000977144
0.633457
1.34962
0.938952
-0.105457
-0.0149155
1.55233
1.56598
-0.00404017
-0.048514
1.14964
-0.0756763
0.0280595
0.721001
-0.0223165
1.883
-0.00491504
0.447637
-0.00963078
1.36089
0.903159
0.111346
0.0236211
0.0725866
0.23511
-0.00188747
1.15482
-0.00684678
0.634927
1.77909
-0.0296323
0.0194574
-0.00270324
0.174459
0.109714
-0.0274362
0.796922
-0.000527594
-0.0378819
0.00697702
0.0308961
-0.0271762
-6.67569e-05
-0.0384216
0.295921
-0.088908
0.00364391
-0.0402442
0.175716
0.167321
-0.0429935
-0.050865
-0.00126066
0.0551041
-0.0801847
0.00656146
-0.00670627
0.357911
0.925306
0.196967
-0.000211555
1.63099
0.00676216
-0.000580286
0.0353011
-0.0452744
-0.0383359
1.47966
-0.0046604
0.270488
-0.0662618
-0.0724206
0.706686
-0.0264794
-0.044909
-0.0640279
-6.66038e-05
0.0230378
1.66864
-0.0947695
-0.0534472
0.802042
-0.0384489
0.897439
0.399717
-0.0038832
-0.000611536
1.02289
1.75409
-0.104151
0.497846
0.27138
-0.0443483
-0.0454999
1.14409
0.162133
-0.096771
-0.0592419
-0.033822
0.0672282
1.55309
0.343399
-3.9532e-05
1.43997
1.99966e-07
-0.0408638
0.987231
0.0072128
-0.00996981
-0.000297543
0.0740444
-0.0347368
-1.32592e-05
0.482091
-0.0805803
1.16539
-0.000154347
-0.00138106
-0.0400802
-1.18107e-05
-0.109173
-0.0908424
-0.00172762
-0.031497
-0.0548473
0.98257
1.33231
-0.00321844
0.000846916
-0.0573237
1.35682
-0.00945729
1.37518
-0.0172268
1.78826
0.956947
0.516689
1.70877
0.00867959
-0.00736746
0.102262
-0.00587977
1.31984
1.14064
-0.0265005
-0.0495086
0.193576
0.00746832
-0.00593849
-0.0656439
-2.08625e-05
1.00393
-0.0539655
-0.0380252
-0.0149517
-0.0230115
0.46278
0.21366
-0.002893
6.03871e-05
-3.94803e-05
1.78627
1.5337
-0.00302582
-0.0259563
0.0188207
1.13326
-0.0557359
0.265931
-0.0503945
1.23233
0.506641
-0.0365262
1.86602
0.0576245
1.18683
-0.0101009
-0.0856261
1.44224
-0.00537134
1.7767
1.08579
1.81467
-0.00702044
-0.0102456
-0.0326231
0.125712
0.00653776
-0.0255419
1.20072
1.24733
0.944126
1.341
1.75443
0.558588
1.35154
0.944485
-0.00216255
1.04244
-0.0444073
-0.04909
-0.000951492
0.00285409
-0.0623755
0.743388
0.127179
1.17848
-0.0166077
0.237579
1.1247
-0.00483932
0.0203323
-5.16522e-05
-7.81783e-05
0.744829
-0.0412499
-0.042849
-8.97578e-05
-0.000907594
0.177547
-0.000153708
0.14489
1.79446
0.523382
0.615812
-0.0302953
1.10021
0.190439
-0.0080109
-0.0257469
-0.00255416
-0.000292423
-0.000734372
-0.0147764
-0.0791685
0.706073
0.101153
-0.0471236
-1.68174e-05
1.23448
0.0545904
-0.0210068
-0.00390144
0.237136
-0.00412442
-0.0449185
1.12698
1.62438
0.868465
-0.029317
0.897575
-0.0316814
-0.0327245
0.593801
-4.62568e-05
-0.0201502
0.424374
0.564583
-0.0355589
1.11131
1.48984
1.09181
-0.0470772
-0.0517481
0.0137035
0.306731
1.03023
-0.00290316
1.43409
-0.0281657
-0.0849482
0.119894
1.6575
0.697788
1.1579
-0.0907274
1.73703
-0.0332169
-0.031052
1.83377
0.0954102
-0.0645566
1.17076
1.23615
-0.0358541
1.01535
1.35491
1.22747
1.04702
1.19626
0.925435
-0.0116432
-0.0328615
-0.000677984
-0.0764657
1.34688
-0.0718645
0.355709
0.412244
-0.0450922
0.159002
0.400246
1.37759
0.167777
-0.00139748
0.0750088
-0.0363378
0.0135475
-0.00430066
-0.0801446
1.03463
1.40891
0.1564
1.36538
1.7665
-0.00196264
0.00100527
-0.00414535
-0.0246521
0.792216
1.79018
0.353415
1.0903
-0.0237642
0.846894
0.864162
-0.061438
-0.040611
-0.0562218
0.343602
-0.00858472
0.115128
-0.0422658
-0.0559779
1.1402
-0.00593196
-0.00636568
1.23157
0.152871
1.59108
-0.0392127
0.93345
-0.00300939
-0.0387119
1.42571
1.61085
1.34453
-0.0187805
1.62315
-0.0438204
1.40513
0.0859381
1.33179
-0.0367085
-6.85942e-05
1.33866
1.42028
1.3999
1.34131
0.756557
0.233206
0.84659
-0.0647776
1.34155
1.1058
0.0732909
0.132844
-0.0114188
0.00927232
1.10093
-0.0513611
-0.0344656
1.37978
1.3586
-0.0374818
1.3104
-0.0893366
0.241395
-0.0114264
1.38852
1.41923
1.76625
1.37313
-0.00226543
-0.0247711
-0.00102782
-0.0439254
1.5819
0.559532
1.05745
-0.0542624
0.948206
0.0224528
1.58769
-0.000635664
1.3726
-0.0106712
1.53754
1.62925
-0.0263842
0.297138
1.52658
-0.00227912
1.67068
0.000514046
-0.00277787
-0.041421
1.19791
0.446946
-0.0572991
1.30285
1.6669
0.867692
0.0613143
-0.0355577
0.088932
1.35242
1.62497
1.8353
0.552248
-0.00310904
-0.0316996
1.08892
-0.00147726
-0.0128193
-0.00169297
-0.0172881
-0.0600673
-0.0639398
1.45659
-0.00454367
-0.000777416
1.07005
0.48756
-0.00320408
0.311371
0.000156862
0.456399
1.1018
1.32479
-0.0639737
0.347372
-0.00955042
0.0157202
-0.00328835
1.36663
1.47009
-0.0852276
-0.0866023
-0.083819
-0.0246546
1.32012
-0.0133707
-0.0441164
-0.0829687
0.0334086
1.71513
-0.0857898
0.131297
1.38496
-0.00633406
0.249063
-0.00417622
-0.0709019
-0.00278244
-0.00127279
1.70366
0.905022
-0.0875741
0.0539918
0.92343
1.28921
1.09556
0.00112778
-0.0373216
-0.0260028
-0.0336621
1.02963
-0.0307261
-0.0330505
-3.48138e-05
-0.0312782
-0.00117807
-0.0656589
1.21248
-0.0648717
1.35965
1.32126
-0.0478204
-0.023388
1.75287
0.948816
0.133007
-0.025873
0.849159
-0.0331545
0.795569
1.70544
0.671498
-0.0287611
-0.0286016
1.19977
-0.0457945
-0.0650205
-0.0355559
1.5015
-0.0347621
0.058737
0.827103
0.558941
1.07583
-0.00891424
0.643452
-0.0222677
1.37854
-0.0862248
0.368762
-0.0285505
-0.0342404
-0.000838994
-0.00128828
2.23133e-05
1.501
-0.0429672
0.878196
0.226262
-0.00419954
-0.0552685
0.57521
1.77184
1.55163
-0.0247849
0.522469
0.00397742
0.176674
-0.0322678
0.413826
-0.050489
-0.00154234
1.02986
-0.0442186
0.009208
1.48661
1.13017
1.39389
0.0646919
0.0125926
-0.0176235
0.568881
0.0469417
-4.91823e-05
1.5252
0.257852
0.485614
0.0721588
-1.50801e-05
-0.012912
0.000174828
0.449607
-0.000465987
-0.0251479
-0.000419469
-0.0349811
1.57705
-2.81612e-07
-0.0411281
-0.0501493
1.64616
0.0164853
-1.94957e-05
-0.0635272
0.402248
1.01515
-0.0236241
-0.0206743
-0.016336
1.06421
-0.0267815
0.54665
-0.0577976
-0.0647415
0.2995
0.925827
0.260397
0.498282
-0.00293104
1.11257
1.64827
-0.017979
0.781223
-0.0510941
1.6903
1.61298
-0.0565957
0.180552
0.131315
0.871692
-0.000346714
1.33775
1.81211
-0.00635014
0.340371
0.569014
-0.000810788
-3.88469e-05
-0.0223618
1.77208
-0.0129513
-0.0410859
1.33936
-0.00173362
0.846372
1.38953
-0.0319638
1.53356
-0.0386987
-0.0239786
1.40206
0.564601
1.0729
-0.00309277
1.39114
0.427013
1.32567
-0.0669782
-0.0106333
0.351854
1.52667
1.40541
1.55603
1.35926
0.00846095
-0.0418927
0.104766
0.940949
1.33043
1.64565
-0.0413267
0.734119
1.68659
1.22312
-0.000713872
-0.0502212
-0.0235414
0.349251
0.0101043
1.47904
0.625583
1.32535
0.311106
0.0300413
1.33464
0.0487272
0.992552
-0.0486457
0.170918
-0.013094
-0.0465054
-0.059366
1.63477
-0.0561964
-0.03385
0.0332051
0.497232
0.203024
-0.0329659
0.163484
0.0217474
-0.0594473
1.01371
0.545604
1.13793
-0.0680537
1.39826
-0.0539207
-0.000590135
-0.0132945
0.00280245
-0.0697625
-0.072825
0.00054276
0.598607
1.56445
0.390174
0.194046
-0.0174261
-0.0616014
0.761057
-0.00620884
1.69147
0.626091
0.00694468
-0.0302027
0.0851007
-0.032303
-0.02292
-0.0146114
0.0455523
-0.0747112
0.58652
1.60199
1.44611
0.493438
-0.00412374
-0.0385535
-0.00160326
-0.0144793
1.05577
-0.0108374
0.986556
-0.0519299
-0.0213987
1.57695
1.61763
-0.000623429
1.35059
1.43228
0.326457
0.00214346
0.467367
1.05108
1.61346
0.821111
-0.0424837
1.57066
0.261531
-0.031233
-0.0387246
-0.0512953
1.65752
0.00153049
1.37943
0.660142
1.54454
0.0105662
0.904786
0.853282
-0.0610657
1.41024
0.0717052
1.51011
-3.84565e-05
0.732365
1.00221
0.924297
-0.00172897
0.0863927
-0.0037793
-0.0426382
0.741779
-0.02663
0.861214
0.736009
1.77855
0.0263286
1.52029
0.0177696
0.0149476
0.150232
1.34536
0.253192
0.0490313
0.190021
1.08361
-0.00343455
1.74025
-0.000283804
0.0195383
0.196543
-0.0285994
1.36868
-0.0353211
1.45519
1.11268
0.37201
0.140352
0.380936
-0.000918778
0.119006
1.48216
-0.0431384
0.0348957
0.675457
0.196636
0.0715982
0.142786
-0.0184328
1.57709
-0.0350778
0.147166
0.0165679
-0.0514657
1.31873
1.79365
-0.0389886
-0.0658326
0.00500477
0.260607
-0.000430497
0.318721
1.62416
1.54331
0.0146884
0.45256
-0.000296917
-0.0477279
1.12867
0.0016616
0.585483
-0.0307445
1.73901
1.05537
-0.073926
0.00069756
-0.0290317
1.74133
-0.039378
-0.00196059
-0.0214807
0.353456
-0.0583052
-0.026948
0.277623
1.58295
-0.0854056
1.67899
1.84043
-0.0284955
0.029742
-0.000373784
-0.00354456
-0.00122525
-0.038106
1.72291
-0.0265445
-0.00515267
1.00255
-0.0587885
1.10472
-0.00887204
0.054497
1.02587
1.02563
-0.0759123
-0.0230916
-0.062879
1.25404
-0.0382992
0.664962
-0.0447006
-0.0160251
-0.0456018
-0.00835242
-0.00624192
-0.0836844
-0.0760854
-0.0182196
0.0117821
0.307159
-0.00288427
-0.041222
-0.0598962
-0.0277672
-0.0154842
1.57813
0.134011
-0.0315323
-0.00623301
1.21785
-0.00194379
1.04394
0.0130374
0.134992
-0.00998484
1.08929
0.685207
-0.0513571
-0.0232446
-0.0289581
0.821906
-0.000429939
1.01764
1.2074
-0.000898768
0.00675871
0.346392
0.353624
-0.0520323
0.324622
1.1187
-0.0278688
0.965972
-0.0512257
0.0480927
0.917625
1.61783
0.101346
-0.00117692
1.31427
0.825121
-0.0321684
-0.0465601
-0.0984335
0.0509767
-0.0297289
-0.00943114
1.20859
-0.0877401
-0.0093954
1.18849
-0.0301072
-0.0378275
0.53328
-0.00497804
0.426641
1.00222
0.0702719
0.914691
-0.0190912
1.54885
-0.0465419
-0.000474325
1.21038e-05
0.0984083
-0.00051834
-0.0219646
0.42418
-0.00593801
-0.00239961
-0.0327221
-0.0247126
0.532682
1.37031
-0.000578562
-0.0231669
0.0108963
0.882843
-0.0666339
-0.0266017
-0.0315425
0.225504
0.563529
-0.0149029
-0.0144015
0.00433157
1.08899
1.15332
0.299178
1.03132
1.41635
-0.00884785
0.919637
0.357157
0.102236
-0.0290179
0.0590956
1.82026
-0.000396695
-0.0473638
-0.0470765
1.05026
-0.0174519
-0.00194549
-0.0443505
-0.050579
-0.00504358
1.37454
0.634096
0.87475
1.21409
1.04145
-0.0210059
0.428298
0.816015
0.122683
1.33556
0.496526
0.632951
-1.29727e-05
0.795702
-0.041269
0.460946
0.706704
-0.0807278
0.27344
0.23351
-0.0298818
-0.0109911
0.122456
0.424816
1.60791
0.429525
-0.000126403
0.719789
-0.024233
0.68216
0.536199
-0.0181562
-0.0331554
0.829649
1.33652
0.291853
-0.056507
-0.033209
0.55867
0.962969
-0.0445447
1.18321
-0.0337651
0.425036
0.0650955
1.48472
-0.00131001
0.000548342
-0.00734733
-0.0344812
-0.0122691
-0.0238499
0.900327
1.16199
0.00791876
0.617432
0.00900392
-0.0189107
3.30076e-06
0.555279
-0.0105419
0.560331
-1.77339e-05
0.987513
-0.0476248
1.15935
-0.0352123
1.27051
-0.048884
-0.0164774
-0.000486973
1.35408
-0.044878
0.190657
0.371369
0.0126209
1.14203
-0.0163381
0.00108988
-0.0358559
-0.00600162
1.38323
-0.00785206
-0.0347199
-0.0264386
-7.53379e-05
-0.0215427
1.17863
5.92568e-05
-0.0523805
-0.00151619
-0.00317692
1.07232
-0.0481198
0.180287
-0.0282674
-0.000451129
-0.0118008
0.029995
-0.0366554
0.000402082
-0.01726
0.632093
-0.000323932
-0.0314423
0.0297458
0.387856
1.3003
-0.0219134
0.0048372
-0.0509368
-0.0291589
0.970746
1.15658
1.39499
-2.07868e-05
0.481963
-0.0429992
-0.0398891
0.606848
-0.0316966
-0.0180087
-0.0218129
-0.0118409
-0.0301825
-0.0282006
-0.0210761
-0.000399093
0.0338743
0.981982
0.014835
0.72314
0.227087
0.151673
0.583951
0.388026
0.845804
0.0738665
0.822128
-0.000716644
-0.017932
0.760847
-0.0563411
1.05381
0.998775
-0.0301722
-0.0498546
-0.000261875
-0.0375992
0.0841416
-0.0265615
-0.0272109
-0.0305536
-0.0238561
-0.0447818
-0.0363542
-0.0206899
-0.0109624
-0.0575956
0.846795
-0.0415756
-0.00362716
-0.0503986
-0.0014735
-0.0481665
1.16039
1.12817
0.516635
1.47416
8.25503e-05
0.0129804
-0.0384336
-0.000442473
-0.00674034
-0.000256408
-2.49047e-06
0.493261
0.266999
-0.000280799
-0.0508185
0.314704
0.561725
-0.0486084
-0.0263701
0.000821286
-0.00657554
0.000670293
-0.00225964
-0.0470876
-0.0339568
1.54657
8.22307e-06
-0.0318113
-0.0317121
-0.0394069
-0.0197427
-0.0291768
-0.000371321
-0.0211097
-0.0289664
-0.0434914
-0.0434174
0.20843
-0.0246795
0.606035
-0.0378809
-0.00416857
0.0208352
1.04762
1.09398
0.805848
0.0441691
-0.0517005
-0.0164941
-0.046436
-0.0417293
-0.0509692
-0.048482
-0.0517428
-0.0105297
-0.00958497
-7.0672e-05
0.203994
-0.00862076
-0.000564359
-0.00585893
1.61871
-0.035523
-0.0807883
1.51253
1.56526
-0.0296614
1.53075
1.43387
1.00038
-0.00313256
-0.0699416
1.57019
-0.000951995
-0.00104808
-0.00469453
-0.0342946
-0.0131477
0.0060544
-0.032821
-0.0399725
-0.0384133
-0.0163086
-3.06527e-05
-0.0473294
-0.0145323
1.75044
-0.0317894
-0.0229559
1.74535
-0.00808426
1.65369
1.53729
0.974394
-0.0256754
1.74835
0.227141
1.24669
0.0284658
-0.000676142
-0.00715254
-0.00584158
0.146145
1.35838
-0.00350805
-0.000335784
-0.0356416
-0.000368216
-0.0961961
0.551994
-0.000274173
1.03705
-0.0475799
-0.00842934
-0.0450483
-0.0266818
0.314341
-0.00893697
1.55751
0.000698276
1.42823
0.0101618
-0.0395163
2.73064e-06
-0.0512115
-0.0116434
-0.0477656
1.23509
1.3358
-4.58307e-05
1.56534
-0.0424472
-0.00129529
-0.0237109
1.4433
-0.103429
-0.000953236
-0.0010034
-0.000359947
-0.000543937
-0.000160743
-0.00212255
1.58882
-0.000438524
-0.00424144
-0.00687095
1.6905
1.84459
-0.00817736
-0.0483086
1.06019
1.73212
-0.0485326
-0.0361096
-8.96893e-05
0.0556357
1.39043
1.04491
-0.000384319
-0.0280189
-0.0457586
1.47207
-0.0802672
-0.0222858
-0.0208943
-0.018773
-0.0179549
1.12492
-0.000147846
1.50795
-0.00471695
1.6547
-0.00264016
1.53975
-0.0254522
0.199141
-0.0229356
-6.26023e-06
0.000188331
-0.0135131
-0.0268427
-0.0130774
-0.000343468
-0.000150209
-0.00430511
-0.0434902
-0.000395547
-0.0233765
-0.0224288
-0.000474991
0.273349
-0.000875751
1.03826
-0.0370614
-0.0111256
0.000473238
-0.091161
1.7171
-0.0200796
-0.0155504
-0.0162805
-0.0508362
-0.0286923
0.953673
1.11515
0.007717
-0.023183
-0.0106063
0.327951
1.50255
-0.0490437
0.959809
1.17683
-5.60685e-05
-0.0525793
-0.0299298
0.00062253
-0.000809417
-0.00122261
0.000416667
-0.0109938
-0.0124097
0.0123747
-0.0259551
0.0344982
0.46104
-0.0473109
1.02203
0.240823
-0.0837589
-2.37598e-05
0.000118982
1.35503
-0.0028388
-0.048446
-0.000979175
-0.0461524
-0.0227511
0.787389
0.175462
1.59561
-0.000300721
-0.000725281
-0.0409697
0.511024
0.00363023
1.50877
0.245431
-0.0327691
-0.0185283
-0.0562862
0.0242997
0.927317
0.109024
1.3878
-0.0523636
-0.000529036
-0.00389849
-0.0195756
-8.79288e-05
-0.00115491
-0.00533105
-0.0219996
0.0100152
-0.0469711
-0.000161029
-0.0486395
-0.0632888
-3.63328e-05
-0.000135859
0.00346674
-1.56101e-06
-0.000695104
-0.00853873
0.0726868
0.000214715
0.162065
-0.0194351
1.06582
-0.0411826
-0.0530512
-3.90381e-05
-0.0512724
-0.0502452
-0.0104964
-0.0117806
4.18285e-06
-0.0102553
-0.000210883
-0.0506607
0.103221
0.31017
-0.099095
-0.000331153
0.1507
-0.0677957
1.13051
0.794042
0.968428
-0.00237681
-0.00771764
-0.000704421
-0.00959125
1.41255
0.980999
-0.00458162
-0.00559421
0.687109
0.998042
1.60656
-0.000378068
-0.00560104
-0.0168772
-9.25221e-05
-0.000412254
-0.00014846
-0.00212501
-0.00497129
1.06129
-0.0165888
-0.000822441
0.0109146
-0.000132151
0.0800632
0.00577295
0.531786
2.83303e-06
0.396865
-0.0488555
-0.0475296
0.375999
0.285492
-0.000270394
0.425354
1.49668
-0.0493304
1.10159
-0.0478664
-0.00847467
1.21097
-0.00338967
0.895786
-0.00396539
0.0132513
-0.0448363
-0.0104951
-0.0237539
-0.000176439
-0.000660247
0.0633242
3.04429e-05
-0.020191
-0.041874
1.52665
0.00640855
0.00283807
1.03598
-8.11411e-06
-0.000217014
0.0089089
-0.00237817
1.48104
-0.00273832
-0.000209716
-0.0252699
0.277633
-0.0314133
0.000463614
-4.63986e-05
0.185697
0.0094186
-0.000213116
1.31948
1.68024
-0.000674065
0.0790294
-0.00187346
1.12796
-0.000941284
-0.00443595
-0.000210389
8.71673e-06
-0.0430297
0.00307515
0.000298367
-0.0977131
-0.00197774
-0.031781
-1.06508e-05
-0.000814758
0.0129898
1.2282
1.30024
0.00705333
0.802392
0.177784
-1.65006e-05
1.01243
-0.0113858
0.000922548
0.00311005
0.0303829
-0.000914095
0.0498054
-0.00182999
-0.0271669
0.377291
-0.0273584
-0.021444
0.288027
0.771115
0.335464
-4.2534e-05
-5.41483e-06
-0.0229427
0.499321
-0.00891173
-0.0761075
-0.000407279
0.999474
-0.058961
1.22794
0.668069
-0.0198863
0.435736
-0.00114877
1.05045
0.106253
-0.0466938
-0.000366838
0.000355074
-0.0176409
-0.0209068
-0.01521
-0.0257863
0.353512
-0.0105621
0.602513
-0.000599151
0.00420876
-0.000903643
0.200147
0.0417934
0.000956569
-8.68147e-05
0.03528
0.527056
-0.0311779
0.0296926
0.0255029
0.204424
0.0215843
-0.00113653
-2.47789e-05
1.16739
1.27248
1.3534
-0.000296678
1.28572
1.14409
1.29018
-0.0034969
-0.000314589
-0.000205021
0.595014
0.870102
-0.0765155
-0.0527512
-0.0369209
-0.0203779
0.206062
-0.0179886
-0.00890548
0.93697
0.000611392
-0.0162266
1.24001e-08
-0.0209828
1.30038
-0.0402001
-0.000729753
1.31051e-05
1.44169
1.09427
0.0808933
0.46823
-0.0167346
0.06438
-0.0203169
0.0476863
0.0333297
0.0248316
0.438546
-0.0251664
0.268398
-0.000384142
1.25201
-0.0188071
-0.0105331
0.986716
0.0330886
-0.0190894
-0.0406708
0.0246852
0.383827
0.00603136
-1.29494e-05
0.971878
-9.62884e-06
-0.0215397
0.177254
-0.000740014
-0.00629259
0.000574797
-0.0455721
-0.0326575
0.154012
-0.000544098
0.132048
-0.0249307
0.113984
0.0974671
-0.0162074
-0.0272047
0.0836593
-0.0398403
-0.0192017
-0.0157878
0.744201
-0.0222303
-0.00854869
-0.000206581
-0.0364224
-0.058332
-0.000338588
0.665561
1.19359
-0.0393669
-0.0286957
-0.0186361
-0.00994817
-0.000316939
-0.00750197
-0.00349121
0.125445
-0.00060098
0.024094
-0.0439776
-0.0347415
0.000262929
-0.000481189
0.684829
-0.0045068
0.235608
0.821017
-0.0134019
-0.0549709
-0.0334138
-8.10374e-05
0.210828
-0.0449883
-0.038566
0.184392
0.392557
-4.34338e-05
0.1608
0.508119
-0.000550655
0.344018
-0.0196566
0.00432847
0.960372
-0.00704638
-6.70119e-05
-0.000354092
0.784519
-0.061488
-0.0314135
-0.0393443
-0.0199556
-0.00918101
-0.0167562
-0.0367686
0.303571
1.37989
1.5742
1.05727
-0.000419362
0.684875
0.273058
-0.0238119
-0.0404352
0.692916
-0.0467692
-0.0878661
-0.000760268
-0.0346197
0.892014
-0.000145396
-0.0641956
-0.0152169
0.020854
4.89395e-05
1.05748
-0.0506092
1.0095
-0.029569
-0.0280802
0.00475364
-0.000765185
0.918553
-0.0228863
-0.00944817
-5.08959e-05
-0.0434188
0.0797682
0.360577
-0.0166377
-0.000918981
0.463551
-4.20369e-05
0.642557
0.329607
-0.000199624
0.680639
-0.0527875
-0.00038192
-0.0194098
-0.000145459
-8.38678e-05
-0.00529097
0.739129
-0.0349163
-7.95031e-05
-0.0544616
-0.0186751
0.875213
1.28499
-0.000198601
-0.0210508
-0.00621878
-0.0138144
0.853692
0.0338073
-0.000186548
0.593518
0.292773
1.06851
-0.0153964
0.000145722
0.650215
-0.00409288
-0.0439782
0.0395614
1.40722
-0.0405022
-0.0224183
-0.000165572
-0.00936971
1.39498
-0.0444113
1.63711
0.438108
-0.0158833
-0.000297492
-0.0316315
-0.0158558
-7.09816e-05
-0.0208628
1.3676
-1.57473e-05
-0.0240184
1.39307
-6.78335e-05
-0.0211006
-7.51915e-05
-0.00158285
-8.52481e-05
0.10715
-0.00195866
-0.0014829
-0.0709683
-0.00125125
-0.000127346
-6.23884e-05
-0.00019037
-0.0308606
-6.84088e-05
-0.000518867
-0.000531591
-0.0233896
1.62586
0.133894
-0.009678
-0.0047371
-2.42216e-05
-0.0233601
-4.61425e-05
0.329169
0.967106
-0.00224898
-0.022006
-0.011388
0.223468
-0.00062313
1.72417
0.000861127
-0.000915963
0.671465
0.0146019
-0.000106295
-0.0411773
1.0245
-0.000215909
0.922886
1.04982
-0.0266884
-0.0419408
1.2524
-0.022135
-0.00137235
-0.0467199
0.609092
0.33138
-0.0432763
-0.000475877
1.32546
-0.00039714
0.0301673
-0.0051386
-0.00203503
1.53481
-0.000710397
-7.87076e-05
-0.0309546
0.525182
1.64616
1.01255
1.76198
-0.00661476
1.51351
-0.000619852
0.77134
-0.00279207
-0.000749125
0.445509
-0.0251012
0.300727
-0.000269008
-0.057685
1.66233
-0.0270404
0.0258507
0.000202415
-0.000700165
0.370369
0.00117703
-0.0422084
-0.000101755
-0.0262881
-0.000101607
1.69129
-0.0227664
-0.0341173
0.227074
-0.0443733
0.428414
0.872011
-7.81091e-05
-0.0261069
0.552941
1.10244
1.73033
-2.41009e-05
-0.0403982
-0.0428506
-0.00111971
0.620786
0.69203
-0.0438299
1.41031
0.339108
0.467852
-0.0192097
0.967584
-0.0433003
-0.000435008
-6.80353e-05
-0.000141863
-8.42937e-05
4.60329e-05
-0.029833
-5.64275e-05
0.000228083
0.00973956
-9.9696e-05
0.610411
-0.028213
-3.27682e-05
1.66546
-7.29269e-05
-0.00032896
1.27897
1.72883
-0.0505994
-0.0154518
1.24028
-0.0114813
1.49643
0.19488
-0.000481569
-0.06396
-0.0249266
0.000799938
9.02525e-05
0.921887
-4.37236e-05
-7.27339e-05
1.42111
-0.000177184
0.000439565
-0.0447578
-0.0291721
-0.0391939
-0.000238647
0.203763
-0.0423463
-9.31788e-05
-0.0380035
-0.0014641
0.725691
-0.00010988
-0.000150967
-0.00134044
1.37575
-0.0114464
-0.00553831
-0.00182749
0.000792803
1.31961
0.0154976
0.334979
1.23876
-0.000565061
1.55081
1.16672
-0.00988967
-0.0635425
-7.92125e-05
-0.0259938
1.49705
0.00121867
-0.000220571
-6.96064e-05
-0.0440044
-0.00544904
-0.000335901
-0.000189561
1.53683
-9.18365e-05
1.07067
-0.0212325
-0.06978
-6.66592e-05
-0.0297986
-0.00110971
1.284
1.31355
0.320767
-0.00180921
-0.0575271
-0.0553722
0.419834
0.29986
0.593474
-0.0837132
-0.0491131
-0.0523445
-0.000604596
-0.00149547
-0.00042476
-0.00300321
-0.0021237
-0.00253497
-0.00317474
-0.0051105
-0.0419657
-0.00555456
-0.00390773
-0.046034
-0.000686054
-0.00357392
-0.000197466
1.8638
0.274196
-0.00498625
0.00185311
-0.0042302
-0.00015708
-0.000837343
-0.0053175
-0.0045196
-0.0522932
-5.89404e-05
-0.0523065
-0.00128066
-0.000598616
-0.000225533
-0.0423849
-0.0430583
-0.00626552
1.37215
-0.0136032
1.03565
-0.0498133
1.4513
-0.0583792
-0.0597538
-0.0608251
-0.0610846
-0.0608944
-0.0617939
-0.0612392
-0.000562096
-0.0611733
-0.0597775
1.29976
-0.0593034
0.0134906
-0.0549259
-0.000994282
-0.0493071
-0.0224667
-7.83086e-05
-0.00644519
-0.000217979
-0.00274202
0.0981336
-0.000749472
0.411167
1.1185
-0.0134089
0.000844729
-0.0431247
0.0025286
-0.00843758
-0.0137169
-0.0350267
-0.000176411
1.69444
-0.0192117
-0.0269582
-0.00768777
-0.000981617
-0.00736684
-0.00399993
-0.0578515
-0.00976684
-0.00228098
-0.0142158
0.136465
-0.000153502
-0.000454607
-0.00867338
0.044594
-0.00274766
-0.00473702
-0.00334396
-9.2533e-05
-0.00013598
-0.00133373
-6.61454e-05
-0.0018849
-0.00558364
-0.00441136
1.27315
-0.00093855
-0.00340416
-0.00110896
-0.000547124
-0.000189002
-0.000129645
0.648727
-0.00991794
1.11796
-0.00762243
-0.00117517
-0.000117013
0.996429
-0.0410919
-9.07081e-05
-0.000362152
-0.000252024
-0.015259
-0.006548
0.0638552
-0.000112591
-0.0264509
-0.000739311
-0.0024184
-0.00145543
-0.00880396
0.00118562
-0.0458844
1.24267
-0.0576856
-0.0158329
-0.000671606
-0.000188339
-0.0455215
-0.000176022
0.0126001
-0.00582102
-0.00630437
-0.000115321
-0.0127235
-0.0133701
-0.0898333
-0.000578168
-0.00010496
-0.0295735
-0.000443117
-0.0101514
-0.00871841
-0.00774525
-0.000138634
1.51163
-0.000338208
1.77519
-0.0154615
-0.0100172
0.00934977
-0.000136744
-0.000244757
0.0741695
-9.10409e-05
-0.0272773
-0.000754205
0.00122337
-0.0116965
-3.4275e-05
-0.000380847
7.45672e-05
1.51352
-0.000625307
-0.0321358
0.00698412
1.22464
-0.0477797
-0.0524333
-0.000220776
-0.0215815
-0.0146831
-0.08976
-0.0120554
-7.95217e-05
0.0104535
1.62925
-0.050338
-0.00163809
-0.0126337
-0.00029782
1.05944
1.21885
-0.000200442
-0.00157849
0.74149
-0.000511164
-0.0113063
-0.000227268
-0.000933679
-0.0338771
-0.0423289
-0.0812255
0.0606944
-0.00159555
-0.000312538
-0.000412714
-0.0332926
-0.0107437
0.695595
-0.0201891
-0.000254169
1.13802
-0.00337226
-0.00181899
-0.0575968
-0.0110439
-0.00192679
-0.000465497
0.00406432
-0.0029816
-0.022556
-0.000280929
-0.00136584
0.700415
-0.0118523
0.727907
1.42975
0.00317899
-0.00153511
-0.0772162
-0.0128299
1.64744
0.0129554
-0.00236813
-0.000103644
0.981599
1.53708
0.518663
0.121918
-0.0465861
-0.000345233
-0.0412711
-0.00108615
9.81641e-05
-0.0168806
0.978301
-0.0351697
-0.000662334
0.00053977
-0.0022626
0.227563
0.988525
-0.0176012
-0.0377557
-0.00264961
-0.00200482
-0.00192794
1.48343
0.00221528
-0.000701196
-0.000433109
-0.00392528
-0.0272836
0.239015
-0.0104534
-0.00474533
-0.020672
-9.94752e-05
0.0137055
0.827306
-0.0518769
-0.00142216
0.0148512
1.02053
-0.00319991
0.298574
1.25151
0.000120887
-0.000140051
0.286337
0.771864
0.410394
0.619971
-0.052938
-0.00149104
-0.000124987
0.956209
-0.0272906
0.000270298
-0.0450764
-0.0185022
-0.0397504
-0.0448539
-0.00380732
-0.000133288
0.893305
0.00089887
-0.0428233
1.30788
-0.030122
1.22176
3.40433e-05
-0.0405429
1.15178
1.65527
0.00993561
-0.00942239
-0.0163689
-0.000869465
-0.00514516
1.1345
0.0103333
-0.0409404
-0.00440797
-0.00108701
-0.00263895
0.00135401
-0.000537222
0.769854
-0.000413844
0.00877295
-0.00356484
-0.00554953
-0.000880796
0.483351
0.93907
-0.0568267
-0.0586452
-0.0601184
-0.000688072
0.00351476
-0.000306762
-0.0590398
-0.0600039
0.607372
1.07086
-0.0601708
0.536889
-0.0181985
-0.0267531
-0.0167806
-0.0595335
0.553642
0.415481
-0.0595521
-0.00753157
1.12254
0.691462
-0.00553459
-0.000205563
-0.00121234
1.49633
-0.00120372
-0.000169845
-0.00418008
-0.00213563
-0.0013492
0.00125589
-0.0025315
0.0110165
0.350175
-0.0408227
-0.000190045
-0.0380865
-0.040687
-0.0195348
-0.0399365
-0.0569075
-0.00175343
-0.00229639
-0.00485403
-0.0156989
1.06829
-0.00314476
-0.00571888
0.0512128
-0.000121454
1.43276
1.00113
-0.040321
-0.00371988
-0.00161678
-0.00441405
-0.000422152
1.07371
0.10643
-0.00164192
0.0435249
-4.20809e-05
0.0369254
-0.00167164
0.0316258
0.0267473
1.33773
-0.018051
-0.000221003
-0.00683977
0.00195614
0.593847
0.808854
-0.0451237
0.938072
1.52661
-0.0120882
-0.0243436
0.898883
-0.00521431
0.103015
1.44275
0.845527
-0.0149558
0.89779
-0.00680627
-0.00795758
-0.00165412
-0.00179185
-0.0578349
7.75252e-06
0.0820117
0.0643836
0.0510975
0.0370838
-0.0250972
0.198614
-0.00011446
-0.00777375
0.487689
-0.014346
-0.000101784
-0.00317682
-0.00610715
-0.0339834
-0.000327168
-0.0139298
0.0380876
1.76996
0.17381
1.09692
0.241609
1.88551
0.151013
0.130383
1.37029
1.43385
-0.0135989
0.457201
-0.000283856
0.103978
0.112832
-0.00711934
0.0972306
0.00615777
-0.0493223