/*--------------------------------*- C++ -*----------------------------------*\
  =========                 |
  \\      /  F ield         | OpenFOAM: The Open Source CFD Toolbox
   \\    /   O peration     | Website:  https://openfoam.org
    \\  /    A nd           | Version:  7
     \\/     M anipulation  |
\*---------------------------------------------------------------------------*/
FoamFile
{
    version     2.0;
    format      ascii;
    class       surfaceScalarField;
    location    "39";
    object      phi;
}
// * * * * * * * * * * * * * * * * * * * * * * * * * * * * * * * * * * * * * //

dimensions      [0 3 -1 0 0 0 0];

internalField   nonuniform List<scalar> 
172499
(
201.282
59.1224
-260.405
-473.772
101.999
371.773
-111.509
-76.5075
188.016
112.509
-278.037
165.529
-436.203
323.549
112.654
138.38
-337.075
198.695
-142.158
287.311
-145.153
-80.8468
197.161
-116.314
-363.388
351.88
11.5085
-465.116
-8.65597
-229.955
354.454
-124.499
495.022
-360.236
-134.786
-169.201
341.022
-171.821
87.2264
-87.9358
0.709412
-44.0544
-319.334
-104.048
58.7696
45.2787
-456.1
86.5278
369.572
-411.544
77.0359
334.508
-112.611
286.165
-173.555
-331.883
-104.319
-72.5165
185.207
-112.691
198.817
-196.764
-2.05298
392.77
-290.199
-102.571
159.313
-312.783
153.47
-226.972
200.655
26.3173
-117.539
229.651
-112.112
69.4312
73.375
-142.806
-207.908
463.737
-255.829
-263.242
-175.901
439.143
-47.291
100.705
-53.4135
427.803
-342.008
-85.7955
-249.704
-66.9123
316.616
-266.902
406.471
-139.569
-101.076
-75.5021
176.579
-69.0407
-100.712
169.753
182.212
95.2738
-277.486
-226.446
99.4566
126.99
-99.7172
-356.383
115.695
-148.025
32.3303
126.739
196.698
-323.437
157.446
-407.15
-57.6186
-353.925
-131.494
-34.4971
165.991
-118.845
301.057
-36.1866
100.924
-64.7375
-2.09766
89.3241
263.603
66.6611
-330.264
544.313
-303.97
-240.343
397.983
-148.804
-249.179
414.148
-534.101
119.953
-390.722
478.203
-87.4801
279.581
-101.636
-177.945
-473.943
332.411
141.533
-504.397
451.001
53.3961
-119.558
-165.689
285.246
-319.347
-154.596
557.032
-367.054
-189.978
-131.423
82.4424
48.9809
87.2244
78.3676
-165.592
126.872
-229.194
102.322
-515.334
327.482
187.852
-186.328
330.497
-144.169
345.918
-129.371
-216.546
-103.804
184.858
-81.0541
295.873
87.1853
-383.058
9.44198
-401.351
391.909
-351.555
197.484
154.071
-220.371
401.541
-181.171
80.8135
-147.009
66.1957
-538.332
255.974
282.358
-104.85
203.244
-98.3937
205.748
-156.622
-49.1256
373.724
-246.985
-133.112
67.2709
65.8413
-99.1281
-90.3156
189.444
79.5403
-163.216
83.6762
-211.092
50.4932
160.599
202.679
-402.947
200.268
-249.495
-139.558
389.053
-299.119
221.907
77.2118
-79.9583
-219.16
429.777
-432.776
2.99897
35.7342
-84.7442
49.01
-307.166
559.426
-252.26
-137.106
240.611
-103.505
342.478
152.544
-107.702
176.979
-69.2762
-324.468
472.876
-148.408
105.134
-116.844
11.7101
-86.7023
441.525
-354.822
136.56
-5.17882
-131.381
202.232
-20.6475
-181.584
206.544
-469.786
221.125
50.2673
-271.392
-420.515
315.127
105.388
-575.018
416.915
158.104
261.936
-321.771
59.8343
93.5932
-57.859
88.7896
-166.403
77.6134
0.80608
104.328
-314.496
-200.838
201.197
-436.458
235.261
328.118
-177.319
-150.799
-485.712
499.637
-13.9249
111.744
-216.594
171.501
-97.3683
-74.1325
-502.117
319.918
182.2
-42.1971
103.327
-61.1303
-140.612
225.109
-84.497
-311.347
-71.122
382.469
-124.4
237.467
-113.067
-54.6564
316.593
-179.196
-31.8957
132.977
107.966
-240.943
-103.378
46.3329
57.0455
203.571
-345.298
141.727
-307.554
77.599
-99.8832
224.857
-124.974
364
-541.572
177.572
52.2419
153.506
-217.522
117.639
-64.165
-39.8833
-222.268
115.35
106.918
47.9766
-174.988
127.012
-230.663
532.608
-301.946
-112.893
65.6023
-264.489
78.1611
-113.115
77.6857
35.4295
-180.979
-41.6845
222.663
-509.216
511.993
-2.77636
-110.882
238.605
-127.722
567.208
-287.785
-279.423
-172.645
190.804
-18.1589
538.983
-196.504
-329.44
480.851
-151.41
-111.374
226.903
-115.529
-258.744
172.859
85.8845
63.7185
-330.621
147.716
-267.273
182.744
147.753
83.0194
57.4895
-140.509
-192.105
341.178
-149.074
502.992
-504.55
1.55815
383.211
-196.908
-186.303
-270.07
159.188
141.96
-532.683
438.85
-333.247
-105.603
-115.056
-149.432
-455.105
234.734
-226.559
-167.803
394.362
106.45
65.0512
56.2748
-92.4614
8.09356
194.138
-567.957
273.279
294.678
133.02
146.561
-361.521
428.065
-66.5435
-412.189
100.842
-68.4656
224.344
-155.878
131.948
-132.137
0.189608
-153.946
115.81
38.1365
149.368
-69.8276
137.179
301.671
158.322
187.596
-190.878
146.763
44.1142
263.312
-142.529
-120.783
139.942
173.316
-313.258
447.643
-261.603
-186.04
-62.5548
-104.123
166.678
-193.362
124.896
-240.702
122.603
118.099
-241.247
155.243
86.0039
-103.02
366.623
-98.5927
-28.3309
126.924
26.7371
58.6463
-85.3834
-74.6944
-80.9063
155.601
220.791
-438.966
218.175
-69.2954
96.0325
193.436
85.9559
-279.392
113.065
-333.455
220.391
276.885
121.098
-290.346
-131.034
421.379
-194.772
95.6442
156.215
-263.639
107.423
-211.136
418.308
-207.172
-275.838
-226.279
-162.619
384.863
-222.244
95.5472
-261.66
166.113
311.111
188.889
-139.292
327.955
-188.663
128.561
7.9988
-106.207
299.644
-338.873
188.447
150.427
453.285
-163.722
-289.563
-201.492
116.518
84.9738
-236.468
118.93
67.6593
-132.087
64.4281
21.5218
-90.8172
-172.379
163.263
9.11615
54.8163
-145.643
90.8264
85.3482
136.776
-222.124
-570.048
391.76
178.288
-182.912
360.89
-177.978
365.222
56.1262
-421.348
481.283
-479.307
-1.97519
-338.129
169.032
169.097
134.562
-89.2617
-45.3005
369.932
-271.271
-98.6603
-87.3067
383.18
-214.644
-197.063
411.707
96.2018
-210.502
114.3
-66.031
87.5527
56.0275
263.89
19.0501
-246.022
-384.206
297.504
-164.603
-62.5129
227.116
-83.9096
-117.582
-100.921
256.565
-155.644
-182.886
-138.132
321.018
77.5066
-79.6042
-123.627
-261.389
385.015
128.532
10.5631
-139.095
133.583
0.389385
-133.972
134.433
-329.272
194.839
-74.9425
138.017
-63.074
-73.5436
-430.853
-173.941
10.9652
162.976
-201.418
-80.023
281.441
183.668
-68.5601
-115.107
138.654
-70.9949
-351.464
103.565
247.899
0.63157
-414.709
414.078
69.9279
-117.384
47.4564
54.8342
-136.079
81.2446
82.5466
-175.778
93.2317
-240.02
122.018
118.003
-224.592
-345.456
-641.934
285.531
356.403
392.953
-204.393
-188.56
-57.3743
160.834
-103.46
239.544
-166.149
-73.3959
-45.1999
152.734
-107.534
-294.158
168.365
125.793
-121.449
-32.4974
156.945
-68.1555
278.094
-217.137
-60.9572
-234.429
407.653
-173.224
450.502
-223.296
-227.206
133.624
-85.6061
-48.0177
-163.342
100.787
-64.2795
-30.5765
94.8561
206.547
278.902
-485.45
-370.416
240.768
129.648
227.704
-532.108
304.404
387.311
-236.361
-150.95
117.47
-69.4092
-48.0608
-6.90713
-283.438
-75.4367
181.458
-106.021
-563.628
300.219
263.41
503.73
-503.73
-189.826
108.979
370.588
-377.495
-3.61393
81.1205
-483.496
272.36
-129.15
125.58
3.56947
42.1187
-182.731
257.654
-145.145
-106.96
154.937
179.464
-279.81
100.346
105.801
99.136
-204.937
-102.91
212.06
-109.15
415.207
-131.53
-283.677
-329.864
190.573
428.177
-151.292
-225.006
-69.152
142.036
177.154
-319.19
-187.132
104.319
82.8132
46.2827
-99.3156
53.0329
-171.653
96.9582
-247.725
297.839
-50.1142
73.5711
-115.768
-120.109
-70.7688
97.1152
184.307
-404.749
220.442
69.5932
64.969
456.603
-254.245
-202.357
172.056
207.412
-379.468
70.7972
-244.738
499.108
-509.265
10.1578
117.086
-73.8555
-43.2307
101.157
-151.972
50.8149
108.712
-62.4289
-500.322
66.1312
434.191
-172.219
30.3751
141.844
370.855
-314.827
-258.556
409.607
-151.051
-482.262
303.196
179.066
364.116
-244.479
-119.637
-142.703
-213.89
356.592
-161.183
345.124
-183.941
-235.934
133.023
-66.5548
-22.9066
89.4614
112.19
-192.886
80.6959
-60.7249
133.564
-72.8386
308.464
-193.389
-115.075
86.6368
36.6151
-123.252
-131.785
286.338
-154.553
-254.029
168.676
85.3534
110.868
72.7998
102.475
-130.92
28.4449
-173.996
287.06
-92.0307
-187.245
279.276
131.293
12.2865
-143.58
-94.6574
165.659
-71.002
-152.716
95.3419
-330.216
161.015
-179.334
346.575
-167.242
340.551
112.735
178.039
-412.468
272.472
-113.159
-183.532
125.791
57.7404
-3.58256
-182.735
186.318
262.723
-386.349
-57.2288
422.45
-35.0422
-68.3362
187.134
71.7688
-258.903
-141.826
58.9618
82.8639
-368.611
7.08962
198.847
-415.993
217.146
29.1596
-95.7144
-155.608
-16.6107
193.838
-285.869
-432.871
-67.4516
141.748
229.352
-371.101
219.151
144.965
120.349
-56.9445
-63.4044
171.81
102.303
-274.113
-261.309
170.521
90.7882
80.3315
-357.6
277.269
352.968
-214.588
243.185
-147.638
82.6542
108.158
-190.812
-132.992
271.446
-138.455
130.542
-61.1106
90.6891
-180.937
90.2481
265.616
-89.5559
-176.06
-170.738
-212.682
383.42
-175.239
-72.4858
-65.2889
-37.7993
103.088
76.8712
50.1881
-127.059
320.486
-172.521
-147.965
-219.27
46.6253
-510.393
343.901
166.491
366.144
4.44467
169.948
-290.135
120.187
186.459
-101.111
180.606
91.8565
-272.462
-53.3406
254.623
-105.321
-299.56
404.881
-171.378
388.639
-217.261
-112.463
264.169
-151.706
-172.297
286.73
-114.433
144.466
-99.464
-45.0017
-142.261
-84.185
-133.178
80.7857
52.3918
279.669
-160.249
-119.42
-438.082
332.76
-160.31
163.029
-2.71964
-185.099
112.204
72.8952
303.629
-169.196
-168.962
473.041
-304.079
204.458
-89.5132
-114.945
68.6886
87.6414
-156.33
72.1353
61.4885
25.6651
229.857
-255.523
97.4135
107.11
-204.524
63.9926
305.894
-369.887
148.785
510.452
-96.3032
225.608
95.9155
-321.523
-144.206
301.891
-157.685
135.544
-65.6164
213.413
-116.852
-96.5616
-81.9236
203.367
-121.443
141.374
-253.837
396.677
-224.621
-371.316
369.325
1.99156
145.578
-90.7441
-58.4313
-35.3472
93.7785
489.362
-165.814
-61.4796
186.915
-125.435
-232.741
430.738
-197.997
282.157
169.69
-451.847
68.754
-176.456
-455.98
248.072
-22.9935
156.576
-324.643
187.188
137.455
3.12299
99.3519
-316.437
-132.21
448.648
267.251
160.926
-74.2785
-84.5337
158.812
95.4296
3.25185
-98.6815
-241.89
354.491
-112.601
128.252
-117.721
-10.5308
-174.167
394.837
-220.671
-128.403
133.922
-5.51943
55.6447
125.786
-181.431
142.051
-471.491
-168.713
261.077
-92.3644
-98.4174
252.639
-154.221
-133.165
197.403
-64.2373
254.54
-163.419
-91.1218
-274.424
87.1791
237.152
-407.89
-39.7168
214.043
-174.326
-225.596
88.4895
195.539
102.3
381.997
-114.746
86.8356
-139.731
52.8952
353.324
69.9375
-423.262
-196.221
407.404
-211.183
-232.838
-267.159
22.8267
-88.8577
601.539
-379.346
-222.193
-32.7344
128.737
-96.0022
-164.122
69.465
309.302
-393.119
83.8177
-140.464
196.108
-390.151
382.094
8.0568
331.681
225.351
148.161
156.658
-304.819
-505
382.627
122.373
-352.465
426.169
-73.7037
-99.4624
252.502
-153.04
178.792
-67.9242
128.225
180.24
126.256
-294.969
-123.742
271.734
-147.992
382.859
218.68
336.274
-330.385
-5.88815
325.158
-529.577
204.419
341.407
-138.728
-103.214
-406.002
67.2613
-218.564
151.302
80.5648
-154.843
357.349
99.2532
186.191
-82.4881
-103.703
237.777
169.876
134.621
233.64
-368.262
-96.5411
378.699
415.994
-195.203
-400.405
8.84889
391.556
-291.196
-180.988
472.184
421.627
-291.776
-129.851
489.983
-249.834
-240.149
-72.3463
-90.9954
-59.2842
271.83
-212.546
56.2125
87.706
-143.918
83.1981
-140.005
56.8071
157.354
161.462
-318.816
-184.644
31.26
153.384
40.6984
87.5532
412.106
-174.329
374.923
114.439
-269.824
-144.734
414.558
-27.2275
158.521
-177.091
104.574
-161.506
-219.927
381.433
-25.5104
84.1568
-37.9072
-146.737
166.351
-457.547
200.456
-31.0651
-57.301
88.3661
216.412
-55.5779
-89.4066
-43.7055
-262.725
138.983
-103.998
291.132
-324.718
499.957
-175.239
261.303
-422.809
399.451
-198.255
104.115
198.145
-302.261
-143.77
61.5657
82.2042
-367.32
488.64
-121.319
307.401
-227.069
554.88
-227.585
-327.295
116.168
100.244
358.764
-117
-241.763
-271.69
434.513
-162.824
142.361
-250.552
108.191
-158.67
33.18
125.49
-156.672
-79.2618
146.836
-391.203
244.367
10.6042
-118.67
108.065
454.593
-197.199
-257.394
303.107
-478.715
175.608
-227.592
187.876
90.9607
113.497
100.594
-6.75983
-93.8345
253.673
-120.696
249.501
143.452
322.364
-181.005
-141.359
-326.727
217.158
109.569
-489.059
396.244
92.8151
183.554
-101.007
-104.426
188.912
-84.4859
-184.593
-69.4364
350.53
-41.2285
117.803
11.3175
-129.12
-117.978
200.632
-133.265
88.0654
-531.453
359.8
171.653
311.261
-141.313
226.124
161.187
161.564
-397.926
-474.615
238.098
236.517
-249.606
166.999
82.6072
112.781
-44.7333
-68.0482
-219.129
-203.057
422.187
102.094
150.246
-252.34
-407.085
282.459
124.627
-272.097
-134.988
-561.905
373.645
188.26
-285.614
101.021
586.065
-299.849
-286.216
-149.466
-176.179
325.645
-131.856
136.667
-4.81053
-164.875
274.517
-109.642
-254.192
154.73
-416.183
298.556
117.628
109.023
93.466
-202.489
-371.171
193.653
177.518
-113.046
-128.201
141.051
-105.255
-35.7966
276.064
105.933
573.972
-316.419
-257.553
253.319
-519.759
266.441
54.9118
-116.046
61.1344
93.3142
7.28018
-62.9741
144.58
-81.6056
272.979
300.993
71.7501
-172.827
-292.713
159.722
120.449
-39.6351
118.16
161.509
347.267
82.5099
106.952
71.8396
36.859
-186.866
150.007
365.278
-514.262
148.984
-60.9713
326.115
-265.144
-33.6735
116.872
174.8
380.08
-146.487
359.068
-212.58
70.7697
-167.72
96.9508
-341.039
-300.895
-60.8864
-37.2286
98.115
6.38569
-138.242
-106.92
117.524
176.141
-85.4516
178.672
-328.139
-136.923
76.8351
60.0876
-351.958
-87.6591
439.617
-338.281
521.85
-183.57
108.144
-370.798
262.654
60.8954
-147.028
86.133
-116.318
-235.146
295.275
105.823
-401.098
179.714
-112.452
249.645
-142.229
-107.416
554.955
-194.038
-360.917
-371.693
53.4946
318.199
331.632
90.8036
-422.435
-481.109
501.364
-20.2556
-146.233
-76.0349
-96.6393
202.44
142.996
179.368
250.931
-538.543
287.612
377.062
-367.62
461.741
-166.466
553.053
-298.869
-254.184
-224.098
244.684
-20.5861
-52.2057
170.008
-103.27
-252.416
355.686
56.7891
446.941
-68.9357
-83.7805
144.45
-88.2374
325.177
-167.824
128.154
60.7782
-188.932
167.123
-226.408
-69.6798
-102.939
172.619
552.68
-552.68
-3.16009
-125.243
280.799
-167.955
-112.844
-311.142
-171.12
-163.107
90.7606
-366.652
-119.06
-77.4244
146.113
199.557
-294.047
189.831
104.216
16.1536
-406.304
128.556
111.472
-240.028
90.7228
121.338
137.473
-54.454
-67.9221
-303.771
83.8117
-255.728
171.916
-7.03166
-393.373
-298.176
151.689
-132.548
-183.54
316.088
115.429
234.871
-350.299
-328.357
500.854
-172.497
-92.1967
-36.9531
-73.7115
105.522
-31.8104
-98.3654
180.676
-82.3106
227.722
169.758
-397.48
319.395
-215.28
405.672
-186.521
-304.331
-200.669
161.958
-274.569
-160.438
91.3973
-412.897
308.076
104.821
83.9074
-435.865
91.4558
153.436
-244.892
-221.75
-153.555
375.305
41.115
-101.84
140.009
-167.237
-120.471
-224.802
345.273
-301.85
240.879
-102.925
-50.7667
153.691
-188.399
111.512
76.8869
358.273
-517.344
159.071
320.269
-214.706
-105.562
157.189
293.313
74.3013
87.3449
-161.646
387.183
-161.059
146.879
-514.199
262.426
-178.614
159.421
160.848
-64.6904
-348.207
219.855
-379.79
159.934
409.148
-238.59
-170.558
75.6972
-260.31
184.613
-228.704
-10.1019
238.806
66.6099
-158.806
92.1963
83.2085
-160.689
77.4803
193.593
212.079
-49.1815
144.611
-334.377
418.284
135.783
234.081
-369.865
-106.057
309.628
79.8314
108.671
-188.502
41.788
-314.657
272.869
-138.733
145.118
278.609
-458.158
179.549
-94.9743
223.128
267.585
-455.227
196.671
-92.3632
1.47641
90.8868
40.5403
122.153
-162.693
222.191
232.402
-116.486
196.318
339.814
-28.4148
-311.4
-124.041
444.717
-320.676
101.962
290.808
44.2248
227.605
317.189
135.143
-452.333
327.709
-268.643
-59.0666
-32.2604
-128.049
-208.708
97.3337
-74.456
-31.0746
105.531
14.2286
-88.6845
-317.799
173.593
-75.2909
-179.871
255.162
185.275
135.415
-320.69
-222.591
-47.5329
270.124
-153.733
84.7976
82.107
-180.472
-84.0579
-318.654
402.712
-82.7597
-142.246
517.731
-239.122
-69.8929
77.0611
50.6932
-127.754
-166.773
83.506
83.2671
69.374
-90.757
21.383
106.167
172.636
-278.803
-185.952
104.844
81.1084
-138.866
319.472
-100.88
-128.122
229.003
-328.629
-209.703
-244.879
126.682
118.197
-229.283
527.006
-297.723
440.646
-293.81
-72.6432
-93.7509
166.394
-71.9243
101.084
-183.126
323.67
-140.544
-117.918
271.495
-153.577
163.245
-70.7794
-92.4657
-251.713
359.857
145.832
-87.8131
-58.0185
-274.041
279.947
-5.90621
-279.705
137.547
195.247
11.5654
-206.813
-198.5
391.32
-192.82
123.602
-59.8619
-63.7398
228.029
-470.538
242.509
-497.833
173.366
163.908
-35.3753
-139.293
0.560005
-189.243
86.599
102.644
-149.78
369.635
149.138
-78.3685
80.8415
-415.218
-40.7602
-74.1689
114.929
-105.602
-509.24
357.358
151.882
249.419
78.2901
-305.816
-160.728
466.544
-86.1367
298.801
107.411
-140.145
-53.8013
-133.331
-233.608
-244.624
478.232
-198.658
-242.895
441.553
-288.527
278.214
10.3138
314.242
-250.25
-295.048
-215.344
340.839
-509.801
103.332
94.8184
-198.151
-383.197
212.589
170.607
156.924
217.999
-76.4634
141.816
-65.3526
-330.359
526.173
-195.814
-191.634
137.566
54.068
-129.462
39.6376
89.8243
53.3326
-127.044
-63.9579
395.59
97.0235
65.0318
-162.055
504.643
-187.454
-109.884
266.099
-318.501
157.318
-287.005
287.005
-152.955
244.411
-548.86
281.613
267.247
-237.288
-98.7308
336.019
186.607
-149.748
-126.896
136.246
-9.3497
-255.27
82.9729
123.383
-483.619
36.4436
80.6425
-138.339
-310.219
448.558
-232.444
368.227
-252.639
151.718
500.94
-245.347
-255.592
-191.212
-37.4919
150.855
-328.174
-568.524
398.527
169.997
-285.906
-156.009
-203.202
37.7715
165.431
-57.6293
-110.533
168.162
132.408
121.265
-62.306
109.92
-47.6143
-0.0374191
58.9313
-58.8938
222.807
-221.86
-0.946935
212.812
-337.859
125.047
74.8526
-179.278
-73.1624
-154.43
104.457
-198.494
94.0369
-393.475
-264.801
340.121
-75.3207
83.1183
40.4834
-22.6784
-112.761
135.439
-150.701
-200.854
155.976
-386.718
230.742
-173.274
100.631
89.667
47.7299
-137.397
35.795
-138.72
-159.964
244.212
-84.2483
157.868
107.798
-265.666
-157.907
-287.106
445.013
171.145
-421.675
250.53
109.497
-160.609
51.1123
-540.731
308.913
231.818
465.457
-323.447
-142.01
-501.517
176.799
-128.002
124.842
-67.1354
-109.956
316.94
-413.481
-344.52
-130.095
-154.526
-139.521
-380.663
155.931
224.732
-216.019
133.26
-46.2502
307.19
-260.94
-89.4965
-240.794
127.749
175.794
106.37
-282.164
258.798
-454.453
195.656
198.039
-101.837
-317.319
102.612
223.234
-96.3629
-327.558
-112.159
439.717
383.616
-227.64
-331.83
336.451
-4.62057
-72.3886
122.254
-49.8654
-380.589
167.907
-312.346
126.511
185.835
131.651
-131.651
-194.969
-256.062
451.031
471.565
-390.723
63.5024
-264.921
3.94066
335.874
331.772
223.183
-243.056
-48.7131
291.769
127.473
6.79699
-134.27
-72.7026
138.483
-65.7803
-184.029
117.237
66.7929
-323.01
-244.947
-168.491
98.8116
116.96
-39.8992
-272.655
-302.364
-143.98
81.006
132.954
208.069
72.1091
34.6798
-106.789
-45.962
141.274
-95.3125
379.826
173.227
-173.198
-112.417
-336.281
-172.959
-156.663
-99.7765
256.439
-69.3838
-272.618
342.002
-354.842
197.388
157.455
-91.5919
-103.623
195.215
337.791
-505.081
167.29
209.144
-354.599
145.455
236.793
-415.894
179.1
-77.609
-53.8143
-237.904
164.742
167.01
-395.178
228.169
-155.359
97.7296
-380.383
197.471
-206.203
363.127
-76.5684
147.21
-70.6414
92.0401
-146.347
54.3073
25.1937
-89.4732
-154.063
366.874
483.497
-465.545
-17.9518
-93.91
154.805
-78.194
134.274
-56.0796
260.87
-455.839
-59.9695
169.283
-109.313
-149.201
289.143
390.876
-507.237
116.362
235.264
76.8367
-312.101
45.8002
-100.94
55.1398
-37.0382
106.412
59.292
30.718
-90.01
-43.1143
142.65
-99.5356
-10.7879
160.575
-149.788
175.968
-71.5106
387.741
-138.24
-77.2829
281.358
-204.075
-303.722
-48.7431
182.571
-105.58
-76.991
200.06
-308.892
108.832
-239.752
-147.262
387.014
-88.1903
180.23
-275.62
164.607
111.013
229.515
-360.177
130.662
-324.143
204.73
119.412
251.964
-132.587
-119.378
-134.839
71.2666
63.5723
184.417
-399.061
-112.414
-72.0677
184.481
-43.5788
-135.924
179.503
104.824
-250.429
145.605
-114.412
211.826
185.492
-98.466
-87.0262
-55.0718
-113.039
168.111
-36.0053
176.015
-163.703
-117.501
281.204
-304.756
-8.64844
313.405
46.8069
-111.98
65.1727
168.352
97.2637
115.755
107.479
-81.6104
95.5236
-13.9132
-203.202
-55.6422
446.518
-2.95111
118.646
377.201
13.7462
-390.947
390.169
-326.451
-477.438
182.39
63.8201
47.1995
-111.02
-149.341
-34.1907
83.2591
-259.803
176.544
123.244
-388.044
-175.073
-34.6493
269.914
-69.9176
265.165
257.493
160.815
-414.513
216.013
-142.587
66.1237
390.794
-163.089
247.181
-111.455
-135.727
258.996
-328.379
310.011
-186.854
-123.156
178.89
-168.886
-10.0039
118.866
-72.059
-215.467
-235.47
450.937
-196.876
31.1619
165.714
491.689
-485.037
-6.65276
243.89
-71.5613
-172.329
245.189
247.929
-493.118
275.663
-170.839
-164.029
300.707
-136.678
-159.163
307.324
-134.639
219.971
-85.3315
-189.667
-148.462
72.6373
-156.349
83.7115
107.082
-207.962
352.168
119.397
-239.074
-177.109
-64.9433
-101.83
115.609
-43.5002
-172.315
275.423
-103.108
-67.62
154.844
115.578
-43.2809
-72.2974
-136.204
81.1324
-581.801
367.297
214.503
54.4279
-139.519
85.0913
-178.511
261.77
-65.3659
130.42
-65.0538
71.0953
44.483
-143.047
363.733
-220.686
-124.604
-105.005
229.61
-57.9443
-35.4257
93.3699
337.549
-144.972
-192.576
247.591
-86.9725
-160.618
-379.857
-308.147
-169.291
-56.6989
-98.9718
155.671
125.536
-315.979
190.443
146.441
-73.8037
-124.602
-3.40016
170.871
-420.366
312.181
-95.0226
-164.707
103.228
-175.472
83.6427
91.8296
338.844
-129.701
158.966
-127.28
-31.6855
-80.7168
-94.7555
69.1265
-135.888
66.7614
104.254
-171.39
115.924
-63.9516
-103.83
167.781
-91.9608
228.751
-136.79
126.379
-43.5816
-82.7974
-269.288
-35.4681
120.464
92.9488
-82.8838
10.9596
-96.4223
215.205
-118.783
-98.1015
98.4638
-0.362372
-97.9246
-77.8531
-95.7156
173.569
484.067
-385.967
-98.0991
424.365
-107.425
142.846
-102.306
-425.693
463.885
-38.1925
-178.323
305.219
-126.897
-238.433
301.936
99.3434
86.1488
-69.3348
-115.764
-92.9985
272.463
-150.677
302.608
-151.931
41.096
58.9354
-100.031
-300.714
158.804
141.911
115.558
-60.6459
-83.8944
-72.7281
-221.629
-187.928
409.558
139.736
344.331
-456.676
258.018
239.546
-239.546
-64.1202
78.7573
-14.6371
185.432
-108.717
-76.7154
246.001
-540.004
294.002
182.741
154.808
-252.655
356.43
-103.775
123.486
-69.0576
-202.961
129.884
73.077
156.96
330.238
-487.197
253.821
-121.412
-317.647
162.735
154.912
96.5748
-187.786
91.2117
281.44
158.85
-440.29
-232.843
108.239
93.752
-165.834
72.0816
136.379
-179.493
-170.312
398.034
-179.714
111.31
68.4038
172.589
-105.854
-66.7348
-96.5549
373.46
-276.905
332.164
-165.041
-31.7457
107.776
-76.03
179.821
180.445
-360.266
-207.856
-248.82
-90.7693
349.567
97.746
-183.669
85.9226
-204.799
399.35
-194.551
161.186
-64.6116
318.638
-219.24
-99.3984
144.66
-57.8247
-219.709
-164.115
87.5463
-620.25
303.831
132.939
493.644
-501.56
7.91565
213.044
188.513
-401.557
113.629
45.337
-369.386
-119.673
152.385
-155.967
16.6234
-305.151
-25.0342
-124.45
149.484
158.192
-296.715
138.522
120.085
276.159
-130.469
88.5015
41.9678
46.4065
-182.33
33.1465
-66.1384
32.9919
263.313
95.4505
262.116
-172.888
-89.2279
147.203
-80.5933
-397.739
276.055
121.684
-260.071
-360.18
187.211
56.6787
145.436
-456.536
311.1
-67.9385
-77.0236
144.962
32.3856
-123.803
91.4176
290.207
210.733
-3.21099
380.412
-78.5212
-69.504
430.678
-149.239
82.5508
-135.617
53.066
-464.349
260.941
203.408
-201.74
-245.76
447.5
-366.485
566.484
-199.999
280.955
146.848
-173.844
249.646
-75.8021
-165.308
267.402
351.93
-277.035
-74.895
-179.184
290.537
-111.354
-184.342
-154.531
-117.242
-165.536
282.778
91.0132
27.9104
-118.924
192.849
-83.8258
440.478
-378.685
-61.7926
-188.431
117.858
70.5733
85.2675
269.258
-354.526
122.726
-33.0586
347.422
93.0563
-68.419
162.171
-101.296
-29.1738
-225.97
514.18
-288.21
3.55814
191.701
-195.26
227.225
-395.894
168.669
-80.3058
-41.1252
121.431
288.715
99.0261
-82.4488
-19.9037
102.353
-126.913
108.087
18.8256
-190.932
130.577
60.3553
182.874
384.334
95.7703
-36.4782
-271.032
-126.708
228.464
-443.931
413.735
-509.871
96.1362
68.6821
223.01
-31.8216
-191.188
134.816
-65.6893
80.917
-408.475
-77.4582
-88.4177
165.876
98.6422
-7.11544
-91.5268
-111.597
46.3086
119.497
135.043
151.519
-329.492
177.973
-91.066
160.936
-69.8703
152.486
-357.286
362.185
-236.649
341.823
-82.8279
-362.493
-201.135
-287.261
474.28
-187.019
429.258
-324.284
-104.975
-9.33999
-343.459
352.799
-336.73
-176.294
513.024
-149.508
-9.16237
62.2499
-29.1034
-506.453
263.162
243.291
-157.473
-101.27
-68.6018
-66.237
-48.9448
158.442
-97.2136
175.581
-554.714
382.758
171.956
97.1918
-161.143
-23.7265
88.0623
-64.3358
181.326
-146.377
199.87
-320.085
120.216
322.391
-255.426
-66.9642
87.4107
-397.449
310.038
214.789
-99.0336
114.621
255.311
-88.3927
-100.007
108.776
-62.9761
474.765
-299.425
-175.34
-267.283
363.979
-96.6954
-123.627
191.845
282.92
-417.831
31.8671
385.964
-290.192
-193.304
145.549
-225.949
80.3996
-129.129
-84.2767
213.406
107.661
210.794
-318.454
37.826
-266.468
-239.985
-93.9518
-35.3577
129.31
-202.988
326.146
-123.158
481.977
-176.083
414.166
-70.2641
-306.958
175.173
94.0126
4.62965
-274.926
-32.139
307.065
57.4175
-373.855
-408.878
137.188
128.163
-16.7553
-111.407
165.594
-280.611
115.017
-108.948
266.816
-458.716
334.675
-77.7727
-81.0335
497.3
-149.878
-240.432
406.744
-166.312
218.797
-349.741
130.944
470.171
-111.898
60.0188
57.4511
-309.049
135.205
357.279
-208.426
-148.852
-170.777
297.349
-126.572
134.337
347.64
170.925
-270.359
99.4343
389.881
-107.422
360.413
129.65
-490.064
329.033
-226.06
-102.973
473.947
-502.876
28.9284
122.35
-72.088
-50.262
340.452
-225.024
-11.6708
-80.6925
-80.8392
-182
262.84
41.3574
-126.218
84.8606
-152.959
69.0647
-307.185
474.404
-167.219
-87.2962
-49.6265
-194.648
198.206
101.551
53.3619
-134.778
81.416
288.236
4.4404
-292.677
-146.925
93.1794
53.7455
-100.817
454.141
184.637
125.374
-146.629
304.821
-236.847
154.924
335.903
54.2661
-157.91
-159.737
17.0585
226.127
-252.04
78.8425
-141
240.839
-99.8392
62.2547
-139.679
416.869
-203.825
-371.576
377.004
-5.42832
-133.576
493.989
66.73
-137.345
70.6149
133.487
-68.341
-141.534
209.875
-152.564
184.773
-71.1442
63.5843
25.4919
-89.0762
58.5678
-129.571
71.0031
-258.942
160.524
-97.4658
-69.4895
166.955
-267.753
-293.608
126.408
167.2
116.821
-84.4358
56.0668
-113.849
57.7826
59.838
-188.967
145.731
140.607
-124.257
273.716
-149.459
-142.865
89.4151
53.4496
-84.4614
207.051
-122.589
-375.348
212.73
-183.852
363.673
151.521
-270.821
119.301
258.185
162.206
-420.391
-51.3073
-32.3746
83.6819
331.445
97.8137
340.605
-146.624
-193.981
-157.721
406.183
-248.462
165.433
-70.9646
325.724
-254.76
327.68
121.679
-449.36
474.56
340.505
130.4
-470.905
249.326
-457.182
189.181
-25.3722
-163.808
-338.523
182.964
155.559
-129.821
16.7628
113.059
88.325
19.4035
-107.728
-57.3827
-86.3873
12.1864
-383.762
-356.289
213.242
61.4515
192.404
-253.855
-377.991
307.026
222.153
123.454
-345.607
-52.0595
108.445
-56.3859
-100.594
-152.676
253.27
568.598
-257.487
63.0832
135.734
-142.304
-279.852
422.155
-123.283
169.689
-221.58
385.514
-163.934
-361.673
45.2781
316.395
-178.15
-279.146
457.296
-70.3054
-59.1564
-564.257
366.718
197.538
300.422
-181.679
-118.743
-124.222
346.375
-166.753
69.2872
110.969
-188.427
159.28
87.9019
-162.207
-490.529
250.991
239.538
-174.94
94.2235
-265.916
97.9608
-290.556
-291.245
-58.2449
-243.606
96.1196
-332.325
236.205
-203.306
-171.893
62.5407
109.352
-248.721
-68.5981
-114.745
-37.3319
152.077
-48.8561
-42.6221
91.4782
-321.776
225.221
28.6939
-94.4629
65.769
158.105
-189.927
154.065
-365.634
211.569
2.78326
-277.709
-191.508
316.349
-124.841
-242.179
258.802
106.76
-132.799
-89.4143
222.213
403.834
-413.174
114.307
-73.2115
285.321
189.81
-475.13
-81.8694
-93.0709
-78.5479
272.386
364.612
-367.823
94.0723
-5.74727
410.177
-126.322
-283.855
106.699
169.252
-275.951
138.169
-57.7906
-117.584
175.374
280.293
-121.031
-159.262
347.723
42.1584
132.077
-90.7196
-501.734
173.377
67.5531
-132.919
-130.112
67.9568
62.1552
-51.8627
169.24
-117.377
-142.073
-76.1207
218.194
22.7619
-98.5234
75.7615
-123.128
42.8225
178.841
-185.927
7.08614
232.592
-281.773
49.1807
-218.265
76.192
-87.3289
-75.8876
-50.4384
-72.7964
123.235
142.57
189.654
201.666
-225.463
179.213
178.376
-141.177
-37.1989
-380.468
272.152
108.317
238.339
-84.9033
336.115
161.184
335.037
103.229
-438.266
-130.198
-139.872
-537.847
251.056
286.791
225.974
-313.913
87.9394
141.596
120.52
-95.1434
63.3977
-43.8389
99.8586
-56.0197
-273.22
-221.134
494.354
-418.266
441.337
-23.0711
-267.424
102.821
-126.731
-458.002
-20.9921
478.994
210.258
244.982
-455.239
-123.852
-188.494
-150.456
-150.259
92.0643
-28.48
-337.456
135.716
-32.842
175.203
-129.629
-275.933
176.48
99.4526
83.1966
66.1713
-131.763
-143.479
275.242
143.725
-90.3633
416.42
-294.437
-121.984
-141.005
359.802
-208.953
-54.6855
457.15
24.1327
-114.303
-74.9417
189.244
454.659
-0.194029
-454.465
-94.0365
330.565
-236.528
116.188
82.5431
-198.732
-375.345
224.157
151.188
-130.039
-106.501
-169.432
140.1
-73.3697
-108.45
290.467
-182.016
137.287
143.606
-280.893
-150.144
-52.8169
-246.16
-178.423
424.583
117.498
476.438
-332.678
-143.76
-153.636
146.393
-92.9966
-53.3959
32.007
-89.308
201.881
-271.799
294.37
-352.615
-405.454
348.225
193.47
-317.323
230.555
181.55
441.906
-205.113
-241.563
164.281
93.695
82.4456
-91.4398
115.92
-167.783
-270.788
290.455
-19.6672
-277.415
-20.7616
78.0774
-139.705
61.6277
116.569
286.134
-159.726
248.87
-141.346
-107.524
-81.1403
143.395
-270.572
120.279
-188.62
310.992
-62.5837
-248.408
-261.2
471.457
484.822
-148.707
-370.059
267.148
102.911
-22.2854
476.945
-222.719
421.566
-86.0438
-203.091
289.134
105.129
-263.002
157.873
11.0681
292.128
-334.611
-247.386
581.997
148.031
-348.235
200.204
-292.771
392.805
-100.034
-111.11
451.615
352.223
-126.616
175.502
-89.5822
369.581
-279.999
-80.4294
-66.4955
-249.633
155.463
94.1699
175.862
150.283
68.4275
-59.7555
-279.787
339.543
-386.129
-78.9874
-135.855
-197.392
-338.128
229.678
-412.867
412.867
179.483
-339.473
159.991
178.858
-340.919
162.061
231.528
79.4638
53.7902
35.8841
-89.6742
217.955
-371.51
287.697
-465.847
240.87
-37.5036
144.093
159.536
72.7408
197.866
-270.607
124.297
-68.6439
-55.6536
-71.8681
-293.416
365.284
118.406
-188.827
70.4207
-80.0314
192.161
-112.129
331.9
4.37322
-77.0759
80.3278
-276.234
321.579
-45.3444
40.5888
148.592
90.566
18.6828
-109.249
-318.099
-43.5738
36.043
-169.208