/*--------------------------------*- C++ -*----------------------------------*\
  =========                 |
  \\      /  F ield         | OpenFOAM: The Open Source CFD Toolbox
   \\    /   O peration     | Website:  https://openfoam.org
    \\  /    A nd           | Version:  7
     \\/     M anipulation  |
\*---------------------------------------------------------------------------*/
FoamFile
{
    version     2.0;
    format      ascii;
    class       volVectorField;
    location    "39";
    object      U;
}
// * * * * * * * * * * * * * * * * * * * * * * * * * * * * * * * * * * * * * //

dimensions      [0 1 -1 0 0 0 0];

internalField   nonuniform List<vector> 
115545
(
(1.04445 -0.0588075 3.09565e-22)
(0.999992 1.20763e-07 -4.35099e-25)
(0.981572 -0.0155752 2.55339e-22)
(0.995407 -0.00499167 -4.44418e-23)
(1.00231 -0.00547771 4.80244e-24)
(0.998766 -0.0018382 1.20354e-23)
(1.03 0.160863 -1.12036e-20)
(1.077 -0.10905 4.47674e-22)
(0.999588 -0.000617583 -4.41297e-25)
(0.999992 8.73119e-08 9.0648e-26)
(0.999677 -3.47445e-05 3.85185e-24)
(1.0002 -0.000168498 2.78787e-24)
(0.998238 -0.00600272 -1.71807e-23)
(0.883698 -0.00839658 -8.74677e-22)
(0.999586 -0.000632699 4.73101e-24)
(0.899593 -0.0374936 -2.09381e-21)
(0.999826 -0.000480391 1.16138e-24)
(0.999499 -0.000342248 -6.3431e-24)
(0.9906 0.161936 1.45091e-20)
(1.00238 -0.00554461 2.9344e-23)
(1.08408 -0.108671 4.16569e-21)
(0.992474 -0.000226496 -2.03529e-23)
(0.999416 -0.000453871 -6.15286e-24)
(0.992945 -0.00719677 -3.08964e-23)
(0.87742 0.0478339 1.50137e-20)
(1.14694 0.0317575 1.91727e-21)
(1.27774 0.0071921 1.59978e-21)
(1.02323 -0.00543624 8.9849e-22)
(0.999974 -6.92472e-05 -6.06777e-26)
(1.06107 0.27229 -1.18294e-20)
(0.999832 -6.74619e-05 2.50372e-24)
(1.06291 0.015012 8.67985e-22)
(1.00969 -0.0143601 -1.96514e-23)
(0.980903 -0.00817057 -2.29412e-22)
(0.858762 0.131465 6.83562e-21)
(0.997404 -0.00155624 7.49517e-23)
(1.04029 0.176011 1.90471e-21)
(0.999825 -0.000491304 -4.25666e-25)
(1.26608 -0.0913514 4.97004e-22)
(1.03272 0.0906581 1.71235e-20)
(1.06356 0.0157313 -1.68346e-21)
(0.999492 -0.000354165 -1.30557e-24)
(0.977054 -0.0290373 -4.93782e-22)
(0.997411 -0.00150831 -5.31539e-23)
(0.95566 -0.0822227 -1.0012e-22)
(0.88444 -0.00754325 9.11038e-22)
(1.00813 -0.017625 7.69177e-23)
(1.00731 -0.000878357 7.53712e-23)
(1.00022 -0.00881836 -6.11401e-24)
(1.00019 -1.80922e-05 -1.32803e-23)
(1.00001 -6.77621e-07 -9.74564e-26)
(0.995311 -0.000210757 6.14527e-23)
(1.04615 0.0166418 2.96062e-21)
(0.999992 -1.46626e-07 -7.07044e-26)
(0.997618 -0.0104668 7.57772e-23)
(1.04565 0.0170325 -7.77164e-22)
(1.03705 0.0010496 2.10702e-21)
(0.946515 -0.0577628 -2.6153e-22)
(1.24655 0.0229527 -1.53725e-21)
(0.986116 -0.0191174 5.79063e-22)
(0.999903 -0.00027308 -3.6097e-25)
(0.992836 -0.00761949 2.64931e-23)
(0.998948 -6.05943e-05 -1.16294e-23)
(0.975538 -0.0137173 6.9399e-23)
(0.999921 -7.30347e-05 -1.82353e-24)
(1.00127 -0.000105642 -3.7822e-24)
(0.998531 -0.00549196 7.07303e-23)
(1.0491 -0.00366264 1.64575e-21)
(1.28571 0.0186517 -4.12769e-21)
(1.03792 0.000545583 8.56726e-22)
(1.10622 0.15603 4.12724e-21)
(1.26015 0.0705876 4.8183e-22)
(1.03272 0.0892555 7.58226e-21)
(0.939181 -0.00541006 -1.74016e-22)
(1.03249 -0.076162 -3.27355e-22)
(0.960774 -0.0134526 -9.49396e-23)
(1.18384 -0.0236236 4.43966e-22)
(0.999047 -0.0031972 -2.39534e-23)
(0.99935 0.0834853 -4.70483e-21)
(1.14181 -0.00309196 -6.83315e-23)
(1.14256 -0.00118087 1.90038e-22)
(0.999956 -3.94618e-06 6.82092e-26)
(0.98176 -0.181473 1.83388e-21)
(1.02221 -0.00125219 -4.06299e-22)
(0.995343 -0.00133378 3.80248e-23)
(1.00019 -0.000163263 2.78639e-24)
(0.975426 -0.0216541 -3.28167e-22)
(0.99999 -2.00364e-05 -5.08326e-27)
(0.95671 -0.0143257 -4.34778e-25)
(0.999989 -3.70959e-05 -1.34923e-25)
(1.26058 -0.0566889 4.81259e-22)
(0.984959 -0.00808685 1.43712e-22)
(0.999973 -6.94026e-05 3.27857e-26)
(0.998049 -0.00137421 5.57865e-23)
(0.999379 -0.000428891 -1.06541e-23)
(1.00044 -6.76643e-05 4.63991e-24)
(0.999491 -2.34836e-05 -2.083e-24)
(0.982595 -0.180054 5.00699e-23)
(1.20385 -0.085491 4.932e-22)
(0.95693 -0.013911 -1.47155e-22)
(0.999901 -0.000279064 3.49068e-25)
(1.0285 -0.00924623 -9.30268e-22)
(1.00357 -0.0161344 2.63777e-23)
(1.00339 -0.000227183 -2.65154e-25)
(1.10399 0.153934 2.80617e-21)
(1.02298 -0.115077 1.40888e-21)
(1.01691 0.0897079 -5.1481e-21)
(0.975209 -0.111723 1.12336e-21)
(0.993525 -0.0385414 1.08441e-22)
(0.999977 -8.11017e-05 3.33771e-25)
(1.16257 0.00666098 -1.49617e-22)
(0.999497 -3.08509e-05 8.2113e-25)
(1.185 -0.0217199 -2.68786e-22)
(0.995012 -0.0272068 -4.62327e-22)
(0.685501 0.112562 -3.20596e-21)
(0.999799 -0.0159039 -2.29912e-22)
(0.999672 -2.94398e-05 -7.19408e-24)
(1.12677 0.149826 -4.85096e-21)
(1.00002 -1.88392e-05 2.99813e-25)
(1.2599 0.0680425 -2.13319e-22)
(1.12713 0.153139 6.83275e-21)
(0.898535 -0.0383182 8.79516e-22)
(0.982203 -0.0163963 2.21879e-22)
(1.21714 0.00983407 -8.38697e-22)
(0.999993 -6.38043e-07 -8.14336e-26)
(1.06044 0.269139 1.3598e-20)
(0.992881 -0.00782301 -2.87635e-23)
(0.847601 0.283995 -8.65347e-21)
(0.997582 -0.000139429 1.16851e-24)
(1.03425 -0.000754596 -1.26163e-21)
(1.06419 -0.0684935 6.98647e-23)
(1.00029 -4.32699e-05 4.0612e-24)
(1.16937 0.153611 -2.35056e-21)
(1.00019 -0.000154666 -8.44808e-24)
(1.00002 -1.56443e-05 1.49394e-25)
(0.993084 0.186867 2.29339e-20)
(0.894308 0.126406 -4.05224e-21)
(1.00967 -0.0146288 -2.31185e-23)
(0.997775 -0.010542 -1.06983e-22)
(0.992915 -0.00752421 2.63651e-22)
(1.2678 0.218226 7.572e-22)
(1.0002 -0.0151589 -8.55309e-23)
(1.00006 -5.60361e-06 -5.28314e-24)
(1.05654 0.0232427 3.83347e-22)
(1.06466 -0.0666958 -7.62687e-22)
(1.00001 -7.5978e-07 9.70038e-26)
(1.01563 -0.0202001 -1.8947e-25)
(0.992781 -0.00792952 -8.43186e-23)
(1.04867 -0.0032616 -2.54938e-21)
(1.00113 -0.00270672 -2.39658e-23)
(1.02132 -0.114297 -1.06449e-21)
(0.954812 -0.0823422 6.78369e-22)
(0.985052 -0.00788461 9.18976e-23)
(0.999994 -6.12114e-07 3.93198e-26)
(0.995377 -0.000199094 3.51477e-23)
(1.01085 -0.0114577 1.73966e-22)
(0.999977 -8.28027e-05 -4.63605e-25)
(1.13835 -0.0283937 -3.55142e-22)
(0.962749 -0.000967012 -9.6347e-24)
(1.03354 -0.157762 -8.3666e-22)
(0.961243 -0.0138033 5.16509e-22)
(1.01544 -0.0198835 1.58957e-22)
(0.998967 -5.63194e-05 -8.59473e-24)
(1.00371 -0.0852691 1.14178e-22)
(0.991706 -0.023278 -2.04365e-22)
(0.998766 -0.000726027 -3.46737e-23)
(1.03743 -0.016458 4.47216e-22)
(0.986606 -0.0467792 -5.55548e-23)
(1.14033 -0.0287501 6.70521e-22)
(0.9905 -0.023322 2.49944e-22)
(0.987552 -0.0204083 4.25181e-22)
(1.00816 -0.0173216 -4.22467e-23)
(1.26557 -0.0596606 2.82809e-21)
(0.889132 -0.0304562 -1.4685e-21)
(1.00076 -0.0731744 6.93674e-23)
(1.04166 -0.00372822 -5.28302e-23)
(0.889257 -0.0286615 3.25115e-22)
(0.997097 -0.003618 4.81967e-23)
(1.01158 -0.0206965 2.12547e-22)
(1.00017 -0.00867562 -1.27607e-23)
(1.01843 -0.0136483 6.02719e-23)
(1.03328 -0.0754451 -4.41039e-22)
(0.978691 0.17054 -6.45564e-21)
(1.0507 0.0225427 1.71882e-21)
(1.01539 0.0874386 1.21843e-20)
(0.999506 -0.00113563 -6.71801e-25)
(0.994786 -0.0042096 5.16256e-23)
(1.00003 0.000560661 -2.11563e-21)
(1.03924 -0.0295369 6.50962e-22)
(1.2597 -0.0579374 -2.41561e-21)
(0.997191 -0.00361755 1.51722e-23)
(1.00031 -0.0143943 5.87906e-23)
(0.992015 0.0673862 -9.97814e-21)
(0.969089 -0.028689 9.72597e-22)
(1.14497 0.0319702 -2.60208e-21)
(1.00708 -0.142191 -9.16132e-22)
(0.888276 -0.0279425 -1.00182e-22)
(0.986113 -0.000361637 -2.42761e-22)
(0.964483 -0.0234867 -7.10797e-22)
(1.01037 -0.0521746 -3.12808e-22)
(1.03757 0.0227486 2.375e-21)
(1.00794 0.115921 7.66401e-21)
(1.0211 -0.0133059 1.70116e-22)
(0.999986 -3.20457e-05 -7.12282e-27)
(0.994964 -0.00360699 4.52802e-24)
(0.95489 -0.0266011 -3.71034e-22)
(0.999088 -0.00125553 -1.7519e-23)
(0.999923 -7.32737e-05 1.40708e-24)
(1.03829 -0.00859184 -3.00198e-22)
(1.0303 -0.0897675 2.54534e-21)
(0.888365 -0.0262013 8.1004e-22)
(1.01872 0.09009 -3.14242e-21)
(0.882661 0.0504955 -1.11342e-20)
(0.999989 -3.74618e-05 -2.13818e-26)
(1.00075 -0.0395827 -6.00101e-22)
(0.968797 -0.0290981 -4.85621e-22)
(1.10094 -0.0284 2.74315e-22)
(1.00866 -0.0168648 1.2553e-22)
(0.883886 -0.00579952 5.35988e-22)
(0.999805 -0.000317395 4.50586e-25)
(0.972391 -0.0576584 -2.75276e-23)
(0.973481 -0.0272558 2.74661e-23)
(1.00006 -0.0111158 6.60502e-24)
(0.961191 -0.00124617 2.92421e-22)
(0.999992 -1.56293e-07 1.01338e-25)
(0.935792 0.166603 1.02503e-20)
(1.00745 -0.025652 6.31441e-23)
(0.96259 -0.0205874 -7.28329e-22)
(1.00737 -0.140203 -5.11606e-22)
(0.95035 0.0742582 5.82392e-21)
(1.02592 -0.00649968 -9.34932e-23)
(0.958882 -0.0631657 1.07368e-22)
(1.2544 0.221306 -1.05194e-21)
(0.979101 -0.0453175 -4.85211e-22)
(1.06831 -0.0706568 4.3056e-22)
(1.03712 0.0230406 3.58655e-21)
(1.00051 -5.00958e-05 4.97002e-24)
(1.00122 -0.0130433 -4.14826e-23)
(0.982184 -0.0491641 1.82111e-22)
(0.995209 -0.000310523 -7.94747e-23)
(1.24403 -0.0541496 4.79788e-21)
(1.02831 -0.0543172 3.3302e-24)
(1.03502 -0.159252 1.1148e-21)
(1.20512 -0.0875133 -2.61143e-21)
(0.9975 -0.000120571 -5.33325e-23)
(1.00112 -0.00313614 -1.00429e-24)
(1.0573 0.00491456 2.15982e-21)
(0.958197 -0.0032893 -5.89062e-22)
(0.987223 -0.0468492 -1.67357e-23)
(0.913555 -0.0632252 -4.63059e-22)
(0.998879 0.0200509 -5.49605e-21)
(0.998241 -0.00189537 -4.24881e-24)
(1.03163 0.00241186 -1.07985e-20)
(1.00007 -0.003694 -1.60315e-24)
(0.839995 0.266192 -1.58708e-20)
(1.01878 -0.0134631 -3.48686e-22)
(1.20387 -0.0218591 1.99297e-21)
(1.02321 -0.00127547 3.81932e-22)
(1.00034 -7.45878e-06 2.69249e-23)
(1.07817 -0.111041 7.74584e-23)
(1.01892 -0.013033 -8.3941e-22)
(0.884658 -0.00492554 -3.28487e-22)
(1.05137 0.0235195 -2.4286e-21)
(1.26429 -0.104019 -1.22085e-21)
(0.993187 -0.0389303 8.47741e-23)
(0.995514 -0.00503057 1.54586e-22)
(1.21462 0.00975693 -9.77896e-22)
(0.997611 -0.000321566 5.75605e-23)
(1.18019 -0.00770686 2.38286e-22)
(1.18647 -0.0356375 -1.94646e-22)
(0.99993 -3.83614e-05 -4.04208e-26)
(1.03942 -0.0288577 -1.59428e-22)
(1.00031 -0.00849888 -2.08822e-23)
(1.02894 -0.0548472 2.67495e-22)
(0.998423 -0.00459292 -6.29505e-23)
(0.974158 -0.0219055 -1.61133e-22)
(0.956455 -0.0770496 6.44943e-22)
(1.00178 -0.0729291 5.08797e-23)
(0.997566 -0.0139858 1.35092e-22)
(0.976546 -0.111492 -9.52527e-22)
(1.00452 -0.0857901 -2.6948e-22)
(0.997539 -0.000105903 -3.97419e-23)
(1.00005 -0.00209443 1.07815e-24)
(0.955317 -0.0261005 1.99676e-22)
(1.00003 -0.000990277 3.17994e-24)
(1.01478 -0.0101766 5.17301e-22)
(0.938957 0.164074 5.87221e-21)
(1.03381 0.00101257 -5.30754e-21)
(0.987511 -0.186551 -1.06317e-21)
(1.26391 -0.0900338 5.09522e-22)
(0.955568 -0.0767277 1.41079e-22)
(0.999989 -2.75019e-05 2.28354e-26)
(1.24508 0.0116058 -1.16131e-21)
(1.01857 0.0886633 -3.03066e-21)
(0.999866 -0.000615907 2.37829e-25)
(1.02286 -0.0128385 -4.93221e-22)
(0.998189 -0.00213587 -3.6709e-23)
(1.06648 0.0137422 1.29596e-21)
(1.00024 -0.00573113 7.36187e-24)
(1.18948 -0.0352997 -5.4947e-22)
(0.886792 -0.0213322 -4.36458e-22)
(0.992342 -0.0672451 2.19476e-22)
(1.2731 -0.0329375 -1.21435e-21)
(0.992082 -0.0105019 -1.56432e-22)
(0.972899 -0.0719288 -1.12467e-22)
(1.12384 -0.00251057 2.60992e-22)
(1.0364 -0.0658312 6.11688e-23)
(0.962798 -0.0202601 4.83121e-22)
(1.23815 -0.171303 -4.68627e-21)
(1.01172 -0.0204416 -4.6578e-24)
(0.996369 -0.00243003 -4.47739e-23)
(1.16341 0.193987 4.88198e-21)
(1.2111 0.210427 2.48544e-21)
(0.982809 -0.0492079 -5.12438e-22)
(0.998104 -0.00604813 8.73821e-23)
(1.0036 -0.0155578 -3.27493e-24)
(0.990484 0.0749198 -1.57715e-20)
(1.00108 -0.00317658 1.55421e-23)
(0.993126 -0.00722909 1.34777e-22)
(1.24316 0.00219671 3.05166e-22)
(1.10397 -0.0486819 -1.12403e-22)
(0.99981 -0.000325537 -3.5711e-24)
(1.02078 -0.0135342 -1.32746e-22)
(0.691352 0.10704 5.65575e-21)
(1.13001 0.00821895 -1.42936e-21)
(0.962312 -0.00804146 -7.39599e-22)
(1.01111 -0.0113717 -2.52047e-22)
(1.06118 0.0102045 1.60056e-21)
(0.885791 -0.020499 8.41542e-22)
(1.24605 0.0134612 1.76992e-21)
(0.996389 -0.00252554 3.1793e-23)
(0.999989 -2.86338e-05 -4.50465e-26)
(0.999537 -0.00120356 9.49568e-24)
(0.998217 -0.00210426 5.77858e-23)
(0.744918 0.0323613 3.69848e-21)
(0.995823 -0.00590071 -1.11457e-22)
(1.14472 -0.0204834 -1.38158e-22)
(0.999936 -3.64211e-05 1.12049e-25)
(0.998742 -0.00180526 -1.57463e-24)
(0.994751 -0.0041224 -6.45184e-23)
(0.983806 -0.0169547 -2.12492e-22)
(1.09113 0.00160193 -3.53471e-21)
(1.27835 0.00583573 -6.52216e-22)
(0.976143 -0.0128327 6.67837e-22)
(0.989036 -0.0130574 8.6168e-23)
(1.00225 -0.00410478 -9.56966e-24)
(0.997453 -0.0141561 -8.37206e-23)
(0.820206 0.27832 -2.88145e-22)
(0.958724 -0.037309 1.26911e-21)
(0.998232 -0.0135648 3.68018e-23)
(1.1661 0.152981 1.17504e-21)
(1.02628 0.0354864 -3.36693e-21)
(1.0187 -0.0127177 7.58713e-22)
(0.9965 -0.00394849 8.95209e-23)
(1.00968 -0.0524914 -4.29695e-23)
(1.00826 -0.0295601 -1.51327e-23)
(1.04357 -0.0577681 -5.04044e-22)
(1 -1.73999e-06 3.25986e-27)
(0.999158 -0.00201664 3.62425e-23)
(1.04822 -0.0428463 -4.21155e-23)
(1.12034 0.0696913 3.50266e-21)
(0.973278 -0.0822249 2.41411e-22)
(1.03702 0.174747 3.55375e-21)
(0.734582 0.0645571 -4.1742e-21)
(1.16773 -0.0327692 1.08623e-21)
(1 -1.67894e-06 2.54026e-26)
(0.981551 -0.000476324 -3.96028e-22)
(0.980066 -0.0305642 2.78962e-22)
(1.00023 -0.0110405 4.17414e-23)
(1 -3.02597e-06 -4.70066e-26)
(1.13308 -0.124945 -1.43088e-21)
(1.29723 0.11779 9.37314e-22)
(0.958752 -0.00323819 -5.87574e-22)
(0.999252 -3.85625e-05 -1.1636e-23)
(1.18185 0.00151705 3.60604e-22)
(1.00541 -0.00741088 1.71886e-23)
(1.00342 -0.0158109 1.23654e-23)
(1.00018 -1.32802e-05 1.17974e-23)
(0.998322 -0.00204906 -3.15284e-23)
(1.05208 -0.0426657 -2.56071e-23)
(0.958233 -0.0627138 7.98951e-22)
(0.995604 -0.0390927 -1.88004e-22)
(0.994026 -0.0264375 -6.65875e-22)
(1.04874 -0.043613 -2.60385e-23)
(1.01478 -0.00992444 -2.67084e-22)
(0.999867 -8.58553e-06 -3.50861e-24)
(1.25261 0.217187 2.17515e-21)
(0.90834 -0.0584503 1.01518e-22)
(1.00235 -0.00529032 -3.24629e-23)
(1.05998 -0.0970799 -4.43273e-22)
(1.05977 0.0131234 -5.98619e-21)
(1.03184 0.0716053 -8.77399e-21)
(0.974994 -0.0215965 2.44148e-22)
(1.02338 -0.00580303 4.82044e-22)
(0.973855 -0.0271908 3.67762e-23)
(0.997616 -0.00271527 -8.32673e-23)
(1.23599 -0.172475 2.89592e-21)
(1.00076 -0.00148951 2.63831e-23)
(1.00027 -0.00836661 3.97737e-23)
(0.975272 -0.0157498 7.28038e-22)
(0.961617 -0.0289193 3.28271e-22)
(0.99756 -0.00292542 9.45973e-23)
(1.11678 0.29105 -2.77535e-21)
(1.03552 0.0864275 6.7197e-22)
(1.25315 -0.133185 1.32797e-21)
(1.12605 -0.0654088 1.19414e-21)
(1.00002 -1.68331e-05 -2.90086e-25)
(0.993831 -0.0150629 5.86795e-23)
(1.09721 -0.0325368 7.72365e-23)
(0.990893 -0.000356353 5.51478e-23)
(0.996443 -0.0306145 -3.44089e-22)
(0.9963 -0.00240524 1.1179e-23)
(1.00237 -0.00409271 -2.83257e-23)
(0.9957 -0.0051552 -1.05835e-22)
(0.99529 -0.00128455 -2.94056e-23)
(0.997527 -0.0137414 -4.43645e-23)
(1.00039 -0.00819079 -1.8938e-23)
(1.12755 -0.18966 5.024e-22)
(1.00004 -2.84545e-05 2.78208e-24)
(1.01433 -0.00937343 -4.68242e-23)
(0.999994 -4.45225e-07 -1.31357e-26)
(0.887417 -0.0254632 -1.10926e-21)
(1.00029 -0.000267559 6.97098e-24)
(1.04192 0.215292 8.1577e-21)
(1.20715 0.208781 -1.32012e-21)
(1.05151 0.0532751 -2.93808e-21)
(1.12423 -0.0645009 -8.28128e-22)
(1.0443 0.0610708 -2.97297e-22)
(1.03724 0.000977551 2.96171e-21)
(0.997821 -0.00474942 1.24602e-23)
(1.00218 -0.00213438 -3.80784e-23)
(0.999729 -0.000857638 1.18282e-25)
(0.994003 -0.00307771 7.12288e-23)
(0.963476 -0.0204112 2.86354e-22)
(0.992191 -0.0103181 -6.42159e-23)
(0.99358 -0.0151387 1.56925e-22)
(1.04611 -0.0563831 2.08799e-22)
(1.00028 -0.000259513 -8.56455e-24)
(0.999798 -0.000117912 -9.78791e-25)
(1.00017 -0.00015061 -6.30266e-24)
(0.998997 -0.00314342 2.55394e-23)
(1.03454 -0.000893394 1.19425e-21)
(1.04168 -0.0560232 -3.48054e-22)
(0.974937 -0.0155847 -7.78704e-22)
(1.00002 -0.000964797 -6.44914e-24)
(1.14331 -0.115728 3.11035e-21)
(1.00108 -0.00303152 4.95419e-23)
(0.999822 -0.000116163 -3.80719e-24)
(1.03231 0.0701351 1.25038e-20)
(1.04187 -0.00403851 2.20872e-22)
(1.00196 0.0362184 2.21477e-20)
(1.00005 -3.98065e-05 -2.63363e-24)
(1.00007 -0.000729348 0)
(1.00229 -0.00231923 5.61892e-23)
(0.987563 -0.04773 2.51511e-22)
(0.993615 -0.00869269 -7.21222e-23)
(1.07401 -0.139156 -9.13131e-22)
(0.958564 -0.00143478 3.88691e-22)
(1.0987 0.0462658 4.537e-21)
(0.989206 -0.00027296 5.06494e-22)
(1.12096 0.288898 -1.44342e-21)
(1.00112 -0.00298691 -3.60694e-23)
(1.00229 -0.00521792 3.75731e-23)
(1.00281 0.0601047 -6.00054e-21)
(1.16428 0.190546 -2.05421e-21)
(1.08525 -0.110435 -2.49752e-21)
(1.00335 -0.00290608 1.03875e-23)
(0.890124 -0.0311487 1.60667e-21)
(0.9891 -0.000343708 -2.91377e-22)
(1.00005 -4.23724e-05 1.12845e-24)
(1.01434 -0.00965282 5.4443e-23)
(0.910016 -0.0600796 -2.56334e-22)
(0.981742 -0.0484787 -4.18524e-23)
(0.938584 -0.00542629 3.03659e-22)
(1.04669 -0.0575454 1.2134e-22)
(1.1283 0.0074467 2.31016e-21)
(0.999994 -3.94089e-07 -4.56845e-27)
(1.00344 -0.00285068 -1.99599e-23)
(1.02833 -0.00963765 6.64961e-22)
(1.05581 -0.0245224 -6.65963e-22)
(1.03089 0.240683 -4.18754e-21)
(0.999999 -1.22468e-06 1.4355e-27)
(0.999936 -3.7768e-05 3.9537e-26)
(1.00227 -0.000201917 -1.00517e-22)
(0.981815 -0.0478124 -5.0943e-22)
(0.999188 -0.00123968 1.43467e-23)
(0.999862 -0.000669088 -2.32344e-25)
(1.14585 -0.0289823 3.61439e-22)
(0.829046 0.0322576 -1.50408e-20)
(1.19057 -0.0328548 2.19988e-22)
(1.00398 0.0468599 -5.52378e-21)
(0.973588 -0.00496899 1.70017e-22)
(0.99823 0.0188965 3.55357e-21)
(1.03367 0.0152111 3.69513e-21)
(0.995773 -0.00521368 4.1353e-23)
(1.13043 -0.126473 1.97884e-21)
(0.907747 -0.0357584 1.36323e-21)
(0.99539 -0.0268988 3.31086e-22)
(1.00115 -0.0128655 2.32348e-23)
(0.995922 -0.00957698 9.37607e-23)
(0.99813 -0.00135258 1.71217e-23)
(0.999788 0.0569964 -2.73329e-20)
(0.979821 -0.0449516 -7.1994e-22)
(1.06585 0.204963 3.92305e-21)
(1.03741 -0.0663449 4.15268e-22)
(1.05173 0.0520079 1.63789e-21)
(0.974761 -0.013047 2.93208e-22)
(0.984134 -0.0170417 -5.56624e-22)
(1.24626 -0.0541796 3.59136e-22)
(1.0342 0.0231398 3.90256e-21)
(0.996595 -0.00396683 -1.00591e-22)
(1.00007 -0.00358547 -6.50067e-24)
(1.00001 -0.00372542 9.39912e-24)
(0.99999 -5.94371e-07 -7.19407e-25)
(1.03931 -0.05689 6.6487e-22)
(0.962032 -0.0926669 -8.90557e-22)
(1.00028 -0.00062903 -1.0679e-23)
(1.08991 -0.0353238 -2.34748e-24)
(0.999605 -0.00100183 1.63873e-24)
(0.999602 -0.00102281 -9.42388e-24)
(1.00265 -0.000340132 -7.79359e-24)
(1.0386 -0.0653788 -2.47087e-22)
(1.00086 -7.37635e-05 -1.88404e-23)
(1.00177 -0.0103612 -6.00099e-25)
(0.96969 -0.00578071 3.66482e-22)
(0.994938 -0.00749644 5.77596e-23)
(0.994016 -0.00317768 -2.50255e-22)
(0.990553 0.116493 -3.73256e-20)
(1.15628 -0.0721162 -4.04529e-21)
(1.01304 -0.0183475 1.89678e-22)
(0.987473 -0.0208038 3.18559e-22)
(0.964136 -0.0566633 -1.03574e-22)
(1.00036 -0.00806898 9.33978e-24)
(1.00002 -3.78937e-05 -9.11108e-25)
(0.999999 -2.34968e-06 -1.78829e-26)
(0.945668 -0.0112068 5.80041e-23)
(0.908202 -0.0349319 -1.39004e-21)
(0.96285 -0.0393347 -2.34579e-23)
(1.00002 -3.66741e-05 -2.53421e-24)
(0.980881 -0.00843647 4.33343e-22)
(1.08996 0.00219829 3.32006e-21)
(1.28509 0.0169034 5.00838e-21)
(1.16719 -0.0350339 7.53072e-22)
(0.999958 -4.61124e-06 -6.39873e-25)
(0.963702 -0.0200917 9.60515e-22)
(1.00947 -0.0497684 5.236e-22)
(1.00012 -1.32834e-05 -6.65791e-25)
(0.999901 -0.000329278 -2.27746e-25)
(0.958803 -0.00107144 -7.11433e-23)
(1.00221 -0.000199188 -3.30045e-23)
(1.00083 -0.00673634 -4.15967e-24)
(1.04536 -0.131304 -3.77842e-22)
(1.00053 -5.13187e-05 -1.48448e-23)
(0.937009 -0.0772122 1.2059e-21)
(0.969514 -0.00603376 -3.71029e-22)
(0.973688 -0.00517952 3.01842e-22)
(0.976488 -0.0130042 1.09022e-22)
(1.00201 -0.0104021 -2.05295e-24)
(0.950148 -0.0416551 1.1734e-21)
(1.00034 -0.000589802 1.33915e-23)
(1.00002 -1.39101e-05 -1.2253e-25)
(1.00642 -0.00644894 6.50166e-23)
(1.13278 0.20763 -2.46448e-21)
(0.954128 0.0694034 2.87552e-20)
(1.01366 0.0589109 4.50308e-21)
(1.04129 -0.0568132 1.23471e-22)
(0.986478 -0.0177081 -1.11919e-22)
(1.01173 0.0661555 2.434e-20)
(1.01767 -0.0114693 -1.08014e-21)
(1.00029 -0.000527624 -9.16641e-24)
(1.031 -0.00157181 -9.08736e-22)
(0.981973 -0.0166753 1.2181e-22)
(1.18211 -0.00888182 7.49855e-22)
(0.995967 -0.00943163 1.15513e-22)
(1.03711 -0.00077232 -3.03984e-21)
(1.00127 -0.000136871 3.37275e-23)
(1.01423 0.0582622 3.04076e-21)
(1.00068 -6.33949e-05 -2.2832e-23)
(0.99352 -0.00936191 3.88388e-23)
(0.975092 -0.0131514 -7.98585e-23)
(1.02119 0.0877127 3.1571e-21)
(1.00033 -1.3128e-05 -2.39318e-23)
(0.983116 -0.0501882 6.75637e-22)
(1.0732 -0.137247 1.74527e-21)
(1.101 0.0463161 -3.5712e-21)
(0.997189 -0.0591187 -5.38775e-22)
(0.993405 -0.0086119 1.00943e-22)
(1.20133 -0.0745671 1.11985e-21)
(1.00007 -2.25211e-06 -2.07489e-24)
(1.25303 -0.130859 -5.49319e-22)
(0.994698 -0.00765417 6.21243e-23)
(1.02323 -0.0129338 -7.82876e-22)
(0.98813 -0.0477751 2.41264e-22)
(1.00346 -0.000280417 -1.21171e-22)
(1.29513 0.115437 1.60143e-21)
(1.03539 0.0880205 -6.93053e-21)
(0.940463 0.131926 1.31876e-20)
(1.04309 0.0605503 8.93925e-22)
(1.12577 0.110155 2.65201e-21)
(1.18523 -0.038479 1.51313e-21)
(1.27142 0.217597 -2.83143e-23)
(1.01794 -0.0113486 1.1999e-21)
(1.07863 0.120854 3.57091e-21)
(1.00217 0.0320323 -1.7168e-20)
(1.00072 -0.00680249 -9.92996e-25)
(0.998297 -0.00436478 -3.23639e-23)
(0.964008 0.0595946 -3.10534e-20)
(1.00003 -2.52948e-05 -5.15635e-25)
(1.26442 -0.101573 1.48182e-21)
(1.28801 0.02642 1.63593e-21)
(0.976899 -0.0218244 5.12221e-22)
(1.00132 -0.00277362 -3.64373e-24)
(1.05507 -0.0239746 -2.33381e-22)
(0.998203 -0.0020361 -3.00898e-23)
(1.00223 -0.00216383 -8.2817e-25)
(0.993196 0.159405 -6.43531e-21)
(0.864733 0.133788 1.19349e-20)
(0.999828 -1.15973e-05 -2.16236e-25)
(1.00035 -0.000590005 -1.3351e-23)
(1.10541 -0.0434732 1.00926e-22)
(1.00017 -0.0034107 4.3159e-25)
(1.27306 -0.0325036 2.79371e-21)
(1.15999 0.187643 -3.47263e-21)
(1.07492 0.0452465 8.10453e-22)
(0.999906 -0.000331411 2.88373e-25)
(0.994567 -0.0832384 2.14756e-22)
(0.995447 -0.0693811 1.20395e-21)
(1.00073 -6.33239e-05 1.47266e-23)
(1.02302 -0.0424017 -1.22257e-22)
(1.05734 0.00408541 1.15444e-21)
(0.876494 0.129467 -7.66946e-21)
(1.00012 -0.00354501 2.18627e-24)
(0.999999 -1.44761e-06 -8.08302e-27)
(1.07842 0.118879 2.63702e-21)
(1.02248 -0.0419768 -2.26027e-22)
(0.999823 -1.36017e-05 -5.17324e-24)
(1.04418 -0.0179513 -1.85873e-22)
(1.00897 -0.0156707 -3.36664e-23)
(0.995805 -0.00564895 -1.02219e-23)
(0.996995 -0.000106195 2.36314e-23)
(1.26754 -0.0820009 1.06382e-21)
(0.978567 -0.00783015 1.7656e-22)
(0.998229 -0.00200163 1.73539e-24)
(0.962128 -0.0289432 5.78395e-24)
(1.00036 -0.000569231 1.91839e-23)
(0.999836 -0.000121137 2.54313e-24)
(0.999996 -0.0157385 1.31339e-22)
(1.19957 -0.0105264 2.39957e-22)
(0.999703 -9.34658e-05 2.33239e-24)
(0.969734 -0.00645482 -4.44261e-22)
(1.00098 -0.00132143 3.73121e-24)
(0.99761 -0.0582836 -2.35975e-22)
(1.02112 0.088991 -4.09365e-21)
(0.999852 -0.000622967 4.31965e-27)
(0.701933 0.0512255 -9.46003e-21)
(1.10155 -0.081106 1.00942e-21)
(0.996638 0.0260098 3.94527e-21)
(1.19651 -0.0113264 -4.16155e-22)
(0.999284 -0.000397961 5.06044e-24)
(0.999964 -0.000104435 3.28481e-26)
(0.999427 -0.000440893 -9.72168e-24)
(0.99371 -0.00862143 7.71176e-24)
(1.02849 0.00350114 0)
(0.999404 -0.0130511 7.96629e-23)
(0.981369 -0.000600927 9.39237e-23)
(0.994735 0.184241 -2.1867e-20)
(0.91073 -0.0392289 -1.31129e-21)
(0.909864 -0.0388847 1.13306e-21)
(1.05237 -0.0413709 5.36432e-23)
(1.08907 -0.0398909 4.28664e-23)
(0.988343 0.137377 2.29384e-20)
(0.99932 -0.000469343 4.855e-24)
(0.983701 -0.0502664 1.36908e-22)
(0.97643 -0.0217854 -4.89582e-22)
(1.00026 -0.000263409 9.82549e-24)
(1.0301 -0.0545822 -1.56944e-22)
(1.00099 -0.00127116 -1.81543e-24)
(1.04013 -0.0572961 3.1773e-22)
(0.974174 -0.103952 1.87458e-22)
(0.798834 0.168933 -1.53577e-20)
(0.933888 -0.0766443 -1.1235e-21)
(0.997234 -0.00323466 1.41729e-23)
(0.97431 -0.0209846 -8.63216e-22)
(1.00841 -0.029056 1.09738e-23)
(1.1366 -0.0103382 -4.8465e-22)
(1.03785 0.000675419 -4.96332e-22)
(1.01575 -0.054406 6.98513e-23)
(1.00001 -5.24157e-07 -3.16139e-25)
(1.00405 0.0472359 6.93153e-21)
(0.982688 -0.00933107 -4.78881e-23)
(0.88607 -0.0186282 7.82551e-22)
(0.998793 -0.0123122 4.99892e-23)
(1.04478 -0.043104 -9.1104e-23)
(0.976614 -0.066526 1.111e-21)
(1.0065 -0.00632076 2.86288e-23)
(1.27116 -0.0141935 4.41308e-21)
(0.99882 -4.803e-05 3.43946e-23)
(1.02998 0.157989 1.13271e-20)
(0.999844 -0.0230807 -1.41876e-22)
(1.06026 0.00632812 -5.63081e-22)
(0.94062 -0.0111092 7.2414e-22)
(1.02651 -0.0042859 1.36542e-22)
(0.999989 -2.01064e-05 -4.97734e-26)
(0.972882 -0.0572052 -6.75845e-23)
(0.969569 -0.0066976 4.19039e-22)
(0.981115 -0.0465736 6.68778e-22)
(1.04414 -0.018642 -1.30897e-22)
(1.04388 -0.133053 -3.91617e-22)
(1.00037 -0.000568871 -2.17109e-23)
(1.08035 -0.230469 -8.09569e-22)
(0.998091 -0.00138599 -6.96594e-23)
(0.99998 -9.18701e-05 2.81974e-25)
(0.999432 -0.0128295 -8.81606e-23)
(1.00031 -0.000609982 5.50796e-24)
(0.871229 0.127897 1.03601e-20)
(1.00027 -0.000258366 -8.70808e-24)
(1.04239 0.213135 -2.47576e-21)
(0.973813 -0.0222218 -1.36052e-22)
(1.02559 -0.00348075 -2.56454e-22)
(1.00378 -0.00292137 -1.07035e-22)
(1.10882 0.0293278 4.04289e-21)
(1.00526 -0.00750265 -1.16625e-22)
(1.02507 0.036223 -2.9062e-21)
(1 -3.05318e-06 -2.31692e-26)
(1.03584 -0.0748917 -5.30967e-22)
(0.998419 -0.00633146 3.26376e-23)
(1.00227 -0.00505531 5.85135e-24)
(0.965956 -0.0234969 -2.04754e-22)
(1.00002 -1.9982e-05 1.22533e-24)
(1.24415 -0.00328465 1.55568e-21)
(0.906238 0.281647 3.34474e-21)
(1.28851 0.0281404 -3.56757e-21)
(1.00029 -0.000513937 1.78349e-23)
(1.18045 -0.105844 -1.25198e-21)
(1.02893 0.00393081 -8.89276e-22)
(0.982097 0.170945 1.59317e-20)
(1.00015 -0.00577845 -3.77544e-24)
(0.999646 -4.41026e-06 -1.94516e-24)
(1.10326 -0.042946 7.28602e-23)
(1.00021 -0.000191709 -6.10597e-24)
(0.948247 0.0608379 -6.46514e-21)
(1.00988 -0.049306 2.46142e-23)
(1.30045 0.122271 4.77673e-23)
(1.1182 0.0695588 -4.64837e-21)
(1.0002 -0.00017632 4.8567e-24)
(0.986399 -0.184394 -9.61245e-22)
(1.00975 0.0428113 -6.59968e-21)
(0.999836 -0.000115733 1.06195e-25)
(1.10249 -0.0287927 5.15082e-22)
(0.997518 0.00944185 1.91463e-20)
(0.996958 -0.000134736 1.883e-23)
(1.0034 -0.0163877 -1.37296e-23)
(1.00049 -6.86427e-05 1.12291e-23)
(1.00858 -0.0171962 -6.85433e-23)
(0.975197 -0.013572 3.70643e-23)
(0.991673 -0.000140764 3.20817e-23)
(1.07996 0.206775 -5.15628e-21)
(0.995307 -0.0263576 2.22785e-22)
(0.783825 0.239818 2.6998e-20)
(0.645173 0.0232983 2.58671e-20)
(0.996204 -0.000125377 -5.74983e-23)
(1.00006 -0.000561817 -9.3725e-25)
(1.06482 0.201921 -2.22468e-21)
(0.995722 -0.00536237 3.71801e-23)
(0.978117 -0.00535451 9.30818e-23)
(1.00032 -0.000610144 -3.13534e-24)
(1.07845 0.0506186 1.78023e-22)
(0.941132 -0.0110995 -1.044e-21)
(0.823012 0.132594 1.91538e-20)
(0.998501 -0.00561555 -4.64599e-23)
(0.999949 -0.00160288 -2.27256e-24)
(0.982734 -0.00955919 1.65754e-22)
(1.28211 0.00579821 4.59447e-21)
(0.995497 -0.0832239 4.27291e-23)
(1.15025 -0.0246155 1.24447e-22)
(1.06579 -0.0401132 -1.86338e-22)
(1.03594 0.0151485 -3.07209e-21)
(0.999745 -0.000170298 -1.51275e-24)
(1.25102 -0.0360274 -1.66086e-21)
(1.00002 -3.53944e-05 -1.65068e-24)
(1.00206 -0.00177938 7.08605e-23)
(0.999994 -5.91997e-07 8.95526e-27)
(1.25044 -0.130633 -3.19227e-21)
(1.08771 -0.110484 2.10092e-21)
(1.03069 0.0684426 5.50634e-22)
(0.99999 -7.42772e-07 7.33081e-26)
(0.942596 0.127957 -3.51882e-20)
(0.999449 -0.000177416 5.94729e-24)
(1.03061 -0.0539904 -1.8977e-22)
(0.999164 -0.00044954 1.73588e-23)
(0.908634 -0.0596716 5.07648e-23)
(0.987768 -0.0211266 -5.07609e-22)
(1.13102 0.0233659 1.38955e-21)
(0.999835 -1.46387e-05 6.87e-24)
(1.0302 -0.088139 -8.0919e-22)
(1.02401 -0.0420193 -1.63999e-23)
(0.986474 -0.0190983 -4.27917e-22)
(0.999973 -9.99089e-05 -7.16793e-25)
(0.999917 -0.00159053 -1.72845e-24)
(0.999711 -1.54666e-05 8.68954e-25)
(0.966879 -0.0684668 -7.64863e-22)
(1.00221 -0.004211 2.80091e-23)
(0.998484 -0.000878913 -1.707e-24)
(0.958161 -0.000345688 6.0931e-22)
(1.00012 -0.000285166 -6.97505e-26)
(1.00039 -0.000552753 1.7033e-23)
(1.00787 -0.0256196 -4.74061e-23)
(0.999296 -0.000401605 2.97175e-24)
(1.0127 0.0676953 -1.07288e-20)
(1.07285 -0.0038744 3.07285e-21)
(1.27663 -0.0143055 3.44635e-22)
(0.966509 -0.00102373 -7.69139e-23)
(1.02676 -0.111124 1.01382e-21)
(0.999994 -5.98698e-07 -4.03652e-26)
(1.20429 -0.074666 -1.32156e-21)
(0.972934 -0.103875 -7.94479e-22)
(1.00045 -6.78419e-05 1.70296e-23)
(0.963313 -0.0399907 -2.98051e-22)
(0.998258 -0.00587044 -3.59215e-23)
(0.953878 -0.0287146 3.28447e-22)
(1.20469 -0.145992 -9.40779e-22)
(1.00066 -6.44026e-05 -1.71082e-23)
(1.03953 -0.0657614 7.67369e-22)
(0.99998 -9.51169e-05 -1.12229e-24)
(0.993334 -0.00810002 -6.33384e-23)
(0.999481 -0.000182683 5.72169e-25)
(1.07156 0.107704 -4.70754e-22)
(0.989849 -0.0024841 -1.70422e-22)
(1.00018 -0.000341116 -1.22325e-25)
(0.999775 -0.000118659 2.42397e-24)
(1.03056 -0.0135688 7.88987e-22)
(0.946208 -0.0585852 1.09036e-22)
(0.995788 -0.00541927 -5.86985e-23)
(0.999989 -0.00165977 -5.0805e-24)
(1.0786 0.209786 -6.14124e-22)
(1.00814 0.113418 4.72836e-21)
(1.00234 -0.00499775 1.4328e-23)
(1.27353 0.0949932 1.44271e-23)
(1.16338 -0.125133 3.13339e-21)
(0.913875 -0.0643135 4.23989e-22)
(1.00007 -0.000553846 3.72451e-24)
(0.999993 -2.58511e-07 1.41438e-25)
(1.13305 0.203884 3.10819e-21)
(0.954514 -0.0244702 9.61527e-23)
(1.00013 -0.000284305 -2.99099e-24)
(1.25041 0.0464918 -8.33114e-22)
(0.998766 -0.000699427 2.10089e-23)
(0.999994 -5.52618e-06 2.02023e-25)
(1.103 -0.00331162 2.09399e-22)
(0.990462 -0.131108 -3.25568e-22)
(0.934847 -0.0763365 1.49739e-21)
(0.90421 -0.0586512 1.81272e-22)
(0.986077 -0.0446315 -5.02747e-22)
(0.991229 -0.000300074 5.83633e-23)
(0.978352 -0.00557668 -7.6328e-22)
(1.00132 -0.0125441 2.64085e-23)
(1.10116 0.0763708 -2.57418e-21)
(0.999717 -0.000867652 -2.8755e-24)
(0.989505 -0.0680196 2.30983e-22)
(1.11376 -0.00912969 1.67808e-22)
(0.999836 -0.000820908 -4.11806e-25)
(1.16034 -0.124255 -4.12932e-21)
(1.02652 -0.0545352 -5.11947e-22)
(1.07037 0.0468379 -6.56221e-21)