/*--------------------------------*- C++ -*----------------------------------*\
  =========                 |
  \\      /  F ield         | OpenFOAM: The Open Source CFD Toolbox
   \\    /   O peration     | Website:  https://openfoam.org
    \\  /    A nd           | Version:  7
     \\/     M anipulation  |
\*---------------------------------------------------------------------------*/
FoamFile
{
    version     2.0;
    format      ascii;
    class       volScalarField;
    location    "9";
    object      p;
}
// * * * * * * * * * * * * * * * * * * * * * * * * * * * * * * * * * * * * * //

dimensions      [0 2 -2 0 0 0 0];

internalField   nonuniform List<scalar> 
30084
(
0.0355858
0.348428
-0.0340999
-0.126662
-0.00944717
-0.143014
-0.00216382
0.0368991
0.00792839
0.000719388
0.028968
-0.0161847
-0.00188721
-9.99784e-05
0.455503
-0.0229394
-0.000649157
0.236764
-0.00837125
-0.0399285
-0.00336973
0.00744497
-0.0344123
-0.00828225
1.04935
0.346262
-0.00203054
0.917143
0.448206
-0.00586722
0.0609358
0.181526
-0.1818
-0.0217745
0.924451
-0.018622
0.411182
-0.102472
0.0218263
0.0211067
0.00168966
-0.0586849
-0.000576436
-0.0382962
0.000123842
-0.00508894
-0.0143301
0.0002919
0.0130219
0.401937
0.0293434
-0.112533
0.186495
-0.13885
-0.0224263
0.428002
-0.0131602
-0.00346456
-0.0142525
-0.043355
-0.000245049
-0.00810619
0.271941
-0.0157049
0.599736
0.996433
-0.0242957
-0.0314028
0.957183
0.00176224
0.343389
0.789485
0.00976708
1.0062
-0.0297654
0.121177
0.492683
-0.0927544
-0.000182868
-0.0422127
-0.130367
0.450959
0.0355038
1.06785e-05
0.00536771
-0.0509733
0.625923
-0.00195904
-0.00182457
-0.191957
-0.0724382
-0.093379
0.0120447
0.195224
-0.198838
0.645492
-0.0903838
0.00185148
-0.138185
0.505546
-0.000193102
-0.0874838
-0.000238115
0.142213
-0.115628
0.305549
0.698725
-0.00175345
-2.09113e-05
-0.157608
-0.18319
0.0643
1.09081e-05
-0.0056126
-0.00060793
0.775637
0.492326
-0.0433929
9.45182e-05
0.0111646
0.144269
0.36797
0.113185
0.995741
0.00427365
0.154239
0.246622
-0.0300149
0.0157894
8.81084e-05
-0.0344407
0.481057
0.789095
0.0768242
0.140351
0.0591196
0.711897
-0.0895351
-0.169159
0.493754
0.166712
-0.168239
-0.160802
7.7832e-06
-7.84641e-06
-0.00968319
-0.013329
-0.142322
-0.0896005
0.36302
0.103232
0.053269
0.00168535
-0.000518593
0.467063
0.00203432
-0.0281452
0.691712
0.543996
0.038927
-0.125298
-0.123316
0.439265
-0.000188892
-8.74734e-06
-0.0436282
-0.156569
0.000202384
5.40227e-06
-0.0259523
0.000140595
0.0222185
0.700831
-0.0882645
-0.0970221
-0.0190369
0.00812392
-0.0899316
-0.00446344
0.135339
-6.02055e-05
-0.00223706
0.623856
-0.0296751
-0.169929
0.475989
-0.0236951
-0.0662934
0.0147774
-0.00524081
-0.00108228
0.0113106
1.00794
0.460771
-0.0511797
-0.0270142
0.868943
0.423573
-0.195866
0.00449542
-0.0311903
-0.161913
-0.01532
0.00327236
0.71252
-0.0250851
0.026572
-0.143855
-0.161343
-0.000122782
0.836809
-0.00398156
5.50112e-07
-0.00210788
-0.0664112
0.308937
0.00187722
0.0258961
-0.00820421
-0.194839
0.000110959
0.0018129
-0.00882589
0.252132
-0.0105422
-0.005373
0.176374
0.000491194
0.000115612
0.0202325
-0.0970342
-0.080062
-0.0178779
0.340371
-0.0546988
0.0556359
-0.00010484
-0.011346
0.0030509
-0.0243065
-0.207621
-0.0052888
0.00181125
-0.00574298
0.0115025
-0.0390142
-0.000179106
-0.0400011
0.00016886
0.25556
-0.0127303
0.000560515
0.30925
-0.166453
0.000975271
5.34631e-07
-0.168638
-0.202921
-0.03298
-0.0344527
0.103491
0.602907
0.000304903
-0.0936652
0.135226
0.888677
-0.0299874
0.469959
0.130992
-0.000705257
1.1692
-0.00210124
-0.104696
-0.192228
0.00869201
0.233177
-0.0311662
0.79821
-0.0131503
-0.0653281
-0.000969141
0.584824
-0.00915214
0.654764
-0.00197495
-0.0218561
0.891195
0.224766
0.175908
-0.113867
-0.000589114
0.011135
-0.00068686
5.23361e-06
0.259585
0.00014652
-0.071355
0.127842
1.05882
0.782814
-0.148165
-0.0654651
-0.0765982
0.0549916
0.0137344
-0.0670592
-0.15449
0.613957
0.792043
-0.00493443
0.6902
0.253056
0.121221
0.0449121
-0.00414905
-0.00842671
-0.0203145
-0.0102028
-0.000223021
-0.00613973
0.118252
0.595102
0.00636626
-0.0983521
0.0522525
-0.000136928
-0.151231
1.10186
-0.0237981
-0.00505884
0.0477839
-0.0402393
0.346743
-0.00500262
-0.000121107
1.00045e-05
-0.0103135
0.896046
0.112319
-0.203577
2.98448e-06
-0.214679
0.233651
-0.0194646
-0.183121
-0.0046219
-0.0017153
-0.0892647
0.00361925
0.144314
0.0401879
0.44319
-0.000468293
0.00997968
0.364988
0.146841
0.00166189
0.00176461
0.77304
-0.0712209
-0.0055848
0.439969
0.900203
0.0179131
-0.0228364
0.314662
-0.00301014
-0.0324232
-0.0128551
0.416121
-6.69939e-05
0.0387148
-0.0572172
0.790014
0.997618
-0.0229928
-0.0337761
0.612616
-0.0454996
-0.000216187
0.424509
0.264517
0.268466
-0.0267123
0.0946465
0.912212
-0.118898
0.838617
0.794871
-1.35477e-05
0.117855
-0.106042
-0.0110774
0.00648659
0.906405
0.112908
0.00111063
-0.113169
-0.165686
-0.0214214
-0.000477696
0.673902
0.483672
0.000186424
0.0163015
0.0214825
0.0179365
-0.113202
0.000248602
-9.48183e-06
0.00196768
0.354109
-0.101807
0.637171
-0.178733
-0.0629284
-0.0814848
0.432638
0.274101
-0.00478405
0.0320646
0.00337235
0.849405
-0.0946342
0.00433956
-0.0288661
0.180204
-0.00514442
-0.0462464
0.000939053
0.000962759
1.11329
-0.0311095
-0.0193202
-0.00170529
-0.00293866
0.582199
-0.0546433
-0.0849069
1.96439e-05
2.11649e-06
-0.0977913
-0.0260387
-0.0202346
0.066421
0.0246453
-0.00839178
0.194226
-0.0663893
0.828788
0.0260698
0.000995663
-0.148521
-0.0833132
0.248241
-0.0128199
-0.0834643
-5.74257e-05
0.965633
0.0744474
0.000337463
1.00783
-0.0881123
-6.12691e-05
0.00587024
-0.151319
0.0653049
0.175761
-6.19259e-06
-0.0310499
-0.00357444
-0.0207949
-0.00189305
-0.031966
0.875618
-0.0314986
-0.0445803
0.485351
-0.0111129
0.868221
-6.8069e-05
-0.0568402
-0.144165
-0.0811387
0.0965633
-0.0059411
0.0128718
-0.000610156
-0.070399
0.0580913
-0.000128742
2.69097e-05
-0.0246326
0.818026
0.0335965
0.0102635
-0.198201
4.16443e-06
0.003992
-0.0001668
0.0410134
-0.0658647
-0.00157222
-0.0297701
-0.0474692
0.00416549
-7.19931e-05
0.17533
-0.00151142
0.216322
0.745597
0.618952
-0.012948
0.0242688
0.0971593
-0.000368496
-0.0127801
-9.05452e-07
0.801982
-0.0515869
0.0655036
-0.0648453
0.00821934
-0.0119972
-0.000427441
3.24222e-05
-0.0187127
0.187696
0.555231
0.00506962
-0.133143
-0.0941777
-0.0305278
0.362119
-0.00532564
0.00656397
-0.0218083
-0.000393083
-0.154607
0.603773
0.450212
-0.0837888
0.591796
0.000339483
1.67239e-05
0.420272
0.245126
0.997999
-0.117461
-0.0811658
0.192682
0.00481455
-0.0227515
0.00187929
-0.0408111
-0.0484408
-1.70224e-05
-0.0036213
0.78496
-0.000562489
0.941636
1.16226e-06
0.232262
0.208824
0.202726
0.00429675
0.000763484
0.802885
0.225343
-0.147633
0.458547
-0.0227518
-0.0505815
-0.0161907
0.625696
-0.0947871
0.0607694
-0.0285034
6.21045e-06
-0.00526743
0.0242257
-0.0676091
-0.0818728
-0.153596
-0.0683437
0.317682
-0.0086148
-0.190382
-0.052419
0.000156772
-0.0462229
0.0540229
0.322204
-0.100379
-1.63808e-05
-0.0685012
0.000309516
0.00575385
-0.103092
0.635708
0.00371612
-0.0455467
0.0207671
0.226042
0.862636
0.00750203
-0.0146964
0.590624
0.401157
-0.05327
0.0200726
-0.169027
-2.91586e-06
-0.151304
0.000347879
0.0153655
-0.000116902
0.000108625
-0.0194191
0.283609
0.760246
0.0587855
0.049037
-7.58254e-07
-0.0245976
0.000360808
-0.0128777
0.000109058
0.184233
-0.0019496
0.46602
-0.000523654
-0.0488471
-0.132332
-0.016977
0.857824
-0.0628786
-0.111669
-0.022227
0.15805
-0.142085
0.105294
-0.0204091
-6.81676e-06
-0.016981
-0.0158982
0.00102017
0.000347065
0.623998
-0.0195967
0.244096
-0.0130437
0.00354571
0.118555
0.000682951
-7.3464e-05
-0.149556
-0.0140585
0.000121547
0.592389
1.07152
-0.000867549
-0.127393
2.44407e-05
0.92201
0.231862
-0.12622
0.000180396
0.0613923
0.19544
0.22494
0.174347
-0.00164953
-0.000575426
-0.0572945
6.69801e-06
9.70351e-06
-0.0967451
-0.0867329
-0.15042
1.03405
0.00082774
-0.0757296
0.0311949
-6.63797e-05
-0.00478003
0.000136345
-0.0227273
0.000174805
-0.0143575
0.102176
0.86035
0.153762
-0.00114658
0.00189813
0.00401005
0.23926
-0.0124525
3.57951e-05
0.532369
-0.178746
-0.114044
-0.0535907
-7.56995e-05
-0.00113691
-0.182726
-0.0648759
0.387206
0.826056
-0.109292
-0.00515567
-6.27566e-05
-0.149391
-0.182309
-0.00083433
0.0164058
-0.0514837
-0.0186385
0.79071
-0.00526245
0.0482118
0.506244
-0.0302236
1.00174
0.991556
-0.000121323
-0.000129549
-0.0620812
0.0614142
-0.123242
0.0216236
-0.0292594
-0.002345
0.899535
0.456545
0.00935197
1.15566
1.87033e-05
0.297639
-0.152953
-0.071566
0.000389852
-0.127879
0.306199
0.0589559
0.204755
-0.00184539
-0.00197989
0.00745381
-0.0138609
-0.0506154
-0.00417016
0.377795
-0.0190605
-0.0205244
-0.202891
0.762817
0.147782
0.116448
-0.00164476
-0.00210088
-0.0725444
0.00408705
-0.0104563
-7.19337e-05
-0.00143038
0.306996
0.806294
-0.00052356
0.569466
-1.90433e-05
-0.013318
-3.3849e-05
0.0221082
0.161846
-0.000157034
-0.000161536
-0.182369
8.48964e-06
0.178879
-0.0798459
-0.000115744
0.480201
-1.80071e-06
-0.00163849
-0.000360201
-0.01976
-0.00147967
-0.02421
-0.167538
-0.00130978
0.0174275
-7.45793e-05
0.751154
0.0427465
0.148449
-0.116012
-0.0810009
-0.00439059
0.0120125
0.526238
-0.0862974
0.525175
-0.140884
-0.0137626
-9.34046e-06
-0.0225096
0.791058
0.515833
-0.109497
-0.176783
0.729581
-0.0325917
-0.148695
-3.43043e-05
-0.0833175
-0.00339607
1.13225
-0.139031
-0.000351532
-0.18925
-0.0887299
0.582104
-0.0103297
-0.0929603
-0.013707
-0.0180475
-0.00513193
0.57987
-0.206465
-0.0691825
-0.0547847
-0.0484558
0.0226467
0.719567
-0.0676089
0.45897
0.011182
0.105387
0.952468
-0.0331661
-0.000933927
0.593526
0.787946
0.00978686
0.107195
-0.0241387
-0.11456
0.588999
-0.151613
-8.36564e-05
-0.028503
0.000138465
-0.0175585
-8.86551e-05
-0.0158161
-0.00386679
-0.0120558
0.0463321
-0.00241209
-0.00202318
-0.0040976
0.495477
-0.00816696
-0.0127192
-0.0113988
0.434605
0.0210725
-0.00139599
0.784052
0.979625
-0.0705233
0.901346
-0.062253
0.741298
0.0216148
-0.0249533
0.0103004
-0.00182022
6.20638e-05
0.0103025
-0.0427782
-0.0705917
0.451103
-0.0814561
-0.0716245
-0.0036174
0.0706256
-0.0806926
0.0259063
-1.34991e-05
0.0599327
0.437201
0.782192
0.133956
-0.04741
0.369455
-0.00123604
0.128285
-0.0635956
0.00268275
-0.186647
0.0147663
0.741435
-0.00786251
-0.00206973
-0.000380018
-0.145291
-0.0044072
1.13711
1.16966
0.0443524
-0.000130334
0.031155
-6.30241e-05
0.243521
-0.00204196
0.0803877
1.06612
0.257109
6.61818e-05
-0.0290893
-1.34122e-05
-0.212405
-0.121355
0.894452
0.000866868
0.0427733
0.0151286
0.00107409
-0.00837039
-0.0011239
-0.0213797
-0.114114
-0.0796045
0.0325571
0.471305
-0.0463196
0.0234656
-0.0700691
-0.00582947
-0.0916411
4.13414e-05
0.000164473
-0.00787663
0.102005
-0.0794018
-0.0541897
-0.0129463
0.00981029
-0.0134964
0.640777
-0.0446278
-1.02068e-05
-0.180483
0.834734
0.0717094
-0.0415931
0.299586
4.95594e-06
-0.00242769
-0.0973993
-0.000104603
-0.00159551
-6.52905e-05
1.15518
0.0315447
0.0129625
1.51834e-06
7.51803e-06
-2.00522e-05
-3.44957e-06
-0.0780736
0.792044
-0.120316
-0.0015809
-0.000566185
-0.0159973
0.886575
-0.14612
0.833509
0.150581
0.356352
-0.000371932
0.87701
-0.00766969
-0.0319295
0.107418
0.0367345
0.0405233
0.456806
-0.138252
0.867797
0.673227
-0.0267196
-0.0886241
0.041817
-0.0987341
-2.1445e-06
-0.00321531
0.00956182
0.206379
-0.0220745
-0.0783803
-0.0108029
1.03153
-0.161546
-0.000107207
-9.28177e-05
0.90199
-0.0167209
0.0121923
-0.0444131
-0.0076697
-0.0500705
-0.0322944
0.0896841
0.343451
0.157822
-0.0332988
-0.0466374
0.000287391
-0.0192574
-0.00168902
-0.0265597
-8.86207e-05
0.00018941
-0.0381315
-0.0655405
0.859799
-0.0179403
-0.000641539
-0.00496017
-0.00103991
0.779486
0.0760475
-0.000109665
-0.077413
-0.0149534
-0.0114215
-0.0898197
-0.107355
0.0225093
0.18553
-0.156681
0.000243101
0.0195085
-0.0443984
-3.0185e-05
-0.000201464
0.299801
0.238252
0.165804
-0.162375
-0.142499
0.00172829
0.941923
0.000272288
-0.0406988
0.805717
-0.0559417
-0.116866
1.1869e-05
0.000526866
-0.115631
-0.0305265
0.00450826
-0.107359
0.539781
0.673221
0.00220132
0.000839895
0.539812
-0.0405939
-3.19585e-05
-0.00466721
-0.0912274
-0.0665184
-0.0273063
-0.00318498
0.573099
4.46456e-05
0.211435
0.637251
0.000116582
0.0471459
-0.00141737
-0.151012
-0.0437913
-0.00212149
0.0814632
0.000661836
0.536169
0.00445618
0.0676237
0.123647
1.05953
0.747589
-0.174351
-0.021969
1.19941e-05
0.206248
-0.0404696
0.398348
0.72626
-0.106555
0.0436704
-0.0479511
-0.0182763
0.353425
-0.000571878
0.89136
0.0759064
0.00015103
0.000120374
0.000307215
-0.0364863
-0.0501363
0.00219348
0.266407
0.35759
-0.160425
0.00200651
0.000208983
-0.0634284
-0.00010945
-0.00789279
-0.0299801
-0.00156113
0.215753
0.0133963
-0.00373404
-0.0104233
-0.0430899
0.747544
0.765283
0.105936
-1.40582e-05
-0.00148235
0.563209
-0.00123334
-0.0930468
-0.000547074
-0.05324
-0.181051
-0.000542752
-0.000616641
-0.0835066
0.00404226
-0.000195729
-0.00354581
0.506528
-0.0933207
-9.48394e-05
0.2436
0.738561
0.764717
0.00182933
-0.111417
-0.0249792
0.830759
-0.162868
-0.166348
0.0205226
-0.0346099
0.0793171
-0.0685063
0.763782
0.251533
-0.000459863
-0.144274
-0.199109
-0.00991406
-3.53141e-06
-0.00456069
0.478474
-0.000492164
0.0361104
-0.0103924
-0.00313966
0.0242056
0.0752096
-0.000477901
-0.000323932
-0.0118537
-0.145435
-0.0927838
-0.1757
0.53675
-0.00181126
-0.000717077
-0.0902183
-0.0626677
0.027526
0.0354211
0.000206996
0.1832
0.355607
0.0489643
0.0656711
-0.001651
-0.0351632
0.233499
0.00346415
-0.000115912
-0.023177
-0.0105668
-0.00191018
-0.0281132
-0.00221039
0.637697
-0.0235588
-0.199313
-0.061131
-0.0280839
0.0307079
0.918813
-0.116775
-0.000312067
0.87255
0.39053
0.0202845
-0.0153413
0.0197538
0.160269
0.371273
0.000926085
-0.00512791
1.06186
0.618769
0.716926
-0.114805
-0.00364762
-0.00320733
-9.64864e-05
-0.00336493
0.675556
0.205351
0.0225474
-0.0041765
-0.000916348
0.0974066
1.00084
0.80279
0.199166
-0.00735424
-0.17075
-0.00771908
-0.00188091
-0.0429518
0.0481029
-0.0715256
-0.00917341
0.00247168
-0.191267
-0.151715
0.0770089
-0.0631476
-0.00137494
-0.0680737
-0.000519341
-0.0177415
-0.00179147
0.740862
0.000133075
6.91184e-06
-0.034905
-0.0515069
-0.0752458
0.0994523
0.000141349
-0.194881
0.181429
0.452779
1.12594
-0.0118615
-0.121889
0.0802434
-0.00532565
0.266333
-0.00155013
0.0275053
-0.000492921
0.610149
0.0319808
0.027818
0.358886
0.2807
0.00396605
0.00952199
9.99703e-06
0.84246
-9.91494e-07
-0.119031
0.000887501
0.00461746
0.430625
0.251743
-0.162464
-0.102269
-0.0102364
1.16288
-0.174449
1.22119e-05
-0.0397906
-0.000101945
-0.0244052
0.25651
0.450336
0.00233375
-0.0912306
-0.0241199
0.350007
0.261385
-0.0841208
1.04125
-0.0253302
0.000176432
-0.126984
1.07102
0.00705226
0.226626
-0.109417
0.376662
0.00491075
0.104197
-0.204468
0.0168743
0.138481
-0.0307228
0.51906
-0.0673713
-0.0494036
-0.0020423
-0.00206209
0.949455
-1.32243e-05
-0.0120061
-8.24688e-05
-0.0206746
0.000929193
-0.0183582
0.598415
2.95198e-07
-0.0026254
0.390181
-0.188484
-0.05313
0.00306274
0.805935
-0.110625
0.398831
-0.0305257
0.366422
0.0198875
-0.00190699
0.0793105
0.00202614
0.971755
-0.0666582
-0.000293813
0.00586258
0.337079
-0.028758
-0.00178126
-0.000323701
-0.155775
-0.00665397
-0.0243712
-0.172431
6.18184e-06
-0.180936
0.00114904
0.731013
-0.0254938
0.354087
0.0123972
-0.00931583
0.612103
-0.103555
-0.116975
-0.0108337
-0.157133
0.628486
0.663244
-0.0359677
-5.89719e-05
-0.0395001
0.0120139
3.13866e-05
0.228394
0.775954
0.0324279
0.00411257
0.0357138
-0.184027
-0.000430564
0.219622
0.133301
0.204872
0.0342464
0.0714051
-0.000988684
0.40883
0.0556916
-0.192879
-0.00257302
0.0669063
0.352636
0.00209035
-0.19067
0.494883
-0.0840581
-0.192566
-0.202227
-0.104172
-0.110806
0.133703
0.492891
-0.156202
-2.54581e-06
0.00241781
0.0708065
-0.00459112
0.0412474
-1.31784e-05
-0.014666
0.0102792
-0.000179277
0.14298
-0.00131879
0.291212
-0.0809531
-0.00917856
-0.0176493
-0.0220797
-0.160948
-0.0151228
-0.0024937
0.0543963
0.199379
0.0128227
-0.0860184
-0.00759211
0.0776096
-0.0243463
-0.0495666
-0.197716
-0.0409785
-8.76436e-05
-0.0391892
0.869813
8.19661e-05
0.432247
-0.0515336
1.02237
0.124111
-0.123334
-8.74888e-07
0.00438894
-0.194362
-4.95403e-05
-0.00696542
-1.11153e-05
-0.170177
0.0117485
-0.146877
-0.0596862
-0.000322836
0.598785
0.576501
-0.0913391
0.00117561
-0.00044222
-4.36746e-06
-0.000148336
0.944934
-0.00341146
0.00592159
0.0557563
0.00248231
-0.00152612
-0.202434
-0.000595793
0.127667
0.0121647
-0.00534672
-0.0018982
-0.067053
-0.107255
0.427259
0.301838
-0.000419739
-0.0338236
0.00143016
-0.0367854
-0.00115282
0.344463
-0.0155914
1.16791
-0.023817
-0.00375899
0.187408
-0.0490654
0.723946
-0.108951
-0.0293423
-0.033671
0.046972
-0.00920642
2.09067e-05
-0.0214285
0.660349
-0.115715
-0.00843951
-0.109834
-0.0709119
0.356746
-0.00131293
0.615811
0.00538742
-0.157633
-0.00137479
0.0344509
0.119608
0.00556925
0.719467
-0.00122317
0.0839814
0.218263
0.00135338
-0.000343284
1.0017
0.199951
-0.000149914
0.0781917
0.0719782
0.000344642
-0.0389782
-0.0569971
-0.189711
-0.0258216
0.696156
0.0119889
0.480709
-0.00103263
0.80474
-0.18822
-0.0138674
0.016251
0.0803555
-0.150243
-0.105435
-0.0224267
0.000135548
1.07838
-0.0592007
0.00215697
0.0162029
-0.10466
0.729693
0.00788024
-0.0426665
-0.000143114
0.279983
0.0211276
-0.101334
0.0021435
-0.00911798
-0.0740021
9.8455e-05
-0.137038
-0.00407371
-0.038678
-0.169187
0.61699
-0.026813
0.208465
-0.059339
-0.0784543
-6.35631e-05
0.00038877
-0.00967979
0.000102624
-0.0295688
0.193617
-0.0053805
2.76114e-06
0.97237
0.0132138
0.000897465
-0.000102012
-0.00558474
0.709722
-0.141729
1.07943
0.431292
0.059129
0.612893
-1.40821e-05
-0.0359556
-0.00221166
-0.0065308
0.448445
-0.0256676
1.09015
0.57216
-0.14751
0.585609
0.0248947
-0.0370609
0.00590932
-0.0510269
-0.0104853
-0.137477
-0.1511
-0.00795873
0.582473
-0.026049
0.00037608
-0.0113326
-0.00176176
-0.0922224
-0.000435786
-0.00331602
-6.96932e-05
0.379529
-0.09216
0.598729
0.0763106
-0.00722042
-0.0784777
-0.0517809
0.182493
-0.00812361
-0.00281936
-0.175549
-0.117517
0.0374349
-0.114867
-0.0119126
0.0521015
0.0100174
9.17926e-05
0.339654
-0.000106503
0.143972
-0.00214098
8.8381e-06
0.00523721
-0.00177752
-0.0032502
-0.041471
0.447864
0.354352
-0.053058
-0.0332095
0.00768675
-0.013688
-0.0271104
0.00021639
-0.0013074
0.00183735
0.279696
-0.0218012
-0.145672
-0.109188
-0.00508306
-0.0468129
-0.0183133
-0.00457513
0.0140994
-0.0331383
0.54958
-0.164295
0.0176219
0.00797376
-0.0981236
1.06419
-0.0263585
-0.00897124
0.0206162
0.205754
0.0106611
0.00812327
0.585238
-0.000974808
0.117999
-0.0559076
-0.111285
0.0167821
-0.00980896
-0.0147113
0.107538
-0.00965078
-0.00165764
0.0098768
0.00691444
-0.000619705
0.104612
-0.0248443
-0.00543439
-1.38109e-05
0.383402
-0.000103284
-0.0746544
0.199403
-0.0569659
0.000389358
0.276331
-0.0771959
0.409586
-0.000128038
-0.0102724
0.332866
0.000470881
0.0131519
-0.0120054
0.0276461
-0.0547597
-0.0865159
-0.0210616
-0.00716375
0.0262313
0.0539797
0.373822
-0.000495997
0.286828
-0.107246
-0.00865509
-0.0185296
0.00107248
-0.110562
0.000199356
0.876614
0.536476
-0.0013093
-0.0556536
0.000673712
-0.00573232
-0.0127311
-0.026279
0.380077
0.448801
0.0964674
0.0269984
-0.196548
0.104742
0.219398
0.259585
-0.136869
0.0534825
0.514792
-0.0253656
0.780732
-0.00245431
-0.0290965
-0.120108
-0.00024659
-0.0019987
-0.000104001
0.77547
-0.0274263
0.000718937
-0.0408481
-0.00963873
-0.000861636
-0.0348868
0.648161
0.00271243
0.0292476
-0.0690554
-0.0011606
-0.0121633
-0.00212688
1.10178
0.000560808
7.35074e-05
-0.00479929
-0.0361879
0.354453
0.00144276
0.058449
0.199884
-0.000391365
0.00569314
-0.195114
0.287922
-0.061411
2.89087e-06
0.00091908
0.0519797
0.0852648
0.670913
0.231091
-0.0923119
3.30926e-06
-0.111017
-0.00695013
-0.0325365
-0.0314221
0.416498
0.848478
-0.00027767
0.357233
0.539872
-0.0255468
0.00713463
-0.0548973
-0.0195425
0.000292433
-0.105859
-0.0220088
-0.000284817
-0.00140863
-0.00412174
-0.00498365
-0.00175525
0.662661
0.718999
0.516057
-1.05675e-05
-0.0610533
0.202082
0.262404
0.886567
-0.00128009
-0.0527689
-0.0483032
0.698443
-0.0496232
-0.0239297
0.0509381
0.364915
0.00079951
-0.0012454
-0.0615952
-0.0797517
0.384507
0.17014
-0.0914352
-0.0569624
0.371674
0.0548645
-0.122615
0.0182949
0.219833
0.423197
-0.000898815
-0.0016084
0.306666
0.000543562
0.139777
0.0812625
-1.35873e-05
0.676699
-0.0267854
-0.0115922
1.12023
-0.0958261
-0.0178028
-0.0977063
-0.00594643
0.841869
0.00305293
1.06568
-0.000344427
0.0133746
1.08803
0.0179225
0.841343
-0.0149556
1.28117e-05
-0.0425227
0.86693
-0.0041008
-0.0172639
-0.0209428
-0.00260403
-0.0540252
0.860002
0.293666
2.20818e-05
0.0541554
-0.00971771
0.0780884
-0.0022994
0.059384
-0.00685618
-0.00117133
0.822557
0.882181
0.828837
-0.134403
0.247268
0.000391064
-0.14962
0.611108
0.0487322
0.00064393
-0.108924
0.0015561
-0.00026671
0.873861
0.00033456
0.0111326
-0.00497443
-0.0226383
0.835308
0.866029
0.881582
0.03115
0.00127932
0.491395
0.0197103
0.078244
-0.0235913
0.000186504
-0.00760381
-5.46188e-05
-0.0117465
-0.00191935
-0.014516
-0.000156508
0.356048
0.005523
-0.147667
-0.0231629
-0.186657
-0.042112
-0.00199066
0.738347
-0.0278664
1.16456e-05
-7.00908e-05
1.05253
7.78417e-05
0.0296628
0.15842
-0.0464439
0.657518
-0.0134628
-0.112738
-0.0945512
-0.00115406
0.000332427
0.555783
0.878619
-0.00397679
-0.0498516
-0.000596452
0.875723
1.02178
-0.00369887
-0.016325
0.0497405
0.00827495
-0.062683
0.000188782
0.0262809
-0.0961731
0.160537
0.750524
-0.00383036
0.0733395
0.342338
0.196312
-0.114993
0.0734677
0.99591
0.45587
-0.140874
0.889097
-0.00148935
0.885614
-0.016799
0.757597
0.212981
-0.0129929
0.110633
0.00628858
0.0454621
-0.191192
-0.00171778
-0.0597623
0.767286
-0.0657087
0.0846651
-0.00377579
0.144433
0.445297
-0.0233721
0.155373
0.00187125
-0.00913907
-0.061102
-0.00553071
0.0052595
-0.0226876
-0.00127564
0.0063155
0.75316
0.00594847
-0.0410162
-0.14529
-0.0735051
-0.166023
-0.169163
0.0109271
-4.46198e-06
-3.78448e-06
0.57553
-0.113494
0.000161462
-0.0155379
0.404195
-0.148118
-0.0379008
0.000306234
-0.00483637
-0.11917
0.369542
-0.0193559
-0.0012168
-0.118926
-0.0481108
1.0894
0.262482
0.180415
-0.117233
-4.34873e-06
-0.0171457
0.160048
-0.000926383
5.08943e-05
0.393464
0.2526
0.00160556
-0.00217345
0.0266156
-0.0762422
0.0268962
0.0226875
-0.0382741
0.000143454
0.664941
0.00152776
-0.00146468
-0.000583651
-0.000548151
-0.000381995
0.197242
0.00256173
-0.00709545
-0.0241205
-0.011025
0.0736339
-0.0135991
-0.105446
-0.0261974
0.814784
0.694434
-0.00122542
-0.00366073
0.244923
-0.0020508
-0.0460235
0.222663
0.328667
-0.0024347
0.0515697
0.0998046
0.00344328
0.309748
-0.000249614
0.0188141
0.0359969
0.0353872
-0.0358864
0.118912
0.000194703
0.00373098
0.000737862
-0.000112078
-0.00343522
-0.0242096
-0.0319337
-0.0718964
0.209787
0.104149
0.0228844
-0.138702
0.0333321
0.0245692
0.0330406
0.000155547
0.858539
-0.0203739
-0.00812011
0.0654868
1.10224
1.70774e-05
0.274052
1.21792e-05
0.00757838
-0.0158579
-0.0522388
0.391072
-0.00983755
-4.24646e-05
0.486407
0.169517
-0.00135974
0.125111
-1.99085e-05
0.358084
0.0209137
-0.0678108
-0.000341766
0.538642
0.0701844
-0.050286
0.000106783
0.3726
0.649344
-0.00275163
-6.95671e-05
-0.0875412
-0.0220843
0.039449
0.072846
0.890115
0.555394
0.00121422
0.716781
0.550787
-0.00692649
-0.139911
-0.0701848
-0.0340163
-0.112212
0.419756
0.0020518
0.924809
0.35278
0.0308403
0.000252349
0.00158646
2.3918e-05
-0.00133877
-0.00671593
0.986963
2.73538e-05
0.182448
0.0653054
-0.000540802
0.929199
1.02382
0.43129
0.486321
0.15755
0.00608603
-0.00067857
-0.0265675
-2.29628e-05
-0.00264708
-0.194407
-2.27041e-05
-0.00349064
0.945159
-0.0279205
-4.08897e-05
0.970978
0.00115554
-0.0866871
-0.167165
-0.00314249
-0.154773
-0.000553764
0.409349
0.00816433
-0.0367196
0.00471013
-0.0015355
-0.000918821
-0.000522387
-0.21064
-0.14427
0.333575
0.00700532
0.00491767
0.52038
0.000190048
1.06761
-0.00116645
-0.21377
0.00549555
0.00396047
0.119092
0.12646
1.62597e-05
-0.00972173
0.000269646
-0.00159931
0.00207172
0.192116
0.114043
0.657844
-0.0741093
-0.000229427
0.000422207
0.220705
0.733555
-0.0106507
-0.0149929
1.06132
-0.00662889
-0.0494585
0.0025231
0.228381
-0.0637713
-0.0202935
0.340228
0.00325175
-0.000571767
0.00400027
0.136302
1.05887
0.853473
-0.0578171
-0.0753347
-0.014992
0.00378158
7.21958e-05
0.171644
0.452888
2.27625e-05
-0.0173191
-3.81043e-05
0.000343086
0.815674
-4.45741e-07
-0.159853
-0.114164
-0.157452
0.161317
1.9582e-05
0.0239997
-0.0141
0.763747
0.0836743
0.0120129
-0.0714293
0.00155162
0.729512
0.436655
0.0276126
0.157655
0.956224
-0.149581
-0.130468
-0.0045155
-0.016674
-0.000867077
0.0781826
-0.000132924
0.356052
0.0070411
0.454644
-0.0786864
-2.114e-06
0.144353
-0.000381277
-1.2659e-06
-0.00175884
1.04197
1.00438
0.683828
0.000149807
0.456767
0.88248
-0.00229865
0.00657686
-0.0200583
0.252145
0.875717
-0.065414
0.268535
-0.00567934
-0.157543
-0.178577
1.13575
-0.00141007
0.855148
0.198925
0.402669
0.000309821
0.000523315
0.0130622
-0.0210989
0.193552
-0.000114961
0.000169473
0.8384
-0.146887
0.00072466
0.874075
-0.00544483
0.000385943
0.747243
-0.0139376
-0.00348154
0.183343
0.40612
0.000777232
-0.000292005
0.00858412
-0.00957616
0.836162
1.03749
0.618708
1.10828
0.378114
-0.110983
0.963507
-0.000171272
-0.00745987
0.417602
-0.00797442
-0.00152439
-0.000225716
0.874554
0.115658
-0.00151186
1.01135
0.169649
0.58863
0.102022
-0.00640802
-0.0482699
0.384848
0.179006
0.878714
-0.0509221
-0.00182841
0.811817
0.783697
0.0328982
0.663404
-0.0858383
-0.0184195
-0.0210883
-0.00148853
-0.000314013
0.818375
-0.144878
0.14684
0.00252389
0.342803
-0.075271
-0.0245215
-0.00215561
-0.00765734
0.902307
-0.00186356
-0.0404538
-0.00701018
0.896164
-0.0440167
0.0468528
-0.0176033
0.00332909
0.329565
-0.0521526
0.914162
0.402861
1.10628
0.503639
-0.146143
0.0719729
-0.00412378
0.0692397
0.103101
0.845917
0.895919
0.985386
0.677816
0.824955
-0.000824689
0.940518
-6.28443e-05
0.000173492
-0.113741
1.01011
0.114073
0.528846
3.61649e-05
-0.00502921
0.031022
-0.0731899
0.831536
-0.00157945
-0.0180526
0.683203
0.0024576
-0.00984223
1.07659
0.10815
-0.0703009
-0.0666475
-0.00122937
0.268291
0.400463
1.11887
0.342346
0.216603
0.0107069
-0.000539977
0.011884
0.400927
0.0179798
0.000318756
-0.0513988
0.486589
-0.00343952
0.862507
-0.142198
0.869072
-0.00440918
-0.0526092
0.958461
-0.0124185
0.224834
-0.000926401
-0.00304266
-0.156351
-0.0526165
-0.0862899
-0.0224836
0.0614403
-0.0663226
-0.169932
0.871895
0.000640516
0.00180619
-0.0459946
0.269342
-0.0962637
-0.139093
1.85984e-05
-0.0517356
0.109154
-0.000228544
-0.147907
0.173709
0.872945
-0.135977
0.865131
-0.0315511
0.298797
0.495086
-0.0824777
0.679568
-0.00386332
0.289739
0.00451802
0.186535
0.411129
0.357791
-0.0647734
0.0144058
-0.0014324
0.365065
-0.000182653
-0.00028732
-0.00240262
0.060161
0.0446681
0.034822
0.752305
0.354564
1.05386
0.705459
-0.00352311
-0.0771617
-0.000369635
-0.108442
-0.00246143
0.0133878
0.0015037
-0.0662931
0.643631
0.849408
-0.000661949
5.49164e-05
0.204224
-1.39918e-05
-0.0209773
-0.000401396
0.312004
-0.0826707
0.376981
-0.156521
0.000103407
-0.0320988
-0.0920839
-0.0507117
-0.0376259
-0.124146
0.176579
-0.000366817
-6.71895e-05
0.00481919
-0.000300678
0.203029
0.325117
0.0925712
0.989844
0.103195
-0.179875
-0.207694
-0.000988414
0.113268
-0.000270412
0.820551
0.211384
0.937407
0.00034313
-0.0746456
-0.0155628
0.117313
0.499173
0.772474
-0.0171936
0.090911
-0.0043978
-0.0389162
-0.0182739
-0.013911
0.224562
0.00366116
-0.0143513
-0.0462143
0.569007
0.170892
1.05811e-05
-0.00200899
-0.0141535
-0.00137715
0.273611
-0.00151186
-0.040386
0.338151
0.000187856
0.521594
0.00021131
-6.46656e-06
-0.181461
-0.0263456
0.000393611
-0.0513357
0.000414253
0.97524
0.028375
-0.0561588
0.903143
0.262245
-0.0725865
0.740968
-0.00627065
-0.0042382
-0.00472815
0.196912
1.17265
-0.0033675
-0.00132612
8.14762e-06
0.0178814
-0.00282633
0.0565502
0.013956
-0.0480536
-0.136234
0.0421336
0.0252107
-0.0421002
-0.00121224
0.0655374
0.758987
-0.00406417
-0.0313625
-0.000514528
0.751812
0.127912
0.749504
0.00100248
-0.00190849
-0.0531124
0.98968
0.299364
-0.0645043
-0.000286648
0.0716287
0.28028
-0.00125906
0.419285
-0.110991
0.0486221
-0.184001
0.770664
-0.0319754
0.484779
-0.00715914
1.1212
-0.0949746
-0.0249898
0.917912
-0.0989184
0.333559
-0.199881
0.362948
0.0146455
0.111535
0.619405
0.109805
-0.111973
-0.0219799
-0.0166859
-0.0126192
0.0745495
-0.0030653
-0.12516
-0.0652768
0.00459344
-0.152523
-0.190556
-7.50672e-05
0.375738
-0.020636
0.401599
0.935702
0.70824
-0.124901
-0.162302
0.00107222
-0.112372
-0.0086095
1.0866
-0.0807354
-0.0696856
0.697994
0.104681
-0.0874878
0.51148
-0.0847822
-0.00140913
-0.0266019
0.022885
0.00158984
0.729626
-0.00611622
0.286643
0.684077
-0.0130097
0.460786
-0.15857
-0.000836454
0.0152823
0.242698
0.69106
-0.00571821
0.204591
-0.155768
0.17612
-0.0519518
0.709183
0.0543791
-0.024301
-0.00579526
0.000431399
0.859387
-0.00551554
-0.0456468
-0.000232243
0.406277
-0.000133689
-0.0894649
0.00107849
-0.109157
0.0015513
-0.0220664
0.452303
-0.00876192
0.00211393
0.00149811
-0.00924248
0.188922
-0.000175896
-4.53349e-05
-0.0192422
-0.023888
-0.05002
0.0184162
-0.00430769
0.16282
0.168593
-0.00285018
0.00232268
-0.000435927
0.850144
-0.00953034
-0.0153842
0.760511
-0.0411066
0.716817
0.129166
0.864565
0.444748
0.244678
-0.0033699
0.0193103
0.174424
0.0571805
-0.00988904
0.000440314
0.0190987
-0.112568
-0.00215068
-0.018789
-0.0181707
-0.0199075
-5.95335e-05
-0.00739044
0.000153725
-0.000163125
0.00198153
0.63406
0.451455
-0.025089
-0.00635988
-0.107638
-0.0470368
0.563165
0.783324
-0.113936
0.00467907
0.408799
0.00842558
0.00137605
-0.168138
-1.07483e-07
0.249656
0.333497
-0.00147992
-0.081398
0.000485371
-0.0177968
-0.0175502
0.204905
0.0542722
-0.120417
-8.95291e-05
0.024444
0.00397292
-0.0773208
0.0126895
0.876381
0.000857921
-0.00885118
-0.0724564
0.539455
0.629606
0.685641
0.133869
0.000132199
0.0150108
-0.00143707
-0.00319251
-0.00216877
0.201463
0.424697
-0.0273631
-0.0762821
0.635731
-0.00938419
-0.0126951
-0.133263
0.185824
-0.00217721
0.18795
-0.0317485
0.220541
0.315646
-0.134314
0.00115475
-0.0102707
0.224499
0.0030661
-0.000146713
0.38177
-0.000904371
0.719322
0.615595
-0.19863