/*--------------------------------*- C++ -*----------------------------------*\
  =========                 |
  \\      /  F ield         | OpenFOAM: The Open Source CFD Toolbox
   \\    /   O peration     | Website:  https://openfoam.org
    \\  /    A nd           | Version:  7
     \\/     M anipulation  |
\*---------------------------------------------------------------------------*/
FoamFile
{
    version     2.0;
    format      ascii;
    class       surfaceScalarField;
    location    "9";
    object      phi;
}
// * * * * * * * * * * * * * * * * * * * * * * * * * * * * * * * * * * * * * //

dimensions      [0 3 -1 0 0 0 0];

internalField   nonuniform List<scalar> 
44730
(
-595.368
666.256
-70.8879
1061.95
-1071.84
9.89718
-335.05
382.387
-47.3371
227.416
-260.001
32.5848
-498.538
498.538
220.917
-264.314
43.3962
-370.159
371.086
-0.926667
24.9001
-562.558
537.657
663.549
-833.473
169.924
-1009.28
1102.26
-92.9712
554.429
-142.739
-411.69
-531.555
536.829
-5.27352
-687.859
582.676
105.184
-859.815
868.876
-9.06122
247.281
58.4811
-305.762
385.867
-10.4564
-375.411
814.61
-666.86
-147.75
-389.807
398.451
-8.64369
161.239
314.784
-476.023
290.712
-357.323
66.6114
-594.066
81.6603
512.406
724.413
-60.8645
49.9991
-385.049
136.559
-489.529
352.969
245.42
-141.538
-103.882
1066.69
-4.73973
659.865
-681.011
21.1466
-272.235
-14.6461
286.881
284.227
-36.9458
-441.701
543.925
-102.223
951.807
-249.493
-702.314
-668.04
757.473
-89.4336
247.662
-227.248
-20.4137
478.967
-69.558
-409.409
144.474
-416.709
268.319
-432.143
163.824
425.988
-573.385
147.396
292.085
-38.3653
-253.72
824.276
-978.687
154.411
1061.56
-237.282
-1018.11
1035.67
-17.552
403.625
-92.7579
-310.867
704.023
110.587
194.102
-311.581
117.479
1228.47
-777.704
-450.768
-591.342
149.641
539.02
-538.859
-0.161398
230.506
645.523
-876.03
224.301
537.302
-761.603
-108.187
534.176
-373.87
161.836
212.034
-13.8557
-225.745
239.6
-663.691
-4.34863
240.02
-19.103
424.287
-38.4199
-260.876
-48.3002
309.176
524.814
-499.898
-24.9161
-34.2599
-559.807
-463.521
41.5638
421.957
-300.391
-26.3078
326.699
799.509
17.5779
-817.087
-409.166
570.405
3.90283
-233.943
230.04
-215.682
484
-306.281
424.718
-118.437
264.285
249.975
-514.26
497.299
-126.594
-370.705
428.704
-47.5193
-381.184
-456.401
-33.8658
490.267
-986.644
-31.4703
1058.97
7.71203
286.512
297.506
-584.018
-242.439
546.615
-304.176
164.543
94.3829
-258.926
-432.119
381.863
50.2559
-363.818
380.158
-16.3404
265.715
-147.464
-118.251
-251.281
-61.0513
312.332
-699.299
16.5427
682.756
409.105
-93.505
-315.6
-254.479
254.479
92.3724
-762.523
670.151
-662.474
67.1059
-947.222
848.224
98.9976
-318.329
-51.8301
-19.5138
209.848
-190.334
517.93
-146.188
-371.742
-644.558
-43.3006
652.49
-69.8143
99.7249
81.3848
-181.11
-356.409
90.3051
266.104
-310.136
58.8551
845.778
-621.477
558.664
-591.289
32.6256
226.11
-95.6666
-130.444
-347.444
120.917
226.528
-20.8016
252.939
-232.137
-846.702
847.399
-0.696907
-30.6666
-161.084
191.751
253.006
7.40659
-260.412
-711.452
12.1526
-266.562
283.737
-17.1751
778.74
20.7685
429.407
-629.94
200.533
203.589
-217.445
-751.799
812.488
-60.6894
633.599
-718.727
85.1289
74.6888
577.801
943.848
-846.973
-96.8745
-220.353
242.426
-22.073
201.372
46.2898
355.423
116.473
-471.895
1009.09
-256.884
-752.209
18.8521
563.56
-582.412
-13.0267
-587.259
600.285
538.262
-251.75
97.9097
425.345
-523.255
-303.341
408.105
-104.764
76.7493
-814.828
738.079
-698.26
455.821
10.4272
-207.108
196.681
17.4589
-853.578
836.119
-314.349
312.027
2.32184
-42.8438
307.129
24.1138
-890.729
866.615
-340.273
337.25
3.02346
-74.8969
-314.91
9.10223
-285.577
276.474
703.452
-786.481
83.0293
726.176
-860.275
134.098
-147.203
341.305
165.755
99.9604
188.654
-205.904
17.2501
293.08
-299.63
6.54977
-124.337
553.744
624.438
327.37
153.534
59.5299
-213.064
277.093
-316.574
39.4801
218.395
-247.311
28.9164
-26.0872
279.093
-345.224
4.95137
1.60438
-187.73
186.126
224.078
-61.9064
-162.171
181.123
827.97
-198.076
-739.275
937.351
-101.166
-397.372
522.914
16.1059
229.726
-227.143
-2.58279
264.649
-220.153
-44.4966
28.2962
-215.312
187.015
-396.419
631.449
-235.029
53.806
506.739
-560.545
984.07
-886.418
-97.6522
790.93
-787.094
-3.83632
-572.342
-238.526
810.868
-146.064
722.13
-576.065
455.831
-443.891
-11.9397
-199.44
-11.6795
211.12
41.2345
-766.676
725.441
-160.661
-213.208
-247.843
233.994
13.8485
242.223
-14.8061
23.3514
1020.88
-572.445
-448.435
735.194
-933.27
-399.934
96.5928
14.8983
209.179
16.4589
-778.227
761.768
-90.3899
-856.832
417.757
-452.45
34.6937
-106.642
832.818
54.6911
-736.373
681.682
-202.229
2.78913
277.093
0.302412
248.715
-249.018
-432.821
432.821
82.9671
679.303
-762.27
-315.209
48.6473
-579.306
598.158
316.177
-302.804
-13.3737
-777.832
-63.2714
841.104
-143.778
447.026
-303.248
424.036
93.8943
428.853
-443.263
14.4098
257.893
-39.4985
-215.076
-318.441
533.517
501.496
-381.504
-119.992
-328.688
17.6632
311.024
785.203
-81.7514
-520.979
-79.0974
600.076
-661.093
661.093
-125.807
501.931
-376.125
94.3272
-352.268
257.941
-919.911
347.569
306.958
-358.693
51.7349
436.944
18.8873
816.328
-504.121
-312.207
910.279
-59.8204
-850.458
77.0703
149.04
-847.161
614.172
232.989
-18.3803
264.849
-246.469
-212.135
223.464
-11.3285
-42.3373
-489.218
874.891
-890.118
15.2268
-48.695
429.86
-12.1034
788.05
-791.208
3.15831
247.052
-17.3255
20.3305
-240.683
822.132
-963.82
141.688
236.851
-344.731
107.879
570.706
-570.706
899.944
-93.2425
-806.702
594.28
73.0724
-667.353
55.9884
-328.408
272.419
-174.972
254.811
-79.8398
-472.459
328.681
53.951
734.099
-393.082
529.641
255.912
-178.842
-683.973
-176.302
484.445
-630.51
453.643
-501.246
47.6024
-893.527
1027.47
-133.947
-580.662
555.765
24.8972
505.823
-582.426
76.6023
128.898
730.081
-858.979
211.321
530.689
-742.009
723.342
505.131
321.987
739.572
325.936
-232.608
-93.3281
-295.826
295.826
371.197
-402.219
31.0219
-28.5181
1087.49
270.121
-323.892
53.7715
530.771
-476.965
-297.429
-562.386
551.741
-565.78
14.0387
-29.4345
904.326
260.18
-278.56
-222.176
201.311
20.8647
499.037
-587.816
88.7789
-197.716
959.032
-761.316
588.833
-83.0101
771.663
-383.966
-387.697
339.3
-48.588
472.001
548.878
-199.508
179.994
-743.852
59.8787
-929.743
36.2163
477.741
47.0731
-679.843
891.163
-688.747
-63.0516
189.682
-203.067
13.3854
-74.0106
915.192
-841.182
-38.051
-817.794
855.845
184.139
-182.535
40.834
172.795
-213.629
-9.24993
-366.059
375.309
322.708
-313.605
-604.184
207.764
-226.759
433.877
-207.117
908.55
-678.044
304.21
21.7258
294.606
-8.82113
-285.785
-568.441
156.247
412.194
461.024
-32.1709
512.549
-727.625
-363.673
-0.145194
647.067
-746.162
99.095
-238.534
160.57
77.9633
-656.266
638.981
17.2853
219.663
-219.36
74.1678
181.745
-742.835
825.802
-301.176
313.003
-11.8275
68.0603
-363.543
295.482
229.342
-210.767
-18.5752
526.644
-328.725
-197.919
8.13748
-347.077
338.94
-497.428
484.402
-63.9814
264.924
-200.943
-660.91
157.305
503.605
-344.263
-3.18161
653.826
6.03903
445.748
-21.4614
-157.52
4.02888
153.492
-22.5835
721.762
-699.179
-850.432
979.33
321.835
-150.331
-171.504
677.331
-775.123
97.7924
423.592
348.071
706.42
59.5539
-765.974
818.099
81.8456
546.599
-521.077
-25.5229
1093.72
-1012.31
-81.4053
4.81208
-296.424
291.612
278.158
16.4482
103.647
141.773
211.568
-22.9141
196.422
-201.168
4.74562
144.753
148.787
-293.54
-305.07
284.733
20.337
-159.219
-299.098
458.317
421.059
-546.866
-320.55
197.736
-195.169
-2.56639
197.277
1009.27
-565.445
-443.821
525.941
-109.146
-416.795
122.375
511.223
80.1227
466.477
1.82891
-690.971
712.419
-21.4478
46.9791
-548.304
501.325
-85.4943
-249.99
335.484
-449.087
39.2282
409.859
-140.55
-336.082
476.632
780.005
-1.26509
22.946
193.924
-375.103
181.179
156.305
-220.286
-920.707
849.14
71.5668
-296.962
306.39
-9.42783
668.417
-82.8317
-585.586
1047.02
-603.807
-443.21
195.89
-193.87
-2.01912
270.823
-109.102
-161.721
-421.872
418.355
3.51692
663.486
-31.8066
-631.679
-693.808
2.83714
374.674
34.4311
-552.743
438.616
114.127
583.007
-578.428
-4.57875
-855.76
44.393
811.367
856.371
33.1987
-889.569
-424.71
284.159
-202.697
45.1764
-326.144
528.552
-202.408
-181.051
-41.1251
754.995
-793.046
-149.385
190.219
530.245
-166.897
-363.348
-123.603
-309.219
220.774
-221.728
0.953511
619.56
43.926
683.472
-608.784
21.0058
-302.326
281.32
837.406
-876.353
38.9469
-297.837
-4.96636
954.457
-957.742
3.28556
52.497
190.925
-243.422
680.263
-33.1953
568.263
-593.104
24.841
-830.185
847.644
196.642
-186.215
786.355
212.159
746.873
143.459
201.582
-345.042
-300.421
-8.3352
817.138
-61.9514
-755.187
598.757
-127.905
-470.852
245.172
-83.3362
84.9929
412.306
80.4243
-255.396
473.859
-503.923
30.0641
142.662
-349.085
206.424
137.724
388.92
48.6761
861.602
653.036
-773.289
120.253
-22.8777
977.334
-274.172
-16.1241
290.296
-223.048
205.038
18.0095
-12.7003
177.243
48.5686
452.928
335.227
-344.477
-348.69
42.4092
-339.693
39.3024
838.348
-58.3433
75.6261
-221.473
145.847
-952.288
22.5448
-915.812
-36.4755
-486.273
56.3251
429.948
-730.927
899.608
-168.681
-193.268
-69.683
262.951
-113.189
-88.2351
201.424
-162.906
-37.6337
200.54
-122.901
227.567
-104.666
853.458
410.644
-216.72
151.46
-12.6673
-567.995
-879.139
-41.5678
451.775
146.983
187.894
-514.038
200.745
-1107.02
906.276
27.4762
203.315
-230.792
-9.66086
-202.474
418.88
26.8684
89.1697
701.76
281.648
1.23468
-282.883
-470.916
568.826
728.748
72.8729
-801.621
-778.151
-8.32977
800.522
-855.053
54.5308
289.141
-273.101
-16.0399
83.2518
238.583
850.754
-864.972
14.2181
978.829
-862.149
-116.68
939.085
-943.651
4.56622
-387.61
-165.133
-4.87676
-872.974
543.151
329.823
-184.451
162.445
22.0063
-244.361
389.114
140.811
91.8573
-232.668
757.318
254.986
-251.084
431.702
94.2391
782.572
-695.749
-86.8233
-52.7121
-97.4076
-98.5325
195.94
-308.732
261.113
47.6182
862.478
-838.365
-21.7969
379.887
-358.09
-321.047
-24.177
570.338
-583.895
13.5566
368.802
-327.507
-41.295
-828.488
731.206
97.2829
-905.782
831.772
142.385
128.439
-406.541
277.082
129.46
468.467
-454.127
-14.3403
621.384
-622.669
1.28538
518.135
-44.2766
-302.468
-141.225
443.693
6.68856
-280.861
-72.6944
-247.161
319.856
544.286
563.929
-1108.22
-900.868
849.215
51.6526
-2.34187
-405.183
419.16
-13.9766
432.155
-399.882
-32.2732
671.816
-844.433
172.617
711.127
-881.37
170.243
-503.717
-157.193
-425.978
63.2133
362.765
305.583
-6.48461
-299.099
-327.516
164.61
475.443
78.9864
-719.692
-108.796
7.27095
189.152
-303.415
301.56
1.85531
31.1506
-328.356
297.205
490.547
39.3116
-529.859
-232.1
302.146
-70.0451
-896.195
-19.6396
915.835
-208.428
-28.8673
237.296
6.76838
-844.973
838.205
804.709
-118.438
-686.27
344.302
141.824
-214.519
-874.878
-21.3173
808.53
40.6095
-5.27848
541.831
-186.408
-503.522
-18.3752
521.897
-801.992
913.794
-111.802
313.96
-245.9
-397.306
311.812
-30.2068
590.726
63.0999
384.144
-241.482
309.644
506.683
-14.5591
26.6551
342.147
-776.984
86.8232
690.161
456.84
94.901
-137.79
-21.6526
159.442
-851.807
-23.071
71.2152
332.41
-198.928
230.082
-31.1544
49.1934
-281.294
-272.85
267.602
5.2481
-18.866
29.9086
-514.29
484.382
-611.056
-135.107
-23.0329
302.913
-279.88
-333.785
450.257
599.387
447.629
-1102.78
430.487
672.289
329.559
0.348452
-329.908
-246.716
-155.974
402.69
-525.671
550.571
-661.239
-18.2402
679.479
99.76
88.1727
-187.933
-44.2496
799.245
838.829
-862.518
23.6885
807.508
-154.472
40.1636
-602.721
-325.906
-21.1714
556.813
57.8132
-614.627
440.22
20.8042
-349.567
393.239
-43.6722
-853.572
-3.79615
857.368
-27.8177
-823.99
271.989
-273.67
1.68046
625.216
-3.83228
560.885
-406.919
-153.966
-223.406
272.066
-48.6597
-95.5574
-253.133
-421.498
-42.0228
894.304
-183.177
-819.931
89.0042
-629.337
18.2817
-540.226
50.9512
489.275
820.551
-39.6289
-780.922
-254.593
131.693
-0.0740404
-356.358
356.432
858.226
-186.41
307.993
-2.40931
636.879
-68.6164
494.23
-3.68254
801.397
-712.227
-1045.13
-57.6415
445.063
23.4042
526.945
31.7193
733.422
-692.187
795.983
-38.4595
-757.523
195.197
-225.863
275.794
-14.6804
-118.159
198.911
-170.615
474.967
15.6105
-490.577
576.808
-98.7159
-478.092
-459.612
422.048
37.5643
128.9
672.497
3.86525
-98.5063
-760.363
858.869
85.8957
-666.538
580.642
227.254
-304.492
77.2379
-742.222
643.716
91.7685
712.94
-504.408
1048.69
219.563
-143.937
-270.025
-173.386
258.327
-84.9412
211.9
-264.97
53.0701
-180.24
321.05
6.98823
-328.036
-51.1785
5.58187
-411.039
405.457
-47.5587
-162.08
-195.243
-30.3419
368.226
-337.884
-870.852
944.467
-73.6148
45.5038
-528.148
482.644
20.1228
-243.171
-755.872
106.222
649.649
361.793
-217.32
819.405
1.14615
-29.1349
215.155
-186.02
431.636
129.249
-104.33
-321.648
815.89
-201.717
-95.2044
-914.08
618.198
-320.692
123.327
48.1238
653.05
-560.677
495.958
-16.991
342.704
-35.7463
339.137
-421.569
82.4322
192.518
-227.464
34.9457
47.7264
250.273
-297.999
338.679
-497.898
-3.67166
761.958
-806.207
537.756
-62.7891
-105.293
736.995
-631.702
-269.603
304.386
-34.7829
-68.6866
295.941
205.568
-190.67
-282.015
12.4119
-1056.27
585.4
470.869
-35.8853
-77.104
176.829
-309.9
295.305
14.5947
-676.034
692.493
268.609
-273.495
4.88623
-475.619
176.521
-501.127
-555.141
240.711
-279.076
847.164
-946.595
99.4309
-344.145
18.2398
485.734
-627.368
141.634
-2.36497
810.895
251.22
-269.307
18.0873
-321.181
-551.793
-37.5232
293.914
-25.3047
351.047
-126.152
-224.895
-19.9936
-837.907
857.901
-876.65
491.46
385.19
-56.2799
735.583
-457.806
36.3078
-146.679
-113.011
259.69
874.24
-813.883
-60.3569
394.067
-322.852
796.741
3.78103
106.608
85.513
-192.121
-580.555
1024.4
-443.843
145.88
-194.538
48.658
-758.97
-144.992
903.962
140.019
211.028
853.513
-31.381
813.473
-736.724
504.286
-419.294
-11.4854
-222.457
31.5904
154.223
-185.813
310.56
231.27
-25.3909
-1098.2
619.198
479.002
7.98758
891.693
-60.5458
-831.147
-430.626
623.05
-192.423
57.1523
756.321
27.0747
-530.597
-590.532
-18.3251
608.857
402.006
147.4
-549.406
-264.717
-522.376
279.067
63.6372
-178.457
-76.0219
-406.479
352.881
53.5972
-793.35
289.229
201.238
-262.459
61.2208
226.838
-255.507
28.6693
430.321
-424.74
724.888
51.2482
-776.137
-204.161
43.0766
819.283
20.8636
-840.147
-357.003
13.6094
343.394
118.639
860.19
-410.482
452.046
411.576
-72.4389
-954.471
99.694
854.777
789.099
102.593
-25.1621
217.68
50.6393
381.516
894.471
133.003
28.1786
-485.985
28.6793
-826.823
798.144
696.96
-763.949
66.9897
636.304
465.952
769.012
-56.0326
-712.979
195.695
-49.8155
76.4477
339.482
-415.93
-735.243
792.395
249.53
175.188
-285.98
168.523
117.458
-111.175
-426.852
538.027
-32.1247
-215.718
1004.41
-573.927
99.3151
-292.583
178.103
-207.238
-103.711
-156.291
30.6106
820.144
-161.158
499.837
-599.169
751.619
-152.45
679.793
-702.377
-392.029
373.654
-442.595
-180.074
39.5603
349.044
-11.9722
-337.072
-46.288
808.246
-505.247
-623.367
1128.61
288.437
-237.64
216.838
7.78812
197.78
-258.824
117.286
-885.293
908.952
-23.6594
-273.19
258.437
14.753
74.4389
708.134
3.36434
765.648
635.942
-16.3824
-15.104
-512.801
471.123
41.6776
933.078
17.1536
-950.232
-316.032
-40.9708
-0.648255
-235.197
793.57
-68.6819
529.019
-623.143
94.1244
-761.932
-84.7705
14.3573
274.784
883.965
10.5064
-490.903
440.951
49.9525
-950.455
-94.6798
50.2865
-375.263
324.976
-210.875
230.437
-19.5618
249.333
-37.4335
-39.7792
1050.3
-313.221
-737.078
579.61
-50.5916
47.0182
-265.76
-62.648
-687.642
766.911
-79.2688
-90.6643
-7.44963
234.287
504.824
-5.7871
92.7907
-870.623
-92.0999
213.693
-121.593
-197.726
218.48
-20.7532
-681.798
570.624
-450.006
479.915
343.019
51.0483
-460.779
424.944
35.8345
581.619
427.646
498.514
-459.993
-38.5211
479.264
-313.986
-165.278
-179.265
31.8007
350.77
-21.5442
-329.226
-260.63
87.244
-338.055
295.211
-219.034
-636.726
-691.54
-81.7492
260.02
-58.7824
660.743
197.483
6.9893
227.005
816.135
-85.1743
-730.96
328.973
-142.137
647.062
-504.925
232.077
-301.76
-101.184
503.19
-750.788
7.95331
-130.353
-108.181
500.006
-93.9443
779.78
-685.835
-201.585
223.41
-21.8246
-27.8476
-245.342
829.591
-737.822
222.354
-427.408
-404.436
831.844
861.232
-200.488
-42.6356
784.556
-741.921
597.402
-6.67611
17.7629
-608.295
283.553
135.79
-419.343
-404.194
480.641
-22.0263
-318.102
340.129
-617.205
66.0464
551.159
-139.475
501.576
-362.1
-480.04
409.883
-483.353
73.4705
105.651
-178.243
72.5915
-190.79
334.25
-188.474
-175.199
727.241
-30.2815
102.301
581.172
-611.054
648.91
-37.8564
269.55
-292.583
-810.327
-52.1907
97.1442
-433.226
590.119
460.18
-615.806
173.211
415.362
-842.77
371.482
-681.893
28.6535
653.239
-187.993
226.807
-38.8143
-816.295
886.704
-70.409
-48.4617
-432.246
480.708
1005.36
-405.612
-599.748
-69.1583
-785.894
-13.4816
285.471
-950.465
207.421
743.043
-857.713
-92.752
-173.439
-11.0117
-777.767
731.479
-126.749
-298.058
424.807
-15.9687
-267.175
283.143
160.392
647.116
224.479
151.812
-376.291
-902.87
154.578
748.292
541.192
-580.967
39.775
604.541
58.5987
-663.14
-44.2439
673.932
-639.873
-34.0587
353.299
-23.7396
-23.9162
228.853
-204.937
608.366
65.5657
14.2182
-792.37
721.539
-777.571
-180.134
211.725
327.602
151.662
128.557
-317.031
203.886
-207.833
3.94621
342.011
-199.7
-142.311
592.124
43.8175
-747.317
800.936
-53.6188
-388.04
-108.023
496.062
-13.4181
-289.997
239.958
49.3042
-289.262
250.11
-100.011
-150.099
418.374
-466.836
-61.7163
-740.276
-411.043
78.9336
150.409
490.038
-432.851
-57.1866
-230.361
257.837
-202.927
195.209
7.71764
5.9757
-211.477
205.501
-322.74
379.544
-56.8041
215.041
-10.3535
-204.688
450.442
554.918
-263.13
555.556
-473.895
142.627
-245.469
102.842
-203.013
-12.1838
215.196
701.283
-96.7423
243.342
-169.174
-358.717
277.545
81.1721
-429.609
-6.7846
436.393
-352.088
449.232
312.688
-324.417
11.7283
-17.3125
33.5378
470.749
462.824
35.6897
24.6765
-454.285
196.522
4.78939
-338.989
-5.15609
-370.666
297.663
73.0022
342.445
-63.3774
673.07
221.234
-232.147
238.123
-289.399
307.063
91.0497
659.359
-750.408
-736.339
-25.9312
762.27
5.30808
153.365
16.7799
-339.52
-690.7
621.115
69.5847
131.408
-165.618
172.545
-6.92718
428.467
-144.914
-248.194
-167.847
416.041
-166.001
-346.8
221.039
-17.1527
-249.461
102.782
93.1855
-185.285
-1009.54
696.317
-348.04
348.04
851.464
242.252
-35.2813
-509.098
-500.441
210.474
326.355
528.148
42.5583
545.967
-51.737
260.75
-258.496
-2.25404
-629.419
662.331
-32.9117
-50.2782
-532.726
-46.58
-637.421
706.247
-68.8258
84.3535
-493.519
-353.179
539.499
6.46776
522.832
15.6314
-538.463
746.976
-647.428
7.55455
-121.106
-56.236
177.342
-422.138
84.0827
312.678
-33.5123
-279.166
-160.996
-41.7005
-302.429
289.634
12.7946
-287.609
64.2028
868.945
-195.874
-336.051
50.4747
767.789
-1.20469
-766.584
584.187
-659.048
74.8603
-922.856
830.376
92.4804
-23.8005
-637.438
110.097
298.008
-23.4774
-261.538
285.016
-777.401
14.8779
-203.969
-291.178
267.701
-466.16
511.664
-253.189
256.186
-2.99658
-304.242
300.638
3.60443
-810.019
704.726
995.978
-148.815
-165.059
280.552
-228.055
363.501
-161.919
409.028
-315.108
-93.9199
287.861
54.584
810.469
-94.6263
-715.842
184.197
-681.625
-752.45
667.892
84.5579
5.56399
-617.451
624.074
-6.6228
64.3458
178.996
-97.2734
518.333
-273.804
285.836
-12.0327
379.213
-458.373
79.1599
-608.658
649.247
-40.5892
585.572
44.4941
-630.066
246.818
-224.013
-22.8054
556.254
-23.8782
-532.376
246.505
-134.562
-111.943
-136.884
-51.1355
188.019
954.396
-945.411
-8.98511
-575.497
-388.322
-46.5644
-755.877
802.442
-897.641
834.369
-575.608
360.735
214.873
605.099
-623.424
-16.1385
672.775
-656.637
12.0945
155.309
-167.404
-53.4151
-274.94
-855.977
-66.8788
15.4624
366.401
334.085
-739.697
208.322
-11.8004
-229.343
229.343
415.706
-156.128
-259.578
-911.25
25.9568
-3.34611
-27.947
-476.489
504.436
-753.725
-80.6785
487.149
-406.471
-252.405
-408.688
432.601
-10.5537
-56.809
260.124
155.781
186.23
-541.982
399.242
-167.415
391.894
339.84
-51.9794
762.575
-707.884
-284.587
-8.09038
271.279
-946.894
-3.56083
5.61013
927.468
533.106
-448.753
-835.235
573.949
261.286
1.6454
262.402
-264.047
350.525
-6.70909
-343.816
-462.161
31.5351
-834.834
748.565
86.2696
-135.323
-180.71
188.905
28.9359
-217.841
213.1
126.74
-800.992
17.8474
-593.797
320.395
273.402
56.2969
236.783
362.471
-325.523
-36.9485
-367.342
386.722
-19.3799
847.418
-513.333
-455.036
312.899
-323.201
191.967
131.234
423.381
-720.81
568.419
-27.2276
811.248
-807.883
78.6364
167.869
-828.529
810.878
17.6502
-794.54
47.2223
-472.163
-527.846
1042.65
-186.281
931.099
-835.178
-95.9209
-521.12
-463.315
984.435
-48.6874
-256.383
61.9487
226.392
-233.54
7.14829
-22.2121
-56.0711
733.402
468.572
-32.9649
-435.607
-376.557
-191.884
19.675
-102.726
-242.004
-143.72
415.073
-271.353
-926.3
926.3
93.0039
-807.702
495.495
-510.946
69.2136
441.733
-211.829
-194.713
162.45
-162.3
-379.682
-552.603
390.303
598.445
57.9148
192.195
419.432
-929.244
509.811
-13.8746
295.523
-222.83
-263.443
-216.893
416.214
-88.6118
-181.764
-141.437
-65.4903
-835.377
452.524
-518.133
65.6088
17.0006
-690.163
772.41
-82.2474
415.83
-421.179
5.34909
247.139
-568.208
529.77
38.4383
118.462
109.994
-228.457
199.784
-223.7
378.935
-708.787
329.852
110.541
758.335
178.614
237.093
-68.6876
-493.056
465.109
292.994
-307.552
14.5588
416.588
-37.375
354.204
-384.545
-22.8173
-367.712
390.53
-19.2052
-280.425
297.245
21.5181
-318.763
-417.642
273.922
-388.876
40.7182
631.096
-749.535
-410.14
532.713
-313.508
-91.6759
976.65
-866.109
-492.73
-312.31
805.04
296.4
39.2657
290.595
-329.86
-457.218
139.583
-274.906
-51.8489
451.233
-563.979
112.746
47.4271
613.666
-181.611
60.505
332.133
-275.836
708.747
-329.812
270.302
-179.997
24.1115
364.904
-389.016
-28.7093
-297.12
-5.20592
-256.873
251.709
5.16468
0.621895
552.622
-525.547
40.8406
-891.59
113.362
798.584
-1.84348
329.974
-116.874
525.488
328.707
-854.195
598.399
239.949
667.96
-761.904
-743.579
104.939
638.64
285.739
43.1256
-328.864
187.33
-180.133
-7.19757
27.0697
274.491
572.908
-193.115
25.1684
167.947
-156.917
-606.89
763.807
-341.565
361.601
-20.0357
-242.867
297.284
-54.4162
-148.616
-175.276
-256.291
212.68
43.6106
920.093
-920.093
-87.3826
727.061
-639.679
295.197
-211.946
345.235
-68.1531
-657.74
190.464
27.9025
-218.366
54.8705
-584.821
529.95
20.9724
-217.227
196.254
908.229
-913.945
5.7162
300.932
-674.483
373.55
334.187
-283.9
51.91
310.561
-350.747
876.235
557.118
-105.886
-72.9503
-243.623
-400.946
323.813
77.1327
219.797
-346.39
333.881
-500.47
166.589
-225.039
37.0459
-873.295
-73.5993
34.4291
-724.592
308.246
-187.329
796.384
-773.238
-23.1461
433.211
47.9783
-481.189
-685.608
610.681
74.927
-254.145
216.996
37.1496
321.069
-28.0756
-426.133
-254.878
875.962
-832.651
-43.3109
-357.741
658.673
136.067
-524.106
-864.656
11.0839
-57.2782
-598.92
656.198
33.9247
-135.63
-150.35
-916.281
418.326
497.955
192.42
2.78867
450.328
-34.4986
543.447
248.434
-260.96
12.5256
-334.856
-6.0947
340.95
-540.362
432.175
-17.6489
-184.492
202.141
232.093
-41.6291
-85.1423
353.35
-268.208
-356.044
6.47693
435.092
-10.1479
64.0325
-807.795
743.762
-664.298
664.298
39.3519
192.725
-87.2047
-506.347
593.552
-854.475
938.105
-83.6303
741.121
55.2638
-14.1456
-834.525
848.671
324.486
-341.891
17.4051
325.384
14.6013
-339.986
584.164
-636.953
52.7896
29.9806
305.396
-335.377
-203.409
-117.041
320.45
196.437
-9.10683
106.12
-710.436
604.316
-760.008
267.278
351.363
-312.097
793.738
59.775
-77.4064
-433.54
342.928
-390.447
-681.089
101.207
579.883
314.603
-261.744
-52.8591
-531.687
614.494
-82.8069
-81.9869
-362.982
444.969
409.259
-382.604
-592.049
-324.233
591.953
-725.689
133.736
-407.824
-427.411
837.857
-39.7521
-645.856
134.205
444.549
-578.754
563.566
-644.81
81.2437
24.757
-244.91
11.1091
-693.002
-321.765
321.691
3.64524
570.57
-692.728
122.158
-344.508
-430.615
-2.6827
-684.644
698.223
-13.5786
763.074
-164.675
645.645
-102.963
-542.682
203.347
286.691
290.491
-297.989
7.49813
807.723
-935.882
128.159
-645.921
-97.6575
-281.369
7.56574
-328.683
94.6992
233.984
-56.573
640.737
80.6525
-258.996
178.344
357.995
-335.932
-22.0626
-328.32
-265.477
-15.4688
205.151
-28.3699
-174.697
234.409
134.332
-368.741
-271.958
319.857
-47.8984
588.597
-675.801
23.9767
288.701
-255.595
-73.0887
-281.883
-293.725
-711.339
540.691
170.648
-111.786
-152.527
-162.403
66.7364
-578.584
536.451
42.1334
576.956
-1098.08
-25.081
-1015.51
-140.769
369.853
46.3606
-22.8193
-51.3988
-758.286
126.584
850.518
-843.749
617.4
-76.7094
1.86066
589.244
-591.104
-281.972
-166.289
448.261
-41.3196
-212.826
7.08966
198.41
-213.149
14.7388
-993.659
226.983
448.74
-114.858
19.6902
-627.994
608.304
299.27
-365.306
26.6279
338.678
59.5844
573.786
-633.37
-103.664
771.173
-667.508
-669.435
-195.538
-725.05
39.7389
685.312
-35.7429
563.128
-527.385
922.369
-914.044
-8.32473
561.379
-618.657
-611.189
-23.6844
634.873
-396.205
124.247
247.357
-264.293
16.9356
801.252
-772.572
-96.0973
730.902
-634.805
460.043
11.0802
-434.074
-669.912
604.141
65.7704
399.253
-92.2355
-564.031
-38.5588
-11.3366
-399.702
-24.2932
223.029
-198.736
23.6026
327.76
-360.707
364.568
-3.86122
745.439
-792.004
136.101
126.85
214.216
-226.075
11.8594
684.148
-775.296
91.1475
-316.241
-669.67
-17.9718
794.803
74.1413
291.102
120.473
811.065
-16.2619
-12.0986
-1030.42
176.84
3.94246
19.1272
-567.431
161.796
-149.701
-1081.54
-240.918
223.269
71.3288
223.869
-107.729
-467.132
574.861
-2.49878
-477.523
480.022
838.929
-31.2061
570.091
75.5538
-24.0033
-202.161
226.164
739.346
-781.982
-148.018
382.427
-403.609
445.017
-41.4084
-679.263
723.225
-43.9617
292.821
-371.06
18.7922
397.122
-158.812
-238.311
173.241
-511.668
466.172
45.4966
4.69021
-462.267
461.383
0.884479
613.804
-596.041
33.1092
-159.316
592.527
-295.051
57.5046
441.033
41.5665
607.274
-648.84
-80.3832
-146.865
199.925
17.0712
30.9886
-392.09
26.784
-414.118
10.5097
251.292
-253.365
2.07281
711.255
-682.602
-485.316
84.261
401.055
-42.295
626.482
-3.8456
-207.631
914.266
-141.778
-772.488
518.882
537.486
-1056.37
-291.693
-19.8879
291.125
4.17973
10.2762
274.457
-690.128
-1.60471
691.732
592.103
-749.02
-215.472
195.888
19.5848
-518.778
-32.9169
-633.621
-4.41915
147.047
-137.481
-428.299
-118.852
199.504
15.0545
-633.048
617.994
-38.9059
-497.77
536.676
-256.033
286.013
-69.321
626.134
-727.568
753.565
-25.9963
217.725
-482.442
224.629
-249.764
25.1356
-12.3512
-838.21
28.1916
236.229
-439.639
906.025
-915.708
9.6831
636.638
13.9589
-650.597
-54.3299
-538.774
-807.251
840.449
109.197
-207.729
897.673
-78.2684
241.535
-15.143
-60.375
-715.983
776.358
-87.5231
-597.121
-14.7233
537.555
-667.725
21.8039
210.445
-236.901
26.4558
-237.172
2.33557
234.836
-558.863
533.554
25.3093
-227.421
90.537
60.3368
89.5752
-149.912
-880.252
314.75
20.2695
-335.02
54.9748
637.882
-692.857
-343.21
367.744
-24.5338
-645.553
-22.1722
-669.126
760.175
-896.598
127.501
769.097
-146.175
-169.034
-445.583
64.0784
-457.085
-614.758
238.388
16.598
-290.533
291.205
-0.67172
181.932
-63.4699
-422.989
393.919
29.0697
-954.879
972.033
-311.397
119.344
192.053
148.979
12.817
522.478
853.462
-873.456
277.641
-39.0578
358.769
-498.245
-789.3
811.276
-21.9759
-350.188
-180.433
530.622
132.702
-173.987
41.2848
427.049
-524.323
742.908
-680.813
-62.0946
-263.772
-27.9207
310.185
-70.2272
316.222
-292.246
332.177
-652.044
-17.8676
5.5138
633.467
-379.217
161.897
20.6537
-891.506
548.06
-390.755
608.144
368.506
423.757
8.84408
744.637
-805.012
-40.2529
-24.8328
827.283
70.3902
421.142
-499.865
78.7225
205.39
-181.593
-23.7965
-200.978
219.748
-18.7709
-11.1963
344.024
-332.828
-617.352
658.918
434.555
252.228
-221.07
-31.1585
368.743
505.497
313.156
-334.7
703.033
107.436
76.7582
-600.519
523.761
639.826
-35.6844
14.4131
-930.389
113.903
816.486
225.034
-253.902
-252.159
-793.303
732.262
61.0407
5.27011
814.227
-819.497
926.726
-926.726
-378.276
17.5687
602.826
36.9996
-109.154
-23.7758
-197.174
220.95
437.614
27.8546
-465.469
-435.599
21.5986
414.001
188.75
972.168
-453.286
-229.097
39.4056
189.692
-627.141
630.839
-3.69804
415.301
-469.86
54.5595
-430.922
-4.67758
49.5573
-762.156
712.598
-636.959
-61.3009
-549.617
518.526
31.0906
-364.394
268.837
23.3627
-241.901
218.539
-157.234
-154.163
-29.0931
230.936
-31.0112
55.1131
278.432
-277.197
-71.7196
791.608
367.225
-52.4749
-769.239
32.8999
-890.027
814.426
75.601
128.638
269.813
388.403
149.858
-754.09
858.682
332.948
186.492
-519.44
-164.752
594.452
-644.042
49.5899
473.952
58.3714
-532.323
635.134
-339.53
-295.604
-471.422
-119.867
-781.25
677.586
28.5569
-685.257
656.7
-711.328
108.513
602.815
-765.207
-2.31062
29.4595
508.613
-87.4703
-517.809
356.651
546.932
-582.675
-35.4222
-67.1486
230.487
-163.338
36.7352
-674.156
-235.995
-234.092
166.944
-29.7006
281.358
-120.261
-161.097
162.506
-9.54169
-635.6
722.423
-28.2088
203.48
-175.271
869.869
-629.225
11.7747
150.92
181.213
1.00779
397.586
-398.593
-225.807
-194.73
420.537
180.936
763.53
379.744
-355.632
-842.377
7.5424
626.408
-609.865
-0.0734603
-809.356
809.429
589.552
16.0886
-605.64
841.938
45.499
-887.437
311.469
-10.8311
125.614
-407.586
426.041
9.05136
-255.371
335.169
-79.7972
195.094
381.669
-90.567
611.363
-55.473
-555.89
-755.874
781.053
-25.1789
14.5936
643.368
-657.962
-645.723
114.037
-6.79651
-442.455
603.651
34.5203
323.474
-30.6597
189.484
-89.7237
-336.745
1.88973
95.9645
742.965
3.77625
-277.979
274.203
-423.922
-505.321
-57.448
-757.752
815.2
237.983
-47.0579
198.47
-267.551
69.0812
204.377
-96.0577
-222.354
-516.877
-581.322
-791.96
-18.3673
-169.183
-815.757
776.445
39.3122
-34.5059
469.813
-435.308
59.782
821.338
-881.12
199.337
-139
774.578
26.3587
-227.439
203.663
20.4348
-307.147
286.713
575.726
-573.865
-645.028
144.4
500.628
-546.126
588.173
-42.0465
31.7781
258.713
-665.2
-441.821
608.542
45.8188
-654.361
-721.933
606.759
-679.214
72.4549
-160.987
-32.1283
450.083
-484.343
-846.43
851.7
105.358
-307.756
-588.842
-642.437
593.286
49.151
181.822
-76.171
-43.7653
459.841
175.293
-570.555
56.2649
514.248
-527.293
13.0447
73.1355
-717.671
644.535
267.788
-16.4962
-313.508
166.552
146.956
-563.61
579.242
-120.981
456.961
-335.98
681.425
-86.9733
1.10264
-318.27
317.167
-446.874
-442.771
889.645
-160.151
254.329
-94.1784
-101.463
-579.626
-560.28
411.527
148.753
403.162
-36.0067
-367.156
-1.15449
161.725
-254.78
354.19