/*--------------------------------*- C++ -*----------------------------------*\
  =========                 |
  \\      /  F ield         | OpenFOAM: The Open Source CFD Toolbox
   \\    /   O peration     | Website:  https://openfoam.org
    \\  /    A nd           | Version:  7
     \\/     M anipulation  |
\*---------------------------------------------------------------------------*/
FoamFile
{
    version     2.0;
    format      ascii;
    class       volVectorField;
    location    "9";
    object      U;
}
// * * * * * * * * * * * * * * * * * * * * * * * * * * * * * * * * * * * * * //

dimensions      [0 1 -1 0 0 0 0];

internalField   nonuniform List<vector> 
30084
(
(1.00814 -0.00992279 9.10758e-23)
(1.00751 0.00278872 3.19261e-22)
(0.992913 -0.00261031 -5.36788e-22)
(0.977653 -0.0415052 1.74725e-22)
(0.998145 -3.93728e-05 7.4276e-23)
(0.965579 -0.0258975 -2.71283e-22)
(1.05299 -0.0536978 -9.32002e-25)
(1.01097 -0.0149736 -9.70917e-24)
(1.00153 -0.00145584 1.21075e-23)
(1.00014 -3.7281e-05 3.27003e-24)
(1.01277 -0.0200735 4.65433e-24)
(0.998745 -0.0126605 -1.66453e-22)
(0.999637 -0.000149548 9.95388e-24)
(0.999976 -7.95451e-06 2.53327e-25)
(1.08213 0.0747244 1.21036e-21)
(0.995367 -0.00151489 8.10262e-23)
(0.999876 -0.000642604 -4.12779e-24)
(1.09221 0.0153002 -1.17433e-22)
(0.998389 -0.00137919 -2.52957e-23)
(0.991556 -0.000642271 -1.19912e-22)
(0.99935 -0.000206254 -3.43778e-23)
(1.00144 -0.00145716 4.25318e-23)
(0.992839 -0.00276508 5.93076e-22)
(0.998378 -0.000128221 3.27621e-23)
(0.929923 0.0680795 1.16007e-22)
(1.00808 0.00221863 1.71562e-21)
(0.999608 -4.39019e-05 2.27165e-23)
(0.962963 0.0571577 -8.02131e-21)
(1.08487 0.0757016 -3.14151e-21)
(0.999525 -0.00690544 -3.22334e-23)
(1.01151 -0.00776536 6.1018e-23)
(1.02672 -0.00381045 -4.35509e-22)
(0.992584 -0.0979745 1.61464e-21)
(0.999225 -0.0176176 7.90725e-23)
(0.961672 0.0543545 6.44063e-21)
(1.00394 -0.0248191 1.73724e-22)
(1.04194 0.0342593 -5.88524e-22)
(0.978368 -0.0230414 7.13852e-22)
(1.00403 -0.000605614 -1.62486e-22)
(1.00387 -0.000388262 3.0754e-22)
(1.00033 -0.00013042 -9.8233e-24)
(0.992237 -0.0240672 -6.20233e-22)
(0.999891 -0.000624209 -6.86476e-26)
(1.02616 -0.0531994 -5.22243e-22)
(1.00003 -3.89524e-06 -6.9258e-25)
(0.999658 -0.00700326 2.52583e-23)
(0.998282 -0.00940254 -4.73977e-23)
(1.00006 -6.46088e-05 1.75092e-24)
(1.0025 -0.00272925 -1.72826e-22)
(1.04208 0.0325681 -2.42661e-22)
(1.10198 -0.0477341 -3.01938e-23)
(0.980132 -0.0362391 -7.97611e-22)
(1.0264 -0.00315271 1.52091e-22)
(0.966756 -0.0256376 -4.44738e-22)
(0.995482 -0.00155919 -7.12412e-23)
(1.08909 0.0712586 -1.96822e-21)
(0.997435 -0.00172105 2.49346e-23)
(0.999331 -0.000228351 4.35332e-23)
(1.00057 -0.016509 -1.01378e-22)
(1.01193 -0.0444346 -3.10322e-22)
(0.99995 -6.01747e-06 6.06551e-25)
(0.998443 -0.00141003 -5.20332e-24)
(1.14794 0.0606445 8.0442e-22)
(1.00415 -0.0242011 -9.00571e-23)
(1.03214 0.0703951 4.42728e-21)
(0.944436 0.0187434 1.55821e-20)
(1.0001 -0.0209295 -2.03596e-22)
(0.994678 -0.0107288 2.35561e-22)
(0.957474 0.0120305 6.27751e-21)
(1.00034 -0.000125139 6.36217e-24)
(1.00907 0.00280041 -2.33986e-21)
(0.989551 0.0477339 4.55961e-21)
(1.00252 -0.00680015 -7.43836e-23)
(0.942177 0.0785823 4.36595e-21)
(0.993845 -0.000497769 3.7687e-22)
(1.09017 -0.0181658 2.56332e-22)
(1.10242 0.111248 4.54904e-21)
(0.978856 -0.0129955 1.73078e-22)
(0.999963 -1.71009e-05 -1.71149e-24)
(1.00542 -0.0370551 -3.35764e-22)
(0.966264 -0.000607186 -2.99687e-22)
(1.0141 0.0263717 1.33142e-21)
(1.00837 -0.010364 -2.74137e-22)
(1 -4.6933e-05 -8.5334e-26)
(1.05452 -0.0517135 3.56564e-23)
(1.20474 -0.0541811 -2.81893e-22)
(1.01823 0.0601058 -7.97974e-21)
(0.999622 -0.000147507 -9.01059e-24)
(0.999648 -0.000132855 -2.6425e-24)
(0.94786 -0.0341733 -1.21484e-21)
(0.997825 -0.0416256 7.65671e-22)
(0.978784 -0.0136213 1.93362e-22)
(1.00234 -0.00283066 2.98588e-23)
(1.04204 -0.00375398 -2.73648e-22)
(0.942003 -0.0146781 -1.00858e-21)
(1.02229 0.0723594 4.04582e-21)
(1.00112 -0.0541883 1.22142e-21)
(1.00036 -0.00028959 1.60718e-23)
(0.979308 -0.0523167 -1.50282e-21)
(1.07486 0.0857539 5.06859e-21)
(0.999961 -1.68799e-05 2.50237e-24)
(0.979789 -0.00846117 -1.03312e-21)
(0.999952 -7.44607e-06 -3.12747e-25)
(1.03443 -0.0113701 -1.42208e-21)
(0.978981 -0.0361938 5.39314e-22)
(1.02483 0.00959708 2.51665e-21)
(1.00043 0.0457098 7.15338e-21)
(0.999662 -0.000134441 -2.23313e-23)
(0.999996 -5.19788e-05 -1.7318e-26)
(1.0059 -0.0917107 -6.84021e-23)
(0.990491 -0.097067 -1.4517e-21)
(1.03424 -0.0274568 1.91894e-22)
(1.00001 -1.37301e-06 1.26516e-25)
(0.999194 -0.00466501 -8.86469e-23)
(0.999927 -0.00166383 3.17105e-24)
(0.991396 0.0489339 1.35026e-23)
(1.02498 0.0388344 -2.88221e-21)
(0.991036 -0.00567064 -4.07293e-22)
(1.00002 -5.15731e-05 1.9552e-25)
(1.00277 -0.0067052 -5.54437e-23)
(1.19357 0.0351954 -2.48043e-21)
(1.00527 0.00860255 3.7155e-21)
(1.13257 -0.011988 1.55519e-21)
(0.94342 0.0229426 -1.47909e-20)
(1.00082 -0.000267917 -3.98778e-23)
(1.11948 -9.74888e-05 -5.28325e-22)
(1.0901 0.0172574 -6.33769e-22)
(1.01525 -0.0423453 1.91825e-22)
(1.003 -0.00259903 -1.52833e-22)
(1.00002 -0.000330357 5.50558e-25)
(1.02555 -0.0516261 1.83843e-22)
(1.10491 0.109585 2.54643e-21)
(0.997335 0.0859496 8.94887e-21)
(1.14214 -0.0225119 3.01695e-22)
(1.0332 -0.0113306 1.20253e-21)
(1.0112 -0.00738792 1.15276e-21)
(1.03205 0.111226 6.83223e-22)
(0.97876 -0.00061095 1.53388e-21)
(1.13728 -0.140129 2.50898e-21)
(1.07651 0.0832759 -3.82048e-21)
(1.11718 0.00267751 5.807e-22)
(0.952749 -0.00424954 -1.30367e-21)
(0.962309 -0.0363852 3.58887e-22)
(1.00001 -1.23014e-06 -5.30403e-26)
(0.999991 -2.28516e-06 1.24846e-25)
(0.998097 -6.44384e-05 -5.88756e-23)
(0.998414 -0.00921023 9.72682e-23)
(0.992296 -0.073234 -1.10056e-21)
(1.12687 -0.0971838 7.27284e-22)
(1.14076 0.0934149 3.40141e-21)
(1.02302 -0.0127483 6.19826e-22)
(1.01368 -0.0141393 2.14075e-22)
(1.00033 -0.000465206 2.49677e-23)
(0.999901 -0.000166778 2.42731e-24)
(1.00144 0.0236668 -7.81498e-21)
(1.0004 -0.00115978 2.88326e-24)
(0.995029 -0.00871697 3.69857e-25)
(1.03907 0.113322 -2.07785e-21)
(1.00352 0.0336115 -8.18043e-21)
(1.10342 -0.0441424 2.25102e-22)
(0.9679 -0.00227628 5.21013e-22)
(0.978416 -0.040595 1.21877e-21)
(1.08826 0.074169 5.13522e-22)
(0.999962 -3.469e-05 5.34732e-25)
(0.999991 -2.14751e-06 -4.70182e-26)
(0.991005 -0.00596736 1.44542e-22)
(0.963288 -0.0355703 -1.95243e-21)
(1.00004 -0.00017083 -1.83301e-24)
(1 -4.97829e-05 -7.82326e-26)
(0.994873 -0.00393757 -4.68013e-23)
(1.00002 -0.00032063 -4.5813e-25)
(1.00428 -0.00438532 -8.65575e-23)
(1.03683 0.114798 2.45828e-21)
(0.979081 -0.000305751 -1.26374e-21)
(1.04483 -0.0860359 -2.63004e-22)
(0.996169 -7.44611e-05 2.41105e-22)
(1.00159 -0.00202088 9.03044e-24)
(0.979208 -0.0083217 1.74831e-21)
(0.999417 -0.00465353 -7.80038e-24)
(1.13271 -0.00327741 -1.33639e-21)
(0.999984 -7.41003e-06 8.16309e-25)
(1.01148 -0.0287616 -1.96454e-23)
(1.01944 0.061423 2.86137e-21)
(0.994895 -0.009938 -1.43887e-23)
(1.13053 -0.137996 -2.32347e-21)
(1.01978 0.0328786 -2.5244e-21)
(0.995232 -0.00217027 -3.48885e-22)
(0.986288 -0.0120978 4.44961e-22)
(1.00287 -0.00260811 2.33029e-22)
(0.99951 -0.00642807 -4.50615e-23)
(0.99979 -5.81435e-06 2.55383e-24)
(1.00487 -0.0133826 6.31693e-23)
(0.940374 0.0114461 6.14961e-21)
(1.0012 0.0213848 6.01519e-21)
(0.989071 -0.00481832 1.18554e-23)
(0.995261 -0.0085802 -1.46578e-22)
(0.983617 0.0260922 -6.00529e-21)
(1.00976 0.020762 1.14371e-21)
(0.943262 -0.0144872 1.23315e-21)
(1.00085 -0.000374418 -3.12846e-23)
(1.06701 -0.0673543 1.77123e-22)
(0.980061 -0.0698468 1.51183e-21)
(0.998966 -0.012922 8.04544e-23)
(1.00063 -0.000796859 -5.02422e-23)
(1.03328 0.113495 1.00783e-21)
(0.995044 -0.00394888 -3.18134e-23)
(1.00503 -0.00393572 -9.57057e-23)
(0.990777 -0.0729288 1.45733e-21)
(1.0064 -0.0940875 1.75365e-22)
(0.999972 -3.90026e-06 2.01438e-25)
(0.98231 0.0688394 -7.62828e-21)
(0.999227 -1.83417e-05 -5.63894e-25)
(1 -4.01971e-05 -1.44655e-26)
(0.999592 -0.000155878 3.83893e-24)
(1.00016 -0.0416226 -2.75418e-22)
(1.13549 0.0675478 -2.86815e-21)
(1.01213 -0.0281013 2.33405e-23)
(1.00485 -0.00367106 -6.5777e-23)
(0.998395 -0.000179791 8.11974e-23)
(0.944387 -0.0161453 -2.1505e-22)
(1.00003 -0.000352741 -4.36744e-25)
(1.00036 -0.00118585 2.83495e-25)
(0.998268 -0.000150536 -5.35996e-23)
(1.01933 0.000593017 2.33355e-21)
(0.998037 -0.00296996 -1.64576e-23)
(0.999211 -0.00434083 2.63525e-23)
(1.01938 -0.000948404 1.19243e-21)
(1.0001 -0.000290853 2.66727e-24)
(1.00003 -3.16818e-06 1.79452e-25)
(1.00369 -0.000436052 3.39514e-23)
(0.981752 -0.0261335 -6.23441e-22)
(0.981427 -0.00032639 -6.05181e-22)
(0.99641 -0.000282753 -2.56979e-22)
(1.00975 0.00214172 1.94082e-21)
(0.988017 -0.000885674 2.84346e-22)
(1.01384 -0.0136926 -2.01298e-22)
(0.999976 -8.92554e-06 7.16156e-25)
(0.997803 -0.00195778 -9.64304e-23)
(1.0006 -0.000787854 5.4387e-23)
(1.06582 -0.0644486 1.57394e-22)
(1.06443 -0.149128 2.33991e-21)
(0.99897 -9.21959e-05 4.19663e-23)
(1.00034 -0.000416409 -1.92547e-23)
(0.999141 -0.00422993 -9.10069e-24)
(1.00268 -0.00595722 -1.34681e-22)
(0.991737 -0.000473258 -5.08757e-22)
(0.999963 -3.26906e-05 -3.77069e-26)
(1.19809 -0.0531373 -4.09404e-22)
(1.00004 -0.000362209 6.02662e-25)
(1.01907 0.00050931 -1.64299e-21)
(0.997518 -0.00172772 -5.0319e-23)
(1.00011 -0.000279996 1.09466e-24)
(1.02408 0.00979917 -1.60071e-21)
(0.975476 -0.0671163 -1.62962e-21)
(1.00019 -3.23337e-05 1.06293e-23)
(1 -9.00737e-06 4.37378e-27)
(0.952604 -0.00304544 -1.4885e-21)
(1.0477 -0.138261 -3.53684e-22)
(0.99357 -0.0062991 -3.76578e-23)
(1.01462 -0.0433918 -5.45346e-23)
(1.0237 -0.0131951 -1.0184e-22)
(1.02307 0.0605172 3.47794e-22)
(1.00006 -6.10374e-05 4.79811e-25)
(0.982121 -0.0255501 5.93483e-22)
(1.16726 0.0114298 -1.56676e-21)
(0.972923 0.0366419 1.50797e-22)
(0.994835 -0.00971233 1.11449e-22)
(1.01921 0.0317302 3.06161e-21)
(1.08941 -0.0154802 1.88866e-22)
(0.999898 -0.00182825 -2.70627e-24)
(0.888941 0.0330509 8.9791e-21)
(0.999596 -0.000326987 -2.59056e-23)
(1.0447 -0.0890493 -3.88684e-22)
(0.945357 -0.0161099 1.48811e-21)
(1.00169 -0.00190998 -4.94762e-23)
(1.132 0.0346701 1.99202e-21)
(0.993528 -0.000721765 -3.01021e-22)
(0.998295 0.0924167 6.1786e-21)
(0.997394 -0.000202455 2.30704e-23)
(0.986724 -0.0130232 -2.31651e-23)
(0.999851 -0.00166318 -2.0127e-23)
(1.06073 0.0988279 1.11008e-21)
(1.00042 -0.0130058 1.82703e-23)
(1.02034 0.0724567 2.41664e-22)
(0.999619 -3.26136e-05 -9.96792e-24)
(0.995604 -0.00144568 -1.11933e-22)
(0.971844 0.0834852 -3.87494e-21)
(1.02281 0.000752018 -1.99012e-21)
(1.01927 -0.000532282 1.38225e-21)
(0.978286 -0.0334767 1.50611e-21)
(0.999886 -2.47565e-05 2.55119e-24)
(1.00261 -0.00571998 -1.57622e-23)
(0.999878 -0.000702468 -7.25093e-24)
(1 -3.80146e-05 -1.9665e-27)
(1.03978 0.00683272 6.03623e-22)
(1.00003 -3.9429e-06 1.73185e-26)
(0.984811 -0.0116224 1.05559e-21)
(1.1658 0.00771161 1.36791e-21)
(0.928519 0.0711484 -9.04767e-21)
(0.999177 0.0863343 -1.37711e-20)
(0.977758 -0.0575791 5.02863e-22)
(0.990094 -0.0235762 3.50071e-22)
(0.982365 -0.00123051 2.88478e-22)
(1.02754 -0.0260652 5.5837e-22)
(1.00532 -0.0131699 -9.55914e-23)
(0.986206 -0.0126736 -6.14472e-22)
(0.97883 -0.0632479 2.18227e-22)
(1.02186 0.0617972 -5.4317e-21)
(0.999437 0.0211207 9.89646e-21)
(0.999038 -0.000112325 2.31488e-23)
(1.00143 0.0463799 -9.88111e-21)
(1.03928 0.00569365 2.20824e-22)
(1.13503 -0.0080189 -4.32021e-22)
(1.01057 -0.0114619 9.37204e-23)
(1.0011 -0.0119599 -6.71172e-23)
(1.02039 -0.0388598 -5.79871e-23)
(0.995927 -0.00139436 -2.64124e-22)
(0.997998 -0.000500107 -1.72048e-23)
(0.999955 -6.05969e-06 3.20492e-24)
(0.999384 -0.00658604 6.68484e-23)
(1.07504 -0.0215798 9.69349e-23)
(1.06035 0.101499 -1.80237e-21)
(1.0012 -0.00101328 2.3421e-23)
(0.979178 -0.0215232 -8.52914e-22)
(1.01191 -0.0116612 -2.98815e-22)
(0.999971 -1.26359e-05 -2.76138e-25)
(0.978248 -0.0602968 -7.94692e-22)
(0.912869 0.0559174 -4.00884e-21)
(0.995306 -0.0037046 3.90689e-22)
(0.999183 -0.00345879 2.3505e-23)
(1.01096 -0.0113243 -5.79902e-23)
(1.00507 -0.035928 4.2863e-22)
(1.05668 0.0285427 7.87476e-22)
(0.999761 -0.00746258 -1.17871e-23)
(0.999976 -3.96999e-05 1.69423e-24)
(1.00001 -1.85408e-06 6.39733e-26)
(0.997971 -0.000454864 -1.91098e-23)
(0.970644 0.0828265 5.6007e-21)
(1.03853 -0.0183113 3.49046e-22)
(1.06891 -0.146648 -6.39904e-22)
(1 -9.07302e-06 -3.35314e-27)
(1.04573 -0.142384 2.49639e-22)
(1.05783 0.00486363 -1.02921e-21)
(0.996079 -0.000124233 -1.21592e-22)
(0.947365 -0.00582957 -1.82945e-21)
(0.999245 -0.00339756 -2.33499e-23)
(0.99967 -0.000149966 -1.62798e-24)
(0.982592 -0.023058 -1.80306e-22)
(1.0007 -0.000870243 -2.42499e-23)
(1.13473 0.000439334 1.27302e-21)
(1.00688 -0.000882735 -6.75148e-22)
(1.10692 0.0934887 -2.16541e-21)
(0.999914 -0.00180381 3.52722e-24)
(1.00353 -0.0104941 3.01352e-23)
(1.00506 0.00761988 -5.04291e-21)
(1.1885 0.0331816 1.14618e-21)
(1.00031 -0.000437115 -1.46928e-23)
(1.00033 -0.000389508 1.45295e-24)
(0.992524 0.0586178 4.82044e-22)
(0.998811 -0.0423138 -1.56194e-22)
(0.999635 -0.00735428 1.42706e-23)
(1.00892 0.0230173 5.97985e-22)
(0.978567 0.0131062 1.1672e-20)
(1.10344 -0.0509922 1.40663e-22)
(1.00005 -0.0201603 -6.59929e-23)
(1.13211 0.0666995 2.85313e-21)
(0.999418 -5.41044e-05 -1.73476e-23)
(0.993333 -0.00329702 1.07281e-22)
(0.997448 -0.000210313 -6.56589e-23)
(1.01063 0.0197328 9.50559e-24)
(0.99999 -0.000577862 1.59537e-25)
(1.00668 -0.0010471 6.90032e-22)
(1.14477 -0.0809542 2.78294e-23)
(0.996216 0.0813057 1.3719e-20)
(0.944199 0.0811326 -2.03011e-21)
(0.995379 -0.00215982 1.33197e-23)
(0.993374 -0.00616528 1.13448e-22)
(1.03027 0.0719258 -3.53844e-21)
(1.01247 -0.0458509 4.43111e-22)
(0.999956 -6.92794e-06 -3.12668e-24)
(1.12475 0.102517 5.14043e-21)
(1.01893 0.00101893 -6.95596e-22)
(1.01848 0.00108674 -4.67113e-22)
(0.995782 -0.0105605 -1.55446e-22)
(1.0138 -0.00161233 -1.03186e-21)
(0.965555 0.0740718 1.87222e-21)
(1.12453 -0.107352 -2.59968e-22)
(0.983469 0.0739208 2.04149e-21)
(0.992106 0.0737343 -3.54166e-21)
(0.999997 -4.97714e-05 5.4517e-26)
(1.0725 -0.0213996 -3.37484e-22)
(1.12368 -0.102437 1.57679e-22)
(0.997942 -0.00299525 4.34966e-23)
(1.00124 -0.00109877 -3.8582e-23)
(0.975398 0.0151036 2.7846e-21)
(1.03998 -0.0186759 -4.59568e-22)
(1.00022 -5.7097e-05 2.39696e-24)
(0.987965 -0.049814 -1.69199e-21)
(0.979542 -0.0718284 -7.14852e-22)
(0.9957 -0.00148764 1.57336e-22)
(0.999907 -0.000162081 -3.05683e-24)
(1.02466 0.0850562 -6.23071e-22)
(1.0251 0.0375239 4.88339e-21)
(1.00004 -0.000393743 -1.2441e-25)
(1.00314 -0.00278235 3.0023e-23)
(1.004 -0.0027492 1.6207e-22)
(1.16595 -0.0370716 -1.34948e-22)
(0.978268 -0.0325637 -1.33818e-21)
(1.00005 -0.000465252 -1.34389e-24)
(0.999988 -1.25563e-06 -7.39847e-26)
(1.00038 -0.000134396 3.74125e-24)
(1.05536 0.0290797 -7.9046e-23)
(0.978311 -0.0222119 -6.84493e-22)
(1.00145 0.0382318 2.29248e-21)
(0.956525 -0.0404952 8.99366e-22)
(0.990719 -0.0234149 -3.68772e-22)
(0.980891 -0.000973479 -1.22025e-21)
(1.00997 0.0222128 -2.94079e-21)
(1.1441 0.0577552 1.67248e-22)
(0.999068 -0.000119724 4.23971e-23)
(1.00603 -0.00447039 -1.7301e-22)
(1.00065 -0.000864119 2.75019e-23)
(0.98246 0.0809758 -5.30063e-21)
(0.979937 -0.020065 3.66764e-22)
(1.00083 -0.000218976 -1.30167e-23)
(0.99414 -0.0029232 -1.43183e-22)
(1.11875 0.00761757 1.07531e-21)
(0.999838 -0.00801487 -2.88722e-23)
(0.991066 -0.0102423 -7.7916e-23)
(1.00018 -0.000111347 -7.38494e-24)
(1.00018 -4.06206e-05 -3.2651e-25)
(0.910663 0.0598683 6.29592e-21)
(0.993565 -0.00107508 -1.87388e-22)
(0.996286 -0.00381616 1.57889e-22)
(0.999708 -0.00146964 -1.79839e-23)
(0.999433 -4.06853e-05 -2.37314e-24)
(1.02728 0.0597677 -1.85757e-21)
(1.15005 -0.0799022 3.29672e-23)
(0.989729 -0.0355492 2.13263e-22)
(1.00001 -1.57973e-06 -6.38891e-26)
(1 -3.04346e-05 -1.15008e-27)
(0.97913 -0.0208073 9.65379e-22)
(0.994694 -0.00155534 3.80129e-23)
(0.99596 -0.00176713 -2.16141e-23)
(1.01088 -0.00380462 3.27414e-22)
(1.00443 -0.00180632 5.81573e-23)
(1.00064 -0.0133198 -3.09117e-23)
(1.09443 0.00418446 1.6471e-21)
(0.985194 -0.00370401 -2.41169e-22)
(0.98471 0.0725086 -1.6617e-21)
(1.01216 -0.0201192 -1.09649e-22)
(1.00019 -0.000111736 8.20146e-24)
(0.976922 -0.0565682 7.63921e-23)
(0.987984 -0.0314832 -7.69031e-22)
(1.12409 0.0343378 1.2282e-21)
(0.997782 -0.00494968 -4.57617e-23)
(0.993449 -0.0415787 -2.54153e-22)
(0.999983 -4.29802e-06 4.51619e-25)
(0.951955 0.059122 -6.32135e-21)
(1.01161 -0.00158749 5.85362e-22)
(1.00007 -0.000190161 -2.74922e-24)
(0.940385 0.0157299 -7.92835e-21)
(0.988887 -0.0358104 5.02535e-22)
(0.999983 -5.03432e-06 7.3035e-26)
(1.00113 -0.00100137 1.13651e-23)
(0.977278 -0.0591497 -4.47403e-22)
(1.03288 -0.0265855 1.84848e-22)
(1.03695 -0.00653117 7.8577e-22)
(0.999993 -2.29845e-06 1.00254e-25)
(0.993547 -0.000541626 1.49294e-22)
(1.02092 -0.0378521 2.83656e-23)
(0.99582 -0.00136341 2.18028e-22)
(0.999634 -3.7976e-05 -5.38982e-23)
(0.993466 -0.00340479 3.39666e-24)
(0.981503 0.0267007 6.99468e-22)
(0.994559 -0.0104085 -1.98248e-22)
(0.991445 -0.0100191 5.75516e-23)
(1.00201 0.026047 -2.39743e-21)
(0.997852 -0.00184806 5.06946e-23)
(0.979052 0.0819692 -6.7935e-22)
(0.999982 -5.01736e-06 -2.31217e-25)
(0.992465 -0.0234426 1.44998e-22)
(0.989964 -0.0692429 1.60488e-21)
(0.994335 -0.0417809 4.24266e-22)
(1.1677 -0.00327347 -2.71462e-22)
(0.999122 -0.00453307 5.94607e-23)
(1.00818 -0.0190886 6.71287e-23)
(0.999957 -0.00194087 8.86013e-25)
(0.986727 -0.0184692 -4.55469e-22)
(1.03448 -0.029042 8.44087e-23)
(0.999972 -1.20269e-05 1.39167e-24)
(1.00001 -9.42669e-07 -1.13091e-25)
(0.994966 -0.000344138 1.01238e-22)
(0.984644 0.0509738 4.68388e-21)
(1.0106 -0.0155198 3.94568e-22)
(1.00204 -0.00284092 -4.83086e-23)
(0.944038 -0.0303092 1.31393e-21)
(1 -8.0779e-06 -1.16775e-26)
(1.00077 -0.00094782 -4.39578e-23)
(0.999971 -0.000550909 -6.11697e-25)
(1.0117 -0.0147785 4.17463e-22)
(0.986682 -0.0136025 8.13602e-23)
(0.999698 -0.000232556 6.76699e-24)
(0.994844 -0.00928472 7.23857e-23)
(0.990113 -0.00593034 -8.57928e-23)
(1.0008 -0.000129617 -3.5836e-24)
(0.999981 -5.86564e-06 -1.4511e-25)
(1.15894 0.0287876 1.76218e-21)
(0.999737 -0.00144697 1.92221e-23)
(1.05686 0.000947948 8.03517e-22)
(1.00532 0.0802005 1.35155e-20)
(1.02757 0.0706588 -3.21087e-21)
(1.00104 -0.016904 -1.16965e-22)
(1.0043 -0.00161154 -1.9288e-23)
(1.01398 -0.00125609 6.31905e-22)
(0.999993 -0.00198697 -1.00364e-24)
(0.998381 -0.00857441 7.00792e-23)
(1 -1.37267e-05 -2.1375e-28)
(0.990474 0.0738476 -2.70485e-22)
(0.990447 -0.0135113 1.10165e-22)
(1.01059 -0.00345884 -2.33547e-22)
(0.98555 -0.0038443 4.93942e-22)
(1.00315 -0.0103247 2.55217e-24)
(0.99792 -0.00487203 9.94931e-23)
(0.999917 -0.000165985 7.00042e-25)
(1.00002 -6.67878e-07 -5.899e-25)
(0.996416 -0.00379788 -1.14863e-22)
(1.04242 -0.00493706 -4.48849e-22)
(1.00394 0.0349379 3.71884e-22)
(1.00096 -0.000391282 -5.31399e-23)
(0.980815 -0.05226 -3.90399e-22)
(0.979863 -0.0194627 -1.66217e-22)
(0.9937 -0.000432228 -5.6027e-22)
(1.13853 0.0905127 -2.15976e-21)
(0.998974 -0.000793987 -2.52728e-23)
(1.00324 -0.0117102 -9.45387e-23)
(0.995643 -0.00232535 1.09385e-22)
(0.999924 -0.000160197 6.00166e-25)
(0.977719 -0.0619545 4.99011e-22)
(1.00195 0.0361586 -3.60659e-21)
(1.0201 0.0291201 -3.18441e-21)
(0.981674 -0.0129632 -7.98037e-23)
(1.00129 0.0352453 -1.66331e-22)
(1.00007 -0.000178254 5.35839e-24)
(1.00001 -1.2706e-06 1.84192e-25)
(1.12378 0.0999803 -1.91272e-21)
(1.12858 0.0364395 -1.34077e-21)
(0.942384 0.0602682 -3.16676e-22)
(1.00591 -0.0708727 1.06484e-21)
(0.981096 -0.00133934 -3.73194e-22)
(1.11582 0.0108416 -1.51046e-21)
(1.00092 -0.000415734 6.017e-23)
(0.995491 -0.0031397 6.27758e-23)
(1.00036 -0.000145027 -3.56768e-24)
(0.991378 -0.000612692 -1.23866e-22)
(0.990676 -0.0110346 -1.62392e-22)
(0.999997 -2.71737e-05 -1.73225e-25)
(0.999297 -2.81132e-05 9.90813e-24)
(0.99611 0.079541 -1.24892e-20)
(0.999897 -0.000573347 6.72644e-24)
(0.957045 0.0544032 7.64073e-21)
(1 -1.30661e-05 1.1734e-28)
(1.17059 0.0614113 2.17871e-21)
(1.05725 -0.000387743 -1.69754e-21)
(1.09338 0.00613496 -1.81995e-21)
(1.00082 -0.00040294 3.62319e-24)
(1.00015 -3.45073e-05 6.57116e-24)
(0.987402 0.0479673 -6.99925e-21)
(1.05848 0.0032206 3.34356e-21)
(0.989601 -0.0707398 -1.47908e-21)
(1.01459 0.027819 1.42925e-21)
(0.998819 -0.0172861 5.67393e-23)
(0.98918 -0.00453174 -1.26483e-22)
(0.996765 -0.000185482 -6.65582e-23)
(1.06115 0.116394 -8.40564e-21)
(0.980949 -0.0232817 5.84453e-22)
(1.02773 -0.0247861 -3.57691e-22)
(0.995057 -0.00920577 -4.12457e-23)
(1 -8.00709e-06 -1.33028e-27)
(0.998983 -0.000747341 -2.14506e-23)
(1.00471 -0.00472037 1.0342e-22)
(0.985059 -0.00683919 6.38283e-22)
(0.982176 -0.0130577 1.18162e-22)
(0.964699 -0.0361958 -1.88811e-22)
(0.98491 -0.00726256 -4.82884e-22)
(1.01409 0.00198282 2.65958e-22)
(0.998311 -0.000112098 1.34329e-24)
(0.949164 -0.0345504 6.77274e-22)
(0.988573 -0.000771774 -1.76208e-22)
(1.00003 -0.000172807 9.189e-25)
(0.990056 -0.000613077 -1.2251e-22)
(1.02858 -0.0269538 -6.33807e-22)
(1.01349 0.00213785 -1.47005e-21)
(0.979204 -0.0234963 -1.47691e-22)
(0.999986 -6.32551e-07 -2.00509e-27)
(0.986042 -0.013926 1.21984e-22)
(1.00202 -0.0120063 -1.7767e-26)
(1.0011 -0.000937547 1.4564e-23)
(1.14526 -0.100563 -6.45087e-22)
(1.00126 0.036085 -8.30816e-21)
(1.00072 -0.000938359 4.0816e-23)
(0.990225 -0.000458048 1.80147e-24)
(1.09643 -0.0532655 -4.10797e-23)
(1.0199 0.00043731 2.3653e-21)
(0.990675 0.0222288 -7.45346e-22)
(1.00147 -0.00199236 1.30383e-23)
(1.00095 -0.0176293 3.705e-23)
(1.05122 0.0889976 -1.18236e-21)
(1.01155 0.0177474 -7.39915e-21)
(0.993345 -0.0233065 3.80229e-22)
(1.00379 -0.00277472 -1.8139e-23)
(0.960869 -0.0432606 8.97689e-22)
(0.999998 -3.75665e-06 3.69452e-26)
(0.95878 -0.00184811 -6.8331e-22)
(1.00007 -5.6858e-05 9.60606e-25)
(1.09439 -0.055148 1.57843e-22)
(0.999973 -2.70108e-06 -1.55753e-25)
(1.00002 -5.05358e-05 6.36317e-25)
(1.00075 -0.0197361 -4.39753e-23)
(1.14731 0.0651985 -1.81841e-21)
(1.01217 0.100689 6.04605e-21)
(1.03138 -0.0273429 -1.01148e-21)
(1.01142 -0.0118237 1.98803e-22)
(0.999999 -2.62591e-06 -8.04032e-27)
(0.995129 -0.00373242 -2.11486e-22)
(1.00007 -1.64226e-05 -7.01381e-25)
(0.997503 -0.00197779 7.24292e-23)
(1.00002 -4.70108e-05 -4.95192e-25)
(1.03687 -0.00519008 -2.45417e-21)
(0.999627 -0.0003848 -2.6574e-23)
(1.03497 0.040842 3.33157e-21)
(0.999902 -0.000178402 -4.81797e-24)
(0.989589 -0.00442425 -2.13475e-22)
(0.965509 -0.000973111 1.49537e-21)
(0.996598 -0.000239066 -8.5507e-23)
(0.986287 0.0281018 7.17938e-21)
(0.985912 -0.000625907 3.48149e-22)
(1.03281 -0.0872919 6.91195e-23)
(0.995613 -0.00328974 3.24012e-22)
(1.01926 -0.00171549 -5.13895e-22)
(0.978581 -0.0532567 1.7994e-21)
(1.01497 -0.0010929 -1.74965e-21)
(1.04013 -0.0549221 -1.44435e-23)
(0.999988 -8.48463e-07 1.9871e-26)
(0.999975 -0.0167033 4.26369e-23)
(0.99682 -0.000244523 1.04213e-23)
(1.0002 -7.60327e-05 4.8984e-24)
(1.00007 -1.37612e-05 1.18746e-24)
(1.0634 0.118218 9.2135e-21)
(0.996094 -0.0017725 1.82152e-22)
(1.01979 0.00113886 2.68297e-21)
(1.00147 -0.0180032 4.35589e-23)
(1.00069 -0.000250172 1.39e-23)
(1.01821 -0.00574419 -1.95853e-21)
(1.00013 -3.02913e-05 -1.4721e-23)
(0.99998 -2.76186e-06 -2.09153e-26)
(0.959307 -0.00245688 5.25935e-22)
(0.997219 -0.00100371 8.24328e-23)
(1.00002 -4.58067e-05 7.16613e-25)
(1.03438 0.0709758 2.45753e-21)
(0.920367 0.0485485 -1.1183e-20)
(0.999834 -0.000189243 1.21763e-23)
(0.967105 -0.00195999 -4.03344e-22)
(1.00001 -1.11928e-06 1.32125e-25)
(0.963402 0.072462 -7.46831e-21)
(1.17416 0.0647659 2.5891e-21)
(0.977819 -0.0424852 -1.50135e-21)
(1.00004 -0.000451478 -1.54356e-24)
(1.02667 -0.0239842 8.02578e-22)
(1.0228 -0.00110933 -7.05245e-22)
(1.02332 0.000800412 2.02736e-22)
(1.03788 -0.00691283 -3.13215e-22)
(0.999731 -0.00155128 -3.2294e-24)
(0.999895 -0.000686369 5.66537e-24)
(0.988928 -0.0134894 -3.56472e-22)
(1 -6.99182e-06 -7.7782e-26)
(1.00001 -6.85978e-07 -3.33304e-26)
(0.98019 -0.0229011 -3.4743e-22)
(1.00228 -0.0533525 -5.75722e-22)
(0.965776 -0.0354542 -4.91567e-23)
(0.933709 0.0683394 -2.13597e-22)
(1.00016 -2.01127e-05 -6.06718e-24)
(1.02131 -0.0649954 -9.7692e-22)
(1.00584 -0.00419807 -1.78074e-22)
(0.999982 -2.87592e-06 2.37918e-25)
(0.999208 -0.00321857 -5.15491e-23)
(1.00003 -0.000384431 -9.98462e-25)
(0.996647 -0.0106684 1.169e-22)
(1.00004 -8.50473e-06 7.29113e-25)
(1.0415 -0.0535117 -2.1633e-23)
(1.01474 -0.00135606 1.70043e-21)
(0.980077 0.0804971 1.80288e-21)
(1.01878 -0.00162328 1.92446e-21)
(0.99978 -0.000183673 9.77352e-24)
(1.00036 -0.000319112 -1.39886e-23)
(1.16768 -0.0420188 1.0116e-22)
(1.01965 0.00100134 -2.15662e-21)
(0.997534 -0.000325451 7.42498e-23)
(1.00002 -9.13043e-07 2.77091e-25)
(1.0452 0.0651514 -4.1528e-21)
(1.11767 -0.14246 -4.27639e-22)
(1.00577 -0.0691872 -4.53845e-22)
(0.988255 -0.000657373 -9.34873e-23)
(0.999983 -1.79066e-05 4.37011e-25)
(0.999782 -0.000173205 -5.72724e-24)
(1.1248 -0.144154 1.23373e-21)
(1.00124 -0.0422608 -1.56844e-22)
(1.02571 0.0218234 4.56472e-22)
(0.9845 0.0699834 6.91904e-21)
(1.0312 -0.0850012 5.55923e-22)
(0.998995 -6.76028e-05 -1.31893e-23)
(0.999983 -8.3445e-06 -5.32238e-25)
(0.970891 -0.0459746 1.50065e-21)
(0.98761 -0.0925129 -1.76382e-21)
(0.999841 -0.000195153 6.51978e-24)
(1.00867 -0.0185581 2.29941e-22)
(0.993572 -0.0226549 -6.50878e-23)
(0.9963 -0.00189722 7.16283e-23)
(0.997932 0.029965 -5.7816e-21)
(0.998978 -0.000454806 4.71251e-23)
(1.04742 -0.0366651 1.94231e-22)
(1.10171 0.11403 -4.72358e-21)
(0.993807 -0.00276462 -2.10529e-22)
(0.941026 0.0568565 -1.12924e-21)
(0.945617 0.0269325 3.38666e-21)
(0.999976 -4.24894e-05 -1.69741e-24)
(0.99998 -0.00060228 -2.95063e-25)
(0.986089 -0.00082857 -2.21829e-22)
(1.0102 -0.00374097 -4.21907e-22)
(0.968536 -0.00179926 8.44344e-22)
(1.00411 -0.00343152 -1.86946e-22)
(0.994036 -0.00277211 1.9642e-22)
(0.99955 -0.000413337 -2.02691e-23)
(0.969011 0.0727807 -1.34538e-21)
(1.03553 0.0393422 -5.1717e-21)
(1.00181 -0.00192583 3.33019e-23)
(0.893527 0.0311683 -2.24734e-21)
(1.00001 -1.05952e-06 -1.89427e-25)
(1.01829 0.00475088 -3.69257e-21)
(1.00248 -0.0875222 1.10547e-21)
(1.02345 -0.0646316 3.75935e-22)
(1.00008 -0.000172694 -2.77061e-25)
(0.96696 -0.00100053 6.89319e-22)
(1.01627 0.00400474 2.05934e-21)
(1.00999 -0.00407674 3.50161e-22)
(1.02236 -0.000537216 9.68342e-22)
(0.999644 -2.93391e-05 3.80351e-23)
(0.999622 -0.000410932 2.40718e-23)
(1.02341 -0.0363567 -4.02949e-23)
(0.997265 -0.00108424 -2.34263e-22)
(0.989926 -0.0100726 -3.85131e-22)
(0.999307 -0.00292233 3.05005e-24)
(1.0534 0.0333299 2.86737e-21)
(0.999832 -0.0174325 -3.02054e-23)
(0.996068 -0.00403704 3.51922e-24)
(0.940745 -0.0257528 -1.99179e-21)
(0.994055 0.0586617 7.93148e-22)
(1.09098 -0.0115927 -1.45377e-21)
(1.01771 -0.00548012 1.56918e-21)
(0.999684 -0.000150594 7.20244e-24)
(0.999597 -0.000268325 3.25279e-24)
(0.986084 -0.0182804 9.26092e-22)
(1.00079 -0.00102156 -3.27012e-23)
(0.997943 -0.000571487 -1.32963e-23)
(0.999983 -1.71341e-05 -1.61479e-25)
(0.999756 -0.00158002 7.26762e-25)
(1.01589 0.00372145 -7.9874e-22)
(0.986832 0.0501273 -6.72944e-21)
(0.999899 -1.305e-05 1.50789e-24)
(1.07684 0.112655 -8.40898e-21)
(0.999996 -3.41622e-05 7.61745e-26)
(0.99743 -0.00234053 9.86673e-23)
(0.999993 -7.79936e-05 1.44738e-25)
(1.00413 -0.00296314 -8.25936e-23)
(1.16244 0.0270877 -1.33767e-21)
(0.999969 -3.49511e-05 1.51282e-25)
(0.999968 -3.79524e-05 1.04796e-24)
(0.955582 -0.0410146 -8.88938e-22)
(1 -6.91771e-06 -6.30405e-27)
(1.04035 -0.00631761 2.66151e-21)
(0.991821 -0.0362489 6.6978e-22)
(0.99998 -0.000528657 5.34032e-25)
(1.0472 0.0525349 -3.25236e-21)
(1 -2.43141e-05 -1.58954e-26)
(0.999684 -3.10714e-05 3.32545e-23)
(0.99993 -2.92707e-05 5.63449e-26)
(0.996216 -0.00405138 -5.91116e-23)
(0.999735 -0.0012577 -9.43194e-24)
(0.99506 -0.000256663 -6.8209e-23)
(1.01559 -0.105437 -1.2888e-22)
(0.999765 -0.00122515 6.22217e-24)
(1.00333 -0.00278622 -6.44071e-23)
(0.99998 -1.99776e-06 -8.96773e-26)
(1.0135 0.0990437 -1.14923e-20)
(1.04624 -0.0378839 4.95194e-22)
(1.09342 -0.0114021 -2.07221e-22)
(0.970878 -0.00536083 9.17406e-22)
(0.981467 -0.00373379 -1.64044e-22)
(0.999279 -0.00314903 8.48726e-23)
(1.00231 -0.00213152 9.02615e-23)
(1.02715 0.0469733 1.34626e-21)
(0.987485 -0.032463 1.04807e-22)
(1.06468 0.0817381 1.72355e-21)
(0.963493 -0.0123742 -1.68828e-21)
(0.997336 -0.00226052 -9.33103e-23)
(0.999992 -3.01741e-06 -1.80251e-25)
(0.995491 -0.00233504 -1.31824e-22)
(1.00021 0.0936421 2.88418e-21)
(1.04102 0.0567639 -7.42076e-22)
(0.989285 -0.0493016 5.61205e-22)
(0.949671 -0.00540838 4.02566e-22)
(1.01671 0.0948717 3.0829e-21)
(0.99321 -0.000490621 1.775e-22)
(0.996756 -0.0802996 8.72124e-23)
(0.999994 -7.37571e-05 1.64628e-25)
(0.990875 -0.0365183 8.47982e-22)
(0.999344 -0.000186227 -4.88982e-23)
(0.901753 0.0527026 -6.53977e-21)
(0.988582 -0.0657579 -1.26353e-21)
(0.999931 -2.60427e-05 2.73913e-24)
(0.946521 -0.0177442 -1.08613e-22)
(0.987557 -0.0344769 5.09356e-23)
(1.01805 0.0495405 4.6935e-21)
(0.997972 -0.0006234 -1.25871e-22)
(0.985787 -0.0333775 -3.16483e-22)
(0.998239 -0.00879412 -9.72964e-23)
(1.00077 -0.0190459 -9.26469e-23)
(0.999007 -0.000461246 -3.20582e-23)
(1.01746 0.0485193 -5.67892e-21)
(1.05806 -0.145839 1.04953e-21)
(0.986005 -0.0144962 -2.72165e-22)
(0.989344 -0.0125203 5.57354e-24)
(0.989677 -0.00417362 -8.64726e-23)
(1.0041 -0.00167945 -7.52323e-23)
(1.01794 0.0927116 1.21324e-20)
(0.985869 -0.0117809 1.2461e-22)
(1.01034 0.0260632 3.09065e-21)
(1.00213 -0.00172411 6.86692e-23)
(1.16994 0.00134182 -3.66727e-23)
(0.955133 0.0583323 1.11702e-21)
(0.993077 -0.000385884 -6.13409e-22)
(0.99982 -3.34927e-05 6.4046e-24)
(1.02588 0.0611745 1.44775e-21)
(0.99461 0.0762634 -1.03854e-20)
(1.02253 -0.0350447 8.77649e-23)
(1.06836 -0.0243076 1.7303e-22)
(0.996471 -0.0111064 -1.28589e-22)
(0.971333 -0.00483702 -5.42934e-22)
(1.04996 0.0871637 4.80545e-21)
(0.969704 -0.0462574 2.67531e-22)
(0.999981 -1.71604e-05 5.84823e-25)
(0.994124 -9.23022e-05 -3.12766e-22)
(1.00003 -5.0782e-06 7.46088e-25)
(0.996478 -0.000214081 2.32854e-22)
(0.99998 -1.82963e-05 -9.09836e-25)
(0.998703 -0.0122788 1.61063e-22)
(0.999248 -3.17211e-05 1.74489e-23)
(0.997883 -0.00461266 1.16645e-23)