/*--------------------------------*- C++ -*----------------------------------*\
  =========                 |
  \\      /  F ield         | OpenFOAM: The Open Source CFD Toolbox
   \\    /   O peration     | Website:  https://openfoam.org
    \\  /    A nd           | Version:  7
     \\/     M anipulation  |
\*---------------------------------------------------------------------------*/
FoamFile
{
    version     2.0;
    format      ascii;
    class       volVectorField;
    location    "13.5";
    object      U;
}
// * * * * * * * * * * * * * * * * * * * * * * * * * * * * * * * * * * * * * //

dimensions      [0 1 -1 0 0 0 0];

internalField   nonuniform List<vector> 
19930
(
(0.996834 -0.000336888 -2.0697e-23)
(0.987488 -0.000931733 9.0594e-22)
(1.02706 -0.00359333 -1.1876e-22)
(1.00032 -3.22855e-05 -1.31279e-24)
(1.00087 -0.00905605 7.21815e-23)
(1.00054 -0.00960944 -7.01655e-23)
(1.02305 -0.159012 -8.78827e-22)
(1.18313 0.0675536 -2.38177e-20)
(1.00353 -0.0793996 -2.29757e-21)
(1.18989 0.0636937 1.70815e-20)
(1.03552 -0.146259 -2.45966e-21)
(1.30939 0.0100428 -6.12614e-22)
(0.986643 -0.0510929 -4.25628e-22)
(0.996716 -0.000399749 1.37594e-23)
(0.995925 -0.00348613 1.41402e-22)
(1.00031 -4.31972e-05 -1.25537e-24)
(1.2689 -0.114815 9.20578e-23)
(1.15077 -0.0020785 -1.33766e-20)
(0.997795 -0.117121 -1.77511e-21)
(0.990068 -0.000456444 -7.94612e-22)
(1.01373 -0.0921998 2.8559e-21)
(1.3077 0.0136436 -1.02023e-21)
(1.19788 0.0684347 -1.26215e-20)
(1.10026 -0.200218 -1.70325e-21)
(1.02503 -0.00151211 8.95955e-24)
(1.00825 0.172758 -4.58567e-20)
(1.00931 -0.0026901 -4.69432e-23)
(0.994325 -0.055378 1.35819e-21)
(1.14535 -0.204251 -1.2786e-21)
(0.999838 -0.118729 6.06931e-21)
(0.998788 -0.0022714 -1.97674e-24)
(0.869481 0.0362643 7.53786e-20)
(1.2716 0.0715644 8.5825e-21)
(0.992921 -0.032534 1.4942e-22)
(1.0001 -0.00167951 8.31582e-24)
(0.998854 -0.00244468 -7.16136e-24)
(1.19113 0.0960679 -2.55961e-20)
(0.999861 -3.98732e-06 -1.76269e-24)
(1.01507 -0.0195191 -1.23313e-23)
(1.15765 -0.011148 -4.52881e-21)
(1.04238 -0.00884366 5.44853e-23)
(1.27877 0.138505 1.53527e-20)
(1.06899 0.0718273 -1.25739e-20)
(1.00833 -0.00314526 3.91567e-23)
(1.00592 0.165433 1.83784e-20)
(0.973781 -0.00177158 5.43549e-22)
(1.14371 0.00728386 -3.86917e-20)
(1.29307 -0.0518458 -2.29819e-21)
(0.999564 -0.000113747 -5.34415e-26)
(0.97556 -0.0447205 2.63329e-22)
(1 -0.00178785 -2.09769e-23)
(1.08098 -0.0103755 3.44291e-21)
(1.16736 -0.151577 2.08317e-21)
(1.00045 -0.00391958 -2.73574e-23)
(1.19931 -0.166794 -7.43362e-22)
(0.951275 -0.0185649 -3.01793e-22)
(0.980333 -0.0303691 6.80744e-23)
(0.998674 -0.00292807 3.97806e-24)
(1.00957 -0.0473963 -1.15115e-21)
(1.26803 -0.109424 1.41173e-23)
(0.946798 0.0635219 3.98547e-20)
(0.965107 -0.00492042 8.71541e-22)
(0.988902 -0.00370126 -2.24708e-22)
(1.20237 0.0516036 -1.06353e-21)
(0.999293 -0.000115512 4.09372e-26)
(0.995817 -0.00819117 3.54392e-24)
(1.00014 0.11559 1.18463e-21)
(0.995316 -0.00855919 8.71246e-23)
(1.11694 -0.0951022 2.34869e-21)
(1.02193 0.172224 1.70246e-20)
(1.04034 -0.044151 6.98939e-22)
(1.26061 -0.139139 -7.15485e-22)
(0.996311 -0.00348226 -2.96599e-23)
(0.985268 -0.0377388 1.50186e-21)
(0.999441 0.0288931 -1.7412e-20)
(1.06985 -0.0925286 -1.15435e-22)
(1.01886 0.159863 7.8506e-21)
(0.955332 -0.00576576 2.56626e-22)
(1.15469 -0.0103513 2.85166e-21)
(1.00871 0.064223 2.48764e-20)
(0.996696 -0.00849934 2.34369e-22)
(1.00234 -0.00460128 -1.23538e-23)
(1.12885 -0.200667 1.03305e-21)
(1.00466 -0.0770985 1.91003e-21)
(0.967869 -0.00392209 -9.59778e-22)
(1.06421 0.0683022 6.05388e-20)
(0.989353 -0.0478494 -8.07221e-22)
(0.777977 0.122189 7.22954e-21)
(1.19493 0.0496939 -1.02867e-20)
(0.977542 0.182579 2.96829e-20)
(1.1617 0.0168674 -1.45787e-20)
(1.00038 -6.92465e-05 1.16541e-24)
(1.00006 -0.000321988 8.8264e-24)
(0.883087 0.0118534 -2.13451e-20)
(1.29348 -0.058423 1.20259e-21)
(0.989461 -0.00387063 -1.33712e-22)
(0.904796 0.00764791 3.26701e-20)
(0.999574 -0.0046847 2.64823e-23)
(1.04023 -0.14243 -1.01764e-21)
(1.11591 0.0189069 -1.55345e-20)
(0.971573 0.189493 -8.80683e-20)
(0.976759 -0.0110104 7.88668e-23)
(0.948395 0.176119 -9.73898e-20)
(1.15901 -0.137379 5.90739e-22)
(1.11522 -0.00435542 -8.47046e-21)
(1.09619 -0.0954747 -1.4021e-21)
(1.0801 0.176427 3.06871e-20)
(1.15339 -0.116583 -1.20896e-21)
(0.987125 -0.000540728 -8.9888e-22)
(1.1254 0.186869 6.62824e-21)
(1.15147 -0.209447 -4.30488e-21)
(1.01884 -0.157716 -2.04311e-21)
(0.979536 -0.024063 6.19858e-22)
(1.03427 -0.0227938 -6.80433e-22)
(1.07294 -0.0863201 -3.04288e-22)
(1.0001 -7.99443e-05 -1.94534e-24)
(1.10883 0.109717 2.87531e-20)
(0.997231 -0.00795351 -8.84739e-23)
(1.14892 -0.145774 3.37265e-22)
(1.007 0.0545627 -5.85295e-20)
(1.00038 -4.86439e-05 2.07141e-25)
(1.02438 -0.0971885 1.63172e-21)
(1.18566 -0.00913265 -5.83266e-21)
(1.01004 -0.054047 -1.58034e-21)
(0.992813 -0.0308808 -1.55427e-22)
(1.15232 -0.00255092 6.91031e-21)
(1.30234 0.0443959 -1.72321e-20)
(0.994159 -0.0533631 1.12505e-21)
(0.855652 0.0430841 -2.21407e-20)
(1.10341 0.115941 1.53984e-20)
(0.990292 -0.0611004 -1.05011e-21)
(0.97525 -0.0430633 -8.1089e-22)
(1.04256 -0.00459782 4.31226e-22)
(1.01423 -0.0179144 1.29854e-22)
(1.06486 0.16794 -4.22493e-20)
(1.10998 -0.00795101 -2.37409e-21)
(1.28967 -0.030329 -3.58195e-21)
(1.01654 -0.0930821 -1.22377e-21)
(0.981872 -0.0110278 7.09853e-22)
(0.990898 -0.0802906 4.57385e-21)
(1.0204 -0.0996037 3.21442e-22)
(0.983781 -0.038927 -1.47546e-21)
(1.25709 -0.147853 -6.41093e-22)
(0.943524 0.194804 -3.0808e-20)
(1.22382 -0.0695851 2.33989e-21)
(1.06503 0.174509 3.82866e-20)
(1.30929 0.0810532 -2.08706e-21)
(0.96984 -0.0116827 -6.63722e-22)
(1.29584 0.032502 -1.24913e-20)
(1.01048 -0.00360894 1.08424e-22)
(0.969217 -0.0107284 1.32947e-21)
(1.02386 0.167683 1.94097e-21)
(1.00008 -0.000274619 -5.61709e-24)
(1.00355 -0.0714318 7.43054e-22)
(1.00228 -0.00413626 1.83913e-23)
(1.3111 0.0875585 1.08023e-20)
(1.05776 0.0728691 -6.40077e-21)
(1.09654 -0.195486 7.19022e-21)
(0.947548 -0.0213616 5.73279e-22)
(0.985798 -0.0522582 9.00867e-22)
(1.20113 -0.176052 9.63595e-22)
(1.02762 -0.154716 1.35577e-21)
(0.998625 -0.00270978 -6.86456e-24)
(1.2246 -0.0633217 -3.76809e-21)
(1.14045 -0.00850774 -1.31222e-21)
(0.785752 0.127405 1.72379e-20)
(0.977959 -0.0111344 5.36781e-22)
(1.12171 -0.204952 4.27315e-22)
(1.06532 -0.0935753 1.40307e-22)
(1.18801 0.0913569 -1.53198e-20)
(1.29165 -0.033653 1.23326e-21)
(0.98779 0.132108 1.82525e-20)
(1.18626 0.196396 4.20531e-20)
(0.990276 -0.0284179 2.97271e-23)
(0.801737 0.0343249 -2.58748e-20)
(1.27518 0.0669674 1.0199e-20)
(0.99641 -0.000782007 2.4467e-23)
(0.97483 0.0172158 -4.66117e-20)
(1.0795 -0.0859262 -7.29868e-23)
(1.11667 0.201847 1.31166e-20)
(1.06071 0.189349 -1.94924e-20)
(0.999798 -5.0577e-06 2.11772e-24)
(0.92941 0.134668 1.25491e-21)
(1.16174 0.170349 3.68903e-20)
(0.989376 -0.000745299 5.22216e-23)
(0.944217 -0.0156184 3.22952e-21)
(1.04005 -0.0412825 -4.4329e-22)
(1.12288 0.0130943 -3.99392e-21)
(1.15204 -0.139877 -3.47609e-22)
(0.855782 0.107844 2.2447e-20)
(1.29637 0.0443926 -6.21381e-21)
(1.23864 -0.112379 7.55046e-22)
(1.11017 0.0146757 3.11008e-20)
(1.11816 -0.0885675 2.47824e-21)
(0.948494 -0.0223839 1.42677e-21)
(1.28517 -0.00366422 -7.63235e-21)
(0.932425 0.141618 -1.45358e-21)
(1.27123 -0.0753043 -3.55637e-21)
(0.991676 -0.000292672 -5.72365e-27)
(0.846298 0.106883 -2.20336e-20)
(1.26967 -0.0408424 -9.51465e-21)
(1.21905 -0.151602 4.78121e-22)
(1.16902 -0.14469 -9.81382e-22)
(0.874208 0.122354 -2.69473e-20)
(0.911917 0.125475 6.23666e-20)
(0.967225 -0.0247635 -5.8712e-22)
(1.00055 -0.0399165 -1.12706e-22)
(1.08117 -0.00614543 -4.71121e-22)
(0.951912 -0.0199887 -1.43115e-21)
(0.998413 -0.000153101 -1.49685e-23)
(1.00401 0.118019 -8.55154e-21)
(0.973949 0.0485022 -1.67287e-20)
(0.969655 -0.0145881 1.02267e-21)
(0.9594 -0.033565 7.94258e-22)
(1.11662 0.193683 1.98222e-20)
(0.998097 0.0451806 2.64261e-20)
(0.998321 -7.08491e-05 6.70045e-23)
(1.00425 0.0475941 -3.97157e-20)
(1.15897 -0.113521 -6.00238e-22)
(1.01532 -0.0157763 -2.59176e-22)
(1.00404 -0.0578376 1.27465e-22)
(1.07563 0.115172 -3.15781e-21)
(0.925491 0.220997 2.89961e-20)
(1.15805 0.0157581 1.92668e-20)
(1.12317 0.176918 -3.22356e-20)
(0.980689 -0.0110038 -1.20309e-21)
(1.00261 -0.0394757 -5.20232e-22)
(1.00014 -8.94176e-05 5.28527e-26)
(0.998807 -5.36513e-05 -2.94443e-23)
(1.00072 -0.00759616 1.44471e-22)
(1.18131 -0.0100116 2.6912e-21)
(1.11765 -0.137672 -4.26047e-22)
(1.08133 0.169478 -3.91238e-20)
(0.997525 -0.0941603 1.27112e-21)
(1.04557 0.0600389 2.35859e-20)
(0.990742 -0.0462478 -1.44717e-22)
(1.09085 -0.0904806 9.71722e-22)
(0.991889 0.128382 3.22923e-20)
(0.88923 0.00926909 1.10861e-19)
(1.07522 0.10812 5.48427e-20)
(1.0225 0.153483 -4.84938e-20)
(0.957868 -0.0328854 -7.09721e-22)
(1.24979 0.132629 -1.00251e-20)
(1.0111 -0.0524769 1.72198e-21)
(1.12048 -0.00751435 1.71929e-20)
(0.997051 -0.00719037 -1.62537e-22)
(1.23431 -0.171876 -2.9505e-21)
(1.17438 -0.0922574 5.19547e-21)
(1.08915 -0.0315595 5.31494e-21)
(0.999583 -8.6416e-05 2.03249e-26)
(0.985066 -0.000750589 1.05482e-21)
(0.916611 0.227279 -4.47074e-20)
(1.22514 -0.00540214 3.71853e-20)
(1.01444 -0.0210212 8.70116e-23)
(0.972656 -0.0482971 -1.44529e-21)
(1.11336 -0.132213 7.05765e-23)
(1.05272 -0.174379 3.25279e-21)
(1.27307 0.145759 -2.00296e-21)
(0.992074 -0.0794863 -1.24897e-21)
(0.969367 -0.00219394 -1.00223e-21)
(0.99614 -0.062848 1.52895e-21)
(0.993622 -0.0274209 -1.73174e-22)
(0.999197 -9.07705e-05 8.47423e-25)
(0.9899 -0.044152 7.35063e-22)
(1.03096 -0.155401 -6.46784e-22)
(0.940482 0.186836 5.81409e-20)
(1.28439 -0.0801535 1.42096e-21)
(0.981101 -0.0229836 -1.19464e-21)
(1.04162 0.0635798 -3.64907e-20)
(0.916832 0.134508 -7.47569e-21)
(0.989909 -0.0497201 1.63915e-22)
(1.00069 -0.000274634 -5.81421e-24)
(1.00259 -0.0740894 -1.34839e-21)
(0.999511 0.108494 9.94521e-21)
(1.20723 -0.195619 -1.97799e-21)
(0.950769 0.0586436 -5.99219e-20)
(1.00006 -9.52282e-05 9.80527e-25)
(0.961185 -0.0367051 1.33976e-21)
(1.16405 0.211918 3.44051e-21)
(0.9991 0.0437426 5.32411e-20)
(1.02792 -0.073569 -2.25679e-22)
(0.981628 -0.0290438 7.60258e-22)
(0.881039 0.206081 4.82528e-20)
(1.21919 -0.135966 -3.84503e-23)
(1.2312 -0.11228 -4.82293e-22)
(0.957675 0.177377 3.98902e-20)
(0.862512 0.121468 -4.59682e-21)
(0.988614 -0.0513118 -4.85504e-22)
(1.16515 0.218656 -2.27417e-20)
(1.1712 -0.0375899 -7.69847e-21)
(1.01201 0.0639651 -6.79237e-20)
(1.13766 0.109787 1.69042e-20)
(1.00071 -0.000202133 6.75589e-24)
(1.29016 -0.0818182 -9.87471e-22)
(1.17666 0.0927329 9.32254e-21)
(0.996216 -0.000693455 8.57162e-23)
(0.995727 -0.0989234 -5.05477e-22)
(1.26431 -0.0649917 -1.74058e-21)
(1.11136 -0.194435 -1.21423e-21)
(1.26439 -0.0431784 5.50986e-21)
(1.18823 -0.0769715 -3.02421e-21)
(1.00013 -0.000174465 -1.57868e-24)
(0.999644 -0.00331879 7.06264e-23)
(0.986787 0.209181 -6.96151e-20)
(1.00147 -0.0135331 -3.434e-23)
(1.00361 -0.118375 -1.38852e-21)
(0.990775 -0.0658124 1.61127e-22)
(1.30231 0.0145472 -6.32403e-21)
(0.968006 -0.00481524 -1.71141e-22)
(1.12193 0.206739 2.26521e-20)
(1.22701 -0.0477343 8.40703e-21)
(0.993867 -0.0631924 9.11709e-22)
(0.952751 -0.00687892 -7.19845e-22)
(1.1908 0.0827631 1.6317e-21)
(1.27721 0.0037452 5.94844e-21)
(1.00009 -0.000178455 -1.75314e-24)
(0.961904 0.127285 5.89504e-20)
(1.10536 0.122646 7.61172e-21)
(0.98248 0.0359743 -1.45112e-20)
(1.20452 -0.159693 -7.57657e-22)
(0.999315 -8.6388e-05 -2.30417e-25)
(0.883522 0.197389 -3.21335e-21)
(0.997173 -0.00501666 -1.57068e-22)
(0.993719 -0.0488941 3.01514e-22)
(1.2794 -0.00262436 -2.48943e-21)
(1.26493 -0.0725614 4.8128e-22)
(0.982725 -0.0512661 -1.25784e-21)
(1.21475 -0.143773 4.68093e-22)
(1.05282 0.0698604 9.44923e-21)
(0.88721 0.0115114 4.00464e-20)
(1.04788 0.171594 -5.08019e-20)
(1.21015 -0.0268548 -1.12841e-20)
(0.780306 0.045581 5.59014e-21)
(1.00035 -1.24112e-05 -7.53584e-25)
(0.991609 -0.0269785 -1.99983e-22)
(1.00022 0.0272149 7.04218e-20)
(1.15861 -0.184036 3.8123e-22)
(1.172 0.0884955 -2.23533e-20)
(0.987222 -0.0382186 -5.96684e-22)
(1.01025 0.159606 4.87581e-20)
(1.20499 -0.0533935 5.72161e-21)
(1.00022 -0.00359591 3.57644e-23)
(1.19808 -0.0544808 -5.01561e-21)
(1.1057 0.101322 -3.70423e-20)
(1.12541 -0.179906 1.27416e-25)
(0.933762 0.0161642 -1.09745e-20)
(1.17729 0.171159 5.23435e-21)
(0.999321 -0.000340857 -3.00344e-24)
(1.03642 -0.0206641 -1.35003e-21)
(1.24209 0.0668308 9.91564e-21)
(1.15225 -0.000686587 2.57267e-20)
(0.997535 -0.000125255 -6.5722e-23)
(1.18213 0.189235 -3.77227e-20)
(1.01183 -0.0467895 -1.22407e-22)
(0.755199 0.122748 -2.82825e-21)
(1.01699 -0.0977705 -2.27356e-21)
(0.968913 -0.013337 4.41344e-22)
(0.985828 -0.000863231 -9.74568e-22)
(1.0526 0.177816 5.64103e-20)
(1.15717 0.164883 -5.87303e-20)
(0.971132 -0.00304348 4.32208e-22)
(1.18265 0.0767348 5.84879e-21)
(0.974815 0.173337 -1.70858e-20)
(1.00155 -0.0145261 -3.87496e-23)
(1.081 0.00914405 9.27619e-21)
(1.04584 0.0289837 -2.64364e-20)
(0.757306 0.0687901 3.69261e-20)
(0.997552 -0.00420601 4.82853e-23)
(1.27159 0.0245208 -1.44637e-20)
(1.16738 -0.0943616 -1.44595e-21)
(0.949688 -0.0181255 -5.08768e-22)
(0.999542 -7.39516e-05 3.8159e-25)
(0.999408 0.0156429 4.29522e-20)
(1.28621 0.139371 8.81568e-21)
(1.25535 -0.0897405 -7.61226e-21)
(1.00694 0.203897 -1.77028e-20)
(1.20851 -0.0206809 5.62906e-21)
(0.97873 -0.0299854 5.33064e-22)
(1.24697 0.123343 -7.54969e-21)
(1.14009 -0.00483497 -4.33672e-21)
(1.21751 -0.00341164 1.10048e-20)
(0.770872 0.075227 -9.61521e-20)
(1.02038 -0.0863634 7.35071e-22)
(1.27767 -0.0139224 3.15878e-21)
(0.979853 0.0446404 -3.78561e-20)
(0.971418 -0.0490422 1.31913e-21)
(1.15853 -0.044938 6.09142e-22)
(1.04632 -0.143876 2.35507e-21)
(1.2392 0.0610449 -4.41065e-21)
(0.993259 -0.000216592 -1.44951e-21)
(1.14853 0.00705048 -4.25885e-21)
(1.25936 -0.0849684 3.3679e-21)
(1.27567 -0.0187619 7.77448e-21)
(1.00132 -0.00458534 7.29762e-23)
(1.14012 0.00599252 4.10248e-20)
(0.993593 0.0314607 -3.61296e-20)
(1.09822 0.06924 6.6738e-20)
(1.11327 -0.190521 -4.59777e-21)
(0.994792 -0.0259063 3.83204e-22)
(0.881495 0.112219 -3.12909e-20)
(0.872943 0.0415332 -8.09254e-20)
(0.997542 -0.00673859 -3.65568e-23)
(0.962743 -0.0359223 6.23962e-22)
(1.04906 0.123938 7.49679e-21)
(1.00679 -0.124408 -1.12679e-21)
(1.08409 -0.0921006 -7.63731e-22)
(1.26327 0.143584 3.05944e-20)
(0.987902 -0.000579874 1.21521e-21)
(0.747156 0.0608429 6.36715e-20)
(1.03024 -0.0662056 -3.71824e-23)
(1.27339 0.0381234 4.88057e-21)
(0.991267 -0.00980511 6.58083e-23)
(0.989486 0.0309198 -1.54588e-20)
(1.17988 0.162175 -1.06152e-20)
(1.09035 -0.0247608 -5.42666e-21)
(1.09548 -0.101726 1.57076e-22)
(1.24234 -0.108034 -1.13256e-21)
(1.27103 -0.0363392 9.93252e-22)
(0.999739 -0.0050849 -8.44468e-25)
(1.03713 0.102468 -1.38377e-20)
(1.2682 -0.13771 1.42011e-21)
(1.18976 0.0545575 2.53098e-20)
(0.762162 0.12946 9.6342e-20)
(1.21443 -0.16019 5.27499e-22)
(1.06388 -0.0807741 9.25849e-22)
(1.0004 -0.00823905 -1.45273e-22)
(1.29733 -0.0484822 5.21506e-21)
(1.27236 -0.082548 1.96061e-21)
(0.978181 -0.0234951 2.06678e-21)
(1.22744 0.155499 -3.41155e-21)
(1.00007 -0.00136462 -3.26039e-23)
(0.976769 -0.0398842 -2.81921e-22)
(1.01444 -0.0142825 3.79875e-22)
(1.21478 -0.128732 -1.21679e-22)
(0.991083 -0.0424765 6.23752e-22)
(0.999587 -0.000145154 -4.01808e-25)
(0.989648 -0.05454 1.81168e-21)
(1.28743 -0.00905182 -3.94702e-21)
(1.12383 -0.187447 -1.6357e-21)
(1.04349 -0.0714425 -3.19537e-23)
(0.965826 -0.025372 -1.18655e-21)
(1.25819 -0.061722 -6.24988e-21)
(1.1841 -0.0708238 5.18529e-21)
(0.977912 -0.0508803 -6.60052e-22)
(0.948143 -0.00958021 2.26422e-21)
(1.00102 -0.00479861 -1.22993e-23)
(1.1219 -0.0998522 -2.42531e-21)
(1.01542 -0.134845 -1.65967e-22)
(1.01183 -0.00303139 -8.93357e-23)
(1.03137 -0.0707166 5.04152e-22)
(1.27093 0.00524581 -9.50837e-21)
(1.099 0.0636253 -4.07485e-20)
(1.23242 -0.0595007 1.86757e-21)
(0.99927 -0.000293132 -5.50221e-24)
(0.865848 0.220075 -7.11321e-20)
(1.01198 -0.0015777 -3.5545e-22)
(1 -0.00147724 3.905e-23)
(1.03987 -0.0105929 1.27039e-21)
(0.966251 -0.0361917 -1.00764e-21)
(1.00652 -0.0876282 1.66829e-22)
(0.9175 0.116037 -3.66851e-20)
(1.02219 -0.0540271 4.20191e-23)
(1.16726 -0.0342223 -3.59396e-21)
(1.01375 -0.117288 2.44946e-21)
(1.01076 -0.118797 -3.21476e-21)
(1.26019 0.134378 -2.12294e-20)
(0.995555 -0.049523 -4.80601e-22)
(0.991808 -0.0759289 8.33392e-22)
(0.997565 -0.0975913 1.12226e-21)
(0.999589 -5.11593e-05 -1.34486e-25)
(1.16053 -0.129488 2.81218e-23)
(0.840384 0.210785 -6.7282e-21)
(1.05601 -0.169604 8.27237e-22)
(0.964452 -0.045126 -2.45604e-22)
(1.219 0.149058 -4.09003e-22)
(0.98372 -0.0484797 -1.31465e-22)
(1.13348 0.103022 -1.41459e-20)
(1.30135 0.0321311 -1.24284e-21)
(0.996736 -0.0053656 2.45411e-22)
(0.998314 -0.000222315 1.17275e-23)
(1.09296 0.11396 4.59543e-21)
(0.779256 0.15943 3.1289e-20)
(1.04217 -0.165557 2.23024e-22)
(1.30215 0.0699155 2.27646e-21)
(1.29555 -0.0146143 -1.01704e-20)
(0.96971 -0.0403038 -4.27427e-22)
(0.969705 -0.0422381 -9.96948e-22)
(1.05356 0.129021 -2.04029e-21)
(1.10985 -0.0147506 3.55833e-21)
(1.13077 -0.193202 3.45121e-21)
(1.05093 -0.138804 -1.77673e-21)
(0.975333 -0.00185227 6.51897e-23)
(1.06351 -0.0160748 2.55781e-21)
(0.874853 0.0622492 -1.39536e-20)
(1.176 -0.0185505 -2.22926e-20)
(1.00033 -7.65259e-05 1.23642e-24)
(0.944114 0.169443 6.2772e-20)
(1.03329 -0.0634074 -1.81366e-22)
(1.00762 -0.0893345 1.84548e-21)
(1.16934 0.204995 -2.02374e-20)
(1.01699 -0.023348 3.06714e-22)
(0.990525 -0.00940385 -2.04804e-22)
(0.999359 -0.000484505 -4.02296e-24)
(1.15343 -0.1014 1.47264e-21)
(0.967155 -0.0197212 -9.42298e-22)
(1.00034 -1.81203e-05 1.28488e-24)
(1.3058 0.0677361 -5.6666e-21)
(1.21149 -0.189452 -1.31229e-21)
(1.03262 0.100639 -2.40482e-20)
(0.999166 -0.000128923 2.69494e-25)
(1.00033 -0.00429657 -1.50417e-23)
(0.982691 -0.049662 -6.11354e-22)
(1.00002 -7.59679e-05 1.39171e-25)
(1.04219 -0.170037 -1.15876e-21)
(1.14703 -0.195253 -1.57531e-21)
(0.999771 -0.00430963 1.4866e-23)
(1.00664 -0.070714 -5.39353e-22)
(0.945513 -0.0154396 7.61109e-22)
(1.15236 0.184482 -2.35121e-21)
(1.00152 0.202517 1.43084e-20)
(0.997123 -0.0045811 4.95784e-23)
(1.00321 -0.00111152 -1.01352e-23)
(0.994868 -0.0924001 -3.01684e-21)
(0.987471 0.184554 4.63883e-20)
(1.00469 -0.0327007 4.42366e-22)
(0.96379 0.118751 -1.5042e-21)
(0.98279 -0.0120141 -8.23218e-23)
(0.750186 0.100182 -2.63026e-20)
(1.0723 0.0217763 -5.05547e-21)
(1.21009 0.0303019 -2.46549e-20)
(0.807555 0.127747 -2.83188e-20)
(1.27061 -0.128518 2.72771e-23)
(0.990083 -0.00317336 -7.41325e-23)
(1.16074 -0.090443 1.39813e-21)
(1.00882 -0.033929 -5.30242e-23)
(1.00195 0.180027 1.15381e-20)
(1.04635 0.111157 3.24564e-20)
(0.970976 -0.00851958 5.18545e-22)
(1.23008 -0.165334 2.8796e-21)
(1.13953 -0.0427621 -5.59068e-22)
(1.06027 -0.0847167 -1.32842e-22)
(0.994678 -0.00035345 -1.28984e-22)
(1.23112 -0.180204 2.91917e-21)
(1.00032 -2.10736e-05 1.98424e-24)
(1.14367 0.181127 1.29381e-20)
(0.943796 -0.0145418 -2.96056e-21)
(0.992249 -0.0610415 -3.07961e-22)
(0.996623 -0.0298502 3.51837e-22)
(1.00616 -0.057024 1.89769e-21)
(1.26635 0.0382816 1.56201e-21)
(1.23317 -0.0532764 -6.99313e-21)
(0.997887 -7.48466e-05 9.36841e-23)
(1.02517 -0.0521602 -1.64238e-22)
(0.999887 -0.000130256 1.36766e-24)
(0.752217 0.0931839 1.95849e-20)
(0.884854 0.0559492 2.8593e-20)
(0.99477 -0.00120547 -6.77377e-23)
(0.973635 -0.0131662 -5.33973e-22)
(1.03436 -0.0391583 6.41597e-22)
(1.0515 0.116259 1.39394e-20)
(0.944486 -0.0225383 -1.47737e-21)
(1.30012 -0.0146207 -2.15161e-21)
(0.966366 -0.0461243 2.70815e-22)
(1.03845 0.173383 -1.01862e-21)
(1.21746 0.0311003 -2.71116e-21)
(0.966372 -0.0213942 -6.35393e-22)
(0.765355 0.0495145 -4.04093e-20)
(1.0556 -0.00273801 -2.41923e-21)
(1.05999 0.178626 -3.00307e-20)
(0.99323 -0.0138759 3.15218e-23)
(1.01613 -0.142797 5.13787e-21)
(0.944759 0.00985339 -9.18664e-20)
(1.01445 -0.0427941 3.20202e-22)
(0.774281 0.170156 -1.42733e-20)
(1.07471 0.131075 1.7485e-21)
(0.773087 0.056422 -9.63842e-21)
(0.990663 -0.00326376 4.78816e-23)
(0.990754 -0.00067088 3.46845e-22)
(1.02437 -0.0928389 -4.90956e-22)
(1.17664 -0.0850359 -7.15636e-21)
(1.01572 -0.0231259 -3.38891e-22)
(1.02451 -0.0841796 -1.58272e-22)
(1.04398 0.158446 2.75409e-21)
(1.04137 0.189887 9.43679e-21)
(1.07437 0.00384036 9.29171e-24)
(0.993017 0.178222 -3.32009e-20)
(0.79484 0.183065 7.71444e-21)
(1.26407 0.0710963 1.73662e-20)
(0.997483 0.0182013 -6.20683e-20)
(1.08813 0.0544104 -1.29248e-20)
(1.00551 -0.0174931 -1.90273e-22)
(1.08883 0.11937 -1.51474e-21)
(0.990418 -0.0752989 -7.22784e-22)
(0.967912 -0.0450887 7.10916e-22)
(0.998742 -0.00130874 4.92679e-24)
(1.05383 -0.0837056 1.91846e-22)
(1.09339 -0.163785 -5.30792e-22)
(1.14396 0.0465831 1.02665e-20)
(1.09385 -0.0116674 6.67503e-21)
(1.00669 0.0604491 4.92505e-21)
(1.00886 -0.0493472 1.05509e-21)
(1.14839 -0.0336557 3.42027e-21)
(1.00919 0.0470641 -5.66204e-21)
(1.00998 -0.0356071 4.49471e-22)
(1.09112 -0.104895 -3.13263e-22)
(0.999923 -0.000158606 -2.03068e-25)
(1.0005 -0.000231075 1.47749e-24)
(1.13989 0.0424044 -3.72237e-23)
(0.992828 -0.0655344 -8.90282e-22)
(0.973339 -0.0422761 1.10936e-21)
(1.00055 -0.000218973 -2.07968e-24)
(1.00015 -0.00299925 2.21273e-23)
(1.13679 -0.0471805 -9.97113e-22)
(0.999351 -8.30822e-05 -1.14075e-26)
(1.28771 -0.062348 -3.55943e-22)
(0.75436 0.0749462 5.08396e-20)
(1.3031 0.078541 9.15803e-22)
(1.20594 0.0580144 -8.43969e-22)
(0.966404 -0.00834433 -8.24258e-22)
(1.09815 0.177345 1.05623e-20)
(1.29631 -0.0420475 -2.82861e-21)
(1.0052 -0.0305134 -2.56392e-23)
(0.974375 -0.0145534 -5.14467e-22)
(0.99754 -0.00390086 2.6837e-25)
(0.999298 -0.000435158 1.64216e-24)
(1.00195 -0.00486422 -2.6965e-23)
(0.997249 -0.031711 3.0967e-22)
(1.03023 -0.144434 2.63623e-21)
(1.20667 0.0925185 2.9116e-20)
(1.20007 -0.0967383 1.15074e-21)
(0.960213 -0.00418325 1.97885e-22)
(0.999894 -8.79412e-05 -1.98643e-25)
(1.01086 0.105608 3.29151e-20)
(1.26251 -0.10676 -1.63525e-21)
(1.2475 -0.148726 4.95266e-22)
(1.01677 -0.0441054 -3.50885e-22)
(1.28502 -0.0294937 4.83366e-21)
(1.05141 -0.086383 -2.06806e-22)
(0.980629 -0.000964451 -1.47443e-22)
(1.00591 0.0418388 2.83827e-20)
(0.948809 0.00191257 -1.21668e-19)
(1.22114 0.197702 -2.44645e-20)
(0.987981 -0.000464173 -8.30001e-22)
(1.21498 0.202063 1.95267e-20)
(0.965998 -0.00610793 3.25961e-22)
(0.98645 -0.0454917 -7.77968e-22)
(1.28229 0.0962962 -1.87855e-20)
(1.0003 -9.40683e-05 2.38867e-24)
(0.990637 -0.0300967 -1.13711e-22)
(1.27564 0.0276963 4.98692e-21)
(1.24981 0.0681254 2.00897e-20)
(0.967699 -0.0230098 -1.64112e-22)
(1.05916 0.114295 2.16952e-21)
(0.935791 0.226082 -3.02161e-21)
(1.03249 0.0547704 -6.47729e-20)
(0.964535 -0.0370589 1.5632e-21)
(0.949278 -0.00943485 -1.05788e-21)
(1.04763 -0.0682161 1.58565e-22)
(1.1457 -0.00966141 6.77623e-22)
(1.04307 0.0241463 -1.561e-20)
(0.995182 -0.0016035 -2.36178e-23)
(0.940456 0.0224677 -3.42897e-20)
(0.993133 -0.0466951 1.6282e-21)
(1.02048 -0.143177 -3.46964e-21)
(1.16008 -0.0832602 1.70203e-21)
(0.857352 0.225173 1.01088e-19)
(1.21496 0.0967843 -2.33401e-20)
(1.04022 0.113198 -3.41276e-20)
(1.15667 -0.192755 8.23654e-22)
(0.908732 0.00555184 -5.47011e-20)
(0.96897 -0.0194709 9.49722e-22)
(0.987795 -0.0438746 5.60055e-22)
(0.815915 0.0266419 1.93151e-20)
(1.0851 -0.0341401 -1.71078e-21)
(1.03226 -0.13486 -4.75758e-22)
(1.05798 0.162597 -6.93532e-21)
(1.03282 0.166795 -2.16503e-20)
(0.978398 -0.03861 -1.0119e-21)
(1.05215 0.031052 -3.52174e-20)
(0.990502 0.192936 -6.13876e-21)
(1.031 0.153087 2.83268e-20)
(1.13764 0.200579 8.55543e-21)
(1.04997 0.165155 4.5053e-20)
(1.13347 0.117282 -2.21208e-20)
(0.986141 -0.00404685 3.07685e-22)
(0.970164 -0.0209928 1.12701e-21)
(1.00301 -0.00775909 -1.24574e-23)
(1.00588 -0.116602 3.64358e-21)
(0.985415 0.0483595 -8.70209e-21)
(1.01001 -0.123557 2.11805e-21)
(1.28187 0.00869082 -4.11673e-22)
(1.22714 0.00681992 -1.37256e-20)
(0.974036 -0.0487252 7.65366e-22)
(1.28219 -0.0596683 -3.41942e-23)
(1.2926 0.0279627 -4.4803e-21)
(0.980892 0.0214576 -2.65393e-21)
(1.27058 -0.0608845 2.30422e-21)
(0.999783 -0.00361606 -7.49963e-24)
(1.06744 -0.0159626 1.19683e-22)
(0.985817 -0.0489513 3.82545e-22)
(1.22845 -0.135709 1.2687e-22)
(1.24265 -0.141876 -7.73137e-22)
(1.01237 -0.13132 7.14266e-22)
(1.13448 0.190222 4.82057e-21)
(0.972002 0.214736 4.95238e-20)
(1.19685 -0.0763878 3.48391e-21)
(0.992436 0.0206619 2.75029e-20)
(0.774506 0.149436 -3.50299e-20)
(0.998028 -0.000134644 -1.73726e-23)
(1.00354 -0.00113686 2.62739e-24)
(0.996789 -0.00589811 -1.09531e-22)
(0.97213 -0.00897146 1.85618e-22)
(1.17993 0.105772 -1.6291e-20)
(0.815883 0.0304311 -4.17884e-20)
(1.1806 -0.0164911 1.92102e-20)
(1.10796 0.189423 6.36521e-21)
(0.982818 -0.0238301 -5.88715e-22)
(1.21577 0.169798 3.24708e-20)
(1.22171 0.186442 1.0367e-20)
(1.20938 -0.179769 4.81494e-22)
(0.95745 -0.01277 9.87691e-22)
(0.945654 -0.0213725 9.01201e-22)
(1.28786 0.00710628 1.15388e-21)
(1.01236 -0.0437233 1.87247e-22)
(1.20135 -0.0913141 1.78975e-21)
(0.971446 -0.0392634 2.26311e-22)
(0.953799 -0.0383598 -2.27509e-21)
(1.07292 0.164062 4.88932e-20)
(0.991696 -0.00277697 1.51924e-22)
(1.02549 -0.0595543 -6.31074e-23)
(1.0434 0.185827 2.33465e-20)
(1.27655 -0.063822 8.77921e-21)
(0.876069 0.18776 1.14056e-20)
(1.01335 -0.0853228 -8.72227e-22)
(1.07945 0.0186193 1.65633e-20)
(1.2332 -0.142897 1.0721e-21)
(0.99881 -0.0696013 3.38935e-22)
(0.947086 0.0170183 -1.25174e-20)
(0.974224 0.00119645 7.85473e-20)
(0.979282 0.0600335 -1.35131e-20)
(0.994318 -0.0336372 -7.49662e-22)
(0.852752 0.0389388 4.46577e-20)
(0.966367 -0.0342102 7.98117e-22)
(0.956519 0.156489 1.68671e-21)
(1.12492 -0.084847 -9.2629e-22)
(0.977352 0.09383 -7.58612e-21)
(0.983123 -0.0466325 4.78522e-22)
(1.00006 -0.000230239 -1.58993e-25)
(0.975388 0.0823644 2.5355e-20)
(0.949036 0.140393 2.97854e-20)
(0.964564 0.170204 -4.77497e-20)
(0.976022 0.0712937 -2.95457e-20)
(1.12256 0.00703299 -5.63659e-20)
(1.15724 -0.0400259 -2.52288e-22)
(1.15183 0.101443 -4.17882e-20)
(1.02998 -0.130566 1.15727e-21)
(0.991431 0.0419812 8.92599e-20)
(1.05472 0.10196 -4.20353e-20)
(1.25484 -0.107034 2.0832e-21)
(1.09789 -0.0154504 -7.05051e-21)
(0.986557 -0.00385294 1.71861e-22)
(1.27718 -0.127024 -7.91976e-23)
(1.08874 0.164992 -8.05269e-21)
(0.954246 -0.0302557 6.2425e-23)
(0.965368 -0.00522236 -9.99239e-22)
(0.977331 0.0112313 -1.78606e-20)
(0.96792 0.102684 -5.47271e-20)
(0.989907 -0.0532105 -7.29352e-22)
(0.986427 0.109189 3.96607e-20)
(1.0138 -0.139069 1.22372e-21)
(1.27998 -0.0315865 -7.733e-21)
(0.992147 -0.000382636 -2.78915e-22)
(0.957389 0.11242 -3.08579e-20)
(0.944989 0.124313 7.91099e-20)
(0.77622 0.0844389 7.81825e-20)
(0.983783 0.200512 6.42844e-20)
(0.996269 -0.000450024 -2.99871e-23)
(0.983006 -0.02578 3.87355e-22)
(0.998572 -0.00135072 -4.17233e-23)
(0.995108 -0.0725767 -2.83384e-21)
(0.873575 0.145009 -1.63781e-20)
(1.22741 0.053171 -3.10696e-20)
(1.11424 0.174099 -5.08994e-22)
(0.954226 -0.0368635 1.48439e-21)
(1.09012 0.0595062 4.06306e-20)
(1.03672 -0.0383353 -7.66404e-22)
(0.873947 0.167057 2.36098e-20)
(1.08 -0.109872 -1.1386e-22)
(0.987574 0.017672 3.04641e-20)
(0.992366 -0.000376421 -1.69485e-22)
(0.892937 0.135023 -5.40199e-20)
(0.854862 0.178575 -6.61372e-20)
(0.981329 -0.0269485 -1.00113e-21)
(1.2388 -0.0241745 6.20462e-21)
(0.894304 0.113959 -5.39131e-20)
(0.995741 -0.0006722 1.28804e-22)
(0.819139 0.0852223 -8.72246e-21)
(1.0438 -0.0755777 2.85433e-23)
(0.995593 -0.000472938 -3.34428e-23)
(0.956028 -0.0140172 -6.90645e-22)
(1.06334 0.186059 -2.9417e-20)
(1.23976 0.0223406 -1.72988e-20)
(1.00374 -0.0983267 1.67155e-21)
(1.01522 0.193923 2.50568e-21)
(0.844036 0.201749 4.41393e-21)
(1.21385 0.18031 -3.53397e-20)
(1.05961 -0.0118983 -1.28379e-21)
(0.997935 -0.0648458 5.40422e-22)
(1.15341 -0.0948597 -1.80498e-21)
(0.971932 0.115995 4.49855e-20)
(0.841405 0.0855197 -5.01275e-21)
(0.762439 0.0806951 5.06368e-21)
(1.21619 0.044675 4.95538e-21)
(1.00073 -0.0104046 2.85938e-23)
(0.973034 -0.00207901 8.49193e-23)
(1.09637 0.168463 -2.85525e-20)
(1.00215 -0.00807129 1.80259e-23)
(0.984104 -0.00580422 -2.90275e-24)
(1.00334 -0.012625 -8.96009e-24)
(0.99426 -0.0294016 -3.72187e-22)
(1.06934 -0.153417 1.85589e-21)
(1.15058 -0.178282 -1.00846e-21)
(0.932474 0.172862 -7.04427e-20)
(1.0193 -0.0489235 1.70688e-23)
(0.998922 -0.00108582 2.67635e-23)
(1.0682 0.10363 -6.88263e-22)
(1.26275 0.045768 1.38117e-20)
(1.00215 -0.0127884 -3.18837e-23)
(1.27487 -0.00839231 -6.71427e-21)
(1.00194 -0.00136456 1.11382e-24)
(1.21736 0.0164439 1.78707e-21)
(1.03307 0.0578712 4.54432e-20)
(0.980749 0.105198 -7.69364e-20)
(1.11933 -0.173734 1.21016e-21)
(1.22664 -0.0124466 -9.15295e-21)
(0.994105 -0.0141945 -6.74756e-23)
(1.11056 -0.118367 -8.69476e-23)
(0.994912 -0.00195927 -1.05605e-23)
(0.966673 0.132591 -7.98634e-20)
(0.927933 0.168529 2.16771e-20)
(1.1758 -0.192413 9.83768e-22)
(1.14039 -0.189717 1.02761e-21)
(1.10708 -0.183735 3.81111e-21)
(1.02846 -0.0866397 6.19578e-22)
(1.00485 0.187493 5.28286e-21)
(1.03212 -0.079657 3.16485e-22)
(1.09101 -0.150072 5.18671e-22)
(1.0536 -0.163156 -9.8689e-22)
(1.10709 -0.104749 5.58308e-22)
(0.797706 0.085264 4.25931e-20)
(1.10467 -0.199371 -7.37638e-21)
(1.2581 -0.0775896 -5.68748e-22)
(0.966206 0.0370565 1.56293e-20)
(0.993756 -0.000511168 1.58536e-22)
(1.22833 -0.0423501 3.57379e-21)
(1.03539 -0.0722118 -3.37602e-22)
(1.05617 -0.151404 1.67315e-21)
(0.995127 -0.00124986 2.36371e-24)
(0.99977 -0.00307323 -2.24507e-23)
(0.803206 0.107363 -7.23581e-20)
(1.10342 0.0605395 3.08896e-20)
(1.17031 -0.198214 3.78854e-21)
(1.28652 -0.106244 2.83612e-22)
(1.12361 0.103219 -1.6336e-20)
(0.993117 0.10559 -6.13419e-21)
(1.06111 0.107144 1.26961e-20)
(1.20484 -0.143666 -7.0529e-22)
(0.983732 -0.0522143 1.36337e-21)
(0.994412 -0.0448372 -4.24397e-22)
(0.987085 -0.0474359 -1.11924e-22)
(1.08283 0.102932 -4.16024e-20)
(0.966484 -0.00657186 9.10326e-22)
(1.00234 -0.0663983 7.80094e-22)
(0.999593 -5.02622e-05 -2.8279e-25)
(0.97189 -0.0206223 -1.88504e-21)
(0.997509 -0.000734951 2.15192e-24)
(1.08677 -0.164701 1.30223e-21)
(1.04963 0.184677 -2.77267e-20)
(1.03811 -0.135531 6.42303e-22)
(0.981449 0.167144 2.9886e-21)
(0.996503 0.163602 -7.16225e-20)