/*--------------------------------*- C++ -*----------------------------------*\
  =========                 |
  \\      /  F ield         | OpenFOAM: The Open Source CFD Toolbox
   \\    /   O peration     | Website:  https://openfoam.org
    \\  /    A nd           | Version:  7
     \\/     M anipulation  |
\*---------------------------------------------------------------------------*/
FoamFile
{
    version     2.0;
    format      ascii;
    class       volScalarField;
    location    "24";
    object      p;
}
// * * * * * * * * * * * * * * * * * * * * * * * * * * * * * * * * * * * * * //

dimensions      [0 2 -2 0 0 0 0];

internalField   nonuniform List<scalar> 
7639
(
0.231353
-0.000601066
0.444477
0.269175
-0.00129967
-5.05097e-05
0.451655
-0.00797743
-0.000170021
0.11295
-4.7328e-05
0.00367192
-0.0119086
0.0561318
0.117685
-0.0156669
0.245272
-0.0154969
0.00159283
-0.0685662
0.0740536
0.00242322
0.0411918
0.220954
-0.0200744
0.247051
-0.0011985
0.0691782
0.184134
0.00371882
-0.0212394
0.712182
0.0404895
-0.000724745
-0.000150401
0.0924572
0.00422722
0.435401
-0.00676388
-0.000503393
-0.0061807
-0.0150584
-0.0693165
-0.0639156
-0.000296428
-0.000116482
0.00237983
-0.00697316
-9.50271e-05
-0.0679128
0.00550693
0.0655286
-0.0252168
-0.00411596
0.0914675
-0.00711489
0.00175388
-0.00797153
-0.0324043
-0.000756048
6.95488e-05
0.00704648
0.0564822
0.00405203
-0.00146857
-0.0208184
-0.000134133
7.55956e-06
0.0155694
-0.00653724
-0.000106359
-0.0552904
-0.0194248
-0.0325116
-0.014998
-0.0455633
0.436829
0.0726752
0.0496316
-0.0602929
-0.0114254
0.402544
0.105506
-0.0339817
-0.00218304
-0.00345917
-0.00852775
-0.0244833
-0.000983056
-0.00673226
0.188617
-0.0880294
-0.000193475
0.00181154
-0.00536161
-0.0335087
-0.0527118
-0.00099314
-0.00240944
-0.00175244
-0.0549292
0.0570579
-0.00508554
-2.61434e-05
-0.0871381
0.190673
0.613157
-0.00756371
-4.23775e-07
0.0369045
0.252125
-0.0458804
-1.56672e-06
0.0391167
0.191672
0.000724805
-0.0609607
0.152322
-0.040157
-0.0332762
-0.0569011
0.383072
-0.0665248
0.0154632
-0.0555591
-0.00145858
-0.0191137
0.00299687
-0.00155153
-0.021353
-0.133641
0.0521534
-0.000911268
-0.00116242
-0.0351307
0.244629
0.485486
-2.24137e-05
0.0122641
-0.0704069
-0.0308313
-0.0477353
-0.0459708
-0.0312504
0.619855
-0.0201094
0.185386
-0.031575
-0.0423156
0.381809
0.0881427
-0.0737377
-0.00227958
-0.00881464
0.105338
0.398626
-0.0519471
-0.0118594
0.573981
-8.56864e-05
0.000863503
0.229495
-2.33904e-05
-0.0031522
-0.00603751
0.289686
0.290531
0.597216
-0.00357478
-0.00469546
8.76002e-06
-0.0588366
0.000715309
0.00604306
0.013332
-0.0417916
-0.0664614
0.110772
-0.000192028
-0.000757858
0.273208
-8.54854e-05
-0.000162295
0.452863
-0.00635816
-0.0383492
-0.0378691
-0.0307941
-0.0233115
-0.0689509
-2.6179e-05
-0.0510063
0.112535
-0.00513174
0.000123838
0.180791
-0.00189966
-0.0200905
-0.0223173
1.01509e-05
0.00146147
0.253201
0.148679
0.402987
-0.0551174
-0.0417032
-0.0993233
0.075293
0.25164
-0.0003184
6.18847e-05
0.578496
-0.013369
-0.000948035
-0.0488685
-0.0200122
0.358286
0.368555
-0.051983
0.674826
-0.00176071
-0.0152221
-0.056236
0.0898488
-0.0840962
0.178951
0.575633
0.000111677
0.0162371
0.162936
-0.00637181
0.148357
-0.000830008
0.640511
0.390478
-0.00847107
0.0043608
-0.000466321
0.0639411
-0.000137471
-0.00975537
-0.0667991
-0.000105869
-0.00207574
-0.000652756
0.152377
-2.30499e-05
-0.0069891
-0.0588245
0.711548
0.0450372
0.623052
-6.3496e-05
-0.02479
-0.000278684
0.419304
0.00676669
0.486793
0.00214021
0.0012398
0.00559882
0.0788066
0.000973816
-0.000347297
0.000864538
-0.00671915
-0.0388062
-5.90322e-05
-0.0502567
-0.00575169
-0.000213297
-0.000982363
0.462966
-0.0118743
-0.00120402
0.676518
-0.00228644
0.246502
-0.000312744
0.000260999
1.43842e-05
-0.0361282
0.0863403
-0.0635155
-0.0326956
-0.000637444
-0.0613017
-0.022949
-0.000273355
0.000840043
-0.00343557
-0.0114583
0.00493783
-0.00194407
-0.0325221
-0.0342659
-0.0320941
-0.0537233
-0.0400925
0.377437
0.395844
-0.00236078
-0.106377
-9.16137e-06
-0.00374604
-0.0337066
0.214738
0.118425
0.000169281
-0.00345013
-0.0390318
0.171261
-0.00157268
0.0060311
0.00205779
0.00993253
-0.12237
0.344418
-0.00252449
-0.00405612
-0.000171442
0.00678031
-7.60686e-05
-0.0257391
-0.000537789
0.00641947
-0.1512
-0.0403472
0.00243461
0.0146558
-0.00116359
0.0315613
-0.0116979
0.0724228
0.15882
-0.124402
-0.0631568
-0.02354
0.00857833
-0.065131
0.610219
-0.0563891
0.0485844
0.661306
-0.00243467
-0.0027692
-0.0740878
-0.00171943
-0.0168371
0.0106239
-0.00443785
-0.0032982
0.170869
-9.6427e-05
0.000934374
0.000137565
-0.0053961
-0.0110168
-1.1227e-05
-0.00174131
-0.0311165
0.572544
0.0034436
-0.013105
0.534879
0.334878
0.0642418
-0.0965326
-0.0594077
0.00826674
0.278899
-0.0167245
0.301378
-0.0271499
-0.075859
0.157736
0.301117
-0.0474431
0.110766
0.167433
0.264481
0.0733159
-0.00482652
-0.00666342
-0.000131637
0.00380103
-0.0170572
0.001636
-0.00016152
-0.00256095
-0.0609286
0.0543605
-0.024751
-0.00439148
-0.00599727
-0.00497654
-0.0109225
0.00287624
0.130104
-0.00298625
-2.73849e-05
-7.52207e-05
9.14956e-05
-0.0297076
0.166117
-0.00633514
0.0450032
-0.0906839
0.426302
0.00538962
0.0112446
-0.00805488
0.446157
-0.00168359
0.337078
0.189683
-0.00017703
-0.0292851
-0.00521738
-0.0460446
0.000958906
0.0738788
0.00507971
0.0104371
-0.00135752
0.135661
0.176667
-0.044225
-0.0312607
-0.00364904
-0.0244937
0.000942469
0.69969
-0.0544146
0.00747076
-6.26022e-07
-0.0195904
-0.00361458
0.0288833
-0.0757994
-0.1064
0.461672
0.15625
-0.0914878
0.189089
0.435298
0.0451637
0.00200456
0.284882
-0.00143128
-0.000282688
-0.0251867
0.000154543
-0.107159
-0.000847092
-0.0329863
0.00318839
0.190598
-0.00282856
-3.13701e-05
-0.0798179
0.00289408
0.0124416
-0.0530497
-0.068964
-0.107404
0.165053
0.135744
0.139677
-0.000319374
0.0425297
0.0792973
-0.000834378
-0.0238741
0.0010277
0.00846859
-0.004746
0.00790318
-0.00123698
0.0702541
-2.56719e-05
0.000343197
0.00329309
-0.0306875
0.0330675
-0.0311833
-0.0356669
-0.0358649
-0.0916145
0.00914833
0.273428
-0.124291
-0.0102189
0.648535
-0.0519003
-0.0115577
-0.0356058
-0.00955546
-0.0289686
-0.0151871
0.0439232
-0.0646438
-3.39105e-05
0.0385956
-0.000145084
0.385568
0.0144374
-0.0075655
-0.0203318
-0.000292537
0.404572
0.336332
0.0246438
0.0520876
-0.055015
0.502171
-8.91462e-05
0.0232187
-0.0256411
0.122371
0.601817
-0.0114602
0.152819
-0.00310897
-0.000316572
0.0383785
-0.122843
0.424
0.0167727
0.237147
-0.0107682
0.436568
0.317918
-0.0135452
-0.0115263
0.0248989
-0.0701406
-0.000123709
-0.0187944
-0.0677232
-0.057418
0.018307
0.015078
-0.000188689
0.337427
-0.00184931
-0.000156109
-0.0302048
-0.000776252
-0.000348215
0.0052791
0.217803
-0.0718204
0.558839
0.000111516
0.21157
-0.0244343
-0.000107794
3.40727e-05
0.181253
0.214158
-0.00623998
0.197278
4.81305e-05
0.207939
-0.123596
-0.0141615
0.458785
-0.0469225
0.0442396
-0.034158
0.203014
0.20756
-0.0231272
-0.0290426
-0.00915572
-0.00439548
-0.000308606
-0.00202847
0.282345
-3.6486e-05
0.202588
-0.0702954
0.361076
0.192657
-0.0690598
0.541099
-0.00247862
0.00636557
-0.0454118
-0.0277424
-0.00973535
-0.0274801
0.036613
0.638801
7.75491e-05
-0.00292292
-0.0446298
1.19833e-05
0.392711
0.00294173
1.17899e-05
0.000328328
0.000636998
-0.0245403
0.0278465
-0.00235491
-0.000127545
-0.0103088
0.00366781
-0.0819151
-0.0637486
0.0337168
-2.99167e-05
-0.109
-0.0183683
0.0418193
0.35775
0.00182922
0.0678522
0.000262395
-0.0176255
0.10205
-0.00976175
0.230712
-0.0180725
0.0267604
0.105907
0.150843
0.00667178
-0.0144983
0.15929
-0.0667276
0.426052
-0.013089
0.254671
-0.0130155
-0.00175726
0.145519
0.000329707
0.0971743
0.00303036
1.02034e-05
-0.08684
0.125011
0.00229133
0.0485533
-0.0171782
-0.107901
0.00028092
-0.0322707
-0.00253948
-0.0123777
-0.0595028
-0.0365121
-0.0136987
-0.000213861
0.45294
0.0706823
0.0445469
-0.0002954
0.318159
1.18541e-05
-0.000271269
0.0874889
0.00120409
0.100723
0.0680219
0.0260025
-0.0453155
-0.091603
-0.0953214
0.00209693
-0.051778
-2.06622e-05
0.00563563
0.221617
-0.022084
-0.00421008
-0.0128208
-0.00296119
-0.000609063
0.662714
-0.0138144
-0.000829466
-6.96473e-06
0.15049
-0.0383878
-0.000490318
-0.00416396
0.17422
0.0833659
-0.0468275
6.07109e-06
0.194413
-0.0219761
0.182022
0.025666
0.0315513
-0.0384569
-0.000136984
0.10337
0.0730007
-0.0653133
-0.0656494
0.285311
0.0095661
0.14987
-0.0041095
-0.0289122
-0.000590454
-0.00269786
-0.000146904
0.167108
0.216126
-0.00224152
0.0288648
-0.0233472
-0.0544812
-0.060147
-0.00280283
0.0213414
0.630699
-0.0640534
-7.16292e-05
0.084023
-0.00572896
0.534808
-0.017043
-0.0167532
-0.00535602
-0.0192624
-0.0102752
-0.0109561
-0.00529485
0.00235853
0.0291793
0.000179761
-0.134638
-0.0578011
0.367233
-0.0451056
0.112125
0.00322234
-0.0449304
-0.0182802
0.225903
-0.0103443
0.000183343
-0.0215329
-0.00794997
0.0248724
-0.0349352
-0.0302139
-0.0402583
-0.0198448
-0.00952945
-0.0610111
1.11916e-05
0.0431264
-0.0537094
0.0872315
-0.0531929
0.0968691
-0.0670313
0.315801
0.00468925
-0.0396546
-0.0205792
0.567241
-0.110322
-0.0178259
-0.0858666
-0.036041
-0.0796774
-0.0490604
0.153023
-0.00418787
0.271417
0.0136904
-0.00058651
-0.00184986
0.0748575
0.718949
0.00164174
-0.0250371
0.182718
4.0501e-05
-0.0278303
0.0411239
-0.00749224
0.0138883
-0.00247295
-0.0364216
-0.00465451
5.13277e-05
-0.0447472
0.252296
0.00188976
-0.022467
0.00297297
0.181975
-0.000568867
-0.00187913
-0.000537579
-0.0011807
-0.0418234
0.000922574
0.00400812
-0.0241026
7.99288e-05
-0.0887681
-0.122428
-0.0968999
-0.0210896
0.0226495
-0.000314221
-0.0176303
-0.0577783
-0.0453943
0.364444
-0.00192201
-0.0621387
-0.00710013
0.00792634
0.120836
0.000703676
-0.000227193
0.0297613
-0.0468767
0.022139
-0.00447286
-0.00313598
-0.0535028
-0.000254817
-0.00220031
-0.018236
0.313118
0.246564
-0.0396934
-0.0522229
0.0112961
0.0051466
-0.0393463
-0.0592607
-0.0166702
1.15693e-06
-0.0337477
-0.0328187
-0.0643268
0.00475431
-0.0501513
-0.000599652
-0.00451571
0.196687
-0.0369703
-5.17348e-06
-0.00425534
-0.0988628
-0.000244135
-0.0209788
-6.53545e-05
0.00585693
-0.0799812
-0.0383237
-2.12245e-05
5.38526e-05
0.130134
-0.0442299
0.408119
0.244505
-0.0278535
-0.000886426
-0.0161669
0.000354794
-0.126169
-0.0742059
-0.0885744
-0.0218809
0.2208
0.0111808
0.000440751
0.00744791
-0.0952999
0.00305559
-0.0258725
-0.056028
0.00159048
0.024498
0.0728039
0.0103555
-0.0298076
-0.061952
0.191864
-0.031159
-1.41388e-07
-0.083795
-0.0600356
-0.0371665
0.00574787
0.00119194
0.00918977
-0.0788288
0.0353851
-0.0347559
0.0880185
-0.0436403
0.00832222
0.021438
0.0135912
-0.0353952
-0.114923
-0.000141468
0.148999
0.211864
0.00892181
0.137459
-0.0619163
0.0489723
-0.0443315
0.20251
0.101928
0.623357
8.75409e-06
0.093587
0.172091
0.0167571
-0.00171612
-0.0189596
-0.0478912
7.61185e-05
-0.018946
-0.0466754
-0.0207131
-0.0228013
0.000214139
-0.107042
-0.000424274
-0.00101562
0.245635
0.00727973
-0.0350604
0.0223769
0.21059
0.0119067
-0.000447873
-0.0958733
0.00895188
0.384656
0.00152388
-0.0486392
-0.000245534
-0.000634533
0.00752645
-0.0508869
-2.89041e-05
-0.0114929
0.030914
-0.0022544
5.42964e-05
-4.31974e-05
0.153303
-0.0453863
0.00765846
-0.0012811
0.00969417
0.0176104
0.00951945
-0.000325949
0.342403
-0.0860147
0.22339
0.286132
-0.000236818
-0.0408477
0.0945588
-0.000887839
-0.000296979
-0.000484267
-0.0228418
0.0145166
-0.0130158
-0.0212229
-0.0589967
0.169625
-0.0822766
1.75829e-05
-0.0200742
-0.019264
-0.035771
-0.00489323
0.00676357
0.00147586
0.0306515
-0.000588165
-0.000255639
-0.0180514
-0.0048239
-0.0255255
-1.51693e-05
-0.015453
0.0364144
-0.0293115
-0.0321648
-0.00916154
-0.0123177
-0.00966384
-0.00581676
0.00765885
-0.00998165
-0.000112292
-0.000451718
0.0251044
-0.0128039
-0.00551358
0.009475
0.00287528
-0.0966511
-0.0116502
0.15695
-0.0131743
-0.050994
-0.0252633
-0.023326
-0.0161904
-0.0042052
0.00257942
-0.00394319
-0.0145571
-0.0167151
0.181361
0.133503
0.046955
0.354971
-7.59751e-05
-0.0037078
-0.0170322
-0.00860133
0.0574105
-0.0208721
0.0411418
-0.00481458
0.189474
-0.00216963
-0.00181675
0.0126723
-0.0192654
-0.000238813
-0.0226054
-0.00654294
-0.0214566
-1.8148e-05
-0.00735779
0.00230328
-0.0181536
0.0324723
0.038505
0.0210269
-0.0145784
-0.0318681
0.116849
-0.00142427
-0.00219552
-0.00236328
0.529157
-8.53071e-05
0.0664006
-0.0218364
-0.0210625
-0.0269167
-0.0407632
-0.029141
-0.0344688
-0.0189334
-0.00511534
-0.000102636
-0.00475923
-0.0223116
0.0999327
0.00195636
0.0903344
-0.0331951
-0.0138286
-0.00102438
-0.0293334
-0.000108755
0.148224
-0.0306034
-0.026697
-0.0244189
-0.00442319
-0.0333091
-0.00187949
-0.0404663
0.103249
-0.0263371
-0.0652667
-0.00163034
-0.0274764
-0.0190766
0.017058
-0.00360504
0.142625
-0.00267859
-0.0197318
-0.000745767
0.160519
-0.0389147
-0.0269298
-0.00362143
-0.0103158
-0.00307256
0.162535
4.49677e-05
0.136626
-0.00539905
-0.00090481
-0.00140298
-0.00259394
0.11002
-0.0583265
-0.00751814
0.000404875
-0.00840963
-0.0129877
-0.000997513
-0.0156389
-0.0162781
0.059956
-0.00549465
0.00450844
0.521813
-0.0595084
-0.0291985
-0.0558827
4.64248e-05
0.077806
-0.00394257
-0.0273377
-0.00620992
-0.0358254
0.00474365
-0.000588649
-0.00323244
0.00372665
0.201524
-0.00646946
-0.00199035
-0.00514812
-0.0518837
-0.00911529
-0.0227218
0.00488133
-0.00954141
-0.00983222
-0.00364562
0.203416
-0.045506
0.00366819
-0.00470285
-0.0280436
-0.0150518
-0.0486122
-0.00156037
0.0926064
0.0251138
-0.00861458
-0.00192448
-0.0145796
0.544275
0.202979
-0.0122212
-0.000637504
-0.00265728
0.00244721
-0.00441833
0.0229851
-0.000452521
-0.0176881
-0.00219703
-0.0179098
-0.139151
-0.00117741
-0.0123595
-0.00150532
0.326895
-0.00710776
-0.0126451
-0.0415616
-0.00214678
-0.0304331
-0.0326023
0.474177
-0.0116304
-0.0123143
-0.00235672
-0.000506332
7.15959e-06
-3.18725e-06
-0.0109919
-0.000735609
0.070764
-0.000737928
-0.00201976
0.00918557
-0.000278423
-0.043928
-0.0552248
0.0190634
0.0422447
0.0285823
-0.0327378
-0.0419066
0.0913961
0.0720795
0.097669
0.123465
-0.0139174
-0.000949051
-0.00646294
-0.0609485
-0.00391208
-0.016031
-0.035801
0.319623
-0.0485386
-0.000529961
-2.183e-05
-0.00163042
3.33971e-06
0.00928695
-0.000612076
-0.00516015
-0.0469528
0.00063655
0.0029846
-0.000234074
0.0561199
-0.016411
-0.0460648
-0.00134504
0.336245
0.244694
-0.0109119
-0.068357
-0.0284929
-0.0248746
-0.0153755
-0.00208351
-0.0692105
-0.0333851
-0.0420385
-0.1075
-4.26237e-05
0.17579
-0.016993
-0.0104585
-0.0308344
0.0206572
-0.000584564
-0.00912095
-0.00151093
0.0132268
-0.00170252
0.132465
0.000415909
0.0112423
-0.000453485
-0.103478
0.00992375
-0.000839022
0.00634857
0.00048323
-0.030183
0.106949
0.0011396
-0.00159909
-0.000131017
-0.000632308
-0.000554845
-0.0584476
0.125679
-0.0288032
-0.000291011
0.00988765
-0.000500526
0.231283
-0.0575623
0.237137
-0.0425307
-0.000493721
-0.000306209
-0.00798804
-0.00620968
-0.000692614
-1.72893e-05
0.0269965
0.0311237
-0.000254444
-0.000357898
-0.0206153
-2.0951e-05
0.168941
-0.00102604
-0.0510074
-0.0199277
-0.00696831
-0.0533992
-0.058509
0.152377
-0.0216857
-0.021099
-0.000343666
-0.0543768
-0.0215371
-0.023511
0.0350295
0.361465
-0.00129775
-0.0568339
0.0126655
0.301855
0.0414962
-0.000124668
-0.00661497
-0.00448824
-0.00544726
-0.0464398
0.0836937
0.000221756
0.0166803
0.00335815
0.0640509
-0.000572311
-0.000122528
-0.0898315
0.269421
-0.0526094
0.127612
-0.00139722
-0.000215276
-2.04292e-06
-0.0780806
-0.0409355
-0.000367372
0.0875929
0.0124693
-0.00587049
0.43437
-0.000422968
-0.00407556
-0.0564535
-0.0267238
-0.00252306
0.13603
-0.0574057
-0.000176219
0.0117271
-0.000181043
-0.000103031
0.130921
-0.00117433
-0.000496004
-0.0496296
-0.0252745
-0.00385886
-0.0320597
0.00272319
-0.0235403
0.00188734
-0.00385197
-0.0612907
-0.0376651
0.0158803
-0.000985201
0.15128
0.210341
-0.0870397
0.0103941
0.020952
-0.00471126
0.167831
0.0951498
-0.02836
-0.000171022
0.0107034
-0.0527864
0.0105348
-0.0284551
-0.00232626
0.0392572
-0.0281305
-0.000144309
-7.19951e-05
-0.0383206
-0.026349
-0.0264889
0.0106112
-0.0194817
-0.0433274
-0.00015735
-0.00153559
-0.000218696
-0.0341705
-2.20403e-05
-0.00213561
-0.0449798
-0.0857362
0.052145
-0.00328566
0.00469642
-0.0220593
-0.0259787
-0.000133739
-0.0448269
0.0309202
0.158587
3.07518e-05
-0.000115885
0.1617
-0.00277684
-0.0766589
-0.0396109
0.00381199
0.000563494
-0.0639531
-0.0323808
0.165841
-0.0538081
-0.00162022
-0.0103712
-0.0507351
-0.000632127
-0.000258807
-0.000992137
-0.0281542
-0.0493355
0.101125
-0.000224414
0.546417
-0.0582125
0.00014594
-0.00106282
0.000300602
0.000341782
-1.1076e-05
0.000169654
-0.0507337
-0.000788559
0.000504548
-0.000211335
0.141975
-0.00626563
-0.000205559
-3.92255e-05
0.357558
-0.0222179
-0.0521848
0.00129781
-0.000791804
0.0532184
-9.90558e-05
-0.0139172
-0.128661
0.00247104
-0.00714654
-9.90488e-05
-0.000218347
-0.0310064
-0.0590236
0.00809205
-0.104156
-0.0608507
-2.65242e-05
0.0233403
0.0350697
0.110365
-0.00189162
-0.000164774
-0.0540281
-0.00665252
-0.00053964
-0.0476738
-0.000143418
0.0366955
-8.33828e-05
-0.00139848
-0.065002
-0.00234042
-0.0558369
0.493803
-0.00180853
0.000324086
-0.0523725
-0.0517978
0.0101688
0.0052911
-0.000159101
-0.0314662
-8.42048e-05
0.198772
0.673203
0.0433309
0.00342707
0.0040598
-1.55169e-05
-0.0283397
-5.39458e-05
-0.00792676
-0.00186708
0.000434451
-0.0036869
-0.0103948
-0.00012776
0.000997329
-0.00903441
-0.000336798
-0.0108023
-0.0171734
-0.00865332
-0.00125952
0.598087
-0.000752011
0.00275643
0.000289033
0.0153798
-0.0480018
0.0107058
-0.000185995
-0.000102526
0.0029815
-0.000111931
-2.24261e-05
-0.0124795
0.00080037
-2.23187e-05
-0.0492899
-0.0025095
-0.0537117
-0.00180314
-6.85416e-05
-0.00342931
-0.00944146
-0.0158944
-0.0244604
0.00262149
0.000602997
-0.000503287
-0.00214961
-7.75631e-05
0.281652
0.00176828
-1.74623e-05
0.000677179
-0.0022241
-0.000379181
-0.0602178
-0.0523357
-0.000130003
-0.00756707
1.98012e-05
-0.00290189
-7.38552e-05
0.0379554
-0.00014533
-0.000192016
-0.00390489
-1.84032e-05
0.0150012
-0.000237568
-0.0013782
0.0207597
1.87551e-05
0.39468
-0.0516023
-0.0409683
-2.14187e-05
-1.93377e-05
0.00212959
-0.00129207
-0.0495413
-1.49713e-05
4.01615e-07
0.000852914
-2.8156e-06
0.000440609
0.000520015
-0.000493606
0.000901533
-0.0506472
0.509176
-0.0339715
0.346191
0.010083
-0.0176967
-1.58082e-05
-0.000956857
-0.0129759
0.000175189
0.00033311
0.000203293
0.0350447
-0.001481
-0.000224761
0.527673
-0.000585723
0.000677678
0.000580877
-3.96535e-06
-0.0780663
-0.00238162
0.00129234
0.000153578
-0.000568677
-6.87532e-05
-0.00101295
-0.0430607
-0.000446295
-0.001755
-1.498e-06
-0.000519588
-0.000274966
0.194913
-0.000473286
-0.000282919
-0.0653763
0.00422573
-7.92107e-05
-0.00145112
-6.13056e-05
0.177011
-0.0686522
-0.000307632
-0.000414173
-0.00207486
-0.000154981
0.0584533
0.105527
0.0114351
0.000591667
-6.05544e-06
-7.11757e-07
0.0506985
0.000298442
-0.0581276
-0.0253711
-0.0167331
-0.134756
0.603015
0.00221172
0.1802
-0.0154934
-0.0295541
0.180136
-0.00038089
-0.0623057
-1.03336e-05
-0.00960497
-0.0477066
6.90922e-05
-0.0479679
-0.00102818
-0.00856486
-0.00599812
-0.0420149
-0.0417416
-0.00347985
-0.0584633
-0.0431555
-0.000195462
-0.0128863
-4.44287e-05
-0.0372802
-2.62259e-05
-0.000194323
0.014517
0.170693
1.61486e-07
-0.044588
0.00399361
9.51293e-05
-0.021863
1.00306e-05
-0.0144476
-0.000269562
-0.0381192
0.000153598
-8.64345e-05
-0.00221155
-3.63761e-05
0.166274
-0.0308442
0.0470823
-2.26978e-05
0.000720164
-0.0327175
1.55405e-06
-0.0549985
-0.0630087
-0.0536176
0.552043
-0.00694629
-1.55754e-05
0.0282411
-0.0411291
-0.00276894
-1.33081e-05
-8.51218e-05
-0.0462576
0.000155824
0.000996697
4.94942e-08
0.000193168
-0.0284888
0.0198116
-0.0623761
0.0933639
-0.00573066
-1.01135e-06
0.00688109
-0.0496971
-1.94292e-05
-1.15848e-05
0.000374286
8.01235e-05
0.000469613
0.171033
0.037859
7.03321e-05
1.64457e-05
-0.0628331
0.210013
0.180883
-4.29829e-05
-0.0362181
-0.0201858
-0.0111538
-0.0468189
-0.00916861
-0.00312783
0.147223
-3.56539e-05
-0.0269144
0.175062
-0.0477956
-9.1612e-06
-0.0587981
-0.000180503
0.263018
0.0297859
-3.95269e-06
-2.31999e-05
0.187381
5.10976e-06
-0.000185477
-0.0124307
2.09276e-05
0.245237
0.00369916
-0.00784577
-0.0613573
-0.00403701
-0.0700328
0.191361
-0.0126581
-0.0385745
0.00112723
-1.50333e-05
-0.00109444
3.36631e-07
-1.06299e-05
0.022399
0.189352
0.156597
-0.000464668
0.260366
-0.012425
1.2514e-05
-0.0447511
-1.01456e-05
-0.0283249
0.0309857
-0.0153083
0.00491917
0.00209279
-0.00984951
0.000297446
-0.00179218
0.0208984
-0.00307581
-4.1211e-05
3.81709e-05
-6.00349e-05
0.0340874
7.06255e-05
-0.0231653
0.275725
-0.006414
6.33976e-05
-0.00370503
-3.50528e-06
0.0198865
-0.000375267
-6.37323e-05
-8.45204e-05
-9.78972e-06
0.221645
-0.000151173
0.23472
-0.0590547
0.000137807
-0.0505131
-0.000505719
0.163816
0.542343
-0.00150025
3.24332e-06
2.40542e-05
-1.72408e-05
0.124983
9.52476e-07
0.0011828
-0.0248072
0.22341
1.04799e-05
2.22956e-05
3.71668e-06
3.24224e-05
-0.0211897
2.53097e-06
0.228736
-0.0168339
-0.000125147
3.79536e-05
-0.00219667
-0.029086
1.6863e-06
-5.49366e-05
0.173359
4.3035e-05
-0.0321379
-0.0523663
0.000160271
1.04953e-06
-0.112179
1.63983e-06
0.165248
1.90839e-05
-0.000468129
1.67055e-05
-0.000179061
0.0966948
5.77196e-06
-0.00174627
1.39474e-05
0.0135596
-0.0036216
-0.00679234
0.000882008
0.160663
-0.000271799
-7.75973e-05
-0.00935174
-0.00903358
-0.000252398
-4.28153e-05
-0.000945453
5.24172e-05
0.127962
-0.0109113
0.532139
2.35766e-06
-0.0080726
-0.000151764
0.127443
7.19443e-05
-0.026887
3.04252e-05
-0.00168045
-0.0334859
-0.000237861
-0.0163132
-0.0483713
0.00553176
-1.23637e-06
-0.054434
-0.000347176
-0.000298119
-0.0058705
-0.015106
0.00143795
-3.79951e-05
-0.000455544
-0.000960517
-0.0013539
2.0336e-05
-0.00128148
0.522897
0.000118716
-0.00346877
-0.0348566
-0.0687305
-0.0604839
-0.0466906
-0.0222828
-0.000544786
-0.0167679
9.50324e-05
-7.91442e-05
0.522884
-9.31699e-05
0.163011
-0.00047216
0.000458437
-0.00120092
-0.0661543
-0.000436733
0.000693066
-1.00881e-05
-0.000409948
-5.86373e-06
-7.75733e-05
-0.015447
-0.000106989
-1.57943e-05
-8.14086e-05
0.00017904
-4.02711e-06
-0.042202
0.18501
-7.28925e-06
-0.000634063
5.17493e-05
3.97976e-05
-0.000881781
1.34324e-05
-0.000955969
0.000330164
-0.00038191
-0.0611678
-0.000728189
-0.00193922
7.82818e-06
-0.00166438
0.000387386
-1.32053e-05
-6.46865e-06
1.80125e-05
-0.000840554
0.000611649
-0.0436953
-0.0274721
-0.0616444
0.000664725
-0.00198248
-0.0352984
-0.0620432
-9.33904e-05
0.0165088
0.00743953
-0.00110912
-0.0122879
-0.0538096
0.467282
-0.000438514
-1.19582e-05
0.000996524
6.2785e-05
2.36321e-05
0.0780343
0.00396794
0.0904075
-0.0364756
0.454981
-0.000548757
4.0952e-06
0.000180768
-1.37691e-05
-0.00144632
0.148339
0.231202
-8.52569e-07
-0.000171204
-1.09379e-05
0.218212
0.0172331
-0.00616794
1.57695e-05
2.52881e-05
0.00790187
-0.000733741
-0.0674885
-0.017175
3.49355e-05
0.00383076
-0.0312975
-5.77191e-05
0.00200296
-6.12849e-05
-0.0447165
-0.00184345
0.14359
2.20804e-05
0.00186075
-0.000102288
2.065e-05
0.000204666
-0.0233531
2.00216e-05
-0.000965882
3.14764e-05
-0.0200182
-0.0443027
-0.00327425
-0.00751885
-0.00893798
0.00990983
-0.00906389
-0.00260433
8.38083e-05
0.000129125
2.83346e-05
2.46773e-05
-5.4082e-05
0.00975481
-0.0553372
0.000559491
-0.0431319
-0.00325213
-0.0490396
0.000106707
4.93785e-06
0.00145558
-0.0941594
2.46207e-05
-0.0427801
-0.0151666
-0.077583
-0.0434806
3.50468e-05
-0.00363268
0.000229076
-0.135101
0.137822
2.00799e-05
-0.0570635
-0.0226144
-0.0044618
5.01808e-05
-5.68784e-06
0.0253044
-0.0169071
3.38307e-05
-0.0070728
5.32396e-06
0.00025357
0.124852
-6.13146e-06
1.27946e-05
-7.72524e-05
4.55077e-05
0.00100789
0.000106628
-0.00548838
0.000274065
-0.0129138
0.00123329
-0.000207752
-0.0322933
-0.0419059
-0.00653342
-1.30866e-05
2.90588e-05
-0.0578029
0.00625906
-0.0461196
4.05065e-05
-0.00538483
-3.39815e-05
3.31235e-05
0.0681397
-0.00726961
-0.00292055
6.88759e-06
-0.0180811
6.26345e-05
-0.0633298
3.66342e-05
-0.0712502
3.09991e-05
-3.9711e-06
0.000103611
0.00114175
-0.0830646
-0.0183033
-0.0655605
2.46705e-05
0.000116245
-0.0725217
-0.025551
-0.00870422
-1.25148e-06
-0.0330743
-0.0486826
-0.0724638
1.11149e-05
-3.96222e-06
1.69984e-05
-0.075579
-0.0637047
0.000814591
-0.0113255
-5.05017e-05
0.177563
0.000114194
2.38521e-05
0.000178933
3.34847e-06
-4.27578e-06
-0.00378275
0.000138938
-0.00267998
-0.0612064
-0.0133439
-0.0553109
5.40374e-05
-4.88621e-05
0.0490823
-0.0505751
-0.00493678
0.113136
1.98826e-05
-8.74357e-06
-7.95838e-06
0.0688468
0.000204735
1.54344e-05
1.7872e-06
-0.0576681
-0.0157103
1.61922e-05
0.000104031
-0.0095016
-0.00664687
0.000489088
0.232874
-0.0564075
0.000204522
0.681649
-4.30588e-06
-0.000712042
-0.00877798
-0.0722474
1.35198e-05
8.17512e-06
2.82191e-05
0.00521031
-0.0325637
-0.000344082
-0.0476944
-0.00796803
3.96445e-05
-3.13106e-06
-0.0103941
-0.00516483
-0.022806
-0.0762364
-0.0440337
-0.0380731
-0.0150803
-0.0269808
-5.98603e-05
0.000405339
0.00426881
0.000602364
-6.48932e-05
0.000859269
4.68623e-05
-8.02335e-05
-0.0123483
-9.74947e-06
-2.14295e-05
0.0351703
-0.0263672
-0.000150982
-2.57736e-05
-4.62365e-07
0.255992
-0.00683241
0.000883036
-0.0280424
0.000264919
0.000232882
0.000201741
-4.43935e-05
0.000545603
-0.0372311
0.0169244
-7.07418e-06
-0.000154779
-0.040762
-0.0315849
0.0505019
-0.000508534
0.00202688
0.0190271
8.94293e-06
7.73608e-05
-0.0462696
2.92545e-05
0.167861
2.19247e-05
0.0045596
0.000196115
0.000260724
-0.0660634
-0.00755286
-0.0180673
-0.00250345
3.43972e-05
0.00686357
0.0631385
-0.0125492
-0.000131647
0.096116
0.163856
7.20174e-06
-0.0501836
-6.18039e-05
-4.69898e-06
-4.16209e-05
-0.000588281
0.0210409
7.40382e-06
0.000287175
-0.0246488
-0.0257155
-0.0221014
0.323977
3.11325e-05
-6.5668e-05
0.173044
-0.00647029
-0.00393827
-0.000679737
0.170338
6.10855e-05
-0.000310618
6.56728e-05
4.36531e-05
4.07519e-05
4.65573e-05
8.94364e-05
-0.0179132
1.75437e-05
-0.00345156
-0.0433374
0.235903
-0.000127436
-4.66204e-05
0.00510286
0.086539
-0.0456009
-0.000784397
-0.0662506
0.3213
5.46421e-05
0.426246
-1.40404e-06
0.00362397
0.0257498
0.000493116
0.464454
4.93074e-07
-3.28483e-06
0.00128586
4.04773e-05
-0.000901301
0.000302799
2.12286e-05
-0.00204402
2.64211e-05
-0.000142374
-0.00343672
0.249032
0.0514936
0.0233714
-0.0426138
-2.8723e-06
-1.10067e-05
0.00368293
-0.0534607
-4.59173e-06
-0.0453138
-4.97664e-05
0.10497
0.0634527
-0.0328842
-0.00140551
-0.0122406
-0.00102716
-0.0150538
0.00402375
-0.00763017
0.064919
3.66357e-06
0.21182
0.0176683
-0.000601361
0.210975
-0.0136299
-1.03387e-05
3.63787e-05
8.20521e-05
-0.000213218
-0.000114747
0.253261
-0.00102118
0.259213
-0.00111948
0.168394
0.22071
0.0828898
-0.00725791
8.71128e-07
8.68813e-05
-0.010855
-0.10159
-0.04753
0.0016451
3.57779e-05
-0.0375467
-0.00031207
2.41339e-05
0.00112231
-0.00111381
-0.000665126
0.0346842
9.19213e-05
-0.0470796
0.0588043
7.18631e-05
0.000310217
-0.0146746
-0.0565577
-0.000760248
-0.000537113
2.53058e-05
0.000290249
0.0363542
-0.0173517
-0.0471304
0.00144661
0.0692557
-0.0385454
5.09993e-05
3.41522e-05
0.0136035
-7.78325e-05
0.0590553
0.00134286
-0.0138473
-0.000391259
0.00179236
-0.0360955
-1.99416e-05
0.000553562
-0.000693438
-0.0706041
0.133212
-0.0598182
-0.0271495
-0.000155869
-4.28463e-05
0.00723708
6.06471e-05
-0.0710596
-0.0635552
0.000631904
0.00367875
0.00410734
-0.0879859
0.000713377
0.000225262
5.49866e-05
-0.0408617
3.92742e-05
0.000627185
0.123919
0.183069
-0.10094
0.0511276
0.0498538
0.0146339
-0.000147753
0.0121761
0.000146808
1.11314e-05
-5.793e-05
7.88946e-07
4.99511e-05
-0.000365992
-0.00789983
-0.0563064
-0.0100618
-0.0292938
0.0544205
0.045683
0.00441234
-0.0612391
0.000193508
0.00501168
0.0120678
-0.00039788
0.0758307
-0.00129915
-0.0113049
0.0128022
0.00594295
0.001112
-0.00419873
0.0443389
0.000919836
-0.0200738
-0.0168607
0.555609
-0.0251761
0.0819931
0.0127401
-0.0376021
0.00240952
0.000128461
-0.00268577
7.74665e-05
-0.00274995
-0.0257161
-6.54404e-05
-2.68305e-05
0.265984
-0.00344721
-0.0415064
-0.0191689
0.00024295
-0.00150826
-1.74076e-05
1.43441e-05
0.0392718
5.33626e-05
-0.00307158
0.0760718
0.00673016
0.0012396
0.0195116
-0.00598939
0.00452688
-0.102853
0.000966381
-0.00462793
-0.054822
-0.000889474
-0.00838353
0.000845868
0.000983057
0.00109856
0.0377902
-0.000313904
0.00610342
-0.0528675
-0.0211241
0.00036374
-0.0525132
-0.0153634
-0.0175674
0.00013568
0.0071356
-0.0661966
-0.000875007
-0.00506665
-0.0488889
0.000101808
-0.00121966
0.222341
-0.0221627
-3.81942e-05
0.00888525
-0.049752
-0.00109624
0.199932
-0.00231852
0.00112527
0.0618246
-0.00149068
0.0089115
0.130905
9.4533e-05
0.00129432
0.000209614
5.59008e-05
-0.00469436
-0.00753916
-0.000116518
-0.0245468
0.0981267
-0.0371873
-0.0688935
0.00128445
-0.00341504
-0.000625259
-0.047142
4.54081e-05
0.0173818
6.69031e-05
-0.0163004
-0.00203946
-0.00518675
-0.111094
0.112909
-0.0733594
-4.8328e-05
0.186792
-0.0020452
-0.00269789
-0.0576614
-0.0770748
-0.016035
-2.54764e-05
-0.00117485
0.00779705
-0.00323006
-0.00492989
0.000498686
0.0879997
-0.0431622
-0.0114831
-0.00694568
0.0225084
-0.00276638
-0.00122592
0.00187267
-2.86441e-06
-0.00322969
0.11142
0.000885475
-0.1116
-3.86592e-05
-0.00762434
-0.00383943
-0.0823253
-0.011882
-0.0946443
-6.00127e-05
-5.72187e-05
-0.00448508
0.0113467
0.00198105
-0.106087
0.0839473
-0.0479576
0.000220477
-0.1157
3.48372e-05
-0.121624
-0.0258378
-0.143861
-0.153962
-0.16243
-0.170532
-0.172763
-0.164501
-0.150509
-0.125408
-0.101705
0.019152
0.0627723
0.110659
0.19359
-0.00835066
-0.00767998
0.0567687
-0.0185985
0.000999291
0.0153313
-0.0403513
0.000598685
-0.000689201
-1.59649e-06
-0.0146668
0.0189744
5.74823e-05
-0.000310272
-0.0108368
-0.00688872
-0.138675
-0.013914
-0.054924
1.51902e-05
0.000645973
-4.84865e-05
-0.0534068
-0.00910805
-0.036619
-0.0111025
0.0018925
0.000268721
0.00509638
-3.00632e-05
-0.0126947
2.80829e-06
0.000420043
-0.00650254
-0.0118462
-0.000267125
0.000371402
0.050776
-0.0107002
0.0611927
-0.129588
-0.00866243
-0.0291099
-0.0191386
0.0039921
-0.0219573
-0.00339617
-0.0128682
-0.0131127
0.358545
-0.00137283
9.01061e-05
-0.00603577
-0.00926023
4.74704e-06
0.0828909
-0.00425104
0.3327
-0.180023
-0.0439184
-0.0270402
0.0440002
-0.0051703
-4.52671e-05
-6.46464e-06
-0.00434348