/*--------------------------------*- C++ -*----------------------------------*\
  =========                 |
  \\      /  F ield         | OpenFOAM: The Open Source CFD Toolbox
   \\    /   O peration     | Website:  https://openfoam.org
    \\  /    A nd           | Version:  7
     \\/     M anipulation  |
\*---------------------------------------------------------------------------*/
FoamFile
{
    version     2.0;
    format      ascii;
    class       volScalarField;
    location    "30";
    object      p;
}
// * * * * * * * * * * * * * * * * * * * * * * * * * * * * * * * * * * * * * //

dimensions      [0 2 -2 0 0 0 0];

internalField   nonuniform List<scalar> 
29659
(
0.0131716
0.185466
-0.0133753
-0.0553266
-0.00374873
-0.0564832
-0.0452408
0.0115125
0.00326721
0.000334157
0.00551968
-0.00766319
-0.000715943
-2.42879e-05
0.0836808
-0.00914724
-0.000225614
0.0184323
-0.00329281
-0.0158679
-0.00129507
0.0030792
-0.0136205
-0.00324077
0.858283
0.184289
-0.000773816
0.690829
0.0686979
-0.00261088
0.0246787
0.0775852
-0.0943692
-0.0113879
0.704843
-0.0144372
0.184895
-0.0411061
0.00913763
0.00876044
0.000748545
-0.0272639
-0.00019472
-0.0440141
6.94595e-05
-0.00239373
-0.00687342
0.000150638
0.00527324
0.18016
-0.0737283
-0.0483522
0.0804934
-0.0542822
-0.00896182
0.0710514
-0.00533852
-0.00133872
-0.00835622
-0.0343066
-7.45058e-05
-0.00320404
-0.0731505
-0.0129207
0.289103
0.812535
-0.0140294
-0.013275
0.770366
0.000781492
0.182296
0.560854
0.00344018
0.779293
-0.0118349
-0.0254324
0.00594471
-0.035917
-4.97455e-05
-0.0286461
-0.0494199
0.252826
0.0131651
3.14589e-05
-0.0425896
-0.201835
0.351167
-0.00074696
-0.000689429
-0.0719288
-0.0383798
-0.0364999
0.00483682
0.0681535
-0.0738989
0.340285
-0.0514628
0.000807195
-0.0637536
0.109146
-5.37111e-05
-0.0340036
-7.10464e-05
0.0485988
-0.0492733
0.149951
0.465204
-0.000661393
1.90075e-05
-0.0960657
-0.0932177
0.00558029
7.14522e-06
-0.00239706
-0.000167316
0.542062
0.264249
-0.0172423
6.6406e-05
0.00408518
-0.145837
0.199097
-0.074408
0.804509
0.0018151
-0.0491912
0.0241925
-0.0299467
0.00644391
7.36989e-05
-0.0413538
0.000300923
0.47886
-0.0975821
0.0482239
0.0240235
0.270248
-0.0346161
-0.18751
0.104763
-0.0416061
-0.0616047
-0.0652428
5.27313e-06
-6.27908e-07
-0.00382767
-0.00645962
-0.0721989
-0.147014
-0.0682685
0.0378432
0.0179285
0.000740059
-0.000170225
0.271411
0.00086242
-0.0121104
0.241342
0.333516
-0.072029
-0.0473583
-0.0539326
0.0763801
-5.00108e-05
-8.53471e-07
-0.0173875
-0.0625709
0.000125246
3.04605e-05
-0.0106346
9.2702e-05
0.00887564
0.24974
-0.0338153
-0.0901437
-0.00758018
0.00333548
-0.035553
-0.00195086
-0.0676442
-1.17588e-05
-0.0108061
0.343919
-0.0122327
-0.186278
0.263501
-0.00950081
-0.0264715
0.00608695
-0.00266828
-0.000398772
0.00184345
0.82268
0.266565
-0.0202211
-0.0115893
0.665613
0.236207
-0.0733644
0.0018916
-0.0727023
-0.077896
-0.00743541
0.00140218
0.252814
-0.0101871
0.0108192
-0.0710542
-0.0981691
-3.22493e-05
0.583512
-0.00155626
2.5529e-05
-0.000810079
-0.0371003
-0.059205
-0.00906261
0.0105423
-0.00321825
-0.0744377
0.000102861
0.000769986
-0.00348519
0.124003
-0.00436835
-0.00225725
0.0817908
0.000244654
6.526e-05
0.00837883
-0.0425338
-0.0313095
-0.00707214
0.18015
-0.0215539
0.0191484
-2.52771e-05
-0.00454681
0.0013156
-0.0685485
-0.160993
-0.00208217
0.000783656
-0.00232979
0.00434232
-0.0153136
-4.71318e-05
-0.191663
0.000125316
0.126132
-0.00514714
0.00027289
0.15269
-0.076531
0.000440211
8.95247e-06
-0.0616419
-0.151675
-0.0132455
-0.0319567
0.0374154
0.329111
0.000156017
-0.0399784
-0.104298
0.68219
-0.01221
0.259432
-0.0198046
-0.00034752
0.997601
-0.000799467
-0.0943149
-0.0736524
0.00358554
-0.0492188
-0.0122303
0.470807
-0.00525504
-0.0263332
-0.000366961
0.156352
-0.00513749
0.349879
-0.000749228
-0.00876365
0.616065
0.105775
0.0817363
-0.0475237
-0.000203478
0.00424916
-0.00023978
2.65302e-05
0.106781
8.06329e-05
-0.028495
-0.106776
0.870193
0.471026
-0.0670915
-0.0294862
-0.0297121
0.00682886
0.00317092
-0.0269565
-0.0721113
0.337637
0.574842
-0.00192859
0.454865
0.103729
-0.0748292
0.0167503
-0.0034543
-0.0222598
-0.00811526
-0.00398412
-6.56633e-05
-0.00310691
-0.00803508
0.151421
0.00262498
-0.0392815
0.019374
-3.54085e-05
-0.0695418
0.926211
-0.00962847
-0.00226119
0.017903
-0.0267055
0.119847
-0.00234975
-2.20598e-05
6.87883e-06
-0.00400977
0.621349
0.0274696
-0.163862
1.00271e-05
-0.158769
0.0684634
-0.00769802
-0.0677278
-0.00206167
-0.000645945
-0.0368324
0.001542
-0.0670461
0.0168585
0.0031054
-0.000271974
0.00270286
0.197475
-0.141006
0.000724298
0.000764802
0.526777
-0.0386794
-0.00251714
0.248642
0.701955
-0.0849112
-0.0129195
-0.051218
-0.00115705
-0.0127027
-0.00514272
0.230535
2.02615e-05
0.0162206
-0.14642
0.496742
0.760881
-0.00922821
-0.0136013
0.302595
-0.0355818
-6.30942e-05
-0.045467
0.131415
0.133881
-0.0116549
0.0411086
0.662328
-0.164423
0.580517
0.523647
2.14856e-05
-0.00645857
-0.153943
-0.00462431
0.00268265
0.709723
0.0271786
0.000506665
-0.0547253
-0.0795627
-0.0085924
-0.000154492
0.328368
0.259218
0.000131687
0.00667395
0.0088106
-0.14423
-0.0475659
0.000158861
-1.2677e-06
0.000865423
0.127417
-0.040706
0.41501
-0.0722497
-0.0286959
-0.0308808
0.242531
-0.0641413
-0.00187137
0.0130836
0.00144392
0.575844
-0.0375379
0.0018416
-0.0114381
-0.0378343
-0.00261471
-0.0189271
0.000428215
0.000434983
0.941438
-0.0123984
-0.00795322
-0.00070901
-0.00112879
0.304933
-0.148439
-0.0407449
1.23945e-05
2.25275e-05
-0.038723
-0.0104028
-0.00805174
0.0278531
0.010081
-0.00497318
-0.00174992
-0.0262617
0.566812
0.00508446
0.000452118
-0.0663107
-0.037807
-0.0321147
-0.00550782
-0.040336
-1.21566e-05
0.756003
0.0319169
0.000179887
0.822885
-0.0419309
-1.30386e-05
0.00245604
-0.0685385
0.00790056
0.0628738
1.81738e-07
-0.0121589
-0.01991
-0.00834265
-0.000719092
-0.0125978
0.674163
-0.0131554
-0.0183656
0.285853
-0.00437503
0.604852
-1.4922e-05
-0.0264647
-0.0769153
-0.0397596
-0.119466
-0.00248863
0.000235202
-0.000174357
-0.029228
0.00222139
-3.27896e-05
1.6203e-05
-0.00970112
0.587972
0.00980646
0.00414557
-0.0729501
9.55298e-06
0.0016935
-1.67707e-05
0.0135417
-0.0266235
-0.000584181
-0.0130291
-0.0189188
0.00177001
-1.59019e-05
-0.100731
-0.000628554
0.0603436
0.442787
0.314197
-0.0080638
0.00990052
0.0422812
-8.23555e-05
-0.00601514
1.15389e-05
0.530966
-0.0213341
0.0274623
-0.0253721
0.00216533
-0.0050896
-0.00013252
1.94572e-05
-0.00769264
0.0630181
0.338313
0.00212693
-0.0604043
-0.0367495
-0.0121803
-0.0650912
-0.00207582
0.000945577
-0.00873656
-0.000119847
-0.0709287
0.384422
0.245428
-0.0337114
0.375091
0.00018063
1.03058e-05
-0.0430177
-0.0417728
0.790082
-0.0728327
-0.0312535
-0.0302856
0.00203315
-0.00912937
0.000828122
-0.016215
-0.0199097
1.37177e-05
-0.00140259
0.493699
-0.000180232
0.724839
1.20049e-05
-0.113306
0.0555274
0.00309609
0.00181483
0.000352018
0.574744
0.063459
-0.0780664
0.258445
-0.0114
-0.0198624
-0.00640127
0.115204
-0.0386218
0.00988341
-0.0124739
1.04858e-05
-0.00205408
0.00959955
-0.0263505
-0.0329858
-0.0615694
-0.02662
0.164848
-0.00340017
-0.0728903
-0.0205654
0.000102515
-0.0180794
0.00547252
0.167949
-0.0404932
-3.26732e-06
-0.0276559
-0.0015242
0.0024015
-0.168073
0.413889
0.00158535
-0.017877
-0.0694815
0.109221
0.65769
0.00308404
-0.00894083
0.197305
0.219727
-0.0249229
0.0082422
-0.0671076
2.39283e-06
-0.055367
0.000175296
-0.0684611
-2.98252e-05
7.22722e-05
-0.0116264
-0.0719191
0.395119
0.00553492
0.0181338
2.23601e-06
-0.0099651
0.000179114
-0.00516065
7.17032e-05
0.0681738
-0.000732312
0.227958
-0.000164676
-0.0190669
-0.0494957
-0.00669504
0.651147
-0.0243345
-0.0883114
-0.00893632
0.0719741
-0.0660357
0.0463467
-0.0433292
-8.07181e-07
-0.00953177
-0.0062546
0.000464219
0.000171935
0.104813
-0.00780946
0.119582
-0.00857274
0.0015168
0.0506767
0.000316464
-1.68593e-05
-0.0544141
-0.00553303
7.68934e-05
0.274404
0.883366
-0.000302628
-0.0477735
1.47276e-05
0.681595
-0.119504
-0.0540627
0.000135925
0.0111501
0.0893585
0.105373
0.0608407
-0.000576548
-0.00019618
-0.0234611
9.76182e-06
5.87898e-06
-0.0392011
-0.0507908
-0.0606854
0.833453
0.000379048
-0.05868
0.0127602
-1.48023e-05
-0.00204315
0.000115628
-0.0100519
9.41926e-05
-0.0411753
0.0448201
0.594544
0.0698548
-0.000415678
0.000823125
-0.150287
0.117061
-0.00496314
2.17145e-05
0.221901
-0.181723
-0.0711485
-0.0208894
-1.31362e-05
-0.000410221
-0.18821
-0.037072
0.197688
0.565659
-0.0864747
-0.00201423
-1.24739e-05
-0.0641286
-0.0925895
-0.000288682
0.00198242
-0.0241001
-0.00744863
0.575484
-0.00208149
-0.0138504
0.00321889
-0.0119779
0.795747
0.806605
-2.08443e-05
-2.38043e-06
-0.0239085
0.0258849
-0.0465638
0.00881899
-0.0115892
-0.000895731
0.650864
0.222299
0.00383826
0.985224
1.15168e-05
0.151086
-0.0885088
-0.0583422
0.000200879
-0.0481271
0.157409
0.0247159
0.0949385
-0.000698429
-0.000745441
-0.0152042
-0.00549187
-0.0205771
-0.00175319
0.144102
-0.010491
-0.00847437
-0.0727531
0.514163
-0.0130654
0.0497664
-0.000618162
-0.000796681
-0.0300689
0.00173382
-0.00409474
-1.24659e-05
-0.000484307
0.158
0.576055
-0.000176822
0.0572998
1.57141e-05
-0.00532573
1.86572e-05
0.00906211
-0.108339
-3.6333e-05
-3.84675e-05
-0.0743368
1.0496e-05
0.0616448
-0.0386803
1.01836e-06
0.206981
1.81329e-05
-0.000614422
-0.000113538
-0.00811343
-0.00057939
-0.00957049
-0.104657
-0.0005068
0.00713702
-1.7309e-05
0.388011
-0.015318
-0.0161474
-0.0436727
-0.0321604
-0.00188539
0.00492391
0.279695
-0.0391602
0.146673
-0.0533988
-0.00550408
-2.7043e-07
-0.00900459
0.459771
0.230789
-0.0541062
-0.0651374
0.371625
-0.0129106
-0.0815253
1.8347e-05
-0.0402011
-0.00130226
0.951015
-0.0709892
-0.000110535
-0.0717281
-0.040045
0.331794
-0.00404353
-0.0416165
-0.00642989
-0.0108468
-0.00201989
0.331927
-0.157369
-0.0282172
-0.0222704
-0.0188654
0.00937346
0.36682
-0.0269544
0.261813
0.00459208
-0.11917
0.741669
-0.0130988
-0.000336603
0.314966
0.509524
-0.0132177
-0.00610147
-0.0108952
-0.0432493
0.202804
-0.0635073
-1.60065e-05
-0.011265
7.69329e-05
-0.00695865
-1.76227e-05
-0.00801593
-0.00150506
-0.00506413
-0.134564
-0.000923067
-0.000769961
-0.00181743
0.278158
-0.00322855
-0.00508015
-0.00481947
0.219041
0.00860845
-0.00055248
0.446117
0.793842
-0.027707
0.640254
-0.0244459
0.442045
0.00891633
-0.0264507
0.00422918
-0.000685153
3.6712e-05
0.00416523
-0.0172797
-0.0274976
0.253798
-0.031689
-0.0279539
-0.0013999
-0.128057
-0.0361458
0.0105056
-2.53007e-06
0.00703379
0.0129845
0.534866
-0.00381401
-0.0189033
0.196599
-0.000498615
0.0552754
-0.0249458
0.00100669
-0.0710745
0.00380301
0.451906
-0.00310346
-0.000788663
-0.00012181
-0.0760781
-0.0019961
0.96085
0.993676
0.0187063
-3.47444e-05
0.0129103
-1.30726e-05
0.0663478
-0.00077187
0.0327508
0.851372
-0.0258846
3.92323e-05
-0.0115157
2.54578e-05
-0.156601
-0.0458619
0.673408
0.000397183
0.0180084
0.0029262
0.000487914
-0.00328536
-0.000412564
-0.00852258
-0.0535314
-0.0316399
0.00703009
0.201291
-0.0184058
0.00947179
-0.0278993
-0.0027641
-0.0377378
2.50011e-05
8.92752e-05
-0.00311905
0.0402409
-0.0490286
-0.0227249
-0.00514868
0.00405861
-0.0459309
0.14183
-0.0173072
-6.19991e-07
-0.0663162
0.611816
-0.0944826
-0.0165437
0.0496375
3.33028e-05
-0.000920424
-0.0385816
-2.48165e-05
-0.000596053
-1.43865e-05
0.986453
0.0129819
0.00530537
8.46846e-07
5.17517e-06
1.78579e-05
7.22611e-07
-0.0300741
0.510989
-0.0460095
-0.00063154
-0.00019213
-0.00823187
0.680443
-0.0744278
0.582772
0.000232984
0.191366
-8.42671e-05
0.674778
-0.00302865
-0.0128034
-0.00863198
0.00856779
0.0103879
0.249306
-0.0526736
0.663872
0.316692
-0.0115276
-0.0396506
-0.0143084
-0.0390225
2.17264e-05
-0.00123895
0.00393587
0.0944784
-0.00891803
-0.0302553
-0.00454774
0.818748
-0.104562
-1.96675e-05
-2.17392e-05
0.683026
-0.0066081
0.00157676
-0.017444
-0.00299167
-0.0206825
-0.0131153
-0.0923409
0.037841
0.00671897
-0.0134764
-0.0192668
0.000157981
-0.00768304
-0.00223421
-0.0104967
-1.98804e-05
0.00011112
-0.0320635
-0.027256
0.655659
-0.0496921
-0.000209947
-0.00201026
-0.00037757
0.448388
-0.0870817
-2.09157e-05
-0.041198
-0.00595706
-0.00479917
-0.0373876
-0.0415936
0.00897595
0.0701891
-0.090528
0.000141665
0.00800954
-0.0171419
1.64984e-06
-5.71929e-05
0.152097
0.109528
-0.0582244
-0.0592457
-0.0728592
0.000762269
0.683784
0.000161988
-0.0257647
0.543432
-0.0220558
-0.0476056
7.56316e-06
0.000269233
-0.0476491
-0.0120312
0.00189762
-0.0400706
0.306623
0.200798
0.000960997
0.000403345
0.224224
-0.0161444
5.56914e-07
-0.00188127
-0.0355455
-0.0290701
-0.0151877
-0.00379235
0.0708254
2.71811e-05
0.0976242
0.336147
7.83691e-05
0.00790141
-0.000527405
-0.123176
-0.017232
-0.000806836
0.0351041
0.00032584
0.287232
0.00188953
0.0270013
-0.00788406
0.874809
0.523822
-0.0639863
-0.00884819
7.38917e-06
-0.0870696
-0.0159955
0.179597
0.339972
-0.0401478
-0.0408241
-0.0190877
-0.00728082
0.186741
-0.000195724
0.633179
0.0286818
8.30564e-05
7.91275e-05
0.000157908
-0.0144561
-0.0199613
0.000896851
0.00497025
0.103805
-0.0590048
0.000558393
0.00012055
-0.0265928
-2.75631e-05
-0.00312038
-0.0127863
-0.000791785
-0.0328218
0.00463821
-0.00145104
-0.00408524
-0.0178296
0.524704
0.540309
0.0419756
1.94541e-05
-0.000552929
0.326204
-0.000450128
-0.156511
-0.000185791
-0.0220292
-0.0944668
-0.00018293
-0.000214456
-0.0372653
0.00155216
-5.46183e-05
-0.0013784
0.223373
-0.0375068
-1.40992e-05
0.112275
0.456029
0.461602
0.000761385
-0.145561
-0.0098794
0.607896
-0.0750939
-0.0770989
-0.0205974
-0.0135587
0.0306016
-0.0270725
0.464922
0.0707315
-0.000135828
-0.0565494
-0.0715319
-0.00406302
1.28335e-06
-0.00191876
0.279754
-0.000161207
-0.0157194
-0.00425922
-0.00119876
0.00960469
0.032256
-0.000142138
-0.000101392
-0.0096323
-0.122643
-0.0383582
-0.0847528
0.32647
-0.00322039
-0.000246842
-0.0406917
-0.0255174
0.0098957
0.0144972
0.000137784
0.0829084
0.17371
0.0206754
0.0259479
-0.000611174
-0.013893
-0.0764361
0.00147706
3.12776e-06
-0.0100739
-0.00414425
-0.000720949
-0.0120819
-0.000843556
0.128028
-0.00943747
-0.168281
-0.0256473
-0.0111242
0.0127034
0.673123
-0.0441505
-8.71373e-05
0.670875
0.201558
0.00834906
-0.00602839
0.00808744
-0.0587178
0.201502
0.000421233
-0.00390112
0.853349
0.397706
0.332596
-0.0469239
-0.00140402
-0.00122953
-1.3522e-05
-0.00131009
0.252121
0.0955874
-0.0186552
-0.00842857
-0.000317112
-0.0829887
0.821422
0.559811
0.0911207
-0.00289972
-0.0628102
-0.00654816
-0.000703315
-0.0269609
0.0097044
-0.0279713
-0.00362012
0.00101308
-0.105714
-0.12243
0.03311
-0.0260943
-0.00742472
-0.0263334
-0.000175118
-0.00724419
-0.000670931
0.389127
8.56167e-05
5.04185e-06
-0.041432
-0.0201881
-0.0291708
0.0420589
0.000107084
-0.0988497
0.0635302
0.248839
0.928534
-0.00477201
-0.153137
0.031615
-0.00210774
0.000291424
-0.000574946
0.0109735
-0.000148594
0.238474
-0.140923
0.0113114
0.108291
0.141419
0.00159525
0.00239496
6.69834e-06
0.570581
1.04778e-05
-0.0453767
0.0004072
0.00178049
0.213609
0.117489
-0.0877527
-0.0393024
-0.00427177
0.996256
-0.087079
7.55844e-06
-0.0159913
-3.99663e-06
-0.0218204
0.120075
0.255649
0.00101496
-0.0356128
-0.0096435
0.186292
-0.0653762
-0.0328948
0.823289
-0.010153
9.49535e-05
-0.194888
0.868527
0.00130004
0.109609
-0.0462482
0.147704
0.00206574
0.0258223
-0.0731908
0.00477084
0.0602357
-0.0416338
0.132028
-0.0266474
-0.0199948
-0.000768281
-0.000780182
0.738748
1.58499e-05
-0.00644561
-1.87944e-05
-0.00825806
0.000425149
-0.00752934
0.231921
1.02606e-05
-0.000999107
-0.0589888
-0.179494
-0.0274067
0.00125959
0.591753
-0.0652882
0.217279
-0.0120604
0.19412
0.00641558
-0.000714796
-0.12836
0.000884278
0.756816
-0.0288803
-8.01607e-05
0.00245898
0.17807
-0.0114556
-0.000665663
-9.14094e-05
-0.112206
-0.00260718
-0.0102669
-0.0836051
4.3391e-06
-0.0684808
0.000500752
0.48157
-0.0107424
0.185294
0.00444731
-0.00378019
0.313494
-0.0791034
-0.196353
-0.00450705
-0.121949
0.324451
0.32837
-0.0143608
-1.27644e-05
-0.0158617
0.00492858
3.89813e-05
0.0194389
0.541083
0.0133261
0.00174828
0.00384918
-0.0696669
-0.000139773
0.0784263
0.0479277
0.0727819
0.0139697
0.0290607
-0.000358578
0.225909
-0.135
-0.186769
-0.00098288
0.0140745
0.173124
0.000915395
-0.0711168
0.280304
-0.0508644
-0.0727885
-0.0714394
-0.137875
-0.139027
0.0577897
0.291105
-0.142536
2.01831e-05
0.000904163
-0.0837481
-0.00178443
-0.00177702
1.42162e-05
-0.00583863
0.00426209
-4.77318e-05
0.0644775
-0.000483062
0.148143
-0.0357618
-0.00868611
-0.00703502
-0.00866193
-0.0751866
-0.00592009
-0.00104393
0.0227251
0.0874518
0.0043731
-0.0335403
-0.00299273
0.0301746
-0.00963647
-0.0197065
-0.0720079
-0.0161868
-1.0434e-05
-0.0155497
0.667172
5.74091e-05
-0.0109353
-0.0735638
0.802752
0.0530959
-0.0465368
3.13809e-06
0.00185478
-0.100451
-1.04221e-05
-0.00273352
-1.83078e-06
-0.0853382
0.00482024
-0.108384
-0.0233829
-0.000100821
0.361269
0.353778
-0.0369114
0.000536315
-0.000142431
1.77285e-05
-4.00552e-05
0.691255
-0.00130968
0.00248568
0.0233705
0.00108102
-0.000568626
-0.0726512
-0.000191632
0.0455007
-0.000118975
-0.00210725
-0.000709903
-0.0260239
-0.0425665
0.2159
0.0638713
-0.000135913
-0.0135991
0.000633935
-0.107262
-0.000649678
0.143627
-0.0128224
0.983682
-0.023116
-0.00144663
0.0849166
-0.0195471
0.472787
-0.0431913
-0.0114949
-0.013329
0.0198159
-0.00375486
2.71057e-05
-0.00862086
0.399372
-0.0439448
-0.00331115
-0.0421451
-0.0274839
0.191731
-0.000485134
0.348293
-0.00777479
-0.0731351
-0.000509484
0.0140987
0.0489657
-0.0143357
0.398322
-0.000444599
0.036235
0.10233
0.00058309
-9.84613e-05
0.782325
0.055853
-0.00192735
0.0315418
0.0112993
0.000180194
-0.110759
-0.0231938
-0.164287
-0.0114161
0.46534
0.0041563
0.057716
-0.000374463
0.557713
-0.070355
-0.00544406
0.00667529
0.0342183
-0.0802581
-0.164704
-0.00884137
8.53111e-05
0.899657
-0.0231599
0.00093756
-0.0715176
-0.0401632
0.418754
0.00326033
-0.0168481
-3.79899e-05
0.0326797
0.00856959
-0.039047
0.000924992
-0.00359426
-0.0286395
5.58373e-05
-0.0531884
-0.00159769
-0.0153855
-0.0658716
0.39732
-0.0106495
-0.0151778
-0.066769
-0.034812
2.21157e-05
0.000198792
-0.00400973
5.78942e-05
-0.0115598
-0.0949189
-0.00211554
2.81047e-05
0.789027
0.00539873
0.000418298
-1.21691e-05
-0.00220383
0.392449
-0.0527105
0.903042
0.242087
0.0234891
0.379849
1.82799e-05
-0.0158961
-0.000840487
-0.00256056
0.254689
-0.0109195
0.889181
0.333003
-0.0595297
0.363384
0.00870305
-0.0150116
0.00245923
-0.0732983
-0.00413444
-0.0531876
-0.0560275
-0.0031505
0.352238
-0.01043
0.00018732
-0.00451727
-0.000662618
-0.0343186
-0.000139962
-0.00128279
-1.50822e-05
0.202867
-0.165723
0.363966
0.0288608
-0.00287281
-0.0387443
-0.0216253
0.0852386
-0.00319197
-0.00108201
-0.0662676
-0.0478956
0.00489292
-0.043417
-0.00471568
-0.00270106
0.00102862
6.62104e-05
0.166059
-1.41084e-05
0.0650482
-0.000811653
5.52102e-06
0.00220799
-0.000662601
-0.00124552
-0.0172121
0.180918
0.189788
-0.0208835
-0.013376
0.00317867
-0.00534755
-0.0107303
-6.49003e-05
-0.000477966
0.000805978
0.139822
-0.00963764
-0.06135
-0.0628388
-0.00279446
-0.0307532
-0.0225353
-0.00177429
0.00572568
-0.0130762
0.313354
-0.0797227
0.00526417
0.000570976
-0.0407039
0.882511
-0.0106356
-0.0072737
0.00836013
0.0966862
0.00437118
-0.0122735
0.353531
-0.000352504
0.0480592
-0.027405
-0.0721535
0.00691202
-0.00398199
-0.00583269
0.0457636
-0.00380685
-0.000616154
-0.00593203
0.00272757
-0.000205994
0.0245951
-0.00994714
-0.00212716
1.69485e-05
0.20541
-1.79726e-05
-0.0373098
0.093034
-0.0288019
0.000210833
0.138648
-0.0569572
0.224738
-6.97462e-06
-0.0042543
0.0277216
0.000228943
0.00536791
-0.0047926
0.0113741
-0.021954
-0.0335111
-0.0104906
-0.00281665
0.0107373
0.0228708
-0.0672242
-0.000166137
0.145269
-0.041695
-0.00353951
-0.00734452
0.000484127
-0.0817681
0.000105713
0.675801
0.231101
-0.000481388
-0.0229388
7.43802e-05
-0.0022776
-0.00667574
-0.0245955
0.207224
0.0931501
-0.00701826
0.0110365
-0.0741144
0.0359722
-0.0137383
-0.0168185
-0.0524415
0.0121828
0.24191
-0.0101137
0.540181
-0.00093891
-0.0114773
-0.0575332
-6.40153e-05
-0.000757574
-2.59161e-05
0.536904
-0.0108996
0.0003432
-0.016465
-0.00711924
-0.000307401
-0.0138555
0.302584
0.00108601
0.0117195
-0.0357382
-0.000480701
-0.0048252
-0.000811206
0.905909
0.000264298
4.29777e-05
-0.00211018
-0.0158082
-0.0159749
0.000649976
0.00109846
0.0885245
-0.000104605
0.00220589
-0.0737451
-0.0496562
-0.0694938
1.93828e-06
0.000426252
-0.031642
0.033939
0.416495
0.112075
-0.0346487
2.13602e-06
-0.0687401
-0.00270663
-0.0132875
-0.0128587
0.229937
0.640564
-8.40931e-05
0.188903
0.308806
-0.010123
-0.0444555
-0.0272215
-0.0213982
0.0001516
-0.0410352
-0.00922358
-6.46276e-05
-0.000515196
-0.0016189
-0.0019359
-0.000655356
0.397013
0.371578
0.152114
-1.74117e-06
-0.0239217
-0.0363243
0.127718
0.686532
-0.000467102
-0.0208402
-0.0189648
0.269977
-0.0198188
-0.0102817
-0.0363061
0.195173
0.000376831
-0.000467929
-0.0283177
-0.0580976
0.125871
0.0127138
-0.049938
-0.0268066
-0.0488395
0.0204947
-0.0527934
0.00751126
-0.0855889
0.0715579
-0.00031007
-0.000597497
0.071654
0.000255294
-0.00388597
0.0347254
2.1126e-05
0.162336
-0.011355
-0.00458543
0.941004
-0.0373578
-0.013066
-0.0398231
-0.003063
0.632834
0.00128652
0.888228
-9.96441e-05
-0.0434109
0.896379
0.00737999
0.622303
-0.00592722
4.34915e-05
-0.0355166
0.606614
-0.00160348
-0.00686584
-0.00841805
-0.000994075
-0.0224943
0.639596
0.114184
3.25741e-05
0.0204616
-0.00383614
0.0319139
-0.000879284
0.0252569
-0.00265829
-0.000432329
0.602899
0.639476
0.613734
-0.0516649
-0.074716
0.000199892
-0.0556293
0.376062
0.0138628
0.000311236
-0.0914149
0.000677929
-7.9236e-05
0.643304
0.000169348
0.00451062
-0.00196097
-0.00976999
0.623291
0.626044
0.66379
0.0126187
0.000580022
0.259053
0.00818377
0.019152
-0.00936942
9.96465e-05
-0.00302285
-1.18266e-05
-0.00468625
-0.000724157
-0.00610778
-1.80944e-05
0.179825
0.00232562
-0.089925
-0.00969228
-0.0693476
-0.0166345
-0.000757603
0.428353
-0.0110323
5.57824e-05
-4.33381e-06
0.865472
4.54674e-05
0.0121859
0.0548539
-0.0182692
0.359222
-0.00539364
-0.0426654
-0.0370766
-0.000493441
0.000168895
0.341915
0.653923
-0.00154122
-0.0251032
-0.000205197
0.625568
0.825914
-0.00143558
-0.00689706
0.0208087
0.00323637
-0.0249284
0.000129726
0.0108737
-0.0382699
0.0550784
0.395572
-0.00150764
0.0309939
0.0455034
-0.0227619
-0.0437129
0.0301421
0.797015
0.194341
-0.0511223
0.626064
-0.000551255
0.684641
-0.00831659
0.530349
0.073298
-0.00520259
0.0296568
0.00263415
0.0189493
-0.0700107
-0.000643944
-0.023582
0.492961
-0.027366
0.0171348
-0.00148117
-0.078951
0.182983
-0.00948504
-0.144682
0.000810815
-0.00375118
-0.0241444
-0.00216313
0.00213651
-0.00898056
-0.000469704
0.00264889
0.51667
0.00227358
-0.0159764
-0.0603428
-0.0295324
-0.0606628
-0.10137
0.00448973
2.01088e-06
3.74606e-05
0.302923
-0.0708082
8.78303e-05
-0.103062
0.212878
-0.0613925
-0.0151608
0.000154814
-0.00190003
-0.0450403
0.136192
-0.00989965
-0.000446834
-0.0449107
-0.0204721
0.906217
0.127391
0.0696678
-0.0566824
2.08554e-07
-0.00677965
0.0709321
-0.000336481
3.05741e-05
0.190311
0.104687
0.000705358
-0.000833738
0.00505302
-0.0469017
0.0106979
0.00781251
-0.0151272
7.91802e-05
0.205398
0.000670861
-0.000597946
-0.000189994
-0.000186156
-0.000115724
0.0904922
0.00102331
-0.00278969
-0.00957062
-0.00515346
0.0298456
-0.00542054
-0.0407272
-0.0103985
0.55667
0.440689
-0.000446567
-0.00144812
0.101068
-0.000770079
-0.0237469
0.0265181
-0.0279747
-0.000928255
0.0218233
0.0427624
0.00139777
0.0572929
-6.50507e-05
0.00784067
-0.0420723
0.0142755
-0.0146995
0.0527915
0.000106414
-0.000895249
0.000350844
-1.47361e-05
-0.00162411
-0.00960502
-0.0126413
-0.0290206
0.0203546
0.0359564
0.00965356
-0.0741851
0.00959832
0.00387126
0.0134616
8.46738e-05
0.644916
-0.00819746
-0.00320412
-0.0619701
0.91809
1.07202e-05
0.0011919
3.31487e-05
-0.0786612
-0.00631394
-0.0220228
0.18972
-0.00388978
3.09022e-05
0.0651893
0.0784186
-0.000498212
0.0544093
8.53627e-06
0.187339
0.00522806
-0.0280391
-9.86434e-05
0.245442
0.0296709
-0.0197123
7.26159e-05
0.192789
0.372635
-0.00105336
9.80258e-06
-0.0356759
-0.00872224
-0.00337733
0.0162489
0.689206
0.342919
0.000540838
0.338995
0.245868
-0.002725
-0.0515296
-0.0426399
-0.017395
-0.064434
0.00752906
0.000883457
0.713204
0.14911
0.0125185
0.000156696
0.000698737
1.49844e-05
-0.000486942
-0.00266006
0.7647
3.82e-05
0.0852873
0.0279004
-0.00017864
0.683806
0.823383
0.221027
0.270164
-0.0988791
0.00253937
-0.000229192
-0.0106209
6.89255e-06
-0.00101281
-0.173841
3.88123e-05
-0.00206482
0.714588
-0.0111265
-2.98511e-06
0.769581
0.000513701
-0.0329786
-0.0686784
-0.00121588
-0.0979482
-0.000186842
0.069572
0.00338021
-0.018197
0.00199267
-0.000575316
-0.000321228
-0.000172732
-0.17323
-0.0584782
0.17564
0.00276128
-0.0127011
0.239156
0.000103599
0.871465
-0.000474694
-0.0768607
0.00229451
0.0016873
0.0530138
0.0552723
3.49869e-05
-0.00398291
0.000143284
-0.000596511
0.000896489
0.0885038
0.05064
0.38251
-0.0568443
-6.51164e-05
0.000207639
0.106414
0.347157
-0.00419078
-0.00595398
0.876692
-0.00260503
-0.0194108
0.00083135
0.0330294
-0.0583921
-0.00809302
0.180205
0.00138236
-0.000181192
0.00170408
-0.0780527
0.84313
0.647522
-0.0226652
-0.0446402
-0.00621063
0.00161025
5.3242e-05
0.0792537
0.196391
3.51449e-05
-0.00689183
-2.66865e-06
0.000180711
0.591449
3.96641e-07
-0.0874343
-0.0675118
-0.121063
0.0718915
2.73381e-05
0.0097633
-0.00599862
0.531516
-0.0337995
0.00497491
-0.02895
0.000682247
0.363269
0.246434
0.0100356
0.0403088
0.720807
-0.0631072
-0.0600965
-0.00176607
-0.00660397
-0.000296162
0.0134551
-6.96739e-06
0.188765
0.00290914
0.170131
-0.034432
1.74911e-06
0.0507136
-0.000115072
2.35318e-05
-0.000661182
0.849231
0.811036
0.244795
8.46432e-05
0.103075
0.68265
-0.000873322
0.000646707
-0.0079418
0.0337705
0.607193
-0.0259698
0.132118
-0.00247801
-0.0596534
-0.0672227
0.955531
-0.00051949
0.637844
0.0924399
0.220561
0.000177267
0.00025165
0.00525353
-0.00846579
0.0839081
-1.59278e-05
9.39004e-05
0.629601
-0.136781
0.000348833
0.665637
-0.00215195
0.000196558
0.468376
-0.00750776
-0.00143709
-0.0884969
0.0746867
0.000356531
-8.12454e-05
0.00333475
-0.00377063
0.617889
0.842267
0.252627
0.934153
-0.00153386
-0.0426542
0.73236
-3.66372e-05
-0.00305439
0.0149712
-0.00325703
-0.000567847
-6.40265e-05
0.656573
-0.000427346
-0.000558548
0.81725
0.0785259
0.0958735
0.0431076
-0.00251245
-0.0196819
0.120873
0.0678673
0.639058
-0.0250173
-0.000686351
0.588624
0.467191
0.0121298
0.406697
-0.0393933
-0.00727633
-0.00915216
-0.00055199
-9.22175e-05
0.600006
-0.0603841
-0.0430312
0.00071942
0.166958
-0.029078
-0.0239385
-0.000912703
-0.00404399
0.684957
-0.0007019
-0.0165425
-0.00277682
0.656216
-0.0187777
0.0195528
-0.00700293
0.00142382
0.166433
-0.0204329
0.718379
-0.0277358
0.927931
0.299576
-0.0543973
0.030838
-0.00163054
-0.0110324
-0.111524
0.631082
0.680112
0.786948
0.263752
0.610089
-0.000286217
0.732512
-2.14699e-06
9.64921e-05
-0.0444928
0.795887
0.0505903
0.236193
7.16461e-05
-0.00197486
-0.131324
-0.0371854
0.620702
-0.000590488
-0.00715214
0.235645
0.00106577
-0.00396521
0.894876
0.0466093
-0.0500202
-0.208192
-0.00044526
-0.0109832
-0.054206
0.940214
-0.0290772
-0.0209087
0.00390396
-0.000181569
-0.0175302
0.209257
0.00386964
0.000160098
-0.137043
0.282404
-0.00134165
0.625055
-0.0792004
0.638585
-0.0442168
-0.021725
0.729708
-0.00496483
-0.0445581
-0.000323802
-0.00118851
-0.0568494
-0.0208556
-0.0331065
-0.00913772
-0.0154935
-0.142286
-0.0640884
0.621482
0.000307237
0.000787061
-0.0195813
0.113414
-0.144749
-0.0539522
3.20676e-05
-0.143979
0.0443885
-5.79937e-05
-0.0960369
-0.138548
0.650584
-0.127645
0.608031
-0.0127759
0.0705793
0.28932
-0.03175
0.178023
-0.00165613
0.0484663
4.91835e-05
0.0858034
0.201033
0.188345
-0.0265547
0.00578674
-0.000571414
0.194159
-5.12768e-05
-8.28743e-05
-0.000912861
-0.0269989
0.011901
0.013919
0.506935
0.133234
0.85835
0.457574
-0.00137619
-0.0292945
-0.000110619
-0.0450888
-0.0011854
0.00549132
0.000666009
-0.0343781
0.376824
0.642781
-0.000228239
3.29401e-05
-0.0289312
2.37664e-05
-0.0084132
-0.000122466
0.109818
-0.0322318
0.20516
-0.103473
7.19816e-05
-0.0126278
-0.0361636
-0.0261457
-0.0150164
-0.0466957
0.0184807
-0.000117049
-2.72541e-06
0.00202028
-8.18021e-05
0.0564095
-0.0229668
0.0353961
0.785395
0.0411685
-0.161716
-0.0761536
-0.000348215
0.0491373
-7.28662e-05
0.570269
0.0982375
0.703402
0.000178404
-0.0298465
-0.00618197
0.0437866
0.0222327
0.480317
-0.00693552
0.0195399
-0.00167824
-0.019142
-0.00727534
-0.00551929
0.10659
0.00154771
-0.00928884
-0.0185608
0.0989629
0.0451171
9.37589e-06
-0.000758481
-0.00561718
-0.000509045
0.0895874
-0.000563777
-0.038686
0.120399
0.000100274
0.250714
0.000111154
-5.30676e-07
-0.0933081
-0.0232441
0.000195196
-0.0204881
0.000207661
0.740842
0.0115919
-0.0216642
0.705196
0.128561
-0.0281228
0.497644
-0.00246399
-0.00166464
-0.00184314
0.0712721
0.99336
-0.00130632
-0.000493297
2.91738e-05
0.00732798
-0.00108778
0.0239976
0.00576331
-0.0188173
-0.0530725
0.016989
0.00940749
-0.0171765
-0.000440301
-0.0640768
0.413845
-0.00160336
-0.0124066
-0.000169786
0.516797
0.0466258
0.417048
0.00045368
-0.000715
-0.0219846
0.793009
0.146271
-0.0255548
-8.27173e-05
0.0287342
0.0369427
-0.0424513
0.190699
-0.0420331
0.0162464
-0.168793
0.485036
-0.0165893
0.262178
-0.00283754
0.928334
-0.0366379
-0.00991254
0.702606
-0.0382276
0.168164
-0.182095
0.19351
0.00603148
0.0457052
0.355371
0.0466799
-0.0423101
-0.00870805
-0.00701738
-0.0200626
-0.037084
-0.00141042
-0.0526039
-0.0251358
0.00185579
-0.0582809
-0.0736069
-4.97497e-06
0.00557921
-0.00822023
-0.0192715
0.687445
0.373939
-0.0470124
-0.0640298
0.000490954
-0.093726
-0.0043795
0.900259
-0.031512
-0.0269516
0.37566
0.0451385
-0.037225
0.133904
-0.0328275
-0.00053079
-0.0105355
0.00926236
0.000653285
0.395224
-0.00240788
0.144163
0.212133
-0.00509016
0.262499
-0.120401
-0.000297789
0.00617663
0.033426
0.281314
-0.0022412
0.0596381
-0.0650738
0.0494098
-0.0208071
0.396831
-0.014895
-0.111315
-0.0032707
0.000208417
0.610714
-0.00219052
-0.0377524
-5.9218e-05
0.22482
-2.74882e-05
-0.0489537
-0.00466298
-0.193236
0.000655008
-0.00964571
0.10791
-0.00353334
0.000921574
0.000640709
-0.00372296
0.00417712
-4.85271e-05
4.31993e-06
-0.0076679
-0.00951405
-0.0211892
0.0075884