/*--------------------------------*- C++ -*----------------------------------*\
  =========                 |
  \\      /  F ield         | OpenFOAM: The Open Source CFD Toolbox
   \\    /   O peration     | Website:  https://openfoam.org
    \\  /    A nd           | Version:  7
     \\/     M anipulation  |
\*---------------------------------------------------------------------------*/
FoamFile
{
    version     2.0;
    format      ascii;
    class       surfaceScalarField;
    location    "10.5";
    object      phi;
}
// * * * * * * * * * * * * * * * * * * * * * * * * * * * * * * * * * * * * * //

dimensions      [0 3 -1 0 0 0 0];

internalField   nonuniform List<scalar> 
31093
(
587.9
-435.357
-152.543
270.575
43.0735
-313.649
938.607
-1126.07
187.459
-395.224
994.339
-599.115
-633.995
670.411
-36.4162
-687.335
53.3402
209.431
-28.5652
-180.865
575.309
-435.749
-139.561
216.306
-289.256
72.9505
85.7245
489.585
-70.2058
249.993
-179.787
-239.278
260.578
-21.3
-237.68
-15.5613
253.241
34.6203
553.279
622.236
-650.828
28.5918
-965.121
569.897
-277.84
333.944
-56.1035
-88.7697
-956.607
1045.38
-254.011
234.453
19.558
305.021
-34.4451
-296.406
294.161
2.24514
-6.2696
-233.008
-436.544
522.268
267.923
-310.927
43.0046
938.607
-362.273
98.6148
263.659
888.91
-973.423
84.5131
341.448
-151.803
-189.645
-167.084
-88.7381
255.822
-103.399
-150.612
-592.205
741.109
-148.904
363.844
-311.964
-51.8798
340.355
-67.6415
-272.713
556.813
-290.757
-266.055
-717.449
780.411
-62.9617
-731.506
139.301
128.369
-340.587
212.218
932.282
-932.282
782.824
-348.07
-434.755
268.725
410.84
-679.565
4.37447
787.571
-791.946
-265.379
86.9372
178.442
-857.521
678.327
179.194
971.466
-82.5561
-142.935
-219.338
116.199
72.3622
-188.562
1060.55
-455.442
-605.104
305.811
-243.456
-62.3554
842.893
-30.4182
-812.475
239.277
-232.717
-6.55984
-787.836
70.3867
48.7036
-737.268
688.564
-259.228
-143.756
402.984
762.646
-836.161
73.5154
145.181
-367.249
222.068
16.4742
-213.016
196.542
384.464
-114.068
-270.397
694.682
-751.824
57.1424
-51.0109
-299.749
350.76
-55.2089
-222.631
-665.897
436.064
229.833
-50.3556
244.878
-194.523
481.256
-483.715
2.45891
-184.596
-329.274
513.87
-697.59
828.059
-130.469
-717.199
109.055
608.145
508.809
-576.826
68.0172
-651.348
-65.8519
-145.729
-363.657
509.387
-149.759
-65.325
215.084
365.536
-547.613
182.077
311.647
-234.443
-77.2041
675.884
-53.6475
-276.264
-32.0066
308.271
1062.44
-559.04
-503.399
-60.6967
455.398
-394.701
333.64
-147.982
-185.659
-227.136
15.3743
211.761
874.142
-605.418
562.974
-833.451
270.477
634.343
-525.288
816.982
-195.522
-621.46
282.31
-81.8577
-200.452
295.871
-79.5656
133.857
-184.213
-581.73
-275.791
242.527
-282.284
39.757
-65.8572
170.412
-104.555
-607.957
423.362
156.36
-308.804
152.444
-400.12
663.552
-263.432
738.988
148.752
-887.74
904.534
-130.257
-774.278
183.898
-300.342
116.444
202.201
103.61
425.124
56.1324
262.125
-78.2266
-779.09
790.343
-11.2527
-313.463
243.257
959.678
-872.432
-87.2467
283.067
-126.707
409.18
-419.739
10.5588
187.889
97.7981
-285.688
441.744
-194.118
-247.626
1181.4
-1181.4
469.983
18.2911
-488.274
-51.724
256.048
-204.324
-458.504
216.081
242.423
264.785
8.93203
-273.717
-241.149
-90.2207
331.37
30.7318
-197.815
183.361
26.0697
399.643
-113.606
-286.038
-255.258
-402.158
657.415
-550.94
490.244
-568.61
-431.475
-352.619
-179.799
532.418
576.726
57.6163
-288.102
-15.7388
303.841
-1030.31
261.233
769.077
-170.766
909.754
42.8005
262.402
-305.203
365.274
-581.226
215.952
240.918
-362.486
121.569
127.464
429.348
734.81
-823.58
29.959
181.122
-211.081
179.411
162.038
272.09
91.7537
144.352
-496.971
-23.5323
-155.492
179.025
17.8713
221.405
845.975
-841.6
293.71
489.114
147.495
-347.635
200.14
250.441
930.959
254.505
-41.6091
-212.896
-281.071
-15.3352
-409.467
37.0252
372.442
109.068
59.7449
-168.813
286.058
-243.257
27.369
-303.633
189.011
122.636
-297.473
223.158
74.3156
-524.453
65.8004
458.653
-88.3688
235.864
-257.705
82.2707
175.434
-95.8462
-224.802
320.648
-14.2387
280.834
-266.596
-761.399
-212.025
128.106
-223.952
183.881
971.727
-67.1929
-235.251
-43.8027
279.054
152.014
664.967
-233.102
-24.6034
-731.449
149.72
89.588
178.335
70.948
-162.682
91.734
-14.9089
-222.771
-185.061
330.242
-229.832
201.267
-36.8247
-391.343
-133.11
-184.634
-641.373
826.007
-175.904
110.047
347.957
61.2231
270.608
11.7019
433.38
22.0181
-324.95
453.32
322.024
-67.5191
-208.331
-110.992
319.323
-16.4428
-178.731
195.174
403.115
-442.951
39.8356
105
110.601
-215.601
29.2371
311.117
-571.867
509.303
62.564
-544.444
-27.1353
571.579
-439.242
-111.698
-38.6374
220.229
-181.591
21.156
-194.519
173.363
735.514
196.768
331.157
77.0702
-408.227
-92.489
202.911
-110.422
266.833
38.1879
230.277
-125.833
-104.443
579.082
-213.546
23.8872
935.791
153.642
258.341
103.063
-361.404
262.846
-232.887
252.403
-375.989
123.587
63.1781
-935.61
-567.483
421.754
221.538
-150.59
-16.7669
263.905
-247.138
60.3316
270.825
-24.5438
286.403
-261.859
324.882
-58.049
17.6081
240.733
257.051
-366.089
109.038
-68.2503
307.351
-239.1
-453.346
192.848
-368.58
175.732
254.531
-406.929
152.398
-317.721
287.707
30.0141
-3.0289
-331.138
334.166
754.535
-705.831
201.241
-184.767
619.511
-634.8
15.2892
418.379
90.4303
-863.278
537.756
325.523
-40.3637
307.515
-267.152
-89.8961
-151.428
241.324
-279.787
572.099
490.34
513.549
-513.549
-520.259
-510.051
-238.035
-220.468
896
-602.29
6.90958
260.676
-267.585
-191.958
-235.667
427.624
111.003
133.995
-244.998
487.861
-887.981
-325.451
235.23
-13.5885
-395.878
355.199
-358.228
-1068.63
500.021
-484.964
484.964
-642.519
-4.69947
647.218
608.844
-243.57
301.767
112.596
-414.363
-316.246
264.522
-221.224
201.737
19.4876
-508.368
813.888
-305.52
306.568
-64.0412
546.345
-76.3615
-422.584
214.253
191.574
70.5514
-632.329
440.371
209.351
-357.333
87.5826
-177.479
223.674
100.103
-323.777
351.584
-110.666
-941.931
-239.469
623.555
-46.8288
-58.3914
262.581
-204.19
527.897
-434.185
-93.712
-66.2614
743.72
-677.458
-53.2199
896.113
263.101
1.68383
-80.8115
191.814
-65.6431
508.426
-442.783
-540.775
192.705
-170.585
15.155
155.43
-108.638
410.405
-32.6571
216.177
-183.52
-66.3393
-199.04
194.593
-85.5246
-77.2836
193.483
13.5005
-246.674
233.174
30.4096
460.169
-490.578
710.349
49.3869
-759.736
290.908
15.6594
-68.5363
-161.296
-109.584
15.1967
240.037
-255.234
37.6817
361.962
230.552
-738.92
331.601
-198.069
-84.2142
122.589
-820.583
697.994
60.62
-370.741
-206.085
-275.906
213.262
62.6437
-358.685
-307.213
567.718
-999.193
242.229
-53.2403
-188.989
-23.1285
206.286
-183.157
-1038.45
334.191
704.254
-35.8978
371.238
-335.34
325.048
59.4162
-262.601
120.907
141.694
334.62
-78.0358
-256.584
361.695
-109.292
-200.968
298.767
295.911
-213.631
141.883
-165.012
-80.8258
568.277
-487.452
751.768
-188.793
-132.588
-319.574
452.161
853.944
-731.355
230.039
-214.843
-42.5107
-282.44
-537.247
82.2376
81.7674
-164.005
328.503
-55.3112
-273.192
-68.1432
172.81
-104.667
357.84
-100.789
-88.2958
-347.649
435.945
7.56886
843.985
-851.554
-776.452
804.433
-27.9812
-245.088
83.6016
161.486
-754.459
442.426
312.034
61.9003
-165.3
6.45479
172.547
-179.002
-252.217
245.948
6.25556
-231.05
224.795
219.891
0.338203
145.062
-503.877
358.815
228.655
-215.155
-40.3038
-186.832
-66.1151
519.435
312.478
-48.1247
-264.353
-733.918
741.487
-479.396
338.486
140.911
440.883
-296.531
471.837
-860.701
388.864
-292.987
-74.2624
-726.519
28.9293
-164.944
-97.657
-646.819
631.739
15.0807
-176.888
351.701
-174.812
295.711
303.959
264.508
-167.361
-97.1472
266.37
-275.786
-455.663
-207.879
-92.4627
272.436
-172.003
-100.433
-507.16
-3.66186
510.822
201.222
-96.2216
1006.22
-1006.22
433.525
-496.601
-541.845
133.988
199.736
-333.724
-446.864
404.353
-331.402
299.396
-328.594
409.157
135.479
-544.636
49.9259
712.72
520.51
-111.353
385.757
-565.556
80.9608
218.642
-299.603
-210.292
-227.933
438.225
253.06
87.9396
-341
-297.415
-544.727
842.141
489.623
-744.881
336.941
18.833
-355.774
-956.607
417.507
96.0424
232.376
-248.819
304.755
-355.766
-40.8952
161.103
-120.208
4.98643
-265.166
-253.99
11.7736
242.216
223.471
48.9649
262.577
-355.066
226.821
-92.9634
-501.864
-165.374
-143.429
-389.132
-365.327
-933.992
-167.489
1101.48
-499.13
939.24
-440.11
-143.634
-20.5555
164.19
-669.459
636.838
32.6215
-232.16
329.442
-97.2824
254.897
273
1.75521
-214.771
873.919
-912.465
38.5462
440.96
-96.2472
183.184
-362.552
176.551
186.001
-227.894
37.9973
189.896
-467.399
-39.7615
133.696
-247.763
303.757
-80.0822
-1050.93
866.295
-503.19
437.547
-130.587
251.574
-120.987
-61.1481
378.188
-317.039
351.816
-307.605
-44.2112
-391.442
43.2611
-213.846
-275.927
650.708
-374.782
-52.0576
-261.406
-74.7352
411.676
4.41304
192.043
-196.456
871.896
188.65
-323.397
-39.1554
173.93
177.886
-373.828
-455.427
829.254
-806.471
351.029
446.374
-950.981
504.608
75.1931
-407.471
332.278
-264.921
196.778
-7.44437
467.613
-176.341
-192.239
-461.97
150.006
616.139
7.4158
27.6447
214.584
429.873
-109.272
-320.601
-97.9491
-93.5113
191.46
107.103
189.613
-255.952
9.11067
-118.587
-60.6333
179.22
-386.996
-6.44313
393.439
-7.97359
276.538
-268.565
-105.115
496.052
-390.937
-414.327
341.863
-88.8027
-870.55
804.288
336.471
-318.18
-82.6555
-293.334
-83.2867
-282.802
-656.181
-122.909
-508.428
257.457
250.971
-272.96
38.517
-118.372
129.517
14.3638
172.31
413.154
-585.464
27.8929
-260.803
17.3466
-0.425181
286.828
150.231
-263.837
-59.8812
-234.119
294
-810.955
796.214
14.7411
236.013
-253.342
17.3288
363.789
532.211
276.285
-354.321
-14.516
305.424
-724.634
694.216
293.247
-210.573
-82.6736
276.538
-12.6325
-183.961
-150.652
-318.671
469.324
-216.375
-101.345
297.589
-352.9
431.422
-519.718
116.571
81.4242
-197.995
207.424
-129.247
-78.1774
277.174
-651.001
134.956
-498.614
242.09
-101.974
-140.116
48.2508
-809.65
-422.894
290.735
-338.86
-564.687
639.88
-459.287
67.9442
368.344
-665.759
164.166
-259.466
95.3001
-846.436
894.687
-30.5441
-10.2066
797.778
-223.406
218.329
5.07701
-309.467
200.804
108.663
-228.195
-178.734
-47.7732
419.782
-372.008
531.998
-612.824
34.22
-222.897
188.677
168.111
-133.891
289.716
88.2918
-265.18
168.64
25.9529
-138.987
766.805
107.113
-427.349
179.724
-247.913
176.03
71.8824
199.373
-232.03
0.611181
193.365
-193.977
-306.285
246.404
-227.371
-10.5911
237.962
-505.325
372.737
168.695
-182.934
-581.096
-65.7236
614.808
4.70283
-261.42
-235.551
198.691
-75.9377
-122.753
-127.727
-84.719
212.446
137.246
-201.526
64.28
-66.0072
272.886
-206.879
-227.263
218.11
9.15302
-200.212
-27.0517
317.148
112.725
944.677
-694.236
-265.818
-299.973
247.916
190.806
32.9632
-223.77
-959.334
790.178
169.156
-399.33
169.484
229.846
-481.649
-121.49
603.14
-158.968
-806.152
19.0297
-304.717
-459.573
453.13
-90.2305
-219.236
231.236
-24.9501
652.219
-95.8467
-556.372
347.671
-452.786
-159.317
756.429
-597.112
-200.239
-216.268
416.507
-288.922
273.929
14.9931
5.93276
-67.7594
205.005
-92.7042
-183.202
-528.609
20.1811
-16.1701
-91.5695
-744.591
37.1376
-432.299
-213.291
85.5645
-269.422
180.684
698.773
260.552
-304.355
165.384
64.8928
-310.23
24.6082
285.622
-269.773
41.8794
-37.7208
-995.958
778.129
217.829
-28.6259
230.363
-124.587
277.031
496.545
-521.04
24.4944
-278.095
-201.302
-362.753
399.779
-35.9768
159.657
-123.68
951.116
-795.559
-155.557
29.3719
-516.514
487.142
-4.05047
-169.984
174.035
-166.047
-106.913
488.769
-63.6459
-221.833
476.731
-556.394
115.387
441.007
-177.901
276.516
508.034
-345.81
-162.225
296.958
8.19442
-305.152
-258.622
200.23
631.215
-80.2474
-550.967
419.672
-247.363
-433.045
389.362
43.6837
267.13
-4.54876
-239.759
-70.4706
-182.443
56.6093
205.123
-499.97
61.2299
438.74
-258.367
265.276
-338.196
330.222
-314.225
-67.4573
-417.507
-450.084
402.311
-530.575
1001.83
-471.253
-133.748
97.771
-177.385
-221.945
488.654
-50.2416
-438.412
-16.5784
-302.319
318.897
-491.426
556.227
-64.801
398.762
206.646
-101.108
-105.537
160.315
-226.323
203.3
-202.689
-307.004
135.001
411.837
-382.465
-9.54739
-279.374
82.6354
-886.877
886.877
135.103
5.97384
420.508
-426.482
-156.874
182.919
-26.045
-522.68
312.387
-419.021
60.715
358.306
41.8209
156.87
-484.944
359.122
125.821
-239.856
437.421
51.3486
307.991
41.9458
-349.937
332.375
-69.9726
-412.845
-21.3405
111.444
-352.368
291.22
331.546
-214.847
-116.699
-60.8404
147.909
-87.0686
-933.992
-302.488
-222.8
126.363
96.4362
-288.366
220.724
-429.407
-521.574
258.778
512.585
-771.362
-149.161
-528.203
677.364
-440.995
179.576
-25.4454
194.085
216.242
-12.942
-657.738
640.726
17.0125
63.6933
355.979
277.531
-54.1349
-223.396
-105.299
-508.568
613.868
-563.404
788.532
-225.128
-572.218
51.8349
-756.556
177.719
578.837
-982.024
412.534
569.49
-281.839
-274.555
-127.087
463.559
-968.613
438.038
-675.432
814.32
-138.888
595.434
-700.734
-208.7
252.511
-234.64
124.364
-799.796
-164.843
-693.925
858.768
646.71
-15.4956
501.256
326.803
-60.6247
262.826
-117.826
97.2708
-119.255
193.31
-522.584
255.636
-228.512
-27.1236
-145.957
320.046
-174.089
-173.863
-86.9392
520.225
-23.6794
-293.491
276.913
12.7086
624.129
-704.043
-650.948
-250.858
-249.111
27.3317
222.661
29.8053
417.49
-447.296
-349.09
331.969
17.1205
-141.128
156.503
561.595
440.234
-344.955
-201.473
546.428
179.314
-234.523
-79.1962
268.207
-63.4735
-355.547
181.909
-223.518
-239.473
303.167
202.165
-129.802
-458.35
-523.674
-295.146
-12.2598
307.406
-280.727
152.941
127.786
-173.572
177.985
-187.982
-92.745
226.345
-220.09
254.379
-282.407
28.0277
263.909
-69.2247
-194.684
-805.212
646.244
-315.486
-288.91
56.7502
-280.042
298.875
278.159
-113.598
512.36
195.286
-61.2906
293.26
522.315
-815.575
-195.762
166.716
40.7088
-560.478
409.826
-920.757
279.384
299.088
-798.218
-473.616
-73.1543
546.77
-540.078
468.811
71.2674
287.66
-210.131
53.2571
-606.457
384.623
-8.62458
172.791
-305.464
335.27
162.399
-508.209
-135.434
-37.5391
229.113
-6.03688
279.965
270.038
-86.0642
196.665
751.288
-7.56795
298.117
-270.736
-27.381
-231.113
-116.522
-123.123
-30.5341
266.547
680.701
258.539
87.5161
189.515
337.97
-128.618
-91.611
288.248
-196.637
-420.687
101.114
496.251
-231.128
-265.123
292.389
-298.426
-18.5548
-672.641
691.195
230.011
-834.207
442.765
-231.84
45.7541
-310.107
-96.6522
-366.29
462.942
-124.332
139.487
243.559
-304.184
279.234
1.59985
-874.327
329.884
56.0224
-329.214
-726.526
-513.555
-445.779
242.65
75.5623
-332.146
233.421
-312.617
167.295
74.7953
121.452
-224.826
103.374
-473.854
126.205
509.704
-924.032
-175.32
99.3822
458.175
26.7886
-574.458
-421.5
19.1058
-600.202
-3.09532
300.053
-107.207
370.848
-263.641
-125.34
-90.2614
127.195
-187.101
-92.6862
-344.41
382.092
-210.586
-65.2066
275.793
-72.1572
225.098
-277.765
-262.678
244.879
17.7997
43.9636
-233.311
279.065
365.47
-38.0548
-311.035
-18.5532
236.663
207.35
-26.906
-180.444
-116.106
-467.721
54.1644
413.557
-296.831
-123.125
419.956
151.169
-212.009
299.581
-269.142
104.198
-203.931
-110.834
314.764
783.627
308.983
-32.566
-215.516
248.082
-19.0257
-521.053
-295.146
-743.209
372.833
370.375
8.71089
-299.468
-4.25484
276.345
-15.3506
233.68
250.378
-343.628
93.2503
-458.062
-109.421
-553.88
217.398
336.482
214.719
23.2428
237.809
318.133
-624.12
305.987
213.937
-424.583
210.646
-366.343
382.793
-677.486
294.693
921.251
-897.364
-720.891
444.964
-390.562
-124.584
515.146
164.506
133.61
-329.599
561.529
-367.57
-193.959
367.379
-188.065
-800.521
237.117
251.481
244.77
-225.958
59.9108
377.632
-113.11
181.743
-185.595
3.85222
233.224
11.6545
585.942
-613.077
-515.182
211.52
303.661
79.6158
-334.352
-162.966
497.318
80.9451
358.779
-176.87
264.969
59.9126
-471.907
193.812
283.672
155.289
-438.961
123.699
-254.286
-157.572
-229.251
-206.105
-365.623
21.2124
-28.7029
-629.035
-29.1368
229.086
-199.949
-332.754
171.95
160.804
-345.13
-101.389
446.519
-227.36
-98.0914
192.819
14.5303
-305.909
87.6559
167.411
121.093
-288.504
-274.933
-121.314
396.247
-364.623
-291.336
271.542
19.7944
157.022
-373.195
216.172
149.929
-262.033
112.104
-40.5745
-87.4796
-276.218
363.697
-397.138
220.797
211.635
-440.886
-285.908
140
145.908
-459.675
141.003
35.0634
-440.098
405.035
-199.388
-63.2902
156.259
374.962
-320.935
-54.0276
-205.372
207.5
-2.12765
-260.492
146.509
113.983
-115.567
-132.346
-282.743
-111.108
901.286
-220.344
-26.33
276.491
-490.097
288.796
141.202
-348.716
207.515
-359.521
-122.523
482.044
-470.403
-216.932
219.913
-29.1067
231.675
689.023
-707.578
-48.924
-273.736
322.66
79.4987
-709.597
630.099
215.108
81.9869
-297.095
291.695
-91.9592
-216.09
235.12
-365.7
-39.4884
405.188
-710.867
39.454
671.413
-447.931
-184.398
-71.6349
-266.561
521.924
-11.8938
-774.341
-19.4126
793.753
-171.921
503.729
-331.808
-186.232
479.492
186.436
-520.788
311.061
-92.4191
89.955
418.471
-425.858
431.832
-325.85
-124.271
450.121
-524.396
50.7797
331.178
7.3073
59.5504
-275.641
247.717
-50.7383
-196.979
-85.1339
-91.6682
288.446
-72.0619
-280.306
80.2584
196.257
-303.993
-87.7023
391.696
-281.817
330.626
-48.8087
-68.1696
267.543
-336.116
-116.261
452.377
-270.052
135.939
134.113
-138.117
-19.4374
40.4078
-651.854
611.446
-181.064
-251.981
-263.723
-240.154
-338.896
-83.9975
-217.263
-63.4476
280.71
415.499
639.59
179.955
-270.586
90.6312
137.616
502.264
223.312
24.4048
187.866
-241.003
53.1374
-346.637
-158.687
-533.707
-71.7427
338.112
-182.27
314.985
-27.326
622.17
-181.799
-4.47744
230.823
-246.488
275.633
-29.1451
713.585
2.42772
289.961
-602.196
492.501
109.695
224.071
53.4597
200.134
-27.4785
189.001
-332.431
113.487
-332.825
16.0305
-355.268
362.498
-7.22967
120.189
-224.744
185.781
23.1008
-320.615
323.518
-2.90294
238.029
-303.236
246.198
-13.0248
-321.414
-125.449
-55.9921
234.434
11.9081
243.728
306.535
1.73581
-357.423
-146.791
504.214
-81.6248
-151.092
-202.267
-20.6301
95.8654
235.736
263.894
-294.428
284.724
-68.2556
-221.662
238.688
-17.0269
-1061.19
709.143
352.044
-419.819
122.988
277.471
6.78981
-284.261
-56.3553
347.575
578.163
-182.824
-19.3045
202.128
-42.5748
-209.642
-267.354
-52.4563
319.81
-290.827
-51.3225
342.149
-70.1407
-510.311
-91.8849
-797.674
785.366
12.3072
80.1079
220.847
-300.955
61.5997
275.492
-164.677
457.293
-292.616
-238.956
-61.0176
-419.865
111.313
-236.653
170.659
-268.316
-321.7
-93.0669
414.767
-96.4386
407.893
-311.454
-385.326
-74.2467
-232.73
-71.4537
2.17354
-407.077
-96.1139
-204.668
684.323
8.17648
636.379
-644.556
-199.07
43.5777
225.204
-809.474
584.269
186.888
-415.083
274.674
-18.6255
125.495
-997.985
-227.29
-85.3269
442.464
-8.93968
-460.91
-393.126
-95.1488
-657.401
213.189
-422.498
209.309
17.9263
254.96
-306.625
-70.2824
376.908
8.51056
-275.527
267.016
830.001
-116.416
-490.437
482.992
-59.7238
-714.617
-66.5515
396.774
-846.538
783.576
300.47
-467.111
403.638
-89.1643
-121.409
203.811
169.529
-373.34
-438.292
-244.653
185.508
19.7871
-205.295
-220.139
909.212
29.3949
-992.017
559.718
-219.393
-82.4028
301.796
703.664
31.1462
331.657
-96.4265
376.848
-355.636
-402.333
410.976
-8.64249
323.036
-328.471
5.43524
339.947
-108.271
-14.0798
-391.347
-125.167
-230.704
-103.02
-206.562
-93.0414
-582.928
763.363
-180.435
-202.783
14.8017
-188.893
-378.26
-462.444
412.202
100.857
-287.957
-140.429
-111.628
252.057
-44.9107
391.894
-346.983
308.019
-61.6155
217.232
-62.5497
-154.683
85.6264
-255.611
120.565
175.346
302.403
-87.2953
-295.085
-103.732
207.343
521.749
-149.012
26.4384
-773.688
747.25
-300.444
121.202
-207.267
-30.3005
-47.3686
293.316
42.2474
772.054
-698.539
856.205
-110.783
-745.421
380.442
-77.0296
-303.413
128.543
-249.53
-97.1851
510.358
-413.173
-224.741
-64.5149
25.9481
-735.545
397.165
-115.965
-291.263
289.837
1.42584
-195.483
-84.2399
279.723
206.664
22.6204
-229.284
-31.7503
-129.691
-450.735
-610.452
-427.381
205.053
-12.3719
-235.747
-10.1037
240.115
51.6971
-535.263
483.566
-280.68
248.78
-426.166
191.875
-384.113
698.356
-304.494
69.6034
-272.153
202.55
-109.491
286.042
555.67
-169.913
-241.327
-144.707
233.958
846.478
89.3129
-307.406
229.179
47.1612
724.893
-13.4369
195.18
-326.512
-93.2276
348.854
-58.1192
-434.488
-527.231
156.073
371.158
-153.907
-489.749
643.656
-570.593
1011.55
-696.364
113.436
-460.387
-307.111
275.068
86.6269
-911.21
69.1742
842.036
-335.952
361.611
-64.0224
-3.75458
358.954
328.056
2.56936
223.895
-201.843
-22.0516
-321.733
101.594
-198.058
-7.31441
242.747
348.862
-72.5774
600.363
-113.221
281.702
76.138
528.983
-97.5608
502.256
-89.1027
249.344
-26.6121
-222.732
386.619
-461.234
-313.429
774.663
529.795
-272.338
-281.443
-555.264
80.2594
475.004
303.268
-55.3526
-710.925
677.646
33.2793
516.514
-63.3846
-33.4386
635.766
-602.328
-317.824
248.599
272.612
56.8309
416.895
103.615
-376.055
211.947
-23.2699
302.797
5.2218
-426.599
-130.052
-40.3526
588.994
326.612
-317.675
-8.9373
-497.813
39.7516
-370.508
-330.179
302.853
42.1164
329.122
-285.432
289.74
-41.1407
-144.905
-252.938
-231.217
-2.20746
233.424
-401.237
-112.312
-31.9363
547.391
-38.0882
-9.38897
477.002
538.102
-26.3669
-178.936
-275.79
320.77
-44.9802
-101.731
254.126
32.7623
-743.687
-297.783
-211.467
336.96
-393.389
-56.6951
428.442
617.895
226.207
-844.102
-140.94
533.351
-136.186
315.585
-251.417
-64.1673
-116.554
-574.47
-182.086
23.9378
210.969
117.087
-129.607
241.711
-260.387
-253.219
296.658
-43.4384
250.767
292.553
-419.64
689.911
411.57
-250.683
328.206
-77.5222
-245.149
-454.303
-210.25
837.327
18.8781
357.142
-54.3444
-935.467
24.2571
352.094
-89.517
-743.994
12.3047
-305.639
635.245
207.746
-91.1749
-97.511
6.50726
298.917
-361.289
13.1481
348.141
-210.334
-113.443
243.889
-95.2197
-476.543
-83.9357
487.069
-77.243
342.174
19.1459
-301.948
-79.2526
-102.823
-519.526
370.365
-118.347
653.416
-627.468
-277.12
350.322
-73.2025
-214.987
41.1232
283.785
23.7301
-445.606
-478.426
-431.672
972.758
-467.519
-505.239
520.274
-82.7263
-507.642
-98.8145
-66.2482
18.7946
490.693
-106.069
-24.1516
48.1242
180.962
-231.146
-196.203
50.5374
-71.1979
532.772
-111.019
-407.664
-360.377
308.497
268.386
-1.83931
404.037
-61.8632
-55.4338
-149.234
-184.306
-310.091
30.7166
64.5451
-266.812
438.311
-650.335
561.933
-85.2271
-476.706
758.967
-726.205
381.911
-44.9503
-281.369
-312.038
25.7139
531.545
-103.104
-758.19
784.628
220.568
-4.76187
-215.807
-111.932
212.789
456.281
-53.9703
554.37
-131.008
-282.655
285.083
-107.192
-115.608
-202.135
227.407
-25.2715
-108.421
272.927
296.387
-35.8352
-65.273
251.286
-473.418
-278.406
271.559
-235.847
-35.7127
-373.029
378.428
-5.39911
-18.5338
-100.267
274.197
308.411
-311.316
2.90559
-248.323
-124.678
-0.502919
161.606
-324.895
395.805
-43.4256
787.233
-743.807
-507.556
340.301
-47.7483
27.7381
349.217
11.5969
-360.814
7.10028
382.261
198.748
479.578
25.8375
466.801
45.5591
355.892
-47.9009
-44.385
232.251
212.05
76.1983
-855.082
863.258
-300.987
287.305
13.6821
-551.04
252.753
-1.46645
740.962
-542.944
-198.018
261.691
-187.886
-73.8048
433.075
229.721
24.9052
495.319
-200.278
619.311
-419.033
69.883
-50.0836
840.634
-790.55
-380.054
292.574
477.048
198.836
238.292
-1.6289
228.714
-164.75
-475.993
640.743
35.844
210.354
54.0815
-558.896
571.524
-508.96
791.27
-278.541
-512.73
-289.092
-164.253
37.7219
270.788
0.753931
-231.135
-253.809
-335.463
-471.008
6.41065
186.923
-193.334
295.119
268.488
193.731
-792.636
768.442
24.1939
5.61451
409.501
-449.738
40.2376
285.443
52.8748
5.55273
731.74
-737.292
83.0059
237.764
31.9267
100.584
-293.52
308.691
-15.1706
-887.515
-46.4767
199.776
-117.216
-485.447
602.664
-295.463
808.048
-138.56
-392.513
-105.301
-561.642
142.751
354.566
41.6735
-257.955
-24.6999
197.742
-149.618
2.88573
841.6
45.277
-16.2611
306.222
474.267
-357.753
-116.514
-626.381
266.55
359.831
115.008
173.439
364.226
-348.649
231.95
127.743
287.023
229.907
220.638
18.0504
69.9407
-484.424
414.483
802.775
-252.09
-550.685
181.303
189.248
-370.551
320.316
402.036
254.567
3.57773
-626.294
-305.988
239.612
-889.964
368.206
57.0411
-423.331
65.3682
-633.279
-102.267
249.303
-362.865
350.081
554.394
-568.372
645.23
-76.8582
-13.8479
375.81
412.822
-299.689
-29.9952
167.39
-137.395
-303.449
298.959
-18.9932
622.683
-348.043
-23.3625
378.693
-355.331
61.2301
-185.664
226.144
-40.4802
-244.437
219.511
24.9258
288.374
502.897
172.059
-405.653
396.983
-1045.38
1050.93
98.18
-8.43733
437.624
179.49
-58.2875
416.793
338.713
216.468
24.8559
241.855
366.836
-26.4991
-340.337
-650.503
648.234
2.26958
234.798
200.524
-13.6003
502.677
-432.736
-211.476
765.87
256.305
91.1795
233.208
-361.826
-180.323
26.8523
244.707
717.786
-149.215
-568.571
-834.186
897.364
294.546
337.61
209.328
-202.538
554.115
-992.407
407.902
310.356
277.06
-46.195
450.581
291.573
60.1713
-418.608
358.437
-217.512
299.491
-13.3225
-3.74951
-824.379
694.122
790.447
-195.013
335.369
233.724
100.222
341.616
-20.4495
-321.167
269.812
259.95
281.643
-191.78
90.6713
-275.479
286.145
-10.6661
410.662
-513.956
-257.406
-5.52738
221.995
426.954
-573.745
-278.222
20.2666
435.432
-104.653
-241.796
346.449
-334.324
-192.906
635.056
106.053
426.554
-943.033
516.479
-461.688
418.784
42.9043
-3.73547
255.861
-252.125
325.08
-263.85
259.537
-236.772
-22.7653
263.292
7.04311
-192.707
-846.436
70.4178
312.997
-383.414
-30.7066
719.414
-688.707
324.152
-296.861
-27.2916
-445.713
429.203
268.142
-225.894
-400.024
978.693
-578.668
288.819
-14.2154
199.723
538.965
461.035
-188.739
212.233
10.9578
-223.191
-28.7702
401.212
-593.417
33.5729
559.844
203.366
253.076
-324.53
-20.1592
-352.87
-909.212
859.128
-494.761
1033.73
338.066
-50.3188
241.213
-2.33802
-238.875
489.999
-435.835
66.8938
-718.748
-460.746
-0.942427
-260.486
320.288
-469.545
-499.068
299.668
-18.9354
-280.733
-959.774
439.515
-797.674
158.401
34.4911
-192.892
32.6923
597.406
649.064
-633.983
-295.935
818.25
-87.4176
210.054
370.239
-504.942
134.703
-119.217
350.278
-231.061
-703.478
750.639
-388.678
227.031
-225.529
235.061
-9.53149
-274.802
701.357
315.117
587.056
27.9305
-786.12
-232.99
245.52
-330.847
-64.235
-228.529
240.303
-894.687
979.2
176.855
39.911
-216.767
267.242
-261.186
-93.8803
31.5399
398.847
208.525
-607.372
502.753
-902.777
468.715
-56.8775
-224.09
-5.14344
229.233
-114.572
-195.519
-253.14
58.4562
-164.03
-139.603
303.703
292.077
-265.225
-114.476
-320.08
434.556
282.698
291.052
-17.8474
-294.701
312.549
-691.424
18.7835
845.975
-887.515
921.251
-941.931
930.959
936.818
-936.818
-834.186
-997.985
241.921
-200.248
-240.4
-205.112
-189.346
-4.63087
734.95
-956.631
221.681
-863.258
14.7793
-285.176
195.173
-36.7717
-763.296
791.227
229.631
-7.09685
-222.535
-247.673
256.184
-11.9103
-250.413
262.324
248.682
-14.2017
-234.481
203.309
-230.432
-23.6908
-254.026
277.716
-188.971
201.955
-12.9837
250.913
281.821
-348.393
408.564
108.217
-185.272
77.0552
-359.315
-576.295
-195.12
208.603
-13.483
-420.079
-84.1708
504.25
196.768
-176.981
44.0852
203.187
-26.3312
-349.882
233.36
449.659
-99.5784
199.006
456
-46.4994
315.219
-376.351
61.1317
19.3494
-634.565
667.258
262.248
-462.526
-783.842
730.331
53.5105
480.828
497.865
52.3299
397.329
-232.326
250.253
-73.1789
-710.663
242.661
-325.064
691.576
-872.01
315.715
-704.995
389.281
131.708
263.812
-205.773
-58.0395
-46.1002
-389.1
-867.168
592.366
-3.28531
262.584
3.26903
-311.737
308.468
18.8502
-41.7714
236.826
281.755
-37.0477
185.113
-58.1634
-126.95
738.289
20.6779
273.142
306.352
6.83484
184.033
-226.322
42.2887
235.085
-302.114
299.019
-285.356
-204.036
218.467
-14.4303
74.8755
-494.955
246.311
149.494
-89.9287
824.879
-593.616
399.657
543.921
-631.168
227.045
-319.464
315.767
-434.984
194.908
-297.927
218.761
-196.14
-314.042
222.083
-192.332
-8.94512
201.277
224.016
-317.058
368.394
-266.407
-101.988
-0.67122
484.237
-442.555
-560.344
1002.9
-710.301
630.053
-50.5216
-320.438
370.959
21.3909
49.641
-311.403
307.148
-272.927
-5.29496
203.445
46.9874
-250.433
-188.875
-233.623
-308.047
223.141
-208.726
-14.4152
-311.737
-412.406
412.406
188.721
-659.124
175.978
154.264
308.468
727.528
-235.027
-41.6388
-646.064
687.703
522.078
-81.0713
237.478
-366.061
317.137
381.693
245.195
4.56687
232.29
-172.307
-59.9827
-39.4506
-686.741
686.741
-173.997
-389.423
-98.1165
-138.536
206.553
20.2681
-156.48
227.031
-424.178
480.31
-185.442
-198.671
694.481
-487.567
-206.914
-137.189
-112.342
502.573
-143.758
-77.0084
-29.2619
-486.806
516.068
-500.299
-287.537
508.924
-13.6046
-26.3793
-705.584
540.834
-458.558
-65.838
767.568
19.6642
232.723
-113.07
773.879
-660.809
87.8781
803.576
683.25
826.476
153.371
-215.921
-388.439
-72.3067
-239.44
249.611
-212.511
50.0886
-203.856
-896.989
41.1769
855.812
31.0842
404.98
809.927
-265.541
249.218
16.3233
1066.41
-542.393
-524.013
-169.551
8.33452
474.658
203.771
-37.0552
298.752
247.676
431.547
-772.067
956.361
-184.294
-368.355
7.97814
233.17
19.1728
665.151
-78.8608
-222.126
-205.455
-226.217
204.596
92.3873
635.14
690.264
-731.903
92.2049
-795.683
23.3316
654.314
752.361
-849.692
97.3311
-627.624
536.396
91.2285
627.41
-563.698
-63.7123
-447.134
522.01
47.948
-122.45
-113.729
236.178
159.154
305.37
-583.368
398.97
191.64
-191.64
-200.828
220.1
-879.28
436.725
-651.02
533.803
-555.264
855.082
-945.01
24.4343
-238.505
206.706
-204.259
-210.824
-248.537
24.0597
358.032
37.2085
343.234
-353.925
-358.351
29.8805
393.352
-665.69
-55.3445
-726.838
782.183
206.191
-290.431
55.5427
149.285
-260.913
-623.588
656.209
-177.993
-90.3232
8.29794
529.118
121.59
-312.257
-17.9225
-455.127
957.88
863.871
-863.871
334.304
44.3898
14.5373
462.465
-761.621
17.8139
649.291
17.967
80.4716
417.683
-498.154
216.852
304.184
-4.13144
9.48297
671.968
19.2278
-798.767
616.682
195.922
302.945
-498.867
-808.485
529.944
211.37
-409.407
22.6005
-650.068
-191.646
-39.8924
231.538
-121.183
229.944
-108.762
15.6883
45.8809
357.448
42.3309
-205.769
17.3685
-234.907
514.408
657.988
61.426
12.4914
117.79
-125.536
-175.419
198.524
388.572
-498.738
-707.896
-64.1706
-202.589
-467.175
-475.858
-274.078
-360.722
624.992
-515.297
6.83856
798.014
-804.853
318.298
50.0967
394.452
-60.1488
614.209
-51.0753
-563.133
313.64
-14.2441
-569.538
-91.6325
661.171
-10.1529
-222.734
-582.751
400.952
-175.109
-42.0637
217.172
228.599
611.279
66.1975
-209.449
-122.982
25.4759
206.138
-546.362
638.749
195.611
4.11232
-200.335
399.086
-198.751