/*--------------------------------*- C++ -*----------------------------------*\
  =========                 |
  \\      /  F ield         | OpenFOAM: The Open Source CFD Toolbox
   \\    /   O peration     | Website:  https://openfoam.org
    \\  /    A nd           | Version:  7
     \\/     M anipulation  |
\*---------------------------------------------------------------------------*/
FoamFile
{
    version     2.0;
    format      ascii;
    class       volScalarField;
    location    "19";
    object      p;
}
// * * * * * * * * * * * * * * * * * * * * * * * * * * * * * * * * * * * * * //

dimensions      [0 2 -2 0 0 0 0];

internalField   nonuniform List<scalar> 
19930
(
0.000738071
-0.00406331
0.00573984
-6.62009e-05
-0.00325962
-0.00360823
-0.0898459
0.428027
-0.0406385
0.407616
-0.0837671
0.107463
-0.0280542
0.000600081
-0.00138057
-7.14358e-05
-0.0774961
0.25129
-0.0586843
-0.00328783
-0.0371513
0.117531
0.399987
-0.106828
0.00382082
0.922294
-0.00052305
-0.025786
-0.13259
-0.0600395
-0.000524759
1.15161
0.285604
-0.0139338
-0.00067629
-0.000666412
0.473747
8.38315e-05
-0.00289811
0.201645
0.0120377
0.37995
0.703608
-0.000652528
0.926259
-0.0114902
0.396255
0.0111878
9.02854e-05
-0.0261009
-0.000712614
0.0419414
-0.0839971
-0.00142341
-0.10552
-0.0199993
-0.0183594
-0.00085371
-0.0173356
-0.0738871
1.0221
-0.00963164
-0.00260897
0.36004
0.000254274
-0.00357049
0.905282
-0.00375599
-0.0039031
0.911508
-0.00297051
-0.0974832
-0.0012675
-0.0198821
0.919734
-0.0184359
0.895869
-0.0206742
0.200707
0.833147
-0.00315565
-0.00158449
-0.130072
-0.0377386
-0.00885077
0.713013
-0.0237018
1.29452
0.365068
0.990234
0.347957
-0.000144214
-0.000133126
1.22915
-0.00498275
-0.00214714
1.24369
-0.00152902
-0.072416
0.5299
1.00356
-0.00943958
1.03408
-0.0508463
0.0941368
-0.011253
0.793132
-0.0231677
-0.00324716
0.705716
-0.14165
-0.0898312
-0.0147949
0.00316571
-0.0117343
-2.13481e-05
0.659691
-0.00301415
-0.0681383
0.817177
-0.000138761
-0.0408571
0.214103
-0.0221861
-0.0138877
0.251935
0.190368
-0.0249401
1.17104
0.681644
-0.031402
-0.024629
0.0122284
-0.00210767
0.811612
0.0823018
0.0483423
-0.0399083
-0.00754918
-0.0496663
-0.0442331
-0.0217205
-0.114654
1.05117
0.0419405
0.823565
0.25979
-0.010574
0.176058
-0.00056656
-0.00967639
0.895984
-0.00011708
-0.0327891
-0.00150864
0.259209
0.732199
-0.112642
-0.0214493
-0.0297034
-0.117021
-0.0815361
-0.000675829
0.0526791
0.159048
1.27966
-0.0085877
-0.119116
-0.0184278
0.469298
0.0407863
0.947375
0.621632
-0.0131035
1.33586
0.266213
0.000230731
0.990562
-0.00786047
0.746095
0.841789
8.22083e-05
1.05526
0.642429
-0.00307156
-0.0231911
-0.00158421
0.499907
-0.0524016
1.18025
0.201034
-0.0352831
0.547083
0.00597144
-0.022457
0.11594
1.04603
-0.00840663
-0.00361526
1.19836
0.0665422
-0.0923115
-0.0713251
1.1498
1.08554
-0.0194968
-0.0156163
0.0439108
-0.0198697
0.000483539
0.893193
0.984079
-0.0124436
-0.0270381
0.734418
0.918753
0.000954748
0.816893
-0.0149776
-0.000916003
-0.0233938
0.743395
1.0966
0.355791
0.706064
-0.00861533
-0.014365
-2.38502e-05
0.000844937
-0.00254726
0.211541
-0.0503506
0.780789
-0.0485245
0.744154
-0.0223557
-0.0056706
0.93822
1.25765
0.731341
0.885841
-0.026314
0.424043
-0.0205644
0.104765
-0.00259924
-0.13098
0.0174475
0.043404
9.19183e-05
-0.00311365
1.11073
0.186888
-0.00399839
-0.0317214
-0.0482832
-0.10417
0.4066
-0.0466609
-0.00976301
-0.0294733
-0.0120087
0.00029639
-0.021608
-0.077627
1.04756
-0.0286308
-0.0135556
0.755401
1.07704
-0.0234289
-0.000386813
-0.0344347
0.906689
-0.140422
1.01351
-3.42134e-05
-0.0287787
0.670687
0.887732
-0.0238464
-0.0167081
1.16595
-0.0695324
-0.0370075
1.02375
1.16938
-0.0256412
0.677876
0.125592
0.822191
0.597873
-0.000383373
-0.0416381
0.492629
0.000263922
-0.058749
0.0177695
-0.146473
0.062149
0.041317
-8.17662e-05
-0.00108109
0.981886
-0.00428324
-0.0718548
-0.0336272
0.133896
-0.0094194
0.732587
0.0867466
-0.0314398
-0.0226583
0.439823
0.14194
-7.74804e-05
0.993311
0.684377
0.979134
-0.0938551
0.000266551
1.15362
-0.0017256
-0.0213927
0.125804
0.00398771
-0.0253109
-0.0799982
0.739287
1.22901
0.851359
0.144832
1.35506
-4.42852e-05
-0.0123745
0.888377
-0.114084
0.491882
-0.0185487
0.915196
0.0883494
-0.00112669
0.0868556
0.656473
-0.107274
1.04397
0.594938
8.65454e-05
0.00606726
0.326096
0.270907
0.00171965
0.621133
-0.0149643
1.33275
-0.0437281
-0.0116217
-0.00354731
0.837211
0.633952
-0.0112864
0.447127
0.988675
-0.00447286
0.630173
0.713558
1.33984
-0.00131442
0.19454
0.0134853
-0.0232328
0.000134773
0.932892
0.37374
-0.0124635
0.93184
0.162582
-0.0180396
0.416059
0.164223
0.198692
1.33637
-0.0352454
0.103767
0.977555
-0.0322943
0.100935
-0.0736256
0.318745
-0.00459042
0.372572
-0.0124393
0.101228
-0.00166058
0.404967
0.967348
0.638375
-0.132166
-0.0110684
1.13309
1.13934
-0.00247042
-0.0271127
0.804529
-0.0670923
-0.0125557
0.419627
-0.00435018
1.39584
-0.0178659
0.214969
-0.00438904
0.976784
0.586115
0.0486479
-0.0208438
-0.0340421
0.0686266
-0.0016272
0.810445
-0.101378
0.387753
1.31401
-0.10086
-0.0112228
-0.00273684
0.0144089
-0.020683
-0.0144517
0.487595
-0.000546328
-0.0233418
-0.00103061
-0.0563905
-0.0202691
6.80822e-05
-0.0300672
0.10212
-0.118854
-0.016713
-0.0208639
0.0317857
0.0543983
-0.0281973
-0.0178925
-0.00176498
-0.00475419
-0.0742116
-0.000253748
-0.0195352
0.154315
0.627109
0.0575832
0.000128519
1.20105
-0.000116536
-0.000560071
0.0107323
-0.0255497
-0.0338959
1.07438
-0.0144258
0.134461
-0.0623484
-0.0672215
0.410311
-0.0213211
-0.0347734
-0.0554957
0.00010458
-0.0432403
1.22897
-0.100885
-0.0326004
0.495951
-0.0272717
0.59752
0.167022
-0.00189157
0.000482799
0.701334
1.29504
-0.106063
0.234308
0.0811007
-0.0261305
-0.0271936
0.799307
0.0779749
-0.127525
-0.0695883
-0.00786431
0.0266402
1.13023
0.184439
-9.21258e-05
1.04011
-0.0153635
-0.0373659
0.647268
-0.00191781
-0.00433947
1.65698e-05
-0.00317802
-0.0161883
-2.7325e-05
0.219508
-0.138995
0.819217
0.000295197
-0.00148685
-0.0281321
-1.15703e-05
-0.109573
-0.125946
-0.00152155
-0.0302754
-0.0243569
0.64785
0.947325
-0.00147228
-0.000821794
-0.0471899
0.971424
-0.0107039
0.989697
-0.00724701
1.31566
0.656308
0.295569
1.26045
-0.0917551
-0.00166414
0.0148357
-0.00938581
0.940741
0.798332
-0.00982048
-0.122366
0.0893511
-0.0205629
-0.000191817
-0.131919
-3.75067e-05
0.669725
-0.0214781
-0.0301344
-0.0118737
-0.0232625
0.231721
0.069011
0.000628353
-0.0116514
-1.9438e-05
1.31283
1.11526
-4.99647e-06
-0.011008
0.000215407
0.791681
-0.0255525
0.0747842
-0.0301659
0.86925
0.284421
-0.017542
1.38089
0.0212784
0.829515
-0.00588672
-0.0782886
1.03801
-0.011476
1.31706
0.749346
1.33961
-0.00169134
-0.00142994
-0.0379804
0.0263707
-0.00160125
-0.0325554
0.843277
0.88155
0.646397
0.959056
1.30192
0.301978
0.96959
0.644461
-0.0048249
0.716598
-0.033318
-0.0298029
-0.000261336
-0.0217173
-0.0861635
0.482621
0.0566956
0.831996
-0.0193418
0.11831
0.79061
-0.00890152
-0.0200404
-3.43344e-05
-0.000269028
0.485184
-0.033268
-0.0265004
-0.000309984
-0.000942865
0.0794281
0.000165
-0.00318253
1.31523
0.255279
0.369328
-0.0106818
0.755767
0.0249324
-0.00981157
-0.011152
-0.00103928
4.5864e-05
-0.00175534
-0.0118761
-0.078304
0.433506
-0.000502461
-0.0150329
-5.83051e-06
0.875433
-0.0579516
-0.106324
-0.0112575
0.0616818
-0.026851
-0.0127077
0.791683
1.17823
0.537267
-0.00606441
0.565212
-0.0101143
-0.0230117
0.318925
-9.84019e-05
-0.0136087
0.201343
0.310224
-0.0171479
0.773987
1.07976
0.7639
-0.026398
-0.0202376
-0.00938282
0.169906
0.715182
-0.00019767
1.03409
-0.0220472
-0.0797908
0.0284662
1.22377
0.422297
0.811839
-0.130525
1.26987
-0.0155974
-0.0222054
1.35146
0.0386336
-0.0661028
0.81727
0.872318
-0.0222699
0.70247
0.968875
0.866292
0.70461
0.839488
0.618107
-0.00363647
-0.0158186
-0.00220251
-0.0697833
0.96575
-0.0647185
0.14743
0.213446
-0.0285697
0.00969138
0.174082
0.988941
0.0210075
-0.00119093
0.0310427
-0.0262202
-0.0738338
-0.0919614
-0.0733263
0.694987
1.01236
0.0416689
0.979368
1.30499
0.00111995
-0.000879936
-0.00217323
-0.00864654
0.505222
1.31709
0.190471
0.744024
-0.0133056
0.530047
0.539553
-0.121292
-0.0166868
-0.0270241
0.135445
-0.0135653
0.00941954
-0.025011
-0.0299798
0.79213
-0.00120792
-0.0175768
0.86659
0.00730601
1.16491
-0.0401218
0.637411
-0.088003
-0.0333814
1.02753
1.16865
0.964257
-0.0141824
1.18381
-0.0242303
1.01182
0.016572
0.954498
-0.0251831
-7.97637e-05
0.960156
1.02705
1.00877
0.961862
0.498655
0.11138
0.553926
-0.0661583
0.96184
0.770669
-0.0371522
0.0602055
-0.00385783
-0.09249
0.757314
-0.0257704
-0.0111238
0.989071
0.975989
-0.0295681
0.936933
-0.0824394
0.0695132
-0.000148801
1.0004
1.02445
1.3038
0.983075
0.000313945
-0.0143208
-0.000241836
-0.0363653
1.15801
0.318632
0.71864
-0.0283809
0.647096
0.00201308
1.16236
-0.0339864
0.98562
-0.000341448
1.1215
1.19616
-0.0149211
0.125412
1.11189
0.000474871
1.22648
-0.0189946
0.000623958
-0.0168072
0.840493
0.232646
-0.0511766
0.926364
1.23035
0.545707
0.0227943
-0.0302248
0.00799546
0.971013
1.19023
1.36611
0.317894
-0.00318271
-0.00639879
0.747019
-0.00251285
-0.00371526
-0.00320581
-0.0130175
-0.0749725
-0.106674
1.05117
-0.0130634
-0.000196726
0.740771
0.251362
-0.00405812
0.119023
-0.000865431
0.249468
0.772465
0.948718
-0.0957649
0.166824
-0.00580876
-0.0311253
-0.000431154
0.980323
1.06382
-0.131531
-0.121599
-0.108063
-0.0336683
0.940568
-0.0252417
-0.070611
-0.0886086
-0.0163351
1.26186
-0.101985
-0.00063261
0.995138
-0.000384887
0.0965021
-0.0192231
-0.0807007
5.76844e-06
-0.0011061
1.25441
0.610839
-0.129344
-0.0618379
0.619512
0.919768
0.76187
-0.0751644
-0.0253409
-0.020792
-0.0242212
0.707438
-0.00998411
-0.0300421
0.00010681
-0.0151693
0.000192251
-0.0860501
0.849489
-0.0696789
0.975325
0.943396
-0.0286116
-0.0148667
1.29336
0.639635
0.0291884
-0.0166138
0.535094
-0.0278151
0.51387
1.25543
0.376949
-0.00978597
-0.0186415
0.847419
-0.0301731
-0.0626797
-0.0317322
1.09161
-0.0221761
-0.0484374
0.51841
0.293016
0.751636
-0.0192119
0.36036
-0.0299723
0.991137
-0.0909412
0.147224
-0.0323148
-0.0343833
-0.000181967
0.000209864
-0.000581837
1.08787
-0.0425191
0.579701
0.0582614
-0.0424582
-0.0685722
0.328582
1.30351
1.13265
-0.0546037
0.28665
-0.014
0.0222283
-0.00981552
0.219643
-0.0272954
-0.0022379
0.715268
-0.0349453
0.000116824
1.07948
0.779086
1.00137
0.0249736
-0.0800839
-0.0116367
0.328199
-0.00520317
-0.00012924
1.10452
0.0731466
0.254965
-0.0485762
0.000111243
-0.0101603
-0.000902706
0.224096
-0.000606475
-0.0193461
-0.00929238
-0.0265137
1.14999
8.49019e-06
-0.0349238
-0.0209058
1.19928
0.00316948
-1.54495e-05
-0.0911306
0.234882
0.68286
-0.0140373
-0.0128988
-0.0205661
0.726857
-0.0177128
0.31886
-0.105249
-0.101833
0.158998
0.591788
0.130521
0.262047
0.000158114
0.761813
1.21234
-0.00829023
0.481215
-0.0431792
1.24662
1.18262
-0.072293
0.0224783
-0.0183991
0.577333
-0.000350515
0.958735
1.33305
-0.00130982
0.127769
0.297907
-0.00124794
-0.000496669
-0.0103061
1.30649
-0.0120504
-0.0369832
0.957902
-0.00383874
0.556082
0.998563
-0.020188
1.11745
-0.0251917
-0.0155776
1.01089
0.330454
0.74942
0.000242238
0.997152
0.19745
0.949588
-0.0599096
-0.00948876
0.139139
1.10761
1.0129
1.13521
0.976243
-0.086808
-0.0188295
-0.0157403
0.635563
0.953231
1.20693
-0.0249572
0.480236
1.23076
0.862289
-0.00120549
-0.0251024
-0.0098449
0.150705
-0.0377438
1.06504
0.392642
0.949465
0.164879
-0.0208264
0.956601
-0.046961
0.684841
-0.0757885
0.0310596
-0.0132792
-0.0690978
-0.0552414
1.19237
-0.0513
-0.0230175
-0.0511671
0.282642
0.0490672
-0.0212969
0.0546338
-0.00849922
-0.0614913
0.694186
0.340133
0.797596
-0.1168
1.00223
-0.0646277
-0.000869286
-0.0110577
-0.0126501
-0.0976184
-0.110918
-0.00389607
0.324085
1.14371
0.176215
0.0697364
-0.028856
-0.0583116
0.464609
-0.0206155
1.24367
0.34838
-0.00144053
-0.017162
0.0125458
-0.0626151
-0.0187545
-0.0231945
-0.00803285
-0.0838071
0.318347
1.17149
1.04723
0.239086
0.000366167
-0.0240198
0.000330745
-0.0102515
0.733311
1.84508e-05
0.67253
-0.0601179
-0.0137406
1.1535
1.18642
-0.00102453
0.969415
1.03511
0.134186
-0.0115298
0.259044
0.731592
1.18356
0.536795
-0.0621707
1.14843
0.134597
-0.0339409
-0.0382576
-0.072695
1.22021
-0.0162242
0.992922
0.380279
1.12837
-0.0288595
0.614438
0.544036
-0.0741084
1.01799
-0.00583212
1.09869
-0.000444483
0.440939
0.692343
0.607032
-0.00257644
-0.025494
-0.00215065
-0.0272205
0.470927
-0.0192914
0.561018
0.435977
1.31709
-0.00795725
1.10732
-0.00838681
-0.00825294
0.0173037
0.965202
0.0821678
-0.044015
0.0697623
0.740578
-0.0053573
1.2833
-0.00318739
-0.0563636
0.0284738
-0.0123253
0.982483
-0.0389968
1.05425
0.780786
0.190608
0.0427993
0.171662
-0.00106926
0.031032
1.07024
-0.0348024
-0.0351367
0.389868
0.046557
0.0103456
0.0412996
-0.0082412
1.14711
-0.0214699
0.01785
-0.0621981
-0.0272405
0.943834
1.32284
-0.0192724
-0.0621759
-0.000974014
0.118766
-0.000990869
0.13105
1.1924
1.1256
-0.0119331
0.250975
-0.000357997
-0.0277934
0.776212
-0.0102671
0.351353
-0.0151906
1.28934
0.704008
-0.0730146
-0.0125447
-0.0286154
1.28549
-0.0239861
-0.00106313
-0.00480663
0.163337
-0.0662854
-0.0111981
0.0972796
1.14774
-0.0856768
1.23439
1.36987
-0.0200165
-0.0356655
-0.000724108
6.55012e-05
-0.0375825
-0.031937
1.26989
-0.0138197
0.000278683
0.688302
-0.0531041
0.767334
-0.00050241
-0.0597688
0.684928
0.711435
-0.0705387
-0.0211034
-0.0579685
0.891617
-0.0229221
0.424537
-0.0270273
-0.0107974
-0.0265822
-0.00928741
-0.00399538
-0.08688
-0.0831483
-0.0979552
0.00132529
0.134397
-0.000899946
-0.0240466
-0.0598928
-0.0155598
-0.0254613
1.15294
0.0537466
-0.0253682
-0.0143605
0.862319
9.06102e-05
0.724899
-0.0549511
-0.00519639
2.53612e-05
0.751653
0.444302
-0.0295701
-0.0291553
-0.0312413
0.533192
-0.000438843
0.704538
0.844262
-0.00863626
-0.0359695
0.171499
0.201829
-0.0578019
0.121058
0.769968
-0.0135608
0.663845
-0.0303608
0.0113986
0.622782
1.18842
0.0228817
-0.0047308
0.939637
0.510734
-0.0163532
-0.0373498
-0.0986538
0.0181017
-0.0139383
-0.00285322
0.855612
-0.108888
-0.0434993
0.834223
-0.0565613
-0.0253084
0.270611
-0.000799669
0.226942
0.69059
-0.0120648
0.589225
-0.0121475
1.12699
-0.0630861
-0.000445912
9.57615e-05
-0.0313837
-0.000748071
-0.0132694
0.220184
-0.0391067
-0.00434092
-0.0287932
-0.0152556
0.297003
0.98306
0.000219137
-0.0118905
-0.00952957
0.581624
-0.0573187
-0.016306
-0.0143053
0.108679
0.298989
-0.0128865
-0.00536865
-0.0662652
0.754182
0.794501
0.099353
0.714537
1.02092
-0.0108155
0.617842
0.205031
0.0205388
-0.0143678
0.00341259
1.3372
-0.0105922
-0.0701472
-0.0249452
0.714643
-0.00645187
-0.00214122
-0.0254356
-0.0289799
-0.000987026
0.986472
0.357895
0.560435
0.856005
0.723921
-0.00492737
0.245369
0.544813
-0.00066274
0.956911
0.266042
0.346994
4.65399e-06
0.515679
-0.0386203
0.235347
0.418469
-0.0814868
0.140804
0.098797
-0.0189698
-0.00346052
-0.0167906
0.204294
1.16893
0.193889
-0.000119337
0.466167
-0.012338
0.389485
0.294896
-0.00618681
-0.0204401
0.52354
0.953004
0.110012
-0.02616
-0.0146088
0.348808
0.659215
-0.022449
0.834375
-0.0169941
0.230064
-0.00519639
1.0705
-0.000653195
-0.000944232
-0.00315923
-0.0144894
-0.0806656
-0.0058536
0.585812
0.805133
0.000192207
0.360255
0.000144432
-0.00596694
1.58063e-05
0.32737
-0.0100791
0.288799
2.73534e-05
0.67901
-0.0191495
0.81743
-0.112981
0.905108
-0.0254082
-0.00648755
0.000432183
0.965085
-0.0275413
0.0348101
0.177988
0.00178462
0.80381
-0.00599956
-0.00929059
-0.0146397
-0.00141641
0.993829
-0.00331779
-0.0156512
-0.0130604
-5.12148e-05
-0.00653094
0.832423
-0.000629121
-0.0252137
-0.00326072
-0.0017731
0.747805
-0.13306
0.0545738
-0.0385337
-0.00115646
-0.0116405
-0.0731605
-0.0140543
-0.00112004
-0.0059631
0.398963
-0.000429135
-0.0109244
-0.0656148
0.195361
0.922799
-0.00447716
-0.000550981
-0.019938
-0.0276657
0.645545
0.802673
1.00077
3.69046e-05
0.264388
-0.0228406
-0.019692
0.32832
-0.0208088
-0.00576383
-0.00593702
-0.00785031
-0.0138776
-0.013336
-0.00698029
-0.00236741
0.0103647
0.676657
0.00252902
0.472701
0.119142
0.0725254
0.368171
0.226775
0.56801
0.0300684
0.504321
-0.00105959
-0.0141454
0.460804
-0.034916
0.733766
0.689957
-0.0182327
-0.0229502
-0.000426898
-0.013934
-0.037008
-0.00803351
-0.00777782
-0.0111445
-0.00666097
-0.0167483
-0.0218677
-0.00632574
-0.00365045
-0.0294789
0.568793
-0.0152041
-0.000128355
-0.0213661
-0.00419245
-0.0184016
0.810296
0.789069
0.287489
1.06831
-0.00786032
-0.0412717
-0.0151153
-0.00280604
-0.00409382
-5.93374e-05
2.27649e-05
0.26914
0.0826386
-4.42593e-05
-0.0822484
0.171156
0.348933
-0.0399281
-0.00609968
-0.00827269
-0.00363439
-0.000967775
-0.00226722
-0.0182207
-0.0328471
1.11739
-0.00297072
-0.0317578
-0.0139911
-0.0231602
-0.00435977
-0.00548564
-0.000952655
-0.00587206
-0.0179005
-0.0163031
-0.0368365
0.0413881
-0.00902515
0.348246
-0.0131205
-0.000487329
-0.039908
0.729085
0.761852
0.53684
0.01482
-0.0875895
-0.0291494
-0.0980489
-0.0275233
-0.0973963
-0.0231876
-0.0926002
-0.000986964
-0.00914197
-2.55607e-05
0.0977525
-0.00077412
0.000421464
-0.012883
1.17947
-0.0185355
-0.0925877
1.09547
1.13435
-0.00789762
1.10556
1.02992
0.670316
-0.00375203
-0.125654
1.13667
0.00034407
-0.000413176
-0.00889242
-0.0139136
-0.00421002
-0.0180391
-0.0137477
-0.0144215
-0.0114769
-0.0188258
0.000374976
-0.0391004
-0.00522712
1.2865
-0.00838195
-0.00556173
1.27916
-0.00224916
1.20296
1.12055
0.665142
-0.00694472
1.28772
0.0838824
0.881932
0.00167631
-0.000654341
-0.00860988
-0.0164195
0.0622725
0.9744
-0.000387782
-0.000699836
-0.0140262
-7.33506e-05
-0.134911
0.340979
-1.0457e-05
0.718424
-0.0408097
-0.00363866
-0.0247537
-0.00705447
0.110609
-0.00286933
1.1358
-0.000912962
1.03189
0.000862706
-0.0177803
9.37899e-05
-0.0176769
-0.00956905
-0.0170126
0.876542
0.957056
2.96048e-05
1.13888
-0.0244678
-0.00213787
-0.0225024
1.04483
-0.121616
0.000208066
-0.000466582
-0.00128657
-0.000864992
0.000132267
-0.0011063
1.15112
0.000219039
-0.000674255
-0.0162721
1.24697
1.37102
-0.000183164
-0.02752
0.73421
1.26341
-0.0301703
-0.0131764
-3.00592e-05
0.0160637
0.996426
0.726922
-0.00111372
-0.00883648
-0.0231339
1.06783
-0.0775433
-0.0127193
-0.00968138
-0.00741434
-0.0216092
0.787211
9.92108e-05
1.09617
-0.000983444
1.21665
-0.00143491
1.12292
-0.00756809
0.0887504
-0.0195052
4.60742e-05
-0.000700357
-0.00509002
-0.0107326
-0.00954135
-0.000807911
-0.00257662
-0.000236412
-0.0226522
-0.000841443
-0.00807568
-0.00781823
-0.00207687
0.143805
-0.000837594
0.720701
-0.0131411
-0.0125594
-0.0031729
-0.102303
1.26752
-0.00667362
-0.00623118
-0.00708147
-0.0252046
-0.00760245
0.643063
0.782836
-7.54468e-05
-0.00667532
-0.0491981
0.185431
1.09269
-0.0208257
0.653878
0.83118
2.88303e-05
-0.0303637
-0.00729147
-0.00103192
0.000435231
0.000100686
-0.000838736
-0.00185672
-0.00423699
6.22931e-05
-0.0180692
0.00674782
0.215793
-0.0667284
0.702994
0.0603171
-0.0798185
4.04224e-05
-0.000663789
0.971253
-0.00168105
-0.024329
0.000141947
-0.0184724
-0.0102292
0.522505
0.0812558
1.16114
-0.000588537
-0.00138307
-0.0143716
0.251217
-0.000648074
1.09411
0.0627672
-0.00959111
-0.00243225
-0.0550119
0.00680476
0.617454
0.0477286
0.999574
-0.0238036
-0.000213121
-0.00144684
-0.00752697
-0.000246218
-0.000421885
-0.000830925
-0.0117223
-0.0007514
-0.0213828
3.14392e-05
-0.0228581
-0.0669375
-2.9127e-05
0.000124524
-0.000819407
-0.000635891
-0.00025116
-0.00599613
0.0263986
-0.000825793
0.071315
-0.00461955
0.74293
-0.0185572
-0.0507804
1.4015e-05
-0.0481887
-0.0318764
-0.0168615
-0.00422349
3.20981e-05
-0.00344553
5.73117e-05
-0.0550032
-0.0228186
0.142105
-0.0973315
-0.00060559
0.0716398
-0.0919253
0.785371
0.508704
0.63121
0.000293382
-0.00230908
0.000150936
-0.00134136
1.01675
0.669519
-0.00229811
-0.00369077
0.440418
0.687964
1.17831
-0.000518329
-0.00135763
-0.0079529
-1.83295e-05
-0.000524794
5.89277e-05
-0.00331645
-0.00271171
0.738715
-0.0213966
-0.000890037
0.00113357
-0.00103868
-0.0445154
-0.000292688
0.263478
-0.00115318
0.221797
-0.0288076
-0.0175557
0.162486
0.0971187
-0.00049427
0.215943
1.08631
-0.02522
0.772111
-0.0164314
-0.000981256
0.857627
-0.00203621
0.571569
-0.000689762
-0.0237769
-0.0586016
-0.00183533
-0.0074634
-0.000898826
-0.000282333
0.0199687
4.78021e-05
-0.00707017
-0.0144174
1.11197
-0.0203604
-0.00103313
0.719753
1.4459e-05
-0.00067742
-0.0090146
-0.00139404
1.07562
-0.000262128
-0.000785415
-0.00835674
0.121634
-0.0241402
-0.000817676
0.00040513
0.0333173
-0.000758079
-0.000577969
0.942176
1.23846
-0.00191023
-0.003104
-0.0018785
0.792895
-0.00032548
-0.000465021
-2.36918e-05
2.30949e-05
-0.0543584
-0.00127706
-0.000788745
-0.109008
-0.00112691
-0.0547688
0.000353882
-0.000363978
0.00177538
0.871161
0.927848
-0.00866727
0.485384
0.0562548
6.8078e-05
0.701025
-0.00817767
-0.000891552
-0.00137929
-0.0625463
-0.000470736
0.000924899
2.89579e-05
-0.028942
0.155741
-0.0100739
-0.00787583
0.0936217
0.502058
0.155904
-6.3891e-05
-6.8978e-07
-0.00478585
0.24605
-0.00428145
-0.064888
0.000181508
0.690509
-0.122189
0.871375
0.380949
-0.00326344
0.24645
3.94742e-05
0.731125
-0.00713074
-0.0253915
-3.76609e-05
-0.000783348
-0.0018106
-0.0026152
-0.00159682
-0.00472794
0.192581
-4.47062e-05
0.350479
-0.000800733
-0.000596834
0.000110817
0.0363256
-0.00131301
-0.00351756
-4.64618e-05
-0.00271093
0.286354
-0.00576108
-0.00368953
-0.00381509
0.0813635
-0.00422645
-0.000597852
-0.000670479
0.821787
0.905865
0.97133
-0.000512104
0.91708
0.805501
0.920274
8.44744e-05
0.000232769
-0.000490975
0.328239
0.577661
-0.0760274
-0.0261863
-0.00828181
-0.00972222
0.0694625
-0.00157666
0.000253192
0.633865
-0.000959043
-0.00209578
0.000158683
-0.00207756
0.929853
-0.0300412
-0.000821104
3.02604e-05
1.04415
0.754235
-0.0237712
0.223952
-0.0014936
-0.0314942
-0.00264054
-0.0393747
-0.0456095
-0.0472075
0.203714
-0.00474444
0.0970768
-0.000357894
0.890076
-0.0187395
-0.00706084
0.652212
0.00715968
-0.00925049
-0.00875694
-0.0762344
0.201591
-0.00776567
0.000314834
0.668434
-0.000538717
-0.0107399
0.0655237
-0.000367836
-8.32611e-05
-0.000876357
-0.0165158
-0.00640197
0.0529909
0.000168319
0.0410552
-0.0184305
0.0323867
0.0246646
-0.0052981
-0.00887343
0.0189641
-0.0138006
-0.00221115
-0.00113606
0.474992
-0.00260578
0.000284942
2.24807e-06
-0.0165306
-0.0331842
-9.17103e-05
0.387179
0.838709
-0.0150669
-0.00850592
-0.00543567
0.000179866
0.00016992
-0.00819922
0.000339103
0.056758
-0.000288707
0.00343506
-0.0170524
-0.00698116
-0.000739986
-0.000222065
0.41822
-0.000132921
0.073955
0.538457
-0.0193154
-0.028044
-0.0064243
0.000161513
0.0592027
-0.0156062
-0.00907661
0.0428425
0.182872
-4.18801e-05
0.0292526
0.293238
-0.000181032
0.175063
-0.0072559
-0.0160422
0.657936
-0.00188152
-0.000255012
-0.000437229
0.48693
-0.115845
-0.0222824
-0.00904817
-0.00533226
0.000443247
-0.010424
-0.0117777
0.14706
0.992834
1.14819
0.728024
-0.000159127
0.419859
0.129063
-0.00896473
-0.00930063
0.434858
-0.0193449
-0.138981
-0.00024337
-0.00818742
0.569306
1.47993e-05
-0.0621534
-0.0062585
-0.0316966
-0.000615504
0.723231
-0.023339
0.680317
-0.0112972
-0.00411957
-0.00735671
0.000298851
0.624366
-0.0111965
-0.000153252
-1.88877e-05
-0.0741998
0.025089
0.161427
-0.00870536
-0.000989771
0.261485
1.70307e-06
0.396544
0.140903
-0.000653711
0.435148
-0.0471228
-0.000169477
-0.00835814
0.000465104
-0.000972821
-0.00848279
0.450335
-0.0222356
-0.00121074
-0.0476387
-0.00447955
0.590195
0.913848
-0.000557327
-0.0122754
0.000357268
-0.00434052
0.546988
0.00504595
-0.000753038
0.359652
0.0926686
0.746003
-0.00990442
-0.000706822
0.38795
-0.00536815
-0.0134738
0.00967531
1.01053
-0.0348674
-0.00978053
-0.000877289
-0.00421947
1.00079
-0.0205905
1.19807
0.253867
-0.00712447
0.000577437
-0.024616
-0.0295317
-0.000263023
-0.0106904
0.980682
-2.35587e-05
-0.0216111
1.00164
0.000438054
-0.0115306
-0.00030073
0.00016116
-0.000306667
0.0417438
-0.00862805
0.000307171
-0.0824522
-0.000492342
-0.00025666
-0.000202621
-3.62777e-05
-0.026914
-0.000233985
0.00072231
-0.0217844
-0.0183859
1.19058
0.0613891
-0.00861933
0.000606605
-3.88297e-05
-0.0110903
-0.000161306
0.185111
0.64492
-9.18005e-05
-0.0233895
-0.00881737
0.102709
-0.00252218
1.26747
-0.00120396
0.000755951
0.43049
0.00135744
-0.000260813
-0.0219803
0.708297
0.000518913
0.60828
0.73022
-0.0121185
-0.0232964
0.890316
-0.01011
0.000843832
-0.0224242
0.324889
0.185347
-0.0296205
-0.000115541
0.948439
0.000646804
0.00529044
0.000799699
0.00088285
1.11452
-0.00169125
-0.00014285
-0.012399
0.296223
1.2033
0.699681
1.28791
-0.00181304
1.10053
-0.000133205
0.503531
0.00098317
0.000203588
0.255961
-0.0169412
0.162713
-0.000347571
-0.0303917
1.21631
-0.0168648
-0.033492
-0.00179698
0.000741829
0.153064
-0.00132883
-0.0191968
-0.000244774
-0.0224625
0.000131637
1.23197
-0.00719243
-0.0119829
0.113217
-0.0796227
0.2499
0.555079
-0.000340887
-0.0854809
0.34506
0.768923
1.26863
1.62763e-05
-0.0912189
-0.0826856
0.000807179
0.396044
0.448983
-0.0890102
1.01181
0.184466
0.256742
-0.00681807
0.665204
-0.0148458
-0.000613307
-0.000143808
-0.000274124
0.000469152
-0.00140859
-0.00891784
-0.000126155
-0.000753106
0.000389391
5.566e-05
0.358631
-0.0364539
-1.97803e-06
1.22621
-0.000513965
-0.00011756
0.905185
1.26974
-0.0204864
-0.0129806
0.88144
-0.00314992
1.08168
0.0938194
-7.92836e-05
-0.055238
-0.0262196
-0.00217592
-0.000673652
0.588301
-4.93662e-05
-0.000376607
1.02663
0.000490662
-0.00200349
-0.0390482
-0.00916241
-0.0134264
-0.000410928
0.0714011
-0.0136118
-0.00024603
-0.015142
0.000516894
0.471738
3.57786e-05
-6.9533e-06
0.000485253
0.985723
-0.00327622
-0.000507503
-0.000465176
-0.0014575
0.944593
0.00213772
0.160676
0.877586
0.000336799
1.13189
0.815864
-0.000381308
-0.0553067
-0.000491996
-0.00829912
1.08278
-0.00240343
0.000583959
-0.000167635
-0.0157341
0.000784696
0.000618448
-0.000470117
1.11879
-0.000161897
0.742911
-0.0179049
-0.0601228
-0.000178029
-0.0419075
-0.00179011
0.916051
0.939744
0.110399
-0.00115398
-0.0337924
-0.0558504
0.242352
0.155331
0.347322
-0.0738156
-0.045434
-0.0177011
-0.00016949
-0.000928062
0.000712853
-0.00196828
-0.00137218
-0.00165865
-0.00122035
0.000522879
-0.0106594
-0.00396297
-0.0016625
-0.0157698
-0.000394416
-0.0023821
-0.000229618
1.379
0.149373
-0.00351679
-0.00254158
-0.00288993
-0.000179083
-0.000491745
-0.00237191
-0.00195741
-0.0295227
-0.000123189
-0.0177943
-0.000778687
0.000733972
-0.000351367
-0.0162357
-0.0301667
-0.00292399
0.985815
-0.0129371
0.714313
-0.0325252
1.05087
-0.0247404
-0.0268094
-0.0282009
-0.0292906
-0.0297012
-0.0313749
-0.031656
-0.000316019
-0.0325519
-0.0320751
0.928502
-0.0339454
-0.0287707
-0.0333355
-0.000575659
-0.0559253
-0.0081409
-0.000176925
-0.00459035
-0.000111576
-0.000974017
0.0348529
0.000801119
0.170809
0.783504
-0.00644949
-0.00104744
-0.0136312
-0.00276081
-0.00418918
-0.0078114
-0.0119122
0.000153478
1.24908
-0.00514821
-0.0137621
-0.00567269
0.000811668
-0.00364362
-0.00085028
-0.0237504
-0.00499137
-0.000194805
-0.00166615
0.0205453
-0.000225517
-0.00024918
-0.00646845
0.0150109
-0.000343397
-0.00114703
-0.000591307
-0.000203143
-0.000466452
-0.00189582
-0.000411778
-8.8017e-05
-0.00150315
-0.000121121
0.90728
2.75723e-05
-0.000189908
0.000949631
-0.00184595
-0.000411279
-0.00044379
0.357381
-0.0075346
0.761905
-0.00242033
-3.82761e-05
-0.000216191
0.682253
-0.0577224
-0.000414752
-0.000193125
-8.32794e-05
-0.0052753
-0.00193112
-0.0607273
7.448e-05
-0.0295295
7.61792e-05
-6.77018e-05
-0.000121352
-0.00296477
-0.0011896
-0.039298
0.8828
-0.0335259
-0.0041813
-0.000116585
-5.66039e-05
-0.0191709
-0.000218986
-0.00775754
-0.000488062
-0.000284958
-0.000641993
-0.00883936
-0.00527982
-0.0889798
0.000104647
-0.000199021
-0.0108418
0.000122755
-0.00360297
-0.00136735
-0.00112388
-2.19179e-05
1.0931
0.000129745
1.29977
-0.00826036
-0.00191162
0.000632901
-0.000211734
-0.000289013
0.00146166
-0.000442016
-0.053815
-0.000484712
-0.105805
-0.00442167
0.000178721
-0.000272448
-0.00350104
1.10094
-0.00039615
-0.0193365
-0.00032215
0.865925
-0.0319436
-0.0518243
-0.000279101
-0.085463
-0.00267999
-0.0985615
-0.0187958
-0.000342587
-0.00121874
1.18619
-0.0487136
-0.00294698
-0.00222787
-0.000126252
0.738568
0.863346
-0.000119407
0.000525771
0.436397
-0.000318141
-0.00599367
-9.19088e-05
-0.000619885
-0.0263909
-0.0217968
-0.102184
0.00682273
-0.00107921
-0.000288027
-0.000252849
-0.0425238
-0.0157104
0.445756
-0.00880522
-0.000150828
0.791598
-0.00582623
-0.000570896
-0.0333499
-0.00203967
-0.00133475
-0.000334091
-0.00657241
-0.00126832
-0.01507
-0.000281131
-0.00091325
0.455045
-0.00601604
0.420445
1.03084
-0.00324278
-0.00494619
-0.0658202
-0.00637739
1.20657
0.000228171
5.69908e-05
-0.0001557
0.643619
1.11259
0.262134
0.00186142
-0.0228369
-0.000271926
-0.0135419
-0.000693405
-0.000923222
-0.00377588
0.67241
-0.0206323
-0.000487034
-0.00189153
-0.00158876
0.0975896
0.66846
-0.0184444
-0.0104122
-0.00185378
-0.000803308
-0.000391505
1.06723
-0.00139906
0.000280893
4.08225e-05
0.000820213
-0.0122752
0.111067
-0.00692327
-0.00739649
-0.0193071
9.80573e-05
0.00112486
0.501856
-0.0182382
-2.286e-05
-0.000541905
0.706589
-0.00226789
0.13634
0.886793
-0.000765367
-0.000168854
0.108788
0.464376
0.221645
0.349483
-0.0339694
0.000105406
-0.000522113
0.649813
-0.00485085
-0.00173195
-0.0306278
-0.00923607
-0.0536899
-0.0209669
-0.00274683
-0.000551691
0.596939
-0.00205636
-0.0169177
0.935204
-0.016695
0.866022
5.46825e-05
-0.015207
0.810742
1.2122
-0.00802906
-0.00636973
-0.00797134
-7.12076e-06
-0.00390235
0.776791
-0.00161177
-0.023022
-0.00322543
-6.90462e-05
-0.000979379
-0.00222899
6.9247e-05
0.495968
8.63919e-05
-0.00692386
-0.00156834
-0.000637592
-7.13049e-05
0.258752
0.601626
-0.0236672
-0.0261155
-0.0284149
3.81004e-05
-0.00105918
0.000105625
-0.0277653
-0.0294117
0.381049
0.737772
-0.0304813
0.315592
-0.00470789
-0.0412185
-0.00473185
-0.0306159
0.275401
0.200582
-0.0318296
0.000833874
0.787503
0.409659
-0.00410774
-0.000337598
0.000325537
1.08681
-0.000943596
-0.0002701
-0.00190721
-0.00024477
-0.000153366
-0.00113419
-0.000335344
5.2795e-05
0.193329
-0.0334844
-0.000285548
-0.0177266
-0.0210277
-0.00570039
-0.0209603
-0.0236672
-0.000122698
0.000819576
-0.00225709
-0.0140173
0.721594
-0.000630861
-0.00274397
0.00374348
-0.000172926
1.03072
0.664589
-0.0217889
-0.000841613
-0.00128137
-0.00112916