/*--------------------------------*- C++ -*----------------------------------*\
  =========                 |
  \\      /  F ield         | OpenFOAM: The Open Source CFD Toolbox
   \\    /   O peration     | Website:  https://openfoam.org
    \\  /    A nd           | Version:  7
     \\/     M anipulation  |
\*---------------------------------------------------------------------------*/
FoamFile
{
    version     2.0;
    format      ascii;
    class       surfaceScalarField;
    location    "19";
    object      phi;
}
// * * * * * * * * * * * * * * * * * * * * * * * * * * * * * * * * * * * * * //

dimensions      [0 3 -1 0 0 0 0];

internalField   nonuniform List<scalar> 
29574
(
587.839
-435.286
-152.553
270.617
43.0606
-313.678
944.811
-1134.92
190.11
-395.217
994.371
-599.155
-632.646
670.959
-38.3132
-687.353
54.7071
214.38
-37.8869
-176.493
634.846
-487.278
-147.568
209.62
-288.489
78.8683
91.8334
543.012
-82.8511
254.94
-172.089
-287.504
289.229
-1.72425
-233.832
-19.1804
253.013
34.612
553.227
621.207
-650.16
28.9526
-965.151
569.934
-310.801
350.454
-39.6533
-90.0776
-1019.62
1109.7
-256.726
230.821
25.9053
305.088
-34.4705
-302.464
293.541
8.92296
-30.4343
-257.07
-489.952
581.786
261.354
-316.85
55.496
944.811
-356.196
67.2552
288.94
891.528
-975.631
84.1024
339.804
-147.922
-191.881
-158.454
-105.096
263.55
-110.384
-146.343
-592.323
740.885
-148.563
333.842
-278.889
-54.9526
401.389
-88.9147
-312.474
556
-292.995
-263.005
-717.154
780.48
-63.3269
-731.166
138.844
155.566
-386.703
231.138
932.31
-932.31
784.24
-345.495
-438.745
274.398
445.065
-719.463
2.34529
798.843
-801.188
-317.266
102.126
215.14
-883.843
722.816
161.027
973.215
-81.6872
-106.864
-249.331
116.168
72.3899
-188.558
1135.82
-486.472
-649.345
336.563
-242.446
-94.1167
842.847
-30.4375
-812.41
239.047
-229.8
-9.24705
-787.825
70.6715
46.3421
-753.206
706.864
-292.371
-128.229
420.6
763.019
-835.678
72.659
171.471
-388.04
216.569
15.3616
-209.92
194.559
381.009
-110.655
-270.354
694.76
-751.424
56.6643
-57.7971
-295.082
352.879
-84.4381
-226.363
-646.618
404.664
241.953
-50.1721
244.017
-193.845
479.855
-482.464
2.6096
-207.078
-364.043
571.121
-697.555
828.015
-130.461
-715.399
107.516
607.883
538.793
-570.705
31.9118
-650.827
-64.5719
-172.224
-355.274
527.499
-116.654
-97.0188
213.673
361.176
-552.072
190.897
328.117
-225.021
-103.097
675.341
-54.1341
-272.44
-35.6725
308.113
1063.68
-566.251
-497.432
-77.526
471.099
-393.573
336.452
-115.252
-221.2
-226.306
15.4049
210.901
923.622
-649.224
590.553
-833.224
242.671
633.038
-525.521
816.891
-194.563
-622.328
295.227
-101.934
-193.293
296.425
-86.8046
133.685
-183.857
-623.687
-260.155
238.84
-282.09
43.2505
-33.4755
136.861
-103.385
-671.988
464.91
121.042
-304.712
183.67
-433.737
715.602
-281.866
739.016
148.783
-887.8
904.499
-130.176
-774.323
172.09
-281.713
109.623
199.717
136.846
424.216
55.6389
248.145
-76.0552
-779.364
789.822
-10.4577
-320.32
237.468
1024.03
-921.945
-102.084
279.402
-158.361
406.158
-417.243
11.0849
161.505
136.701
-298.207
457.17
-182.728
-274.442
1227.73
-1227.73
470.923
36.099
-507.022
-17.9119
257.944
-240.032
-476.58
241.762
234.819
264.898
8.93317
-273.831
-288.518
-66.3228
354.84
45.5103
-203.965
179.406
34.9733
396.281
-110.572
-285.71
-263.599
-401.415
665.014
-566.891
489.365
-568.662
-431.43
-407.869
-162.37
570.239
576.797
56.2408
-312.992
1.38382
311.608
-1028.41
236.894
791.518
-170.788
909.804
51.2349
257.589
-308.824
376.021
-622.49
246.468
234.821
-361.951
127.13
130.324
425.675
785.53
-875.608
13.9842
223.377
-237.362
182.211
157.593
240.522
93.3201
120.661
-528.53
-28.4422
-151.635
180.078
20.6685
218.379
855.291
-852.945
291.43
492.81
120.961
-361.73
240.77
265.562
962.164
298.948
-73.7967
-225.151
-277.658
-24.8058
-406.728
35.7182
371.01
103.228
63.4631
-166.691
289.944
-238.71
30.2312
-302.671
180.216
147.902
-301.575
192.713
108.863
-571.706
93.2559
478.45
-125.682
246.642
-303.161
86.5535
216.607
-94.5533
-223.416
317.969
8.32044
307.784
-316.105
-764.178
-211.452
127.565
-222.118
219.798
971.752
-67.2533
-230.779
-49.8784
280.658
151.266
665.625
-284.596
-18.5651
-752.465
128.778
76.1574
185.196
69.055
-160.117
91.0623
-11.6914
-222.141
-170.509
341.98
-235.377
197.49
-36.4061
-403.184
-168.521
-200.122
-670.807
870.929
-144.909
111.434
346.243
59.9149
270.026
25.2011
437.588
33.5118
-355.739
511.305
352.613
-53.6658
-170.095
-148.344
318.44
9.03064
-221.717
212.686
400.004
-442.849
42.8447
96.897
94.5006
-191.398
46.1146
355.274
-571.541
509.069
62.4718
-533.298
-33.241
566.539
-438.053
-128.838
-7.90054
221.964
-214.064
57.6641
-227.634
169.97
735.537
196.772
342.69
39.5999
-382.29
-72.8813
216.523
-143.642
266.905
38.1825
227.576
-124.118
-103.458
584.489
-223.313
29.329
994.7
144.177
210.569
117.606
-328.175
292.416
-278.432
244.839
-390.389
145.55
71.2194
-993.164
-593.861
421.637
218.165
-149.11
-44.543
307.624
-263.081
92.4609
250.229
-54.0451
318.574
-264.529
324.983
-58.0778
-5.92237
216.492
257.7
-394.081
136.381
-92.6815
327.366
-234.684
-475.099
148.781
-336.369
187.589
268.407
-380.536
112.129
-313.935
285.773
28.162
-7.64445
-328.424
336.068
771.6
-725.258
198.226
-182.864
619.472
-634.759
15.2866
414.831
123.962
-851.221
510.258
340.963
-39.1751
304.498
-265.323
-86.959
-150.778
237.737
-296.418
557.471
506.212
513.643
-513.643
-534.547
-493.866
-260.993
-215.587
898.523
-607.094
0.873434
264.205
-265.079
-165.182
-274.342
439.525
68.671
162.506
-231.177
522.584
-956.321
-347.589
281.267
-12.7724
-393.956
352.893
-360.537
-1068.66
499.997
-485.042
485.042
-641.708
-6.13139
647.839
651.904
-275.883
291.139
130.401
-421.54
-330.007
312.096
-217.874
204.831
13.043
-552.865
840.777
-287.912
306.656
-67.8164
565.384
-94.4602
-414.138
244.043
180.731
67.4138
-658.021
492.839
243.178
-358.43
87.8883
-174.847
267.532
112.758
-380.29
351.993
-117.173
-984.208
-243.518
622.479
-45.6823
-80.5282
280.339
-199.811
544.263
-467.776
-76.4871
-77.4269
769.141
-691.714
-53.2104
896.058
263.202
1.69621
-115.344
184.015
-90.9126
563.311
-472.398
-542.124
196.629
-167.043
12.229
154.814
-129.605
420.743
-46.5233
225.032
-178.508
-73.6457
-243.62
193.042
-89.8135
-77.2361
193.404
18.6279
-248.319
229.691
33.6644
457.119
-490.783
710.312
49.3849
-759.697
287.316
19.3404
-76.5176
-158.859
-140.07
43.6336
239.929
-283.563
35.0315
361.25
209.755
-762.621
308.007
-195.06
-87.0301
122.547
-820.672
698.124
65.6454
-399.323
-171.382
-291.247
210.932
80.315
-331.936
-314.682
567.755
-999.185
238.425
-50.7255
-187.7
-55.6581
256.705
-201.047
-1040.35
348.721
691.634
-44.9111
376.835
-331.924
324.812
56.1966
-239.368
88.4744
150.894
355.84
-105.179
-250.66
383.419
-138.58
-162.23
298.932
266.387
-214.241
142.575
-198.233
-108.375
613.265
-504.89
754.208
-163.655
-119.449
-367.762
487.211
854.044
-731.496
259.983
-216.35
-31.9551
-323.784
-536.929
75.8077
86.0211
-161.829
363.238
-88.3547
-274.883
-87.6663
184.035
-96.3683
392.463
-134.763
-117.561
-350.659
468.22
7.63263
843.968
-851.601
-776.647
804.058
-27.4113
-243.374
51.5902
191.784
-754.235
440.632
313.603
52.9543
-163.338
1.19561
174.653
-175.849
-295.348
264.913
6.13944
-230.322
224.183
246.116
-24.1519
177.311
-543.538
366.228
230.024
-211.397
-40.2424
-186.063
-65.4883
576.793
359.166
-78.8321
-280.334
-733.888
741.52
-464.058
362.215
101.843
460.444
-339.783
483.815
-854.153
370.338
-290.106
-97.9333
-726.482
28.9279
-179.244
-60.1241
-645.956
631.682
14.2744
-180.439
351.44
-171.001
314.623
309.193
263.195
-168.867
-94.3275
263.158
-262.29
-490.175
-197.543
-84.1703
273.187
-206.995
-66.1922
-558.593
17.1785
541.415
172.832
-75.9348
1006.27
-1006.27
433.669
-502.568
-537.787
154.687
190.672
-345.359
-488.469
456.514
-331.776
296.103
-328.064
415.041
167.023
-582.063
50.548
712.471
557.781
-142.74
435.753
-598.123
100.784
209.07
-309.854
-207.613
-213.284
420.897
310.633
77.2659
-387.898
-297.328
-544.675
842.004
491.068
-754.667
376.897
29.5507
-406.447
-1019.62
417.582
96.0617
285.701
-276.67
301.691
-359.488
-12.0294
122.657
-110.627
12.2861
-262.591
-254.091
11.7827
242.308
249.609
23.5774
315.481
-388.362
226.571
-92.8868
-552.766
-197.335
-107.377
-390.893
-363.342
-972.879
-182.252
1155.13
-498.221
962.802
-464.581
-130.247
-3.89877
134.145
-668.739
636.863
31.8762
-245.023
375.321
-130.298
243.769
300.495
2.25838
-212.179
873.905
-912.442
38.5367
433.749
-118.467
220.593
-375.21
164.632
210.578
-255.041
68.0155
187.025
-493.682
-64.9116
134.813
-245.467
354.497
-86.9649
-1109.46
909.334
-555.231
464.318
-97.8148
210.8
-112.985
-70.09
381.994
-311.904
379.292
-355.469
-23.823
-367.405
45.212
-212.255
-311.323
687.194
-375.871
-65.9687
-254.351
-91.2233
468.12
4.41752
192.116
-196.533
933.287
202.53
-359.455
-15.7542
169.38
209.912
-372.976
-456.162
829.138
-862.23
375.758
432.722
-949.283
516.561
99.7926
-438.056
338.263
-275.562
187.896
-11.134
468.253
-136.335
-200.034
-427.183
148.294
616.164
6.31536
25.2133
213.212
438.063
-80.9356
-357.127
-105.608
-88.6207
194.229
127.331
229.601
-303.247
9.11093
-107.512
-40.9643
148.476
-384.625
-16.7431
401.368
-27.3477
325.988
-298.641
-103.458
494.286
-390.828
-421.431
386.509
-75.876
-898.826
821.399
355.371
-319.272
-69.7101
-320.679
-72.9601
-321.121
-655.604
-123.76
-534.078
294.881
239.197
-289.187
64.1668
-128.975
124.831
37.2593
189.553
410.74
-600.293
29.2516
-289.332
46.8855
26.871
291.703
150.822
-261.394
-55.2082
-283.765
338.973
-810.755
796.287
14.4677
232.832
-252.749
19.917
362.676
535.848
272.097
-377.276
-18.6649
305.981
-724.587
694.149
290.061
-210.872
-79.1885
295.178
12.4457
-174.778
-163.361
-313.072
476.434
-215.028
-98.9068
299.845
-388.2
437.84
-555.401
118.408
77.9195
-196.327
206.01
-128.301
-77.7088
277.938
-650.914
154.865
-510.139
242.164
-94.6668
-147.497
47.7578
-811.936
-429.536
307.229
-386.061
-590.628
690.421
-499.386
96.2013
368.311
-665.64
121.545
-236.314
114.769
-849.431
897.189
-30.2745
-7.34793
806.191
-219.91
217.098
2.81181
-310.944
197.715
113.228
-241.929
-138.607
-55.4788
424.636
-369.157
549.491
-657.867
42.9852
-226.517
183.532
171.883
-128.898
342.359
83.8881
-264.327
172.14
20.9014
-142.067
766.79
107.115
-445.753
171.311
-216.766
179.218
37.5484
191.741
-238.264
-1.89107
192.145
-190.254
-349.342
294.134
-223.826
-13.8865
237.712
-544.014
424.565
207.079
-198.759
-581.006
-64.9501
614.772
4.70069
-311.473
-217.057
176.703
-88.6706
-88.0323
-116.881
-95.7637
212.645
174.672
-237.3
62.6276
-43.9864
289.913
-245.927
-226.168
214.704
11.4639
-196.785
-29.3829
351.485
86.5772
981.411
-715.849
-276.712
-307.095
241.126
190.738
32.9788
-223.716
-978.445
801.62
176.825
-367.616
170.633
196.983
-501.597
-146.239
647.835
-158.943
-806.208
-11.1131
-287.093
-466.896
450.152
-95.9438
-215
257
-0.294162
657.805
-100.844
-556.96
347.528
-450.986
-159.217
756.289
-597.072
-226.948
-207.501
434.449
-286.708
270.826
15.8822
5.94101
-68.045
242.717
-112.27
-178.977
-528.44
-5.63842
-16.1704
-90.7949
-744.883
39.3689
-432.256
-212.396
95.515
-276.479
171.383
699.027
256.533
-306.412
163.813
63.7631
-332.105
-0.132582
332.238
-266.647
11.6058
-37.0572
-996.814
778.547
218.267
-22.5913
227.423
-90.2249
273.895
494.068
-523.09
29.022
-301.31
-162.748
-361.667
397.385
-45.2669
137.142
-91.8748
996.984
-821.251
-175.733
44.1206
-573.183
529.062
-26.715
-126.733
153.448
-155.548
-133.639
487.565
-63.3493
-254.161
497.93
-558.537
120.167
438.369
-207.337
274.593
520.088
-386.396
-133.692
294.8
8.40973
-303.21
-276.229
195.701
668.205
-100.964
-567.241
430.535
-240.982
-433.058
389.366
43.6919
266.971
13.368
-286.934
-45.1714
-180.43
56.3112
201.582
-500.466
65.108
435.358
-261.106
261.98
-389.546
362.198
-322.075
-67.4607
-417.582
-455.7
400.221
-530.6
1001.8
-471.201
-118.839
73.5722
-175.825
-191.791
488.172
-50.1704
-438.002
-17.2885
-299.663
316.951
-502.404
561.034
-58.63
439.152
203.949
-100.377
-103.572
196.635
-240.622
199.802
-201.693
-311.97
104.975
462.591
-418.47
-10.8632
-275.845
65.3198
-901.281
901.281
123.928
3.82105
420.597
-424.418
-162.217
181.335
-19.1179
-510.786
303.173
-423.622
67.2274
356.394
56.019
120.684
-509.199
402.58
106.619
-206.181
436.613
50.9516
307.994
41.9383
-349.933
336.71
-79.1207
-420.85
-46.9259
115.68
-356.553
286.463
338.67
-249.882
-88.7883
-34.086
145.677
-111.591
-972.879
-297.562
-188.712
84.9733
103.739
-335.915
247.001
-425.099
-524.184
248.498
557.027
-805.525
-145.789
-530.94
676.729
-479.806
168.333
-21.0276
193.168
214.993
-15.1913
-657.395
640.593
16.8021
78.35
352.185
286.861
-69.5004
-217.361
-102.852
-556.333
659.184
-574.632
811.538
-236.906
-596.33
56.9116
-801.487
203.905
597.581
-985.983
433.855
552.127
-286.587
-271.949
-118.162
473.533
-968.588
437.988
-675.539
814.391
-138.852
648.037
-750.889
-210.201
251.558
-230.89
124.326
-799.865
-164.313
-694.334
858.647
670.635
-2.42999
501.221
326.794
-90.773
290.49
-91.9609
88.0621
-150.746
218.508
-582.552
254.184
-226.949
-27.2351
-125.038
343.058
-218.02
-170.08
-119.251
522.519
-28.4505
-291.786
274.497
13.1873
623.675
-703.892
-650.726
-254.048
-246.418
36.7557
218.184
27.5205
475.78
-503.301
-380.735
343.812
36.9231
-140.848
156.253
561.612
440.188
-377.166
-172.218
549.384
171.45
-255.888
-104.277
284.492
-69.9994
-353.622
180.882
-254.679
-233.972
312.322
202.27
-129.88
-445.775
-540.208
-289.973
-11.158
301.131
-330.532
192.626
137.907
-173.671
178.089
-239.48
-91.0521
225.192
-219.052
251.173
-282.377
31.2037
313.44
-87.2854
-226.155
-805.233
646.289
-312.525
-325.211
80.188
-317.744
347.295
274.91
-80.2412
519.393
183.212
-20.7055
268.733
556.72
-825.453
-194.697
165.779
40.2312
-570.835
407.474
-971.8
300.993
317.532
-815.752
-473.14
-72.9943
546.134
-527.244
449.696
77.5483
283.624
-207.11
44.8934
-641.04
386.879
-38.2788
159.824
-351.535
379.055
139.052
-525.448
-121.792
-36.6877
217.419
-7.24908
278.075
270.514
-80.3875
174.888
768.607
0.533926
295.361
-278.334
-17.0267
-272.478
-89.2523
-92.1724
-33.1106
265.943
712.82
249.982
56.0394
217.855
342.054
-98.8763
-67.9068
314.987
-247.08
-454.168
86.4061
494.804
-230.545
-264.26
289.205
-296.454
-16.942
-673.95
690.892
224.837
-827.696
460.291
-234.506
74.6611
-354.995
-123.132
-390.948
514.08
-124.774
137.003
244.746
-335.519
324.716
-16.9323
-868.693
335.395
87.2602
-362.144
-726.099
-520.777
-457.669
239.126
101.871
-352.532
227.785
-332.062
160.581
81.583
150.737
-222.858
72.1208
-508.519
157.86
501.094
-922.525
-149.133
60.4628
458.243
26.7992
-574.767
-422.046
18.1828
-599.189
-3.58245
298.383
-103.6
409.641
-306.041
-106.707
-84.6905
150.307
-225.735
-70.6828
-343.903
378.934
-258.601
-56.9386
315.539
-67.6963
260.322
-282.78
-260.358
242.349
18.0092
43.832
-248.397
323.058
368.919
-63.0676
-317.668
-20.9827
235.686
205.423
-28.112
-177.311
-89.2379
-466.729
53.8244
412.904
-291.963
-132.432
424.395
181.779
-215.865
332.006
-242.966
63.7221
-197.597
-119.6
317.197
814.732
329.656
-38.124
-211.441
249.565
-22.8182
-504.426
-289.973
-732.836
343.195
389.641
4.37081
-297.366
-9.6049
250.127
-13.1881
230.286
280.829
-332.569
51.7396
-461.683
-132.178
-544.072
182.372
361.7
211.77
25.9423
237.864
343.382
-613.181
269.8
240.676
-412.397
171.72
-359.565
406.293
-664.956
258.664
982.518
-953.189
-766.299
454.976
-444.866
-116.007
560.872
170.637
124.724
-311.135
577.909
-409.688
-168.221
383.172
-211.723
-825.107
250.475
250.587
244.217
-236.39
80.8419
400.615
-88.5198
179.933
-182.377
2.44409
232.522
11.4954
577.568
-610.809
-503.951
174.928
329.023
75.8201
-361.08
-128.545
489.625
86.6678
388.833
-207.951
265.049
59.9336
-457.526
156.216
310.554
110.812
-421.366
118.583
-216.398
-187.335
-229.193
-206.093
-362.244
18.3413
-28.5117
-628.883
-34.3024
230.626
-196.323
-302.018
185.64
116.378
-383.672
-120.236
503.908
-272.375
-75.2146
189.567
15.8563
-342.13
82.0848
183.26
77.8096
-261.07
-266.397
-138.581
404.978
-367.598
-291.403
271.604
19.7996
114.429
-344.127
229.698
163.436
-233.184
69.748
-37.4317
-120.608
-282.665
403.272
-368.333
231.998
211.499
-440.692
-250.548
107.553
142.995
-462.688
149.616
35.0602
-440.077
405.017
-197.185
-63.1729
181.592
421.894
-348.543
-73.3504
-208.398
203.485
4.91343
-264.422
124.542
139.88
-79.318
-137.448
-326.297
-116.132
917.753
-216.728
-31.5916
270.981
-479.672
316.924
108.74
-309.181
200.441
-396.408
-142.982
539.39
-471.63
-215.723
219.816
-29.0786
275.578
689.923
-706.865
-49.1308
-272.409
321.54
81.9592
-711.205
629.246
208.449
94.7891
-303.238
302.792
-112.12
-237.877
226.764
-363.397
-46.6353
410.033
-710.568
39.2736
671.294
-497.667
-160.354
-95.9539
-293.592
522.591
-40.8464
-774.506
-19.6949
794.201
-203.944
556.438
-352.494
-210.718
479.451
150.649
-511.73
319.948
-110.878
121.986
441.324
-426.079
429.9
-320.525
-144.196
464.722
-523.668
50.5277
318.203
44.0123
22.1018
-259.979
260.576
-71.0409
-189.535
-105.329
-108.393
296.289
-82.2003
-274.352
48.7911
225.801
-299.831
-97.7388
397.57
-277.322
343.296
-65.974
-81.3557
273.097
-333.162
-136.534
469.696
-233.479
103.394
130.085
-132.815
-50.2624
55.663
-650.874
595.211
-181.048
-252.01
-299.949
-243.59
-334.961
-94.5743
-210.264
-77.1031
287.367
415.178
639.745
171.624
-228.844
57.2193
162.679
527.741
223.267
37.3096
175.913
-252.878
76.965
-399.103
-144.911
-527.868
-96.919
360.077
-180.559
315.907
-32.2829
653.647
-160.808
-4.62859
229.82
-242.534
277.462
-34.9278
713.58
0.903506
288.302
-601.87
492.3
109.57
219.875
66.9857
205.356
-40.8656
218.622
-325.999
78.9397
-328.271
18.2088
-355.093
359.283
-4.18985
83.9192
-187.305
171.135
47.3698
-320.519
320.342
0.177208
288.235
-345.173
247.573
-17.8821
-366.514
-121.955
-64.4346
279.575
12.0057
242.178
303.168
4.9445
-387.767
-118.864
506.631
-78.9646
-150.835
-196.928
-29.5894
57.8471
250.16
260.549
-293.66
313.462
-61.1079
-255.355
284.226
-28.8707
-1061.66
717.472
344.186
-421.128
129.165
325.452
9.90323
-335.355
-65.646
352.109
565.921
-177.333
-33.0158
210.349
-70.5813
-224.766
-262.394
-60.687
323.081
-285.87
-58.7003
344.57
-69.9748
-510.054
-91.8156
-797.92
785.557
12.3626
36.1627
248.214
-284.377
42.3458
315.873
-186.031
471.97
-285.939
-232.081
-75.0133
-474.895
103.41
-210.117
185.941
-246.065
-314.946
-110.652
425.599
-118.749
462.679
-343.931
-381.859
-85.0363
-234.109
-101.41
2.19981
-433.306
-121.924
-201.504
683.792
14.9745
647.917
-662.891
-197.859
46.2237
228.988
-814.149
585.162
148.371
-390.3
303.727
-45.7831
92.0676
-1017.41
-221.775
-110.287
439.528
-5.85933
-516.644
-390.964
-116.058
-657.424
205.477
-397.644
192.167
-6.67657
296.59
-337.334
-92.5535
429.888
-16.0409
-278.997
295.038
829.998
-116.419
-491.571
480.437
-59.3722
-715.133
-91.6421
453.841
-846.758
783.431
297.242
-472.297
402.298
-93.0336
-117.839
163.3
176.6
-339.901
-438.246
-245.744
183.854
19.2111
-203.065
-208.701
914.103
30.7078
-992.002
559.745
-211.555
-99.3401
310.895
747.6
37.9304
357.354
-76.0871
373.685
-355.344
-402.127
407.895
-5.76759
328.14
-325.655
-2.48479
362.301
-86.7231
-17.3514
-428.139
-145.044
-221.19
-124.169
-197.463
-112.391
-607.09
812.286
-205.196
-237.871
-1.60917
-216.808
-433.288
-462.175
412.005
79.5474
-305.283
-95.5615
-125.408
220.969
-43.3793
389.479
-346.1
351.814
-57.6793
217.681
-67.9981
-149.683
98.611
-225.344
134.558
131.828
309.184
-100.736
-328.226
-90.5459
227.392
564.42
-139.855
26.26
-773.581
747.321
-272.545
110.146
-190.534
-30.1151
-75.9845
340.898
58.0852
771.855
-699.196
856.408
-110.849
-745.558
377.655
-75.2491
-302.406
102.771
-215.756
-92.5624
508.21
-415.648
-229.043
-59.4454
23.3429
-734.548
448.413
-78.7362
-290.78
286.441
4.33894
-212.115
-44.1454
256.261
203.709
25.5061
-229.215
-34.7506
-91.8923
-449.031
-612.627
-427.115
202.327
0.776982
-200.69
-18.3655
243.203
56.2129
-537.484
481.271
-324.381
221.706
-397.531
151.575
-351.609
684.158
-324.872
68.2038
-269.079
200.875
-140.911
305.542
592.145
-156.392
-206.889
-141.808
230.576
904.763
89.9369
-301.131
225.075
46.4996
725.356
-12.0286
191.961
-323.875
-93.3674
394.35
-87.1213
-450.13
-518.384
152.53
365.854
-164.913
-531.231
696.144
-574.901
1008.65
-745.058
137.968
-477.358
-275.316
271.557
111.862
-933.838
57.4892
876.349
-346.822
394.403
-94.5572
-8.70277
361.596
329.162
14.1332
227.185
-197.075
-30.1098
-306.448
97.7474
-193.887
-14.5107
242.974
370.538
-98.4411
663.779
-134.717
286.3
106.163
562.968
-125.128
513.966
-103.226
253.189
-36.2127
-216.977
436.59
-492.05
-336.027
828.077
543.38
-248.498
-292.231
-552.064
80.7099
471.354
309.53
-68.4045
-711.299
677.479
33.8201
523.007
-72.8544
-29.9465
635.221
-605.275
-374.74
287.455
290.886
84.4355
423.864
133.917
-382.031
215.441
-31.9092
357.473
-5.6597
-432.7
-125.926
-49.2884
591.663
323.141
-316.353
-6.78802
-523.282
61.5984
-380.92
-332.07
299.787
50.0619
326.773
-291.619
341.345
-53.8901
-145.88
-271.478
-264.498
-16.7015
281.199
-401.314
-112.33
-34.3708
547.144
-38.0749
-6.12054
474.373
578.487
-26.3542
-161.534
-268.665
325.438
-56.7736
-59.7058
227.158
32.1934
-743.492
-321.579
-235.354
353.504
-390.575
-65.1247
459.835
641.951
214.147
-856.098
-155.374
579.68
-131.267
323.52
-244.643
-78.8774
-75.4296
-595.478
-206.009
31.3276
201.078
128.084
-139.741
209.489
-282.597
-297.067
346.2
-49.1331
222.104
310.952
-429.114
726.251
428.88
-301.746
370.901
-69.1544
-265.15
-468.494
-219.962
837.459
18.9486
411.389
-53.916
-965.448
31.61
390.019
-74.5381
-745.178
-12.2618
-308.417
634.347
206.654
-88.2462
-96.2518
10.2585
295.722
-386.946
-2.59813
389.544
-239.896
-140.394
202.502
-110.928
-474.269
-96.5665
495.926
-88.4525
344.14
-5.01476
-316.106
-105.72
-131.537
-518.857
373.068
-113.003
653.025
-629.682
-273.619
371.086
-97.4669
-235.821
65.7404
281.968
22.5304
-446.709
-475.816
-410.085
973.332
-464.565
-508.767
572.805
-108.487
-516.042
-124.998
-95.1753
18.1368
518.055
-131.175
17.0369
53.2623
177.363
-225.718
-220.035
57.4303
-101.9
553.667
-132.03
-405.046
-340.163
285.211
265.076
0.867284
434.743
-90.6029
-52.882
-148.622
-150.03
-307.216
31.3713
73.9253
-270.853
440.4
-651.852
605.917
-111.827
-494.09
758.875
-726.681
426.105
-72.6013
-250.936
-287.545
39.6969
585.505
-125.67
-758.3
784.56
217.055
-2.47809
-214.576
-144.433
223.98
461.794
-61.5729
611.748
-146.838
-281.128
282.031
-109.979
-78.7326
-210.501
265.506
-55.0051
-98.5542
269.191
298.729
-42.1959
-37.6995
250.493
-473.531
-277.893
271.1
-235.423
-35.677
-423.948
412.425
11.5221
-17.6949
-134.765
304.146
292.84
-298.51
5.6694
-248.607
-85.8487
-13.9267
136.583
-321.517
413.073
-43.035
787.161
-744.126
-507.537
345.201
-34.2485
32.8376
345.845
13.1897
-359.035
7.09962
382.267
225.361
497.456
33.298
500.277
19.1159
355.922
-47.9277
-68.6751
244.588
259.877
55.1105
-871.197
886.171
-302.232
283.996
18.2365
-548.547
249.44
1.05285
797.989
-588.625
-209.364
260.273
-184.423
-75.8497
433.407
228.518
29.2739
493.245
-198.308
617.892
-419.584
94.9723
-51.1994
844.927
-793.727
-422.179
301.571
476.357
198.984
234.954
0.732421
223.6
-185.158
-481.714
666.872
39.3739
208.2
61.2384
-559.985
571.064
-508.592
813.391
-265.391
-548
-285.598
-189.501
67.4776
270.839
0.764584
-225.935
-283.264
-356.564
-505.666
4.22287
185.681
-189.904
291.422
264.381
194.358
-792.487
768.518
23.9693
-22.2779
408.217
-454.623
46.4061
278.69
79.1239
-0.241757
778.162
-777.92
93.9146
231.524
59.9772
85.707
-292.102
305.693
-13.5913
-917.781
-55.0978
196.368
-128.339
-487.032
615.371
-294.56
851.587
-147.84
-394.475
-128.807
-560.886
107.399
382.227
31.7745
-254.987
-26.1408
198.609
-145.346
12.6352
852.945
48.3358
-14.8724
303.174
472.681
-356.913
-115.767
-630.354
238.977
391.377
131.558
164.731
361.318
-356.597
267.808
144.3
281.298
229.652
251.142
33.0837
69.6273
-483.555
413.927
834.151
-240.969
-593.182
167.999
213.311
-381.31
362.967
402.036
248.507
3.80006
-626.313
-305.997
266.8
-889.793
367.917
80.6249
-471.573
78.8042
-635.534
-99.0137
245.87
-359.533
385.159
553.291
-568.207
645.017
-76.8098
-11.5096
372.759
410.89
-344.6
-37.0662
170.267
-133.201
-303.337
295.833
-17.758
658.881
-346.61
-22.635
376.794
-354.159
85.4882
-180.774
252.648
-71.8741
-286.938
233.481
53.4564
274.85
538.541
140.571
-402.923
447.235
-1109.7
1109.46
123.58
-10.071
437.609
165.829
-55.6831
415.159
345.378
215.121
22.6158
287.086
364.716
-25.8568
-338.859
-649.9
648.812
1.0882
231.33
197.175
-11.494
501.709
-432.082
-211.605
764.897
296.911
84.7621
268.758
-367.634
-173.801
26.7551
244.345
774.789
-171.711
-603.077
-881.97
953.189
293.833
370.126
250.557
-240.654
554.122
-992.368
457.724
338.246
324.424
-38.2579
463.176
291.386
59.5027
-416.967
357.464
-216.085
323.543
-13.6079
-23.6882
-824.338
694.163
850.427
-202.39
334.336
277.925
124.189
339.696
-19.998
-319.698
269.415
309.793
291.339
-188.886
88.5089
-273.356
283.081
-9.7254
441.237
-555.712
-249.813
-3.56607
218.687
459.754
-578.618
-276.532
21.5446
463.58
-126.907
-234.74
361.647
-330.928
-187.456
634.636
106.25
426.427
-943.606
517.179
-460.17
418.245
41.9242
-3.06056
253.169
-250.108
347.632
-262.144
259.003
-236.271
-22.7314
314.143
37.8223
-218.596
-849.431
82.8819
351.843
-434.725
-32.2577
722.766
-690.508
322.501
-295.543
-26.9585
-445.669
466.705
319.533
-261.447
-399.986
978.641
-578.655
278.439
-13.8311
197.685
542.84
457.16
-181.257
208.678
12.2649
-220.943
-27.9367
398.947
-593.384
33.5644
559.82
203.39
255.981
-357.391
-41.6817
-382.266
-914.103
862.903
-491.233
1034.07
336.78
-57.1384
238.756
-1.85238
-236.903
488.897
-435.073
54.8587
-705.733
-459.944
-0.225691
-257.474
318.883
-469.486
-499.102
298.263
-18.7511
-279.512
-959.436
424.889
-797.92
156.796
32.9802
-189.776
30.4882
598.757
648.29
-634.015
-279.191
835.912
-72.5854
220.487
374.602
-541.924
167.322
-130.077
353.473
-223.396
-704.028
750.528
-386.626
216.815
-223.75
232.86
-9.11
-275.492
701.919
313.839
633.076
27.7287
-786.029
-231.577
240.67
-350.956
-38.6208
-228.414
240.197
-897.189
981.291
175.544
39.2523
-214.796
263.801
-312.182
-76.1799
6.61056
390.198
210.19
-600.388
502.738
-902.724
515.729
-53.1384
-222.64
-3.32071
225.96
-114.35
-192.865
-300.184
74.0287
-165.677
-136.994
302.503
291.132
-264.377
-116.837
-317.329
434.166
280.96
289.583
-17.53
-293.232
310.762
-691.078
17.1286
855.291
-917.781
982.518
-984.208
962.164
1001.71
-1001.71
-881.97
-1017.41
276.635
-244.86
-242.047
-245.556
-187.524
-2.72946
752.843
-966.176
213.333
-886.171
11.7737
-282.128
192.097
-35.3009
-763.462
791.191
227.776
-6.83041
-220.946
-275.949
259.908
-11.8166
-249.41
261.226
248.088
-14.1705
-233.917
201.654
-228.889
-23.5799
-253.111
276.691
-187.693
200.429
-12.7361
250.307
280.733
-347.48
406.983
105.389
-182.355
76.9658
-388.25
-604.914
-193.91
207.166
-13.2563
-419.602
-84.0397
503.642
194.291
-175.079
41.1947
201.524
-25.9805
-360.389
271.137
506.078
-120.919
209.75
460.403
-52.1865
310.044
-392.585
82.5412
18.5985
-636.435
666.923
263.099
-461.407
-783.714
730.297
53.4178
480.787
497.855
71.2519
434.826
-271.355
264.679
-73.0898
-710.625
235.936
-335.276
721.792
-926.988
341.057
-756.589
415.532
127.868
263.62
-205.587
-58.033
-52.325
-387.728
-868.034
592.541
-2.0606
257.765
3.81551
-307.396
303.58
16.5903
-48.6465
236.007
281.371
-37.0267
185.117
-58.1881
-126.929
738.673
20.2012
272.38
303.16
6.5195
180.098
-227.652
47.5541
233.362
-300.274
296.692
-323.565
-202.876
217.101
-14.2251
74.6201
-494.222
239.877
173.196
-83.8495
836.692
-608.909
440.689
573
-675.084
219.339
-330.217
310.94
-441.017
185.299
-309.468
218.328
-192.821
-326.286
214.166
-190.404
-7.76855
198.172
216.169
-328.56
367.985
-266.058
-101.927
-4.57935
485.85
-442.492
-560.366
1002.86
-749.645
648.68
-50.5201
-320.206
370.726
21.3875
56.4102
-290.88
281.275
-269.613
-6.91895
196.83
60.0423
-256.872
-183.269
-214.375
-294.694
222.905
-208.499
-14.406
-307.396
-408.658
408.658
186.613
-658.243
165.727
176.254
303.58
727.239
-234.938
-41.8871
-645.701
687.589
525.025
-86.656
235.695
-364.785
315.654
391.882
243.443
4.29066
231.777
-171.91
-59.8672
-33.8112
-686.77
686.77
-175.422
-387.42
-92.2298
-117.887
206.3
20.2719
-140.707
208.121
-423.242
478.881
-148.742
-202.867
737.842
-503.8
-234.043
-110.195
-105.561
543.422
-177.194
-110.889
-39.8948
-487.912
527.807
-500.582
-287.243
511.073
-17.8285
-19.7602
-735.599
550.441
-458.027
-65.6401
767.818
19.3428
231.008
-112.948
773.726
-660.777
101.475
863.642
683.199
853.337
148.784
-216.782
-386.75
-73.1939
-235.828
249.45
-226.96
49.4382
-169.268
-897.719
41.3672
856.352
11.9794
392.685
812.669
-262.387
247.07
15.3174
1066.37
-542.373
-524.001
-168.544
4.70139
475.736
202.53
-36.751
270.993
278.39
424.323
-772.038
956.302
-184.264
-345.779
5.61635
232.063
17.8416
665.95
-84.6047
-217.628
-168.086
-241.999
207.715
92.2999
634.939
689.954
-731.841
91.5389
-795.567
22.8705
654.608
752.256
-849.586
97.3303
-627.644
535.923
91.7216
627.243
-563.563
-63.6796
-446.539
521.159
55.238
-81.2288
-122.586
203.814
123.215
305.402
-602.403
442.049
188.388
-188.388
-199.614
218.666
-879.222
436.73
-665.389
537.049
-552.064
871.197
-955.046
23.8466
-237.404
205.112
-167.401
-222.9
-246.051
21.4741
357.46
35.5602
342.095
-351.632
-362.08
36.4248
432.038
-680.536
-55.3056
-726.77
782.076
225.092
-269.237
55.1701
106.238
-231.646
-623.646
655.522
-196.555
-49.5106
8.11555
542.473
144.722
-309.365
-22.7053
-455.1
957.838
864.214
-864.214
333.338
43.4557
11.252
463.121
-761.544
17.4176
650.887
16.0366
80.2952
417.334
-497.63
215.367
302.247
-3.86444
9.0151
673.057
17.8344
-847.338
641.329
195.574
303.19
-498.765
-825.956
560.564
210.27
-411.626
19.9893
-649.672
-184.693
-52.1766
236.869
-82.2636
198.012
-115.748
15.2192
44.7876
356.409
40.9767
-202.432
17.3183
-283.033
527.556
659.488
63.2775
12.314
134.805
-86.6941
-197.683
196.549
395.712
-502.276
-707.838
-64.1999
-199.194
-467.015
-476.591
-274.043
-360.716
624.62
-515.05
6.72936
798.495
-805.224
317.997
49.9884
392.713
-59.3751
619.325
-55.2406
-564.085
313.79
-17.687
-571.101
-100.974
672.075
-28.3318
-250.1
-606.909
446.101
-169.035
-71.439
240.474
234.245
611.275
66.2942
-237.398
-88.6018
24.6443
204.226
-546.136
638.436
194.006
3.67883
-200.045
396.992
-196.948
308.541
-863.306
554.764
-778.412
19.3715
759.041
129.942
-202.485
189.229
-201.87