/*--------------------------------*- C++ -*----------------------------------*\
  =========                 |
  \\      /  F ield         | OpenFOAM: The Open Source CFD Toolbox
   \\    /   O peration     | Website:  https://openfoam.org
    \\  /    A nd           | Version:  7
     \\/     M anipulation  |
\*---------------------------------------------------------------------------*/
FoamFile
{
    version     2.0;
    format      ascii;
    class       volScalarField;
    location    "28";
    object      p;
}
// * * * * * * * * * * * * * * * * * * * * * * * * * * * * * * * * * * * * * //

dimensions      [0 2 -2 0 0 0 0];

internalField   nonuniform List<scalar> 
7724
(
0.145599
-0.00743786
0.519619
0.302333
-0.00146292
-5.18128e-05
0.552801
-0.00894196
-0.000183949
0.130806
-4.81732e-05
0.00416384
-0.0133859
0.0640956
0.136551
-0.017985
0.149619
-0.0173443
0.00165648
-0.0852593
0.0834863
0.00275682
0.0467667
0.263369
-0.0225188
0.172979
-0.00135433
0.0793043
0.217997
0.00397594
-0.023925
0.971647
0.0459045
-0.000804165
-0.000162958
0.10664
0.00461004
0.529047
-0.00763319
-0.000558755
-0.00700381
-0.0171634
-0.0906724
-0.0854038
-0.00032563
-0.000124928
0.00269639
-0.00796796
-0.000100705
-0.0843294
0.00623576
0.0751307
-0.0282765
-0.00653971
0.105382
-0.00799822
0.00175788
-0.00889829
-0.0366917
-0.000836143
8.50788e-05
0.00798029
0.0645789
0.00459431
-0.00163573
-0.0235353
-0.00014154
9.441e-06
-0.00602856
-0.00751476
-0.000113472
-0.0663681
-0.0218243
-0.0362005
-0.0168431
-0.0516434
0.505708
0.0821114
0.0474322
-0.0705051
-0.0128524
0.505152
0.119321
-0.0381973
-0.0024361
-0.00389638
-0.00957055
-0.0274751
-0.00109728
-0.00757379
0.223009
-0.108461
-0.000208888
0.00196289
-0.0060172
-0.0377469
-0.0627474
-0.00292183
-0.0026885
-0.00195317
-0.0617012
0.0553334
-0.00570236
-2.59366e-05
-0.103988
0.221216
0.830761
-0.00851297
3.84908e-08
0.0410483
0.282693
-0.0606901
-1.17117e-06
0.0434945
0.223479
0.000827006
-0.0827165
0.17621
-0.0475652
-0.0373273
-0.0640039
0.479849
-0.0858396
0.0172727
-0.0623513
-0.00163051
-0.0217955
0.00324752
-0.00173357
-0.0243742
-0.161176
0.051148
-0.00101299
-0.00129782
-0.0394967
0.275858
0.633147
-2.19302e-05
0.0139296
-0.0797365
-0.0343161
-0.0582875
-0.0523452
-0.0349307
0.840653
-0.02611
0.21881
-0.0362225
-0.047243
0.478005
0.101661
-0.0927714
-0.00258407
-0.0214309
0.119288
0.470276
-0.059566
-0.0133154
0.754265
-9.05582e-05
0.0008767
0.273633
-2.1021e-05
-0.00357457
-0.00677033
0.352131
0.353179
0.790164
-0.00402652
-0.00529095
1.10807e-05
-0.0659885
0.000813219
0.00049968
0.0151405
-0.0467547
-0.0827291
0.0897169
-0.00020755
-0.000846178
0.302999
-9.05223e-05
-0.000175726
0.546909
-0.0142609
-0.0494234
-0.0449328
-0.0346256
-0.029827
-0.0778542
-2.41471e-05
-0.0606877
0.0891061
-0.00576397
0.000147147
0.170243
-0.00212207
-0.0229672
-0.0280484
1.27374e-05
0.00164855
0.288948
0.118466
0.486584
-0.0758133
-0.0556184
-0.137807
0.0863942
0.290839
-0.000349923
7.62981e-05
0.776852
-0.0152471
-0.00105315
-0.0581079
-0.0228113
0.41386
0.432907
-0.0640346
0.918001
-0.00196474
-0.0169084
-0.06322
0.102365
-0.111315
0.093264
0.760446
0.00013503
0.0181654
0.189226
-0.00722041
0.170954
-0.000924121
0.852932
0.46363
-0.0094815
0.00481989
-0.000517185
0.0248279
-0.000148419
-0.011261
-0.0761772
-0.000112826
-0.00232025
-0.000723872
0.157791
-2.0089e-05
-0.00785622
-0.0688806
0.97221
0.0433776
0.837806
-6.60304e-05
-0.030963
-0.000302587
0.499575
0.00763542
0.6342
0.00225043
0.00139625
0.00286068
0.0905296
0.00111031
-0.000382032
0.000985483
-0.00761784
-0.0506908
-6.1093e-05
-0.0577306
-0.00645397
-0.000232433
-0.00108738
0.594363
-0.0133584
-0.00134158
0.930023
-0.00254894
0.227017
-0.000341086
-0.000817254
1.79387e-05
-0.042583
0.0984643
-0.0776081
-0.0371731
-0.000704249
-0.0739315
-0.0257972
-0.000299265
0.000953674
-0.00388665
-0.0129331
0.00560533
-0.00218749
-0.0365579
-0.0446836
-0.0359973
-0.0731254
-0.0449573
0.414141
0.441074
-0.00263501
-0.117472
-8.37785e-06
-0.00426359
-0.037663
0.255613
0.134023
0.000199363
-0.00394679
-0.0437092
0.187855
-0.00175604
0.00683195
0.00233624
-0.00116975
-0.163615
0.31189
-0.0028252
-0.0123079
-0.000184671
0.00758887
-8.00851e-05
-0.0296437
-0.00059531
0.00610512
-0.153711
-0.0464302
0.00166903
0.0164417
-0.00129779
0.0343906
-0.0138985
0.0735331
0.167833
-0.175983
-0.0873152
-0.0263114
0.0096704
-0.074328
0.808904
-0.076442
0.0543107
0.897711
-0.00272777
-0.00309916
-0.0971455
-0.00192891
-0.0222552
0.0120333
-0.00499312
-0.00371743
0.197231
-9.98487e-05
0.00106233
0.000161858
-0.00604356
-0.0125603
-1.06285e-05
-0.001942
-0.0352858
0.764243
0.00266471
-0.0149101
0.697582
0.41302
0.0663642
-0.10655
-0.0664131
0.00932353
0.336722
-0.0187837
0.304967
-0.0348103
-0.101618
0.132809
0.296981
-0.0539582
0.124903
0.0700779
0.254477
0.0838867
-0.00541662
-0.00749048
-0.00014131
0.00240873
-0.0191348
0.00184304
-0.000174622
-0.00287706
-0.0731854
0.0448988
-0.0277978
-0.00532055
-0.00671782
-0.0128898
-0.0123064
0.0031381
0.0574465
-0.00336157
-2.36528e-05
-7.55253e-05
0.000112035
-0.0333635
0.191801
-0.0071237
0.050674
-0.122336
0.51975
0.00598934
0.0127205
-0.00904545
0.569912
-0.00188156
0.29728
0.224252
-0.000191507
-0.0374509
-0.00582888
-0.0559443
0.00108941
0.0781293
0.00519578
0.0117886
-0.00151565
0.138636
0.196265
-0.0570592
-0.0356887
-0.00413033
-0.0303096
-0.0144494
0.952813
-0.0765061
0.00831613
1.0591e-07
-0.0220128
-0.00405898
0.0315161
-0.0992511
-0.123055
0.579189
0.169786
-0.126991
0.174077
0.556462
0.0514014
0.0022606
0.331133
-0.00160562
-0.000308444
-0.0281247
0.000183276
-0.150833
-0.00158686
-0.0384831
0.00359862
0.18593
-0.003184
-2.85948e-05
-0.107061
0.00327884
0.0035757
-0.0596958
-0.0785052
-0.105732
0.192263
0.158155
0.162974
-0.00035076
0.0308378
0.0805375
-0.000925619
-0.0267961
0.00117108
0.00855371
-0.00673843
0.00894649
-0.00137953
0.0341783
-2.3044e-05
0.000398158
0.00374625
-0.0346269
0.0370139
-0.0361726
-0.0397717
-0.0459526
-0.124823
0.007568
0.313741
-0.135255
-0.0114748
0.866123
-0.0615153
-0.0131145
-0.0401655
-0.0113388
-0.03264
-0.0170839
0.0487403
-0.0857773
-3.12229e-05
0.0429187
-0.000156275
0.445181
-0.00788967
-0.0085163
-0.0228116
-0.000320766
0.509672
0.349434
0.0143894
0.00346461
-0.0662995
0.659005
-9.16675e-05
0.0221109
-0.028652
0.10609
0.806008
-0.0236507
0.169432
-0.00379497
-0.000346556
-0.00236249
-0.144486
0.535078
0.00901426
0.273754
-0.0121193
0.540009
0.331995
-0.0152021
-0.0129678
-0.00386292
-0.0796355
-0.000130247
-0.0210999
-0.0770734
-0.0704441
0.0206941
0.0169109
-0.000203412
0.342505
-0.00219029
-0.000168007
-0.0401506
-0.00086141
-0.000382865
0.00561802
0.222625
-0.0950022
0.738981
0.000133348
0.209636
-0.0319008
-0.000111553
4.24435e-05
0.214125
0.227634
-0.00701242
0.21705
6.06296e-05
0.227219
-0.170059
-0.0159091
0.592492
-0.0554977
0.00382753
-0.0385139
0.218107
0.215693
-0.0260018
-0.0326662
-0.0104554
-0.00493718
-0.000336908
-0.00233802
0.287948
-3.45806e-05
0.226063
-0.0940316
0.440604
0.216098
-0.0784762
0.702783
-0.00277641
0.00548482
-0.0621726
-0.0312124
-0.0109354
-0.0356064
0.0364474
0.864004
9.42335e-05
-0.00327488
-0.0575235
1.51608e-05
0.450021
0.00332794
1.52718e-05
0.000379018
0.000732394
-0.0280354
0.0301738
-0.00263554
-0.000135887
-0.0115909
0.00368313
-0.106206
-0.0721003
0.0378693
-2.98996e-05
-0.156259
-0.0206403
0.0181023
0.445109
0.00201912
0.0457456
0.000305523
-0.0197783
0.118052
-0.0109876
0.223502
-0.0203299
0.0256258
0.122478
0.161465
0.0070396
-0.0162861
0.146771
-0.0832805
0.501696
-0.0147396
0.221345
-0.0146245
-0.00196335
0.162034
-0.00153911
0.110065
0.00341111
1.30916e-05
-0.116856
0.0548133
0.0025712
0.024573
-0.0193442
-0.15449
-0.0053346
-0.0374275
-0.00284676
-0.0139035
-0.0713548
-0.0409722
-0.0154016
-0.000229312
0.538348
0.0502263
0.0499842
-0.000322969
0.339684
1.86453e-05
-0.0002963
0.070193
0.000130939
0.0496097
0.0778233
0.0289473
-0.0651812
-0.127466
-0.103023
0.00238049
-0.0582593
-1.58041e-05
0.00617166
0.216659
-0.0248696
-0.00472341
-0.0175432
-0.0033129
-0.000672846
0.910512
-0.0155417
-0.000915429
-6.59381e-06
0.176237
-0.0436894
-0.000540166
-0.00466822
0.203762
0.087447
-0.0529982
1.05992e-05
0.23024
-0.0249128
0.181348
0.0291012
0.0358212
-0.0431872
-0.000146438
0.119566
0.0750015
-0.0723996
-0.0878297
0.29853
0.0108515
0.132475
-0.00493195
-0.0379118
-0.000654437
-0.0037058
-0.000154452
0.186566
0.15158
-0.00250934
0.0321419
-0.0262488
-0.0732694
-0.080447
-0.00312401
0.0201475
0.855049
-0.0736493
-7.17339e-05
0.0892587
-0.00656246
0.711209
-0.0191502
-0.0199688
-0.00873302
-0.0230102
-0.012369
-0.0123101
-0.00625916
0.00259984
0.0276423
0.000210839
-0.173969
-0.072286
0.392695
-0.0511173
0.0672516
0.00364789
-0.0632605
-0.022853
0.26713
-0.0116361
0.000217109
-0.0244725
-0.00908924
0.0243469
-0.0393343
-0.0340493
-0.056308
-0.0221733
-0.0135897
-0.0764295
1.50046e-05
0.0436258
-0.0664046
0.0552271
-0.075029
0.110015
-0.088584
0.298694
0.00126044
-0.0445908
-0.0271519
0.76103
-0.143999
-0.0200348
-0.115641
-0.0476786
-0.108111
-0.0661831
0.144962
-0.00470491
0.327737
0.0155111
-0.000648866
-0.0020854
0.0801632
0.98576
0.00178608
-0.0331842
0.213722
5.0246e-05
-0.0313503
0.046289
-0.017028
0.0157244
-0.00278759
-0.0430158
-0.00535957
6.29231e-05
-0.0529627
0.260108
-0.000289523
-0.0252087
0.00337922
0.212239
-0.000627897
-0.00210126
-0.000594238
-0.00132468
-0.0513786
-0.00271878
0.00382824
-0.0270976
9.82349e-05
-0.122502
-0.139023
-0.137736
-0.0254655
0.0254312
-0.000344034
-0.0200236
-0.0673261
-0.054902
0.447235
-0.00216512
-0.0710943
-0.00799259
0.00532387
0.108268
0.000808482
-0.000245006
-0.00260185
-0.0572661
0.0244002
-0.00502106
-0.00350012
-0.0626772
-0.000275052
-0.00497276
-0.0204584
0.383748
0.245927
-0.0558506
-0.0647149
0.0127643
0.00430332
-0.0542325
-0.0744027
-0.0226104
3.27848e-06
-0.0488065
-0.0372378
-0.0807597
0.00318911
-0.0565812
-0.000660703
-0.00507391
0.223024
-0.0415937
-4.58054e-06
-0.00475214
-0.132717
-0.000265307
-0.0283579
-6.49679e-05
0.00620429
-0.10374
-0.0536593
-1.51296e-05
6.62544e-05
0.151693
-0.0546733
0.517144
0.21728
-0.0430653
-0.000992888
-0.0209651
0.000410713
-0.153174
-0.100461
-0.0953134
-0.0245932
0.167645
0.0113777
0.000508767
0.00705732
-0.133514
0.00346921
-0.0350089
-0.0654883
0.000205422
0.0274206
0.0832242
0.0101056
-0.0337804
-0.0867157
0.225433
-0.0421311
2.66113e-07
-0.114913
-0.0684391
-0.0505615
0.0058161
0.00135786
0.00834825
-0.104683
0.0394046
-0.0385346
0.0733334
-0.0595333
0.00877085
0.0238516
0.0119665
-0.0393764
-0.153335
-0.000148247
0.174547
0.250456
0.0100926
0.0780543
-0.0818896
0.0550334
-0.054806
0.238175
0.116652
0.832531
1.19802e-05
0.100977
0.194072
0.0189565
-0.00191611
-0.0212356
-0.0642281
9.42829e-05
-0.0213113
-0.0576264
-0.0231926
-0.0256491
0.000250386
-0.135571
-0.000465724
-0.00112114
0.29519
0.0078416
-0.0469215
0.024635
0.250633
0.0125151
-0.000491708
-0.130768
0.00965961
0.478609
0.00173139
-0.0599249
-0.000263615
-0.000705175
0.00766745
-0.0693606
-2.52299e-05
-0.0129409
0.0338778
-0.00253837
6.76727e-05
-3.97415e-05
0.179845
-0.0635588
0.00846371
-0.0014274
0.0107069
0.0198721
0.0104307
-0.000354736
0.328907
-0.118817
0.264665
0.271804
-0.00025786
-0.0506884
0.0981807
-0.000986268
-0.000322668
-0.000532573
-0.0373213
0.0136972
-0.0172603
-0.0265147
-0.0706585
0.196642
-0.114275
2.20357e-05
-0.0226101
-0.0221009
-0.0400049
-0.00550288
0.00751751
0.00167173
0.0344303
-0.000651708
-0.000275374
-0.0204374
-0.00542113
-0.02875
-1.45547e-05
-0.0174041
0.0407633
-0.0446409
-0.0469642
-0.0103024
-0.01386
-0.0108735
-0.00653668
0.00612363
-0.0112267
-0.000118604
-0.000496674
0.0278118
-0.014396
-0.00619674
0.0105233
0.00266007
-0.134718
-0.013122
0.184075
-0.0148023
-0.0589342
-0.0294172
-0.0262972
-0.0182155
-0.00472078
0.00290034
-0.00442815
-0.0164249
-0.0187879
0.197371
0.141439
0.0492119
0.439389
-7.94822e-05
-0.0042246
-0.0191335
-0.00968535
0.0492916
-0.0234874
0.0409886
-0.00547709
0.194003
-0.00243274
-0.00203557
0.010253
-0.0245064
-0.000257738
-0.0270565
-0.00734862
-0.024118
-1.56714e-05
-0.00828052
0.00261212
-0.0204611
0.0333403
0.0438069
0.0238488
-0.0164011
-0.0359268
0.135677
-0.00159446
-0.00245669
-0.00264871
0.686001
-8.54682e-05
0.070593
-0.0245247
-0.0236964
-0.0301817
-0.0479351
-0.032751
-0.038859
-0.0214066
-0.00575231
-0.000108169
-0.00534598
-0.0251649
0.114608
0.00222241
0.0623211
-0.0373754
-0.0155855
-0.00113634
-0.0330687
-0.000115191
0.173175
-0.0344564
-0.0300431
-0.0274973
-0.00506373
-0.0382039
-0.0020924
-0.0455058
0.119186
-0.0296348
-0.0817657
-0.00182015
-0.0308721
-0.0214803
0.0193196
-0.00404822
0.166809
-0.00299669
-0.0222069
-0.000826594
0.188471
-0.0438134
-0.0302719
-0.00405818
-0.0116236
-0.0034481
0.159489
-0.00848646
0.0851936
-0.00614225
-0.00100372
-0.00156532
-0.00290976
0.0712872
-0.0665017
-0.00846336
0.000467902
-0.0101933
-0.0181717
-0.00111237
-0.0199059
-0.018317
0.0685915
-0.00616655
0.00419077
0.690633
-0.0675651
-0.0327166
-0.0634098
5.81976e-05
0.0892588
-0.00442161
-0.0306886
-0.00698961
-0.0403202
0.00514026
-0.000650535
-0.00362646
0.00423896
0.239109
-0.00725593
-0.00222833
-0.0057812
-0.0605326
-0.0102334
-0.0254034
0.00544466
-0.0107135
-0.0110635
-0.00408815
0.238621
-0.0512293
0.00416622
-0.00528271
-0.0314556
-0.0169308
-0.0547081
-0.00174363
0.10596
0.0281823
-0.00968386
-0.00215411
-0.0164146
0.697364
0.240892
-0.0137339
-0.000706499
-0.00297571
-0.000114607
-0.00496632
0.025863
-0.000497798
-0.0219989
-0.00245511
-0.0200203
-0.154259
-0.00131515
-0.0145963
-0.00168075
0.394099
-0.00801375
-0.0141968
-0.0605296
-0.00241749
-0.0342083
-0.04508
0.594196
-0.0130729
-0.0138574
-0.0026424
-0.000557193
1.31847e-05
-2.2781e-06
-0.0123683
-0.000816387
0.0600039
-0.000817685
-0.00225846
0.0102743
-0.000303613
-0.0495471
-0.0694794
0.0216106
0.0481009
0.0324471
-0.044676
-0.0561803
0.104768
0.0828051
0.11287
0.143645
-0.0155971
-0.00104405
-0.00736983
-0.0771225
-0.00439311
-0.0180123
-0.0474621
0.31327
-0.0605228
-0.000586535
-1.58541e-05
-0.0018211
7.39729e-06
0.009712
-0.000678386
-0.00589818
-0.0529242
0.000729591
0.00335095
-0.000254011
0.0573565
-0.0183716
-0.0636843
-0.00150652
0.414489
0.200981
-0.0122836
-0.0922684
-0.0320464
-0.0277627
-0.0172785
-0.00233253
-0.0890821
-0.0426182
-0.0482795
-0.127746
-3.82543e-05
0.188281
-0.0234813
-0.0117074
-0.0395714
0.0232398
-0.000646547
-0.01026
-0.00168497
0.0138425
-0.00191762
0.124077
0.000480086
0.012713
-0.000501693
-0.134128
0.0112131
-0.000936153
0.00288379
0.000554022
-0.0437336
0.115216
0.00064764
-0.00178632
-0.000139751
-0.000700821
-0.000613603
-0.0661061
0.146204
-0.0421621
-0.000318682
0.0106059
-0.000551256
0.276608
-0.0653601
0.24796
-0.0479355
-0.000546018
-0.000332939
-0.00898631
-0.00697683
-0.000768241
-1.65211e-05
0.0301863
0.0350492
-0.000277301
-0.000389749
-0.0231446
-2.01204e-05
0.198536
-0.00113943
-0.0575372
-0.0223936
-0.00780342
-0.0603607
-0.0668057
0.178741
-0.0297761
-0.0236559
-0.000377047
-0.0613529
-0.0242061
-0.0369422
0.0169661
0.429099
-0.00144762
-0.0642109
0.0128933
0.32403
0.0468244
-0.000133077
-0.00744034
-0.00503446
-0.00612189
-0.0520798
0.0907523
0.000260741
0.0159154
0.00372965
0.0653146
-0.000633662
-0.000127718
-0.119891
0.284015
-0.0594638
0.131503
-0.00157057
-0.000233237
-1.67296e-06
-0.106692
-0.0459442
-0.000401652
0.0892213
0.0141027
-0.00660669
0.554825
-0.000463304
-0.00458701
-0.0643584
-0.0366392
-0.00282575
0.158855
-0.0758671
-0.000190502
0.0114323
-0.000193103
-0.000108073
0.143887
-0.0043643
-0.00054922
-0.0555928
-0.0283942
-0.00432602
-0.0438022
0.00310057
-0.0264844
0.00214541
-0.00432325
-0.069729
-0.0424007
0.0143074
-0.001088
0.170508
0.249977
-0.119978
0.0113391
0.023635
-0.00529203
0.197587
0.100427
-0.0316503
-0.000183829
0.0117853
-0.0591455
0.00960733
-0.032376
-0.00260724
0.040169
-0.0317017
-0.000155222
-7.29613e-05
-0.0525828
-0.0307795
-0.0297074
0.0117781
-0.032428
-0.0489605
-0.000166607
-0.00172116
-0.000235145
-0.0404466
-2.07571e-05
-0.00238854
-0.0582901
-0.1171
0.0358697
-0.00368474
0.00530703
-0.0249039
-0.0291618
-0.000142219
-0.0501213
0.0126524
0.1863
3.82172e-05
-0.000123536
0.190105
-0.00311409
-0.101986
-0.0444099
0.00432991
0.000650221
-0.0710757
-0.0470364
0.19517
-0.0601789
-0.00180813
-0.0125497
-0.0588353
-0.000698779
-0.000281915
-0.00110162
-0.0425841
-0.0554626
0.0898237
-0.000243394
0.726396
-0.0760195
0.000174335
-0.00118702
0.000350679
0.000396679
-7.697e-06
0.000201348
-0.0568298
-0.000875515
0.000581412
-0.000229157
0.166059
-0.007051
-0.00022252
-3.58971e-05
0.362849
-0.0250346
-0.0723955
0.00147391
-0.000880092
0.0561965
-0.000103172
-0.0165558
-0.169738
0.00281001
-0.00818937
-0.000104643
-0.000236426
-0.0351023
-0.076786
0.00916851
-0.145493
-0.0827319
-2.57951e-05
0.0264724
0.0398765
0.127925
-0.0021126
-0.000177148
-0.0613405
-0.00746999
-0.000594731
-0.0536806
-0.00015315
0.0381302
-8.32625e-05
-0.00155857
-0.0773211
-0.0026395
-0.0630599
0.633324
-0.00203146
0.00037524
-0.0609486
-0.0636944
0.0113428
0.00599785
-0.000171449
-0.0353894
-8.68963e-05
0.235782
0.917254
0.0356865
0.00389052
0.00459474
-1.24354e-05
-0.0321087
-5.26883e-05
-0.00943941
-0.00208668
0.000501884
-0.00413487
-0.0118908
-0.00013659
0.00114076
-0.0106527
-0.000369739
-0.0125069
-0.0193495
-0.0131355
-0.00141742
0.807535
-0.000835408
0.00313051
0.000336525
0.017416
-0.0539325
0.0120734
-0.000200352
-0.000108723
0.00334916
-0.000117677
-1.71727e-05
-0.0143235
0.00091581
-2.10558e-05
-0.0556803
-0.00285596
-0.0600833
-0.00201618
-7.13298e-05
-0.00384609
-0.0130695
-0.0181314
-0.0294654
0.00298939
0.000692299
-0.00055499
-0.00239435
-7.89903e-05
0.330077
0.00201387
-1.55e-05
0.000776609
-0.00249504
-0.000413759
-0.0678931
-0.0587578
-0.000136169
-0.00850536
2.69283e-05
-0.00331113
-7.70165e-05
0.0431619
-0.00015481
-0.000205207
-0.0044596
-1.38192e-05
0.016977
-0.000256902
-0.00153661
0.0235557
2.62069e-05
0.479447
-0.0584033
-0.0462328
-1.78648e-05
-1.81142e-05
0.00240598
-0.00143908
-0.0571969
-1.32469e-05
3.4117e-06
0.000975348
-2.47048e-06
0.000507605
0.000599339
-0.000544809
0.00102925
-0.0570227
0.639348
-0.0405047
0.398207
0.0114172
-0.0203683
-1.33925e-05
-0.00106413
-0.0146148
0.000206847
0.000385771
0.00023671
0.028556
-0.00166998
-0.000241409
0.699388
-0.000650477
0.000777641
0.000667362
-3.24352e-06
-0.0782198
-0.00267393
0.00147224
0.000182664
-0.000631478
-7.1675e-05
-0.00113875
-0.0487262
-0.000491924
-0.00198948
-1.22425e-06
-0.000838567
-0.000302216
0.231026
-0.000522193
-0.000305569
-0.0739966
0.00478979
-7.91297e-05
-0.00161887
-6.36796e-05
0.208675
-0.0784418
-0.000334149
-0.000456042
-0.00236935
-0.000162253
0.0651974
0.114441
0.00305687
0.000682375
-5.38259e-06
-3.53456e-07
0.0524724
0.000345829
-0.0656589
-0.0311356
-0.0190081
-0.126586
0.81917
0.00251199
0.187197
-0.0175889
-0.033358
0.21265
-0.000419193
-0.0707092
-8.08668e-06
-0.0108164
-0.0533822
8.39537e-05
-0.056997
-0.00114322
-0.013439
-0.00689871
-0.04698
-0.0469664
-0.0040113
-0.0680374
-0.0481143
-0.000212273
-0.0144978
-4.10844e-05
-0.0419328
-2.56869e-05
-0.000211016
0.0120491
0.201028
5.65016e-07
-0.0503387
0.00451608
0.000115829
-0.0250636
1.47212e-05
-0.0161921
-0.00029181
-0.0426559
0.000180644
-8.99201e-05
-0.00248421
-3.06291e-05
0.195623
-0.0347994
0.0405897
-1.7348e-05
0.000824303
-0.0368132
2.3085e-06
-0.062243
-0.0713611
-0.0602908
0.733408
-0.00781689
-1.4127e-05
0.0318056
-0.0462913
-0.00314277
-5.51036e-06
-8.89432e-05
-0.0519484
0.000184331
0.00113457
8.20569e-07
0.000227431
-0.0320454
-0.00599402
-0.0844771
0.101674
-0.00644262
-6.84755e-07
0.0074886
-0.0592524
-1.89786e-05
-9.7392e-06
0.000432587
9.68329e-05
0.0005416
0.103058
0.0426899
8.53216e-05
2.26721e-05
-0.070653
0.248724
0.208593
-4.37852e-05
-0.0408369
-0.0232286
-0.0128667
-0.0525028
-0.0105427
-0.00350352
0.172467
-3.23517e-05
-0.0303568
0.205209
-0.0539539
-2.32549e-06
-0.0660199
-0.000194454
0.204257
0.0329039
4.18678e-06
-1.96183e-05
0.213117
6.665e-06
-0.000200021
-0.013982
3.03171e-05
0.263731
0.00407753
-0.00883976
-0.0682762
-0.00453429
-0.0876789
0.225317
-0.0164613
-0.0552182
0.00128725
-1.09446e-05
-0.00122219
8.10132e-06
-5.496e-06
0.0219093
0.223998
0.183892
-0.000511587
0.314923
-0.014885
1.80271e-05
-0.0500999
-3.51669e-06
-0.0320043
0.0342899
-0.0176063
0.00554403
0.00238393
-0.0110594
0.000348441
-0.00200618
0.0228724
-0.00344021
-3.80307e-05
4.78425e-05
-6.16685e-05
0.0386995
8.77266e-05
-0.0270375
0.334434
-0.00722833
7.73152e-05
-0.00416023
3.02456e-06
0.00594693
-0.000413487
-6.55014e-05
-8.94337e-05
-6.6923e-06
0.264477
-0.000160541
0.254086
-0.0675645
0.000164229
-0.0585661
-0.000557508
0.192737
0.722374
-0.00167429
4.24288e-06
3.34636e-05
-1.39381e-05
0.129803
1.29896e-06
0.00135002
-0.0279309
0.24697
1.47631e-05
3.06412e-05
4.82005e-06
4.0877e-05
-0.0238998
3.36152e-06
0.156513
-0.019313
-0.000133888
4.69847e-05
-0.00245838
-0.032402
2.23128e-06
-5.63439e-05
0.204255
5.36482e-05
-0.0362062
-0.0692974
0.000189454
1.38619e-06
-0.161824
2.05591e-06
0.187277
2.38957e-05
-0.000516647
2.24847e-05
-0.000194216
0.111392
8.85889e-06
-0.00195387
2.05882e-05
0.0144514
-0.00407276
-0.00763094
0.000884697
0.188863
-0.000292744
-7.97842e-05
-0.0105184
-0.0101559
-0.000275221
-3.86706e-05
-0.00105325
6.63329e-05
0.100232
-0.012408
0.68022
5.75984e-06
-0.00907933
-0.000158672
0.138583
8.87735e-05
-0.0305823
3.81673e-05
-0.00187801
-0.0377586
-0.000258408
-0.0183928
-0.0547942
0.00617423
6.21411e-06
-0.0652135
-0.000381917
-0.000322062
-0.00659701
-0.0189389
0.00163079
-3.23272e-05
-0.000502307
-0.00107794
-0.00151051
2.88891e-05
-0.00142892
0.691395
0.000142281
-0.00389336
-0.039235
-0.0773984
-0.0684581
-0.0525664
-0.0251525
-0.000602578
-0.0205527
0.000115188
-8.20489e-05
0.682365
-9.85744e-05
0.167176
-0.000521914
0.000527362
-0.00133816
-0.0902078
-0.000481687
0.000708845
-5.16449e-06
-0.00045145
1.98552e-06
-8.07639e-05
-0.0172625
-0.000111825
-8.26235e-06
-8.52442e-05
0.000213762
2.22004e-06
-0.0479384
0.123461
-4.92433e-06
-0.000703938
7.01875e-05
5.01829e-05
-0.000979354
1.8286e-05
-0.00106372
0.000382953
-0.000420906
-0.068963
-0.000807696
-0.00217023
1.12509e-05
-0.00188401
0.00044881
-1.23294e-05
-3.2594e-06
2.28838e-05
-0.000933868
0.000699473
-0.049534
-0.0316337
-0.0693123
0.000750179
-0.00225706
-0.0524505
-0.069735
-9.92271e-05
0.0180954
0.00831935
-0.0012378
-0.0138521
-0.0601534
0.578151
-0.000481522
-9.36417e-06
0.00113504
7.82728e-05
3.02179e-05
0.0897483
0.0044203
0.104242
-0.0433776
0.576564
-0.000609042
6.50048e-06
0.000213011
-9.8492e-06
-0.00162193
0.162313
0.276883
3.93176e-06
-0.000183988
-5.19142e-06
0.259968
0.0170907
-0.00750741
1.98342e-05
3.1899e-05
0.008912
-0.000815723
-0.0775814
-0.0193957
4.71359e-05
0.00432806
-0.0360007
-5.89233e-05
0.00227045
-6.05212e-05
-0.0503441
-0.00206255
0.160181
2.79669e-05
0.00211475
-0.00019724
2.71679e-05
0.000240545
-0.0263269
2.59748e-05
-0.00107529
4.20561e-05
-0.0225904
-0.0495672
-0.00376095
-0.00896695
-0.0100348
0.0111826
-0.0102133
-0.00291567
0.000102489
0.000154607
3.76914e-05
3.26781e-05
-5.52199e-05
0.0109267
-0.0647691
0.000641186
-0.0529215
-0.00364272
-0.0587453
0.00012852
1.28336e-05
0.00165606
-0.117994
3.21118e-05
-0.0519385
-0.0172846
-0.0828065
-0.0540334
4.50854e-05
-0.00407941
0.000268486
-0.177646
0.16092
2.99441e-05
-0.0654038
-0.0258583
-0.00500587
6.42481e-05
-2.89155e-06
0.0256917
-0.0189459
4.54029e-05
-0.00794985
1.42814e-05
0.00029672
0.143168
-4.14743e-06
2.2418e-05
-7.72049e-05
5.83756e-05
0.00115073
0.000127555
-0.00617792
0.000320129
-0.0145702
0.00140449
-0.000222594
-0.0377836
-0.0475521
-0.00735692
-1.18978e-05
3.80931e-05
-0.0705358
0.00706073
-0.0521267
5.3507e-05
-0.0060588
-3.4097e-05
4.34778e-05
0.0734282
-0.00815923
-0.00327663
1.52026e-05
-0.0203871
7.7588e-05
-0.0721649
4.81775e-05
-0.0811112
4.33389e-05
-2.02732e-06
0.000124525
0.00130396
-0.113607
-0.0205152
-0.075946
3.48561e-05
0.000139484
-0.081911
-0.0309936
-0.0097661
2.51264e-06
-0.046732
-0.0564448
-0.0820264
1.95934e-05
-2.1509e-07
2.82173e-05
-0.104154
-0.073911
0.000934083
-0.012719
-4.90227e-05
0.127656
0.000137002
3.43862e-05
0.000210374
1.29923e-05
-1.1383e-07
-0.00425094
0.00016613
-0.00300848
-0.0713631
-0.0149731
-0.061669
6.9321e-05
-4.97939e-05
0.052253
-0.0661352
-0.00553934
0.129591
3.23621e-05
-4.44361e-06
-3.97955e-06
0.0564327
0.000239837
2.83427e-05
8.5329e-06
-0.0691624
-0.0176468
2.63404e-05
0.000128404
-0.0107124
-0.00747874
0.000566325
0.277393
-0.0664645
0.000227951
0.930079
5.27829e-06
-0.000789436
-0.0101108
-0.080683
2.17279e-05
1.76114e-05
3.58937e-05
0.00586941
-0.038554
-0.000375803
-0.0542723
-0.00893922
5.28372e-05
-1.73268e-06
-0.011674
-0.00887983
-0.0358966
-0.1034
-0.0494066
-0.0429784
-0.0271634
-0.0309244
-6.09839e-05
0.000468704
-0.000312063
0.000687432
-6.01275e-05
0.000984102
6.22769e-05
-7.87708e-05
-0.0138812
-8.16327e-06
-1.65181e-05
0.0369449
-0.0390485
-0.000156085
-1.77823e-05
4.8034e-06
0.308068
-0.00770361
0.00101017
-0.0319238
0.00030739
0.000272125
0.000236651
-4.32357e-05
0.000626712
-0.0423465
0.017844
-5.40158e-06
-0.000161131
-0.046901
-0.0367578
0.0575878
-0.000563505
0.00230368
0.0214798
1.68755e-05
9.59484e-05
-0.0555429
3.75653e-05
0.197573
3.37097e-05
0.00516728
0.000229905
0.000303851
-0.0745143
-0.00850967
-0.0203946
-0.00280345
4.38447e-05
0.00750299
0.0721476
-0.014174
-0.000139625
0.11047
0.192269
1.14147e-05
-0.0568295
-6.20183e-05
6.68488e-07
-4.13631e-05
-0.000653119
0.0237994
1.75875e-05
0.000334093
-0.0279079
-0.0289923
-0.0248529
0.395325
4.38443e-05
-6.72933e-05
0.203999
-0.00955968
-0.00442978
-0.000754967
0.200539
7.79279e-05
-0.000337125
8.42628e-05
5.86901e-05
5.19133e-05
5.91155e-05
0.000107908
-0.0200483
2.74707e-05
-0.00389084
-0.0487013
0.258592
-0.000129759
-4.66661e-05
0.00577337
0.0992823
-0.0551647
-0.000872391
-0.0752049
0.388453
6.84029e-05
0.529403
1.83166e-06
0.00409893
0.0290541
0.000566888
0.592825
1.06607e-05
-5.08103e-07
0.00146395
5.19883e-05
-0.00100268
0.000352221
3.17306e-05
-0.00228504
3.95258e-05
-0.000151148
-0.00385185
0.297075
0.056874
0.0264168
-0.0477767
-5.66561e-07
-5.08825e-06
0.00415342
-0.0643522
4.40701e-07
-0.0509719
-4.95034e-05
0.120684
0.0723838
-0.0376113
-0.00157083
-0.0140891
-0.00114036
-0.0168951
0.00413336
-0.00871796
0.0733001
5.54124e-06
0.170684
0.0110164
-0.000669761
0.241332
-0.0153609
-9.04362e-06
4.94928e-05
9.99363e-05
-0.000231864
-0.000120172
0.305145
-0.00113692
0.309956
-0.00126424
0.198244
0.249174
0.0747388
-0.00817599
7.17969e-06
0.000109421
-0.0121859
-0.14702
-0.0548138
0.00187289
5.00129e-05
-0.0421196
-0.000341558
3.79161e-05
0.00128016
-0.00123969
-0.000747381
0.0391755
0.000111362
-0.0527148
0.0657283
8.82022e-05
0.000360072
-0.0168693
-0.0666641
-0.000843298
-0.000595081
3.73026e-05
0.000338629
0.0240828
-0.0197867
-0.0544608
0.00164951
0.0633544
-0.0437705
6.67043e-05
4.65929e-05
0.00821533
-7.59997e-05
0.0545983
0.000692126
-0.0155171
-0.000428956
0.00203692
-0.0413427
-1.14149e-05
0.000633999
-0.00391797
-0.0802588
0.133598
-0.0674012
-0.0307715
-0.000162633
-4.28442e-05
0.00820999
7.65009e-05
-0.0801366
-0.0732778
0.00072328
0.00413468
0.00466178
-0.120147
0.000815269
0.000264463
7.13872e-05
-0.0467424
5.17337e-05
0.000717284
0.143506
0.215349
-0.139131
0.0582717
0.0563293
0.0103874
-0.00015356
0.0130353
0.000174524
1.39719e-05
-5.27649e-05
2.40521e-06
7.01067e-05
-0.00040181
-0.00890167
-0.0762073
-0.0113341
-0.0340899
0.061382
0.0517023
0.00499071
-0.0714257
0.000229509
0.00561455
0.0135418
-0.000436977
0.0847432
-0.00147731
-0.012824
0.014207
0.00673959
0.00122474
-0.00471911
0.0491462
0.00105048
-0.0226249
-0.0190716
0.722926
-0.0287626
0.0921748
0.00631887
-0.0442032
0.0027397
0.000155485
-0.00299607
9.737e-05
-0.00308012
-0.0292287
-6.65914e-05
-1.71123e-05
0.263437
-0.00386794
-0.0469052
-0.0215297
0.000288238
-0.00173765
-1.29159e-05
2.18859e-05
0.0431298
6.82789e-05
-0.00343824
0.0845574
0.00754529
0.00141499
0.0217676
-0.00673819
0.00509646
-0.143294
0.0011022
-0.00520446
-0.0625646
-0.000991141
-0.0094392
0.000965665
0.000878803
0.00125483
0.0411573
-0.000342448
0.00688984
-0.0595842
-0.0239237
0.00042289
-0.0589326
-0.0173151
-0.0196691
0.0001658
0.00806144
-0.0804503
-0.000972313
-0.00571263
-0.0544833
-0.000125576
-0.00135669
0.253466
-0.0260152
-3.84636e-05
0.0100445
-0.0580619
-0.00121924
0.236371
-0.00266586
0.00128229
0.0708511
-0.00165971
0.0100211
0.152565
0.00011945
0.0014767
0.000246321
7.33904e-05
-0.00527235
-0.00868294
-0.000119256
-0.0276863
0.110304
-0.0416082
-0.0837131
0.00146239
-0.00383219
-0.000699805
-0.0628401
6.17723e-05
0.0187352
8.70844e-05
-0.018302
-0.00227737
-0.00581585
-0.121093
0.123795
-0.0917627
-4.7471e-05
0.19817
-0.00231238
-0.00313221
-0.0649442
-0.0962975
-0.018154
-2.25061e-05
-0.00133218
0.00880089
-0.00362365
-0.00554115
0.000575481
0.0996735
-0.0508356
-0.0129395
-0.00779302
0.022708
-0.00354566
-0.00171337
0.00213224
5.29996e-06
-0.00361526
0.12308
0.00101229
-0.15723
-2.93743e-05
-0.00855138
-0.00445366
-0.104752
-0.0134279
-0.126546
-6.07296e-05
-5.71108e-05
-0.00562449
0.0127562
0.00222905
-0.147449
0.0918294
-0.0548
0.000258837
-0.166477
5.20646e-05
-0.176306
-0.0292017
-0.209636
-0.21657
-0.218407
-0.202599
-0.161993
-0.144702
-0.12864
-0.111174
-0.0898705
-0.0327004
-0.0113214
0.0125926
0.0778961
-0.00938111
-0.00867082
0.0590514
-0.0225508
0.001139
0.0151547
-0.0458081
0.000681349
-0.000780295
-4.74159e-07
-0.0166349
0.0214255
7.25939e-05
-0.000342446
-0.0121592
-0.0098189
-0.205015
-0.0170343
-0.0627234
2.93567e-05
0.00074055
-4.97622e-05
-0.0671821
-0.0103216
-0.0418654
-0.013555
0.00214684
0.000314588
0.00576338
-2.98435e-05
-0.0184854
1.57106e-05
0.000483735
-0.00805533
-0.0133085
-0.000305148
0.000429789
0.0579111
-0.0121297
0.0656567
-0.191702
-0.0106429
-0.0537827
-0.0216018
0.00449758
-0.0247495
-0.00382275
-0.0144671
-0.0150893
0.444919
-0.00157087
0.000111292
-0.00681232
-0.0105264
6.94305e-06
0.0949214
-0.00483544
0.40586
-0.181878
-0.0488309
-0.0305415
0.0465724
-0.00598233
-4.46129e-05
-5.99553e-06
-0.0048865
-0.0682933
9.63385e-05
0.372621
-0.00321059
-0.00582863
-6.43488e-05
-0.000425883