/*--------------------------------*- C++ -*----------------------------------*\
  =========                 |
  \\      /  F ield         | OpenFOAM: The Open Source CFD Toolbox
   \\    /   O peration     | Website:  https://openfoam.org
    \\  /    A nd           | Version:  7
     \\/     M anipulation  |
\*---------------------------------------------------------------------------*/
FoamFile
{
    version     2.0;
    format      ascii;
    class       volVectorField;
    location    "23.5";
    object      U;
}
// * * * * * * * * * * * * * * * * * * * * * * * * * * * * * * * * * * * * * //

dimensions      [0 1 -1 0 0 0 0];

internalField   nonuniform List<vector> 
20933
(
(0.997519 -0.000251107 -2.07792e-25)
(0.990027 -0.000760554 3.29017e-22)
(1.02657 -0.00354089 -4.87165e-23)
(1.00028 -4.14736e-05 -1.68589e-24)
(1.00074 -0.00899524 6.30689e-23)
(1.00039 -0.00955523 -6.1599e-23)
(1.04361 -0.167389 -7.97471e-22)
(1.10095 0.068673 -1.55466e-20)
(1.00741 -0.0826985 -1.99671e-21)
(1.1063 0.0696284 1.11453e-20)
(1.05475 -0.14994 -2.30932e-21)
(1.20179 0.123045 -5.42878e-22)
(0.986686 -0.0533391 -3.27535e-22)
(0.997369 -0.000299357 -1.6889e-24)
(0.99589 -0.00329825 7.0157e-23)
(1.00027 -5.18917e-05 -1.50621e-24)
(1.27658 -0.0145925 -1.35502e-22)
(1.114 0.00164319 -8.37692e-21)
(1.00653 -0.125308 -1.45384e-21)
(0.992215 -0.000366348 -2.88265e-22)
(1.01998 -0.095136 2.58885e-21)
(1.19738 0.12229 -9.7203e-22)
(1.10856 0.0755759 -8.40478e-21)
(1.1433 -0.189796 -1.52175e-21)
(1.02467 -0.0016024 5.66323e-24)
(0.993072 0.0830563 -2.48546e-20)
(1.00915 -0.00266539 -5.58315e-24)
(0.995193 -0.0575426 1.07289e-21)
(1.19544 -0.175194 -1.34894e-21)
(1.00922 -0.126642 5.05483e-21)
(0.998755 -0.00216866 -1.0911e-24)
(0.945144 0.0147377 3.82424e-20)
(1.13971 0.116029 6.74298e-21)
(0.992636 -0.0332586 1.14998e-22)
(1.00006 -0.00162397 6.90961e-24)
(0.998812 -0.00234204 -3.67168e-24)
(1.09356 0.0868723 -1.68568e-20)
(0.999916 -3.44378e-06 -2.44531e-24)
(1.01507 -0.0194236 4.40674e-23)
(1.12429 0.00328849 -2.87512e-21)
(1.04151 -0.0082394 3.93302e-23)
(1.10714 0.140498 1.19338e-20)
(1.03341 0.0427161 -7.11342e-21)
(1.00816 -0.00309741 4.70908e-24)
(0.992784 0.0797715 9.82577e-21)
(0.978648 -0.00150101 1.84155e-22)
(1.09603 0.0101414 -2.37567e-20)
(1.25173 0.0643358 -2.25109e-21)
(0.999614 -9.95976e-05 -1.48243e-24)
(0.974365 -0.0467961 1.69842e-22)
(0.99996 -0.00172848 -1.72219e-23)
(1.07642 -0.00870874 1.91892e-21)
(1.19566 -0.109001 2.9629e-21)
(1.00036 -0.00385163 -2.39016e-23)
(1.23563 -0.10937 -8.3155e-22)
(0.950361 -0.0180369 -1.47486e-22)
(0.979312 -0.0311427 4.66371e-23)
(0.998626 -0.00281749 1.69925e-24)
(1.01071 -0.0480237 -1.13027e-21)
(1.27214 -0.0103351 1.83874e-22)
(0.97453 0.0290734 2.07483e-20)
(0.969417 -0.00431775 3.63894e-22)
(0.989323 -0.00330903 -9.73066e-23)
(1.11926 0.0689967 -7.22877e-22)
(0.999428 -8.7677e-05 9.62513e-24)
(0.995642 -0.00806932 3.19423e-24)
(0.995283 0.0572305 6.3081e-22)
(0.995121 -0.00842719 5.20278e-23)
(1.12433 -0.0745915 7.29069e-22)
(0.998796 0.0844055 9.27758e-21)
(1.04153 -0.0424277 7.49676e-23)
(1.28397 -0.0455955 -8.3059e-22)
(0.996276 -0.00330614 -1.6427e-23)
(0.984699 -0.0389644 1.05018e-21)
(0.999738 0.0102389 -9.30247e-21)
(1.07822 -0.0850658 5.35078e-22)
(0.999034 0.0788692 4.30568e-21)
(0.960798 -0.00493391 1.20039e-22)
(1.12219 0.00201807 1.82073e-21)
(1.00319 0.0324107 1.36237e-20)
(0.996522 -0.00839538 1.51766e-22)
(1.00223 -0.00454735 -1.90471e-23)
(1.17612 -0.178169 1.0849e-21)
(1.00831 -0.0800243 1.66192e-21)
(0.972451 -0.00342003 -4.01283e-22)
(1.03111 0.0402359 3.42989e-20)
(0.989439 -0.0497028 -6.05947e-22)
(0.901473 0.0514918 3.60199e-21)
(1.11556 0.0644571 -6.79483e-21)
(0.97936 0.0841898 1.57588e-20)
(1.10934 0.026242 -9.17196e-21)
(1.00034 -7.11373e-05 1.5776e-24)
(1.00004 -0.000313878 7.75379e-24)
(0.953699 0.00474294 -1.06592e-20)
(1.25729 0.0587809 1.13724e-21)
(0.989751 -0.00348475 -5.19462e-23)
(0.962543 0.00306244 1.63427e-20)
(0.99947 -0.00459076 1.99362e-23)
(1.05891 -0.144638 -9.82915e-22)
(1.0699 0.014863 -9.14271e-21)
(0.976318 0.0865001 -4.66649e-20)
(0.9763 -0.0105 4.03776e-23)
(0.96773 0.0792926 -5.10084e-20)
(1.18072 -0.099393 2.34082e-21)
(1.10205 -0.0029502 -5.0992e-21)
(1.10458 -0.0814675 -1.09719e-22)
(1.02259 0.0940902 1.75532e-20)
(1.16652 -0.0821037 -4.18527e-23)
(0.989815 -0.000436484 -2.44271e-22)
(1.03878 0.107016 3.98053e-21)
(1.20399 -0.178307 -4.5014e-21)
(1.03841 -0.167008 -1.81973e-21)
(0.978459 -0.0243993 3.89156e-22)
(1.03419 -0.0219695 -2.25202e-22)
(1.07985 -0.0783934 7.82488e-23)
(1.00008 -9.57109e-05 -1.91285e-24)
(1.0483 0.0694208 1.68343e-20)
(0.99707 -0.00785385 -5.82122e-23)
(1.17391 -0.111838 6.33419e-22)
(1.00272 0.0256355 -3.21581e-20)
(1.00033 -5.23951e-05 2.97118e-25)
(1.03222 -0.0988161 1.59455e-21)
(1.14101 0.0208126 -3.86321e-21)
(1.01172 -0.0549899 -1.55856e-21)
(0.992501 -0.0315442 -1.04241e-22)
(1.11501 0.00353175 4.34067e-21)
(1.16915 0.128704 -1.58618e-20)
(0.994905 -0.0553737 8.75444e-22)
(0.938934 0.0175165 -1.11476e-20)
(1.04421 0.0715461 9.00227e-21)
(0.991248 -0.0639905 -8.51488e-22)
(0.973987 -0.0449897 -5.42247e-22)
(1.04162 -0.00428198 2.12498e-22)
(1.0142 -0.0178741 2.12076e-23)
(1.01782 0.0882895 -2.38568e-20)
(1.09855 -0.00559725 -1.36147e-21)
(1.22898 0.0789373 -3.30827e-21)
(1.02323 -0.0956372 -1.09825e-21)
(0.98132 -0.0106495 3.79115e-22)
(0.99383 -0.0849589 3.79301e-21)
(1.02836 -0.102046 2.86421e-22)
(0.983148 -0.0402917 -1.03448e-21)
(1.28498 -0.0572238 -9.07275e-22)
(0.964538 0.086667 -1.60933e-20)
(1.20528 -0.00245961 1.55075e-21)
(1.01686 0.0909264 2.15609e-20)
(1.14437 0.142601 -1.71063e-21)
(0.969607 -0.0110677 -3.1432e-22)
(1.17638 0.120269 -1.11327e-20)
(1.01034 -0.00356786 1.61589e-23)
(0.969379 -0.0100849 6.23287e-22)
(1.00031 0.0828002 1.09281e-21)
(1.00006 -0.000270692 -4.95116e-24)
(1.00651 -0.0740321 6.35802e-22)
(1.00217 -0.00408813 3.21072e-23)
(1.14088 0.14545 9.34993e-21)
(1.02722 0.0419758 -3.66319e-21)
(1.13805 -0.186084 6.86938e-21)
(0.945924 -0.0210737 3.05037e-22)
(0.985839 -0.0546661 6.89103e-22)
(1.24256 -0.118194 1.17272e-21)
(1.04779 -0.161463 1.22431e-21)
(0.99858 -0.00260074 -3.90115e-24)
(1.20245 0.00279032 -2.54824e-21)
(1.11617 -0.00271974 -8.1297e-22)
(0.90409 0.0536557 8.56526e-21)
(0.977448 -0.0106623 2.64342e-22)
(1.16938 -0.185857 4.15116e-22)
(1.07373 -0.0871341 -6.14163e-22)
(1.09443 0.0831804 -9.93825e-21)
(1.23377 0.078762 1.08698e-21)
(0.988259 0.0635439 9.71373e-21)
(1.05885 0.125129 2.69619e-20)
(0.989808 -0.0289964 2.0441e-23)
(0.919393 0.0143009 -1.27313e-20)
(1.14417 0.117298 8.14974e-21)
(0.996828 -0.000640538 1.03e-24)
(0.990267 0.00706108 -2.44318e-20)
(1.08607 -0.0765186 -6.57343e-23)
(1.03219 0.111108 7.6218e-21)
(1.01255 0.0964199 -1.09282e-20)
(0.999873 -2.70122e-06 2.96833e-24)
(0.96241 0.0604046 6.91496e-22)
(1.05686 0.109057 2.29467e-20)
(0.991623 -0.000611287 1.9525e-23)
(0.945138 -0.0148506 1.61971e-21)
(1.04099 -0.039594 -2.01168e-23)
(1.07585 0.0113603 -2.33986e-21)
(1.17474 -0.105151 -9.29541e-22)
(0.932685 0.045777 1.13547e-20)
(1.16723 0.124724 -5.44786e-21)
(1.2453 -0.0330803 4.20713e-22)
(1.06562 0.0111425 1.83878e-20)
(1.1229 -0.0682076 1.06918e-21)
(0.946496 -0.0221676 7.77408e-22)
(1.20156 0.0928453 -6.78863e-21)
(0.963277 0.0636405 -7.60832e-22)
(1.25065 0.0253087 -2.89448e-21)
(0.993541 -0.000236983 -4.41911e-24)
(0.928886 0.0452082 -1.10957e-20)
(1.22248 0.0530839 -7.83352e-21)
(1.24819 -0.0831144 7.63687e-22)
(1.19379 -0.102012 -2.2348e-21)
(0.939507 0.0526052 -1.37079e-20)
(0.955365 0.0554836 3.21268e-20)
(0.965335 -0.025064 -3.40457e-22)
(1.00089 -0.0407266 -9.6251e-23)
(1.07635 -0.00515172 -2.61003e-22)
(0.950476 -0.0195736 -7.62367e-22)
(0.998775 -0.000115536 1.09758e-23)
(0.996749 0.0587477 -4.62584e-21)
(0.988318 0.0222243 -8.80126e-21)
(0.968729 -0.0141281 5.37164e-22)
(0.956632 -0.0346565 4.84132e-22)
(1.03403 0.107996 1.17507e-20)
(0.999117 0.017811 1.40837e-20)
(0.99878 -5.63328e-05 -2.42379e-23)
(1.00157 0.0205343 -2.17896e-20)
(1.17076 -0.0765956 -5.75902e-23)
(1.01523 -0.0157159 -8.99827e-24)
(1.00573 -0.0594251 1.07736e-22)
(1.0307 0.0660527 -1.82278e-21)
(0.955862 0.0959865 1.50335e-20)
(1.10638 0.0235525 1.21261e-20)
(1.04 0.102653 -1.92051e-20)
(0.980149 -0.0106 -6.43909e-22)
(1.00302 -0.0401733 -4.57308e-22)
(1.00011 -0.000102944 6.88664e-26)
(0.99915 -3.98488e-05 5.24308e-25)
(1.00059 -0.00752078 1.24496e-22)
(1.13898 0.0180244 1.8242e-21)
(1.13915 -0.116338 -6.47353e-22)
(1.0245 0.0914445 -2.23806e-20)
(1.00262 -0.0994816 1.02017e-21)
(1.02182 0.0341004 1.32071e-20)
(0.990846 -0.0479105 -1.07513e-22)
(1.09815 -0.0781071 4.38679e-23)
(0.990497 0.0622858 1.73441e-20)
(0.956274 0.003741 5.51475e-20)
(1.03175 0.0625992 3.13187e-20)
(1.00137 0.0765127 -2.6527e-20)
(0.954985 -0.0339023 -4.28645e-22)
(1.10166 0.126012 -7.24845e-21)
(1.01267 -0.0532407 1.70279e-21)
(1.10557 -0.00469291 1.04777e-20)
(0.996899 -0.00707437 -1.02916e-22)
(1.27503 -0.0957178 -3.38755e-21)
(1.17492 -0.0493336 2.79682e-21)
(1.0847 -0.0257116 2.94099e-21)
(0.999641 -7.61946e-05 1.76723e-24)
(0.988078 -0.000606257 2.97729e-22)
(0.952067 0.0979413 -2.31196e-20)
(1.16542 0.0465709 2.67485e-20)
(1.01449 -0.0209232 -7.03091e-23)
(0.971248 -0.0507856 -1.02616e-21)
(1.13317 -0.111992 1.89924e-22)
(1.08156 -0.17686 3.12797e-21)
(1.10274 0.139577 -1.5035e-21)
(0.994967 -0.0839364 -1.06149e-21)
(0.97471 -0.001825 -3.59869e-22)
(0.997728 -0.0654803 1.24229e-21)
(0.993303 -0.0279204 -1.25367e-22)
(0.999378 -6.61463e-05 -2.03637e-25)
(0.989857 -0.0456972 5.51591e-22)
(1.05181 -0.161345 -5.76573e-22)
(0.963788 0.0831826 3.04152e-20)
(1.26665 0.0306592 1.2087e-21)
(0.98013 -0.0232704 -7.27372e-22)
(1.0195 0.0357526 -2.0383e-20)
(0.957019 0.0596534 -3.81814e-21)
(0.990124 -0.0516905 1.18425e-22)
(1.00064 -0.000267792 -9.59694e-24)
(1.00577 -0.0770037 -1.1483e-21)
(0.995592 0.0539713 5.34789e-21)
(1.25756 -0.136131 -2.18725e-21)
(0.97661 0.0269641 -3.13085e-20)
(1.00004 -0.000110126 9.25238e-25)
(0.958536 -0.0381356 8.52528e-22)
(1.04746 0.125209 2.16922e-21)
(0.999417 0.0169935 2.86568e-20)
(1.03233 -0.0734739 -2.66884e-22)
(0.980684 -0.029721 4.84839e-22)
(0.938921 0.0880964 2.46075e-20)
(1.23999 -0.0675659 7.65123e-23)
(1.23854 -0.0373311 -2.19379e-22)
(0.971497 0.0804473 2.10365e-20)
(0.934728 0.0518662 -2.31877e-21)
(0.988822 -0.0534708 -3.64648e-22)
(1.04591 0.127837 -1.40025e-20)
(1.14633 -0.00682158 -4.92533e-21)
(1.00469 0.0331495 -3.72175e-20)
(1.0626 0.0762529 1.02673e-20)
(1.00066 -0.000196331 1.18735e-23)
(1.27358 0.0332654 -9.05035e-22)
(1.088 0.080102 6.01549e-21)
(0.996733 -0.000553912 1.03059e-23)
(1.00132 -0.105032 -4.16003e-22)
(1.23665 0.0290859 -1.41435e-21)
(1.15458 -0.178365 -1.20851e-21)
(1.2206 0.0471002 4.48536e-21)
(1.17895 -0.0292036 -1.79248e-21)
(1.00011 -0.000177378 -1.61675e-24)
(0.999569 -0.00323175 5.28417e-23)
(0.980756 0.0956796 -3.73208e-20)
(1.00131 -0.0135618 -2.70937e-23)
(1.01345 -0.125612 -1.19334e-21)
(0.992175 -0.0691311 1.25725e-22)
(1.1943 0.117243 -5.85111e-21)
(0.971847 -0.00420227 -7.13468e-23)
(1.03342 0.113925 1.34769e-20)
(1.1945 0.0169804 5.93025e-21)
(0.995307 -0.06604 7.29956e-22)
(0.958102 -0.0059834 -3.28141e-22)
(1.09901 0.0795495 1.08363e-21)
(1.19097 0.090229 5.0145e-21)
(1.00007 -0.000181346 -1.58944e-24)
(0.977178 0.0593639 3.11151e-20)
(1.04349 0.0751479 4.53227e-21)
(0.992749 0.0151216 -7.59428e-21)
(1.23791 -0.0993004 -1.03475e-21)
(0.999468 -6.33145e-05 -7.76012e-24)
(0.940193 0.0846678 -1.61693e-21)
(0.997079 -0.00486878 -8.78245e-23)
(0.994139 -0.0505854 2.33558e-22)
(1.19747 0.0884195 -2.11218e-21)
(1.24293 0.0229034 3.63436e-22)
(0.982419 -0.0537385 -8.82971e-22)
(1.23987 -0.0777882 1.00448e-21)
(1.02485 0.0399226 5.26376e-21)
(0.955339 0.00459545 2.00658e-20)
(1.01003 0.0873641 -2.83015e-20)
(1.16857 0.0227561 -7.80734e-21)
(0.909748 0.0192506 2.74588e-21)
(1.0003 -8.94025e-06 -9.95728e-25)
(0.991196 -0.027474 -1.37932e-22)
(0.999937 0.00971955 3.78652e-20)
(1.20092 -0.147335 4.35625e-22)
(1.08731 0.0763879 -1.41984e-20)
(0.98679 -0.0394313 -4.24432e-22)
(0.995334 0.0777991 2.64224e-20)
(1.18014 -0.000997793 3.84067e-21)
(1.00013 -0.00352183 3.09856e-23)
(1.17547 -0.00567927 -3.34527e-21)
(1.04845 0.0645275 -2.16932e-20)
(1.16327 -0.157453 -7.09755e-24)
(0.973019 0.0067204 -5.67972e-21)
(1.06279 0.113876 3.23533e-21)
(0.999355 -0.000301271 -1.15745e-24)
(1.03615 -0.019855 -5.57231e-22)
(1.1305 0.0975828 7.23724e-21)
(1.11255 0.000963612 1.6082e-20)
(0.998191 -9.22219e-05 2.80063e-23)
(1.05964 0.121714 -2.40862e-20)
(1.01299 -0.0472571 -1.33351e-22)
(0.892838 0.0520837 -1.46617e-21)
(1.02441 -0.100612 -2.09483e-21)
(0.96827 -0.0127929 2.20063e-22)
(0.98872 -0.000708046 -3.12042e-22)
(1.01115 0.0905305 3.15653e-20)
(1.05677 0.106288 -3.64864e-20)
(0.975686 -0.00262266 1.70188e-22)
(1.09718 0.0734293 3.82218e-21)
(0.979008 0.0801587 -9.10092e-21)
(1.00139 -0.0145529 -3.74696e-23)
(1.04552 0.0060531 5.34504e-21)
(1.02364 0.0169694 -1.48707e-20)
(0.898503 0.0292515 1.81531e-20)
(0.997476 -0.00407084 2.64552e-23)
(1.17249 0.0973536 -1.19418e-20)
(1.16981 -0.0545794 -7.25246e-22)
(0.949031 -0.0175738 -2.69984e-22)
(0.999642 -5.92373e-05 -1.34596e-24)
(0.999773 0.00541411 2.2808e-20)
(1.10889 0.143883 6.98245e-21)
(1.24633 6.93597e-05 -5.21105e-21)
(0.989147 0.0956337 -9.57839e-21)
(1.1636 0.0259922 3.86202e-21)
(0.97759 -0.0307377 3.44859e-22)
(1.10471 0.121776 -5.40566e-21)
(1.1151 -0.00153327 -2.69415e-21)
(1.15942 0.0431066 7.7063e-21)
(0.902827 0.0315307 -4.75006e-20)
(1.02629 -0.0879182 7.19269e-22)
(1.20612 0.0801786 2.69579e-21)
(0.991261 0.0197883 -1.9911e-20)
(0.969895 -0.0516413 9.30522e-22)
(1.14077 -0.0175025 3.96044e-22)
(1.06599 -0.144699 2.28864e-21)
(1.13303 0.0931297 -3.21145e-21)
(0.994743 -0.000177767 -4.43486e-22)
(1.10019 0.0111635 -2.66779e-21)
(1.24688 0.00777252 2.34278e-21)
(1.20869 0.0748731 6.59142e-21)
(1.00122 -0.00450392 8.33599e-23)
(1.09356 0.00759868 2.516e-20)
(0.997509 0.0118124 -1.90619e-20)
(1.05031 0.0454408 3.8898e-20)
(1.15428 -0.173625 -4.88552e-21)
(0.994506 -0.0263245 2.78317e-22)
(0.943021 0.0484249 -1.59595e-20)
(0.945643 0.0169884 -4.10294e-20)
(0.997402 -0.00662048 -2.24424e-23)
(0.960246 -0.0372696 3.88349e-22)
(1.01683 0.0663736 4.16463e-21)
(1.01817 -0.131714 -9.7561e-22)
(1.09195 -0.0813578 4.8924e-23)
(1.10119 0.134893 2.25764e-20)
(0.990457 -0.00046972 3.89284e-22)
(0.894716 0.0264367 3.0933e-20)
(1.03382 -0.0655695 -6.35383e-23)
(1.16251 0.104733 3.93937e-21)
(0.990945 -0.00958389 3.35023e-23)
(0.995912 0.0119271 -8.12745e-21)
(1.06622 0.111054 -6.71748e-21)
(1.08483 -0.0201237 -3.08152e-21)
(1.10569 -0.0877589 -1.79995e-22)
(1.24613 -0.026336 -4.99655e-22)
(1.21997 0.0577943 8.11549e-22)
(0.999626 -0.00498636 2.53494e-25)
(1.01375 0.0547904 -7.67976e-21)
(1.29049 -0.0391039 1.74597e-21)
(1.11017 0.0642845 1.6664e-20)
(0.894971 0.0548658 4.75639e-20)
(1.24799 -0.0942687 7.09023e-22)
(1.06977 -0.0749777 -3.23721e-22)
(1.00026 -0.00817116 -1.25141e-22)
(1.25222 0.0714454 4.97118e-21)
(1.25721 0.0195576 1.54864e-21)
(0.977019 -0.0237826 1.23882e-21)
(1.08518 0.124286 -2.16207e-21)
(1.00004 -0.00131514 -2.70431e-23)
(0.975584 -0.0414921 -1.88874e-22)
(1.01433 -0.0142687 2.03971e-23)
(1.23169 -0.0628563 -4.43527e-23)
(0.991042 -0.0438466 4.62878e-22)
(0.999622 -0.000128694 2.44986e-25)
(0.990116 -0.0569318 1.40114e-21)
(1.20782 0.09193 -3.51414e-21)
(1.16472 -0.166355 -1.75763e-21)
(1.04796 -0.0690605 -8.76795e-23)
(0.963826 -0.0257015 -7.02497e-22)
(1.22903 0.0274361 -4.85474e-21)
(1.17254 -0.0262139 3.24528e-21)
(0.977125 -0.053492 -4.67286e-22)
(0.952104 -0.00859512 1.02329e-21)
(1.00091 -0.0047093 -1.3697e-23)
(1.13037 -0.0777812 -7.34097e-22)
(1.02969 -0.141717 -1.52952e-22)
(1.01167 -0.00299079 -1.59217e-23)
(1.03553 -0.0700773 8.00129e-22)
(1.18638 0.0862727 -7.90671e-21)
(1.05176 0.0420654 -2.37465e-20)
(1.20646 0.0114295 1.31157e-21)
(0.999318 -0.000254977 1.87804e-24)
(0.932571 0.0931817 -3.59272e-20)
(1.01181 -0.0015348 -8.00464e-23)
(0.999969 -0.0014246 3.23703e-23)
(1.03907 -0.00990721 6.00052e-22)
(0.964083 -0.0375582 -6.31934e-22)
(1.01163 -0.091244 1.31089e-22)
(0.958269 0.0516229 -1.89473e-20)
(1.02427 -0.0539249 6.96343e-23)
(1.14168 -0.00609578 -2.30081e-21)
(1.02439 -0.122646 2.20594e-21)
(1.0214 -0.124828 -2.87309e-21)
(1.10406 0.131084 -1.56867e-20)
(0.996137 -0.0511537 -3.83912e-22)
(0.994304 -0.0800821 6.36912e-22)
(1.00312 -0.103279 9.50664e-22)
(0.99969 -4.20134e-05 3.30225e-24)
(1.1789 -0.0911668 -1.08405e-21)
(0.922875 0.0888907 -3.42408e-21)
(1.08379 -0.17058 7.97508e-22)
(0.962161 -0.0474154 -1.47013e-22)
(1.08457 0.119132 -2.88543e-22)
(0.983402 -0.0506381 -9.27867e-23)
(1.0624 0.0717696 -8.54264e-21)
(1.1788 0.12355 -1.20561e-21)
(0.996636 -0.0052094 1.40133e-22)
(0.998652 -0.000168283 -9.2263e-24)
(1.03949 0.0684037 2.66782e-21)
(0.90009 0.0674883 1.55097e-20)
(1.06708 -0.16967 2.08962e-22)
(1.14978 0.135459 2.08047e-21)
(1.21841 0.0958296 -9.44265e-21)
(0.967887 -0.0420482 -2.76746e-22)
(0.967902 -0.044172 -6.53401e-22)
(1.01827 0.0693051 -1.14322e-21)
(1.09896 -0.0103541 2.06778e-21)
(1.17508 -0.169529 3.70467e-21)
(1.0697 -0.138019 -1.80988e-21)
(0.979732 -0.00154895 4.42283e-23)
(1.06107 -0.0143849 1.34591e-21)
(0.943846 0.0260758 -7.11244e-21)
(1.14018 0.00902181 -1.45904e-20)
(1.00028 -8.18508e-05 1.56955e-24)
(0.966415 0.076202 3.28774e-20)
(1.03658 -0.0623668 -6.60327e-22)
(1.01303 -0.0928829 1.6208e-21)
(1.05083 0.12385 -1.26638e-20)
(1.01706 -0.0231833 -1.26366e-23)
(0.990196 -0.00915575 -1.09373e-22)
(0.999377 -0.000440701 -4.33502e-25)
(1.16052 -0.0672923 5.83049e-22)
(0.96558 -0.0196021 -5.24977e-22)
(1.00029 -1.44662e-05 1.71346e-24)
(1.15265 0.137618 -5.11275e-21)
(1.25966 -0.127465 -1.46898e-21)
(1.01178 0.0534672 -1.32677e-20)
(0.999327 -9.49496e-05 -2.45791e-24)
(1.00023 -0.00421625 -1.37271e-23)
(0.98233 -0.0519863 -4.44249e-22)
(1.00001 -9.35318e-05 1.66695e-25)
(1.06837 -0.174944 -1.06658e-21)
(1.19366 -0.16453 -1.6995e-21)
(0.999677 -0.00422426 1.08445e-23)
(1.0097 -0.0729409 -4.80329e-22)
(0.946409 -0.0146698 3.95669e-22)
(1.05006 0.112291 -1.38457e-21)
(0.987226 0.0944497 7.77612e-21)
(0.997042 -0.00443345 2.77982e-23)
(1.00309 -0.00109342 6.86923e-24)
(0.999492 -0.0978728 -2.48007e-21)
(0.983279 0.0858523 2.4846e-20)
(1.00492 -0.0331279 4.20636e-22)
(0.978623 0.0556808 -8.6568e-22)
(0.982173 -0.0117015 -4.52742e-23)
(0.89247 0.0426006 -1.29272e-20)
(1.03976 0.0136431 -2.91222e-21)
(1.13488 0.0605793 -1.69183e-20)
(0.912402 0.0537972 -1.4133e-20)
(1.28721 -0.0275085 1.80315e-23)
(0.990531 -0.00282474 -2.74374e-23)
(1.16218 -0.0539018 6.90911e-22)
(1.0092 -0.0342313 -4.72539e-23)
(0.989735 0.0853847 6.28913e-21)
(1.01713 0.0600437 1.80294e-20)
(0.97187 -0.00782203 2.46327e-22)
(1.26712 -0.0914684 3.41613e-21)
(1.12595 -0.0233779 -3.4344e-22)
(1.06702 -0.0794313 -5.32437e-22)
(0.995892 -0.000282905 -2.85573e-23)
(1.27549 -0.106145 3.35022e-21)
(1.00027 -3.32217e-05 2.55699e-24)
(1.04728 0.108871 7.91776e-21)
(0.945338 -0.0137718 -1.4714e-21)
(0.993372 -0.0638185 -2.45914e-22)
(0.99647 -0.0303921 2.74419e-22)
(1.00789 -0.0584074 1.72638e-21)
(1.15948 0.0999573 1.20611e-21)
(1.20308 0.016937 -4.92887e-21)
(0.998461 -5.33037e-05 -1.4329e-23)
(1.02712 -0.0517555 -4.8837e-22)
(0.99989 -0.000136867 7.6036e-25)
(0.894199 0.0395967 9.66705e-21)
(0.948434 0.0235033 1.46293e-20)
(0.995286 -0.00101005 -1.50836e-23)
(0.972897 -0.0126905 -2.80359e-22)
(1.03512 -0.0379299 1.51571e-22)
(1.01892 0.0630817 7.75116e-21)
(0.942706 -0.0223416 -8.16974e-22)
(1.22097 0.0997248 -2.07552e-21)
(0.964277 -0.0484996 1.79212e-22)
(1.00583 0.0868992 -5.6576e-22)
(1.13852 0.0648895 -1.91276e-21)
(0.964636 -0.0213947 -3.67656e-22)
(0.903183 0.0212288 -1.98339e-20)
(1.05366 -0.00248776 -1.23403e-21)
(1.01415 0.0919111 -1.68589e-20)
(0.992883 -0.0138038 1.7291e-23)
(1.03202 -0.150606 4.56027e-21)
(0.978194 0.00405457 -4.75725e-20)
(1.01543 -0.0429915 4.42615e-22)
(0.897844 0.0721213 -7.03652e-21)
(1.02788 0.0735166 9.91351e-22)
(0.905975 0.0238031 -4.75012e-21)
(0.990991 -0.00292539 1.9396e-23)
(0.992654 -0.000530573 9.01093e-23)
(1.03151 -0.0941812 -4.64937e-22)
(1.17338 -0.0417198 -3.95341e-21)
(1.01576 -0.0230062 1.0464e-23)
(1.03029 -0.0849731 -1.53782e-22)
(1.01018 0.0812723 1.52892e-21)
(1.00479 0.0940334 5.23411e-21)
(1.04145 0.00255376 4.39186e-24)
(0.986181 0.0837733 -1.77568e-20)
(0.905577 0.0773632 3.85132e-21)
(1.13702 0.111828 1.32355e-20)
(0.999111 0.00607217 -3.26485e-20)
(1.04669 0.0353518 -7.48933e-21)
(1.00543 -0.0175146 -2.59542e-22)
(1.03641 0.070315 -8.78218e-22)
(0.992689 -0.0795558 -5.50747e-22)
(0.965969 -0.0473349 4.69997e-22)
(0.99875 -0.00121993 2.05727e-24)
(1.06036 -0.0796385 1.22984e-21)
(1.12279 -0.151992 -5.36538e-22)
(1.08413 0.0415482 6.24877e-21)
(1.08709 -0.00938373 3.82539e-21)
(1.00241 0.0290452 2.67585e-21)
(1.01012 -0.0501197 1.03843e-21)
(1.12868 -0.0141292 2.117e-21)
(1.00362 0.0227391 -3.12035e-21)
(1.01045 -0.0358741 5.53113e-22)
(1.10218 -0.0921327 4.41234e-22)
(0.999921 -0.000163238 -6.50827e-26)
(1.00046 -0.00022275 2.12869e-24)
(1.08293 0.0375081 -3.29334e-23)
(0.994389 -0.0686741 -7.12157e-22)
(0.971884 -0.0441607 7.42885e-22)
(1.0005 -0.0002124 -3.11651e-24)
(1.00008 -0.0029239 1.94573e-23)
(1.12524 -0.0276375 -5.93867e-22)
(0.999486 -6.34728e-05 4.3837e-24)
(1.25525 0.0504397 -2.7947e-22)
(0.896523 0.0318735 2.49904e-20)
(1.14449 0.137927 7.85847e-22)
(1.11793 0.0742353 -5.15157e-22)
(0.96813 -0.00760079 -3.80457e-22)
(1.02982 0.097665 6.1403e-21)
(1.24543 0.0764029 -2.68296e-21)
(1.00539 -0.0308646 -2.48581e-23)
(0.973449 -0.0141822 -2.7606e-22)
(0.997471 -0.00376591 9.57388e-26)
(0.999324 -0.000390757 -4.5739e-25)
(1.00184 -0.00479216 -3.15461e-23)
(0.997152 -0.0322927 2.3732e-22)
(1.04839 -0.149277 2.47366e-21)
(1.1024 0.0917311 1.95038e-20)
(1.20037 -0.040375 5.75903e-22)
(0.965955 -0.0034767 9.32092e-23)
(0.999898 -0.000101516 5.03473e-26)
(1.00106 0.0537303 1.7857e-20)
(1.2644 -0.0108993 -8.63605e-22)
(1.27549 -0.0638296 6.53951e-22)
(1.0179 -0.0441872 -4.92591e-22)
(1.22446 0.0760733 4.11746e-21)
(1.05847 -0.0827429 -3.99346e-22)
(0.984446 -0.000834497 -7.18429e-23)
(1.00217 0.0184119 1.568e-20)
(0.980035 0.000759319 -6.12098e-20)
(1.06952 0.135592 -1.65649e-20)
(0.990507 -0.000383013 -2.60562e-22)
(1.06673 0.134839 1.28584e-20)
(0.969292 -0.00541763 1.42592e-22)
(0.986221 -0.0472863 -5.66826e-22)
(1.12932 0.13047 -1.49229e-20)
(1.00026 -0.000100905 2.93808e-24)
(0.990204 -0.0307478 -7.40421e-23)
(1.17167 0.102169 4.10853e-21)
(1.13288 0.101919 1.52565e-20)
(0.965911 -0.0231667 -8.85188e-23)
(1.0228 0.0632194 1.18469e-21)
(0.959559 0.0985041 -1.56323e-21)
(1.01535 0.0305965 -3.61321e-20)
(0.962204 -0.038517 9.88501e-22)
(0.953185 -0.00850949 -4.96232e-22)
(1.05156 -0.06529 -7.66303e-23)
(1.11888 -0.0020457 4.25475e-22)
(1.02224 0.0140681 -8.81839e-21)
(0.995416 -0.00139202 -6.9504e-24)
(0.975006 0.00958713 -1.78136e-20)
(0.993412 -0.0482732 1.26388e-21)
(1.03706 -0.150195 -3.09709e-21)
(1.15813 -0.048124 9.09851e-22)
(0.929143 0.0949814 5.10744e-20)
(1.10397 0.0971272 -1.61147e-20)
(1.01403 0.0602775 -1.89509e-20)
(1.20275 -0.157394 8.41086e-22)
(0.964101 0.00223783 -2.72228e-20)
(0.967459 -0.0193557 5.26888e-22)
(0.9876 -0.0454856 4.09928e-22)
(0.925605 0.0110115 9.50987e-21)
(1.08147 -0.0283321 -9.33186e-22)
(1.04825 -0.13819 -4.3062e-22)
(1.01564 0.0849496 -3.87932e-21)
(1.00429 0.0834616 -1.19026e-20)
(0.97733 -0.040076 -6.74525e-22)
(1.02715 0.0183814 -1.99473e-20)
(0.98373 0.0895004 -3.29899e-21)
(1.00515 0.0773244 1.55488e-20)
(1.04058 0.114856 5.08351e-21)
(1.01189 0.0849618 2.50694e-20)
(1.05854 0.0787523 -1.33586e-20)
(0.986864 -0.00358593 1.26582e-22)
(0.9686 -0.0210173 6.41308e-22)
(1.00285 -0.00770364 -1.64996e-23)
(1.01556 -0.123195 3.22133e-21)
(0.993691 0.0210897 -4.60199e-21)
(1.02161 -0.130224 1.88059e-21)
(1.18947 0.0966645 -3.74385e-22)
(1.15903 0.0558515 -9.92087e-21)
(0.972777 -0.0512333 5.24594e-22)
(1.24811 0.0481636 2.35741e-23)
(1.17903 0.115395 -3.97616e-21)
(0.992608 0.00858991 -1.40768e-21)
(1.23882 0.0374564 1.85745e-21)
(0.999697 -0.00353237 -5.83121e-24)
(1.06459 -0.0140082 7.62242e-23)
(0.985686 -0.0510557 2.76712e-22)
(1.24882 -0.0620578 1.08884e-22)
(1.2666 -0.0596253 -1.22986e-21)
(1.02568 -0.138345 6.16846e-22)
(1.04169 0.110257 2.87679e-21)
(0.974458 0.0965425 2.6306e-20)
(1.18572 -0.0243808 2.21174e-21)
(0.997191 0.00740621 1.44507e-20)
(0.898686 0.0632597 -1.72983e-20)
(0.998566 -0.000101699 6.24011e-24)
(1.00342 -0.00111652 4.86238e-25)
(0.996672 -0.00575034 -6.23957e-23)
(0.97269 -0.008283 8.26814e-23)
(1.08442 0.0870918 -1.03935e-20)
(0.925466 0.0125566 -2.06466e-20)
(1.14227 0.0127258 1.25793e-20)
(1.03144 0.104599 3.68709e-21)
(0.981942 -0.0241757 -3.69884e-22)
(1.07643 0.12508 2.18358e-20)
(1.0729 0.132296 6.97931e-21)
(1.25279 -0.118346 5.21108e-22)
(0.958236 -0.0120436 4.99612e-22)
(0.944119 -0.0210659 5.06725e-22)
(1.19373 0.100763 9.99157e-22)
(1.01334 -0.0440615 2.05911e-22)
(1.1987 -0.0351484 1.01991e-21)
(0.969775 -0.0408892 1.47941e-22)
(0.950424 -0.0400169 -1.38594e-21)
(1.0219 0.0878616 2.77128e-20)
(0.992037 -0.00247689 5.57736e-23)
(1.02819 -0.0592611 -1.26826e-22)
(1.00625 0.0925935 1.29796e-20)
(1.24641 0.0397279 7.42194e-21)
(0.937572 0.0804335 5.81299e-21)
(1.01864 -0.0877709 -8.21241e-22)
(1.04423 0.0120398 9.54863e-21)
(1.25766 -0.0664327 1.51674e-21)
(1.00125 -0.0725437 2.82226e-22)
(0.978295 0.00719657 -6.54392e-21)
(0.989995 0.00047358 3.96698e-20)
(0.990281 0.028203 -7.14823e-21)
(0.994124 -0.0343425 -5.53616e-22)
(0.938436 0.0157811 2.24926e-20)
(0.964215 -0.0353827 4.99725e-22)
(0.972626 0.0715666 8.26347e-22)
(1.12782 -0.0627263 -3.41226e-22)
(0.986701 0.0453413 -4.05761e-21)
(0.982675 -0.0486516 3.48224e-22)
(1.00004 -0.000229989 -2.33534e-25)
(0.98673 0.0397909 1.34627e-20)
(0.970602 0.0642031 1.56792e-20)
(0.974956 0.0780203 -2.51841e-20)
(0.987945 0.0343185 -1.56703e-20)
(1.07607 0.0059844 -3.36406e-20)
(1.13731 -0.0147792 -1.48201e-22)
(1.07205 0.0760166 -2.58513e-20)
(1.0449 -0.133974 1.08528e-21)
(0.996511 0.016854 4.71466e-20)
(1.02242 0.0565762 -2.35023e-20)
(1.25784 -0.0160854 1.08546e-21)
(1.09031 -0.0121911 -4.04869e-21)
(0.987274 -0.00339931 6.996e-23)
(1.2931 -0.021507 -1.10188e-22)
(1.02828 0.0907779 -4.6889e-21)
(0.951219 -0.030965 3.47099e-23)
(0.969388 -0.00459575 -4.16359e-22)
(0.991695 0.00451753 -9.35826e-21)
(0.981671 0.0486942 -2.8884e-20)
(0.99033 -0.0554593 -5.69581e-22)
(0.989592 0.0531501 2.11182e-20)
(1.0287 -0.146804 1.08308e-21)
(1.2234 0.069984 -6.80844e-21)
(0.993929 -0.000302117 -4.33332e-23)
(0.976207 0.0523613 -1.62438e-20)
(0.969904 0.0568207 4.13411e-20)
(0.903921 0.0353363 3.86267e-20)
(0.980362 0.0919479 3.4277e-20)
(0.997001 -0.000355799 -2.79083e-24)
(0.982136 -0.0262406 2.43601e-22)
(0.998583 -0.00125629 -1.71482e-23)
(0.997556 -0.0761318 -2.29434e-21)
(0.938258 0.0623792 -8.27591e-21)
(1.13182 0.082558 -2.21271e-20)
(1.03701 0.0995921 -2.75574e-22)
(0.950919 -0.0383456 8.91807e-22)
(1.04707 0.0385686 2.35172e-20)
(1.03744 -0.0369585 -2.104e-22)
(0.937523 0.0717528 1.19849e-20)
(1.09245 -0.0999553 -3.45219e-22)
(0.995464 0.00649848 1.59846e-20)
(0.994098 -0.000299126 -3.05461e-23)
(0.946806 0.0587972 -2.77234e-20)
(0.929349 0.0760143 -3.34219e-20)
(0.98035 -0.0274825 -6.3814e-22)
(1.18777 0.0428696 4.70031e-21)
(0.948349 0.0496628 -2.76504e-20)
(0.996422 -0.000545267 1.80361e-24)
(0.920061 0.0354626 -4.34489e-21)
(1.04892 -0.0732362 1.36462e-22)
(0.996509 -0.000365105 6.62683e-24)
(0.956466 -0.0133276 -3.51188e-22)
(1.01426 0.0953969 -1.64771e-20)
(1.15666 0.0732548 -1.29058e-20)
(1.01002 -0.103303 1.45829e-21)
(0.993583 0.0925886 1.34767e-21)
(0.924457 0.0852953 2.21933e-21)
(1.07249 0.127768 -2.36848e-20)
(1.05752 -0.0108262 -7.01456e-22)
(0.999844 -0.0674859 4.45497e-22)
(1.15761 -0.0612113 -8.19645e-22)
(0.982484 0.0550435 2.37993e-20)
(0.928566 0.0357317 -2.51123e-21)
(0.899223 0.0340891 2.49723e-21)
(1.13028 0.0718132 3.42077e-21)
(1.00057 -0.0103522 2.68103e-23)
(0.977601 -0.00172781 -9.29285e-25)
(1.03082 0.0937128 -1.66552e-20)
(1.00199 -0.00801679 1.92608e-23)
(0.984377 -0.00527658 -8.67528e-25)
(1.00317 -0.0126201 -1.24892e-23)
(0.994 -0.0299712 -2.72421e-22)
(1.09367 -0.148853 1.93112e-21)
(1.18982 -0.144859 -1.13511e-21)
(0.961428 0.0768898 -3.66713e-20)
(1.02087 -0.0489365 1.78314e-23)
(0.998933 -0.00100968 1.03937e-23)
(1.02883 0.0591966 -3.68198e-22)
(1.15285 0.100844 1.07159e-20)
(1.00199 -0.0127837 -3.0453e-23)
(1.19955 0.0811798 -5.70262e-21)
(1.00186 -0.00134164 2.47171e-24)
(1.14746 0.0561675 1.16085e-21)
(1.01545 0.0322232 2.53271e-20)
(0.987345 0.0508478 -4.09535e-20)
(1.1543 -0.153073 1.33125e-21)
(1.17079 0.0432285 -6.5899e-21)
(0.993775 -0.0141389 -4.5278e-23)
(1.12552 -0.099168 5.21924e-23)
(0.995068 -0.00173465 -2.79789e-24)
(0.978849 0.0620992 -4.21607e-20)
(0.95985 0.0747874 1.13357e-20)
(1.22327 -0.148237 9.98103e-22)
(1.18403 -0.161608 1.09534e-21)
(1.14471 -0.168551 4.02738e-21)
(1.03478 -0.0869504 6.67386e-22)
(0.990105 0.088758 2.839e-21)
(1.03749 -0.0791984 3.95187e-22)
(1.11585 -0.138299 6.01433e-22)
(1.07918 -0.164019 -9.56844e-22)
(1.11805 -0.0871178 -1.72453e-22)
(0.91196 0.0354807 2.11578e-20)
(1.14834 -0.186299 -7.40027e-21)
(1.24046 0.0134682 -4.34824e-22)
(0.9852 0.0166612 8.18743e-21)
(0.995109 -0.000418891 2.87926e-23)
(1.19236 0.022263 2.573e-21)
(1.03987 -0.0710833 -5.49852e-22)
(1.07876 -0.150456 1.6345e-21)
(0.995531 -0.00105155 -2.42385e-24)
(0.999705 -0.00298986 -1.67015e-23)
(0.912082 0.0449723 -3.60684e-20)
(1.05476 0.0408324 1.8001e-20)
(1.21954 -0.157399 4.17047e-21)
(1.28786 0.00624744 2.82255e-22)
(1.05732 0.06941 -9.71576e-21)
(0.992946 0.0520653 -3.31621e-21)
(1.02488 0.0599863 7.15573e-21)
(1.22999 -0.0831643 -1.31157e-21)
(0.983572 -0.0547178 9.546e-22)
(0.994673 -0.0462127 -3.32785e-22)
(0.986982 -0.0493603 -8.91365e-23)
(1.03634 0.0611024 -2.38201e-20)
(0.969355 -0.00585357 3.95474e-22)
(1.00471 -0.0687442 6.622e-22)
(0.999684 -4.30797e-05 -1.27008e-24)
(0.970424 -0.0206421 -1.06476e-21)
(0.997703 -0.000623319 1.99922e-25)
(1.1159 -0.155262 1.42584e-21)
(1.009 0.0929155 -1.54259e-20)