/*--------------------------------*- C++ -*----------------------------------*\
  =========                 |
  \\      /  F ield         | OpenFOAM: The Open Source CFD Toolbox
   \\    /   O peration     | Website:  https://openfoam.org
    \\  /    A nd           | Version:  7
     \\/     M anipulation  |
\*---------------------------------------------------------------------------*/
FoamFile
{
    version     2.0;
    format      ascii;
    class       volVectorField;
    location    "22";
    object      U;
}
// * * * * * * * * * * * * * * * * * * * * * * * * * * * * * * * * * * * * * //

dimensions      [0 1 -1 0 0 0 0];

internalField   nonuniform List<vector> 
30084
(
(1.01046 -0.0125981 4.68021e-23)
(1.00827 0.00361325 1.82765e-22)
(0.990911 -0.00338075 -2.83149e-22)
(0.971961 -0.054226 9.45327e-23)
(0.99763 -5.09706e-05 3.96697e-23)
(0.955638 -0.0340735 -1.42545e-22)
(1.0692 -0.0655721 9.21345e-23)
(1.01416 -0.0188773 -4.92343e-24)
(1.00194 -0.00186209 6.35723e-24)
(1.00018 -4.75559e-05 1.65917e-24)
(1.01656 -0.0252576 1.15878e-24)
(0.998483 -0.0162496 -9.43643e-23)
(0.999537 -0.000189163 5.40555e-24)
(0.999971 -1.0358e-05 1.50949e-25)
(1.10144 0.0916516 6.17549e-22)
(0.994077 -0.00194017 4.31042e-23)
(0.999848 -0.000823826 -2.40399e-24)
(1.11343 0.0213152 -5.43122e-23)
(0.997938 -0.0017568 -1.35064e-23)
(0.989184 -0.00081949 -6.33187e-23)
(0.999168 -0.000266199 -1.84713e-23)
(1.00183 -0.00185994 2.22737e-23)
(0.990823 -0.00357745 3.12907e-22)
(0.997923 -0.000167026 1.74565e-23)
(0.913255 0.0883458 7.25573e-23)
(1.00904 0.00286143 9.8197e-22)
(0.9995 -5.68605e-05 1.2323e-23)
(0.95531 0.0739472 -4.95969e-21)
(1.10465 0.0927502 -1.61983e-21)
(0.999391 -0.00882498 -1.80852e-23)
(1.01463 -0.00988057 3.21019e-23)
(1.03349 -0.00416687 -2.35121e-22)
(0.995081 -0.127682 9.54054e-22)
(0.999179 -0.0225476 4.6578e-23)
(0.953698 0.0705157 3.98162e-21)
(1.00551 -0.0316604 1.20037e-22)
(1.05214 0.043598 -3.27777e-22)
(0.972325 -0.0300361 3.77788e-22)
(1.00506 -0.000774683 -8.59635e-23)
(1.00488 -0.000547661 1.63283e-22)
(1.00042 -0.000158496 -5.13733e-24)
(0.990399 -0.0310375 -3.47939e-22)
(0.999866 -0.000800453 -3.24691e-26)
(1.03537 -0.0668763 -4.50193e-22)
(1.00003 -5.35663e-06 -3.21383e-25)
(0.999589 -0.00894369 1.37443e-23)
(0.997884 -0.0120672 -2.71922e-23)
(1.00007 -8.17847e-05 8.40163e-25)
(1.00321 -0.00346886 -9.06706e-23)
(1.05242 0.0414614 -1.34874e-22)
(1.12908 -0.0540823 5.33874e-23)
(0.974986 -0.0472291 -4.3435e-22)
(1.03323 -0.00341425 8.23175e-23)
(0.95716 -0.0336832 -2.329e-22)
(0.994225 -0.00199026 -3.78699e-23)
(1.10946 0.0873062 -1.00685e-21)
(0.996733 -0.0022049 1.34061e-23)
(0.999144 -0.000293559 2.33978e-23)
(1.00091 -0.0210993 -6.2753e-23)
(1.01658 -0.0565108 -2.19092e-22)
(0.999937 -6.93282e-06 3.5202e-25)
(0.998011 -0.00179891 -2.78105e-24)
(1.17657 0.0752025 3.12232e-22)
(1.00578 -0.0308644 -6.48516e-23)
(1.04122 0.088342 2.54813e-21)
(0.931729 0.0244926 9.78835e-21)
(1.00047 -0.0267585 -1.23865e-22)
(0.993222 -0.0137893 1.27175e-22)
(0.948864 0.0156286 3.93908e-21)
(1.00044 -0.000149855 3.32375e-24)
(1.01038 0.00346715 -1.33889e-21)
(0.988721 0.0623422 2.79068e-21)
(1.00326 -0.00861759 -3.6879e-23)
(0.929263 0.101602 2.71422e-21)
(0.992113 -0.000634337 1.99866e-22)
(1.11255 -0.0190653 8.32449e-23)
(1.12617 0.132884 2.24635e-21)
(0.972801 -0.0169631 9.06735e-23)
(0.999952 -2.15343e-05 -1.00062e-24)
(1.00788 -0.0473272 -2.2129e-22)
(0.956284 -0.00078914 -1.55324e-22)
(1.01707 0.0342637 7.70519e-22)
(1.0107 -0.0131407 -1.40843e-22)
(1 -6.01859e-05 8.38405e-26)
(1.071 -0.0629026 -1.31436e-22)
(1.24961 -0.0497173 -5.52899e-22)
(1.02394 0.076508 -4.67975e-21)
(0.999518 -0.00018643 -4.89518e-24)
(0.999551 -0.000168549 -1.4345e-24)
(0.932344 -0.0453937 -6.26386e-22)
(0.998184 -0.0535466 4.55272e-22)
(0.972727 -0.017774 1.02012e-22)
(1.00302 -0.00358865 1.55421e-23)
(1.05282 -0.00360437 -1.44238e-22)
(0.924244 -0.0195238 -5.23231e-22)
(1.02924 0.0911822 2.35799e-21)
(1.00309 -0.0696486 7.38896e-22)
(1.00045 -0.000370836 8.3056e-24)
(0.974581 -0.0682955 -8.48405e-22)
(1.09315 0.104863 2.68391e-21)
(0.99995 -2.11253e-05 1.46402e-24)
(0.97397 -0.011006 -5.43679e-22)
(0.999939 -8.51212e-06 -1.81747e-25)
(1.04355 -0.0136199 -7.29998e-22)
(0.973481 -0.0472062 2.90034e-22)
(1.0307 0.0127251 1.41466e-21)
(1.00131 0.0600608 4.30652e-21)
(0.999569 -0.000170593 -1.2136e-23)
(0.999995 -6.68721e-05 -2.08027e-26)
(1.01213 -0.11825 -4.39029e-23)
(0.992194 -0.126676 -8.58943e-22)
(1.04411 -0.0337411 7.69719e-23)
(1.00002 -1.88525e-06 5.53667e-26)
(0.99898 -0.00596963 -4.8672e-23)
(0.999902 -0.00212009 1.86671e-24)
(0.990836 0.0638592 1.21729e-23)
(1.03142 0.0496622 -1.66825e-21)
(0.988519 -0.00732367 -2.15348e-22)
(1.00002 -6.58136e-05 7.71166e-26)
(1.00356 -0.00851802 -2.7948e-23)
(1.22805 0.049086 -1.98175e-22)
(1.00548 0.0109745 2.13865e-21)
(1.16282 -0.00897054 2.30887e-22)
(0.930323 0.0299495 -9.28511e-21)
(1.00105 -0.000342968 -2.10448e-23)
(1.14662 0.00432672 -1.60633e-22)
(1.1109 0.0236218 -2.98217e-22)
(1.02068 -0.0535645 1.53025e-22)
(1.00383 -0.00328208 -8.0645e-23)
(1.00002 -0.000423382 1.39344e-25)
(1.0345 -0.0648933 1.58761e-22)
(1.12891 0.130854 1.26133e-21)
(0.999193 0.109021 5.33937e-21)
(1.17475 -0.0204885 -5.41424e-24)
(1.04212 -0.0135887 6.16592e-22)
(1.01421 -0.00952255 6.08274e-22)
(1.04357 0.138046 3.9366e-22)
(0.972604 -0.000814237 8.00661e-22)
(1.18436 -0.161474 2.27537e-21)
(1.09502 0.101868 -2.02808e-21)
(1.14379 0.00743931 1.89624e-22)
(0.938453 -0.00564952 -6.68149e-22)
(0.95159 -0.0479711 1.92556e-22)
(1.00002 -1.6791e-06 -2.3641e-26)
(0.999989 -3.2947e-06 8.06527e-26)
(0.997568 -8.43561e-05 -3.13913e-23)
(0.998056 -0.0118135 5.55516e-23)
(0.992753 -0.0950709 -6.40181e-22)
(1.16539 -0.1112 8.47312e-22)
(1.16832 0.111546 1.46498e-21)
(1.02928 -0.0157334 3.20733e-22)
(1.01767 -0.0177551 1.07072e-22)
(1.00042 -0.000600748 1.28102e-23)
(0.999874 -0.000213764 1.39544e-24)
(1.00145 0.0227412 -4.57002e-21)
(1.00052 -0.00147362 1.49132e-24)
(0.99371 -0.0111921 1.11001e-25)
(1.05224 0.140056 -1.17916e-21)
(1.00377 0.0401921 -4.83531e-21)
(1.13061 -0.0496059 -5.04914e-23)
(0.95842 -0.00298439 2.69141e-22)
(0.972917 -0.0529877 6.67275e-22)
(1.10847 0.0907222 2.63801e-22)
(0.999952 -4.4245e-05 3.16307e-25)
(0.999988 -3.17355e-06 -3.02623e-26)
(0.988474 -0.00769951 7.63056e-23)
(0.952848 -0.0468857 -1.03413e-21)
(1.00005 -0.000217197 -8.20818e-25)
(1 -6.38937e-05 2.76033e-26)
(0.99346 -0.00505466 -2.51574e-23)
(1.00003 -0.000410869 -1.13146e-25)
(1.00552 -0.0055944 -4.53032e-23)
(1.04956 0.142026 1.39312e-21)
(0.973016 -0.000426907 -6.59497e-22)
(1.06186 -0.107183 -2.2237e-22)
(0.995104 -9.65239e-05 1.28175e-22)
(1.00203 -0.00257533 4.74425e-24)
(0.973232 -0.0108378 9.19568e-22)
(0.999267 -0.00595002 -4.37456e-24)
(1.1623 0.00131618 -3.10753e-22)
(0.999979 -9.65309e-06 4.93525e-25)
(1.0152 -0.0363803 -5.74843e-23)
(1.02547 0.0781421 1.67613e-21)
(0.993483 -0.0127952 -7.50726e-24)
(1.17613 -0.160143 -2.10803e-21)
(1.02473 0.0422984 -1.46348e-21)
(0.993904 -0.00278209 -1.85758e-22)
(0.982431 -0.0156661 2.35426e-22)
(1.00363 -0.00330145 1.2293e-22)
(0.999433 -0.00822095 -2.67266e-23)
(0.999734 -7.15424e-06 1.40182e-24)
(1.00638 -0.0169606 2.55185e-23)
(0.92647 0.0149877 3.87052e-21)
(1.00098 0.0189884 3.51696e-21)
(0.985982 -0.00624103 6.08784e-24)
(0.993998 -0.0110137 -7.96925e-23)
(0.982659 0.0340748 -3.71768e-21)
(1.01118 0.0270099 6.61305e-22)
(0.925932 -0.019275 6.35922e-22)
(1.0011 -0.000461548 -1.64695e-23)
(1.08789 -0.0813667 2.5131e-22)
(0.976486 -0.0913993 8.7066e-22)
(0.998769 -0.0165674 4.51747e-23)
(1.0008 -0.00101201 -2.62605e-23)
(1.04527 0.140784 5.76276e-22)
(0.993673 -0.00506287 -1.6892e-23)
(1.0064 -0.00499365 -5.05661e-23)
(0.990696 -0.0948036 8.49373e-22)
(1.01298 -0.121384 1.11783e-22)
(0.999965 -4.94854e-06 1.19973e-25)
(0.979899 0.0883875 -4.64026e-21)
(0.999014 -2.24563e-05 -3.04929e-25)
(1 -5.14043e-05 2.46683e-26)
(0.999481 -0.000198566 2.08772e-24)
(1.00123 -0.0534353 -1.65594e-22)
(1.16256 0.0828385 -1.18256e-21)
(1.01605 -0.0355138 1.22562e-23)
(1.0062 -0.0046674 -3.46963e-23)
(0.997946 -0.000230298 4.33049e-23)
(0.927444 -0.0214672 -1.17584e-22)
(1.00003 -0.000450241 -1.99257e-25)
(1.00046 -0.0015034 1.54224e-25)
(0.997786 -0.000195251 -2.8604e-23)
(1.02405 0.00132629 1.30763e-21)
(0.997506 -0.00380177 -8.98598e-24)
(0.998993 -0.00554693 1.44681e-23)
(1.02438 -0.000978667 6.56946e-22)
(1.00012 -0.000367979 1.28235e-24)
(1.00003 -4.58769e-06 8.38118e-26)
(1.00467 -0.000558716 1.75898e-23)
(0.976874 -0.0339835 -3.41267e-22)
(0.976074 -0.000416003 -3.17237e-22)
(0.995406 -0.00036671 -1.365e-22)
(1.01123 0.00272481 1.10894e-21)
(0.984613 -0.0011463 1.50044e-22)
(1.01782 -0.0171308 -1.02449e-22)
(0.99997 -1.15524e-05 4.25423e-25)
(0.997199 -0.00251102 -5.15989e-23)
(1.00075 -0.00100415 2.8394e-23)
(1.08613 -0.0778449 2.42596e-22)
(1.09508 -0.185323 1.78614e-21)
(0.998685 -0.000118922 2.25447e-23)
(1.00044 -0.000534418 -9.86022e-24)
(0.998898 -0.00541544 -4.95802e-24)
(1.00343 -0.00760262 -6.85942e-23)
(0.989405 -0.000604214 -2.68303e-22)
(0.999954 -4.20949e-05 -2.0238e-26)
(1.24204 -0.0493996 -1.08132e-21)
(1.00004 -0.000460541 2.3018e-25)
(1.02371 0.00120956 -9.20754e-22)
(0.996838 -0.00220784 -2.70024e-23)
(1.00014 -0.000356587 5.41447e-25)
(1.02978 0.0129514 -8.99511e-22)
(0.970295 -0.0880652 -9.17382e-22)
(1.00024 -4.03526e-05 5.45338e-24)
(1 -1.1854e-05 1.67665e-26)
(0.938262 -0.00404488 -7.61361e-22)
(1.07179 -0.173926 -2.65214e-22)
(0.991773 -0.00810042 -2.00602e-23)
(1.01997 -0.0549769 -4.14694e-23)
(1.03013 -0.0162565 -5.26417e-23)
(1.0298 0.0765818 2.04521e-22)
(1.00008 -7.72133e-05 2.32393e-25)
(0.97732 -0.033213 3.22544e-22)
(1.20061 0.0208643 -2.04558e-22)
(0.968282 0.048012 9.21139e-23)
(0.993388 -0.0125134 5.95171e-23)
(1.02398 0.0409519 1.77595e-21)
(1.11152 -0.0159007 6.57727e-23)
(0.999898 -0.00233259 -1.98873e-24)
(0.859507 0.043273 5.72008e-21)
(0.999484 -0.0004177 -1.40684e-23)
(1.06201 -0.111009 -3.04611e-22)
(0.928734 -0.0214117 7.78093e-22)
(1.00215 -0.0024328 -2.6041e-23)
(1.15939 0.0453916 7.57107e-22)
(0.991703 -0.000920434 -1.59386e-22)
(1.00073 0.117082 3.69034e-21)
(0.996672 -0.00025519 1.24583e-23)
(0.983014 -0.0168751 -1.23046e-23)
(0.999814 -0.00212016 -1.18202e-23)
(1.07718 0.121038 6.0083e-22)
(1.00062 -0.0166811 1.09836e-23)
(1.02687 0.0914373 1.42876e-22)
(0.999514 -4.37336e-05 -5.39991e-24)
(0.994379 -0.00184143 -5.96698e-23)
(0.967171 0.106913 -2.35788e-21)
(1.02846 0.0012771 -1.10279e-21)
(1.0242 -0.000671961 7.62264e-22)
(0.972484 -0.0437176 8.12333e-22)
(0.999855 -3.13442e-05 1.4191e-24)
(1.00333 -0.00734045 -7.87766e-24)
(0.999845 -0.000900288 -4.30054e-24)
(1 -4.86981e-05 2.05972e-26)
(1.0497 0.00939111 3.23707e-22)
(1.00004 -5.07733e-06 8.69627e-27)
(0.980514 -0.0150497 5.59009e-22)
(1.19931 0.016462 1.61495e-22)
(0.911501 0.0923771 -5.67457e-21)
(1.0015 0.109416 -8.21819e-21)
(0.972795 -0.0753517 2.80921e-22)
(0.987611 -0.0304041 1.95442e-22)
(0.977277 -0.00159583 1.50942e-22)
(1.03557 -0.032288 2.34838e-22)
(1.00691 -0.0166944 -4.27836e-23)
(0.982339 -0.0164211 -3.25145e-22)
(0.974505 -0.0827745 1.23441e-22)
(1.0283 0.0782377 -3.17114e-21)
(0.99951 0.0157747 6.07261e-21)
(0.998772 -0.000145036 1.24331e-23)
(1.0024 0.0607408 -5.94323e-21)
(1.04915 0.00799159 1.15147e-22)
(1.16534 -0.00408282 -6.15674e-23)
(1.01344 -0.0144566 4.8447e-23)
(1.00155 -0.0152864 -4.85709e-23)
(1.02709 -0.0487763 -8.25303e-23)
(0.99479 -0.00177763 -1.4071e-22)
(0.997435 -0.000637592 -9.14537e-24)
(0.999942 -6.73397e-06 1.8607e-24)
(0.999283 -0.00842906 3.95459e-23)
(1.09454 -0.0242674 4.46884e-23)
(1.07697 0.124221 -9.86883e-22)
(1.00155 -0.00132071 1.22562e-23)
(0.97335 -0.0280584 -4.48681e-22)
(1.01525 -0.0146237 -1.5381e-22)
(0.999963 -1.59298e-05 -1.62481e-25)
(0.97358 -0.078909 -4.4577e-22)
(0.890873 0.0728696 -2.54538e-21)
(0.994003 -0.00475102 2.08623e-22)
(0.998985 -0.00443163 1.31625e-23)
(1.01397 -0.0142371 -2.99962e-23)
(1.00738 -0.0459221 2.8028e-22)
(1.07033 0.0367686 4.19563e-22)
(0.999706 -0.00954923 -6.57908e-24)
(0.999969 -5.12003e-05 1.04683e-24)
(1.00001 -2.6439e-06 2.73994e-26)
(0.9974 -0.000580784 -1.01714e-23)
(0.965622 0.106167 3.41004e-21)
(1.04915 -0.0220705 1.66536e-22)
(1.10052 -0.181471 -4.6276e-22)
(1 -1.1879e-05 1.31939e-27)
(1.0699 -0.179545 1.80456e-22)
(1.07217 0.00766798 -5.14442e-22)
(0.994984 -0.000161395 -6.44664e-23)
(0.931314 -0.00776215 -9.39974e-22)
(0.999065 -0.00435278 -1.31417e-23)
(0.99958 -0.000190999 -8.86052e-25)
(0.977833 -0.0299521 -9.65945e-23)
(1.00089 -0.00110943 -1.27e-23)
(1.16434 0.00584331 3.14351e-22)
(1.00875 -0.00100953 -3.59881e-22)
(1.13061 0.112553 -1.06537e-21)
(0.99993 -0.00230167 2.58035e-24)
(1.00458 -0.013375 1.38446e-23)
(1.00532 0.00971699 -2.89938e-21)
(1.22272 0.0465776 1.47028e-22)
(1.00041 -0.000565345 -7.53217e-24)
(1.00043 -0.000501085 7.39211e-25)
(0.99225 0.0753424 2.91099e-22)
(0.999517 -0.0544082 -9.13733e-23)
(0.999532 -0.00941211 7.9911e-24)
(1.01015 0.0298974 3.46736e-22)
(0.976304 0.0171933 7.25797e-21)
(1.13128 -0.0578665 -1.69213e-22)
(1.00039 -0.0258048 -3.84115e-23)
(1.15877 0.0818582 1.17583e-21)
(0.999257 -7.13003e-05 -9.31924e-24)
(0.99145 -0.00423562 5.63931e-23)
(0.996742 -0.000267731 -3.50488e-23)
(1.01247 0.0257935 4.14737e-24)
(0.999989 -0.000739367 2.4239e-25)
(1.00847 -0.00123007 3.67763e-22)
(1.18459 -0.0892509 2.85694e-23)
(0.997692 0.103297 8.24123e-21)
(0.931901 0.104721 -1.25813e-21)
(0.994093 -0.0027731 7.32465e-24)
(0.991517 -0.00791764 6.02956e-23)
(1.03899 0.0902242 -2.03766e-21)
(1.01734 -0.0583133 3.14943e-22)
(0.999944 -8.0031e-06 -1.81501e-24)
(1.1509 0.121987 2.38612e-21)
(1.02336 0.00175818 -3.90769e-22)
(1.0229 0.00170614 -2.63353e-22)
(0.99467 -0.0135596 -8.53846e-23)
(1.01747 -0.00175729 -5.56742e-22)
(0.958925 0.0953836 1.15043e-21)
(1.16407 -0.123728 -2.73282e-22)
(0.981528 0.0946388 1.24322e-21)
(0.992233 0.0940824 -2.13719e-21)
(0.999997 -6.40265e-05 6.56555e-26)
(1.09146 -0.0241678 -1.27303e-22)
(1.16219 -0.117964 1.75367e-22)
(0.997388 -0.00383743 2.36275e-23)
(1.00159 -0.00141857 -2.02184e-23)
(0.972181 0.0199113 1.73554e-21)
(1.0509 -0.0225125 -2.17676e-22)
(1.00028 -7.40395e-05 1.24064e-24)
(0.985749 -0.0646283 -9.65335e-22)
(0.975922 -0.0940307 -4.09807e-22)
(0.994503 -0.00189193 8.38619e-23)
(0.999883 -0.000207557 -1.75251e-24)
(1.03288 0.106616 -3.53155e-22)
(1.03144 0.0479953 2.81616e-21)
(1.00005 -0.000503953 -6.76518e-26)
(1.00399 -0.00353799 1.58503e-23)
(1.00511 -0.00352184 8.57073e-23)
(1.20359 -0.0350681 5.95785e-22)
(0.972446 -0.0425221 -7.20174e-22)
(1.00007 -0.000597842 -5.72555e-25)
(0.999985 -2.09368e-06 -4.53953e-26)
(1.00049 -0.000164179 1.95928e-24)
(1.06878 0.0373738 -4.14053e-23)
(0.972246 -0.0289715 -3.61702e-22)
(1.00175 0.0418804 1.37287e-21)
(0.944057 -0.0535879 4.80913e-22)
(0.988436 -0.0301999 -2.03799e-22)
(0.975359 -0.00124799 -6.34612e-22)
(1.01147 0.0288815 -1.7059e-21)
(1.17237 0.0718671 5.73749e-23)
(0.99881 -0.000154226 2.27703e-23)
(1.00768 -0.00566247 -9.16726e-23)
(1.00083 -0.0010987 1.43976e-23)
(0.98049 0.103442 -3.22141e-21)
(0.974316 -0.0261338 1.92683e-22)
(1.00106 -0.000278898 -6.88728e-24)
(0.992489 -0.00375897 -7.58198e-23)
(1.14533 0.0133498 3.93557e-22)
(0.999827 -0.0102574 -1.69053e-23)
(0.9886 -0.0131948 -4.17651e-23)
(1.00023 -0.000141595 -3.78377e-24)
(1.00024 -5.36935e-05 -1.67407e-25)
(0.888051 0.0780414 3.99694e-21)
(0.991765 -0.00137065 -9.9303e-23)
(0.995265 -0.00487807 8.49938e-23)
(0.999635 -0.0018786 -1.04233e-23)
(0.999276 -5.43329e-05 -1.27732e-24)
(1.03495 0.0755541 -1.07649e-21)
(1.19052 -0.0871627 5.04365e-23)
(0.987487 -0.0459593 1.21458e-22)
(1.00002 -2.10811e-06 -2.80745e-26)
(1 -3.9113e-05 1.88721e-26)
(0.973271 -0.0271362 5.08587e-22)
(0.993216 -0.00199762 2.01294e-23)
(0.994835 -0.0022655 -1.14895e-23)
(1.01394 -0.00495942 1.74867e-22)
(1.0057 -0.00237619 3.07269e-23)
(1.00092 -0.0170645 -1.92365e-23)
(1.1165 0.00808506 6.74527e-22)
(0.980969 -0.00478538 -1.27023e-22)
(0.983019 0.0929175 -1.01122e-21)
(1.01571 -0.0253833 -4.75027e-23)
(1.00025 -0.000142134 4.20737e-24)
(0.971644 -0.0740605 4.21966e-23)
(0.985076 -0.040799 -4.26488e-22)
(1.15035 0.0447114 4.92844e-22)
(0.997201 -0.00633354 -2.50507e-23)
(0.992483 -0.0536737 -1.45841e-22)
(0.999979 -5.70422e-06 2.71578e-25)
(0.941461 0.0765477 -3.94229e-21)
(1.01475 -0.00204874 3.14971e-22)
(1.00008 -0.000242023 -1.31013e-24)
(0.926403 0.0205086 -4.98659e-21)
(0.986381 -0.0462948 2.83518e-22)
(0.999978 -6.6359e-06 4.31352e-26)
(1.00144 -0.0012924 5.96855e-24)
(0.97225 -0.0774491 -2.4867e-22)
(1.04234 -0.0327663 7.77628e-23)
(1.04671 -0.00737024 4.11099e-22)
(0.999991 -3.51394e-06 6.4936e-26)
(0.991722 -0.000698933 7.92466e-23)
(1.02774 -0.047514 1.22343e-22)
(0.994657 -0.00173465 1.16137e-22)
(0.999534 -5.03316e-05 -2.92491e-23)
(0.991623 -0.00437198 1.64102e-24)
(0.97981 0.0352694 4.32475e-22)
(0.99307 -0.0133983 -1.06511e-22)
(0.989093 -0.0129035 3.06904e-23)
(1.00172 0.0259553 -1.40657e-21)
(0.997251 -0.00237121 2.70099e-23)
(0.976276 0.10477 -4.1404e-22)
(0.999977 -6.67118e-06 -1.3819e-25)
(0.990685 -0.0302285 8.0981e-23)
(0.989496 -0.0899729 9.65409e-22)
(0.993656 -0.0538966 2.45301e-22)
(1.20231 0.00410447 1.31073e-23)
(0.998879 -0.00580239 3.26452e-23)
(1.01075 -0.0242414 2.31494e-23)
(0.999928 -0.00247866 5.33819e-25)
(0.983118 -0.0238991 -2.44551e-22)
(1.04441 -0.0356889 3.00336e-23)
(0.999964 -1.52346e-05 8.24018e-25)
(1.00002 -1.18782e-06 -4.82322e-26)
(0.993552 -0.000446432 5.35779e-23)
(0.982609 0.0661043 2.86543e-21)
(1.01374 -0.0196074 1.89522e-22)
(1.00261 -0.00362667 -2.52586e-23)
(0.927149 -0.0403303 6.73824e-22)
(1 -1.06525e-05 3.53155e-27)
(1.00098 -0.0012105 -2.3056e-23)
(0.999965 -0.000705095 -3.28827e-25)
(1.01504 -0.0186382 2.07306e-22)
(0.982965 -0.0176271 4.31635e-23)
(0.999614 -0.000296973 3.68175e-24)
(0.99349 -0.0119375 3.98141e-23)
(0.987334 -0.0076667 -4.51585e-23)
(1.00102 -0.000167098 -1.89517e-24)
(0.999976 -7.71788e-06 -8.63233e-26)
(1.19019 0.0399011 3.68118e-22)
(0.999673 -0.00184746 1.11643e-23)
(1.07106 0.00285404 3.94032e-22)
(1.0089 0.101565 8.06036e-21)
(1.03566 0.0888157 -1.85936e-21)
(1.00153 -0.0215869 -7.33311e-23)
(1.00557 -0.00215126 -1.01724e-23)
(1.01776 -0.00139146 3.40736e-22)
(0.999978 -0.00253378 -6.03371e-25)
(0.997996 -0.0109949 3.96148e-23)
(1 -1.78192e-05 3.09376e-26)
(0.990159 0.0942999 -1.60744e-22)
(0.987828 -0.017436 5.9116e-23)
(1.01365 -0.00457125 -1.24743e-22)
(0.981415 -0.00496203 2.5973e-22)
(1.00409 -0.0131789 1.32694e-24)
(0.997373 -0.00622632 5.42825e-23)
(0.999894 -0.00021265 4.09708e-25)
(1.00002 -1.11989e-06 -2.60242e-25)
(0.995429 -0.0048557 -6.18322e-23)
(1.0533 -0.00501882 -2.3102e-22)
(1.00397 0.041778 2.17657e-22)
(1.00123 -0.000494971 -2.7978e-23)
(0.976527 -0.0681774 -2.18265e-22)
(0.974197 -0.0253577 -8.71926e-23)
(0.991927 -0.000549157 -2.96775e-22)
(1.16586 0.108384 -9.27143e-22)
(0.998686 -0.00101449 -1.3526e-23)
(1.00426 -0.0149201 -3.95454e-23)
(0.994431 -0.00298478 5.82331e-23)
(0.999903 -0.000204964 3.46031e-25)
(0.972973 -0.0811272 2.80762e-22)
(1.00179 0.0372065 -2.14993e-21)
(1.02493 0.037606 -1.83924e-21)
(0.976484 -0.0168246 -4.20552e-23)
(1.00129 0.035653 -9.76542e-23)
(1.00008 -0.000227249 2.53082e-24)
(1.00002 -1.53773e-06 8.04851e-26)
(1.14972 0.119199 -8.99904e-22)
(1.15545 0.0472887 -4.79613e-22)
(0.929093 0.0781475 -1.9565e-22)
(1.01041 -0.0910499 6.84756e-22)
(0.975635 -0.00172147 -1.9685e-22)
(1.14173 0.0169688 -5.44961e-22)
(1.00117 -0.000517069 3.16847e-23)
(0.994237 -0.00402397 3.33904e-23)
(1.00046 -0.000174668 -1.87023e-24)
(0.988952 -0.000776669 -6.5381e-23)
(0.988106 -0.0142279 -8.68723e-23)
(0.999996 -3.50361e-05 -1.8264e-25)
(0.999101 -3.47952e-05 5.32573e-24)
(0.997452 0.101099 -7.49911e-21)
(0.99987 -0.000732456 3.91015e-24)
(0.947788 0.070605 4.74706e-21)
(1 -1.69282e-05 -2.35055e-26)
(1.20149 0.0767132 6.48885e-22)
(1.07152 0.00118794 -8.41245e-22)
(1.11522 0.0103832 -7.48486e-22)
(1.00105 -0.000491703 1.8988e-24)
(1.00019 -4.36017e-05 3.35467e-24)
(0.986141 0.0626784 -4.2797e-21)
(1.07296 0.00568331 1.67925e-21)
(0.989131 -0.0920058 -8.91204e-22)
(1.0176 0.0358803 8.30281e-22)
(0.998645 -0.0221526 3.2901e-23)
(0.986117 -0.00587644 -6.66099e-23)
(0.995862 -0.000231232 -3.53253e-23)
(1.07897 0.141879 -4.5673e-21)
(0.975686 -0.0302731 3.11923e-22)
(1.03574 -0.0306704 -1.54245e-22)
(0.993759 -0.0118179 -2.27324e-23)
(1 -1.05974e-05 -6.57816e-28)
(0.998699 -0.00095752 -1.14933e-23)
(1.00607 -0.00602841 5.40749e-23)
(0.980786 -0.00886035 3.34289e-22)
(0.977131 -0.0169394 6.24756e-23)
(0.954724 -0.0476639 -1.00635e-22)
(0.98059 -0.00940164 -2.52937e-22)
(1.01668 0.00257928 1.51356e-22)
(0.997841 -0.000147232 7.17382e-25)
(0.934108 -0.0458605 3.50317e-22)
(0.985325 -0.00100293 -9.26962e-23)
(1.00004 -0.000219614 3.5417e-25)
(0.987239 -0.000798251 -6.43624e-23)
(1.03692 -0.0333689 -2.59404e-22)
(1.01599 0.00275028 -8.36879e-22)
(0.973421 -0.030592 -7.83926e-23)
(0.999983 -7.62367e-07 -1.27158e-27)
(0.982141 -0.0180564 6.49714e-23)
(1.00272 -0.0153479 3.3162e-24)
(1.00141 -0.00120061 7.6596e-24)
(1.1879 -0.112342 -7.61238e-22)
(1.00135 0.0350283 -4.97551e-21)
(1.00092 -0.00119634 2.14035e-23)
(0.987462 -0.00060095 9.02226e-25)
(1.1229 -0.0613213 -1.03353e-23)
(1.02484 0.000591696 1.32035e-21)
(0.991269 0.0260739 -4.61776e-22)
(1.00188 -0.00253825 6.83763e-24)
(1.00142 -0.0225125 2.3028e-23)
(1.06537 0.109923 -6.67291e-22)
(1.01338 0.0230809 -4.26827e-21)
(0.991814 -0.0300305 2.1359e-22)
(1.00482 -0.00353284 -9.59631e-24)
(0.949878 -0.0571236 4.81077e-22)
(0.999997 -5.29245e-06 3.49673e-26)
(0.946431 -0.00241388 -3.49634e-22)
(1.00009 -7.20537e-05 4.70877e-25)
(1.12053 -0.0638874 -4.54636e-22)
(0.999966 -3.59559e-06 -9.14575e-26)
(1.00003 -6.43681e-05 2.6864e-25)
(1.00127 -0.0252551 -2.76842e-23)
(1.17574 0.0802831 -6.91084e-22)
(1.01842 0.126529 3.55468e-21)
(1.04047 -0.0337552 -4.07702e-22)
(1.01459 -0.0148382 1.02314e-22)
(0.999999 -4.06322e-06 -9.18173e-27)
(0.993781 -0.0047888 -1.12905e-22)
(1.00009 -2.19082e-05 -3.50635e-25)
(0.996812 -0.00252993 3.86413e-23)
(1.00003 -5.99493e-05 -2.08641e-25)
(1.04644 -0.00566599 -1.28232e-21)
(0.999523 -0.000491597 -1.44385e-23)
(1.04353 0.0519102 1.89391e-21)
(0.999873 -0.000226911 -2.71215e-24)
(0.986638 -0.00573213 -1.12146e-22)
(0.955282 -0.00127887 7.71903e-22)
(0.995647 -0.000314896 -4.53853e-23)
(0.98588 0.0361046 4.44619e-21)
(0.981877 -0.000797137 1.81893e-22)
(1.04665 -0.110022 5.29058e-23)
(0.994393 -0.00421788 1.72682e-22)
(1.02406 -0.00205696 -2.81286e-22)
(0.973692 -0.0695881 1.01557e-21)
(1.01885 -0.00127138 -9.4877e-22)
(1.05309 -0.0680102 -1.61571e-23)
(0.999985 -1.64756e-06 1.19022e-26)
(1.00017 -0.0213508 2.60174e-23)
(0.99593 -0.000304959 5.53841e-24)
(1.00025 -9.57633e-05 2.53091e-24)
(1.00009 -1.83961e-05 5.87211e-25)
(1.08177 0.143837 5.00302e-21)
(0.995008 -0.00227125 9.68259e-23)
(1.02448 0.00136927 1.50209e-21)
(1.00213 -0.0229997 2.77142e-23)
(1.00087 -0.000314175 7.33809e-24)
(1.02307 -0.0072313 -1.05459e-21)
(1.00017 -4.08581e-05 -7.42344e-24)
(0.999975 -3.57351e-06 -1.23666e-26)
(0.94712 -0.00321271 2.68794e-22)
(0.99644 -0.00128584 4.37687e-23)
(1.00003 -5.83929e-05 3.14219e-25)
(1.04404 0.0889874 1.40025e-21)
(0.900488 0.0632779 -7.05403e-21)
(0.999787 -0.000240434 6.77462e-24)
(0.957376 -0.00257132 -2.07968e-22)
(1.00002 -1.52882e-06 5.75457e-26)
(0.956198 0.0933704 -4.60498e-21)
(1.20523 0.0805122 7.44138e-22)
(0.9722 -0.0555028 -8.18433e-22)
(1.00005 -0.000578381 -6.60613e-25)
(1.03436 -0.0296978 3.55524e-22)
(1.0287 -0.00129524 -3.87807e-22)
(1.02912 0.0013679 1.12834e-22)
(1.04793 -0.00778483 -1.62222e-22)
(0.999643 -0.00198094 -1.74834e-24)
(0.999869 -0.000877813 3.3843e-24)
(0.985855 -0.017432 -1.90004e-22)
(1 -9.3398e-06 -6.94239e-27)
(1.00002 -1.25847e-06 -1.47309e-26)
(0.974688 -0.029792 -1.84638e-22)
(1.00456 -0.0684873 -3.58805e-22)
(0.956123 -0.0466543 -2.58834e-23)
(0.918106 0.0885952 -1.43759e-22)
(1.00021 -2.64246e-05 -3.09896e-24)
(1.02984 -0.0822528 -6.99488e-22)
(1.00744 -0.00532201 -9.42623e-23)
(0.999977 -3.78754e-06 1.41212e-25)
(0.999005 -0.00412465 -2.86474e-23)
(1.00004 -0.000490524 -4.01965e-25)
(0.995794 -0.0136946 6.41389e-23)
(1.00005 -1.08199e-05 3.4815e-25)
(1.05477 -0.0661566 -3.51439e-23)
(1.01852 -0.00156219 9.21628e-22)
(0.977515 0.102938 1.09772e-21)
(1.02359 -0.00197367 1.05397e-21)
(0.999719 -0.000235264 5.35886e-24)
(1.00046 -0.000405119 -7.23179e-24)
(1.2061 -0.0405189 -6.29367e-22)
(1.02447 0.00109879 -1.20739e-21)
(0.99685 -0.000415123 3.96176e-23)
(1.00002 -1.56481e-06 1.22452e-25)
(1.05705 0.0813699 -2.33879e-21)
(1.1611 -0.167967 -3.8463e-22)
(1.01009 -0.0888207 -2.9596e-22)
(0.984911 -0.000854753 -4.89366e-23)
(0.999979 -2.31882e-05 2.73648e-25)
(0.999721 -0.000221908 -3.14108e-24)
(1.17003 -0.168767 1.09086e-21)
(1.00267 -0.0542055 -9.60554e-23)
(1.03172 0.0283701 2.63096e-22)
(0.982631 0.0897918 4.21121e-21)
(1.04437 -0.1072 4.0179e-22)
(0.998716 -8.8286e-05 -7.08893e-24)
(0.999979 -1.08273e-05 -3.2184e-25)
(0.963258 -0.0603309 8.15946e-22)
(0.988063 -0.120887 -1.0467e-21)
(0.999795 -0.000248791 3.6225e-24)
(1.01131 -0.0234981 9.64206e-23)
(0.992086 -0.0291837 -3.72529e-23)
(0.995271 -0.00243244 3.8115e-23)
(0.998315 0.028272 -3.54431e-21)
(0.998696 -0.000573842 2.53793e-23)
(1.06111 -0.0445633 5.00144e-23)
(1.12556 0.136018 -2.36784e-21)
(0.992064 -0.00355166 -1.11492e-22)
(0.927275 0.073781 -7.01588e-22)
(0.933367 0.0349485 2.12823e-21)
(0.999969 -5.42504e-05 -1.05208e-24)
(0.999975 -0.000770578 -2.6583e-25)
(0.982103 -0.00105816 -1.15822e-22)
(1.013 -0.0045702 -2.25791e-22)
(0.959253 -0.00236245 4.37602e-22)
(1.00525 -0.0043735 -9.87707e-23)
(0.992355 -0.00355964 1.03943e-22)
(0.999426 -0.000524068 -1.101e-23)
(0.963312 0.0937062 -8.26972e-22)
(1.04429 0.0500054 -2.93906e-21)
(1.00231 -0.00245542 1.75202e-23)
(0.865504 0.0407368 -1.42592e-21)
(1.00002 -1.32663e-06 -8.26841e-26)
(1.02232 0.00627982 -2.0874e-21)
(1.00726 -0.11304 6.90861e-22)
(1.03257 -0.0816201 2.711e-22)
(1.0001 -0.000220681 -1.2986e-25)
(0.957188 -0.0013012 3.56786e-22)
(1.02007 0.00549373 1.1686e-21)
(1.01269 -0.00491322 1.87196e-22)
(1.02805 -0.000469273 5.34516e-22)
(0.999546 -3.93589e-05 2.06408e-23)
(0.999517 -0.000523844 1.30758e-23)
(1.03081 -0.0455157 1.8944e-23)
(0.9965 -0.00138582 -1.24758e-22)
(0.987121 -0.0129745 -2.06175e-22)
(0.999125 -0.00373553 1.6958e-24)
(1.06631 0.042465 1.56413e-21)
(0.99997 -0.0222818 -1.80586e-23)
(0.994988 -0.0051681 2.01473e-24)
(0.922672 -0.0343202 -1.01327e-21)
(0.994122 0.0753702 4.79036e-22)
(1.11338 -0.0112464 -5.56232e-22)
(1.02254 -0.00695664 8.44975e-22)
(0.999597 -0.000191725 3.91834e-24)
(0.999485 -0.000342524 1.77059e-24)
(0.982278 -0.0236621 4.95492e-22)
(1.00101 -0.00130254 -1.71789e-23)
(0.997367 -0.000730231 -7.08397e-24)
(0.999979 -2.22302e-05 -1.02997e-25)
(0.999682 -0.00201784 3.64429e-25)
(1.01955 0.0050502 -4.53879e-22)
(0.985331 0.0653078 -4.11624e-21)
(0.999871 -1.63828e-05 8.42654e-25)
(1.09708 0.136256 -4.44485e-21)
(0.999995 -4.37849e-05 7.80176e-26)
(0.996717 -0.00299728 5.26568e-23)
(0.999991 -0.000100317 1.11479e-25)
(1.00528 -0.00378355 -4.36789e-23)
(1.1942 0.0382432 -2.70146e-22)
(0.99996 -4.54341e-05 8.89006e-26)
(0.999959 -4.878e-05 6.26573e-25)
(0.942836 -0.0543193 -4.75517e-22)
(1 -9.25221e-06 -2.50474e-27)
(1.05091 -0.0070413 1.37558e-21)
(0.990222 -0.0468062 3.83746e-22)
(0.999978 -0.000677593 3.23251e-25)
(1.05902 0.0658537 -1.82507e-21)
(1 -3.12635e-05 -4.72756e-26)
(0.999597 -4.08119e-05 1.80484e-23)
(0.99991 -3.7542e-05 2.97024e-26)
(0.995173 -0.00517651 -3.18303e-23)
(0.999666 -0.00160837 -5.37517e-24)
(0.993677 -0.000337571 -3.61112e-23)
(1.02606 -0.135289 -8.01155e-23)
(0.999704 -0.00156612 3.57188e-24)
(1.00424 -0.00354782 -3.40218e-23)
(0.999975 -2.60171e-06 -5.29433e-26)
(1.01997 0.124419 -6.75145e-21)
(1.05966 -0.046174 1.1817e-22)
(1.11625 -0.0108863 -5.39556e-23)
(0.962312 -0.00702288 4.74147e-22)
(0.976155 -0.00484166 -8.53869e-23)
(0.999095 -0.00403199 4.72372e-23)
(1.00295 -0.00272407 4.75466e-23)
(1.03415 0.059707 7.78285e-22)
(0.984465 -0.042085 5.80443e-23)
(1.08106 0.100574 9.41745e-22)
(0.952686 -0.0162533 -8.72568e-22)
(0.996597 -0.00289535 -4.97545e-23)
(0.99999 -4.32597e-06 -1.17005e-25)
(0.994237 -0.00299748 -7.01629e-23)
(1.00315 0.118474 1.716e-21)
(1.05154 0.0714371 -4.18203e-22)
(0.987461 -0.0639096 3.24211e-22)
(0.934377 -0.00720184 2.06512e-22)
(1.02364 0.119085 1.80754e-21)
(0.991297 -0.000627205 9.36394e-23)
(0.999148 -0.10399 5.48899e-23)
(0.999992 -9.58147e-05 1.97119e-25)
(0.988998 -0.0471812 4.83014e-22)
(0.999161 -0.000237074 -2.63116e-23)
(0.876326 0.068773 -4.13477e-21)
(0.987456 -0.0854945 -7.43001e-22)
(0.999912 -3.36408e-05 1.55767e-24)
(0.930296 -0.0235803 -5.45849e-23)
(0.984613 -0.0447138 2.65613e-23)
(1.02321 0.0634287 2.75356e-21)
(0.997405 -0.000796851 -6.68819e-23)
(0.982279 -0.0433463 -1.7547e-22)
(0.997819 -0.0112833 -5.52505e-23)
(1.00127 -0.0243785 -5.76986e-23)
(0.99873 -0.000583626 -1.72643e-23)
(1.02238 0.0621521 -3.33231e-21)
(1.08633 -0.182196 7.86093e-22)
(0.982111 -0.0188023 -1.44744e-22)
(0.986384 -0.0161745 3.01473e-24)
(0.986747 -0.00541199 -4.558e-23)
(1.00524 -0.00206786 -3.99026e-23)
(1.02502 0.116367 7.08804e-21)
(0.981883 -0.0152481 6.57709e-23)
(1.01209 0.0338642 1.80022e-21)
(1.00271 -0.00219168 3.61402e-23)
(1.20442 0.00956113 -2.86643e-23)
(0.94554 0.0755904 7.0375e-22)
(0.991122 -0.000489955 -3.24465e-22)
(0.999771 -4.31263e-05 3.51851e-24)
(1.03326 0.0772869 8.39975e-22)
(0.995452 0.0970814 -6.25077e-21)
(1.02964 -0.0439084 -1.04902e-23)
(1.08654 -0.028001 6.22299e-23)
(0.995586 -0.0142229 -7.13512e-23)
(0.96291 -0.00634052 -2.81021e-22)
(1.06377 0.107742 2.68818e-21)
(0.961685 -0.0607446 1.38914e-22)
(0.999976 -2.22686e-05 3.57664e-25)
(0.99247 -0.000120295 -1.65489e-22)
(1.00004 -5.9185e-06 3.51518e-25)
(0.995495 -0.000282951 1.23679e-22)
(0.999975 -2.3456e-05 -5.59269e-25)
(0.998478 -0.0157475 9.27232e-23)
(0.999041 -3.86699e-05 9.38804e-24)
(0.997324 -0.00590307 6.33007e-24)
(1.20416 -0.0209638 -8.57442e-23)
(0.999408 -0.000400391 9.42534e-24)