/*--------------------------------*- C++ -*----------------------------------*\
  =========                 |
  \\      /  F ield         | OpenFOAM: The Open Source CFD Toolbox
   \\    /   O peration     | Website:  https://openfoam.org
    \\  /    A nd           | Version:  7
     \\/     M anipulation  |
\*---------------------------------------------------------------------------*/
FoamFile
{
    version     2.0;
    format      ascii;
    class       volVectorField;
    location    "33.5";
    object      U;
}
// * * * * * * * * * * * * * * * * * * * * * * * * * * * * * * * * * * * * * //

dimensions      [0 1 -1 0 0 0 0];

internalField   nonuniform List<vector> 
7807
(
(1.08543 0.148803 5.67456e-21)
(1.06684 -0.0452035 7.17921e-22)
(0.995085 0.122347 -1.24961e-20)
(1.04085 0.0780119 1.72452e-20)
(0.999025 -0.00120627 -3.17417e-23)
(0.999953 -1.07872e-05 -3.58583e-24)
(0.989853 0.101831 -2.49785e-20)
(0.993634 -0.00232143 -6.31435e-24)
(0.999859 -0.000221892 -6.00208e-24)
(1.02741 0.0016804 -8.0208e-22)
(0.999956 -1.30171e-05 3.95514e-24)
(1.00265 -0.00147883 -1.26751e-22)
(0.990215 -0.00296215 3.18937e-22)
(1.02353 -0.00198069 -5.08502e-21)
(1.02652 0.00199172 3.3967e-21)
(0.989858 -0.0189371 -6.47452e-22)
(1.0883 0.155231 -1.19462e-20)
(0.986772 -0.00383238 -1.10745e-22)
(1.00302 -0.0115409 -3.74393e-23)
(0.987544 -0.125876 -5.73986e-22)
(1.04102 -0.00401247 -1.73633e-21)
(1.00176 -0.000910845 2.37877e-22)
(1.02146 -0.00371143 4.36696e-22)
(1.01175 0.03531 -8.95665e-21)
(0.982272 -0.00485838 -5.0269e-22)
(1.08038 0.147185 -5.72024e-21)
(0.999076 -0.00114764 -2.22896e-23)
(1.02741 -0.00198427 2.01754e-21)
(1.00534 0.0166949 -1.14309e-21)
(1.00476 -0.0122142 3.03603e-23)
(0.983912 -0.0202455 -1.14909e-21)
(0.857763 0.0442527 3.82409e-21)
(1.02128 -0.00454871 2.69238e-21)
(0.999438 -0.000480486 3.95466e-23)
(0.999878 -8.20509e-06 7.56365e-26)
(1.02762 0.000549433 1.18483e-21)
(1.00543 -0.0133379 3.76924e-23)
(0.994901 0.0991088 -3.98646e-21)
(0.995673 -0.00981236 5.29319e-22)
(0.999606 -7.12163e-05 3.80612e-23)
(0.99619 -0.0100898 -5.96922e-23)
(0.98997 -0.0177612 -2.37e-22)
(1.02408 -0.132788 2.68431e-21)
(1.17611 -0.0375827 4.49451e-22)
(0.999765 -1.50301e-05 1.23266e-23)
(0.999906 -1.88054e-05 -3.55692e-24)
(1.00168 -0.000737899 -1.45203e-22)
(0.995438 -0.00898976 -3.13974e-22)
(0.999921 -3.57771e-05 -2.87741e-24)
(0.993313 -0.125894 8.34937e-22)
(1.00387 -0.00128675 1.37665e-22)
(1.02706 -0.00122303 -2.09374e-21)
(0.976701 -0.00589389 -1.694e-21)
(1.01537 -0.036619 5.33784e-23)
(1.02822 -8.1015e-05 -6.9925e-22)
(0.994436 -0.00318845 -5.86258e-23)
(1.00289 -0.0107152 8.19267e-23)
(0.993587 -0.00201126 4.354e-22)
(0.972021 -0.0250015 -2.04334e-21)
(0.999415 -0.000427783 -5.06007e-23)
(1.00005 -2.77841e-05 -5.17704e-24)
(1.00504 -0.00143677 1.53942e-22)
(1.02373 -0.00128066 -1.19974e-21)
(1.00287 -0.00129221 1.28311e-22)
(0.998868 -0.00023114 7.16353e-23)
(0.984705 -0.0209834 1.95707e-22)
(0.999887 -0.000221502 4.62092e-24)
(1.00002 -3.16042e-06 3.34855e-25)
(1.16503 0.0851634 2.28586e-21)
(0.99566 -0.00851709 -9.61072e-23)
(0.999912 -2.30689e-05 3.15286e-24)
(0.96651 -0.0759536 -3.99939e-21)
(0.983063 -0.00538392 2.45822e-22)
(0.967395 -0.00749702 3.32978e-22)
(0.987379 -0.00422653 3.47484e-22)
(0.95612 -0.0369602 -4.4415e-22)
(0.999321 0.123869 2.00973e-20)
(1.03907 -0.00408842 2.20784e-21)
(1.09746 0.00517701 -3.81585e-21)
(0.943705 -0.0638103 -4.89559e-21)
(0.990691 -0.00327291 -4.8955e-22)
(0.999827 0.0624556 2.47507e-20)
(1.04603 0.0085174 5.18046e-21)
(0.966884 -0.013269 1.53425e-21)
(0.998395 -0.00304519 -5.18733e-23)
(0.997338 -0.000389548 5.30101e-23)
(0.99321 -0.00306384 5.99599e-22)
(0.97765 -0.00658045 1.0896e-21)
(0.999253 -0.00141905 3.40009e-23)
(0.994668 -0.000821655 1.87446e-22)
(1.00563 0.0189402 8.47068e-21)
(1.20807 -0.0157521 -7.23962e-22)
(0.999842 -6.45665e-05 -7.45564e-24)
(1.00233 -0.00908504 3.47658e-23)
(0.995788 -0.00125736 1.70121e-22)
(0.966949 -0.00416738 -2.66803e-21)
(0.969639 -0.0752068 2.93894e-22)
(1.01741 -0.0350881 9.695e-23)
(0.998222 -0.002938 1.7023e-23)
(0.99865 -0.000233136 2.38186e-23)
(0.935257 -0.0230237 1.13987e-21)
(1.09793 0.0108655 3.18472e-21)
(0.996029 -0.00142873 -4.23854e-22)
(0.99997 -1.61282e-06 -3.05916e-25)
(1.20988 -0.00257783 -6.1075e-22)
(1.0338 0.0359338 -8.04849e-21)
(0.929458 0.0318423 4.33826e-21)
(0.994055 -0.0030149 -2.44204e-22)
(0.99999 -3.22057e-06 6.3441e-26)
(1.03032 -0.0156205 -9.06744e-22)
(1.04426 0.0741733 -2.00308e-20)
(1.03982 -0.0946521 -3.15798e-21)
(0.999988 -3.76297e-06 -1.05296e-25)
(1.03227 -0.015948 -1.98133e-22)
(1.03014 0.034209 8.46637e-21)
(1.00051 -0.000687386 -1.11326e-23)
(1.09836 -0.104195 -1.65376e-22)
(1.03417 0.0207663 -1.93808e-21)
(0.981336 -0.0587552 1.71677e-21)
(0.96702 -0.00911642 -3.49098e-22)
(0.930442 -0.0151374 -2.74297e-21)
(1.00114 0.0281971 -1.61241e-20)
(1.03197 -0.129759 -3.69222e-21)
(1.01176 -0.00941516 7.65177e-23)
(0.932991 -0.0172727 1.08139e-21)
(0.998903 -0.00165399 7.55552e-23)
(0.985303 -0.0153031 3.87959e-22)
(1.00357 -0.0101747 -5.59264e-23)
(0.998806 -0.000170882 -1.59749e-22)
(0.983983 -0.0186617 2.07553e-23)
(1.24879 -0.0280373 -5.81194e-22)
(1.09132 0.00225411 6.52534e-22)
(0.999301 -0.000656966 4.30355e-24)
(0.999123 -0.00145278 -6.60866e-23)
(0.965212 -0.0121713 4.56533e-22)
(1.04153 0.0669008 7.36956e-21)
(0.99651 0.0243431 2.90339e-20)
(0.999972 -2.88855e-06 -3.59786e-25)
(1.00866 -0.00375639 6.46103e-23)
(0.903554 -0.0193731 -3.43645e-21)
(0.969529 -0.00540691 -1.35876e-21)
(0.989917 -0.0810213 -2.61012e-21)
(0.95692 -0.0397557 6.02511e-22)
(0.969304 -0.00673128 -2.95272e-23)
(0.921893 0.0248781 1.70321e-20)
(1.01884 -0.0566757 -9.53267e-23)
(1.01185 0.0214013 -4.31085e-21)
(0.975214 -0.0296954 -1.07173e-21)
(0.953828 -0.00733861 3.74866e-22)
(1.00094 0.0457612 -8.0084e-21)
(1.028 0.000955665 2.98031e-21)
(1.19434 -0.0207567 1.80707e-22)
(0.998295 -0.00243596 -1.79251e-22)
(1.17089 0.0768688 2.93869e-22)
(1.04373 0.00793813 -5.39101e-21)
(1.00753 0.102499 -2.00135e-20)
(0.949315 -0.0437523 1.8515e-21)
(0.990206 -0.0022886 1.08739e-22)
(0.939774 0.0839599 3.77426e-20)
(0.999927 -3.05425e-05 -2.707e-24)
(1.0018 -0.00962495 -1.91122e-23)
(1.01178 0.0386764 6.45747e-21)
(0.999974 -2.36155e-05 1.73277e-24)
(0.998 -0.00620119 -2.50884e-22)
(0.995234 -0.00121956 -8.14132e-23)
(1.00346 0.0383838 -2.11704e-21)
(1.00168 0.0257532 7.88733e-21)
(0.930802 0.0919956 1.25025e-20)
(0.997649 -0.00600808 -1.5535e-22)
(0.996327 -0.000462998 -9.28196e-23)
(1.00002 -4.08359e-06 -3.12175e-25)
(0.925886 -0.00924331 -4.70046e-21)
(1.0005 -0.00061466 1.53671e-23)
(1.06863 -0.0405626 -8.47543e-22)
(1.00906 -0.00403273 4.32599e-22)
(0.955013 -0.00868599 7.74247e-22)
(1.19847 0.00739039 -2.98275e-22)
(1.11662 0.0847902 1.9123e-22)
(0.999844 -8.01805e-05 4.07087e-24)
(0.999416 -0.000752263 -4.55242e-23)
(1.04243 0.0821736 -3.03251e-21)
(0.999928 -2.13735e-05 -1.31516e-24)
(0.999869 -1.52299e-05 1.95201e-24)
(0.990038 0.107919 -2.0592e-20)
(1.06987 -0.0490464 2.19007e-24)
(1.02042 -0.0816172 -1.71113e-21)
(0.983749 -0.0567208 -2.43592e-21)
(0.970477 -0.00967157 1.00158e-21)
(1.0152 -0.0587123 1.74033e-22)
(0.906007 -0.016354 1.81234e-21)
(0.999972 -2.15577e-05 -6.17495e-25)
(0.970077 -0.0703086 -9.66422e-22)
(1.11932 0.0927729 -5.34036e-21)
(0.996013 -0.00174141 6.08948e-23)
(1.00009 -8.08971e-06 -3.82756e-24)
(1.08542 0.0887543 5.76124e-22)
(0.998537 -0.000473438 1.68759e-22)
(0.985023 -0.0179047 6.19871e-22)
(1.01131 -0.0558329 5.6515e-22)
(1.00002 -2.63237e-06 -1.33162e-25)
(1.00107 -0.00237069 -6.20791e-23)
(1.03749 0.0662305 9.16669e-21)
(1.10507 0.0995883 -7.20094e-21)
(1.00284 0.0913727 -2.69032e-21)
(1.09218 -0.0969634 1.43214e-21)
(1.04394 -0.0895493 7.28429e-22)
(1.15959 -0.130582 -5.67029e-22)
(1.02784 -0.0019688 5.9915e-21)
(1.03458 0.0621383 -2.9899e-21)
(0.999749 -2.68571e-05 -1.44412e-23)
(1.00005 -2.49734e-05 1.36431e-24)
(0.947738 0.0131219 -1.67373e-20)
(0.991425 -0.0169478 -2.23221e-22)
(0.999273 -0.000584687 -4.25873e-23)
(0.973063 -0.0689115 1.97533e-21)
(0.984597 -0.0161684 -4.54536e-22)
(1.0179 0.0953896 -2.23278e-20)
(1.01397 0.0926394 -4.73021e-21)
(0.986564 -0.0834404 7.18242e-22)
(0.88626 0.0616655 -1.44638e-20)
(0.998644 -0.00053508 -1.2425e-22)
(0.986818 -0.00331402 3.96814e-22)
(0.932523 -0.0210651 1.4946e-21)
(1.03859 0.00107052 -1.25372e-21)
(1.03543 -0.165331 -3.65484e-22)
(1.10863 0.145185 -1.1768e-20)
(0.940137 0.0739285 -3.23182e-20)
(1.00008 -0.000130564 4.3053e-24)
(1.01171 -0.00863971 2.13261e-22)
(1.03176 0.0235802 1.04953e-20)
(0.995546 -0.00739054 -3.99563e-22)
(1.03729 0.021195 -1.32487e-21)
(0.999383 -0.00154453 -1.09553e-23)
(0.905015 0.103297 2.53794e-20)
(1.00812 0.0953814 4.41125e-21)
(0.9932 -0.0026471 3.8069e-22)
(1.00455 -0.0102264 -9.53012e-24)
(0.999632 -8.04642e-05 -7.06951e-23)
(1.14417 0.115842 2.64558e-21)
(0.999887 -1.2636e-05 5.79044e-24)
(0.993989 -0.01363 1.9243e-22)
(0.91786 -0.0424577 2.08121e-21)
(0.999913 -3.16714e-05 -1.30732e-24)
(0.998531 -0.00355598 -4.31646e-23)
(0.999518 -0.00149893 1.99834e-23)
(1.07732 0.0554743 7.47811e-21)
(0.999975 -3.06122e-05 2.0915e-24)
(0.994439 -0.000632097 2.17051e-25)
(0.946898 -0.0631454 5.67539e-21)
(0.859375 0.033135 -8.44738e-21)
(1.09063 -0.00331052 -8.83034e-22)
(0.918709 0.0702438 1.94934e-20)
(0.999944 -9.65491e-06 -3.2973e-24)
(1.00829 -0.05703 -3.61696e-23)
(0.999779 -0.000383342 -1.60564e-23)
(1.00197 0.104821 -2.01516e-20)
(1.00473 -0.000980142 -1.98246e-22)
(0.994698 0.0354915 9.42842e-21)
(1.00364 -0.0123328 -1.55946e-22)
(1.00095 -0.00255178 6.59554e-23)
(1.03869 -0.0396652 -2.76992e-22)
(1.02772 -0.000960141 -5.55029e-21)
(1.00069 -0.000411365 3.21702e-23)
(0.999726 -6.64796e-05 3.74172e-25)
(1.00061 -0.0005543 7.20818e-23)
(0.995317 -0.0078467 -3.58185e-22)
(1.02988 -0.0837254 1.96667e-21)
(0.999947 -1.28198e-05 2.2282e-24)
(0.951419 -0.0417936 1.31104e-21)
(0.99548 -0.00139775 -1.54462e-23)
(0.999829 -5.59072e-05 7.91403e-24)
(0.99925 -0.000727214 1.3809e-23)
(0.988542 0.0646498 2.28192e-20)
(0.990156 -0.00106845 1.56606e-22)
(0.999078 -0.000128654 -1.44283e-23)
(0.893874 0.0148185 3.23032e-20)
(0.998341 -0.00341897 -9.8029e-23)
(1.06924 0.114387 -6.92165e-21)
(0.999753 -0.000354038 2.8977e-23)
(1.01088 -0.0276131 1.27215e-23)
(1.00002 -2.36215e-06 -1.18523e-25)
(0.979746 -0.0474792 -9.64029e-22)
(1.03792 0.000481054 1.9425e-21)
(1.1996 0.0180893 1.74008e-22)
(0.972442 -0.0268985 1.73474e-21)
(0.99951 -0.000760448 5.25759e-23)
(0.98332 -0.107405 1.25273e-21)
(0.979082 -0.000638639 7.16597e-22)
(0.999781 -2.37908e-05 7.58141e-25)
(1.00059 -0.000486001 -6.37768e-23)
(0.997549 -0.00446795 1.35e-22)
(0.990632 -0.00191273 -4.69601e-22)
(1.00362 -0.00116978 -2.34935e-22)
(0.998542 -0.00245014 6.49753e-23)
(0.968625 -0.0123569 2.41412e-22)
(1.03536 -0.0802194 -1.43881e-21)
(0.968743 -0.0103778 1.06711e-21)
(1.16743 -0.029328 -9.67915e-23)
(0.957963 -0.011728 -1.35305e-21)
(1.02065 0.120875 2.24059e-21)
(1.01607 0.123857 -1.64764e-20)
(0.998181 -0.000977386 -1.08288e-22)
(1.22334 0.0181535 -2.27995e-21)
(0.99998 -3.94098e-06 -2.01205e-25)
(0.997506 -0.00553108 -1.65285e-22)
(0.966039 -0.00291434 2.72334e-21)
(1.00871 0.0313478 5.35678e-21)
(1.04716 0.0141467 -5.07816e-21)
(1.00012 -4.06984e-05 8.77138e-24)
(0.997666 -0.00521582 -1.08987e-23)
(0.959555 -0.0129513 1.02005e-21)
(1.06001 0.0483061 -3.05243e-21)
(0.998811 -0.0015234 5.63198e-23)
(1.00412 -0.000944637 1.32691e-22)
(1.00151 -0.00125007 -1.17315e-23)
(1.14461 0.0332724 3.06825e-21)
(1.24919 -0.0420688 -3.65999e-21)
(1.04367 0.1442 1.03698e-20)
(0.998065 -0.000317888 -1.05215e-22)
(1.08071 -0.0455586 -3.81414e-22)
(0.999862 -8.5974e-05 -6.49916e-24)
(1.00598 -0.00901349 -4.53596e-22)
(0.999934 -1.73281e-05 -9.34352e-25)
(0.982331 -0.0283294 3.08783e-22)
(0.999581 -9.54131e-05 -1.35377e-23)
(1.01642 -0.0268292 1.04662e-22)
(1.24699 0.0229711 2.88396e-21)
(0.966687 -0.038586 2.09844e-21)
(1.01233 -0.026782 -3.88939e-23)
(1.0105 -0.0077758 -2.78048e-22)
(0.999114 -0.000168013 6.47983e-23)
(1.03327 -0.020467 6.37488e-22)
(0.996719 -0.0244279 3.02088e-22)
(1.09106 0.0159398 -1.942e-21)
(1.07156 0.0529603 3.43167e-21)
(1.2182 -0.133027 1.19202e-22)
(1.17376 -0.0488633 -1.64556e-21)
(0.978141 -0.00129311 -7.65251e-22)
(1.00621 -0.0044956 4.23336e-22)
(0.921148 -0.0400923 -8.01283e-22)
(0.921135 0.0910196 -3.90542e-20)
(1.15152 -0.0524564 1.57165e-21)
(1.03309 -0.0121447 -2.53801e-21)
(0.896396 0.0667325 -1.95885e-20)
(0.998132 -0.000242655 5.20419e-23)
(0.997871 -0.00120579 -3.33764e-23)
(1.19171 -0.0326376 -1.56821e-21)
(0.998726 -0.00265432 -3.46594e-23)
(1.01883 -0.0526508 1.50114e-22)
(1.00709 -0.00215857 1.48102e-22)
(0.996509 -0.00053883 -8.27504e-23)
(0.99745 -0.000449047 -1.30497e-22)
(1.03784 0.0303925 6.14477e-21)
(0.999919 -0.000189458 -5.03511e-25)
(1.00066 -0.000337747 -2.8622e-23)
(1.0001 -1.63268e-05 6.55501e-24)
(0.995707 -0.000847172 4.371e-22)
(0.992416 -0.0120173 4.98042e-22)
(0.999979 -2.96642e-06 1.53568e-25)
(0.998661 -0.000316981 1.33706e-23)
(0.973395 -0.0236374 6.08806e-22)
(0.946244 0.0195879 1.04626e-20)
(1.01473 -0.0280184 -7.21304e-24)
(0.991462 -0.0158915 8.04196e-22)
(0.959702 0.0725277 4.47305e-21)
(1.00088 0.0270742 1.43068e-20)
(1.07944 0.00299826 -1.57575e-21)
(1.21364 0.023652 6.42232e-22)
(0.923892 -0.00682787 2.5611e-21)
(1.00618 -0.00520933 -2.09438e-22)
(1.01028 0.0516638 -7.88921e-22)
(0.985653 -0.00293773 -9.4806e-22)
(1.04773 0.113944 2.85675e-22)
(1.01512 -0.0631345 2.01834e-23)
(1.06197 -0.142652 -1.33623e-21)
(1.0997 0.0958498 4.48003e-21)
(1.05072 0.120148 -9.13865e-21)
(0.953097 -0.0359817 2.8919e-21)
(1.04834 0.0117785 -3.2724e-21)
(1.11425 0.150107 1.09884e-20)
(1.06266 0.115036 1.31635e-20)
(1.02903 -0.00227256 1.8847e-21)
(0.996267 -0.0018786 9.57413e-23)
(0.994799 -0.00292037 8.34834e-23)
(0.999891 -3.10873e-05 -3.06315e-24)
(1.02262 -0.0342727 8.07562e-23)
(0.985229 -0.00246547 2.2286e-22)
(1.00127 -0.00296352 -5.43259e-23)
(0.999869 -3.10272e-05 -5.75201e-24)
(0.998027 -0.000893622 4.23125e-23)
(0.979374 -0.106287 -2.07418e-21)
(1.12559 0.0453622 1.66666e-21)
(0.97752 -0.00811648 -1.224e-21)
(0.999547 -0.0158684 3.31139e-22)
(0.995264 -0.000936438 -2.35129e-22)
(1.07749 -0.0491553 -1.66406e-23)
(0.991059 -0.00200282 -7.52193e-22)
(1.00317 -0.00923185 1.67521e-22)
(1.12786 0.142815 1.76792e-21)
(0.997723 -0.000427561 -3.02742e-22)
(0.999973 -5.85459e-05 -1.45169e-24)
(0.999935 -0.000228991 -8.14625e-25)
(1.00006 -0.000133552 5.61484e-24)
(0.971888 -0.0107371 5.62507e-22)
(1.03597 0.0278842 -7.27043e-21)
(0.994971 -0.000713612 9.31167e-24)
(1.02818 -0.0107943 1.64432e-21)
(1.04692 -0.170589 2.68278e-21)
(0.996202 0.0931133 -4.37229e-22)
(1.00509 -0.00923203 1.49705e-22)
(1.00819 -0.00574222 -6.94345e-23)
(0.993644 -0.00328893 -3.02739e-22)
(0.993345 0.0637591 -2.23179e-20)
(0.998705 -0.000167664 4.32845e-23)
(1.04796 0.148597 -5.23383e-21)
(1.00914 0.0219943 -8.32852e-21)
(0.999856 -3.80562e-05 6.73009e-24)
(1.01252 -0.0644767 -1.00856e-21)
(0.99586 -0.000980323 -2.16035e-22)
(0.994731 -0.0817323 3.19369e-21)
(1.00069 -0.000181894 2.86831e-23)
(1.0738 0.00581638 2.23841e-21)
(1.00958 -0.020145 -5.25448e-24)
(1.00767 -0.00524139 3.60566e-23)
(0.998957 -0.000204586 -8.61498e-23)
(1.08282 0.0525711 3.59901e-21)
(1.05491 0.0463719 1.18675e-21)
(1.01822 -0.0855003 1.6798e-21)
(0.97467 -0.0275263 -1.16176e-22)
(0.997414 -0.00477306 -1.16514e-22)
(1.00389 -0.0521407 -1.84055e-21)
(1.16583 0.0664388 -2.80982e-21)
(0.866187 0.0512965 -1.85186e-20)
(1.11345 -0.0866085 -1.51418e-21)
(1.00661 -0.0097283 -6.89678e-23)
(0.999992 -4.2597e-06 -4.72647e-26)
(0.983 -0.00655301 -9.82127e-22)
(0.997202 -0.000492388 2.81892e-22)
(1.03176 -0.0208678 9.25084e-22)
(1.02062 -0.139922 -1.0949e-21)
(1.22325 0.00391558 1.07276e-21)
(0.984976 0.0879376 -2.74291e-20)
(1.06455 0.0447261 4.99956e-21)
(1.15962 -0.116605 2.46516e-21)
(1.08543 0.0960127 1.91844e-21)
(0.999582 0.0291855 2.63836e-20)
(1.0232 -0.0028677 1.37965e-21)
(1.00153 -0.00286882 1.24988e-22)
(1.02894 0.0704173 4.63597e-21)
(0.998968 -0.00258541 7.71772e-23)
(0.999776 -0.000212604 6.37984e-24)
(0.976331 -0.00270467 3.4173e-22)
(1.00011 -4.02118e-05 1.64408e-24)
(1.17214 -0.138363 1.40155e-21)
(1.00584 -0.0225364 -6.8089e-23)
(0.982526 -0.0465547 1.61966e-21)
(1.00233 -0.0019563 6.44488e-23)
(1.07908 0.085287 1.0383e-20)
(0.997824 -0.000406409 -2.49683e-23)
(0.99997 -4.68661e-05 -1.3759e-25)
(1.05404 -0.150334 1.46461e-21)
(1.00207 -0.00169731 -3.778e-23)
(1.12627 -0.000483781 -4.64098e-22)
(0.938729 -0.0215244 5.32463e-22)
(0.908736 -0.0265976 2.67778e-22)
(1.22383 0.069672 -1.94205e-23)
(1.02878 0.0225466 -2.73981e-21)
(1.02463 0.00671283 1.68757e-21)
(1.02303 0.00631779 -6.74176e-22)
(0.999748 -5.47814e-05 2.25302e-24)
(1.13454 0.0447735 1.2553e-21)
(1.0914 0.0207868 2.25701e-21)
(0.999368 -0.000817797 2.02127e-23)
(0.978586 -0.00880065 1.42199e-21)
(1.00075 -0.000259398 -3.19246e-23)
(1.01618 -0.0246192 -6.48662e-22)
(1.01302 -0.0356911 -5.14964e-23)
(1.0055 -0.00169231 9.7667e-25)
(0.999074 -0.00162856 -9.16713e-23)
(1.14245 0.107257 -8.12676e-21)
(0.999973 -2.80324e-05 -2.4167e-24)
(1.00025 -0.000139309 -8.46424e-24)
(1.00244 -0.00133037 -2.79216e-24)
(0.970579 -0.00466022 9.45462e-22)
(1.02384 -0.0131887 1.15571e-21)
(0.980868 -0.0392587 -2.28577e-21)
(0.963366 -0.00731953 -5.52729e-22)
(1.02475 -0.0801308 9.58933e-22)
(1.07385 -0.17868 -2.90595e-21)
(1.0361 -0.0364506 2.16917e-22)
(1.03368 0.0711456 -2.63889e-20)
(1.23675 0.0286199 -2.04431e-21)
(0.991754 -0.00337357 -3.90138e-23)
(0.899738 0.0966681 3.03137e-20)
(0.973447 -0.0776955 3.44851e-21)
(0.992039 -0.0127665 1.55778e-22)
(0.964352 -0.00605953 9.06288e-22)
(0.998122 -0.0235071 -8.78066e-23)
(0.972491 -0.00337347 1.44822e-21)
(0.987318 -0.00515604 -2.86541e-22)
(1.03361 -0.0142836 -1.74745e-21)
(1.16165 -0.0558377 -3.77463e-22)
(0.999968 -5.45524e-05 -2.01604e-25)
(1.02902 -0.0142163 -1.95942e-22)
(0.999881 -3.79556e-05 -3.27069e-24)
(1.0126 0.105519 5.36203e-21)
(1.16673 0.0920552 5.25331e-21)
(0.994022 -0.00250898 9.59375e-23)
(0.981826 -0.00234361 -1.30516e-21)
(0.999769 -6.78668e-05 -1.65067e-23)
(0.998956 0.0555473 1.65694e-20)
(1.03647 0.119051 1.22327e-20)
(1.13765 0.0353756 -1.62339e-21)
(1.14977 0.135432 -6.61568e-21)
(0.973891 -0.0825021 -1.49862e-21)
(0.998619 0.00869674 -2.51422e-20)
(0.999924 -0.000167791 3.069e-24)
(1.06058 -0.0293635 1.94377e-21)
(0.975825 -0.00206418 -5.26058e-23)
(1.1079 0.0821113 -2.06577e-21)
(0.929837 0.0669761 -2.37356e-20)
(1.17027 0.0587937 3.02159e-21)
(1.05816 0.0371493 8.35945e-22)
(1.0004 -0.0156845 -5.48286e-23)
(0.999752 -0.000105751 -1.5107e-23)
(1.15219 0.119147 2.73517e-21)
(1.23459 -0.0207247 5.73695e-22)
(0.996132 0.0673925 -5.11664e-22)
(1.11795 -0.00241315 2.93991e-21)
(1.0365 0.0576969 7.78036e-21)
(0.991245 -0.00301761 -1.34086e-22)
(0.992209 0.0881763 7.43122e-21)
(1.04091 0.113309 4.29597e-21)
(0.988769 -0.00434108 -8.02839e-22)
(0.990662 -0.00402365 -2.98327e-22)
(1.16376 0.108089 8.87904e-23)
(0.904918 -0.0247054 -3.64761e-21)
(0.999897 -0.000194687 -4.78044e-24)
(0.983856 -0.00706668 1.26377e-21)
(0.913229 -0.0345305 2.68659e-21)
(0.993625 -0.102209 -4.38534e-22)
(1.01178 -0.00292134 -1.1972e-21)
(1.01048 -0.00705723 7.59808e-23)
(0.999848 -0.000242451 -8.99301e-24)
(1.03895 0.125308 -1.83897e-20)
(1.00079 -0.0142358 8.69333e-24)
(0.999874 -7.48211e-05 2.89866e-24)
(1.03423 -0.0733836 1.10872e-21)
(0.999397 -0.000537993 1.79676e-23)
(0.999727 -9.43625e-05 1.14528e-24)
(1.00693 -0.0149077 -7.83816e-23)
(1.0662 0.0853447 1.42966e-20)
(1.04057 -0.135224 1.99448e-21)
(0.949955 0.0678333 1.38912e-20)
(1.00008 -1.20398e-05 -4.58159e-24)
(1.07227 0.0894007 -1.48787e-20)
(1.02347 -0.0636323 8.22278e-22)
(0.999907 -0.000239189 -1.35562e-24)
(1.00003 -7.82185e-06 -1.40117e-24)
(1.00279 0.0119191 -1.37296e-21)
(1.06116 0.0740416 5.36344e-21)
(0.995172 -0.00307849 8.31199e-23)
(1.05603 0.0580402 -6.98302e-21)
(1.00003 -2.52317e-05 1.01916e-24)
(1.05615 0.0642211 -9.64181e-21)
(1.2024 -0.138798 3.39813e-21)
(0.988143 -0.00389734 8.83162e-22)
(0.999294 0.0139396 -3.41454e-20)
(0.973134 -0.0647125 2.28442e-21)
(1.15409 0.128751 6.39644e-21)
(0.966066 -0.00602557 5.56807e-22)
(1.06146 0.0676168 1.25685e-20)
(1.06678 0.077764 -3.88359e-21)
(0.979742 -0.0108403 2.05516e-21)
(0.973247 -0.0134245 -1.5128e-21)
(0.994138 -0.0126719 4.66125e-22)
(0.996565 -0.000917668 -7.10616e-23)
(0.999757 -0.00023625 1.73448e-23)
(1.00048 -0.0136457 -1.60548e-23)
(1.0519 0.107537 -2.17825e-21)
(0.999965 -4.28301e-05 6.14321e-25)
(1.05086 0.0554684 9.23509e-21)
(1.05883 -0.131928 3.15998e-21)
(1.00761 0.0710033 6.45284e-21)
(1.05048 0.0501245 -1.05256e-20)
(0.90935 -0.0324461 -3.28306e-22)
(0.957108 0.0867115 -2.90028e-20)
(0.998106 -0.00143934 6.03342e-24)
(1.02196 -0.0314709 2.69124e-22)
(1.07634 -0.0906283 8.0631e-22)
(0.973721 -0.00317192 -8.94028e-23)
(0.99226 -0.0042363 3.97591e-22)
(1.02018 -0.0657619 -7.30322e-22)
(1.06788 -0.0186048 -2.00651e-22)
(0.908399 0.0605079 3.72527e-20)
(1.00005 -2.35779e-05 4.94306e-24)
(0.99776 -0.00153633 8.09829e-23)
(1.0337 -0.0946067 5.41962e-23)
(1.00002 -6.29168e-06 1.66482e-25)
(1.01338 0.112239 2.63675e-21)
(1.0021 -0.00147089 0)
(1.00002 -8.41588e-06 1.27533e-25)
(1.00023 -0.000108149 1.98939e-23)
(1.00048 -0.000151152 3.98053e-25)
(0.982637 -0.0264848 1.53633e-21)
(1.02885 -0.0197253 -6.64395e-22)
(0.998191 -0.00112375 1.27599e-22)
(0.999896 -2.16589e-05 6.07261e-24)
(0.991737 -0.0039738 2.20888e-22)
(1.00617 -0.0155559 -5.57535e-23)
(1.00708 -0.151328 -2.99105e-21)
(0.917092 -0.0108821 2.5908e-22)
(1.02292 -0.0117877 2.03062e-21)
(0.999968 -3.44889e-06 1.91489e-24)
(1.15213 -0.173236 4.16919e-21)
(0.984088 -0.00492514 -5.0631e-22)
(1.14958 0.0993071 -4.26031e-22)
(1.00029 0.0109797 -4.70184e-21)
(1.00158 -0.00432137 2.90177e-23)
(1.13626 0.0877238 -7.65216e-21)
(1.00019 -0.000116699 -4.27695e-27)
(0.98488 -0.00551327 1.47731e-23)
(1.02781 0.0010571 -3.42326e-21)
(0.992308 -0.00482096 -1.62818e-22)
(1.06822 0.100535 -8.59149e-22)
(0.984832 -0.00861112 -9.5486e-22)
(1.062 -0.0260205 -1.7091e-21)
(1.02817 0.0018562 -3.67932e-21)
(1.07063 0.0470554 -2.11553e-21)
(1.00986 -0.0184554 -3.06265e-22)
(0.987989 -0.0055487 2.38108e-23)
(1.09269 0.0843525 6.34217e-21)
(0.985785 -0.113407 -2.52661e-21)
(1.00071 0.11083 2.21273e-20)
(0.989438 -0.00626059 -9.30097e-22)
(1.07252 0.127766 -1.48138e-22)
(0.989396 -0.00548848 2.48468e-22)
(0.998651 -0.000644522 -8.31324e-24)
(1.05765 0.0333116 2.35703e-21)
(1.02058 -0.0361935 -2.72575e-23)
(1.04288 0.00453624 5.08015e-21)
(1.00217 -0.00102212 4.20578e-23)
(1.00002 -6.70644e-06 5.85404e-26)
(1.0272 -0.170041 1.11971e-21)
(1.12576 0.136044 -9.63425e-21)
(1.00187 -0.00419186 -4.03191e-23)
(1.1461 0.0897296 7.05638e-22)
(0.985683 -0.00801463 -6.25113e-22)
(1.14239 -0.183898 -1.66263e-21)
(1.06071 -0.0463124 -3.9184e-23)
(0.980568 -0.0417886 1.28649e-21)
(0.998055 -0.00125462 -5.39558e-23)
(0.989666 -0.00138452 -1.88334e-22)
(0.975093 -0.0979617 -1.44156e-21)
(0.963328 -0.013067 2.08064e-21)
(0.988725 -0.00512384 6.56911e-22)
(0.999831 -0.000548287 7.65426e-24)
(0.993062 0.116783 -2.73214e-21)
(1.13292 0.0787495 4.62476e-21)
(1.02976 -0.0119277 -6.31295e-22)
(0.999767 -0.000183988 1.16173e-23)
(1.03818 0.107188 -8.28641e-21)
(1.00001 -3.01077e-05 2.51517e-25)
(0.999785 -0.00016408 2.2997e-23)
(1.1235 0.0771686 4.09085e-21)
(1.01464 -0.0305693 1.53903e-22)
(1.13526 0.123262 7.80921e-21)
(1.0279 -0.00293717 1.42488e-21)
(1.02105 -0.014868 -1.35319e-22)
(1.1225 -0.0689209 8.48109e-22)
(1.0921 -0.158985 3.24235e-21)
(1.22449 0.0612859 -2.18986e-23)
(1.00152 -0.0010521 -9.24562e-23)
(0.941389 -0.0234075 -2.05447e-22)
(0.999978 -7.16798e-05 -4.26278e-25)
(1.00647 -0.013543 5.61943e-23)
(1.07255 0.0961224 5.3118e-21)
(0.980852 -0.0101287 1.43504e-21)
(0.996759 -0.0018361 1.12286e-22)
(1.02235 -0.0504781 -4.45135e-22)
(0.99772 -0.00135587 7.72862e-24)
(0.999547 -0.00134911 2.36687e-23)
(0.900547 0.0140904 6.65172e-21)
(0.988792 -0.00674744 -5.2636e-22)
(0.999368 -0.000892352 -6.99075e-23)
(0.999979 -7.58127e-07 -4.00631e-25)
(1.01939 0.00781213 7.36306e-21)
(0.967552 -0.0360319 -3.15702e-22)
(0.999623 -0.000673388 2.09104e-23)
(0.996763 -0.00106812 1.44833e-22)
(1.02631 0.024895 3.00584e-21)
(1.07907 0.0152294 5.28485e-22)
(0.952678 -0.0328635 -1.79632e-21)
(1 -1.91745e-05 8.17909e-26)
(1.0011 0.0112173 1.98939e-20)
(0.984069 -0.0229352 -1.0437e-21)
(1.07893 0.07806 -1.04267e-20)
(1.01518 -0.00143725 -1.81463e-21)
(1.01751 -0.0014637 4.13961e-21)
(0.961182 -0.0163369 2.83412e-21)
(0.999888 -7.93055e-05 -1.89625e-24)
(1.02746 0.000503353 -6.72262e-22)
(1.08491 0.0125143 -7.14789e-22)
(1.20145 0.0659087 1.68506e-21)
(1.06577 -0.124029 6.61416e-22)
(1.04834 0.10164 6.505e-21)
(1.00675 -0.00201674 -2.93956e-23)
(1.10008 0.0883755 -8.71316e-21)
(1.00067 -0.0183419 -9.41584e-23)
(1.02881 -0.0710689 -1.97715e-21)
(0.999545 -0.000202764 -2.26627e-23)
(1.00515 -0.0241133 1.32334e-22)
(0.999882 -0.000525351 2.85407e-24)
(1.05358 0.0404935 -6.98405e-21)
(1.09303 0.136645 -1.8406e-20)
(0.998288 -0.00148012 4.29045e-23)
(1.0228 -0.0149272 3.19851e-23)
(0.978917 -0.00611846 4.94187e-22)
(1.06781 -0.10666 2.84456e-22)
(1.06198 -0.114704 -1.58221e-21)
(0.997833 -0.00107084 8.50698e-23)
(1.05666 -0.0304453 -6.60429e-22)
(0.909394 0.00413832 -1.12337e-20)
(1.19828 0.046296 8.90562e-22)
(0.999938 -0.000203762 6.61645e-24)
(1.07385 0.0118161 -1.8937e-21)
(0.996866 -0.0114484 -2.27109e-22)
(0.995404 0.002278 2.38585e-20)
(0.985653 -0.007011 8.68992e-22)
(0.996818 -0.034356 -2.86124e-22)
(1.0249 -0.0442603 -3.10801e-23)
(0.995172 -0.0356586 -4.40626e-23)
(0.999549 -0.0271293 -6.38994e-22)
(0.991181 -0.00431109 1.52296e-22)
(0.999558 -0.0182334 3.41676e-22)
(1.00249 -0.00781662 -4.56215e-23)
(1.06991 -0.0228118 4.66743e-22)
(1.00013 -3.01e-05 -1.27751e-23)
(1.23875 -0.0895575 -1.36497e-21)
(1.18494 0.00178503 -1.2095e-22)
(1.02558 0.12267 1.5119e-20)
(0.95514 -0.0309947 2.72077e-21)
(1.12593 0.118823 -3.99308e-21)
(1.00231 -0.000794039 1.49797e-22)
(1.09543 -0.0863769 -2.92675e-23)
(1.0092 -0.0490054 -6.92291e-22)
(1.02268 0.0429835 8.69031e-21)
(0.99182 -0.00521331 3.77696e-22)
(1.00013 -0.000224852 8.43417e-24)
(0.985022 -0.023839 1.36073e-21)
(0.995167 -0.0122988 -1.76761e-22)
(1.05287 -0.0277561 1.44629e-21)
(0.965302 -0.00997342 -1.76024e-21)
(0.971761 -0.0125607 4.99573e-22)
(1.15394 -0.0315159 3.93034e-23)
(0.982285 -0.00395244 -8.59528e-22)
(1.02191 -0.0466494 2.85057e-22)
(0.996574 -0.108035 1.81653e-21)
(1.00001 -1.0052e-05 1.07616e-25)
(1.07101 -0.0136733 2.67172e-21)
(0.997411 -0.096571 -4.78929e-21)
(1.13198 0.103922 3.68401e-21)
(1.12412 -0.0773521 -1.64839e-21)
(1.04106 0.00391503 4.2942e-22)
(1.04866 -0.128991 -4.04656e-21)
(1.04924 0.133035 3.98417e-21)
(1.04583 -0.0418642 3.96452e-22)
(0.959347 -0.0151342 -1.67735e-21)
(1.02306 -0.0590314 -9.43111e-22)
(0.959394 0.00590068 1.0657e-20)
(1.19975 -0.100518 8.20523e-22)
(0.984815 -0.00653079 -2.64175e-22)
(1.05667 -0.162247 -3.16765e-22)
(1.04115 -0.0824025 1.34857e-21)
(1.07361 -0.145358 -6.02431e-22)
(1.06345 -0.0984809 -1.60951e-21)
(1.09202 0.0769035 8.08001e-21)
(0.996793 -0.00211032 7.40391e-24)
(1.00873 0.0485641 3.25064e-21)
(1.00908 -0.00192462 2.14986e-22)
(0.999548 -0.000681337 -2.99968e-23)
(0.998653 -0.00293995 2.12648e-22)
(1.06913 0.00386106 -6.70755e-22)
(0.857398 0.00494966 3.23445e-22)
(1.00208 -0.00836851 2.3358e-23)
(1.02823 -0.065856 2.83163e-22)
(1.0265 0.0284768 -4.99101e-21)
(1.00003 -9.10026e-06 -2.46221e-25)
(0.974647 -0.0125869 1.2065e-21)
(1.02659 -0.0111824 1.45921e-21)
(1.09404 -0.0437384 3.52523e-22)
(1.00923 -0.000970896 1.20627e-21)
(0.998175 -0.00262801 3.88154e-23)
(0.983033 -0.0530169 2.37652e-23)
(0.997674 -0.0109796 -6.72999e-23)
(1.00004 -7.39556e-06 2.69046e-24)
(0.975938 -0.0631647 -3.85392e-21)
(1.05823 0.0945795 -2.2963e-21)
(1.02661 -0.0383122 1.43649e-22)
(0.979903 -0.00691183 -9.23579e-22)
(1.0021 -0.000539679 -5.37431e-23)
(1.03002 0.0304937 6.57454e-21)
(0.99956 -0.000828794 -1.38118e-23)
(0.99856 -0.000845075 -4.31494e-24)
(0.999584 -0.000221757 -2.06685e-23)
(0.999167 -0.00276726 -5.33115e-23)
(1.18799 0.0667504 1.83474e-21)
(1.03773 -0.0427439 3.02085e-22)
(1.01073 -0.0232961 8.72121e-23)
(0.978556 -0.0102141 -4.21878e-22)
(1.00005 -6.62232e-05 2.60733e-24)
(1.11426 -0.147092 4.3757e-21)
(1.23461 -0.00337697 7.78698e-23)
(1.124 -0.157691 -2.10824e-21)
(0.998985 -0.0436874 -5.37466e-22)
(1.01654 -0.0111793 1.36327e-21)
(0.999753 -0.000129344 9.53698e-24)
(0.986743 -0.015515 -5.45405e-22)
(0.950429 -0.0665701 -2.22415e-21)
(1.18681 0.0479979 3.77349e-22)
(1.00597 0.0687914 -2.32908e-22)
(0.998702 -0.00416316 4.29534e-23)
(0.930146 -0.0478815 1.23098e-21)
(0.994504 -0.00365277 -3.61903e-22)
(1.04299 -0.0386876 -2.71914e-23)
(1.10584 0.0737776 7.97099e-22)
(1.00051 -0.000172736 -4.50582e-23)
(0.999817 -0.000279547 -3.53231e-24)
(1.16152 0.114974 7.08428e-22)
(1.18244 0.0276009 3.1774e-23)
(1.02212 -0.0185989 4.92429e-22)
(0.996572 -0.00230184 1.91164e-22)
(0.997559 -0.00061145 -1.89282e-23)
(0.960066 -0.0670009 5.44754e-22)
(0.999799 -0.000458833 -1.16595e-23)
(1.02409 -0.0407076 2.80918e-23)
(0.983938 -0.0019409 1.76871e-21)
(1.00041 0.012978 -3.90358e-21)
(1.06275 0.100466 -1.19495e-21)
(1.08818 -0.0802152 6.45177e-22)
(1.00283 -0.096551 1.76945e-21)
(1.00756 -0.0017593 5.97175e-22)
(1.01918 -0.0304593 -3.76568e-22)
(1.1745 0.00883858 6.20864e-22)
(1.00358 -0.107772 -1.11555e-21)
(1.02659 -0.056433 5.3251e-22)
(0.999998 -9.79537e-06 4.81643e-26)
(1.16109 -0.0088622 -2.28444e-23)
(0.968112 -0.00405284 1.67454e-22)
(1.00406 -0.120153 2.22513e-21)
(1.02563 -0.0351884 -5.10781e-22)
(0.944296 -0.0221041 -3.7527e-22)
(0.999533 -0.00038841 -1.01041e-23)
(0.996514 -0.00172079 -8.53274e-23)
(1.04569 0.0478073 8.12985e-21)
(0.963248 -0.015249 -6.36769e-22)
(0.999982 -2.85247e-06 4.21737e-25)
(0.99664 -0.000714038 -2.00105e-22)
(1.19358 -0.0844264 -4.96912e-21)
(0.999805 -6.74292e-05 2.4133e-23)
(1.03184 -0.0628952 -1.77137e-22)
(0.999943 -0.00016196 -5.05964e-25)
(1.00854 -0.0173126 -2.29964e-24)
(1.0061 -0.144618 1.37444e-21)