/*--------------------------------*- C++ -*----------------------------------*\
  =========                 |
  \\      /  F ield         | OpenFOAM: The Open Source CFD Toolbox
   \\    /   O peration     | Website:  https://openfoam.org
    \\  /    A nd           | Version:  7
     \\/     M anipulation  |
\*---------------------------------------------------------------------------*/
FoamFile
{
    version     2.0;
    format      ascii;
    class       surfaceScalarField;
    location    "26.5";
    object      phi;
}
// * * * * * * * * * * * * * * * * * * * * * * * * * * * * * * * * * * * * * //

dimensions      [0 3 -1 0 0 0 0];

internalField   nonuniform List<scalar> 
31093
(
588.156
-435.516
-152.641
271.027
43.2043
-314.231
943.608
-1133.15
189.537
-395.196
994.326
-599.13
-632.803
670.788
-37.9858
-687.269
54.4666
218.18
-37.7766
-180.403
584.052
-448.898
-135.155
210.753
-289.781
79.0281
79.773
504.279
-82.1415
258.577
-176.436
-244.59
270.445
-25.8551
-234.089
-19.1802
253.269
34.6876
553.469
621.417
-650.219
28.8016
-965.111
569.915
-288.141
348.538
-60.3968
-92.0812
-977.633
1069.71
-259.442
232.929
26.513
305.546
-34.5187
-303.79
295.282
8.50857
-2.11826
-242.472
-450.101
529.874
273.833
-325.884
52.0509
943.608
-359.536
93.1692
266.366
891.013
-975.178
84.1657
340.332
-148.228
-192.105
-171.766
-98.2469
270.013
-111.603
-147.84
-592.235
740.899
-148.664
362.587
-310.728
-51.8597
346.117
-62.529
-283.588
556.099
-292.855
-263.244
-717.205
780.434
-63.2289
-731.206
138.971
139.192
-349.887
210.695
932.347
-932.347
784.051
-345.978
-438.073
276.42
420.257
-696.678
3.05266
796.152
-799.205
-270.026
82.6848
187.341
-860.168
685.847
174.321
972.836
-81.8237
-136.458
-223.077
116.646
72.5764
-189.222
1079.68
-461.586
-618.099
316.512
-255.368
-61.1442
842.887
-30.4229
-812.464
239.163
-229.856
-9.3073
-787.794
70.5891
47.9325
-748.584
700.651
-275.385
-146.598
421.983
762.881
-835.714
72.8336
154.65
-385.866
231.216
15.5849
-210.342
194.757
381.12
-110.789
-270.331
694.672
-751.467
56.7948
-57.022
-295.966
352.988
-55.2459
-232.895
-663.441
432.254
231.186
-50.4729
244.962
-194.49
480.338
-482.812
2.47376
-180.881
-343.977
524.859
-697.649
828.105
-130.457
-715.601
107.795
607.806
512.575
-574.557
61.982
-650.771
-64.8294
-157.397
-368.101
525.498
-143.459
-70.168
213.627
363.209
-552.154
188.945
325.985
-246.666
-79.3194
675.382
-53.9652
-272.623
-35.5568
308.18
1062.18
-555.541
-506.637
-71.2539
469.825
-398.571
332.454
-141.8
-190.654
-227.26
15.3354
211.925
895.581
-619.161
566.678
-832.761
266.084
633.178
-525.383
816.85
-194.735
-622.115
299.777
-93.5705
-206.206
297.467
-86.7139
134.091
-184.564
-588.95
-271.218
239.134
-282.366
43.2317
-62.7289
166.494
-103.765
-618.617
437.736
150.375
-306.704
156.329
-404.391
677.618
-273.227
738.986
148.774
-887.76
904.493
-130.193
-774.3
184.881
-301.692
116.81
212.213
104.299
424.451
55.8872
263.404
-78.5227
-779.226
789.865
-10.6384
-324.469
242.328
974.543
-882.329
-92.2141
280.976
-130.6
406.583
-417.437
10.8539
183.289
102.777
-286.066
460.119
-198.554
-261.565
1207.38
-1207.38
477.148
26.9149
-504.063
-44.7032
254.093
-209.39
-475.907
228.398
247.508
265.419
8.93401
-274.353
-248.031
-83.6185
331.649
37.1125
-208.878
182.869
35.311
396.392
-110.775
-285.618
-261.605
-402.003
663.608
-565.672
494.418
-568.657
-431.417
-363.285
-173.537
536.821
576.685
56.4922
-304.245
-11.6943
315.939
-1029.94
259.314
770.629
-170.779
909.765
50.5481
260.06
-310.608
378.26
-597.564
219.304
235.874
-362.652
126.778
130.111
425.988
751.062
-843.143
36.5624
183.5
-220.063
182.37
157.962
271.085
91.5021
137.123
-500.408
-28.4951
-151.914
180.409
20.7332
218.43
853.246
-850.193
291.842
492.209
141.488
-347.909
206.421
257.62
949.764
260.746
-38.934
-221.812
-279.87
-23.92
-407.058
36.0227
371.035
103.521
63.8531
-167.374
291.632
-241.084
30.1811
-302.804
198.709
127.277
-296.426
217.694
78.7325
-542.546
66.6077
475.938
-94.5451
236.033
-267.458
89.7925
177.666
-94.9241
-223.494
318.419
-20.5114
293.101
-272.59
-763.627
-211.551
127.582
-222.506
188.995
971.734
-67.2401
-231.755
-49.6753
281.431
151.402
665.448
-236.958
-30.4997
-733.571
144.621
84.8816
188.951
69.2546
-160.32
91.0653
-11.6687
-222.42
-192.625
347.274
-239.214
201.438
-36.5342
-406.73
-135.815
-189.254
-656.453
845.707
-172.064
109.335
346.362
60.2211
281.264
18.5131
440.219
29.6055
-326.98
466.172
333.593
-72.847
-201.722
-116.459
318.18
-8.8769
-185.446
194.323
400.228
-442.841
42.613
105.051
110.96
-216.012
24.122
321.995
-571.833
509.256
62.5768
-545.47
-26.7788
572.249
-443.752
-121.92
-31.7129
217.493
-185.78
27.5641
-198.888
171.324
735.563
196.784
331.439
72.0164
-403.455
-85.1033
202.036
-116.933
267.248
38.2982
228.2
-124.605
-103.595
584.108
-220.899
26.2788
948.264
155.874
252.552
103.901
-356.453
274.079
-237.516
263.917
-392.154
128.236
65.4685
-947.797
-586.338
428.941
218.348
-149.093
-12.5944
270.476
-257.882
64.41
267.029
-22.3938
296.28
-273.886
325.377
-58.13
15.5147
237.037
269.257
-379.777
110.52
-72.1901
322.415
-250.224
-473.939
187.249
-363.352
176.103
255.247
-402.245
146.999
-313.947
285.68
28.2669
-7.22001
-328.839
336.059
766.183
-718.25
198.494
-182.909
619.653
-634.934
15.2809
416.676
95.8991
-862.91
535.445
327.465
-39.4586
304.813
-265.354
-86.9041
-150.73
237.634
-279.744
573.138
489.04
513.827
-513.827
-518.176
-511.767
-249.382
-226.525
898.097
-606.255
1.3517
264.423
-265.775
-185.011
-242.463
427.474
104.615
136.976
-241.591
500.744
-905.135
-326.137
242.518
-13.0236
-394.034
353.293
-360.513
-1068.64
499.979
-485.178
485.178
-641.784
-5.87014
647.654
625.502
-247.242
304.951
123.203
-428.154
-316.429
271.726
-219.213
206.079
13.1341
-516.686
817.399
-300.713
306.875
-67.7408
563.014
-85.8662
-420.157
218.435
192.591
70.8129
-634.581
449.57
214.171
-355.971
87.8475
-174.752
234.776
96.0009
-330.777
352.421
-116.547
-963.607
-243.777
622.601
-45.9154
-61.5143
276.034
-214.519
545.892
-450.633
-95.2587
-71.4102
760.093
-688.683
-53.2223
896.11
263.683
1.73586
-84.8172
189.432
-63.2388
522.158
-458.919
-541.969
195.991
-167.006
12.1133
154.893
-119.73
424.68
-44.4097
228.84
-184.431
-61.5897
-208.437
193.758
-90.237
-77.5051
194.151
18.5856
-248.845
230.259
33.3811
457.377
-490.758
710.423
49.3838
-759.807
287.623
19.2524
-76.8891
-162.325
-113.137
12.5511
251.445
-263.996
35.2517
361.141
225.387
-742.074
327.263
-195.311
-87.0549
122.554
-820.628
698.074
65.7119
-374.771
-199.786
-291.169
223.569
67.5997
-355.438
-308.002
567.755
-999.172
238.314
-50.6575
-187.656
-30.3298
213.929
-183.6
-1037.66
331.91
705.753
-43.36
377.377
-334.017
324.751
56.3693
-257.935
116.04
141.895
350.128
-82.0247
-268.104
377.128
-113.21
-194.496
297.273
291.15
-214.491
138.792
-169.122
-82.6776
584.701
-502.024
751.217
-184.539
-126.276
-329.152
455.428
853.996
-731.442
237.43
-224.879
-34.5025
-292.477
-537.145
76.19
86.7305
-162.921
339.815
-54.0481
-285.767
-80.4864
185.191
-104.704
370.129
-100.872
-91.9723
-359.65
451.622
7.62612
843.952
-851.578
-776.54
804.094
-27.554
-243.36
78.3535
165.007
-754.18
440.851
313.329
53.5556
-165.158
1.16991
175.089
-176.258
-258.966
256.848
6.31422
-231.194
224.88
222.155
-4.66206
147.831
-520.818
372.987
230.491
-211.905
-40.2706
-186.99
-60.2707
526.442
320.794
-44.5314
-276.263
-733.881
741.507
-475.994
341.004
134.99
441.143
-304.02
472.392
-861.368
388.976
-306.338
-79.5279
-726.573
28.924
-165.628
-92.3066
-646.066
631.594
14.4723
-180.472
351.77
-171.298
308.2
317.422
263.446
-169.081
-94.3645
277.938
-271.976
-461.595
-208.775
-92.917
270.761
-177.074
-93.6872
-520.968
-6.72733
527.695
200.94
-95.8888
1006.23
-1006.23
433.609
-493.363
-544.3
145.608
205.293
-350.901
-451.814
417.312
-331.882
296.325
-327.112
423.845
138.727
-562.572
50.4014
712.479
537.727
-113.881
395.617
-569.153
92.5143
222.086
-314.6
-210.716
-227.99
438.706
263.787
82.2457
-346.032
-297.379
-544.679
842.058
491.059
-752.663
351.132
12.0053
-363.137
-977.633
417.697
96.1306
241.27
-250.147
302.408
-359.43
-38.319
157.087
-118.768
11.7618
-262.953
-254.57
11.8507
242.719
226.599
44.1623
272.034
-357.138
227.33
-93.2395
-509.168
-169.286
-137.418
-390.59
-363.591
-940.66
-170.883
1111.54
-497.517
941.986
-444.47
-143.022
-19.8206
162.842
-668.832
636.764
32.067
-244.102
338.754
-94.6517
260.876
285.016
2.10456
-212.446
873.968
-912.519
38.5518
444.459
-103.497
186.182
-377.99
185.565
192.425
-230.655
42.4608
188.194
-483.59
-37.3776
134.726
-245.515
308.775
-73.9991
-1075.72
886.468
-516.29
453.051
-128.45
248.728
-120.278
-69.2048
383.56
-314.355
365.344
-315.398
-49.9457
-390.518
45.3432
-212.35
-284.729
669.539
-384.811
-63.8562
-260.613
-70.2077
421.34
4.4325
192.238
-196.67
889.824
189.861
-334.674
-43.3158
183.543
181.801
-373.124
-455.979
829.103
-820.586
359
448.454
-951.575
503.121
81.5192
-412.906
331.387
-279.719
199.233
-10.7724
468.149
-171.245
-192.108
-460.204
149.476
616.061
6.53965
25.1647
213.149
429.418
-103.304
-326.114
-106.679
-89.7617
196.441
119.262
199.098
-260.688
9.11303
-118.373
-59.9125
178.286
-386.59
-14.6148
401.204
-2.28056
281.645
-279.365
-103.795
494.476
-390.681
-412.914
346.038
-82.2513
-888.376
816.966
350.978
-324.063
-87.2287
-304.925
-88.8487
-290.928
-655.661
-123.565
-511.796
263.87
247.925
-284.952
38.2862
-114.338
128.175
16.0768
184.785
414.745
-599.529
29.0042
-269.63
14.2623
-3.47695
299.757
150.679
-261.453
-53.9198
-243.065
296.984
-810.786
796.242
14.5432
232.899
-252.832
19.933
362.869
535.228
287.803
-369.827
-18.4863
306.109
-724.608
694.185
290.474
-211.174
-79.3
287.982
-17.5056
-187.205
-160.535
-316.285
476.819
-214.941
-99.0068
310.888
-364.936
445.262
-537.235
118.586
77.8879
-196.474
206.869
-128.976
-77.8924
277.751
-650.875
144.713
-512.814
245.435
-96.3764
-149.058
47.8529
-811.48
-429.949
303.594
-348.125
-568.09
649.609
-474.888
68.1577
368.317
-665.696
157.682
-254.737
97.0551
-848.829
896.682
-30.3514
-8.22541
804.377
-219.839
217.057
2.78193
-312.533
198.873
113.66
-229.055
-173.19
-54.1859
424.635
-370.449
546.798
-629.476
43.0384
-228.701
185.663
173.556
-130.518
295.099
84.1969
-264.669
172.834
20.9237
-143.023
766.85
107.118
-445.065
183.5
-242.36
175.08
67.2795
198.13
-242.539
-2.0272
192.163
-190.136
-309.538
255.618
-224.002
-13.9041
237.906
-510.022
383.746
171.244
-191.755
-580.924
-65.1419
614.917
4.73596
-270.964
-229.444
194.899
-76.5699
-118.329
-121.469
-95.7265
217.196
136.608
-207.99
71.3826
-72.8974
284.364
-211.467
-226.201
214.682
11.5192
-196.737
-29.4644
322.232
107.186
965.532
-707.911
-280.775
-310.546
246.69
191.404
33.0296
-224.433
-973.097
799.035
174.062
-396.097
168.874
227.223
-496.644
-122.65
619.294
-158.937
-806.174
14.8568
-300.923
-466.882
452.267
-96.0995
-216.434
232.125
-18.1955
656.956
-99.9435
-557.013
347.378
-451.172
-159.267
756.334
-597.068
-210.702
-220.878
431.58
-286.671
270.96
15.7116
5.94202
-74.218
210.826
-98.9899
-192.179
-527.09
15.2943
-16.1495
-90.9578
-744.756
39.4439
-432.248
-217.697
96.2281
-283.308
185.061
698.907
257.587
-307.262
164.164
64.0367
-309.907
18.0625
291.845
-267.674
37.0186
-37.2376
-996.591
778.425
218.167
-22.549
228.628
-118.732
275.061
494.482
-523.014
28.5319
-280.803
-195.191
-361.585
397.608
-36.3482
157.262
-120.914
959.415
-799.246
-160.169
23.6986
-527.545
503.846
-5.98196
-164.871
170.853
-175.123
-109.829
488.005
-63.5539
-232.425
493.301
-558.496
119.616
438.88
-181.553
274.723
508.3
-352.306
-155.994
295.465
8.22656
-303.691
-271.357
209.843
649.099
-84.5629
-564.536
430.223
-245.439
-433.438
389.73
43.7081
280.6
-4.5667
-246.832
-63.0756
-180.961
56.3561
201.995
-500.47
64.7697
435.7
-261.357
262.709
-346.266
343.985
-327.057
-67.4812
-417.697
-455.555
401.37
-530.6
1001.81
-471.208
-132.421
96.0728
-176.809
-219.288
488.469
-50.2832
-438.186
-17.0762
-299.985
317.061
-500.369
560.629
-60.2601
404.996
204.112
-100.36
-103.752
163.108
-236.006
199.736
-201.763
-306.104
129.03
419.722
-396.023
-10.707
-275.964
82.5671
-897.502
897.502
132.054
4.1625
420.454
-424.616
-164.44
184.142
-19.7018
-524.152
313.436
-423.362
66.3748
356.987
42.9825
151.916
-486.966
365.923
121.043
-238.911
436.845
51.1598
308.358
42.0502
-350.408
338.275
-78.2147
-426.703
-23.9303
114.987
-357.867
288.662
330.904
-219.871
-111.033
-55.853
146.473
-90.6203
-940.66
-300.285
-217.386
120.905
96.4808
-293.836
231.307
-431.994
-519.581
254.402
521.963
-776.366
-146.271
-530.514
676.785
-446.578
175.614
-20.9634
193.798
215.036
-15.3004
-657.484
640.597
16.8869
74.3699
355.854
290.499
-64.1035
-226.396
-100.549
-520.485
621.034
-571.814
803.328
-231.514
-573.448
56.4552
-776.594
183.702
592.891
-981.309
414.192
567.117
-286.065
-272.431
-124.68
475.658
-968.59
437.99
-675.496
814.354
-138.858
609.714
-710.262
-210.735
251.62
-230.887
124.331
-799.827
-164.431
-694.195
858.626
662.828
-13.729
501.283
326.823
-59.6949
271.908
-116.306
96.4859
-118.198
192.331
-536.308
254.739
-227.648
-27.091
-140.177
321.295
-181.118
-182.884
-86.7461
522.341
-27.8584
-291.787
274.711
13.0443
623.72
-703.946
-650.714
-253.787
-246.683
36.327
222.25
22.8272
432.534
-455.361
-362.707
344.558
18.149
-141.558
156.894
561.623
440.185
-349.806
-195.82
545.626
188.367
-243.613
-82.1607
280.869
-69.0127
-354.349
191.103
-230.037
-237.57
311.94
202.743
-130.167
-459.54
-521.769
-295.926
-12.3701
308.296
-285.403
159.904
125.499
-173.987
178.419
-196.557
-88.8463
225.994
-219.68
251.403
-282.597
31.1934
269.494
-64.5354
-204.958
-805.204
646.267
-312.73
-298.597
54.4949
-290.997
303.002
274.973
-106.228
511.224
192.302
-55.3258
287.27
528.504
-815.774
-194.674
166.352
40.5161
-570.596
410.062
-942.723
286.27
302.506
-800.022
-473.248
-73.1314
546.38
-540.365
468.746
71.6194
284.029
-210.704
46.2647
-627.376
394.95
-12.1875
169.87
-315.886
338.713
157.413
-509.719
-137.7
-37.6741
230.265
-7.07636
278.036
270.656
-86.3947
197.355
764.052
-3.95946
299.893
-281.242
-18.6506
-237.216
-110.692
-117.109
-33.0998
265.998
686.252
255.734
82.3122
192.748
336.98
-122.809
-84.8174
289.267
-204.45
-424.347
95.1951
495.348
-230.661
-264.687
289.306
-296.382
-17.2213
-673.652
690.874
227.112
-834.56
444.042
-237.197
42.5984
-318.861
-94.6363
-380.52
475.156
-124.901
137.014
255
-314.695
286.878
6.22361
-875.411
329.941
54.8394
-340.607
-726.138
-519.416
-453.681
239.365
78.8855
-346.989
244.615
-326.776
162.955
82.4794
124.935
-223.168
98.233
-490.442
130.793
511.706
-924.62
-171.601
95.0306
458.349
26.8286
-574.676
-421.916
18.3919
-599.316
-3.31998
298.784
-101.087
374.371
-273.284
-125.527
-90.4841
128.858
-192.729
-87.0149
-343.832
379.083
-219.008
-59.0537
278.062
-67.386
227.29
-291.615
-260.822
242.962
17.8605
43.7923
-243.934
286.532
368.783
-39.8691
-322.837
-21.0222
235.704
205.335
-28.1826
-177.152
-110.008
-467.114
54.0106
413.104
-293.671
-130.982
424.653
155.438
-211.291
309.84
-264.248
98.6198
-199.182
-119.35
318.532
788.532
323.501
-38.0441
-212.183
250.227
-18.9894
-521.376
-295.926
-742.579
369.548
373.031
4.72072
-297.576
-4.25724
275.342
-13.187
230.244
253.71
-340.784
87.0738
-468.363
-117.975
-551.921
211.875
340.046
211.929
25.9766
237.853
321.902
-622.353
300.451
216.96
-421.54
204.58
-363.782
386.378
-675.984
289.606
935.784
-909.505
-740.933
456.205
-401.697
-118.598
520.295
172.219
127.673
-331.439
562.505
-374.609
-187.896
383.284
-194.917
-815.904
244.09
250.957
244.391
-235.911
60.7871
378.798
-107.072
179.848
-182.298
2.4506
233.279
11.6837
587.522
-614.301
-512.852
205.904
306.948
75.9829
-337.987
-157.134
495.121
87.7652
372.055
-180.952
265.405
59.9722
-468.982
188.179
286.55
148.899
-435.449
122.718
-251.168
-161.048
-229.29
-206.225
-362.381
18.5493
-28.5979
-628.886
-34.358
231.347
-196.989
-327.478
172.549
154.929
-358.589
-97.5076
456.097
-234.28
-91.8568
189.427
15.908
-313.687
83.7391
168.281
115.292
-283.573
-274.331
-132.636
406.967
-363.705
-291.768
271.961
19.8069
151.375
-368.113
216.738
150.485
-256.941
106.456
-37.6301
-86.1659
-288.294
374.46
-392.359
221.114
211.686
-440.976
-282.215
137.364
144.851
-464.533
148.248
35.1364
-440.39
405.254
-197.721
-63.101
159.618
384.317
-333.361
-50.9568
-209.759
204.883
4.87607
-259.55
142.103
117.447
-110.407
-131.952
-286.394
-114.39
913.425
-217.366
-31.4788
282.599
-487.614
292.423
138.365
-344.169
205.804
-373.128
-119.146
492.274
-471.371
-215.898
220.522
-29.1189
238.622
689.687
-706.908
-48.9371
-272.867
321.804
81.5741
-710.885
629.311
215.089
92.811
-307.901
306.834
-101.54
-217.953
232.81
-364.37
-45.4824
409.853
-710.646
39.3469
671.299
-456.277
-178.304
-67.6121
-278.654
522.425
-7.19819
-774.44
-19.6345
794.074
-170.944
516.879
-345.935
-190.989
478.258
180.666
-518.653
325.534
-103.448
88.2267
433.931
-425.936
430.098
-330.915
-134.895
465.81
-523.922
50.674
328.262
12.7424
54.355
-272.308
262.184
-57.3333
-204.851
-95.7145
-103.127
302.36
-80.7945
-277.073
74.925
199.798
-302.292
-96.1218
398.413
-286.46
345.894
-59.4335
-79.7902
277.92
-341.48
-126.585
468.064
-266.615
133.543
133.073
-140.693
-17.2525
41.8072
-652.369
610.561
-181.201
-252.237
-270.609
-250.209
-337.453
-92.4964
-216.563
-74.8461
291.409
415.338
639.663
178.046
-265.702
87.6564
144.008
505.601
233.53
28.6545
198.182
-251.194
53.0118
-357.364
-152.658
-531.905
-76.4912
354.43
-180.75
316.063
-32.0344
625.414
-175.845
-4.45766
230.452
-243.386
278.065
-34.6785
713.628
1.07677
288.229
-602.059
492.394
109.665
227.281
63.2178
199.6
-38.9146
192.648
-330.066
107.637
-330.714
18.2995
-355.084
359.474
-4.39027
116.964
-220.729
179.457
24.9189
-320.542
320.522
0.0198983
247.513
-306.567
247.993
-17.7332
-331.994
-119.82
-50.6904
238.032
11.858
242.881
303.35
4.83057
-362.087
-141.259
503.346
-78.925
-150.931
-199.596
-29.1049
90.7694
236.494
260.669
-293.769
296.055
-62.0245
-231.586
242.957
-11.3707
-1060.79
708.185
352.609
-422.187
128.516
289.107
-0.00207403
-289.105
-64.396
353.058
577.253
-182.193
-30.7961
212.99
-39.3155
-219.651
-264.21
-59.8987
324.109
-287.512
-58.2564
345.768
-70.0487
-510.161
-91.8984
-797.837
785.488
12.3483
73.8566
223.175
-297.031
53.7305
283.206
-178.063
474.002
-295.939
-238.399
-72.1471
-428.797
111.154
-236.681
171.562
-263.869
-325.101
-104.421
429.522
-92.751
417.255
-324.504
-384.323
-82.5587
-243.76
-70.9347
2.08463
-422.242
-94.0478
-201.387
683.816
9.69511
637.277
-646.972
-198.275
46.3613
228.311
-813.305
584.993
181.872
-410.928
277.726
-23.6325
119.928
-1011.89
-238.458
-88.318
439.741
-6.13236
-470.636
-398.913
-105.15
-657.399
212.834
-422.421
209.587
22.708
261.656
-319.442
-66.4672
385.909
11.3973
-288.271
276.874
830.054
-116.427
-491.457
480.685
-59.4455
-714.994
-62.915
406.9
-846.67
783.441
297.577
-471.948
402.936
-93.1379
-118.036
199.864
169.259
-369.124
-438.249
-246.541
184.304
19.4112
-203.715
-221.145
913.135
30.4736
-991.998
559.75
-222.407
-93.247
315.654
719.954
31.1081
332.677
-90.1591
373.848
-355.298
-402.087
408.086
-5.99936
328.204
-326.731
-1.47324
341.064
-102.442
-17.1922
-405.713
-121.832
-238.723
-112.178
-211.119
-103.481
-598.949
783.433
-184.484
-205.924
9.36793
-194.135
-387.054
-462.521
412.238
95.5066
-288.235
-134.598
-112.299
246.897
-43.6502
389.657
-346.007
310.986
-55.3679
218.607
-68.2701
-150.337
86.2517
-251.123
121.317
169.833
313.245
-98.1553
-304.905
-110.376
214.674
527.156
-143.411
26.3122
-773.595
747.283
-298.537
121.915
-208.31
-30.2694
-44.582
301.43
37.9077
771.846
-699.013
856.335
-110.831
-745.505
377.822
-75.5148
-302.307
127.757
-248.034
-93.0301
508.512
-415.482
-229.893
-59.8885
23.751
-734.636
408.558
-110.073
-290.85
286.577
4.2724
-196.484
-78.7751
275.259
203.826
25.5872
-229.413
-34.5618
-123.824
-451.766
-609.028
-427.385
203.288
-16.9513
-230.019
-18.2654
245.377
55.7568
-537.299
481.542
-288.516
247.37
-424.179
187.194
-379.301
697.013
-317.777
68.4332
-269.456
201.023
-111.883
297.449
560.087
-164.47
-235.975
-143.85
230.598
860.595
87.6697
-308.296
229.774
46.6381
725.208
-12.0798
191.928
-324.234
-93.2028
358.838
-55.2444
-450.645
-528.679
156.577
372.101
-152.164
-502.802
654.967
-568.006
1012.46
-714.393
115.444
-476.375
-302.953
287.043
90.0847
-913.854
66.0899
847.764
-350.564
374.52
-63.6315
-8.16832
361.462
336.232
9.66115
228.88
-198.987
-29.8929
-323.056
101.911
-195.463
-14.2954
243.123
364.601
-76.7987
614.366
-110.52
294.256
75.8728
547.114
-101.851
513.265
-98.5206
255.518
-35.2798
-220.239
395.971
-472.173
-318.734
790.907
530.603
-266.733
-296.056
-556.447
80.4148
476.032
312.779
-66.0892
-711.172
677.486
33.6863
523.096
-70.8287
-30.4733
635.288
-604.814
-323.853
259.317
284.814
53.9392
431.031
106.696
-383.086
217.252
-31.5899
313.693
-2.70687
-433.575
-129.251
-34.7461
591.18
323.248
-316.327
-6.92117
-514.758
46.395
-384.535
-332.224
300.189
49.0354
328.342
-296.353
294.959
-35.6415
-144.304
-254.556
-240.682
3.27009
237.412
-401.442
-112.385
-34.4018
547.392
-38.1361
-6.44158
474.591
545.423
-26.3626
-173.183
-273.864
328.777
-54.9126
-95.9668
249.105
32.3204
-743.493
-300.976
-213.849
351.64
-392.114
-63.4417
443.422
621.672
222.892
-844.564
-141.649
539.602
-131.043
326.618
-251.691
-74.9274
-111.024
-589.298
-187.296
31.0202
209.419
126.814
-129.797
236.252
-263.078
-264.079
301.75
-37.6701
245.419
307.068
-431.748
697.104
414.439
-260.337
331.924
-71.5865
-247.27
-470.26
-210.486
837.405
18.9307
362.025
-48.3327
-939.783
25.9288
355.093
-83.0584
-744.894
14.257
-319.182
634.453
206.795
-88.2089
-91.8567
10.117
295.992
-361.979
7.31342
354.665
-209.917
-120.86
239.682
-105.111
-477.831
-92.7654
495.438
-85.3762
357.267
23.7741
-314.702
-82.7842
-106.204
-518.925
372.653
-117.625
653.031
-629.28
-288.11
366.515
-78.4044
-222.679
39.795
282.034
22.7781
-444.201
-480.419
-427.746
972.385
-469.373
-503.012
534.164
-81.1131
-523.183
-104.192
-63.3107
18.2846
507.634
-112.684
-18.4166
53.4731
177.874
-238.297
-206.768
44.6957
-70.6802
549.075
-120.134
-405.235
-360.893
309.033
265.163
0.83584
419.337
-62.0695
-52.7902
-148.597
-178.607
-307.2
31.2355
74.2418
-273.838
439.987
-651.538
579.275
-86.3941
-492.881
758.857
-726.537
393.745
-42.1053
-276.246
-307.507
35.4342
544.449
-101.027
-758.25
784.562
216.993
-2.40839
-214.585
-116.893
212.4
461.514
-60.144
565.536
-127.8
-281.051
282.128
-106.633
-110.753
-200.521
231.6
-31.0787
-100.806
273.025
299.363
-41.7764
-62.2659
250.531
-473.452
-278.015
271.876
-236.031
-35.8451
-381.385
390.65
-9.26481
-17.9502
-99.6033
283.147
309.735
-312.52
2.7848
-253.325
-120.851
-1.49612
158.583
-321.765
411.898
-43.1309
787.15
-744.019
-507.871
348.515
-41.4465
32.8612
346.002
12.9848
-358.987
7.15834
382.572
204.259
481.588
33.4167
471.179
40.0444
356.338
-47.9795
-43.9788
242.161
219.364
69.903
-856.518
866.213
-302.52
284.555
17.9648
-549.592
249.483
1.04826
754.045
-556.723
-197.322
260.352
-184.384
-75.968
433.3
228.512
28.787
493.554
-198.627
618.034
-419.407
73.2765
-50.9929
844.088
-793.095
-390.68
304.514
476.507
198.875
234.957
0.747512
226.414
-172.585
-484.966
657.551
39.3701
208.622
60.2647
-557.907
571.285
-508.708
793.894
-274.695
-519.199
-299.824
-174.116
35.9534
271.165
0.795628
-228.716
-258.25
-339.784
-480.803
4.12194
185.667
-189.789
293.16
265.852
188.301
-792.509
768.476
24.0338
0.712315
408.716
-454.195
45.4783
287.747
50.5742
6.00787
748.827
-754.835
93.3777
235.399
28.6505
96.608
-292.026
305.823
-13.797
-892.142
-48.5181
196.285
-124.277
-488.73
613.007
-293.322
815.286
-138.698
-401.98
-112.778
-560.988
136.946
358.175
34.9972
-255.046
-26.0046
199.187
-145.714
11.1431
850.193
47.3085
-15.0813
303.311
473.006
-356.948
-116.058
-626.379
261.134
365.245
128.373
173.987
369.581
-348.3
237.267
140.427
289.095
229.802
230.256
12.7008
69.808
-483.927
414.119
807.086
-248.478
-558.608
185.243
198.75
-383.993
323.516
401.954
254.471
3.73293
-626.333
-306.014
247.968
-889.801
367.848
53.7143
-434.234
74.1841
-635.148
-99.4887
246.586
-359.689
363.346
555.799
-568.263
645.127
-76.8644
-11.7624
372.903
412.88
-308.248
-37.4048
171.593
-134.188
-303.319
296.016
-17.9794
639.907
-346.817
-22.8938
377.066
-354.172
66.6908
-182.818
228.634
-45.8156
-250.514
228.972
21.542
284.403
509.49
166.673
-403.398
407.429
-1069.71
1075.72
105.654
-9.8982
443.925
180.486
-58.571
416.031
349.846
215.029
22.6048
249.207
365.078
-26.1118
-338.966
-649.948
648.632
1.31606
231.294
197.083
-11.4154
501.987
-432.179
-210.783
766.582
267.003
85.7008
238.44
-361.249
-178.35
26.9397
244.936
735.411
-149.811
-585.6
-844.036
909.505
307.453
350.788
211.357
-211.359
554.137
-992.386
419.782
322.994
288.026
-40.335
465.394
291.408
59.7708
-417.374
357.603
-228.043
312.248
-13.3208
1.4886
-824.34
694.146
803.171
-193.457
334.24
244.409
96.8359
340.161
-20.241
-319.92
269.435
269.899
294.142
-188.959
88.599
-273.389
283.333
-9.94425
417.651
-522.168
-254.198
-3.60909
218.638
432.082
-573.341
-276.455
21.409
450.401
-112.614
-246.268
358.882
-335.044
-193.634
634.727
106.172
426.428
-943.44
517.012
-460.398
418.227
42.1717
-3.26947
253.489
-250.22
341.593
-274.902
259.799
-236.922
-22.877
272.841
12.7695
-195.588
-848.829
65.8142
325.795
-391.61
-31.9568
722.114
-690.157
323.093
-295.895
-27.1983
-445.677
443.704
274.796
-236.888
-400.005
978.678
-578.673
284.919
-14.0489
198.352
536.547
463.453
-198.081
208.628
12.2139
-220.842
-28.1991
399.234
-593.534
33.6013
559.933
202.026
264.734
-335.669
-16.2368
-365.148
-913.135
862.142
-496.988
1033.54
336.879
-55.9173
239.193
-2.05477
-237.139
489.188
-435.177
66.548
-718.917
-459.951
-0.447459
-257.678
318.808
-469.496
-499.094
298.987
-18.9539
-280.033
-959.932
441.757
-797.837
156.761
33.039
-189.8
30.8421
598.469
648.388
-633.916
-291.408
819.912
-92.7594
220.036
383.746
-522.316
138.569
-128.795
355.287
-226.492
-703.868
750.506
-386.95
238.709
-224.116
233.447
-9.33118
-275.343
701.771
314.049
601.881
27.7841
-786.034
-232.105
256.905
-345.223
-59.7522
-228.97
240.82
-896.682
980.847
176.088
39.5511
-215.639
264.685
-269.602
-87.5359
26.6427
399.992
208.876
-608.868
502.759
-902.763
482.494
-62.7725
-222.567
-3.35872
225.926
-114.256
-192.944
-260.684
55.7251
-165.72
-137.084
302.852
291.943
-265.003
-116.505
-317.608
434.113
280.934
289.514
-17.7593
-293.6
311.36
-691.061
17.409
853.246
-892.142
935.784
-963.607
949.764
955
-955
-844.036
-1011.89
242.365
-207.367
-241.962
-212.624
-187.52
-2.6164
736.969
-956.427
219.458
-866.213
11.8915
-282.222
192.2
-35.4388
-763.398
791.182
228.511
-7.03023
-221.481
-256.441
267.838
-11.9842
-250.064
262.048
248.906
-14.304
-234.602
202.151
-229.242
-23.7681
-253.742
277.51
-188.28
201.234
-12.954
250.319
281.228
-347.503
407.274
105.291
-182.229
76.9379
-366.241
-581.556
-194.512
207.981
-13.4687
-419.79
-84.1871
503.977
194.793
-175.382
41.6378
202.328
-26.2406
-349.776
239.084
459.597
-96.2511
199.277
459.972
-51.2555
321.379
-391.412
70.0333
18.846
-636.067
666.909
262.874
-461.502
-783.753
730.298
53.4549
480.801
497.877
48.1925
411.404
-238.036
260.744
-73.1311
-710.622
246.171
-339.418
709.497
-893.982
319.5
-718.36
398.86
128.37
264.415
-206.17
-58.2444
-51.259
-387.897
-867.82
592.477
-2.29344
259.054
3.24139
-312.489
309.247
16.9641
-48.208
236.005
282.117
-37.1812
185.651
-58.3676
-127.283
738.549
20.3084
272.989
303.3
6.72133
180.829
-228.525
47.6955
246.847
-300.468
297.148
-297.323
-203.497
217.933
-14.4356
74.7846
-494.574
251.417
160.481
-88.3533
825.323
-594.602
406.705
548.626
-640.84
230.783
-334.232
314.073
-442.868
200.407
-312.586
218.466
-192.879
-329.453
227.913
-190.341
-7.87399
198.215
228.782
-332.263
368.644
-266.486
-102.158
-4.12551
485.668
-442.508
-560.364
1002.87
-729.095
644.532
-50.6306
-320.636
371.267
21.3831
55.5035
-311.818
307.561
-269.64
-6.81476
203.542
57.5973
-261.139
-189.059
-233.362
-309.278
223.647
-209.136
-14.5108
-312.489
-413.299
413.299
186.935
-658.306
182.431
164.843
309.247
727.447
-235.053
-41.7946
-645.787
687.582
524.777
-85.8968
235.924
-364.91
315.973
391.288
243.545
4.48386
232.72
-172.534
-60.1859
-34.4473
-686.816
686.816
-176.065
-387.804
-98.2116
-138.47
207.051
20.2789
-157.162
227.975
-423.324
479.211
-181.073
-198.228
701.707
-489.178
-212.529
-136.029
-112.005
519.403
-146.416
-82.2609
-36.5186
-489.179
525.697
-500.484
-287.311
510.849
-17.2955
-20.9828
-723.689
551.104
-458.132
-65.7907
767.729
19.4208
231.392
-113.001
773.769
-660.768
95.8295
820.245
683.203
829.826
149.497
-217.767
-387.018
-72.9332
-235.754
250.111
-221.864
49.6816
-200.25
-897.532
41.3294
856.203
29.0673
403.187
812.131
-262.668
247.181
15.4869
1066.44
-542.4
-524.04
-169.247
5.1022
475.582
203.433
-37.0806
293.166
252.46
429.369
-772.057
956.334
-184.277
-369.001
8.10819
232.042
18.0854
665.731
-84.2662
-218.253
-200.136
-227.61
213.255
92.3783
635.069
690.018
-731.813
91.6703
-795.539
22.9818
654.504
752.326
-849.65
97.3238
-627.568
535.993
91.5748
627.339
-563.616
-63.7232
-446.641
521.426
54.2039
-117.1
-113.793
230.893
155.766
305.707
-584.893
406.589
192.1
-192.1
-199.684
219.18
-879.241
436.733
-662.223
537.946
-556.447
856.518
-944.871
23.9698
-238.206
205.019
-199.341
-211.587
-249.864
21.7034
357.38
35.8156
342.007
-351.99
-362.541
35.8101
399.903
-666.636
-55.337
-726.786
782.123
207.58
-286.355
55.3459
143.915
-256.214
-623.55
655.617
-179.292
-84.5768
8.30592
542.88
126.659
-309.83
-22.3932
-455.128
957.887
864.106
-864.106
333.345
43.721
11.6101
462.981
-761.531
17.5113
650.551
16.3583
80.4558
417.623
-498.079
215.279
302.855
-4.07037
9.25445
672.793
18.0809
-819.135
631.839
195.658
303.108
-498.766
-810.082
535.388
210.902
-411.566
20.4159
-649.696
-192.442
-49.286
241.728
-116.374
224.961
-108.587
15.4645
45.0622
356.357
41.2501
-202.42
17.4763
-244.89
512.845
659.187
62.9277
12.5072
128.742
-119.673
-177.358
196.898
388.02
-496.48
-707.864
-64.1922
-199.072
-467.022
-476.418
-274.105
-360.829
624.763
-515.098
6.75081
798.361
-805.112
318.472
50.1723
392.998
-59.6528
618.432
-54.3859
-564.046
313.841
-17.5167
-572.131
-98.0728
670.204
-5.09571
-232.42
-585.131
409.287
-184.856
-39.8444
224.7
237.765
611.312
66.2696
-212.781
-117.285
24.8379
204.141
-546.191
638.569
194.485
3.86789
-199.894
397.042
-197.148
291.857
-844.843
552.986
-778.401
19.4366