/*--------------------------------*- C++ -*----------------------------------*\
  =========                 |
  \\      /  F ield         | OpenFOAM: The Open Source CFD Toolbox
   \\    /   O peration     | Website:  https://openfoam.org
    \\  /    A nd           | Version:  7
     \\/     M anipulation  |
\*---------------------------------------------------------------------------*/
FoamFile
{
    version     2.0;
    format      ascii;
    class       volVectorField;
    location    "38";
    object      U;
}
// * * * * * * * * * * * * * * * * * * * * * * * * * * * * * * * * * * * * * //

dimensions      [0 1 -1 0 0 0 0];

internalField   nonuniform List<vector> 
20933
(
(0.997775 -0.000219737 1.97671e-23)
(0.990772 -0.000718613 -1.39441e-22)
(1.03113 -0.00421521 6.94115e-24)
(1.00027 -5.84653e-05 -2.23673e-24)
(1.0006 -0.0104458 6.33279e-23)
(1.00018 -0.0111004 -6.22578e-23)
(1.05964 -0.201301 -8.69388e-22)
(1.11395 0.0796331 -1.1859e-20)
(1.00908 -0.100125 -2.04736e-21)
(1.12009 0.0807745 8.51996e-21)
(1.072 -0.179071 -2.60214e-21)
(1.22397 0.138696 -2.95522e-22)
(0.982791 -0.0641273 -2.87464e-22)
(0.9976 -0.00026297 -1.707e-23)
(0.995159 -0.00358104 1.40807e-23)
(1.00027 -7.11825e-05 -1.97918e-24)
(1.30567 -0.00564031 -1.16825e-21)
(1.13058 0.00229657 -6.0022e-21)
(1.01023 -0.153248 -1.39042e-21)
(0.992887 -0.000341954 1.2315e-22)
(1.0251 -0.114904 2.79246e-21)
(1.21972 0.138146 -5.8077e-22)
(1.12266 0.0876387 -6.39069e-21)
(1.17776 -0.212772 -1.81231e-21)
(1.02893 -0.00196214 3.21717e-24)
(0.989887 0.0941519 -2.04433e-20)
(1.01057 -0.00312306 2.93113e-23)
(0.993351 -0.0692849 9.75651e-22)
(1.23289 -0.18811 -1.74582e-21)
(1.01375 -0.154676 4.94741e-21)
(0.998497 -0.00239583 -4.04012e-25)
(0.946104 0.0147262 3.17946e-20)
(1.15819 0.133405 4.95574e-21)
(0.990248 -0.0394486 1.01067e-22)
(1.00001 -0.00182369 6.2083e-24)
(0.998554 -0.00259851 -7.66556e-25)
(1.10538 0.100476 -1.30386e-20)
(0.999945 -4.00744e-06 -3.80312e-24)
(1.01747 -0.0230301 1.01894e-22)
(1.14253 0.00483394 -1.97119e-21)
(1.04882 -0.0096202 3.21695e-23)
(1.12119 0.162305 9.11307e-21)
(1.0364 0.0494903 -5.74639e-21)
(1.0094 -0.00362072 -2.44097e-23)
(0.989716 0.0903928 8.1084e-21)
(0.979504 -0.0015193 -9.66172e-23)
(1.10908 0.0122339 -1.80725e-20)
(1.27671 0.07623 -5.41121e-22)
(0.999627 -0.00010071 -3.45812e-24)
(0.967531 -0.0559038 1.09432e-22)
(0.999893 -0.00193879 -1.5158e-23)
(1.08977 -0.0101196 8.23507e-22)
(1.23069 -0.11516 5.2546e-21)
(1.00029 -0.00440356 -2.29819e-23)
(1.27185 -0.11094 -1.29161e-21)
(0.943982 -0.0197214 -3.15823e-23)
(0.974026 -0.0365241 3.47188e-23)
(0.998321 -0.00314296 -2.73507e-25)
(1.01227 -0.0574213 -1.29402e-21)
(1.30142 -0.00147341 9.56584e-22)
(0.97332 0.0312423 1.71739e-20)
(0.969509 -0.00438526 -2.88175e-23)
(0.988528 -0.00334964 3.43903e-24)
(1.13499 0.0801355 -5.38548e-22)
(0.999487 -7.56707e-05 2.23494e-23)
(0.994612 -0.00918469 3.38133e-24)
(0.993679 0.0650753 5.21751e-22)
(0.993977 -0.00957922 2.74226e-23)
(1.14799 -0.083499 -1.23054e-21)
(0.996359 0.0959509 7.63645e-21)
(1.04929 -0.0502063 -5.20333e-22)
(1.31407 -0.038049 -2.10382e-21)
(0.995598 -0.00360754 -6.51756e-24)
(0.980437 -0.046308 7.95889e-22)
(0.999768 0.00822734 -7.64349e-21)
(1.09486 -0.0991405 1.3646e-21)
(0.99689 0.0896589 3.53123e-21)
(0.960632 -0.00511213 1.79975e-23)
(1.14013 0.0032941 1.26945e-21)
(1.00287 0.0329916 1.11249e-20)
(0.995642 -0.00960633 9.75067e-23)
(1.00245 -0.00525448 -2.67538e-23)
(1.21308 -0.194403 1.39869e-21)
(1.01008 -0.0967582 1.70652e-21)
(0.972942 -0.00346016 3.37649e-23)
(1.0338 0.0466703 2.76825e-20)
(0.986193 -0.059627 -5.13864e-22)
(0.895786 0.053369 3.00774e-21)
(1.13077 0.0749885 -5.11395e-21)
(0.974166 0.0946947 1.30358e-20)
(1.12435 0.0309311 -6.84177e-21)
(1.00035 -8.61511e-05 2.12397e-24)
(1.00003 -0.000358939 7.147e-24)
(0.955876 0.00461533 -8.88198e-21)
(1.28225 0.0704888 2.73052e-22)
(0.988855 -0.00354881 1.47945e-23)
(0.964481 0.00297092 1.36173e-20)
(0.999228 -0.00523161 1.61087e-23)
(1.07654 -0.172261 -1.15185e-21)
(1.07855 0.0172078 -7.23041e-21)
(0.970549 0.0971592 -3.86151e-20)
(0.972785 -0.0112834 1.12189e-23)
(0.96121 0.0883738 -4.22505e-20)
(1.2136 -0.106314 5.68515e-21)
(1.11866 -0.00333559 -2.95419e-21)
(1.12555 -0.0930347 1.4035e-21)
(1.02333 0.10791 1.42821e-20)
(1.19634 -0.0885176 1.66047e-21)
(0.990592 -0.000412538 2.98551e-22)
(1.04173 0.12331 3.19872e-21)
(1.24131 -0.190041 -5.90435e-21)
(1.05315 -0.20147 -1.94492e-21)
(0.973276 -0.0281976 2.38804e-22)
(1.04026 -0.0259493 1.59581e-22)
(1.09634 -0.0912002 5.12889e-22)
(1.00006 -0.000132631 -2.10187e-24)
(1.05334 0.0800697 1.34999e-20)
(0.996312 -0.0089926 -3.86334e-23)
(1.20711 -0.120929 1.2173e-21)
(1.00246 0.023871 -2.62075e-20)
(1.00034 -6.45888e-05 4.069e-25)
(1.04036 -0.118738 1.86941e-21)
(1.16081 0.0256851 -2.65558e-21)
(1.01361 -0.0659139 -1.79767e-21)
(0.990113 -0.0373552 -7.35567e-23)
(1.13175 0.00467064 3.06263e-21)
(1.19048 0.146398 -1.08412e-20)
(0.992977 -0.0666076 7.81239e-22)
(0.939474 0.0175337 -9.28178e-21)
(1.04863 0.082448 7.2494e-21)
(0.98854 -0.0772999 -7.97873e-22)
(0.967093 -0.0536336 -3.77575e-22)
(1.04894 -0.00498424 4.61884e-23)
(1.01643 -0.0212045 -7.2365e-23)
(1.01804 0.101117 -1.94592e-20)
(1.11478 -0.00622064 -6.8529e-22)
(1.25394 0.0915998 -1.47748e-21)
(1.02917 -0.115339 -1.16916e-21)
(0.978003 -0.0116386 1.38064e-22)
(0.992277 -0.103368 3.64771e-21)
(1.03582 -0.122923 3.0629e-22)
(0.97851 -0.0479298 -7.88241e-22)
(1.31543 -0.0502205 -2.00631e-21)
(0.957151 0.0966658 -1.33663e-20)
(1.23314 0.00315923 4.2043e-22)
(1.01686 0.104094 1.76096e-20)
(1.1633 0.163071 -1.2678e-21)
(0.965857 -0.0118185 -4.93963e-23)
(1.19837 0.136854 -7.57103e-21)
(1.01196 -0.00417493 -6.20948e-23)
(0.966116 -0.0107039 8.72107e-23)
(0.99818 0.0941964 8.85229e-22)
(1.00005 -0.000313409 -4.59207e-24)
(1.00767 -0.0894115 6.40783e-22)
(1.00239 -0.00472264 4.71152e-23)
(1.15937 0.166485 6.80592e-21)
(1.02933 0.0486352 -2.94458e-21)
(1.17203 -0.209726 8.50657e-21)
(0.938244 -0.0233609 1.10204e-22)
(0.981743 -0.0657769 5.99983e-22)
(1.27886 -0.119746 1.85751e-21)
(1.06434 -0.193754 1.34594e-21)
(0.998277 -0.00288939 -1.58287e-24)
(1.22981 0.00867872 -8.81539e-22)
(1.13408 -0.00265305 -5.15834e-22)
(0.897785 0.0557736 7.17587e-21)
(0.97394 -0.0115139 5.79931e-23)
(1.20587 -0.203837 5.39657e-22)
(1.08959 -0.1019 -1.56882e-21)
(1.10635 0.0962279 -7.70198e-21)
(1.25862 0.0913969 5.03277e-22)
(0.98549 0.071731 7.99301e-21)
(1.06487 0.144755 2.15332e-20)
(0.986891 -0.0341778 1.50626e-23)
(0.921404 0.0142276 -1.06747e-20)
(1.16318 0.13472 5.85924e-21)
(0.996877 -0.000601678 -2.15929e-23)
(0.99185 0.00619729 -2.01594e-20)
(1.10352 -0.0885714 -7.99289e-23)
(1.03399 0.127904 6.18548e-21)
(1.01166 0.110289 -8.92905e-21)
(0.999915 -2.8156e-06 4.66268e-24)
(0.956733 0.0664147 5.64196e-22)
(1.06276 0.125964 1.84478e-20)
(0.992311 -0.000576591 -7.02185e-24)
(0.940237 -0.0160256 4.34517e-22)
(1.0486 -0.0468216 3.90952e-22)
(1.08549 0.0133247 -1.86141e-21)
(1.20746 -0.113482 -2.00026e-21)
(0.92719 0.0480792 9.47212e-21)
(1.18852 0.142111 -3.76672e-21)
(1.27712 -0.0275505 -5.89404e-22)
(1.07353 0.0129386 1.44804e-20)
(1.14571 -0.0762026 -3.67597e-22)
(0.938316 -0.0246333 3.09997e-22)
(1.22553 0.106581 -4.18571e-21)
(0.957408 0.0701959 -6.26632e-22)
(1.27866 0.035242 1.36656e-22)
(0.994143 -0.000221509 -9.0473e-24)
(0.92348 0.0473122 -9.26314e-21)
(1.24869 0.0639915 -3.5752e-21)
(1.28301 -0.0811375 1.68264e-21)
(1.22806 -0.107714 -4.78693e-21)
(0.933036 0.0560775 -1.14247e-20)
(0.949471 0.0603323 2.66903e-20)
(0.957852 -0.0285771 -1.70818e-22)
(1.00026 -0.0485992 -9.60965e-23)
(1.08965 -0.00598932 -1.09101e-22)
(0.943403 -0.0215328 -2.78562e-22)
(0.998923 -0.000101626 3.92708e-23)
(0.995201 0.0668741 -3.79981e-21)
(0.988794 0.0219811 -7.26237e-21)
(0.963794 -0.0153988 1.83517e-22)
(0.946601 -0.0402558 2.73259e-22)
(1.0362 0.124324 9.49192e-21)
(0.999223 0.0150985 1.15786e-20)
(0.998955 -5.15872e-05 -1.12638e-22)
(1.00138 0.0178974 -1.77841e-20)
(1.20064 -0.0819012 7.57727e-22)
(1.01766 -0.0186428 2.13213e-22)
(1.00635 -0.071429 1.06116e-22)
(1.03326 0.0759671 -1.4799e-21)
(0.946761 0.106843 1.25039e-20)
(1.1209 0.0278298 9.04571e-21)
(1.04324 0.118262 -1.54901e-20)
(0.976765 -0.0115367 -2.38182e-22)
(1.00286 -0.0479265 -4.69667e-22)
(1.0001 -0.000138942 1.13989e-25)
(0.999287 -3.56116e-05 2.91473e-23)
(1.00045 -0.00870476 1.21939e-22)
(1.15868 0.022422 1.23186e-21)
(1.16843 -0.13015 -1.15713e-21)
(1.02561 0.104915 -1.81926e-20)
(1.00383 -0.121158 9.48337e-22)
(1.02312 0.0396687 1.07044e-20)
(0.987931 -0.0574111 -8.95631e-23)
(1.1178 -0.0895945 -1.0417e-21)
(0.988111 0.070456 1.42807e-20)
(0.958383 0.00365237 4.6005e-20)
(1.03448 0.0720718 2.53322e-20)
(0.999654 0.0870799 -2.17632e-20)
(0.944782 -0.0392862 -2.36585e-22)
(1.11477 0.145648 -5.56283e-21)
(1.01472 -0.0637496 1.9679e-21)
(1.12264 -0.00522991 6.28461e-21)
(0.996137 -0.00806875 -6.28704e-23)
(1.30793 -0.091983 -5.3795e-21)
(1.20305 -0.0508602 -1.54196e-22)
(1.09939 -0.029448 1.20371e-21)
(0.999665 -7.67804e-05 4.17334e-24)
(0.988914 -0.000573668 -3.28305e-22)
(0.942361 0.108847 -1.92269e-20)
(1.18726 0.0555371 1.74781e-20)
(1.01678 -0.0247995 -2.23216e-22)
(0.963588 -0.0608565 -7.93415e-22)
(1.16131 -0.125735 4.22182e-22)
(1.10648 -0.207638 3.60752e-21)
(1.11608 0.161362 -1.16411e-21)
(0.993649 -0.102047 -1.04863e-21)
(0.97553 -0.00185408 1.3671e-22)
(0.996607 -0.0790559 1.17073e-21)
(0.991167 -0.0329609 -1.00484e-22)
(0.999459 -5.60664e-05 -1.45943e-24)
(0.986717 -0.0546769 4.67315e-22)
(1.0693 -0.193113 -6.2068e-22)
(0.956513 0.0925907 2.52037e-20)
(1.29326 0.0413492 -3.82392e-22)
(0.975347 -0.0268818 -4.13832e-22)
(1.0205 0.0415221 -1.65284e-20)
(0.950879 0.0651806 -3.17772e-21)
(0.98704 -0.0620859 9.42429e-23)
(1.00069 -0.000304814 -1.37961e-23)
(1.00685 -0.0931102 -1.1505e-21)
(0.994217 0.0614208 4.39578e-21)
(1.2924 -0.136862 -3.13111e-21)
(0.975796 0.0288272 -2.58859e-20)
(1.00003 -0.000147691 9.79857e-25)
(0.948499 -0.0446774 5.37093e-22)
(1.05151 0.144698 1.72669e-21)
(0.999432 0.0142151 2.35117e-20)
(1.03917 -0.0878521 -3.57842e-22)
(0.97575 -0.0348171 3.07727e-22)
(0.928569 0.0966664 2.05642e-20)
(1.27407 -0.0652189 4.14034e-22)
(1.27065 -0.0326726 5.82996e-22)
(0.96541 0.0899188 1.74169e-20)
(0.928265 0.054975 -1.93585e-21)
(0.985437 -0.0642863 -3.08982e-22)
(1.04965 0.147763 -1.13083e-20)
(1.16828 -0.00514548 -2.80651e-21)
(1.00434 0.0348725 -3.0387e-20)
(1.06972 0.0880764 8.15756e-21)
(1.00071 -0.0002233 1.75997e-23)
(1.29913 0.0442061 5.28609e-22)
(1.09903 0.0926483 4.68039e-21)
(0.996845 -0.000512805 -6.08015e-23)
(1.00251 -0.128161 -3.97954e-22)
(1.26449 0.0387502 -3.64303e-22)
(1.19011 -0.198149 -1.53251e-21)
(1.24706 0.0575135 2.11487e-21)
(1.20603 -0.0281094 -2.68555e-22)
(1.0001 -0.000214586 -1.73375e-24)
(0.99939 -0.00365831 4.16713e-23)
(0.97512 0.107968 -3.07949e-20)
(1.00116 -0.0158768 -2.42045e-23)
(1.01902 -0.153093 -1.2082e-21)
(0.989781 -0.0836767 1.11975e-22)
(1.21701 0.132921 -3.78407e-21)
(0.971899 -0.00422342 6.25615e-24)
(1.03537 0.131224 1.09309e-20)
(1.2204 0.023809 2.75841e-21)
(0.99362 -0.0797916 6.73747e-22)
(0.957629 -0.00626207 -3.6607e-23)
(1.11163 0.0921221 8.41158e-22)
(1.21445 0.103868 3.1284e-21)
(1.00006 -0.000219046 -1.52377e-24)
(0.973326 0.0663069 2.5678e-20)
(1.04776 0.0866179 3.63308e-21)
(0.993555 0.0134251 -6.26712e-21)
(1.27375 -0.0997898 -1.81853e-21)
(0.999538 -5.31719e-05 -1.77724e-23)
(0.93021 0.09278 -1.35174e-21)
(0.996441 -0.0054737 -3.63695e-23)
(0.99199 -0.0607003 2.06718e-22)
(1.22138 0.101856 -1.32892e-21)
(1.27119 0.032398 -1.19528e-23)
(0.97748 -0.0646322 -6.69174e-22)
(1.27457 -0.0762935 2.46154e-21)
(1.02663 0.0463229 4.27801e-21)
(0.957485 0.00447995 1.67171e-20)
(1.00914 0.0997847 -2.31509e-20)
(1.19159 0.0291095 -4.80219e-21)
(0.911228 0.0192652 2.30416e-21)
(1.00029 -1.1439e-05 -1.43974e-24)
(0.98862 -0.0323591 -1.02043e-22)
(0.999881 0.00785728 3.1067e-20)
(1.23828 -0.156882 6.38925e-22)
(1.09823 0.0883755 -1.10561e-20)
(0.982995 -0.0469182 -3.30878e-22)
(0.992729 0.0882651 2.17347e-20)
(1.20554 0.0032279 1.84969e-21)
(1.00003 -0.00401468 2.95503e-23)
(1.20069 -0.00223846 -1.59724e-21)
(1.05357 0.0744732 -1.73962e-20)
(1.1987 -0.173595 -2.94587e-23)
(0.974993 0.00673143 -4.69546e-21)
(1.06955 0.131661 2.55815e-21)
(0.999304 -0.000303425 6.29733e-25)
(1.04253 -0.0234417 8.11528e-23)
(1.14763 0.112617 5.3479e-21)
(1.12853 0.00135712 1.16114e-20)
(0.998438 -8.05368e-05 1.19197e-22)
(1.06582 0.140765 -1.91992e-20)
(1.01503 -0.0564619 -1.65231e-22)
(0.887574 0.0538916 -1.18869e-21)
(1.03089 -0.121393 -2.31036e-21)
(0.963791 -0.0138163 5.59788e-23)
(0.989543 -0.000676711 2.30225e-22)
(1.01029 0.103462 2.57892e-20)
(1.06268 0.122757 -2.92107e-20)
(0.976422 -0.00263171 -3.58614e-23)
(1.10956 0.0850327 2.92509e-21)
(0.973999 0.0900668 -7.51613e-21)
(1.00123 -0.0170502 -4.15105e-23)
(1.05012 0.0070815 4.27145e-21)
(1.0248 0.0198268 -1.20397e-20)
(0.898385 0.0295825 1.52284e-20)
(0.996935 -0.00455654 9.85513e-24)
(1.19441 0.111848 -8.09778e-21)
(1.1978 -0.057203 2.17151e-22)
(0.942844 -0.0192043 -9.64499e-23)
(0.999691 -5.41067e-05 -3.68349e-24)
(0.999816 0.00433182 1.87687e-20)
(1.1232 0.166161 5.32541e-21)
(1.276 0.00815975 2.14574e-21)
(0.984718 0.108383 -7.8678e-21)
(1.18598 0.0325229 2.29669e-21)
(0.971929 -0.0359782 2.25293e-22)
(1.1183 0.140696 -4.1481e-21)
(1.13283 -0.00149093 -1.75256e-21)
(1.18071 0.0515001 5.17382e-21)
(0.901676 0.0319196 -3.98688e-20)
(1.03251 -0.105727 8.39691e-22)
(1.23067 0.0929406 1.61948e-21)
(0.991891 0.0185409 -1.64214e-20)
(0.961888 -0.0619168 7.11205e-22)
(1.16271 -0.0175272 2.52078e-22)
(1.08514 -0.171569 2.70017e-21)
(1.15045 0.107559 -2.38397e-21)
(0.995191 -0.000170859 3.81769e-22)
(1.11367 0.0134933 -1.9744e-21)
(1.27608 0.0164555 -7.53293e-22)
(1.23352 0.0872176 3.65551e-21)
(1.00127 -0.00517347 1.00939e-22)
(1.10643 0.00903752 1.91786e-20)
(0.997865 0.00963312 -1.57094e-20)
(1.0558 0.0525498 3.10908e-20)
(1.18961 -0.192931 -6.24967e-21)
(0.992667 -0.0310534 2.24101e-22)
(0.937229 0.0515855 -1.32847e-20)
(0.946069 0.017088 -3.41183e-20)
(0.996746 -0.00755248 -1.26087e-23)
(0.950613 -0.043637 2.32878e-22)
(1.01747 0.0761058 3.39814e-21)
(1.02538 -0.160276 -9.99066e-22)
(1.11075 -0.0938203 9.80426e-22)
(1.11428 0.15596 1.73473e-20)
(0.991212 -0.000444069 -2.86751e-22)
(0.895345 0.0267127 2.60129e-20)
(1.0407 -0.0782053 -1.03932e-22)
(1.18347 0.120201 2.82892e-21)
(0.98897 -0.0107532 8.92669e-24)
(0.996525 0.00982905 -6.70256e-21)
(1.07358 0.128399 -5.32236e-21)
(1.09935 -0.0230999 -1.43221e-21)
(1.12735 -0.100262 -6.20723e-22)
(1.27748 -0.0201793 1.23755e-21)
(1.24589 0.0690201 3.3654e-22)
(0.999397 -0.00569666 1.20957e-24)
(1.01424 0.0629932 -6.25482e-21)
(1.3191 -0.0306768 4.50433e-21)
(1.12452 0.0747244 1.25629e-20)
(0.888855 0.0569723 3.99254e-20)
(1.28331 -0.0931248 1.37456e-21)
(1.08416 -0.087809 -1.72581e-21)
(1.00006 -0.00946539 -1.22718e-22)
(1.2764 0.0836329 1.52586e-21)
(1.2854 0.0294125 -3.20679e-22)
(0.971578 -0.0273948 6.74393e-22)
(1.09564 0.143838 -1.75213e-21)
(0.999999 -0.00147458 -2.39459e-23)
(0.969148 -0.049292 -1.32092e-22)
(1.0166 -0.0169458 -2.96315e-22)
(1.26533 -0.0608806 1.18991e-22)
(0.988185 -0.0523995 3.85579e-22)
(0.999615 -0.000133006 1.07952e-24)
(0.987066 -0.0685735 1.24141e-21)
(1.23202 0.105522 -2.09334e-21)
(1.2007 -0.183341 -2.33739e-21)
(1.05787 -0.0818389 -1.65638e-22)
(0.95605 -0.0293068 -3.70281e-22)
(1.25678 0.0367005 -1.48967e-21)
(1.19873 -0.025259 1.18294e-21)
(0.970885 -0.0642982 -3.58681e-22)
(0.950312 -0.00904925 9.33631e-23)
(1.0009 -0.00540273 -1.62587e-23)
(1.15507 -0.0867809 1.36512e-21)
(1.04042 -0.171635 -1.66405e-22)
(1.01353 -0.00350075 4.59097e-23)
(1.04292 -0.083611 1.24442e-21)
(1.20959 0.0995817 -5.01623e-21)
(1.0574 0.0486568 -1.89272e-20)
(1.23369 0.0183594 5.78464e-22)
(0.999285 -0.000251541 1.04595e-23)
(0.921351 0.102099 -3.0116e-20)
(1.0137 -0.00178445 1.5055e-22)
(0.999915 -0.00159598 2.86516e-23)
(1.04592 -0.0115505 8.62523e-23)
(0.955211 -0.0440977 -3.84957e-22)
(1.01464 -0.110538 1.24107e-22)
(0.953008 0.0561466 -1.5727e-20)
(1.02882 -0.0643805 1.07851e-22)
(1.163 -0.00458369 -1.39603e-21)
(1.03238 -0.148638 2.36311e-21)
(1.02883 -0.151541 -3.03443e-21)
(1.11759 0.15149 -1.20707e-20)
(0.994454 -0.0613849 -3.54061e-22)
(0.992693 -0.0972656 5.48908e-22)
(1.00465 -0.125867 9.4443e-22)
(0.999742 -3.8564e-05 8.0322e-24)
(1.2109 -0.0973715 -3.12115e-21)
(0.911473 0.0965266 -2.85235e-21)
(1.10868 -0.200039 9.32598e-22)
(0.952402 -0.0564666 -7.81762e-23)
(1.09492 0.13783 -2.26339e-22)
(0.978718 -0.0607723 -7.10459e-23)
(1.06953 0.082903 -6.78331e-21)
(1.20079 0.140327 -7.49087e-22)
(0.99591 -0.00585556 6.32697e-23)
(0.998782 -0.000147909 -3.21048e-23)
(1.04326 0.0787841 2.1463e-21)
(0.891175 0.0711401 1.30106e-20)
(1.08859 -0.201087 2.34902e-22)
(1.16942 0.154834 1.49255e-21)
(1.24245 0.109509 -5.29983e-21)
(0.959642 -0.0498265 -1.80652e-22)
(0.959588 -0.0524942 -4.37041e-22)
(1.01904 0.0794566 -9.2861e-22)
(1.11526 -0.0115398 1.0677e-21)
(1.21192 -0.185211 4.86496e-21)
(1.089 -0.163181 -2.24249e-21)
(0.980646 -0.00153288 3.07435e-23)
(1.0717 -0.0168209 4.4226e-22)
(0.942207 0.0267735 -5.9166e-21)
(1.16047 0.0123299 -9.64294e-21)
(1.00028 -0.000102886 2.07896e-24)
(0.959953 0.0847465 2.72303e-20)
(1.04393 -0.0742607 -1.2594e-21)
(1.01644 -0.112476 1.69072e-21)
(1.05547 0.143165 -1.01433e-20)
(1.0198 -0.0275089 -2.97068e-22)
(0.988122 -0.0102142 -3.8629e-23)
(0.9993 -0.000459613 3.46667e-24)
(1.18848 -0.0722954 -5.99623e-22)
(0.959068 -0.0219099 -2.30816e-22)
(1.00027 -1.92297e-05 2.45326e-24)
(1.1725 0.157094 -3.66927e-21)
(1.29447 -0.127432 -2.14474e-21)
(1.01207 0.061505 -1.08228e-20)
(0.999396 -8.09306e-05 -5.95572e-24)
(1.00012 -0.00481835 -1.37543e-23)
(0.977382 -0.0624493 -3.58325e-22)
(0.999993 -0.000131349 2.19291e-25)
(1.09049 -0.207227 -1.19268e-21)
(1.23118 -0.176797 -2.29063e-21)
(0.999483 -0.00481188 8.34464e-24)
(1.01155 -0.0879726 -5.05808e-22)
(0.94161 -0.0158182 1.28829e-22)
(1.05476 0.12967 -1.15367e-21)
(0.982597 0.1069 6.38469e-21)
(0.996419 -0.00496278 1.17272e-23)
(1.00348 -0.00126319 2.25677e-23)
(0.999845 -0.119305 -2.37856e-21)
(0.978548 0.0968113 2.05049e-20)
(1.0052 -0.0394212 4.64881e-22)
(0.975228 0.0622163 -7.01851e-22)
(0.978733 -0.0129223 -1.88163e-23)
(0.889197 0.043653 -1.08321e-20)
(1.0435 0.0158737 -2.33436e-21)
(1.15278 0.0707187 -1.2186e-20)
(0.905643 0.0562297 -1.18366e-20)
(1.31569 -0.018728 1.37618e-22)
(0.989913 -0.00284625 1.10134e-23)
(1.18926 -0.0570136 -1.59203e-22)
(1.01037 -0.0407634 -4.9404e-23)
(0.985963 0.0966214 5.16718e-21)
(1.01795 0.0689757 1.46851e-20)
(0.969679 -0.00812926 4.04801e-23)
(1.30094 -0.0882749 5.76429e-21)
(1.14626 -0.0249691 -1.75578e-22)
(1.0812 -0.0932001 -1.07255e-21)
(0.996306 -0.000261195 5.90999e-23)
(1.30827 -0.102832 5.3149e-21)
(1.00026 -4.87281e-05 3.39701e-24)
(1.05159 0.125632 6.34884e-21)
(0.941028 -0.0148294 -3.73114e-22)
(0.991177 -0.0770658 -2.26449e-22)
(0.99497 -0.0360186 2.44564e-22)
(1.00899 -0.070146 1.84514e-21)
(1.18011 0.114924 8.61413e-22)
(1.22975 0.0242006 -2.08748e-21)
(0.998682 -4.61571e-05 -1.18795e-22)
(1.03219 -0.0616988 -8.82324e-22)
(0.999876 -0.000170319 1.57412e-25)
(0.891878 0.0404217 8.07414e-21)
(0.947269 0.024141 1.21487e-20)
(0.995264 -0.000976073 3.19191e-23)
(0.968602 -0.013776 -9.64641e-23)
(1.04147 -0.0449005 -2.78629e-22)
(1.0199 0.0724351 6.31502e-21)
(0.934564 -0.0248662 -3.51255e-22)
(1.24457 0.113564 -1.16568e-21)
(0.954973 -0.0578748 1.22031e-22)
(1.00434 0.099103 -4.61703e-22)
(1.15683 0.0756645 -1.372e-21)
(0.957684 -0.0240572 -1.83268e-22)
(0.90452 0.0213216 -1.66797e-20)
(1.06305 -0.00292115 -3.51991e-22)
(1.01369 0.105135 -1.37582e-20)
(0.991082 -0.0158818 6.60751e-24)
(1.04397 -0.182353 4.85345e-21)
(0.98025 0.00403661 -3.93174e-20)
(1.01793 -0.0512792 6.2745e-22)
(0.888231 0.0763339 -5.90792e-21)
(1.02988 0.0844884 8.06779e-22)
(0.90674 0.0239146 -3.97816e-21)
(0.990294 -0.00296748 -3.42963e-24)
(0.993232 -0.000494378 -1.28353e-22)
(1.03922 -0.113108 -5.26887e-22)
(1.20079 -0.0424509 -2.06832e-23)
(1.01823 -0.0272955 3.20127e-22)
(1.03722 -0.101914 -1.79749e-22)
(1.00951 0.0928285 1.24666e-21)
(1.00283 0.107246 4.29206e-21)
(1.04543 0.00305135 4.03426e-24)
(0.981983 0.0945937 -1.46601e-20)
(0.895132 0.0825038 3.23464e-21)
(1.15512 0.128661 9.76477e-21)
(0.999273 0.00471598 -2.6912e-20)
(1.0517 0.0409997 -6.00829e-21)
(1.00599 -0.0206494 -3.57148e-22)
(1.03967 0.0809134 -7.09179e-22)
(0.990645 -0.0966611 -4.72323e-22)
(0.957103 -0.0564389 3.1994e-22)
(0.998546 -0.00130536 -4.79979e-25)
(1.07325 -0.093859 2.55401e-21)
(1.15281 -0.173056 -6.74921e-22)
(1.09487 0.0482872 4.87808e-21)
(1.10209 -0.0108698 1.85342e-21)
(1.00211 0.0278155 2.19037e-21)
(1.01158 -0.0599848 1.19245e-21)
(1.14872 -0.0144733 1.20805e-21)
(1.00309 0.0214673 -2.54539e-21)
(1.01187 -0.0427307 7.33693e-22)
(1.12352 -0.10568 1.43558e-21)
(0.999907 -0.000198789 7.60244e-26)
(1.00048 -0.000253918 2.87817e-24)
(1.09352 0.043526 -3.90053e-23)
(0.992529 -0.083073 -6.55884e-22)
(0.964511 -0.0525572 5.18875e-22)
(1.00054 -0.000242296 -4.35143e-24)
(0.999988 -0.00331964 1.83884e-23)
(1.14561 -0.0298059 -2.88093e-22)
(0.999547 -5.51002e-05 1.04635e-23)
(1.28113 0.0617957 -1.32258e-22)
(0.895655 0.0322794 2.09791e-20)
(1.16355 0.157833 5.7257e-22)
(1.13338 0.0860756 -4.13693e-22)
(0.966318 -0.00786162 -4.34094e-23)
(1.03157 0.112232 4.97666e-21)
(1.26977 0.0887732 -1.0188e-21)
(1.0058 -0.0366983 -2.82154e-23)
(0.968781 -0.015579 -1.04275e-22)
(0.996943 -0.00419975 -5.0418e-26)
(0.999251 -0.00040083 -2.97311e-24)
(1.00199 -0.00552491 -3.88206e-23)
(0.995765 -0.0383251 2.06448e-22)
(1.06414 -0.17901 2.79035e-21)
(1.11547 0.106097 1.49065e-20)
(1.23042 -0.0388908 -3.08211e-22)
(0.966325 -0.00355876 2.02158e-23)
(0.999887 -0.000136075 3.59718e-25)
(1.00021 0.061441 1.46407e-20)
(1.2943 -0.00239593 2.37737e-21)
(1.30745 -0.0579414 1.40409e-21)
(1.02093 -0.0526968 -7.0396e-22)
(1.24967 0.0885784 2.02937e-21)
(1.0712 -0.0976684 -6.86301e-22)
(0.985238 -0.000843792 -1.67533e-23)
(1.00176 0.0161378 1.27717e-20)
(0.981271 0.000731949 -5.08649e-20)
(1.07723 0.157105 -1.30532e-20)
(0.991217 -0.000371396 2.03148e-22)
(1.07396 0.156203 1.01643e-20)
(0.968766 -0.00550693 1.93409e-24)
(0.98222 -0.0566283 -4.59375e-22)
(1.14656 0.150072 -1.11351e-20)
(1.00026 -0.000126079 3.76464e-24)
(0.98733 -0.0363214 -4.85471e-23)
(1.19347 0.11715 2.81174e-21)
(1.15036 0.117556 1.11444e-20)
(0.958772 -0.0262619 -3.46581e-23)
(1.02432 0.072664 9.66926e-22)
(0.950748 0.109969 -1.30015e-21)
(1.01572 0.0352528 -2.93591e-20)
(0.952883 -0.0452532 6.12425e-22)
(0.951445 -0.00896724 -7.5975e-23)
(1.06199 -0.0771903 -3.31888e-22)
(1.13676 -0.001857 2.93547e-22)
(1.02315 0.0163628 -7.12052e-21)
(0.995134 -0.0013821 7.6949e-24)
(0.976719 0.0096792 -1.47327e-20)
(0.991094 -0.0578589 1.12336e-21)
(1.0502 -0.181363 -3.31692e-21)
(1.18418 -0.0508071 8.55681e-23)
(0.917514 0.103946 4.28084e-20)
(1.11732 0.112342 -1.23051e-20)
(1.01445 0.0691767 -1.54389e-20)
(1.24035 -0.167583 1.14377e-21)
(0.965939 0.00218406 -2.27023e-20)
(0.961143 -0.0216563 2.28017e-22)
(0.983936 -0.0544021 3.34477e-22)
(0.927882 0.0109313 7.9699e-21)
(1.09568 -0.0325339 -3.61172e-22)
(1.06295 -0.165572 -4.74039e-22)
(1.01563 0.0972146 -3.16262e-21)
(1.0027 0.0951135 -9.76123e-21)
(0.971335 -0.0475604 -4.67677e-22)
(1.02886 0.0214827 -1.60938e-20)
(0.978855 0.101014 -2.72161e-21)
(1.00392 0.0881508 1.27458e-20)
(1.04367 0.132456 4.09955e-21)
(1.01135 0.0971019 2.05044e-20)
(1.06499 0.0908997 -1.06431e-20)
(0.986114 -0.00362232 -1.78515e-23)
(0.962105 -0.0237163 3.02721e-22)
(1.00309 -0.00896933 -2.15608e-23)
(1.02145 -0.149924 3.37065e-21)
(0.994188 0.019387 -3.79034e-21)
(1.02955 -0.158194 1.97847e-21)
(1.21272 0.11087 -2.59234e-22)
(1.17995 0.0657434 -6.72734e-21)
(0.965483 -0.0614321 3.80406e-22)
(1.27459 0.0592964 2.86457e-23)
(1.20127 0.131477 -2.60001e-21)
(0.993826 0.00730253 -1.16008e-21)
(1.26617 0.0477383 5.58692e-22)
(0.999525 -0.00401133 -4.71798e-24)
(1.07582 -0.0162909 4.70616e-23)
(0.98155 -0.0612973 2.21823e-22)
(1.28246 -0.058448 1.15171e-22)
(1.29924 -0.0542305 -3.02234e-21)
(1.03519 -0.167834 6.34121e-22)
(1.04506 0.12714 2.32381e-21)
(0.967845 0.108602 2.17669e-20)
(1.21315 -0.0222909 6.32461e-22)
(0.997695 0.00580765 1.19188e-20)
(0.890705 0.0663429 -1.45236e-20)
(0.998777 -9.09949e-05 2.99259e-23)
(1.00387 -0.00129016 -1.10763e-24)
(0.995925 -0.0064948 -2.7917e-23)
(0.970233 -0.00864005 3.37912e-24)
(1.09485 0.100722 -8.1514e-21)
(0.927552 0.0124419 -1.7291e-20)
(1.16261 0.0165339 8.32361e-21)
(1.03327 0.120324 3.00292e-21)
(0.977491 -0.0280517 -2.2716e-22)
(1.08543 0.144787 1.72039e-20)
(1.08125 0.153229 5.50098e-21)
(1.28826 -0.118649 8.05033e-22)
(0.954519 -0.012857 1.41555e-22)
(0.936414 -0.0233338 2.32475e-22)
(1.21711 0.11524 6.35704e-22)
(1.01542 -0.0525869 2.55215e-22)
(1.22822 -0.0333288 -1.51655e-22)
(0.962004 -0.048415 9.83542e-23)
(0.938748 -0.0469136 -7.91703e-22)
(1.02274 0.100737 2.25705e-20)
(0.99148 -0.00250613 -2.38328e-23)
(1.0337 -0.0707379 -2.10245e-22)
(1.00456 0.105643 1.06224e-20)
(1.27353 0.0503624 1.17185e-21)
(0.927771 0.0877029 4.85023e-21)
(1.02312 -0.105885 -9.15771e-22)
(1.04864 0.0140514 7.63964e-21)
(1.29123 -0.0623173 3.25742e-21)
(1.00114 -0.0877196 2.74688e-22)
(0.98026 0.00714853 -5.3987e-21)
(0.990678 0.000457603 3.29336e-20)
(0.99045 0.0285785 -5.89051e-21)
(0.992036 -0.0407672 -4.56513e-22)
(0.939376 0.0157254 1.87257e-20)
(0.955508 -0.0413786 3.03615e-22)
(0.967293 0.0798337 6.98365e-22)
(1.15092 -0.0695974 2.69742e-22)
(0.985056 0.0508866 -3.33875e-21)
(0.977823 -0.058301 2.81196e-22)
(1.00003 -0.000270437 -3.14981e-25)
(0.985626 0.0441373 1.10935e-20)
(0.965599 0.0713413 1.29744e-20)
(0.969522 0.0873803 -2.08492e-20)
(0.987505 0.0369828 -1.29055e-20)
(1.08571 0.00691485 -2.62533e-20)
(1.15853 -0.0146183 -3.8436e-23)
(1.0806 0.0878889 -2.03847e-20)
(1.05853 -0.160793 1.23222e-21)
(0.996935 0.0143756 3.88458e-20)
(1.02397 0.0651285 -1.91065e-20)
(1.28847 -0.00834983 -2.84613e-21)
(1.10564 -0.0140943 -1.97967e-21)
(0.986566 -0.00341626 -1.19225e-23)
(1.32012 -0.0121418 -5.88022e-22)
(1.02996 0.104264 -3.79085e-21)
(0.940992 -0.0355246 1.50076e-23)
(0.969316 -0.00466514 3.47539e-23)
(0.993319 0.00390232 -7.72152e-21)
(0.979177 0.054459 -2.38447e-20)
(0.987324 -0.0667484 -5.1297e-22)
(0.987635 0.0601072 1.73994e-20)
(1.03956 -0.177991 1.14185e-21)
(1.24892 0.0820844 -3.35969e-21)
(0.99451 -0.00027544 1.60126e-22)
(0.972783 0.0582545 -1.34271e-20)
(0.965375 0.0628535 3.42165e-20)
(0.901809 0.035951 3.24215e-20)
(0.974872 0.103641 2.83261e-20)
(0.997252 -0.000328882 2.25486e-23)
(0.977642 -0.0305813 1.49792e-22)
(0.998357 -0.00133938 4.7893e-24)
(0.996647 -0.0922679 -2.15263e-21)
(0.930477 0.0670747 -6.91139e-21)
(1.1491 0.0956283 -1.6245e-20)
(1.03983 0.114648 -2.25523e-22)
(0.939513 -0.0447897 4.92721e-22)
(1.05215 0.0446958 1.88462e-20)
(1.04425 -0.0437111 2.72402e-22)
(0.928628 0.0777262 1.00014e-20)
(1.11278 -0.115668 -7.10258e-22)
(0.99637 0.00513455 1.31898e-20)
(0.994663 -0.000275151 8.90678e-23)
(0.939934 0.0635407 -2.30567e-20)
(0.91949 0.0821275 -2.79261e-20)
(0.975416 -0.032047 -4.04548e-22)
(1.21206 0.0520019 2.85133e-21)
(0.942606 0.0532926 -2.2992e-20)
(0.996611 -0.000511315 -1.18587e-22)
(0.917071 0.0363443 -3.63559e-21)
(1.05921 -0.0868404 2.75775e-22)
(0.996823 -0.000333525 4.53822e-23)
(0.952216 -0.0143298 -1.03293e-22)
(1.01368 0.109147 -1.34687e-20)
(1.17703 0.0851776 -8.9891e-21)
(1.01324 -0.125559 1.50349e-21)
(0.989997 0.105107 1.11607e-21)
(0.913435 0.0924992 1.86023e-21)
(1.08079 0.147924 -1.86788e-20)
(1.06762 -0.0127132 -2.73802e-22)
(0.999268 -0.0814931 4.27575e-22)
(1.18469 -0.0656548 3.88419e-22)
(0.979588 0.061759 1.96495e-20)
(0.925173 0.036816 -2.09865e-21)
(0.897878 0.0345931 2.09517e-21)
(1.14743 0.0834375 2.51089e-21)
(1.00036 -0.0120449 2.86342e-23)
(0.97846 -0.00170528 -7.34915e-23)
(1.03282 0.107712 -1.34731e-20)
(1.00209 -0.00932361 2.2595e-23)
(0.98285 -0.00543243 7.4549e-25)
(1.00339 -0.0147875 -1.73899e-23)
(0.991973 -0.0354644 -2.23115e-22)
(1.11855 -0.17332 2.47383e-21)
(1.2266 -0.155745 -1.60858e-21)
(0.954324 0.0851932 -3.03802e-20)
(1.0246 -0.0584005 2.23554e-23)
(0.998765 -0.00107668 -4.76779e-24)
(1.03117 0.0681736 -3.03521e-22)
(1.17275 0.116019 7.64676e-21)
(1.00199 -0.0149531 -3.31889e-23)
(1.22375 0.0940237 -3.32209e-21)
(1.00207 -0.0015414 3.87641e-24)
(1.16706 0.0658932 8.49485e-22)
(1.01597 0.0372042 2.05965e-20)
(0.985315 0.0573218 -3.37424e-20)
(1.18857 -0.169907 1.83224e-21)
(1.19334 0.0519795 -4.25368e-21)
(0.992135 -0.0163139 -3.1578e-23)
(1.15131 -0.1117 2.48172e-22)
(0.994644 -0.00175439 3.93921e-24)
(0.974982 0.0695337 -3.47927e-20)
(0.952752 0.0826549 9.37214e-21)
(1.26059 -0.154638 1.49408e-21)
(1.22117 -0.1751 1.49954e-21)
(1.17882 -0.188682 5.10669e-21)
(1.04279 -0.104091 8.43437e-22)
(0.986196 0.10051 2.34167e-21)
(1.04567 -0.0945687 5.53504e-22)
(1.14363 -0.158174 8.58883e-22)
(1.10266 -0.192929 -1.12699e-21)
(1.1417 -0.0984853 -1.13446e-21)
(0.909379 0.0361949 1.77153e-20)
(1.18332 -0.207711 -9.36389e-21)
(1.26929 0.0222262 2.97334e-24)
(0.986141 0.016384 6.75636e-21)
(0.995552 -0.000393654 -8.61517e-23)
(1.21783 0.0295318 1.32976e-21)
(1.04821 -0.0846558 -8.67217e-22)
(1.10098 -0.177025 1.94208e-21)
(0.995442 -0.00101737 -7.21545e-24)
(0.999557 -0.00338274 -1.30599e-23)
(0.907259 0.0464666 -3.01869e-20)
(1.06083 0.047235 1.43387e-20)
(1.25685 -0.165094 5.77055e-21)
(1.31356 0.01663 -6.01587e-22)
(1.06373 0.0801578 -7.75228e-21)
(0.991408 0.0590874 -2.72092e-21)
(1.0267 0.0690031 5.79985e-21)
(1.26494 -0.083157 -2.99458e-21)
(0.978912 -0.0658468 7.20452e-22)
(0.992643 -0.0553148 -3.00563e-22)
(0.983155 -0.059201 -8.16895e-23)
(1.03971 0.0704298 -1.92298e-20)
(0.968548 -0.00595856 -1.21832e-24)
(1.0053 -0.0829349 6.59702e-22)
(0.999732 -4.14294e-05 -2.67219e-24)
(0.964207 -0.0233198 -4.8879e-22)
(0.997649 -0.000600515 -1.67231e-24)
(1.1451 -0.177771 1.91738e-21)
(1.00773 0.106113 -1.26208e-20)
(1.07104 -0.164142 7.28358e-22)
(0.977915 0.0879524 1.28404e-21)
(0.985527 0.0881775 -3.18018e-20)