/*--------------------------------*- C++ -*----------------------------------*\
  =========                 |
  \\      /  F ield         | OpenFOAM: The Open Source CFD Toolbox
   \\    /   O peration     | Website:  https://openfoam.org
    \\  /    A nd           | Version:  7
     \\/     M anipulation  |
\*---------------------------------------------------------------------------*/
FoamFile
{
    version     2.0;
    format      ascii;
    class       surfaceScalarField;
    location    "2";
    object      phi;
}
// * * * * * * * * * * * * * * * * * * * * * * * * * * * * * * * * * * * * * //

dimensions      [0 3 -1 0 0 0 0];

internalField   nonuniform List<scalar> 
11265
(
159.9
-513.72
353.82
-733.23
-11.1934
744.423
408.453
-376.94
-31.5129
619.639
285.684
-905.323
1511.42
-1069.48
-441.94
1216.3
-1527.15
310.843
-67.8737
480.55
-412.677
168.51
-843.597
675.087
962.214
-1610.89
648.672
-1750.72
1657.01
93.7065
-542.947
1759.25
-1139.08
1933.04
-793.962
610.33
181.072
-791.402
-23.6149
-1305.59
1329.21
218.003
-1968.72
1025.57
-379.535
-646.035
-175.347
335.247
488.016
190.729
-678.745
1156.86
-1311.55
154.692
-294.033
378.023
-83.9898
990.978
-1299.83
308.856
1221.41
798.522
-2019.93
69.9713
-1628.77
1558.8
-455.225
-1183.23
1638.46
479.803
182.132
-661.935
-203.233
-310.486
498.544
1012.88
1635.41
-1791.08
155.669
-79.7853
-1695.71
1775.5
-1557.62
646.743
910.88
-303.918
654.847
-350.929
-194.476
-145.835
340.311
1275.32
-1205.35
355.098
-1407.58
1052.49
-1754.37
1754.37
101.164
1519.25
-1620.42
-1073.68
-483.939
640.324
-708.197
-381.277
941.394
-560.117
1332.05
-1317.41
-14.6315
-1100.63
719.354
631.285
394.285
-365.353
-59.739
425.092
-431.396
724.295
-292.899
-1618.57
1618.57
1253.62
-1437.92
184.306
-488.032
1709.44
1257.84
-316.441
1660.77
-1161.29
-499.489
96.1266
-390.16
2063.17
-1133.21
-929.953
1799.74
-164.331
459.594
156.249
-615.844
-442.828
962.76
-519.931
-1160.25
1261.41
-569.907
972.323
-402.415
405.083
751.78
662.24
-493.73
-438.419
600.142
-161.722
1190.79
-835.689
2308.17
-1080.64
-1227.52
1162.66
-2005.89
843.229
-1590.26
1566.64
440.883
-1579.96
-759.384
1251.06
-491.675
-674.6
370.682
1661.5
-699.288
-1106.93
-870.889
1977.81
664.768
-329.958
-334.811
689.264
568.571
-258.201
1511.82
127
-326.5
199.5
-285.06
764.863
-336.61
570.153
-233.543
-324.805
812.821
-318.242
-155.377
473.619
328.457
79.996
1442.4
-451.422
-952.592
461.741
490.851
289.707
85.4723
-375.179
951.855
-341.524
-1701.56
660.204
1041.36
10.3879
-841.695
831.307
-285.134
601.232
-316.098
155.861
-1093.76
937.9
1052.31
-1067.82
15.5134
373.008
520.42
-893.429
-245.684
705.278
-1104.43
-481.725
1586.15
-679.269
952.288
-273.02
1361.53
-1441.31
-583.963
237.085
346.877
-470.181
-1011.62
1481.8
-541.771
-790.227
1332
577.161
-997.519
420.358
-268.251
-319.245
587.496
413.87
-286.871
-1029.03
586.198
955.298
-799.437
-110.264
944.25
-833.986
-216.246
426.132
-209.886
-621.191
-331.401
-386.745
963.906
1856.39
-1856.39
-457.323
-126.639
-959.512
1551.09
-591.578
487.792
-923.816
436.024
-925.278
355.37
-941.914
-1058.08
-1478.89
347.583
1131.31
-292.696
912.335
-287.615
599.585
-311.97
-1941.91
999.995
-1127.32
-351.574
536.288
-1495.8
1728.54
-1725.33
-3.20419
216.359
-580.576
364.216
-1448.15
975.233
472.918
297.597
206.702
-504.299
314.266
-650.876
248.509
-426.755
178.246
2015.05
-856.052
-1159
-536.885
171.532
620.055
829.154
-1449.21
-185.685
434.194
430.857
877.529
-1308.39
-912.621
398.133
514.489
-1041.76
1446.85
-1069.07
309.683
756.94
-102.093
496.662
-286.111
-210.551
978.958
-517.217
593.235
-1404.11
810.87
-1342.52
238.098
-552.36
267.227
-1186.3
893.604
1943.03
-994.609
-948.422
276.806
1579.58
-2089.32
891.52
1197.8
373.438
-29.9903
-343.448
-224.87
486.068
-261.198
-125.01
-368.437
493.448
-473.41
155.168
345.283
-129.271
617.063
399.396
393.9
-793.296
-2033.27
1104.92
928.348
461.573
-538.162
76.5885
225.79
-368.571
142.782
1024.26
990.787
1770.32
-251.066
670.439
-433.353
797.999
-1390.62
592.623
311.193
353.575
1039.66
-1029.27
-508.9
-223.926
732.826
486.55
-142.84
-343.709
799.261
-618.189
568.328
-733.191
164.863
503.329
1157.45
-1239.99
698.218
1053.14
-1508.37
-3.1434
-1439.43
1442.57
323.699
826.679
-1150.38
624.259
270.002
-894.261
-2272.56
1135.55
1137.01
-1113.31
-1159.25
204.351
363.977
958.405
-634.707
879.955
-899.647
19.6923
-2099.37
992.449
-230.822
-192.597
423.419
-41.5143
1770.05
-808.276
75.0465
-1024.3
-1065.02
-231.476
457.266
-619.165
161.842
-241.606
-445.448
687.054
1104.1
-1574.28
783.374
-1374.7
591.326
700.709
-415.025
1947.9
-1444.57
-378.29
-1376.08
80.8186
399.732
-519.183
507.989
-5.95109
-549.138
555.089
573.211
-275.613
-609.835
283.318
326.517
774.8
-375.403
33.5427
339.895
1188.47
-1191.62
188.981
224.89
413.442
-655.048
620.691
-1007.44
-2026.67
2026.67
-238.122
-463.147
701.268
699.574
405.897
-1105.47
579.943
176.997
385.817
388.983
-2199.74
1328.85
-927.339
-677.821
1605.16
-500.651
-685.65
-284.645
560.365
-275.719
829.394
-184.712
-644.682
-409.262
625.622
378.384
-665.999
-321.409
-134.149
455.558
-1318.72
-472.356
609.944
-1110.6
-374.161
-1244.41
844.311
1463.85
301.491
-925.93
624.439
967.377
-336.093
1391.61
-798.377
450.372
-261.392
-332.678
-875.495
561.963
313.533
-320.494
-555.001
301.002
-426.012
-211.335
-153.918
365.253
-392.717
1092.29
436.35
-245.622
-401.931
1336.72
-165.026
-1171.69
-456.39
248.378
208.011
249.431
240.734
-490.165
22.748
-755.939
592.029
-1728.96
1136.93
1479.14
-859.087
-1051.77
-396.385
-1058.61
572.77
485.844
1366.86
-391.631
929.919
-1411.64
-163.204
-204.023
367.226
-470.589
583.443
-1625.21
428.009
904.037
250.99
332.921
-583.911
568.086
1186.28
1105.84
-719
-386.842
415.601
-227.481
-188.121
-1419.49
443.977
739.672
-1183.65
1473.53
-543.608
-506.959
924.609
-417.65
426.136
1186.17
-1612.31
47.2914
-726.56
-141.097
430.804
212.193
-406.669
522.566
456.392
-621.245
59.1674
562.077
1024.55
-1307.69
283.133
657.53
-271.713
468.165
-1447.29
979.12
416.398
1684.57
-521.91
905.925
1037.11
-664.812
-1684.35
757.008
565.702
382.324
-948.026
451.597
78.6049
1749.79
-1828.39
1443.82
-379.491
-1064.33
1699.05
-1740.57
-369.35
-497.321
711.136
-213.815
-502.594
192.027
294.523
-373.26
-1226.05
214.428
-764.517
-639.588
-661.986
1003.6
-341.614
-654.809
644.933
9.87545
655.212
-923.895
268.683
-737.499
367.485
370.013
-649.784
-692.784
365.087
327.698
-932.467
1400.63
-404.893
879.385
-474.493
-2205.3
5.5584
189.427
-542.757
353.33
138.64
1198.08
-66.5815
-552.584
164.477
-602.896
1487.35
-703.975
366.314
-466.689
100.374
-568.154
568.154
1223.1
395.471
1777.66
-1229.73
588.691
641.043
851.791
-52.5298
1290.79
772.374
-539.49
1337.49
295.569
305.663
285.866
-783.186
213.861
-645.257
235.078
-449.658
214.58
-233.237
580.846
-347.609
129.574
-362.811
-592.434
-564.525
1156.96
-370.557
493.957
-123.4
-1192.16
2032.05
-839.887
1291.16
-332.75
-405.497
137.246
-1982.05
798.822
1514.55
-846.197
-668.351
1986.9
-877.391
-1109.51
713.156
578
-241.82
476.898
-685.118
1132.11
-446.997
-770.721
1201.58
551.355
924.755
-1724.41
799.66
-550.977
-45.4249
596.402
259.004
237.658
419.561
-106.363
-313.198
897.165
-83.4185
-813.747
887.403
-539.314
-348.089
1576.25
-472.151
884.543
-1623.55
739.004
1068.5
879.399
752.442
-449.698
-302.744
-1059.14
-258.276
549.968
583.927
-1133.9
-459.601
458.061
1.5393
582.229
-352.574
-229.655
-978.614
573.721
597.643
881.499
-441.873
1097.09
1397.04
-764.448
-632.589
403.047
-927.925
524.878
-995.545
374.354
529.169
-1036.13
412.616
-468.468
55.8522
436.881
287.414
-519.494
-48.6602
-794.952
-875.165
1670.12
202.225
213.377
-219.974
424.325
-21.4005
-526.924
548.325
484.757
862.972
-1347.73
-524.879
313.544
986.197
-89.0315
837.003
-1065.38
228.377
377.539
847.297
-1386.79
-433.57
827.47
1974.11
-1280.82
-693.284
270.359
609.597
256.135
796.176
68.3485
-953.171
884.822
1673.76
-1089.14
-584.629
-137.713
1887.5
-1866.01
-160.665
484.119
-622.314
138.195
-1016.68
525.61
491.069
-1730.48
538.32
-956.114
845.85
392.517
207.624
585.132
-283.64
-428.646
714.331
253.047
74.6329
713.452
-788.085
-1143.95
-886.689
2030.64
-537.295
1079.75
-542.45
-437.138
-340.767
109.945
-1652.17
857.221
-881.651
-583.536
1465.19
-333.139
-295.745
628.883
370.059
-649.977
279.918
224.491
-599.894
284.622
220.122
-504.744
324.321
-608.966
623.911
-253.852
315.844
-471.221
672.853
422.483
-173.052
-379.2
-313.584
1210.47
-2.95242
-1207.51
1040.73
-420.035
561.658
410.664
-1782.41
869.837
912.572
497.229
535.044
-1032.27
-537.209
204.07
-261.641
1179.9
-918.259
-1590.93
1212.64
504.718
-1097.15
389.865
-23.5512
440.099
277.34
-717.439
376.103
-621.787
-26.5058
753.242
-726.736
-526.718
796.719
368.22
323.553
528.238
656.619
72.2686
-402.405
330.136
1059.44
-645.575
-413.865
493.994
-1664.27
1170.28
-1140.52
1753.26
-612.739
1715.78
-1123.75
-335.946
619.264
-1185.99
1254.34
425.571
-794.327
1590.55
-796.226
-223.584
-232.805
-892.91
1467.99
1809.33
-611.914
-1197.42
-404.857
641.199
-1303.18
-124.817
-40.631
460.192
-671.739
-354.17
-1236.76
-230.242
454.733
904.477
-562.28
193.843
-1674.37
-71.1241
1745.5
-1045.23
507.933
573.169
-1178.46
605.289
901.193
908.136
630.952
620.107
669.945
254.664
-1126.31
441.194
-408.015
402.064
626.05
-516.578
258.278
-736.544
478.266
673.568
-362.375
-330.144
184.309
-569.031
213.367
355.664
-889.472
-734.075
1087.67
-2145.75
402.256
-687.316
-343.041
-724.784
829.862
567.175
-353.702
293.963
367.318
208.306
659.576
-867.882
538.319
593.796
-493.666
172.257
375.621
-613.743
-1051.58
-841.003
1892.58
-1785.56
156.786
1107.57
-1369.21
1159.75
-737.542
-422.208
-502.933
1350.23
-1495.6
627.853
867.751
-289.005
-211.334
500.339
1428.37
558.529
299.338
-433.488
-489.605
-559.819
1049.42
-413.63
603.057
1581.65
-1127.79
-453.86
-771.974
308.828
655.137
404.302
-1623.43
416.146
1207.28
-210.623
495.245
798.064
783.583
176.454
-655.646
479.191
213.012
213.12
-301.243
-109.635
410.877
439.546
42.293
-481.839
-1627.47
575.708
-1599.86
1661.68
-61.8137
7.74267
-1607.6
1069.66
743.358
-303.259
-799.923
-195.621
-1134.58
-240.122
-312.47
688.574
-1812.09
-618.429
1202.36
202.895
759.865
-1327.65
-678.237
-464.996
605.635
-354.645
-1013.29
1350.74
-1932.73
581.997
645.315
1287.72
489.382
-3.31436
717.001
695.106
-1412.11
-643.545
344.636
298.909
443.621
-100.059
-343.563
161.998
260.122
179.256
-439.377
-569.115
1134.82
474.1
-583.001
-463.461
-402.049
865.511
-334.41
171.206
-463.359
176.489
-308.298
-708.381
552.788
-109.167
-565.509
968.556
582.312
-271.081
-311.231
458.273
-783.078
-642.561
415.48
-1129.44
-826.722
1174.3
-569.77
460.909
271.917
-446.217
116.259
1030.46
-317.864
595.638
-277.774
-509.044
1578.71
-677.301
230.25
383.997
-614.247
192.381
481.363
-3.58366
-477.779
-247.893
-215.467
1005.39
1109
564.761
-855.743
924.783
-69.0398
-458.512
169.507
-728.241
282.793
-598.497
340.306
333.263
806.318
-1225.93
419.613
779.129
-805.635
-949.037
-550.373
1499.41
-140.943
473.864
-494.827
208.716
1301.4
746.56
-570.105
1307.87
-697.927
488.393
-684.604
-419.727
-425.496
-378.936
804.432
504.844
-846.369
-436.135
59.4636
376.671
-331.233
572.366
732.367
-330.11
-253.542
-176.796
430.338
-492.732
156.67
336.062
1454.36
78.9752
-1533.33
-746.695
1344.34
-1144.75
-466.14
543.809
-159.812
1148.26
-369.129
1083.55
492.695
686.239
-400.373
-885.332
-522.252
-1328.53
-31.9564
984.747
-952.791
608.777
313.687
-922.464
-299.596
-237.289
-681.306
405.507
1621.17
-163.197
352.258
357.857
-710.116
-1839.81
-2106.67
1519.13
587.533
-2037.62
341.906
346.264
547.571
-893.835
-460.14
1021.8
-378.129
-682.243
1060.37
-2030.51
1391.2
639.307
609.291
-987.42
51.3325
361.284
387.325
208.439
241.933
340.42
955.555
861.258
684.092
-329.382
-354.71
-298.07
626.658
-328.588
577.118
528.724
566.041
515.159
-1081.2
-796.331
-699.272
754.059
394.199
-426.655
706.573
-1193.44
1609.59
403.006
-1085.25
-302.409
522.531
-1387.58
866.07
521.511
-723.306
-363.177
-790.753
364.71
426.043
446.908
719.007
-1165.92
1063.65
-566.419
-380.887
641.433
-260.546
256.008
326.304
-470.073
-432.105
902.178
-247.636
547.381
-932.698
385.318
-465.712
600.6
-1681.24
423.633
671.75
-1095.38
521.096
78.4884
113.405
-2212.78
539.667
-78.7583
1443.38
1777.09
-217.555
-1559.53
-438.359
1789.1
-1986.74
1194.39
792.351
408.971
343.471
-29.9472
859.809
-1283.91
719.386
-872.122
-824.094
792.138
319.998
38.528
-358.526
232.34
188.213
-420.553
1543.88
-826.883
-1530.95
-325.432
433.847
-172.781
-261.065
397.391
367.472
218.882
386.753
-7.22104
1000.32
-993.094
399.636
251.988
-651.624
-733.97
1817.22
-1083.25
-343.293
740.684
-1209.4
-411.011
-917.678
485.573
567.705
-786.211
218.506
765.019
-383.727
-381.293
-418.021
-437.722
447.609
1067.49
1233.77
-660.601
803.922
-345.649
403.92
297.348
-263.984
-202.705
-201.178
617.576
408.153
-850.478
442.325
206.901
366.392
-573.293
-424.986
833.139
754.979
-1147.7
879.495
-73.1772
-493.982
269.007
770.652
-95.1973
1382.92
1890.49
-86.5182
334.896
-340.933
413.201
-1084.32
1077.1
618.518
376.658
388.361
40.8986
392.948
264.808
479.615
-367.78
-275.765
-565.304
-89.5048
-349.999
372.262
-22.2629
-258.993
-293.368
1011.24
-1540.75
529.51
-198.554
-178.386
-406.007
657.995
-1621.05
1591.12
-963.266
251.26
-670.987
584.302
1224.43
-1808.73
607.395
983.724
281.047
-1114.8
686.155
-310.056
-273.855
1366.14
-1437.16
816.866
620.298
395.688
-596.373
200.684
-331.123
459.221
-128.097
368.604
70.9415
1723.28
467.663
-254.651
557.602
-1704.8
1147.19
-88.9374
404.508
343.537
340.555
-448.456
-616.633
1065.09
424.721
-858.291
-641.748
903.436
570.091
-495.168
-242.331
-441.517
-408.961
-306.994
-827.585
1821.12
-1821.12
-107.107
-1582.75
1689.86
291.105
291.125
-917.557
-555.158
1472.71
-408.299
974.34
-583.616
-1043.86
685.313
373.724
-1059.04
484.405
-168.561
573.053
1220.35
-1793.41
-1046.34
2117.04
-1070.7
-371.822
-302.777
-503.128
811.956
-1744.21
1595.19
149.012
1744.21
-1597.28
-146.924
-250.513
530.39
-279.876
-537.269
1620.82
1554.05
-1965.07
1059.67
-309.925
-211.033
520.959
247.901
-550.31
-700.622
273.967
1339.8
634.312
573.746
488.754
-1062.5
288.506
397.733
875.569
500.113
-1375.68
527.085
-1016.69
1574.98
-563.738
-784.737
-381.405
-112.107
493.512
-489.796
1208.8
-742.059
336.087
369.191
339.068
260.485
-599.553
586.969
832.224
-603.846
264.081
660.702
-495.168
-341.496
-192.27
533.767
1168.63
-671.505
613.2
463.303
-1076.5
-1284.94
1284.94
-389.073
765.731
-292.34
-469.434
761.774
475.437
451.099
-926.536
384.529
-676.869
617.045
-868.082
251.037
-367.278
-499.171
1072.92
-663.808
-707.111
1370.92
-367.406
914.787
-1552.65
675.259
22.0075
-362.262
340.254
-505.06
666.902
248.332
332.514
176.524
307.881
-523.885
213.829
1868.72
-1963.92
267.139
-676.401
437.645
-818.898
381.252
-924.332
1408.56
-484.226
-429.727
-487.951
600.617
1124.23
-1724.85
-717.688
345.865
-458.432
1035.55
-763.645
1027.73
-383.649
-634.016
-473.723
687.584
542.443
-360.31
900.158
-289.995
-202.738
1599.01
-1816.57
-335.749
-596.949
-322.392
479.062
238.182
-592.827
-173.343
1051.64
-782.637
222.934
-286.538
-289.957
576.495
395.077
-865.295
470.218
-492.333
-435.439
-925.93
-318.935
525.274
-206.339
-434.207
-404.802
-300.475
-204.269
-364.943
625.428
-461.397
758.745
-1073.7
625.246
-1412.08
530.427
-27.2046
-1831.52
1858.72
569.792
-448.887
1194.67
-686.732
311.978
-311.978
668.19
-421.609
1046.09
-1629.7
-1158.73
-947.939
296.497
330.161
876.869
713.684
-478.811
-293.067
771.878
1653.96
-1681.16
-435.324
357.658
215.552
1135.49
-522.293
-943.329
1550.46
-607.134
448.638
-240.198
393.222
369.671
-762.894
518.324
476.286
-994.61
-332.535
668.622
-37.6695
1906.39
1582.38
993.175
-1697.15
727.558
-1177.52
449.957
-492.444
1368.01
838.667
-1341.6
-538.336
228.41
784.732
-402.408
556.808
-1184.68
627.873
-641.852
-1215.54
-695.618
1911.16
-205.785
521.762
-315.977
-127.509
259.697
-465.482
321.066
378.352
-699.418
-1476.25
757.641
718.605
884.174
-1434.55
828.593
-430.46
228.513
-369.61
-568.716
227.219
-636.985
-750.596
700.078
505.102
-1205.18
400.882
-204.843
-196.039
557.662
-960.077
-552.948
-442.065
724.857
-831.25
-1155.49
-1437.99
499.583
938.411
37.7286
-609.673
298.304
311.369
-1303.51
1042.89
260.625
-617.715
-455.986
-666.157
922.292
406.438
-212.003
-194.434
508.065
980.834
-1488.9
969.423
-565.384
167.775
397.609
-392.989
652.362
-385.224
-507.815
185.424
234.668
-1515.49
535.045
528.604
-716.037
210.977
168.282
-458.277
376.513
-811.952
1954.16
-1195.39
-758.766
411.708
-640.787
229.079
326.298
309.316
136.662
-445.977
-555.988
199.963
267.701
-691.664
1374.49
-682.83
424.093
448.412
-1171.72
271.397
1866.79
-1013.59
-853.192
785.518
-484.791
165.856
1402.43
-975.247
-427.181
341.321
-762.931
-616.455
1725.46
615.533
618.237
316.65
3.3482
271.475
-1138.5
1725.72
-587.225
-1763.51
820.18
1747.06
-1679.42
-67.6405
-650.857
242.842
571.988
-679.15
205.428
1402.89
-564.221
397.556
429.915
-1858.43
1420.07
496.679
-406.675
-90.0044
218.107
-518.582
-292.552
-144.586
-356.039
699.576
-585.766
204.361
598.85
554.899
-1153.75
1113.76
-1947.32
833.563
164.123
291.435
-1697.98
1660.31
322.72
-723.094
-160.517
389.03
746.328
680.341
-1426.67
1068.27
-1071.22
529.854
-1096.27
-635.74
257.975
377.765
493.946
-280.579
-592.478
-1037.22
302.507
-707.309
-912.319
190.639
172.398
228.485
366.437
299.855
-666.292
-621.65
-833.732
-978.353
494.198
-1050.19
-257.956
465.967
535.237
639.067
-281.794
-123.702
-427.713
708.76
276.49
-1194.44
572.792
1302.77
-556.443
444.398
-997.347
-390.961
134.538
362.141
1023.53
551.445
-1711.26
1604.16
1625.07
-551.684
-1073.39
1900.78
-1888.63
-12.1481
193.72
-534.653
-319.81
542.745
-758.077
-307.281
-343.576
1032.59
691.2
-1491.16
799.965
342.103
-26.194
1625.21
-1067.62
396.117
-1229.44
444.708
-59.3395
1513.7
1197.77
-470.211
-490.542
-74.8423
-233.549
735.983
-1951.53
-713.837
338.698
-534.083
195.385
192.124
-509.988
1139.89
671.516
-1811.4
-555.593
148.919
942.304
-1497.46
-210.484
678.998
-468.514
883.614
1116.39
-731.145
1346.68
583.079
-498.709
-84.3704
-350.6
1167.47
1034.95
-1981.66
946.711
-1165.89
547.465
1488.89
-585.455
-350.546
-143.119
-1237.18
576.578
1162.01
-120.652
945.966
775.214
-1721.18
-223.583
578.285
-1541.79
963.503
486.976
916.836
-1403.81
610.959
591.398
365.075
-1106.67
592.403
1101.36
1216.36
-452.494
-763.864
-1186.2
-1754.95
-9.04223
-1702.22
-192.179
-404.194
1603.8
-623.435
-980.362
-490.9
1121.85
-1314.09
638.68
675.412
-1358.93
1437.9
-1326.39
595.24
1520.59
-392.901
-527.952
177.406
-1476.02
244.71
176.382
184.761
398.318
446.581
379.432
-826.013
506.28
-939.221
901.327
-1444.93
-666.401
217.723
448.678
-1030.56
461.441
-461.999
859.555
695.923
39.8659
-496.018
180.041
-886.564
-1318.73
-719.18
353.192
365.988
409.702
-725.369
315.667
-483.708
-189.397
-710.25
714.325
1539.26
-593.292
806.37
737.514
1344.94
-844.822
-971.621
-570.166
-800.894
427.758
373.136
-1037.75
-647.208
308.123
339.085
-1433.7
-296.784
-793.726
400.985
392.741
-623.24
383.149
240.091
-653.746
268.523
412.796
489.382
390.078
443.06
480.633
384.878
597.791
-971.051
663.364
471.453
455.007
356.94
-811.946
1630.79
-1079.95
-550.843
-504.287
-279.114
-1024.4
456.29
348.142
409.645
595.32
-1004.97
-1377.31
753.873
-537.898
1143.19
343.422
-83.3003
412.168
-867.922
455.754
-1891.6
308.848
443.261
-728.62
285.359
-183.449
410.347
-226.898
-665.149
314.476
350.672
-678.594
323.884
371.307
394.425
613.58
-1021.88
754.519
659.496
-1414.02
438.775
626.313
341.294
393.798
-735.092
411.772
328.912
613.375
678.917
388.57
584.997
-1003.7
418.707
-1668.88
1201.13
467.746
1696.61
-539.169
623.111
-1147.87
524.763
-645.577
349.832
437.242
-937.053
499.811
736.419
-459.079
351.727
347.849
559.178
-894.927
649.658
-1254.03
604.374
358.13
735.495
-1225.29
770.308
509.261
-1279.57
470.787
405.576
-876.363
-501.56
-936.434
-309.095
630.161
352.739
542.964
-895.703
335.589
333.033
-502.173
1944.75
438.129
-848.607
410.477
-918.047
-806.368
-752.2
370.908
-1197.97
434.32
-1723.43
1597.28
126.144
1740.5
-1595.19
-145.31
-787.166
-598.768
270.416
328.353
-1747.06
1965.07
538.077
792.355
-1330.43
440.074
716.885
690.81
385.652
-1076.46
-77.3013
1617.16
-593.624
373.525
821.14
-653.282
328.902
324.379
-378.625
-299.129
555.136
-230.645
437.346
283.935
-671.8
387.865
269.516
-585.614
-286.406
442.43
-1034.69
592.259
538.029
1092.76
366.121
597.785
313.705
353.934
-667.64
1609.45
-918.248
1691.37
-1519.93
-171.447
-329.252
-826.125
417.164
857.74
-1068.22
-612.404
283.816
-1090.64
1628.67
-1574.83
-82.2535
1657.08
-341.988
-350.711
-370.471
534.678
600.815
-505.347
-32.8144
-550.216
513.029
-284.762
-228.267
1735.69
-1288.08
-629.884
302.767
327.117
405.442
357.268
735.023
-299.723
-399.008
-1740.5
1681.16
459.429
-1101.83
642.4
-44.6935
1648.85
571.744
476.535
-1048.28
105.096
1145.27
-1452.27
-18.6222
-1872.98
233.153
-603.476
308.806
294.67
-956.147
613.106
-900.53
470.803
-1129.3
674.404
454.901
350.559
261.012
-739.823
-330.165
1218.23
887.328
698.825
-1183.3
456.164
727.132
494.165
701.641
-1195.81
-378.998
-248.516
420.913
-962.34
438.311
524.029
21.2765
-1879.71
1080.04
-462.992
-481.778
557.65
-1378.46
820.81
-414.876
796.128
-405.365
494.146
-715.056
1720.45
421.558
-193.073
218.302
-178.241
-246.732
424.973
1895.31
-504.101
-1679.87
1052.36
-606.166
307.038
-1015.28
555.144
-314.218
544.187
905.55
-1449.74
-1104.56
438.408
-20.5224
-1943.39
1710.67
-675.725
-541.522
460.63
-1191
730.367
187.359
219.079
-284.091
765.64
702.346
839.885
820.01
-463.07
1085.74
-463.206
485.861
-199.204
-286.657
-1921.75
-715.08
-319.541
-645.375
-6.81588
652.191
474.718
-274.755
558.36
1051.09
-795.905
926.623
1244.76
-425.141
-197.302
-227.282
424.584
953.663
-888.706
-331.246
-1068.93
612.949
1550.46
-792.82
537.516
935.199
-382.376
735.091
-352.715
1130.88
-278.105
330.552
1350.01
-702.863
-225.062
448.273
-1199.02
750.745
-1005.08
-97.1937
1102.27
443.784
-957.255
513.471
160.659
732.822
483.536
746.178
-86.6014
855.229
-425.596
1183.07
-797.419
551.877
-1465.61
913.736
-1216.66
1800.97
-431.715
-1510.19
879.945
-1402.2
-284.913
-432.526
1457.42
-1520.22
786.142
1491.57
207.611
278.25
-339.533
-1723.43
-299.563
-1003.09
1561.45
-1754.59
1754.59
1554.05
-1004.64
-637.328
-321.615
368.531
605.809
-382.454
-348.659
-1389.99
897.545
1125.2
600.523
1203.12
1789.48
-1216.43
-603.045
275.513
1658.83
-1916.23
257.396
813.402
-1267.26
1545.3
-561.58
762.605
317.14
-320.737
554.287
795.942
678.09
1352.55
-219.374
-444.776
-332.203
500.052
-343.803
471.611
737.192
-279.33
-166.647
-312.095
562.409
-250.313
22.7573
-375.332
1107.54
-1720.28
-422.753
-470.631
-559.731
864.031
686.43
-1596.67
905.008
-451.48
-610.995
-512.847
1252.52
316.681
1723.58
-1702.3
-1653.96
1888.63
-1560.97
840.387
720.584
-350.253
-1792.71
917.548
582.518
820.371
-394.508
1794.15
-680.387
-417.733
679.604
410.855
-1090.46
-1097.72
444.039
753.731
-1617.22
473.153
901.342
184.186
-411.511
227.325
-1588.95
-379.772
-429.81
990.366
-664.387
1443.07
-972.004
1855.62
243.317
-552.793
504.085
-296.474
474.311
893.702
542.932
977.657
-462.529
-428.087
573.694
883.724
-1392.71
-40.9871
1564.2
-826.686
519.943
971.626
-1475.91
-1115.91
1765.94
-1244.1
-521.845
1206.27
-318.796
-887.471
-198.627
462.983
-264.355
-457.573
-251.604
439.721
-188.117
154.05
-402.566
1724.12
-1733.16
-440.211
-530.833
-903.714
453.278
-213.892
-239.387
638.085
-450.072
-379.044
-283.707
662.752
-928.115
373.114
-1167.61
676.707
427.504
-623.895
-449.362
1564.79
-851.106
530.176
-457.623
-572.294
-462.395
369.268
-359.235
-10.0324
-1085.22
398.487
-664.542
-1033.8
1698.34
-586.158
-1422.26
715.147
562.097
-1596.29
1034.2
-362.096
-488.927
131.625
538.32
-1258.66
745.813
539.202
1006.1
-2133.19
999.993
1133.19
-327.942
416.914
-391.877
-25.0372
1478.13
-353.342
449.504
1215.28
581.889
907.002
569.088
527.131
-1096.22
174.181
-420.587
-1679.42
267.158
1127.63
-602.076
518.361
1013.92
-1532.28
1092.91
-1643.75
202.651
676.844
532.28
-863.526
-1086.66
-175.866
435.795
-259.93
-587.616
-407.454
-637.01
-632.324
348.233
-1618.02
940.2
-476.584
217.011
-410.085
541.433
-308.28
-591.771
1197.37
-1261.8
924.516
337.287
-1028
-331.895
-749.808
-818.3
1682.33
-476.676
1792.92
-1579.81
-213.109
-1556.68
1018.8
537.884
-718.852
-266.048
450.52
-184.472
-578.733
383.626
279.817
-663.443
-523.65
970.314
635.368
-351.553
-1620.32
1050.55
571.735
1103.6
-1675.33
-389.801
-300.736
-364.413
-738.627
-460.973
-331.234
507.758
1558.02
-995.921
-776.145
1497.48
664.645
-306.987
725.881
1152.38
-1878.26
254.951
278.951
-486.904
-1930.22
1718.5
211.721
742.943
-474.426
-268.517
531.805
1060.9
-1592.7
369.268
-1720.84
-233.206
1752.34
-1580.73
1073.82
506.914
-1719.15
-1.6894
-521.402
416.914
1697.98
-1718.5
940.041
623.938
-1563.98
392.03
-222.599
-169.431
-390.65
-263.096
73.7666
95.6388
-361.687
-437.21
-430.872
-413.17
229.721
1510.31
378.682
-205.143
-418.097
470.613
-202.912
297.145
1510.83
999.872
-156.76
-843.112
-1104.16
1704.77
-1728.67
1064.13
-706.926
-1021.75
-1265.1
1844.99
-579.894
1155.09
-1771.08
615.987
274.655
-878.573
1675.54
43.4739
-1719.01
-491.148
-1083.13
-1724.12
-983.549
555.461
1019.68
590.186
1133.08
-1723.27
292.183
-451.995
708.087
-384.203
356.146
925.37
679.79
-371.104
-632.6
582.859
1072.62
-1655.48
-393.511
-375.949
769.461
384.148
-1660.31
1519.93
140.381
586.889
-1045.32
544.737
1083.93
-1555.74
994.163
-243.223
243.145
299.6
1900.78
382.155
-86.6297
995.871
722.754
-1718.62
-697.74
1085.41
-1557.56
173.369
-572.884
202.737
267.875
-645.673
-552.293
582.376
1034.78
-711.443
-241.215
-1368.96
677.415
691.541
-423.777
771.632
60.3048
-831.937
561.344
-137.123
1557.2
-225.811
255.479
-766.345
-1930.22
1664.65
1038.93
367.485
277.834
458.585
-930.414
-991.335
-1767.27
641.601
1693.78
514.528
-474.034
1211.23
1087.22
-424.993
1030.8
-980.547
497.488
483.059
699.785
1048.01
-1747.79
490.357
478.199
-1494.1
-748.728
29.7283
783.644
-412.737
-876.034
394.256
-537.967
-803.633
624.439
-576.69
1397.5
1055.13
198.9
236.895
-550.582
1618.55
-770.396
1524.92
-1727.84
575.218
1152.62
548.931
-885.024
-1732.48
1916.23
-183.741
1721.75
188.228
-542.277
373.677
-278.038
-481.251
1211.62
568.27
1128.34
-491.458
438.159
861.159
-466.874
-774.421
418.212
356.21
1418.36
1089.66
-518.094
1423.1
-510.743
-533.703
1044.45
-602.712
461.74
-1199.28
1691.37
1839.59
-687.207
1585.4
-645.36
-1241.87
718.225
-562.172
208.225
-400.822
462.842
-249.722
-521.766
-1246.71
1870.93
-624.22
1173.61
-550.498
1120.31
-1659.48
1684.95
-573.902
-543.5
-549.795
1720.07
-317.817
-687.992
-473.248
1223.99
-1678.64
-1860.09
613.382
290.86
-935.542
175.366
219.322
-1719.03
1204.17
514.861
1162.86
558.888
-510.455
-465.349
1192.48
175.774
234.573
588.442
1251.14
-539.17
-1238.59
1777.76
-1025.55
999.993
866.793
-204.17
-1658.83
1702.3
-510.002
1411.34
-1732.48
-363.321
19.8472
343.474
-273.669
587.853
-314.184
67.0742
494.888
783.95
-374.248
1257.54
1271.09
-413.35
854.778
-437.614
1817.38
-662.295
1586.46
-1723.58
-412.764
-727.727
316.162
411.565
-558.582
-563.093
79.726
-1138.86
-985.738
-669.216
1654.95
-943.712
-1189.48
187.708
-398.742
-649.252
705.526
1167.46
649.924
1410.41
-590.037
1636.77
1318.26
-572.449
-499.804
203.33
-503.251
1396.95
1240.36
-562.942
-999.992
895.67
50.9437
-946.614
603.458
-506.083
1403.63
1495.12
-588.113
-375.317
375.317
-589.314
1623.51
1239.85
-486.119
1134.18
-76.052
1851.55
-404.276
1489.52
-588.194
-507.663
1348.05
-654.63
1218.84
-564.213
1554.82
-591.32
740.989
568.609
-1309.6
-656.767
261.149
485.411
599.662
-1957.31
-968.053
1586.46
376.835
-376.835
-79.0148
392.544
436.05
327.957
40.6473
-338.684
890.933
-532.803
-424.69
817.234
-248.151
625.917
-438.009
1542.93
-444.336
-884.192
194.5
228.815
-423.315
601.165
1250.78
-1851.95
929.105
-458.302
-359.235
126.155
-1943
1816.84
-455.873
194.482
1181.48
-440.43
-741.048
-310.104
-565.931
-489.614
-391.877
-487.103
258.836
1158.86
-558.046
230.406
-390.975
160.569
-22.609
-107.672
1376.08
-1268.41
34.5019
-599.806
-586.322
-456.898
456.898
-1262.37
1985.12
-1344.43
-215.661
-1823.99
244.183
-1025.76
-974.241
-191.922
-1636.33
705.919
1229.32
-1924.94
375.442
308.717
-684.159
-1850.01
1234.28
615.733
-563.391
563.391
-959.389
-39.9845
-1866.01
-558.12
1650.88
-678.548
1636.18
-601.395
-169.441
-1703.54
-590.139
-449.893
-594.754
-470.442
470.442
-1537.81
194.523
1343.28
179.77
228.909
-408.679
490.955
508.917
998.574
-474.544
1751.31
768.295
-427.878
402.841
518.98
1702.05
-594.509
-552.948
1636.88
478.251
1812.69
-645.228
-1803.61
-1938.08
-646.847
-482.195
482.195
-566.68
234.477
-689.102
1020.71
-465.57
-1069.3
-279.385
1579.58
1852.31
1635.32
-1635.32
-293.919
737.907
1761.47
595.777
1275.16
179.421
212.609
565.069
597.919
1603.53
-1603.53
227.215
-349.927
-431.616
466.776
953.098
-455.61
-640.482
-1131.05
1706.27
284.657
-1644.16
600.298
-290.352
478.579
1744.64
-592.024
-218.531
-422.607
382.106
719.257
1738.57
-613.37
-511.748
-781.033
1960.53
-870.448
-1090.08
1642.83
-707.694
1223.98
-1824.94
600.952
316.69
-869.483
-186.367
-108.427
1099.2
-486.249
114.039
606.303
-1643.53
444.679
583.833
-1803.61
-583.263
1787.43
885.009
-1162.95
1760.49
-597.534
1783.84
-575.51
-1208.33
435.955
929.3
-1733.16
924.973
-1503.76
276.53
1227.23
-830.722
-1254.23
-385.214
77.5096
307.705
581.692
274.364
1021.17
-449.79
848.874
-399.084
821.921
736.247
-1558.17
643.288
1066.15
-24.3789
-664.506
688.885
-1744.21
722.468
692.286
150.601
-1122.75
1936.74
-674.538
-1262.2
-537.17
1665.51
823.629
961.181
-1784.81
1227.87
683.292
-399.092
713.568
840.754
1029.75
-585.962
1761.47
627.362
1773.56
-1185.64
-587.918
-399.538
-300.377
699.914
121.442
-1185.77
1660.57
-540.258
-1437.84
1437.84
1250.58
594.41
1351.68
206.335
-577.145
284.782
-199.31
699.017
1113.67
488.68
-312.906
-870.865
-574.069
1734.85
-1734.85
999.868
-999.868
987.327
1025.17
-2012.49
1837.94
-613.952
-581.097
810.542
-947.846
-1052.16
998.517
689.99
-1688.51
-519.494
-335.19
-652.23
-808.415
2042.69
-1246.43
-613.666
1002.97
974.848
1289.77
646.976
329.462
1012.68
241.713
334.16
1186.28
1756.86
-1756.86
672.327
80.1542
-391.385
-997.048
-539.988
1674.16
988.914
1011.09
-1833.27
-227.969
-362.171
593.024
-325.865
1849.44