/*--------------------------------*- C++ -*----------------------------------*\
  =========                 |
  \\      /  F ield         | OpenFOAM: The Open Source CFD Toolbox
   \\    /   O peration     | Website:  https://openfoam.org
    \\  /    A nd           | Version:  7
     \\/     M anipulation  |
\*---------------------------------------------------------------------------*/
FoamFile
{
    version     2.0;
    format      ascii;
    class       surfaceScalarField;
    location    "4.5";
    object      phi;
}
// * * * * * * * * * * * * * * * * * * * * * * * * * * * * * * * * * * * * * //

dimensions      [0 3 -1 0 0 0 0];

internalField   nonuniform List<scalar> 
29574
(
587.556
-435.15
-152.406
269.787
42.8448
-312.632
938.278
-1125.78
187.497
-395.237
994.377
-599.14
-634.168
670.443
-36.2748
-687.416
53.2485
205.404
-26.6563
-178.748
609.515
-459.538
-149.976
216.686
-288.321
71.6349
96.4597
513.055
-68.0643
246.052
-177.987
-269.848
271.94
-2.09214
-238.178
-14.8348
253.013
34.5165
553.04
622.295
-650.925
28.6298
-965.159
569.922
-289.568
329.329
-39.7606
-85.9202
-981.591
1067.51
-251.321
233.482
17.8392
304.088
-34.3009
-294.103
292.852
1.25101
-28.3838
-241.464
-461.12
557.58
259.21
-301.64
42.4308
938.278
-361.807
81.8783
279.929
888.77
-973.333
84.5632
341.291
-152.291
-189.001
-157.826
-89.7821
247.608
-101.058
-150.263
-592.253
741.143
-148.89
340.913
-285.336
-55.5776
378.484
-87.9525
-290.532
556.852
-290.403
-266.448
-717.472
780.443
-62.9707
-731.534
139.281
136.559
-364.291
227.732
932.207
-932.207
782.624
-348.086
-434.538
264.743
426.354
-691.097
4.10872
787.449
-791.558
-297.575
101.883
195.693
-874.758
703.491
171.267
971.419
-82.649
-123.926
-237.882
115.284
71.9405
-187.224
1096.15
-472.046
-624.101
316.558
-229.406
-87.1519
842.888
-30.4334
-812.455
239.134
-233.19
-5.94335
-787.864
70.3922
47.4661
-738.074
690.608
-265.304
-131.238
396.542
762.683
-836.236
73.5528
152.516
-362.272
209.756
16.6344
-213.802
197.168
385.036
-114.677
-270.359
694.73
-751.859
57.1292
-50.2702
-299.95
350.22
-75.732
-213.836
-654.895
416.504
238.392
-50.0528
244.386
-194.333
481.359
-483.902
2.54317
-204.739
-339.334
544.073
-697.524
828.005
-130.481
-717.445
109.18
608.265
527.638
-575.679
48.0413
-651.495
-65.9499
-152.599
-354.335
506.935
-132.898
-83.3576
216.255
364.723
-546.626
181.902
307.004
-214.494
-92.5091
675.973
-53.6775
-276.847
-31.3299
308.177
1063.7
-576.901
-486.796
-62.4814
453.158
-390.677
337.821
-131.135
-206.686
-226.581
15.5226
211.059
888.142
-623.399
578.833
-834.985
256.152
634.519
-525.339
817.058
-195.593
-621.465
274.5
-83.272
-191.228
294.872
-78.186
133.45
-183.502
-605.289
-269.47
242.983
-282.044
39.0614
-44.0658
150.489
-106.423
-643.383
438.643
137.449
-309.128
171.679
-419.842
687.103
-267.262
739.005
148.758
-887.763
904.548
-130.256
-774.292
167.496
-275.852
108.356
189.183
127.375
425.291
56.0682
242.067
-74.5711
-779.135
790.41
-11.2754
-308.648
240.584
991.563
-898.377
-93.1859
283.755
-146.307
409.676
-420.28
10.6038
174.14
121.649
-295.788
434.758
-182.688
-252.07
1188.85
-1188.85
464.253
22.3392
-486.592
-35.0964
260.182
-225.085
-454.255
221.483
232.772
263.608
8.92977
-272.537
-268.21
-80.4733
348.683
33.4323
-191.258
181.489
23.9153
400.218
-114.113
-286.105
-255.028
-401.918
656.946
-548.503
486.022
-568.603
-431.497
-381.566
-174.224
555.79
576.815
57.7037
-289.209
-8.61402
297.823
-1030.56
246.693
783.867
-170.776
909.781
41.6809
261.331
-303.012
360.124
-594.705
234.58
241.28
-362.008
120.728
127.014
429.838
755.799
-841.719
11.9646
209.636
-221.601
178.698
162.593
245.981
94.9323
135.274
-516.84
-22.5094
-155.994
178.503
17.2094
221.924
845.754
-841.645
293.707
488.917
135.191
-358.291
223.099
253.358
935.495
280.692
-68.3474
-212.345
-279.941
-14.1624
-409.867
37.103
372.764
109.955
58.6952
-168.65
283.911
-242.23
26.7999
-303.647
172.675
134.328
-303.033
207.685
95.3476
-539.484
84.4559
455.028
-108.846
244.038
-281.207
78.374
202.833
-95.9475
-225.206
321.153
8.45384
288.327
-296.781
-761.237
-212.096
128.37
-224.317
204.924
971.742
-67.1943
-235.305
-42.7592
278.065
152.059
664.999
-266.211
-14.9953
-745.43
140.141
85.8204
173.389
71.3731
-163.394
92.0208
-15.5682
-222.61
-168.447
320.963
-225.614
198.958
-36.8041
-383.861
-155.622
-191.032
-647.859
838.891
-157.91
113.845
348.351
61.3253
261.068
13.4326
430.294
22.8641
-345.433
481.992
332.068
-51.3762
-187.644
-133.015
320.659
-6.58556
-202.432
209.018
403.543
-442.908
39.3645
97.3344
93.002
-190.336
46.3204
332.164
-571.78
509.289
62.4915
-532.846
-33.4606
566.306
-434.534
-113.969
-24.2749
225.089
-200.815
40.6151
-214.283
173.668
735.458
196.75
340.894
54.4925
-395.387
-86.6546
213.983
-127.328
266.092
37.9959
231.042
-126.193
-104.85
578.235
-213.512
25.2649
966.298
145.549
229.221
114.631
-343.852
273.368
-261.403
235.19
-369.026
133.836
66.7982
-965.176
-567.886
415.286
222.445
-151.072
-41.5922
289.299
-247.707
80.3049
260.589
-48.199
298.799
-250.6
323.982
-57.8897
0.98066
228.24
244.412
-371.909
127.497
-80.3881
305.221
-224.833
-447.992
166.084
-351.923
185.839
265.534
-393.724
128.19
-318.53
288.152
30.3773
-2.45211
-331.306
333.758
756.045
-708.579
201.993
-185.358
619.336
-634.637
15.3015
418.281
109.357
-854.169
519.199
334.97
-40.4589
308.078
-267.619
-90.6083
-151.528
242.137
-292.485
558.495
505.202
513.047
-513.047
-536.231
-494.329
-242.687
-211.568
895.815
-602.108
7.70495
259.784
-267.489
-180.331
-256.807
437.137
87.3385
152.515
-239.854
499.841
-919.683
-341.344
260.871
-13.6033
-396.264
355.294
-357.746
-1068.65
500.045
-484.586
484.586
-642.617
-4.62083
647.237
623.17
-263.045
292.321
114.442
-406.763
-326.66
291.564
-220.779
200.101
20.678
-531.886
830.363
-298.477
306.32
-63.3369
544.086
-79.8327
-419.824
232.179
175.724
66.3431
-649.357
469.027
229.3
-360.435
87.4859
-178.094
243.718
113.283
-357.001
351.151
-109.871
-950.809
-238.045
623.687
-46.8714
-69.3849
259.779
-190.394
521.888
-441.446
-80.442
-69.352
746.092
-676.74
-53.2062
896.095
262.03
1.57726
-102.54
189.878
-86.433
534.033
-447.6
-540.579
192.493
-171.278
15.852
155.426
-112.182
404.503
-31.1781
211.117
-179.939
-76.3266
-221.249
194.283
-84.3285
-76.8803
192.164
12.5084
-245.875
233.367
29.9414
460.55
-490.491
710.263
49.3912
-759.655
291.333
14.9871
-66.5298
-159.085
-128.893
38.8068
227.228
-266.035
38.0994
362.119
221.749
-753.635
320.027
-198.423
-83.6213
122.589
-820.603
698.015
59.5665
-388.126
-187.553
-269.97
201.629
68.3407
-341.889
-313.006
567.711
-999.208
243.071
-53.8606
-189.211
-38.4349
234.373
-195.938
-1042.07
350.931
691.136
-35.3759
369.656
-334.28
325.07
59.9665
-252.162
102.775
149.388
333.088
-92.2407
-240.847
360.665
-125.475
-180.07
301.719
280.715
-213.258
146.212
-184.647
-98.6903
584.377
-485.687
754.835
-176.003
-130.034
-344.592
474.626
853.969
-731.38
243.301
-204.494
-43.4383
-301.995
-537.264
83.1727
80.3665
-163.539
341.414
-80.6085
-260.805
-68.8788
168.73
-99.8511
369.903
-125.491
-105.157
-337.881
443.038
7.56182
844.002
-851.564
-776.511
804.488
-27.9771
-246.657
66.2434
180.414
-754.552
442.674
311.878
63.1828
-164.241
7.52166
171.734
-179.255
-277.284
248.901
6.05965
-230.537
224.477
236.8
-11.7104
165.485
-514.949
349.464
227.954
-215.446
-40.4037
-186.178
-71.8688
553.861
338.12
-74.3379
-263.782
-733.932
741.494
-472.852
354.373
118.479
455.525
-320.251
480.171
-853.665
373.494
-277.83
-84.4426
-726.461
28.9373
-176.198
-75.9645
-646.904
631.821
15.0832
-176.141
351.438
-175.297
296.528
293.215
264.487
-166.833
-97.6542
252.7
-270.193
-475.237
-193.642
-82.2103
275.501
-192.303
-83.1983
-530.17
14.462
515.708
174.926
-77.5911
1006.24
-1006.24
433.485
-513.204
-528.863
135.792
189.204
-324.996
-472.159
428.72
-331.165
299.835
-330.612
398.591
154.687
-553.278
49.9363
712.747
529.649
-131.058
411.874
-586.098
82.637
209.944
-292.581
-207.485
-214.136
421.621
283.004
86.7006
-369.705
-297.394
-544.735
842.129
489.487
-744.515
351.411
33.4434
-384.855
-981.591
417.163
95.8849
261.186
-267.771
304.775
-355.045
-20.8177
137.071
-116.253
3.97053
-265.665
-252.923
11.626
241.297
239.574
35.9272
290.66
-377.315
225.895
-92.445
-531.407
-185.293
-123.835
-388.997
-365.556
-956.284
-174.708
1130.99
-500.798
954.706
-453.908
-133.886
-6.52011
140.406
-669.526
636.903
32.6229
-229.444
353.412
-123.968
241.732
280.155
1.74935
-215.552
873.874
-912.404
38.53
423.099
-104.89
206.773
-355.012
158.494
196.518
-245.496
55.1534
190.343
-469.707
-60.4633
133.481
-248.158
334.927
-91.2083
-1068.78
877.746
-527.404
440.971
-106.38
223.119
-116.74
-60.0616
376.104
-316.042
357.696
-334.598
-23.0984
-373.999
42.7283
-214.006
-292.023
658.042
-366.018
-50.7616
-257.887
-91.2037
442.615
4.37352
191.651
-196.024
898.656
197.491
-337.103
-17.9085
160.383
197.314
-373.862
-455.434
829.297
-833.012
360.966
430.671
-947.613
516.942
86.4874
-424.614
338.126
-258.376
189.497
-6.97079
467.521
-151.874
-200.049
-436.406
151.07
616.229
7.4574
28.237
214.834
437.16
-95.2944
-341.865
-95.573
-93.5866
189.16
109.552
208.509
-284.836
9.10761
-109.291
-43.8697
153.161
-385.834
-6.153
391.987
-27.7733
307.371
-279.598
-105.232
496.269
-391.037
-422.994
369.813
-86.8084
-873.292
803.94
336.1
-313.761
-68.788
-300.238
-69.6933
-302.216
-656.243
-122.892
-524.251
278.317
245.934
-270.66
56.1659
-130.327
129.671
27.3911
172.66
410.223
-582.883
27.8261
-272.197
42.7909
22.6098
276.189
150.162
-264.276
-62.8827
-260.28
323.162
-810.975
796.246
14.7292
236.562
-253.31
16.7481
363.852
531.963
261.934
-354.175
-13.8177
305.15
-724.63
694.197
293.478
-210.225
-83.2522
278.219
11.0797
-175.739
-150.384
-317.129
467.513
-216.68
-101.849
285.025
-365.634
422.277
-527.433
116.006
82.1333
-198.139
207.435
-129.065
-78.3703
277.181
-651.043
139.255
-493.591
239.481
-102.115
-137.366
48.3112
-809.549
-421.21
289.462
-363.8
-580.864
667.351
-471.939
88.078
368.353
-665.747
140.67
-249.349
108.68
-846.275
894.586
-30.5322
-10.0731
797.522
-224.151
218.532
5.61915
-307.857
200.452
107.405
-238.906
-154.818
-47.3141
418.762
-371.448
530.17
-628.861
32.4369
-220.423
187.986
166.028
-133.591
321.792
88.8973
-265.038
167.359
26.9238
-137.606
766.761
107.113
-422.859
170.789
-232.731
181.111
51.6204
195.965
-227.143
1.26454
193.515
-194.78
-333.895
271.013
-227.877
-9.90736
237.784
-528.964
398.93
194.385
-185.932
-581.189
-65.7156
614.683
4.65234
-287.809
-229.032
188.7
-86.561
-102.139
-126.503
-82.2896
208.792
164.704
-221.084
56.38
-42.2561
273.28
-231.024
-227.37
218.783
8.5869
-200.905
-26.4649
337.277
99.8827
950.534
-697.176
-259.011
-295.604
244.842
189.688
32.8501
-222.538
-960.062
789.871
170.191
-379.825
173.019
206.806
-480.853
-138.469
619.321
-158.98
-806.179
1.13601
-296.924
-458.08
451.927
-88.9605
-218.896
249.215
-14.8427
651.686
-95.5169
-556.169
347.791
-453.023
-159.298
756.42
-597.123
-208.372
-206.134
414.506
-289.449
274.56
14.8885
5.92805
-62.0038
226.708
-98.5481
-171.422
-530.836
6.58558
-16.1976
-91.5956
-744.64
36.6102
-432.315
-209.277
82.7743
-261.038
171.256
698.815
260.464
-303.223
165.936
65.107
-326.929
14.1361
312.793
-270.718
25.2213
-37.7052
-995.972
778.145
217.827
-29.8348
229.935
-106.146
277.825
496.673
-520.643
23.9708
-293.313
-179.538
-363.035
400.138
-44.3755
146.61
-102.234
976.618
-811.238
-165.379
45.988
-546.293
500.305
-20.3223
-143.389
163.711
-148.522
-122.139
488.852
-63.5619
-233.754
475.486
-555.969
114.844
441.125
-196.043
277.921
517.304
-368.942
-148.363
297.281
8.32308
-305.604
-256.85
187.465
640.339
-90.7916
-549.547
417.62
-244.96
-432.414
388.771
43.6423
253.034
6.74475
-266.365
-60.5634
-183.03
56.8376
205.445
-499.804
60.6534
439.151
-257.608
265.313
-367.228
339.455
-306.454
-67.4232
-417.163
-449.06
401.746
-530.573
1001.83
-471.257
-124.753
80.377
-178.611
-201.214
488.622
-50.1463
-438.476
-16.5629
-302.789
319.352
-490.864
555.576
-64.712
422.01
207.483
-101.411
-106.072
184.495
-226.752
204.01
-202.745
-312.364
120.061
440.718
-394.73
-9.32474
-280.124
65.6341
-887.104
887.104
130.727
6.1872
420.566
-426.753
-154.023
181.033
-27.0106
-507.095
299.61
-418.277
60.0843
358.193
52.216
136.484
-501.299
383.98
117.32
-211.477
437.568
51.2841
307.39
41.7662
-349.156
330.205
-68.8737
-404.867
-36.5784
111.107
-350.411
290.35
338.161
-235.368
-102.793
-47.0578
148.329
-101.272
-956.284
-302.188
-205.294
102.052
103.242
-317.075
229.123
-416.427
-531.186
256.573
535.262
-791.835
-149.448
-527.973
677.421
-463.824
176.015
-26.36
193.719
216.374
-12.3644
-657.745
640.756
16.9899
63.9363
353.683
272.225
-54.9393
-217.286
-108.865
-531.05
639.915
-564.121
791.036
-226.916
-588.292
51.2011
-769.142
190.308
578.834
-987.188
426.167
561.021
-281.306
-274.663
-123.485
459.585
-968.618
438.045
-675.45
814.338
-138.888
618.8
-727.665
-207.924
252.562
-235.353
124.367
-799.817
-164.854
-693.95
858.804
648.409
-8.07051
501.223
326.782
-83.7756
272.958
-98.3669
91.8468
-142.71
212.581
-551.915
255.975
-228.69
-27.2846
-137.475
335.991
-198.516
-161.034
-111.163
519.863
-23.1903
-293.888
277.325
12.7241
624.179
-704.033
-651.028
-250.397
-249.407
25.6777
220.374
35.6129
443.945
-479.558
-357.526
327.737
29.7896
-140.199
155.721
561.584
440.246
-363.981
-186.369
550.349
163.985
-239.717
-92.8063
265.482
-62.9728
-355.304
171.213
-239.561
-237.654
301.591
200.997
-129.056
-446.597
-540.591
-285.963
-10.5365
296.5
-311.624
173.898
137.725
-172.774
177.148
-215.614
-96.0096
226.251
-220.192
254.781
-282.167
27.3861
293.82
-86.6154
-207.205
-805.237
646.257
-315.894
-305.606
76.1619
-296.188
329.631
278.828
-97.4918
519.502
190.771
-38.2562
282.38
541.208
-823.588
-195.914
166.802
40.6335
-558.507
408.123
-935.839
287.98
309.192
-809.99
-473.709
-73.0698
546.779
-529.403
452.498
76.9052
288.101
-207.927
53.9042
-610.164
376.41
-27.0915
167.761
-327.893
363.506
151.008
-519.95
-125.245
-35.9853
211.71
-5.86358
280.424
269.768
-79.0879
172.09
751.363
-5.27149
295.056
-266.795
-28.2611
-254.963
-103.328
-107.44
-29.9857
266.548
699.133
255.572
70.4303
207.395
342.808
-113.508
-82.3181
306.997
-224.679
-441.613
97.0206
496.415
-231.298
-265.117
293.017
-298.881
-18.6635
-672.616
691.279
229.211
-827.962
453.963
-229.164
70.2642
-334.046
-117.887
-369.628
487.515
-124.087
139.939
231.843
-315.619
304.93
-16.6023
-867.09
334.244
80.0819
-340.887
-726.574
-512.864
-447.197
243.106
89.752
-330.599
217.926
-310.732
166.767
72.7146
139.62
-226.152
86.5316
-481.652
143.771
497.766
-920.76
-161.393
74.832
457.865
26.7212
-574.45
-421.522
19.1189
-600.307
-3.18116
300.462
-111.151
395.436
-284.285
-106.242
-84.0944
142.317
-209.225
-83.2602
-344.507
382.606
-236.051
-65.9943
302.045
-74.2558
248.154
-266.995
-263.364
245.444
17.9195
44.0895
-233.524
303.788
364.859
-53.639
-303.887
-17.9776
236.761
207.749
-26.5475
-181.201
-103.561
-467.778
54.0962
413.682
-296.366
-122.439
418.805
169.143
-216.201
311.925
-256.632
80.4347
-203.891
-109.263
313.154
801.909
307.678
-31.5193
-215.684
247.203
-23.3249
-506.078
-285.963
-735.896
354.224
381.671
9.28777
-299.691
-9.83834
255.819
-15.8555
234.387
270.246
-339.576
69.3301
-451.057
-116.829
-549.32
197.287
352.033
215.128
22.6556
237.81
333.324
-618.401
285.077
231.332
-420.098
188.766
-365.363
396.654
-669.985
273.33
951.45
-926.185
-733.652
441.629
-418.345
-124.936
543.282
161.967
133.089
-311.02
573.172
-391.251
-181.921
361.35
-197.364
-803.908
239.788
251.504
244.911
-221.87
73.3487
393.735
-102.171
182.192
-186.398
4.20666
232.913
11.4731
574.462
-607.923
-510.201
190.416
319.784
80.22
-350.944
-143.914
494.858
78.9184
366.612
-195.399
264.183
59.7984
-465.345
172.031
301.619
129.188
-430.807
122.909
-229.289
-176.227
-229.213
-205.938
-366.186
21.6795
-28.6776
-629.068
-28.0618
228.149
-200.087
-317.27
183.057
134.213
-359.317
-119.02
478.338
-252.731
-88.6131
193.595
14.154
-324.291
87.3713
179.741
95.2959
-275.037
-270.11
-122.59
392.7
-369.324
-290.577
270.804
19.7733
131.431
-358.627
227.195
160.902
-247.801
86.8989
-41.1166
-112.806
-268.449
381.255
-382.311
230.437
211.52
-440.733
-264.38
117.363
147.017
-457.522
140.393
34.9464
-439.683
404.737
-199.891
-63.4721
171.342
399.551
-328.297
-71.2541
-203.668
207.145
-3.4764
-265.224
135.788
129.435
-94.7622
-137.969
-310.307
-111.487
901.358
-220.505
-25.3705
267.114
-485.951
306.413
118.902
-325.271
206.369
-372.434
-140.772
513.206
-470.385
-217.031
218.799
-29.1116
256.259
689.052
-707.715
-49.0641
-273.807
322.871
79.2856
-709.543
630.258
211.129
80.7014
-291.83
284.805
-95.6014
-231.364
232.5
-365.319
-39.0132
404.332
-710.872
39.4316
671.44
-475.681
-173.677
-93.2628
-273.965
521.96
-38.0703
-774.353
-19.4144
793.767
-196.047
528.398
-332.351
-199.062
481.443
166.167
-517.111
303.919
-93.9753
114.972
419.061
-425.891
432.078
-318.012
-127.71
445.722
-524.42
50.7105
325.593
28.7794
37.3902
-268.754
241.865
-56.8665
-184.998
-87.7551
-91.7576
281.254
-71.1578
-279.253
63.3229
214.598
-302.788
-86.9923
389.781
-275.188
325.453
-50.2648
-66.4703
262.436
-329.531
-120.326
449.857
-247.019
112.677
134.342
-132.91
-43.8884
50.7949
-650.706
599.911
-180.865
-251.549
-282.779
-232.17
-337.639
-83.5708
-213.707
-62.2712
275.978
415.553
639.634
178.233
-245.892
67.6593
149.38
517.971
213.802
28.0626
167.593
-237.775
70.1816
-373.467
-155.497
-532.041
-83.7351
336.435
-182.401
314.623
-26.5223
642.261
-173.235
-4.64473
230.896
-246.545
274.741
-28.1954
713.554
2.66615
290.351
-602.175
492.532
109.643
218.904
53.3212
205.07
-26.2113
207.414
-331.249
94.7749
-332.657
15.469
-355.249
362.976
-7.72667
95.5786
-202.002
182.323
38.1702
-320.555
323.982
-3.42749
264.042
-330.036
245.549
-12.1823
-343.135
-129.024
-67.2499
262.943
12.0803
243.895
307.027
1.15059
-375.217
-132.503
507.72
-82.1808
-151.009
-201.204
-19.2186
72.9911
247.036
264.429
-294.415
292.562
-69.8534
-236.162
267.145
-30.9826
-1063.16
717.96
345.202
-418.668
122.301
300.169
15.6615
-315.831
-55.501
345.851
569.994
-180.146
-18.0915
198.237
-66.4564
-210.828
-266.841
-51.4441
318.285
-290.433
-50.2117
340.645
-70.1161
-510.345
-91.8307
-797.7
785.393
12.3066
54.6901
239.824
-294.514
56.2811
296.919
-166.518
452.103
-285.584
-235.281
-60.3228
-450.521
104.932
-211.174
182.182
-258.146
-314.682
-94.2386
408.921
-116.327
438.044
-321.717
-383.942
-74.1375
-221.604
-94.0155
2.37605
-410.511
-116.894
-205.389
684.431
11.4916
644.626
-656.117
-198.924
42.9301
225
-809.249
584.249
163.413
-402.319
292.981
-32.799
107.528
-998.592
-211.575
-99.1566
442.869
-9.38417
-491.455
-386.609
-99.9839
-657.421
208.399
-400.428
192.029
-5.42167
278.702
-315.87
-90.2711
406.141
-12.1703
-263.763
275.933
829.952
-116.398
-490.243
483.272
-59.7294
-714.623
-88.4342
427.889
-846.573
783.602
300.805
-466.316
403.343
-88.3025
-121.923
176.892
177.36
-354.251
-438.299
-243.746
186.026
19.8035
-205.829
-204.178
908.929
29.349
-992.023
559.708
-212.162
-83.3161
295.478
719.752
36.0468
349.666
-88.7954
377.342
-355.662
-402.34
411.427
-9.0867
321.956
-328.139
6.18292
355.544
-99.285
-13.5279
-403.301
-142.992
-217.433
-107.563
-197.05
-95.5311
-584.317
778.766
-194.448
-224.78
9.16541
-203.482
-409.132
-462.279
412.133
91.6846
-300.909
-113.431
-122.845
236.276
-45.0474
392.257
-347.21
336.393
-65.3803
216.361
-61.2504
-155.11
96.3691
-239.758
131.723
148.992
297.552
-86.4238
-308.755
-86.4197
213.795
547.541
-148.611
26.4316
-773.7
747.269
-281.932
106.671
-185.759
-30.2095
-71.3439
320.244
57.6582
772.102
-698.549
856.223
-110.778
-745.446
380.902
-77.2453
-303.657
106.545
-223.284
-97.7226
510.467
-412.745
-223.173
-65.148
26.1452
-735.688
422.605
-95.1173
-291.229
290.376
0.853314
-208.207
-60.3562
268.563
207.107
21.9501
-229.057
-31.267
-108.243
-445.823
-617.339
-427.333
205.863
1.76459
-215.996
-8.55526
237.766
51.0922
-534.876
483.784
-304.868
228.007
-406.617
166.492
-366.541
689.194
-304.084
69.8565
-272.926
203.069
-129.242
287.735
578.143
-166.269
-221.747
-145.478
234.585
875.031
91.2671
-296.5
221.929
47.1709
724.931
-13.7675
195.959
-326.961
-93.319
371.737
-82.2753
-430.194
-511.978
150.63
361.348
-163.889
-506.547
670.436
-583.573
1006.67
-713.589
129.272
-457.241
-288.313
260.412
100.253
-925.952
64.0598
861.892
-330.128
371.503
-86.4772
-3.18984
358.484
321.885
3.56846
221.877
-201.243
-20.6343
-300.882
96.7034
-197.599
-6.06896
242.514
347.765
-85.8307
631.877
-131.572
271.566
98.3373
534.958
-112.681
500.412
-90.1893
246.684
-25.4077
-221.276
413.23
-472.894
-324.434
797.327
539.614
-261.297
-274.299
-547.588
80.4826
467.105
299.295
-54.4525
-710.952
677.678
33.2739
515.091
-63.1644
-33.7133
635.824
-602.111
-352.447
265.832
273.43
79.9818
407.675
121.974
-373.946
209.798
-21.8123
330.713
5.67986
-424.631
-129.656
-52.2779
588.852
327.222
-317.899
-9.32233
-499.381
48.3243
-364.947
-329.628
303.105
41.3724
328.283
-280.177
321.515
-55.683
-148.38
-266.199
-246.106
-17.9033
264.009
-400.848
-112.2
-31.3859
547.304
-38.0151
-9.8091
477.33
560.17
-26.3937
-172.868
-273.084
317.093
-44.0097
-76.8915
241.337
32.7761
-743.728
-312.914
-227.594
333.667
-392.653
-56.407
435.83
631.84
221.741
-853.581
-152.505
560.83
-138.225
311.265
-247.04
-64.2245
-91.9798
-575.284
-193.858
22.7211
206.272
115.612
-138.548
225.446
-274.929
-273.638
326.972
-53.3342
236.872
291.815
-415.3
709.31
421.682
-277.175
355.165
-77.9893
-258.776
-448.821
-218.898
837.346
18.8773
391.012
-60.299
-953.818
27.8658
376.599
-85.9388
-743.99
-6.95578
-293.282
635.348
207.776
-91.7704
-102.687
5.85553
299.295
-379.621
8.10873
371.513
-231.942
-125.059
218.488
-96.8612
-473.967
-84.5397
485.682
-77.5589
327.614
-3.49716
-298.719
-93.7631
-119.758
-519.594
370.146
-116.612
653.501
-627.356
-264.03
348.337
-84.3065
-222.052
61.0176
284.234
23.8431
-451.946
-468.814
-421.017
974.663
-458.429
-516.235
544.015
-103.043
-498.38
-111.784
-90.3697
18.7972
493.519
-117.109
-0.030067
46.9236
181.226
-220.829
-202.029
61.2885
-94.0683
532.072
-116.785
-408.083
-339.978
284.401
268.952
-2.40418
409.794
-82.1794
-56.0873
-149.302
-165.078
-310.758
30.6338
62.3975
-263.602
438.217
-650.312
575.855
-103.002
-472.853
759.005
-726.229
401.815
-68.1475
-265.936
-300.186
26.4446
557.463
-121.633
-758.211
784.642
221.295
-5.33389
-215.962
-130.178
221.863
455.371
-53.625
584.568
-145.924
-282.992
285.658
-111.498
-93.7955
-210.506
250.668
-40.1624
-108.651
270.618
295.38
-34.9162
-47.5483
251.333
-473.463
-278.396
270.937
-235.468
-35.4684
-401.539
390.607
10.9317
-18.5546
-126.282
286.665
287.195
-293.632
6.43655
-244.517
-98.8748
-10.6072
147.678
-325.309
392.272
-43.4286
787.258
-743.83
-507.107
336.471
-44.6554
26.6983
349.803
11.3617
-361.164
6.99164
381.78
212.449
491.042
24.2779
487.122
32.3797
355.144
-47.7534
-62.0969
229.69
238.735
68.2613
-866.273
877.764
-300.469
287.465
13.0037
-551.533
253.355
-2.02247
769.258
-561.955
-207.304
261.818
-188.573
-73.2451
433.06
229.882
24.4087
495.454
-200.443
619.491
-419.048
82.8449
-50.0245
840.378
-790.354
-399.674
286.868
477.077
198.896
238.935
-2.17393
227.465
-171.389
-471.816
643.205
35.1487
210.401
53.4428
-561.586
571.512
-509.021
805.466
-273.511
-531.956
-276.524
-171.468
61.3254
270.137
0.66707
-230.315
-270.984
-346.236
-486.776
6.97736
187.11
-194.087
294.406
268.074
200.147
-792.655
768.467
24.1874
-9.21287
409.313
-449.061
39.7484
279.204
74.3075
1.26718
748.728
-749.995
81.1708
235.922
56.0812
94.4646
-293.834
309.231
-15.3974
-905.63
-50.6539
200.493
-118.464
-483.592
602.056
-297.73
832.993
-146.575
-385.049
-114.332
-561.686
123.076
371.782
41.7656
-258.535
-24.4566
197.058
-150.134
1.83959
841.645
45.4591
-16.444
306.795
474.439
-357.959
-116.48
-629.753
252.483
377.27
113.362
167.892
357.864
-355.553
252.759
127.192
281.729
229.763
233.231
33.9135
69.8674
-484.462
414.594
821.917
-248.245
-573.671
168.666
196.353
-365.019
347.886
402.043
250.942
3.59082
-626.241
-305.966
249.838
-890.002
368.255
77.6815
-447.31
66.3601
-633.121
-102.568
249.37
-363.389
362.011
548.054
-568.39
645.211
-76.8209
-14.2019
376.321
411.544
-323.34
-28.3425
165.758
-137.416
-303.423
299.562
-19.1387
631.936
-348.119
-23.3293
378.94
-355.61
71.8128
-185.846
243.165
-57.319
-269.619
219.945
49.6742
282.971
522.495
155.412
-405.799
422.646
-1067.51
1068.78
108.47
-8.17625
432.088
160.988
-54.3172
416.357
333.464
216.743
25.3941
266.931
367.142
-26.4682
-340.674
-650.591
648.246
2.34482
235.501
201.248
-14.1381
502.742
-432.875
-214.667
762.721
274.694
92.6372
253.949
-367.458
-178.151
26.6531
244.284
741.133
-164.936
-576.197
-859.386
926.185
280.552
347.773
236.666
-221.004
554.103
-992.401
431.806
317.706
299.804
-46.2796
444.797
291.526
60.1319
-418.784
358.652
-204.709
303.921
-13.6866
-23.4133
-824.389
694.133
821.135
-202.335
335.601
254.542
120.898
341.899
-20.3761
-321.523
269.805
285.311
275.532
-192.652
91.2409
-276.009
286.757
-10.7484
425.763
-535.997
-255.838
-5.98934
222.732
445.94
-578.443
-278.588
20.0529
440.569
-112.204
-233.052
345.255
-327.578
-184.4
635.068
106.075
426.59
-943.043
516.453
-461.823
418.895
42.9278
-3.75754
256.423
-252.665
323.805
-251.992
258.962
-236.412
-22.5506
289.79
22.9633
-208.809
-846.275
84.0406
328.068
-412.109
-30.6114
719.269
-688.658
324.36
-297.175
-27.1857
-445.715
441.576
298.522
-240.864
-400.018
978.675
-578.657
285.919
-14.1261
200.152
551.154
448.846
-174.005
213.062
10.6486
-223.71
-28.7679
401.532
-593.274
33.528
559.746
205.635
242.55
-336.565
-39.9152
-361.624
-908.929
858.905
-483.765
1034.92
338.374
-49.9586
241.741
-2.30538
-239.436
490.087
-435.99
57.0322
-707.738
-460.894
-0.929367
-261.12
320.593
-469.546
-499.072
299.75
-18.781
-280.969
-959.428
423.198
-797.7
158.867
34.8497
-193.716
32.8451
597.412
649.145
-634.062
-289.225
830.433
-71.5862
205.914
359.678
-513.573
153.895
-118.065
348.127
-230.062
-703.518
750.689
-388.774
207.19
-226.062
235.517
-9.45535
-274.766
701.356
315.431
605.369
27.928
-786.138
-233.335
230.347
-329.503
-50.6256
-227.78
239.406
-894.586
979.149
177.179
39.8939
-217.073
267.185
-289.103
-88.2116
18.9526
387.484
210.197
-597.682
502.741
-902.759
488.776
-48.0571
-224.373
-5.55737
229.93
-114.657
-196.101
-279.322
72.1175
-163.618
-140.03
303.984
291.856
-265.203
-114.241
-320.423
434.663
283.118
291.397
-17.737
-295.057
312.794
-691.52
18.9041
845.754
-905.63
951.45
-950.809
935.495
966.179
-966.179
-859.386
-998.592
266.418
-224.653
-240.12
-226.263
-189.642
-5.13759
746.565
-965.414
218.849
-877.764
15.3237
-285.683
195.953
-37.0865
-763.314
791.242
229.927
-6.966
-222.961
-258.281
246.11
-11.7215
-250.466
262.187
248.133
-13.9986
-234.135
203.587
-230.872
-23.4938
-254.045
277.539
-189.245
202.064
-12.8194
250.951
282.013
-348.61
408.742
108.96
-186.029
77.069
-373.049
-592.127
-195.341
208.659
-13.3175
-420.167
-84.0653
504.232
197.406
-177.602
44.3008
203.371
-26.1919
-358.35
255.022
480.487
-118.476
207.655
455.42
-46.1071
306.371
-373.277
66.9056
19.382
-634.489
667.334
262.243
-462.686
-783.838
730.34
53.4981
480.825
497.85
70.2905
410.196
-255.121
249.699
-73.1619
-710.676
235.606
-318.922
695.3
-889.748
330.336
-729.561
399.225
132.032
262.752
-205.086
-57.6662
-45.718
-389.252
-867.155
592.389
-3.35374
262.459
4.02555
-303.675
299.65
19.0125
-40.7644
236.912
281.093
-36.8089
184.124
-57.7701
-126.354
738.316
20.689
273.075
306.85
6.72272
184.179
-225.311
41.1315
220.905
-302.599
299.417
-300.814
-204.215
218.465
-14.2497
74.7974
-494.964
237.49
154.782
-87.7028
834.268
-604.554
422.633
560.726
-653.912
219.122
-313.098
314.14
-432.205
183.913
-291.476
218.656
-196.706
-307.571
211.969
-192.845
-9.18858
202.034
215.009
-310.54
367.927
-266.23
-101.697
-0.247343
484.031
-442.555
-560.344
1002.9
-720.143
629.351
-50.3423
-320.117
370.459
21.4088
49.028
-290.837
280.999
-273.599
-4.98899
199.476
45.9618
-245.438
-183.812
-216.616
-289.606
222.232
-208.003
-14.2293
-303.675
-404.653
404.653
188.868
-659.253
163.452
157.511
299.65
727.489
-234.957
-41.665
-646.073
687.738
521.629
-80.5041
237.984
-366.363
317.299
380.128
245.674
4.44366
231.373
-171.814
-59.5588
-40.0519
-686.63
686.63
-173.164
-389.692
-92.4071
-118.767
205.627
20.2677
-137.891
204.234
-424.387
480.455
-162.345
-204.196
719.401
-498.368
-221.032
-115.428
-107.856
514.509
-165.044
-96.1397
-29.9565
-485.514
515.471
-500.315
-287.549
508.645
-13.1913
-26.681
-709.295
537.906
-458.664
-65.7559
767.593
19.6651
233.212
-113.053
773.878
-660.824
88.5565
830.178
683.259
843.141
153.676
-214.926
-388.587
-72.307
-240.229
248.754
-213.538
50.0515
-181.232
-897.02
41.182
855.838
18.0459
398.458
809.767
-266.281
249.802
16.4786
1066.37
-542.386
-523.986
-169.468
8.74249
474.53
203.592
-36.79
284.905
265.445
429.489
-772.06
956.346
-184.286
-344.867
4.88928
233.328
19.2693
665.162
-77.9846
-222.484
-183.36
-237.657
199.183
92.34
635.149
690.27
-731.935
92.2282
-795.746
23.3326
654.346
752.341
-849.678
97.3371
-627.676
536.435
91.241
627.388
-563.71
-63.678
-447.258
522.056
47.3576
-97.728
-122
219.728
136.002
304.801
-596.448
422.771
185.943
-185.943
-200.937
220.472
-879.279
436.724
-650.72
532.255
-547.588
866.273
-953.975
24.46
-238.385
207.072
-181.932
-220.387
-246.017
24.4484
358.158
37.3802
343.522
-354.277
-357.227
29.0881
415.062
-676.359
-55.3265
-726.844
782.17
219.991
-280.348
55.4837
123.105
-245.95
-623.654
656.277
-191.671
-66.4752
8.14172
525.125
132.917
-312.411
-17.2165
-455.118
957.859
863.888
-863.888
334.542
44.3973
14.9142
462.415
-761.649
17.8189
649.229
18.1046
80.3697
417.677
-498.046
217.175
304.474
-4.01203
9.41768
671.951
19.3287
-813.245
619.387
195.921
302.956
-498.877
-820.827
547.316
211.499
-408.989
22.7884
-650.144
-186.98
-39.3341
226.314
-97.4744
213.637
-116.163
15.6191
45.9218
357.706
42.4321
-206.612
17.1462
-259.29
528.066
657.986
61.283
12.3361
118.918
-103.607
-190.907
199.155
395.11
-510.582
-707.885
-64.1749
-203.349
-467.168
-475.875
-274.057
-360.58
624.984
-515.341
6.82991
798.037
-804.867
318.002
49.9258
394.659
-60.1171
613.932
-50.9429
-562.989
313.508
-13.6734
-568.339
-92.1299
660.469
-28.2208
-233.182
-598.619
425.384
-160.015
-66.3575
226.373
224.636
611.254
66.1878
-227.144
-104.105
25.4912
206.608
-546.395
638.735
196.091
4.06112
-200.479
399.499