/*--------------------------------*- C++ -*----------------------------------*\
  =========                 |
  \\      /  F ield         | OpenFOAM: The Open Source CFD Toolbox
   \\    /   O peration     | Website:  https://openfoam.org
    \\  /    A nd           | Version:  7
     \\/     M anipulation  |
\*---------------------------------------------------------------------------*/
FoamFile
{
    version     2.0;
    format      ascii;
    class       surfaceScalarField;
    location    "13";
    object      phi;
}
// * * * * * * * * * * * * * * * * * * * * * * * * * * * * * * * * * * * * * //

dimensions      [0 3 -1 0 0 0 0];

internalField   nonuniform List<scalar> 
172549
(
201.652
51.3865
-253.039
-473.771
101.999
371.772
-111.054
-78.9829
190.037
113.577
-278.905
165.328
-435.247
323.708
111.539
138.116
-337.206
199.089
-158.491
282.946
-124.455
-84.2454
189.432
-105.187
-363.393
351.989
11.4041
-465.115
-8.65587
-230.003
354.517
-124.514
494.968
-360.241
-134.728
-170.206
341.273
-171.066
93.2619
-94.6815
1.41952
-43.9357
-319.457
-110.357
64.8444
45.5129
-456.086
86.4328
369.653
-411.617
76.9915
334.625
-134.425
286.284
-151.86
-331.971
-103.275
-76.0133
177.349
-101.336
199.642
-197.563
-2.07838
392.872
-290.353
-102.518
160.752
-314.051
153.299
-248.998
213.515
35.4832
-114.468
217.809
-103.341
65.2853
71.6244
-136.91
-206.795
458.62
-251.825
-263.263
-175.889
439.152
-59.244
97.0428
-37.7988
427.836
-342.048
-85.7879
-239.918
-67.8795
307.797
-268.218
404.55
-136.332
-101.291
-77.0782
178.369
-95.5475
-92.1009
187.648
182.208
95.6411
-277.849
-216.428
78.7144
137.714
-99.6285
-356.458
112.519
-137.5
24.9813
103.155
205.796
-308.951
155.784
-395.701
-57.5619
-354.055
-130.401
-37.8792
168.28
-119.25
301.458
-43.4356
104.781
-61.3458
-2.71763
95.9796
265.296
63.4723
-328.768
542.245
-302.61
-239.635
397.507
-147.436
-250.071
414.114
-534.05
119.936
-390.723
478.203
-87.4803
280.29
-101.869
-178.421
-466.087
324.131
141.956
-504.396
451
53.3961
-118.189
-166.99
285.179
-310.991
-155.096
547.636
-361.157
-186.48
-134.931
81.1713
53.7598
81.5655
73.5024
-155.068
129.871
-231.154
101.284
-515.369
327.457
187.912
-186.294
331.893
-145.6
346.125
-129.439
-216.686
-106.429
187.398
-80.9689
295.898
87.1698
-383.068
9.39814
-401.054
391.655
-351.883
196.864
155.019
-215.126
392.343
-177.217
74.7645
-142.495
67.7304
-528.944
251.368
277.576
-111.639
194.535
-82.896
190.563
-144.164
-46.3982
359.915
-256.76
-137.959
69.3882
68.5707
-88.0835
-93.7992
181.883
82.3208
-166.941
84.6199
-197.696
46.994
150.702
202.233
-403.097
200.864
-257.576
-127.112
384.688
-282.473
210.204
72.2692
-74.7422
-207.731
429.782
-432.781
2.99835
47.2347
-85.1509
37.9162
-303.541
553.284
-249.742
-137.617
241.212
-103.596
342.482
152.487
-111.241
179.382
-68.1405
-324.472
472.876
-148.404
106.814
-119.956
13.1412
-86.6913
441.522
-354.831
126.38
-1.68783
-124.693
203.214
-19.8855
-183.328
206.531
-469.793
221.57
50.0636
-271.634
-420.648
315.3
105.348
-574.88
416.832
158.047
262.017
-321.866
59.8483
97.0841
-49.8494
82.0371
-153.713
71.6756
-0.254493
107.069
-314.463
-200.906
196.5
-430.058
233.559
327.645
-179.485
-148.16
-484.865
498.724
-13.8583
92.687
-204.326
166.262
-86.2991
-79.9633
-502.578
306.274
196.304
-33.2615
100.314
-67.0524
-144.981
225.541
-80.5601
-311.332
-71.1427
382.475
-118.408
223.748
-105.34
-54.665
316.682
-168.192
-29.5044
136.396
105.002
-241.399
-125.282
47.3644
77.9173
206.184
-345.795
139.611
-307.611
77.6078
-82.2597
207.078
-124.818
364.002
-541.569
177.567
49.0143
141.548
-198.78
116.52
-70.2026
-40.1547
-224.377
114.872
109.505
43.9547
-163.458
119.504
-230.663
532.608
-301.945
-107.523
48.2788
-265.594
79.301
-120.088
65.3747
54.7134
-181.234
-41.7172
222.951
-500.958
503.586
-2.62781
-101.039
229.283
-128.244
567.12
-287.729
-279.391
-166.024
174.01
-7.98527
538.929
-196.447
-329.442
480.848
-151.406
-132.76
227.339
-94.5795
-266.636
194.634
72.0017
60.7249
-328.943
148.877
-267.067
182.766
149.128
75.0058
47.2978
-122.304
-189.831
340.971
-151.141
502.978
-504.537
1.5592
373.408
-195.694
-177.713
-260.094
159.056
141.961
-532.683
436.679
-328.761
-107.918
-116.314
-149.28
-444.824
229.698
-226.997
-167.105
394.102
110.342
55.9207
53.2917
-96.7273
7.27508
195.939
-567.955
273.278
294.677
133.336
146.954
-357.367
425.854
-68.4872
-412.195
100.863
-65.5301
212.277
-146.747
134.753
-134.894
0.140725
-151.187
105.417
45.7706
152.698
-70.377
138.97
297.71
158.409
187.716
-186.567
148.709
37.8581
264.491
-145.788
-118.703
139.909
173.535
-313.443
438.889
-254.095
-184.794
-56.8255
-109.076
165.902
-182.901
117.371
-242.555
126.262
116.293
-242.353
157.921
84.4321
-99.6222
364.918
-96.8935
-22.6285
119.522
26.6009
64.9205
-91.5214
-67.5371
-86.0109
153.548
215.946
-430.361
214.414
-76.4401
103.041
194.266
85.4238
-279.69
116.81
-333.004
216.194
277.804
119.703
-285.626
-132.288
417.914
-188.557
100.473
130.398
-252.086
121.688
-201.725
408.068
-206.343
-261.199
-241.379
-162.413
384.889
-222.477
95.1239
-262.222
167.099
311.26
188.74
-131.502
319.908
-188.407
121.954
4.42634
-105.776
300.042
-338.724
190.209
148.515
450.071
-153.889
-296.182
-205.298
116.437
88.8603
-224.356
109.889
75.5989
-129.887
54.2877
21.0532
-97.4932
-173.679
164.517
9.16176
58.0453
-149.21
91.1649
78.963
140.019
-218.982
-562.327
382.656
179.671
-204.69
361.931
-157.241
358.944
58.1122
-417.056
481.281
-479.313
-1.96773
-339.106
169.077
170.029
137.646
-93.1081
-44.5377
370.033
-271.534
-98.4989
-87.2905
383.188
-209.454
-194.979
404.433
101.298
-207.104
105.806
-72.7123
93.7655
33.1054
273.168
10.7975
-259.795
-384.203
297.511
-159.872
-67.2656
227.138
-87.6809
-117.617
-98.2999
245.681
-147.381
-184.658
-134.775
319.433
83.0348
-85.7524
-123.565
-261.484
385.049
134.739
5.17716
-139.916
137.634
-2.1524
-135.481
136.714
-329.955
193.24
-76.6761
141.048
-64.3718
-73.5436
-430.853
-193.496
32.9673
160.529
-196.817
-83.5027
280.32
186.941
-68.5238
-118.418
137.381
-61.7824
-352.567
92.4625
260.105
-0.873611
-408.672
409.545
66.3639
-118.971
52.6067
43.6073
-117.1
73.4926
87.0307
-177.633
90.6025
-231.235
122.671
108.564
-225.16
-337.167
-641.754
285.439
356.316
392.057
-205.743
-186.314
-51.3885
159.184
-107.796
240.162
-166.616
-73.5461
-39.9247
142.313
-102.388
-291.036
161.481
129.555
-111.427
-39.7605
144.709
-62.6722
278.472
-217.45
-61.0223
-235.102
407.577
-172.475
438.899
-216.362
-222.537
136.802
-87.9002
-48.9014
-162.028
105.203
-63.3352
-36.3629
99.6981
207.92
277.503
-485.423
-370.75
241.254
129.496
223.948
-524.579
300.63
387.393
-237.199
-150.195
122.225
-90.2339
-31.9914
-4.51415
-281.112
-71.3531
170.087
-98.7335
-557.135
297.02
260.116
503.64
-503.64
-181.852
97.6069
368.846
-373.361
-4.16153
87.1963
-471.008
269.283
-121.968
113.436
8.53146
37.9834
-182.964
258.492
-144.915
-100.738
144.693
179.743
-280.185
100.442
100.044
92.3873
-192.431
-96.0573
198.404
-102.347
415.215
-131.523
-283.692
-322.007
190.505
427.745
-149.941
-217.745
-73.2908
141.337
178.063
-319.4
-190.259
104.15
86.1096
41.6416
-100.152
58.5102
-169.172
101.635
-249.243
297.866
-48.6229
80.1476
-113.409
-123.907
-62.6604
97.2378
184.736
-404.815
220.079
69.3766
68.2692
456.533
-254.413
-202.12
173.286
204.139
-377.425
50.4219
-243.918
491.658
-501.467
9.80874
117.793
-66.1963
-51.5965
98.3025
-141.14
42.8373
109.619
-67.9773
-500.32
66.1258
434.195
-161.649
28.3944
133.255
357.978
-324.873
-258.688
409.621
-150.933
-476.81
301.726
175.084
364.502
-244.502
-120
-135.348
-210.447
345.796
-162.236
345.196
-182.959
-220.691
124.634
-72.937
-22.9839
95.921
106.239
-192.366
86.1262
-57.081
130.014
-72.9325
309.784
-193.063
-116.721
82.5355
42.7859
-125.321
-124.504
272.051
-147.547
-249.634
160.576
89.0581
114.034
72.9073
89.884
-116.005
26.121
-169.926
286.736
-91.8638
-187.949
279.813
110.679
20.6482
-131.327
-92.3179
148.897
-56.5789
-151.662
100.274
-330.533
160.327
-181.41
346.115
-164.705
348.635
101.436
177.302
-412.404
273.44
-112.688
-172.369
118.507
53.8617
-6.83052
-171.588
178.419
262.81
-386.375
-59.0885
418.032
-33.0663
-92.2153
176.001
69.5357
-245.537
-144.962
60.8311
84.1307
-366.518
9.15116
191.441
-404.269
212.828
29.9707
-102.908
-146.003
-15.6455
194.566
-286.43
-432.874
-67.4459
141.537
229.612
-371.15
219.093
145.409
142.398
-63.9738
-78.4242
173.049
101.544
-274.593
-246.703
160.777
85.9262
80.3446
-357.615
277.27
353.05
-214.934
243.617
-148.493
85.5337
107.529
-193.063
-128.828
261.122
-132.294
125.204
-59.9184
92.9723
-183.384
90.4121
266.725
-88.6553
-178.07
-169.681
-213.216
382.896
-174.462
-74.781
-84.7275
-19.8806
104.608
81.6447
48.2317
-129.876
320.634
-174.342
-146.291
-201.083
35.0585
-503.629
346.3
157.329
361.991
6.85527
170.87
-290.762
119.893
183.292
-104.329
183.891
87.0258
-270.917
-45.1915
246.844
-105.321
-299.561
404.882
-171.05
388.68
-217.63
-114.824
258.589
-143.765
-169.497
272.782
-103.285
146.445
-95.6358
-50.8089
-152.311
-64.1167
-156.889
88.7373
68.1522
262.407
-150.263
-112.143
-438.082
332.761
-161.914
164.691
-2.77675
-187.085
110.676
76.4088
304.171
-167.457
-168.961
473.041
-304.08
189.807
-87.3761
-102.431
65.7207
75.4028
-141.123
74.073
62.7286
25.6853
229.952
-255.638
90.6133
101.358
-191.971
61.9533
305.924
-367.877
146.235
510.405
-96.2912
226.156
95.5995
-321.756
-135.899
293.06
-157.161
137.185
-70.8208
213.599
-120.942
-92.6576
-78.4605
202.237
-123.777
134.276
-249.1
394.348
-221.062
-371.34
369.349
1.99048
126.88
-83.2729
-57.7683
-41.0452
98.8136
488.301
-164.593
-67.0172
181.533
-114.515
-224.131
419.175
-195.044
263.574
179.425
-442.999
67.7951
-179.036
-451.077
244.282
-20.7013
158.335
-325.045
187.833
137.212
2.12473
87.7592
-316.585
-131.822
448.406
268.085
159.66
-77.0025
-84.0042
161.007
99.4427
0.886349
-100.329
-242.587
354.888
-112.301
109.973
-110.655
0.68267
-149.99
381.71
-231.719
-118.717
119.993
-1.2757
56.3551
116.298
-172.653
142.047
-471.488
-171.352
261.949
-90.597
-96.2514
242.132
-145.881
-133.859
198.377
-64.5182
254.605
-160.369
-94.2359
-274.946
86.9971
237.69
-407.37
-38.9084
214.12
-175.212
-226.21
88.5929
197.35
100.516
381.454
-113.369
71.4294
-126.53
55.1005
353.324
69.9288
-423.253
-197.025
404.832
-207.807
-232.838
-267.159
22.8165
-95.5288
601.465
-379.245
-222.22
-50.4986
129.543
-79.0439
-147.231
54.9136
293.87
-384.32
90.4502
-129.555
185.91
-392.469
372.898
19.5706
325.886
221.751
147.521
157.64
-305.162
-504.256
382.416
121.84
-352.623
426.182
-73.5591
-99.3008
253.159
-153.858
181.876
-67.8417
129.938
179.846
124.92
-296.272
-126.955
266.74
-139.784
382.762
218.703
336.288
-330.428
-5.85969
325.161
-529.526
204.365
341.611
-139.378
-101.732
-399.227
59.1042
-211.931
152.827
80.5355
-157.538
357.482
99.0508
173.021
-80.3209
-92.7001
238.351
169.225
134.607
233.684
-368.292
-107.689
371.263
407.671
-191.724
-399.816
8.25335
391.563
-291.2
-180.974
472.174
421.523
-291.853
-129.67
489.311
-249.016
-240.295
-66.5494
-95.4786
-60.612
273.279
-212.667
62.189
75.7886
-137.978
85.0537
-143.329
58.275
156.567
148.714
-305.281
-185.721
31.4257
154.295
23.9203
86.0525
412.022
-173.671
374.97
113.331
-274.622
-137.587
412.21
-34.255
144.934
-170.069
94.0555
-160.532
-219.979
380.511
-25.2109
90.1315
-38.0862
-147.634
166.336
-457.535
197.324
-36.8306
-56.4605
93.2911
219.177
-59.9926
-92.3581
-45.6008
-256.31
129.355
-100.231
276.232
-324.718
499.957
-175.239
261.364
-421.896
393.276
-196.776
105.036
190.428
-295.464
-137.205
73.2115
63.9935
-367.32
488.64
-121.319
307.413
-227.069
554.216
-227.356
-326.86
113.898
105.279
358.825
-116.806
-242.019
-271.837
434.535
-162.698
134.843
-236.41
101.567
-172.85
31.6523
141.198
-146.881
-73.8103
142.314
-389.27
246.956
11.3184
-120.655
109.337
454.649
-198.125
-256.525
301.694
-471.632
169.938
-227.716
188.808
90.0828
99.7246
104.141
-4.46589
-99.6753
254.124
-117.728
250.415
141.642
323.181
-180.506
-142.675
-327.067
217.586
109.481
-489.445
391.385
98.0609
185.309
-98.2786
-114.533
183.326
-68.7928
-175.395
-74.2393
342.442
-48.572
120.496
10.2083
-130.704
-117.314
202.848
-123.919
83.9942
-523.279
358.712
164.567
311.821
-140.951
226.813
160.581
160.906
-398.105
-474.614
238.097
236.516
-245.564
158.867
86.6972
112.372
-38.9714
-73.4003
-218.95
-203.158
422.107
100.452
141.511
-241.962
-407.1
282.619
124.481
-272.28
-134.82
-561.102
373.193
187.909
-279.92
104.525
585.792
-299.693
-286.099
-147.53
-177.936
325.466
-133.665
138.981
-5.31619
-166.308
275.203
-108.895
-254.896
155.595
-413.192
318.288
94.9044
99.8616
89.3717
-189.233
-368.816
195.152
173.665
-111.291
-131.062
143.931
-103.686
-40.2451
276.62
104.834
573.968
-316.41
-257.557
253.319
-519.76
266.441
57.683
-120.032
62.3492
98.7731
5.36809
-61.2709
147.277
-86.006
272.97
300.998
73.3814
-174.672
-281.57
152.742
116.978
-42.2131
110.611
151.795
347.27
82.5122
110.004
71.8721
43.1453
-188.07
144.925
365.26
-514.232
148.972
-60.8741
326.094
-265.22
-34.5255
119.579
174.545
379.671
-147.645
358.994
-211.349
58.6557
-160.106
101.45
-340.932
-300.823
-68.0529
-33.2509
101.304
7.01718
-140.682
-108.165
119.484
178.425
-85.453
180.192
-327.723
-140.946
81.8372
59.1091
-351.74
-87.7808
439.521
-338.282
521.848
-183.566
109.252
-370.295
261.043
43.9746
-132.038
88.0632
-103.969
-248.599
281.161
117.101
-398.262
173.045
-113.941
251.022
-141.109
-109.913
548.646
-180.555
-368.092
-366.683
50.646
316.037
331.681
90.6701
-422.351
-474.091
493.764
-19.6728
-146.11
-78.2671
-90.1329
190.176
142.209
180.972
246.7
-529.2
282.5
376.791
-367.393
457.317
-176.156
552.852
-298.745
-254.106
-223.947
245.956
-22.0096
-51.6463
172.142
-79.8641
-261.202
341.066
56.7734
446.867
-63.2437
-88.4186
139.554
-77.3648
312.151
-155.584
133.668
54.3772
-188.045
166.604
-227.216
-64.3795
-95.5322
159.912
552.662
-552.662
-5.9219
-112.795
281.632
-169.43
-112.202
-305.648
-171.162
-161.676
95.1263
-365.944
-118.921
-67.4415
133.162
209.924
-299.412
176.805
122.607
4.83073
-397.3
128.947
96.2715
-225.218
84.8357
113.568
119.731
-44.7247
-65.1394
-301.543
62.4165
-236.342
173.925
-6.69367
-393.122
-298.466
150.821
-131.874
-184.415
316.289
105.309
246.928
-352.237
-328.36
500.85
-172.489
-83.4358
-38.5318
-67.1811
102.122
-34.9406
-101.583
182.891
-81.3081
228.053
169.042
-397.095
312.078
-207.041
406.061
-186.968
-304.339
-199.917
135.811
-270.235
-175.528
79.9805
-412.933
308.105
104.828
84.0244
-435.765
89.6061
143.663
-233.269
-222.404
-152.881
375.286
42.523
-99.6039
117.335
-151.59
-109.5
-223.435
332.935
-301.821
240.947
-96.5395
-55.8125
152.352
-188.203
105.594
82.6088
358.147
-517.137
158.989
317.343
-208.802
-108.541
153.894
285.005
97.6377
74.7573
-172.395
387.249
-160.436
146.879
-514.2
245.602
-183.185
153.44
163.903
-64.6927
-348.24
212.458
-371.597
159.14
407.013
-234.9
-172.113
74.8145
-260.559
185.745
-229.074
-10.1277
239.201
57.6991
-149.288
91.5885
84.9325
-162.647
77.714
193.513
212.548
-47.8918
147.335
-334.17
418.195
135.768
234.125
-369.893
-103.38
309.564
74.0848
102.529
-176.614
41.7727
-314.699
272.926
-140.557
147.575
278.707
-457.877
179.17
-89.0867
222.754
278.114
-455.252
196.564
-109.993
-3.65425
113.647
32.9914
120.512
-153.504
224.28
230.369
-109.834
183.919
340.006
-28.4959
-311.51
-124.018
444.718
-320.7
101.915
290.957
45.2879
227.992
314.114
132.722
-446.836
328.512
-267.629
-60.8835
-32.5219
-129.392
-207.481
74.7215
-81.1388
-30.2587
111.397
12.5478
-93.6866
-309.199
173.3
-75.6837
-169.39
245.074
206.239
110.185
-316.424
-222.593
-47.6372
270.231
-152.705
89.4613
81.2154
-182.798
-83.9594
-318.67
402.629
-73.5117
-144.233
517.442
-238.735
-72.5189
69.4076
57.2314
-126.639
-181.829
77.4796
104.349
76.2533
-93.6484
17.3951
105.8
173.255
-279.054
-188.675
108.155
80.5196
-133.951
317.842
-95.1813
-121.581
216.762
-323.088
-205.856
-242.041
130.253
111.789
-229.282
527.005
-297.723
438.35
-296.036
-72.3015
-95.3971
167.699
-78.3783
108.349
-184.609
323.246
-138.638
-119.712
265.917
-146.205
162.95
-65.5285
-97.4212
-249.971
359.223
139.972
-84.572
-55.4003
-274.225
280.14
-5.91559
-271.484
112.993
197.952
8.15788
-206.11
-194.412
380.634
-186.222
128.068
-62.6749
-65.3934
225.945
-464.515
238.57
-497.835
173.363
165.89
-31.151
-141.695
1.13723
-191.163
91.1395
100.023
-149.004
361.461
140.733
-82.077
80.9505
-415.121
-47.8176
-58.2452
106.063
-105.497
-509.24
357.381
151.859
248.338
80.1743
-305.611
-160.834
466.444
-77.8903
298.802
88.9974
-139.496
-56.5733
-133.686
-231.478
-240.818
472.297
-197.583
-243.001
440.584
-278.506
264.956
13.5498
312.507
-250.554
-298.872
-204.757
340.84
-509.801
93.8771
98.7067
-192.584
-383.373
211.744
171.629
158.042
216.928
-79.9754
144.646
-64.6706
-330.361
526.169
-195.808
-180.179
129.818
50.361
-134.027
55.8882
78.1385
55.026
-122.207
-63.8274
395.508
87.5606
61.7506
-149.311
498.317
-184.204
-130.133
260.532
-318.816
156.58
-287.062
287.062
-143.356
232.962
-548.808
281.541
267.268
-253.347
-88.6049
341.951
187.734
-144.589
-112.58
124.836
-12.2562
-242.849
73.352
123.326
-483.567
47.3888
70.4039
-129.391
-316.357
445.748
-232.486
368.254
-241.955
143.655
501.118
-245.925
-255.194
-191.541
-37.5322
148.329
-327.814
-568.371
398.437
169.934
-284.28
-158.076
-204.14
37.9673
166.173
-37.5643
-116.155
153.72
136.066
118.058
-84.1332
118.449
-34.3157
-3.06633
78.3953
-75.3289
223.274
-222.314
-0.9598
212.916
-337.848
124.932
55.6197
-170.153
-72.3294
-155.387
106.175
-200.958
94.7826
-393.391
-261.398
326.004
-64.6058
85.5611
42.5072
-7.47989
-136.042
143.522
-149.968
-201.915
155.625
-386.63
231.005
-174.774
102.473
85.6534
48.7277
-134.381
41.2549
-137.794
-150.64
230.224
-79.5842
149.351
108.419
-257.769
-151.767
-285.692
437.459
171.128
-421.72
250.591
101.396
-151.306
49.9098
-540.727
308.917
231.81
464.915
-323.395
-141.52
-501.517
176.799
-118.058
112.136
-71.0418
-99.027
299.467
-407.156
-344.519
-130.095
-173.065
-126.347
-380.78
155.95
224.829
-209.54
136.028
-46.3553
307.373
-261.018
-94.599
-242.29
130.999
168.717
98.3717
-267.089
258.816
-454.491
195.674
194.368
-93.0707
-315.528
106.727
224.918
-95.0473
-327.581
-112.138
439.718
383.54
-227.915
-331.881
336.504
-4.62357
-69.4197
124.619
-55.199
-380.04
166.824
-312.57
126.453
186.117
134.787
-134.787
-194.875
-256.118
450.992
471.541
-390.59
66.7976
-263.615
4.01878
335.988
336.733
211.913
-235.34
-46.9751
282.315
125.289
6.74908
-132.038
-74.1411
141.081
-66.9397
-179.607
106.774
72.8333
-323.009
-244.946
-156.151
91.7718
116.916
-47.5088
-272.604
-302.275
-146.672
85.4009
132.172
209.1
75.8339
33.6851
-109.519
-42.6804
127.463
-84.7824
379.704
173.148
-164.55
-115.37
-336.302
-172.938
-155.986
-101.267
257.252
-69.366
-272.728
342.094
-338.983
176.181
162.802
-91.8102
-104.467
196.277
337.842
-505.038
167.196
209.198
-354.65
145.451
230.759
-409.361
178.602
-82.944
-51.9871
-238.074
165.744
166.62
-395.079
228.46
-138.344
100.779
-379.026
174.336
-204.923
362.965
-68.4269
134.365
-65.9382
87.8454
-133.996
46.1509
30.5888
-93.924
-153.939
366.855
483.496
-465.545
-17.9517
-96.7035
140.678
-78.5585
137.692
-59.1334
260.921
-455.796
-56.4441
157.776
-101.332
-149.418
289.326
390.876
-507.237
116.361
224.706
73.9281
-298.635
55.7021
-103.14
47.4375
-33.7521
110.005
58.81
36.5901
-95.4
-38.8889
141.388
-102.499
-10.8007
161.323
-150.522
178.053
-71.8778
386.522
-136.107
-64.2532
266.077
-201.824
-303.718
-48.905
182.388
-99.9529
-82.435
190.639
-294.331
103.692
-239.929
-147.117
387.046
-77.8966
165.742
-271.64
157.235
114.405
228.786
-348.378
119.592
-324.336
202.379
121.956
252.614
-135.49
-117.124
-130.773
61.2627
69.5103
182.459
-391.913
-102.316
-76.7834
179.099
-47.0374
-134.395
181.433
85.4123
-233.066
147.654
-108.318
198.931
187.132
-99.0317
-88.0999
-62.3414
-106.81
169.152
-42.0852
159.42
-163.913
-117.532
281.445
-304.828
-8.65339
313.481
56.2943
-107.74
51.4453
170.335
96.3903
118.645
106.273
-103.383
106.594
-3.21111
-204.14
-55.6413
446.517
3.39899
109.12
377.53
12.6153
-390.145
386.542
-325.817
-472.372
173.501
46.5995
54.542
-101.142
-140.39
-31.9782
82.8428
-260.034
177.191
111.637
-373.035
-177.439
-33.5843
258.291
-66.5637
264.516
254.846
153.222
-403.34
208.928
-145.726
65.7504
385.143
-161.195
228.782
-95.3671
-133.415
259.102
-328.468
294.306
-178.527
-115.779
193.129
-178.493
-14.6365
113.746
-57.4521
-215.111
-235.643
450.753
-189.894
36.78
153.114
491.45
-484.511
-6.93941
233.657
-64.0346
-169.623
242.544
244.076
-486.62
259.964
-174.551
-165.519
301.368
-135.849
-160.069
307.591
-135.416
220.809
-85.392
-189.778
-149.327
65.0606
-145.77
80.7095
101.51
-196.691
352.054
119.487
-255.613
-157.579
-56.5128
-125.316
118.46
-42.6262
-172.63
275.795
-103.166
-63.6606
145.226
119.707
-45.0232
-74.6838
-138.334
75.9925
-581.645
367.43
214.215
62.3711
-127.852
65.4808
-179.155
261.998
-68.3417
133.72
-65.3782
73.4347
46.2722
-142.534
363.806
-221.272
-120.04
-96.4189
216.459
-57.5496
-41.1966
98.7462
338.263
-145.503
-192.761
233.449
-80.506
-152.943
-379.783
-312.372
-160
-50.7462
-93.9987
144.745
115.935
-303.481
187.547
136.713
-71.6522
-112.308
-5.74993
159.125
-416.701
312.492
-94.9057
-161.112
94.0948
-162.438
81.2585
81.1794
338.885
-129.687
161.427
-129.536
-31.8903
-78.1789
-84.259
54.1529
-120.923
66.7698
92.8661
-163.908
115.324
-64.4697
-104.869
169.339
-87.8398
216.564
-128.725
107.933
-28.6582
-79.2752
-269.358
-35.4699
124.633
88.9661
-89.0752
10.6969
-99.0604
205.107
-106.047
-96.2059
101.516
-5.3103
-101.805
-78.3263
-96.3806
174.707
483.393
-385.746
-97.6471
416.789
-117.323
133.398
-100.406
-425.692
463.884
-38.1923
-179.15
305.716
-126.565
-233.878
300.676
99.8811
87.2506
-72.7668
-114.318
-93.0664
272.809
-141.616
287.396
-145.779
41.8497
49.5438
-91.3935
-288.556
155.374
133.182
119.369
-61.6859
-76.42
-67.7443
-215.967
-186.548
402.515
139.137
344.255
-455.6
258.017
240.21
-240.21
-87.5256
89.1081
-1.58251
185.043
-102.799
-82.2448
246.002
-540.004
294.002
183.374
154.89
-252.755
356.519
-103.764
116.022
-53.6508
-205.136
130.499
74.6371
156.96
330.238
-487.197
254.646
-118.58
-317.343
160.515
156.829
84.2534
-176.584
92.3305
280.302
152.573
-432.875
-219.383
99.3429
87.1794
-153.55
66.3702
140.228
-179.117
-169.62
397.673
-182.777
100.448
82.329
175.707
-105.887
-69.8193
-91.866
363.953
-272.087
333.224
-166.62
-42.2538
105.684
-63.43
181.093
176.347
-357.44
-206.761
-248.839
-90.7783
349.595
98.8848
-185.221
86.3367
-205.038
399.461
-194.423
150.837
-66.5836
318.837
-219.501
-99.3363
130.083
-58.6534
-220.011
-149.578
81.1507
-620.247
303.837
132.67
493.624
-501.542
7.91816
204.697
189.069
-393.766
115.695
45.7319
-367.213
-122.233
143.193
-150.024
12.4375
-290.944
-20.1531
-120.644
140.797
160.496
-295.724
135.228
111.285
280.1
-134.775
87.9539
46.8214
49.7771
-184.173
48.9054
-87.8886
38.9832
263.488
95.3368
263.089
-174.755
-88.3338
137.482
-79.7826
-389.518
272.368
117.149
-260.076
-360.171
184.061
49.5966
143.87
-454.563
310.692
-57.8457
-82.0476
139.893
35.0952
-127.118
92.0228
291.364
209.755
-2.10961
379.64
-77.8642
-59.6362
422.972
-142.671
68.1266
-121.432
53.305
-463.276
259.553
203.722
-201.831
-245.188
447.019
-366.485
566.484
-199.999
280.989
146.846
-173.801
249.944
-76.1427
-156.267
256.719
352.041
-277.13
-74.9112
-180.309
291.047
-110.738
-186.138
-152.586
-91.3812
-187.468
278.849
74.4553
40.5051
-114.96
179.617
-79.7554
440.411
-378.788
-61.6227
-174.969
105.26
69.7087
82.219
265.595
-347.815
120.524
-34.8708
347.538
92.8727
-62.7095
149.889
-101.767
-33.0087
-225.966
514.173
-288.207
4.95496
191.617
-196.572
220.062
-387.186
167.125
-82.4028
-41.9065
124.309
289.433
97.0896
-85.5207
-22.8052
108.326
-144.677
131.216
13.4606
-178.585
117.156
61.4292
182.834
384.285
101.119
-42.3088
-267.542
-121.975
228.641
-443.751
413.73
-509.858
96.1281
59.6175
223.3
-31.828
-191.472
118.529
-64.3758
80.8969
-408.477
-77.8817
-89.0487
166.93
103.533
-10.4983
-93.0351
-116.31
31.5822
122.588
132.017
154.149
-328.475
174.326
-92.898
163.376
-70.4781
152.35
-357.388
350.177
-234.242
341.912
-82.8098
-358.027
-199.108
-288.228
467.304
-179.076
429.267
-324.301
-104.966
-9.06175
-338.703
347.765
-335.861
-176.534
512.395
-165.62
-7.23058
82.6951
-33.7897
-502.64
261.485
241.155
-179.286
-87.3494
-81.0155
-49.7575
-47.5929
148.989
-91.0014
164.504
-554.654
382.762
171.892
98.2008
-162.671
-24.489
91.7462
-67.2572
181.583
-146.386
191.253
-314.23
122.978
322.558
-255.568
-66.9898
87.4123
-397.45
310.038
216.414
-97.7691
114.459
255.574
-93.9336
-94.2691
109.803
-54.1007
474.885
-299.156
-175.73
-267.322
364.025
-96.7038
-117.047
192.221
282.664
-417.83
31.8671
385.963
-285.433
-185.575
136.692
-212.274
75.5819
-132.799
-73.9704
206.77
107.586
211.096
-318.682
43.5692
-264.776
-237.864
-83.3088
-36.0524
119.361
-204.708
326.242
-121.534
479.933
-174.009
408.193
-61.893
-291.337
166.833
95.7009
7.83252
-270.172
-35.4437
305.616
57.0267
-373.611
-408.897
137.061
130.762
-17.0336
-113.729
174.746
-269.106
94.3603
-109.182
258.533
-458.717
334.699
-77.4152
-71.8724
497.242
-149.704
-240.588
406.771
-166.182
216.457
-337.604
121.147
469.992
-111.845
45.523
76.7023
-309.431
135.629
345.877
-190.05
-155.827
-174.492
296.07
-121.578
132.649
347.284
164.697
-268.219
103.521
389.855
-107.236
360.978
129.14
-490.117
329.232
-226.212
-103.021
473.438
-502.362
28.9232
124.966
-90.7789
-34.1872
342.377
-237.068
-9.58833
-100.405
-80.3482
-182.702
263.05
38.2676
-112.568
74.3008
-140.613
64.1931
-307.193
474.402
-167.209
-87.2852
-53.661
-194.612
199.567
109.536
36.5442
-114.121
77.5772
288.969
2.52347
-291.493
-144.198
90.3463
53.8521
-100.809
454.133
176.091
118.215
-143.428
303.924
-236.85
158.389
335.082
51.46
-159.973
-157.37
16.5126
227.105
-246.765
82.2157
-141.473
241.413
-99.9396
58.8998
-126.341
408.809
-204.112
-369.807
376.484
-6.67691
-133.134
494.112
68.4571
-140.419
71.9624
123.284
-68.607
-142.246
210.853
-151.535
187.594
-71.8995
90.352
12.2696
-102.622
68.1953
-121.109
52.9135
-248.076
151.825
-100.219
-68.7977
169.016
-267.757
-294.132
127.963
166.168
119.593
-84.4979
49.0528
-113.021
63.9682
51.0181
-183.817
138.852
133.199
-102.291
256.986
-154.695
-140.282
88.6473
51.6348
-75.0662
191.95
-116.883
-375.372
212.959
-179.675
360.768
152.829
-271.775
118.946
238.968
172.802
-411.77
-57.2252
-32.1346
89.3598
331.462
97.8053
328.021
-147.77
-180.251
-157.608
406.189
-248.581
164.845
-70.9645
325.724
-254.759
327.681
121.679
-449.36
474.56
323.684
144.218
-467.902
249.311
-456.072
192.166
-30.6381
-161.528
-338.208
185.171
153.036
-113.716
13.9634
99.7525
93.5353
17.9148
-111.45
-68.4213
-68.7837
13.4548
-383.262
-356.385
213.851
61.1665
193.13
-254.296
-377.991
307.026
222.684
123.043
-345.728
-61.2423
108.071
-46.8287
-101.227
-144.318
245.545
568.626
-257.366
63.3718
136.27
-135.263
-279.077
414.34
-121.833
171.61
-222.82
382.892
-160.073
-353.195
41.3135
311.882
-177.939
-279.174
457.113
-56.4546
-77.5722
-564.251
366.721
197.53
301.055
-182.838
-118.217
-123.786
346.47
-168.896
68.6774
111.775
-189.657
140.256
88.5263
-163.259
-490.526
250.996
239.529
-161.71
83.5314
-266.751
97.321
-291.638
-290.007
-58.1512
-243.67
95.506
-332.108
236.602
-203.65
-175.481
67.8589
107.622
-243.011
-72.5171
-113.169
-40.9564
154.125
-52.3162
-45.2601
97.5763
-312.862
220.996
8.82827
-83.0992
74.2709
158.341
-190.169
153.438
-365.421
211.984
6.58467
-276.757
-191.877
316.634
-124.757
-234.746
247.183
106.284
-133.141
-89.6114
222.753
398.213
-407.275
106.477
-64.6271
285.384
189.567
-474.951
-78.9699
-82.7404
-78.3183
272.885
364.895
-367.004
97.0561
-3.52078
409.458
-125.104
-284.354
105.393
160.267
-265.66
143.31
-37.994
-126.513
164.507
267.192
-123.034
-144.158
347.848
42.0065
117.946
-79.6782
-501.73
173.369
68.0711
-136.413
-133.302
71.1106
62.1916
-51.229
158.187
-106.958
-140.608
-78.3769
218.985
32.9492
-97.0931
64.1439
-126.126
43.7232
174.243
-187.22
12.9768
226.826
-280.298
53.4718
-219.143
78.5355
-88.4432
-78.4974
-59.1433
-59.1309
118.274
142.566
183.453
197.18
-225.603
179.248
167.686
-122.631
-45.0554
-372.5
264.94
107.56
227.447
-83.7839
336.225
161.017
335.184
102.831
-438.015
-130.505
-129.589
-537.844
251.048
286.796
219.527
-300.474
80.9471
143.408
119.68
-95.9215
53.6677
-32.9343
95.7319
-62.7976
-268.412
-217.579
485.99
-418.579
440.991
-22.4117
-266.895
107.023
-129.807
-454.729
-21.6182
476.348
209.181
241.342
-450.523
-123.804
-188.765
-146.828
-141.728
110.427
-20.0754
-337.169
135.338
-30.5571
165.4
-122.332
-271.422
168.854
102.569
84.081
68.6167
-130.158
-145.142
275.3
125.431
-88.8865
416.364
-294.546
-121.818
-130.933
347.39
-214.189
-37.8975
457.154
24.1265
-114.65
-76.2559
190.906
454.652
-0.197245
-454.455
-88.2598
318.889
-230.629
118.087
82.185
-200.272
-373.342
220.21
153.132
-131.285
-109.904
-161.519
143.177
-74.72
-107.413
290.046
-182.634
140.311
138.932
-279.244
-151.091
-54.0454
-246.395
-175.71
422.104
115.926
476.439
-332.701
-143.738
-154.234
150.178
-93.9537
-56.224
37.6839
-94.1445
205.003
-271.567
294.454
-352.605
-402.41
343.322
193.754
-317.558
231.1
180.923
434.543
-203.783
-225.452
161.199
96.0029
82.4224
-94.6796
105.62
-156.849
-271.23
289.218
-17.9876
-276.83
-21.6363
76.5545
-142.503
65.9489
115.326
286.468
-158.504
245.815
-134.246
-111.568
-71.2232
130.123
-269.322
120.912
-189.519
311.353
-62.4648
-248.888
-257.528
466.709
484.764
-148.539
-370.156
267.287
102.869
-22.2826
476.935
-218.483
409.923
-86.0412
-203.327
289.368
104.694
-263.464
158.77
12.7399
288.986
-334.61
-247.386
581.996
147.108
-347.955
200.847
-292.788
392.824
-100.036
-123.188
446.872
352.552
-126.395
177.238
-89.5685
369.589
-280.02
-80.6746
-63.5238
-234.239
151.859
82.38
177.567
148.675
54.6031
-59.6673
-279.861
339.528
-386.128
-78.9874
-130.447
-198.314
-337.821
230.408
-412.902
412.902
154.966
-334.587
179.621
181.231
-339.734
158.503
231.999
79.3537
53.5642
41.7171
-95.2813
218.542
-371.424
287.709
-465.648
242.335
-40.0974
146.176
157.995
72.7748
198.022
-270.797
124.438
-85.6704
-38.7678
-71.8546
-293.48
365.335
106.551
-178.15
71.5983
-60.4931
172.569
-112.076
331.939
4.34895
-79.5855
80.4719
-276.393
321.678
-45.2853
45.8226
146.343
95.6182
17.0585
-112.677
-313.261
-39.9342
36.201
-170.06