/*--------------------------------*- C++ -*----------------------------------*\
  =========                 |
  \\      /  F ield         | OpenFOAM: The Open Source CFD Toolbox
   \\    /   O peration     | Website:  https://openfoam.org
    \\  /    A nd           | Version:  7
     \\/     M anipulation  |
\*---------------------------------------------------------------------------*/
FoamFile
{
    version     2.0;
    format      ascii;
    class       surfaceScalarField;
    location    "12";
    object      phi;
}
// * * * * * * * * * * * * * * * * * * * * * * * * * * * * * * * * * * * * * //

dimensions      [0 3 -1 0 0 0 0];

internalField   nonuniform List<scalar> 
43924
(
-594.909
665.157
-70.2481
1062.66
-1072.23
9.56974
-335.254
382.821
-47.5676
229.472
-259.629
30.1569
-498.674
498.674
223.629
-265.543
41.9138
-364.31
363.515
0.795636
24.0923
-560.896
536.804
663.312
-833.342
170.031
-1009.26
1102.24
-92.9752
552.172
-141.419
-410.753
-530.623
536.879
-6.25577
-687.903
582.699
105.205
-859.818
868.88
-9.06215
263.417
56.3996
-319.816
386.216
-10.5699
-375.646
814.663
-666.844
-147.819
-400.443
397.215
3.22776
161.413
314.77
-476.182
291.096
-357.85
66.7542
-594.109
81.6478
512.461
724.302
-60.9904
50.2524
-385.506
136.605
-489.651
353.046
237.759
-130.136
-107.623
1067.26
-4.59428
659.898
-681.051
21.1533
-276.966
-5.36379
282.33
298.576
-35.1598
-441.067
543.848
-102.781
950.536
-249.386
-701.15
-668.851
756.773
-87.9218
240.416
-225.921
-14.4956
477.576
-67.8773
-409.699
135.135
-412.101
269.297
-431.299
162.002
429.954
-580.665
150.711
291.957
-36.4823
-255.475
823.909
-978.164
154.256
1061.06
-237.149
-1018.06
1035.62
-17.5688
404.598
-94.7653
-309.833
704.006
110.657
193.052
-307.478
114.426
1228.47
-777.701
-450.767
-591.306
150.239
539.608
-538.695
-0.913143
230.514
645.512
-876.025
223.915
537.305
-761.22
-111.057
541.011
-366.163
164.914
201.248
-16.46
-224.496
240.956
-662.791
-6.06026
240.703
-17.0738
424.556
-38.34
-268.755
-57.6271
326.382
525.099
-500.044
-25.0544
-34.2388
-559.87
-462.365
40.1909
422.174
-299.41
-23.8978
323.308
799.515
17.5777
-817.092
-409.165
570.578
-17.3877
-233.343
250.731
-213.643
482.94
-318.266
434.541
-116.275
262.245
242.331
-504.576
497.274
-128
-369.274
428.285
-46.4942
-381.791
-451.105
-30.5187
481.624
-986.6
-31.4554
1059.79
7.46928
295.28
287.747
-583.027
-241.66
546.141
-304.481
168.661
85.2205
-253.882
-432.569
382.218
50.3502
-367.902
373.339
-5.43633
289.659
-159.14
-130.519
-251.402
-62.2617
313.664
-699.304
16.5451
682.759
408.25
-95.1627
-313.087
-256.465
256.465
89.4305
-763.543
674.112
-661.396
66.4872
-947.224
848.221
99.0036
-311.316
-52.9944
-41.5418
209.527
-167.985
522.32
-141.227
-381.094
-644.588
-43.3149
652.528
-69.8295
103.454
79.9699
-183.423
-353.477
86.8741
266.603
-311.486
60.0833
845.405
-621.49
561.268
-589.651
28.3823
229.947
-98.2107
-131.736
-357.641
129.851
227.79
-17.074
248.865
-231.791
-846.682
847.343
-0.661151
-27.1428
-163.374
190.517
265.82
8.31036
-274.131
-711.455
12.1508
-268.057
284.577
-16.5198
778.745
20.7695
425.983
-628.018
202.034
202.486
-218.946
-754.148
814.08
-59.9328
640.966
-718.166
77.2001
74.7059
577.822
943.852
-846.971
-96.8809
-220.896
237.112
-16.2159
200.883
39.5331
351.689
116.97
-468.659
1009.09
-256.884
-752.207
19.2669
563.306
-582.573
-13.2203
-587.132
600.353
538.908
-243.627
101.906
427.813
-529.719
-303.444
408.668
-105.224
76.7563
-814.83
738.074
-697.649
455.989
-22.4457
-187.131
209.577
18.4365
-854.543
836.106
-300.03
314.673
-14.6432
-38.3069
300.552
24.1464
-890.642
866.496
-351.132
332.241
18.8918
-87.4693
-312.973
6.97289
-281.874
274.901
702.978
-786.256
83.2775
726.208
-860.27
134.062
-143.995
337.047
177.165
112.493
194.932
-206.076
11.1442
277.894
-301.545
23.6502
-126.431
552.414
623.42
327.116
151.174
71.9974
-223.172
278.245
-317.949
39.7047
198.129
-227.065
28.9353
-28.7258
294.546
-339.137
-11.995
1.34547
-189.814
188.468
226.763
-64.833
-161.93
181.123
827.969
-198.076
-739.276
937.352
-101.188
-397.486
522.709
16.8989
223.821
-226.095
2.27356
250.611
-201.786
-48.825
11.7552
-223.398
211.643
-394.643
629.701
-235.059
54.0482
505.313
-559.361
984.055
-886.349
-97.7065
790.951
-787.097
-3.85377
-570.67
-240.119
810.789
-146.203
722.146
-575.943
456.621
-443.989
-12.6317
-215.747
-2.09978
217.847
34.1423
-763.504
729.362
-165.837
-200.326
-249.743
235.599
14.1432
241.397
-11.925
29.8216
1020.88
-572.444
-448.441
735.195
-933.271
-400.648
97.2038
17.6203
209.143
16.4341
-778.207
761.773
-90.3969
-856.827
418.3
-452.779
34.4794
-106.603
832.81
55.0745
-736.165
681.091
-210.186
-5.56146
278.245
-2.12807
242.981
-240.853
-433.076
433.076
83.1474
679.03
-762.177
-316.407
48.3498
-579.049
598.316
319.748
-290.11
-29.6385
-777.833
-63.2725
841.106
-141.532
444.273
-302.741
432.822
89.498
428.274
-443.625
15.3509
237.622
-39.4925
-213.169
-323.204
536.372
501.937
-381.693
-120.244
-328.777
16.5986
312.179
784.927
-81.9481
-521.399
-78.4606
599.86
-661.113
661.113
-124.509
500.851
-376.342
94.6663
-345.876
251.21
-919.938
349.268
307.274
-359.468
52.1933
436.951
19.67
811.188
-495.134
-316.054
913.472
-62.6149
-850.858
79.2998
150.647
-847.067
614.054
233.013
-20.1494
258.328
-238.178
-213.998
221
-7.00203
-41.2898
-489.333
874.743
-890.064
15.3213
-59.0113
430.075
-11.7749
787.7
-790.484
2.78443
245.241
-21.4196
14.8812
-235.777
822.135
-963.824
141.689
244.333
-343.03
98.6969
570.769
-570.769
899.946
-93.2478
-806.699
594.324
73.0642
-667.388
53.0132
-325.593
272.58
-201.129
270.273
-69.144
-469.681
328.148
54.2365
733.463
-393.165
529.77
260.188
-180.888
-683.932
-176.338
484.314
-630.518
453.75
-501.379
47.6289
-894.303
1027.96
-133.658
-581.028
555.834
25.194
505.54
-582.566
77.0261
128.583
729.931
-858.514
211.354
530.653
-742.008
723.339
505.129
321.86
739.198
327.422
-232.621
-94.8013
-296.907
296.907
371.387
-402.451
31.0641
-28.4254
1088.21
270.654
-324.611
53.9568
529.741
-475.693
-297.429
-562.389
551.822
-566.041
14.2184
-29.5261
904.269
252.408
-272.557
-206.029
191.036
14.9928
499.106
-587.906
88.8005
-197.762
959.011
-761.249
588.871
-83.3303
771.37
-384.211
-387.159
339.779
-48.683
472.007
548.878
-199.051
157.509
-743.856
59.924
-930.296
35.9932
477.869
47.23
-679.809
891.163
-690.197
-63.951
191.385
-200.821
9.43652
-74.0152
915.171
-841.156
-38.0496
-817.795
855.844
186.238
-184.892
32.3654
168.192
-200.558
-9.86946
-366.034
375.904
319.123
-312.151
-602.504
207.862
-236.822
441.526
-204.705
908.546
-678.032
303.612
23.8105
272.186
15.1677
-287.353
-566.973
162.609
404.364
461.248
-32.9733
517.59
-730.759
-357.982
-9.92008
647.261
-746.154
98.8929
-228.223
155.933
72.2898
-656.319
639
17.3192
211.337
-213.466
76.4215
183.766
-742.531
825.679
-321.286
314.491
6.79527
68.0873
-363.924
295.837
234.323
-208.335
-25.988
526.85
-328.843
-198.007
7.05371
-347.114
340.061
-497.566
484.346
-72.186
280.876
-208.69
-659.942
156.142
503.8
-347.728
-9.91219
653.861
6.0368
446.134
-21.578
-163.101
11.3606
151.74
-21.5204
721.441
-699.921
-850.199
978.782
321.838
-148.516
-173.322
677.34
-775.137
97.7969
423.093
348.277
706.483
59.4868
-765.97
818.096
81.8505
545.753
-523.546
-22.2064
1093.71
-1012.31
-81.4046
5.86945
-297.784
291.914
281.525
-9.33874
96.8445
140.914
211.37
-16.4386
194.178
-202.141
7.96298
146.612
147.474
-294.086
-306.159
285.648
20.5115
-158.856
-296.639
455.495
421.15
-545.659
-321.724
195.416
-196.6
1.18418
196.001
1009.74
-566.929
-442.815
526.016
-109.168
-416.847
130.209
510.757
76.7124
469.04
19.7181
-689.405
711.278
-21.8731
48.0256
-548.606
500.581
-83.4078
-248.56
331.967
-449.449
39.3731
410.076
-140.638
-336.151
476.789
780.011
-1.26548
22.4489
183.652
-368.756
185.104
161.676
-233.862
-920.643
848.956
71.6871
-298.496
306.152
-7.6556
666.91
-82.2978
-584.612
1047.02
-603.808
-443.213
193.626
-195.177
1.551
262.435
-110.946
-151.489
-422.334
418.523
3.81045
663.783
-32.1099
-631.673
-692.679
3.27392
371.882
36.3672
-563.311
443.194
120.117
582.355
-578.444
-3.91083
-855.76
44.3883
811.372
856.369
33.1988
-889.568
-424.855
284.218
-202.766
39.665
-321.761
525.871
-204.111
-171.805
-34.2243
754.996
-793.046
-146.955
179.32
533.469
-173.044
-360.425
-123.664
-309.413
223.568
-225.033
1.46522
619.522
44.2611
683.511
-608.805
19.1304
-301.946
282.816
837.258
-876.299
39.0411
-302.592
12.482
953.675
-957.008
3.33268
48.2395
211.448
-259.687
680.282
-33.0209
567.288
-592.966
25.678
-829.896
848.332
180.365
-202.81
786.293
212.199
746.812
152.65
194.909
-347.559
-300.464
-8.9514
820.375
-65.3762
-754.999
595.91
-129.983
-465.927
238.072
-73.1582
86.4441
410.83
69.083
-270.212
473.895
-503.967
30.072
143.12
-349.555
206.435
137.792
389.058
51.2797
862.193
653.002
-773.321
120.319
-22.9409
976.616
-248.47
-27.3073
275.777
-220.344
207.798
12.5457
-4.05523
172.716
48.7789
453.158
335.321
-345.19
-355.697
37.431
-336.185
36.7744
838.354
-58.3429
68.4919
-238.351
169.859
-953.149
22.8523
-916.432
-36.7164
-486.092
55.3938
430.698
-730.156
898.626
-168.47
-200.105
-61.1664
261.272
-110.866
-77.7885
188.655
-156.217
-44.5281
200.745
-132.164
229.229
-97.0653
853.455
405.67
-222.017
139.745
-12.916
-568.112
-878.947
-41.6956
446.382
149.528
188.964
-510.725
200.731
-1106.98
906.254
31.1071
200.299
-231.406
-14.7153
-199.283
419.134
27.0007
89.1907
701.76
283.175
9.51334
-292.688
-473.511
575.417
728.715
72.9137
-801.629
-777.65
-8.60559
799.972
-854.727
54.7545
290.826
-254.88
-35.9454
81.2925
240.545
850.716
-864.987
14.2716
978.831
-862.151
-116.68
939.024
-943.607
4.58216
-390.994
-172.317
-6.53929
-872.897
548.187
324.709
-187.568
162.605
24.963
-243.305
389.917
141.413
92.16
-233.573
757.76
253.68
-271.068
431.754
94.2617
782.117
-694.988
-87.1287
-52.8063
-103.892
-92.1257
196.017
-310.095
260.623
49.4723
862.394
-838.247
-22.0597
380.341
-358.281
-330.7
-8.43727
569.696
-584.002
14.3055
369.687
-327.421
-42.2657
-828.459
731.193
97.2661
-905.762
831.747
142.185
120.251
-406.978
277.441
129.538
468.955
-454.315
-14.6406
621.517
-622.676
1.15866
518.178
-44.2827
-312.973
-138.528
451.501
18.5077
-266.977
-75.4674
-245.322
320.79
544.285
563.928
-1108.21
-900.869
849.213
51.6565
-3.94303
-405.479
419.57
-14.0911
432.484
-400.058
-32.4267
671.192
-843.467
172.275
710.906
-880.864
169.957
-503.924
-156.018
-434.627
75.3696
359.257
306.598
-6.73894
-299.859
-326.926
170.709
474.195
77.9765
-719.679
-108.78
3.94573
190.232
-304.63
300.368
4.2614
52.1277
-345.484
293.356
490.967
38.9818
-529.948
-229.069
301.143
-72.0741
-896.197
-19.6402
915.838
-198.54
-36.1891
234.729
6.79933
-844.095
837.296
804.71
-118.461
-686.249
336.997
139.938
-215.406
-874.881
-21.3165
808.465
40.4906
-8.51426
538.076
-186.388
-504.888
-14.4687
519.357
-801.994
913.795
-111.802
314.268
-246.18
-393.603
310.195
-30.3158
590.754
63.1072
384.652
-241.532
303.254
507.934
-15.3402
27.5391
342.148
-775.501
83.6215
691.879
457.057
94.765
-131.191
-29.1484
160.339
-851.809
-23.0717
72.9581
331.64
-201.44
227.771
-26.3306
51.5326
-280.601
-253.77
271.034
-17.2638
-19.2599
30.9456
-513.651
482.705
-610.871
-135.283
-24.5325
303.963
-279.431
-330.112
447.082
599.389
447.632
-1102.77
430.486
672.288
329.804
0.379986
-330.184
-237.119
-164.227
401.346
-524.918
549.01
-661.191
-17.9573
679.148
99.1065
91.573
-190.679
-44.2484
799.244
838.673
-862.463
23.7902
807.537
-154.535
40.5822
-601.478
-327.088
-20.0264
556.823
57.8399
-614.663
441.14
20.107
-349.831
394.005
-44.1745
-853.465
-3.81796
857.283
-27.8169
-823.992
294.367
-270.354
-24.0122
625.208
-3.69041
564.883
-404.545
-160.339
-219.932
275.673
-55.7408
-91.9871
-263.71
-421.706
-40.6593
893.819
-182.913
-819.058
88.9017
-629.372
18.5014
-540.733
51.7408
488.992
820.552
-39.6305
-780.922
-258.733
126.569
-1.33547
-356.048
357.383
857.288
-186.096
308.689
-2.09158
636.591
-69.3029
494.171
-3.20459
801.414
-712.223
-1045.13
-57.6413
445.213
23.7428
525.647
35.6213
731.667
-697.525
795.844
-38.4058
-757.438
196.681
-223.824
276.724
-16.1012
-118.301
205.388
-193.633
474.987
15.6918
-490.679
576.721
-99.5591
-477.162
-460.012
422.236
37.7759
128.92
672.495
0.238436
-92.2059
-764.595
856.801
83.921
-669.215
585.294
228.857
-305.568
76.7107
-739.321
647.115
91.7898
712.92
-504.407
1048.69
233.599
-165.107
-269.159
-176.163
252.27
-76.1079
212.914
-261.818
48.9036
-180.84
322.253
-8.53156
-322.169
-51.2233
5.83546
-411.45
405.614
-47.5756
-162.348
-195.502
-31.3579
369.143
-337.785
-870.85
944.469
-73.6184
45.5119
-528.203
482.691
28.0448
-248.389
-755.917
106.287
649.63
357.681
-222.546
819.404
1.14803
-2.93945
213.396
-210.456
430.186
134.697
-115.908
-318.718
815.793
-201.739
-95.1985
-914.064
615.358
-327.611
128.925
43.8009
654.677
-565.247
495.811
-18.2352
343.382
-36.1077
339.317
-421.781
82.4644
200.259
-243.311
43.0519
45.744
252.022
-297.766
336.162
-495.018
-2.84883
761.958
-806.206
537.848
-62.8614
-104.815
736.412
-631.596
-269.94
305.311
-35.371
-67.9484
296.805
208.158
-190.538
-283.018
13.0783
-1057.17
585.935
471.235
-35.9003
-75.9244
179.378
-310.554
295.867
14.687
-676.046
692.48
269.041
-273.988
4.94668
-472.512
175.874
-501.625
-555.545
242.527
-279.01
847.166
-946.597
99.4311
-344.214
17.1256
484.766
-627.25
142.484
-2.2572
810.723
230.055
-255.101
25.0459
-316.856
-556.04
-37.6265
294.41
-25.3688
339.281
-115.852
-223.429
-20.2633
-837.924
858.187
-875.237
485.315
389.922
-56.478
735.507
-456.519
34.8138
-148.089
-122.091
270.18
875.529
-816.788
-58.7418
394.763
-321.805
796.464
3.50763
104.662
88.8859
-193.548
-580.556
1024.4
-443.843
147.5
-196.558
49.0586
-758.957
-144.999
903.956
130.939
208.342
853.516
-31.3815
813.474
-736.718
504.363
-417.919
9.01749
-242.361
41.9806
151.671
-193.651
307.563
230.513
-25.7691
-1098.2
619.198
479.002
7.74087
891.685
-60.5479
-831.138
-430.652
623.312
-192.66
57.1589
756.315
23.8182
-528.706
-590.541
-18.3646
608.906
408.004
148.625
-556.629
-264.7
-522.397
279.26
64.1215
-179.939
-76.5263
-406.697
353.05
53.6474
-790.624
295.49
201.804
-263.155
61.3517
223.498
-248.351
24.8534
430.727
-424.892
724.153
51.5659
-775.719
-203.939
40.5652
818.439
20.8275
-839.267
-350.972
13.2361
337.736
118.64
860.191
-410.89
451.08
411.77
-72.4535
-954.439
99.6811
854.757
789.091
102.595
-33.75
234.009
50.8133
381.671
894.562
133.399
29.4644
-485.984
28.6402
-826.724
798.084
695.616
-762.881
67.265
636.289
465.948
769.014
-56.033
-712.981
197.612
-50.1123
76.5695
339.565
-416.134
-735.237
792.396
259.308
175.232
-277.177
168.019
109.158
-111.156
-426.879
538.035
-32.4815
-217.261
1004.41
-573.926
89.3394
-289.445
203.792
-206.732
-101.89
-157.739
30.5585
820.157
-160.935
497.097
-598.005
751.596
-153.591
680.581
-702.102
-389.877
375.408
-442.466
-180.21
39.6389
348.853
-10.739
-338.114
-46.287
808.245
-505.246
-623.366
1128.61
288.271
-234.031
216.957
10.4
197.758
-251.855
121.718
-885.274
908.931
-23.6567
-267.356
255.562
11.7945
74.7067
707.41
3.36485
765.649
636.189
-16.667
-15.1405
-513.188
470.611
42.5771
933.073
17.1545
-950.227
-310.409
-40.5634
-0.618273
-235.082
793.081
-68.9287
529.022
-623.168
94.1465
-761.868
-84.8139
33.0379
257.788
884.355
10.2072
-491.095
441.101
49.9948
-950.453
-94.6798
49.1884
-383.997
334.808
-193.678
212.736
-19.0574
245.576
-32.6622
-39.8998
1050.3
-313.224
-737.078
579.632
-50.6099
43.9435
-265.754
-59.8392
-691.134
771.003
-79.8689
-82.5929
-3.95652
227.454
504.898
-5.79193
92.792
-870.626
-95.1077
215.248
-120.141
-191.706
217.272
-25.5668
-681.804
570.648
-448.28
479.225
342.117
52.6456
-461.112
425.105
36.0071
576.407
433.338
498.615
-460.058
-38.557
474.094
-308.413
-165.68
-196.091
36.9507
351.226
-21.7785
-329.448
-254.866
78.703
-328.741
290.434
-219.03
-636.731
-691.507
-81.8132
260.673
-58.8688
659.865
197.423
6.94566
228.654
815.84
-85.4637
-730.376
329.167
-142.187
647.122
-504.935
237.137
-298.303
-101.807
509.811
-750.688
8.15674
-122.301
-105.922
500.005
-93.8094
780.519
-686.71
-201.471
218.087
-16.6161
-24.9211
-242.435
829.592
-737.802
223.984
-427.923
-404.843
832.766
860.302
-200.437
-43.708
784.945
-741.238
597.432
-6.6784
17.8084
-608.35
281.74
133.91
-415.65
-404.308
480.877
-21.052
-319.22
340.272
-617.418
66.3402
551.078
-144.99
510.523
-365.533
-478.767
410.401
-483.632
73.2315
105.608
-181.161
75.5529
-185.146
337.796
-174.446
-183.537
726.31
-30.6946
102.32
581.19
-611.074
648.957
-37.8831
269.23
-293.763
-810.162
-52.301
97.2284
-433.379
590.119
460.183
-615.816
173.351
415.73
-843.653
378.239
-681.903
28.6556
653.248
-199.094
243.906
-44.8121
-816.293
886.706
-70.4134
-48.678
-432.285
480.963
1005.36
-405.605
-599.755
-69.4141
-785.312
9.93323
284.433
-950.467
207.418
743.048
-857.719
-92.7474
-174.301
-13.2664
-777.766
731.479
-130.092
-294.245
424.337
-19.0368
-264.977
284.014
160.45
647.087
229.368
155.31
-384.678
-902.871
154.581
748.29
541.214
-580.994
39.7803
604.545
58.6028
-663.148
-43.9143
674.033
-639.857
-34.1762
353.575
-23.7707
-17.5278
219.405
-201.877
608.333
65.7005
14.4749
-792.125
721.541
-777.574
-178.618
220.598
322.617
151.477
138.085
-312.53
204.945
-209.331
4.3867
343.261
-200.248
-143.014
592.072
44.1167
-746.958
800.785
-53.8269
-396.592
-105.825
502.416
-15.9409
-288.689
250.686
52.2175
-302.903
252.502
-101.747
-150.755
418.419
-467.098
-61.7167
-740.277
-411.233
87.45
146.873
501.14
-440.79
-60.3504
-227.827
258.934
-205.774
197.507
8.26733
15.2099
-220.453
205.243
-323.123
379.95
-56.8264
210.152
-5.6564
-204.496
450.436
554.924
-264.359
555.6
-473.952
141.299
-235.868
94.5692
-204.458
-8.00986
212.468
701.291
-96.7459
247.251
-170.829
-357.89
278.939
78.9501
-429.599
-11.999
441.598
-352.158
449.386
314.187
-323.512
9.32439
-18.0234
34.8991
469.464
462.88
35.7349
29.8028
-459.402
181.239
9.79715
-340.166
-4.04734
-371.499
297.251
74.2484
343.02
-63.7593
672.546
221.273
-232.953
248.162
-290.642
307.241
94.819
659.357
-754.176
-736.015
-26.1203
762.135
27.7548
159.141
16.7797
-339.903
-690.719
621.129
69.5902
128.553
-171.685
170.918
0.767465
424.982
-143.242
-238.979
-172.454
411.434
-166.98
-346.208
222.517
-17.5728
-258.948
110.859
90.7981
-185.906
-1009.54
696.318
-348.367
348.367
851.46
242.25
-35.3103
-509.101
-500.441
210.976
325.903
528.203
42.5667
546.35
-52.179
262.15
-239.881
-22.2699
-629.445
662.386
-32.9416
-50.2643
-532.911
-46.1384
-638.845
711.797
-72.9519
84.5169
-493.682
-353.304
539.491
6.85876
527.581
16.3307
-543.912
746.426
-647.555
7.69759
-115.791
-63.3153
179.106
-416.145
87.4041
313.861
-34.3705
-279.491
-156.695
-46.0702
-303.329
290.235
13.0939
-290.965
71.0333
868.492
-195.946
-333.119
51.2443
767.454
-0.983113
-766.471
584.2
-659.092
74.8918
-922.854
830.373
92.4804
-24.0752
-637.116
109.972
298.696
-24.2145
-261.82
286.034
-781.566
18.0232
-204.747
-292.301
268.086
-466.206
511.718
-235.097
258.979
-23.8823
-305.359
299.509
5.85005
-809.251
704.436
995.98
-148.815
-164.949
296.567
-248.327
362.62
-167.711
409.306
-307.123
-102.184
288.619
54.401
811.971
-94.0665
-717.905
184.088
-681.654
-751.365
667.446
83.9198
5.36017
-617.531
623.843
-6.31237
66.4922
180.758
-96.1726
517.323
-271.865
290.502
-18.6368
379.304
-458.478
79.174
-608.687
649.289
-40.6015
585.431
44.6898
-630.121
241.288
-223.394
-17.8939
555.965
-23.384
-532.581
237.05
-125.911
-111.139
-130.002
-49.6658
179.668
953.579
-944.644
-8.93499
-575.499
-388.324
-46.7002
-755.276
801.976
-897.643
834.371
-578.566
356.674
221.892
605.113
-623.477
-16.1233
671.706
-655.582
19.4742
147.86
-167.334
-69.942
-275.542
-855.975
-66.879
15.4576
366.761
334.096
-739.7
197.629
-16.3901
-230.929
230.929
411.061
-146.586
-264.475
-911.226
25.9516
-3.42856
-28.8935
-475.026
503.919
-753.708
-80.7204
487.276
-406.556
-252.412
-408.701
432.959
-10.7229
-59.7676
260.067
156.539
186.723
-539.946
398.527
-171.01
400.378
340.359
-51.7405
762.295
-707.221
-284.773
-8.748
271.152
-946.892
-3.56072
5.60877
927.464
533.282
-448.765
-833.496
572.387
261.109
-1.72608
262.216
-260.49
350.205
-5.40028
-344.805
-462.398
31.7465
-834.642
748.368
86.2742
-132.34
-178.069
195.8
37.1127
-232.913
213.142
127.218
-800.993
17.7933
-591.291
323.29
268.001
39.8721
238.022
363.142
-325.901
-37.2409
-379.741
389.689
-9.94831
847.421
-513.325
-455.076
312.89
-324.781
192.87
131.911
423.384
-720.813
568.444
-27.2305
811.25
-807.885
79.102
157.948
-828.05
810.139
17.9109
-794.372
47.4139
-472.163
-527.845
1042.65
-186.28
931.102
-835.176
-95.9265
-521.12
-463.316
984.436
-48.9197
-257.239
57.5443
227.028
-235.447
8.41906
-22.3472
-56.074
733.414
467.69
-31.7559
-435.934
-371.136
-195.837
15.1926
-94.5563
-248.473
-152.323
415.112
-262.789
-926.245
926.245
93.1491
-804.905
488.851
-511.07
69.2518
441.818
-212.107
-194.872
166.69
-161.169
-378.777
-550.609
389.44
601.511
59.3075
193.195
422.489
-929.094
506.605
-21.2838
304.459
-222.023
-264.069
-217.951
412.081
-89.4642
-182.683
-142.097
-65.4945
-835.375
452.56
-518.18
65.6202
16.7658
-691.121
772.269
-81.1477
415.809
-421.59
5.78048
247.987
-568.574
529.744
38.8292
108.856
114.236
-223.092
197.873
-215.401
378.933
-708.789
329.856
110.543
758.337
172.492
238.568
-68.731
-492.559
463.665
293.368
-308.111
14.7424
416.675
-37.371
354.153
-385.511
-23.4222
-367.695
391.117
-35.714
-265.83
315.034
10.581
-325.615
-417.913
265.59
-389.457
41.7219
631.077
-749.538
-410.299
532.792
-313.855
-91.6237
976.653
-866.111
-492.717
-312.317
805.034
295.226
40.7313
290.181
-330.912
-452.748
137.25
-269.59
-51.9105
451.418
-564.053
112.635
47.4301
613.683
-185.039
69.2478
319.416
-279.544
708.749
-329.816
268.239
-181.365
24.2656
364.99
-389.255
-29.0822
-298.571
-3.3752
-258.78
252.488
6.29161
0.246163
550.654
-526.836
35.6406
-891.591
113.385
798.068
-1.60375
330.451
-117.309
525.487
328.709
-854.196
598.402
239.951
668.974
-762.783
-743.163
103.366
639.796
271.844
60.3241
-332.168
189.322
-182.318
-7.004
23.3128
274.445
572.898
-195.321
31.6515
163.669
-156.984
-606.843
763.828
-341.345
359.263
-17.9178
-249.104
294.971
-45.8669
-148.985
-175.626
-256.134
214.415
41.7192
920.091
-920.091
-87.4467
727.075
-639.628
294.943
-213.651
345.578
-68.1375
-657.629
191.28
28.4538
-219.734
50.2157
-587.114
536.898
30.2619
-232.201
201.939
908.165
-913.898
5.73327
300.834
-674.442
373.608
343.173
-293.985
52.2578
310.884
-350.749
876.236
557.178
-105.76
-73.2247
-244.725
-400.673
325.188
75.4852
218.161
-346.162
334.532
-500.142
165.61
-241.82
42.7262
-873.293
-73.5994
33.1374
-724.258
315.134
-185.283
796.386
-773.233
-23.1538
431.167
47.6302
-478.797
-685.642
610.699
74.943
-240.971
208.624
32.3475
321.607
-28.2384
-426.155
-254.896
875.01
-831.743
-43.2664
-357.804
658.638
134.481
-531.073
-864.559
11.0941
-57.3502
-597.852
655.202
40.5506
-136.426
-140.751
-917.452
411.722
505.73
194.971
2.53593
450.679
-34.87
543.446
267.024
-257.315
-9.70916
-335.251
-6.2068
341.457
-546.939
435.882
-9.10668
-195.994
205.101
233.359
-42.0785
-89.5428
349.585
-260.042
-356.812
6.98159
435.391
-10.2863
63.613
-808.921
745.308
-664.309
664.309
47.0813
190.055
-87.0838
-505.168
592.252
-854.47
938.101
-83.6316
741.115
55.2716
-14.153
-834.514
848.667
324.857
-342.357
17.4999
325.63
15.1552
-340.786
583.982
-636.986
53.0047
45.7624
303.311
-349.074
-213.395
-113.786
327.182
198.646
-9.32445
105.647
-710.155
604.508
-760.002
267.284
352.497
-311.765
793.74
59.7757
-77.4408
-433.629
343.555
-390.049
-680.787
100.729
580.058
309.108
-273.942
-35.1656
-531.797
613.931
-82.134
-82.077
-363.05
445.127
410.119
-382.58
-597.563
-319.889
597.7
-724.678
126.977
-406.491
-427.005
837.854
-39.7653
-645.876
129.857
451.537
-581.394
563.571
-644.837
81.2661
31.2714
-233.057
11.1083
-693.012
-322.797
321.461
9.17786
570.603
-692.738
122.135
-344.516
-430.621
-4.99106
-684.359
698.267
-13.9075
763.078
-164.676
645.735
-103.038
-542.697
208.714
292.427
292.134
-298.511
6.37607
807.723
-935.888
128.165
-647.139
-96.024
-287.959
16.0942
-328.269
88.1433
240.126
-56.7815
640.763
79.5514
-246.471
166.919
358.304
-336.178
-22.1258
-334.671
-256.62
-11.6267
203.011
-24.3183
-176.503
231.011
133.217
-364.227
-272.357
320.226
-47.8688
587.375
-674.459
24.7938
289.067
-262.186
-66.0838
-287.707
-290.859
-711.348
540.678
170.67
-111.017
-154.526
-165.197
66.9866
-578.89
536.491
42.399
576.956
-1098.08
-25.3455
-1015.62
-140.745
365.018
47.0635
-23.0564
-51.4069
-757.736
126.14
849.64
-842.84
617.411
-76.7333
1.86113
589.249
-591.11
-279.958
-167.016
446.974
-36.8207
-204.15
5.04048
201.092
-211.422
10.3302
-995.114
231.61
448.356
-113.824
19.7112
-628.017
608.306
298.247
-365.051
25.2539
339.797
58.8681
573.429
-632.297
-103.933
770.676
-666.743
-669.395
-195.592
-724.002
38.6874
685.315
-36.9982
566.7
-529.702
921.541
-913.263
-8.27755
560.29
-617.64
-611.19
-23.7297
634.919
-396.709
124.352
266.509
-262.029
-4.4793
801.16
-772.52
-96.1733
730.937
-634.764
460.566
10.0447
-434.235
-669.97
604.143
65.8263
398.949
-92.2705
-564.049
-47.5111
-11.5861
-399.864
-19.6497
206.467
-186.817
25.03
327.467
-361.089
364.875
-3.7862
744.835
-791.536
128.276
132.995
215.527
-227.625
12.098
684.144
-775.31
91.1663
-319.59
-673.392
-17.742
794.552
73.9404
291.223
120.547
810.644
-16.0922
-30.7477
-1030.43
175.889
3.94493
18.1954
-566.802
159.535
-140.061
-1081.45
-243.263
234.157
69.474
225.469
-107.804
-467.141
574.944
-2.52514
-477.551
480.076
838.934
-31.2109
570.111
75.6241
-33.6321
-205.577
239.209
738.745
-782.453
-147.03
378.041
-400.909
443.527
-42.6186
-679.242
723.271
-44.0296
278.959
-363.475
17.599
395.484
-150.598
-244.885
174.263
-511.789
466.254
45.5346
5.15746
-462.171
460.025
2.14612
613.854
-596.046
30.5369
-158.57
589.737
-296.19
57.5274
441.146
41.8059
607.059
-648.865
-85.0153
-140.906
188.583
20.0406
30.9145
-393.232
28.1814
-412.624
11.7156
251.974
-254.135
2.16117
711.266
-682.611
-485.743
84.6153
401.128
-42.3217
626.522
-13.0436
-207.409
914.268
-141.787
-772.481
518.882
537.485
-1056.37
-286.691
-20.7876
291.709
4.15752
10.2622
275.385
-689.013
-1.78634
690.799
592.06
-749.044
-209.828
196.229
13.5989
-519.969
-30.6822
-638.533
1.26647
140.033
-137.696
-428.345
-109.335
188.886
15.0548
-631.876
616.821
-39.0854
-497.725
536.81
-251.957
297.72
-69.3438
626.166
-726.711
753.133
-26.4218
217.741
-482.442
237.597
-257.649
20.0519
7.27008
-837.79
28.5387
235.855
-449.25
906.878
-916.425
9.54636
636.389
14.2383
-650.627
-55.1289
-537.837
-807.249
840.448
115.166
-207.292
897.674
-78.27
243.309
-16.2814
-60.3564
-715.974
776.331
-87.1657
-597.194
-15.2252
542.807
-667.433
20.2945
210.537
-231.691
21.1547
-238.758
3.15157
235.607
-559.187
533.528
25.6586
-217.997
87.9949
64.8316
85.5148
-150.346
-880.25
314.753
20.9203
-335.673
54.9897
637.876
-692.866
-342.589
365.03
-22.441
-646.659
-20.774
-668.78
763.599
-896.519
127.443
769.077
-147.204
-169.203
-446.011
64.3183
-457.156
-615.079
258.403
-4.72275
-291.954
292.007
-0.0533045
177.772
-68.9162
-423.43
394.141
29.2888
-954.874
972.028
-279.926
99.9759
179.95
140.259
19.2756
521.592
853.469
-873.732
277.139
-36.5933
361.263
-506.253
-789.176
811.186
-22.0099
-346.37
-181.63
528
134.054
-177.007
42.9531
427.025
-523.197
742.425
-679.724
-62.7004
-260.257
-26.434
325.027
-74.3412
317.354
-292.56
333.101
-652.048
-17.9212
5.4856
633.515
-373.879
151.333
20.6574
-891.508
547.303
-391.161
608.145
368.508
423.936
9.02308
744.626
-804.982
-40.5306
-21.3507
827.283
70.3916
421.17
-499.903
78.7329
229.482
-187.288
-42.194
-186.257
203.071
-16.8137
-13.3787
344.306
-330.927
-617.127
658.933
433.071
248.601
-221.342
-27.2595
368.118
507.412
313.357
-335.135
704.984
106.987
75.7811
-599.31
523.529
639.879
-35.7356
35.9371
-930.313
113.844
816.468
219.29
-255.479
-253.199
-793.316
732.259
61.0575
5.29741
814.086
-819.384
927.359
-927.359
-378.627
17.5375
602.828
37.0514
-109.172
-18.7289
-193.271
212
437.668
27.9079
-465.576
-436.194
22.2569
413.937
186.376
972.167
-453.285
-232.648
41.2917
191.356
-627.038
630.874
-3.83521
422.787
-470.542
47.7557
-430.918
-5.27611
49.3668
-763.792
714.425
-636.978
-60.6711
-549.878
518.545
31.3322
-371.005
279.017
19.6143
-235.403
215.789
-151.023
-128.903
-29.4424
221.826
-33.2434
51.4242
289.346
-279.832
-71.8515
791.61
367.826
-53.0726
-769.086
33.0708
-890.029
814.423
75.6065
119.435
277.78
382.671
156.237
-753.343
858.576
331.644
185.148
-516.792
-166.156
594.457
-644.051
49.5947
477.072
54.6744
-531.747
633.621
-340.067
-293.554
-474.127
-115.523
-780.695
676.761
28.6238
-684.239
655.615
-711.349
108.519
602.83
-765.508
19.0983
26.4787
508.648
-87.4781
-515.187
354.253
548.921
-585.919
-35.4416
-68.3368
234.005
-165.669
41.0368
-679.882
-235.757
-237.75
169.413
-31.1437
263.569
-109.598
-153.971
154.234
-8.9408
-637.553
721.175
-24.9425
191.843
-166.901
869.87
-628.966
11.435
135.348
184.067
1.01108
397.635
-398.646
-223.656
-193.695
417.351
180.94
763.529
379.962
-355.697
-842.145
7.50347
626.413
-609.868
-0.326457
-808.513
808.839
589.558
16.1103
-605.669
842.743
45.44
-888.183
312.424
-12.9151
126.516
-406.474
426.193
9.19877
-255.57
335.399
-79.8297
196.682
381.84
-90.6176
611.499
-55.7671
-555.732
-755.239
780.209
-24.9701
12.9707
644.191
-657.162
-645.281
113.484
-7.37715
-442.537
602.43
34.6055
323.699
-31.1817
191.666
-92.5593
-337.273
2.02232
95.9696
742.964
4.16521
-278.52
274.354
-424.512
-504.582
-57.4525
-757.747
815.2
256.65
-45.2025
192.997
-260.265
67.2679
199.456
-95.4351
-223.984
-516.877
-581.322
-791.909
-18.2532
-170.294
-815.759
776.447
39.3127
-34.5619
469.924
-435.362
59.7823
821.339
-881.122
200.527
-135.695
774.232
26.5533
-218.476
199.747
20.7418
-308.009
287.267
575.731
-573.87
-646.973
139.264
507.709
-553.511
589.085
-35.5741
33.0821
259.052
-665.184
-441.801
608.544
45.8275
-654.372
-721.931
606.762
-679.217
72.4551
-155.709
-39.6119
450.137
-484.376
-846.284
851.581
105.064
-307.688
-588.831
-642.472
593.302
49.1695
184.279
-78.6706
-43.9411
457.377
176.244
-568.645
54.9947
514.21
-527.431
13.2213
73.0815
-717.677
644.595
268.552
-16.578
-315.234
167.078
148.157
-568.007
584.338
-130.857
465.38
-334.523
681.434
-86.9776
1.58597
-318.866
317.28
-446.824
-442.781
889.605
-146.341
243.16
-96.8193
-101.007
-579.78
-565.864
412.576
153.288
401.003
-34.182
-366.821
1.93745