/*--------------------------------*- C++ -*----------------------------------*\
  =========                 |
  \\      /  F ield         | OpenFOAM: The Open Source CFD Toolbox
   \\    /   O peration     | Website:  https://openfoam.org
    \\  /    A nd           | Version:  7
     \\/     M anipulation  |
\*---------------------------------------------------------------------------*/
FoamFile
{
    version     2.0;
    format      ascii;
    class       volVectorField;
    location    "37";
    object      U;
}
// * * * * * * * * * * * * * * * * * * * * * * * * * * * * * * * * * * * * * //

dimensions      [0 1 -1 0 0 0 0];

internalField   nonuniform List<vector> 
115545
(
(1.04365 -0.0580831 2.99411e-22)
(0.999993 1.57394e-07 -4.59499e-25)
(0.981854 -0.0153205 2.61547e-22)
(0.995476 -0.00491704 -4.51669e-23)
(1.00227 -0.00539676 5.14376e-24)
(0.998785 -0.00181057 1.22207e-23)
(1.02966 0.1585 -1.13342e-20)
(1.07545 -0.107856 4.44028e-22)
(0.999595 -0.000608229 -4.65411e-25)
(0.999993 1.19892e-07 9.54979e-26)
(0.999683 -3.41702e-05 4.05158e-24)
(1.0002 -0.000165806 2.85408e-24)
(0.998264 -0.00591272 -1.73328e-23)
(0.885818 -0.00821786 -9.05219e-22)
(0.999593 -0.000623128 4.94511e-24)
(0.901367 -0.0367171 -2.15811e-21)
(0.999829 -0.000472939 1.27668e-24)
(0.999507 -0.000336907 -6.61631e-24)
(0.990482 0.159733 1.46568e-20)
(1.00234 -0.00546269 3.06082e-23)
(1.08244 -0.107539 4.12431e-21)
(0.992589 -0.000223141 -2.06412e-23)
(0.999425 -0.000446911 -6.41093e-24)
(0.993052 -0.00708731 -3.14753e-23)
(0.877711 0.0473183 1.51371e-20)
(1.14508 0.0309497 2.02485e-21)
(1.2762 0.00717566 1.54865e-21)
(1.0229 -0.00536844 9.21575e-22)
(0.999975 -6.78775e-05 -2.09691e-26)
(1.06096 0.268965 -1.19846e-20)
(0.999835 -6.63182e-05 2.62018e-24)
(1.06216 0.0146204 8.85338e-22)
(1.00953 -0.0141548 -2.04969e-23)
(0.981198 -0.00803663 -2.35138e-22)
(0.859481 0.130125 6.89229e-21)
(0.997444 -0.00153248 7.68244e-23)
(1.03989 0.173505 1.92739e-21)
(0.999828 -0.000483696 -4.79601e-25)
(1.26616 -0.0913042 4.9338e-22)
(1.03257 0.0891868 1.73429e-20)
(1.06281 0.0153262 -1.71753e-21)
(0.9995 -0.000348653 -1.35606e-24)
(0.977399 -0.0285541 -5.05879e-22)
(0.997451 -0.00148525 -5.4483e-23)
(0.956236 -0.080697 -1.01368e-22)
(0.886545 -0.00738296 9.42877e-22)
(1.008 -0.0173701 8.29449e-23)
(1.0072 -0.000865921 7.77362e-23)
(1.00021 -0.00868619 -5.98757e-24)
(1.00018 -1.78195e-05 -1.35952e-23)
(1.00001 -5.87731e-07 -9.86387e-26)
(0.995384 -0.000207666 6.26682e-23)
(1.04568 0.0162807 3.01247e-21)
(0.999993 -1.56198e-07 -7.28963e-26)
(0.997651 -0.0103081 7.67897e-23)
(1.04518 0.0166676 -7.90254e-22)
(1.03666 0.00101707 2.14431e-21)
(0.947339 -0.0566862 -2.69082e-22)
(1.24372 0.0224408 -1.44645e-21)
(0.986323 -0.0188093 5.91624e-22)
(0.999905 -0.000268895 -4.50867e-25)
(0.992944 -0.00750317 2.70238e-23)
(0.998966 -5.96296e-05 -1.21049e-23)
(0.975919 -0.013489 7.11181e-23)
(0.999922 -7.17982e-05 -1.9456e-24)
(1.00125 -0.000104074 -3.92868e-24)
(0.998552 -0.00540982 7.11401e-23)
(1.04848 -0.00372054 1.68235e-21)
(1.28534 0.0185484 -4.00328e-21)
(1.0375 0.000520002 8.72473e-22)
(1.10511 0.153595 4.19817e-21)
(1.25723 0.0692904 3.71991e-22)
(1.03257 0.0878024 7.67932e-21)
(0.940199 -0.00531057 -1.79119e-22)
(1.03178 -0.0751214 -3.26362e-22)
(0.961403 -0.0132186 -9.75261e-23)
(1.18155 -0.0237841 4.14364e-22)
(0.999061 -0.00314954 -2.37809e-23)
(0.999261 0.0844546 -4.7527e-21)
(1.13997 -0.00344836 -6.22468e-23)
(1.14071 -0.00156238 2.0996e-22)
(0.999958 -3.70989e-06 7.21087e-26)
(0.981115 -0.178259 1.84232e-21)
(1.0219 -0.00123665 -4.16539e-22)
(0.995415 -0.00131409 3.87807e-23)
(1.00019 -0.000160644 2.85019e-24)
(0.975805 -0.0212932 -3.36063e-22)
(0.99999 -1.95986e-05 -8.71895e-27)
(0.95741 -0.0140737 -6.51283e-25)
(0.999989 -3.63661e-05 -1.13604e-25)
(1.25919 -0.0564862 4.71509e-22)
(0.985191 -0.00795785 1.47054e-22)
(0.999973 -6.80059e-05 -1.88361e-26)
(0.998079 -0.00135341 5.72107e-23)
(0.999389 -0.000422327 -1.10873e-23)
(1.00043 -6.66525e-05 4.79582e-24)
(0.9995 -2.3108e-05 -2.17043e-24)
(0.981949 -0.176872 5.31731e-23)
(1.20149 -0.0852326 4.85886e-22)
(0.957626 -0.0136664 -1.51501e-22)
(0.999902 -0.000274782 4.473e-25)
(1.0281 -0.00914082 -9.53945e-22)
(1.00351 -0.0158944 2.41511e-23)
(1.00334 -0.000223748 -2.82098e-25)
(1.1029 0.151529 2.85238e-21)
(1.02216 -0.113366 1.41244e-21)
(1.01695 0.0892306 -5.21082e-21)
(0.975259 -0.109723 1.1372e-21)
(0.993578 -0.0379325 1.09817e-22)
(0.999977 -7.97129e-05 3.10393e-25)
(1.16049 0.00616486 -2.02052e-22)
(0.999507 -3.03575e-05 8.56545e-25)
(1.18269 -0.0218989 -2.50429e-22)
(0.995065 -0.0267826 -4.68627e-22)
(0.687518 0.111825 -3.23252e-21)
(0.999795 -0.0156626 -2.30708e-22)
(0.999679 -2.89538e-05 -7.56038e-24)
(1.12539 0.147416 -4.94163e-21)
(1.00002 -1.83895e-05 3.03953e-25)
(1.25696 0.0667939 -1.38324e-22)
(1.12576 0.150685 6.96503e-21)
(0.900331 -0.037522 9.04865e-22)
(0.982475 -0.0161287 2.27203e-22)
(1.21448 0.00936906 -7.82543e-22)
(0.999993 -6.7602e-07 -8.37582e-26)
(1.0603 0.265831 1.37781e-20)
(0.992989 -0.00770347 -2.92797e-23)
(0.849052 0.281717 -8.73999e-21)
(0.99762 -0.000137362 1.19986e-24)
(1.03381 -0.000749186 -1.2887e-21)
(1.06307 -0.0677393 6.8188e-23)
(1.00029 -4.25339e-05 4.17293e-24)
(1.16746 0.151026 -2.41537e-21)
(1.00019 -0.000152154 -8.64249e-24)
(1.00002 -1.52672e-05 1.51287e-25)
(0.993052 0.184429 2.31746e-20)
(0.894682 0.125 -4.08687e-21)
(1.00952 -0.0144195 -2.40979e-23)
(0.997807 -0.0103823 -1.08436e-22)
(0.993022 -0.00740947 2.68628e-22)
(1.26703 0.214751 8.38984e-22)
(1.00019 -0.0149295 -8.56568e-23)
(1.00006 -5.50827e-06 -5.40311e-24)
(1.05592 0.0227416 3.90054e-22)
(1.06354 -0.0659679 -7.38326e-22)
(1.00001 -6.72016e-07 9.81539e-26)
(1.01538 -0.0199214 -2.0581e-25)
(0.99289 -0.00780819 -8.60411e-23)
(1.04805 -0.00332273 -2.60565e-21)
(1.00111 -0.00266641 -2.53695e-23)
(1.02053 -0.112584 -1.06742e-21)
(0.955404 -0.0808109 6.89737e-22)
(0.985281 -0.00775901 9.402e-23)
(0.999994 -6.23612e-07 4.03364e-26)
(0.995449 -0.000196168 3.58791e-23)
(1.01069 -0.0112958 1.79692e-22)
(0.999977 -8.14146e-05 -4.34372e-25)
(1.1365 -0.0284465 -2.88741e-22)
(0.963347 -0.000950276 -9.91333e-24)
(1.03219 -0.155496 -8.37956e-22)
(0.961864 -0.0135635 5.30584e-22)
(1.01519 -0.0196088 1.65762e-22)
(0.998984 -5.54225e-05 -8.94512e-24)
(1.00341 -0.0839175 1.14976e-22)
(0.991819 -0.0229099 -2.08097e-22)
(0.998785 -0.00071501 -3.58971e-23)
(1.03689 -0.0162914 4.59846e-22)
(0.986754 -0.0460162 -5.6367e-23)
(1.13846 -0.028803 5.72971e-22)
(0.990632 -0.0229514 2.54458e-22)
(0.987735 -0.0200808 4.3411e-22)
(1.00803 -0.0170712 -4.56666e-23)
(1.26475 -0.0594303 2.78418e-21)
(0.89113 -0.0298119 -1.51645e-21)
(1.00057 -0.0720133 7.00498e-23)
(1.04113 -0.00374002 -5.43647e-23)
(0.891253 -0.0280558 3.35718e-22)
(0.99714 -0.00356398 4.88363e-23)
(1.01139 -0.0204027 2.27038e-22)
(1.00017 -0.00854553 -1.26087e-23)
(1.01816 -0.0134668 6.19692e-23)
(1.03256 -0.0744182 -4.38064e-22)
(0.978671 0.168306 -6.52229e-21)
(1.05016 0.0220718 1.74843e-21)
(1.01545 0.0871962 1.23297e-20)
(0.999513 -0.00111845 -6.85668e-25)
(0.994865 -0.00414668 5.2601e-23)
(1.00003 0.000577715 -2.14542e-21)
(1.03864 -0.0292009 6.83758e-22)
(1.25827 -0.0577319 -2.37116e-21)
(0.997233 -0.00356354 1.53527e-23)
(1.0003 -0.0141766 5.88783e-23)
(0.991838 0.0682099 -1.00726e-20)
(0.969567 -0.0282004 9.98425e-22)
(1.14313 0.0311609 -2.74377e-21)
(1.00631 -0.139896 -9.20472e-22)
(0.890293 -0.0273509 -1.0327e-22)
(0.986322 -0.000356195 -2.47253e-22)
(0.965043 -0.023082 -7.29193e-22)
(1.01011 -0.0513971 -3.13034e-22)
(1.03726 0.0223146 2.4129e-21)
(1.00782 0.115518 7.74503e-21)
(1.02079 -0.0131343 1.75205e-22)
(0.999986 -3.13906e-05 -3.93035e-26)
(0.99504 -0.00355311 4.60313e-24)
(0.955614 -0.0261278 -3.81657e-22)
(0.999102 -0.00123658 -1.79453e-23)
(0.999925 -7.20134e-05 1.5012e-24)
(1.03778 -0.00852551 -3.07279e-22)
(1.02954 -0.0885053 2.54288e-21)
(0.890382 -0.025647 8.36639e-22)
(1.01875 0.0893916 -3.18103e-21)
(0.882899 0.0499485 -1.12251e-20)
(0.99999 -3.67154e-05 -1.85562e-26)
(1.00068 -0.0389751 -6.04707e-22)
(0.969279 -0.0286018 -4.98306e-22)
(1.09953 -0.028334 3.03607e-22)
(1.00852 -0.0166219 1.32918e-22)
(0.886002 -0.00567622 5.54184e-22)
(0.999808 -0.000312473 4.84877e-25)
(0.972752 -0.0566613 -2.80338e-23)
(0.973888 -0.026798 2.84663e-23)
(1.00006 -0.0109491 6.71602e-24)
(0.961816 -0.00122456 3.01398e-22)
(0.999993 -1.67023e-07 1.04417e-25)
(0.936028 0.164624 1.03457e-20)
(1.00732 -0.0252763 5.98707e-23)
(0.963184 -0.0202307 -7.46904e-22)
(1.00661 -0.137945 -5.14165e-22)
(0.950043 0.0737844 5.87434e-21)
(1.02556 -0.00642248 -9.57978e-23)
(0.959466 -0.0620227 1.09859e-22)
(1.25329 0.217774 -1.11763e-21)
(0.97938 -0.0445603 -4.94581e-22)
(1.06712 -0.0698965 4.18828e-22)
(1.03681 0.0226041 3.64437e-21)
(1.0005 -4.93336e-05 5.14479e-24)
(1.0012 -0.0128473 -4.02812e-23)
(0.982401 -0.0483485 1.85393e-22)
(0.995283 -0.00030596 -8.10838e-23)
(1.2419 -0.053992 4.69984e-21)
(1.02777 -0.0535819 3.72564e-24)
(1.03364 -0.156982 1.11554e-21)
(1.20277 -0.0872508 -2.5685e-21)
(0.99754 -0.000118776 -5.50576e-23)
(1.00111 -0.00308957 -1.26749e-24)
(1.0566 0.00469103 2.2058e-21)
(0.958874 -0.00323179 -6.07513e-22)
(0.98736 -0.0460865 -1.70292e-23)
(0.915005 -0.0619388 -4.76814e-22)
(0.998855 0.0204046 -5.54722e-21)
(0.998267 -0.00186671 -4.33078e-24)
(1.03136 0.00236323 -1.09739e-20)
(1.00007 -0.003639 -1.52496e-24)
(0.841413 0.264021 -1.60225e-20)
(1.0185 -0.013285 -3.59367e-22)
(1.20142 -0.0220176 1.90758e-21)
(1.02289 -0.00125938 3.91572e-22)
(1.00033 -7.33667e-06 2.77144e-23)
(1.07659 -0.109831 7.68494e-23)
(1.01864 -0.0128605 -8.6518e-22)
(0.886758 -0.00482088 -3.39655e-22)
(1.05083 0.0230306 -2.47047e-21)
(1.26445 -0.104054 -1.20928e-21)
(0.993245 -0.0383142 8.59327e-23)
(0.995582 -0.00495535 1.57072e-22)
(1.21198 0.00928746 -8.92146e-22)
(0.997648 -0.000316818 5.94459e-23)
(1.17792 -0.00803576 2.05881e-22)
(1.18416 -0.0356849 -1.87111e-22)
(0.999932 -3.7751e-05 -4.22266e-26)
(1.03882 -0.0285314 -1.67681e-22)
(1.0003 -0.00837145 -2.03458e-23)
(1.02838 -0.0541074 2.61865e-22)
(0.998447 -0.00452441 -6.32199e-23)
(0.974558 -0.0215392 -1.65088e-22)
(0.957036 -0.0756301 6.58496e-22)
(1.00157 -0.0717767 5.11785e-23)
(0.997598 -0.0137723 1.3674e-22)
(0.976572 -0.109503 -9.63586e-22)
(1.0042 -0.0844353 -2.71363e-22)
(0.997578 -0.000104326 -4.1066e-23)
(1.00005 -0.00206313 1.2747e-24)
(0.956033 -0.0256368 2.05642e-22)
(1.00003 -0.000975421 3.35805e-24)
(1.01456 -0.0100369 5.33571e-22)
(0.939156 0.162101 5.92676e-21)
(1.0335 0.000990104 -5.3962e-21)
(0.986712 -0.183328 -1.06922e-21)
(1.26357 -0.0899592 5.03405e-22)
(0.956167 -0.0753112 1.44274e-22)
(0.99999 -2.6876e-05 -6.72611e-28)
(1.24232 0.011248 -1.09881e-21)
(1.01862 0.0879775 -3.06802e-21)
(0.999868 -0.00060641 2.63245e-25)
(1.02253 -0.0126754 -5.07459e-22)
(0.998217 -0.00210374 -3.7283e-23)
(1.06568 0.0133563 1.32309e-21)
(1.00024 -0.00564584 6.6191e-24)
(1.18714 -0.03535 -5.29636e-22)
(0.888844 -0.0208801 -4.50432e-22)
(0.992323 -0.0661472 2.22226e-22)
(1.27327 -0.0325705 -1.1885e-21)
(0.992202 -0.0103388 -1.60204e-22)
(0.973201 -0.0706702 -1.14619e-22)
(1.12222 -0.00283914 2.79775e-22)
(1.03569 -0.0649633 6.04303e-23)
(0.963388 -0.0199093 4.96088e-22)
(1.23756 -0.17148 -4.64963e-21)
(1.01153 -0.0201519 -4.68718e-24)
(0.996424 -0.00239393 -4.55657e-23)
(1.16182 0.190895 4.99315e-21)
(1.20938 0.207003 2.57489e-21)
(0.983015 -0.0483929 -5.21708e-22)
(0.998132 -0.0059574 8.81335e-23)
(1.00354 -0.0153264 -2.60143e-24)
(0.990284 0.0756595 -1.59202e-20)
(1.00106 -0.0031294 1.66504e-23)
(0.99323 -0.00711924 1.37359e-22)
(1.24046 0.00194497 2.89429e-22)
(1.10244 -0.0483796 -1.02581e-22)
(0.999814 -0.000320481 -3.82681e-24)
(1.02047 -0.0133591 -1.36706e-22)
(0.693326 0.106321 5.70327e-21)
(1.12833 0.00774113 -1.5039e-21)
(0.962917 -0.00790216 -7.61082e-22)
(1.01094 -0.0112113 -2.60461e-22)
(1.06044 0.00988893 1.63397e-21)
(0.887864 -0.0200637 8.68982e-22)
(1.24328 0.0130844 1.67315e-21)
(0.996443 -0.00248802 3.23543e-23)
(0.999989 -2.79976e-05 -2.1016e-27)
(0.999543 -0.00118537 9.59869e-24)
(0.998244 -0.00207259 5.8682e-23)
(0.746429 0.0321 3.72793e-21)
(0.995886 -0.00581232 -1.13302e-22)
(1.14282 -0.0206399 -9.78392e-23)
(0.999937 -3.58554e-05 1.21033e-25)
(0.998762 -0.00177809 -1.60455e-24)
(0.994831 -0.00406079 -6.57359e-23)
(0.984052 -0.0166797 -2.17374e-22)
(1.08994 0.00130605 -3.65562e-21)
(1.27697 0.00585848 -6.32238e-22)
(0.976515 -0.0126194 6.8476e-22)
(0.989202 -0.0128512 8.79797e-23)
(1.00222 -0.00404417 -1.00042e-23)
(0.997486 -0.0139399 -8.46935e-23)
(0.821807 0.27622 -2.90621e-22)
(0.959368 -0.0366483 1.30321e-21)
(0.998254 -0.0133582 3.72051e-23)
(1.16423 0.150414 1.20945e-21)
(1.02618 0.0348721 -3.41615e-21)
(1.01843 -0.0125491 7.82085e-22)
(0.996553 -0.00388942 9.07657e-23)
(1.00943 -0.0517063 -4.28647e-23)
(1.0081 -0.0291271 -1.46365e-23)
(1.04278 -0.0570549 -4.87843e-22)
(1 -1.6616e-06 3.19382e-27)
(0.999171 -0.00198643 3.63099e-23)
(1.04744 -0.0423639 -5.62399e-23)
(1.11888 0.0683906 3.58737e-21)
(0.973531 -0.0807759 2.45359e-22)
(1.03665 0.172258 3.5961e-21)
(0.736199 0.064055 -4.21097e-21)
(1.16558 -0.0328317 1.02333e-21)
(1 -1.59537e-06 2.49187e-26)
(0.981831 -0.000468618 -4.04774e-22)
(0.980358 -0.0300598 2.85102e-22)
(1.00023 -0.0108751 4.13577e-23)
(1 -2.91095e-06 -4.6238e-26)
(1.13086 -0.124045 -1.41537e-21)
(1.29606 0.115641 8.61769e-22)
(0.95942 -0.00318165 -6.05778e-22)
(0.999265 -3.79899e-05 -1.212e-23)
(1.17956 0.00108409 3.09065e-22)
(1.00533 -0.00730268 1.802e-23)
(1.00336 -0.0155755 1.11224e-23)
(1.00018 -1.30811e-05 1.20769e-23)
(0.998347 -0.00201819 -3.20315e-23)
(1.05124 -0.0422029 -2.79162e-23)
(0.95883 -0.0615772 8.17044e-22)
(0.995622 -0.0384797 -1.90131e-22)
(0.994097 -0.0260237 -6.7627e-22)
(1.04795 -0.0431215 -4.27311e-23)
(1.01456 -0.00978835 -2.75744e-22)
(0.99987 -8.47587e-06 -3.68669e-24)
(1.25135 0.213684 2.30745e-21)
(0.909906 -0.05725 1.04482e-22)
(1.00231 -0.00521213 -3.38065e-23)
(1.05873 -0.0959129 -4.39493e-22)
(1.05907 0.0127703 -6.10433e-21)
(1.03172 0.0704076 -8.89218e-21)
(0.97538 -0.0212362 2.50053e-22)
(1.02305 -0.00573059 4.94331e-22)
(0.974255 -0.0267346 3.75171e-23)
(0.997652 -0.00267469 -8.44851e-23)
(1.23528 -0.172612 2.8721e-21)
(1.00074 -0.00146747 2.77152e-23)
(1.00027 -0.00824112 3.88315e-23)
(0.975657 -0.0154875 7.46636e-22)
(0.962221 -0.0284147 3.37326e-22)
(0.997597 -0.00288178 9.58517e-23)
(1.11648 0.287372 -2.82684e-21)
(1.03533 0.0849815 6.80901e-22)
(1.25267 -0.133273 1.31833e-21)
(1.12421 -0.065015 1.15356e-21)
(1.00002 -1.64258e-05 -2.94457e-25)
(0.99392 -0.0148295 5.96931e-23)
(1.09582 -0.032405 8.94697e-23)
(0.991032 -0.000351034 5.596e-23)
(0.996467 -0.0301392 -3.48328e-22)
(0.996356 -0.00236952 1.13796e-23)
(1.00234 -0.00403226 -2.9591e-23)
(0.995765 -0.00507807 -1.07612e-22)
(0.995363 -0.0012656 -3.00124e-23)
(0.99756 -0.0135316 -4.49159e-23)
(1.00039 -0.00806806 -1.82963e-23)
(1.12502 -0.188279 4.99337e-22)
(1.00004 -2.79021e-05 2.83507e-24)
(1.01412 -0.0092444 -4.82513e-23)
(0.999993 -3.75816e-07 -1.4279e-26)
(0.889453 -0.0249236 -1.14567e-21)
(1.00028 -0.000263433 7.18027e-24)
(1.04163 0.212463 8.25995e-21)
(1.20542 0.205379 -1.36677e-21)
(1.05103 0.0523117 -2.98287e-21)
(1.12241 -0.0641102 -8.00349e-22)
(1.04395 0.0599923 -3.01786e-22)
(1.03684 0.000946394 3.01467e-21)
(0.997853 -0.00467847 1.25714e-23)
(1.00215 -0.00210262 -3.95872e-23)
(0.999733 -0.000844738 1.19441e-25)
(0.994094 -0.00303178 7.25329e-23)
(0.964055 -0.0200586 2.94076e-22)
(0.992309 -0.010158 -6.56886e-23)
(0.993673 -0.0149038 1.59639e-22)
(1.0453 -0.0557014 2.02183e-22)
(1.00028 -0.000255516 -8.81526e-24)
(0.999802 -0.000115892 -1.03052e-24)
(1.00017 -0.000148202 -6.43903e-24)
(0.999011 -0.00309658 2.54147e-23)
(1.0341 -0.000887055 1.21985e-21)
(1.04094 -0.0553257 -3.35513e-22)
(0.975327 -0.015325 -7.98447e-22)
(1.00002 -0.000950325 -6.82282e-24)
(1.14107 -0.114984 3.07108e-21)
(1.00107 -0.00298648 5.29161e-23)
(0.999825 -0.000114177 -4.01452e-24)
(1.03217 0.0689554 1.26723e-20)
(1.04134 -0.00404816 2.25457e-22)
(1.00198 0.0371095 2.24006e-20)
(1.00004 -3.90362e-05 -2.68346e-24)
(1.00007 -0.000718302 0)
(1.00226 -0.00228485 5.84466e-23)
(0.987692 -0.0469533 2.55851e-22)
(0.993711 -0.00855958 -7.34329e-23)
(1.07226 -0.137563 -9.09164e-22)
(0.959235 -0.00140968 4.01045e-22)
(1.09751 0.0453283 4.64001e-21)
(0.989369 -0.000268925 5.13975e-22)
(1.12062 0.285215 -1.47069e-21)
(1.00111 -0.00294252 -3.85277e-23)
(1.00226 -0.00514072 3.91727e-23)
(1.00282 0.0612555 -6.06667e-21)
(1.16265 0.187495 -2.10033e-21)
(1.08359 -0.10929 -2.47374e-21)
(1.0033 -0.00286353 1.07424e-23)
(0.892101 -0.030491 1.65915e-21)
(0.989265 -0.000338629 -2.95648e-22)
(1.00005 -4.15616e-05 1.14954e-24)
(1.01412 -0.0095199 5.61542e-23)
(0.911545 -0.0588494 -2.63895e-22)
(0.981968 -0.0476734 -4.26196e-23)
(0.939613 -0.00532626 3.12857e-22)
(1.04586 -0.0568497 1.19097e-22)
(1.12664 0.00698198 2.43416e-21)
(0.999994 -2.80382e-07 -3.95572e-27)
(1.00339 -0.00280895 -2.06942e-23)
(1.02794 -0.00952735 6.81855e-22)
(1.055 -0.0243235 -6.92974e-22)
(1.03081 0.237703 -4.23832e-21)
(0.999999 -1.1243e-06 1.29931e-27)
(0.999937 -3.71968e-05 4.26479e-26)
(1.00224 -0.000198951 -1.04215e-22)
(0.982042 -0.047019 -5.18153e-22)
(0.999201 -0.00122094 1.4711e-23)
(0.999864 -0.000658768 -1.82703e-25)
(1.14392 -0.0290461 3.11602e-22)
(0.829811 0.0319385 -1.5162e-20)
(1.18823 -0.0329263 2.11295e-22)
(1.00403 0.0479192 -5.58981e-21)
(0.974002 -0.00488522 1.74638e-22)
(0.998197 0.0192223 3.58619e-21)
(1.0334 0.014918 3.75433e-21)
(0.995836 -0.00513567 4.20746e-23)
(1.12822 -0.125538 1.95829e-21)
(0.909357 -0.0350336 1.40947e-21)
(0.995438 -0.0264802 3.355e-22)
(1.00113 -0.0126722 2.27089e-23)
(0.995983 -0.00943104 9.52669e-23)
(0.998159 -0.0013321 1.75412e-23)
(0.999742 0.0580283 -2.76065e-20)
(0.980088 -0.0442025 -7.33597e-22)
(1.06532 0.202134 3.97567e-21)
(1.03668 -0.0654753 4.09508e-22)
(1.05125 0.051065 1.66272e-21)
(0.975156 -0.0128293 3.00666e-22)
(0.984375 -0.0167655 -5.69281e-22)
(1.24419 -0.0540166 3.51773e-22)
(1.03395 0.0227091 3.96406e-21)
(0.996646 -0.00390748 -1.01992e-22)
(1.00006 -0.00353209 -4.86701e-24)
(1.00001 -0.00366993 8.22962e-24)
(0.999991 -5.12477e-07 -7.58901e-25)
(1.03859 -0.0561687 6.45596e-22)
(0.962443 -0.0909642 -9.063e-22)
(1.00028 -0.000619495 -1.10806e-23)
(1.0886 -0.0351282 -5.52418e-24)
(0.999611 -0.00098672 1.67212e-24)
(0.999608 -0.00100739 -9.5887e-24)
(1.00261 -0.000334998 -8.08471e-24)
(1.03785 -0.0645298 -2.43412e-22)
(1.00085 -7.26813e-05 -1.9564e-23)
(1.00174 -0.0102073 -5.83738e-25)
(0.97017 -0.00568236 3.77229e-22)
(0.995015 -0.00738317 5.87968e-23)
(0.994106 -0.00313026 -2.54686e-22)
(0.990347 0.116051 -3.76788e-20)
(1.15415 -0.071789 -3.94627e-21)
(1.01283 -0.0180902 1.98035e-22)
(0.987657 -0.0204697 3.25458e-22)
(0.964644 -0.0556592 -1.06002e-22)
(1.00035 -0.00794802 8.95864e-24)
(1.00002 -3.71113e-05 -9.19566e-25)
(0.999999 -2.28302e-06 -1.7648e-26)
(0.946567 -0.011004 5.98314e-23)
(0.909803 -0.0342244 -1.43726e-21)
(0.96342 -0.0386459 -2.40374e-23)
(1.00002 -3.59011e-05 -2.55767e-24)
(0.981176 -0.00829817 4.44128e-22)
(1.08878 0.00189756 3.43107e-21)
(1.28495 0.0168542 4.85775e-21)
(1.16504 -0.0350733 7.09761e-22)
(0.999959 -4.33865e-06 -6.78391e-25)
(0.964277 -0.0197448 9.85542e-22)
(1.00923 -0.0490259 5.23682e-22)
(1.00012 -1.31087e-05 -6.82819e-25)
(0.999902 -0.000324147 -1.59399e-25)
(0.95947 -0.00105264 -7.34303e-23)
(1.00218 -0.000196252 -3.42344e-23)
(1.00082 -0.00663615 -4.27805e-24)
(1.04406 -0.129539 -3.77502e-22)
(1.00052 -5.05412e-05 -1.53726e-23)
(0.937959 -0.0757144 1.23e-21)
(0.969996 -0.00593113 -3.81899e-22)
(0.9741 -0.00509224 3.10093e-22)
(0.976854 -0.0127883 1.11786e-22)
(1.00198 -0.0102476 -3.08627e-24)
(0.950937 -0.0408961 1.20417e-21)
(1.00033 -0.000580809 1.38793e-23)
(1.00002 -1.35949e-05 -1.23951e-25)
(1.00633 -0.00635523 6.74483e-23)
(1.1316 0.204515 -2.5094e-21)
(0.953792 0.0690596 2.90083e-20)
(1.01379 0.0587226 4.56189e-21)
(1.04054 -0.0561034 1.19336e-22)
(0.986681 -0.0174235 -1.14386e-22)
(1.01186 0.0663457 2.46551e-20)
(1.01741 -0.0113164 -1.11179e-21)
(1.00028 -0.00051957 -9.50203e-24)
(1.03059 -0.00155561 -9.2921e-22)
(0.982248 -0.0164029 1.24897e-22)
(1.17982 -0.009197 6.84585e-22)
(0.996027 -0.00928804 1.17449e-22)
(1.03666 -0.000772533 -3.1013e-21)
(1.00125 -0.000134819 3.50736e-23)
(1.01436 0.0580083 3.08066e-21)
(1.00067 -6.24652e-05 -2.37029e-23)
(0.993618 -0.009218 3.96609e-23)
(0.975481 -0.0129322 -8.19166e-23)
(1.02121 0.0868115 3.19567e-21)
(1.00032 -1.29136e-05 -2.46289e-23)
(0.983314 -0.049357 6.88119e-22)
(1.07147 -0.13567 1.73717e-21)
(1.09978 0.045374 -3.65277e-21)
(0.99712 -0.0581786 -5.44069e-22)
(0.993505 -0.00847994 1.02942e-22)
(1.19896 -0.074352 1.09799e-21)
(1.00007 -2.21758e-06 -2.12552e-24)
(1.25248 -0.130929 -5.45513e-22)
(0.994778 -0.00753832 6.3244e-23)
(1.02289 -0.0127704 -8.05173e-22)
(0.988249 -0.0469989 2.45003e-22)
(1.00341 -0.000276183 -1.25493e-22)
(1.29372 0.113324 1.40718e-21)
(1.0352 0.0865532 -7.0199e-21)
(0.940467 0.130351 1.33071e-20)
(1.04277 0.0594823 9.07003e-22)
(1.12431 0.108277 2.70753e-21)
(1.18293 -0.0385011 1.45607e-21)
(1.27077 0.214152 -2.85358e-23)
(1.01768 -0.0111979 1.23504e-21)
(1.0778 0.118891 3.62391e-21)
(1.0022 0.032828 -1.73637e-20)
(1.00071 -0.00670124 -1.08905e-24)
(0.998323 -0.00429967 -3.2546e-23)
(0.963646 0.0595571 -3.13262e-20)
(1.00003 -2.47864e-05 -5.23867e-25)
(1.2645 -0.101593 1.46812e-21)
(1.28781 0.0261899 1.58386e-21)
(0.977254 -0.0214621 5.24554e-22)
(1.0013 -0.00273235 -3.82054e-24)
(1.05427 -0.0237811 -2.4249e-22)
(0.998231 -0.0020054 -3.05496e-23)
(1.0022 -0.00213168 -8.80285e-25)
(0.993057 0.157223 -6.50223e-21)
(0.865405 0.132412 1.20371e-20)
(0.999831 -1.13712e-05 -2.2602e-25)
(1.00034 -0.000581012 -1.38354e-23)
(1.10389 -0.0432386 8.90373e-23)
(1.00017 -0.00335996 5.60656e-25)
(1.27341 -0.0321356 2.7361e-21)
(1.15839 0.184643 -3.54768e-21)
(1.07408 0.0443649 8.25513e-22)
(0.999907 -0.000326245 1.05806e-25)
(0.994436 -0.0818723 2.1731e-22)
(0.995365 -0.06826 1.21702e-21)
(1.00072 -6.23837e-05 1.52909e-23)
(1.0226 -0.0418211 -1.15386e-22)
(1.05663 0.00387412 1.17862e-21)
(0.877041 0.12809 -7.73428e-21)
(1.00012 -0.00349224 1.77095e-24)
(0.999999 -1.35124e-06 -8.13879e-27)
(1.0776 0.116941 2.67607e-21)
(1.02208 -0.0414006 -2.14201e-22)
(0.999827 -1.33367e-05 -5.38488e-24)
(1.04356 -0.0177923 -1.91278e-22)
(1.00883 -0.0154455 -3.5151e-23)
(0.995868 -0.00556438 -1.03565e-23)
(0.997043 -0.000104525 2.43146e-23)
(1.26769 -0.0819043 1.04954e-21)
(0.978899 -0.00770047 1.80973e-22)
(0.998256 -0.00197142 1.76448e-24)
(0.962723 -0.028439 6.01317e-24)
(1.00036 -0.000560559 1.9875e-23)
(0.999839 -0.000119109 2.69046e-24)
(0.999989 -0.0155 1.31713e-22)
(1.19712 -0.0108053 2.27945e-22)
(0.999708 -9.19642e-05 2.45184e-24)
(0.970212 -0.00634507 -4.57283e-22)
(1.00096 -0.0013017 3.89995e-24)
(0.997537 -0.0573592 -2.38238e-22)
(1.02114 0.088087 -4.14484e-21)
(0.999854 -0.000613353 -3.90037e-26)
(0.703779 0.0508585 -9.53661e-21)
(1.09989 -0.080414 9.87282e-22)
(0.996574 0.0264562 3.98167e-21)
(1.19409 -0.0116014 -3.86812e-22)
(0.999296 -0.00039196 5.25821e-24)
(0.999964 -0.000102539 6.57801e-27)
(0.999436 -0.000434119 -1.01334e-23)
(0.993805 -0.00848957 7.73852e-24)
(1.02828 0.00343407 0)
(0.999408 -0.0128534 8.00965e-23)
(0.981652 -0.000591168 9.60148e-23)
(0.994681 0.181815 -2.20971e-20)
(0.912276 -0.0384379 -1.34944e-21)
(0.911428 -0.0380991 1.16591e-21)
(1.05154 -0.0409269 6.53818e-23)
(1.08776 -0.0396347 9.27736e-23)
(0.988146 0.135822 2.31629e-20)
(0.99933 -0.000462221 5.05224e-24)
(0.983888 -0.0494353 1.39584e-22)
(0.976793 -0.0214233 -5.01371e-22)
(1.00026 -0.000259365 1.01194e-23)
(1.02953 -0.0538524 -1.5393e-22)
(1.00097 -0.00125214 -1.89737e-24)
(1.0394 -0.0565733 3.07728e-22)
(0.974294 -0.102093 1.90181e-22)
(0.800168 0.167493 -1.54915e-20)
(0.934899 -0.0751464 -1.14752e-21)
(0.997275 -0.00318643 1.43417e-23)
(0.974708 -0.0206338 -8.84209e-22)
(1.00825 -0.0286309 1.07649e-23)
(1.13481 -0.0105977 -5.68665e-22)
(1.03743 0.000647448 -5.05481e-22)
(1.0154 -0.0536149 6.97647e-23)
(1.00001 -5.03844e-07 -3.21664e-25)
(1.00411 0.0482927 7.01466e-21)
(0.982955 -0.00917946 -4.90698e-23)
(0.888138 -0.0182332 8.0781e-22)
(0.998807 -0.0121256 5.0516e-23)
(1.04404 -0.042603 -1.41491e-22)
(0.976871 -0.065381 1.13046e-21)
(1.0064 -0.00622899 2.96955e-23)
(1.26966 -0.0140078 4.29572e-21)
(0.998839 -4.7258e-05 3.57283e-23)
(1.02964 0.155649 1.1459e-20)
(0.999828 -0.0227297 -1.42508e-22)
(1.05952 0.00607199 -5.75527e-22)
(0.94161 -0.0109051 7.45012e-22)
(1.02615 -0.00423592 1.39918e-22)
(0.999989 -1.96756e-05 -6.06551e-26)
(0.973235 -0.0562183 -6.87943e-23)
(0.97005 -0.0065837 4.31338e-22)
(0.981356 -0.0457998 6.81241e-22)
(1.04351 -0.0184739 -1.34922e-22)
(1.04259 -0.131251 -3.91072e-22)
(1.00037 -0.000560214 -2.24987e-23)
(1.07803 -0.228228 -8.07957e-22)
(0.99812 -0.001365 -7.13865e-23)
(0.99998 -9.03552e-05 2.72741e-25)
(0.999436 -0.0126353 -8.86077e-23)
(1.00031 -0.000600696 5.71082e-24)
(0.871818 0.126552 1.0449e-20)
(1.00027 -0.000254405 -8.96669e-24)
(1.04208 0.21032 -2.50763e-21)
(0.974218 -0.0218497 -1.39413e-22)
(1.02524 -0.00343954 -2.62812e-22)
(1.00373 -0.00287857 -1.10899e-22)
(1.10745 0.0286086 4.16466e-21)
(1.00518 -0.00739301 -1.2136e-22)
(1.025 0.0356027 -2.94828e-21)
(1 -2.93842e-06 -2.27873e-26)
(1.03508 -0.0738876 -5.26799e-22)
(0.998442 -0.00623646 3.28855e-23)
(1.00224 -0.00498059 6.08342e-24)
(0.966491 -0.0230939 -2.10272e-22)
(1.00002 -1.95094e-05 1.24462e-24)
(1.2415 -0.00346991 1.4987e-21)
(0.907284 0.279057 3.37804e-21)
(1.28811 0.0278558 -3.45067e-21)
(1.00029 -0.000506098 1.84855e-23)
(1.17808 -0.105398 -1.23466e-21)
(1.02872 0.00385517 -9.03445e-22)
(0.982062 0.168689 1.60944e-20)
(1.00015 -0.00569244 -3.5955e-24)
(0.999653 -4.33782e-06 -2.04602e-24)
(1.10176 -0.0427091 5.89635e-23)
(1.00021 -0.000188733 -6.25593e-24)
(0.947914 0.0604871 -6.52133e-21)
(1.00964 -0.0485723 2.49306e-23)
(1.2998 0.120076 4.63107e-23)
(1.11677 0.0682629 -4.76098e-21)
(1.0002 -0.000173536 4.97394e-24)
(0.985637 -0.181187 -9.67787e-22)
(1.00989 0.0428859 -6.68886e-21)
(0.999839 -0.000113791 1.14433e-25)
(1.10106 -0.0287269 5.95534e-22)
(0.997478 0.00959837 1.93192e-20)
(0.997006 -0.00013261 1.93871e-23)
(1.00334 -0.0161436 -1.2042e-23)
(1.00048 -6.76141e-05 1.16218e-23)
(1.00844 -0.0169484 -7.28399e-23)
(0.975583 -0.0133459 3.79941e-23)
(0.9918 -0.000138692 3.2616e-23)
(1.07929 0.203871 -5.23025e-21)
(0.995358 -0.0259473 2.25719e-22)
(0.785505 0.238049 2.72456e-20)
(0.647379 0.0231527 2.60861e-20)
(0.996264 -0.000123511 -5.88548e-23)
(1.00006 -0.000553333 -9.65038e-25)
(1.06428 0.199121 -2.25435e-21)
(0.995787 -0.00528213 3.7837e-23)
(0.978456 -0.00526556 9.54985e-23)
(1.00032 -0.000600856 -3.24886e-24)
(1.07756 0.0496512 1.81636e-22)
(0.942114 -0.010896 -1.07342e-21)
(0.824047 0.131358 1.93171e-20)
(0.998523 -0.00553154 -4.67159e-23)
(0.999949 -0.00157882 -2.54069e-24)
(0.983001 -0.0094039 1.69746e-22)
(1.2819 0.00592376 4.47338e-21)
(0.99535 -0.0818628 4.34023e-23)
(1.14828 -0.0247373 1.07887e-22)
(1.06478 -0.0397464 -2.14305e-22)
(1.03563 0.0148499 -3.12173e-21)
(0.999749 -0.000167645 -1.59292e-24)
(1.24885 -0.0359026 -1.61959e-21)
(1.00002 -3.46252e-05 -1.6642e-24)
(1.00203 -0.00175274 7.37756e-23)
(0.999994 -4.88001e-07 7.67322e-27)
(1.24966 -0.130675 -3.17092e-21)
(1.08602 -0.109358 2.08015e-21)
(1.03058 0.0673034 5.58243e-22)
(0.999991 -6.45511e-07 7.72126e-26)
(0.942563 0.126447 -3.55044e-20)
(0.999458 -0.000174594 6.19592e-24)
(1.03003 -0.053271 -1.85426e-22)
(0.999178 -0.000442774 1.8019e-23)
(0.910192 -0.0584462 5.22635e-23)
(0.987947 -0.0207877 -5.18302e-22)
(1.12936 0.0226887 1.45421e-21)
(0.999838 -1.43575e-05 7.16892e-24)
(1.02945 -0.0869019 -8.08516e-22)
(1.02358 -0.0414484 -1.47536e-23)
(0.986675 -0.018791 -4.37175e-22)
(0.999974 -9.81827e-05 -6.71388e-25)
(0.999918 -0.00156663 -2.00522e-24)
(0.999716 -1.52008e-05 9.00837e-25)
(0.967301 -0.0672504 -7.78925e-22)
(1.00217 -0.0041488 2.93061e-23)
(0.998507 -0.000865657 -1.75622e-24)
(0.958839 -0.000339615 6.27496e-22)
(1.00012 -0.000280812 -7.1125e-26)
(1.00038 -0.000544323 1.7678e-23)
(1.00773 -0.0252452 -4.49543e-23)
(0.999307 -0.000395539 3.08972e-24)
(1.01284 0.0677049 -1.08683e-20)
(1.07189 -0.00403335 3.1606e-21)
(1.27672 -0.0139708 3.33712e-22)
(0.967042 -0.00100618 -7.93154e-23)
(1.02591 -0.109505 1.01545e-21)
(0.999994 -5.99708e-07 -4.13588e-26)
(1.20192 -0.0744556 -1.2963e-21)
(0.973078 -0.102011 -8.05468e-22)
(1.00044 -6.68376e-05 1.76059e-23)
(0.963874 -0.039291 -3.05407e-22)
(0.998283 -0.00578246 -3.61649e-23)
(0.954617 -0.0282014 3.37951e-22)
(1.20246 -0.14562 -9.32143e-22)
(1.00065 -6.34442e-05 -1.7754e-23)
(1.03877 -0.0649125 7.55096e-22)
(0.99998 -9.35304e-05 -1.08599e-24)
(0.993435 -0.00797628 -6.4635e-23)
(0.99949 -0.000179768 5.95964e-25)
(1.07082 0.105912 -4.77973e-22)
(0.990003 -0.00244722 -1.7329e-22)
(1.00018 -0.000335827 -1.28357e-25)
(0.99978 -0.00011665 2.54729e-24)
(1.03013 -0.0134153 8.10509e-22)
(0.947036 -0.0574917 1.11352e-22)
(0.995851 -0.00533817 -5.9776e-23)
(0.999989 -0.00163489 -5.72759e-24)
(1.07795 0.206866 -6.20802e-22)
(1.00804 0.113155 4.77772e-21)
(1.0023 -0.00492393 1.51364e-23)
(1.27089 0.0932407 1.20661e-23)
(1.16099 -0.124477 3.09765e-21)
(0.915317 -0.063005 4.36632e-22)
(1.00007 -0.000545487 3.83377e-24)
(0.999993 -2.75112e-07 1.44926e-25)
(1.13184 0.200808 3.16668e-21)
(0.955246 -0.0240349 9.92158e-23)
(1.00013 -0.000279959 -3.05378e-24)
(1.24747 0.0456123 -7.44617e-22)
(0.998786 -0.000688794 2.17591e-23)
(0.999994 -5.34963e-06 2.11834e-25)
(1.10164 -0.0035759 2.20341e-22)
(0.990084 -0.128854 -3.28544e-22)
(0.935841 -0.074849 1.52936e-21)
(0.90586 -0.0574349 1.86751e-22)
(0.98624 -0.0439034 -5.11416e-22)
(0.991363 -0.000295599 5.92592e-23)
(0.978687 -0.00548412 -7.81999e-22)
(1.00129 -0.012356 2.54773e-23)
(1.09998 0.0749995 -2.62429e-21)
(0.999721 -0.000854604 -2.93504e-24)
(0.989533 -0.0668968 2.34065e-22)
(1.11225 -0.00934837 1.75229e-22)
(0.999839 -0.00080853 -4.07322e-25)
(1.15796 -0.123581 -4.08144e-21)
(1.026 -0.0537878 -5.03629e-22)