/*--------------------------------*- C++ -*----------------------------------*\
  =========                 |
  \\      /  F ield         | OpenFOAM: The Open Source CFD Toolbox
   \\    /   O peration     | Website:  https://openfoam.org
    \\  /    A nd           | Version:  7
     \\/     M anipulation  |
\*---------------------------------------------------------------------------*/
FoamFile
{
    version     2.0;
    format      ascii;
    class       volScalarField;
    location    "9";
    object      p;
}
// * * * * * * * * * * * * * * * * * * * * * * * * * * * * * * * * * * * * * //

dimensions      [0 2 -2 0 0 0 0];

internalField   nonuniform List<scalar> 
29540
(
0.0260071
0.292176
-0.0253288
-0.0946313
-0.00706142
-0.10365
-0.0283195
0.0256989
0.00595745
0.000543197
0.0180718
-0.0129459
-0.00141086
-7.35707e-05
0.308487
-0.0170905
-0.000484667
0.124697
-0.00626755
-0.0295722
-0.00252036
0.00559397
-0.0255637
-0.00619104
1.03114
0.290212
-0.00151801
0.883121
0.295009
-0.00465974
0.0457619
0.139964
-0.141023
-0.0178006
0.891667
-0.0173252
0.330687
-0.0756326
0.0165057
0.0159581
0.00127234
-0.0452477
-0.000430224
-0.0437728
9.44142e-05
-0.00409331
-0.0111946
0.00022181
0.00976445
0.322158
-0.0341419
-0.0842314
0.144307
-0.100742
-0.0167121
0.278473
-0.00984526
-0.00259158
-0.012158
-0.0411298
-0.000181434
-0.00607116
0.0488999
-0.0150375
0.515519
0.972185
-0.0203056
-0.0238376
0.929646
0.00132629
0.287578
0.743767
0.00703592
0.981984
-0.0221155
0.0394116
0.296302
-0.0680048
-0.000135041
-0.0373992
-0.0938588
0.388321
0.0258579
1.01763e-05
-0.0231898
-0.168161
0.555351
-0.00146465
-0.00136384
-0.136741
-0.0585245
-0.0684894
0.00901923
0.140668
-0.140334
0.570074
-0.073943
0.00139395
-0.10371
0.365847
-0.000142672
-0.0640096
-0.000176277
0.100895
-0.0862909
0.249023
0.644803
-0.00131065
-1.33912e-05
-0.12684
-0.141072
0.0353488
8.37597e-06
-0.00432641
-0.000465237
0.728048
0.421404
-0.0322339
7.32477e-05
0.00809127
-0.0931628
0.310442
-0.00850031
0.970756
0.00321262
0.0323655
0.134518
-0.0314974
0.0118642
6.97146e-05
-0.0403484
0.275846
0.733163
-0.0419019
0.0999483
0.0444197
0.625799
-0.06529
-0.183529
0.352438
0.0434168
-0.11979
-0.116361
5.9779e-06
-5.66086e-06
-0.0072369
-0.0104287
-0.111158
-0.130265
0.106274
0.0751054
0.0379767
0.00126895
-0.000385264
0.406428
0.00152471
-0.0212834
0.59686
0.483919
-0.0296126
-0.0903649
-0.0921123
0.290474
-0.0001394
-6.32232e-06
-0.032415
-0.113558
0.00015533
6.31083e-06
-0.01938
0.000108966
0.0166254
0.608484
-0.0643927
-0.0958614
-0.0141912
0.0060891
-0.0657401
-0.00346714
0.00557302
-4.41272e-05
-0.00723642
0.551793
-0.0225035
-0.18112
0.409533
-0.0176611
-0.0491648
0.0111009
-0.00416793
-0.000808015
0.00718926
0.984325
0.400223
-0.0378562
-0.0204383
0.832987
0.363103
-0.13834
0.00338044
-0.0584718
-0.122384
-0.012343
0.00246047
0.623462
-0.018737
0.0199784
-0.111893
-0.130161
-9.04966e-05
0.792663
-0.00297843
2.404e-06
-0.00157614
-0.0546753
0.0854777
-0.00414355
0.0194804
-0.00613317
-0.137672
8.75611e-05
0.00135847
-0.00659769
0.205115
-0.0079286
-0.00412876
0.139999
0.000372558
8.81676e-05
0.0153005
-0.0723174
-0.0585555
-0.0133309
0.284812
-0.0403249
0.0399779
-7.71369e-05
-0.00849811
0.00229465
-0.0526095
-0.175268
-0.00395614
0.00136418
-0.00439759
0.00840475
-0.0288997
-0.000132158
-0.161536
0.000130812
0.208166
-0.00952464
0.000424515
0.252662
-0.124755
0.000735454
1.085e-06
-0.120042
-0.168117
-0.0246502
-0.0351028
0.0749471
0.529355
0.000231506
-0.0698641
-0.0381991
0.853765
-0.022708
0.403948
0.0484887
-0.000546316
1.15883
-0.00157139
-0.100983
-0.135912
0.00652153
0.0618928
-0.0231437
0.742558
-0.00982053
-0.0485566
-0.000737867
0.461658
-0.00783109
0.580857
-0.00147636
-0.0162892
0.851482
0.179638
0.139696
-0.0848238
-0.000438832
0.0081457
-0.000513131
5.84914e-06
0.197911
0.000111549
-0.0527298
-0.0421386
1.0421
0.726035
-0.111321
-0.0498776
-0.0560884
0.0316212
0.00904525
-0.0497573
-0.116363
0.541263
0.748781
-0.00369081
0.635275
0.192579
-0.00728399
0.0327266
-0.00399623
-0.0164169
-0.0151467
-0.0076239
-0.000165017
-0.00485794
0.0487803
0.471151
0.0047837
-0.0726522
0.0381418
-0.000100921
-0.113713
1.08799
-0.0177799
-0.00386123
0.0349083
-0.0356612
0.256175
-0.00407242
-8.857e-05
7.705e-06
-0.00770555
0.856738
0.0725729
-0.174964
2.92401e-06
-0.176282
0.159848
-0.0145067
-0.129763
-0.00353043
-0.00128214
-0.0664816
0.00271999
0.0072788
0.0305605
0.24321
-0.00036877
0.00670997
0.307651
-0.0878382
0.00125129
0.0013289
0.723315
-0.058077
-0.00449141
0.379135
0.867409
-0.0467966
-0.0191029
0.0959239
-0.0022513
-0.0241082
-0.00960114
0.355734
-4.73839e-05
0.0294303
-0.124579
0.736314
0.971749
-0.0171423
-0.0252229
0.530691
-0.0431241
-0.000159956
0.181897
0.216076
0.21961
-0.0204041
0.0732256
0.876532
-0.147106
0.79448
0.744166
-7.95053e-06
0.050569
-0.134236
-0.0083303
0.00487399
0.874181
0.0721713
0.000836555
-0.0871908
-0.124896
-0.0159681
-0.000354681
0.594434
0.413288
0.000143524
0.0122441
0.0161741
-0.0973777
-0.0842524
0.000189749
-6.88878e-06
0.00148024
0.264569
-0.0751199
0.580935
-0.128455
-0.0481044
-0.0595716
0.371803
0.0598667
-0.00357847
0.0241198
0.00253482
0.805096
-0.0699093
0.00326208
-0.0214893
0.0503366
-0.00423581
-0.0345875
0.00070813
0.000725832
1.10101
-0.0231082
-0.0144759
-0.00128765
-0.00219786
0.505044
-0.126424
-0.0654288
1.50611e-05
3.30012e-06
-0.072206
-0.0193801
-0.0150934
0.0506674
0.0186144
-0.00732499
0.0903221
-0.0488059
0.783
0.0160491
0.000750531
-0.111274
-0.0636313
0.0842694
-0.00971347
-0.0657403
-4.21578e-05
0.937865
0.0571923
0.000256702
0.984305
-0.0675559
-4.49936e-05
0.00441096
-0.113658
0.0369814
0.127278
-4.42189e-06
-0.0230572
-0.012857
-0.0155029
-0.00141514
-0.0237779
0.840291
-0.0238832
-0.0333636
0.424873
-0.00832041
0.827427
-5.00364e-05
-0.0438623
-0.111458
-0.0643116
-0.0608108
-0.00456354
0.0068311
-0.000472158
-0.0526952
0.0302454
-9.48588e-05
2.05953e-05
-0.0183287
0.774665
0.0230352
0.007675
-0.140652
3.73973e-06
0.00299911
-0.000122321
0.0287708
-0.0489816
-0.00117487
-0.0225265
-0.0352106
0.00313102
-5.29227e-05
-0.0162785
-0.00114172
0.146341
0.684657
0.539358
-0.0112893
0.0183299
0.0752299
-0.000292782
-0.00996011
3.00803e-07
0.75209
-0.0387211
0.0499807
-0.0476963
0.00542455
-0.00909213
-0.000316943
2.48108e-05
-0.0140245
0.133793
0.495262
0.00381306
-0.100594
-0.0695553
-0.0226774
0.109436
-0.00398628
0.00397886
-0.0162693
-0.00029134
-0.11612
0.54565
0.384667
-0.0616318
0.533812
0.000258116
1.28103e-05
0.18434
0.0743803
0.973204
-0.0968901
-0.0593491
0.0629416
0.00362194
-0.0169877
0.00141436
-0.0302175
-0.0362491
-1.11712e-05
-0.00270861
0.730804
-0.000419596
0.910757
1.80213e-06
-0.0246791
0.139593
0.0985522
0.00323183
0.000576241
0.758356
0.152375
-0.114234
0.395629
-0.0184483
-0.0374139
-0.0120785
0.494514
-0.0703243
0.0363811
-0.0215787
5.27242e-06
-0.00394248
0.0181216
-0.0497934
-0.0602758
-0.111645
-0.0503316
0.263993
-0.00644022
-0.135604
-0.0386703
0.00012104
-0.0341629
0.0302753
0.268135
-0.0742198
-1.19776e-05
-0.0509025
-0.000718273
0.00432475
-0.147022
0.579405
0.00279209
-0.0336709
-0.0390017
0.182382
0.826408
0.00562153
-0.0126938
0.480538
0.341366
-0.0413094
0.0151028
-0.122533
-1.90982e-06
-0.108261
0.00026376
-0.0403149
-8.61502e-05
8.38342e-05
-0.0165643
0.0548524
0.693983
0.0326608
0.035705
-3.77078e-07
-0.0183718
0.000273269
-0.0096379
8.40613e-05
0.134931
-0.00145778
0.38793
-0.00038878
-0.0361474
-0.0952363
-0.012662
0.82071
-0.0462332
-0.102682
-0.0166055
0.124532
-0.106647
0.0817372
-0.0352245
-4.94917e-06
-0.0141832
-0.0118606
0.000768789
0.000262896
0.490411
-0.0146208
0.19807
-0.0115998
0.00266552
0.0910709
0.000515823
-5.40816e-05
-0.107094
-0.0104984
9.34293e-05
0.505104
1.05371
-0.000646539
-0.0918248
1.87034e-05
0.888021
-0.0344516
-0.0945737
0.000138794
0.0374857
0.154248
0.179486
0.1253
-0.00124289
-0.000429402
-0.0428375
5.57064e-06
7.43783e-06
-0.0716152
-0.0713734
-0.109427
1.01352
0.000624546
-0.0702854
0.0234775
-4.88197e-05
-0.00364078
0.000106175
-0.0174924
0.000132971
-0.0312638
0.0792436
0.818225
0.121039
-0.000855829
0.00142891
-0.105691
0.193878
-0.00930137
2.73833e-05
0.436123
-0.178882
-0.093887
-0.0395192
-5.53439e-05
-0.000848524
-0.182416
-0.0538887
0.32231
0.78004
-0.100103
-0.00385614
-4.59966e-05
-0.110066
-0.140069
-0.000621709
0.00964055
-0.0399457
-0.0139136
0.74727
-0.00393765
0.0144969
0.31101
-0.0224836
0.977148
0.966981
-8.86432e-05
-9.43465e-05
-0.0456602
0.0468336
-0.0889393
0.0162416
-0.0217736
-0.00175415
0.862573
0.378642
0.00701775
1.14448
1.4317e-05
0.245159
-0.122388
-0.0680814
0.000295915
-0.0921469
0.253187
0.0448904
0.162626
-0.00137949
-0.00148069
-0.00522056
-0.0103535
-0.0377219
-0.0031729
0.288122
-0.0158084
-0.0153762
-0.143543
0.711794
0.0559707
0.0894933
-0.00122935
-0.00157095
-0.0541855
0.00306964
-0.00781363
-5.25967e-05
-0.00107932
0.25398
0.761741
-0.000389773
0.409543
-1.24799e-05
-0.00997321
-2.25835e-05
0.0166398
-0.0274846
-0.000115567
-0.00011892
-0.130986
6.91281e-06
0.127512
-0.062136
-8.41282e-05
0.388181
1.22939e-07
-0.00122446
-0.000267452
-0.0148076
-0.00111447
-0.0180177
-0.136437
-0.000986465
0.0130951
-5.49203e-05
0.683098
0.0111184
0.0537522
-0.0839654
-0.059266
-0.00334691
0.00901975
0.452195
-0.0658322
0.400094
-0.101328
-0.0103018
-6.71727e-06
-0.0167882
0.733611
0.42652
-0.0847541
-0.125526
0.658376
-0.0241933
-0.117363
-2.2976e-05
-0.0645464
-0.00253994
1.11962
-0.10747
-0.000260988
-0.134062
-0.0680135
0.513329
-0.00771964
-0.0705852
-0.0106696
-0.0154463
-0.00383986
0.511647
-0.172659
-0.0514422
-0.0409493
-0.0358575
0.0171044
0.647095
-0.0500697
0.397377
0.0084061
-0.0607514
0.923344
-0.0246138
-0.000696885
0.517542
0.73569
-0.00296122
0.0460148
-0.0185706
-0.0829453
0.480999
-0.111474
-6.12615e-05
-0.0211839
0.000105473
-0.0130944
-6.49526e-05
-0.0126592
-0.00289243
-0.00912393
-0.0857329
-0.00180406
-0.00151257
-0.00320223
0.429502
-0.00611806
-0.00950001
-0.00863134
0.362577
0.0158345
-0.00105284
0.725154
0.954023
-0.0519838
0.864275
-0.0458261
0.680423
0.0163148
-0.0280473
0.00772789
-0.00136078
4.74194e-05
0.00769867
-0.0317791
-0.0519881
0.388891
-0.0595518
-0.052705
-0.00270569
-0.0747339
-0.061499
0.0194288
-9.8766e-06
0.0341855
0.24739
0.733157
0.0607275
-0.0350862
0.31072
-0.000939987
0.0990133
-0.0467934
0.00193779
-0.132299
0.00992355
0.681829
-0.00587868
-0.00154731
-0.000307658
-0.114191
-0.00345698
1.12463
1.15824
0.0337651
-9.60816e-05
0.0235979
-4.62478e-05
0.163046
-0.00152697
0.0606531
1.04627
0.0964802
5.05574e-05
-0.0216166
-7.25045e-06
-0.174465
-0.0876225
0.858945
0.000653858
0.0325516
0.00945994
0.000809096
-0.00625748
-0.000839052
-0.0159487
-0.0877258
-0.0582653
0.020888
0.379308
-0.0342943
0.017593
-0.0518455
-0.00472506
-0.0680614
3.16146e-05
0.000125177
-0.00590244
0.0760222
-0.0668815
-0.040773
-0.00969002
0.00739115
-0.0336787
0.518746
-0.033059
-7.36395e-06
-0.128021
0.793425
-0.041146
-0.0308302
0.18109
6.50356e-06
-0.00181559
-0.0708364
-7.69349e-05
-0.00119227
-4.80029e-05
1.1449
0.0237937
0.00973844
1.17506e-06
5.79884e-06
-1.30071e-05
-2.41902e-06
-0.0571427
0.739812
-0.0873412
-0.001192
-0.000421595
-0.0129648
0.851509
-0.11432
0.789281
0.0709007
0.299378
-0.000290525
0.842037
-0.00573524
-0.0237143
0.0442862
0.0238406
0.0268455
0.390684
-0.0995248
0.83236
0.591422
-0.0204462
-0.0681064
0.0116674
-0.0717826
1.55087e-07
-0.0024049
0.00717237
0.163304
-0.0165465
-0.0573572
-0.00817342
1.01054
-0.132506
-7.85398e-05
-6.82745e-05
0.867451
-0.0124724
0.00717522
-0.03286
-0.00573364
-0.0374112
-0.0241789
-0.0320064
0.197327
0.078758
-0.024905
-0.0349166
0.000219147
-0.0143723
-0.00213423
-0.0197639
-6.51242e-05
0.000145038
-0.0372296
-0.0490501
0.823481
-0.0376255
-0.000478868
-0.00372397
-0.000776179
0.720599
-0.0323071
-8.03837e-05
-0.0618348
-0.0111773
-0.00863841
-0.066978
-0.0782277
0.0168325
0.136871
-0.125402
0.000185862
0.0146842
-0.0328846
-2.16048e-05
-0.00014892
0.246944
0.188717
0.0245084
-0.115814
-0.110127
0.00130176
0.909767
0.000207358
-0.0353143
0.757318
-0.0412259
-0.0863076
9.06684e-06
0.000398421
-0.0857869
-0.0226777
0.00338908
-0.0779078
0.47222
0.568829
0.00165576
0.000632911
0.442689
-0.0300999
-2.29537e-05
-0.00350443
-0.0664875
-0.0505355
-0.0225152
-0.0035664
0.418561
3.41317e-05
0.167813
0.561391
9.00498e-05
0.0286872
-0.00105898
-0.135659
-0.0324053
-0.00158598
0.0627228
0.000499261
0.462575
0.0033501
0.0506392
0.0530037
1.0409
0.699706
-0.123904
-0.016461
9.19029e-06
0.00769238
-0.0299775
0.319971
0.650095
-0.0773443
-0.00523328
-0.0355724
-0.0136427
0.296039
-0.000425867
0.852715
0.0559141
0.000115051
9.2861e-05
0.000233113
-0.0270558
-0.0371786
0.00161977
0.127498
0.251757
-0.114478
0.00133683
0.000159722
-0.047574
-8.06649e-05
-0.0059018
-0.0228022
-0.00131622
0.0673126
0.00967762
-0.00279305
-0.00779044
-0.0323052
0.699814
0.718719
0.0790746
-8.5766e-06
-0.00110764
0.496607
-0.000920915
-0.137355
-0.000407339
-0.0399182
-0.139312
-0.000403586
-0.000459421
-0.0636038
0.00295045
-0.000144612
-0.00265457
0.416271
-0.0687564
-6.89672e-05
0.193177
0.679731
0.706319
0.00134867
-0.129503
-0.0185875
0.789226
-0.122145
-0.124894
-0.0025482
-0.0256758
0.0588093
-0.0505317
0.705871
0.170477
-0.000341019
-0.104638
-0.140571
-0.00745355
-2.43854e-06
-0.00346813
0.41773
-0.000365683
0.00787877
-0.0078115
-0.00234794
0.0180869
0.057821
-0.000354455
-0.000240403
-0.0117612
-0.133867
-0.0691274
-0.131903
0.476404
-0.00248785
-0.000534054
-0.0685193
-0.0468229
0.0198939
0.0266652
0.000158234
0.144008
0.290627
0.0373264
0.048993
-0.00123431
-0.0260824
0.0294884
0.00260444
-8.42878e-05
-0.0177732
-0.00789704
-0.00142898
-0.0214052
-0.00165309
0.512131
-0.017585
-0.17637
-0.0458865
-0.020879
0.023246
0.88457
-0.0844422
-0.000230595
0.837316
0.326153
0.0153045
-0.0114468
0.0149018
0.0214208
0.313526
0.000698451
-0.00478468
1.04231
0.561665
0.639409
-0.0851382
-0.00272972
-0.00239892
-7.02236e-05
-0.00251924
0.581516
0.163373
-0.000287332
-0.00734605
-0.00068446
-0.0214709
0.977248
0.756332
0.15721
-0.00549986
-0.121474
-0.00772581
-0.00140655
-0.0371561
0.0299379
-0.0526768
-0.00685665
0.00182335
-0.147416
-0.135034
0.0591929
-0.0472367
-0.00538759
-0.0499781
-0.000386628
-0.0132949
-0.00133916
0.672342
0.000102569
5.38549e-06
-0.041436
-0.0380076
-0.0551211
0.0760984
0.000109091
-0.147986
0.130604
0.387952
1.11125
-0.00888287
-0.13795
0.0599045
-0.00400475
0.122894
-0.0011583
0.020508
-0.000365617
0.511033
-0.0959239
0.0208778
0.255546
0.230523
0.00293828
0.0062967
7.68442e-06
0.797466
1.19581e-07
-0.0864229
0.000669418
0.0033778
0.357473
0.200703
-0.127261
-0.0744985
-0.00773792
1.15204
-0.130873
9.36844e-06
-0.0296756
-7.3208e-05
-0.0246633
0.204724
0.388975
0.00175706
-0.0666891
-0.0179775
0.293594
0.0535034
-0.0616105
1.02049
-0.0188754
0.00013417
-0.176888
1.05306
0.00440717
0.182966
-0.0814269
0.289252
0.00369221
0.0675319
-0.144237
0.0115416
0.107219
-0.0389271
0.388904
-0.0497453
-0.0368747
-0.0015279
-0.00154192
0.919636
-8.26985e-06
-0.00993744
-6.06168e-05
-0.0154269
0.000700724
-0.0137548
0.497205
1.02352e-06
-0.00196308
0.139025
-0.179334
-0.0426469
0.00226917
0.764137
-0.0906917
0.338873
-0.0227012
0.30761
0.0139611
-0.0014264
-0.0750256
0.00152597
0.943823
-0.0507449
-0.000217023
0.00440954
0.281811
-0.0213766
-0.00133221
-0.000239383
-0.134056
-0.00497721
-0.0184093
-0.129219
4.8045e-06
-0.128596
0.000854302
0.676837
-0.0192492
0.295726
0.0089847
-0.00700104
0.533262
-0.0938321
-0.177793
-0.00818661
-0.137078
0.550596
0.583828
-0.0266766
-4.3316e-05
-0.029448
0.00903426
2.56567e-05
0.120078
0.728116
0.0244489
0.00309101
0.0201855
-0.130666
-0.000320093
0.15958
0.0964033
0.147943
0.0257378
0.053835
-0.000737899
0.348868
-0.0866964
-0.18343
-0.00192403
0.0420811
0.288531
0.00157276
-0.134743
0.429723
-0.0700864
-0.135946
-0.142807
-0.134071
-0.135
0.103271
0.43205
-0.147209
-2.42573e-07
0.00173263
-0.0324124
-0.0034338
0.0194981
-8.34965e-06
-0.0109653
0.00774615
-0.000132346
0.112155
-0.000984913
0.239959
-0.0615485
-0.00983825
-0.0131775
-0.0164411
-0.121476
-0.0112838
-0.00192199
0.0413709
0.155127
0.00920984
-0.0629564
-0.00567739
0.0576602
-0.0181205
-0.0367511
-0.140354
-0.0303498
-6.36902e-05
-0.0291225
0.835157
6.33637e-05
0.223315
-0.0687561
1.0005
0.0955551
-0.0889976
-3.91532e-07
0.00329628
-0.147724
-3.63562e-05
-0.00521058
-8.10756e-06
-0.128411
0.00882532
-0.128024
-0.0439683
-0.000239576
0.535466
0.515877
-0.0673207
0.000885477
-0.000328599
-1.73549e-06
-0.000109398
0.912871
-0.00255159
0.00445414
0.042408
0.0018688
-0.00114046
-0.143243
-0.000467274
0.0919706
0.00610688
-0.00401632
-0.00142001
-0.0492442
-0.077903
0.356311
0.192212
-0.000312018
-0.0252357
0.00107779
-0.0881648
-0.00102147
0.267332
-0.0154094
1.15657
-0.0249732
-0.00281276
0.147381
-0.0364202
0.668825
-0.0791019
-0.0218044
-0.0249882
0.0357861
-0.00694143
1.71464e-05
-0.0160134
0.59686
-0.0840856
-0.00630885
-0.0799796
-0.0520165
0.29972
-0.000980687
0.545835
-0.00187423
-0.118744
-0.00102702
0.0259457
0.0902819
-0.00554873
0.651807
-0.000913262
0.064694
0.174181
0.00100693
-0.000253935
0.977504
0.133383
-0.00113449
0.058777
0.0426434
0.000261788
-0.0918146
-0.0425879
-0.170078
-0.0198011
0.642541
0.00864385
0.316067
-0.000770707
0.757928
-0.133097
-0.010351
0.0122548
0.0616123
-0.117918
-0.144598
-0.0166984
0.000104362
1.0608
-0.0436281
0.0016239
-0.0364383
-0.076181
0.665142
0.00591301
-0.0315849
-0.00010551
0.156982
0.0158363
-0.0738819
0.00161363
-0.00681534
-0.0542283
7.51153e-05
-0.099473
-0.00304901
-0.0287581
-0.122606
0.55967
-0.0199426
0.0829908
-0.0669828
-0.0596851
-4.39281e-05
0.000294971
-0.00731116
7.82795e-05
-0.0219713
-0.00673847
-0.00403998
4.19052e-06
0.946257
0.00992389
0.000676295
-7.39732e-05
-0.00417833
0.641147
-0.10189
1.06185
0.371107
0.0442231
0.552054
-8.70852e-06
-0.0275628
-0.00165424
-0.00488508
0.387368
-0.0194033
1.074
0.505572
-0.107573
0.525604
0.017843
-0.0276619
0.00444418
-0.0664663
-0.00783862
-0.099626
-0.108412
-0.00595096
0.519982
-0.0194058
0.00028496
-0.00847871
-0.00131675
-0.0673604
-0.000323804
-0.00248216
-5.11946e-05
0.319798
-0.141368
0.536174
0.0560504
-0.005415
-0.0614628
-0.0389343
0.145272
-0.00607315
-0.00210851
-0.125076
-0.0868483
0.0219538
-0.0831118
-0.00889807
0.0240933
0.00579453
7.12695e-05
0.277171
-7.73712e-05
0.113053
-0.00160097
6.75406e-06
0.00393834
-0.00132929
-0.00243088
-0.0311091
0.353427
0.297609
-0.0395432
-0.024792
0.00576978
-0.0102168
-0.0201585
7.86898e-06
-0.000976387
0.00138337
0.229003
-0.0167358
-0.107575
-0.088699
-0.00425217
-0.0406314
-0.0222532
-0.00342175
0.0105866
-0.0245971
0.481859
-0.12461
0.012208
0.00433519
-0.0734287
1.04534
-0.0196838
-0.00878412
0.0154602
0.164226
0.00800859
-0.00315693
0.522395
-0.000727467
0.0891376
-0.0442235
-0.0944472
0.0126542
-0.00737027
-0.0109892
0.0824644
-0.00721315
-0.00123946
0.00155051
0.00512016
-0.000460975
0.0670169
-0.0185133
-0.00406553
-8.61242e-06
0.323284
-7.52577e-05
-0.0588184
0.158696
-0.045385
0.000295217
0.226583
-0.0690856
0.349006
-9.23346e-05
-0.00775681
0.18422
0.000356285
0.00986876
-0.00898146
0.0209083
-0.0409007
-0.0633689
-0.0169112
-0.00535728
0.0197716
0.0412138
0.115267
-0.000369166
0.235984
-0.0780718
-0.00652764
-0.0138142
0.000807775
-0.0988557
0.000151453
0.842157
0.442798
-0.000977785
-0.0416844
0.000339553
-0.00430827
-0.0104255
-0.0270977
0.321843
0.308855
0.0409699
0.0203423
-0.13945
0.0745513
0.0884034
0.105645
-0.0986183
0.0342951
0.429441
-0.0188827
0.732463
-0.00183562
-0.0216205
-0.0911607
-0.000181898
-0.00149449
-7.66546e-05
0.727059
-0.0203946
0.000543561
-0.0304914
-0.00904527
-0.000642742
-0.025881
0.563843
0.00202528
0.0218273
-0.0551571
-0.000908173
-0.00908541
-0.00159007
1.08614
0.000423706
5.61386e-05
-0.0037383
-0.0276804
0.157514
0.00108549
0.0295389
0.156046
-0.000290865
0.00418806
-0.137652
0.0842532
-0.0693969
2.24716e-06
0.000692508
0.00369979
0.063846
0.610079
0.186701
-0.067444
2.56054e-06
-0.092973
-0.0051963
-0.0243761
-0.0235703
0.355824
0.810931
-0.000205747
0.299427
0.473179
-0.0190075
-0.0239203
-0.0431162
-0.0225529
0.00022207
-0.0771568
-0.0166403
-0.000210938
-0.00105374
-0.00308354
-0.00372981
-0.00131242
0.598408
0.647297
0.394371
-7.7038e-06
-0.0449549
0.060214
0.212647
0.852732
-0.000955823
-0.0393658
-0.0356787
0.609517
-0.0368408
-0.0182236
0.00070941
0.307119
0.000603827
-0.000936573
-0.0472848
-0.0717389
0.281415
0.0887092
-0.0743815
-0.0448535
0.136001
0.0402627
-0.0914966
0.0137644
0.0121773
0.276136
-0.00067047
-0.0012029
0.199733
0.000410641
0.0627528
0.062392
-8.09409e-06
0.566192
-0.0202371
-0.00865952
1.10638
-0.0702352
-0.0168877
-0.0730735
-0.00487017
0.803387
0.0022964
1.04701
-0.000255021
-0.0201861
1.07279
0.0135214
0.801169
-0.0111694
1.30265e-05
-0.0415286
0.82566
-0.00306759
-0.0128863
-0.0156949
-0.00194735
-0.0405992
0.821269
0.220879
1.84424e-05
0.0398915
-0.00726416
0.0589718
-0.00171972
0.0454183
-0.00512577
-0.000879723
0.780799
0.843784
0.788214
-0.0969084
0.0353638
0.000296748
-0.107391
0.549612
0.0330499
0.000487291
-0.101886
0.0011709
-0.000197548
0.835561
0.000253821
0.00833447
-0.00372205
-0.0172509
0.795745
0.826139
0.845036
0.0233125
0.000962962
0.419007
0.0149025
0.0508778
-0.0175649
0.000141762
-0.00570185
-4.01007e-05
-0.00878727
-0.00143501
-0.0109884
-0.000113651
0.294203
0.00415388
-0.119821
-0.0174834
-0.132104
-0.0311785
-0.00148814
0.675179
-0.0207154
1.17282e-05
-5.06723e-05
1.03371
5.94338e-05
0.0223579
0.11282
-0.0343433
0.58538
-0.0100841
-0.0816259
-0.0693867
-0.000910589
0.000252075
0.495907
0.841214
-0.00297616
-0.0397696
-0.000444233
0.836285
0.999513
-0.00276879
-0.0123342
0.0377971
0.00607846
-0.0463361
0.000145558
0.0198691
-0.0704599
0.114005
0.683621
-0.00287288
0.056112
0.202072
0.070332
-0.083577
0.0555681
0.971072
0.365547
-0.10115
0.850501
-0.00111382
0.851366
-0.0135075
0.710215
0.153072
-0.00973679
0.0732934
0.00473092
0.0345072
-0.136291
-0.00128382
-0.0440992
0.712968
-0.0490984
0.0525241
-0.00282615
-0.00399458
0.352807
-0.0175221
-0.0932533
0.00140916
-0.00689733
-0.045069
-0.00414082
0.00391922
-0.0168941
-0.000952716
0.00475111
0.70313
0.00438698
-0.0303612
-0.107031
-0.0542749
-0.118277
-0.136988
0.00820576
-3.04015e-06
6.92319e-07
0.499058
-0.0953824
0.00012292
-0.074125
0.340129
-0.108695
-0.0282642
0.000232064
-0.0036187
-0.0861035
0.278674
-0.0156758
-0.000908655
-0.0859402
-0.0364012
1.07292
0.212466
0.133988
-0.0892024
-3.09794e-06
-0.0127887
0.124774
-0.000690988
3.88992e-05
0.322013
0.193034
0.00120795
-0.00162514
0.0168334
-0.064378
0.0200707
0.016213
-0.0283599
0.000109306
0.560894
0.00115092
-0.00113935
-0.000433907
-0.000408123
-0.000283265
0.15606
0.00191063
-0.00530752
-0.0179698
-0.00865183
0.0554651
-0.0101773
-0.0767918
-0.0194879
0.76777
0.636005
-0.000915151
-0.00274048
0.186805
-0.00153436
-0.0370009
0.123849
0.129409
-0.00182042
0.0393427
0.0767386
0.00254862
0.192272
-0.000184176
0.0142252
-0.00986797
0.0265735
-0.0268008
0.0926401
0.000148298
0.00142611
0.000556427
-8.14547e-05
-0.0027307
-0.0180214
-0.0237689
-0.0534411
0.112657
0.0744626
0.017309
-0.108784
0.0226382
0.0150565
0.0247503
0.000118379
0.820479
-0.0152266
-0.00607138
-0.0170656
1.08705
1.30978e-05
0.128222
1.15102e-05
-0.0446457
-0.0118444
-0.0393937
0.320522
-0.00735326
-2.91269e-05
0.324686
0.134384
-0.00101567
0.0967694
-1.36879e-05
0.299158
0.0138116
-0.0507237
-0.00025303
0.449959
0.0536285
-0.0371206
8.25707e-05
0.310783
0.581053
-0.0020578
-4.89321e-05
-0.0646665
-0.0164475
0.0174962
0.0462996
0.856589
0.495784
0.000915241
0.639984
0.459745
-0.00518018
-0.100478
-0.0592973
-0.0273816
-0.0911894
0.226648
0.00154501
0.892664
0.275777
0.0231572
0.000193343
0.00119469
1.83262e-05
-0.00100098
-0.00503437
0.960996
2.26971e-05
0.145275
0.0500447
-0.000402302
0.896065
1.00222
0.361334
0.41982
-0.0267521
0.00457689
-0.000505141
-0.0197914
-1.59994e-05
-0.00197958
-0.1782
-1.42482e-05
-0.00299641
0.914295
-0.0207932
-2.95981e-05
0.943711
0.000871147
-0.0633079
-0.121314
-0.00235229
-0.127776
-0.000412237
0.26382
0.00613329
-0.0295052
0.00354141
-0.00114925
-0.000685417
-0.000388578
-0.18022
-0.105319
0.2786
0.00519454
-0.00505655
0.432923
0.000144767
1.04905
-0.000906545
-0.150166
0.00413266
0.00297686
0.0928386
0.098019
1.45229e-05
-0.00733516
0.000205168
-0.00119523
0.00155942
0.152146
0.0887925
0.590862
-0.0682257
-0.000169704
0.000319694
0.177915
0.658623
-0.00796098
-0.0112
1.04254
-0.00495747
-0.0365191
0.00171641
0.131418
-0.0639522
-0.0151423
0.28469
0.002446
-0.000424961
0.00300724
-0.00472833
1.03901
0.816151
-0.042628
-0.0629183
-0.0112815
0.00284232
5.60294e-05
0.135998
0.364474
1.91373e-05
-0.0129308
-2.75723e-05
0.000260689
0.772713
-2.9644e-07
-0.12511
-0.0933987
-0.137457
0.126075
1.6222e-05
0.0180361
-0.0106756
0.715331
0.0171655
0.00905529
-0.0530764
0.00116856
0.656893
0.376369
0.0200366
0.10343
0.926621
-0.109762
-0.098635
-0.00337824
-0.012439
-0.000647562
0.0469485
-9.60066e-05
0.298641
0.00529366
0.353125
-0.0597042
-1.38863e-06
0.1039
-0.000282703
9.19383e-07
-0.00131613
1.02126
0.980416
0.588962
0.000114333
0.320425
0.84942
-0.0017185
0.00362698
-0.0149575
0.143036
0.834683
-0.0483318
0.218553
-0.00435042
-0.113146
-0.127117
1.12246
-0.00105323
0.816374
0.158059
0.34249
0.00023538
0.000395777
0.00975694
-0.015764
0.149946
-8.3626e-05
0.000129217
0.79973
-0.140152
0.000547879
0.837907
-0.00407299
0.000292776
0.689935
-0.0114359
-0.00265675
-0.0037863
0.265191
0.000586604
-0.000215854
0.00630004
-0.00715766
0.795703
1.01653
0.522778
1.09295
0.187508
-0.0806986
0.934735
-0.000125646
-0.00563466
0.231985
-0.00602144
-0.00113898
-0.000166934
0.837378
0.0545755
-0.00112962
0.988242
0.134522
0.444711
0.0780299
-0.00479232
-0.0359869
0.278971
0.132067
0.840204
-0.0403249
-0.00136684
0.768723
0.726224
0.0240018
0.601364
-0.0656986
-0.0137322
-0.0161176
-0.00111221
-0.000232573
0.776478
-0.106427
0.0345697
0.00173709
0.279459
-0.0551362
-0.0259584
-0.00166534
-0.00627786
0.867708
-0.00139323
-0.0302685
-0.00525329
0.859649
-0.0333038
0.03556
-0.0131394
0.00250457
0.271545
-0.0384796
0.882676
0.181166
1.09137
0.442817
-0.104976
0.0552794
-0.00309361
0.0263822
-0.0515402
0.806668
0.860885
0.959604
0.586129
0.78416
-0.000615978
0.910124
-4.53145e-05
0.000132271
-0.0826051
0.986651
0.0887939
0.438601
3.02929e-05
-0.0037759
-0.08725
-0.0580509
0.79182
-0.00118025
-0.013462
0.587283
0.00184822
-0.00740643
1.05915
0.0833604
-0.0630642
-0.175411
-0.000919033
0.1163
0.153616
1.10528
0.138874
0.0814098
0.00778967
-0.000401936
-0.00449336
0.336339
0.0115147
0.000241493
-0.111926
0.424502
-0.00257319
0.822487
-0.113058
0.830274
-0.0292341
-0.0391832
0.929173
-0.00928937
0.0610399
-0.000691024
-0.00227731
-0.111726
-0.0389018
-0.0630372
-0.0168721
0.0195014
-0.119008
-0.121539
0.831789
0.000484606
0.00136006
-0.0347696
0.207134
-0.128916
-0.100781
1.58908e-05
-0.115959
0.0822662
-0.000168439
-0.123053
-0.079743
0.835256
-0.131507
0.823903
-0.0235944
0.194949
0.433078
-0.0602827
0.572051
-0.00297069
0.173836
0.00242448
0.147589
0.339026
0.299485
-0.0482809
0.0107578
-0.00110842
0.306792
-0.000134912
-0.000212615
-0.00179632
0.0112005
0.0297993
0.0261109
0.700815
0.26741
1.03503
0.649264
-0.00263575
-0.0565348
-0.000273893
-0.0806909
-0.00196996
0.0100942
0.00113258
-0.0530151
0.576918
0.812407
-0.000493178
4.19672e-05
0.0678204
-8.04867e-06
-0.0157141
-0.000297632
0.228417
-0.0605665
0.318848
-0.13043
8.00752e-05
-0.0238311
-0.0670915
-0.0407183
-0.0278963
-0.089658
0.0961264
-0.000272514
-4.84346e-05
0.003618
-0.000222167
0.134823
0.132847
0.0683315
0.96422
0.0774533
-0.166645
-0.146336
-0.000737681
0.0875113
-0.000199732
0.774979
0.168067
0.905795
0.000260567
-0.0551195
-0.0116236
0.085899
0.314658
0.716392
-0.0128705
0.0569876
-0.00329873
-0.0310039
-0.0136322
-0.0103932
0.180041
0.00275362
-0.0126837
-0.0342929
0.424259
0.11262
8.34923e-06
-0.00150219
-0.0105724
-0.00102866
0.194541
-0.00112965
-0.0421796
0.249274
0.000142766
0.4381
0.000160483
-4.65892e-06
-0.139655
-0.0264666
0.000298223
-0.0380902
0.000314491
0.947448
0.0213491
-0.0413772
0.87068
0.213099
-0.0532144
0.688755
-0.00469555
-0.00317061
-0.0035401
0.143156
1.1624
-0.00252766
-0.000996216
8.16468e-06
0.0134285
-0.0021156
0.0432076
0.0105273
-0.0354986
-0.0990953
0.031654
0.0184607
-0.0314851
-0.000905172
-0.0187433
0.694685
-0.00304805
-0.023311
-0.000382712
0.701972
0.093211
0.685126
0.000755513
-0.0014279
-0.0397664
0.964217
0.243491
-0.0476526
-0.000212139
0.053765
0.159844
-0.025578
0.339387
-0.0804058
0.0344983
-0.170515
0.715275
-0.0259241
0.415429
-0.00536739
1.10778
-0.0693776
-0.0186073
0.884941
-0.0721786
0.274789
-0.182614
0.305141
0.0110394
0.0844157
0.55079
0.0841535
-0.0811396
-0.016372
-0.012661
-0.0181034
0.0107134
-0.00243092
-0.0929977
-0.0479641
0.00341219
-0.109959
-0.135878
-5.42619e-05
0.192559
-0.0153926
0.189412
0.902871
0.636657
-0.0901544
-0.117278
0.000807587
-0.105698
-0.00695208
1.06993
-0.0591869
-0.051136
0.626654
0.0806714
-0.0654922
0.382081
-0.0619197
-0.00105968
-0.0197837
0.0171685
0.00119121
0.661666
-0.00458155
0.23516
0.583409
-0.00971554
0.398837
-0.140019
-0.000623917
0.0114306
0.138863
0.603641
-0.00428077
0.139119
-0.113895
0.118186
-0.0385563
0.641499
0.0166725
-0.081233
-0.0048854
0.000326346
0.818086
-0.00412618
-0.0441636
-0.000171252
0.346869
-9.80451e-05
-0.0725609
-0.00212772
-0.169769
0.00116526
-0.0168974
0.319909
-0.00658268
0.00158945
0.00112564
-0.00694237
0.0914654
-0.000129864
-3.22522e-05
-0.014351
-0.0177972
-0.0377513
0.0138901
-0.00322597
0.12532
0.132464
-0.00214013
0.00174714
-0.000323037
0.807578
-0.00712662
-0.0115776
0.70397
-0.0308108
0.651199
0.0853944
0.827158
0.380488
0.187473
-0.0025211
-0.00126261
0.134799
0.0395108
-0.00739411
0.000333356
0.0143489
-0.0844038
-0.00160786
-0.014014
-0.0135489
-0.0152249
-4.29947e-05
-0.00553763
0.000117317
-0.000120361
0.00149004
0.567208
0.352032
-0.0186675
-0.00475664
-0.0838349
-0.0351087
0.422507
0.736179
-0.0945271
0.00348031
0.339023
-0.017815
0.00103574
-0.120299
6.83843e-08
0.201961
0.275535
-0.00110589
-0.0595224
0.000367298
-0.0134791
-0.0130894
-0.0640893
0.0353174
-0.0870377
-6.51708e-05
0.018408
0.00298633