/*--------------------------------*- C++ -*----------------------------------*\
  =========                 |
  \\      /  F ield         | OpenFOAM: The Open Source CFD Toolbox
   \\    /   O peration     | Website:  https://openfoam.org
    \\  /    A nd           | Version:  7
     \\/     M anipulation  |
\*---------------------------------------------------------------------------*/
FoamFile
{
    version     2.0;
    format      ascii;
    class       volVectorField;
    location    "32";
    object      U;
}
// * * * * * * * * * * * * * * * * * * * * * * * * * * * * * * * * * * * * * //

dimensions      [0 1 -1 0 0 0 0];

internalField   nonuniform List<vector> 
7639
(
(1.1407 0.179801 8.71117e-22)
(1.04618 -0.0499343 -3.35908e-23)
(0.999741 0.149093 -2.55538e-21)
(1.05536 0.0835465 3.03905e-21)
(0.99924 -0.000934194 -4.90806e-24)
(0.999963 -8.42228e-06 -5.52605e-25)
(0.991852 0.121914 -4.99175e-21)
(0.995119 -0.00174562 -9.7338e-25)
(0.99989 -0.000172671 -9.25499e-25)
(1.02577 0.00106489 -1.34339e-22)
(0.999966 -1.01552e-05 6.09347e-25)
(1.00207 -0.00117013 -1.95606e-23)
(0.992563 -0.00219085 4.92191e-23)
(1.02049 -0.00200905 -8.13843e-22)
(1.02508 0.00144887 5.69657e-22)
(0.991714 -0.0139017 -1.01175e-22)
(1.1473 0.190714 -1.84991e-21)
(0.990028 -0.00278882 -1.71641e-23)
(1.00204 -0.00910495 -5.16846e-24)
(0.974217 -0.081727 -8.78659e-23)
(1.03663 -0.00760036 -2.69746e-22)
(1.00137 -0.000716809 3.66429e-23)
(1.01804 -0.0034793 6.89898e-23)
(1.01326 0.0365221 -1.59477e-21)
(0.986772 -0.00346795 -7.76595e-23)
(1.13161 0.178422 -9.07216e-22)
(0.999279 -0.00088905 -3.44636e-24)
(1.02416 -0.0023655 3.27064e-22)
(1.00559 0.0167082 -1.99668e-22)
(1.00337 -0.00973583 4.04093e-24)
(0.987387 -0.0144738 -1.79126e-22)
(0.83242 0.0510583 8.32053e-22)
(1.01786 -0.00430236 4.2614e-22)
(0.999562 -0.000372994 6.0999e-24)
(0.999905 -6.36622e-06 1.16061e-26)
(1.02543 -0.00020108 1.96819e-22)
(1.00384 -0.0106669 5.18676e-24)
(0.998309 0.11809 -7.83496e-22)
(0.996485 -0.00744062 8.26085e-23)
(0.999694 -5.53044e-05 5.87237e-24)
(0.99686 -0.00766988 -9.2621e-24)
(0.991855 -0.0130474 -3.66422e-23)
(0.992955 -0.0934531 4.17122e-22)
(1.12835 -0.102678 1.56743e-22)
(0.999817 -1.16638e-05 1.89972e-24)
(0.999927 -1.46465e-05 -5.49081e-25)
(1.00131 -0.000580862 -2.23626e-23)
(0.996336 -0.00681258 -4.90005e-23)
(0.999938 -2.78554e-05 -4.43701e-25)
(0.977271 -0.0828888 1.27792e-22)
(1.00305 -0.00102585 2.12748e-23)
(1.02362 -0.00155992 -3.38647e-22)
(0.982827 -0.00411395 -2.61416e-22)
(1.0087 -0.0299226 4.40635e-24)
(1.02592 -0.000776945 -1.13211e-22)
(0.995713 -0.00240804 -9.06293e-24)
(1.00199 -0.00846164 1.18214e-23)
(0.995086 -0.00151225 6.75604e-23)
(0.978879 -0.0170472 -3.16767e-22)
(0.999545 -0.000332009 -7.81347e-24)
(1.00004 -2.16642e-05 -7.93812e-25)
(1.00398 -0.0011553 2.37954e-23)
(1.02066 -0.00131786 -1.92637e-22)
(1.00225 -0.00102442 1.9809e-23)
(0.999121 -0.000178925 1.10547e-23)
(0.987892 -0.0150417 3.02049e-23)
(0.999912 -0.000172372 7.12345e-25)
(1.00001 -2.44581e-06 5.11264e-26)
(1.22585 0.0206804 1.69455e-23)
(0.996518 -0.00646627 -1.50523e-23)
(0.999932 -1.7981e-05 4.86355e-25)
(0.970319 -0.0491845 -6.23945e-22)
(0.98733 -0.00385507 3.78548e-23)
(0.976424 -0.00505606 5.11214e-23)
(0.990465 -0.00308444 5.36059e-23)
(0.967736 -0.023888 -6.86598e-23)
(1.00545 0.150974 4.09125e-21)
(1.03466 -0.00724633 3.44871e-22)
(1.09303 -0.0197009 -3.75467e-22)
(0.957865 -0.0394509 -7.58478e-22)
(0.992912 -0.00242619 -7.54327e-23)
(1.00096 0.0722179 4.77139e-21)
(1.04463 0.00303262 8.21046e-22)
(0.975942 -0.00892612 2.36142e-22)
(0.998736 -0.00234796 -8.03711e-24)
(0.997943 -0.000298727 8.201e-24)
(0.994792 -0.00229949 9.25876e-23)
(0.983479 -0.00460884 1.67472e-22)
(0.999415 -0.00110035 5.24757e-24)
(0.995908 -0.000621433 2.89894e-23)
(1.00598 0.0190839 1.48826e-21)
(1.16695 -0.116545 -3.01783e-22)
(0.999877 -5.02589e-05 -1.14947e-24)
(1.00163 -0.00715904 5.06794e-24)
(0.996755 -0.000956611 2.62773e-23)
(0.976166 -0.00280686 -4.12396e-22)
(0.972362 -0.0490611 4.1301e-23)
(1.0105 -0.0290684 2.16033e-23)
(0.998604 -0.00226393 2.63601e-24)
(0.998952 -0.00018018 3.68352e-24)
(0.955406 -0.0141554 1.75498e-22)
(1.09617 -0.0145675 3.33591e-22)
(0.996938 -0.00108838 -6.54675e-23)
(0.999976 -1.24763e-06 -4.70369e-26)
(1.18042 -0.109709 -2.51901e-22)
(1.03806 0.0343909 -1.3847e-21)
(0.916942 0.0374227 8.9206e-22)
(0.995428 -0.00227261 -3.77119e-23)
(0.999992 -2.4685e-06 9.59988e-27)
(1.02434 -0.0155289 -1.35175e-22)
(1.05877 0.0780502 -3.52643e-21)
(1.01189 -0.0755563 -5.33061e-22)
(0.99999 -2.89804e-06 -1.6028e-26)
(1.02603 -0.0162471 -2.92493e-23)
(1.03368 0.0329404 1.45707e-21)
(1.0004 -0.000536295 -1.71047e-24)
(1.0442 -0.101289 -4.20049e-23)
(1.03552 0.0179727 -3.28502e-22)
(0.981812 -0.0403298 2.70437e-22)
(0.976139 -0.00614208 -5.35496e-23)
(0.952695 -0.00922383 -4.22756e-22)
(1.00147 0.0325908 -3.10542e-21)
(0.997828 -0.0937142 -5.6973e-22)
(1.0092 -0.00792109 1.16584e-23)
(0.954197 -0.0105774 1.65864e-22)
(0.999142 -0.00127988 1.16783e-23)
(0.988621 -0.0110334 6.00649e-23)
(1.00256 -0.00806679 -8.01554e-24)
(0.999073 -0.000132186 -2.47014e-23)
(0.987521 -0.0133535 3.27089e-24)
(1.17368 -0.161314 -1.83774e-22)
(1.08564 -0.0194548 6.73985e-23)
(0.999456 -0.00050944 6.64036e-25)
(0.999314 -0.00112548 -1.02105e-23)
(0.974856 -0.00814315 7.02e-23)
(1.05388 0.0695775 1.27291e-21)
(0.995841 0.0285951 5.75065e-21)
(0.999978 -2.25364e-06 -5.53484e-26)
(1.00686 -0.00309095 1.00568e-23)
(0.936709 -0.0112507 -5.30045e-22)
(0.9779 -0.00367268 -2.11956e-22)
(0.983917 -0.0557303 -4.09935e-22)
(0.968048 -0.0257253 9.32564e-23)
(0.977727 -0.00456958 -4.53631e-24)
(0.907748 0.0293854 3.54757e-21)
(1.00748 -0.0450304 -1.58962e-23)
(1.01236 0.0213549 -7.52594e-22)
(0.980741 -0.0204495 -1.66312e-22)
(0.967478 -0.00474512 5.86242e-23)
(1.00149 0.0525104 -1.53774e-21)
(1.02554 0.000204361 4.88857e-22)
(1.15322 -0.107071 -3.01776e-23)
(0.998666 -0.00187854 -2.77134e-23)
(1.2253 0.0040698 -8.48551e-23)
(1.04223 0.002995 -8.59431e-22)
(1.01514 0.121656 -3.85858e-21)
(0.962976 -0.0276773 2.88862e-22)
(0.992563 -0.00169265 1.68177e-23)
(0.928527 0.100335 7.77528e-21)
(0.999943 -2.37786e-05 -4.17468e-25)
(1.00118 -0.00755677 -2.1764e-24)
(1.01333 0.0400865 1.15811e-21)
(0.99998 -1.8347e-05 2.66769e-25)
(0.99837 -0.00476901 -3.92497e-23)
(0.996335 -0.000925004 -1.25842e-23)
(1.00408 0.0425164 -3.84013e-22)
(1.0022 0.0283866 1.44941e-21)
(0.917453 0.109877 2.61806e-21)
(0.998106 -0.00461194 -2.42318e-23)
(0.997169 -0.000353282 -1.43743e-23)
(1.00001 -3.15526e-06 -4.76439e-26)
(0.950037 -0.00557955 -7.25305e-22)
(1.00039 -0.00048036 2.36112e-24)
(1.049 -0.0466409 3.66726e-23)
(1.0072 -0.00333215 6.72386e-23)
(0.968223 -0.00563141 1.20345e-22)
(1.18133 -0.0911732 -3.40577e-22)
(1.16071 0.0613112 2.28974e-24)
(0.999879 -6.23781e-05 6.27283e-25)
(0.999545 -0.00058391 -7.02929e-24)
(1.05865 0.0887752 -5.37686e-22)
(0.999944 -1.66577e-05 -2.02683e-25)
(0.999898 -1.18415e-05 3.00819e-25)
(0.992406 0.130018 -4.17551e-21)
(1.04693 -0.0538331 -8.41598e-23)
(1.0031 -0.0622462 -2.80612e-22)
(0.983652 -0.0393178 -3.82215e-22)
(0.978465 -0.00659366 1.54078e-22)
(1.00458 -0.0457138 3.05424e-23)
(0.938163 -0.00952313 2.79379e-22)
(0.999978 -1.6748e-05 -9.50713e-26)
(0.973266 -0.0461656 -1.48636e-22)
(1.16993 0.0708932 -4.97838e-22)
(0.996923 -0.00132638 9.40192e-24)
(1.00007 -6.31914e-06 -5.85125e-25)
(1.11943 0.0836253 7.91446e-23)
(0.998865 -0.000365661 2.60803e-23)
(0.988306 -0.0128737 9.58956e-23)
(1.00241 -0.0429914 9.85862e-23)
(1.00002 -2.03534e-06 -2.03091e-26)
(1.00083 -0.00185784 -9.52077e-24)
(1.0487 0.0696552 1.6265e-21)
(1.15346 0.0898587 -8.87749e-22)
(1.00798 0.107385 -5.18256e-22)
(1.0436 -0.0949733 2.79001e-22)
(1.01598 -0.0733946 1.17267e-22)
(1.06431 -0.143235 -1.13833e-22)
(1.02485 -0.00221543 9.76327e-22)
(1.04404 0.0648489 -5.2912e-22)
(0.999804 -2.08689e-05 -2.22631e-24)
(1.00004 -1.94509e-05 2.09132e-25)
(0.938382 0.0160055 -3.41454e-21)
(0.992966 -0.0125458 -3.4877e-23)
(0.999434 -0.000453343 -6.57284e-24)
(0.975284 -0.0456685 3.08958e-22)
(0.988078 -0.0116141 -7.04246e-23)
(1.02824 0.111053 -4.22336e-21)
(1.02274 0.107858 -8.84207e-22)
(0.981359 -0.0566804 1.1162e-22)
(0.865084 0.0721571 -3.11022e-21)
(0.998947 -0.000413507 -1.91944e-23)
(0.990069 -0.00241197 6.2439e-23)
(0.953802 -0.012877 2.30416e-22)
(1.0355 -0.0023253 -1.9995e-22)
(0.990118 -0.113559 -5.00692e-23)
(1.18235 0.164506 -1.42542e-21)
(0.929176 0.0879995 -6.61238e-21)
(1.00006 -0.000101751 6.59025e-25)
(1.00923 -0.00727604 3.31108e-23)
(1.03355 0.0212801 1.78664e-21)
(0.996464 -0.00560871 -6.22088e-23)
(1.03876 0.0177233 -2.22652e-22)
(0.999515 -0.0011986 -1.70042e-24)
(0.88559 0.122707 5.52253e-21)
(1.01526 0.112174 8.65364e-22)
(0.99479 -0.00198662 5.88108e-23)
(1.00332 -0.00815802 -1.4529e-24)
(0.999713 -6.24921e-05 -1.09193e-23)
(1.22748 0.087131 1.45534e-22)
(0.999912 -9.82838e-06 8.93254e-25)
(0.995052 -0.0102365 2.99626e-23)
(0.94424 -0.0250469 3.19225e-22)
(0.999932 -2.46516e-05 -2.01638e-25)
(0.998833 -0.00274531 -6.69056e-24)
(0.99962 -0.00116405 3.0895e-24)
(1.09468 0.0439839 1.12334e-21)
(0.999981 -2.38359e-05 3.22306e-25)
(0.995735 -0.000477392 3.46202e-26)
(0.959887 -0.0393381 8.72313e-22)
(0.834443 0.0383087 -1.83566e-21)
(1.08259 -0.0241265 -9.74836e-23)
(0.903391 0.0832553 4.06202e-21)
(0.999957 -7.52252e-06 -5.08855e-25)
(1.00014 -0.0433863 -6.33795e-24)
(0.999828 -0.000298144 -2.47885e-24)
(1.00796 0.125153 -3.94587e-21)
(1.00373 -0.000789387 -3.07061e-23)
(0.994159 0.0421185 1.85324e-21)
(1.00249 -0.009756 -2.19046e-23)
(1.00073 -0.00199794 1.00958e-23)
(1.02597 -0.0370606 -1.30474e-23)
(1.02492 -0.00128589 -9.03732e-22)
(1.00054 -0.000322481 4.93779e-24)
(0.999787 -5.16998e-05 5.78631e-26)
(1.00048 -0.000434416 1.10834e-23)
(0.996277 -0.00594681 -5.58455e-23)
(1.00854 -0.0660361 3.38965e-22)
(0.999959 -1.00032e-05 3.43629e-25)
(0.964422 -0.0266257 2.02059e-22)
(0.99652 -0.00106164 -2.39055e-24)
(0.999867 -4.3473e-05 1.22294e-24)
(0.999416 -0.000563807 2.1335e-24)
(0.987823 0.0756759 4.51047e-21)
(0.992532 -0.000790009 2.42945e-23)
(0.999284 -9.97327e-05 -2.23513e-24)
(0.874947 0.0173397 6.83922e-21)
(0.998689 -0.00263678 -1.51838e-23)
(1.10483 0.127324 -1.12284e-21)
(0.999808 -0.000275296 4.47326e-24)
(1.00667 -0.0223847 -4.86076e-24)
(1.00002 -1.80876e-06 -1.81286e-26)
(0.982139 -0.0327856 -1.5099e-22)
(1.03459 -0.00258533 3.12209e-22)
(1.19162 -0.0855256 7.20614e-22)
(0.979047 -0.0183542 2.68962e-22)
(0.999617 -0.000590451 8.11176e-24)
(0.975205 -0.0705565 1.94767e-22)
(0.984542 -0.000450422 1.10625e-22)
(0.99983 -1.84799e-05 1.17547e-25)
(1.00046 -0.000380965 -9.80353e-24)
(0.998062 -0.0034302 2.09904e-23)
(0.992881 -0.00141758 -7.27011e-23)
(1.00284 -0.000930729 -3.63094e-23)
(0.998857 -0.00189182 1.00326e-23)
(0.97714 -0.00836444 3.716e-23)
(1.01294 -0.0649944 -2.43123e-22)
(0.977272 -0.00703233 1.63853e-22)
(1.12921 -0.0905465 -4.27734e-23)
(0.97008 -0.00766927 -2.1072e-22)
(1.03474 0.145649 4.40249e-22)
(1.02852 0.150051 -3.28695e-21)
(0.998589 -0.000753182 -1.67125e-23)
(1.20929 -0.109972 -1.51911e-21)
(0.999984 -3.07879e-06 -3.08265e-26)
(0.998008 -0.00424359 -2.57601e-23)
(0.975564 -0.00195673 4.25386e-22)
(1.0097 0.0324553 9.56956e-22)
(1.04706 0.00843826 -8.19401e-22)
(1.00009 -3.18209e-05 1.34414e-24)
(0.998137 -0.00400652 -1.70596e-24)
(0.971089 -0.00850883 1.58028e-22)
(1.07122 0.0417411 -4.96879e-22)
(0.999072 -0.00117821 8.69908e-24)
(1.00325 -0.000755935 2.05269e-23)
(1.00118 -0.000982569 -1.80564e-24)
(1.15684 -0.0212924 -2.49873e-23)
(1.16481 -0.16771 -1.0292e-21)
(1.07037 0.178043 1.97064e-21)
(0.998501 -0.000244817 -1.63065e-23)
(1.05607 -0.055242 1.32463e-22)
(0.999892 -6.68831e-05 -1.00186e-24)
(1.00452 -0.007263 -6.89855e-23)
(0.999949 -1.34875e-05 -1.44004e-25)
(0.98572 -0.0200354 4.73991e-23)
(0.999674 -7.41069e-05 -2.0878e-24)
(1.01106 -0.0225295 1.51132e-23)
(1.22702 -0.136612 1.59891e-21)
(0.974416 -0.0256921 3.2566e-22)
(1.0079 -0.0219135 -3.7908e-24)
(1.00828 -0.00648722 -4.28882e-23)
(0.999312 -0.000130233 1.00289e-23)
(1.02597 -0.0202956 9.36728e-23)
(0.99631 -0.0184363 4.89082e-23)
(1.09157 -0.00600873 -2.34389e-22)
(1.08673 0.0428867 5.31568e-22)
(1.0875 -0.17835 1.50867e-23)
(1.11999 -0.108134 -4.86888e-22)
(0.98388 -0.000910468 -1.18509e-22)
(1.00487 -0.00364181 6.5353e-23)
(0.946269 -0.0238239 -1.23554e-22)
(0.905664 0.108366 -8.23259e-21)
(1.10388 -0.0963912 5.72609e-22)
(1.02762 -0.0131104 -3.89662e-22)
(0.876918 0.0784105 -4.15972e-21)
(0.998553 -0.000186882 8.07011e-24)
(0.998349 -0.000927549 -5.15631e-24)
(1.14228 -0.112116 -5.27882e-22)
(0.998995 -0.00205123 -5.37522e-24)
(1.00832 -0.0422156 2.88085e-23)
(1.00564 -0.00175286 2.28819e-23)
(0.997308 -0.000411512 -1.28391e-23)
(0.998028 -0.000344603 -2.02336e-23)
(1.04136 0.027265 1.04492e-21)
(0.999937 -0.000147499 -7.85982e-26)
(1.00052 -0.000265123 -4.39271e-24)
(1.00008 -1.2753e-05 1.00258e-24)
(0.996696 -0.000644456 6.83886e-23)
(0.993949 -0.00896078 7.74899e-23)
(0.999983 -2.31406e-06 2.35373e-26)
(0.998961 -0.00024495 2.06548e-24)
(0.979888 -0.0162044 9.42211e-23)
(0.936363 0.0231537 2.15825e-21)
(1.00957 -0.0231938 5.06272e-24)
(0.993044 -0.0117651 1.26072e-22)
(0.952927 0.0863836 9.08618e-22)
(1.00138 0.0305534 2.6976e-21)
(1.07468 -0.0134146 -2.03564e-22)
(1.2082 -0.0955101 5.22799e-22)
(0.948864 -0.00410842 3.98422e-22)
(1.00482 -0.00421504 -3.23043e-23)
(1.01298 0.0558468 -1.50483e-22)
(0.989225 -0.00212786 -1.47197e-22)
(1.0728 0.131903 3.56561e-23)
(1.00363 -0.0487338 4.57047e-24)
(1.01032 -0.109605 -2.1137e-22)
(1.14346 0.0862455 5.75976e-22)
(1.07834 0.140496 -1.62599e-21)
(0.965879 -0.0230748 4.45931e-22)
(1.04768 0.0058466 -5.18586e-22)
(1.1949 0.171872 1.29738e-21)
(1.09499 0.130295 2.23092e-21)
(1.02581 -0.00303248 3.0611e-22)
(0.997116 -0.00143276 1.47866e-23)
(0.995991 -0.00220968 1.28975e-23)
(0.999915 -2.41695e-05 -4.7222e-25)
(1.01463 -0.0294054 5.99308e-24)
(0.988923 -0.00178335 3.47472e-23)
(1.00097 -0.00232495 -8.34611e-24)
(0.999898 -2.41493e-05 -8.86323e-25)
(0.998471 -0.000688104 6.54238e-24)
(0.973258 -0.0691528 -3.24969e-22)
(1.14567 0.00598133 1.39586e-22)
(0.983357 -0.00568004 -1.88751e-22)
(0.999109 -0.0122457 5.40687e-23)
(0.996359 -0.000710389 -3.63895e-23)
(1.05245 -0.0565684 -1.22646e-23)
(0.993197 -0.00148804 -1.16474e-22)
(1.00228 -0.00731061 2.50261e-23)
(1.21787 0.149396 2.35945e-22)
(0.998238 -0.000328648 -4.69951e-23)
(0.999979 -4.55753e-05 -2.24436e-25)
(0.999949 -0.000178204 -1.25946e-25)
(1.00005 -0.000104063 8.59175e-25)
(0.979401 -0.00735625 8.66653e-23)
(1.0388 0.0249147 -1.22688e-21)
(0.996137 -0.000540606 1.43867e-24)
(1.02341 -0.0109395 2.54522e-22)
(0.994503 -0.119512 3.99209e-22)
(0.999508 0.110245 -9.16253e-23)
(1.0038 -0.0073944 2.26434e-23)
(1.00645 -0.00470908 -1.08191e-23)
(0.995115 -0.00247376 -4.67039e-23)
(0.993446 0.0742722 -4.39116e-21)
(0.998995 -0.000129643 6.69787e-24)
(1.07712 0.184703 -9.67297e-22)
(1.00971 0.0222881 -1.4632e-21)
(0.999888 -2.96184e-05 1.03737e-24)
(1.0016 -0.0492494 -1.69637e-22)
(0.996811 -0.00074608 -3.34184e-23)
(0.986706 -0.0569861 5.02479e-22)
(1.00054 -0.000142083 4.40115e-24)
(1.07058 -0.0085927 2.96181e-22)
(1.00652 -0.0164092 -6.62871e-25)
(1.00603 -0.00428582 5.44696e-24)
(0.99919 -0.000158456 -1.33032e-23)
(1.09977 0.0383026 5.15387e-22)
(1.06467 0.0410039 1.86918e-22)
(1.00056 -0.0642339 2.7691e-22)
(0.980519 -0.0189387 -1.79878e-23)
(0.997952 -0.0036613 -1.81021e-23)
(0.997866 -0.0392492 -3.06162e-22)
(1.2083 -0.00322793 7.64628e-23)
(0.841922 0.0593609 -4.0459e-21)
(1.06142 -0.0976163 -3.0544e-22)
(1.00499 -0.00787042 -1.02061e-23)
(0.999994 -3.2722e-06 -7.14528e-27)
(0.987263 -0.00468962 -1.51483e-22)
(0.997838 -0.000377392 4.3616e-23)
(1.02458 -0.0202378 1.36043e-22)
(0.989152 -0.0965312 -1.67768e-22)
(1.19497 -0.119315 5.54068e-22)
(0.984735 0.104386 -5.43467e-21)
(1.07522 0.0360148 7.88089e-22)
(1.07142 -0.136728 4.61441e-22)
(1.1227 0.0938919 2.67909e-22)
(0.999365 0.0339809 5.15894e-21)
(1.01968 -0.00275232 2.19849e-22)
(1.00117 -0.00225388 1.92037e-23)
(1.03877 0.0766473 8.36074e-22)
(0.999184 -0.00200083 1.19596e-23)
(0.999825 -0.000165337 9.83559e-25)
(0.982604 -0.00188635 5.35687e-23)
(1.00009 -3.14329e-05 2.52125e-25)
(1.0657 -0.153216 2.08479e-22)
(1.00336 -0.0178896 -1.40193e-23)
(0.984109 -0.032472 2.54378e-22)
(1.00182 -0.00154482 9.93022e-24)
(1.10902 0.0815861 1.58084e-21)
(0.998315 -0.000312631 -3.87117e-24)
(0.999976 -3.64806e-05 -2.12363e-26)
(1.00386 -0.111099 2.27314e-22)
(1.00161 -0.00133858 -5.82394e-24)
(1.11643 -0.0411261 -5.03599e-23)
(0.957595 -0.0133413 8.20861e-23)
(0.939536 -0.0155254 4.00521e-23)
(1.26925 -0.0767742 1.11423e-22)
(1.0303 0.0207588 -4.65627e-22)
(1.02401 0.00580344 2.87676e-22)
(1.02251 0.00560609 -1.12219e-22)
(0.999804 -4.26021e-05 3.47628e-25)
(1.15518 -0.000969016 7.44038e-23)
(1.0941 -0.00155842 2.74385e-22)
(0.999507 -0.000634659 3.1267e-24)
(0.984088 -0.00618311 2.18925e-22)
(1.00059 -0.00020383 -4.90032e-24)
(1.0112 -0.0207614 -8.6551e-23)
(1.00708 -0.0288206 -1.15429e-23)
(1.00434 -0.00136332 1.46068e-25)
(0.999275 -0.00126144 -1.41643e-23)
(1.21617 0.074588 -4.34526e-22)
(0.999979 -2.18186e-05 -3.72501e-25)
(1.0002 -0.000108678 -1.29889e-24)
(1.00191 -0.00105097 -4.33147e-25)
(0.978619 -0.00317788 1.48383e-22)
(1.01918 -0.0123917 1.75823e-22)
(0.983741 -0.0273901 -3.57459e-22)
(0.973731 -0.00487124 -8.59778e-23)
(1.00604 -0.0622782 1.56719e-22)
(1.00474 -0.131 -4.30199e-22)
(1.0247 -0.0339854 1.78801e-23)
(1.04485 0.0767196 -4.71016e-21)
(1.22935 -0.118645 -1.06788e-21)
(0.993701 -0.00251363 -6.04738e-24)
(0.879608 0.114425 6.65373e-21)
(0.974313 -0.0510963 5.34675e-22)
(0.99364 -0.00949659 2.43419e-23)
(0.974401 -0.00404512 1.41135e-22)
(0.997443 -0.0178741 -1.38982e-23)
(0.979941 -0.00231887 2.25608e-22)
(0.990406 -0.00376128 -4.41958e-23)
(1.02766 -0.015058 -2.63152e-22)
(1.10811 -0.104371 -1.43423e-22)
(0.999975 -4.24669e-05 -3.11764e-26)
(1.02356 -0.0141126 -3.08198e-23)
(0.999907 -2.95339e-05 -5.04041e-25)
(1.02223 0.125206 1.03663e-21)
(1.23682 0.0267448 -1.336e-22)
(0.995409 -0.00189098 1.48092e-23)
(0.98648 -0.00167091 -2.04001e-22)
(0.99982 -5.27694e-05 -2.54569e-24)
(0.999783 0.0643252 3.21513e-21)
(1.05725 0.141188 2.24864e-21)
(1.15214 -0.0136017 3.26576e-23)
(1.25356 0.117065 -1.67689e-22)
(0.973934 -0.0540826 -2.34808e-22)
(0.998165 0.0102621 -5.0307e-21)
(0.999941 -0.000130631 4.74082e-25)
(1.04637 -0.0350534 2.08828e-22)
(0.982256 -0.00143797 -8.25293e-24)
(1.14697 0.0627987 -2.50888e-22)
(0.9168 0.0794666 -4.90013e-21)
(1.20599 -0.0166669 -3.87626e-22)
(1.06536 0.0293966 1.28043e-22)
(0.999783 -0.0121525 -9.45334e-24)
(0.999807 -8.22322e-05 -2.32966e-24)
(1.24339 0.0854624 5.48528e-23)
(1.17632 -0.144156 2.24143e-22)
(0.996759 0.0782942 -9.23903e-23)
(1.10784 -0.0380424 7.80806e-23)
(1.04541 0.0592545 1.38351e-21)
(0.993326 -0.00224314 -2.06869e-23)
(0.993954 0.104184 1.45835e-21)
(1.06282 0.132244 7.65229e-22)
(0.99148 -0.00318824 -1.23842e-22)
(0.992881 -0.00298175 -4.60504e-23)
(1.25027 0.0546166 -2.94459e-23)
(0.937387 -0.014345 -5.60908e-22)
(0.999919 -0.000151556 -7.37873e-25)
(0.987865 -0.00507496 1.9486e-22)
(0.941866 -0.0202569 4.10986e-22)
(0.982204 -0.0693765 -6.76975e-23)
(1.00951 -0.00246361 -1.87033e-22)
(1.0083 -0.00590654 1.15447e-23)
(0.999882 -0.000188691 -1.38827e-24)
(1.06164 0.150006 -3.4002e-21)
(1.00016 -0.0110716 1.55308e-24)
(0.999902 -5.82231e-05 4.46895e-25)
(1.014 -0.0601227 2.06215e-22)
(0.99953 -0.000417521 2.77256e-24)
(0.999787 -7.34016e-05 1.76727e-25)
(1.00492 -0.0120188 -1.13814e-23)
(1.09142 0.0866449 2.29247e-21)
(1.00115 -0.0991641 3.09417e-22)
(0.940973 0.0807084 2.84275e-21)
(1.00006 -9.39955e-06 -7.01767e-25)
(1.10114 0.0899862 -2.35895e-21)
(1.00918 -0.0508157 1.45037e-22)
(0.999928 -0.000186114 -2.0898e-25)
(1.00002 -6.08797e-06 -2.14626e-25)
(1.00287 0.0120959 -2.3957e-22)
(1.08088 0.0732735 8.78238e-22)
(0.996271 -0.00233372 1.28526e-23)
(1.06946 0.0547065 -1.16444e-21)
(1.00003 -1.96278e-05 1.56457e-25)
(1.07142 0.0623085 -1.58019e-21)
(1.07811 -0.170173 6.07274e-22)
(0.991028 -0.0028542 1.36184e-22)
(0.999038 0.0162067 -6.74532e-21)
(0.97585 -0.0430967 3.5771e-22)
(1.25573 0.100169 4.66344e-23)
(0.975551 -0.00404787 8.56356e-23)
(1.07914 0.0649467 2.06849e-21)
(1.08957 0.0762703 -6.40808e-22)
(0.984844 -0.00764801 3.17193e-22)
(0.980252 -0.00923448 -2.33031e-22)
(0.995206 -0.00952971 7.28642e-23)
(0.997349 -0.000701083 -1.09815e-23)
(0.999811 -0.000183706 2.67681e-24)
(0.999956 -0.01059 -2.83299e-24)
(1.07751 0.121841 -3.89501e-22)
(0.999973 -3.33393e-05 9.48e-26)
(1.0624 0.0529568 1.53561e-21)
(1.012 -0.102815 5.14747e-22)
(1.01174 0.0810709 1.23819e-21)
(1.06045 0.0466576 -1.77033e-21)
(0.939684 -0.0189292 -5.11674e-23)
(0.949987 0.103801 -5.94355e-21)
(0.998529 -0.00110887 9.27925e-25)
(1.01466 -0.0270962 3.27086e-23)
(1.03608 -0.0849492 1.51721e-22)
(0.98079 -0.00219003 -1.38133e-23)
(0.994065 -0.00316369 6.14e-23)
(1.00648 -0.0515389 -1.25907e-22)
(1.05609 -0.0285285 -2.03202e-23)
(0.891271 0.0714018 7.80621e-21)
(1.00004 -1.83691e-05 7.58335e-25)
(0.998262 -0.00118122 1.25116e-23)
(1.00825 -0.0738479 6.47853e-24)
(1.00001 -4.89079e-06 2.54035e-26)
(1.02395 0.134248 5.14611e-22)
(1.00164 -0.00116048 0)
(1.00001 -6.53875e-06 1.94683e-26)
(1.00018 -8.43519e-05 3.05156e-24)
(1.00038 -0.000118264 6.10975e-26)
(0.986062 -0.0187757 2.39371e-22)
(1.02238 -0.0188025 -9.67453e-23)
(0.998596 -0.000866109 1.96878e-23)
(0.999919 -1.68382e-05 9.36495e-25)
(0.99368 -0.00296027 3.40877e-23)
(1.00425 -0.012482 -7.53784e-24)
(0.979442 -0.0993156 -4.6051e-22)
(0.944756 -0.00646272 3.98114e-23)
(1.01857 -0.0110324 3.14252e-22)
(0.999975 -2.6784e-06 2.94602e-25)
(1.04089 -0.159035 6.28188e-22)
(0.988072 -0.00354197 -7.79762e-23)
(1.22003 0.056013 2.1365e-23)
(1.00041 0.0124383 -8.85792e-22)
(1.00119 -0.00339295 4.42382e-24)
(1.19068 0.0511413 -5.16178e-22)
(1.00014 -9.10239e-05 -4.39846e-28)
(0.988632 -0.00397828 2.24473e-24)
(1.02579 0.000449899 -5.64737e-22)
(0.994091 -0.00360092 -2.5138e-23)
(1.09917 0.107324 -1.43495e-22)
(0.988528 -0.00620823 -1.47288e-22)
(1.04868 -0.0327858 -1.95963e-22)
(1.02622 0.00105083 -6.10627e-22)
(1.08304 0.0363894 -3.15082e-22)
(1.00692 -0.0150992 -4.37636e-23)
(0.990889 -0.00405955 3.66592e-24)
(1.12733 0.0739151 8.48437e-22)
(0.975616 -0.0744384 -3.86977e-22)
(1.00675 0.133324 4.35529e-21)
(0.991936 -0.00461083 -1.43639e-22)
(1.11362 0.147207 -5.76188e-23)
(0.991921 -0.00404182 3.83888e-23)
(0.998952 -0.000498117 -1.28484e-24)
(1.06356 0.0252921 3.7682e-22)
(1.01271 -0.0304904 2.93735e-24)
(1.0405 -0.000145405 8.05846e-22)
(1.0017 -0.000805103 6.47733e-24)
(1.00001 -5.1941e-06 8.93686e-27)
(0.985105 -0.11389 1.67456e-22)
(1.20957 0.137636 -9.38334e-22)
(1.00142 -0.00329586 -6.17022e-24)
(1.20608 0.045162 1.97368e-23)
(0.989158 -0.00580069 -9.65244e-23)
(1.03332 -0.159645 -2.3553e-22)
(1.04106 -0.0487788 -1.87515e-23)
(0.983296 -0.0290649 2.01505e-22)
(0.99849 -0.000966266 -8.32836e-24)
(0.992169 -0.00102142 -2.92524e-23)
(0.972322 -0.0634477 -2.25465e-22)
(0.973576 -0.00868615 3.20632e-22)
(0.991435 -0.0037618 1.01379e-22)
(0.999868 -0.000426569 1.18391e-24)
(0.996867 0.141677 -5.732e-22)
(1.17885 0.041447 2.76885e-22)
(1.02462 -0.0122324 -9.90696e-23)
(0.999818 -0.000143061 1.79125e-24)
(1.05789 0.12396 -1.5049e-21)
(1 -2.34329e-05 3.82342e-26)
(0.999832 -0.000127604 3.54518e-24)
(1.16497 0.0463573 3.51544e-22)
(1.0091 -0.0251614 1.53025e-23)
(1.21754 0.108117 6.16342e-22)
(1.02456 -0.00341683 2.2963e-22)
(1.01652 -0.0134247 -1.97889e-23)
(1.07544 -0.0905282 2.16388e-22)
(1.02031 -0.128475 5.15499e-22)
(1.25957 -0.0825144 4.83403e-22)
(1.00119 -0.000826966 -1.42371e-23)
(0.959173 -0.0145976 -3.14367e-23)
(0.999983 -5.58081e-05 -6.59759e-26)
(1.00466 -0.010896 8.27359e-24)
(1.1039 0.0992292 8.42907e-22)
(0.985649 -0.00717883 2.2161e-22)
(0.997492 -0.00140405 1.73418e-23)
(1.01127 -0.0414049 -8.73506e-23)
(0.998232 -0.00104222 1.19082e-24)
(0.999644 -0.00104785 3.66555e-24)
(0.88259 0.0165177 1.39737e-21)
(0.991452 -0.00495384 -8.12477e-23)
(0.999507 -0.000692481 -1.08071e-23)
(0.999984 -5.91587e-07 -6.12088e-26)
(1.0192 0.0072808 1.26112e-21)
(0.975165 -0.0240869 -4.84754e-23)
(0.999706 -0.000523345 3.22873e-24)
(0.9975 -0.000816709 2.23877e-23)
(1.028 0.0236021 5.18894e-22)
(1.07959 -0.00142925 7.65965e-23)
(0.965801 -0.0210675 -2.77297e-22)
(1 -1.49096e-05 1.22527e-26)
(1.00128 0.0115424 3.50056e-21)
(0.987317 -0.0163881 -1.6262e-22)
(1.1058 0.0718896 -1.58407e-21)
(1.01246 -0.00124605 -2.85768e-22)
(1.01454 -0.00132695 6.53303e-22)
(0.972056 -0.0107791 4.36822e-22)
(0.999913 -6.17228e-05 -2.92393e-25)
(1.02545 0.000221899 -1.1557e-22)
(1.084 -0.00661819 -8.28064e-23)
(1.24556 -0.0460062 -6.48686e-22)
(1.01833 -0.100697 1.21771e-22)
(1.07118 0.11413 1.12956e-21)
(1.00536 -0.00163037 -4.58128e-24)
(1.1395 0.0756402 -1.1587e-21)
(0.999776 -0.0142036 -1.60063e-23)
(1.01093 -0.0571219 -3.42515e-22)
(0.999646 -0.0001575 -3.49633e-24)
(1.00265 -0.0190169 2.74742e-23)
(0.999907 -0.000408837 4.43777e-25)
(1.06141 0.0345792 -1.14665e-21)
(1.1506 0.155695 -2.71879e-21)
(0.998669 -0.00114148 6.62221e-24)
(1.01801 -0.0137682 2.43113e-24)
(0.984377 -0.00430696 7.61089e-23)
(1.02519 -0.0914908 5.79634e-23)
(1.01921 -0.0942177 -2.57888e-22)
(0.99832 -0.000823582 1.31793e-23)
(1.04279 -0.0347045 -6.67036e-23)
(0.892958 0.00486036 -2.33851e-21)
(1.22019 -0.0594381 -5.51858e-22)
(0.999951 -0.00015861 1.02268e-24)
(1.07303 -0.00278773 -2.65634e-22)
(0.997314 -0.00873403 -3.58027e-23)
(0.994517 0.00278736 4.79485e-21)
(0.98916 -0.00507451 1.34065e-22)
(0.995381 -0.0256766 -4.61156e-23)
(1.01437 -0.0374173 -3.90095e-24)
(0.994029 -0.026422 -6.33544e-24)
(0.998155 -0.0206801 -1.04932e-22)
(0.993261 -0.0032026 2.34693e-23)
(0.998949 -0.0140416 5.58656e-23)
(1.00181 -0.00616844 -6.85431e-24)
(1.05624 -0.032816 5.19293e-23)
(1.0001 -2.3512e-05 -1.95789e-24)
(1.12274 -0.175986 -3.63651e-22)
(1.16599 -0.08265 -2.19893e-22)
(1.04192 0.147687 2.87802e-21)
(0.967477 -0.0200129 4.19879e-22)
(1.19802 0.107243 -3.40645e-22)
(1.00181 -0.000625227 2.3106e-23)
(1.04998 -0.0896249 -1.00166e-24)
(1.00213 -0.0378479 -1.16435e-22)
(1.02638 0.0440634 1.551e-21)
(0.99372 -0.00388438 5.83735e-23)
(1.0001 -0.000175271 1.29356e-24)
(0.987918 -0.0170911 2.12232e-22)
(0.995996 -0.00929718 -2.76537e-23)
(1.04052 -0.0314314 1.78025e-22)
(0.974968 -0.00667857 -2.70499e-22)
(0.979264 -0.00859675 7.70126e-23)
(1.11829 -0.0833206 -9.56037e-23)
(0.986794 -0.00282184 -1.33529e-22)
(1.01172 -0.0385472 5.98074e-23)
(0.982929 -0.0733571 2.83704e-22)
(1.00001 -7.80988e-06 1.64187e-26)
(1.06059 -0.0254283 3.25789e-22)
(0.985528 -0.0666438 -7.55388e-22)
(1.19695 0.0782386 2.41926e-22)
(1.07209 -0.0966586 -3.94567e-22)
(1.03864 -0.000308527 6.66638e-23)
(1.00731 -0.0981096 -6.48962e-22)
(1.07803 0.160458 7.04223e-22)
(1.0308 -0.0406462 2.30182e-23)
(0.970891 -0.00993271 -2.59313e-22)
(1.00994 -0.0475789 -1.72824e-22)
(0.951862 0.00702658 2.16944e-21)
(1.09815 -0.153718 1.90846e-22)
(0.988566 -0.00470999 -4.08033e-23)
(1.00172 -0.118029 -4.89311e-23)
(1.01625 -0.0680705 2.45061e-22)
(1.01565 -0.114855 -7.66295e-23)
(1.02529 -0.0851525 -2.8768e-22)
(1.12265 0.0642901 1.12407e-21)
(0.997516 -0.00161403 1.14113e-24)
(1.01078 0.052252 5.91123e-22)
(1.00725 -0.00158182 3.34994e-23)
(0.999648 -0.000529287 -4.62931e-24)
(0.998936 -0.00227099 3.29389e-23)
(1.06519 -0.00877958 -8.1721e-23)
(0.832305 0.00571733 6.99493e-23)
(1.00146 -0.00658613 3.2903e-24)
(1.01191 -0.0534529 4.85315e-23)
(1.02875 0.0273674 -8.60083e-22)
(1.00002 -7.0923e-06 -3.77547e-26)
(0.981243 -0.00870567 1.86171e-22)
(1.02191 -0.0109973 2.2548e-22)
(1.06715 -0.0595477 -9.56193e-23)
(1.0074 -0.000800961 1.8809e-22)
(0.998572 -0.00202529 6.00625e-24)
(0.983643 -0.0367884 2.74125e-24)
(0.99795 -0.00841333 -1.08576e-23)
(1.00003 -5.75064e-06 4.12901e-25)
(0.977809 -0.0424663 -6.03281e-22)
(1.08322 0.101647 -3.88599e-22)
(1.01692 -0.0333281 2.57878e-23)
(0.985057 -0.00488405 -1.42279e-22)
(1.00165 -0.000424573 -8.28932e-24)
(1.03279 0.028944 1.13035e-21)
(0.999656 -0.00064363 -2.13018e-24)
(0.998882 -0.000652791 -6.6838e-25)
(0.999676 -0.000172284 -3.1893e-24)
(0.999336 -0.00214432 -8.28356e-24)
(1.23376 -0.0282557 -2.2622e-22)
(1.02443 -0.0391701 -2.90149e-23)
(1.00708 -0.0190088 9.85591e-24)
(0.98403 -0.00717357 -6.51416e-23)
(1.00004 -5.15861e-05 4.00107e-25)
(1.03569 -0.130729 7.18781e-22)
(1.19363 -0.135977 4.16229e-24)
(1.03563 -0.139599 -3.41955e-22)
(0.995692 -0.0326022 -8.73254e-23)
(1.0131 -0.00975944 2.10217e-22)
(0.999808 -0.000100573 1.47076e-24)
(0.989648 -0.0112509 -8.4331e-23)
(0.961691 -0.041734 -3.45931e-22)
(1.21204 -0.0447845 1.02765e-22)
(1.0095 0.078514 -4.33506e-23)
(0.998955 -0.0032173 6.7039e-24)
(0.951108 -0.0288741 1.90982e-22)
(0.995759 -0.00275939 -5.59487e-23)
(1.02952 -0.037393 1.22371e-23)
(1.13933 0.0527095 6.75677e-23)
(1.0004 -0.000135281 -6.92151e-24)
(0.999857 -0.000217435 -5.45506e-25)
(1.25367 0.067312 -2.59747e-23)
(1.18811 -0.0598193 1.55527e-22)
(1.01689 -0.0166621 7.35288e-23)
(0.997345 -0.00175833 2.95362e-23)
(0.998112 -0.000469556 -2.93428e-24)
(0.967524 -0.0429785 8.46189e-23)
(0.999843 -0.000356902 -1.80085e-24)
(1.01451 -0.0346246 -2.43484e-23)
(0.987994 -0.00139608 2.75553e-22)
(1.00061 0.0143876 -7.39016e-22)
(1.09137 0.109028 -2.08242e-22)
(1.04785 -0.0827655 1.52015e-22)
(0.988833 -0.0677004 2.75799e-22)
(1.00603 -0.00142959 9.27248e-23)
(1.01265 -0.0258236 -4.31685e-23)
(1.16442 -0.0676995 -3.97271e-22)
(0.987112 -0.0745406 -1.73559e-22)
(1.013 -0.0465862 9.90982e-23)
(0.999999 -7.59046e-06 7.39199e-27)
(1.13962 -0.0713815 -3.67236e-22)
(0.976951 -0.00274166 2.60521e-23)
(0.984695 -0.081874 3.41389e-22)
(1.01682 -0.0307033 -4.1073e-23)
(0.961035 -0.0138907 -5.76402e-23)
(0.999637 -0.000301682 -1.55939e-24)
(0.997306 -0.00131421 -1.31873e-23)
(1.05421 0.0451791 1.36861e-21)
(0.973456 -0.0101287 -9.80584e-23)
(0.999986 -2.19842e-06 6.47949e-26)
(0.997407 -0.00054563 -3.10219e-23)
(1.10615 -0.142375 -1.11876e-21)
(0.999849 -5.24021e-05 3.72662e-24)
(1.01512 -0.0523642 -3.63583e-23)