/*--------------------------------*- C++ -*----------------------------------*\
  =========                 |
  \\      /  F ield         | OpenFOAM: The Open Source CFD Toolbox
   \\    /   O peration     | Website:  https://openfoam.org
    \\  /    A nd           | Version:  7
     \\/     M anipulation  |
\*---------------------------------------------------------------------------*/
FoamFile
{
    version     2.0;
    format      ascii;
    class       volScalarField;
    location    "28";
    object      p;
}
// * * * * * * * * * * * * * * * * * * * * * * * * * * * * * * * * * * * * * //

dimensions      [0 2 -2 0 0 0 0];

internalField   nonuniform List<scalar> 
7807
(
0.295515
0.0101417
0.442364
0.291592
-0.00159652
-6.13729e-05
0.445879
-0.00982248
-0.000207623
0.128371
-5.72154e-05
0.00448929
-0.0147143
0.0660725
0.1333
-0.019161
0.305927
-0.0191754
0.00214902
-0.0892334
0.0898687
0.0029643
0.0491596
0.236835
-0.0249407
0.305536
-0.00147253
0.0809178
0.20101
0.00477944
-0.0261613
0.670424
0.0483993
-0.000888145
-0.000183078
0.106399
0.00544585
0.432371
-0.00823166
-0.000617443
-0.00749636
-0.0183824
-0.0892919
-0.029022
-0.000362093
-0.000141323
0.0029064
-0.00851741
-0.000114959
-0.0868732
0.00673432
0.0767737
-0.0314571
-0.0031646
0.105475
-0.00875337
0.00229794
-0.00980748
-0.0404292
-0.000925669
8.6786e-05
0.00860866
0.0664318
0.00495226
-0.00180054
-0.0256071
-0.000162592
9.76846e-06
0.117842
-0.0079983
-0.000129059
-0.071276
-0.0241219
-0.0406707
-0.0185607
-0.0575405
0.435803
0.0878755
0.0837922
-0.0780353
-0.0141102
0.400901
0.125589
-0.0426476
-0.00267389
-0.00425472
-0.0105009
-0.0305169
-0.00120417
-0.0082949
0.205335
-0.0340502
-0.000235349
0.00233632
-0.00659617
-0.0421521
-0.067264
0.000780729
-0.00295368
-0.00214895
-0.0701942
0.0930023
-0.00625289
-3.17542e-05
-0.02273
0.211028
0.582849
-0.00931402
-5.37614e-07
0.0461096
0.276314
-0.0534001
-1.9629e-06
0.0490255
0.211199
0.000888296
-0.0614808
0.171868
-0.0498434
-0.0417578
-0.0730226
0.38351
-0.082209
0.0190054
-0.071083
-0.00178738
-0.0236447
0.00381346
-0.00190395
-0.0264065
-0.0857758
0.0837707
-0.00111768
-0.00142495
-0.044169
0.2683
0.471878
-2.70848e-05
0.0149654
-0.0917239
-0.038523
-0.0597019
-0.058118
-0.0391215
0.588686
-0.0218463
0.202388
-0.0394389
-0.053477
0.382445
0.101673
-0.0241964
-0.00280542
0.0969322
0.124838
0.402414
-0.0661277
-0.0146508
0.548596
-0.000103651
0.00119457
0.244946
-2.78343e-05
-0.00382972
-0.00742989
0.300501
0.301322
0.568522
-0.00435295
-0.0057812
1.13409e-05
-0.075535
0.000878127
0.01823
0.0162691
-0.0527964
-0.000231471
0.181165
-0.000233526
-0.000930478
0.296957
-0.000103725
-0.000197633
0.447703
0.00493777
-0.0458221
-0.0468874
-0.0385892
-0.0263313
-0.089601
-3.11813e-05
-0.0647811
0.187685
-0.00631025
0.000153451
0.231175
-0.0023296
-0.0248585
-0.0254669
1.30034e-05
0.0017856
0.274981
0.218471
0.404623
-0.0553631
-0.046937
-0.109696
0.0877926
0.271691
-0.000389334
7.73587e-05
0.552517
-0.0163021
-0.0011617
-0.0618306
-0.0247632
0.368701
0.376501
-0.0656114
0.636651
-0.00215896
-0.018793
-0.0720419
0.106195
-0.110169
0.262403
0.549893
0.000139538
0.0198715
0.182295
-0.00778387
0.168551
-0.00101438
0.605446
0.39477
-0.010427
0.0055208
-0.000571635
0.178371
-0.000167046
-0.011912
-0.0868085
-0.000128259
-0.00253219
-0.000796141
0.192347
-2.69969e-05
-0.00861227
-0.0758805
0.669563
0.0743598
0.59114
-7.69811e-05
-0.0290347
-0.000339185
0.419469
0.008262
0.473107
0.0028322
0.00151579
0.0118278
0.0915327
0.00119483
-0.000424766
0.00106059
-0.0082102
-0.0446873
-7.15342e-05
-0.0640839
-0.00707675
-0.000259805
-0.00120263
0.453387
-0.014682
-0.00147593
0.63825
-0.00279315
0.28966
-0.000381025
0.00139379
1.82899e-05
-0.0449545
0.101999
0.00970667
-0.0408103
-0.000780189
-0.0770613
-0.0286092
-0.000333236
0.00103162
-0.00420109
-0.0141704
0.00604431
-0.00238772
-0.0407831
-0.0374733
-0.0402141
-0.015467
-0.0505983
0.388671
0.402979
-0.00289574
-0.0218371
-1.12235e-05
-0.00457628
-0.0423088
0.230876
0.139498
0.000209442
-0.00422072
-0.0491569
0.201645
-0.0019278
0.00736411
0.00251979
0.0784188
-0.102194
0.369096
-0.00309811
0.00972947
-0.000208069
0.00845271
-9.21803e-05
-0.0318067
-0.000659185
0.00930659
-0.0511868
-0.0507347
0.00413695
0.0179648
-0.00142622
0.0406461
-0.0139405
0.107075
0.195686
-0.142435
-0.037625
-0.0293096
0.0104916
-0.0845091
0.579715
-0.0296457
0.0596843
0.624592
-0.00298827
-0.00339964
-0.0355007
-0.00210828
-0.0178794
0.0129178
-0.00546171
-0.00405668
0.19218
-0.000115735
0.00114693
0.000170232
-0.00663936
-0.0134899
-1.37752e-05
-0.00213563
-0.0388188
0.547489
0.00558606
-0.0159674
0.515258
0.341166
0.0921863
-0.00927086
-0.0762612
0.0101464
0.291261
-0.0207368
0.329077
-0.0313673
-0.0935748
0.221465
0.330923
-0.0601802
0.131494
0.259665
0.302319
0.0858139
-0.00593167
-0.00819629
-0.000159828
0.00718343
-0.021155
0.00199795
-0.000196671
-0.00314606
-0.0772529
0.116388
-0.0308518
-0.00518619
-0.00737878
0.00655985
-0.0134979
0.00365069
0.231893
-0.00367004
-3.1073e-05
-8.98081e-05
0.000114669
-0.0371536
0.186898
-0.00780339
0.0546452
-0.118875
0.424226
0.00674647
0.0137927
-0.00991474
0.438675
-0.00206575
0.364632
0.206517
-0.000215499
-0.0346945
-0.00641357
-0.0564185
0.00117784
0.101277
0.00692138
0.0127998
-0.00166457
0.177506
0.205012
-0.0533293
-0.0389724
-0.00446288
-0.0285615
0.093891
0.659062
-0.0493322
0.00931173
-7.23077e-07
-0.0243221
-0.00444383
0.0372304
-0.097637
-0.0349699
0.453419
0.188268
-0.0962111
0.241354
0.428813
0.0537438
0.00244902
0.302132
-0.00175061
-0.000344942
-0.0313888
0.000191234
-0.122891
-0.00036043
-0.0406971
0.00389304
0.236533
-0.00347589
-3.63245e-05
-0.101251
0.00353295
0.0548867
-0.067764
-0.0900893
0.0204426
0.183878
0.152381
0.15634
-0.000390396
0.107299
0.115543
-0.00102264
-0.0297154
0.00126198
0.0116496
-0.00401473
0.00963633
-0.00151516
0.171599
-3.02707e-05
0.000424243
0.00402575
-0.0385267
0.0406044
-0.0385072
-0.0447666
-0.0412344
-0.119543
0.0157594
0.293006
-0.0363714
-0.0125991
0.612919
-0.0652423
-0.0141273
-0.0448716
-0.0113053
-0.036307
-0.0187991
0.0545766
-0.0358905
-3.91615e-05
0.0477397
-0.000176351
0.392317
0.127947
-0.00932023
-0.0252769
-0.000357128
0.402518
0.356677
0.0881059
0.182107
-0.0700027
0.486181
-0.000106688
0.0376061
-0.0319813
0.187918
0.573107
0.0798134
0.181065
-0.00358913
-0.000386309
0.166937
-0.0648676
0.419765
0.0565671
0.257984
-0.0132937
0.432419
0.34133
-0.016737
-0.0142301
0.142725
-0.0916302
-0.000149405
-0.0233024
-0.0880196
-0.0716391
0.0222123
0.0184461
-0.00023041
0.359199
-0.00199529
-0.000189277
-0.032769
-0.000951544
-0.000425518
0.00675661
0.255942
-0.0899457
0.53544
0.000138278
0.253214
-0.0266795
-0.000130075
4.28814e-05
0.198246
0.247806
-0.00767029
0.226773
6.06206e-05
0.23817
-0.136507
-0.0175179
0.449001
-0.0590535
0.173267
-0.0430206
0.235825
0.244431
-0.0287482
-0.0362791
-0.0111444
-0.00540628
-0.000376289
-0.00223654
0.312891
-4.27085e-05
0.229837
-0.0855217
0.366347
0.219124
-0.0900085
0.520697
-0.00304243
0.0100597
-0.0452769
-0.034726
-0.0119907
-0.031241
0.0555595
0.604988
9.65146e-05
-0.00358833
-0.0515177
1.53098e-05
0.399002
0.00358856
1.51972e-05
0.000405384
0.000785938
-0.0302196
0.0357264
-0.00288997
-0.000154522
-0.01271
0.00482055
-0.107322
-0.0825444
0.0411677
-3.63787e-05
-0.140246
-0.022794
0.149419
0.361166
0.00225506
0.156449
0.000324607
-0.0218426
0.116633
-0.0120226
0.272444
-0.0223819
0.0420618
0.120805
0.185187
0.00875788
-0.0179228
0.21442
-0.0856798
0.426001
-0.0161588
0.300549
-0.0160674
-0.00215501
0.172789
0.00284494
0.115569
0.00370029
1.31556e-05
-0.118591
0.225613
0.00282294
0.144561
-0.0212701
-0.141872
0.0102607
-0.0398617
-0.00311809
-0.0153034
-0.0758092
-0.0459152
-0.0169301
-0.000258838
0.448279
0.150927
0.0543553
-0.000360505
0.339634
1.58429e-05
-0.000330972
0.161451
0.00306054
0.199814
0.0797052
0.032205
-0.0327387
-0.116317
0.0174513
0.00256585
-0.0659858
-2.26103e-05
0.00716872
0.263818
-0.0274485
-0.00517168
-0.0124866
-0.00363486
-0.000742254
0.626133
-0.0170566
-0.00101495
-8.87589e-06
0.167385
-0.0479951
-0.000598687
-0.00511751
0.192672
0.114452
-0.0593038
8.13758e-06
0.211139
-0.0270465
0.225927
0.0309395
0.0378584
-0.0484127
-0.000165776
0.117923
0.105439
0.0521016
-0.0771417
0.312962
0.011651
0.209249
-0.00465672
-0.0318523
-0.000722454
-0.00254136
-0.000176668
0.194322
0.279189
-0.00275048
0.0358117
-0.0290917
-0.0605788
-0.0695431
-0.00343856
0.0345098
0.598219
0.0329504
-8.52517e-05
0.11287
-0.0069109
0.514055
-0.0211001
-0.0199749
-0.00316567
-0.0231057
-0.0120188
-0.0135111
-0.00616401
0.00298308
0.0474784
0.000222366
-0.120715
0.00499511
0.380931
-0.0570868
0.206353
0.0039393
-0.0418094
-0.0205129
0.243071
-0.0127418
0.000228208
-0.0264274
-0.00965836
0.0375328
-0.0439466
-0.0378329
-0.0033798
-0.0246223
-0.00860271
-0.0772585
1.45384e-05
0.0646427
-0.0670641
0.181168
-0.0439042
0.114751
-0.0818914
0.345772
0.0121317
-0.0500403
-0.0219607
0.542664
-0.09869
-0.0220956
-0.11026
-0.0388918
-0.0982016
-0.0535585
0.204778
-0.00514404
0.284256
0.0166662
-0.000717539
-0.00227032
0.100154
0.67604
0.00211834
-0.0270003
0.201399
5.08176e-05
-0.0347568
0.0499893
0.0104177
0.0169009
-0.00303915
-0.0450627
-0.00560069
6.4226e-05
-0.05619
0.285483
0.00555041
-0.0279439
0.00363412
0.20121
-0.000695679
-0.00230487
-0.000657208
-0.00144102
0.0688478
0.00597202
0.00583695
-0.0300034
9.98698e-05
-0.105277
-0.0517739
-0.122268
-0.0248825
0.0277677
-0.000383307
-0.0217367
-0.0740259
0.0498705
0.368796
-0.00233873
-0.0801828
-0.0087326
0.0154391
0.180633
0.000867478
-0.000276764
0.151506
0.0348033
0.0279118
-0.00549304
-0.00384815
-0.0681246
-0.000309218
0.000377944
-0.0226365
0.321472
0.284094
-0.0347164
-0.0642944
0.0137416
0.00823187
0.0204509
-0.0740564
-0.0166206
1.68467e-06
0.0145742
-0.0413731
-0.0811498
0.00877097
-0.0639182
-0.000733073
-0.00555076
0.221315
-0.0465353
-6.0998e-06
-0.00522769
-0.0864269
-0.00029701
-0.0212916
-7.74273e-05
0.00767028
-0.104138
-0.035441
-2.33979e-05
6.73594e-05
0.146249
-0.0507597
0.40518
0.29047
0.00940919
-0.00107992
-0.0173353
0.000438061
-0.0873603
-0.0881459
0.0107045
-0.0271918
0.280475
0.0153958
0.000545572
0.0108281
-0.110191
0.0037345
-0.0266113
-0.0717781
0.00382869
0.0301662
0.0854095
0.0149543
-0.0371985
-0.060899
0.20995
-0.0321644
-9.67604e-08
-0.100864
-0.0772283
-0.0387001
0.00783741
0.00146252
0.0142312
-0.103027
0.0437172
-0.0435096
0.155034
-0.0452095
0.0110017
0.0265656
0.0222755
-0.0443967
-0.0997316
-0.000169999
0.165789
0.229066
0.0108801
0.231023
-0.0746863
0.0597521
-0.0501427
0.220525
0.118674
0.591391
1.14478e-05
0.121377
0.197609
0.0203499
-0.00210401
-0.0235333
-3.47532e-05
9.54635e-05
-0.0234931
-0.0568908
-0.0257498
-0.0283796
0.000265087
-0.0702894
-0.000517042
-0.00124268
0.259705
0.0093324
0.0924965
0.0279165
0.226643
0.0158126
-0.000544941
-0.0945722
0.011552
0.385497
0.00186855
-0.0601096
-0.000297439
-0.000777166
0.0103309
-0.052104
-3.27676e-05
-0.0142095
0.0389683
-0.00276946
6.81748e-05
-5.02868e-05
0.170124
-0.0248066
0.00959196
-0.00156953
0.0121327
0.0213987
0.0120661
-0.000396368
0.365261
-0.0807363
0.240174
0.319948
-0.000287981
0.082221
0.13082
-0.00108788
-0.000361225
-0.000588639
0.00627381
0.0221375
-0.0135919
-0.0247313
-0.0744102
0.18956
-0.0948326
2.24137e-05
-0.0249008
-0.0235704
-0.044949
-0.00602319
0.00847355
0.00180791
0.0374399
-0.000720185
-0.000310257
-0.0223069
-0.00592772
-0.0317997
-1.84254e-05
-0.0191018
0.044687
-0.0129164
-0.0247132
-0.0112844
-0.0152062
-0.0119177
-0.00715752
0.013185
-0.0123183
-0.000135149
-0.000551398
0.0315874
-0.015823
-0.00677885
0.0117932
0.00418155
-0.132913
-0.0143635
0.173993
-0.0162923
-0.0648239
-0.030851
-0.029003
-0.0200424
-0.00516883
0.00320642
-0.00484473
-0.018045
-0.0207146
0.213121
0.16948
0.065399
0.359422
-9.15547e-05
-0.00448141
-0.0211229
-0.0105833
0.113017
-0.025932
0.063709
-0.00583375
0.229755
-0.00266233
-0.00222711
0.0228564
-0.0215814
-0.00029057
-0.0269979
-0.00805416
-0.0266865
-2.17353e-05
-0.00906826
0.00281641
-0.0224796
0.0460073
0.0459592
0.0254296
-0.0180193
-0.039926
0.13231
-0.00174315
-0.00269362
-0.00290132
0.510424
-0.000101127
0.0897317
-0.0271782
-0.0261317
-0.0336163
-0.0508156
-0.0364754
-0.0433022
-0.0233947
-0.00628413
-0.000123404
-0.0058533
-0.0278257
0.116032
0.00239248
0.174572
-0.0416023
-0.0170698
-0.00125431
-0.0366524
-0.000131116
0.165282
-0.0382488
-0.0332724
-0.0303687
-0.00532397
-0.041579
-0.00230335
-0.0510095
0.118067
-0.0328646
-0.0834922
-0.00199938
-0.0342929
-0.0236264
0.0207069
-0.00442696
0.159234
-0.00328785
-0.0245404
-0.000913055
0.177518
-0.0490307
-0.0336421
-0.00445029
-0.0127029
-0.00377249
0.210114
0.0189076
0.223575
-0.00657599
-0.00110638
-0.00171968
-0.00318433
0.197811
-0.0748007
-0.00924099
0.000499493
-0.00970994
-0.0122513
-0.00121729
-0.0173823
-0.0201254
0.0704256
-0.00675602
0.00659458
0.502822
-0.0764589
-0.0365498
-0.0714856
5.83943e-05
0.0906337
-0.00484373
-0.0341687
-0.00763132
-0.0450163
0.00599277
-0.000720567
-0.00397127
0.00456085
0.217903
-0.00796218
-0.00244197
-0.00632554
-0.0658372
-0.0112272
-0.0282542
0.0061019
-0.0117628
-0.0121356
-0.00447678
0.221924
-0.0576131
0.00448644
-0.0057853
-0.03503
-0.0186525
-0.0617406
-0.00191113
0.107964
0.0307662
-0.010602
-0.00236008
-0.0179981
0.523418
0.219327
-0.0150885
-0.000780389
-0.00326164
0.0066894
-0.00542515
0.0280774
-0.000552564
-0.0204223
-0.00269503
-0.0221894
-0.0622081
-0.00143978
-0.0146638
-0.00184528
0.336516
-0.00871568
-0.0156236
-0.0143988
-0.00263699
-0.0381267
0.0835301
0.464315
-0.0143404
-0.0151833
-0.00289354
-0.000618169
9.93464e-06
-3.80103e-06
-0.0135526
-0.000902278
0.13261
-0.000901012
-0.00247754
0.0113911
-0.000339473
-0.0556054
-0.0685618
0.0230933
0.0502807
0.0343753
0.0669423
-0.0456954
0.106269
0.0839687
0.111748
0.139262
-0.0172056
-0.00116029
-0.00783149
-0.0767654
-0.00480924
-0.0198453
0.0495092
0.346034
-0.0595727
-0.000647933
-2.40259e-05
-0.00200006
4.67212e-06
0.01231
-0.000749247
-0.00625472
-0.059613
0.000783512
0.00364268
-0.000285443
0.0823648
-0.0203152
-0.0377343
-0.00164295
0.342268
0.296114
-0.0134374
-0.0796057
-0.0356275
-0.0309729
-0.0190058
-0.00255649
-0.0888574
-0.0389521
-0.0530269
-0.0528013
-4.97538e-05
0.210017
-0.0164945
-0.0128941
-0.0353377
0.0252458
-0.000715214
-0.011222
-0.00185211
0.0176586
-0.00207962
0.187718
0.000512798
0.0136945
-0.000555077
-0.0809671
0.0120984
-0.00102125
0.0152507
0.000597755
0.0373137
0.137511
0.00214666
-0.00196023
-0.00015831
-0.000774454
-0.000678453
-0.0750581
0.141735
0.0274784
-0.000355236
0.012787
-0.000611883
0.246387
-0.0738553
0.270826
-0.0536983
-0.00060381
-0.000372227
-0.00981819
-0.00764132
-0.000846137
-2.08032e-05
0.0332327
0.037845
-0.000310235
-0.000436
-0.0255996
-2.52389e-05
0.186077
-0.001254
-0.06493
-0.0247149
-0.00857396
-0.0681132
-0.0749621
0.169146
-0.0214724
-0.0262195
-0.000419371
-0.0694904
-0.026804
0.0211937
0.122495
0.369212
-0.00159032
-0.0727462
0.0174796
0.325477
0.0501843
-0.000150786
-0.00812871
-0.00551652
-0.0066915
-0.058988
0.108323
0.000276224
0.0254704
0.0042135
0.0945452
-0.000700133
-0.000147795
-0.0754463
0.298737
-0.0672009
0.16854
-0.00169911
-0.00026218
-2.46793e-06
-0.0919284
-0.0517679
-0.000447584
0.125387
0.0151842
-0.00721758
0.428133
-0.000514765
-0.00499569
-0.0723073
-0.0267848
-0.00309758
0.152351
-0.0667587
-0.000214275
0.0169846
-0.000219243
-0.000123651
0.159904
0.00288366
-0.000607291
-0.0630967
-0.0314738
-0.00474268
-0.0321033
0.00332813
-0.0293688
0.00230923
-0.00472936
-0.0790619
-0.0473596
0.0259782
-0.00120404
0.176082
0.226498
-0.0961936
0.0132
0.025526
-0.0057837
0.184837
0.127506
-0.0353955
-0.000207548
0.0134093
-0.0673515
0.0163318
-0.0354234
-0.00285447
0.0573986
-0.0350797
-0.000175217
-8.54307e-05
-0.0385964
-0.0322378
-0.0330607
0.0131952
0.0163575
-0.054611
-0.000190941
-0.00187886
-0.000265697
-0.0420933
-2.66332e-05
-0.00262008
-0.0519614
-0.107888
0.133898
-0.0040334
0.00574678
-0.027287
-0.0323936
-0.000161505
-0.0567912
0.128487
0.175504
3.87998e-05
-0.0001403
0.178645
-0.00340902
-0.0980893
-0.0500158
0.00466265
0.00069538
-0.0821073
-0.0211852
0.182829
-0.068719
-0.00198603
-0.0120307
-0.064369
-0.00077417
-0.000315587
-0.00121294
-0.00609096
-0.0627506
0.16357
-0.000273374
0.524785
-0.00681246
0.000182073
-0.00129694
0.000373289
0.000423421
-1.29112e-05
0.000211156
-0.0646096
-0.000964673
0.000621858
-0.00025738
0.158504
-0.00771077
-0.000250083
-4.52263e-05
0.375017
-0.0275743
-0.0314882
0.00159031
-0.000972153
0.0736836
-0.000118754
-0.0164923
-0.118148
0.00301905
-0.00863773
-0.000119319
-0.000266623
-0.038706
-0.0708673
0.00987286
-0.109697
-0.0598598
-3.20476e-05
0.0281826
0.0419578
0.12536
-0.00231983
-0.000199839
-0.0690251
-0.00818441
-0.000658738
-0.0606235
-0.000173442
0.0521138
-9.89584e-05
-0.00171384
0.0162049
-0.00283548
-0.071568
0.480252
-0.00221649
0.000400283
-0.0666406
-0.0646868
0.0126062
0.00647557
-0.000193162
-0.0394023
-0.000100466
0.215422
0.63565
0.097582
0.0041898
0.00496885
-1.83035e-05
-0.035282
-6.32641e-05
-0.00914493
-0.00228999
0.000537688
-0.00453016
-0.0126058
-0.000154828
0.00122314
-0.0106792
-0.000411104
-0.0132345
-0.0212324
-0.00652539
-0.00153804
0.569614
-0.000916364
0.00336827
0.000357351
0.0186957
-0.0610644
0.013076
-0.000226088
-0.000123867
0.00368952
-0.000134524
-2.46433e-05
-0.0151869
0.000983767
-2.68919e-05
-0.0627101
-0.00304254
-0.0685597
-0.00221173
-8.25018e-05
-0.00421361
-0.00884054
-0.0195405
-0.0288669
0.0032039
0.000745462
-0.000615012
-0.00263534
-9.22695e-05
0.29803
0.00216484
-2.10239e-05
0.000833962
-0.00272892
-0.000462025
-0.0776163
-0.0667614
-0.000156661
-0.00930472
2.54996e-05
-0.0034954
-8.87754e-05
0.0453424
-0.000175753
-0.000232349
-0.00471934
-2.02591e-05
0.0182438
-0.000289938
-0.00168858
0.0251327
2.43204e-05
0.396762
-0.0657782
-0.0517055
-2.46077e-05
-2.32498e-05
0.00260185
-0.0015829
-0.0628822
-1.8013e-05
8.76521e-07
0.0010459
-3.20732e-06
0.000543604
0.000640338
-0.00060304
0.00110786
-0.0646008
0.493978
-0.0415803
0.358367
0.0122937
-0.0216216
-1.89791e-05
-0.00117227
-0.0159947
0.000217693
0.000411431
0.000251352
0.0823374
-0.00179921
-0.000272223
0.507981
-0.000718531
0.000834306
0.000714909
-4.72324e-06
0.0560315
-0.00292458
0.00158486
0.000191112
-0.000690615
-8.29665e-05
-0.00122949
-0.0544374
-0.000545274
-0.00212094
-1.61803e-06
-0.000476748
-0.000335525
0.211508
-0.00057833
-0.000343268
-0.0847765
0.00517168
-9.46103e-05
-0.00177825
-7.39753e-05
0.194021
-0.0894931
-0.000372445
-0.000505927
-0.00249058
-0.000186467
0.072594
0.134401
0.0461082
0.000729762
-7.22562e-06
-8.15593e-07
0.0722428
0.000368803
-0.0748435
-0.0294066
-0.0206224
-0.00290419
0.573799
0.00270335
0.218766
-0.0190548
-0.0368666
0.197149
-0.000465268
-0.0804698
-1.2352e-05
-0.011814
-0.060613
8.59157e-05
-0.0600932
-0.0012592
-0.00602435
-0.00723315
-0.0531067
-0.0527361
-0.00417252
-0.0754777
-0.0545365
-0.00023812
-0.0159457
-5.19575e-05
-0.0470315
-3.17213e-05
-0.000236737
0.0261109
0.187708
3.41271e-07
-0.0563676
0.00489168
0.00011837
-0.0267999
1.30708e-05
-0.0178801
-0.000327323
-0.0480358
0.000190359
-0.00010342
-0.0026967
-4.13382e-05
0.183302
-0.0385523
0.0958347
-2.49924e-05
0.000885853
-0.041129
2.01012e-06
-0.070373
-0.0814786
-0.0685808
0.52973
-0.00853081
-1.87957e-05
0.0343804
-0.0520745
-0.00333685
-1.38187e-05
-0.000102117
-0.0586256
0.000193643
0.00122485
2.1437e-07
0.000240052
-0.0356823
0.137883
-0.0697878
0.119207
-0.00703611
-1.12853e-06
0.00867055
-0.0624574
-2.34751e-05
-1.39645e-05
0.000461833
9.95153e-05
0.000578492
0.251602
0.0458429
8.74257e-05
2.12262e-05
-0.0810631
0.22686
0.202078
-5.25736e-05
-0.0455276
-0.0247138
-0.0135544
-0.0593934
-0.0111048
-0.00383965
0.163871
-4.08634e-05
-0.033548
0.1931
-0.0606403
-8.42723e-06
-0.075472
-0.000219188
0.311635
0.0374028
-2.16743e-06
-2.652e-05
0.211364
6.64822e-06
-0.000226381
-0.0153726
2.77873e-05
0.274978
0.00463858
-0.00967278
-0.0786535
-0.00495466
-0.0910489
0.209059
-0.0133678
-0.0237757
0.00138678
-1.6968e-05
-0.00133916
3.14166e-06
-1.11097e-05
0.033592
0.206098
0.173439
-0.000567735
0.273826
-0.0145051
1.62681e-05
-0.0567239
-9.5919e-06
-0.0353248
0.0385989
-0.0186533
0.00606854
0.00255698
-0.0121527
0.000369402
-0.00219788
0.0263325
-0.00377609
-4.77343e-05
4.80499e-05
-7.19843e-05
0.0409264
8.86506e-05
-0.0282001
0.287566
-0.00785448
7.89889e-05
-0.00455268
-1.95313e-06
0.0982391
-0.000459294
-7.62292e-05
-0.000102797
-1.15136e-05
0.237165
-0.000183949
0.26446
-0.0756803
0.000171541
-0.0644596
-0.000614959
0.180778
0.521004
-0.00183979
4.27675e-06
3.1445e-05
-2.01412e-05
0.163773
1.30701e-06
0.0014518
-0.0309903
0.251106
1.35804e-05
2.88719e-05
4.9148e-06
4.09398e-05
-0.0262912
3.35351e-06
0.290083
-0.0205556
-0.000151713
4.76901e-05
-0.0026957
-0.0363285
2.31736e-06
-6.60337e-05
0.190464
5.40228e-05
-0.0401765
-0.0600061
0.000198464
1.47693e-06
-0.13868
2.1352e-06
0.189563
2.43092e-05
-0.000571784
2.14734e-05
-0.000218179
0.111162
7.62329e-06
-0.00214237
1.82945e-05
0.017623
-0.0044359
-0.0083658
0.00123256
0.177575
-0.000329839
-9.24392e-05
-0.0115381
-0.0111375
-0.000307005
-5.00241e-05
-0.00115665
6.63636e-05
0.200771
-0.0132956
0.513261
3.34236e-06
-0.00993472
-0.000182442
0.158134
9.01055e-05
-0.0333827
3.8447e-05
-0.00206044
-0.0419693
-0.000289705
-0.0201638
-0.0614538
0.00687269
1.19573e-06
-0.0685682
-0.000424808
-0.00036076
-0.00721854
-0.0168563
0.00176283
-4.35526e-05
-0.000556472
-0.00116747
-0.00165871
2.66469e-05
-0.00157003
0.503936
0.000147045
-0.00426234
-0.0436948
-0.0891417
-0.0777961
-0.0593999
-0.0276451
-0.000661411
-0.0193718
0.000118035
-9.4579e-05
0.504855
-0.000112495
0.204473
-0.000578466
0.000567269
-0.0014712
-0.0727085
-0.000533503
0.000942749
-1.07091e-05
-0.000500664
-4.42535e-06
-9.29717e-05
-0.0191137
-0.000128602
-1.68191e-05
-9.7913e-05
0.00022412
-2.79639e-06
-0.0530459
0.258311
-8.67209e-06
-0.000777588
6.7595e-05
5.01604e-05
-0.00108018
1.73488e-05
-0.00117113
0.000409503
-0.000466446
-0.078706
-0.000891965
-0.00237675
1.02215e-05
-0.00201413
0.000478581
-1.61256e-05
-7.47273e-06
2.29395e-05
-0.0010297
0.000756889
-0.0550889
-0.034074
-0.0793407
0.000834739
-0.00238397
-0.0138314
-0.0799251
-0.000113561
0.0209128
0.00921777
-0.00136072
-0.0151457
-0.0687063
0.45898
-0.000536077
-1.42573e-05
0.00122454
7.89665e-05
3.00422e-05
0.0905655
0.00494547
0.103955
-0.0447885
0.446954
-0.000673141
5.47272e-06
0.000224246
-1.56909e-05
-0.00177589
0.178755
0.246231
-1.6072e-07
-0.00020826
-1.09536e-05
0.233958
0.0249476
-0.00704811
2.00587e-05
3.20894e-05
0.0096516
-0.00089943
-0.0876699
-0.0212268
4.53423e-05
0.00470615
-0.0388698
-6.89723e-05
0.00245175
-7.2329e-05
-0.0566779
-0.00226082
0.169969
2.80715e-05
0.00227593
-1.86029e-05
2.64194e-05
0.000253878
-0.0289761
2.55838e-05
-0.00118367
4.05876e-05
-0.0249288
-0.0560556
-0.00392914
-0.00883926
-0.0110168
0.0120591
-0.0111478
-0.00319633
0.000104488
0.000160979
3.63628e-05
3.1576e-05
-6.48198e-05
0.0120491
-0.0706765
0.000691229
-0.0528823
-0.00399502
-0.0612388
0.00013229
8.55361e-06
0.00178299
-0.0552989
3.14049e-05
-0.0528237
-0.0186262
0.0313982
-0.0527479
4.44749e-05
-0.00446657
0.000284209
-0.123122
0.15433
2.7083e-05
-0.0731242
-0.0278096
-0.00548767
6.38252e-05
-6.61448e-06
0.0364066
-0.0209621
4.38134e-05
-0.00870806
9.26547e-06
0.000314669
0.144004
-7.32171e-06
1.83986e-05
-9.23869e-05
5.78932e-05
0.00123563
0.000132152
-0.00675966
0.000340305
-0.0159094
0.00151228
-0.000252478
-0.0395183
-0.0528731
-0.00802428
-1.58666e-05
3.71206e-05
-0.0727951
0.00766697
-0.0584815
5.21451e-05
-0.0066124
-4.13312e-05
4.2414e-05
0.090205
-0.00895695
-0.00358764
1.10619e-05
-0.0221697
7.8596e-05
-0.0818369
4.70775e-05
-0.0921
4.06091e-05
-4.65204e-06
0.000128409
0.0014001
-0.082961
-0.0227172
-0.0847952
3.26053e-05
0.000145007
-0.0943092
-0.0301619
-0.0107323
-9.8389e-07
-0.0291041
-0.0615783
-0.0940367
1.60277e-05
-4.29215e-06
2.34291e-05
-0.0843222
-0.0820339
0.00100019
-0.013993
-5.90668e-05
0.248527
0.000141522
3.18072e-05
0.00022173
6.65541e-06
-4.5086e-06
-0.00464387
0.000173271
-0.00329082
-0.0788333
-0.0165071
-0.0706459
6.87142e-05
-5.87803e-05
0.0666683
-0.0582817
-0.00607378
0.131131
2.70324e-05
-9.66063e-06
-8.9696e-06
0.137563
0.000253694
2.2599e-05
4.18305e-06
-0.0729646
-0.0194731
2.25158e-05
0.000131773
-0.0116786
-0.0081907
0.000603771
0.248725
-0.0720684
0.000278267
0.642769
-2.5074e-06
-0.000867734
-0.0106451
-0.0932569
1.85945e-05
1.26941e-05
3.57736e-05
0.00640821
-0.0397379
-0.000419021
-0.0603864
-0.0098199
5.11256e-05
-3.712e-06
-0.0128337
-0.00241104
-0.00614135
-0.0659993
-0.0557119
-0.0479042
0.0133109
-0.0335208
-7.12758e-05
0.000502212
0.0144958
0.000741555
-7.58965e-05
0.00105635
5.99076e-05
-9.46367e-05
-0.0152718
-1.17768e-05
-2.34652e-05
0.0484587
-0.0177823
-0.000180938
-2.77663e-05
5.47418e-07
0.269544
-0.00838722
0.00108584
-0.034724
0.000327493
0.000288558
0.00024983
-5.20238e-05
0.000674958
-0.0466516
0.022583
-8.49793e-06
-0.000186338
-0.0511485
-0.0388581
0.0598074
-0.000623509
0.0024756
0.0231549
1.31254e-05
9.73064e-05
-0.0576153
3.71411e-05
0.184934
2.93238e-05
0.00558044
0.000242633
0.000323047
-0.0855975
-0.00925974
-0.0223364
-0.00307318
4.35466e-05
0.00877264
0.0743405
-0.0154257
-0.00015911
0.11107
0.181081
9.48171e-06
-0.0638236
-7.30309e-05
-4.23864e-06
-4.97853e-05
-0.000721648
0.0255222
1.15655e-05
0.000356071
-0.0308298
-0.031992
-0.027541
0.332161
4.06673e-05
-7.82564e-05
0.190064
-0.0053845
-0.00483209
-0.00083343
0.18743
7.72401e-05
-0.00037501
8.35226e-05
5.61213e-05
5.15647e-05
5.89693e-05
0.000111065
-0.0222089
2.41335e-05
-0.00422423
-0.0547726
0.263955
-0.000150977
-5.56456e-05
0.00624948
0.10038
-0.0564606
-0.000961338
-0.086082
0.330917
6.88015e-05
0.422999
-1.28319e-06
0.00446314
0.0312827
0.000609875
0.455162
3.59171e-06
-3.66787e-06
0.00157866
5.14108e-05
-0.00110429
0.000374945
2.8646e-05
-0.00250738
3.51365e-05
-0.000172412
-0.00422062
0.264448
0.0650495
0.0283553
-0.0539247
-3.2052e-06
-1.08628e-05
0.0045528
-0.0675112
-4.41379e-06
-0.0575037
-5.87996e-05
0.121016
0.0749022
-0.0408974
-0.00172298
-0.0150017
-0.00125872
-0.0186459
0.00540751
-0.00926972
0.078377
4.8927e-06
0.269871
0.0502422
-0.000728724
0.233903
-0.0167913
-1.25047e-05
4.71959e-05
0.000102204
-0.000259608
-0.000139094
0.267141
-0.00125064
0.273957
-0.00135182
0.185406
0.245533
0.141279
-0.00890765
2.77972e-06
0.000110719
-0.013406
-0.135492
-0.0601303
0.0020143
4.64486e-05
-0.0472869
-0.000375211
3.34039e-05
0.0013763
-0.00136436
-0.000800382
0.0418909
0.000114206
-0.0597602
0.0724948
8.97706e-05
0.000384781
-0.0178855
-0.0716713
-0.000930927
-0.000658057
3.36471e-05
0.000360538
0.110695
-0.0213619
-0.0594495
0.00177305
0.122037
-0.0483532
6.50342e-05
4.44432e-05
0.0328401
-9.17879e-05
0.105478
0.00247965
-0.0171292
-0.000477211
0.00219606
-0.045021
-2.0652e-05
0.000684146
0.00390494
-0.0916011
0.177848
-0.0769892
-0.0337856
-0.000187701
-5.13194e-05
0.00883498
7.66503e-05
-0.091995
-0.0817412
0.000780606
0.00456577
0.00502189
-0.113882
0.000881476
0.000280507
6.99211e-05
-0.0515468
5.05633e-05
0.000774313
0.14068
0.200727
-0.126639
0.0605514
0.0599694
0.0308519
-0.000176995
0.0158105
0.000181705
1.43098e-05
-6.7735e-05
1.1856e-06
6.47692e-05
-0.000446724
-0.00970556
-0.061511
-0.012367
-0.0361529
0.0656457
0.0548407
0.0054167
-0.0792249
0.000241702
0.00622854
0.0148993
-0.000485563
0.0931545
-0.00155478
-0.013862
0.0159436
0.00726043
0.00143352
-0.00514961
0.0554858
0.00112907
-0.0248589
-0.0207921
0.533
-0.0311781
0.0993658
0.0362503
-0.046626
0.00294645
0.000161613
-0.00329416
9.82022e-05
-0.00337612
-0.0318959
-7.76862e-05
-2.90102e-05
0.300755
-0.00423694
-0.0523186
-0.0238217
0.000301625
-0.00178442
-1.92721e-05
1.91519e-05
0.0499375
6.78138e-05
-0.00377188
0.0942863
0.00834144
0.00152058
0.0241691
-0.00734949
0.00553567
-0.121681
0.00118693
-0.00567928
-0.070081
-0.00108728
-0.0102991
0.00104057
0.00143913
0.00134778
0.0486658
-0.00037896
0.00749087
-0.067638
-0.0261507
0.000450315
-0.0670915
-0.0189621
-0.0217864
0.000169668
0.0087224
-0.0851776
-0.00107182
-0.00620182
-0.0620746
0.000427505
-0.00149264
0.245571
-0.0267923
-4.65697e-05
0.0108338
-0.0629477
-0.0013423
0.217039
-0.00276702
0.0013794
0.0724251
-0.0018264
0.0110067
0.147126
0.000121621
0.0015866
0.000260534
7.21259e-05
-0.00577596
-0.0091174
-0.000137681
-0.03052
0.118091
-0.0467778
-0.088605
0.00157431
-0.00419427
-0.000757571
-0.0520655
5.90329e-05
0.0226756
8.60683e-05
-0.0202111
-0.00250111
-0.00638167
-0.0136149
0.14027
-0.0964502
-5.67109e-05
0.222254
-0.00248799
-0.0031929
-0.0738911
-0.100274
-0.0197719
-2.96819e-05
-0.00141702
0.00954118
-0.00396747
-0.00604884
0.000616034
0.104773
-0.0539533
-0.0141357
-0.00855532
0.0322622
-0.00289794
-0.00110909
0.0022918
3.48932e-06
-0.0039657
0.137079
0.00108892
-0.13553
-4.3468e-05
-0.00939387
-0.00457979
-0.109194
-0.0146046
-0.126958
-7.11113e-05
-6.74614e-05
-0.0049012
0.0139903
0.00246894
-0.146092
0.107097
-0.0606164
0.0002743
-0.162067
4.72778e-05
-0.169918
-0.0321391
-0.182056
-0.180101
-0.170266
-0.128797
-0.0440039
-0.0104569
0.0207035
0.0520555
0.0836497
0.174242
0.203865
0.230991
0.279566
-0.0102969
-0.00937911
0.0804021
-0.0218459
0.00122739
0.0220787
-0.0507898
0.000736957
-0.00082808
-1.92393e-06
-0.0180263
0.0231223
7.27206e-05
-0.000373428
-0.0133816
-0.0062226
-0.185682
-0.0159962
-0.070165
2.21955e-05
0.000795648
-5.9397e-05
-0.0648244
-0.0111463
-0.0457859
-0.0126667
0.00231694
0.000334004
0.00623614
-3.63816e-05
-0.0107793
7.35009e-06
0.000519936
-0.00726786
-0.0146426
-0.00030874
0.00046017
0.0600715
-0.0131157
0.0816279
-0.178057
-0.0097984
0.145156
-0.0237004
0.00491844
-0.0271091
-0.00416263
-0.0159211
-0.0159469
0.362173
-0.00163984
0.000113379
-0.00739534
-0.0113063
6.38656e-06
0.0965981
-0.00516303
0.340347
-0.079263
-0.0554254
-0.0336533
0.0599073
-0.0061892
-5.34643e-05
-7.92747e-06
-0.00532259
-0.071351
9.67097e-05
0.366034
-0.00351691
-0.00629991
-7.38243e-05
-0.00047287
-0.00801963
0.114279
-0.0645112
0.13991
0.000873448
-0.0179698
-6.43798e-06
0.034518
-0.010009
0.025085
-0.019861
-0.00690911
-0.000996977