/*--------------------------------*- C++ -*----------------------------------*\
  =========                 |
  \\      /  F ield         | OpenFOAM: The Open Source CFD Toolbox
   \\    /   O peration     | Website:  https://openfoam.org
    \\  /    A nd           | Version:  7
     \\/     M anipulation  |
\*---------------------------------------------------------------------------*/
FoamFile
{
    version     2.0;
    format      ascii;
    class       volVectorField;
    location    "40";
    object      U;
}
// * * * * * * * * * * * * * * * * * * * * * * * * * * * * * * * * * * * * * //

dimensions      [0 1 -1 0 0 0 0];

internalField   nonuniform List<vector> 
7807
(
(1.08978 0.157213 5.15954e-21)
(1.07181 -0.047016 3.20007e-22)
(0.99494 0.129338 -1.16964e-20)
(1.04294 0.082986 1.59797e-20)
(0.998959 -0.00129283 -2.87146e-23)
(0.99995 -1.128e-05 -3.28753e-24)
(0.989674 0.107845 -2.34717e-20)
(0.993171 -0.00249431 -5.59722e-24)
(0.99985 -0.000237468 -5.48879e-24)
(1.02888 0.00202999 -7.36885e-22)
(0.999953 -1.36937e-05 3.62622e-24)
(1.00283 -0.00156531 -1.13626e-22)
(0.989496 -0.00318347 2.85667e-22)
(1.02523 -0.00203617 -4.61693e-21)
(1.0279 0.0022814 3.12239e-21)
(0.98919 -0.0203862 -5.86821e-22)
(1.09273 0.163897 -1.08601e-20)
(0.985792 -0.00412339 -9.89124e-23)
(1.00327 -0.0123665 -3.1309e-23)
(0.989141 -0.136183 -5.44307e-22)
(1.04359 -0.00391839 -1.57029e-21)
(1.00188 -0.000983371 2.12692e-22)
(1.02288 -0.00387697 3.94473e-22)
(1.01192 0.0373919 -8.32427e-21)
(0.980941 -0.00523603 -4.47926e-22)
(1.08448 0.155564 -5.21717e-21)
(0.999014 -0.00123141 -2.00706e-23)
(1.02907 -0.00204334 1.83908e-21)
(1.00525 0.0170708 -1.0599e-21)
(1.00514 -0.0130618 2.51049e-23)
(0.982764 -0.02183 -1.03055e-21)
(0.851955 0.0462151 3.62928e-21)
(1.02274 -0.00478161 2.4364e-21)
(0.999398 -0.000514579 3.56673e-23)
(0.999869 -9.02111e-06 6.86432e-26)
(1.02937 0.000577131 1.08642e-21)
(1.00585 -0.014242 3.18519e-23)
(0.994981 0.105074 -3.74389e-21)
(0.995365 -0.0105262 4.78324e-22)
(0.999579 -7.6617e-05 3.44315e-23)
(0.995929 -0.0108241 -5.36066e-23)
(0.989297 -0.0191311 -2.13376e-22)
(1.02905 -0.142227 2.6283e-21)
(1.18594 -0.0358296 5.55364e-22)
(0.999749 -1.64026e-05 1.11688e-23)
(0.999899 -2.00221e-05 -3.23548e-24)
(1.00181 -0.000794963 -1.29765e-22)
(0.995127 -0.00965551 -2.83991e-22)
(0.999915 -3.82406e-05 -2.62071e-24)
(0.99545 -0.135981 7.93537e-22)
(1.00415 -0.00135532 1.23644e-22)
(1.02864 -0.00137733 -1.907e-21)
(0.974927 -0.0063642 -1.50958e-21)
(1.01678 -0.0390223 3.34911e-23)
(1.03002 6.26374e-05 -6.37921e-22)
(0.994036 -0.00342206 -5.26158e-23)
(1.00314 -0.0114707 6.97044e-23)
(0.993118 -0.00216209 3.89984e-22)
(0.969966 -0.0270825 -1.83169e-21)
(0.999374 -0.000458235 -4.56017e-23)
(1.00005 -2.95607e-05 -4.56106e-24)
(1.00538 -0.00155022 1.38393e-22)
(1.0254 -0.00133046 -1.09026e-21)
(1.00308 -0.00137353 1.15029e-22)
(0.998786 -0.000246259 6.44504e-23)
(0.983633 -0.0226185 1.72666e-22)
(0.999879 -0.000236954 4.22537e-24)
(1.00002 -3.51294e-06 2.87974e-25)
(1.17235 0.0906341 1.8814e-21)
(0.995371 -0.00914793 -8.77157e-23)
(0.999906 -2.45036e-05 2.86643e-24)
(0.964766 -0.0824992 -3.69222e-21)
(0.981798 -0.00580281 2.19594e-22)
(0.964854 -0.00813472 2.96153e-22)
(0.986449 -0.00454762 3.10663e-22)
(0.952797 -0.0402095 -3.97389e-22)
(0.999365 0.13096 1.88173e-20)
(1.04157 -0.00406268 1.99865e-21)
(1.10297 0.00680069 -3.23819e-21)
(0.939618 -0.0696957 -4.44555e-21)
(0.99001 -0.00351721 -4.38469e-22)
(1.00015 0.0648427 2.32196e-20)
(1.04871 0.00948404 4.71107e-21)
(0.964332 -0.0143887 1.36688e-21)
(0.998279 -0.00325988 -4.70497e-23)
(0.997148 -0.000417991 4.77446e-23)
(0.992716 -0.0032926 5.37114e-22)
(0.975954 -0.007104 9.70761e-22)
(0.999202 -0.00151921 3.07037e-23)
(0.994283 -0.000881179 1.68136e-22)
(1.00553 0.0193453 7.85607e-21)
(1.2177 -0.0123773 -9.09787e-22)
(0.999831 -6.88391e-05 -6.76458e-24)
(1.00252 -0.00971527 3.00726e-23)
(0.995484 -0.00134821 1.52685e-22)
(0.964371 -0.00451868 -2.3751e-21)
(0.968142 -0.0816343 2.75892e-22)
(1.01895 -0.0373531 1.13005e-22)
(0.998091 -0.00314491 1.53449e-23)
(0.998552 -0.000250328 2.14259e-23)
(0.929927 -0.0251584 1.01009e-21)
(1.10336 0.0127658 2.73176e-21)
(0.995742 -0.00153156 -3.80207e-22)
(0.999968 -1.79773e-06 -2.81334e-25)
(1.21914 0.00117157 -7.40828e-22)
(1.03543 0.0386083 -7.4357e-21)
(0.927324 0.0335684 4.10711e-21)
(0.993627 -0.00323628 -2.19167e-22)
(0.99999 -3.73256e-06 5.90101e-26)
(1.0324 -0.016469 -8.04286e-22)
(1.04647 0.0789496 -1.85609e-20)
(1.04454 -0.100535 -3.16389e-21)
(0.999987 -4.29371e-06 -9.85659e-26)
(1.03444 -0.0167343 -1.75782e-22)
(1.03158 0.0367131 7.82339e-21)
(1.00055 -0.000735739 -9.89939e-24)
(1.10727 -0.10848 -1.85066e-22)
(1.03587 0.0224265 -1.78571e-21)
(0.980522 -0.0635262 1.58723e-21)
(0.964458 -0.00989093 -3.11201e-22)
(0.924619 -0.0165522 -2.42631e-21)
(1.00116 0.0263825 -1.51383e-20)
(1.03748 -0.138647 -3.61222e-21)
(1.01262 -0.0100527 6.76112e-23)
(0.927416 -0.0188787 9.56423e-22)
(0.998825 -0.00177269 6.81661e-23)
(0.984258 -0.0165009 3.50318e-22)
(1.00385 -0.0108793 -4.73463e-23)
(0.998721 -0.000182042 -1.43725e-22)
(0.982847 -0.0201264 1.91257e-23)
(1.25735 -0.0238092 -6.44388e-22)
(1.0966 0.00361876 5.56791e-22)
(0.999251 -0.000705148 3.88311e-24)
(0.999061 -0.00155496 -5.97175e-23)
(0.962513 -0.0132056 4.06611e-22)
(1.0436 0.0714055 6.81338e-21)
(0.9968 0.0231177 2.73737e-20)
(0.99997 -3.05744e-06 -3.31673e-25)
(1.00921 -0.00402416 5.81873e-23)
(0.895128 -0.0213292 -3.03777e-21)
(0.967166 -0.00586673 -1.20792e-21)
(0.990318 -0.0874375 -2.45821e-21)
(0.953699 -0.0432439 5.39345e-22)
(0.966926 -0.00729914 -2.61453e-23)
(0.919341 0.0261958 1.61618e-20)
(1.02093 -0.0604769 -9.28148e-23)
(1.01192 0.0228232 -3.99295e-21)
(0.973465 -0.0321273 -9.67521e-22)
(0.950112 -0.00798192 3.32424e-22)
(1.00102 0.0448518 -7.51581e-21)
(1.02966 0.00090585 2.72548e-21)
(1.20405 -0.0179098 1.01849e-22)
(0.998179 -0.00261367 -1.62166e-22)
(1.17839 0.0821294 1.96037e-22)
(1.04627 0.00884053 -4.90841e-21)
(1.00811 0.108672 -1.87292e-20)
(0.945462 -0.047687 1.65632e-21)
(0.989485 -0.00246302 9.76998e-23)
(0.937577 0.0885994 3.5684e-20)
(0.999922 -3.2721e-05 -2.46859e-24)
(1.00195 -0.0103069 -1.41918e-23)
(1.01186 0.0407542 6.0013e-21)
(0.999973 -2.53063e-05 1.60557e-24)
(0.997864 -0.00664089 -2.27631e-22)
(0.994889 -0.00130851 -7.30222e-23)
(1.00338 0.0376729 -1.97259e-21)
(1.00161 0.0239374 7.3597e-21)
(0.928104 0.0968633 1.18184e-20)
(0.997482 -0.00643399 -1.40152e-22)
(0.996063 -0.000497561 -8.34125e-23)
(1.00002 -4.62149e-06 -2.69006e-25)
(0.919616 -0.0101101 -4.14877e-21)
(1.00054 -0.00065945 1.36723e-23)
(1.07356 -0.0420696 -3.84023e-22)
(1.00966 -0.00429609 3.89591e-22)
(0.951409 -0.00944763 6.86334e-22)
(1.2075 0.011094 -5.62853e-22)
(1.1223 0.0901773 1.58991e-22)
(0.999833 -8.5972e-05 3.6918e-24)
(0.999376 -0.000805053 -4.11929e-23)
(1.04465 0.0873645 -2.80974e-21)
(0.999923 -2.26901e-05 -1.19933e-24)
(0.99986 -1.64114e-05 1.77354e-24)
(0.989811 0.114224 -1.93309e-20)
(1.07514 -0.0510215 -1.85138e-22)
(1.02326 -0.0872032 -1.6794e-21)
(0.983094 -0.0612777 -2.25266e-21)
(0.968208 -0.0104774 8.92434e-22)
(1.01706 -0.0627391 1.72857e-22)
(0.897821 -0.0179978 1.60447e-21)
(0.99997 -2.31196e-05 -5.70626e-25)
(0.968516 -0.0762891 -8.95714e-22)
(1.12508 0.0984866 -4.69957e-21)
(0.995726 -0.00186741 5.46157e-23)
(1.0001 -8.59501e-06 -3.40451e-24)
(1.08969 0.0942862 5.21126e-22)
(0.998432 -0.000507632 1.51638e-22)
(0.983965 -0.0192992 5.59347e-22)
(1.01282 -0.059736 5.56307e-22)
(1.00002 -2.87424e-06 -1.13965e-25)
(1.00116 -0.00253985 -5.50755e-23)
(1.03935 0.0706917 8.50171e-21)
(1.11028 0.10562 -6.45997e-21)
(1.00327 0.0970561 -2.51948e-21)
(1.10043 -0.101035 1.50949e-21)
(1.04877 -0.0949468 7.24708e-22)
(1.17199 -0.133048 -6.02899e-22)
(1.02955 -0.00185318 5.46881e-21)
(1.03629 0.0663057 -2.77384e-21)
(0.999731 -2.89067e-05 -1.30756e-23)
(1.00005 -2.67773e-05 1.19871e-24)
(0.946619 0.0138433 -1.5839e-20)
(0.990854 -0.0182413 -2.00995e-22)
(0.999221 -0.000627229 -3.83681e-23)
(0.971735 -0.074712 1.82427e-21)
(0.983501 -0.0174364 -4.11088e-22)
(1.01895 0.101312 -2.08351e-20)
(1.01486 0.0984177 -4.41396e-21)
(0.98677 -0.090141 6.74355e-22)
(0.881694 0.0645968 -1.37224e-20)
(0.998546 -0.000573191 -1.11713e-22)
(0.985838 -0.0035692 3.54608e-22)
(0.926925 -0.0230309 1.32188e-21)
(1.04084 0.00140833 -1.14025e-21)
(1.04262 -0.176624 -3.58667e-22)
(1.11401 0.153202 -1.05644e-20)
(0.938069 0.0780202 -3.05528e-20)
(1.00008 -0.000139658 3.81618e-24)
(1.01258 -0.00920911 1.91603e-22)
(1.0333 0.0254041 9.67913e-21)
(0.995241 -0.00793803 -3.60319e-22)
(1.03922 0.0228904 -1.21932e-21)
(0.999341 -0.00165444 -9.9443e-24)
(0.900922 0.108366 2.40192e-20)
(1.00875 0.101263 4.13968e-21)
(0.992703 -0.00284611 3.40839e-22)
(1.0049 -0.0109468 -8.54988e-24)
(0.999606 -8.59968e-05 -6.39231e-23)
(1.15085 0.122383 2.28744e-21)
(0.999879 -1.34304e-05 5.25772e-24)
(0.993596 -0.0146358 1.75799e-22)
(0.911002 -0.0466233 1.85639e-21)
(0.999906 -3.39494e-05 -1.18861e-24)
(0.998425 -0.00380896 -3.884e-23)
(0.999486 -0.00160536 1.80826e-23)
(1.08135 0.0593933 6.80125e-21)
(0.999974 -3.28504e-05 1.94141e-24)
(0.994036 -0.000677674 1.91933e-25)
(0.943092 -0.0689148 5.15369e-21)
(0.8537 0.0346262 -8.02124e-21)
(1.09597 -0.00225313 -7.55607e-22)
(0.915687 0.073932 1.84706e-20)
(0.99994 -1.02259e-05 -3.0149e-24)
(1.00957 -0.0610741 -3.0965e-23)
(0.999763 -0.000410725 -1.45521e-23)
(1.00228 0.111057 -1.88908e-20)
(1.00507 -0.00106349 -1.78071e-22)
(0.995071 0.0351442 8.87418e-21)
(1.00393 -0.0131908 -1.32256e-22)
(1.00102 -0.0027391 5.83258e-23)
(1.04178 -0.0418245 -1.70076e-22)
(1.02942 -0.000897173 -5.0658e-21)
(1.00075 -0.000441161 2.87541e-23)
(0.999707 -7.10072e-05 3.41044e-25)
(1.00066 -0.000594313 6.43162e-23)
(0.994995 -0.00842716 -3.23831e-22)
(1.03351 -0.089146 1.9656e-21)
(0.999943 -1.34843e-05 2.03659e-24)
(0.947735 -0.0455202 1.17744e-21)
(0.995152 -0.00149834 -1.39626e-23)
(0.999817 -5.98108e-05 7.18182e-24)
(0.999196 -0.000779878 1.2436e-23)
(0.988788 0.0678539 2.14961e-20)
(0.989432 -0.00114941 1.40082e-22)
(0.999012 -0.000136362 -1.29899e-23)
(0.889919 0.0155464 3.06763e-20)
(0.99822 -0.00366129 -8.82734e-23)
(1.07275 0.121161 -6.3438e-21)
(0.999736 -0.000379156 2.62223e-23)
(1.01183 -0.0294375 -1.20349e-23)
(1.00002 -2.74772e-06 -1.03336e-25)
(0.97861 -0.0513328 -8.82143e-22)
(1.04013 0.000687727 1.7701e-21)
(1.20837 0.0221186 7.94626e-22)
(0.97044 -0.0291369 1.55691e-21)
(0.999474 -0.000813975 4.75445e-23)
(0.98394 -0.116234 1.16696e-21)
(0.977497 -0.000690839 6.389e-22)
(0.999766 -2.53538e-05 6.79262e-25)
(1.00064 -0.000521987 -5.68986e-23)
(0.997381 -0.00479531 1.21923e-22)
(0.989947 -0.00205884 -4.20859e-22)
(1.00385 -0.00124727 -2.10971e-22)
(0.998441 -0.0026268 5.88864e-23)
(0.966215 -0.0133929 2.15341e-22)
(1.03927 -0.0852603 -1.43052e-21)
(0.966332 -0.0112484 9.49304e-22)
(1.17678 -0.0275668 -1.28414e-22)
(0.954635 -0.0127526 -1.20032e-21)
(1.02174 0.127926 2.09268e-21)
(1.01693 0.131022 -1.53759e-20)
(0.99805 -0.00104798 -9.73379e-23)
(1.23184 0.0226118 -3.09708e-21)
(0.999979 -4.16457e-06 -1.84898e-25)
(0.997334 -0.00593144 -1.49687e-22)
(0.963377 -0.00316063 2.41947e-21)
(1.0087 0.0328347 4.98083e-21)
(1.04975 0.0155304 -4.63576e-21)
(1.00013 -4.27328e-05 7.80413e-24)
(0.997508 -0.00559433 -9.86369e-24)
(0.95637 -0.0140771 9.04989e-22)
(1.06313 0.0517409 -2.79879e-21)
(0.998726 -0.00163204 5.07169e-23)
(1.00443 -0.000999725 1.19189e-22)
(1.00162 -0.00134046 -1.04881e-23)
(1.15185 0.0368875 2.42243e-21)
(1.25794 -0.0380287 -3.99505e-21)
(1.04588 0.152491 9.60687e-21)
(0.997926 -0.000342769 -9.45019e-23)
(1.08651 -0.0470186 5.26752e-23)
(0.999852 -9.20762e-05 -5.90301e-24)
(1.00642 -0.00963299 -4.04417e-22)
(0.99993 -1.86098e-05 -8.52543e-25)
(0.98115 -0.0305769 2.80642e-22)
(0.99955 -0.000102316 -1.22286e-23)
(1.01776 -0.0285587 9.18732e-23)
(1.25408 0.0277922 3.58466e-21)
(0.964319 -0.0418708 1.89506e-21)
(1.01339 -0.0285354 -2.73168e-23)
(1.01127 -0.0082946 -2.49198e-22)
(0.99905 -0.000178538 5.83933e-23)
(1.03558 -0.0214663 5.63346e-22)
(0.996621 -0.0262315 2.81483e-22)
(1.09609 0.0179616 -1.7025e-21)
(1.0753 0.0567077 3.12733e-21)
(1.22966 -0.132035 1.39473e-22)
(1.18382 -0.0476039 -1.90579e-21)
(0.976479 -0.00139682 -6.81607e-22)
(1.00665 -0.00480436 3.79683e-22)
(0.914593 -0.0439865 -7.13089e-22)
(0.917959 0.095716 -3.69509e-20)
(1.16099 -0.052073 1.97838e-21)
(1.0353 -0.0126459 -2.27933e-21)
(0.892306 0.0699991 -1.85699e-20)
(0.997999 -0.000262825 4.67803e-23)
(0.997718 -0.00129236 -2.99821e-23)
(1.2017 -0.0302276 -1.84942e-21)
(0.998638 -0.00284645 -3.13772e-23)
(1.02082 -0.0561614 1.55828e-22)
(1.00758 -0.00227461 1.32888e-22)
(0.996259 -0.000577064 -7.44787e-23)
(0.997269 -0.000480031 -1.1745e-22)
(1.03981 0.0326505 5.66672e-21)
(0.999913 -0.000202593 -4.78825e-25)
(1.00071 -0.000364877 -2.55779e-23)
(1.00011 -1.71572e-05 5.83262e-24)
(0.995397 -0.000905657 3.91121e-22)
(0.991898 -0.0129185 4.49708e-22)
(0.999977 -3.15438e-06 1.41051e-25)
(0.998564 -0.000339424 1.19745e-23)
(0.971446 -0.0255917 5.45554e-22)
(0.944986 0.0206883 9.90872e-21)
(1.01597 -0.0298364 1.35169e-23)
(0.990887 -0.0171127 7.27183e-22)
(0.958578 0.0767403 4.2255e-21)
(1.00089 0.025164 1.33968e-20)
(1.0841 0.00421776 -1.38296e-21)
(1.22223 0.0280329 9.49348e-22)
(0.917422 -0.00746954 2.25929e-21)
(1.00662 -0.00557618 -1.87837e-22)
(1.01056 0.0543361 -7.35976e-22)
(0.984585 -0.00316065 -8.47248e-22)
(1.05019 0.120693 2.55632e-22)
(1.01708 -0.0674771 2.1676e-23)
(1.07024 -0.151016 -1.33357e-21)
(1.10466 0.1017 4.03328e-21)
(1.05333 0.127206 -8.45107e-21)
(0.949498 -0.0391704 2.58373e-21)
(1.05099 0.0130176 -2.97612e-21)
(1.11979 0.158276 9.84702e-21)
(1.06584 0.121837 1.21185e-20)
(1.03081 -0.00231649 1.71787e-21)
(0.995999 -0.00201435 8.5945e-23)
(0.994425 -0.00313512 7.49073e-23)
(0.999883 -3.35882e-05 -2.77634e-24)
(1.02451 -0.036398 5.36274e-23)
(0.984125 -0.00265229 1.99092e-22)
(1.00136 -0.00316472 -4.81699e-23)
(0.999859 -3.31891e-05 -5.22498e-24)
(0.997888 -0.000957696 3.80598e-23)
(0.979582 -0.115147 -1.93572e-21)
(1.13189 0.0491935 1.4292e-21)
(0.97582 -0.0087667 -1.09171e-21)
(0.999573 -0.0169889 3.0988e-22)
(0.994921 -0.00100662 -2.11082e-22)
(1.08316 -0.0509401 -3.72641e-23)
(0.990405 -0.00215326 -6.73433e-22)
(1.00342 -0.00987134 1.46979e-22)
(1.1339 0.150466 1.58735e-21)
(0.997561 -0.000457892 -2.72259e-22)
(0.999971 -6.28055e-05 -1.35369e-24)
(0.99993 -0.000245483 -7.51189e-25)
(1.00006 -0.000142809 4.9374e-24)
(0.969741 -0.0116233 5.01785e-22)
(1.03787 0.0300065 -6.69824e-21)
(0.994608 -0.000767028 8.42642e-24)
(1.03006 -0.0113357 1.47879e-21)
(1.05518 -0.181566 2.66175e-21)
(0.996348 0.0988437 -4.15351e-22)
(1.00546 -0.00985955 1.33131e-22)
(1.00875 -0.00611681 -6.24503e-23)
(0.993183 -0.00353134 -2.71084e-22)
(0.993682 0.0664201 -2.10163e-20)
(0.998612 -0.000180969 3.89244e-23)
(1.05037 0.157118 -4.83772e-21)
(1.00908 0.0231565 -7.7254e-21)
(0.999846 -4.06607e-05 6.11196e-24)
(1.0143 -0.0689601 -9.72777e-22)
(0.995559 -0.00104903 -1.93456e-22)
(0.995564 -0.0880887 3.00883e-21)
(1.00074 -0.000196965 2.56709e-23)
(1.07812 0.0070788 1.97558e-21)
(1.01036 -0.0214984 -4.23633e-24)
(1.0082 -0.00561014 3.21766e-23)
(0.998882 -0.000218843 -7.75025e-23)
(1.08706 0.056383 3.24989e-21)
(1.05779 0.0496738 1.08434e-21)
(1.02105 -0.0914424 1.63372e-21)
(0.972857 -0.0297903 -1.03765e-22)
(0.997236 -0.00512207 -1.05173e-22)
(1.00477 -0.0559429 -1.76625e-21)
(1.17333 0.0713775 -2.24181e-21)
(0.860727 0.0535965 -1.75797e-20)
(1.12242 -0.0892484 -1.6323e-21)
(1.0071 -0.0103986 -6.06974e-23)
(0.999991 -4.90701e-06 -4.40754e-26)
(0.981735 -0.00706513 -8.77273e-22)
(0.997001 -0.000528747 2.53356e-22)
(1.03396 -0.0219743 8.1663e-22)
(1.02563 -0.150058 -1.06233e-21)
(1.23215 0.00811731 1.36441e-21)
(0.984712 0.0933009 -2.58068e-20)
(1.06792 0.0479984 4.56237e-21)
(1.1716 -0.118544 2.59636e-21)
(1.08969 0.101878 1.73641e-21)
(0.999644 0.02758 2.48246e-20)
(1.02456 -0.00296043 1.25261e-21)
(1.00164 -0.00306646 1.10949e-22)
(1.03042 0.0751347 4.31101e-21)
(0.998896 -0.00277282 6.98237e-23)
(0.99976 -0.000227985 5.7867e-24)
(0.974524 -0.00291626 3.03832e-22)
(1.00012 -4.23685e-05 1.46093e-24)
(1.18487 -0.140379 1.44297e-21)
(1.00639 -0.0241039 -7.34365e-23)
(0.981592 -0.0502929 1.48539e-21)
(1.0025 -0.00209085 5.7456e-23)
(1.08306 0.0906614 9.46595e-21)
(0.99767 -0.000435874 -2.24612e-23)
(0.999967 -5.03023e-05 -1.22508e-25)
(1.06206 -0.159635 1.45614e-21)
(1.00222 -0.00181889 -3.37137e-23)
(1.13327 0.00142646 -4.05392e-22)
(0.933714 -0.0235025 4.72664e-22)
(0.900862 -0.0292407 2.36668e-22)
(1.23061 0.0747723 5.10477e-23)
(1.03011 0.0243056 -2.52622e-21)
(1.02583 0.00730238 1.55642e-21)
(1.02408 0.00687115 -6.1897e-22)
(0.99973 -5.85567e-05 2.04481e-24)
(1.14121 0.0486738 1.05832e-21)
(1.09637 0.023078 1.97707e-21)
(0.999322 -0.000875334 1.8222e-23)
(0.976974 -0.00950259 1.2682e-21)
(1.00081 -0.000277043 -2.85731e-23)
(1.01748 -0.026204 -5.42647e-22)
(1.01423 -0.0380998 -5.86439e-23)
(1.00588 -0.00180616 7.52536e-25)
(0.999008 -0.00174412 -8.272e-23)
(1.14909 0.113501 -7.04002e-21)
(0.999971 -3.0072e-05 -2.23409e-24)
(1.00027 -0.00014979 -7.54942e-24)
(1.0026 -0.00142115 -2.54174e-24)
(0.968308 -0.00505257 8.40138e-22)
(1.02548 -0.013921 1.03213e-21)
(0.979704 -0.0424249 -2.08302e-21)
(0.960484 -0.00795257 -4.9214e-22)
(1.02788 -0.0854784 9.42093e-22)
(1.08419 -0.188576 -2.90839e-21)
(1.03895 -0.0384701 1.56631e-22)
(1.03536 0.0758875 -2.44949e-20)
(1.2444 0.0334034 -2.47095e-21)
(0.991153 -0.0036277 -3.48937e-23)
(0.89547 0.101367 2.87192e-20)
(0.972355 -0.0842596 3.18214e-21)
(0.991492 -0.0137252 1.40157e-22)
(0.961558 -0.0065828 8.04832e-22)
(0.998111 -0.0252263 -8.14572e-23)
(0.970376 -0.00365022 1.288e-21)
(0.986386 -0.00554917 -2.56324e-22)
(1.03586 -0.0148619 -1.55892e-21)
(1.17161 -0.0552798 -4.77277e-22)
(0.999965 -5.84619e-05 -1.85874e-25)
(1.03101 -0.014948 -1.77309e-22)
(0.999872 -4.06432e-05 -2.97303e-24)
(1.01338 0.111855 5.0156e-21)
(1.17403 0.0977181 4.30787e-21)
(0.99359 -0.00269366 8.61613e-23)
(0.980458 -0.00252373 -1.16455e-21)
(0.999753 -7.2694e-05 -1.49609e-23)
(0.999275 0.0561578 1.55729e-20)
(1.03837 0.126056 1.13534e-20)
(1.14455 0.0389751 -1.26914e-21)
(1.1563 0.142497 -5.67365e-21)
(0.972953 -0.0894675 -1.39376e-21)
(0.99869 0.00822524 -2.37346e-20)
(0.999919 -0.000179635 2.81438e-24)
(1.06477 -0.0304153 1.59353e-21)
(0.973975 -0.00222632 -4.64679e-23)
(1.1132 0.0873676 -1.84339e-21)
(0.927411 0.0705827 -2.24845e-20)
(1.17795 0.0635331 2.18449e-21)
(1.06123 0.0399591 7.60523e-22)
(1.00049 -0.0167867 -5.28985e-23)
(0.999734 -0.000113243 -1.36653e-23)
(1.15901 0.125712 2.34055e-21)
(1.24379 -0.0167369 6.79872e-22)
(0.99641 0.0707983 -4.74434e-22)
(1.12462 -0.00073483 2.26886e-21)
(1.03825 0.0616455 7.22339e-21)
(0.990606 -0.00324561 -1.20251e-22)
(0.992203 0.0936205 6.98136e-21)
(1.04303 0.12003 3.97658e-21)
(0.987944 -0.00467116 -7.18122e-22)
(0.989982 -0.00432575 -2.67187e-22)
(1.17087 0.114198 6.16509e-23)
(0.89665 -0.0271791 -3.23406e-21)
(0.999889 -0.000208307 -4.3739e-24)
(0.98266 -0.00761709 1.12909e-21)
(0.905847 -0.0379426 2.38871e-21)
(0.99497 -0.110272 -4.08183e-22)
(1.01259 -0.00308836 -1.07968e-21)
(1.01125 -0.00752779 6.72109e-23)
(0.999837 -0.000259452 -8.20863e-24)
(1.04097 0.13262 -1.70664e-20)
(1.00089 -0.0152551 8.04623e-24)
(0.999865 -8.01393e-05 2.63387e-24)
(1.03787 -0.0779678 1.14517e-21)
(0.999354 -0.000576469 1.61993e-23)
(0.999707 -0.000100725 1.03776e-24)
(1.00748 -0.0159127 -6.76131e-23)
(1.06953 0.0907267 1.31044e-20)
(1.04696 -0.144118 1.97248e-21)
(0.948421 0.0717055 1.31352e-20)
(1.00009 -1.26034e-05 -4.06275e-24)
(1.07591 0.0949691 -1.36189e-20)
(1.02606 -0.067823 8.23632e-22)
(0.999901 -0.000256635 -1.23773e-24)
(1.00003 -8.44569e-06 -1.22571e-24)
(1.0026 0.0117224 -1.27326e-21)
(1.06426 0.0788399 4.92757e-21)
(0.994825 -0.00330419 7.46529e-23)
(1.05888 0.0619936 -6.42586e-21)
(1.00004 -2.72073e-05 8.8955e-25)
(1.05897 0.0685101 -8.85384e-21)
(1.21464 -0.138972 3.5571e-21)
(0.98727 -0.00419547 7.89548e-22)
(0.999354 0.0131464 -3.21705e-20)
(0.971731 -0.0701434 2.10326e-21)
(1.1608 0.135536 5.44102e-21)
(0.963418 -0.00653644 4.97897e-22)
(1.06457 0.0720902 1.15465e-20)
(1.07016 0.0827633 -3.56986e-21)
(0.978234 -0.0117022 1.83646e-21)
(0.971226 -0.0145255 -1.34998e-21)
(0.993746 -0.013613 4.2238e-22)
(0.996317 -0.000984365 -6.38177e-23)
(0.99974 -0.000253122 1.5689e-23)
(1.00055 -0.0146331 -1.51379e-23)
(1.05456 0.113973 -2.01797e-21)
(0.999963 -4.59235e-05 5.65513e-25)
(1.05347 0.0592771 8.497e-21)
(1.06642 -0.139725 3.16744e-21)
(1.00818 0.0757721 6.04717e-21)
(1.05307 0.0536184 -9.69518e-21)
(0.901568 -0.0356785 -2.91342e-22)
(0.95572 0.0916871 -2.73859e-20)
(0.997972 -0.00154334 5.40908e-24)
(1.02376 -0.0334107 2.17785e-22)
(1.08337 -0.0949352 8.38393e-22)
(0.971706 -0.00343265 -8.06427e-23)
(0.9917 -0.0045533 3.56282e-22)
(1.02259 -0.0701768 -7.25179e-22)
(1.07233 -0.0188573 -1.64113e-22)
(0.904943 0.0636282 3.53124e-20)
(1.00006 -2.51342e-05 4.35665e-24)
(0.9976 -0.00164782 7.27367e-23)
(1.03795 -0.100717 5.89303e-23)
(1.00002 -6.81818e-06 1.4384e-25)
(1.01418 0.11886 2.4668e-21)
(1.00225 -0.00157947 0)
(1.00002 -9.22764e-06 1.09803e-25)
(1.00025 -0.000116113 1.77465e-23)
(1.00051 -0.000163035 3.54956e-25)
(0.98146 -0.0285867 1.38931e-21)
(1.03094 -0.0208028 -5.8496e-22)
(0.998061 -0.00120601 1.14706e-22)
(0.999888 -2.34e-05 5.50876e-24)
(0.991138 -0.00427195 1.97807e-22)
(1.00667 -0.0166083 -4.66635e-23)
(1.01136 -0.163 -2.89837e-21)
(0.909985 -0.0119367 2.28427e-22)
(1.02449 -0.0124535 1.82395e-21)
(0.999965 -3.72994e-06 1.76011e-24)
(1.16514 -0.177471 4.27708e-21)
(0.982902 -0.00531026 -4.52119e-22)
(1.15645 0.105266 -3.49433e-22)
(1.00029 0.0101602 -4.40123e-21)
(1.0017 -0.00461954 2.55737e-23)
(1.14271 0.09328 -6.6183e-21)
(1.0002 -0.0001249 -3.65659e-27)
(0.983757 -0.00594107 1.31306e-23)
(1.02937 0.00115253 -3.1346e-21)
(0.991754 -0.00518221 -1.45895e-22)
(1.07164 0.106661 -7.89505e-22)
(0.98372 -0.00928 -8.5386e-22)
(1.06621 -0.0267985 -1.4267e-21)
(1.02969 0.00201401 -3.37219e-21)
(1.07432 0.0504549 -1.92341e-21)
(1.01064 -0.0196816 -2.64004e-22)
(0.987109 -0.00597091 2.12964e-23)
(1.09731 0.0896758 5.71711e-21)
(0.986817 -0.122674 -2.39917e-21)
(1.00093 0.117335 2.07324e-20)
(0.988672 -0.00673586 -8.33215e-22)
(1.07621 0.135172 -1.50176e-22)
(0.988623 -0.00590436 2.22615e-22)
(0.998554 -0.000690589 -7.48569e-24)
(1.06074 0.035871 2.1544e-21)
(1.02237 -0.0384836 -2.50138e-24)
(1.04546 0.00519294 4.62092e-21)
(1.00234 -0.00109028 3.75821e-23)
(1.00002 -7.47854e-06 5.02736e-26)
(1.03386 -0.182072 1.10001e-21)
(1.13182 0.143476 -8.55372e-21)
(1.002 -0.0044814 -3.59569e-23)
(1.15289 0.0953692 5.92969e-22)
(0.984635 -0.00863464 -5.5943e-22)
(1.15527 -0.189094 -1.74193e-21)
(1.06535 -0.0483615 -6.61619e-23)
(0.97941 -0.0451668 1.17388e-21)
(0.997916 -0.00134473 -4.8538e-23)
(0.988905 -0.00149046 -1.68609e-22)
(0.974656 -0.106242 -1.33967e-21)
(0.96047 -0.0141861 1.85018e-21)
(0.987901 -0.00551337 5.87753e-22)
(0.999819 -0.000587341 6.96425e-24)
(0.992893 0.123502 -2.56799e-21)
(1.13927 0.0839528 3.9766e-21)
(1.03174 -0.0125274 -5.70185e-22)
(0.99975 -0.00019728 1.05277e-23)
(1.04016 0.11361 -7.68824e-21)
(1.00001 -3.23744e-05 2.01025e-25)
(0.999769 -0.000175988 2.08474e-23)
(1.12949 0.0822701 3.56463e-21)
(1.0159 -0.0325831 1.12063e-22)
(1.14165 0.130123 6.85913e-21)
(1.02961 -0.00298974 1.29646e-21)
(1.02253 -0.0157354 -1.17961e-22)
(1.13128 -0.0703433 9.73862e-22)
(1.10286 -0.166616 3.28795e-21)
(1.23162 0.0662808 2.96555e-22)
(1.00163 -0.00112945 -8.27099e-23)
(0.936631 -0.0255452 -1.8077e-22)
(0.999976 -7.68494e-05 -3.99311e-25)
(1.00697 -0.0144376 4.91448e-23)
(1.0762 0.101993 4.85706e-21)
(0.979431 -0.0109306 1.28283e-21)
(0.996527 -0.00196912 1.00837e-22)
(1.02455 -0.0537593 -4.67852e-22)
(0.997556 -0.00145423 6.94534e-24)
(0.999515 -0.00144601 2.14361e-23)
(0.896924 0.0148223 6.31429e-21)
(0.987979 -0.00726061 -4.71348e-22)
(0.999322 -0.000954473 -6.2992e-23)
(0.999978 -8.05434e-07 -3.70318e-25)
(1.02019 0.00843831 6.79895e-21)
(0.965226 -0.0390952 -2.81453e-22)
(0.999596 -0.000720411 1.89099e-23)
(0.99653 -0.00114615 1.30032e-22)
(1.02744 0.0267611 2.77873e-21)
(1.08352 0.0170674 4.75268e-22)
(0.949013 -0.0357796 -1.60596e-21)
(1 -2.07047e-05 4.51357e-26)
(1.00099 0.0103387 1.8466e-20)
(0.982962 -0.0247346 -9.41126e-22)
(1.08291 0.0830827 -9.50021e-21)
(1.0162 -0.00150659 -1.64118e-21)
(1.0187 -0.00154747 3.74605e-21)
(0.958155 -0.017749 2.52021e-21)
(0.99988 -8.48219e-05 -1.72454e-24)
(1.02897 0.00058242 -6.21373e-22)
(1.08972 0.014299 -6.22189e-22)
(1.20925 0.0709535 1.00963e-21)
(1.07349 -0.130973 6.77439e-22)
(1.05083 0.107782 6.00886e-21)
(1.00718 -0.00214252 -2.66555e-23)
(1.10502 0.0938729 -7.85278e-21)
(1.0008 -0.0196448 -9.00123e-23)
(1.03199 -0.0756526 -1.98037e-21)
(0.999512 -0.000217007 -2.04483e-23)
(1.00567 -0.0258096 1.43693e-22)
(0.999874 -0.000562439 2.64264e-24)
(1.05643 0.0434817 -6.41111e-21)
(1.09775 0.144398 -1.67325e-20)
(0.998167 -0.00158622 3.85636e-23)
(1.02442 -0.0157783 2.37736e-23)
(0.977324 -0.00660447 4.41916e-22)
(1.07494 -0.112351 3.03726e-22)
(1.06906 -0.12118 -1.58537e-21)
(0.997677 -0.00114841 7.64054e-23)
(1.06067 -0.0316611 -5.32465e-22)
(0.906143 0.00438138 -1.0659e-20)
(1.20651 0.0509365 3.30397e-22)
(0.999933 -0.00021843 6.09301e-24)
(1.07807 0.0133952 -1.69229e-21)
(0.996669 -0.0122856 -2.06639e-22)
(0.995692 0.00216867 2.25476e-20)
(0.984598 -0.00755269 7.76989e-22)
(0.99683 -0.0368942 -2.67232e-22)
(1.02715 -0.047054 -2.61395e-23)
(0.995092 -0.0383209 -3.9941e-23)
(0.999682 -0.0290924 -6.01291e-22)
(0.990541 -0.00463405 1.36372e-22)
(0.999592 -0.0195379 3.18977e-22)
(1.00268 -0.00835746 -4.02662e-23)
(1.07455 -0.0232564 3.90645e-22)
(1.00014 -3.16286e-05 -1.13694e-23)
(1.249 -0.08678 -1.51698e-21)
(1.19394 0.00504489 -3.14541e-22)
(1.02692 0.129832 1.40744e-20)
(0.95168 -0.0337273 2.42774e-21)
(1.132 0.125589 -3.51736e-21)
(1.00247 -0.000846053 1.34333e-22)
(1.10341 -0.0897199 -2.31987e-23)
(1.01042 -0.0524697 -6.69784e-22)
(1.02353 0.0460632 8.07442e-21)
(0.99123 -0.00560394 3.3872e-22)
(1.00014 -0.000240776 7.49816e-24)
(0.984002 -0.025704 1.22643e-21)
(0.994848 -0.0132071 -1.60244e-22)
(1.0566 -0.0288644 1.22034e-21)
(0.962602 -0.0108229 -1.56573e-21)
(0.969615 -0.0135979 4.46212e-22)
(1.16287 -0.0302294 -8.59423e-23)
(0.980953 -0.00426419 -7.69231e-22)
(1.024 -0.0496705 3.10489e-22)
(0.998347 -0.116492 1.73645e-21)
(1.00001 -1.09036e-05 9.30267e-26)
(1.07556 -0.0135631 2.30042e-21)
(0.998901 -0.104051 -4.55113e-21)
(1.13826 0.11009 3.19876e-21)
(1.13329 -0.0791208 -1.85243e-21)
(1.04352 0.00451848 3.88847e-22)
(1.0554 -0.137055 -4.01958e-21)
(1.05175 0.140752 3.67458e-21)
(1.04944 -0.0440296 2.65103e-22)
(0.956156 -0.0164495 -1.4916e-21)
(1.0255 -0.0628982 -9.59673e-22)
(0.958942 0.00619951 1.00889e-20)
(1.21169 -0.0997871 9.33988e-22)
(0.983693 -0.00703793 -2.36337e-22)
(1.06532 -0.172175 -3.15216e-22)
(1.04554 -0.0874037 1.3785e-21)
(1.08275 -0.153279 -5.94682e-22)
(1.06996 -0.10379 -1.65119e-21)
(1.09662 0.0818711 7.29785e-21)
(0.996565 -0.00226388 6.63618e-24)
(1.00881 0.0506226 3.02853e-21)
(1.00969 -0.00205981 1.93851e-22)
(0.999516 -0.000729258 -2.71088e-23)
(0.998561 -0.00314719 1.92297e-22)
(1.07323 0.00491832 -5.83387e-22)
(0.85168 0.00517866 3.07382e-22)
(1.00224 -0.0089526 1.97695e-23)
(1.03122 -0.0700831 2.82081e-22)
(1.02764 0.0306154 -4.61256e-21)
(1.00003 -9.65728e-06 -2.14831e-25)
(0.972738 -0.013612 1.07676e-21)
(1.02836 -0.0117711 1.31096e-21)
(1.10052 -0.044741 5.0653e-23)
(1.00985 -0.00102094 1.08773e-21)
(0.998046 -0.00281924 3.49526e-23)
(0.982254 -0.0572772 1.57473e-23)
(0.997535 -0.0117756 -6.23374e-23)
(1.00004 -7.99725e-06 2.35513e-24)
(0.974746 -0.068408 -3.55179e-21)
(1.06119 0.100373 -2.11556e-21)
(1.02886 -0.0406489 1.42979e-22)
(0.978391 -0.00745873 -8.23923e-22)
(1.00225 -0.000582701 -4.81407e-23)
(1.03141 0.0327127 6.07352e-21)
(0.999529 -0.000889413 -1.24723e-23)
(0.998457 -0.000905661 -3.89832e-24)
(0.999554 -0.000237251 -1.86554e-23)
(0.999112 -0.00296655 -4.83641e-23)
(1.19583 0.0717807 1.37589e-21)
(1.04081 -0.0451122 6.25115e-23)
(1.01163 -0.0248558 6.63549e-23)
(0.97695 -0.0110308 -3.76767e-22)
(1.00006 -7.10076e-05 2.28817e-24)
(1.12569 -0.152844 4.49167e-21)
(1.24331 0.000957099 6.63622e-23)
(1.13619 -0.163373 -2.16152e-21)
(0.999328 -0.0469265 -5.0425e-22)
(1.0177 -0.0118624 1.22218e-21)
(0.999736 -0.000138678 8.62585e-24)
(0.985808 -0.01672 -4.9158e-22)
(0.947011 -0.0726014 -2.0205e-21)
(1.19494 0.0525652 3.83529e-22)
(1.00647 0.0731783 -2.18115e-22)
(0.998613 -0.00446035 3.89555e-23)
(0.924546 -0.0524417 1.1008e-21)
(0.994111 -0.00392093 -3.24921e-22)
(1.04633 -0.0407034 1.75008e-23)
(1.11108 0.0786498 6.97715e-22)
(1.00055 -0.000184407 -4.03916e-23)
(0.999804 -0.000300024 -3.21444e-24)
(1.1685 0.121273 5.83939e-22)
(1.19086 0.0315733 1.53045e-22)
(1.02367 -0.0196901 4.37032e-22)
(0.996327 -0.00246911 1.71694e-22)
(0.997384 -0.000657389 -1.69816e-23)
(0.957543 -0.0728928 4.95898e-22)
(0.999785 -0.000491498 -1.05702e-23)
(1.02621 -0.0432612 -6.11918e-23)
(0.982734 -0.00209116 1.57729e-21)
(1.00038 0.0119897 -3.65637e-21)
(1.06592 0.106576 -1.10534e-21)
(1.09552 -0.0834681 7.27811e-22)
(1.00477 -0.103864 1.67642e-21)
(1.00809 -0.00184817 5.37021e-22)
(1.02077 -0.0323854 -2.93666e-22)
(1.1831 0.0120917 8.65679e-23)
(1.00593 -0.115982 -1.0643e-21)
(1.02922 -0.0600311 5.45737e-22)
(0.999998 -1.07495e-05 4.87919e-26)
(1.16969 -0.00650719 -4.32056e-22)
(0.965637 -0.00439514 1.49835e-22)
(1.00689 -0.129358 2.12536e-21)
(1.02775 -0.0373246 -3.53875e-22)
(0.939798 -0.0241079 -3.3284e-22)
(0.9995 -0.000415305 -9.10441e-24)
(0.996265 -0.00184531 -7.6646e-23)
(1.04801 0.0511673 7.49049e-21)
(0.960395 -0.0165567 -5.657e-22)
(0.999981 -3.23394e-06 3.86136e-25)
(0.996396 -0.000766944 -1.79542e-22)
(1.20511 -0.0835185 -5.36359e-21)
(0.999791 -7.27848e-05 2.18601e-23)
(1.03501 -0.0668209 -1.90178e-22)
(0.999939 -0.000173368 -4.62036e-25)
(1.00922 -0.0184679 -3.39877e-24)
(1.01007 -0.155773 1.33281e-21)
(1.08643 -0.0859077 -5.37425e-22)