/*--------------------------------*- C++ -*----------------------------------*\
  =========                 |
  \\      /  F ield         | OpenFOAM: The Open Source CFD Toolbox
   \\    /   O peration     | Website:  https://openfoam.org
    \\  /    A nd           | Version:  7
     \\/     M anipulation  |
\*---------------------------------------------------------------------------*/
FoamFile
{
    version     2.0;
    format      ascii;
    class       volScalarField;
    location    "15.5";
    object      p;
}
// * * * * * * * * * * * * * * * * * * * * * * * * * * * * * * * * * * * * * //

dimensions      [0 2 -2 0 0 0 0];

internalField   nonuniform List<scalar> 
7807
(
0.412963
0.0287516
0.572986
0.387303
-0.00220552
-7.95753e-05
0.57316
-0.0139755
-0.00027235
0.174944
-7.46558e-05
0.00638332
-0.020958
0.0919356
0.181163
-0.0265891
0.424173
-0.0275002
0.00342979
-0.116175
0.125832
0.00421575
0.0686799
0.312882
-0.0357963
0.42349
-0.00202787
0.111662
0.266708
0.00727147
-0.0372485
0.836244
0.0678319
-0.0012297
-0.00024795
0.145702
0.00817574
0.5567
-0.0115482
-0.000848718
-0.0104603
-0.0257093
-0.107316
0.00644189
-0.000495534
-0.000190429
0.00415884
-0.0117966
-0.000154033
-0.112511
0.00950501
0.106067
-0.0452948
-0.000521584
0.144707
-0.0124161
0.00372336
-0.0140128
-0.0577239
-0.00128857
0.000128213
0.0121386
0.092209
0.00702911
-0.00252848
-0.0363001
-0.000214333
1.48188e-05
0.197709
-0.0110038
-0.000173228
-0.0963268
-0.0345571
-0.0592087
-0.0265266
-0.0827388
0.565071
0.122837
0.131335
-0.109759
-0.0200835
0.516603
0.174292
-0.0615402
-0.00372333
-0.00597437
-0.0149442
-0.0438896
-0.00166765
-0.0117393
0.272895
0.00954103
-0.000320728
0.00353768
-0.00933339
-0.0607174
-0.0915198
0.00486841
-0.00412219
-0.0030269
-0.102703
0.143173
-0.00885633
-4.13149e-05
0.0252146
0.28311
0.729284
-0.013195
-6.63311e-07
0.0662422
0.36881
-0.0592302
-2.19454e-06
0.070417
0.282648
0.00128271
-0.0571362
0.232436
-0.0674427
-0.0603724
-0.106889
0.495565
-0.0987375
0.0270565
-0.104179
-0.00249098
-0.0332653
0.00569546
-0.00266751
-0.0371177
-0.043868
0.129566
-0.00154929
-0.00197784
-0.0637741
0.35834
0.600458
-3.5384e-05
0.0209682
-0.134719
-0.0560584
-0.0778952
-0.0831733
-0.0567056
0.737225
-0.0241585
0.269339
-0.0554573
-0.0781141
0.494044
0.139187
0.0171478
-0.00385347
0.173517
0.173133
0.522422
-0.0943177
-0.0208837
0.693554
-0.000138254
0.00194753
0.32318
-3.45765e-05
-0.00529117
-0.010534
0.392232
0.393265
0.716234
-0.00606467
-0.00812708
1.70124e-05
-0.111072
0.00126468
0.0390272
0.0227386
-0.0769334
0.0503196
0.265816
-0.0003173
-0.00127439
0.394811
-0.000138035
-0.000268048
0.576322
0.0226947
-0.0539664
-0.0631996
-0.055576
-0.0304908
-0.131775
-3.93212e-05
-0.0880963
0.275497
-0.00893088
0.000221786
0.32262
-0.00328168
-0.0348575
-0.0304837
1.91424e-05
0.00261986
0.365602
0.31175
0.523496
-0.0495055
-0.0502485
-0.101807
0.120917
0.359898
-0.000532903
0.000114258
0.695854
-0.0227362
-0.00161839
-0.0839625
-0.0348488
0.482239
0.490595
-0.085054
0.795579
-0.00303838
-0.0271381
-0.10543
0.14697
-0.131819
0.373728
0.694725
0.000203714
0.0282659
0.245551
-0.0109326
0.228438
-0.00140388
0.761711
0.512402
-0.0148738
0.00802499
-0.000785505
0.273172
-0.000226022
-0.0163605
-0.125942
-0.000172458
-0.00353579
-0.00109973
0.26866
-3.30952e-05
-0.012202
-0.106343
0.834627
0.117329
0.741144
-0.0001009
-0.0354655
-0.000464639
0.542458
0.0116992
0.602458
0.00444496
0.00224725
0.0238288
0.125815
0.001707
-0.000582266
0.00152451
-0.0115111
-0.0504535
-9.34993e-05
-0.0911857
-0.0100246
-0.00035377
-0.00168392
0.578215
-0.0208914
-0.00206401
0.792659
-0.00391461
0.395493
-0.000523596
0.00435935
2.67363e-05
-0.0612116
0.141255
0.0641305
-0.0580073
-0.00107673
-0.102665
-0.0410449
-0.00045725
0.00147928
-0.00585617
-0.0200947
0.00852134
-0.00329687
-0.0588002
-0.041191
-0.0580988
0.0223511
-0.073477
0.510292
0.526639
-0.00408378
0.0328684
-1.46202e-05
-0.00631768
-0.0614405
0.305201
0.192746
0.000301647
-0.00579328
-0.0714218
0.276109
-0.00269425
0.0104026
0.00359349
0.139077
-0.0637047
0.492966
-0.00437456
0.0309722
-0.000282031
0.0120317
-0.000122058
-0.0443058
-0.00090988
0.015505
0.00410774
-0.0714702
0.00808424
0.0253611
-0.00199321
0.0597526
-0.0183639
0.159394
0.271278
-0.128576
-0.00608649
-0.0422964
0.0148742
-0.122366
0.730855
-0.000946835
0.0850008
0.780404
-0.00421419
-0.0047877
0.00210698
-0.0029074
-0.0188298
0.018264
-0.0076879
-0.00569558
0.259015
-0.000150509
0.00163814
0.000246434
-0.00940131
-0.0188605
-1.79583e-05
-0.00300497
-0.0553076
0.691574
0.0104014
-0.0223408
0.653135
0.442294
0.137763
0.0471847
-0.112571
0.0143261
0.380939
-0.0296595
0.439904
-0.0366126
-0.105485
0.313608
0.443403
-0.0863829
0.182761
0.372081
0.409708
0.118808
-0.00839926
-0.0116211
-0.000216281
0.0141116
-0.0302982
0.00295221
-0.000266753
-0.00441232
-0.1039
0.183148
-0.0443404
-0.006485
-0.0104691
0.0252622
-0.0191724
0.00542966
0.338512
-0.00516149
-3.81123e-05
-0.00011311
0.000169712
-0.0535321
0.252081
-0.0110408
0.0773788
-0.138378
0.546755
0.00969474
0.0193438
-0.0140909
0.561032
-0.00289915
0.488956
0.274405
-0.00029281
-0.0411128
-0.00910368
-0.0735046
0.00168119
0.148342
0.0109258
0.0179895
-0.0023311
0.251209
0.279306
-0.0629667
-0.0550863
-0.00621112
-0.0353925
0.166912
0.822951
-0.0360309
0.0133278
-6.21726e-07
-0.0348426
-0.00625641
0.0547541
-0.117643
0.015207
0.580528
0.259711
-0.084766
0.336147
0.54983
0.0746463
0.0035865
0.39812
-0.00241967
-0.000470446
-0.0453811
0.000275229
-0.114703
0.000879198
-0.0558787
0.00558706
0.327433
-0.00488663
-4.56786e-05
-0.116143
0.00505803
0.100611
-0.0988503
-0.131314
0.0924208
0.247213
0.205906
0.21094
-0.000534675
0.173288
0.170737
-0.00141728
-0.0427088
0.00179748
0.0185401
-0.0026031
0.0136279
-0.00210853
0.262848
-3.77942e-05
0.000606141
0.00572213
-0.0553157
0.057912
-0.0532508
-0.0651981
-0.0480571
-0.135936
0.0280579
0.387691
0.0213902
-0.0179577
0.770525
-0.0888824
-0.0198328
-0.0646171
-0.0148469
-0.052151
-0.0268313
0.0783627
-0.00788775
-4.94662e-05
0.0685765
-0.000238639
0.511284
0.210353
-0.0131973
-0.0362761
-0.000488515
0.518085
0.472718
0.150243
0.284427
-0.0937455
0.617812
-0.000139004
0.0614463
-0.0462209
0.272751
0.71948
0.14966
0.248555
-0.00436948
-0.000531198
0.262391
-0.0221982
0.539331
0.101421
0.343182
-0.0189044
0.556243
0.453815
-0.023917
-0.0202619
0.231448
-0.134223
-0.00019707
-0.0333947
-0.128314
-0.093005
0.0311682
0.0260383
-0.00030558
0.476791
-0.00236093
-0.000255978
-0.0345285
-0.00131796
-0.000584662
0.0102979
0.349441
-0.104671
0.676256
0.000200838
0.347055
-0.0292804
-0.000169249
6.32332e-05
0.263483
0.336538
-0.0108766
0.307794
9.04931e-05
0.322802
-0.125843
-0.0250132
0.573491
-0.0805768
0.271715
-0.0619358
0.321119
0.333955
-0.041218
-0.0521591
-0.0154889
-0.00762493
-0.000516898
-0.00278045
0.419959
-5.45872e-05
0.310385
-0.0957254
0.475289
0.296527
-0.131438
0.659171
-0.00427248
0.0177617
-0.0411215
-0.049919
-0.0170841
-0.0355065
0.0873842
0.75762
0.000142343
-0.00505173
-0.0596245
2.25126e-05
0.519554
0.00514489
2.28567e-05
0.000583019
0.00111261
-0.0424359
0.0527986
-0.00406177
-0.000210426
-0.0180981
0.0077728
-0.132364
-0.120807
0.0584582
-4.71915e-05
-0.141455
-0.0326293
0.236918
0.467298
0.00334302
0.240706
0.000465669
-0.0312968
0.159455
-0.0170957
0.372859
-0.0319918
0.0682589
0.165127
0.256916
0.0133883
-0.0256098
0.302453
-0.11034
0.551378
-0.0230127
0.41111
-0.0229328
-0.00302921
0.23746
0.00808958
0.160622
0.0053117
1.97432e-05
-0.141529
0.330509
0.00408307
0.22862
-0.0303587
-0.147054
0.0266734
-0.0551495
-0.00437828
-0.0218126
-0.102087
-0.0664716
-0.024158
-0.000351108
0.577541
0.231654
0.0772449
-0.00049305
0.450367
2.65246e-05
-0.000450885
0.242334
0.00695875
0.29816
0.110325
0.0461795
-0.0126737
-0.124484
0.0855797
0.00366
-0.0961671
-2.56085e-05
0.0106669
0.360727
-0.039273
-0.00731391
-0.0113579
-0.00512642
-0.00102758
0.777828
-0.0243234
-0.00141739
-1.13518e-05
0.22477
-0.0683115
-0.000824758
-0.00723441
0.258143
0.167066
-0.0855362
1.44637e-05
0.279803
-0.0382646
0.313237
0.0432658
0.0528562
-0.0701024
-0.000223649
0.161263
0.156221
0.122681
-0.0842629
0.418373
0.0164351
0.297727
-0.00586563
-0.034809
-0.00100366
-0.00210738
-0.000235482
0.265134
0.388947
-0.00385903
0.0513618
-0.0417344
-0.0630066
-0.075173
-0.00486203
0.0567507
0.750034
0.097332
-0.00010735
0.163543
-0.00948463
0.649816
-0.0301819
-0.0262274
0.00122246
-0.0303698
-0.0154083
-0.0192613
-0.00801847
0.00437087
0.0772841
0.000319894
-0.0962375
0.0535826
0.501507
-0.0821473
0.3045
0.00560982
-0.0322547
-0.0245567
0.321866
-0.018137
0.000330257
-0.0372495
-0.0133867
0.0603952
-0.0633647
-0.0543344
0.0322599
-0.0354672
-0.00632803
-0.0981806
2.17532e-05
0.100181
-0.0860966
0.272374
-0.0263729
0.159194
-0.0939136
0.464164
0.0255923
-0.0724306
-0.0232704
0.68325
-0.0803364
-0.0316143
-0.126768
-0.0411797
-0.107963
-0.054596
0.289329
-0.00726595
0.371829
0.0233572
-0.000988367
-0.00311403
0.145507
0.840862
0.00318181
-0.028525
0.269555
7.50591e-05
-0.0498659
0.0708397
0.0348061
0.0236787
-0.00420253
-0.0610637
-0.00759884
9.54293e-05
-0.0764754
0.384909
0.0129533
-0.040149
0.00516471
0.269719
-0.000957115
-0.00323804
-0.000913711
-0.00197989
0.140462
0.0161968
0.00976794
-0.0430513
0.000149027
-0.107993
-0.00365862
-0.124293
-0.0320519
0.0392926
-0.000527036
-0.0306608
-0.10392
0.115021
0.477992
-0.00323409
-0.115582
-0.0123775
0.0293535
0.261913
0.0012281
-0.000374881
0.243658
0.0926667
0.0407051
-0.0077732
-0.0054525
-0.094708
-0.000423851
0.00578195
-0.0324501
0.418421
0.385651
-0.024647
-0.0817388
0.0194103
0.0147583
0.0717161
-0.093179
-0.0157846
3.97409e-06
0.058932
-0.0591521
-0.102694
0.0169612
-0.092807
-0.00102029
-0.00784291
0.29846
-0.0672064
-7.99616e-06
-0.00740821
-0.0632951
-0.000407509
-0.0206564
-9.85138e-05
0.0116964
-0.128176
-0.0279223
-2.23031e-05
9.97952e-05
0.197601
-0.0627517
0.521114
0.397418
0.0480252
-0.0014741
-0.019056
0.000626628
-0.0548432
-0.0946442
0.0703264
-0.0389833
0.389906
0.0243391
0.000781628
0.0180643
-0.105826
0.00531383
-0.0259837
-0.100411
0.00871114
0.042937
0.11828
0.024444
-0.0530276
-0.0496542
0.280012
-0.0314806
3.98276e-08
-0.106277
-0.111598
-0.0374886
0.0124616
0.00207934
0.0243624
-0.122338
0.0627731
-0.0636985
0.23253
-0.0431384
0.0168388
0.0380587
0.0384054
-0.0648079
-0.0708144
-0.00022714
0.222539
0.303914
0.0153683
0.335846
-0.0848485
0.0846585
-0.0615594
0.293643
0.163495
0.743547
1.72009e-05
0.173655
0.268572
0.0285332
-0.00295741
-0.0338046
0.0420294
0.000142231
-0.0336031
-0.0723171
-0.0370376
-0.0406767
0.000378995
-0.0339347
-0.000710536
-0.00174926
0.34118
0.0139649
0.174589
0.040569
0.299558
0.0243086
-0.00074818
-0.0795785
0.0172372
0.498205
0.00265941
-0.0771388
-0.000403433
-0.00107628
0.016329
-0.0490193
-4.0124e-05
-0.0201986
0.0569272
-0.00388602
0.000101686
-5.99722e-05
0.228015
-0.000796617
0.0139398
-0.00220338
0.0176406
0.0301037
0.0177251
-0.000542452
0.486369
-0.0619528
0.31789
0.430801
-0.000395034
0.160636
0.18928
-0.00151387
-0.000496632
-0.000807397
0.0397976
0.0367935
-0.0140308
-0.0301421
-0.100144
0.255367
-0.0934062
3.29055e-05
-0.0355801
-0.0327949
-0.065278
-0.00848264
0.0122282
0.00258414
0.0531151
-0.000998622
-0.000418581
-0.0316304
-0.00838645
-0.0455664
-2.4114e-05
-0.0272319
0.0637336
0.00967148
-0.0113383
-0.0160498
-0.0216649
-0.016946
-0.0101325
0.0239095
-0.0175209
-0.000181062
-0.000755573
0.0456838
-0.0225587
-0.00960114
0.016963
0.00715884
-0.150809
-0.020433
0.233214
-0.0232386
-0.0915133
-0.0422374
-0.0414641
-0.0286213
-0.00730075
0.00458055
-0.00683808
-0.0256596
-0.0296151
0.291372
0.237996
0.0985794
0.465147
-0.000121896
-0.00617872
-0.0302174
-0.0150268
0.176504
-0.0371161
0.0996833
-0.00804861
0.31655
-0.00372638
-0.0031092
0.0407849
-0.0251205
-0.000395969
-0.0353556
-0.0114209
-0.0382542
-2.6057e-05
-0.0128449
0.00402756
-0.0320621
0.0712024
0.0640447
0.0355651
-0.0257105
-0.0573578
0.179735
-0.0024263
-0.00378954
-0.00407948
0.647594
-0.000129953
0.132128
-0.0389983
-0.0373972
-0.0484548
-0.069477
-0.0525168
-0.0623095
-0.0332294
-0.00889248
-0.000164965
-0.00826974
-0.0397731
0.159674
0.00341477
0.262383
-0.0598829
-0.0242936
-0.00175953
-0.052572
-0.000175943
0.222564
-0.0549666
-0.0477429
-0.0434862
-0.00728399
-0.0585294
-0.00325519
-0.0738339
0.16164
-0.047178
-0.106694
-0.00280864
-0.0493236
-0.0337438
0.0289682
-0.00623945
0.214217
-0.00463821
-0.0351028
-0.00126423
0.237617
-0.0708241
-0.0483656
-0.00627943
-0.0180465
-0.00530312
0.294364
0.0458438
0.324851
-0.00911524
-0.00154121
-0.00241341
-0.00446447
0.292606
-0.107885
-0.0131088
0.000713065
-0.0122583
-0.0101195
-0.00168717
-0.0200972
-0.0287273
0.0978143
-0.00957786
0.0111818
0.636794
-0.1109
-0.052798
-0.10347
8.71647e-05
0.125049
-0.00684461
-0.0492078
-0.0108076
-0.0649327
0.00890497
-0.000994666
-0.005597
0.00644154
0.288773
-0.0113017
-0.00342547
-0.00896289
-0.0918329
-0.0159901
-0.0407415
0.0087613
-0.0167557
-0.0172489
-0.00632041
0.295849
-0.0835504
0.0063758
-0.00816545
-0.050497
-0.0266096
-0.0897596
-0.00266881
0.14914
0.0436129
-0.015077
-0.00330257
-0.0256505
0.665049
0.290502
-0.0215173
-0.00108519
-0.00458511
0.0153947
-0.00766525
0.0396238
-0.000760377
-0.02496
-0.00379766
-0.0319161
-0.0120999
-0.00200096
-0.0194214
-0.00259112
0.438338
-0.0123298
-0.0222954
0.017693
-0.00370046
-0.0549252
0.15915
0.593783
-0.0204436
-0.0216258
-0.00406812
-0.000849891
1.82001e-05
-4.4434e-06
-0.019295
-0.00124464
0.20308
-0.00125201
-0.00348289
0.0161805
-0.000464766
-0.0804135
-0.0856829
0.0323048
0.0700156
0.0479965
0.135901
-0.047283
0.146648
0.115538
0.153035
0.188651
-0.0246179
-0.00163382
-0.0108562
-0.0958883
-0.00678348
-0.0283712
0.111727
0.462159
-0.074905
-0.000899108
-2.41054e-05
-0.00280657
9.60548e-06
0.0189788
-0.00102987
-0.0086046
-0.0864443
0.0011173
0.00526686
-0.00038668
0.125121
-0.0291503
-0.0255527
-0.00228198
0.444148
0.407815
-0.019114
-0.0847856
-0.0512278
-0.0447878
-0.0271577
-0.00358351
-0.109432
-0.045984
-0.0749709
-0.0122985
-5.74972e-05
0.288823
-0.0145438
-0.018426
-0.0409828
0.0356313
-0.000989955
-0.0159569
-0.00260282
0.0272201
-0.00286314
0.268975
0.000733751
0.0192642
-0.000765562
-0.053953
0.0171525
-0.00140243
0.0306516
0.000857717
0.0923831
0.194881
0.00443289
-0.00275336
-0.000212831
-0.00106986
-0.000940631
-0.109267
0.191956
0.0761109
-0.000485994
0.0191771
-0.000843969
0.324425
-0.106986
0.366738
-0.0776241
-0.000836382
-0.000508962
-0.0139438
-0.0108291
-0.00117206
-2.72673e-05
0.0473713
0.0535344
-0.000422584
-0.000594486
-0.0367222
-3.31139e-05
0.24882
-0.00176414
-0.094298
-0.0354006
-0.0121969
-0.0988386
-0.107971
0.226752
-0.0196042
-0.0376725
-0.000578132
-0.101142
-0.0384252
0.0635583
0.199274
0.480628
-0.00223055
-0.105882
0.0276305
0.43282
0.0709
-0.000202903
-0.0115269
-0.00780311
-0.00947952
-0.0860154
0.155633
0.000401658
0.0419653
0.00609616
0.142254
-0.000971554
-0.000194151
-0.0532522
0.40061
-0.0975267
0.23825
-0.00233509
-0.000354722
-3.15547e-06
-0.0960387
-0.075164
-0.000615224
0.183683
0.0213225
-0.0102153
0.548721
-0.000705855
-0.00704028
-0.104192
-0.0247491
-0.00435851
0.205384
-0.0741953
-0.00029108
0.027766
-0.000295579
-0.000164694
0.221932
0.010476
-0.000838934
-0.0922719
-0.0452166
-0.006696
-0.0297893
0.004735
-0.0421106
0.00333667
-0.00667649
-0.114597
-0.0683521
0.0442254
-0.00169298
0.24096
0.29957
-0.0920892
0.0194467
0.0359785
-0.00818534
0.246514
0.183427
-0.0512972
-0.000279645
0.0195603
-0.0986912
0.0278274
-0.0502043
-0.00399859
0.0884269
-0.050287
-0.000236864
-0.000111352
-0.0354129
-0.043992
-0.0476305
0.019016
0.0534771
-0.0786875
-0.000254318
-0.00261598
-0.000360968
-0.0567702
-3.31761e-05
-0.00367997
-0.0596707
-0.11889
0.21089
-0.00567955
0.00813544
-0.0388435
-0.0466071
-0.00021659
-0.0829706
0.208742
0.234845
5.73589e-05
-0.000188869
0.238764
-0.00478276
-0.11459
-0.0726407
0.00659697
0.00100457
-0.122227
-0.00511408
0.244014
-0.100961
-0.0027929
-0.0152494
-0.090414
-0.00106812
-0.000430934
-0.00170377
0.020028
-0.0914023
0.241337
-0.000371357
0.662161
0.0375543
0.000266512
-0.00179655
0.000536876
0.000609522
-1.39553e-05
0.000305177
-0.0945656
-0.00133946
0.000886042
-0.000349709
0.213227
-0.0109134
-0.000339184
-5.49215e-05
0.495575
-0.0394071
-0.00713497
0.00230819
-0.00133807
0.109996
-0.000156965
-0.0216254
-0.0930788
0.00430332
-0.011881
-0.000159712
-0.000358104
-0.0552637
-0.0826134
0.013924
-0.0937893
-0.0537641
-4.12559e-05
0.0393762
0.05851
0.170852
-0.00326446
-0.000270006
-0.0997412
-0.0116126
-0.000907925
-0.0880759
-0.000233581
0.0796002
-0.000127062
-0.00240784
0.0738531
-0.00391549
-0.10419
0.611361
-0.00308095
0.000573517
-0.0933615
-0.0835903
0.0179691
0.00912789
-0.000261846
-0.056738
-0.000132666
0.28545
0.794655
0.157445
0.00594816
0.00705539
-2.12299e-05
-0.050245
-8.0576e-05
-0.0118253
-0.00320891
0.000768682
-0.00639456
-0.0174341
-0.000208941
0.00174873
-0.0141359
-0.000565151
-0.0181301
-0.0302712
-0.00216017
-0.00210469
0.715361
-0.00126309
0.00479906
0.00051106
0.0261716
-0.0889507
0.0184968
-0.000304659
-0.000166185
0.00526357
-0.000179439
-2.69005e-05
-0.0209823
0.00139925
-3.43964e-05
-0.0908472
-0.00416977
-0.100688
-0.00310097
-0.000109345
-0.0059413
-0.00746849
-0.0273753
-0.0373501
0.00455278
0.00106013
-0.000850338
-0.00372842
-0.000120377
0.39201
0.00308179
-2.59143e-05
0.00120084
-0.00381205
-0.000630742
-0.113641
-0.0975825
-0.000207195
-0.0132175
3.96526e-05
-0.0047934
-0.000117894
0.0632621
-0.000235878
-0.000314702
-0.00647869
-2.28083e-05
0.0255803
-0.000392249
-0.00237267
0.0350959
3.82439e-05
0.513234
-0.0952272
-0.0745861
-2.94619e-05
-2.97799e-05
0.00378352
-0.00222334
-0.0887796
-2.21678e-05
3.7113e-06
0.00150121
-4.35219e-06
0.000776115
0.000914028
-0.000835554
0.00157523
-0.0940527
0.629499
-0.0554048
0.469283
0.0173018
-0.029931
-2.28276e-05
-0.00163698
-0.0227632
0.000314499
0.000588527
0.000361691
0.135291
-0.00246998
-0.000368881
0.643195
-0.000990289
0.00119736
0.00102032
-6.00125e-06
0.128799
-0.00407557
0.00225344
0.000276134
-0.000934926
-0.000109913
-0.00166919
-0.0783849
-0.000755686
-0.00289945
-2.36106e-06
-5.03235e-06
-0.000457817
0.280289
-0.000801702
-0.000463339
-0.124207
0.00730659
-0.000119572
-0.00249811
-9.72707e-05
0.258463
-0.129787
-0.000501517
-0.000700227
-0.00339392
-0.000246807
0.103126
0.190006
0.0872863
0.00104769
-9.2375e-06
-1.0927e-06
0.109759
0.00052824
-0.109232
-0.0367857
-0.0290823
0.061233
0.717077
0.00385865
0.30204
-0.0268647
-0.0527838
0.26254
-0.000641965
-0.117053
-1.41861e-05
-0.0167814
-0.088651
0.000126562
-0.081409
-0.00176271
-0.000615643
-0.00986888
-0.0774433
-0.0763675
-0.00564381
-0.106575
-0.0798163
-0.000324596
-0.022702
-6.12534e-05
-0.0679983
-4.10309e-05
-0.000322418
0.0459952
0.250173
6.711e-07
-0.0814185
0.00695088
0.000174913
-0.0373833
2.11125e-05
-0.0255867
-0.000448143
-0.0698353
0.000272777
-0.00013749
-0.00375422
-4.57774e-05
0.244778
-0.0552791
0.152781
-2.66978e-05
0.00126188
-0.059285
3.46333e-06
-0.102134
-0.118883
-0.100186
0.668414
-0.012095
-2.36622e-05
0.0485826
-0.0754077
-0.00460217
-7.14209e-06
-0.000136152
-0.0853023
0.00027996
0.00174265
7.19682e-07
0.000347048
-0.0513278
0.224917
-0.0716007
0.169685
-0.00996942
-1.66357e-06
0.0128592
-0.0843381
-3.078e-05
-1.67043e-05
0.000661014
0.000146098
0.000826756
0.359353
0.0648347
0.000128999
3.30642e-05
-0.119191
0.300779
0.272322
-6.74111e-05
-0.065552
-0.0342791
-0.0185913
-0.0866002
-0.0152445
-0.00541269
0.220044
-4.9942e-05
-0.0480214
0.258352
-0.0878008
-4.27371e-06
-0.110812
-0.000296476
0.426742
0.0542289
6.46317e-06
-3.18747e-05
0.285585
1.01923e-05
-0.000301224
-0.0218837
4.44829e-05
0.369808
0.00677599
-0.0136928
-0.116771
-0.00699371
-0.11724
0.27849
-0.0144347
-0.00426368
0.00196056
-1.88348e-05
-0.00185744
1.12646e-05
-1.02878e-05
0.0542554
0.273672
0.23218
-0.000782641
0.35737
-0.0187289
2.6112e-05
-0.0827634
-6.66434e-06
-0.0504928
0.0558366
-0.0257838
0.0085816
0.00364386
-0.0173043
0.0005303
-0.0030731
0.0386378
-0.00534172
-5.76814e-05
7.15207e-05
-9.50433e-05
0.0572213
0.000132394
-0.0384166
0.375729
-0.0111013
0.000116725
-0.00642123
2.97973e-06
0.167856
-0.000630058
-0.00010077
-0.000136463
-1.24291e-05
0.312944
-0.000242284
0.356034
-0.108818
0.000247759
-0.0907573
-0.000840989
0.241345
0.658029
-0.00258102
6.30584e-06
4.95638e-05
-2.35535e-05
0.231511
2.14931e-06
0.00207285
-0.0444342
0.338363
2.14122e-05
4.52392e-05
7.24825e-06
6.0776e-05
-0.0375206
5.09141e-06
0.402356
-0.0285439
-0.000205923
7.00243e-05
-0.00379525
-0.0527705
3.55846e-06
-8.68897e-05
0.253507
7.98537e-05
-0.0577286
-0.0658843
0.0002866
2.39579e-06
-0.133111
3.24703e-06
0.257687
3.55576e-05
-0.000790134
3.30894e-05
-0.000296742
0.152626
1.26546e-05
-0.00299632
2.9743e-05
0.0266768
-0.00624218
-0.0118606
0.00205523
0.237373
-0.000444887
-0.000121899
-0.0163973
-0.0158336
-0.000422591
-5.70358e-05
-0.00161543
0.000100184
0.292649
-0.0185244
0.652114
7.2624e-06
-0.0141086
-0.000242553
0.220655
0.000134493
-0.0472625
5.70135e-05
-0.00289091
-0.0603172
-0.000395503
-0.0287188
-0.0886821
0.00980841
7.90729e-06
-0.0921618
-0.000582021
-0.00048829
-0.0102284
-0.0200246
0.00254227
-4.90033e-05
-0.000770177
-0.00158519
-0.00232963
4.22669e-05
-0.00220317
0.638666
0.000215207
-0.00600744
-0.062952
-0.13169
-0.11333
-0.0862897
-0.039424
-0.000899846
-0.0241882
0.000174709
-0.000125487
0.640052
-0.000150428
0.284744
-0.000797429
0.000810181
-0.00206319
-0.0721093
-0.000738056
0.00153037
-1.00013e-05
-0.000692431
2.44574e-06
-0.000123605
-0.0274454
-0.000169971
-1.22026e-05
-0.000130565
0.000326748
1.40658e-06
-0.0758974
0.365154
-9.40248e-06
-0.00107417
0.000107476
7.48054e-05
-0.00150656
2.6723e-05
-0.00163466
0.000588052
-0.000643687
-0.115199
-0.00123685
-0.00332138
1.62799e-05
-0.00275724
0.000683239
-2.05952e-05
-7.04426e-06
3.39828e-05
-0.0014345
0.00107572
-0.0791093
-0.0475449
-0.116537
0.00128378
-0.00325425
0.0131823
-0.117516
-0.000151513
0.0306187
0.0130966
-0.00189062
-0.0215283
-0.101009
0.588725
-0.000743016
-1.64149e-05
0.0017677
0.000117969
4.4725e-05
0.124398
0.00709231
0.142756
-0.0599967
0.572212
-0.000926968
9.13461e-06
0.000322491
-1.73065e-05
-0.00247467
0.24684
0.323903
3.79871e-06
-0.000278309
-9.62894e-06
0.309148
0.0400795
-0.00879674
2.95142e-05
4.73271e-05
0.0137001
-0.00124734
-0.126391
-0.030182
7.04161e-05
0.00667644
-0.0544026
-9.0769e-05
0.00352996
-9.20476e-05
-0.0821886
-0.00319038
0.233758
4.16383e-05
0.0032466
0.00018912
3.99875e-05
0.000365072
-0.0413919
3.84467e-05
-0.00164909
6.25038e-05
-0.0355644
-0.0817972
-0.00533687
-0.0115007
-0.0156802
0.0171347
-0.0158196
-0.00451652
0.000154687
0.000234793
5.58264e-05
4.81986e-05
-8.51806e-05
0.0170555
-0.0985869
0.000981543
-0.0679445
-0.00563892
-0.0820091
0.000194309
1.78081e-05
0.002546
-0.0209745
4.76576e-05
-0.0690645
-0.0261295
0.0984507
-0.066255
6.7048e-05
-0.00628887
0.000408641
-0.0951662
0.208022
4.40286e-05
-0.104759
-0.0389639
-0.00774801
9.65845e-05
-6.30419e-06
0.0571626
-0.0300518
6.767e-05
-0.0123434
2.09043e-05
0.000451897
0.196964
-7.99671e-06
3.29474e-05
-0.000116132
8.75213e-05
0.00176862
0.00019336
-0.00952962
0.00048826
-0.0225948
0.00216229
-0.000342347
-0.0539296
-0.0758118
-0.0113646
-2.0045e-05
5.66791e-05
-0.0955872
0.0108649
-0.0844876
8.0677e-05
-0.00935648
-5.33053e-05
6.4982e-05
0.131344
-0.0127121
-0.00505656
2.18113e-05
-0.0314486
0.000117388
-0.118569
7.22636e-05
-0.133929
6.49853e-05
-4.59875e-06
0.000188667
0.00199578
-0.072026
-0.0325958
-0.121319
5.18099e-05
0.000211209
-0.137298
-0.0386566
-0.015274
1.90024e-06
-0.0208047
-0.0863676
-0.138523
2.83274e-05
-2.44324e-06
4.25787e-05
-0.0822297
-0.116404
0.00143291
-0.0199363
-7.52571e-05
0.352071
0.000205812
5.12405e-05
0.000319233
2.00203e-05
-2.31385e-06
-0.00654293
0.000253106
-0.00459996
-0.111146
-0.0235718
-0.104243
0.000104354
-7.70117e-05
0.0991484
-0.0657073
-0.00858307
0.180081
4.96676e-05
-9.00713e-06
-8.32988e-06
0.211449
0.000365278
4.32453e-05
1.1186e-05
-0.0982479
-0.0278301
3.95154e-05
0.000197933
-0.016564
-0.0115864
0.000864852
0.328078
-0.0998609
0.000491989
0.80178
8.71531e-06
-0.00119758
-0.0146009
-0.139597
3.14776e-05
2.64892e-05
5.34524e-05
0.00907762
-0.0533701
-0.00057571
-0.0865672
-0.0139619
7.97782e-05
-3.75028e-06
-0.0182749
0.00304477
0.0160679
-0.0483162
-0.0810361
-0.0689479
0.0456661
-0.0470576
-9.37938e-05
0.000716505
0.0315439
0.00106164
-9.07956e-05
0.00151094
9.47312e-05
-0.000120183
-0.0217532
-1.41801e-05
-2.63316e-05
0.0735466
-0.00412369
-0.000235279
-2.72364e-05
5.18337e-06
0.353765
-0.0118625
0.00155674
-0.0490944
0.000469267
0.000415224
0.000357868
-6.70598e-05
0.000959807
-0.0664658
0.0345352
-9.91057e-06
-0.000244094
-0.0720058
-0.0534534
0.0830073
-0.000858727
0.0035376
0.0326094
2.3817e-05
0.000144078
-0.0767819
5.57387e-05
0.246594
5.19173e-05
0.00789567
0.000348236
0.000464536
-0.125673
-0.0131177
-0.0317847
-0.00433225
6.55105e-05
0.0129783
0.103059
-0.0218621
-0.000211811
0.152744
0.242503
1.60484e-05
-0.0922286
-9.50125e-05
-1.0289e-06
-6.4596e-05
-0.000994807
0.0358525
2.76858e-05
0.000511204
-0.043954
-0.0457695
-0.0394807
0.432356
6.68082e-05
-0.000103405
0.253137
-0.00288593
-0.00680649
-0.00115322
0.250135
0.000119007
-0.000501074
0.000128998
9.07006e-05
7.7787e-05
8.89608e-05
0.000162601
-0.0319028
4.04021e-05
-0.00592564
-0.0794855
0.35455
-0.000189001
-7.26446e-05
0.00884005
0.138551
-0.0743158
-0.00133553
-0.125772
0.431172
0.000102804
0.544143
9.97082e-07
0.00632085
0.0440705
0.000866124
0.581582
1.74622e-05
-2.48525e-06
0.00226719
7.77283e-05
-0.00153889
0.000536356
4.73983e-05
-0.00352926
6.17206e-05
-0.000229466
-0.00595712
0.347899
0.0936006
0.0398739
-0.0784526
-2.38435e-06
-9.14516e-06
0.00644685
-0.0902636
-1.60126e-06
-0.0835145
-7.66548e-05
0.166135
0.104043
-0.0576603
-0.00241263
-0.0207054
-0.00175742
-0.0266578
0.00854053
-0.0128636
0.110015
7.95438e-06
0.375462
0.0900612
-0.000975881
0.313581
-0.0238827
-1.55584e-05
7.47461e-05
0.000151261
-0.000355384
-0.000179695
0.349801
-0.00174897
0.359559
-0.00183079
0.247363
0.329088
0.21224
-0.0126176
8.8652e-06
0.000166968
-0.0191047
-0.139779
-0.0848536
0.00287192
7.63076e-05
-0.0685296
-0.000485671
5.92512e-05
0.00196238
-0.0019119
-0.00105632
0.05911
0.000167867
-0.0872987
0.102754
0.000133023
0.000552231
-0.0247225
-0.0985751
-0.00129574
-0.000909662
5.59073e-05
0.000517427
0.18028
-0.0299728
-0.0835945
0.00252729
0.18631
-0.0690528
0.000100537
6.97484e-05
0.0614689
-0.000114812
0.163542
0.00525103
-0.0245042
-0.000657284
0.00315222
-0.0635015
-1.59174e-05
0.00097361
0.0122464
-0.133377
0.252199
-0.112704
-0.0480719
-0.000244557
-6.69592e-05
0.0124498
0.000115771
-0.135228
-0.116746
0.00110791
0.00648017
0.00711082
-0.128242
0.00124914
0.000406176
0.00010929
-0.0732004
7.78075e-05
0.00109924
0.191427
0.267807
-0.136778
0.0842962
0.0844953
0.0563698
-0.00022714
0.0237885
0.000263154
2.09991e-05
-7.64517e-05
2.84744e-06
0.000109287
-0.000616591
-0.0137568
-0.0620987
-0.0175608
-0.0497532
0.0925961
0.0771582
0.00766508
-0.112135
0.000351058
0.0088553
0.0210512
-0.000671249
0.131278
-0.00209823
-0.0195105
0.0230279
0.010243
0.00212191
-0.00726986
0.0797814
0.00161812
-0.0354722
-0.0294787
0.675429
-0.0438553
0.139186
0.0686547
-0.0636707
0.00421889
0.000239225
-0.00466951
0.000150086
-0.00476738
-0.0451723
-0.000102164
-2.03012e-05
0.406147
-0.00597065
-0.0753365
-0.0341294
0.000441575
-0.00239042
-2.16745e-05
3.16935e-05
0.0725878
0.000102763
-0.00532881
0.133583
0.0118189
0.00216068
0.034486
-0.0104071
0.00787622
-0.121221
0.00170155
-0.00802614
-0.100712
-0.00150407
-0.0146161
0.00151115
0.00261734
0.0019253
0.0713727
-0.000501694
0.0105983
-0.0985253
-0.0370985
0.000660345
-0.0981874
-0.0269973
-0.0312781
0.000257704
0.0123599
-0.114171
-0.00149375
-0.00872556
-0.0912278
0.00122377
-0.00210139
0.328532
-0.0361413
-6.00231e-05
0.0153482
-0.0876217
-0.0018822
0.288266
-0.00374573
0.00197397
0.100246
-0.00256656
0.0155275
0.198816
0.000201118
0.00226207
0.000376875
0.000113405
-0.00814976
-0.0124643
-0.000165326
-0.0436215
0.164972
-0.0679553
-0.118327
0.00224655
-0.00591176
-0.00100667
-0.0550164
9.44966e-05
0.0339319
0.000134945
-0.0289061
-0.0035268
-0.0090252
0.0484555
0.19703
-0.126149
-7.3444e-05
0.304963
-0.00342948
-0.00423261
-0.107994
-0.130252
-0.028
-3.66415e-05
-0.00191209
0.013519
-0.00558888
-0.00855979
0.000901105
0.145737
-0.0737683
-0.0200877
-0.0121395
0.0509725
-0.00313428
-0.000776149
0.00326385
6.7038e-05
-0.00559872
0.191904
0.00156842
-0.134714
-4.30061e-05
-0.0133521
-0.00610456
-0.138471
-0.0206815
-0.15359
-9.33396e-05
-8.76902e-05
-0.0056905
0.0196736
0.00355703
-0.166415
0.152931
-0.0864688
0.000396746
-0.177233
9.19986e-05
-0.180215
-0.0458513
-0.173999
-0.165052
-0.147271
-0.0896051
0.0177257
0.0587295
0.0962953
0.134733
0.172362
0.278475
0.312528
0.344488
0.399326
-0.0146291
-0.0131988
0.120921
-0.0278935
0.00176411
0.0356158
-0.0726947
0.001117
-0.00108339
-1.58643e-06
-0.0254262
0.0325934
0.00010982
-0.000472228
-0.0190772
-0.00450103
-0.184296
-0.0199398
-0.100762
4.76313e-05
0.00115431
-7.6349e-05
-0.0801702
-0.0156728
-0.0647827
-0.0157603
0.00332205
0.000502563
0.00882904
-4.72237e-05
-0.00660713
2.43071e-05
0.000742523
-0.00873236
-0.0208621
-0.000336958
0.000656902
0.0833054
-0.0184777
0.119875
-0.18317
-0.0120038
0.244481
-0.0337562
0.00697418
-0.038628
-0.00583918
-0.0226833
-0.0219829
0.469045
-0.00220604
0.000171236
-0.0104251
-0.0158405
1.0141e-05
0.133569
-0.00715729
0.442727
-0.0248717
-0.0813602
-0.0480725
0.0898327
-0.00832493
-6.93102e-05
-1.02808e-05
-0.00751187
-0.094581
0.000146806
0.483552
-0.00493032
-0.00882095
-5.97415e-05
-0.000653187
-0.010854
0.208525
-0.0341828
0.191268
0.00123954
-0.0255621
-8.27352e-06
0.0486603
-0.0136444
0.0351632
-0.0153135
-0.00977424
-0.00125665
0.00254029
0.0218217
-1.62134e-05
-0.0168099
0.00115423
-0.000673177
0.000919565
-0.0241429
0.000536242
0.224358
-0.0189548
0.00713199
-0.0760987
0.079083
-0.0826082
-0.0203066
0.0780408
-0.032858
0.265603
0.00837223
-0.0061022
-0.0900381
-0.00118838
-6.83779e-05
0.000864425
0.00019884
-0.0039148
0.00820355
0.000206095
-0.0240566