/*--------------------------------*- C++ -*----------------------------------*\
  =========                 |
  \\      /  F ield         | OpenFOAM: The Open Source CFD Toolbox
   \\    /   O peration     | Website:  https://openfoam.org
    \\  /    A nd           | Version:  7
     \\/     M anipulation  |
\*---------------------------------------------------------------------------*/
FoamFile
{
    version     2.0;
    format      ascii;
    class       volScalarField;
    location    "27";
    object      p;
}
// * * * * * * * * * * * * * * * * * * * * * * * * * * * * * * * * * * * * * //

dimensions      [0 2 -2 0 0 0 0];

internalField   nonuniform List<scalar> 
7639
(
0.21208
-0.00267408
0.422787
0.254346
-0.00124371
-5.4412e-05
0.430595
-0.00746767
-0.000175358
0.106035
-5.10496e-05
0.00339909
-0.0111297
0.052342
0.110603
-0.0147221
0.226518
-0.0144505
0.00140806
-0.0646329
0.0690424
0.00223281
0.0387006
0.209721
-0.0187042
0.227592
-0.00114945
0.0648885
0.174653
0.00336985
-0.0198108
0.684455
0.0379273
-0.000698987
-0.000152242
0.0863964
0.0038505
0.415195
-0.00635132
-0.000489212
-0.00582174
-0.0141263
-0.0662734
-0.0670285
-0.000292245
-0.000119171
0.00218944
-0.00657227
-9.86269e-05
-0.0641676
0.0051194
0.0615529
-0.0234676
-0.00439237
0.0855741
-0.00666854
0.00154116
-0.00745275
-0.0301939
-0.000727171
5.68767e-05
0.00655865
0.0527179
0.00375316
-0.00139425
-0.0194443
-0.000140809
5.74704e-06
0.00496647
-0.00617392
-0.000109462
-0.051959
-0.0181083
-0.0301645
-0.0139978
-0.0423523
0.415415
0.0678037
0.0434785
-0.0562299
-0.0106818
0.383224
0.0985799
-0.0315911
-0.00207351
-0.00326144
-0.00798054
-0.022792
-0.000945939
-0.00631417
0.178369
-0.0918387
-0.000193955
0.00163077
-0.00503358
-0.0311668
-0.0494672
-0.00146209
-0.00228144
-0.00165957
-0.0508563
0.0505776
-0.00477483
-2.92256e-05
-0.091573
0.179779
0.5881
-0.00708889
-8.14444e-07
0.034225
0.237944
-0.0445707
-2.21175e-06
0.0362594
0.180864
0.000652288
-0.060518
0.143348
-0.0377996
-0.0309235
-0.0526738
0.364972
-0.0636805
0.0143771
-0.0514218
-0.00139117
-0.0178935
0.00272961
-0.00147301
-0.0199889
-0.136841
0.0462062
-0.000875016
-0.0011142
-0.0326519
0.230782
0.464607
-2.51507e-05
0.0114807
-0.0650894
-0.0286095
-0.0451677
-0.0427713
-0.0290265
0.594629
-0.0196058
0.175358
-0.0295175
-0.0392137
0.36385
0.082584
-0.0774086
-0.00217041
-0.0191686
0.0982924
0.37906
-0.0483674
-0.0110807
0.549638
-8.94036e-05
0.000738987
0.217762
-2.76051e-05
-0.0029876
-0.00566235
0.275485
0.275995
0.572973
-0.00337505
-0.00441724
6.61991e-06
-0.0544093
0.000643906
0.0037276
0.0124844
-0.0387511
-0.071357
0.0986534
-0.000192826
-0.000733097
0.25793
-8.91306e-05
-0.000163776
0.431656
-0.00828207
-0.0367626
-0.0356747
-0.0286453
-0.0225766
-0.0637318
-3.00766e-05
-0.0479103
0.0998127
-0.00481952
0.000104892
0.166953
-0.00179806
-0.0188193
-0.0214879
7.90504e-06
0.00132456
0.239163
0.134712
0.383541
-0.0550323
-0.040725
-0.0986004
0.0708063
0.238128
-0.000313321
5.03311e-05
0.555294
-0.0125498
-0.000908323
-0.0459153
-0.0187297
0.339932
0.350106
-0.0492983
0.647922
-0.00166819
-0.0141647
-0.0520592
0.0840426
-0.0804004
0.161215
0.551154
9.13695e-05
0.0151072
0.153548
-0.00599042
0.139549
-0.000802446
0.614239
0.37136
-0.00792285
0.00401476
-0.000454051
0.049862
-0.000139561
-0.00920413
-0.0619095
-0.000109068
-0.00197066
-0.000636111
0.141196
-2.77616e-05
-0.00655259
-0.054915
0.683808
0.0395201
0.598155
-6.71918e-05
-0.0237711
-0.000278666
0.39922
0.00629184
0.46543
0.00190831
0.00111595
0.00417608
0.0739061
0.000885455
-0.000340846
0.000785143
-0.00631745
-0.0376168
-6.28001e-05
-0.0468115
-0.00539673
-0.000212937
-0.000940081
0.442426
-0.0111009
-0.00114666
0.651078
-0.00216532
0.229824
-0.000310292
-0.000108784
1.11734e-05
-0.0339928
0.0808581
-0.0684957
-0.0304949
-0.000618443
-0.057672
-0.0213802
-0.000269917
0.000759602
-0.00324728
-0.0107222
0.00459704
-0.00185211
-0.0302414
-0.0333182
-0.0298311
-0.0574667
-0.037207
0.357541
0.375597
-0.00222982
-0.111942
-1.09303e-05
-0.00354512
-0.0312892
0.203622
0.110748
0.000145463
-0.00327191
-0.0362206
0.160229
-0.00149675
0.00560508
0.00189089
0.00188463
-0.124198
0.324068
-0.00238244
-0.00635509
-0.000173151
0.00630336
-7.97266e-05
-0.0241276
-0.000521293
0.00561763
-0.157308
-0.0376867
0.00192188
0.0136483
-0.0011089
0.0290053
-0.0111273
0.0654971
0.147677
-0.123406
-0.0652992
-0.0219045
0.00796972
-0.0603993
0.584522
-0.0590424
0.0450824
0.635177
-0.00229905
-0.00261351
-0.0771859
-0.00164144
-0.016549
0.00987489
-0.00417518
-0.0031112
0.161065
-0.00010432
0.000846529
0.000116765
-0.00506395
-0.0103456
-1.31906e-05
-0.0016497
-0.0290108
0.546431
0.00282345
-0.0122963
0.511843
0.31864
0.058169
-0.103239
-0.0548863
0.00769655
0.264569
-0.0156005
0.283692
-0.0262454
-0.0733631
0.143987
0.283092
-0.0441154
0.103418
0.149426
0.247481
0.0686873
-0.00453402
-0.00624792
-0.000134113
0.00296411
-0.0159058
0.00148294
-0.000163172
-0.00242025
-0.0570988
0.045276
-0.0230439
-0.00423105
-0.00562309
-0.00674608
-0.0102181
0.00262319
0.113387
-0.00281776
-3.38561e-05
-8.54058e-05
7.26915e-05
-0.0276336
0.156425
-0.00594347
0.041854
-0.0872521
0.406352
0.00499296
0.0105138
-0.00754183
0.425916
-0.00159634
0.31663
0.179463
-0.000178063
-0.0282182
-0.00489405
-0.0436044
0.000871058
0.0674476
0.00453638
0.00974626
-0.00129083
0.124897
0.165643
-0.0428224
-0.0291957
-0.00344817
-0.0234933
-0.008252
0.672219
-0.0550818
0.00693387
-1.28642e-06
-0.018262
-0.00340436
0.0265953
-0.0726744
-0.111181
0.440802
0.145732
-0.0911644
0.174645
0.415912
0.0424097
0.00182807
0.269829
-0.0013693
-0.000280746
-0.0234148
0.000132274
-0.106154
-0.00101637
-0.0309687
0.00293851
0.176824
-0.00267032
-3.69304e-05
-0.0769713
0.00266401
0.00714608
-0.049151
-0.0638479
-0.115325
0.155624
0.127732
0.131571
-0.000314251
0.0340044
0.0720031
-0.000803471
-0.0222291
0.000936398
0.00756042
-0.00483495
0.00734717
-0.00118363
0.0572502
-3.00929e-05
0.000304389
0.00304658
-0.0285699
0.0307155
-0.0292542
-0.0330834
-0.0345185
-0.0881736
0.00764991
0.258667
-0.130434
-0.00955449
0.622099
-0.0487252
-0.0108384
-0.0331181
-0.00909784
-0.0269685
-0.014178
0.040674
-0.0669009
-3.98172e-05
0.0356995
-0.000147268
0.366223
0.00402536
-0.00709152
-0.0189433
-0.000288642
0.385286
0.317631
0.0164836
0.0365397
-0.0518146
0.479918
-9.6834e-05
0.0203338
-0.0238394
0.109761
0.577585
-0.0202752
0.142938
-0.00303786
-0.000311492
0.0242118
-0.1264
0.404248
0.0112432
0.224151
-0.0100715
0.416215
0.29988
-0.0126456
-0.0107754
0.0131942
-0.0648577
-0.000130222
-0.0175201
-0.0627103
-0.0543511
0.0171544
0.0140448
-0.000193108
0.318381
-0.00181675
-0.000158269
-0.0296128
-0.000747653
-0.000341646
0.00478545
0.203369
-0.069191
0.535873
9.40764e-05
0.197267
-0.0238397
-0.000116339
2.71463e-05
0.171639
0.200658
-0.00585285
0.18507
3.85199e-05
0.19509
-0.122602
-0.0132219
0.438208
-0.0440645
0.0298705
-0.031774
0.190144
0.194012
-0.0215472
-0.0270288
-0.00861597
-0.00413368
-0.000305167
-0.00197203
0.265347
-4.15918e-05
0.190404
-0.0681154
0.343463
0.181074
-0.0639097
0.518366
-0.00234334
0.00539772
-0.0452035
-0.0258241
-0.00910525
-0.0266722
0.0325047
0.613354
6.40059e-05
-0.0027581
-0.0430028
9.02314e-06
0.373115
0.00270726
8.57681e-06
0.0002903
0.000576308
-0.022966
0.025555
-0.00222638
-0.000129745
-0.00964089
0.00325607
-0.0781432
-0.0590012
0.0313436
-3.32684e-05
-0.106613
-0.0171288
0.0290851
0.340704
0.00166674
0.0557717
0.000229841
-0.0164336
0.0957485
-0.00913454
0.215013
-0.0168594
0.0234611
0.0992893
0.140436
0.00603952
-0.0135335
0.146178
-0.0632384
0.405508
-0.0122319
0.237066
-0.0121567
-0.0016657
0.136414
-0.00027736
0.0906421
0.00279302
7.47429e-06
-0.0829505
0.108647
0.00209488
0.0367613
-0.0160328
-0.105076
-0.00150535
-0.0302615
-0.00240012
-0.0115644
-0.0558339
-0.0339137
-0.0127934
-0.000219415
0.43163
0.0593804
0.0413884
-0.000292405
0.300497
5.72377e-06
-0.000269437
0.0759368
0.000733041
0.0858907
0.0636302
0.0241163
-0.0468192
-0.0892413
-0.102019
0.00192693
-0.0479876
-2.82924e-05
0.00516614
0.206963
-0.0205874
-0.00395921
-0.0127926
-0.00279243
-0.000594129
0.637942
-0.0129036
-0.000797853
-8.61605e-06
0.141963
-0.0357778
-0.000479648
-0.00391541
0.164469
0.0760842
-0.0435012
1.88694e-06
0.183963
-0.0205311
0.168984
0.0240709
0.0295598
-0.0357147
-0.000140028
0.096896
0.066157
-0.0737693
-0.0638344
0.268661
0.00891045
0.136809
-0.00396604
-0.0281873
-0.00057062
-0.00275553
-0.000156516
0.156583
0.198595
-0.00212177
0.0267595
-0.0217494
-0.053331
-0.0586342
-0.00264162
0.0186277
0.605109
-0.0714666
-8.13507e-05
0.0770361
-0.00541674
0.512517
-0.0158984
-0.0159064
-0.00578184
-0.0182882
-0.00982894
-0.0102415
-0.00506488
0.00215451
0.0253926
0.000154961
-0.135
-0.0630055
0.347634
-0.0419271
0.0971089
0.00298084
-0.0451507
-0.0176265
0.213983
-0.00967545
0.000155892
-0.0201377
-0.00749006
0.0219423
-0.032484
-0.0281241
-0.0437371
-0.0184712
-0.00968487
-0.0579684
8.06e-06
0.0384775
-0.0509301
0.0737781
-0.0543674
0.0905155
-0.0646678
0.296507
0.00314072
-0.0368275
-0.0201831
0.544154
-0.110647
-0.0166257
-0.082732
-0.0352709
-0.0773976
-0.0482023
0.140613
-0.00393999
0.257943
0.0128287
-0.0005703
-0.00176611
0.0686809
0.691459
0.00147966
-0.0245443
0.172504
3.25429e-05
-0.0259153
0.038245
-0.010065
0.013019
-0.00234881
-0.0342861
-0.00441672
4.17218e-05
-0.0420388
0.23688
0.00103325
-0.0209233
0.00274979
0.171744
-0.00055473
-0.00178053
-0.000520709
-0.00113583
-0.0506561
-0.000244965
0.00349015
-0.0224499
6.44562e-05
-0.0870301
-0.126631
-0.0949828
-0.0200847
0.0210899
-0.00030943
-0.0164949
-0.0539179
-0.0532162
0.346578
-0.00183112
-0.0576823
-0.00665668
0.00626318
0.1092
0.000637757
-0.000229341
0.0172918
-0.0536873
0.0204554
-0.00420477
-0.00295221
-0.0500303
-0.000256796
-0.00279194
-0.016998
0.297862
0.230665
-0.0402307
-0.0496239
0.0105307
0.00432907
-0.0450667
-0.0564189
-0.0165475
-8.26739e-07
-0.0385037
-0.0305813
-0.0610826
0.00375616
-0.0465208
-0.000579792
-0.00424561
0.185087
-0.0343563
-6.00627e-06
-0.00399741
-0.099765
-0.000242047
-0.0207572
-7.42214e-05
0.00530401
-0.0764721
-0.0385058
-3.29022e-05
4.38918e-05
0.122577
-0.042288
0.389449
0.227768
-0.0318961
-0.000860582
-0.0157941
0.000315138
-0.128071
-0.0722884
-0.0951152
-0.0203891
0.203363
0.0100111
0.000393461
0.00651083
-0.0941392
0.00282844
-0.0255695
-0.0523169
0.000981966
0.0227708
0.0681686
0.00914381
-0.0277915
-0.062306
0.181368
-0.0307565
-4.18322e-07
-0.0817139
-0.0557046
-0.0367183
0.00512287
0.00108824
0.00792963
-0.0754993
0.032766
-0.0322026
0.0772265
-0.0431721
0.00753575
0.0198743
0.0116136
-0.0328163
-0.116188
-0.00015078
0.140586
0.20041
0.00833969
0.120895
-0.0598934
0.0455135
-0.0424457
0.19145
0.0953731
0.59779
6.17342e-06
0.0862615
0.161441
0.0156924
-0.0016278
-0.0176633
-0.0521113
6.06412e-05
-0.0176695
-0.0443892
-0.0192871
-0.021246
0.000186244
-0.109558
-0.00041798
-0.000968222
0.233293
0.00664005
-0.0458559
0.0206596
0.199646
0.0107828
-0.000443499
-0.0961018
0.00817843
0.366111
0.001398
-0.0461775
-0.000250746
-0.00061299
0.00673348
-0.0503908
-3.58263e-05
-0.0107477
0.0284713
-0.00213291
4.36264e-05
-5.37521e-05
0.144726
-0.0475249
0.00706419
-0.00121849
0.00894149
0.0164838
0.00874709
-0.000325738
0.322688
-0.0866472
0.211494
0.268529
-0.000234942
-0.0508185
0.0863835
-0.000851765
-0.000296089
-0.000478989
-0.0263295
0.0126889
-0.012833
-0.0204039
-0.0554061
0.159788
-0.0809702
1.37319e-05
-0.0187236
-0.0180732
-0.0332027
-0.00459989
0.00625611
0.00135173
0.0285043
-0.000568563
-0.000261116
-0.0168709
-0.00453299
-0.02378
-1.74379e-05
-0.0144305
0.0338008
-0.0313522
-0.0331156
-0.0085738
-0.0115119
-0.00904262
-0.00545895
0.00637074
-0.00933784
-0.00011668
-0.000444643
0.0232185
-0.011962
-0.00517599
0.00877766
0.0024676
-0.0930393
-0.0108942
0.148214
-0.0123048
-0.0475538
-0.0237632
-0.0217462
-0.0151111
-0.00395511
0.0023767
-0.00371127
-0.0136036
-0.0155946
0.169662
0.123525
0.0425621
0.338773
-7.98773e-05
-0.00351159
-0.0158873
-0.00805518
0.0489859
-0.0194586
0.0365565
-0.00454996
0.176424
-0.00205609
-0.00172667
0.0105178
-0.0186659
-0.000240397
-0.0214486
-0.00613471
-0.0199949
-2.24269e-05
-0.00689719
0.00211698
-0.0169435
0.029216
0.0361136
0.0196892
-0.0136133
-0.0296584
0.109853
-0.00135994
-0.00207629
-0.00223355
0.506523
-9.79839e-05
0.0606461
-0.020343
-0.0196359
-0.0250401
-0.0382723
-0.0271133
-0.0320626
-0.0176857
-0.00480549
-0.000107163
-0.00447267
-0.0208043
0.0935789
0.00179904
0.0777059
-0.0308775
-0.012923
-0.000977597
-0.0273132
-0.000112751
0.139789
-0.0284811
-0.0248611
-0.0227544
-0.00419016
-0.0311347
-0.00177754
-0.0375794
0.0966484
-0.0245248
-0.0618342
-0.00154654
-0.0255722
-0.0177968
0.0159874
-0.00339659
0.134506
-0.002527
-0.0184002
-0.000721047
0.151649
-0.0361574
-0.0250671
-0.00340903
-0.00965329
-0.00289981
0.150043
-0.00294012
0.121027
-0.00509324
-0.000870646
-0.00133356
-0.00245298
0.0958632
-0.0541467
-0.00704601
0.000361268
-0.00807655
-0.0130731
-0.000960962
-0.0151829
-0.0151944
0.0561696
-0.00515671
0.00390121
0.50023
-0.0551777
-0.0271449
-0.0518469
3.72397e-05
0.0731228
-0.00370935
-0.0254365
-0.005827
-0.0333042
0.00433713
-0.000571489
-0.00304636
0.00345758
0.190991
-0.00606442
-0.0018858
-0.00483438
-0.0484981
-0.00852746
-0.0211411
0.00452165
-0.00892433
-0.00920005
-0.0034328
0.192249
-0.0422311
0.0033963
-0.00442048
-0.0260858
-0.0140552
-0.0450837
-0.00148618
0.0866491
0.0233675
-0.00806408
-0.00182637
-0.0136181
0.520547
0.192305
-0.0114188
-0.00061509
-0.00251032
0.00141989
-0.00415559
0.021422
-0.000443876
-0.0170156
-0.00207675
-0.0166818
-0.143653
-0.00112882
-0.0117361
-0.00142986
0.310882
-0.0066675
-0.0118106
-0.0444774
-0.00203212
-0.0283101
-0.04227
0.452821
-0.01087
-0.0115096
-0.00222737
-0.000496867
1.45868e-06
-4.28055e-06
-0.0102785
-0.000710415
0.0611661
-0.000714173
-0.00191212
0.0085505
-0.000275684
-0.0407943
-0.0526353
0.017857
0.0397194
0.0268115
-0.0410911
-0.0410954
0.0855057
0.0677184
0.0914301
0.116219
-0.0129872
-0.000907914
-0.00609417
-0.058031
-0.00368192
-0.0149582
-0.0431668
0.30091
-0.0462176
-0.000513958
-3.28068e-05
-0.00154675
-5.31681e-07
0.00839095
-0.000596193
-0.00487846
-0.0435716
0.000574766
0.00274264
-0.000234362
0.0505005
-0.0152979
-0.0466749
-0.00128662
0.319904
0.226722
-0.0102061
-0.0667342
-0.026518
-0.0231211
-0.0143504
-0.00197391
-0.0660481
-0.0322083
-0.0392283
-0.110659
-5.51266e-05
0.164091
-0.0169892
-0.00977032
-0.0298251
0.019254
-0.000566676
-0.00853693
-0.00143454
0.0119547
-0.00162561
0.120616
0.00037139
0.0105125
-0.000441693
-0.105109
0.00921556
-0.000814537
0.00454826
0.000433723
-0.0362683
0.0989208
0.000831127
-0.00151817
-0.00013463
-0.000612248
-0.000537885
-0.0541586
0.118285
-0.0342354
-0.000287367
0.00901862
-0.000488553
0.219163
-0.0533929
0.222301
-0.0395028
-0.000479572
-0.000306735
-0.00748243
-0.00582467
-0.000671703
-1.96486e-05
0.0250713
0.0289666
-0.000252898
-0.000357091
-0.0192094
-2.36547e-05
0.159517
-0.000981482
-0.0473081
-0.0185767
-0.0065264
-0.0495263
-0.0543283
0.143858
-0.0216022
-0.0196517
-0.000337409
-0.0504016
-0.0200688
-0.0280824
0.0247672
0.343582
-0.0012346
-0.0526706
0.0113379
0.284804
0.0386154
-0.000128034
-0.0062033
-0.0042184
-0.00511421
-0.0430467
0.0771234
0.000188924
0.0146083
0.00309051
0.0576787
-0.00055411
-0.00013179
-0.090967
0.253425
-0.0487979
0.117859
-0.00133979
-0.000216174
-2.56752e-06
-0.0764355
-0.0379907
-0.000363716
0.0795131
0.011675
-0.0055105
0.415039
-0.00041964
-0.00383792
-0.0524227
-0.026578
-0.00238276
0.12822
-0.0556969
-0.000177354
0.0103489
-0.000187235
-0.000108187
0.121897
-0.00201492
-0.000481899
-0.0459699
-0.0235328
-0.00363089
-0.0318421
0.00251019
-0.0219315
0.00172538
-0.00362636
-0.056833
-0.0350051
0.0136188
-0.00094385
0.141747
0.199097
-0.0860918
0.00953994
0.0195478
-0.00442781
0.158768
0.0873814
-0.0263469
-0.000173768
0.00986077
-0.0488622
0.00909707
-0.0265667
-0.00220263
0.0352171
-0.0261984
-0.000146685
-7.89804e-05
-0.0381009
-0.0247926
-0.0246463
0.00982023
-0.0234694
-0.0402636
-0.000164282
-0.00146435
-0.000222277
-0.032204
-2.56862e-05
-0.0020214
-0.0435915
-0.083139
0.0415521
-0.00309838
0.00437041
-0.0205849
-0.0241794
-0.000137869
-0.0415393
0.0198142
0.149818
2.44383e-05
-0.000119144
0.152806
-0.00262418
-0.0736823
-0.0367607
0.0035382
0.000499627
-0.0589635
-0.0336914
0.156812
-0.0497771
-0.00153724
-0.00993557
-0.047366
-0.000612757
-0.000256759
-0.000949733
-0.0307128
-0.0457366
0.0900177
-0.000224485
0.523441
-0.0625552
0.000121033
-0.00102274
0.000262731
0.000300442
-1.5462e-05
0.000143933
-0.0469779
-0.000761178
0.000453156
-0.000211567
0.133891
-0.00587892
-0.00020623
-4.82197e-05
0.337997
-0.0207168
-0.0540727
0.00117699
-0.000763962
0.0483759
-0.000105246
-0.0132275
-0.129844
0.00227913
-0.00674701
-0.000103172
-0.000220165
-0.0288956
-0.0568439
0.00755213
-0.103974
-0.0603986
-2.99229e-05
0.0218641
0.0328502
0.103665
-0.00179131
-0.000167112
-0.0501501
-0.00623637
-0.000528523
-0.0442226
-0.000146706
0.0331209
-9.56483e-05
-0.00132876
-0.071438
-0.00222466
-0.0517473
0.472396
-0.0017212
0.000286897
-0.0489085
-0.0490805
0.00945094
0.00492839
-0.000160962
-0.0292701
-9.02004e-05
0.188397
0.646263
0.0354484
0.00317754
0.00376177
-2.00066e-05
-0.0264301
-6.17533e-05
-0.00757902
-0.00177131
0.000387745
-0.00347073
-0.00978547
-0.000130809
0.000907076
-0.00859262
-0.000331323
-0.0101976
-0.0160321
-0.00902773
-0.00121107
0.573732
-0.000731311
0.00254623
0.000254611
0.0144255
-0.0445013
0.00997446
-0.000188392
-0.000106323
0.00275148
-0.000117016
-3.16167e-05
-0.0117414
0.000725718
-2.56323e-05
-0.0457433
-0.00238781
-0.0497036
-0.00171076
-7.23935e-05
-0.00323017
-0.0094887
-0.0148981
-0.0232631
0.00242122
0.000546204
-0.000490149
-0.0020301
-8.47469e-05
0.267013
0.00162558
-2.10456e-05
0.000606038
-0.00210871
-0.000377623
-0.0557325
-0.0484729
-0.000139249
-0.00708888
1.36801e-05
-0.00275771
-7.80755e-05
0.0355853
-0.000149248
-0.000197922
-0.00369963
-2.52009e-05
0.0140422
-0.000238389
-0.00131063
0.0194404
1.23767e-05
0.375751
-0.0478876
-0.0380718
-2.68672e-05
-2.22888e-05
0.00194675
-0.00122941
-0.0462097
-1.8097e-05
-2.5488e-06
0.000771943
-3.12885e-06
0.000394102
0.000467437
-0.000480278
0.000819285
-0.0469533
0.48701
-0.0320806
0.328462
0.00943833
-0.016625
-1.9683e-05
-0.000915113
-0.0121283
0.000149277
0.000295344
0.00017611
0.0282627
-0.0014194
-0.000230243
0.504952
-0.000566863
0.000608072
0.000523407
-4.89729e-06
-0.0867731
-0.00225814
0.00118163
0.000129717
-0.000561983
-7.24374e-05
-0.000981559
-0.040027
-0.000434741
-0.00167862
-1.58299e-06
-0.00060754
-0.000271917
0.184664
-0.000460657
-0.000288563
-0.0604943
0.00392907
-9.0925e-05
-0.00137969
-6.50086e-05
0.167391
-0.0636318
-0.000313837
-0.000404065
-0.00198188
-0.000165853
0.054268
0.0977753
0.00653156
0.000527637
-7.19165e-06
-9.60574e-07
0.0457226
0.000263474
-0.0538497
-0.0242649
-0.0156604
-0.142248
0.581476
0.00203688
0.167807
-0.0145039
-0.0275285
0.170673
-0.00037243
-0.0577353
-1.3563e-05
-0.00899058
-0.0441914
5.68147e-05
-0.0451053
-0.000981916
-0.00904692
-0.00567712
-0.0389539
-0.0387571
-0.00331183
-0.0545048
-0.0399805
-0.000195622
-0.0120419
-5.56062e-05
-0.0346402
-2.94354e-05
-0.000194634
0.0121131
0.161455
-2.8358e-08
-0.0414147
0.0036996
7.83402e-05
-0.0204922
5.83102e-06
-0.01348
-0.000271238
-0.0353712
0.000131387
-9.1626e-05
-0.00209961
-5.13931e-05
0.157181
-0.0287186
0.0396783
-3.24497e-05
0.000651862
-0.0304275
6.99764e-07
-0.0510043
-0.0583499
-0.0496619
0.529066
-0.00651296
-1.84933e-05
0.0263007
-0.0381984
-0.00262871
-2.73913e-05
-8.97617e-05
-0.0428978
0.000131982
0.00090727
-4.9283e-07
0.000165246
-0.0265142
0.0072729
-0.0611176
0.086321
-0.00537882
-1.19445e-06
0.0062978
-0.0467408
-2.18933e-05
-1.45923e-05
0.000333125
6.65628e-05
0.000420847
0.153979
0.0352349
5.80341e-05
1.10923e-05
-0.0580898
0.198648
0.170333
-4.70033e-05
-0.0336807
-0.0189464
-0.0105168
-0.043399
-0.00864896
-0.00294931
0.13892
-4.3774e-05
-0.0250767
0.165317
-0.0443648
-1.88941e-05
-0.0543921
-0.000182399
0.244711
0.0275143
-1.57855e-05
-2.90277e-05
0.176288
3.53721e-06
-0.000189235
-0.0116176
1.27503e-05
0.230633
0.0034014
-0.00735357
-0.0566147
-0.00379989
-0.0663425
0.18093
-0.0124091
-0.0402233
0.00103048
-2.05952e-05
-0.00105101
-9.10381e-06
-1.70894e-05
0.019799
0.179386
0.147912
-0.000454449
0.247937
-0.0118529
7.56613e-06
-0.0414802
-1.92105e-05
-0.0263959
0.0286415
-0.0143912
0.00456946
0.0019243
-0.00921156
0.000258864
-0.00170244
0.0192482
-0.0028972
-5.06869e-05
3.03308e-05
-6.40613e-05
0.0318365
5.65077e-05
-0.0218151
0.262343
-0.00602024
5.2196e-05
-0.00348869
-1.10561e-05
0.0107773
-0.000367407
-6.82053e-05
-8.81032e-05
-1.37511e-05
0.210197
-0.000158318
0.220828
-0.0547935
0.000115794
-0.0471497
-0.000500092
0.154843
0.519539
-0.00142454
2.47643e-06
1.59939e-05
-2.20806e-05
0.115259
6.13498e-07
0.00107809
-0.0231122
0.210042
6.65093e-06
1.51653e-05
2.94469e-06
2.55263e-05
-0.0197669
1.79008e-06
0.211491
-0.0158074
-0.000127371
3.05579e-05
-0.00207665
-0.0270031
1.3799e-06
-5.86734e-05
0.164105
3.46583e-05
-0.0299063
-0.05095
0.000136941
7.44776e-07
-0.110839
1.22395e-06
0.155204
1.5117e-05
-0.000456813
1.16661e-05
-0.000179935
0.0906315
3.03818e-06
-0.00165872
8.02293e-06
0.0123371
-0.00341412
-0.00636771
0.000749418
0.151817
-0.00027752
-8.3522e-05
-0.00875206
-0.00845478
-0.00024953
-5.59772e-05
-0.000907805
4.08083e-05
0.11432
-0.0102455
0.509022
-8.59589e-07
-0.00756076
-0.000162153
0.118416
5.80402e-05
-0.025109
2.39871e-05
-0.00159536
-0.0311572
-0.00023657
-0.015235
-0.044927
0.00513059
-9.97557e-06
-0.0511891
-0.000340685
-0.000303919
-0.0055087
-0.0146034
0.00130958
-5.23821e-05
-0.00044428
-0.000931897
-0.00128841
1.30358e-05
-0.00122007
0.500499
9.9749e-05
-0.00326766
-0.0324117
-0.0634724
-0.0560345
-0.0433227
-0.020787
-0.000538423
-0.0160686
7.85113e-05
-8.43138e-05
0.500752
-9.70545e-05
0.151199
-0.000459095
0.000410276
-0.00114413
-0.0651955
-0.000426061
0.000592488
-1.60802e-05
-0.000400304
-1.69429e-05
-8.22022e-05
-0.0144018
-0.000113279
-2.90457e-05
-8.56532e-05
0.00014886
-1.10073e-05
-0.0392819
0.168215
-1.03219e-05
-0.0006121
2.94119e-05
3.15745e-05
-0.00084455
9.226e-06
-0.000914514
0.000290561
-0.000373605
-0.0566123
-0.000701315
-0.00184106
4.80712e-06
-0.00159316
0.000345207
-1.56483e-05
-1.02412e-05
1.36573e-05
-0.000805482
0.000554655
-0.0406344
-0.0257393
-0.057012
0.000578241
-0.00189368
-0.0377945
-0.0573692
-9.69357e-05
0.0151848
0.00691952
-0.00105863
-0.0114907
-0.0497679
0.445711
-0.000426744
-1.56466e-05
0.000900451
5.02059e-05
1.80393e-05
0.0731651
0.00366572
0.0846218
-0.0344075
0.434502
-0.000531875
2.10339e-06
0.000155046
-1.89331e-05
-0.00137562
0.13842
0.219582
-5.765e-06
-0.000175015
-1.83451e-05
0.206849
0.0153025
-0.00594699
1.19578e-05
1.97756e-05
0.0073384
-0.000705657
-0.0626156
-0.0160438
2.41159e-05
0.00354938
-0.0292884
-6.20585e-05
0.00183462
-6.9778e-05
-0.041502
-0.0017451
0.134253
1.69084e-05
0.00170787
-0.000153589
1.51583e-05
0.000176578
-0.0217743
1.48925e-05
-0.000923374
2.27466e-05
-0.0186791
-0.0410634
-0.00311477
-0.00718458
-0.00836293
0.00918332
-0.00848788
-0.00245704
6.88158e-05
0.000107037
2.06526e-05
1.80762e-05
-5.80116e-05
0.00909313
-0.0517011
0.00050426
-0.0409583
-0.00306335
-0.0462081
8.91177e-05
-3.27994e-06
0.00133235
-0.0969851
1.83311e-05
-0.0405023
-0.0142159
-0.0856185
-0.0414569
2.70488e-05
-0.00342112
0.000198623
-0.135626
0.129874
1.107e-05
-0.053043
-0.0211743
-0.00419424
3.84277e-05
-8.952e-06
0.0226425
-0.0157631
2.40569e-05
-0.00662981
-5.5925e-06
0.0002208
0.117114
-8.68118e-06
2.32639e-06
-8.85701e-05
3.50288e-05
0.000917031
8.95713e-05
-0.00515589
0.000239316
-0.0120766
0.00112498
-0.000211568
-0.0303696
-0.0389887
-0.00612921
-1.56534e-05
2.16599e-05
-0.0545692
0.00581377
-0.0428329
2.86643e-05
-0.00505757
-3.75153e-05
2.459e-05
0.0625351
-0.00681117
-0.00275443
-2.03487e-06
-0.0168865
5.0376e-05
-0.0587292
2.69989e-05
-0.0660714
1.84792e-05
-6.18791e-06
8.6568e-05
0.00104163
-0.0829501
-0.0170597
-0.0609236
1.57226e-05
9.58607e-05
-0.0672102
-0.0243376
-0.00814539
-5.07428e-06
-0.0334915
-0.0454649
-0.066968
2.85827e-06
-8.02762e-06
3.54531e-06
-0.0745957
-0.0593137
0.000736579
-0.0105856
-5.79988e-05
0.161544
9.62778e-05
1.40011e-05
0.000153508
-1.01827e-05
-8.8517e-06
-0.00356357
0.000115359
-0.00253607
-0.0570388
-0.0124593
-0.051124
4.00563e-05
-5.25725e-05
0.0447518
-0.0490025
-0.00463742
0.105978
3.47544e-06
-1.38902e-05
-1.26818e-05
0.0585827
0.000176776
-2.97752e-06
-5.23196e-06
-0.0542119
-0.0146593
4.87382e-06
7.86627e-05
-0.00889744
-0.006235
0.000437233
0.2209
-0.0527573
0.000150183
0.655231
-2.00643e-05
-0.000693064
-0.00828498
-0.0665302
5.9723e-06
-3.54037e-06
2.17941e-05
0.00483816
-0.0307137
-0.000341379
-0.0443475
-0.0074602
2.68678e-05
-4.78564e-06
-0.00971964
-0.00571875
-0.0249441
-0.0769422
-0.0408441
-0.0354041
-0.0185292
-0.0252453
-6.47362e-05
0.000361034
0.00231025
0.000542598
-8.18788e-05
0.000777331
3.05523e-05
-9.42938e-05
-0.0115391
-1.23357e-05
-2.95813e-05
0.0318839
-0.0274694
-0.000165471
-4.23787e-05
-5.90717e-06
0.242858
-0.00641045
0.000797983
-0.0261939
0.00023264
0.000202278
0.000174609
-5.00064e-05
0.000492246
-0.0346944
0.0153474
-9.38718e-06
-0.000167081
-0.0380641
-0.0296556
0.0471283
-0.000493744
0.001862
0.0177564
1.34963e-06
6.09891e-05
-0.0436335
2.2471e-05
0.158858
7.47101e-06
0.00423306
0.000169558
0.000227503
-0.061084
-0.00708082
-0.0168715
-0.00236361
2.67421e-05
0.00628849
0.0590462
-0.0117423
-0.000136816
0.0900697
0.154756
3.34025e-06
-0.0465932
-6.83998e-05
-1.07011e-05
-4.56287e-05
-0.000569123
0.0196616
-7.05295e-06
0.000251631
-0.0229942
-0.023964
-0.0205961
0.308181
1.70289e-05
-7.06772e-05
0.163682
-0.00668924
-0.00370958
-0.000655005
0.160983
4.41041e-05
-0.000318292
4.55486e-05
2.59786e-05
3.18185e-05
3.63171e-05
7.47617e-05
-0.0166903
7.73195e-06
-0.00325765
-0.0402179
0.22202
-0.000145822
-5.06829e-05
0.00473984
0.0808801
-0.0431176
-0.000753139
-0.0613343
0.305529
4.35974e-05
0.406503
-4.63079e-06
0.00335864
0.0240142
0.000442901
0.443102
-1.61078e-05
-6.27173e-06
0.00117044
3.12381e-05
-0.000862671
0.000266737
1.05438e-05
-0.00193386
8.96762e-06
-0.000147444
-0.00323712
0.236459
0.0475937
0.0218194
-0.0395251
-5.26988e-06
-1.8962e-05
0.00341346
-0.0503558
-1.01287e-05
-0.0420426
-5.48977e-05
0.0983587
0.0592728
-0.030717
-0.00133834
-0.0115208
-0.000980604
-0.0140465
0.00359122
-0.00718935
0.0604924
2.11219e-06
0.195352
0.012911
-0.000595028
0.198953
-0.0127396
-1.26758e-05
2.29052e-05
6.74915e-05
-0.00021246
-0.000123824
0.240698
-0.000975803
0.246076
-0.00108319
0.159232
0.208116
0.0729887
-0.00680535
-5.59387e-06
6.32516e-05
-0.0101479
-0.0993396
-0.0443391
0.00150912
1.92824e-05
-0.0348637
-0.000323125
4.57819e-06
0.00102299
-0.0010621
-0.000658047
0.0323056
7.64303e-05
-0.0436223
0.0546045
5.8686e-05
0.000272529
-0.0137984
-0.0529883
-0.000730478
-0.000520712
1.22536e-05
0.000253816
0.027035
-0.0162549
-0.0440031
0.00132438
0.0605211
-0.0358884
3.54095e-05
2.23855e-05
0.0102252
-9.27334e-05
0.0513175
0.000974374
-0.012923
-0.000385309
0.00164093
-0.0337074
-3.76001e-05
0.000498885
-0.00158433
-0.0654308
0.122712
-0.0553643
-0.025328
-0.000168858
-4.65793e-05
0.00675049
4.65205e-05
-0.0657119
-0.0591001
0.000571986
0.00340762
0.00380822
-0.0849591
0.00064811
0.000193047
3.75335e-05
-0.0380981
2.85219e-05
0.000566995
0.116415
0.173017
-0.0985981
0.0477317
0.0464222
0.011601
-0.000163406
0.0111032
0.000124863
8.75958e-06
-7.63077e-05
-6.40122e-07
2.44198e-05
-0.000358921
-0.00740373
-0.0553407
-0.00941741
-0.0275092
0.0506508
0.0425564
0.00409496
-0.0570039
0.000163177
0.00464932
0.0112321
-0.000389993
0.0704829
-0.00125358
-0.010598
0.0118343
0.0055287
0.000998224
-0.00395129
0.0410518
0.000833581
-0.0187283
-0.01576
0.531644
-0.0235459
0.0763554
0.008918
-0.0353591
0.00221364
0.00010236
-0.00253112
5.60327e-05
-0.00259371
-0.024018
-7.11197e-05
-4.92574e-05
0.249388
-0.00324694
-0.0385832
-0.0178702
0.000205239
-0.00145404
-2.37422e-05
7.54825e-06
0.0362076
4.03999e-05
-0.00289402
0.0705756
0.00626268
0.00113298
0.0181216
-0.00562117
0.00420273
-0.101317
0.000875857
-0.00435159
-0.0509392
-0.000858975
-0.00785283
0.000759078
0.000803723
0.0010005
0.0347487
-0.000322545
0.00567245
-0.0490418
-0.0197303
0.000313134
-0.0486012
-0.0143514
-0.0163767
0.000104856
0.0066299
-0.0623062
-0.0008387
-0.00476587
-0.0452377
-2.62346e-05
-0.00116192
0.209713
-0.0209187
-4.1995e-05
0.0082516
-0.0465263
-0.00104589
0.189169
-0.00221568
0.00102507
0.0578143
-0.00141717
0.00830851
0.123298
5.99233e-05
0.00118321
0.000179814
3.51088e-05
-0.00441238
-0.00712552
-0.000136845
-0.0228826
0.0913813
-0.0345132
-0.0648321
0.00117391
-0.0032182
-0.000618862
-0.0460678
2.58261e-05
0.0159003
4.28794e-05
-0.0152067
-0.00192867
-0.00486999
-0.117526
0.104752
-0.0691949
-5.42075e-05
0.174407
-0.00194829
-0.00258648
-0.0533905
-0.0728268
-0.0149955
-3.05099e-05
-0.00113649
0.00724762
-0.00304494
-0.00463238
0.000437086
0.0820238
-0.0405323
-0.0107409
-0.00650886
0.0201226
-0.00274945
-0.00128911
0.00171988
-3.75257e-05
-0.00304267
0.103645
0.000798313
-0.109968
-5.93786e-05
-0.00713998
-0.00366342
-0.0780314
-0.0111224
-0.0902271
-6.55308e-05
-6.35907e-05
-0.0043886
0.0106172
0.00181585
-0.101992
0.0775702
-0.0446495
0.000189274
-0.111985
5.86626e-06
-0.118239
-0.0240929
-0.142181
-0.153146
-0.162581
-0.172242
-0.178548
-0.172177
-0.159468
-0.134658
-0.113211
0.00311921
0.0459923
0.0930292
0.173945
-0.00781883
-0.00720985
0.0513034
-0.0177437
0.000904848
0.0136129
-0.0375581
0.000521784
-0.000682356
-2.94422e-06
-0.0137315
0.0177116
4.45609e-05
-0.0003233
-0.0101285
-0.00702183
-0.136378
-0.01335
-0.0510324
-6.7161e-06
0.000574943
-5.27019e-05
-0.0510327
-0.00854704
-0.0341725
-0.0106656
0.00173447
0.000222632
0.00473279
-3.33694e-05
-0.012973
-1.74265e-05
0.000374646
-0.00630633
-0.01107
-0.000290114
0.000329699
0.047526
-0.0100316
0.056021
-0.126655
-0.00835698
-0.0433108
-0.0178659
0.00370091
-0.020483
-0.00320541
-0.012023
-0.0123411
0.341931
-0.00132414
6.86397e-05
-0.00567026
-0.00869744
3.10364e-06
0.0774533
-0.00401669