/*--------------------------------*- C++ -*----------------------------------*\
  =========                 |
  \\      /  F ield         | OpenFOAM: The Open Source CFD Toolbox
   \\    /   O peration     | Website:  https://openfoam.org
    \\  /    A nd           | Version:  7
     \\/     M anipulation  |
\*---------------------------------------------------------------------------*/
FoamFile
{
    version     2.0;
    format      ascii;
    class       surfaceScalarField;
    location    "33.5";
    object      phi;
}
// * * * * * * * * * * * * * * * * * * * * * * * * * * * * * * * * * * * * * //

dimensions      [0 3 -1 0 0 0 0];

internalField   nonuniform List<scalar> 
29574
(
588.109
-435.473
-152.636
270.973
43.1732
-314.147
948.628
-1140.39
191.764
-395.182
994.339
-599.157
-631.704
671.169
-39.4653
-687.229
55.5252
220.974
-45.1068
-175.868
647.327
-502.855
-144.473
205.046
-288.666
83.6203
87.5434
559.784
-92.245
261.401
-169.156
-293.851
294.896
-1.04473
-230.902
-21.9706
252.873
34.6758
553.433
620.637
-649.683
29.0462
-965.127
569.945
-319.34
359.376
-40.0359
-92.4375
-1040.29
1132.72
-260.762
229.36
31.4017
305.492
-34.5188
-308.086
294.167
13.9183
-31.5759
-262.275
-506.234
593.778
264.764
-326.953
62.1883
948.628
-351.666
59.8153
291.85
893.062
-976.903
83.841
338.73
-145.04
-193.689
-160.562
-112.202
272.764
-116.794
-143.968
-592.302
740.715
-148.412
335.964
-281.155
-54.8095
412.972
-87.9619
-325.01
555.21
-294.478
-260.732
-716.976
780.476
-63.5005
-730.932
138.629
167.655
-398.993
231.339
932.359
-932.359
785.046
-343.768
-441.278
279.932
455.041
-734.973
1.24753
805.576
-806.824
-324.816
98.8048
226.011
-885.929
731.566
154.363
974.197
-81.135
-98.0267
-253.639
116.465
72.5307
-188.995
1156.1
-493.429
-662.672
344.199
-246.969
-97.2302
842.871
-30.4365
-812.434
238.771
-227.435
-11.3363
-787.774
70.7982
45.444
-762.288
716.844
-305.76
-128.575
434.335
763.142
-835.32
72.178
179.449
-400.997
221.549
14.8368
-208.418
193.582
378.271
-108.151
-270.12
694.703
-751.14
56.4372
-62.5099
-291.962
354.472
-87.5908
-231.749
-645.315
402.072
243.243
-50.3008
244.38
-194.079
479.491
-482.058
2.56677
-206.591
-378.932
585.523
-697.637
828.09
-130.454
-714.163
106.629
607.534
543.069
-567.244
24.1756
-650.287
-63.8764
-182.611
-357.402
540.013
-107.868
-103.318
211.186
359.085
-555.468
196.382
336.701
-229.94
-106.76
674.944
-54.3064
-269.496
-38.3621
307.858
1063.01
-561.672
-501.342
-86.3372
482.39
-396.053
334.147
-106.749
-227.398
-226.661
15.4114
211.25
942.937
-663.005
591.769
-832.453
240.684
632.128
-525.499
816.756
-193.984
-622.772
307.13
-110.843
-196.287
297.461
-92.415
133.945
-184.246
-632.301
-253.627
236.078
-281.987
45.9087
-32.1442
134.818
-102.674
-686.539
479.948
112.859
-300.958
188.099
-439.772
730.586
-290.814
739
148.8
-887.801
904.463
-130.129
-774.333
174.096
-284.819
110.722
203.717
140.483
423.91
55.5814
250.623
-76.5262
-779.402
789.437
-10.0353
-328.602
236.357
1039.99
-932.452
-107.539
275.542
-162.683
404.515
-415.711
11.1965
155.152
142.25
-297.403
470.525
-184.502
-286.023
1249.68
-1249.68
475.79
43.6336
-519.423
-8.0806
254.857
-246.776
-489.674
252.296
237.378
265.35
8.93549
-274.285
-298.209
-57.0397
355.249
50.4072
-210.969
178.774
42.2001
393.673
-108.479
-285.193
-268.603
-401.175
669.778
-578.349
492.012
-568.699
-431.376
-421.58
-154.367
575.946
576.688
55.4404
-325.764
5.53807
320.226
-1028.68
239.432
789.252
-170.796
909.796
57.4088
255.442
-312.851
385.666
-637.949
252.283
230.712
-361.887
131.176
132.272
422.938
801.684
-894.121
15.4168
228.958
-244.375
184.406
154.323
242.817
93.1474
111.222
-532.802
-32.2994
-148.735
181.035
22.8226
215.949
860.948
-859.701
289.9
495.146
112.419
-361.541
249.122
271.771
977.913
306.957
-76.5509
-230.407
-276.421
-31.6649
-405.084
35.1205
369.964
98.761
66.6481
-165.409
294.121
-236.712
32.3511
-301.847
184.274
152.426
-298.776
184.911
113.865
-588.457
97.1167
491.341
-134.071
246.49
-312.357
91.573
220.784
-94.0889
-222.612
316.701
8.1344
317.145
-325.279
-765.818
-211.085
127.294
-221.382
226.278
971.75
-67.2878
-227.835
-54.4997
282.335
150.813
665.943
-290.477
-21.8802
-754.078
121.777
72.1028
192.661
68.0121
-158.707
90.6952
-9.17991
-221.722
-173.434
352.882
-242.447
197.341
-36.2284
-413.875
-174.582
-204.884
-683.836
888.72
-142.555
110.411
345.181
59.3334
276.722
30.4088
442.603
39.7867
-359.932
527.586
361.166
-54.2085
-161.46
-154.968
316.428
19.5701
-231.498
211.928
397.65
-442.555
44.905
97.9296
96.2612
-194.191
44.7951
368.177
-571.669
509.145
62.5237
-537.037
-31.5238
568.561
-440.921
-137.428
2.05133
217.845
-219.896
66.5663
-233.303
166.736
735.574
196.785
341.792
34.2296
-376.022
-63.0287
215.836
-152.807
267.216
38.2766
226.632
-123.558
-103.073
588.281
-229.195
31.7745
1008.22
144.761
206.574
117.469
-324.043
301.805
-286.389
250.688
-401.29
150.602
73.7689
-1006.22
-608.99
426.379
216.163
-148.151
-46.2331
316.57
-270.337
96.708
245.084
-56.4485
327.392
-270.944
325.347
-58.131
-6.742
213.316
264.395
-405.087
140.692
-97.4384
338.009
-240.57
-490.263
144.014
-330.878
186.864
268.062
-374.749
106.687
-311.062
284.131
26.9313
-10.9037
-326.49
337.393
781.101
-735.657
196.548
-181.711
619.631
-634.911
15.2808
412.104
130.965
-852.643
511.175
341.468
-38.659
302.739
-264.08
-84.7382
-150.112
234.851
-296.158
561.739
501.276
513.834
-513.834
-529.281
-499.402
-270.684
-218.99
900.022
-610.122
-3.51475
267.006
-263.491
-155.816
-283.131
438.947
60.3251
165.172
-225.497
535.074
-974.846
-348.506
291.466
-12.4813
-392.603
351.265
-362.169
-1068.65
499.954
-485.189
485.189
-641.11
-6.9902
648.1
667.684
-282.019
292.356
139.034
-431.39
-329.844
321.764
-216.071
208.087
7.98353
-563.03
843.936
-280.906
306.721
-70.6432
578.429
-102.64
-410.527
249.067
182.61
68.0128
-660.284
504.468
249.22
-355.969
87.9879
-172.726
281.843
109.738
-391.581
352.485
-121.773
-1002.94
-246.746
621.736
-45.0478
-84.2402
288.818
-204.578
557.528
-481.97
-75.5582
-82.0873
782.583
-700.495
-53.2172
896.088
263.623
1.72634
-119.357
179.683
-92.6975
579.024
-486.327
-542.947
199.178
-164.169
9.89444
154.275
-138.921
431.277
-55.6504
234.482
-178.832
-69.2519
-255.564
192.221
-93.4603
-77.4154
193.88
22.6028
-249.857
227.254
35.8899
454.827
-490.717
710.409
49.3833
-759.793
284.623
22.0987
-83.0215
-159.426
-143.623
45.4409
245.253
-290.694
33.2676
360.405
202.511
-765.541
302.292
-192.804
-89.1831
122.521
-820.691
698.171
69.6256
-404.162
-163.083
-300.728
216.331
84.3971
-329.776
-315.539
567.787
-999.162
235.311
-48.7931
-186.518
-66.0758
267.798
-201.723
-1039.14
343.206
695.93
-50.9035
381.49
-330.586
324.372
53.8989
-232.434
82.4667
149.968
367.179
-110.412
-256.766
394.892
-144.205
-153.559
295.809
261.483
-214.774
138.056
-204.132
-112.798
629.017
-516.219
752.974
-161.205
-111.886
-380.17
492.056
854.068
-731.547
265.925
-220.484
-23.683
-336.249
-536.993
70.9304
89.8784
-160.809
373.643
-91.8191
-281.824
-97.0866
192.861
-95.774
403.729
-139.334
-123.271
-358.508
481.779
7.67922
843.932
-851.612
-776.665
803.788
-27.123
-240.078
44.3336
195.744
-753.913
439.401
314.512
46.241
-163.035
-2.94526
176.514
-173.568
-303.051
271.475
6.19851
-230.694
224.495
249.248
-31.4032
183.12
-558.835
375.715
231.304
-208.701
-40.2888
-186.373
-60.3043
587.89
370.018
-81.2072
-288.81
-733.854
741.534
-459.283
364.53
94.7538
460.804
-349.582
481.809
-856.199
374.39
-297.603
-103.395
-726.56
28.9235
-178.649
-53.7851
-645.373
631.507
13.8665
-183.129
351.302
-168.173
323.784
317.195
262.195
-170.079
-92.1161
269.74
-256.677
-497.401
-199.422
-85.3965
270.351
-213.558
-56.7929
-573.691
17.9736
555.717
175.333
-77.4036
1006.25
-1006.25
433.54
-498.658
-540.478
163.539
193.409
-356.949
-495.835
472.152
-331.953
293.591
-325.425
424.841
172.916
-597.757
50.8751
712.267
572.977
-148.136
448.131
-602.497
109.797
210.612
-320.409
-208.818
-215.13
423.948
325.849
69.8258
-395.675
-297.325
-544.64
841.965
492.108
-760.711
392.23
25.8798
-418.109
-1040.29
417.707
96.1268
298.627
-279.057
299.709
-362.219
-11.1518
121.12
-109.968
17.7001
-261.271
-254.509
11.8352
242.674
253.503
16.8485
328.762
-391.791
227.061
-93.1156
-563.159
-201.609
-99.3496
-391.929
-361.984
-979.258
-186.146
1165.4
-494.873
964.18
-469.307
-131.221
-4.38708
135.608
-668.254
636.741
31.5127
-253.633
387.084
-133.452
246.382
311.146
2.46642
-210.885
873.966
-912.513
38.5466
438.328
-126.493
225.297
-385.248
168.291
216.957
-257.899
73.8925
184.006
-507.088
-66.6025
135.468
-243.619
363.741
-81.8976
-1132.16
927.28
-570.184
477.486
-98.4181
211.723
-113.305
-76.5
385.959
-309.459
390.068
-366.132
-23.9352
-370.834
46.7607
-210.93
-321.006
703.426
-382.42
-75.3317
-253.27
-89.9363
482.166
4.42874
192.235
-196.664
951.622
204.48
-370.004
-15.2435
173.851
216.216
-372.448
-456.535
828.983
-877.171
383.742
438.249
-950.137
511.889
107.57
-444.517
336.947
-285.965
188.879
-13.6561
468.484
-131.834
-199.044
-429.36
148.206
616.037
5.69885
23.3684
211.943
436.907
-72.8305
-364.077
-112.447
-85.5255
197.972
137.508
241.818
-311.07
9.11385
-108.625
-41.8351
150.46
-384.004
-23.3471
407.351
-26.5741
335.839
-309.265
-102.577
493.074
-390.497
-417.95
393.431
-67.5825
-913.465
831.378
366.963
-323.33
-70.834
-330.456
-74.4911
-330.596
-655.188
-124.214
-537.931
303.123
234.808
-296.294
66.3541
-126.755
123.666
40.4063
199.697
411.493
-611.19
30.0586
-295.703
48.7342
28.4244
298.968
151.014
-259.493
-48.4025
-296.603
345.006
-810.626
796.29
14.336
230.301
-252.17
21.8686
361.895
538.127
278.628
-389.04
-21.7205
306.343
-724.58
694.144
287.724
-211.206
-76.5172
303.112
13.4587
-176.168
-171.313
-310.821
482.134
-213.826
-97.2367
307.647
-399.466
447.304
-570.575
119.864
75.1438
-195.008
206
-128.329
-77.6713
278.334
-650.782
163.295
-520.697
244.527
-90.0871
-154.439
47.4617
-813.279
-434.908
316.752
-397.959
-594.315
701.885
-513.792
99.9164
368.299
-665.624
113.48
-229.239
115.759
-851.193
898.654
-30.1496
-5.75038
811.327
-217.059
215.946
1.11378
-313.108
196.005
117.103
-241.96
-132.789
-60.5943
428.282
-367.688
561.008
-673.806
49.9806
-230.892
180.911
176.034
-126.053
351.555
80.6525
-263.781
175.302
16.9196
-145.141
766.848
107.118
-458.971
172.947
-209.418
176.664
32.7538
190.368
-246.018
-3.88395
191.046
-187.162
-355.562
307.16
-221.08
-16.4315
237.511
-550.287
438.401
212.387
-204.252
-580.81
-64.5628
614.899
4.73128
-323.859
-208.943
172.991
-88.4602
-84.5308
-111.754
-104.278
216.031
177.761
-244.537
66.776
-44.1058
296.756
-252.651
-225.161
211.937
13.224
-193.982
-31.1794
357.909
78.9984
998.957
-727.187
-287.011
-315.051
239.719
191.197
33.0312
-224.228
-989.481
808.545
180.936
-367.048
170.009
197.04
-513.527
-149.934
663.461
-158.914
-806.213
-15.9841
-281.419
-472.485
449.138
-100.539
-212.569
258.528
9.27042
661.387
-104.058
-557.329
347.18
-449.757
-159.2
756.232
-597.032
-236.531
-209.564
446.095
-285.017
268.703
16.3144
5.94946
-71.5796
249.341
-117.429
-183.299
-525.764
-12.1673
-16.1508
-90.3646
-744.956
41.1152
-432.21
-215.444
103.69
-285.574
173.372
699.073
254
-308.5
163.307
63.3242
-331.976
-9.36292
341.339
-262.88
4.9818
-36.7474
-997.249
778.74
218.509
-17.7526
225.84
-82.2424
270.341
492.304
-524.449
32.1456
-304.02
-155.263
-360.676
395.796
-45.1512
136.61
-91.4588
1005.47
-824.16
-181.314
42.0194
-587.476
545.456
-27.4188
-123.313
150.731
-158.624
-137.671
487.289
-63.3788
-264.5
510.882
-559.998
123.426
436.572
-211.564
271.379
519.795
-394.615
-125.179
294.174
8.3891
-302.563
-284.764
200.524
683.961
-106.13
-577.831
438.712
-239.015
-433.39
389.681
43.7087
273.896
14.9226
-297.015
-34.9607
-179.807
56.2491
199.004
-500.655
67.7792
432.876
-263.323
259.808
-401.734
375.159
-330.672
-67.4814
-417.707
-459.848
399.253
-530.623
1001.79
-471.165
-119.018
73.8667
-175.699
-191.35
488.212
-50.2359
-437.976
-17.5502
-298.171
315.721
-509.415
564.352
-54.9365
446.964
202.461
-99.9449
-102.516
201.45
-245.556
196.914
-200.798
-310.105
96.5468
474.23
-432.211
-11.614
-273.403
66.7079
-909.693
909.693
119.432
2.53379
420.423
-422.957
-168.022
182.075
-14.0535
-514.196
305.378
-426.88
71.666
355.214
56.4492
116.542
-511.402
411.341
100.061
-208.625
436.374
50.9145
308.306
42.0267
-350.332
341.124
-85.6822
-430.501
-51.469
118.441
-360.656
284.156
337.21
-256.278
-80.9321
-27.0693
143.323
-116.254
-979.258
-293.806
-183.078
80.1519
102.926
-345.797
257.835
-428.215
-521.923
242.771
567.937
-810.708
-143.539
-532.626
676.164
-486.84
162.982
-17.4839
192.786
213.88
-16.9662
-657.227
640.487
16.7402
87.0493
351.663
296.412
-77.4489
-218.963
-98.3742
-569.773
668.147
-581.457
823.713
-242.255
-593.021
60.5227
-819.522
210.735
608.787
-984.419
431.873
552.547
-289.811
-270.187
-115.697
482.66
-968.571
437.948
-675.575
814.403
-138.828
663.529
-761.904
-211.646
250.675
-227.852
124.3
-799.876
-164.025
-694.489
858.514
683.765
0.196308
501.27
326.821
-93.7954
297.512
-92.7047
88.3176
-152.964
220.544
-599.476
253.945
-226.739
-27.2051
-116.85
344.561
-227.711
-172.905
-122.799
523.997
-31.6928
-290.522
272.972
13.3915
623.35
-703.84
-650.519
-256.206
-244.449
43.8532
217.548
21.208
494.269
-515.477
-392.787
352.987
39.8003
-141.2
156.612
561.641
440.147
-383.178
-164.61
547.788
175.451
-263.042
-108.333
292.608
-74.369
-352.511
185.239
-261.79
-232.11
319.159
202.629
-130.098
-449.943
-534.476
-291.117
-11.3358
302.453
-337.638
202.537
135.101
-173.949
178.377
-251.721
-85.9168
225.304
-219.105
248.73
-282.35
33.6196
322.598
-85.4968
-237.102
-805.214
646.3
-310.283
-335.816
82.1833
-330.545
356.425
272.517
-70.3087
517.273
178.158
-12.9862
260.483
563.787
-824.27
-193.691
165.823
40.1769
-578.618
407.305
-991.72
307.884
321.289
-816.161
-472.963
-73.0335
545.996
-530.209
452.537
77.6717
280.658
-207.288
39.2667
-658.263
393.763
-41.6991
155.179
-365.169
386.377
132.197
-526.813
-122.035
-36.8873
219.497
-7.91376
276.617
270.829
-81.3189
177.58
778.74
3.84207
296.375
-286.344
-10.0306
-280.417
-81.1239
-83.8266
-35.0325
265.334
718.568
245.612
48.9293
221.412
340.105
-90.8842
-58.234
316.505
-258.271
-459.218
79.0479
494.52
-230.329
-264.191
286.903
-294.817
-15.9515
-674.646
690.598
222.275
-829.237
458.403
-238.5
77.0097
-365.82
-125.294
-403.195
528.49
-125.109
135.003
250.496
-344.291
334.156
-17.0112
-871.2
334.163
90.4673
-372.292
-725.79
-525.268
-464.213
236.441
106.477
-363.244
233.382
-341.715
156.919
87.6073
154.659
-219.623
64.9642
-522.921
164.413
505.427
-923.378
-146.293
57.8333
458.361
26.8278
-574.906
-422.343
17.6938
-598.504
-3.64613
297.82
-97.3584
415.823
-318.465
-108.625
-85.5662
154.157
-233.564
-62.5941
-343.257
376.525
-270.753
-49.3566
320.11
-61.6299
264.167
-290.863
-259.495
241.45
18.0454
43.7536
-255.428
332.438
371.375
-67.0678
-325.719
-22.8216
234.759
203.745
-29.0173
-174.728
-80.7223
-466.531
53.7992
412.732
-289.228
-138.678
427.906
187.326
-214.395
340.963
-236.196
57.547
-193.628
-126.303
319.931
819.327
339.859
-42.4226
-208.652
251.075
-22.5393
-507.67
-291.117
-733.46
342.575
390.884
1.2999
-295.778
-9.18216
251.999
-11.6037
227.549
283.976
-328.151
44.1744
-468.814
-140.176
-541.732
175.839
365.894
209.487
28.0239
237.896
347.668
-611.522
263.854
243.559
-407.807
164.248
-355.168
409.763
-664.224
254.461
998.013
-966.238
-784.386
463.381
-459.147
-109.311
568.459
176.581
119.794
-317.348
578.5
-418.598
-159.902
393.639
-218.188
-837.898
256.44
250.428
244.092
-241.663
83.0395
401.883
-80.1197
178.484
-179.953
1.46852
232.84
11.5399
581.114
-612.638
-501.006
168.32
332.686
72.9494
-365.328
-121.092
486.419
91.9881
399.371
-214.132
265.374
59.9728
-453.695
149.675
313.053
103.617
-416.67
118.228
-216.647
-191.148
-229.264
-206.208
-359.636
16.3781
-28.4686
-628.758
-38.394
232.227
-193.833
-295.76
185.035
110.725
-398.139
-119.666
517.806
-281.966
-66.5392
186.918
16.8275
-351.544
78.8655
182.869
71.8208
-254.69
-265.198
-147.892
413.091
-365.773
-291.732
271.924
19.8077
108.897
-337.959
229.062
162.713
-226.713
63.9998
-35.2636
-124.275
-290.697
414.972
-363.105
231.271
211.611
-440.875
-249.537
107.401
142.136
-466.206
155.385
35.122
-440.348
405.226
-196.404
-63.0911
185.998
434.188
-360.224
-73.9648
-211.69
201.206
10.4837
-262.347
118.119
144.228
-73.4878
-135.93
-332.383
-118.808
927.353
-214.231
-35.6255
274.352
-476.209
320.946
108.211
-307.186
198.975
-410.577
-142.899
553.475
-472.298
-214.931
220.313
-29.1163
285.033
690.357
-706.309
-49.0712
-272.056
321.127
83.5006
-712.085
628.584
207.938
103.256
-311.194
313.313
-119.903
-238.91
222.926
-362.148
-51.3968
413.544
-710.422
39.221
671.202
-508.191
-152.093
-96.658
-305.076
522.902
-42.3478
-774.556
-19.8544
794.41
-207.274
571.644
-364.37
-216.529
477.012
143.523
-508.851
330.234
-119.622
125.217
453.808
-426.01
428.544
-323.441
-153.177
476.619
-523.473
50.5107
313.966
50.5638
16.1288
-255.039
270.151
-76.7009
-193.451
-113.64
-117.234
306.113
-89.1773
-271.478
41.4684
229.91
-298.181
-104.472
402.652
-280.154
354.757
-74.6033
-90.422
280.79
-336.477
-145.405
481.882
-233.091
103.638
129.453
-134.092
-52.8095
55.3321
-652.062
596.729
-181.175
-252.215
-308.801
-250.034
-333.505
-101.402
-209.275
-86.1027
295.378
415.179
639.763
169.974
-226.393
56.4188
170.361
531.524
229.313
40.8388
179.178
-258.17
78.9912
-412.752
-137.535
-525.253
-102.372
372.112
-179.258
316.577
-35.9185
657.351
-152.883
-4.59336
229.897
-239.912
279.194
-39.2817
713.631
0.000800806
286.903
-601.886
492.294
109.591
221.781
74.6315
204.175
-49.9867
222.713
-322.062
71.0934
-324.732
19.8983
-354.761
356.831
-2.06991
83.1984
-185.872
163.194
51.2779
-320.281
317.904
2.37711
301.744
-351.101
248.823
-21.5688
-379.6
-116.236
-60.1091
286.12
11.959
241.986
300.573
7.28584
-393.572
-111.363
504.935
-76.8424
-150.593
-194.551
-36.3408
52.4992
249.792
257.923
-292.955
322.805
-53.8183
-266.086
292.259
-26.1737
-1061.28
714.646
346.636
-422.752
133.524
339.924
4.33502
-344.259
-72.066
356.222
566.507
-176.512
-42.1072
218.62
-72.5851
-230.466
-259.656
-66.6021
326.258
-282.99
-64.1873
347.177
-69.9357
-510.024
-91.8612
-798.021
785.631
12.3902
28.5778
249.49
-278.068
32.9087
324.88
-196.984
484.599
-287.615
-231.16
-83.8906
-488.075
104.257
-212.881
185.707
-239.492
-316.725
-119.885
436.61
-119.045
476.223
-357.178
-380.732
-91.7531
-239.433
-104.858
2.14586
-446.35
-123.834
-198.905
683.367
16.9068
647.516
-664.423
-197.097
48.3619
231.402
-817.046
585.644
143.705
-385.665
307.667
-52.8097
84.394
-1028.5
-227.144
-114.571
437.309
-3.76891
-530.243
-394.608
-124.815
-657.413
206.347
-400.692
194.345
-7.62928
304.386
-349.92
-93.0456
442.965
-17.2908
-285.429
302.719
830.058
-116.427
-492.177
478.521
-59.1705
-715.385
-92.8763
468.036
-846.825
783.324
294.856
-475.944
401.575
-96.0725
-115.134
161.895
175.664
-337.558
-438.212
-247.046
183.393
19.0139
-202.407
-210.758
917.07
31.5577
-991.986
559.776
-213
-107.928
320.927
763.114
38.5701
358.995
-67.529
371.261
-354.882
-401.736
405.55
-3.8136
332.061
-324.077
-7.98449
363.721
-78.6873
-19.7084
-442.625
-144.851
-225.254
-131.694
-199.673
-120.736
-620.148
830.84
-210.692
-242.504
-9.21724
-223.378
-446.577
-462.379
412.143
71.7484
-305.312
-90.108
-125.019
215.127
-42.5542
387.767
-345.212
358.12
-50.9599
218.584
-72.4707
-146.113
98.3053
-221.618
134.275
127.208
317.263
-109.325
-336.663
-91.5258
232.008
571.798
-133.397
26.1786
-773.51
747.332
-275.056
111.73
-193.049
-30.1569
-78.3641
349.839
56.5127
771.673
-699.495
856.485
-110.879
-745.606
375.674
-74.2395
-301.435
104.368
-217.672
-89.3198
506.604
-417.284
-232.946
-55.72
21.6684
-733.753
462.487
-71.1914
-290.274
283.79
6.48396
-211.907
-38.1239
250.031
201.389
27.7612
-229.15
-36.8573
-84.5918
-450.224
-611.058
-427.257
198.993
0.0227272
-194.064
-24.8617
247.136
59.3011
-538.869
479.568
-333.792
223.013
-398.712
148.379
-347.423
684.043
-333.905
67.5128
-267.532
200.019
-146.032
314.323
597.739
-149.608
-201.759
-141.326
227.853
919.874
88.3427
-302.453
225.927
46.1238
725.549
-11.1074
189.592
-322.44
-93.2707
406.342
-89.5897
-462.362
-520.693
153.463
367.231
-164.347
-544.847
709.194
-571.785
1010.11
-762.298
142.15
-489.655
-273.34
278.285
116.608
-935.05
53.2478
881.803
-357.603
405.865
-98.2179
-12.1386
363.404
334.884
19.8737
230.929
-194.582
-36.3469
-309.273
98.515
-191.622
-20.068
243.107
382.409
-103.781
680.821
-135.364
293.855
109.875
578.335
-131.032
522.507
-111.014
257.832
-43.1286
-214.703
448.408
-502.722
-341.778
844.5
543.777
-240.654
-301.955
-553.766
80.9174
472.849
316.697
-76.9776
-711.445
677.348
34.097
527.989
-78.8514
-27.6438
634.739
-607.095
-385.508
300.011
300.354
86.7307
433.511
139.465
-387.358
219.444
-38.5325
372.686
-14.5665
-437.977
-125.69
-45.5838
593.297
320.457
-315.126
-5.33069
-537.035
68.2215
-391.328
-333.492
297.573
55.5827
325.907
-299.697
351.184
-51.1725
-145.292
-272.405
-273.852
-15.0705
288.923
-401.45
-112.384
-36.2214
547.271
-38.1257
-3.90644
472.39
587.259
-26.3577
-154.089
-266.71
331.423
-64.7135
-53.3275
220.26
31.8822
-743.327
-325.167
-237.244
363.994
-389.311
-70.5365
473.546
645.143
209.776
-854.919
-154.892
588.262
-125.775
331.823
-244.284
-87.5388
-69.6545
-607.462
-212.061
36.9413
199.239
135.644
-138.822
202.822
-285.375
-310.928
355.664
-44.7357
214.285
322.49
-438.187
733.752
431.652
-315.393
377.48
-62.0866
-266.995
-480.248
-219.4
837.501
18.9842
420.805
-48.1186
-968.804
33.7541
395.052
-66.2898
-745.774
-13.9716
-316.484
633.731
205.767
-85.9028
-91.0067
13.0264
293.317
-388.827
-9.72587
398.553
-241.661
-149.921
201.427
-119.178
-474.811
-103.807
502.388
-95.0836
353.055
-5.73998
-324.856
-110.755
-137.064
-518.289
374.75
-113.009
652.657
-630.989
-280.037
383.247
-103.211
-240.615
67.7105
280.78
21.9582
-445.3
-478.077
-405.195
972.931
-466.627
-506.304
588.199
-110.712
-526.866
-131.397
-97.6056
17.7777
531.985
-138.222
23.9933
57.4242
174.803
-229.742
-229.229
52.813
-105.611
566.602
-140.223
-403.23
-343.13
288.321
262.457
2.87721
447.336
-94.2812
-50.913
-147.992
-142.957
-305.076
31.6723
81.5804
-276.131
441.646
-652.731
622.109
-115.816
-506.293
758.772
-726.89
438.853
-74.8586
-245
-281.561
47.6963
600.546
-127
-758.328
784.506
214.173
-0.724536
-213.449
-151.396
223.144
465.753
-66.4999
625.985
-146.037
-279.77
279.77
-108.764
-74.3136
-207.986
271.463
-63.4776
-92.3444
268.925
300.889
-46.8887
-35.8824
249.722
-473.517
-277.623
271.55
-235.76
-35.7907
-435.971
424.441
11.5306
-17.3903
-139.163
313.014
295.675
-301.026
5.35066
-252.177
-84.2567
-14.1099
135.23
-318.927
425.244
-42.836
787.088
-744.252
-507.829
351.242
-28.7522
36.8434
343.359
14.1153
-357.474
7.14793
382.533
232.18
499.386
39.3068
505.581
11.6918
356.285
-47.9794
-70.97
250.149
270.457
46.0478
-870.955
887.861
-303.275
281.698
21.5772
-546.261
246.789
2.93293
812.554
-603.059
-209.494
259.032
-181.599
-77.4326
433.402
227.397
32.2659
491.731
-197.109
616.88
-419.771
99.289
-51.9233
847.524
-795.601
-434.238
309.963
475.983
198.96
232.259
2.49963
221.491
-192.464
-488.212
680.677
42.1088
206.714
66.1348
-558.182
571.024
-508.5
815.241
-259.631
-555.61
-291.989
-198.273
70.0194
271.131
0.792691
-222.45
-288.953
-361.231
-515.94
2.50468
184.55
-187.055
289.62
262.071
188.859
-792.391
768.526
23.8648
-29.128
407.451
-457.982
50.5308
279.634
81.1105
-0.560189
794.492
-793.932
102.116
229.307
62.1007
79.956
-290.835
303.512
-12.677
-921.615
-57.6429
193.551
-134.237
-489.277
623.515
-291.582
859.518
-146.772
-400.831
-136.204
-560.27
100.068
386.351
23.5065
-252.747
-27.0229
199.589
-142.165
19.0384
859.701
49.9916
-14.1131
301.016
471.925
-356.349
-115.577
-629.881
232.344
397.537
141.624
164.489
364.714
-355.574
274.642
154.369
282.24
229.413
261.082
31.1775
69.6122
-483.426
413.814
838.369
-235.801
-602.567
169.103
221.913
-391.016
368.453
401.781
247.932
3.89883
-626.339
-306.02
273.677
-889.661
367.447
81.7207
-484.916
86.044
-636.86
-96.8939
243.568
-356.952
398.76
554.7
-568.169
645.007
-76.8379
-10.0575
370.463
410.635
-355.918
-42.9245
173.439
-130.515
-303.053
293.749
-17.132
674.116
-345.526
-22.4108
375.711
-353.301
91.2579
-176.354
255.834
-79.4797
-294.681
239.192
55.4896
268.936
546.306
133.127
-401.023
460.204
-1132.72
1132.16
131.154
-11.064
441.787
167.924
-56.1939
414.356
353.609
213.874
20.9762
297.181
363.651
-25.6987
-337.953
-649.446
649.045
0.400308
228.511
194.415
-9.86515
501.368
-431.755
-211.074
765.774
310.08
78.0381
275.397
-366.282
-171.018
26.8536
244.697
792.812
-174.63
-618.182
-892.469
966.238
301.304
383.178
255.707
-251.372
554.148
-992.36
472.026
350.089
338.907
-33.5578
473.974
291.076
59.3355
-416.318
356.982
-220.674
334.584
-13.5978
-23.4738
-824.306
694.177
864.883
-201.354
333.302
291.446
124.988
338.962
-19.9579
-319.004
268.941
323.662
299.69
-187.12
87.1751
-271.904
281.212
-9.30798
448.9
-565.347
-245.361
-2.22474
216.099
466.079
-577.441
-275.047
22.3
476.712
-134.404
-236.948
371.352
-331.953
-188.741
634.404
106.31
426.324
-943.867
517.543
-459.228
417.763
41.4645
-2.81292
251.722
-248.909
359.975
-268.718
259.43
-236.606
-22.824
327.47
45.9749
-222.329
-851.193
80.7657
366.166
-446.931
-33.241
724.794
-691.553
322.132
-295.142
-26.9897
-445.643
481.134
328.863
-272.35
-399.981
978.65
-578.669
273.022
-13.7568
197.15
540.182
459.818
-185.475
205.976
13.113
-219.089
-27.6433
397.607
-593.517
33.5948
559.922
200.726
262.417
-367.275
-42.1627
-393.808
-917.07
865.147
-493.696
1033.88
336.008
-61.588
237.665
-1.71889
-235.946
488.471
-434.672
56.491
-708.553
-459.279
0.050987
-255.589
317.627
-469.45
-499.121
298.192
-18.8218
-279.37
-959.709
430.428
-798.021
155.676
32.0043
-187.681
29.0874
599.497
647.768
-633.901
-272.729
836.516
-73.6417
226.068
383.455
-557.099
173.643
-137.698
357.16
-219.463
-704.282
750.406
-385.138
221.705
-223.109
232.139
-9.0301
-275.873
702.197
313.264
648.207
27.632
-785.96
-231.333
246.636
-361.207
-32.4369
-228.825
240.66
-898.654
982.495
175.366
39.0994
-214.465
261.607
-324.034
-67.7568
-0.286228
392.907
210.731
-603.637
502.756
-902.737
530.802
-56.572
-221.315
-2.05239
223.368
-114.04
-191.035
-310.308
73.2062
-166.868
-134.979
302.174
291.392
-264.538
-118.299
-315.411
433.71
279.636
288.339
-17.5524
-292.756
310.308
-690.745
16.0986
860.948
-921.615
998.013
-1002.94
977.913
1020.52
-1020.52
-892.469
-1028.5
278.637
-255.131
-243.149
-256.227
-185.953
-1.20922
753.25
-964.323
211.073
-887.861
9.6005
-279.72
190.128
-34.4513
-763.517
791.149
227.426
-6.81922
-220.607
-283.725
266.434
-11.8926
-249.51
261.403
248.498
-14.2512
-234.247
201.166
-228.371
-23.6699
-253.241
276.911
-187.573
200.312
-12.7383
249.666
280.64
-346.84
406.175
103.259
-180.094
76.8352
-395.883
-610.338
-193.842
207.114
-13.2718
-419.538
-84.105
503.643
193.311
-174.297
39.305
201.33
-25.9646
-359.727
278.603
520.025
-121.264
208.904
463.382
-55.9302
313.663
-404.065
90.4025
18.341
-637.503
666.59
263.478
-460.587
-783.658
730.269
53.389
480.772
497.878
71.0047
449.02
-279.176
271.547
-73.0695
-710.589
237.794
-345.722
736.68
-947.372
345.975
-770.864
424.888
125.123
264.174
-205.984
-58.1896
-56.4067
-386.809
-868.477
592.605
-1.34512
254.762
3.75497
-308.47
304.715
15.1541
-53.7375
235.192
281.836
-37.1391
185.523
-58.3249
-127.198
738.832
19.9408
272.57
300.676
6.46977
177.421
-229.21
51.7899
238.367
-299.31
295.664
-337.344
-202.853
217.109
-14.256
74.6241
-494.162
242.621
182.622
-82.1909
835.441
-609.421
449.519
578.191
-685.731
221.23
-340.852
309.243
-446.941
187.928
-319.622
217.939
-190.178
-337.161
217.258
-188.966
-7.07413
196.041
218.662
-339.398
368.383
-266.287
-102.096
-7.23828
486.807
-442.46
-560.383
1002.84
-766.247
660.117
-50.6113
-320.489
371.101
21.3826
61.0338
-293.672
284.49
-267.066
-7.98071
196.441
68.3102
-264.751
-184.396
-216.296
-297.271
223.39
-208.917
-14.4738
-308.47
-409.937
409.937
185.253
-657.551
168.628
184.254
304.715
727.302
-235.008
-41.9725
-645.51
687.482
526.971
-90.399
234.852
-364.061
314.99
399.359
242.414
4.26035
232.266
-172.233
-60.0336
-29.8261
-686.824
686.824
-176.913
-386.472
-93.0523
-119.829
206.771
20.2897
-142.852
210.865
-422.676
478.257
-145.461
-201.962
746.185
-505.202
-240.984
-111.543
-106.13
558.765
-183.05
-117.849
-45.8712
-489.52
535.391
-500.687
-287.088
512.424
-20.6932
-15.4003
-750.638
558.174
-457.807
-65.6668
767.912
19.1765
230.42
-112.916
773.653
-660.737
107.278
881.05
683.163
856.195
145.59
-218.061
-385.729
-73.55
-232.919
249.923
-232.581
49.2494
-167.55
-898.096
41.4789
856.617
10.6401
391.432
814.283
-260.597
245.79
14.8071
1066.44
-542.398
-524.038
-168.618
2.22975
476.291
202.63
-36.8064
263.374
284.414
421.014
-772.04
956.296
-184.256
-349.059
5.92867
231.011
17.0433
666.324
-88.8078
-214.467
-162.325
-242.87
213.726
92.3279
634.974
689.776
-731.748
91.1487
-795.431
22.629
654.719
752.271
-849.595
97.3237
-627.552
535.617
91.9341
627.248
-563.543
-63.7055
-446.267
520.891
60.2178
-76.3046
-121.723
198.027
122.5
305.674
-603.68
451.587
189.039
-189.039
-198.565
218.396
-879.199
436.74
-674.264
540.027
-553.766
870.955
-953.146
23.516
-237.551
203.752
-162.626
-223.039
-246.784
19.7556
356.769
34.6304
341.044
-350.434
-365.199
41.1219
440.24
-680.894
-55.3148
-726.74
782.054
225.426
-263.55
55.101
101.864
-226.882
-623.559
655.071
-196.703
-42.7891
8.16246
552.813
150.613
-307.313
-26.1785
-455.118
957.875
864.363
-864.363
332.632
43.0797
9.03264
463.357
-761.461
17.2085
651.769
14.8219
80.3484
417.452
-497.8
214.047
301.705
-3.88535
8.94988
673.616
16.9814
-865.922
653.861
195.391
303.286
-498.676
-826.35
566.718
210.29
-413.162
18.3043
-649.293
-184.783
-59.4739
244.256
-78.4462
193.295
-114.849
15.1658
44.3063
355.508
40.2881
-200.074
17.4062
-296.024
522.988
660.365
64.4299
12.3724
143.662
-79.3029
-198.765
195.777
394.641
-499.892
-707.824
-64.2154
-196.383
-466.881
-476.986
-274.091
-360.82
624.533
-514.942
6.66317
798.728
-805.391
318.289
50.0937
391.772
-59.1403
622.547
-57.8625
-564.684
313.775
-20.1836
-572.877
-106.233
679.11
-27.7235
-258.665
-609.378
456.495
-171.778
-73.979
245.757
241.194
611.318
66.3414
-240.949
-81.1134
24.209
202.705
-546.054
638.382
193.604
3.54569
-199.606
395.455
-195.85
318.076
-881.459
563.383