/*--------------------------------*- C++ -*----------------------------------*\
  =========                 |
  \\      /  F ield         | OpenFOAM: The Open Source CFD Toolbox
   \\    /   O peration     | Website:  https://openfoam.org
    \\  /    A nd           | Version:  7
     \\/     M anipulation  |
\*---------------------------------------------------------------------------*/
FoamFile
{
    version     2.0;
    format      ascii;
    class       surfaceScalarField;
    location    "0.9";
    object      phi;
}
// * * * * * * * * * * * * * * * * * * * * * * * * * * * * * * * * * * * * * //

dimensions      [0 3 -1 0 0 0 0];

internalField   nonuniform List<scalar> 
176195
(
203.504
48.3822
-251.886
-473.774
102
371.774
-111.005
-79.5408
190.546
113.845
-279.131
165.287
-435.006
323.76
111.246
138.049
-337.236
199.187
-167.202
281.415
-114.213
-88.4002
190.53
-102.13
-363.4
352.017
11.3832
-465.117
-8.65666
-230.015
354.533
-124.518
494.952
-360.238
-134.715
-170.471
341.352
-170.882
94.0641
-95.5257
1.46161
-43.9107
-319.489
-111.3
65.5464
45.7539
-456.09
86.4146
369.676
-411.638
76.9871
334.651
-145.618
287.475
-141.856
-332.014
-102.992
-80.5026
178.282
-97.7798
199.835
-197.751
-2.08386
392.899
-290.389
-102.51
161.118
-314.393
153.275
-261.212
221.089
40.1229
-108.808
208.624
-99.8155
52.4508
68.232
-120.683
-206.525
456.977
-250.453
-263.27
-175.888
439.158
-66.5833
96.4682
-29.8849
427.844
-342.057
-85.7865
-236.11
-67.1902
303.3
-268.766
404.114
-135.348
-101.358
-77.4339
178.792
-108.765
-88.5364
197.301
182.201
95.7336
-277.935
-211.962
68.0837
143.878
-99.6122
-356.478
95.4231
-133.38
37.9573
91.4358
209.814
-301.25
153.71
-389.82
-57.5535
-354.084
-130.345
-38.5495
168.895
-119.35
301.552
-44.5616
105.811
-61.2498
-2.76159
96.8257
265.94
62.5496
-328.49
541.673
-302.215
-239.459
397.406
-147.076
-250.33
414.104
-534.035
119.931
-390.72
478.199
-87.4793
280.458
-101.924
-178.534
-461.667
320.282
141.384
-504.4
451.004
53.3963
-117.843
-167.351
285.194
-307.118
-154.548
543.38
-358.355
-185.025
-135.85
81.3253
54.525
71.5176
70.3226
-141.84
130.6
-231.7
101.1
-515.379
327.455
187.924
-186.31
332.271
-145.962
346.162
-129.451
-216.711
-106.995
187.995
-80.9994
295.904
87.1685
-383.072
9.39031
-400.985
391.595
-351.984
196.712
155.272
-212.025
388.316
-176.291
61.0863
-123.069
61.9823
-524.663
249.324
275.34
-116.104
190.06
-73.9555
172.065
-131.032
-41.0333
352.234
-260.798
-138.812
69.7806
69.0313
-84.9683
-95.825
180.793
82.8459
-167.713
84.8673
-191.338
50.491
140.847
202.119
-403.137
201.018
-266.083
-115.316
381.399
-274.344
201.084
73.2608
-75.2135
-199.131
429.788
-432.786
2.99745
49.3598
-86.7648
37.405
-302.335
551.251
-248.915
-137.739
241.356
-103.617
342.478
152.474
-111.996
179.984
-67.9877
-324.475
472.878
-148.403
107.21
-120.572
13.3619
-86.6875
441.52
-354.832
126.536
-12.7672
-113.769
203.464
-19.7143
-183.75
206.525
-469.796
221.681
50.0108
-271.692
-420.679
315.337
105.342
-574.845
416.81
158.034
262.035
-321.885
59.8494
99.1965
-49.8367
70.7533
-148.517
77.7638
-0.403632
107.614
-314.46
-200.919
194.668
-427.888
233.22
327.622
-180.16
-147.462
-484.656
498.493
-13.837
81.644
-197.748
167.025
-84.5414
-82.4836
-502.242
298.568
203.673
-32.2622
100.73
-68.4677
-146.192
225.957
-79.7644
-311.329
-71.1472
382.476
-110.314
213.854
-103.54
-54.6662
316.701
-158.315
-33.0236
137.327
104.366
-241.693
-136.514
47.8499
88.6642
206.963
-346.032
139.069
-307.624
77.609
-71.4128
196.694
-125.281
363.999
-541.563
177.564
43.7995
128.266
-187.916
116.503
-70.921
-40.3793
-224.928
114.821
110.107
46.3995
-154.45
108.051
-230.664
532.611
-301.946
-106.085
39.5022
-265.891
79.5817
-124.124
60.1273
63.9963
-181.291
-41.7244
223.016
-497.816
500.363
-2.5465
-97.0155
227.678
-130.663
567.095
-287.714
-279.381
-163.395
163.462
-0.0671965
538.913
-196.434
-329.44
480.843
-151.404
-144.049
228.695
-84.6452
-272.014
206.164
65.8504
59.8097
-328.576
149.194
-267.038
182.796
149.476
76.4713
35.4074
-111.879
-189.259
340.998
-151.739
502.971
-504.531
1.56047
368.259
-194.094
-174.165
-258.487
161.472
141.958
-532.678
436.3
-327.507
-108.793
-116.631
-149.261
-440.278
228.253
-227.127
-166.916
394.042
112.668
54.3567
53.2086
-97.7702
7.0879
196.376
-567.956
273.279
294.678
133.411
147.048
-356.11
425.258
-69.148
-412.196
100.867
-69.4857
208.087
-138.601
135.332
-135.465
0.133115
-153.876
105.309
48.5669
153.393
-70.547
139.688
296.612
158.424
187.738
-186.799
150.103
36.6961
264.918
-146.642
-118.277
139.9
173.586
-313.486
435.822
-250.9
-184.921
-55.7458
-110.322
166.068
-180.069
110.583
-243.132
127.196
115.936
-242.718
158.601
84.1168
-98.6266
364.567
-78.9319
-34.3759
113.308
26.739
65.6027
-92.3417
-66.2151
-87.6031
153.818
213.481
-426.818
213.337
-77.2273
103.966
194.479
85.2869
-279.765
118.148
-333.146
214.997
278.068
119.338
-284.117
-132.883
417.001
-187.971
103.003
118.37
-247.591
129.221
-197.759
402.834
-205.075
-252.391
-249.851
-162.363
384.897
-222.534
95.0264
-262.366
167.339
311.986
188.014
-128.14
317.384
-189.244
110.936
15.6
-105.668
300.146
-338.767
190.733
148.034
447.961
-144.227
-303.734
-206.221
116.583
89.6378
-215.181
106.373
78.2048
-131.45
53.2456
21.1433
-98.3706
-173.973
164.8
9.17286
58.6306
-149.975
91.344
77.4192
141.364
-218.783
-557.701
378.111
179.59
-217.334
362.928
-145.594
356.841
58.9593
-415.8
481.281
-479.318
-1.96224
-339.35
169.093
170.256
138.323
-93.806
-44.5166
370.058
-271.599
-98.4593
-87.2884
383.192
-207.192
-194.696
401.888
103.91
-208.12
104.209
-73.4511
94.5945
21.0025
277.566
6.91352
-268.125
-384.2
297.513
-158.912
-68.5865
227.498
-88.4305
-117.79
-100.439
242.177
-141.738
-185.296
-133.799
319.096
83.7547
-86.5163
-123.553
-261.505
385.059
136.175
4.30954
-140.485
138.517
-2.6064
-135.911
137.387
-330.205
192.819
-77.0259
141.668
-64.642
-73.5443
-430.856
-203.939
43.679
160.26
-195.61
-84.5994
280.209
187.695
-68.613
-119.082
139.138
-60.9332
-354.97
87.4218
267.548
-1.52807
-406.591
408.119
66.121
-119.63
53.5095
31.6603
-104.473
72.813
88.0417
-178.336
90.2943
-230.2
125.238
104.962
-224.633
-333.068
-641.708
285.414
356.294
391.877
-206.149
-185.729
-50.3406
159.217
-108.877
240.307
-166.727
-73.58
-48.7802
136.657
-87.8763
-291.386
159.814
131.572
-111.526
-42.3508
138.957
-68.2037
278.556
-217.519
-61.0365
-235.305
407.581
-172.276
433.408
-213.951
-219.456
137.438
-88.3471
-49.0908
-162.08
106.334
-63.6077
-36.9737
100.581
210.683
274.506
-485.189
-370.835
241.379
129.456
222.162
-520.819
298.657
387.431
-237.437
-149.994
125.211
-100.497
-24.7141
-3.60506
-280.512
-60.9382
159.19
-98.2513
-554.974
295.97
259.004
503.615
-503.615
-182.85
94.4494
368.529
-372.134
-4.21117
87.9659
-464.583
266.824
-111.064
116.802
-5.73841
37.1024
-183.295
258.709
-144.865
-91.125
137.524
179.808
-280.269
100.462
90.3674
92.676
-183.043
-98.8534
191.053
-92.1996
415.221
-131.525
-283.696
-319.553
191.413
427.663
-149.595
-216.21
-75.1754
141.156
178.305
-319.462
-191.008
104.215
86.7926
41.2564
-100.751
59.4949
-169.431
103.216
-249.693
297.934
-48.2412
81.7832
-114.045
-125.609
-61.1906
97.2648
184.853
-404.84
219.987
69.473
68.8497
456.519
-254.454
-202.066
173.86
203.097
-376.958
40.9101
-244.849
488.01
-497.673
9.66316
120.143
-66.593
-53.5505
82.4452
-136.256
53.8104
110.259
-69.0029
-500.322
66.1245
434.198
-150.355
29.9937
120.361
350.602
-329.599
-258.719
409.628
-150.909
-475.181
301.492
173.689
364.603
-244.511
-120.092
-133.165
-207.371
340.537
-162.529
345.233
-182.705
-212.755
113.902
-73.6563
-23.1131
96.7694
105.414
-193.019
87.6055
-61.5867
118.729
-57.1421
310.154
-193.011
-117.143
82.2301
43.9579
-126.188
-123.542
264.699
-141.157
-249.875
158.723
91.1515
114.674
73.021
99.9927
-116.103
16.11
-168.741
286.889
-91.8216
-188.122
279.943
97.4668
27.5923
-125.059
-95.3522
140.702
-45.3501
-151.8
101.459
-330.629
160.159
-182.062
346.098
-164.036
355.768
92.1927
177.098
-412.403
273.699
-112.582
-160.117
105.162
54.9555
-11.6749
-165.321
176.996
262.829
-386.382
-59.8803
416.721
-32.0352
-104.479
172.834
64.9815
-237.815
-145.606
61.187
84.4194
-365.94
9.82986
188.86
-398.62
209.761
30.175
-103.831
-132.297
-18.0579
194.746
-286.568
-432.876
-67.4458
141.487
229.678
-371.165
219.083
145.52
153.971
-67.7387
-86.2321
173.371
101.355
-274.726
-239.439
152.095
87.3439
80.3446
-357.621
277.276
353.071
-215.022
243.728
-148.702
86.1994
107.437
-193.636
-124.573
255.302
-130.729
108.527
-56.0757
93.4677
-183.959
90.4912
267.043
-88.4616
-178.582
-169.389
-213.378
382.767
-174.292
-75.4003
-94.2455
-11.6623
105.908
82.5025
48.0577
-130.56
320.738
-174.859
-145.879
-190.106
26.7106
-499.559
346.566
152.993
360.743
7.78608
171.102
-290.924
119.821
182.97
-105.551
185.076
85.7043
-270.781
-41.894
245.398
-105.321
-299.56
404.881
-170.967
388.692
-217.725
-117.044
257.728
-140.684
-166.179
263.466
-97.2862
147.507
-95.5327
-51.9748
-158.054
-53.9081
-169.318
93.0173
76.3005
252.343
-139.48
-112.863
-438.079
332.758
-162.275
165.064
-2.78939
-187.68
110.503
77.1773
304.383
-166.996
-168.962
473.041
-304.08
189.93
-92.6658
-97.2642
53.2401
72.2341
-125.474
74.4501
62.9878
25.6894
229.968
-255.658
89.7984
92.6752
-182.474
61.3502
305.979
-367.329
145.56
510.39
-96.2861
226.299
95.5128
-321.812
-132.433
290.816
-158.383
137.905
-71.7845
213.955
-122.087
-91.8676
-77.6835
202.106
-124.423
131.653
-248.697
393.808
-219.947
-371.35
369.359
1.99025
115.342
-83.6814
-58.0384
-41.6453
99.6837
488.031
-164.271
-70.7526
182.406
-111.654
-220.802
413.367
-192.565
253.963
183.582
-437.545
67.6772
-179.674
-449.53
243.005
-20.3103
158.828
-325.148
187.996
137.152
12.7037
87.289
-316.623
-131.722
448.345
268.325
159.338
-77.5721
-83.9566
161.529
100.21
0.536373
-100.746
-242.761
354.989
-112.228
101.631
-109.109
7.47813
-137.751
374.258
-236.507
-107.333
122.16
-14.8264
62.2965
110.45
-172.747
142.044
-471.483
-172.065
262.237
-90.1724
-98.2779
238.875
-140.598
-134.02
198.604
-64.5838
254.849
-159.767
-95.082
-275.074
86.9518
237.86
-407.248
-38.7053
214.144
-175.439
-226.358
88.6181
197.87
100.064
381.337
-113.011
67.8446
-128.584
60.7393
353.32
69.9262
-423.246
-197.444
404.183
-206.739
-232.84
-267.157
22.9401
-96.3912
601.444
-379.221
-222.224
-60.3098
130.953
-70.6431
-138.767
43.4146
286.082
-379.026
92.9434
-122.033
184.329
-392.198
367.573
24.6254
323.408
219.972
147.358
157.898
-305.256
-504.057
382.363
121.694
-352.664
426.191
-73.5263
-99.2665
253.321
-154.054
182.593
-67.9188
130.378
179.775
124.616
-296.681
-129.583
266.699
-137.116
382.739
218.705
336.295
-330.439
-5.85653
325.158
-529.511
204.352
341.666
-139.547
-101.191
-396.625
56.0268
-210.655
154.628
80.5807
-158.153
357.518
99.0015
173.009
-86.2112
-86.7977
238.524
169.056
134.606
233.693
-368.299
-112.764
366.727
404.194
-190.713
-394.734
2.55319
392.181
-291.199
-180.969
472.168
421.503
-291.872
-129.632
489.131
-248.79
-240.34
-65.471
-96.6089
-60.9396
273.659
-212.72
66.6438
73.1933
-139.837
85.4324
-143.996
58.564
154.071
142.984
-297.055
-185.97
31.4653
154.505
14.2118
87.4194
412.026
-173.502
375.009
113.022
-284.897
-124.371
409.268
-40.3514
137.818
-171.515
91.0129
-160.263
-220.009
380.272
-25.3319
90.9346
-38.1284
-147.842
166.33
-457.529
196.364
-37.4225
-56.709
94.1315
220.185
-60.9681
-92.8962
-45.9156
-255.613
126.029
-95.0745
267.908
-324.718
499.957
-175.239
261.394
-421.658
391.183
-196.516
107.015
186.861
-293.876
-135.022
79.9743
55.0476
-367.319
488.639
-121.319
307.417
-227.072
554.055
-227.3
-326.754
113.703
106.482
358.844
-116.761
-242.083
-271.871
434.544
-162.673
135.354
-230.316
94.9622
-180.765
31.1174
149.648
-136.139
-76.6163
132.062
-384.127
252.065
11.461
-121.088
109.627
454.576
-199.605
-254.971
300.38
-467.858
167.478
-227.749
189.044
96.2095
93.7205
104.857
-4.32024
-100.537
254.412
-117.085
250.7
141.177
323.428
-180.404
-143.024
-327.149
217.695
109.454
-490.891
384.116
106.775
185.999
-97.9568
-120.955
181.602
-60.6473
-173.169
-76.7057
337.567
-51.4843
121.08
10.003
-131.083
-117.222
203.422
-120.913
72.1326
-518.703
357.284
161.418
311.966
-140.864
227.005
160.426
160.729
-398.167
-474.619
238.101
236.517
-245.663
156.615
89.0479
113.012
-38.4545
-74.557
-218.908
-203.181
422.089
102.376
136.067
-238.442
-407.108
282.658
124.45
-272.325
-134.784
-560.897
373.075
187.822
-279.914
106.744
585.725
-299.654
-286.071
-146.998
-178.474
325.471
-134.074
139.483
-5.40924
-166.679
275.396
-108.717
-255.069
155.802
-412.72
329.839
82.8809
91.2083
94.1802
-185.389
-368.288
195.766
172.522
-110.948
-131.769
144.803
-103.776
-41.0272
276.79
104.547
573.966
-316.408
-257.558
253.32
-519.759
266.44
58.1333
-120.753
62.6195
99.6022
5.25507
-61.1441
147.988
-86.8434
272.967
300.999
73.7487
-175.107
-275.695
151.122
100.354
-39.2675
102.059
150.284
347.273
82.5147
110.623
71.9702
45.0317
-188.936
143.904
365.254
-514.223
148.969
-60.8553
326.091
-265.235
-34.694
120.126
174.484
379.571
-147.973
358.998
-211.025
56.1201
-160.957
104.837
-340.906
-300.802
-69.115
-33.0413
102.156
7.13325
-141.207
-108.451
119.912
178.965
-85.4968
180.657
-327.654
-141.836
82.6941
59.1416
-351.687
-87.8104
439.497
-338.28
521.843
-183.564
109.598
-370.197
260.599
33.4465
-124.28
90.833
-98.1309
-256.839
272.718
123.243
-395.961
171.506
-115.48
251.433
-140.915
-110.518
543.745
-171.435
-372.31
-365.132
49.6164
315.515
331.69
90.6414
-422.331
-471.572
490.964
-19.3917
-146.153
-78.7753
-89.3653
179.733
142.025
181.403
245.073
-525.425
280.352
376.73
-367.339
454.065
-181.347
552.802
-298.715
-254.088
-223.937
246.3
-22.363
-51.5679
172.648
-67.7887
-265.245
333.034
56.7706
446.844
-62.2762
-89.5235
141.697
-75.0531
303.805
-149.734
135.372
53.0958
-188.468
166.494
-227.434
-71.4181
-84.968
156.386
552.65
-552.65
6.26778
-113.601
281.865
-169.812
-112.053
-303.81
-171.371
-161.712
96.2406
-365.769
-118.887
-64.1513
117.391
214.483
-303.604
171.563
132.041
-0.243205
-391.955
128.768
87.2349
-216.003
87.6719
103.381
108.891
-32.4194
-64.1778
-300.954
50.8823
-225.69
174.808
-1.12881
-393.605
-298.569
150.596
-131.699
-184.647
316.346
100.12
254.663
-354.783
-328.359
500.844
-172.485
-85.9129
-25.1507
-56.14
87.9242
-31.7842
-102.276
183.461
-81.1845
228.147
168.848
-396.995
310.15
-203.135
406.162
-187.08
-304.341
-199.716
123.452
-269.07
-183.782
75.0173
-412.944
308.114
104.83
84.0524
-435.739
91.9784
137.366
-229.344
-222.588
-152.703
375.291
29.0001
-90.5868
102.651
-143.002
-104.731
-221.229
325.96
-301.815
240.959
-95.7879
-57.1544
152.942
-188.971
104.762
84.2088
358.115
-517.087
158.972
317.286
-207.368
-109.917
151.54
281.868
109.346
69.2031
-178.549
387.282
-160.277
146.878
-514.197
236.2
-185.318
151.832
165.454
-64.6924
-348.252
209.074
-368.814
159.74
406.507
-233.844
-172.663
74.5905
-260.627
186.036
-229.16
-10.1336
239.293
67.6704
-141.892
74.2211
85.3139
-163.098
77.7838
193.495
212.667
-47.7789
147.988
-334.123
418.175
135.768
234.134
-369.901
-102.666
309.629
75.4822
91.6168
-167.099
41.7706
-314.708
272.937
-140.974
148.108
278.734
-457.809
179.075
-87.9927
223.365
282.813
-455.262
196.543
-119.196
-6.2923
125.488
27.4622
124.004
-151.466
228.099
226.477
-99.2755
174.758
340.049
-28.514
-311.535
-124.014
444.718
-320.705
101.908
290.991
45.5499
228.109
312.384
131.6
-443.984
328.793
-267.41
-61.3828
-32.5812
-129.693
-207.835
63.786
-81.9909
-30.333
112.324
12.4794
-94.4703
-307.144
174.711
-79.0119
-163.233
242.245
217.22
98.1552
-315.375
-222.595
-47.6602
270.256
-152.858
90.5821
81.1152
-183.391
-83.938
-318.672
402.61
-70.4408
-145.77
517.372
-238.638
-74.1569
68.8238
58.6193
-127.443
-189.97
74.9986
114.972
77.3137
-94.4348
17.1211
105.709
173.408
-279.117
-189.341
108.858
80.4827
-132.619
317.695
-95.6442
-114.959
210.603
-320.42
-204.243
-242.086
131.8
110.286
-229.282
527.002
-297.72
434.448
-302.386
-72.2393
-95.7779
168.017
-79.1291
109.304
-185.037
323.188
-138.15
-121.479
265.026
-143.547
163.496
-64.8687
-98.6276
-249.478
359.076
125.798
-69.3464
-56.4521
-274.258
280.176
-5.91751
-267.891
100.689
198.773
7.2663
-206.04
-191.599
375.644
-184.044
128.86
-63.1328
-65.7273
225.303
-462.457
237.154
-497.838
173.363
166.711
-30.5352
-142.215
1.24072
-191.927
92.1994
99.728
-149.6
358.674
140.984
-84.8641
80.9757
-415.098
-52.0866
-56.941
109.028
-105.468
-509.238
357.383
151.855
248.086
80.7069
-305.561
-160.859
466.419
-74.4365
298.801
79.8029
-140.113
-57.1285
-133.879
-230.818
-239.473
470.291
-197.278
-243.05
440.328
-270.61
257.554
13.0564
312.037
-250.686
-299.952
-199.607
340.837
-509.799
91.2879
100.972
-192.26
-383.436
211.535
171.901
158.376
216.633
-80.6412
145.287
-64.6462
-330.359
526.164
-195.805
-166.436
114.589
51.847
-137.275
63.9481
73.3271
49.3242
-105.464
-63.8003
395.49
78.6131
69.2404
-147.853
495.064
-182.68
-140.611
258.981
-318.92
156.391
-287.073
287.073
-137.112
229.091
-548.794
281.524
267.27
-262.935
-83.9202
346.855
188.552
-143.52
-102.659
108.465
-5.80673
-234.721
68.5411
123.314
-483.552
49.5591
70.5844
-123.618
-319.843
443.461
-232.495
368.262
-238.942
138.502
501.135
-246.637
-254.498
-191.618
-37.5413
147.667
-327.827
-568.331
398.414
169.918
-283.923
-158.563
-204.359
38.013
166.346
-26.4309
-120.315
146.746
137.063
117.349
-94.7971
122.953
-28.1559
-4.7124
88.6258
-83.9134
223.384
-222.421
-0.962615
212.94
-337.848
124.908
45.3382
-166.293
-72.1203
-155.629
106.56
-201.52
94.9605
-393.371
-258.044
318.101
-60.0573
86.0293
42.8309
-0.243091
-147.964
148.207
-149.787
-202.197
155.532
-386.607
231.075
-175.14
102.901
69.4142
46.9614
-116.376
42.623
-138.411
-142
223.531
-81.5304
145.427
110.579
-256.005
-149.203
-284.4
433.603
171.126
-421.729
250.603
103.495
-140.92
37.4247
-540.725
308.918
231.806
464.776
-323.381
-141.395
-501.517
176.798
-107.269
113.537
-75.8771
-95.6383
290.349
-403.112
-344.519
-130.099
-182.811
-120.793
-380.806
155.957
224.849
-208.211
137.77
-46.3783
307.416
-261.037
-95.4609
-242.751
131.803
161.871
96.2116
-258.083
258.825
-454.504
195.68
195.067
-91.1569
-315.933
108.565
225.398
-94.7976
-327.586
-112.134
439.719
383.52
-227.988
-331.894
336.518
-4.62358
-69.2522
125.462
-56.2099
-379.901
166.523
-312.622
126.437
186.185
135.417
-135.417
-194.854
-256.129
450.982
471.538
-390.563
67.8417
-263.452
4.03788
336.011
338.891
204.854
-230.492
-47.9355
278.428
114.412
-1.51099
-112.901
-74.442
141.631
-67.1889
-180.714
105.308
75.4059
-323.009
-244.947
-151.732
80.3139
117.772
-48.9484
-272.59
-302.254
-147.39
86.2456
131.978
209.374
76.4857
33.6174
-110.103
-53.3003
129.954
-76.6535
379.674
173.128
-162.398
-117.516
-336.305
-172.933
-155.831
-101.641
257.472
-69.3631
-272.75
342.113
-329.996
164.827
165.169
-91.8644
-104.66
196.524
337.852
-505.028
167.176
209.209
-354.663
145.454
228.378
-407.204
178.826
-83.8778
-51.9724
-238.118
165.997
166.515
-395.053
228.538
-129.881
103.45
-378.7
161.366
-204.574
362.95
-64.7428
121.323
-56.5805
94.5236
-132.471
37.9478
31.1493
-94.757
-153.913
366.853
483.5
-465.548
-17.9525
-100.006
133.453
-78.7513
138.408
-59.6571
260.931
-455.785
-52.4907
144.037
-91.5461
-149.469
289.369
390.878
-507.238
116.36
221.702
69.885
-291.587
57.9297
-104.721
46.7917
-33.622
110.936
59.1087
37.1661
-96.2747
-38.0924
141.393
-103.3
-10.8034
161.497
-150.694
178.531
-71.9709
386.247
-135.547
-57.7229
256.928
-199.205
-303.721
-48.9428
183.063
-99.2086
-83.8544
183.325
-287.148
103.823
-239.972
-147.086
387.057
-70.8088
165.332
-271.545
155.413
116.132
226.929
-341.623
114.694
-324.512
201.781
122.73
252.892
-136.261
-116.631
-129.957
56.8679
73.089
182.202
-389.394
-99.7305
-80.013
179.743
-47.7397
-134.256
181.995
74.5127
-223.438
148.925
-99.571
189.369
187.511
-99.1661
-88.3453
-64.1867
-106.022
170.208
-47.4073
150.058
-163.962
-117.533
281.495
-304.844
-8.65438
313.498
60.7251
-111.01
50.2851
170.842
96.2011
119.348
106.05
-114.39
112.362
2.02745
-204.359
-55.6401
446.518
-12.7218
108.145
377.65
12.3079
-389.958
385.567
-325.757
-469.221
169.269
44.6475
59.7543
-104.402
-126.893
-33.2241
82.7382
-260.091
177.353
106.439
-364.483
-178.085
-30.9265
252.629
-65.6957
264.469
252.617
150.217
-398.052
206.453
-146.42
65.7784
382.369
-160.207
217.62
-85.1021
-132.518
259.123
-328.486
286.067
-171.483
-114.584
201.23
-184.273
-16.9574
116.812
-56.0874
-215.019
-235.688
450.707
-191.339
40.4075
150.932
490.906
-483.78
-7.12548
231.607
-60.948
-170.659
241.683
242.709
-484.392
251.126
-176.614
-165.916
301.57
-135.655
-160.306
307.664
-135.599
221.008
-85.4087
-189.81
-149.539
57.2603
-129.631
72.3705
95.4013
-191.046
352.031
119.507
-265.979
-146.741
-52.7599
-137.21
119.077
-42.591
-172.705
275.881
-103.176
-61.0838
132.601
120.436
-45.3181
-75.1179
-139.494
75.3071
-581.908
363.408
218.5
69.1017
-123.421
54.3197
-179.317
262.055
-68.8652
134.394
-65.529
73.86
46.576
-142.405
363.827
-221.422
-113.075
-92.6611
205.736
-57.8377
-41.785
99.6227
338.441
-145.634
-192.807
224.722
-79.649
-145.073
-379.767
-313.628
-155.594
-58.2433
-80.5304
138.774
112.144
-297.283
185.139
121.1
-63.8397
-113.097
5.82711
146.629
-412.713
312.566
-94.8715
-162.58
91.8276
-162.647
87.4161
75.2307
338.895
-129.686
161.966
-130.021
-31.9452
-84.5945
-78.0523
49.5354
-123.106
73.5707
89.2472
-165.124
115.185
-64.5876
-105.103
169.691
-90.2589
212.078
-121.819
109.806
-25.3933
-84.4126
-269.373
-35.4712
125.802
88.1528
-89.8713
10.7422
-100.285
198.452
-98.1672
-96.6267
102.542
-5.91481
-102.737
-78.4356
-96.5316
174.967
483.215
-385.688
-97.5274
412.026
-121.677
130.51
-103.048
-425.696
463.888
-38.1928
-179.358
305.845
-126.487
-232.699
300.54
100.009
87.5019
-73.5098
-114.17
-93.0776
272.885
-139.426
279.213
-139.786
28.207
61.7745
-89.9815
-285.221
156.593
128.628
120.069
-61.9355
-70.875
-60.1572
-213.543
-186.591
400.134
138.98
344.235
-455.309
258.031
240.366
-240.366
-99.1469
94.2604
4.88655
185.735
-101.996
-83.7387
246.001
-540.002
294.001
183.531
154.911
-252.774
356.538
-103.765
114.188
-45.0864
-205.656
130.66
74.9969
156.959
330.238
-487.197
255.022
-117.96
-317.346
159.947
157.399
78.5133
-175.539
97.0253
279.11
149.916
-429.026
-208.858
95.7826
76.1168
-148.542
72.4255
141.289
-179.381
-169.435
397.582
-185.55
95.7691
89.7806
176.452
-106.034
-70.4177
-90.6905
359.69
-268.999
333.52
-167.026
-44.923
107.927
-63.0045
181.655
175.08
-356.736
-206.451
-248.858
-90.7805
349.605
99.1454
-185.581
86.4353
-205.097
399.49
-194.393
149.535
-71.0215
318.884
-219.565
-99.3194
131.748
-63.9038
-220.091
-135.195
70.4525
-620.246
303.838
132.609
493.616
-501.536
7.91948
201.038
188.402
-389.439
116.139
45.8267
-361.846
-129.045
138.391
-150.065
12.1112
-282.721
-30.4465
-102.117
132.564
161.237
-295.578
134.341
98.709
285.407
-135.777
88.1468
47.6297
50.4721
-184.728
57.2642
-99.2458
41.9816
263.532
95.3126
263.373
-175.236
-88.1368
131.733
-64.0624
-386.605
271.443
115.162
-260.078
-360.168
184.957
46.6503
143.406
-454.005
310.599
-55.9444
-83.9897
139.934
35.5695
-127.802
92.2321
293.253
207.882
-1.80423
379.455
-62.3206
-71.0597
419.034
-139.924
64.6841
-124.023
59.339
-462.998
259.161
203.837
-201.858
-245.041
446.899
-366.488
566.488
-200
280.998
146.846
-173.788
250.016
-76.2273
-150.855
253.23
352.062
-277.147
-74.9149
-180.601
291.189
-110.588
-186.669
-152.098
-79.1835
-198.826
278.009
66.5015
47.7447
-114.246
174.849
-83.641
440.398
-378.815
-61.5831
-175.196
100.011
75.1848
80.6633
264.681
-345.344
104.309
-34.8946
347.566
92.8324
-69.2329
145.35
-102.149
-33.6278
-225.966
514.168
-288.203
5.29816
191.618
-196.916
216.809
-384.113
167.303
-82.814
-42.0722
124.886
289.685
96.562
-86.1075
-23.1125
109.22
-154.072
143.214
10.8574
-179.765
113.013
66.7521
182.823
384.273
102.015
-42.906
-266.631
-119.974
228.688
-443.707
413.726
-509.85
96.1242
69.4122
223.363
-31.8288
-191.534
119.92
-70.3844
80.8932
-408.479
-77.9803
-89.1916
167.172
104.454
-10.9665
-93.4871
-119.184
24.9389
123.455
131.394
155.099
-328.336
173.237
-93.2905
163.916
-70.6251
152.32
-357.417
343.829
-231.685
341.93
-82.8075
-356.55
-198.424
-287.902
463.359
-175.456
429.271
-324.307
-104.964
-8.93816
-337.036
345.974
-335.625
-176.607
512.232
-174.416
-6.34976
93.3832
-36.119
-501.459
261.006
240.453
-190.753
-81.2614
-87.8755
-42.0814
-35.8355
139.331
-80.2297
150.552
-554.637
382.758
171.879
98.4283
-163.016
-24.6315
92.3591
-67.7276
181.638
-146.39
188.703
-313.311
124.608
322.589
-255.594
-66.9948
87.4103
-397.454
310.044
216.875
-97.5268
114.418
255.64
-95.5476
-93.4236
111.226
-53.2959
474.919
-299.088
-175.831
-267.333
364.04
-96.7071
-109.378
192.32
282.599
-417.834
31.8688
385.965
-282.514
-182.069
126.977
-204.895
77.9179
-135.759
-71.0192
206.778
107.566
211.171
-318.737
44.177
-264.272
-237.187
-76.2436
-28.6707
104.914
-205.205
326.33
-121.125
479.382
-173.403
404.726
-58.1598
-283.248
159.706
96.1775
8.27606
-268.942
-36.4767
305.419
56.9279
-373.551
-408.905
137.034
131.304
-17.0947
-114.21
180.036
-263.916
83.8795
-111.088
256.514
-458.717
334.704
-62.0274
-79.8641
497.232
-149.666
-240.625
406.781
-166.156
213.05
-330.517
117.467
469.947
-111.832
39.0966
86.1146
-309.522
135.734
339.407
-180.095
-159.312
-175.923
296.249
-120.326
132.158
347.224
163.234
-268.31
105.077
389.854
-107.195
361.244
129.031
-490.275
329.269
-226.24
-103.029
473.315
-502.236
28.9217
127.172
-100.241
-26.9309
344.988
-244.868
-8.53583
-110.66
-80.2218
-182.879
263.101
50.3754
-118.267
67.8917
-128.135
57.2597
-307.194
474.401
-167.207
-87.524
-54.3117
-194.622
199.921
113.718
25.2508
-103.187
77.9363
289.22
1.97253
-291.193
-125.901
73.5475
52.3531
-100.806
454.126
168.969
117.098
-142.566
303.803
-237.021
159.338
334.961
50.6059
-160.588
-156.758
16.3829
227.345
-246.684
84.2866
-141.586
241.549
-99.9631
48.049
-112.2
404.396
-203.358
-369.322
376.353
-7.03158
-132.923
494.167
68.7969
-141.045
72.248
120.402
-68.6695
-142.412
211.081
-152.005
188.216
-72.0765
103.795
5.67527
-109.47
74.1935
-117.896
43.7024
-244.868
146.59
-100.81
-68.7117
169.521
-267.758
-294.302
128.404
165.898
120.182
-84.613
48.3702
-113.746
65.3759
48.4582
-184.217
132.534
132.164
-90.3708
247.515
-157.144
-123.148
71.1822
51.9659
-68.9813
180.115
-111.134
-375.379
213.016
-178.36
360.015
153.16
-272.03
118.87
229.085
177.436
-406.521
-57.8497
-32.2961
90.1458
331.467
97.8034
320.478
-147.153
-173.325
-157.587
406.195
-248.608
164.695
-70.9645
325.726
-254.761
327.681
121.678
-449.359
474.559
313.889
151.439
-465.329
249.322
-455.773
193.499
-31.9063
-161.592
-338.227
185.855
152.372
-112.632
5.43897
107.193
94.3829
17.8013
-112.184
-74.7509
-60.2709
13.8121
-383.134
-356.413
214.008
61.0973
193.307
-254.405
-377.993
307.029
222.827
122.934
-345.761
-63.2116
109.72
-46.5086
-103.641
-140.193
243.833
568.785
-256.799
63.4391
136.396
-132.311
-278.021
410.332
-121.691
172.163
-223.363
382.272
-158.909
-350.321
39.5298
310.792
-177.888
-279.183
457.071
-50.4289
-86.8463
-564.246
366.72
197.526
301.233
-183.139
-118.094
-123.669
346.496
-169.419
68.6091
111.958
-189.939
128.139
89.4814
-163.527
-490.523
250.997
239.526
-161.883
77.2888
-266.983
97.171
-291.277
-290.631
-58.1325
-243.682
95.3426
-332.049
236.706
-203.745
-176.584
68.9323
107.651
-241.765
-74.1684
-113.075
-41.6461
154.721
-52.7665
-45.6305
98.3971
-309.073
218.382
-1.45156
-77.7554
79.207
158.394
-190.223
153.268
-365.363
212.096
7.75749
-276.7
-191.969
316.702
-124.733
-228.435
240.546
106.989
-133.222
-89.6578
222.88
396.249
-405.187
98.4135
-70.2065
285.403
189.509
-474.912
-85.8907
-75.9925
-78.2601
273.006
365.006
-366.81
97.6647
-3.28174
409.296
-124.787
-284.509
107.068
155.166
-262.235
145.829
-27.6709
-132.084
159.755
258.986
-123.218
-135.768
347.882
41.972
122.807
-72.4314
-501.724
173.366
68.253
-137.118
-133.979
71.6754
62.304
-49.5455
148.459
-98.9136
-140.3
-78.945
219.245
36.7643
-100.815
64.0509
-126.723
43.9095
174.239
-188.543
14.3038
225.549
-280.581
55.0314
-219.428
79.1281
-88.7236
-78.9896
-63.316
-58.0094
121.325
142.563
181.468
194.176
-225.635
179.257
163.484
-112.78
-50.7036
-369.939
261.708
108.231
224.468
-87.102
336.25
160.982
335.224
102.729
-437.953
-132.921
-125.567
-537.842
251.045
286.797
213.915
-292.706
78.7911
143.872
119.502
-98.4722
53.5492
-32.1585
96.4314
-64.2729
-266.453
-216.273
482.727
-419.47
440.035
-20.5656
-267.201
108.289
-130.419
-452.74
-21.8793
474.62
208.926
240.113
-449.039
-123.791
-188.831
-147.825
-137.396
119.616
-15.8207
-337.105
135.247
-26.0761
161.43
-114.884
-271.546
167.028
104.518
84.3179
69.075
-129.749
-145.603
275.352
116.427
-91.176
416.356
-294.573
-121.783
-126.915
339.965
-217.662
-29.9289
457.157
24.124
-114.744
-76.5589
191.303
454.648
-0.200638
-454.447
-87.0481
313.366
-226.317
118.541
82.1164
-200.657
-372.957
219.053
153.904
-131.597
-112.073
-159.474
143.806
-75.0092
-107.133
289.944
-182.81
141.396
137.678
-279.074
-151.329
-54.3278
-246.561
-174.881
421.442
115.533
476.438
-332.705
-143.733
-154.382
150.991
-94.2577
-56.7332
38.284
-94.9931
205.964
-271.66
294.472
-352.605
-401.683
341.803
193.823
-317.614
231.265
180.761
432.032
-203.655
-216.191
158.468
96.5073
82.4572
-96.683
98.0022
-147.548
-271.39
288.914
-17.5237
-276.692
-21.8768
76.5012
-143.242
66.7407
114.994
286.586
-158.182
245.857
-132.605
-113.251
-67.6594
115.708
-269.175
121.058
-189.728
311.44
-62.4349
-249.005
-256.284
465.21
484.752
-148.502
-370.181
267.317
102.864
-22.2798
476.928
-215.507
404.367
-86.0373
-203.381
289.418
104.591
-263.584
158.994
13.4142
288.078
-334.611
-247.386
581.997
146.864
-347.886
201.022
-292.795
392.833
-100.038
-129.631
443.52
352.636
-126.337
177.689
-89.568
369.595
-280.027
-75.0281
-50.8725
-223.903
148.555
75.3473
178.056
148.274
53.4965
-59.6504
-279.878
339.529
-386.131
-78.9862
-128.665
-198.842
-337.745
230.612
-412.911
412.911
143.18
-332.968
189.788
182.095
-339.595
157.5
232.115
79.3251
53.8505
42.3044
-96.1549
218.707
-371.41
287.713
-465.601
242.849
-40.7428
146.786
157.597
72.7803
198.051
-270.831
125.605
-94.466
-31.1388
-71.8531
-293.494
365.347
101.744
-177.455
75.7109
-47.5725
161.127
-113.555
331.949
4.34602
-80.0918
80.6281
-276.427
321.699
-45.2725
47.1565
146.342
96.4773
16.9109
-113.388
-312.032
-38.2894
36.2381