/*--------------------------------*- C++ -*----------------------------------*\
  =========                 |
  \\      /  F ield         | OpenFOAM: The Open Source CFD Toolbox
   \\    /   O peration     | Website:  https://openfoam.org
    \\  /    A nd           | Version:  7
     \\/     M anipulation  |
\*---------------------------------------------------------------------------*/
FoamFile
{
    version     2.0;
    format      ascii;
    class       volVectorField;
    location    "37";
    object      U;
}
// * * * * * * * * * * * * * * * * * * * * * * * * * * * * * * * * * * * * * //

dimensions      [0 1 -1 0 0 0 0];

internalField   nonuniform List<vector> 
7807
(
(1.09208 0.120532 2.80481e-20)
(1.08295 -0.0214954 8.67399e-20)
(1.06182 0.105467 -4.55009e-20)
(1.06362 0.0840886 9.04989e-20)
(1.03852 -0.00152792 1.3951e-20)
(0.908165 -0.00469753 1.05143e-20)
(1.06347 0.106329 -9.04561e-20)
(1.00287 -0.000623182 3.4783e-22)
(1.03669 -0.00132269 1.23857e-20)
(1.04083 0.00420368 -7.76307e-21)
(0.976629 -0.00749417 -1.17263e-20)
(1.03887 -0.00195364 -2.21655e-20)
(0.945436 -0.00154413 -2.13116e-20)
(1.045 -0.000415013 -9.19428e-20)
(1.03931 0.00413279 3.24078e-20)
(1.0328 -0.00877369 3.43681e-20)
(1.09259 0.124401 -5.95257e-20)
(0.918241 0.00200587 5.96971e-21)
(1.03994 -0.00558689 -1.74218e-20)
(1.02426 -0.0785621 7.38633e-21)
(1.05783 0.00667834 -2.47741e-20)
(1.03858 0.000156925 6.30365e-20)
(1.04651 -0.00124304 1.18966e-20)
(1.01683 0.0494652 -5.5169e-20)
(0.876011 0.00479312 2.13297e-20)
(1.08949 0.118861 -2.8157e-20)
(1.03873 -0.00135564 1.16613e-20)
(1.0475 0.00100892 3.03052e-20)
(1.00728 0.0232594 -8.02071e-21)
(1.04018 -0.00572829 1.55479e-20)
(1.02882 -0.00896621 4.90684e-20)
(0.467323 0.00874315 9.34656e-21)
(1.04608 -0.0013822 6.41328e-20)
(1.03655 -0.0021922 -2.66654e-20)
(0.432068 0.00121533 -1.15366e-22)
(1.04374 0.00349652 1.23716e-20)
(1.04084 -0.00676295 1.14509e-20)
(1.06187 0.106284 -1.53667e-20)
(1.03545 -0.00499544 -6.20844e-20)
(0.821838 -0.0030677 -3.2985e-20)
(1.03579 -0.00505307 6.2474e-21)
(1.03289 -0.00830903 1.28238e-20)
(1.0512 -0.0864602 -3.5026e-20)
(1.16884 -0.0102135 -1.22706e-20)
(0.402731 -0.000630014 -1.56556e-20)
(0.857577 0.00865641 6.758e-21)
(1.03765 0.000299649 -3.83447e-20)
(1.03616 -0.00451872 3.65458e-20)
(1.03187 -0.00385527 6.76007e-21)
(1.02848 -0.0791234 -1.08756e-20)
(1.03928 -0.00151869 1.76771e-20)
(1.04814 0.00140728 -3.27258e-20)
(0.81853 0.00408873 5.78848e-20)
(1.04664 -0.0191557 1.246e-20)
(1.04428 0.00312772 -9.51699e-21)
(1.03385 -0.00268711 6.33562e-21)
(1.03913 -0.00480161 2.74808e-20)
(0.966213 -0.000661846 -4.08109e-20)
(1.01984 -0.0106622 5.61232e-20)
(1.0362 -0.00253157 3.23942e-20)
(1.03494 -0.00124829 -1.63416e-20)
(1.04054 -0.000218026 1.67958e-20)
(1.04546 -9.16079e-05 -2.07848e-20)
(1.03841 -0.00132296 2.26327e-20)
(0.840808 -0.00920346 -2.33423e-20)
(1.02924 -0.0094271 -7.83452e-21)
(1.0359 -0.00163437 -1.1516e-20)
(1.03298 0.000213505 1.66404e-21)
(1.15237 0.0861495 2.80977e-20)
(1.03636 -0.00409834 1.47231e-20)
(0.955483 -0.00254791 -6.12645e-21)
(1.01486 -0.0420628 6.57324e-20)
(0.931794 0.000260147 -1.04951e-20)
(0.72625 -0.00267905 -8.91461e-21)
(0.964263 0.000496135 -1.8731e-20)
(1.00456 -0.0184284 8.97172e-21)
(1.06189 0.106201 7.28989e-20)
(1.0564 0.00603391 3.11336e-20)
(1.10394 0.0202769 -6.35897e-20)
(0.998632 -0.0323473 7.43734e-20)
(0.983932 -0.00330167 3.28833e-20)
(1.03013 0.116607 1.03964e-19)
(1.05926 0.0189292 5.45311e-20)
(0.937522 -0.00248252 -4.01215e-20)
(1.03638 -0.00198195 1.88526e-20)
(0.692698 -0.00196717 -9.99988e-21)
(1.02425 -0.00287918 -5.45528e-20)
(0.87919 -0.000440137 -3.69451e-20)
(1.03766 -0.00132119 -1.59613e-20)
(0.689 -0.00524595 -1.95054e-20)
(1.00766 0.0263583 5.69298e-20)
(1.19324 0.00924181 1.90186e-20)
(1.02334 -0.00307147 1.14422e-20)
(1.03898 -0.00439658 1.28399e-20)
(0.972703 -0.00351059 -2.33502e-20)
(0.463588 -0.00336831 6.90953e-20)
(1.01696 -0.041873 -3.95886e-21)
(1.04785 -0.0180312 -2.14731e-20)
(1.03612 -0.00191511 -3.77095e-21)
(0.780086 0.0102439 -6.77661e-21)
(0.80213 -0.0108617 -1.89173e-20)
(1.10407 0.0248952 4.78343e-20)
(1.00572 -0.00115188 5.77314e-20)
(0.449289 -0.000649433 1.08859e-21)
(1.19387 0.0200119 1.19866e-20)
(1.04509 0.0476735 -5.46944e-20)
(0.69739 0.042579 1.26719e-20)
(1.03105 -0.00291512 2.41817e-20)
(1.03148 -0.00143211 -5.50671e-22)
(1.05395 -0.00463833 -2.62772e-20)
(1.06472 0.0807195 -1.05035e-19)
(1.06425 -0.0585781 6.63437e-20)
(1.0326 -0.00152768 6.93243e-22)
(1.05533 -0.00442573 -5.70122e-21)
(1.04065 0.046169 5.70959e-20)
(1.03715 -0.00033533 -8.5814e-21)
(1.10914 -0.0657819 4.83524e-21)
(1.04505 0.0302832 -1.51217e-20)
(1.02544 -0.0324186 -4.02902e-20)
(0.813091 0.000270586 9.54887e-21)
(0.582107 -0.00469881 4.46027e-20)
(1.00837 0.0546434 -6.92804e-20)
(1.05737 -0.0846028 4.81229e-20)
(1.04321 -0.00358437 7.34743e-21)
(0.66111 -0.00660625 -1.75052e-20)
(1.03751 -0.0014265 -3.39104e-20)
(1.03057 -0.00628892 -1.79959e-20)
(1.03922 -0.0048729 -2.10916e-20)
(0.682042 0.0121334 5.44243e-20)
(1.0294 -0.00795788 -1.18258e-21)
(1.22563 0.0014173 5.4674e-21)
(1.0991 0.017544 1.06701e-20)
(1.03731 -0.00282287 -2.50392e-21)
(1.03738 -0.00139681 3.54443e-20)
(0.890476 -0.00315823 -1.14914e-20)
(1.06096 0.0758526 4.17688e-20)
(1.03506 0.118844 1.1849e-19)
(0.674498 0.0110246 1.83623e-21)
(1.0429 -0.00172463 4.02919e-21)
(0.482908 0.00526309 4.84819e-20)
(0.60571 -0.00298239 3.94978e-20)
(1.02976 -0.0472132 5.04279e-20)
(1.0074 -0.0201571 -1.20243e-20)
(0.716221 0.000410758 7.0132e-22)
(0.551435 0.0029466 5.02988e-20)
(1.04962 -0.0317951 3.29166e-21)
(1.0162 0.0302742 -3.03727e-20)
(1.02268 -0.0139012 3.01359e-20)
(0.513521 0.00362008 -8.59096e-21)
(1.01211 0.0838996 -3.45599e-20)
(1.04524 0.00354413 3.61349e-20)
(1.18262 0.00436478 8.38431e-21)
(1.03734 -0.00122638 5.31398e-20)
(1.15752 0.0803036 6.66209e-21)
(1.05714 0.017969 -5.77842e-20)
(1.06122 0.104541 -7.92411e-20)
(0.99866 -0.0224716 -3.23877e-20)
(0.847299 -0.00549866 -8.17951e-21)
(1.04911 0.0831903 1.1527e-19)
(1.02898 -0.0111502 7.40083e-21)
(1.03898 -0.00452516 -3.20412e-20)
(1.01729 0.0541874 3.79188e-20)
(1.03267 -0.00196968 -8.82615e-21)
(1.03673 -0.00324904 6.42174e-20)
(0.91752 0.00251223 1.02269e-20)
(1.00671 0.0559835 -1.14444e-20)
(1.00357 0.037264 4.12169e-20)
(1.03263 0.0755809 3.57921e-20)
(1.0365 -0.00342114 2.77753e-20)
(0.621544 0.00126905 1.32678e-20)
(1.03405 0.000806187 -1.66624e-21)
(0.36335 -0.00286206 7.1232e-20)
(1.0374 -0.000495025 1.14702e-20)
(1.08408 -0.0179544 -1.01491e-19)
(1.04276 -0.00193786 2.62652e-20)
(0.602467 -0.00232857 -1.65995e-20)
(1.18429 0.0273332 2.24435e-20)
(1.11649 0.0823814 2.2863e-21)
(1.0341 -0.00308762 -6.66284e-21)
(1.03752 -0.00178162 3.2779e-20)
(1.06603 0.0861428 -1.50549e-20)
(0.969422 -0.00417956 2.93108e-21)
(0.615202 -0.0121304 -3.85527e-21)
(1.06309 0.105028 -7.42515e-20)
(1.08551 -0.0241312 4.39305e-20)
(1.05046 -0.0488986 4.24112e-20)
(1.02704 -0.0312332 5.78271e-20)
(0.890251 -0.00179954 -2.90116e-20)
(1.04722 -0.0331753 -8.12212e-21)
(0.441075 -0.0026916 -2.59046e-20)
(1.03201 -0.00221832 2.789e-21)
(1.01768 -0.0388827 1.61802e-20)
(1.11805 0.088217 -4.26021e-20)
(1.02511 -0.00123208 -8.2832e-21)
(1.036 -0.000417194 -8.14708e-21)
(1.09476 0.0847681 3.36098e-21)
(1.00309 0.00288107 -5.32178e-20)
(1.03009 -0.00758263 -2.68364e-20)
(1.04458 -0.0313052 -2.91157e-20)
(1.03447 -0.00062205 -6.98296e-22)
(1.03772 -0.00142549 -2.76593e-20)
(1.05761 0.0769035 4.73732e-20)
(1.10779 0.0921407 -4.82825e-20)
(1.05846 0.106427 -1.03983e-20)
(1.10417 -0.060191 -2.72633e-20)
(1.06738 -0.0548095 -1.36485e-20)
(1.15806 -0.0859701 6.9396e-21)
(1.04648 -3.40862e-05 8.17906e-20)
(1.0531 0.0748022 -1.75274e-20)
(0.573722 -0.0158978 1.61202e-20)
(1.03572 -0.000761487 4.72687e-21)
(0.417942 0.0432797 -5.27946e-20)
(1.03357 -0.0081117 1.3925e-20)
(1.03713 -0.0031493 2.22399e-20)
(1.01967 -0.0382479 -3.74509e-20)
(1.03013 -0.00664704 1.99616e-20)
(1.06085 0.100626 -9.49532e-20)
(1.05891 0.101756 -2.11596e-20)
(1.02739 -0.0485444 -1.30186e-20)
(0.735848 0.025059 -3.80178e-20)
(1.02721 0.00188264 4.03176e-20)
(0.849661 -0.00150338 -2.1097e-20)
(0.742537 -0.00917477 -2.45103e-20)
(1.05441 0.0101857 -1.61759e-20)
(1.05784 -0.112418 3.2235e-21)
(1.1058 0.121733 -6.71886e-20)
(1.04309 0.0809246 -1.00543e-19)
(1.03537 -0.00132684 1.18522e-20)
(1.04275 -0.00350234 9.68948e-21)
(1.0421 0.0334225 7.90787e-20)
(1.03622 -0.0037545 4.87247e-20)
(1.04857 0.0309389 -1.04222e-20)
(1.03753 -0.00129813 1.15786e-20)
(0.963972 0.0614818 7.01478e-20)
(1.05982 0.104351 1.63597e-20)
(1.00867 -0.00164876 -3.33082e-20)
(1.04005 -0.00496619 -1.92238e-21)
(0.892898 -0.00337716 6.2914e-20)
(1.13341 0.106721 2.28075e-20)
(0.596325 0.0104597 -1.13174e-20)
(1.03511 -0.0062119 -1.36389e-20)
(0.876464 -0.0186356 -2.81686e-20)
(1.0215 -0.00616806 2.53449e-21)
(1.03651 -0.00217212 1.39872e-20)
(1.03751 -0.00138836 -1.2843e-20)
(1.08715 0.0609624 5.29248e-20)
(1.03357 -0.00212377 -1.15368e-20)
(0.558399 0.00362182 -7.01668e-23)
(1.0018 -0.0325085 -8.67704e-20)
(0.361302 0.012702 -2.04054e-20)
(1.09884 0.01299 -1.57377e-20)
(0.955717 0.0562143 5.61051e-20)
(0.823131 0.000929296 8.28377e-21)
(1.04253 -0.0321203 -2.48197e-21)
(1.03661 -0.00202834 2.56077e-20)
(1.06175 0.105291 -7.55969e-20)
(1.03949 0.000307902 -2.07397e-20)
(1.04733 0.153347 3.72374e-20)
(1.03979 -0.0062025 -5.16118e-20)
(1.03831 -0.00124983 3.52098e-20)
(1.06219 -0.0193955 -3.95124e-20)
(1.04584 0.000728158 -7.62536e-20)
(1.03738 -0.000513958 1.77229e-20)
(0.914568 -0.00538449 -1.19206e-21)
(1.03737 -0.000688962 4.47521e-20)
(1.03626 -0.00394664 4.11594e-20)
(1.05725 -0.0505182 -5.27471e-20)
(0.935112 -0.00742357 -5.42116e-21)
(1.00077 -0.0213986 -2.36842e-20)
(0.97377 0.000151574 2.21309e-21)
(1.00472 -0.00402735 -1.21137e-20)
(1.03754 -0.00290608 -6.67873e-21)
(1.06342 0.140365 8.87067e-20)
(0.510852 -0.00247219 -9.82453e-21)
(0.666538 0.0059276 5.98563e-21)
(0.271473 0.0231029 8.65941e-20)
(1.03638 -0.00234311 2.65395e-20)
(1.08555 0.100827 -3.63494e-20)
(1.03656 -0.00204355 -3.734e-20)
(1.04356 -0.0139798 3.80123e-20)
(1.03516 0.000900961 -5.22293e-22)
(1.02497 -0.025254 2.48334e-20)
(1.05434 0.00929877 2.33587e-20)
(1.18453 0.0360758 -5.19595e-20)
(1.02055 -0.0120128 -4.80917e-20)
(1.03702 -0.00181675 -4.09104e-20)
(1.02307 -0.0649256 -1.86699e-20)
(0.128667 0.000229735 -2.64282e-20)
(0.56617 0.0160266 -1.78287e-21)
(1.03744 -0.0006517 -3.97088e-20)
(1.03685 -0.00243529 -3.08041e-20)
(0.792097 -0.00977036 3.14569e-20)
(1.04017 -0.000887449 -3.42087e-20)
(1.03707 -0.00136394 -1.77039e-20)
(0.939809 -0.00170427 -6.76826e-21)
(1.0612 -0.0480978 3.54465e-20)
(0.888283 8.75744e-05 -2.94371e-20)
(1.16149 -0.00393754 3.51547e-21)
(0.779812 -0.00270705 3.12309e-20)
(1.06556 0.105963 8.54198e-21)
(1.06456 0.106799 -6.41805e-20)
(1.03625 -0.000295022 2.79638e-20)
(1.2031 0.0376793 6.53215e-20)
(0.997785 -0.00163233 7.24199e-22)
(1.037 -0.00298986 3.27833e-20)
(0.329564 0.003524 -7.12525e-20)
(1.01226 0.0438953 3.24804e-20)
(1.05969 0.0243121 -4.81261e-20)
(1.03537 -0.0015625 1.6176e-20)
(1.03701 -0.00253757 4.77469e-21)
(0.84242 -0.00276421 -2.35726e-20)
(1.07234 0.0565225 -2.14387e-20)
(1.03763 -0.00140654 -1.91996e-20)
(1.03854 -0.000873876 1.57271e-20)
(1.03816 -0.000506343 -3.67979e-21)
(1.14011 0.0447263 5.45717e-20)
(1.22636 -0.010145 3.37081e-20)
(1.07269 0.113961 4.23218e-20)
(0.751601 0.00360249 2.6504e-20)
(1.09361 -0.0210218 -8.58998e-20)
(1.03501 -0.00239037 1.17726e-20)
(1.04072 -0.00454091 -5.40305e-20)
(0.974871 -0.00276014 2.59107e-21)
(1.02749 -0.0135363 -8.27317e-21)
(0.90714 -0.00262048 1.07458e-20)
(1.04691 -0.0130569 5.31574e-21)
(1.22086 0.0432427 -5.51102e-20)
(1.01668 -0.0194257 -4.69576e-20)
(1.04446 -0.0132636 -1.10924e-20)
(1.04202 -0.00295807 -1.59677e-20)
(0.80666 -0.00780772 -2.80097e-20)
(1.05655 -0.00763286 1.74354e-20)
(1.03606 -0.0119806 -2.42893e-20)
(1.09827 0.0287871 -2.38443e-20)
(1.08245 0.0593836 2.56935e-20)
(1.20389 -0.0863608 -4.38457e-22)
(1.16741 -0.0194537 3.06577e-20)
(0.231107 -0.00158213 2.82845e-20)
(1.04074 -0.00195456 3.78251e-20)
(0.880195 -0.0173277 1.15557e-20)
(1.00282 0.0674123 -1.12103e-19)
(1.14972 -0.0231893 -5.42585e-20)
(1.05423 -0.00168263 -5.16563e-20)
(0.824652 0.0373618 -5.29311e-20)
(0.652058 -0.0120852 -1.31035e-20)
(1.03658 3.19131e-05 7.64754e-21)
(1.18109 -0.0054074 3.03842e-20)
(1.03729 -0.00168338 1.56967e-20)
(1.04963 -0.0290912 -1.1272e-20)
(1.04105 -0.00187306 1.20603e-20)
(0.703863 -0.00209447 1.21593e-20)
(0.758153 -0.000318538 2.54343e-20)
(1.04911 0.0412281 4.34051e-20)
(1.03587 -0.00158717 5.02016e-21)
(1.03744 -0.00026214 -1.56044e-20)
(1.0353 -0.000311439 1.40531e-20)
(0.809342 0.00602121 -5.54162e-20)
(1.03458 -0.00559405 -3.68253e-20)
(0.932203 0.00187614 -1.4469e-22)
(0.919896 0.00545224 -3.85766e-21)
(1.02106 -0.00984836 -1.74325e-20)
(0.63244 0.0131229 2.96535e-20)
(1.04597 -0.0139843 -2.38776e-20)
(1.03377 -0.00756332 -5.15236e-20)
(1.0797 0.0987535 1.47526e-20)
(1.00414 0.0431818 6.64445e-20)
(1.08925 0.0174017 -2.28733e-20)
(1.19516 0.0414811 -2.49128e-20)
(0.267269 0.00480495 -3.87973e-20)
(1.04077 -0.00232851 -1.97738e-20)
(1.01933 0.0742661 -3.3025e-21)
(0.755775 -0.00264837 4.52494e-20)
(1.07464 0.101482 1.74538e-21)
(1.0471 -0.0360635 -1.39801e-21)
(1.08014 -0.0956926 1.54768e-20)
(1.10432 0.0895435 2.97777e-20)
(1.07625 0.104108 -4.14238e-20)
(0.998058 -0.0178879 -5.59366e-20)
(1.06119 0.0220901 -3.39564e-20)
(1.10844 0.125469 6.3095e-20)
(1.08198 0.101297 6.48084e-20)
(1.04803 0.00207771 2.6326e-20)
(1.03123 -0.000980826 -1.36805e-20)
(1.03372 -0.00275278 -9.39267e-21)
(0.989935 0.00079067 6.02142e-21)
(1.05124 -0.0171551 1.64342e-20)
(0.658016 0.00444896 -9.9844e-21)
(1.03761 -0.00203533 -2.00744e-20)
(0.911394 0.0012887 1.05358e-20)
(1.03148 -0.000283102 -1.06023e-20)
(1.02044 -0.0637029 3.08255e-20)
(1.1247 0.0532261 2.0245e-20)
(0.94666 -0.00252845 4.35938e-20)
(1.03718 -0.00758123 -5.8695e-20)
(0.811001 0.00294976 2.93345e-20)
(1.0914 -0.0240147 3.02403e-21)
(0.829338 -0.00617316 5.60785e-20)
(1.03901 -0.00429094 3.83505e-20)
(1.11834 0.123077 9.9671e-21)
(0.798832 0.00415668 6.35058e-20)
(1.03452 -0.00227628 9.72728e-21)
(1.03617 -0.00159944 3.49414e-21)
(1.0354 -0.00151117 2.24003e-20)
(0.941343 -0.00149124 -1.6668e-20)
(1.04689 0.0384138 -5.45751e-20)
(0.66545 -0.00533085 -7.57363e-22)
(1.05133 -0.00255718 3.53087e-20)
(1.06675 -0.117222 -2.28834e-20)
(1.06144 0.107977 -1.76e-21)
(1.04019 -0.00475389 2.05034e-20)
(1.0422 -0.00283286 -3.56115e-21)
(1.03099 -0.00256942 2.72122e-20)
(1.04921 0.136321 -8.74965e-20)
(0.66404 -5.24488e-05 -1.42223e-20)
(1.07408 0.116138 -2.19553e-20)
(1.0125 0.0309385 -5.59132e-20)
(0.947118 -0.00334194 -1.14033e-20)
(1.04528 -0.0369861 3.18938e-20)
(0.890428 -0.00439761 2.67945e-20)
(1.03295 -0.04801 -6.33591e-20)
(1.03706 0.000143434 1.49931e-20)
(1.08433 0.0195396 3.0959e-20)
(1.04277 -0.00981469 -1.14826e-21)
(1.04184 -0.00227527 5.93827e-21)
(0.842561 -0.00513931 3.60926e-20)
(1.09146 0.0584209 2.76523e-20)
(1.06764 0.0554737 8.0558e-21)
(1.04886 -0.0514592 -3.58566e-20)
(1.02238 -0.0125151 3.12464e-21)
(1.03697 -0.00262378 2.16731e-20)
(1.03998 -0.0287858 7.36752e-20)
(1.15453 0.0718279 -4.10419e-20)
(0.564213 0.018373 -4.66752e-20)
(1.12064 -0.0516074 2.51971e-20)
(1.0412 -0.00478394 -1.12408e-20)
(1.03256 -0.00131306 5.51922e-22)
(0.981781 -0.00187242 4.26108e-20)
(0.767846 -0.00177934 -5.10762e-20)
(1.05587 -0.0080735 2.88509e-20)
(1.04814 -0.091666 1.25568e-20)
(1.20399 0.026152 -2.47043e-20)
(1.0674 0.111637 -9.97428e-20)
(1.07599 0.05306 3.8548e-20)
(1.15801 -0.0746311 -2.54954e-20)
(1.09496 0.0895734 1.1474e-20)
(1.01417 0.0775602 1.08809e-19)
(1.04829 -0.00131468 3.02002e-20)
(1.03783 -0.00140932 4.42525e-20)
(1.05272 0.0840066 2.36821e-20)
(1.03734 -0.00168019 -3.33984e-20)
(1.03622 -0.00218864 -1.0025e-20)
(0.46964 -0.00106489 -1.11783e-20)
(1.03675 -0.00143201 3.40775e-21)
(1.168 -0.0920359 -9.05474e-21)
(1.04095 -0.0111575 2.71143e-20)
(1.02664 -0.0248616 -4.49853e-20)
(1.03819 -0.000953431 1.41868e-20)
(1.09036 0.082705 6.35856e-20)
(0.805883 -0.000701742 5.20798e-21)
(1.03427 -0.00244167 6.56027e-23)
(1.07355 -0.101477 -1.60037e-20)
(1.03809 -0.000396575 -8.76399e-21)
(1.12725 0.0171793 -5.98488e-21)
(0.80542 -0.0106866 -9.47157e-21)
(0.647228 -0.00305925 -2.80367e-21)
(1.19894 0.0796527 -4.67468e-21)
(1.03855 0.0321261 -2.02211e-20)
(1.03516 0.010935 1.3926e-20)
(1.03283 0.0100154 -6.54708e-21)
(0.876093 -0.000621308 -3.04338e-21)
(1.13167 0.053142 1.59782e-20)
(1.09839 0.0327361 2.88029e-20)
(1.03791 -0.00223441 -1.3285e-20)
(0.978514 -0.00257422 -5.0358e-20)
(1.03772 -0.000402429 -1.66195e-20)
(1.0467 -0.0117674 -6.26442e-20)
(1.04558 -0.0187495 1.16603e-20)
(1.04093 -0.00105431 -3.73897e-22)
(1.03746 -0.00152494 4.18801e-20)
(1.13332 0.100416 -6.75631e-20)
(1.03327 -0.00270542 1.18666e-20)
(1.03697 -5.22554e-05 -9.79595e-21)
(1.03965 -0.00110622 -2.08882e-22)
(0.564453 -0.00218805 -2.74783e-20)
(1.04948 -0.00453939 3.52606e-20)
(1.02592 -0.0202754 6.68024e-20)
(0.636747 0.00171037 1.37241e-20)
(1.05358 -0.0479494 -2.3797e-20)
(1.0879 -0.124691 2.51417e-20)
(1.0603 -0.0174628 2.11033e-20)
(1.05668 0.0823473 -1.3625e-19)
(1.21265 0.0470568 3.30152e-20)
(1.01253 -0.00295095 3.30577e-21)
(0.935054 0.0557265 8.09342e-20)
(1.01924 -0.0438591 -6.009e-20)
(1.03438 -0.00606913 -1.10162e-20)
(0.576031 0.00397243 -2.37224e-20)
(1.03667 -0.011645 5.06224e-21)
(0.472594 0.00523633 -4.42575e-20)
(1.00222 -0.00231527 1.55498e-20)
(1.05505 -0.00338971 -3.92188e-20)
(1.158 -0.0255038 1.17706e-20)
(1.03444 -0.00239528 9.34889e-22)
(1.05249 -0.00409409 -2.81372e-21)
(0.991217 0.00471618 5.96182e-21)
(1.0625 0.10377 2.13887e-20)
(1.15284 0.0916737 6.24422e-20)
(1.02035 -0.00200926 -9.34868e-21)
(0.53362 0.000263289 5.252e-20)
(0.969173 0.00293873 2.07249e-20)
(1.02147 0.110917 6.8959e-20)
(1.07032 0.104332 5.26647e-20)
(1.13449 0.0459918 -2.97238e-20)
(1.13452 0.121441 -5.33256e-20)
(1.01915 -0.0469486 2.5668e-20)
(1.02462 0.0722947 -1.05776e-19)
(1.03586 -0.00161348 -1.0492e-20)
(1.07726 -0.0100669 6.82943e-20)
(0.357367 0.00975765 1.31535e-21)
(1.11037 0.0801951 -1.60779e-20)
(0.994964 0.0690756 -7.07744e-20)
(1.15855 0.0662611 6.23666e-20)
(1.06983 0.0467999 6.27367e-21)
(1.03765 -0.0075405 1.7726e-20)
(1.02479 -0.00236363 1.79182e-20)
(1.13874 0.110042 2.36972e-20)
(1.21435 0.00670623 -1.03625e-20)
(1.04429 0.129851 -2.60008e-21)
(1.12067 0.0152164 7.37152e-20)
(1.05318 0.0700982 4.25874e-20)
(0.984401 -0.00455522 1.01642e-20)
(1.06222 0.111618 2.73696e-20)
(1.07161 0.101721 1.98747e-20)
(0.998125 0.000165689 4.74235e-20)
(1.01739 -0.0033761 2.11044e-20)
(1.1487 0.103349 1.70361e-21)
(0.59108 0.00437354 4.72699e-20)
(1.03583 -0.00158005 1.38739e-20)
(1.00432 -0.00231879 -5.56854e-20)
(0.781315 -0.013467 -3.57914e-20)
(1.03079 -0.0620948 6.4778e-21)
(1.04286 -0.00151162 -5.50865e-20)
(1.04199 -0.00252954 4.93604e-21)
(1.03704 -0.00195754 1.78156e-20)
(1.07144 0.106583 -7.81392e-20)
(1.03843 -0.00723868 -4.5446e-21)
(1.03462 -0.00216979 -5.43561e-21)
(1.06041 -0.0431885 -4.23904e-20)
(1.03697 -0.00261766 -1.04948e-20)
(1.00196 -0.00512107 -1.78707e-21)
(1.04084 -0.00713783 -1.21169e-20)
(1.082 0.0838352 8.16893e-20)
(1.06376 -0.0891545 -2.4061e-20)
(1.06376 0.0884415 4.33946e-20)
(1.03547 -0.00084937 -1.10065e-20)
(1.08613 0.0858245 -8.652e-20)
(1.05282 -0.0364357 -3.31584e-20)
(1.03622 -0.00181444 3.6436e-21)
(1.03483 -1.35017e-05 -5.54482e-21)
(1.00373 0.0163685 -9.54955e-21)
(1.07691 0.0768964 3.10758e-20)
(1.03493 -0.00260396 -1.00537e-20)
(1.07032 0.0653986 -4.4256e-20)
(1.03466 -0.000184633 4.10848e-21)
(1.07164 0.0704031 -5.9642e-20)
(1.19174 -0.0916494 -2.47612e-20)
(0.963371 5.80129e-05 -5.14096e-20)
(1.00572 0.0469816 -1.38815e-19)
(1.02 -0.0356715 -4.53888e-20)
(1.13864 0.117309 5.4656e-20)
(0.598018 -0.00250836 -1.3871e-20)
(1.07615 0.0720526 7.65149e-20)
(1.08138 0.0786547 -2.24425e-20)
(1.01508 -0.00315982 -7.59645e-20)
(0.996716 -0.00257157 4.5262e-20)
(1.03525 -0.00594317 -4.23134e-20)
(0.941072 0.00109299 1.1405e-20)
(1.03634 -0.00200199 -2.26297e-20)
(1.0383 -0.00708851 7.48693e-21)
(1.07608 0.0980882 -1.01489e-20)
(1.03417 -0.00249076 -2.61687e-21)
(1.06543 0.0641681 5.81691e-20)
(1.07803 -0.0872361 -4.13183e-20)
(1.04107 0.102972 2.69247e-20)
(1.06412 0.0594244 -6.80794e-20)
(0.732581 -0.0103787 4.87212e-21)
(1.07191 0.0952111 -9.37908e-20)
(1.03755 -0.000646638 2.13625e-23)
(1.05069 -0.0154769 2.4582e-20)
(1.09181 -0.0555085 -1.50589e-20)
(0.47769 0.00113927 2.6654e-21)
(1.03222 -0.00295629 -3.14468e-20)
(1.05055 -0.0379084 2.63619e-20)
(1.08165 -0.00104486 -6.02489e-21)
(0.857657 0.0429547 1.02846e-19)
(1.03422 -0.000711593 1.52885e-20)
(1.03692 -0.000317704 -1.75197e-20)
(1.05989 -0.0584769 1.2659e-22)
(1.03535 -0.000951655 8.92794e-22)
(1.06325 0.104575 1.03408e-20)
(1.0382 -0.000205096 0)
(1.03453 0.000417138 7.80535e-22)
(1.0356 -0.000218032 2.41818e-20)
(1.03813 -7.13526e-05 2.9238e-22)
(1.02776 -0.0125305 -5.6346e-20)
(1.05323 -0.00742364 -1.98766e-20)
(1.0377 -0.000772391 -3.44451e-20)
(0.880775 0.00019774 -1.24124e-20)
(1.02698 -0.00311618 -1.64521e-20)
(1.04048 -0.00732201 -1.33354e-20)
(1.03682 -0.0994438 3.12981e-20)
(0.364028 -0.000212841 -3.92333e-21)
(1.04882 -0.00403266 5.44657e-20)
(0.681611 -0.0100389 -7.95669e-21)
(1.15107 -0.120836 -3.14028e-20)
(0.930598 -0.00277856 2.33998e-20)
(1.13929 0.0953159 -4.72192e-21)
(1.00162 0.0191744 -2.20641e-20)
(1.03766 -0.00201001 1.28656e-20)
(1.13055 0.0856656 -7.01937e-20)
(1.03538 -0.000447759 -4.68288e-22)
(0.975294 -0.00261162 -4.71286e-22)
(1.04289 0.00318424 -3.88655e-20)
(1.03441 -0.00305634 1.27026e-20)
(1.08455 0.0929443 -5.12324e-21)
(1.02588 -0.00305896 4.31911e-20)
(1.07782 -0.00742748 -5.29602e-20)
(1.04278 0.00484881 -3.92878e-20)
(1.08122 0.0546035 -1.49964e-20)
(1.04286 -0.00893263 -3.47287e-20)
(1.01749 -0.00173186 -1.25524e-21)
(1.09965 0.0816557 4.30798e-20)
(1.02442 -0.0693633 3.24311e-20)
(1.06231 0.105141 8.37853e-20)
(1.03132 -0.00219136 5.82848e-20)
(1.08704 0.108149 2.41029e-22)
(1.02733 -0.00125455 -1.55386e-20)
(1.03567 -0.000221535 3.01933e-21)
(1.06913 0.0433611 1.84926e-20)
(1.05015 -0.0186016 -1.83177e-20)
(1.05707 0.0146403 5.6179e-20)
(1.03713 -0.00067538 9.77385e-21)
(1.03497 0.000879863 3.61289e-22)
(1.05095 -0.115625 -1.15039e-20)
(1.11814 0.118313 -6.20993e-20)
(1.03785 -0.00195027 -1.1528e-20)
(1.13763 0.087941 7.7756e-21)
(1.0264 -0.00319526 3.07993e-20)
(1.14284 -0.129642 1.04296e-20)
(1.07855 -0.0226348 8.05367e-21)
(1.02563 -0.021837 -3.61546e-20)
(1.03762 -0.000372009 1.3758e-20)
(0.59408 -0.00368433 1.23065e-20)
(1.01834 -0.0574471 2.23249e-20)
(0.891145 -0.0038347 -5.09564e-20)
(1.01816 -0.0011252 -3.92126e-20)
(1.03675 -0.00166267 -1.64235e-20)
(1.06217 0.104857 -9.11436e-21)
(1.12868 0.0788409 4.45304e-20)
(1.05259 -0.002704 -1.27052e-20)
(1.03625 -0.00240387 -1.5423e-20)
(1.06986 0.0995743 -3.74903e-20)
(1.03426 -0.000968275 4.45337e-21)
(1.03606 -0.00233753 -3.20345e-20)
(1.12184 0.0771693 3.80476e-20)
(1.04612 -0.0155024 3.40519e-20)
(1.12638 0.110811 5.69049e-20)
(1.048 0.000597976 2.21176e-20)
(1.04836 -0.00605605 -6.77824e-21)
(1.12723 -0.0374183 -2.25523e-20)
(1.10359 -0.109288 -3.05295e-20)
(1.20035 0.0727729 -2.24368e-20)
(1.0382 -0.000462628 -2.62986e-20)
(0.85896 -0.0113103 3.31143e-21)
(1.03487 -0.00175468 3.18254e-21)
(1.04075 -0.00689853 8.71279e-21)
(1.0868 0.0901033 2.94462e-20)
(1.01619 -0.00274181 -5.66619e-20)
(1.03388 -0.000668258 -1.75782e-20)
(1.05192 -0.0276183 3.62914e-20)
(1.03654 1.61903e-05 -9.75453e-22)
(1.03753 -0.00149828 -2.34744e-20)
(0.285679 0.00724517 1.85033e-20)
(1.03075 -0.00257243 3.03582e-20)
(1.03725 -0.00229244 4.40932e-20)
(0.432507 -0.00252488 1.59376e-21)
(1.02741 0.0117336 5.87969e-20)
(1.01716 -0.0178984 6.86501e-21)
(1.0369 -0.00182335 -2.06145e-20)
(0.992559 0.00262636 -2.35403e-20)
(1.03545 0.0349562 2.14314e-20)
(1.08827 0.0277041 5.36877e-21)
(0.99159 -0.0158895 3.53751e-20)
(1.03386 -0.000971985 5.01996e-21)
(1.00148 0.0150212 1.31826e-19)
(1.02874 -0.0105691 4.07612e-20)
(1.08981 0.0777317 -6.60576e-20)
(1.0443 -0.000740311 -5.94669e-20)
(1.04507 -0.000415662 1.20388e-19)
(0.934288 -0.00465895 -6.5927e-20)
(1.03547 -0.00182918 3.82988e-21)
(1.04233 0.00169177 -4.80767e-21)
(1.09328 0.0256478 -9.92652e-21)
(1.18221 0.0744862 4.70934e-20)
(1.08362 -0.0812373 -1.31678e-20)
(1.07365 0.0956239 3.20387e-20)
(1.04204 -0.00131373 -1.44217e-21)
(1.10473 0.0844643 -5.91058e-20)
(1.03787 -0.00909703 2.2636e-20)
(1.05653 -0.0415835 6.47971e-20)
(1.03007 -0.0021817 1.71653e-20)
(1.04068 -0.0119693 -5.49998e-20)
(1.03675 -0.00158188 -1.45317e-20)
(1.06575 0.0501092 -5.03347e-20)
(1.0978 0.114629 -9.7312e-20)
(1.03775 -0.000816885 -1.05815e-20)
(1.0494 -0.00551532 4.368e-21)
(0.878529 -0.000698861 -1.87617e-20)
(1.08536 -0.0678428 -7.75224e-21)
(1.08083 -0.0739898 2.06999e-20)
(1.03406 -0.000169649 -1.86221e-20)
(1.07436 -0.0111793 -2.72302e-20)
(0.11942 -0.00405563 -3.09141e-20)
(1.18143 0.0585152 4.21143e-20)
(1.03599 -0.00156411 -2.64928e-20)
(1.08399 0.0245443 -2.13594e-20)
(1.03644 -0.00562511 3.23712e-20)
(0.586569 0.035759 1.35912e-19)
(1.01863 -0.00286726 -4.1702e-20)
(1.03567 -0.0178212 1.47351e-20)
(1.0534 -0.0234286 -1.5298e-21)
(1.0348 -0.0184606 5.66261e-22)
(1.03736 -0.0136336 5.69525e-20)
(1.02711 -0.00285081 -1.02121e-20)
(1.03732 -0.00913608 -4.9021e-20)
(1.03898 -0.0038784 -1.16537e-20)
(1.08371 -0.00425138 1.21392e-20)
(1.03467 -0.00104187 -2.33752e-20)
(1.21981 -0.0498201 1.47083e-20)
(1.17387 0.0219935 1.77907e-20)
(1.06699 0.106157 6.106e-20)
(0.994652 -0.0146785 -5.56042e-20)
(1.12056 0.106738 -2.85167e-20)
(1.03792 -0.000323761 2.93111e-20)
(1.10649 -0.0519105 -1.06548e-21)
(1.04333 -0.0269269 3.29876e-20)
(1.0329 0.0582408 5.11922e-20)
(1.03432 -0.00292974 -2.88001e-20)
(1.03613 -0.00108205 1.74226e-20)
(1.02925 -0.0111813 -5.65021e-20)
(1.03567 -0.00592626 1.65487e-20)
(1.07112 -0.00966054 4.50244e-20)
(0.818106 -0.000927104 4.46862e-20)
(0.975626 -0.00213892 -1.50588e-20)
(1.15082 -0.00633259 1.40616e-20)
(0.780207 0.00299996 3.57706e-20)
(1.05153 -0.0251369 -3.04482e-20)
(1.03255 -0.0664202 -2.68801e-20)
(1.03435 -0.0012988 7.81517e-22)
(1.08368 0.00314888 5.21601e-20)
(1.03384 -0.05834 8.17534e-20)
(1.1262 0.0970104 3.15331e-20)
(1.12879 -0.0440645 3.68223e-20)
(1.05551 0.013572 5.76892e-21)
(1.07024 -0.0846632 5.55111e-20)
(1.07566 0.109757 1.81603e-20)
(1.06747 -0.0204938 4.09355e-20)
(0.894541 -0.00383792 3.91786e-20)
(1.05252 -0.0333403 4.70034e-20)
(0.27356 0.0274431 3.31269e-20)
(1.18983 -0.0602556 -1.45318e-20)
(1.00461 -0.00295753 1.29389e-20)
(1.07506 -0.110979 3.24618e-21)
(1.06543 -0.0496399 -3.93293e-20)
(1.08926 -0.0981272 1.99311e-21)
(1.08203 -0.0615935 3.15382e-20)
(1.09904 0.076418 5.65217e-20)
(1.03521 -0.00103244 -8.72167e-22)
(1.01546 0.0692999 1.79641e-20)
(1.04213 -0.000882615 1.30856e-20)
(1.03696 -0.00170533 2.55729e-20)
(1.03732 -0.00153693 -7.46762e-20)
(1.08063 0.017462 -1.08661e-20)
(0.0703142 0.00477019 7.23763e-22)
(1.03887 -0.00402179 1.6766e-20)
(1.05613 -0.0379427 -8.47565e-21)
(1.0358 0.0394715 -3.49583e-20)
(1.03452 -0.000824226 -7.94575e-22)
(0.998947 -0.00255496 -3.85409e-20)
(1.05058 -0.00314894 3.51173e-20)
(1.10387 -0.0188213 5.1639e-20)
(1.04208 -0.000635207 6.84868e-20)
(1.03729 -0.00172954 -1.03816e-20)
(1.02671 -0.0288349 1.52623e-22)
(1.03691 -0.0054321 1.67538e-20)
(1.03419 0.000681411 9.2524e-21)
(1.02185 -0.0348847 7.76235e-20)
(1.07804 0.0904563 -1.27684e-20)
(1.05406 -0.0194253 -6.03719e-21)
(0.938801 0.000548232 3.47624e-20)
(1.03858 3.34389e-05 -1.10781e-20)
(1.04016 0.0416935 4.64742e-20)
(1.03737 -0.00193917 9.98046e-21)
(1.03776 -0.00131783 2.23545e-21)
(1.03487 -0.00182431 1.72257e-20)
(1.03742 -0.00163349 3.0114e-20)
(1.17162 0.073988 3.26191e-20)
(1.06171 -0.0217071 9.81543e-20)
(1.0436 -0.0114572 2.39854e-20)
(1.00262 -0.00295182 1.55014e-20)
(1.03536 -0.0006885 9.18303e-21)
(1.12167 -0.099874 -4.3006e-20)
(1.21329 0.0209371 8.84629e-22)
(1.12922 -0.108342 1.95069e-20)
(1.03694 -0.02349 2.25396e-20)
(1.04551 -0.00479431 5.43141e-20)
(1.03402 -0.00284978 -1.1445e-20)
(1.03128 -0.00660017 2.53961e-20)
(1.00472 -0.0348623 3.50758e-20)
(1.17227 0.0589988 1.60492e-22)
(1.03735 0.104944 -1.31173e-21)
(1.03706 -0.00236178 -1.74045e-20)
(0.95647 -0.0228621 -1.78438e-20)
(1.03512 -0.00274516 3.95277e-20)
(1.06514 -0.0185008 -1.60797e-20)
(1.10902 0.0741516 6.60116e-21)
(1.03783 -0.000627351 -3.03364e-20)
(1.03658 -0.0022593 7.03881e-21)
(1.14618 0.108285 7.48002e-21)
(1.17025 0.0425653 -9.80442e-21)
(1.04988 -0.00820924 1.82004e-20)
(1.03511 -0.00136278 -2.91737e-20)
(0.911664 -0.00624835 3.9788e-21)
(1.01157 -0.0361136 -8.83567e-21)
(1.03648 -0.00192168 2.09982e-20)
(1.05264 -0.0211789 5.64653e-20)
(0.517646 -0.00200974 -8.02852e-20)
(1.00116 0.0195451 -1.78659e-20)
(1.0813 0.0933026 -6.20465e-21)
(1.10072 -0.0472879 -2.25414e-20)
(1.03767 -0.0586512 -2.88647e-20)
(1.04045 -0.00153617 4.25332e-20)
(1.04883 -0.0150237 -5.01809e-20)
(1.16513 0.027019 4.88561e-20)
(1.03759 -0.0666804 1.63475e-20)
(1.05488 -0.0315153 -2.86686e-20)
(1.03371 -0.000790764 -9.94856e-22)
(1.15542 0.0121774 4.20841e-20)
(0.468847 -0.00562684 -4.32282e-21)
(1.03701 -0.0757647 -2.97011e-20)
(1.05323 -0.0175342 -7.80675e-20)
(0.865121 -0.0090309 6.68395e-21)
(1.03649 -0.00181033 8.34965e-21)
(1.03109 -0.000877292 1.38012e-20)
(1.0594 0.0582086 5.20531e-20)
(0.936359 -0.00437539 1.55582e-20)
(1.03684 0.00394412 -1.62808e-21)
(0.849935 -0.00418807 3.15623e-20)
(1.18456 -0.0473342 5.34272e-20)
(1.01281 -0.000144046 -3.4461e-20)
(1.05861 -0.0358399 1.15456e-20)
(1.03582 -0.00156746 1.30773e-21)
(1.04192 -0.00837493 3.5902e-21)
(1.03663 -0.0942668 -1.45061e-20)
(1.0941 -0.0490096 1.69642e-20)
(1.03577 -0.00143678 1.07486e-20)
(1.03436 0.000355208 -5.54219e-21)
(1.03452 0.00290882 1.67601e-21)
(1.0503 -0.0560084 -6.19672e-21)
(1.00362 0.0297068 -1.64934e-21)
(1.08818 0.104168 7.32631e-22)
(1.14488 0.000670736 -1.82403e-20)
(1.03748 -0.00170266 -2.27503e-21)
(1.04741 -0.0275895 -2.50739e-20)