/*--------------------------------*- C++ -*----------------------------------*\
  =========                 |
  \\      /  F ield         | OpenFOAM: The Open Source CFD Toolbox
   \\    /   O peration     | Website:  https://openfoam.org
    \\  /    A nd           | Version:  7
     \\/     M anipulation  |
\*---------------------------------------------------------------------------*/
FoamFile
{
    version     2.0;
    format      ascii;
    class       surfaceScalarField;
    location    "10";
    object      phi;
}
// * * * * * * * * * * * * * * * * * * * * * * * * * * * * * * * * * * * * * //

dimensions      [0 3 -1 0 0 0 0];

internalField   nonuniform List<scalar> 
172549
(
201.745
50.9401
-252.685
-473.772
101.999
371.773
-111.034
-79.1046
190.139
113.631
-278.95
165.319
-435.199
323.717
111.482
138.103
-337.212
199.109
-159.388
282.874
-123.486
-84.5973
189.165
-104.567
-363.394
351.995
11.3991
-465.116
-8.65592
-230.006
354.521
-124.515
494.965
-360.241
-134.724
-170.257
341.286
-171.029
93.5296
-94.9774
1.44778
-43.9299
-319.464
-110.642
65.1065
45.5359
-456.086
86.4281
369.658
-411.621
76.9896
334.632
-135.484
286.384
-150.9
-331.977
-103.222
-76.3866
177.064
-100.677
199.683
-197.603
-2.07957
392.877
-290.361
-102.516
160.824
-314.116
153.291
-249.928
214.053
35.8749
-114.345
217.029
-102.684
64.9827
70.7024
-135.685
-206.74
458.348
-251.608
-263.264
-175.889
439.153
-59.9153
97.0461
-37.1308
427.838
-342.05
-85.7876
-239.348
-67.9351
307.283
-268.291
404.455
-136.163
-101.302
-77.1559
178.458
-96.6602
-91.7472
188.407
182.208
95.6597
-277.868
-216.073
77.7186
138.354
-99.6242
-356.462
111.057
-136.252
25.1949
101.85
206.336
-308.185
155.685
-395.033
-57.5593
-354.062
-130.357
-38.0406
168.397
-119.27
301.479
-43.7668
104.981
-61.2145
-2.74282
96.2724
265.389
63.3071
-328.696
542.138
-302.539
-239.598
397.485
-147.367
-250.118
414.112
-534.046
119.935
-390.722
478.203
-87.4803
280.326
-101.881
-178.445
-465.643
323.659
141.984
-504.397
451.001
53.3961
-118.121
-167.057
285.178
-310.514
-155.129
547.114
-360.83
-186.284
-135.112
81.1326
53.979
81.2155
72.7229
-153.938
130.02
-231.255
101.235
-515.372
327.456
187.916
-186.293
331.965
-145.672
346.136
-129.442
-216.693
-106.557
187.524
-80.9671
295.899
87.1692
-383.069
9.39615
-401.038
391.642
-351.9
196.834
155.067
-214.817
391.822
-177.005
74.5148
-141.185
66.6703
-528.42
251.112
277.308
-112.232
194.278
-82.0458
188.977
-143.387
-45.5908
359.188
-257.338
-138.185
69.4882
68.6971
-87.4951
-94.0332
181.528
82.4524
-167.12
84.6681
-196.652
46.8194
149.832
202.211
-403.104
200.894
-258.198
-126.148
384.346
-281.329
209.367
71.9628
-74.4034
-206.926
429.783
-432.782
2.99828
47.7983
-85.2713
37.4729
-303.348
552.956
-249.608
-137.642
241.243
-103.601
342.481
152.484
-111.413
179.503
-68.0897
-324.473
472.877
-148.404
106.898
-120.104
13.2065
-86.6906
441.522
-354.831
125.408
-1.88286
-123.525
203.263
-19.8478
-183.415
206.53
-469.794
221.593
50.0536
-271.646
-420.655
315.309
105.346
-574.872
416.827
158.044
262.022
-321.871
59.8491
97.35
-49.5516
81.1175
-152.721
71.6035
-0.302229
107.2
-314.462
-200.91
196.241
-429.715
233.474
327.625
-179.6
-148.026
-484.822
498.677
-13.8545
91.6114
-203.844
166.1
-85.774
-80.326
-502.689
305.486
197.203
-32.872
100.225
-67.3531
-145.206
225.576
-80.3702
-311.331
-71.1439
382.475
-117.974
222.734
-104.76
-54.6655
316.688
-167.254
-29.3972
136.571
104.858
-241.43
-126.184
47.3806
78.803
206.321
-345.825
139.504
-307.614
77.6083
-81.1904
206.239
-125.049
364.001
-541.568
177.567
48.2162
140.761
-197.882
116.691
-70.4644
-40.178
-224.484
114.851
109.633
43.4682
-162.33
118.862
-230.663
532.608
-301.945
-107.453
47.5376
-265.651
79.3581
-120.407
64.9266
55.48
-181.248
-41.719
222.967
-500.506
503.125
-2.61937
-100.452
228.819
-128.367
567.114
-287.726
-279.389
-166.11
173.211
-7.10082
538.926
-196.444
-329.441
480.847
-151.406
-133.804
227.476
-93.6719
-266.982
195.566
71.4161
60.5681
-328.86
148.937
-267.058
182.768
149.197
75.3769
46.2912
-121.668
-189.716
340.964
-151.248
502.977
-504.536
1.55929
372.844
-195.63
-177.214
-259.601
159.149
141.961
-532.683
436.577
-328.53
-108.047
-116.377
-149.274
-444.241
229.424
-227.019
-167.07
394.089
110.618
55.4824
53.1764
-96.9432
7.23449
196.029
-567.955
273.278
294.677
133.352
146.974
-357.151
425.742
-68.5913
-412.195
100.864
-65.456
211.499
-146.043
134.888
-135.027
0.138497
-151.242
105.008
46.234
152.859
-70.4064
139.071
297.506
158.413
187.722
-186.412
148.855
37.5575
264.556
-145.953
-118.604
139.907
173.546
-313.453
438.415
-253.672
-184.743
-56.5531
-109.326
165.879
-182.237
116.781
-242.653
126.446
116.208
-242.413
158.055
84.3572
-99.446
364.835
-95.7681
-22.6622
118.43
26.6045
65.1887
-91.7932
-67.195
-86.2867
153.482
215.669
-429.881
214.212
-76.7461
103.351
194.308
85.3979
-279.706
117.013
-332.99
215.977
277.853
119.632
-285.376
-132.361
417.737
-188.279
100.784
129.27
-251.643
122.373
-201.179
407.481
-206.302
-260.269
-242.42
-162.402
384.891
-222.488
95.1037
-262.251
167.148
311.35
188.65
-131.054
319.477
-188.423
120.795
4.61226
-105.755
300.063
-338.72
190.301
148.419
449.722
-153.18
-296.541
-205.487
116.441
89.046
-223.57
109.225
76.0531
-129.895
53.8419
21.0419
-97.788
-173.742
164.578
9.16399
58.1969
-149.384
91.1867
78.6413
140.207
-218.848
-561.896
382.14
179.756
-206.042
362.052
-156.01
358.608
58.2243
-416.832
481.281
-479.313
-1.96711
-339.154
169.08
170.075
137.797
-93.2887
-44.5078
370.038
-271.548
-98.4906
-87.2898
383.189
-209.16
-194.877
404.037
101.628
-207.019
105.391
-72.9988
94.0407
31.7287
273.757
10.4406
-260.368
-384.203
297.512
-159.644
-67.5113
227.155
-87.8608
-117.626
-98.2193
245.041
-146.821
-184.754
-134.601
319.355
83.2792
-86.022
-123.562
-261.489
385.051
135.046
4.92884
-139.975
137.831
-2.27135
-135.559
136.833
-329.992
193.16
-76.7594
141.194
-64.4345
-73.5437
-430.853
-194.382
33.9207
160.461
-196.584
-83.6871
280.271
187.103
-68.527
-118.576
137.435
-61.3823
-352.536
91.8986
260.638
-0.958684
-408.347
409.306
66.2176
-119.065
52.8472
42.5735
-116.209
73.6359
87.252
-177.738
90.4863
-230.814
122.806
108.008
-225.198
-336.698
-641.744
285.434
356.311
392.014
-205.814
-186.2
-51.1078
159.122
-108.014
240.193
-166.639
-73.5537
-39.836
141.235
-101.399
-290.924
161.131
129.793
-111.043
-40.1991
143.72
-62.6029
278.492
-217.466
-61.0258
-235.136
407.573
-172.437
438.229
-215.968
-222.261
136.954
-88.0096
-48.9444
-161.98
105.427
-63.3169
-36.6094
99.9263
207.17
278.225
-485.395
-370.767
241.278
129.488
223.738
-524.157
300.419
387.398
-237.241
-150.157
122.453
-91.0787
-31.3746
-4.38294
-280.993
-70.8689
169.024
-98.1555
-556.789
296.85
259.939
503.635
-503.635
-181.568
96.9709
368.762
-373.145
-4.18444
87.4636
-470.291
269.111
-120.595
112.645
7.94972
37.7817
-182.988
258.535
-144.904
-100.242
143.71
179.757
-280.204
100.447
99.5332
91.8947
-191.428
-95.6743
197.325
-101.65
415.216
-131.523
-283.693
-321.586
190.532
427.725
-149.873
-217.385
-73.5396
141.302
178.109
-319.411
-190.415
104.146
86.2686
41.4478
-100.215
58.7676
-169.089
101.894
-249.323
297.871
-48.5474
80.485
-113.357
-124.14
-62.2723
97.2444
184.758
-404.819
220.061
69.3733
68.4233
456.53
-254.421
-202.108
173.356
203.966
-377.322
49.5479
-243.93
491.243
-501.031
9.78821
117.973
-65.9372
-52.0356
97.0165
-139.872
42.8559
109.687
-68.2396
-500.32
66.1254
434.195
-160.342
27.9952
132.347
357.262
-325.533
-258.695
409.622
-150.927
-476.524
301.656
174.868
364.522
-244.503
-120.019
-134.919
-210.244
345.163
-162.291
345.2
-182.91
-219.473
123.798
-73.2117
-22.9947
96.2065
105.97
-192.378
86.408
-56.4646
128.653
-72.1879
309.853
-193.048
-116.805
82.3645
43.0798
-125.444
-124.051
271.111
-147.06
-249.465
160.164
89.3007
114.186
72.9172
89.8257
-115.057
25.2315
-169.715
286.728
-91.8559
-187.984
279.84
109.53
21.3836
-130.914
-92.8276
148.429
-55.6013
-151.628
100.52
-330.55
160.293
-181.52
346.096
-164.576
349.123
100.598
177.265
-412.401
273.489
-112.665
-171.032
117.722
53.3105
-7.14593
-170.845
177.991
262.815
-386.376
-59.1936
417.802
-32.9592
-93.2244
175.265
69.3782
-244.643
-145.113
60.9198
84.1933
-366.412
9.26104
191.013
-403.587
212.575
30.0126
-103.224
-145.015
-15.3268
194.602
-286.458
-432.875
-67.4455
141.527
229.625
-371.152
219.09
145.431
143.32
-64.2656
-79.0547
173.111
101.507
-274.618
-245.693
160.027
85.6654
80.3453
-357.616
277.271
353.055
-214.952
243.639
-148.536
85.6759
107.501
-193.177
-128.552
260.483
-131.931
124.149
-59.1664
93.0838
-183.506
90.4221
266.783
-88.6112
-178.172
-169.627
-213.243
382.87
-174.424
-74.8987
-85.5066
-19.1892
104.696
81.8685
48.1486
-130.017
320.645
-174.437
-146.207
-200.284
34.1738
-503.254
346.448
156.806
361.774
6.98792
170.916
-290.794
119.879
183.153
-104.512
184.071
86.7778
-270.849
-44.7168
246.462
-105.321
-299.561
404.882
-171.034
388.682
-217.648
-115.006
258.318
-143.312
-169.453
271.991
-102.538
146.575
-95.4859
-51.0892
-152.915
-63.1577
-157.88
89.0619
68.818
261.099
-149.392
-111.707
-438.082
332.761
-161.993
164.772
-2.77956
-187.189
110.609
76.5801
304.201
-167.369
-168.961
473.041
-304.08
189.144
-87.5584
-101.585
64.524
75.6641
-140.188
74.1654
62.7886
25.6864
229.957
-255.644
90.0775
100.891
-190.969
61.8474
305.927
-367.774
146.106
510.402
-96.2904
226.185
95.5836
-321.768
-135.416
292.597
-157.181
137.284
-71.0664
213.623
-121.154
-92.4691
-78.2908
202.187
-123.897
133.875
-248.881
394.23
-220.874
-371.342
369.351
1.99046
126.118
-83.545
-57.7604
-41.2876
99.048
488.248
-164.531
-67.4261
181.353
-113.927
-223.632
418.503
-194.871
262.541
179.994
-442.535
67.7526
-179.165
-450.819
244.078
-20.5949
158.426
-325.066
187.865
137.201
2.82668
86.999
-316.592
-131.802
448.394
268.129
159.596
-77.134
-83.9818
161.116
99.6329
0.779293
-100.412
-242.621
354.908
-112.287
109.346
-110.615
1.26972
-148.652
381.021
-232.369
-117.246
119.165
-1.9193
56.6095
115.612
-172.222
142.046
-471.488
-171.487
261.996
-90.5088
-96.1974
241.523
-145.325
-133.893
198.425
-64.532
254.618
-160.223
-94.3955
-274.972
86.9885
237.717
-407.344
-38.8683
214.125
-175.257
-226.241
88.5983
197.445
100.426
381.428
-113.299
70.5173
-126.08
55.5628
353.324
69.9283
-423.252
-197.072
404.7
-207.628
-232.839
-267.159
22.8237
-95.8226
601.461
-379.239
-222.221
-51.4163
129.724
-78.3075
-146.714
53.8863
292.988
-383.842
90.8533
-128.744
185.353
-392.639
372.4
20.2395
325.563
221.55
147.49
157.69
-305.18
-504.218
382.405
121.813
-352.631
426.183
-73.5518
-99.2937
253.192
-153.898
182.028
-67.8425
130.025
179.828
124.854
-296.341
-127.197
266.529
-139.332
382.756
218.704
336.289
-330.43
-5.85831
325.161
-529.523
204.362
341.622
-139.411
-101.652
-398.854
58.6382
-211.602
152.964
80.5367
-157.671
357.489
99.0408
172.399
-80.5186
-91.8802
238.381
169.192
134.607
233.687
-368.294
-108.333
370.874
407.206
-191.538
-400.379
8.7877
391.591
-291.2
-180.973
472.173
421.518
-291.857
-129.662
489.276
-248.974
-240.302
-66.2745
-95.7052
-60.679
273.354
-212.675
62.6814
75.1551
-137.836
85.1431
-143.488
58.3451
156.58
147.9
-304.48
-185.773
31.4339
154.34
23.097
86.2487
412.018
-173.638
374.974
113.274
-274.826
-137.249
412.075
-34.9364
144.467
-169.843
93.4564
-160.482
-219.982
380.464
-25.2077
90.3964
-38.095
-147.678
166.334
-457.534
197.158
-37.075
-56.4448
93.5198
219.331
-60.2092
-92.497
-45.6883
-256.014
128.817
-99.9738
275.239
-324.718
499.957
-175.239
261.368
-421.85
392.944
-196.704
105.134
189.974
-295.108
-137.058
73.8359
63.2217
-367.32
488.64
-121.319
307.414
-227.069
554.182
-227.344
-326.838
113.801
105.53
358.829
-116.796
-242.032
-271.844
434.536
-162.692
134.422
-235.449
101.027
-173.444
31.5888
141.855
-145.968
-73.5042
142.01
-389.246
247.236
11.3528
-120.752
109.399
454.547
-197.578
-256.969
301.619
-471.236
169.617
-227.723
188.855
90.3665
98.7773
104.312
-4.3737
-99.9384
254.155
-117.584
250.464
141.55
323.225
-180.482
-142.743
-327.084
217.607
109.477
-489.334
391.141
98.1928
185.41
-98.1578
-115.201
183.271
-68.0699
-174.922
-74.5433
341.999
-49.0103
120.627
10.1559
-130.783
-117.284
202.96
-122.999
83.1628
-522.82
358.658
164.162
311.85
-140.934
226.848
160.55
160.873
-398.115
-474.614
238.097
236.517
-245.401
158.438
86.9634
112.392
-38.7285
-73.6633
-218.941
-203.163
422.103
100.426
140.933
-241.358
-407.101
282.627
124.473
-272.289
-134.811
-561.061
373.17
187.891
-279.686
104.765
585.778
-299.685
-286.093
-147.431
-178.028
325.459
-133.754
139.094
-5.34003
-166.38
275.239
-108.859
-254.932
155.638
-413.017
319.372
93.6449
99.0376
89.3448
-188.382
-368.7
195.237
173.464
-111.208
-131.205
144.084
-103.631
-40.4533
276.65
104.779
573.967
-316.41
-257.558
253.319
-519.76
266.441
57.8105
-120.219
62.4089
99.0204
5.2917
-61.1996
147.414
-86.2148
272.969
300.998
73.4619
-174.764
-280.887
152.334
115.933
-41.4185
109.93
151.169
347.271
82.5126
110.15
71.8784
43.4781
-188.157
144.679
365.258
-514.23
148.971
-60.8696
326.093
-265.224
-34.5662
119.709
174.532
379.65
-147.704
358.991
-211.287
58.0355
-159.851
101.815
-340.926
-300.819
-68.3767
-33.0929
101.47
7.04694
-140.801
-108.227
119.579
178.539
-85.4551
180.272
-327.703
-141.144
82.0694
59.0741
-351.729
-87.7869
439.516
-338.282
521.848
-183.566
109.311
-370.271
260.96
43.0088
-131.447
88.4385
-103.312
-249.225
280.258
117.85
-398.108
172.705
-114.066
251.094
-141.057
-110.038
548.269
-179.568
-368.701
-366.419
50.492
315.927
331.683
90.6635
-422.346
-473.711
493.35
-19.6389
-146.107
-78.377
-89.6359
189.169
142.17
181.055
246.469
-528.684
282.215
376.777
-367.381
457.074
-176.816
552.841
-298.739
-254.102
-223.941
246.022
-22.0814
-51.6211
172.248
-78.5059
-261.756
340.262
56.7725
446.862
-62.9781
-88.65
139.472
-76.7901
311.383
-154.803
133.963
54.0676
-188.03
166.579
-227.258
-64.3534
-94.6467
159
552.661
-552.661
-5.2874
-111.959
281.675
-169.504
-112.171
-305.354
-171.17
-161.622
95.3476
-365.908
-118.914
-67.5943
132.118
210.536
-299.665
176.244
123.421
4.17739
-396.817
129.187
95.2778
-224.464
84.5346
112.79
119.065
-43.6884
-64.9895
-301.43
61.1693
-235.344
174.174
-7.4415
-392.937
-298.482
150.778
-131.841
-184.459
316.3
104.705
247.499
-352.204
-328.36
500.849
-172.489
-82.8441
-37.7505
-67.0137
101.205
-34.1911
-101.739
183.003
-81.2637
228.07
169.005
-397.075
311.689
-206.556
406.081
-186.991
-304.339
-199.879
134.624
-270.108
-176.171
79.5111
-412.935
308.107
104.829
84.0304
-435.759
89.587
142.988
-232.575
-222.437
-152.848
375.285
42.0816
-98.5463
116.03
-150.966
-108.83
-223.391
332.222
-301.819
240.95
-96.256
-56.0744
152.33
-188.233
105.325
82.908
358.14
-517.126
158.985
317.222
-208.503
-108.719
153.696
284.533
98.6235
74.2325
-172.856
387.253
-160.405
146.879
-514.2
244.748
-183.579
153.131
164.091
-64.6928
-348.243
212.031
-371.151
159.119
406.907
-234.709
-172.197
74.7708
-260.573
185.802
-229.093
-10.129
239.222
57.5081
-147.847
90.339
85.0172
-162.743
77.7263
193.509
212.572
-47.8373
147.47
-334.16
418.19
135.768
234.127
-369.895
-103.244
309.565
73.637
101.932
-175.569
41.772
-314.701
272.929
-140.648
147.694
278.712
-457.862
179.15
-88.806
222.769
278.756
-455.253
196.558
-110.727
-3.88026
114.608
32.413
120.586
-152.999
223.952
230.594
-109.215
182.852
340.017
-28.5
-311.517
-124.017
444.718
-320.701
101.912
290.965
45.3416
228.013
313.945
132.586
-446.531
328.557
-267.58
-60.9771
-32.5347
-129.458
-207.521
73.7169
-81.4321
-30.2331
111.665
12.4824
-93.9145
-308.752
173.337
-75.8033
-168.705
244.508
207.28
108.974
-316.255
-222.594
-47.6426
270.236
-152.673
89.6944
81.1764
-182.915
-83.9545
-318.671
402.625
-73.005
-144.38
517.427
-238.715
-72.6964
69.0897
57.5525
-126.642
-182.46
77.2425
105.217
76.5663
-93.7996
17.2332
105.782
173.286
-279.068
-188.811
108.315
80.4952
-133.7
317.771
-94.8401
-121.093
215.933
-322.776
-205.644
-241.93
130.463
111.467
-229.282
527.004
-297.722
438.203
-296.193
-72.2852
-95.4787
167.764
-78.6575
108.67
-184.686
323.227
-138.541
-119.854
265.647
-145.793
162.966
-65.2954
-97.6702
-249.88
359.191
138.665
-83.9047
-54.7599
-274.234
280.15
-5.91614
-271.197
111.809
198.094
7.98528
-206.08
-194.17
380.015
-185.845
128.277
-62.8043
-65.4729
225.836
-464.192
238.356
-497.836
173.363
166.006
-30.9594
-141.812
1.16431
-191.273
91.3651
99.908
-148.984
361.016
140.415
-82.3792
80.9559
-415.116
-48.4108
-57.4939
105.905
-105.492
-509.24
357.382
151.858
248.285
80.2717
-305.6
-160.839
466.439
-77.5478
298.802
88.1896
-139.606
-56.706
-133.709
-231.367
-240.612
471.979
-197.528
-243.006
440.534
-277.903
264.122
13.7815
312.419
-250.571
-299.1
-204.154
340.84
-509.801
93.3762
98.9673
-192.344
-383.383
211.702
171.681
158.1
216.874
-80.1418
144.785
-64.6435
-330.361
526.169
-195.808
-178.801
128.927
49.8743
-134.292
56.562
77.7305
54.1241
-121.138
-63.821
395.504
86.6159
61.9478
-148.564
497.966
-184.021
-131.103
260.373
-318.834
156.543
-287.065
287.065
-142.695
232.282
-548.805
281.537
267.268
-254.083
-88.076
342.159
187.815
-144.337
-112.207
123.71
-11.5023
-242.15
72.6971
123.323
-483.564
47.9365
70.0363
-128.743
-316.849
445.592
-232.488
368.256
-241.332
143.113
500.983
-245.626
-255.357
-191.558
-37.5343
148.2
-327.8
-568.363
398.432
169.93
-284.2
-158.178
-204.186
37.977
166.209
-36.5435
-116.627
153.171
136.253
117.902
-85.0076
118.794
-33.7865
-3.20817
79.2372
-76.029
223.298
-222.338
-0.960419
212.921
-337.848
124.927
54.6809
-169.882
-72.2882
-155.435
106.26
-201.079
94.8196
-393.387
-261.242
325.18
-63.9384
85.6772
42.6
-6.8545
-137.014
143.868
-149.932
-201.968
155.607
-386.626
231.019
-174.849
102.564
85.1345
47.9415
-133.076
41.5341
-137.79
-149.906
229.25
-79.3436
148.838
108.517
-257.355
-151.418
-285.617
437.035
171.128
-421.722
250.595
100.649
-150.058
49.4085
-540.727
308.918
231.809
464.888
-323.393
-141.495
-501.517
176.799
-116.648
111.36
-71.4517
-98.3912
298.496
-406.829
-344.519
-130.095
-173.896
-125.769
-380.786
155.952
224.835
-209.22
136.215
-46.3605
307.383
-261.022
-94.8354
-242.369
131.161
168.273
97.8178
-266.091
258.818
-454.494
195.676
194.257
-92.6289
-315.472
106.969
225.005
-94.9851
-327.582
-112.137
439.718
383.536
-227.929
-331.884
336.507
-4.6237
-69.2991
124.751
-55.4523
-380.012
166.769
-312.581
126.45
186.131
134.938
-134.938
-194.87
-256.12
450.99
471.539
-390.584
66.9722
-263.556
4.02275
335.994
337.107
211.162
-234.865
-46.8982
281.763
123.901
6.85325
-130.754
-74.2107
141.207
-66.9962
-179.493
106.287
73.2054
-323.009
-244.946
-155.206
90.8529
116.962
-47.8726
-272.601
-302.271
-146.81
85.61
132.134
209.152
76.0076
33.6441
-109.652
-43.1557
126.875
-83.7194
379.697
173.143
-164.101
-115.585
-336.303
-172.936
-155.953
-101.342
257.295
-69.3651
-272.734
342.099
-338.209
175.001
163.208
-91.8212
-104.508
196.329
337.845
-505.036
167.191
209.201
-354.653
145.452
230.426
-409.012
178.586
-83.193
-51.9186
-238.083
165.794
166.6
-395.074
228.474
-137.642
101.099
-378.999
172.957
-204.857
362.957
-68.6324
133.572
-64.9398
87.9969
-133.306
45.3087
30.8182
-94.1351
-153.933
366.854
483.497
-465.545
-17.9518
-97.1425
140.151
-78.582
137.857
-59.2753
260.923
-455.793
-55.6204
156.578
-100.958
-149.429
289.336
390.876
-507.237
116.361
224.074
73.7129
-297.786
56.2028
-103.314
47.1114
-33.6241
110.19
58.8106
36.8371
-95.6477
-38.6877
141.339
-102.652
-10.8013
161.36
-150.558
178.156
-71.8963
386.463
-135.998
-63.3968
265.199
-201.802
-303.718
-48.9132
182.414
-99.6997
-82.714
189.993
-293.397
103.403
-239.938
-147.11
387.048
-77.0196
165.017
-271.475
156.859
114.617
228.781
-347.709
118.928
-324.35
202.261
122.089
252.652
-135.638
-117.015
-130.723
60.8933
69.8298
182.363
-391.523
-101.777
-77.133
178.91
-47.2033
-134.33
181.533
84.301
-232.238
147.936
-107.832
197.91
187.213
-99.0596
-88.1529
-62.7132
-106.531
169.244
-42.707
158.737
-163.924
-117.533
281.457
-304.832
-8.65365
313.486
56.9718
-107.79
50.8184
170.435
96.3475
118.789
106.216
-104.281
107.044
-2.76264
-204.186
-55.6413
446.517
2.85747
108.2
377.548
12.5571
-390.105
386.357
-325.789
-472.097
172.996
45.7274
55.2258
-100.953
-139.428
-31.6046
82.8224
-260.046
177.223
110.93
-372.171
-177.56
-33.4913
257.565
-66.3946
264.489
254.697
152.783
-402.693
208.523
-145.879
65.7376
384.828
-161.09
227.923
-94.3617
-133.561
259.107
-328.472
293.268
-177.965
-115.304
193.723
-178.888
-14.835
113.748
-56.7758
-215.092
-235.651
450.744
-189.678
37.1958
152.482
491.464
-484.5
-6.96361
233.138
-63.5866
-169.551
242.404
243.867
-486.271
259.247
-174.946
-165.596
301.403
-135.808
-160.115
307.605
-135.455
220.85
-85.3955
-189.784
-149.37
65.0742
-144.679
79.6052
101.083
-195.923
352.049
119.491
-256.606
-156.411
-56.1731
-126.286
118.599
-42.5914
-172.645
275.814
-103.169
-62.9448
144.16
119.9
-45.104
-74.796
-138.474
75.7606
-581.607
367.9
213.707
63.0393
-127.586
64.5462
-179.187
262.01
-68.4807
133.879
-65.398
73.5448
46.3552
-142.508
363.81
-221.302
-119.842
-95.709
215.551
-57.5526
-41.4409
98.9934
338.3
-145.529
-192.771
232.447
-80.0295
-152.418
-379.78
-312.623
-159.473
-50.6076
-93.0474
143.655
115.362
-302.751
187.389
135.732
-70.6574
-111.501
-5.14652
158.216
-416.414
312.507
-94.8998
-161.035
93.6088
-161.825
81.4669
80.3584
338.888
-129.686
161.547
-129.646
-31.9008
-78.3918
-83.4334
53.151
-120.383
67.2321
92.1977
-163.649
115.295
-64.4951
-104.92
169.415
-87.6692
215.78
-128.111
107.243
-27.7485
-79.4945
-269.362
-35.47
124.849
88.7737
-89.3478
10.6903
-99.4481
204.692
-105.244
-96.1596
101.687
-5.52716
-102.001
-78.3494
-96.4132
174.763
483.358
-385.734
-97.6239
416.39
-117.893
132.847
-100.434
-425.692
463.884
-38.1923
-179.192
305.741
-126.55
-233.648
300.62
99.9075
87.305
-72.9337
-114.256
-93.0699
272.827
-141.025
286.394
-145.369
40.9523
49.6592
-90.6115
-287.879
155.255
132.624
119.548
-61.7379
-76.5595
-66.8271
-215.647
-186.487
402.134
139.107
344.252
-455.545
258.017
240.243
-240.243
-88.4787
89.5091
-1.03033
185.062
-102.531
-82.5314
246.001
-540.004
294.002
183.405
154.894
-252.76
356.524
-103.764
115.983
-52.9435
-205.245
130.53
74.7145
156.96
330.238
-487.198
254.695
-118.442
-317.331
160.403
156.929
83.4343
-176.041
92.6063
280.242
152.216
-432.458
-218.465
98.623
86.288
-152.569
66.2813
140.427
-179.115
-169.585
397.655
-183.036
100.044
82.9925
175.862
-105.896
-69.9659
-91.601
363.409
-271.808
333.279
-166.7
-42.8301
105.752
-62.9216
181.166
176.131
-357.297
-206.705
-248.84
-90.7789
349.597
98.941
-185.298
86.357
-205.051
399.467
-194.416
150.322
-66.8875
318.848
-219.515
-99.3332
129.553
-59.036
-220.026
-148.648
80.0161
-620.247
303.837
132.658
493.622
-501.54
7.91828
204.217
189.108
-393.324
115.795
45.7516
-367.559
-121.776
142.59
-149.736
12.1543
-290.058
-20.1843
-119.339
139.523
160.618
-295.678
135.06
110.805
280.336
-134.989
87.9432
47.0462
49.9394
-184.27
49.6033
-88.8222
39.2189
263.497
95.3311
263.14
-174.85
-88.2899
136.202
-78.6937
-389.07
272.179
116.891
-260.077
-360.17
183.965
49.1728
143.789
-454.46
310.672
-57.3568
-82.3427
139.699
35.2216
-127.278
92.0562
291.144
209.839
-2.05271
379.601
-76.7661
-59.4858
422.538
-142.296
67.2277
-120.949
53.7211
-463.221
259.481
203.739
-201.836
-245.159
446.994
-366.486
566.484
-199.999
280.992
146.846
-173.799
249.959
-76.1598
-155.678
256.104
352.047
-277.135
-74.9122
-180.366
291.073
-110.707
-186.232
-152.488
-90.183
-188.538
278.721
73.7934
41.1564
-114.95
178.733
-79.6959
440.408
-378.794
-61.6141
-174.352
104.399
69.9534
82.0414
265.405
-347.446
119.334
-34.1994
347.544
92.8635
-62.6452
148.933
-101.804
-33.1851
-225.966
514.172
-288.206
5.02494
191.614
-196.639
219.65
-386.709
167.059
-82.5029
-41.9445
124.447
289.472
96.9909
-85.6668
-22.9292
108.596
-145.416
132.184
13.2318
-178.089
116.332
61.7574
182.832
384.282
101.366
-42.5556
-267.364
-121.706
228.65
-443.742
413.729
-509.857
96.1276
59.4357
223.315
-31.8285
-191.487
117.881
-64.7298
80.8958
-408.478
-77.9025
-89.0795
166.982
103.765
-10.6498
-93.1153
-116.527
31.0202
122.747
131.871
154.292
-328.428
174.137
-92.9872
163.496
-70.5084
152.343
-357.394
349.478
-234.116
341.916
-82.8089
-357.788
-199.001
-288.291
466.914
-178.623
429.268
-324.303
-104.965
-9.0467
-338.446
347.493
-335.816
-176.546
512.362
-166.294
-7.14996
83.5735
-33.9702
-502.44
261.398
241.042
-180.224
-86.7578
-81.6211
-49.1021
-47.1288
147.778
-90.6177
163.341
-554.651
382.761
171.889
98.2504
-162.746
-24.5251
91.9165
-67.3914
181.596
-146.387
190.796
-313.953
123.157
322.567
-255.576
-66.9912
87.4125
-397.451
310.038
216.498
-97.7092
114.451
255.588
-94.2268
-94.006
109.923
-53.7207
474.892
-299.142
-175.749
-267.324
364.029
-96.7045
-115.952
192.24
282.651
-417.83
31.8672
385.963
-285.165
-185.126
135.929
-211.256
75.3275
-133.09
-73.413
206.503
107.582
211.111
-318.694
43.8136
-264.688
-237.752
-83.1891
-35.1975
118.387
-204.798
326.25
-121.452
479.828
-173.901
407.863
-61.4152
-290.302
166.251
95.789
7.97607
-269.931
-35.6181
305.55
57.007
-373.599
-408.898
137.054
130.888
-17.0472
-113.841
175.32
-268.685
93.3643
-109.256
258.094
-458.717
334.7
-76.3686
-71.4785
497.24
-149.696
-240.596
406.772
-166.176
216.346
-336.89
120.544
469.982
-111.842
44.9771
77.4762
-309.45
135.651
345.433
-189.096
-156.336
-174.702
296.027
-121.325
132.561
347.267
164.385
-268.137
103.751
389.853
-107.226
361.268
128.883
-490.15
329.243
-226.22
-103.023
473.412
-502.335
28.923
125.141
-91.5697
-33.5718
342.371
-237.665
-9.49209
-101.235
-80.3242
-182.737
263.061
38.9105
-112.185
73.2744
-139.844
63.2845
-307.193
474.402
-167.209
-87.2973
-53.8462
-194.611
199.636
110.089
35.5771
-113.297
77.7199
289.009
2.42392
-291.433
-142.741
89.6712
53.0699
-100.808
454.132
175.505
117.763
-143.265
303.883
-236.858
158.567
335.044
51.3132
-160.081
-157.251
16.486
227.153
-246.545
82.4435
-141.497
241.442
-99.9449
57.8417
-125.436
408.353
-204.136
-369.717
376.458
-6.74126
-132.91
494.178
68.5396
-140.567
72.0278
122.211
-68.6201
-142.281
210.901
-151.501
187.732
-71.9369
91.4606
11.7007
-103.161
68.7607
-120.882
52.1209
-247.446
151.248
-100.352
-68.7672
169.119
-267.757
-294.16
128.044
166.116
119.728
-84.5059
48.7529
-113.03
64.2772
50.5384
-183.628
138.365
132.746
-101.016
256.132
-155.116
-138.843
87.8173
51.0254
-74.1076
190.855
-116.747
-375.373
212.971
-179.455
360.621
152.895
-271.824
118.929
237.901
173.421
-411.322
-57.4769
-32.1359
89.6129
331.463
97.8049
327.312
-147.888
-179.424
-157.603
406.19
-248.587
164.815
-70.9645
325.724
-254.76
327.681
121.68
-449.36
474.56
322.647
145.107
-467.753
249.31
-456.015
192.346
-30.903
-161.443
-338.196
185.288
152.908
-112.677
13.1628
99.5141
93.7747
17.8534
-111.628
-69.0069
-68.0507
13.52
-383.237
-356.39
213.881
61.1529
193.166
-254.319
-377.991
307.027
222.711
123.023
-345.734
-61.7064
108.162
-46.4554
-101.334
-143.804
245.139
568.643
-257.293
63.386
136.297
-134.859
-279.039
413.898
-121.77
171.71
-222.891
382.761
-159.87
-352.736
41.0842
311.651
-177.929
-279.175
457.104
-55.943
-78.3495
-564.251
366.721
197.529
301.088
-182.896
-118.191
-123.764
346.475
-169.003
68.6508
111.815
-189.717
139.101
88.8219
-163.312
-490.525
250.997
239.529
-161.078
82.6864
-266.794
97.2898
-292.502
-289.106
-58.1467
-243.673
95.4751
-332.097
236.622
-203.667
-175.673
68.1148
107.558
-242.728
-72.7442
-113.104
-41.1283
154.232
-52.4693
-45.3783
97.8476
-312.352
220.751
7.89325
-82.6361
74.7428
158.353
-190.182
153.406
-365.411
212.005
6.78451
-276.716
-191.896
316.648
-124.752
-234.307
246.461
106.305
-133.159
-89.6215
222.78
397.91
-406.957
105.282
-64.3298
285.386
189.555
-474.942
-79.1897
-81.8885
-78.3072
272.909
364.91
-366.963
97.1998
-3.42511
409.423
-125.042
-284.381
105.378
159.694
-265.072
143.732
-37.0547
-127.084
164.139
266.497
-123.266
-143.231
347.855
41.9989
117.497
-78.5867
-501.729
173.369
68.0999
-136.581
-133.457
71.2583
62.1986
-51.5487
157.568
-106.02
-140.537
-78.4906
219.027
33.6182
-97.2889
63.6707
-126.27
43.7667
174.066
-187.336
13.2702
226.54
-280.249
53.7094
-219.191
78.6538
-88.4995
-78.621
-59.7678
-58.5122
118.28
142.566
183.102
196.913
-225.61
179.25
167.468
-121.83
-45.6389
-372.066
264.527
107.539
226.821
-83.8324
336.231
161.009
335.191
102.811
-438.001
-130.618
-128.983
-537.844
251.048
286.796
219.149
-299.649
80.5004
143.501
119.639
-96.1202
53.2901
-32.4866
95.6228
-63.1362
-268.147
-217.384
485.531
-417.848
441.05
-23.2015
-266.888
107.244
-129.954
-454.552
-21.6543
476.207
209.127
241.147
-450.274
-123.802
-188.779
-146.691
-141.189
111.162
-19.701
-337.154
135.319
-30.3228
164.744
-121.222
-271.243
168.463
102.78
84.1265
68.7323
-130.078
-145.227
275.305
124.796
-89.2185
416.361
-294.552
-121.81
-130.31
346.656
-214.491
-37.1522
457.155
24.126
-114.668
-76.3211
190.989
454.651
-0.197459
-454.454
-87.9196
318.195
-230.276
118.181
82.1678
-200.349
-373.245
220.005
153.241
-131.348
-110.136
-161.107
143.325
-74.7857
-107.36
290.026
-182.666
140.477
138.693
-279.17
-151.138
-54.1063
-246.41
-175.567
421.977
115.847
476.439
-332.702
-143.737
-154.264
150.362
-94.005
-56.3566
37.9257
-94.3705
205.167
-271.561
294.458
-352.605
-402.256
343.063
193.768
-317.57
231.128
180.891
434.147
-203.722
-224.501
161.104
96.1159
82.4231
-94.9028
104.694
-156.243
-271.255
289.156
-17.9014
-276.801
-21.681
76.4938
-142.646
66.1527
115.263
286.486
-158.443
245.695
-133.891
-111.804
-71.3554
129.197
-269.266
120.943
-189.563
311.372
-62.4591
-248.913
-257.331
466.457
484.761
-148.531
-370.162
267.294
102.868
-22.2824
476.934
-218.235
409.248
-86.0407
-203.339
289.38
104.673
-263.488
158.815
12.8333
288.822
-334.61
-247.386
581.996
147.061
-347.941
200.88
-292.789
392.826
-100.036
-123.974
446.62
352.569
-126.384
177.327
-89.568
369.589
-280.021
-79.5931
-63.148
-233.388
151.868
81.5207
177.656
148.594
53.9798
-59.6632
-279.865
339.528
-386.128
-78.9873
-130.159
-198.371
-337.806
230.445
-412.904
412.904
153.759
-334.384
180.625
181.361
-339.68
158.319
232.023
79.3483
53.5735
41.9633
-95.5368
218.572
-371.42
287.709
-465.638
242.415
-40.2274
146.284
157.917
72.7764
198.031
-270.807
124.536
-86.4127
-38.1233
-71.854
-293.484
365.338
105.798
-177.643
71.8452
-59.2569
171.657
-112.4
331.941
4.34778
-79.7058
80.4851
-276.401
321.683
-45.2823
46.0893
146.256
95.8524
16.9901
-112.842
-313.012
-39.7235
36.2088
-170.102