/*--------------------------------*- C++ -*----------------------------------*\
  =========                 |
  \\      /  F ield         | OpenFOAM: The Open Source CFD Toolbox
   \\    /   O peration     | Website:  https://openfoam.org
    \\  /    A nd           | Version:  7
     \\/     M anipulation  |
\*---------------------------------------------------------------------------*/
FoamFile
{
    version     2.0;
    format      ascii;
    class       volVectorField;
    location    "39";
    object      U;
}
// * * * * * * * * * * * * * * * * * * * * * * * * * * * * * * * * * * * * * //

dimensions      [0 1 -1 0 0 0 0];

internalField   nonuniform List<vector> 
30084
(
(1.01275 -0.0150747 1.5817e-22)
(1.00837 0.00433964 7.05709e-22)
(0.988979 -0.00413856 -9.46462e-22)
(0.96706 -0.0680208 2.96874e-22)
(0.997166 -6.17794e-05 1.3879e-22)
(0.945524 -0.0432494 -4.37868e-22)
(1.08628 -0.0740798 6.77254e-22)
(1.01739 -0.0224762 -1.62473e-23)
(1.00233 -0.00224949 2.20549e-23)
(1.0002 -5.59819e-05 5.30781e-24)
(1.02055 -0.0300362 -1.47744e-24)
(0.998344 -0.0197862 -3.53518e-22)
(0.999457 -0.000224764 1.9881e-23)
(0.99997 -1.11178e-05 6.95386e-25)
(1.1159 0.107511 1.91957e-21)
(0.99285 -0.00235789 1.46763e-22)
(0.999817 -0.000993454 -9.7763e-24)
(1.13084 0.0291568 -1.53592e-22)
(0.997521 -0.00212401 -4.7447e-23)
(0.986896 -0.00100248 -2.08575e-22)
(0.999015 -0.000320748 -6.62893e-23)
(1.00219 -0.00224601 7.70201e-23)
(0.988873 -0.00437887 1.04068e-21)
(0.997519 -0.000202528 6.10007e-23)
(0.901582 0.102583 2.64272e-22)
(1.00931 0.00346488 3.80153e-21)
(0.999418 -6.79567e-05 4.51789e-23)
(0.950453 0.0870861 -1.87999e-20)
(1.11946 0.108725 -4.92785e-21)
(0.999299 -0.0107072 -6.78851e-23)
(1.01765 -0.011735 1.12053e-22)
(1.03964 -0.00409863 -8.44316e-22)
(1.00304 -0.158524 3.29646e-21)
(0.99937 -0.0274429 1.8157e-22)
(0.948723 0.0830989 1.5441e-20)
(1.00747 -0.0383237 5.2563e-22)
(1.0602 0.0527104 -1.19468e-21)
(0.966428 -0.0375884 1.23299e-21)
(1.00607 -0.000934576 -3.04709e-22)
(1.00587 -0.000673388 5.80519e-22)
(1.00049 -0.000187876 -1.74143e-23)
(0.988918 -0.0381987 -1.25457e-21)
(0.999838 -0.00096554 -9.58343e-26)
(1.04617 -0.0789913 -2.16077e-21)
(1.00004 -5.84266e-06 -8.04253e-25)
(0.999548 -0.010847 5.0174e-23)
(0.997548 -0.0146883 -1.02985e-22)
(1.00008 -9.67625e-05 2.28854e-24)
(1.00388 -0.00418137 -3.152e-22)
(1.0606 0.0502125 -4.92728e-22)
(1.15414 -0.0546851 4.20697e-22)
(0.970474 -0.059043 -1.42427e-21)
(1.03933 -0.00324241 2.97616e-22)
(0.947436 -0.0426931 -7.28071e-22)
(0.993029 -0.00241638 -1.29244e-22)
(1.12479 0.102618 -3.1455e-21)
(0.996067 -0.00267513 4.71086e-23)
(0.998987 -0.000353629 8.3971e-23)
(1.00145 -0.0256206 -2.56098e-22)
(1.0225 -0.0679607 -9.5429e-22)
(0.999932 -7.75649e-06 1.47275e-24)
(0.997609 -0.00217585 -9.83092e-24)
(1.19676 0.0900094 5.8588e-22)
(1.00776 -0.0373384 -2.94782e-22)
(1.04778 0.104175 9.28521e-21)
(0.924405 0.0288055 3.89895e-20)
(1.00112 -0.0325499 -4.93018e-22)
(0.991871 -0.0168704 4.47727e-22)
(0.944759 0.0184245 1.57744e-20)
(1.00051 -0.000177325 1.12513e-23)
(1.01094 0.0041886 -5.1804e-21)
(0.988863 0.0744963 1.11228e-20)
(1.004 -0.0103914 -1.1738e-22)
(0.919792 0.118195 9.6309e-21)
(0.990466 -0.000769724 6.77969e-22)
(1.13236 -0.0164732 7.91081e-23)
(1.14271 0.152247 5.92972e-21)
(0.966716 -0.021215 2.91801e-22)
(0.999949 -2.45286e-05 -4.31137e-24)
(1.01122 -0.0573602 -9.12863e-22)
(0.945833 -0.000997296 -4.78521e-22)
(1.01885 0.0416874 2.98602e-21)
(1.01303 -0.0157196 -4.73191e-22)
(1 -7.01217e-05 1.37423e-24)
(1.08817 -0.0707534 -1.03304e-21)
(1.27471 -0.0366275 -2.81929e-21)
(1.02804 0.0909043 -1.77317e-20)
(0.999436 -0.000221811 -1.7945e-23)
(0.999475 -0.000200023 -5.25564e-24)
(0.916047 -0.0585997 -1.75981e-21)
(0.999665 -0.0656127 1.71833e-21)
(0.96664 -0.022227 3.28526e-22)
(1.00365 -0.00432611 5.37001e-23)
(1.06245 -0.00244071 -5.01519e-22)
(0.904902 -0.0253068 -1.49374e-21)
(1.03414 0.107508 8.4658e-21)
(1.00694 -0.0851503 2.74762e-21)
(1.00054 -0.000446119 2.78685e-23)
(0.971247 -0.0856182 -2.73726e-21)
(1.10669 0.122342 8.34171e-21)
(0.999946 -2.40943e-05 6.31714e-24)
(0.968095 -0.0137452 -1.76608e-21)
(0.999934 -9.48671e-06 -7.60101e-25)
(1.05207 -0.0148119 -2.44725e-21)
(0.968585 -0.0590882 9.21869e-22)
(1.03549 0.015966 5.31088e-21)
(1.00223 0.0715786 1.70218e-20)
(0.999496 -0.000202061 -4.46694e-23)
(0.999995 -7.87817e-05 -1.6856e-25)
(1.0233 -0.144492 -1.66442e-22)
(0.99921 -0.15768 -2.97566e-21)
(1.05401 -0.0385977 1.65331e-22)
(1.00001 -2.34407e-06 1.0623e-25)
(0.998781 -0.00724212 -1.79681e-22)
(0.999879 -0.00256059 8.13912e-24)
(0.991073 0.0764588 5.89098e-23)
(1.03617 0.0597637 -6.36217e-21)
(0.986057 -0.00900622 -7.13301e-22)
(1.00003 -7.67744e-05 5.87922e-26)
(1.00436 -0.0102761 -9.16053e-23)
(1.24701 0.0640227 2.82666e-21)
(1.00511 0.0122115 8.30228e-21)
(1.18731 -0.00134346 -1.35571e-21)
(0.922643 0.0352086 -3.60725e-20)
(1.00125 -0.000414972 -7.28174e-23)
(1.16868 0.0121581 -9.96591e-23)
(1.12789 0.0316225 -8.59687e-22)
(1.02724 -0.0640314 7.15805e-22)
(1.00462 -0.00394842 -2.83253e-22)
(1.00003 -0.000507364 -4.14425e-25)
(1.04495 -0.0766482 7.71185e-22)
(1.14564 0.149918 3.33293e-21)
(0.999961 0.12784 1.71379e-20)
(1.20104 -0.0128159 -5.86128e-22)
(1.05042 -0.0148399 2.06842e-21)
(1.01714 -0.0113526 2.13809e-21)
(1.05085 0.160863 1.28394e-21)
(0.966364 -0.00102479 2.44974e-21)
(1.22171 -0.164577 1.00255e-20)
(1.10876 0.118963 -6.37172e-21)
(1.16536 0.0153816 2.03456e-22)
(0.923095 -0.00725706 -1.92413e-21)
(0.940901 -0.061113 5.81334e-22)
(1.00001 -2.10811e-06 -4.76809e-26)
(0.999989 -4.41601e-06 4.48754e-25)
(0.997091 -0.000102711 -1.08288e-22)
(0.997753 -0.0143722 2.1078e-22)
(0.996392 -0.11786 -2.23173e-21)
(1.20066 -0.113787 4.25922e-21)
(1.18623 0.128071 3.24658e-21)
(1.03529 -0.0180759 1.08785e-21)
(1.0216 -0.021005 3.48207e-22)
(1.00049 -0.000724871 4.24987e-23)
(0.999852 -0.0002543 5.63617e-24)
(1.00123 0.01883 -1.78936e-20)
(1.00062 -0.00177699 5.01929e-24)
(0.992439 -0.0136848 4.96779e-26)
(1.06078 0.163007 -3.81533e-21)
(1.00351 0.0393244 -1.90955e-20)
(1.1555 -0.0494928 -7.83276e-22)
(0.948534 -0.00377371 8.14931e-22)
(0.968189 -0.0663924 2.18987e-21)
(1.12366 0.106416 8.00548e-22)
(0.999948 -5.16788e-05 1.38109e-24)
(0.999988 -4.38759e-06 -1.68309e-25)
(0.986002 -0.00946672 2.56959e-22)
(0.942455 -0.0596715 -3.18203e-21)
(1.00006 -0.000258953 -1.78981e-24)
(1 -7.48569e-05 6.73961e-25)
(0.992093 -0.00616494 -8.65967e-23)
(1.00004 -0.000492302 3.60573e-25)
(1.00668 -0.0067383 -1.57492e-22)
(1.0577 0.165309 4.3094e-21)
(0.966878 -0.000543707 -2.07362e-21)
(1.08253 -0.124345 -1.03524e-21)
(0.994108 -0.000117474 4.40828e-22)
(1.00244 -0.00310716 1.64077e-23)
(0.967181 -0.0135463 2.91562e-21)
(0.999129 -0.00721465 -1.65868e-23)
(1.18596 0.00990931 4.00543e-22)
(0.999979 -1.06917e-05 2.40489e-24)
(1.01947 -0.0435496 -3.94571e-22)
(1.02979 0.0927687 6.27195e-21)
(0.99217 -0.0156573 -2.538e-23)
(1.21415 -0.164975 -9.63755e-21)
(1.02823 0.0512311 -5.61396e-21)
(0.992634 -0.0033838 -6.42071e-22)
(0.97864 -0.0194037 7.90959e-22)
(1.00437 -0.00397413 4.30201e-22)
(0.999359 -0.00997213 -1.06465e-22)
(0.999695 -8.28513e-06 5.28177e-24)
(1.00795 -0.0204097 5.5473e-23)
(0.918366 0.0176078 1.51335e-20)
(1.00075 0.0152653 1.38026e-20)
(0.982946 -0.00769501 1.95288e-23)
(0.992786 -0.0134627 -2.83817e-22)
(0.983453 0.0376618 -1.50923e-20)
(1.01163 0.032478 2.57248e-21)
(0.90709 -0.0249599 1.83747e-21)
(1.00131 -0.000554053 -5.692e-23)
(1.10995 -0.0905291 1.40294e-21)
(0.975493 -0.114739 2.92243e-21)
(0.998701 -0.0201609 1.68241e-22)
(1.00096 -0.00122011 -9.01855e-23)
(1.05281 0.163985 1.79955e-21)
(0.99235 -0.00617129 -5.81813e-23)
(1.00772 -0.00600011 -1.78052e-22)
(0.993719 -0.117751 2.91042e-21)
(1.02473 -0.14838 4.08384e-22)
(0.999963 -5.30675e-06 5.34799e-25)
(0.978206 0.104216 -1.74552e-20)
(0.998837 -2.6738e-05 -1.09121e-24)
(0.999999 -5.91512e-05 3.54217e-25)
(0.999392 -0.000237178 7.62818e-24)
(1.00344 -0.065273 -6.29537e-22)
(1.18209 0.0979617 -2.48896e-21)
(1.02045 -0.0424616 4.19055e-23)
(1.00748 -0.00560903 -1.21947e-22)
(0.997546 -0.000278286 1.51843e-22)
(0.909079 -0.0277733 -3.64722e-22)
(1.00004 -0.000539607 -4.52719e-25)
(1.00055 -0.001812 5.29126e-25)
(0.997354 -0.000236507 -1.00016e-22)
(1.02791 0.0018731 4.94699e-21)
(0.996997 -0.00461183 -3.26089e-23)
(0.998794 -0.00672514 5.34607e-23)
(1.02875 -0.000990155 2.43997e-21)
(1.00014 -0.000440413 3.66555e-24)
(1.00003 -4.97921e-06 2.10445e-25)
(1.00561 -0.000676616 6.13398e-23)
(0.972271 -0.0423825 -1.07881e-21)
(0.970695 -0.000515303 -1.01579e-21)
(0.994471 -0.000445842 -4.66899e-22)
(1.01199 0.00331161 4.28615e-21)
(0.981271 -0.00141545 4.89277e-22)
(1.02172 -0.02024 -3.40389e-22)
(0.999969 -1.24259e-05 1.94951e-24)
(0.996626 -0.00304713 -1.82522e-22)
(1.0009 -0.00121115 9.73375e-23)
(1.10747 -0.0866163 1.39317e-21)
(1.13064 -0.209453 7.24887e-21)
(0.99844 -0.000143352 7.96763e-23)
(1.00052 -0.000644529 -3.29005e-23)
(0.998675 -0.00656848 -1.80064e-23)
(1.00418 -0.00917427 -2.26871e-22)
(0.987164 -0.000738712 -8.9051e-22)
(0.99995 -4.91643e-05 -7.29166e-26)
(1.26852 -0.0369517 -5.78513e-21)
(1.00005 -0.000551943 1.67404e-25)
(1.0275 0.00170954 -3.48544e-21)
(0.996193 -0.00267647 -9.50257e-23)
(1.00016 -0.000427298 1.64294e-24)
(1.03438 0.0161995 -3.37625e-21)
(0.967366 -0.111068 -2.90503e-21)
(1.00028 -4.81335e-05 1.78288e-23)
(1 -1.23185e-05 1.87902e-25)
(0.922845 -0.00519516 -2.18583e-21)
(1.10292 -0.201567 -1.09874e-21)
(0.990034 -0.00991663 -6.93412e-23)
(1.02652 -0.0658175 -1.90722e-22)
(1.03632 -0.0186481 -1.77865e-22)
(1.03469 0.0908571 7.73473e-22)
(1.00009 -9.12672e-05 6.46767e-25)
(0.972794 -0.0413919 1.09011e-21)
(1.22444 0.0336609 1.44833e-21)
(0.966516 0.0570504 3.6314e-22)
(0.992041 -0.015319 2.06236e-22)
(1.02731 0.0496701 6.86611e-21)
(1.13094 -0.0129513 9.35591e-23)
(0.999882 -0.00281785 -9.70347e-24)
(0.840461 0.0496453 1.9939e-20)
(0.999388 -0.000501063 -5.16082e-23)
(1.08326 -0.128893 -1.34359e-21)
(0.910745 -0.0276737 2.30061e-21)
(1.00259 -0.00293389 -9.05408e-23)
(1.18019 0.0576885 1.40592e-21)
(0.989965 -0.00111803 -5.3497e-22)
(1.00168 0.13706 1.22322e-20)
(0.996007 -0.000307705 4.33146e-23)
(0.979381 -0.0208922 -4.15312e-23)
(0.999777 -0.00256038 -4.79459e-23)
(1.08895 0.140828 1.91459e-21)
(1.00095 -0.020263 4.41521e-23)
(1.03144 0.107827 5.23916e-22)
(0.999434 -5.25587e-05 -1.97348e-23)
(0.993216 -0.0022342 -2.0507e-22)
(0.963316 0.125109 -7.35582e-21)
(1.03334 0.00203612 -4.10347e-21)
(1.02854 -0.000704069 2.83788e-21)
(0.967153 -0.0547655 2.59733e-21)
(0.999836 -3.63337e-05 5.52923e-24)
(1.00406 -0.00886784 -2.53479e-23)
(0.999812 -0.00108517 -1.77745e-23)
(1 -5.57978e-05 2.52442e-25)
(1.05819 0.0126673 1.14214e-21)
(1.00004 -5.68411e-06 2.58947e-26)
(0.976262 -0.0186689 1.85824e-21)
(1.22353 0.0288228 -1.42335e-21)
(0.899487 0.107153 -1.83058e-20)
(1.0026 0.128299 -2.7307e-20)
(0.969508 -0.0947037 8.86632e-22)
(0.98546 -0.037498 6.81524e-22)
(0.972188 -0.00198342 4.83967e-22)
(1.04373 -0.0374163 5.59915e-22)
(1.00857 -0.0200801 -1.15757e-22)
(0.978543 -0.0203432 -1.0919e-21)
(0.972264 -0.103975 3.98623e-22)
(1.03298 0.0927713 -1.18011e-20)
(0.999562 0.012847 2.4697e-20)
(0.998544 -0.000174883 4.38409e-23)
(1.00337 0.0727414 -2.33196e-20)
(1.05761 0.011003 3.94359e-22)
(1.18964 0.00425159 3.94766e-22)
(1.01633 -0.0171944 1.64349e-22)
(1.00206 -0.018534 -2.25829e-22)
(1.0347 -0.0577592 -4.91205e-22)
(0.993713 -0.00215587 -4.85858e-22)
(0.996924 -0.000770759 -3.18337e-23)
(0.999938 -7.36537e-06 7.86025e-24)
(0.999184 -0.0102294 1.55806e-22)
(1.11219 -0.0238545 1.25875e-22)
(1.08878 0.144432 -3.08607e-21)
(1.00187 -0.00160145 4.24267e-23)
(0.967656 -0.0350816 -1.46442e-21)
(1.01854 -0.017323 -5.20425e-22)
(0.999961 -1.76632e-05 -7.17867e-25)
(0.970776 -0.099146 -1.42198e-21)
(0.876073 0.084251 -9.25955e-21)
(0.99275 -0.00578853 7.2196e-22)
(0.998788 -0.00537004 4.92969e-23)
(1.01698 -0.0169036 -1.02516e-22)
(1.01054 -0.055672 1.16687e-21)
(1.08134 0.0451741 1.43669e-21)
(0.999696 -0.0115878 -2.47468e-23)
(0.999966 -5.98673e-05 4.94631e-24)
(1.00001 -3.35401e-06 3.98119e-26)
(0.996882 -0.00070235 -3.52247e-23)
(0.961558 0.124233 1.06231e-20)
(1.05925 -0.024432 5.03488e-22)
(1.13656 -0.204073 -1.88725e-21)
(1 -1.23123e-05 3.16707e-26)
(1.10124 -0.208353 7.11368e-22)
(1.0845 0.0116815 -1.64945e-21)
(0.99396 -0.000196747 -2.18388e-22)
(0.913918 -0.0100183 -2.72669e-21)
(0.998883 -0.00527268 -4.98835e-23)
(0.999508 -0.00022636 -3.27508e-24)
(0.97331 -0.0372964 -3.23103e-22)
(1.00107 -0.00133893 -4.36343e-23)
(1.18783 0.015035 -2.56146e-22)
(1.01051 -0.00117974 -1.29022e-21)
(1.1478 0.130137 -2.98672e-21)
(0.999924 -0.00278002 1.25116e-23)
(1.00567 -0.0161502 3.91278e-23)
(1.00496 0.0108124 -1.12519e-20)
(1.24282 0.0613365 -9.75148e-22)
(1.00049 -0.00068244 -2.50082e-23)
(1.00051 -0.00060446 2.44208e-24)
(0.992381 0.0896852 1.10183e-21)
(1.00138 -0.0665907 -3.39969e-22)
(0.999479 -0.011423 3.0187e-23)
(1.0104 0.0355066 1.34965e-21)
(0.976651 0.019301 2.93708e-20)
(1.15707 -0.0586801 -1.39028e-21)
(1.00099 -0.0313929 -1.48094e-22)
(1.17816 0.0969017 2.48858e-21)
(0.999128 -8.57477e-05 -3.3295e-23)
(0.989635 -0.00517434 1.88152e-22)
(0.996092 -0.0003236 -1.20608e-22)
(1.01324 0.0312934 1.17066e-23)
(0.999985 -0.000890788 1.85128e-24)
(1.01016 -0.00144222 1.31815e-21)
(1.2183 -0.0867751 1.37085e-22)
(0.998303 0.121317 2.66232e-20)
(0.922746 0.121823 -4.26695e-21)
(0.992863 -0.00337315 2.62854e-23)
(0.989719 -0.00969079 2.07117e-22)
(1.04523 0.10632 -7.37225e-21)
(1.02356 -0.0701132 1.37236e-21)
(0.99994 -8.81973e-06 -7.6635e-24)
(1.16844 0.139584 5.99911e-21)
(1.02699 0.00234066 -1.48195e-21)
(1.02644 0.00223558 -1.00346e-21)
(0.993646 -0.0165622 -3.08386e-22)
(1.02085 -0.00199116 -2.01896e-21)
(0.954083 0.111776 4.19479e-21)
(1.20044 -0.127727 -1.25289e-21)
(0.979973 0.111338 4.27941e-21)
(0.992147 0.110815 -7.5634e-21)
(0.999997 -7.52902e-05 5.38524e-25)
(1.10866 -0.0239427 -2.34479e-22)
(1.1979 -0.121757 8.35086e-22)
(0.996856 -0.00465689 8.4728e-23)
(1.00191 -0.00171646 -6.98687e-23)
(0.971934 0.0228991 7.00749e-21)
(1.06132 -0.0248655 -6.44313e-22)
(1.00032 -8.88283e-05 4.10276e-24)
(0.984978 -0.0802296 -3.3449e-21)
(0.975019 -0.118134 -1.37672e-21)
(0.993367 -0.0022942 2.88377e-22)
(0.999863 -0.000246814 -7.07205e-24)
(1.03841 0.125058 -1.22805e-21)
(1.03613 0.0578079 1.07439e-20)
(1.00006 -0.000605565 -2.74151e-25)
(1.0048 -0.00425909 5.56256e-23)
(1.00616 -0.00424143 3.02051e-22)
(1.23214 -0.0257988 4.10915e-21)
(0.967062 -0.0532661 -2.3483e-21)
(1.00007 -0.000719779 -9.54208e-25)
(0.999985 -3.05765e-06 -2.32541e-25)
(1.00057 -0.000195194 6.64583e-24)
(1.07955 0.0458155 -1.40956e-22)
(0.966302 -0.0362594 -1.17687e-21)
(1.00184 0.0380186 5.44844e-21)
(0.931497 -0.0686701 1.39948e-21)
(0.986475 -0.0372223 -7.14914e-22)
(0.969798 -0.00155014 -1.93146e-21)
(1.01198 0.0347471 -6.64355e-21)
(1.19265 0.0864074 7.56046e-23)
(0.998589 -0.000185944 8.02865e-23)
(1.00928 -0.0067978 -3.23046e-22)
(1.00099 -0.00132518 4.94385e-23)
(0.978655 0.121338 -1.07545e-20)
(0.968805 -0.0326404 6.28734e-22)
(1.00127 -0.000337292 -2.38421e-23)
(0.990904 -0.0045894 -2.58723e-22)
(1.16668 0.0220037 6.58228e-22)
(0.999861 -0.0124484 -6.70138e-23)
(0.986209 -0.016226 -1.44055e-22)
(1.00027 -0.000168912 -1.22795e-23)
(1.00028 -6.47408e-05 -5.41822e-25)
(0.872739 0.0900854 1.39421e-20)
(0.990043 -0.00166592 -3.32611e-22)
(0.99428 -0.00592882 2.98451e-22)
(0.999562 -0.00227242 -4.09229e-23)
(0.99915 -6.55753e-05 -4.5739e-24)
(1.04057 0.0896503 -4.02277e-21)
(1.22398 -0.0835048 2.75171e-22)
(0.985988 -0.0568043 4.33986e-22)
(1.00002 -2.47365e-06 -5.78115e-26)
(1 -4.46574e-05 2.27636e-25)
(0.967526 -0.033925 1.65768e-21)
(0.991806 -0.00243168 6.83565e-23)
(0.993765 -0.00275206 -3.95931e-23)
(1.01676 -0.00591067 6.24862e-22)
(1.00687 -0.00287102 1.08423e-22)
(1.00133 -0.0207166 -7.96088e-23)
(1.13495 0.0144693 1.51555e-21)
(0.976769 -0.00591934 -4.09707e-22)
(0.981697 0.109425 -3.64256e-21)
(1.01951 -0.0302428 -1.20133e-22)
(1.00029 -0.000169586 1.368e-23)
(0.967953 -0.0931645 1.29887e-22)
(0.982745 -0.0505247 -1.49135e-21)
(1.1705 0.0565903 1.05439e-21)
(0.996642 -0.00769777 -9.00756e-23)
(0.9926 -0.0661174 -5.09223e-22)
(0.999978 -7.29542e-06 1.30424e-24)
(0.934467 0.0897004 -1.46481e-20)
(1.01765 -0.00244983 1.13929e-21)
(1.0001 -0.000289025 -3.54611e-24)
(0.918205 0.0240664 -1.96303e-20)
(0.984633 -0.0572612 9.6612e-22)
(0.999977 -8.04793e-06 2.02673e-25)
(1.00173 -0.00156574 2.06355e-23)
(0.968978 -0.0974048 -7.74634e-22)
(1.05185 -0.0375711 1.86843e-22)
(1.05551 -0.00722931 1.41717e-21)
(0.999991 -4.47011e-06 3.73396e-25)
(0.989987 -0.000851385 2.64694e-22)
(1.03539 -0.0562157 8.59486e-22)
(0.993554 -0.00210302 3.98667e-22)
(0.999458 -6.02204e-05 -1.07175e-22)
(0.989847 -0.00534021 4.93206e-24)
(0.980314 0.0401323 1.73759e-21)
(0.991678 -0.0164006 -3.71667e-22)
(0.986811 -0.0158586 1.05337e-22)
(1.00133 0.0220404 -5.51495e-21)
(0.996687 -0.00287728 9.48542e-23)
(0.973817 0.122787 -1.32839e-21)
(0.999976 -7.92559e-06 -6.58548e-25)
(0.989241 -0.0371863 2.90593e-22)
(0.991779 -0.111744 3.4466e-21)
(0.994088 -0.0663213 8.68955e-22)
(1.22751 0.0159057 5.62912e-22)
(0.998656 -0.00703974 1.20394e-22)
(1.0135 -0.0290963 2.84829e-23)
(0.999907 -0.00299612 2.30177e-24)
(0.979688 -0.0295858 -8.25177e-22)
(1.0545 -0.04088 4.37059e-23)
(0.999963 -1.67598e-05 3.72763e-24)
(1.00002 -1.35105e-06 -9.66037e-26)
(0.992217 -0.000545255 1.8042e-22)
(0.981911 0.078919 1.11803e-20)
(1.01693 -0.0233784 5.80793e-22)
(1.00315 -0.00437899 -8.72115e-23)
(0.909131 -0.0522228 1.88479e-21)
(1 -1.09722e-05 9.43364e-26)
(1.00118 -0.00146205 -7.93205e-23)
(0.999957 -0.000848921 -1.2297e-24)
(1.01844 -0.0221661 6.64642e-22)
(0.979338 -0.0218217 1.45669e-22)
(0.999544 -0.000353419 1.35899e-23)
(0.992186 -0.0146054 1.42489e-22)
(0.984608 -0.00944169 -1.51011e-22)
(1.00122 -0.000202403 -6.57512e-24)
(0.999976 -8.76774e-06 -4.07422e-25)
(1.21265 0.0531411 -6.84807e-22)
(0.999608 -0.00223384 4.40993e-23)
(1.08342 0.00607166 1.23405e-21)
(1.01108 0.119379 2.78341e-20)
(1.04144 0.104751 -6.72424e-21)
(1.00221 -0.0261945 -3.03147e-22)
(1.00673 -0.00260605 -3.58618e-23)
(1.02122 -0.00157485 1.23757e-21)
(0.999968 -0.00306206 -2.61247e-24)
(0.997661 -0.0133819 1.49163e-22)
(1 -1.98535e-05 3.66999e-25)
(0.989776 0.111053 -5.58677e-22)
(0.985336 -0.0214739 2.04516e-22)
(1.01644 -0.00546283 -4.46625e-22)
(0.977315 -0.00613357 8.52089e-22)
(1.00507 -0.0159287 4.57701e-24)
(0.996846 -0.00756274 1.96656e-22)
(0.999877 -0.000252901 1.69807e-24)
(1.00002 -1.44056e-06 -5.6849e-25)
(0.994478 -0.00590058 -2.17354e-22)
(1.06309 -0.00405967 -7.75918e-22)
(1.00367 0.0410883 8.56595e-22)
(1.00147 -0.00059656 -9.69596e-23)
(0.97368 -0.0853469 -7.14417e-22)
(0.968632 -0.0316763 -2.76832e-22)
(0.99024 -0.000665889 -9.91797e-22)
(1.18413 0.124852 -2.03868e-21)
(0.998425 -0.00122557 -4.79466e-23)
(1.00532 -0.0180248 -9.18304e-23)
(0.993271 -0.00362936 2.01452e-22)
(0.999887 -0.000243645 1.41707e-24)
(0.970188 -0.102013 8.96459e-22)
(1.00152 0.0325941 -8.56964e-21)
(1.02834 0.0456795 -7.0807e-21)
(0.971307 -0.020951 -1.34303e-22)
(1.00107 0.0309113 -3.81222e-22)
(1.0001 -0.000271306 6.65746e-24)
(1.00002 -1.56044e-06 1.66509e-25)
(1.16749 0.136682 -2.29771e-21)
(1.1759 0.0595706 -7.58615e-22)
(0.920118 0.0912482 -7.1594e-22)
(1.01798 -0.111014 2.5972e-21)
(0.970145 -0.00213937 -6.27835e-22)
(1.1625 0.0257789 -8.74582e-22)
(1.0014 -0.000621366 1.09769e-22)
(0.993034 -0.00489776 1.15139e-22)
(1.00054 -0.000207111 -6.35514e-24)
(0.986611 -0.000949075 -2.1148e-22)
(0.985617 -0.0175108 -2.9929e-22)
(0.999994 -3.99347e-05 -1.40754e-24)
(0.998941 -4.14114e-05 1.89854e-23)
(0.998026 0.118817 -2.60206e-20)
(0.999844 -0.000882187 1.62478e-23)
(0.941906 0.0830338 1.84237e-20)
(1 -1.86592e-05 -2.80773e-25)
(1.22056 0.0918606 3.54273e-22)
(1.08401 0.0041815 -2.64099e-21)
(1.13341 0.016941 -1.6927e-21)
(1.00125 -0.000588839 6.5349e-24)
(1.00022 -5.1414e-05 1.08213e-23)
(0.986015 0.0749763 -1.70372e-20)
(1.08549 0.00943522 5.39116e-21)
(0.991526 -0.114394 -3.13367e-21)
(1.01947 0.0435843 3.21621e-21)
(0.998702 -0.0269835 1.25588e-22)
(0.983111 -0.00724657 -2.20085e-22)
(0.995025 -0.000278449 -1.20194e-22)
(1.09118 0.164329 -1.38574e-20)
(0.97064 -0.0377694 1.0403e-21)
(1.04383 -0.0354738 -3.8823e-22)
(0.992509 -0.0144484 -8.19592e-23)
(1 -1.09612e-05 -1.30455e-27)
(0.998441 -0.00115731 -4.07714e-23)
(1.00735 -0.00725831 1.87517e-22)
(0.97654 -0.0109804 1.08616e-21)
(0.972109 -0.0210816 2.01808e-22)
(0.944882 -0.0605791 -3.09734e-22)
(0.976299 -0.0116523 -8.23981e-22)
(1.01859 0.00316787 5.79587e-22)
(0.99742 -0.000178774 2.50786e-24)
(0.918345 -0.0591368 9.77725e-22)
(0.982148 -0.0012385 -3.02389e-22)
(1.00005 -0.000261714 3.51344e-25)
(0.984505 -0.000984021 -2.08714e-22)
(1.04542 -0.0386264 -5.81353e-22)
(1.01776 0.00335946 -3.20815e-21)
(0.967818 -0.0382447 -2.5732e-22)
(0.999985 -8.11251e-07 -6.11173e-27)
(0.978328 -0.0223741 2.19437e-22)
(1.00347 -0.0185876 2.59879e-23)
(1.00169 -0.00145318 2.65347e-23)
(1.2235 -0.111235 -3.78696e-21)
(1.00134 0.0296844 -1.98439e-20)
(1.0011 -0.00144424 7.35917e-23)
(0.98478 -0.000742175 2.73014e-24)
(1.14801 -0.0634862 1.31379e-23)
(1.02902 0.000831948 4.97034e-21)
(0.99229 0.0253681 -1.88203e-21)
(1.00227 -0.00306289 2.36021e-23)
(1.00212 -0.0273264 9.4532e-23)
(1.07547 0.128466 -2.22226e-21)
(1.01431 0.028071 -1.65576e-20)
(0.99062 -0.0368982 7.7178e-22)
(1.00581 -0.00425108 -3.38153e-23)
(0.939156 -0.0729259 1.43072e-21)
(0.999997 -5.6152e-06 2.78031e-25)
(0.933297 -0.00307324 -9.84691e-22)
(1.0001 -8.49892e-05 1.35391e-24)
(1.14554 -0.0667495 -3.39016e-21)
(0.999965 -3.78776e-06 -4.16458e-25)
(1.00003 -7.49729e-05 3.96887e-25)
(1.00203 -0.0306918 -1.14403e-22)
(1.19565 0.0953571 -1.2078e-21)
(1.02193 0.147876 1.15789e-20)
(1.04968 -0.0388645 -8.88702e-22)
(1.01775 -0.0175972 3.46089e-22)
(0.999999 -4.27936e-06 -8.39907e-26)
(0.992482 -0.00583689 -3.89675e-22)
(1.0001 -2.60535e-05 -1.04539e-24)
(0.996159 -0.00306952 1.35813e-22)
(1.00003 -6.95875e-05 -3.02559e-25)
(1.05506 -0.00522671 -4.41426e-21)
(0.999432 -0.000589745 -5.3136e-23)
(1.05017 0.0623347 7.01556e-21)
(0.999851 -0.00026973 -1.06825e-23)
(0.983749 -0.00706487 -3.72184e-22)
(0.944559 -0.0016226 2.30238e-21)
(0.994763 -0.000384236 -1.55181e-22)
(0.986824 0.0389914 1.80831e-20)
(0.977888 -0.000981032 5.67271e-22)
(1.06467 -0.129802 2.27769e-22)
(0.993222 -0.00513383 5.97679e-22)
(1.0284 -0.00227109 -1.0333e-21)
(0.970232 -0.0873322 3.1373e-21)
(1.02245 -0.00144898 -3.45831e-21)
(1.06747 -0.0785789 -8.73872e-23)
(0.999985 -2.50813e-06 6.03799e-26)
(1.00055 -0.0259482 1.04763e-22)
(0.995106 -0.000367399 1.8916e-23)
(1.0003 -0.000114278 8.31755e-24)
(1.0001 -2.21341e-05 1.70074e-24)
(1.09432 0.166428 1.5064e-20)
(0.993975 -0.00275821 3.34022e-22)
(1.02842 0.00178516 5.67411e-21)
(1.003 -0.0279033 1.15979e-22)
(1.00104 -0.000379218 2.52517e-23)
(1.02753 -0.0083424 -3.79063e-21)
(1.00019 -4.83953e-05 -2.35007e-23)
(0.999975 -4.58212e-06 -5.78051e-26)
(0.934178 -0.00409029 7.59201e-22)
(0.995714 -0.00156002 1.50964e-22)
(1.00003 -6.76939e-05 5.76467e-25)
(1.05101 0.104894 5.02761e-21)
(0.887361 0.0734098 -2.5989e-20)
(0.999749 -0.000285632 2.57943e-23)
(0.947212 -0.00325522 -6.33103e-22)
(1.00002 -1.73655e-06 1.21763e-25)
(0.95101 0.109405 -1.70569e-20)
(1.22342 0.0957457 2.69936e-22)
(0.967421 -0.0696117 -2.4588e-21)
(1.00006 -0.000695888 -1.0743e-24)
(1.04214 -0.0343914 9.43864e-22)
(1.03385 -0.0010698 -1.43118e-21)
(1.03412 0.00219035 4.21345e-22)
(1.05698 -0.00765041 -5.47926e-22)
(0.999566 -0.00239488 -6.435e-24)
(0.999841 -0.00105769 1.41344e-23)
(0.9829 -0.0215143 -6.48618e-22)
(1 -9.72794e-06 2.58788e-25)
(1.00001 -1.3966e-06 -3.22914e-26)
(0.969375 -0.0371987 -6.10707e-22)
(1.00866 -0.083605 -1.3719e-21)
(0.946619 -0.0592287 -7.83625e-23)
(0.907198 0.102985 -5.51859e-22)
(1.00024 -3.1429e-05 -1.00251e-23)
(1.04092 -0.0981242 -2.9885e-21)
(1.00898 -0.00639072 -3.31932e-22)
(0.999976 -5.07241e-06 6.64079e-25)
(0.998808 -0.00499761 -1.07511e-22)
(1.00004 -0.000588796 -4.26769e-25)
(0.995027 -0.016706 2.32175e-22)
(1.00005 -1.24986e-05 9.2359e-25)
(1.06936 -0.0762465 -2.10373e-22)
(1.02206 -0.00178164 3.35317e-21)
(0.975266 0.120731 3.74163e-21)
(1.0279 -0.00220704 3.88259e-21)
(0.999669 -0.000279596 2.00516e-23)
(1.00055 -0.000486902 -2.42893e-23)
(1.2351 -0.0312739 -4.19177e-21)
(1.02848 0.00142936 -4.56569e-21)
(0.996222 -0.000501819 1.36388e-22)
(1.00002 -2.07274e-06 2.68226e-25)
(1.06583 0.0960829 -8.33336e-21)
(1.19974 -0.176448 -1.71229e-21)
(1.01736 -0.108228 -1.16083e-21)
(0.981636 -0.0010564 -1.59322e-22)
(0.999979 -2.53651e-05 1.34394e-24)
(0.999673 -0.000263536 -1.173e-23)
(1.20836 -0.175411 4.80778e-21)
(1.00526 -0.0661256 -3.69015e-22)
(1.0364 0.0347145 1.00919e-21)
(0.981279 0.105868 1.57087e-20)
(1.06156 -0.126672 1.68757e-21)
(0.998478 -0.000106679 -2.50508e-23)
(0.999979 -1.17661e-05 -1.56281e-24)
(0.956412 -0.0762622 2.43307e-21)
(0.99329 -0.150927 -3.49893e-21)
(0.999759 -0.000295979 1.38956e-23)
(1.01414 -0.0281599 2.27314e-22)
(0.990922 -0.0358427 -1.37114e-22)
(0.994293 -0.00295418 1.31947e-22)
(0.998678 0.0243428 -1.43611e-20)
(0.998445 -0.000689684 8.92654e-23)
(1.07496 -0.0500821 -4.04351e-23)
(1.14196 0.155636 -6.08882e-21)
(0.990387 -0.00433637 -3.7764e-22)
(0.91812 0.0861546 -2.59954e-21)
(0.926168 0.0410593 8.24135e-21)
(0.999966 -6.33355e-05 -4.98215e-24)
(0.999968 -0.000928987 -1.64134e-24)
(0.978166 -0.00130324 -3.63304e-22)
(1.01563 -0.00539554 -8.08718e-22)
(0.949587 -0.00298629 1.32648e-21)
(1.00634 -0.00526151 -3.46673e-22)
(0.990741 -0.00434459 3.53266e-22)
(0.999317 -0.000629215 -4.02704e-23)
(0.959156 0.109957 -3.03257e-21)
(1.05108 0.0601144 -1.09371e-20)
(1.00278 -0.00296104 6.09445e-23)
(0.847376 0.0468329 -5.10579e-21)
(1.00002 -1.29087e-06 -1.71127e-25)
(1.02553 0.00783061 -7.92344e-21)
(1.01661 -0.138632 2.52929e-21)
(1.04418 -0.0970674 1.16605e-21)
(1.00011 -0.000263515 -3.26454e-25)
(0.946976 -0.00164357 1.09055e-21)
(1.02288 0.00686912 4.45959e-21)
(1.01525 -0.00578916 6.68897e-22)
(1.03299 -0.000103549 1.98694e-21)
(0.999473 -4.72196e-05 7.55414e-23)
(0.999425 -0.000628652 4.81336e-23)
(1.03893 -0.053595 2.29138e-22)
(0.995786 -0.00168031 -4.34149e-22)
(0.984386 -0.0159745 -7.07817e-22)
(0.99895 -0.00452494 6.37906e-24)
(1.07661 0.0516041 5.53584e-21)
(1.00033 -0.0270905 -7.15004e-23)
(0.993946 -0.00628732 7.53409e-24)
(0.903145 -0.044555 -2.75924e-21)
(0.994465 0.0897406 1.81002e-21)
(1.13275 -0.007596 -1.05782e-21)
(1.02694 -0.00804792 3.04811e-21)
(0.999528 -0.000226926 1.4474e-23)
(0.999392 -0.000410489 6.51626e-24)
(0.978639 -0.0293144 1.65851e-21)
(1.00121 -0.00157329 -5.91698e-23)
(0.996841 -0.000883295 -2.46675e-23)
(0.99998 -2.40331e-05 -5.08734e-25)
(0.999613 -0.00243934 1.20942e-24)
(1.02223 0.00629563 -1.73474e-21)
(0.984991 0.0781085 -1.63205e-20)
(0.999855 -1.87842e-05 3.30482e-24)
(1.11137 0.157292 -1.26203e-20)
(0.999994 -5.01315e-05 5.93867e-25)
(0.99604 -0.00363874 1.84633e-22)
(0.999991 -0.000118341 6.63844e-25)
(1.00636 -0.00455333 -1.53862e-22)
(1.21684 0.0516088 5.54098e-22)
(0.999956 -5.30425e-05 3.8549e-25)
(0.999955 -5.68349e-05 2.79578e-24)
(0.929972 -0.0696848 -1.33682e-21)
(1 -9.72181e-06 7.13692e-28)
(1.06044 -0.00663409 4.60397e-21)
(0.989427 -0.0577234 1.39138e-21)
(0.999971 -0.00081561 1.45241e-24)
(1.06806 0.0783365 -6.4666e-21)
(0.999999 -3.58766e-05 -4.91133e-25)
(0.999533 -4.86548e-05 6.62595e-23)
(0.9999 -4.3988e-05 1.07701e-25)
(0.994168 -0.00629288 -1.11954e-22)
(0.999599 -0.00194427 -2.10348e-23)
(0.99237 -0.000413818 -1.21319e-22)
(1.04287 -0.163599 -2.9564e-22)
(0.999644 -0.00189258 1.40941e-23)
(1.00511 -0.00427101 -1.19432e-22)
(0.999974 -3.39905e-06 -2.4592e-25)
(1.02371 0.145454 -2.25663e-20)
(1.07334 -0.0521043 -1.79546e-22)
(1.13591 -0.00700943 2.78515e-23)
(0.953455 -0.00885259 1.42524e-21)
(0.970802 -0.00602944 -2.62951e-22)
(0.998915 -0.00488481 1.77585e-22)
(1.00355 -0.00328928 1.65946e-22)
(1.0394 0.0714057 2.93984e-21)
(0.982049 -0.0521522 2.02341e-22)
(1.0931 0.117676 3.13362e-21)
(0.941366 -0.020653 -2.57836e-21)
(0.995895 -0.00351507 -1.73969e-22)
(0.999991 -5.36579e-06 -6.6905e-25)
(0.993036 -0.00364597 -2.42845e-22)
(1.00444 0.138653 5.61657e-21)
(1.0595 0.0848148 -1.49892e-21)
(0.987062 -0.0792196 1.14827e-21)
(0.917864 -0.00927752 5.95748e-22)
(1.02791 0.139335 6.18367e-21)
(0.989472 -0.000762349 3.12507e-22)
(1.00539 -0.128294 2.01931e-22)
(0.999991 -0.000113261 1.53565e-24)
(0.98793 -0.0582498 1.73012e-21)
(0.999008 -0.000284625 -9.43396e-23)
(0.859401 0.0791798 -1.463e-20)
(0.988814 -0.10628 -2.56565e-21)
(0.999903 -3.9548e-05 6.29903e-24)
(0.912796 -0.0304529 -1.52442e-22)
(0.982359 -0.0554245 8.38016e-23)
(1.02691 0.0759519 1.04007e-20)
(0.996885 -0.000963915 -2.32439e-22)
(0.979387 -0.0538423 -6.06805e-22)
(0.997451 -0.0137364 -2.08369e-22)
(1.002 -0.0296225 -2.36631e-22)
(0.998485 -0.000701799 -6.09993e-23)
(1.02592 0.0744954 -1.26307e-20)
(1.12045 -0.208002 3.19929e-21)
(0.978311 -0.0233014 -4.86068e-22)
(0.983529 -0.0199519 1.04634e-23)
(0.983882 -0.00667156 -1.50245e-22)
(1.00631 -0.00247312 -1.41363e-22)
(1.02947 0.136227 2.43829e-20)
(0.977956 -0.0188911 2.19524e-22)
(1.01278 0.0407483 7.02099e-21)
(1.00327 -0.00264115 1.26239e-22)
(1.22913 0.0218637 -1.1496e-22)
(0.939217 0.0887263 2.71519e-21)
(0.989258 -0.000594481 -1.08226e-21)
(0.999737 -5.03999e-05 1.32895e-23)
(1.03864 0.0916338 3.13219e-21)
(0.99578 0.114228 -2.10636e-20)
(1.0374 -0.0517397 -2.6897e-22)
(1.10331 -0.0287438 9.72318e-23)
(0.994787 -0.0173476 -2.60122e-22)
(0.954205 -0.00799016 -8.45528e-22)
(1.07363 0.125999 8.92061e-21)
(0.954436 -0.0768792 3.94127e-22)
(0.999977 -2.44283e-05 1.71638e-24)
(0.990899 -0.00014684 -5.58281e-22)
(1.00004 -6.47085e-06 9.06601e-25)
(0.99458 -0.000345488 4.21292e-22)
(0.999976 -2.59689e-05 -2.67078e-24)
(0.998347 -0.0191722 3.44275e-22)
(0.998869 -4.59956e-05 3.35011e-23)
(0.996786 -0.00717094 2.28543e-23)
(1.23149 -0.0106556 -6.56143e-22)
(0.999299 -0.000481609 3.43528e-23)
(0.999416 -0.000245174 2.35119e-23)