/*--------------------------------*- C++ -*----------------------------------*\
  =========                 |
  \\      /  F ield         | OpenFOAM: The Open Source CFD Toolbox
   \\    /   O peration     | Website:  https://openfoam.org
    \\  /    A nd           | Version:  7
     \\/     M anipulation  |
\*---------------------------------------------------------------------------*/
FoamFile
{
    version     2.0;
    format      ascii;
    class       volScalarField;
    location    "32";
    object      p;
}
// * * * * * * * * * * * * * * * * * * * * * * * * * * * * * * * * * * * * * //

dimensions      [0 2 -2 0 0 0 0];

internalField   nonuniform List<scalar> 
20933
(
0.00106902
-0.000620105
0.00292903
-6.38543e-05
-0.00274398
-0.00301125
-0.0874862
0.335517
-0.037593
0.325801
-0.0835783
0.188411
-0.0239526
0.000943525
-0.00072544
-6.62887e-05
-0.0592705
0.190206
-0.0527674
-8.13125e-05
-0.0348553
0.199737
0.326963
-0.104721
0.00123777
0.568367
-0.00108086
-0.022126
-0.137345
-0.0548562
-0.000235456
0.654084
0.305767
-0.0111259
-0.000518803
-0.000366144
0.375047
8.56667e-05
-0.00379845
0.157442
0.00669874
0.390654
0.459861
-0.00110551
0.568759
-0.000578687
0.288001
0.0606898
0.000105811
-0.0202514
-0.00054049
0.0290223
-0.0860958
-0.00114662
-0.107302
-0.0109041
-0.0139542
-0.000504883
-0.0165183
-0.0498365
0.599822
-0.0025348
-0.000969055
0.300001
0.000282885
-0.00254686
0.553079
-0.00263539
-0.00993704
0.564513
-0.00640528
-0.0812577
-0.000646109
-0.0158791
0.555289
-0.0230481
0.555607
-0.0102737
0.155575
0.517498
-0.00218992
-0.00143187
-0.136604
-0.0352582
-0.00161538
0.464084
-0.0197713
0.714648
0.299202
0.595273
0.264444
-0.00012482
-9.66015e-05
0.688336
0.0428591
-0.000553262
0.694416
-0.00112203
-0.0724814
0.366404
0.601238
-0.00556204
0.610787
-0.0536851
0.070004
-0.0173996
0.521111
-0.0282486
0.00162783
0.493984
-0.14542
-0.0877755
-0.010511
-0.000484249
-0.0169036
-1.81844e-05
0.449609
-0.00214717
-0.0738533
0.509887
-0.000121985
-0.0395875
0.178459
-0.0210342
-0.0111564
0.191435
0.265242
-0.0213488
0.662352
0.460795
-0.0275915
-0.018674
0.00690819
-0.0028932
0.525207
0.0605505
0.10655
-0.0381267
-0.00440452
-0.0461667
-0.0424078
-0.0174308
-0.103013
0.620227
0.0445072
0.531841
0.321511
-0.00521262
0.243281
-0.00125659
-0.00427477
0.5571
-8.72362e-05
-0.0300249
-0.00137286
0.327492
0.473025
-0.108728
-0.0112487
-0.0253851
-0.113093
-0.0800994
-0.000336899
0.0566633
0.12195
0.708282
-0.00474152
-0.124807
-0.0231549
0.367505
0.0927415
0.571752
0.4765
-0.0101102
0.734493
0.294319
0.000601363
0.585932
-0.0135859
0.514289
0.540306
8.31868e-05
0.616547
0.47249
-1.95396e-05
-0.0126966
-0.00527449
0.349189
-0.0588286
0.666325
0.263381
-0.0210859
0.375295
-0.00324775
-0.012562
0.169216
0.613047
0.0235026
-0.000608826
0.673533
0.0990839
-0.0875449
-0.0755331
0.65427
0.62816
-0.0134117
-0.0136454
0.0304618
-0.0110932
0.000615306
0.548186
0.583038
-0.0070842
-0.0191532
0.504976
0.554937
0.00162526
0.509941
-0.020174
-0.00191531
-0.0212854
0.486821
0.639515
0.267146
0.490443
-0.00536304
-0.0126822
-1.98525e-05
0.00133071
-0.00208361
0.174642
-0.0509116
0.513139
-0.0440643
0.477037
-0.0187583
-0.0119479
0.56804
0.700699
0.479216
0.550604
-0.0181497
0.386917
-0.0198064
0.078856
-0.00175299
-0.127129
0.0117541
0.0297003
0.000100237
0.00164594
0.644884
0.176608
-0.00474122
-0.0258129
-0.0496011
-0.107503
0.397353
-0.0431849
0.000474362
-0.0260017
-0.00959214
0.000336289
-0.0179387
-0.0758666
0.617951
0.00964794
-0.0095956
0.482284
0.625088
-0.0194087
-0.000334275
-0.0312899
0.553255
-0.147256
0.596135
-2.72279e-05
-0.0212186
0.491517
0.541501
-0.0241389
-0.0125346
0.665567
-0.0626052
-0.0239597
0.607258
0.662156
-0.0216058
0.501219
0.103716
0.512488
0.425763
-0.000331206
-0.000631671
0.37886
0.000632643
-0.0553229
0.0472345
-0.155081
0.0933286
0.0371721
-6.36657e-05
-0.000773109
0.595218
-0.00358537
-0.0693521
-0.0295996
0.206632
-0.00307734
0.511961
0.0897633
-0.0277673
-0.0118258
0.349677
0.185109
-5.94995e-05
0.590524
0.465557
0.580646
-0.0943276
0.000295512
0.659669
-0.00106109
-0.0180066
0.171578
0.0322205
-0.0199473
-0.0752741
0.476045
0.687633
0.541034
0.133054
0.742904
-4.16457e-05
-0.00969791
0.54176
-0.118792
0.37456
-0.0146552
0.562825
0.0828259
-0.000846252
0.0803637
0.446254
-0.111168
0.60841
0.4497
0.000147189
0.00196582
0.307839
0.203449
0.00224219
0.470259
-0.0144114
0.731623
-0.04154
-0.00615771
0.000920564
0.537047
0.463799
-0.00430865
0.348939
0.593509
-0.00374364
0.418661
0.461169
0.735202
-0.000749611
0.229443
0.00910644
-0.0140562
0.000148201
0.560906
0.396062
0.00691983
0.575472
0.147986
-0.0133575
0.380791
0.125036
0.183042
0.733086
-0.0338441
0.14445
0.580281
-0.0259906
0.0818473
-0.0733299
0.296666
0.00167171
0.272773
0.00868941
0.137975
-0.00142224
0.293513
0.575627
0.430181
-0.139589
-0.00891528
0.647201
0.649007
-0.00171724
-0.0198167
0.512836
-0.0650726
-0.018818
0.398485
0.000337915
0.761978
-0.0190198
0.250904
-0.00261405
0.579796
0.444652
0.0340308
-0.0268385
-0.0225014
0.0999859
-0.00121345
0.51136
-0.0806567
0.30963
0.723587
-0.0958915
-0.0162292
-0.00220152
0.0699332
0.0102672
-0.0099606
0.416834
-0.000411945
-0.0178455
-0.00191134
-0.0497647
-0.0168876
8.82752e-05
-0.0260568
0.157255
-0.123559
-0.0192751
-0.0144079
0.0581179
0.0478799
-0.0224381
-0.00672119
-0.00148744
-0.0094442
-0.0716255
-0.00109285
-0.0205262
0.190258
0.422163
0.0657496
0.000181116
0.679757
-0.000972808
-0.000413389
0.00583548
-0.018705
-0.0295657
0.623121
-0.0148817
0.110081
-0.0604641
-0.0657636
0.387527
-0.018219
-0.0299551
-0.0517864
0.000119956
-0.0474812
0.690006
-0.102987
-0.0253546
0.415164
-0.0227753
0.422601
0.248647
-0.00114814
0.000608758
0.468298
0.715012
-0.105825
0.307901
0.145605
-0.0195609
-0.0205795
0.511571
0.0573896
-0.133102
-0.0704517
-0.00029409
0.0176499
0.645045
0.150939
-7.85812e-05
0.61332
-0.0170048
-0.0335435
0.482706
-0.00289594
-0.00250818
9.01711e-05
-0.00837808
-0.0102755
-2.97902e-05
0.301601
-0.14449
0.515214
0.000336039
-0.00117726
-0.0232496
-7.88177e-06
-0.108822
-0.129174
-0.00116179
-0.0278538
-0.0144629
0.473547
0.58176
-0.000833007
-0.000821798
-0.0424612
0.588328
-0.00955701
0.588629
-0.00413951
0.724189
0.432608
0.255632
0.700009
-0.0703392
-0.000256188
0.00960096
-0.00871452
0.575988
0.50801
-0.00492568
-0.116938
0.0682948
-0.0248497
0.000986571
-0.130502
-3.90256e-05
0.480795
-0.0104288
-0.0263367
-0.00973375
-0.0216413
0.254113
0.0759278
0.00120424
-0.0126561
-6.88887e-06
0.723559
0.638731
0.000563149
-0.00646616
-0.00306204
0.506008
-0.0159298
0.147684
-0.0228012
0.547808
0.253655
-0.0113792
0.754621
0.0134406
0.533261
-0.00414015
-0.0758558
0.606179
-0.0113679
0.724376
0.491455
0.735309
-0.000361164
0.00060533
-0.0370406
0.0206653
-0.00238908
-0.0320381
0.534919
0.556052
0.42729
0.582601
0.718392
0.312626
0.576391
0.430368
-0.00447768
0.475012
-0.028165
-0.0228422
-6.11411e-05
-0.0256361
-0.0885974
0.349119
0.0406439
0.516802
-0.0182711
0.0922982
0.497987
-0.00833758
-0.0258087
-1.87143e-05
-0.000226722
0.348034
-0.029436
-0.0205388
-0.000264394
-0.000699558
0.059397
0.000202237
0.0408388
0.725759
0.321137
0.308272
-0.00498032
0.507342
0.080998
-0.00887869
-0.00667803
-0.000495597
0.000115885
-0.00155596
-0.00972213
-0.0768919
0.355375
-0.00151489
-0.004282
1.32164e-06
0.539682
-0.0289657
-0.0950326
-0.0113828
0.119367
-0.0303471
-0.00209646
0.498266
0.666646
0.450007
0.000398246
0.457027
-0.00384682
-0.0187177
0.342942
-8.41016e-05
-0.0105965
0.237243
0.306625
-0.0111025
0.498947
0.633437
0.486077
-0.0191816
-0.00991927
-0.012857
0.129819
0.461983
0.000357556
0.60439
-0.0187207
-0.0772016
0.0188466
0.688151
0.358712
0.513637
-0.132648
0.706089
-0.00994651
-0.0182899
0.741524
0.0256667
-0.0643787
0.525568
0.547676
-0.0171236
0.45577
0.588498
0.542892
0.497495
0.534317
0.436047
-0.0015845
-0.0102837
-0.00196777
-0.0670151
0.574963
-0.0621442
0.194639
0.201693
-0.0223843
0.0497221
0.230939
0.584915
0.0541013
-0.000873742
0.0211603
-0.0218864
-0.0647894
-0.0816252
-0.0696555
0.491822
0.607468
0.0392405
0.580807
0.719287
0.00152239
-0.00090286
-0.0013981
-0.00392646
0.390628
0.726115
0.15723
0.507914
-0.00949906
0.437085
0.449656
-0.113456
-0.00938614
-0.0179776
0.190694
-0.0131875
0.00948301
-0.0187879
-0.0209134
0.516999
-7.73594e-05
-0.0184442
0.548683
0.0440808
0.663408
-0.0387641
0.422998
-0.0790983
-0.0300953
0.601722
0.662324
0.574642
-0.0116277
0.667553
-0.0174347
0.600239
0.00682382
0.57207
-0.0204392
-5.63238e-05
0.573805
0.605604
0.601098
0.573955
0.347828
0.0883505
0.404278
-0.0632255
0.57345
0.494645
-0.0248552
0.0432196
-0.00191374
-0.066255
0.503934
-0.0171669
-0.0041909
0.585279
0.581657
-0.0257497
0.565901
-0.0800699
0.103989
0.0022641
0.592469
0.602818
0.719073
0.594774
0.00072216
-0.0104671
-2.59423e-05
-0.0323551
0.658463
0.287001
0.493754
-0.0193963
0.432738
-0.00159569
0.661175
-0.0366894
0.58363
0.00187249
0.643206
0.675273
-0.0106888
0.137116
0.638444
0.000961912
0.68571
-0.0208018
0.00119483
-0.00929794
0.538807
0.227928
-0.048039
0.573668
0.690086
0.446125
0.0146057
-0.0269419
0.00113221
0.580547
0.670805
0.746395
0.277538
-0.00255275
0.000776177
0.501864
-0.00217446
-0.00128288
-0.00276985
-0.010647
-0.0765611
-0.109794
0.617213
-0.0133845
-3.19985e-05
0.482186
0.267064
-0.00349169
0.160373
-0.000801879
0.225293
0.490479
0.570398
-0.0981041
0.162963
-0.00414711
-0.0354814
0.000201139
0.585104
0.621949
-0.13414
-0.1258
-0.111376
-0.0335741
0.576884
-0.0257507
-0.0739275
-0.0885567
-0.0228472
0.700979
-0.105392
0.0237708
0.587525
0.000828618
0.0973975
-0.0206845
-0.0815089
0.00055382
-0.000832152
0.697913
0.413922
-0.136198
-0.0252578
0.431421
0.558273
0.491512
-0.073173
-0.020194
-0.0178701
-0.0200388
0.467929
-0.00393428
-0.0273021
0.000118744
-0.00991442
0.000429881
-0.0886657
0.54224
-0.0694592
0.587517
0.574613
-0.0216989
-0.0113914
0.714039
0.442339
0.0255451
-0.0128272
0.433736
-0.024518
0.383979
0.69851
0.381334
-0.0043357
-0.0145729
0.527139
-0.0244689
-0.0605814
-0.0287346
0.631565
-0.0172645
-0.0388228
0.423063
0.323577
0.479585
-0.0194605
0.361048
-0.0296187
0.58621
-0.0930065
0.217403
-0.0310818
-0.0321208
-4.27353e-06
0.000456505
-0.000519897
0.634276
-0.0400479
0.418785
0.0920673
-0.0465322
-0.0695217
0.298455
0.71991
0.651369
-0.0566135
0.272976
-0.0161146
0.0621947
-0.00332367
0.198481
-0.0193201
-0.00186283
0.461831
-0.030766
-0.00110409
0.624758
0.517572
0.601469
0.0162512
-0.0686318
-0.00894901
0.288416
-0.0118068
-0.000111225
0.634489
0.128153
0.257401
-0.0231513
0.000116998
-0.00824948
-0.000836679
0.24081
-0.000460167
-0.0162071
-0.00982866
-0.0226177
0.653391
1.31435e-05
-0.0312588
-0.0114821
0.675255
0.000922341
-8.84186e-06
-0.093621
0.17883
0.480023
-0.0103582
-0.00972012
-0.0198113
0.49264
-0.0139623
0.269686
-0.106384
-0.104696
0.125679
0.469617
0.104177
0.268325
0.000730799
0.515723
0.680718
-0.00513327
0.405379
-0.0391793
0.694443
0.668018
-0.0738264
0.0694056
0.0371395
0.411111
-0.00025459
0.572207
0.733047
-0.000138486
0.192666
0.330229
-0.00100849
-0.000435939
-0.00640038
0.720733
-0.0104546
-0.0336787
0.581049
-0.00350266
0.402183
0.595814
-0.0155986
0.642998
-0.0196996
-0.0120885
0.599274
0.281386
0.478861
0.000836524
0.602319
0.237538
0.5696
-0.0557567
-0.00789909
0.198648
0.635444
0.598777
0.647672
0.579927
-0.0710571
-0.0115397
0.00615308
0.435303
0.570587
0.677543
-0.0189452
0.338256
0.688964
0.542381
-0.000996375
-0.0167106
-0.00579525
0.180713
-0.0425331
0.618102
0.29366
0.567955
0.132149
-0.0271751
0.571645
-0.0370777
0.446874
-0.0790642
0.0525568
-0.0118061
-0.0725683
-0.0524496
0.672128
-0.0481415
-0.0184436
-0.0467173
0.241614
0.0782418
-0.0167264
0.0460715
-0.0129514
-0.0596834
0.463366
0.252002
0.50585
-0.116321
0.591046
-0.0648462
-0.0006801
-0.00924531
-0.0142141
-0.101066
-0.114985
-0.00394094
0.338937
0.652215
0.212393
0.0642491
-0.0294118
-0.0559919
0.399801
-0.0217648
0.69304
0.347966
-0.00247239
-0.0125558
0.00403946
-0.0647485
-0.0159988
-0.0231117
-0.0148143
-0.084662
0.329253
0.662337
0.612407
0.290508
0.00118226
-0.0184939
0.000632511
-0.00804681
0.472339
0.00229842
0.452428
-0.0592384
-0.010551
0.658114
0.671804
-0.000837838
0.578478
0.610048
0.167799
-0.012915
0.227206
0.469768
0.669559
0.390439
-0.0635951
0.655004
0.105507
-0.0325014
-0.0362144
-0.0729081
0.684774
-0.0183076
0.5889
0.358687
0.65039
-0.0354744
0.410668
0.427035
-0.0755644
0.599899
-0.0103832
0.632716
-0.000385957
0.384012
0.450412
0.448937
-0.00216138
-0.00879097
-0.00142122
-0.0211824
0.360336
-0.01579
0.416169
0.393292
0.724372
-0.0128504
0.637031
-0.0120625
-0.0116003
0.0393383
0.577584
0.117178
-0.0368933
0.0619905
0.502883
-0.00481693
0.710159
-0.00303784
-0.0547207
0.0901755
-0.00730329
0.581795
-0.0377259
0.614824
0.493504
0.17271
0.0330708
0.203242
-0.000826401
0.0216438
0.627886
-0.0307895
-0.0387277
0.369799
0.0714945
0.00165416
0.0342743
-0.0050176
0.652538
-0.0163465
0.0343496
-0.0591166
-0.0187286
0.567893
0.727788
-0.0130406
-0.0598537
-0.00163359
0.104568
-0.000828136
0.158072
0.672759
0.645818
-0.0157904
0.217018
-0.000266151
-0.0207546
0.523603
-0.0113618
0.285585
-0.0100104
0.713098
0.50538
-0.0712319
-0.0138532
-0.0264747
0.711104
-0.0183369
-0.00067423
-0.000424352
0.168635
-0.0663299
-0.0064425
0.137351
0.652969
-0.0830459
0.688733
0.74735
-0.0162331
-0.0395947
-0.000588679
0.000743787
-0.0436706
-0.0284208
0.70429
-0.00957948
0.00133637
0.452019
-0.0501016
0.497245
0.00127189
-0.0248266
0.49371
0.459772
-0.0683889
-0.0188584
-0.0550192
0.546167
-0.0172868
0.310228
-0.0203972
-0.00837359
-0.0198642
-0.00817778
-0.00289703
-0.0872707
-0.0838759
-0.0914308
-0.000258518
0.142069
-0.000342784
-0.0178719
-0.0582148
-0.0112107
-0.0256686
0.655049
0.0384791
-0.0216927
-0.0145205
0.533423
0.000465504
0.4675
-0.0579945
0.0301323
0.00212695
0.492297
0.316667
-0.0219141
-0.0285117
-0.0296222
0.396963
-0.000324174
0.456286
0.540759
-0.00900456
-0.0410063
0.158719
0.155237
-0.0575622
0.178506
0.512521
-0.00884367
0.436114
-0.0230241
0.00449669
0.418442
0.674592
0.0134835
-0.00454786
0.56757
0.431233
-0.0110716
-0.0333908
-0.101191
0.0111367
-0.00882627
-0.00104802
0.528151
-0.115278
-0.047162
0.529815
-0.0600454
-0.0203055
0.314507
0.000162933
0.208153
0.452071
-0.0126322
0.455131
-0.00925956
0.643705
-0.0647993
-0.000319132
9.92317e-05
0.00348065
-0.000598845
-0.00990297
0.210816
-0.0412045
-0.00392147
-0.0258131
-0.0115849
0.274819
0.582231
0.000338536
-0.00794306
-0.012447
0.424061
-0.0538674
-0.0123456
-0.00880197
0.085506
0.319461
-0.011005
-0.00277222
-0.0649619
0.491162
0.529906
0.164579
0.462845
0.607482
-0.00979872
0.428289
0.156122
0.0116125
-0.00947716
-0.00490857
0.735159
-0.0113621
-0.0719384
-0.0174427
0.489223
-0.00330961
-0.00172956
-0.0187664
-0.0214466
-2.202e-05
0.583646
0.349172
0.436943
0.53743
0.46591
-0.000634025
0.195555
0.373525
0.0150709
0.571154
0.259993
0.365235
1.19861e-05
0.381507
-0.0362441
0.244994
0.37697
-0.0810155
0.111257
0.0880214
-0.0146916
-0.00142112
0.0228847
0.228885
0.66201
0.250954
-8.25927e-05
0.335179
-0.00830638
0.379287
0.28341
-0.0028597
-0.0156421
0.420264
0.583076
0.140904
-0.0163235
-0.00878023
0.257918
0.4369
-0.0148754
0.520858
-0.0114078
0.202696
-0.010414
0.619813
-0.000388351
-0.000900703
-0.00183843
-0.00832012
-0.0816659
-0.00101778
0.441845
0.53241
-0.000837244
0.320983
-0.00107386
-0.00241303
2.12015e-05
0.271672
-0.008609
0.328287
3.5915e-05
0.447221
-0.0101102
0.510138
-0.105003
0.548853
-0.0176175
-0.00355068
0.000534018
0.589209
-0.0211936
0.0692625
0.179841
9.57541e-05
0.504053
-0.00302513
-0.0101134
-0.00822921
-0.000286111
0.587079
-0.00191074
-0.00963098
-0.00867296
-2.93675e-05
-0.00240519
0.51674
-0.000568932
-0.0162412
-0.00292627
-0.0011479
0.478242
-0.118263
0.05426
-0.0387516
-0.00098296
-0.0101585
-0.0529412
-0.00710838
-0.00108778
-0.00279536
0.29538
-0.000331389
-0.00494094
-0.0562216
0.188096
0.570337
7.02329e-05
-0.00112332
-0.00973254
-0.0252691
0.465259
0.523447
0.590174
4.47927e-05
0.239514
-0.0159843
-0.0132762
0.349581
-0.0162715
-0.00237664
-0.00164811
-0.00598941
-0.00868425
-0.00853242
-0.0030312
-0.00219541
0.00578515
0.442535
0.000489484
0.332364
0.0900251
0.0527599
0.268398
0.171859
0.386036
0.0202694
0.435431
-0.000844971
-0.0118526
0.406418
-0.0275478
0.470789
0.449146
-0.0137377
-0.0139712
-0.000334333
-0.00677458
-0.0100221
-0.00283098
-0.00233203
-0.00548264
-0.00192554
-0.00794381
-0.0165605
-0.00232079
-0.00162396
-0.0199792
0.386939
-0.00704572
0.000577571
-0.0119457
-0.00390202
-0.00887069
0.521204
0.502665
0.263164
0.627405
-0.00830571
-0.0447481
-0.00773919
-0.00261315
-0.00291225
2.91502e-06
2.83692e-05
0.251018
0.135548
2.43868e-05
-0.0857909
0.133554
0.260205
-0.0356482
-0.000573968
-0.00889627
-0.00243868
-0.000952526
-0.00178879
-0.00899177
-0.030452
0.640473
-0.00288142
-0.0297117
-0.00839902
-0.0173362
-0.000382448
0.000999935
-0.000808974
-0.00170208
-0.0135964
-0.00771996
-0.0332216
0.0912944
-0.00447017
0.318705
-0.00561753
0.000325235
-0.0447098
0.4684
0.489618
0.371597
0.00879138
-0.0912416
-0.0297153
-0.100123
-0.0221191
-0.100938
-0.0148589
-0.0961827
0.00115048
-0.00780957
-4.54718e-06
0.0748864
0.000918428
0.000529664
-0.0129278
0.66612
-0.0128593
-0.0946605
0.630327
0.647134
-0.00173472
0.635239
0.60283
0.476515
-0.0032095
-0.128686
0.648588
0.00054044
-0.000189228
-0.00853493
-0.00767033
-0.00184191
-0.0214516
-0.00781267
-0.00649743
-0.00332059
-0.0175298
0.000383188
-0.0350615
-0.00260656
0.71232
-0.00166577
-0.000831181
0.709624
-0.000716601
0.677192
0.641472
0.4405
-0.00172605
0.71244
0.0861306
0.553528
-0.00305676
-0.000471442
-0.00769605
-0.0170669
0.0452785
0.578463
0.000284979
-0.000578357
-0.00743934
1.52843e-05
-0.13247
0.255448
5.45007e-05
0.46522
-0.0370548
-0.00210713
-0.017877
-0.00156364
0.174484
-0.00122603
0.647562
-0.000913592
0.603585
-0.000478284
-0.010931
9.87443e-05
-0.00626766
-0.0079027
-0.00717792
0.540951
0.575469
4.35501e-05
0.648887
-0.0181456
-0.00182388
-0.0205589
0.610638
-0.126278
0.000397442
-0.000244132
-0.00113288
-0.000698859
0.00016646
-0.000656915
0.654816
0.000308376
0.000138614
-0.0166476
0.695287
0.748159
0.00149551
-0.0202496
0.477922
0.703819
-0.0234876
-0.00614224
-6.77556e-06
0.0081988
0.588687
0.467434
-0.000961459
-0.00335363
-0.0155193
0.619702
-0.0757684
-0.00922956
-0.00608349
-0.00410842
-0.020484
0.500374
0.000138235
0.634464
-8.32888e-05
0.682272
-0.00090239
0.646606
-0.00247288
0.0701308
-0.0168409
5.28636e-05
-0.000648533
-0.00262469
-0.00593062
-0.00758121
-0.000675959
-0.00243544
0.000609624
-0.0156547
-0.000691921
-0.00372295
-0.00359325
-0.00189006
0.111792
-0.000622192
0.465131
-0.00586271
-0.0113976
-0.0031566
-0.103075
0.703818
-0.00288093
-0.00347782
-0.0042203
-0.016759
-0.00161233
0.446359
0.494155
-0.00107699
-0.00208032
-0.052481
0.141032
0.635515
-0.0116592
0.43555
0.516338
4.66282e-05
-0.0228374
-0.000866603
-0.00100277
0.000577685
0.000347815
-0.000811325
0.000350088
-0.00189887
-0.00174338
-0.0145574
0.00173927
0.272882
-0.0684178
0.46424
0.126252
-0.0782098
5.16577e-05
-0.00060676
0.584906
-0.0011275
-0.0163383
0.00033724
-0.00963906
-0.00639383
0.36112
0.06033
0.658495
-0.000480131
-0.00116383
-0.00607518
0.304444
-0.00102812
0.629721
0.131633
-0.00281216
0.0015477
-0.0528894
0.0036332
0.439108
0.0334884
0.590092
-0.0146259
-8.70185e-05
-0.000741033
-0.00403724
-0.000209466
-0.000180391
0.000187425
-0.00814471
-0.00222725
-0.0131266
7.25781e-05
-0.0144331
-0.0670854
-1.67395e-05
0.000161599
-0.00121062
-0.000568736
-9.69451e-05
-0.00459883
0.0164057
-0.000775102
0.0535378
-0.000712274
0.475702
-0.0112491
-0.0482549
2.50698e-05
-0.0452491
-0.025224
-0.0164969
-0.00208652
3.70614e-05
-0.00153957
0.000107749
-0.0537992
0.00412009
0.138107
-0.0998551
-0.000484842
0.0519053
-0.0953979
0.512361
0.389079
0.480059
0.000774018
-0.000870302
0.000298252
0.000564386
0.608208
0.449239
-0.00143364
-0.00271551
0.321511
0.450182
0.666575
-0.000404747
-0.000294856
-0.00504587
8.11605e-06
-0.000398772
9.61256e-05
-0.00290078
-0.00181179
0.474163
-0.0204891
-0.000692556
-0.00033065
-0.000916956
-0.0121387
-0.000988832
0.315751
-0.00104136
0.178862
-0.021705
-0.00784764
0.206271
0.146316
-0.000398676
0.216456
0.631114
-0.0170971
0.489409
-0.00592598
0.000711275
0.528813
-0.00138905
0.45492
7.01322e-05
-0.0275674
-0.0598266
0.000191778
-0.00288832
-0.000776637
-0.000128815
0.011383
4.63185e-05
-0.0033479
-0.00590251
0.639751
-0.0231747
-0.0013607
0.463845
2.15709e-05
-0.000568409
-0.0114714
-0.000923315
0.627906
0.000263507
-0.000667991
-0.0034544
0.119882
-0.020405
-0.000792885
0.000418594
0.0657047
-0.00211775
-0.000478402
0.573286
0.691138
-0.00167607
-0.0055223
-0.00145593
0.498983
-0.000122655
0.000384153
2.95057e-05
2.85945e-05
-0.0548992
-0.00161197
-0.000745246
-0.110491
-0.000719844
-0.0572589
0.000358836
-0.000178164
3.73073e-05
0.534403
0.562958
-0.0106832
0.428582
0.053573
7.84779e-05
0.454673
-0.00641276
-0.000912977
-0.0017169
-0.0531571
-0.000268171
-0.0066672
0.000389142
-0.0273603
0.218396
-0.00510075
-0.00392965
0.155974
0.363122
0.160087
-5.16233e-05
3.48338e-06
3.71964e-05
0.291293
-0.00270735
-0.0592563
0.000269405
0.450019
-0.120322
0.534899
0.370321
0.000932038
0.202263
0.00026802
0.469483
0.00656281
-0.018109
4.84931e-05
-0.000747066
0.00201189
0.00198364
0.00160676
0.000927303
0.155568
0.00216045
0.310625
-0.000633363
-0.00106901
0.000296541
0.0876334
-0.00838497
-0.00360784
-2.24329e-05
-0.00903558
0.281589
0.00139752
-0.00930724
-0.00869742
0.0704142
-0.00845081
-0.000354795
-0.000596113
0.515717
0.554588
0.578431
-0.000405818
0.556648
0.504602
0.561108
0.000788579
0.000304033
-0.000401507
0.330214
0.408631
-0.0742395
-0.0173219
0.000378494
-0.00621022
0.0729036
0.00237263
0.00210283
0.432545
-0.000955408
0.001331
0.000160941
0.00263796
0.560132
-0.0251834
-0.000639135
3.54935e-05
0.612454
0.500461
-0.0156143
0.27316
0.00213813
-0.0257856
0.00179389
-0.0354969
-0.0448057
-0.0499206
0.253109
0.000759409
0.12418
-0.000251167
0.542914
-0.016807
-0.00526049
0.480775
0.00221055
-0.00600638
0.00146251
-0.0545021
0.17841
-0.00942257
0.000320234
0.438701
-0.000476614
-0.00713909
0.0545967
-0.00019928
0.00121583
-0.000866831
-0.00733309
0.00114063
0.0416431
0.000283698
0.0299272
-0.0152336
0.0212424
0.0137881
-0.00235809
-0.0034945
0.00875102
-0.00570909
0.00196532
0.00227766
0.359064
0.00238116
0.00207351
5.23643e-05
-0.0103559
-0.0246493
-1.19077e-05
0.357392
0.530485
-0.00763094
-0.00271414
-0.0018233
0.00226766
0.000239082
-0.00714483
0.00102281
0.0404315
-0.000149249
-0.000165276
-0.00858155
0.00117828
-0.000693927
-0.000107889
0.344449
0.000743516
0.0980444
0.388542
-0.0189669
-0.0190701
0.00138195
0.00018574
0.0800911
-0.00612556
3.25683e-05
0.0614917
0.206872
-2.70163e-05
0.0438985
0.246146
-5.54772e-05
0.155391
-0.00333501
-0.0184552
0.43554
-0.000566985
-0.000215359
-0.000328608
0.402945
-0.116464
-0.0183645
0.000443055
-0.00145133
0.00237903
-0.0077957
-0.00422257
0.129348
0.587058
0.652657
0.480498
-5.68016e-05
0.342128
0.111647
-0.0045429
0.000601883
0.336029
-0.0105569
-0.138326
-7.56228e-05
-0.000402128
0.450391
5.21625e-05
-0.0590297
-0.00353342
-0.0359882
-0.000552239
0.488472
-0.0143664
0.475801
-0.00599656
0.00237181
-0.00868294
0.000438452
0.418508
-0.00728669
0.0018156
-3.77104e-06
-0.0772147
0.0151547
0.185439
-0.0058956
-0.000769641
0.221635
1.39619e-05
0.311757
0.164069
-0.000555039
0.320636
-0.0438658
-7.72636e-05
-0.00480591
0.000496413
-0.000863471
-0.0079077
0.383625
-0.0172221
-0.00111052
-0.0436744
-0.000803241
0.400743
0.561381
-0.000467184
-0.00892916
0.00161239
-0.00175518
0.424364
-0.000248783
-0.000647064
0.287738
0.166955
0.477141
-0.00745306
-0.000649588
0.336117
-0.00480462
-0.00354777
0.00386659
0.59442
-0.0313878
-0.00576591
-0.000767441
-0.00261643
0.590225
-0.012987
0.673894
0.200194
-0.00431861
0.000632409
-0.0210508
-0.0304586
-0.00022304
-0.00719333
0.582228
-2.25e-05
-0.0190419
0.590447
0.000457599
-0.0080786
-0.000256503
0.000464363
-0.000261123
0.0282651
-0.00879569
0.00060404
-0.0832379
-0.000230875
-0.000208406
-0.000174289
1.15494e-05
-0.0239538
-0.000199962
0.000829153
-0.023951
-0.0155205
0.671086
0.0438946
-0.0071735
0.00157068
-3.84107e-05
-0.00707625
-0.000138961
0.141519
0.46157
0.000349158
-0.0217813
-0.00708075
0.0846226
-0.00229987
0.703751
-0.00123625
0.000930681
0.312311
-0.000718284
-0.000214355
-0.015477
0.460841
0.00056172
0.446105
0.469563
-0.00747017
-0.016841
0.545162
-0.00657045
0.00110587
-0.014445
0.352021
0.142201
-0.0244247
-4.25201e-06
0.567588
0.000723128
0.000712964
0.00185895
0.00128965
0.645626
-0.00145992
-0.000115367
-0.0067548
0.264733
0.676222
0.455476
0.714366
-0.000567376
0.633061
1.4176e-06
0.361637
0.00156504
0.000357496
0.20656
-0.0133679
0.126932
-0.000265333
-0.0211976
0.681788
-0.0128752
-0.0376148
-0.00169606
0.000878386
0.209493
-0.00139098
-0.0117829
-0.000204061
-0.0197583
0.000158677
0.689992
-0.0027922
-0.00540475
0.0874123
-0.0824882
0.193907
0.440508
-0.00029244
-0.0821538
0.254298
0.492106
0.704962
2.62092e-05
-0.0936008
-0.0855116
0.00101871
0.286819
0.318942
-0.0913484
0.595134
0.147218
0.233249
-0.00327417
0.437761
-0.00589265
-0.000481978
-0.000116941
-0.000218812
0.000491233
-0.00131604
-0.00293045
-0.000105786
-0.000704443
-0.00092389
8.30597e-05
0.312634
-0.0361298
9.33506e-06
0.686986
-0.000442064
-3.57473e-05
0.561024
0.705139
-0.0107757
-0.0108725
0.539656
-0.000868102
0.624899
0.0711037
2.88455e-05
-0.051711
-0.0244946
-0.00216338
-0.000614567
0.463536
-3.55801e-05
-0.000324017
0.603007
0.000527932
-0.0019386
-0.0357838
-0.00342901
-0.00559477
-0.000328067
0.0702921
-0.00446218
-0.000211799
-0.00801349
0.00081058
0.337077
6.57566e-05
3.32693e-05
0.000741851
0.584316
-0.000967908
0.000589022
-0.000101971
-0.00146649
0.566457
-1.80531e-05
0.153179
0.542008
0.000446962
0.649504
0.522468
0.00168062
-0.0520745
-0.00042607
-0.00318874
0.62507
-0.00246766
0.00062736
-0.000143336
-0.00676708
0.00190715
0.000682043
-0.00038949
0.640422
-0.000128418
0.480991
-0.0154387
-0.057598
-0.000147767
-0.0428155
-0.00150028
0.554679
0.564741
0.182211
-0.000772417
-0.025732
-0.0538572
0.190054
0.125962
0.299168
-0.0690035
-0.0427531
-0.00488217
-3.17558e-05
-0.000601926
0.000799202
-0.00136495
-0.000929445
-0.0011419
-0.000598261
0.00156454
-0.000572878
-0.00294776
-0.000929306
-0.00601201
-0.00022991
-0.00168613
-0.000167566
0.752883
0.113782
-0.00261712
-0.00270976
-0.00209433
-0.000130336
-0.000295081
-0.00137184
-0.00110278
-0.0214253
-0.000102536
-0.00523824
-0.000496948
0.000855511
-0.000272663
-0.00792907
-0.0249482
-0.00176641
0.590131
-0.011296
0.468564
-0.0261216
0.612641
-0.0142111
-0.0159152
-0.0177512
-0.019301
-0.0196127
-0.0214188
-0.0219946
-0.00017868
-0.0228422
-0.022593
0.561103
-0.0253444
-0.032561
-0.0255362
-0.000340488
-0.0553996
-0.00398112
-0.000145968
-0.00342211
-5.30845e-05
-0.000450387
0.0223783
0.000947424
0.250384
0.494874
-0.00412992
-0.00106293
-0.00424968
-0.00306383
-0.00266365
-0.00555999
-0.00506988
0.000192264
0.696133
-0.00135611
-0.00927439
-0.00437989
0.000999241
-0.00232337
-8.49784e-05
-0.0146152
-0.0032513
0.000255422
0.00126174
0.0234967
-0.000172893
-0.00013568
-0.00502588
0.00885896
0.000194951
-0.000245235
4.77121e-05
-0.000166344
-0.000390891
-0.00155419
-0.000355083
0.000281785
-0.000441797
0.000689318
0.551051
0.000221222
0.000477249
0.00115969
-0.00165314
-0.000332887
-0.000375325
0.37251
-0.0059512
0.523441
-0.000987768
0.000200325
-0.000172144
0.454008
-0.0588312
-0.000355756
-0.000100546
-1.87728e-05
-0.00247115
-0.000692536
-0.0246638
0.000103262
-0.0281661
0.000230912
0.000396466
0.000171143
-0.00132801
-0.00124712
-0.0356204
0.539379
-0.0248678
-0.00119942
2.88114e-05
-6.7797e-06
-0.010492
-0.000164859
-0.0105876
0.000627823
0.000954609
-0.000551986
-0.00684162
-0.00285982
-0.0896815
0.000227205
-0.000161312
-0.0051976
0.00021723
-0.0017232
0.000319986
0.000349553
1.38895e-05
0.629438
0.000201623
0.719191
-0.00568475
-2.91525e-06
-0.000603144
-0.000166252
-0.000212534
-0.00571606
-0.000377387
-0.0561311
-0.000308447
-0.0783998
-0.00229901
0.000186905
-0.000171424
-0.00342396
0.63784
-0.000247016
-0.0145225
-0.00123962
0.537338
-0.0258902
-0.0497135
-0.000211379
-0.0891243
0.000210081
-0.100152
-0.0183474
-0.000293948
-0.00280815
0.669116
-0.0459525
-0.00259483
0.000236553
-5.27153e-05
0.473335
0.533362
-6.73031e-05
0.000823851
0.405258
-0.000193851
-0.00403421
-3.43475e-05
-0.000410344
-0.0226361
-0.0149396
-0.105212
-0.00119145
-0.000739018
-0.000199347
-0.000150608
-0.0419746
-0.0151035
0.328197
-0.00541548
-8.48364e-05
0.513537
-0.00531209
-0.000206562
-0.0251218
0.00012503
-0.000938702
-0.000212029
-0.00761802
-0.000700059
-0.0117729
-0.000202034
-0.000619936
0.323601
-0.00396881
0.408742
0.61316
-0.00361974
-0.00467831
-0.0603059
-0.00413396
0.681234
-0.00165877
0.000520778
-0.000121408
0.484648
0.637451
0.300907
0.0156488
-0.0149713
-0.000181203
-0.00483088
-0.000444361
-0.000835848
-0.000463716
0.442304
-0.0153115
-0.000317928
-0.00185493
-0.00113362
0.0846801
0.459757
-0.0168322
-0.00202358
-0.00132384
-0.000386448
3.4087e-06
0.619173
-0.00162615
0.000426365
0.00013696
0.00161818
-0.00756949
0.0904104
-0.00527114
-0.00678091
-0.0172089
0.000124307
-0.000803535
0.444101
-0.00623098
0.000261587
-0.00285315
0.458178
-0.00165328
0.130575
0.550038
-0.000703006
-0.000126838
0.135576
0.410263
0.192507
0.339273
-0.0272457
0.000399098
-0.000445644
0.439157
0.00123465
-0.00166017
-0.0249723
-0.00608148
-0.0543574
-0.0131403
-0.0020422
-0.000467953
0.41668
-0.00207246
-0.00866536
0.562593
-0.0118405
0.533012
5.21406e-05
-0.00733807
0.507524
0.679719
-0.0104604
-0.00479527
-0.00514672
0.000172124
-0.00301046
0.522749
-0.00323778
-0.0167192
-0.00242289
0.000151473
-0.000449216
-0.00231925
0.00018367
0.3686
0.000174567
-0.00888705
-0.000904926
0.000415019
0.00011499
0.249538
0.480654
-0.0127801
-0.0158386
-0.0181097
0.00018241
-0.00146674
0.000173211
-0.0177061
-0.0192303
0.281984
0.485686
-0.0206336
0.259819
-0.0011872
-0.0420703
-0.00154733
-0.0207576
0.337371
0.219761
-0.0226727
0.00242776
0.496749
0.365786
-0.00308241
-0.000267525
0.000569593
0.627225
-0.000673836