/*--------------------------------*- C++ -*----------------------------------*\
  =========                 |
  \\      /  F ield         | OpenFOAM: The Open Source CFD Toolbox
   \\    /   O peration     | Website:  https://openfoam.org
    \\  /    A nd           | Version:  7
     \\/     M anipulation  |
\*---------------------------------------------------------------------------*/
FoamFile
{
    version     2.0;
    format      ascii;
    class       volScalarField;
    location    "21";
    object      p;
}
// * * * * * * * * * * * * * * * * * * * * * * * * * * * * * * * * * * * * * //

dimensions      [0 2 -2 0 0 0 0];

internalField   nonuniform List<scalar> 
7639
(
0.25277
0.00147553
0.468485
0.285855
-0.00142745
-6.25825e-05
0.474775
-0.00865983
-0.000200112
0.120285
-5.89134e-05
0.003936
-0.0129071
0.0600466
0.125269
-0.0168862
0.266668
-0.016808
0.00172513
-0.0732134
0.0796495
0.00258474
0.0444605
0.234151
-0.0217588
0.26925
-0.00131756
0.0740823
0.19531
0.004032
-0.0229907
0.744067
0.0436327
-0.000805447
-0.000175654
0.0982815
0.00456956
0.458189
-0.00732942
-0.00056285
-0.00670244
-0.0162562
-0.0730106
-0.0611051
-0.000336613
-0.000137756
0.00254341
-0.00753534
-0.000114028
-0.0724037
0.00590851
0.0703366
-0.0273389
-0.0040001
0.0974297
-0.00772157
0.00190868
-0.00866004
-0.0350604
-0.000839756
6.56156e-05
0.0075648
0.0604006
0.00434222
-0.00161188
-0.0225203
-0.00016187
6.79976e-06
0.0268745
-0.0070569
-0.000126498
-0.0592852
-0.0210469
-0.0353085
-0.0162544
-0.0493643
0.460546
0.0781124
0.0562266
-0.0651041
-0.0123827
0.422821
0.113095
-0.0368378
-0.00238804
-0.0037627
-0.00925323
-0.0265368
-0.00108854
-0.00730538
0.199796
-0.0843711
-0.000223888
0.00194284
-0.00582568
-0.0363071
-0.056593
-0.000650569
-0.00263011
-0.00191998
-0.059701
0.0641912
-0.00552844
-3.37116e-05
-0.0827808
0.202595
0.639977
-0.00820382
-9.89301e-07
0.0399079
0.268226
-0.0476807
-2.51555e-06
0.0423014
0.203489
0.0007576
-0.0618844
0.162178
-0.0430287
-0.0360871
-0.0618511
0.403088
-0.069994
0.0166978
-0.0604038
-0.00160316
-0.0206369
0.003229
-0.00170054
-0.023047
-0.131559
0.0585432
-0.0010078
-0.00128253
-0.0380863
0.260229
0.509186
-2.9057e-05
0.0132083
-0.076601
-0.0334813
-0.050866
-0.0497625
-0.0339116
0.647358
-0.020899
0.196553
-0.0340702
-0.0459792
0.40172
0.0939541
-0.0702546
-0.00248333
0.00163999
0.112753
0.420355
-0.0561744
-0.0128554
0.600763
-0.00010331
0.000921672
0.2433
-3.18192e-05
-0.00342786
-0.00655844
0.305862
0.306449
0.625271
-0.00388664
-0.00509838
7.74997e-06
-0.0640079
0.000746626
0.00848271
0.0143473
-0.0453836
-0.0614187
0.124168
-0.00022235
-0.000840847
0.290239
-0.000102903
-0.000188905
0.476406
-0.00455134
-0.040115
-0.0405549
-0.0333728
-0.0243759
-0.075034
-3.46748e-05
-0.0547204
0.126565
-0.00557713
0.000120269
0.196058
-0.00207972
-0.0216801
-0.0234688
9.2024e-06
0.00155289
0.268939
0.16407
0.42434
-0.0557478
-0.0431245
-0.10076
0.0807986
0.266991
-0.000360783
5.79825e-05
0.605918
-0.0144331
-0.00104823
-0.0524192
-0.0216057
0.378615
0.389017
-0.0552889
0.704816
-0.00192925
-0.016531
-0.061127
0.0962087
-0.0886305
0.198289
0.602047
0.000104478
0.0175341
0.173318
-0.00690666
0.158086
-0.000923942
0.670214
0.411675
-0.00919721
0.00469302
-0.00052252
0.0788353
-0.000161196
-0.0105136
-0.0725143
-0.000126114
-0.00227187
-0.000733114
0.164714
-3.2038e-05
-0.0075851
-0.0634551
0.743075
0.0509132
0.651519
-7.74489e-05
-0.026139
-0.000322035
0.441691
0.00727674
0.510388
0.00231445
0.00131418
0.00697592
0.0842382
0.00102389
-0.000392561
0.000910251
-0.0072797
-0.0403914
-7.23898e-05
-0.054336
-0.00624837
-0.000245349
-0.00108708
0.485511
-0.0128678
-0.00132409
0.705976
-0.00250027
0.26516
-0.00035851
0.000523047
1.29304e-05
-0.0387415
0.0925754
-0.0575967
-0.0353446
-0.000712774
-0.0655613
-0.0248632
-0.000311462
0.000878701
-0.00373527
-0.0124083
0.00530149
-0.00212529
-0.0352521
-0.0355621
-0.0348023
-0.0502267
-0.0435114
0.399561
0.418436
-0.00258018
-0.101093
-1.26532e-05
-0.00406274
-0.0365867
0.227413
0.126824
0.000167018
-0.00374005
-0.0423652
0.183508
-0.00172667
0.00647336
0.00218979
0.0177959
-0.120923
0.367057
-0.00275603
-0.00188327
-0.000199764
0.0073035
-9.20187e-05
-0.0277276
-0.000600692
0.00717675
-0.146718
-0.0435369
0.00284828
0.0157713
-0.00128013
0.0342903
-0.0125003
0.0800585
0.171071
-0.126131
-0.0607816
-0.0255407
0.00921694
-0.0706677
0.638399
-0.0541963
0.0523701
0.690818
-0.00265813
-0.00302134
-0.0712021
-0.00188267
-0.017398
0.0114034
-0.00482209
-0.00358873
0.181913
-0.000120191
0.00097807
0.000134025
-0.00586483
-0.0119026
-1.52387e-05
-0.00190785
-0.0336545
0.597707
0.00397774
-0.0141548
0.560066
0.352673
0.0708179
-0.0909204
-0.0646866
0.00888519
0.294182
-0.0181213
0.321195
-0.028415
-0.0790628
0.172934
0.321332
-0.051379
0.118804
0.186994
0.283574
0.0785595
-0.00524812
-0.00723348
-0.000154997
0.00456708
-0.0184879
0.00174498
-0.000188241
-0.00279258
-0.0652789
0.0639199
-0.0268227
-0.00467462
-0.00651568
-0.00307715
-0.0118345
0.00310248
0.148341
-0.00325226
-3.9235e-05
-9.82958e-05
8.33091e-05
-0.0322001
0.176821
-0.00687665
0.0484201
-0.0950008
0.448591
0.0058098
0.012104
-0.00873991
0.468147
-0.00184377
0.359983
0.200951
-0.000205375
-0.0307236
-0.00567439
-0.0490305
0.00100656
0.0807987
0.00556542
0.0112301
-0.0014906
0.147377
0.188957
-0.0464934
-0.0337595
-0.00396435
-0.0258395
0.0111169
0.731078
-0.0541505
0.00805692
-1.51532e-06
-0.0212255
-0.00393304
0.0314095
-0.0797996
-0.101781
0.484852
0.16784
-0.0924036
0.205097
0.457465
0.0485228
0.00214265
0.301709
-0.00157302
-0.000323367
-0.0273271
0.000151661
-0.108863
-0.000803243
-0.0354488
0.003418
0.205825
-0.00308191
-4.27426e-05
-0.0834248
0.00309615
0.0182218
-0.0576249
-0.0749341
-0.0992311
0.175477
0.144272
0.148475
-0.000361969
0.0518933
0.087522
-0.000925625
-0.0258743
0.00108159
0.00934807
-0.004774
0.00848556
-0.00136384
0.0847015
-3.47539e-05
0.000349991
0.00352666
-0.0332319
0.035668
-0.0335402
-0.0387325
-0.0375118
-0.0958821
0.0106266
0.290002
-0.118696
-0.0110828
0.678571
-0.0557017
-0.0124955
-0.0385743
-0.0102253
-0.0313759
-0.0164528
0.047472
-0.0624626
-4.61015e-05
0.0416392
-0.000169967
0.407085
0.0265686
-0.00820556
-0.022035
-0.000332487
0.424693
0.357292
0.0331464
0.0692862
-0.0588729
0.525767
-0.000111734
0.0263493
-0.0278181
0.135761
0.629698
-0.00214025
0.163739
-0.00334356
-0.000359515
0.0533751
-0.119823
0.445382
0.0224331
0.251868
-0.0116702
0.458991
0.338104
-0.0146837
-0.0124923
0.0387829
-0.076291
-0.000149899
-0.020367
-0.073574
-0.0611407
0.0197599
0.0162387
-0.00022099
0.358721
-0.00199827
-0.000182584
-0.0311739
-0.000861395
-0.000393895
0.00572609
0.233695
-0.0751794
0.584892
0.000108101
0.227551
-0.0253561
-0.000133873
3.13396e-05
0.192126
0.229173
-0.00677646
0.210819
4.45498e-05
0.222181
-0.125287
-0.0153474
0.481001
-0.0503591
0.0603909
-0.0370106
0.21736
0.22273
-0.0250544
-0.031468
-0.00989188
-0.00477824
-0.000352339
-0.00220374
0.301318
-4.8112e-05
0.216054
-0.0731414
0.380381
0.205568
-0.0750659
0.566903
-0.00270614
0.00728215
-0.0460606
-0.0300567
-0.0105596
-0.0286526
0.0409357
0.667716
7.39041e-05
-0.00318759
-0.0466457
1.03968e-05
0.414614
0.00314901
9.93275e-06
0.000334929
0.000661788
-0.0264791
0.0302998
-0.00257218
-0.000150476
-0.0111772
0.00402894
-0.0865872
-0.0692984
0.0363157
-3.83419e-05
-0.112147
-0.0199017
0.0550605
0.376623
0.00196532
0.0807457
0.000264356
-0.0191025
0.108787
-0.0105834
0.248112
-0.0195764
0.0302431
0.112782
0.16244
0.0072678
-0.0157131
0.173731
-0.0709326
0.448966
-0.0141802
0.274586
-0.0141076
-0.00192523
0.156184
0.000829032
0.10406
0.00324882
8.68554e-06
-0.0916143
0.142631
0.0024412
0.0612741
-0.0186041
-0.111556
0.00205401
-0.0347187
-0.0027714
-0.0134157
-0.0637919
-0.0396045
-0.0148446
-0.000253877
0.47665
0.0829217
0.0479689
-0.000336995
0.337969
6.62485e-06
-0.00031022
0.0999049
0.00157985
0.116754
0.0727571
0.0280879
-0.0440393
-0.0946422
-0.0874081
0.00223256
-0.0562302
-3.27747e-05
0.00610347
0.238422
-0.0239157
-0.0045811
-0.0130748
-0.00322991
-0.000685817
0.691774
-0.0149681
-0.000922262
-9.881e-06
0.159831
-0.0415073
-0.000553333
-0.00453062
0.185066
0.0912148
-0.0507573
2.19845e-06
0.205639
-0.0237589
0.196569
0.0276708
0.0339509
-0.0417147
-0.00016164
0.110082
0.0804373
-0.0567348
-0.0680679
0.303927
0.0102772
0.164329
-0.00440443
-0.0299963
-0.000658879
-0.00278608
-0.000181224
0.178644
0.235332
-0.00244987
0.0311803
-0.0252934
-0.0561264
-0.0622427
-0.00305979
0.0242463
0.659181
-0.056425
-9.36779e-05
0.0916043
-0.00619403
0.560228
-0.0184664
-0.0178866
-0.00508702
-0.0205461
-0.0109503
-0.0118796
-0.00568354
0.00252749
0.0330995
0.000177887
-0.134351
-0.0528481
0.389181
-0.0488685
0.128163
0.00345416
-0.044988
-0.0192212
0.239388
-0.0112152
0.000178837
-0.0232618
-0.00859294
0.0278934
-0.0378615
-0.032727
-0.0368963
-0.0215238
-0.00958081
-0.0647366
9.22846e-06
0.0480105
-0.0571021
0.101667
-0.0523931
0.103796
-0.0700284
0.337369
0.00619739
-0.0430097
-0.0212676
0.593685
-0.110555
-0.0193133
-0.089805
-0.0372007
-0.0827086
-0.0503945
0.166812
-0.00455603
0.286706
0.0147601
-0.000656915
-0.00202001
0.0815709
0.750591
0.00175597
-0.025854
0.194031
3.75958e-05
-0.0301431
0.0442484
-0.00495679
0.0149886
-0.00269565
-0.0390431
-0.00503034
4.83659e-05
-0.0480124
0.269633
0.00266578
-0.0243496
0.0031843
0.193353
-0.000638934
-0.00205714
-0.000601777
-0.00130225
-0.0325782
0.0019984
0.00445711
-0.026113
7.47012e-05
-0.0912275
-0.118437
-0.0995918
-0.0224195
0.024411
-0.000357167
-0.0190516
-0.0623402
-0.037315
0.383571
-0.00210258
-0.0673642
-0.0077042
0.0095696
0.133765
0.000732845
-0.000264237
0.044513
-0.0400833
0.0240085
-0.00486573
-0.00342069
-0.0576308
-0.000297411
-0.00174278
-0.0197638
0.330321
0.2643
-0.0395587
-0.0554051
0.012164
0.00591078
-0.0336277
-0.0627586
-0.0170467
-9.29877e-07
-0.0289674
-0.0355062
-0.0682596
0.00568657
-0.0544238
-0.000670425
-0.00490991
0.209562
-0.0400827
-6.99526e-06
-0.00463201
-0.0983706
-0.000279577
-0.0214788
-8.57552e-05
0.006369
-0.0845152
-0.0384624
-3.79661e-05
5.07832e-05
0.138432
-0.0467021
0.428962
0.263558
-0.0238595
-0.000985459
-0.0168017
0.000362836
-0.124063
-0.0767954
-0.0821987
-0.0237056
0.240156
0.0123337
0.000453044
0.0083398
-0.0971275
0.00327789
-0.0264837
-0.0604226
0.00208361
0.0264265
0.0779515
0.0115487
-0.0322423
-0.0621078
0.203581
-0.0318898
-5.06084e-07
-0.0865063
-0.0651146
-0.0379863
0.00631509
0.00125681
0.01043
-0.0829554
0.038184
-0.0377852
0.0998979
-0.0445156
0.00907962
0.0231501
0.0155983
-0.0384579
-0.113777
-0.000174803
0.158246
0.224329
0.00963223
0.155112
-0.0645675
0.0527027
-0.0467609
0.214749
0.108901
0.652051
7.04539e-06
0.101519
0.183618
0.0180671
-0.00188156
-0.0205552
-0.0436995
6.99944e-05
-0.0205228
-0.049497
-0.0224589
-0.0246989
0.00021335
-0.104645
-0.000482438
-0.00112218
0.259808
0.0078948
-0.0236459
0.0242329
0.222924
0.013031
-0.000511495
-0.096379
0.00971329
0.404581
0.00161647
-0.0516702
-0.000289839
-0.000706526
0.00828577
-0.0517956
-4.14991e-05
-0.0124524
0.0335015
-0.00245996
5.04513e-05
-6.20836e-05
0.162771
-0.0436174
0.00827141
-0.00140883
0.0104719
0.0190116
0.0102999
-0.000376272
0.364559
-0.0859128
0.236514
0.306026
-0.000271316
-0.0304005
0.103473
-0.00098268
-0.000342572
-0.00055182
-0.019438
0.0163812
-0.0134393
-0.0223606
-0.0632305
0.180445
-0.0841922
1.59004e-05
-0.0217377
-0.0207644
-0.0388262
-0.00531415
0.00729444
0.00156653
0.0330104
-0.000656089
-0.000301012
-0.0195231
-0.00524423
-0.0276441
-2.0185e-05
-0.0167367
0.0392525
-0.0274313
-0.0314892
-0.0099359
-0.0133484
-0.0104776
-0.00631725
0.00892126
-0.0108218
-0.000134786
-0.000512304
0.0271501
-0.0138757
-0.00599028
0.0102289
0.00319963
-0.101183
-0.0126238
0.166722
-0.0142778
-0.0550705
-0.0271324
-0.0252547
-0.0175387
-0.00457419
0.00275436
-0.00429087
-0.0157602
-0.0181099
0.194289
0.144355
0.0516415
0.374414
-9.24033e-05
-0.00402373
-0.0184556
-0.00932759
0.0665331
-0.0226068
0.0460375
-0.00521444
0.203973
-0.00237158
-0.00199034
0.0148691
-0.0201694
-0.000277571
-0.0241023
-0.00710393
-0.0232454
-2.57343e-05
-0.00798202
0.00245599
-0.0196553
0.0359154
0.0414432
0.0226391
-0.0157948
-0.0345196
0.12438
-0.0015666
-0.0023997
-0.00258002
0.554512
-0.00011373
0.0725806
-0.0236611
-0.0228134
-0.0291794
-0.0437741
-0.0315812
-0.0373449
-0.0204825
-0.00555929
-0.00012379
-0.00517291
-0.0241533
0.106743
0.00208544
0.104178
-0.0359696
-0.0149772
-0.00113089
-0.0317681
-0.000130264
0.157607
-0.0331546
-0.0289191
-0.0264447
-0.00478765
-0.0359378
-0.00205923
-0.0438901
0.109865
-0.0285311
-0.0694189
-0.0017874
-0.0297751
-0.0206586
0.0183904
-0.00392532
0.151566
-0.00292277
-0.0213702
-0.000830973
0.170443
-0.0421915
-0.02918
-0.00394257
-0.0111799
-0.00334887
0.17633
0.00305381
0.153633
-0.00584706
-0.00100509
-0.00154119
-0.00283068
0.125494
-0.0632343
-0.0081568
0.000415959
-0.00894678
-0.0131317
-0.00110656
-0.0163706
-0.0176327
0.064379
-0.00597134
0.00504348
0.547197
-0.0645839
-0.0316673
-0.0606222
4.31324e-05
0.0834728
-0.00429121
-0.0296316
-0.00674202
-0.0388325
0.00512769
-0.000658561
-0.00352096
0.0039916
0.213584
-0.00702637
-0.00217729
-0.0055963
-0.0559092
-0.00988915
-0.0246441
0.0052599
-0.0103499
-0.0106588
-0.00397023
0.215808
-0.0493724
0.0039312
-0.00511124
-0.0304017
-0.0163073
-0.0527665
-0.00171404
0.0990155
0.0270658
-0.00934523
-0.00210709
-0.0157931
0.570542
0.214978
-0.0132472
-0.000710273
-0.00290018
0.00338401
-0.00480537
0.0247653
-0.000511915
-0.0186555
-0.00240189
-0.0194261
-0.135027
-0.00130035
-0.013219
-0.00165249
0.345142
-0.00771018
-0.0137074
-0.0387376
-0.00234381
-0.0329826
-0.0225982
0.497832
-0.0126081
-0.0133446
-0.00257265
-0.000572563
1.72893e-06
-4.92869e-06
-0.0119148
-0.000817264
0.0811992
-0.00082466
-0.00220971
0.00990636
-0.000317989
-0.0476348
-0.0584227
0.0205352
0.045534
0.0307942
-0.0239369
-0.0431367
0.0976302
0.077225
0.103959
0.131421
-0.0150904
-0.0010528
-0.00699509
-0.0645375
-0.00425624
-0.0173705
-0.0281505
0.340664
-0.0514095
-0.000593505
-3.79692e-05
-0.00178691
-5.62506e-07
0.0101602
-0.000685917
-0.00558354
-0.0509409
0.000662797
0.00320215
-0.000269636
0.0621685
-0.0177961
-0.045776
-0.00148147
0.354344
0.264894
-0.011827
-0.0706103
-0.0308725
-0.026987
-0.016661
-0.00227842
-0.073106
-0.0350082
-0.0454055
-0.10457
-6.35715e-05
0.188804
-0.017248
-0.0113485
-0.0322618
0.0222621
-0.000653711
-0.00989193
-0.00165857
0.0144925
-0.00186269
0.145444
0.000428264
0.0121226
-0.000509162
-0.102529
0.0106592
-0.000935328
0.00812327
0.000500143
-0.0237933
0.115845
0.00134547
-0.0017545
-0.000155345
-0.000705374
-0.000620971
-0.0634718
0.133734
-0.0233212
-0.000331114
0.0107445
-0.000563434
0.244321
-0.0624542
0.253682
-0.0461167
-0.000553598
-0.000354349
-0.00866639
-0.00674319
-0.000774674
-2.27632e-05
0.0291152
0.0334971
-0.000291258
-0.000411532
-0.0223395
-2.74121e-05
0.179201
-0.00113655
-0.0553584
-0.0215902
-0.00756893
-0.0579498
-0.0634184
0.161813
-0.0220539
-0.0228703
-0.000389644
-0.0590419
-0.0233308
-0.018911
0.0462266
0.381417
-0.00142674
-0.0617145
0.0139831
0.320916
0.0446159
-0.000147778
-0.00718133
-0.00488155
-0.00591921
-0.0504324
0.0908082
0.000217327
0.0188053
0.00360699
0.0709042
-0.000639671
-0.000151975
-0.0892026
0.287288
-0.0570898
0.138751
-0.00153549
-0.000248766
-2.99747e-06
-0.0804593
-0.0444194
-0.00042012
0.096398
0.0134538
-0.00637467
0.456328
-0.000483946
-0.00443355
-0.0611913
-0.0271871
-0.00275332
0.144647
-0.0596659
-0.000204595
0.0130976
-0.000216413
-0.000124957
0.140692
-0.000434051
-0.000555618
-0.0539279
-0.0273868
-0.00419976
-0.0326156
0.0029068
-0.0255005
0.00200912
-0.00419339
-0.0665119
-0.040831
0.0181786
-0.00109351
0.161806
0.222414
-0.0886276
0.0112539
0.0225805
-0.00512349
0.178094
0.103639
-0.0307782
-0.000200176
0.0115699
-0.0573827
0.0119607
-0.0307475
-0.00254152
0.0435442
-0.0304644
-0.000169252
-9.13138e-05
-0.0389209
-0.0282853
-0.0287158
0.011456
-0.0155065
-0.0469561
-0.00018925
-0.00168713
-0.000256797
-0.0365934
-2.94446e-05
-0.00233518
-0.0469044
-0.0890613
0.0635393
-0.00358045
0.00504981
-0.0238688
-0.028156
-0.000159051
-0.0487029
0.0426438
0.168343
2.83038e-05
-0.000137653
0.171594
-0.00302903
-0.0803819
-0.0429852
0.00408925
0.000578164
-0.0697536
-0.0313437
0.175949
-0.0585301
-0.00177752
-0.0110317
-0.0547351
-0.00070585
-0.000295934
-0.00109932
-0.0257894
-0.0535687
0.113151
-0.000258588
0.571549
-0.0538817
0.000139042
-0.00117719
0.000301963
0.00034614
-1.77412e-05
0.000164911
-0.0551381
-0.000878006
0.000521978
-0.000243772
0.150883
-0.00680124
-0.000237564
-5.57976e-05
0.3795
-0.0240561
-0.0504536
0.0013721
-0.000877762
0.0583941
-0.000121514
-0.0148639
-0.128371
0.00264253
-0.00771979
-0.000119205
-0.000252659
-0.0335483
-0.0618022
0.00871925
-0.104866
-0.0616596
-3.4505e-05
0.0251322
0.0377156
0.117567
-0.00207113
-0.000192692
-0.0585879
-0.00722314
-0.000609351
-0.0517405
-0.000169262
0.0404971
-0.000110954
-0.00153643
-0.0584116
-0.00255399
-0.0606332
0.518043
-0.00198075
0.000330417
-0.0564832
-0.0551241
0.0109676
0.00568145
-0.000185787
-0.0341004
-0.000104265
0.21063
0.703149
0.0517238
0.00367871
0.0043533
-2.29793e-05
-0.0306521
-7.14339e-05
-0.00847177
-0.00204487
0.000446201
-0.00401384
-0.0112208
-0.000151087
0.00104964
-0.00968094
-0.000382233
-0.0116342
-0.0185959
-0.00846413
-0.00138554
0.625355
-0.000841525
0.00295193
0.000292698
0.0166019
-0.0521231
0.0115277
-0.000216853
-0.000122877
0.0031888
-0.000135134
-3.66234e-05
-0.0134538
0.000836996
-2.95724e-05
-0.0534682
-0.00273143
-0.0584149
-0.00197521
-8.37164e-05
-0.00373427
-0.00959497
-0.0171627
-0.0260118
0.00280304
0.000628042
-0.000565751
-0.00235211
-9.79542e-05
0.298171
0.00188125
-2.42035e-05
0.000701408
-0.00243044
-0.000435164
-0.0654622
-0.0568681
-0.000160878
-0.00821219
1.58329e-05
-0.00315515
-9.0263e-05
0.0408415
-0.000172094
-0.000229087
-0.0042329
-2.91159e-05
0.0161644
-0.000274205
-0.00151551
0.0223376
1.42998e-05
0.415554
-0.0559736
-0.0444055
-3.1028e-05
-2.57358e-05
0.00227534
-0.00142169
-0.0534934
-2.0798e-05
-2.88879e-06
0.000894483
-3.69097e-06
0.000453917
0.000539129
-0.000554747
0.000945177
-0.0549895
0.534726
-0.0363098
0.366052
0.0108847
-0.0190625
-2.26194e-05
-0.00105678
-0.0140574
0.000171214
0.000339941
0.000202372
0.0422439
-0.00162603
-0.000266188
0.552355
-0.000652541
0.000702835
0.000603911
-5.69825e-06
-0.0693478
-0.00260002
0.00136508
0.00014847
-0.000643451
-8.37613e-05
-0.0011211
-0.0466565
-0.000502318
-0.0019207
-1.93356e-06
-0.000534477
-0.000312992
0.206466
-0.000532123
-0.000332377
-0.0710823
0.00453776
-0.000104835
-0.00159489
-7.50454e-05
0.187675
-0.0745185
-0.00036087
-0.000466849
-0.00226327
-0.000191655
0.0630538
0.114195
0.0165215
0.000609131
-8.32015e-06
-1.15787e-06
0.0559942
0.000303177
-0.063145
-0.0268218
-0.0180826
-0.128633
0.631857
0.00236232
0.194012
-0.016748
-0.0319965
0.191308
-0.000429974
-0.067653
-1.55368e-05
-0.0104128
-0.0518421
6.55357e-05
-0.0514179
-0.00113486
-0.00825896
-0.00647827
-0.0456328
-0.0452767
-0.00376843
-0.0631422
-0.0469094
-0.000225637
-0.0139615
-6.40366e-05
-0.0404213
-3.39399e-05
-0.000224432
0.0169858
0.181027
-4.47711e-08
-0.048341
0.00428229
9.0612e-05
-0.0235704
6.74724e-06
-0.015664
-0.000313836
-0.0413778
0.000150056
-0.000105937
-0.00241697
-5.9756e-05
0.176411
-0.0334008
0.0550554
-3.75454e-05
0.000751783
-0.0354575
8.25595e-07
-0.059688
-0.0684556
-0.0582572
0.577721
-0.00753894
-2.13093e-05
0.0304016
-0.0446092
-0.00301492
-3.15127e-05
-0.0001038
-0.0502181
0.000151258
0.00104679
-5.89931e-07
0.000189753
-0.030868
0.0325646
-0.0641575
0.101047
-0.00622561
-1.47084e-06
0.00744872
-0.0532573
-2.53241e-05
-1.67378e-05
0.000383891
7.6792e-05
0.000485439
0.189632
0.0407294
6.70637e-05
1.28067e-05
-0.0683683
0.22224
0.192472
-5.38771e-05
-0.0392449
-0.0217443
-0.0120155
-0.0508462
-0.00988837
-0.00341018
0.156397
-5.06628e-05
-0.0291403
0.185868
-0.0518418
-2.18748e-05
-0.0639481
-0.000210233
0.284313
0.0322431
-1.82639e-05
-3.35179e-05
0.199702
4.12155e-06
-0.000216756
-0.0134693
1.47424e-05
0.261624
0.00398974
-0.00850653
-0.0668766
-0.00439335
-0.0744941
0.202944
-0.0131477
-0.0372339
0.00118537
-2.37424e-05
-0.00120977
-1.05456e-05
-1.97096e-05
0.0251188
0.200755
0.166243
-0.000524236
0.275076
-0.0132421
8.76773e-06
-0.04861
-2.23029e-05
-0.0306572
0.0335246
-0.0164921
0.00527628
0.00223085
-0.0106816
0.000297249
-0.00196357
0.0226867
-0.00335381
-5.85932e-05
3.50743e-05
-7.41219e-05
0.036588
6.54044e-05
-0.0248643
0.291397
-0.00696076
6.0374e-05
-0.0040328
-1.2756e-05
0.0296675
-0.000423084
-7.89025e-05
-0.000101613
-1.57733e-05
0.234559
-0.000181612
0.250548
-0.0640178
0.00013237
-0.0545106
-0.000575247
0.173775
0.567667
-0.00164588
2.86676e-06
1.85351e-05
-2.54148e-05
0.135615
7.47597e-07
0.00124688
-0.0268696
0.238215
7.68533e-06
1.75674e-05
3.44633e-06
2.94782e-05
-0.022938
2.07868e-06
0.24927
-0.0181464
-0.000147583
3.52239e-05
-0.00240047
-0.0315785
1.6722e-06
-6.785e-05
0.183823
4.00023e-05
-0.0348148
-0.0543108
0.000157266
9.13875e-07
-0.114383
1.45961e-06
0.176381
1.75212e-05
-0.000527303
1.34875e-05
-0.000207543
0.10324
3.54592e-06
-0.00191331
9.29771e-06
0.0147745
-0.00394291
-0.00737318
0.000945113
0.170497
-0.000319723
-9.65625e-05
-0.0101399
-0.00979713
-0.000288572
-6.4395e-05
-0.00104828
4.72813e-05
0.142982
-0.0117905
0.557796
-9.51187e-07
-0.00875746
-0.000187677
0.137335
6.72644e-05
-0.0290508
2.77542e-05
-0.00184269
-0.0362743
-0.000272829
-0.0176628
-0.0524359
0.00595367
-1.15888e-05
-0.0583307
-0.000392276
-0.000350301
-0.00637646
-0.0158752
0.00152266
-6.08022e-05
-0.000513039
-0.00106435
-0.00148938
1.50702e-05
-0.00141026
0.547794
0.000115157
-0.00377669
-0.0377766
-0.0748554
-0.0656912
-0.0506694
-0.0241167
-0.000617845
-0.0177496
9.0986e-05
-9.74894e-05
0.547845
-0.00011215
0.176152
-0.000529186
0.000472131
-0.00132245
-0.0676775
-0.000491982
0.000733039
-1.85416e-05
-0.000462383
-1.96708e-05
-9.50473e-05
-0.0167604
-0.000130676
-3.35513e-05
-9.90534e-05
0.000170533
-1.27157e-05
-0.0456694
0.203458
-1.1828e-05
-0.000705129
3.30207e-05
3.64895e-05
-0.000975182
1.0643e-05
-0.00105587
0.000334188
-0.00043129
-0.0664916
-0.00080862
-0.00212344
5.565e-06
-0.00182342
0.000397127
-1.80268e-05
-1.1727e-05
1.57686e-05
-0.000929941
0.000637257
-0.0473252
-0.029607
-0.0670535
0.000689022
-0.00216407
-0.0329515
-0.0674988
-0.000111891
0.0178672
0.0080165
-0.00121966
-0.0133105
-0.0585351
0.490879
-0.000493217
-1.79491e-05
0.0010455
5.80825e-05
2.08042e-05
0.0833527
0.00426088
0.0963692
-0.0390156
0.47788
-0.000612263
2.4447e-06
0.000177666
-2.1809e-05
-0.00158457
0.159334
0.24466
-6.60319e-06
-0.000201036
-2.12075e-05
0.231023
0.0192169
-0.00656636
1.37907e-05
2.28256e-05
0.00849103
-0.000813596
-0.0731903
-0.0185876
2.78765e-05
0.00410573
-0.0337387
-7.17675e-05
0.00213333
-8.06706e-05
-0.0485135
-0.00201847
0.153851
1.95365e-05
0.00197936
-0.000123662
1.74787e-05
0.000202571
-0.0252818
1.71916e-05
-0.00106555
2.63025e-05
-0.0216679
-0.0481215
-0.00354922
-0.00804254
-0.00969633
0.010635
-0.00982618
-0.00284292
7.96303e-05
0.000122693
2.38728e-05
2.08737e-05
-6.70867e-05
0.0105207
-0.0596501
0.000579306
-0.0458285
-0.00354316
-0.0524602
0.000102983
-3.81306e-06
0.00154302
-0.0920326
2.11982e-05
-0.0455826
-0.01638
-0.0695976
-0.0460173
3.12629e-05
-0.00395261
0.000228068
-0.134957
0.146494
1.27922e-05
-0.0617933
-0.0243993
-0.00485094
4.4453e-05
-1.02448e-05
0.0281024
-0.0183298
2.78199e-05
-0.00767544
-6.51128e-06
0.000253539
0.133282
-9.95088e-06
2.64606e-06
-0.000101913
4.05077e-05
0.00106188
0.000103349
-0.00595761
0.000274725
-0.0139845
0.00130258
-0.000244335
-0.0346557
-0.0453713
-0.00709144
-1.80334e-05
2.50703e-05
-0.061717
0.00672081
-0.0500027
3.32025e-05
-0.00585035
-4.3148e-05
2.84817e-05
0.0741931
-0.0078908
-0.00318327
-2.34801e-06
-0.0195607
5.83261e-05
-0.068716
3.1282e-05
-0.0773037
2.12704e-05
-7.09637e-06
0.000100048
0.00120415
-0.08375
-0.019843
-0.0710003
1.82305e-05
0.000109681
-0.0787285
-0.0271269
-0.00944512
-5.78572e-06
-0.0329791
-0.0525098
-0.0788608
3.33046e-06
-9.18494e-06
4.00313e-06
-0.077197
-0.0688738
0.000852155
-0.0122783
-6.71124e-05
0.195378
0.000110761
1.62301e-05
0.000176082
-1.17951e-05
-1.0129e-05
-0.00411727
0.000132386
-0.00292332
-0.0661184
-0.0144651
-0.0602231
4.61234e-05
-6.07652e-05
0.0537344
-0.0526635
-0.00536517
0.120822
3.86257e-06
-1.59656e-05
-1.45498e-05
0.0798449
0.000203042
-4.23454e-06
-6.01146e-06
-0.061784
-0.0170228
5.65636e-06
8.99554e-05
-0.0102983
-0.00721276
0.00050387
0.246632
-0.0607408
0.000193444
0.712078
-2.33167e-05
-0.000798066
-0.00946439
-0.0788685
6.94346e-06
-4.09948e-06
2.51957e-05
0.00559177
-0.0348482
-0.000394408
-0.051651
-0.00864811
3.10458e-05
-5.47554e-06
-0.0112712
-0.00476617
-0.0208372
-0.0759594
-0.0477999
-0.0412515
-0.0116703
-0.0291027
-7.48676e-05
0.000414708
0.00619391
0.000626678
-9.46849e-05
0.000898399
3.51996e-05
-0.000109521
-0.0133818
-1.41671e-05
-3.42628e-05
0.0386756
-0.0255005
-0.00019053
-4.97796e-05
-6.76537e-06
0.270406
-0.00741226
0.000923206
-0.0302864
0.000267452
0.000232535
0.000200055
-5.78364e-05
0.000565558
-0.0402645
0.0185279
-1.07864e-05
-0.000192519
-0.0439891
-0.0339455
0.0539107
-0.000568673
0.00216171
0.0204949
1.5559e-06
6.98542e-05
-0.0494666
2.59517e-05
0.178141
8.67894e-06
0.0048904
0.000194473
0.00026166
-0.0718707
-0.00819322
-0.0195545
-0.00273261
3.09541e-05
0.00742491
0.0675773
-0.0135868
-0.000157596
0.102656
0.174019
3.88729e-06
-0.0544145
-7.91172e-05
-1.23094e-05
-5.27134e-05
-0.000655157
0.0226616
-8.09075e-06
0.000289285
-0.0266633
-0.0278425
-0.0239438
0.34185
1.96622e-05
-8.17651e-05
0.183436
-0.0064271
-0.00428502
-0.000754876
0.180619
5.09058e-05
-0.000365026
5.21948e-05
2.99498e-05
3.6855e-05
4.20468e-05
8.62087e-05
-0.0194242
8.91024e-06
-0.00375703
-0.0470252
0.251473
-0.00016692
-5.86129e-05
0.00547469
0.0923397
-0.0486325
-0.000868619
-0.0719933
0.339194
5.03873e-05
0.448149
-5.28745e-06
0.00388068
0.027723
0.000508465
0.486934
-1.88202e-05
-7.16751e-06
0.00135726
3.61336e-05
-0.00099581
0.000306434
1.22157e-05
-0.00223572
1.02806e-05
-0.000169692
-0.00374396
0.263669
0.0557192
0.0251651
-0.0462646
-6.03533e-06
-2.19245e-05
0.00394314
-0.0572024
-1.16524e-05
-0.0491744
-6.35075e-05
0.112042
0.0678949
-0.0355025
-0.00154495
-0.0131908
-0.00113263
-0.0163146
0.00439553
-0.00824923
0.0697542
2.4478e-06
0.230381
0.0226837
-0.000678204
0.224427
-0.0147624
-1.46055e-05
2.63455e-05
7.80947e-05
-0.000245341
-0.000141895
0.267596
-0.00112733
0.274125
-0.00123589
0.178628
0.234981
0.0935404
-0.00787411
-6.44104e-06
7.18997e-05
-0.0117725
-0.104696
-0.0513209
0.00174715
2.21077e-05
-0.0407356
-0.000366608
4.60193e-06
0.00118261
-0.00122757
-0.000745787
0.0372985
8.82709e-05
-0.0511489
0.0633607
6.78148e-05
0.000313303
-0.0158087
-0.0607976
-0.000843308
-0.000600307
1.40177e-05
0.000291417
0.046244
-0.018732
-0.0508521
0.00153213
0.0786642
-0.0417122
4.0633e-05
2.58418e-05
0.0170752
-0.00010744
0.0673756
0.0016073
-0.0150151
-0.000444951
0.00190471
-0.0389663
-4.3989e-05
0.000573666
0.000122049
-0.0766477
0.145155
-0.0650265
-0.0293614
-0.000194224
-5.38663e-05
0.00778873
5.37747e-05
-0.0772897
-0.0687894
0.000657191
0.00394026
0.00440169
-0.0918001
0.0007442
0.000221814
4.32445e-05
-0.0441603
3.30527e-05
0.000651748
0.131968
0.19421
-0.104369
0.0547339
0.0535689
0.0177689
-0.000187448
0.0132536
0.00014356
1.02122e-05
-8.74886e-05
-7.2431e-07
2.84552e-05
-0.000414578
-0.00856759
-0.0577707
-0.010906
-0.0314882
0.0585027
0.0490582
0.00473084
-0.066228
0.000187122
0.00538377
0.0129792
-0.00045065
0.0816744
-0.00142858
-0.0122284
0.0138182
0.00637983
0.00117437
-0.00456816
0.0479524
0.000965029
-0.021733
-0.0182397
0.581908
-0.0271764
0.0881283
0.0166815
-0.04033
0.00256996
0.000117305
-0.00293334
6.42978e-05
-0.00300029
-0.0277882
-8.22727e-05
-5.60729e-05
0.284602
-0.00375286
-0.044975
-0.0207711
0.000236724
-0.00165095
-2.74198e-05
8.76878e-06
0.0425821
4.66859e-05
-0.00334834
0.0820581
0.00724445
0.00130816
0.0210585
-0.00650436
0.00486963
-0.105147
0.001014
-0.00503207
-0.0593942
-0.000988611
-0.00909245
0.000882915
0.00107874
0.00115737
0.0410774
-0.000368666
0.0065521
-0.0574092
-0.0228422
0.000363359
-0.0570671
-0.0166368
-0.0190537
0.000121575
0.00766371
-0.0709033
-0.000968162
-0.00550202
-0.0531829
0.000127274
-0.00134525
0.236471
-0.0237451
-4.82758e-05
0.00953805
-0.0535952
-0.00120943
0.211831
-0.0025228
0.00118724
0.0661588
-0.00163871
0.0095949
0.139249
7.19949e-05
0.00136858
0.000206671
3.99405e-05
-0.00510143
-0.00813409
-0.000155243
-0.0265736
0.10526
-0.0403641
-0.0737756
0.00135852
-0.00371971
-0.00070311
-0.0486716
2.92128e-05
0.0189454
4.88779e-05
-0.017664
-0.00223147
-0.0056364
-0.104855
0.121749
-0.0783588
-6.27343e-05
0.20055
-0.00223439
-0.00292309
-0.0626613
-0.0821643
-0.0173439
-3.52457e-05
-0.00129487
0.00837822
-0.00351901
-0.00535963
0.000508177
0.0942252
-0.0463345
-0.0124419
-0.00754036
0.0250053
-0.00292321
-0.00128323
0.00199122
-3.19322e-05
-0.00352006
0.119985
0.000925448
-0.114131
-6.83817e-05
-0.00827655
-0.00414772
-0.0874752
-0.0128644
-0.0999549
-7.58098e-05
-7.35726e-05
-0.00474187
0.0122457
0.00211128
-0.111138
0.0908567
-0.0518774
0.000217492
-0.120396
8.67279e-06
-0.126002
-0.0279593
-0.146512
-0.155686
-0.163055
-0.168649
-0.16679
-0.156999
-0.141523
-0.114388
-0.0889329
0.0363223
0.0817134
0.130791
0.214977
-0.00905955
-0.00832583
0.0625435
-0.0197559
0.00104883
0.0170888
-0.0436742
0.000618109
-0.000770825
-3.36443e-06
-0.0158577
0.0204544
5.16241e-05
-0.000363863
-0.0117518
-0.00693998
-0.14196
-0.014736
-0.0595032
-7.74117e-06
0.000667444
-6.04316e-05
-0.0563619
-0.00985997
-0.0395549
-0.0117726
0.00201312
0.000260515
0.00546957
-3.85002e-05
-0.0126201
-2.07258e-05
0.000430801
-0.00687942
-0.0128398
-0.000314443
0.000378684
0.0543694
-0.0115786
0.0667578
-0.133526
-0.00917491
-0.013037
-0.020714
0.00427898
-0.0237651
-0.00369746
-0.0139441
-0.0141282
0.378143
-0.0015068
7.89953e-05
-0.00654892
-0.0100172
3.61808e-06
0.0885019
-0.00461149
0.350788
-0.175545
-0.0477602
-0.0292665
0.0482473
-0.00557823
-5.80061e-05
-8.92158e-06
-0.00472412
-0.0602344