/*--------------------------------*- C++ -*----------------------------------*\
  =========                 |
  \\      /  F ield         | OpenFOAM: The Open Source CFD Toolbox
   \\    /   O peration     | Website:  https://openfoam.org
    \\  /    A nd           | Version:  7
     \\/     M anipulation  |
\*---------------------------------------------------------------------------*/
FoamFile
{
    version     2.0;
    format      ascii;
    class       surfaceScalarField;
    location    "3";
    object      phi;
}
// * * * * * * * * * * * * * * * * * * * * * * * * * * * * * * * * * * * * * //

dimensions      [0 3 -1 0 0 0 0];

internalField   nonuniform List<scalar> 
172499
(
201.706
52.8509
-254.557
-473.777
102.001
371.776
-111.14
-78.4887
189.629
113.344
-278.726
165.382
-435.453
323.681
111.772
138.175
-337.18
199.005
-155.95
285.07
-129.12
-83.9751
191.337
-107.362
-363.403
351.973
11.4298
-465.12
-8.65713
-230.003
354.517
-124.514
494.968
-360.232
-134.736
-169.994
341.228
-171.234
91.9521
-93.2162
1.2641
-43.9645
-319.438
-108.996
63.5232
45.473
-456.098
86.4545
369.644
-411.612
77.0061
334.606
-129.499
286.627
-157.128
-331.959
-103.494
-75.789
179.272
-103.483
199.46
-197.388
-2.07196
392.857
-290.324
-102.533
160.449
-313.796
153.347
-240.379
207.976
32.4033
-115.663
219.444
-103.781
64.5682
68.4135
-132.982
-207.022
459.651
-252.629
-263.266
-175.892
439.158
-57.6315
99.6171
-41.9856
427.837
-342.046
-85.7909
-241.403
-68.1037
309.507
-267.965
404.947
-136.981
-101.232
-76.7566
177.988
-86.5537
-94.5899
181.144
182.208
95.5672
-277.776
-219.724
83.2687
136.455
-99.6497
-356.449
108.212
-139.112
30.8996
106.704
205.267
-311.971
156.498
-397.902
-57.5787
-354.034
-130.644
-37.1716
167.815
-119.168
301.377
-41.9003
104.002
-62.1021
-2.5818
94.5339
264.956
64.1292
-329.085
542.663
-302.884
-239.779
397.614
-147.719
-249.895
414.115
-534.051
119.936
-390.718
478.197
-87.4793
280.146
-101.823
-178.323
-468.113
325.765
142.347
-504.402
451.006
53.3966
-118.474
-166.733
285.207
-312.604
-155.509
549.808
-362.584
-187.223
-134.22
81.4795
52.74
81.874
71.8578
-153.732
129.27
-230.764
101.494
-515.368
327.468
187.9
-186.313
331.614
-145.301
346.086
-129.427
-216.66
-105.894
186.876
-80.9813
295.896
87.1759
-383.072
9.41124
-401.112
391.701
-351.821
197.003
154.818
-216.331
394.21
-177.879
75.3616
-137.501
62.1395
-530.987
252.319
278.668
-112.441
197.886
-85.4443
188.461
-145.412
-43.0496
362.922
-256.218
-136.924
68.9379
67.9866
-90.2731
-93.2069
183.48
81.7351
-166.159
84.4236
-198.791
47.7718
151.02
202.33
-403.064
200.734
-253.43
-132.245
385.675
-284.366
211.589
72.777
-75.2439
-209.122
429.792
-432.788
2.9962
44.7635
-85.1827
40.4191
-304.274
554.509
-250.235
-137.503
241.086
-103.582
342.472
152.496
-110.512
178.892
-68.3798
-324.475
472.879
-148.404
106.463
-119.298
12.8343
-86.691
441.521
-354.83
128.062
-5.4048
-122.657
203.004
-20.0378
-182.966
206.53
-469.796
221.477
50.1087
-271.586
-420.626
315.265
105.36
-574.897
416.84
158.057
262.009
-321.856
59.8469
96.4501
-51.6865
81.0746
-155.357
74.282
-0.0265121
106.49
-314.476
-200.892
197.462
-431.352
233.89
327.751
-179.058
-148.693
-485.044
498.909
-13.866
95.5749
-208.016
167.539
-88.6483
-78.8904
-503.883
309.348
194.535
-35.1986
101.034
-65.8351
-144.084
225.475
-81.3905
-311.334
-71.1414
382.475
-119.15
225.004
-105.854
-54.6652
316.674
-168.667
-30.1241
135.702
105.62
-241.322
-117.053
46.9534
70.0996
205.677
-345.714
140.038
-307.609
77.6069
-84.3491
211.198
-126.849
363.996
-541.559
177.563
45.9839
142.477
-202.985
118.636
-68.8895
-40.1068
-223.951
114.964
108.987
43.5343
-162.97
119.436
-230.665
532.612
-301.947
-110.545
52.9133
-265.373
79.0603
-118.455
70.3443
48.1106
-181.184
-41.7125
222.897
-502.652
505.327
-2.67524
-102.829
231.177
-128.348
567.126
-287.734
-279.392
-170.552
177.713
-7.16092
538.927
-196.455
-329.437
480.841
-151.404
-127.904
228.023
-100.119
-262.956
187.028
75.9282
61.3317
-329.297
148.646
-267.12
182.774
148.839
82.9284
45.5531
-128.481
-190.288
341.024
-150.736
502.972
-504.533
1.56076
375.434
-196.43
-179.004
-262.113
159.284
141.958
-532.676
437.131
-329.678
-107.454
-116.053
-149.32
-446.869
230.538
-226.907
-167.249
394.156
109.691
57.8478
53.9566
-95.8569
7.43982
195.564
-567.955
273.279
294.677
133.273
146.873
-358.202
426.298
-68.096
-412.194
100.86
-66.2622
213.974
-147.712
134.16
-134.311
0.15072
-152.111
107.825
44.2861
151.999
-70.2639
138.614
298.517
158.393
187.693
-187.568
148.404
39.1642
264.265
-145.136
-119.129
139.918
173.491
-313.408
440.622
-255.595
-185.027
-58.0348
-108.059
166.094
-184.386
118.123
-242.192
125.53
116.662
-242.136
157.386
84.7501
-100.314
365.27
-91.8279
-27.1512
118.979
26.6374
63.5542
-90.1916
-69.0374
-85.006
154.043
217.045
-432.136
215.092
-74.885
101.522
194.085
85.5451
-279.63
116.071
-333.115
217.044
277.625
119.989
-286.584
-132.045
418.629
-189.894
99.6208
137
-255.18
118.18
-203.15
410.173
-207.023
-264.502
-239.38
-162.458
384.886
-222.427
95.2262
-262.107
166.881
312.452
187.548
-133.003
321.477
-188.474
119.955
8.10692
-105.875
299.96
-338.768
189.864
148.904
449.596
-158.44
-291.156
-204.518
116.472
88.0452
-226.086
110.423
74.0397
-130.546
56.5062
21.1606
-96.0455
-173.38
164.228
9.15181
57.3616
-148.467
91.1058
80.2731
139.399
-219.672
-564.53
384.577
179.953
-200.454
362.042
-161.588
360.194
57.7102
-417.904
481.283
-479.319
-1.96303
-338.895
169.075
169.821
137.001
-92.2893
-44.7116
370.016
-271.483
-98.5338
-87.2948
383.191
-210.553
-195.358
405.911
100.4
-207.968
107.568
-71.2584
92.419
36.8264
272.521
13.2154
-253.595
-384.202
297.511
-160.864
-66.2975
227.161
-86.8882
-117.629
-98.7981
247.477
-148.679
-184.305
-135.458
319.763
81.8346
-84.4164
-123.579
-261.467
385.045
133.455
6.32926
-139.785
136.795
-1.61586
-135.179
136.266
-329.835
193.568
-76.3101
140.407
-64.0972
-73.5448
-430.857
-187.637
26.5649
161.072
-197.762
-82.7968
280.558
186.262
-68.5409
-117.721
137.848
-63.8083
-349.468
94.7158
254.753
-0.556557
-409.899
410.456
67.155
-118.67
51.5153
42.1169
-121.499
79.382
86.0968
-177.275
91.1783
-233.053
122.763
110.29
-225.598
-338.931
-641.778
285.452
356.326
392.253
-205.479
-186.774
-52.6633
159.568
-106.905
240.034
-166.518
-73.5165
-42.9378
142.647
-99.709
-291.752
162.88
128.872
-113.775
-38.3361
146.187
-65.1127
278.399
-217.389
-61.0105
-234.965
407.597
-172.632
441.153
-217.459
-223.694
136.129
-87.4153
-48.7139
-162.33
104.295
-63.5605
-35.1082
98.6687
196.931
288.087
-485.018
-370.683
241.155
129.528
224.831
-526.488
301.658
387.379
-237.024
-150.355
121.295
-83.2702
-38.0249
-4.99076
-281.593
-70.6672
170.084
-99.4171
-558.442
297.667
260.775
503.645
-503.645
-183.809
99.8343
369.205
-374.196
-4.04245
85.877
-473.503
270.353
-120.849
118.036
2.81305
38.8548
-182.939
258.318
-144.974
-100.884
144.418
179.686
-280.11
100.424
100.176
93.0114
-193.187
-97.4649
199.565
-102.1
415.222
-131.53
-283.693
-323.542
190.54
427.846
-150.221
-219.237
-72.5157
141.492
177.869
-319.361
-189.62
104.193
85.4273
42.6592
-100.017
57.3582
-169.762
100.725
-248.95
297.874
-48.9238
78.8014
-114
-123.211
-64.3569
97.2149
184.647
-404.804
220.157
69.4353
67.5655
456.55
-254.375
-202.175
173.067
204.793
-377.86
56.0886
-243.726
493.509
-503.356
9.8472
117.817
-67.9946
-49.8228
94.2835
-142.466
48.1828
109.472
-66.8132
-500.324
66.1253
434.199
-159.757
27.5935
132.163
360.963
-324.136
-258.657
409.617
-150.96
-477.911
302.027
175.885
364.428
-244.503
-119.925
-136.254
-211.523
347.777
-162.02
345.188
-183.168
-221.908
124.443
-71.5498
-22.9708
94.5207
107.514
-192.547
85.0329
-57.884
126.141
-68.2566
309.528
-193.136
-116.392
83.4402
41.4902
-124.93
-125.347
273.968
-148.62
-250.629
162.22
88.4088
113.37
72.8927
96.3209
-120.875
24.5538
-170.754
286.825
-91.9044
-187.792
279.697
113.773
21.6005
-135.373
-97.8022
155.079
-57.277
-151.917
99.2538
-330.475
160.48
-181.001
346.221
-165.22
344.171
105.424
177.456
-412.421
273.247
-112.798
-170.647
117.364
53.2837
-6.5765
-173.291
179.867
262.793
-386.372
-58.7178
418.912
-33.7601
-83.2929
177.139
70.0952
-247.234
-144.299
60.4357
83.8629
-366.938
8.73589
192.502
-406.453
213.951
29.7981
-101.348
-144.935
-14.8216
194.403
-286.307
-432.878
-67.4462
141.584
229.557
-371.141
219.11
145.318
133.98
-61.2432
-72.7373
172.785
101.715
-274.5
-248.459
161.756
86.7026
80.3386
-357.619
277.28
353.038
-214.863
243.53
-148.304
84.9586
107.653
-192.611
-129.789
262.909
-133.121
121.689
-57.1208
92.51
-182.88
90.3704
266.509
-88.8382
-177.671
-169.899
-213.106
383.005
-174.625
-74.3252
-78.1213
-26.6945
104.816
80.629
48.6671
-129.296
320.619
-173.985
-146.634
-205.616
35.0641
-505.623
346.783
158.841
362.825
6.37957
170.669
-290.632
119.964
183.979
-103.706
183.243
88.0138
-271.256
-46.7262
248.433
-105.322
-299.559
404.881
-171.122
388.675
-217.553
-114.435
259.714
-145.279
-171.132
275.404
-104.272
146.094
-96.491
-49.6028
-151.156
-68.5677
-147.907
85.6647
62.242
264.08
-150.731
-113.349
-438.078
332.757
-161.547
164.311
-2.76426
-186.688
111.008
75.6805
304.079
-167.812
-168.962
473.041
-304.079
193.305
-88.7526
-104.552
59.6978
83.7368
-143.435
73.6632
62.466
25.6814
229.938
-255.619
91.0133
101.678
-192.691
62.368
305.927
-368.295
146.75
510.404
-96.2894
226.045
95.6647
-321.71
-137.467
294.788
-157.321
136.878
-69.7234
213.584
-120.104
-93.48
-79.1768
202.482
-123.305
135.636
-250.07
394.842
-221.775
-371.349
369.357
1.99125
132.068
-89.9516
-57.9324
-39.8054
97.7377
488.529
-164.848
-66.1613
182.84
-116.679
-225.455
421.406
-195.951
266.749
178.717
-445.466
67.9979
-178.51
-452.084
245.062
-21.1854
157.98
-324.962
187.694
137.268
4.90757
91.4134
-316.55
-131.902
448.452
267.923
159.923
-76.4455
-84.1099
160.555
98.5924
1.39936
-99.9917
-242.435
354.805
-112.37
116.266
-115.108
-1.15783
-153.666
384.677
-231.011
-118.597
124.863
-6.26572
56.9146
117.562
-174.476
142.044
-471.481
-170.835
261.79
-90.9553
-96.7043
243.917
-147.212
-133.704
198.159
-64.4557
254.609
-161.013
-93.5962
-274.834
87.042
237.579
-407.479
-39.0887
214.113
-175.024
-226.079
88.5759
196.999
100.876
381.577
-113.654
74.8542
-130.232
55.378
353.316
69.9299
-423.246
-196.885
405.371
-208.486
-232.84
-267.156
22.8228
-94.0812
601.47
-379.261
-222.209
-47.1314
130.648
-83.5169
-153.117
55.3148
296.479
-386.502
90.0226
-130.923
187.837
-393.345
375.121
18.2242
327.189
222.619
147.664
157.43
-305.094
-504.407
382.459
121.949
-352.592
426.185
-73.5925
-99.346
253.022
-153.676
181.237
-67.8675
129.595
179.933
125.193
-296.028
-126.449
267.816
-141.368
382.778
218.692
336.292
-330.427
-5.86568
325.152
-529.524
204.372
341.568
-139.238
-102.017
-400.635
60.6693
-213.287
152.617
80.5389
-156.984
357.454
99.0953
176.121
-81.8421
-94.2787
238.234
169.363
134.612
233.679
-368.291
-106.59
373.339
409.427
-192.382
-407.869
16.1717
391.697
-291.196
-180.972
472.168
421.549
-291.836
-129.713
489.447
-249.185
-240.262
-67.7755
-94.5543
-60.3347
272.991
-212.656
61.3421
78.2641
-139.606
84.6622
-142.627
57.965
157.598
150.062
-307.66
-185.477
31.3891
154.088
27.2409
89.0252
412.044
-173.81
374.97
113.56
-268.486
-145.609
414.094
-35.5546
149.327
-171.877
96.0877
-160.736
-219.972
380.708
-25.283
88.8372
-38.0464
-147.431
166.333
-457.529
197.957
-35.5765
-56.6626
92.2391
218.641
-59.0726
-91.7295
-45.195
-257.648
131.199
-101.002
278.141
-324.717
499.955
-175.237
261.35
-422.086
394.545
-197.083
104.837
191.895
-296.732
-140.242
71.2263
69.016
-367.32
488.64
-121.32
307.415
-227.076
554.352
-227.4
-326.951
114.403
104.238
358.818
-116.85
-241.968
-271.803
434.529
-162.726
136.09
-238.216
102.127
-167.09
32.0104
135.079
-146.952
-74.9564
148.308
-393.122
244.815
11.177
-120.236
109.059
453.115
-189.987
-263.128
302.525
-473.485
170.96
-227.697
188.609
91.2731
102.032
103.387
-4.97074
-98.4165
254.047
-118.345
250.239
142.014
323.03
-180.62
-142.41
-326.997
217.497
109.5
-487.256
395.437
91.8192
184.973
-98.8759
-113.957
186.476
-72.5196
-177.245
-73.3833
344.393
-47.9139
119.945
10.4306
-130.376
-117.447
202.406
-124.618
81.6799
-525.389
359.64
165.749
311.706
-141.037
226.668
160.711
161.047
-398.071
-474.624
238.104
236.52
-246.456
160.485
85.9714
112.521
-40.2232
-72.2977
-218.988
-203.135
422.123
100.817
142.935
-243.751
-407.101
282.586
124.515
-272.242
-134.859
-561.264
373.282
187.981
-281.177
103.932
585.839
-299.72
-286.119
-147.924
-177.591
325.514
-133.277
138.491
-5.21323
-166.01
275.072
-109.062
-254.747
155.401
-412.978
313.043
99.9357
100.43
90.9568
-191.386
-369.301
194.856
174.445
-111.646
-130.49
143.356
-104.054
-39.3019
276.513
105.064
573.965
-316.409
-257.556
253.318
-519.76
266.442
57.0871
-119.183
62.0959
97.5979
5.78935
-61.6535
146.727
-85.0733
272.968
300.997
73.0505
-174.282
-283.45
153.661
112.897
-37.5353
110.87
153.21
347.275
82.5169
109.364
71.8729
41.8831
-187.866
145.982
365.258
-514.232
148.974
-60.8991
326.103
-265.204
-34.3456
119.008
174.599
379.753
-147.407
359.016
-211.609
61.1783
-161.962
100.783
-340.948
-300.83
-66.5273
-34.1285
100.656
6.88792
-140.165
-107.893
119.07
177.955
-85.4448
179.893
-327.816
-140.108
80.7699
59.3381
-351.782
-87.7552
439.537
-338.277
521.84
-183.563
109.032
-370.405
261.373
46.3034
-136.372
90.0684
-106.457
-243.012
284.136
115.627
-399.764
174.399
-113.73
250.751
-141.336
-109.415
551.194
-183.646
-367.548
-367.716
51.2217
316.495
331.665
90.7008
-422.366
-475.533
495.31
-19.7767
-146.132
-77.8192
-90.6561
190.832
142.38
180.65
247.61
-531.176
283.566
376.845
-367.434
459.157
-175.02
552.883
-298.765
-254.117
-223.993
245.707
-21.7138
-51.7546
171.7
-83.6601
-260.615
344.275
56.7757
446.87
-64.4593
-87.4577
140.967
-79.6253
314.55
-156.952
132.574
55.7169
-188.291
166.725
-227.06
-66.9346
-94.9094
161.844
552.649
-552.649
-1.80266
-116.795
281.471
-169.124
-112.347
-306.77
-171.142
-162.002
94.2267
-366.091
-118.953
-73.7543
133.452
209.256
-296.659
179.673
116.986
6.25046
-399.595
130.71
97.6718
-228.382
86.1603
113.405
125.458
-42.5291
-65.7127
-302.004
65.2521
-240.239
174.987
-16.6369
-391.232
-298.414
151.007
-132.024
-184.227
316.251
107.317
241.54
-348.857
-328.356
500.841
-172.485
-86.7326
-34.1159
-68.7611
98.736
-29.9749
-100.92
182.44
-81.519
227.984
169.19
-397.174
313.45
-208.614
405.985
-186.875
-304.334
-200.073
141.948
-271.447
-169.997
83.4433
-412.938
308.109
104.829
83.9996
-435.781
90.1097
145.095
-235.205
-222.266
-153.025
375.291
38.4392
-96.3232
120.431
-155.985
-110.789
-224.49
335.279
-301.831
240.932
-97.9174
-54.7929
152.71
-188.324
106.86
81.4644
358.166
-517.172
159.005
317.979
-210.006
-107.973
154.714
286.439
89.7938
78.4492
-168.243
387.238
-160.57
146.878
-514.198
249.159
-183.907
154.647
163.332
-64.6928
-348.245
213.922
-373.187
159.265
407.448
-235.644
-171.804
75.0113
-260.514
185.503
-229.001
-10.1226
239.124
63.0499
-149.394
86.3441
84.5794
-162.231
77.6521
193.533
212.452
-48.1812
146.774
-334.212
418.212
135.774
234.119
-369.893
-103.912
309.589
74.6185
102.242
-176.86
41.7776
-314.695
272.918
-140.166
147.054
278.682
-457.93
179.248
-90.3263
222.901
277.302
-455.246
196.588
-103.279
-1.76769
105.047
33.986
121.277
-155.263
217.915
235.2
-109.722
184.341
339.971
-28.4777
-311.493
-124.021
444.717
-320.696
101.929
290.928
45.065
227.926
315.125
133.269
-448.394
328.364
-267.842
-60.5216
-32.4609
-129.086
-208.381
80.4763
-79.6918
-30.4457
110.137
12.9194
-92.6112
-310.871
173.404
-75.7656
-171.102
246.867
201.287
115.682
-316.969
-222.596
-47.6151
270.211
-152.954
88.4952
81.4038
-182.324
-83.982
-318.661
402.643
-75.3239
-143.913
517.495
-238.814
-72.0569
71.0862
55.8746
-126.961
-176.46
79.6998
96.7597
74.791
-93.0611
18.2701
105.885
173.119
-279.005
-188.119
107.472
80.6466
-134.953
318.195
-95.9124
-122.384
218.297
-324.308
-206.679
-242.68
129.576
113.104
-229.281
527.002
-297.721
440.754
-292.446
-72.3592
-95.0635
167.423
-76.9763
106.774
-184.318
323.347
-139.029
-119.416
267.047
-147.631
163.067
-66.6635
-96.4039
-250.323
359.354
136.186
-81.7026
-54.4837
-274.19
280.104
-5.91381
-274.164
118.214
197.409
8.85429
-206.263
-195.454
382.667
-187.213
127.115
-62.0706
-65.0443
226.364
-465.731
239.368
-497.839
173.364
165.517
-32.0614
-141.187
1.02031
-190.797
90.1983
100.598
-149.138
363.06
142.704
-81.5258
80.9265
-415.139
-46.4745
-62.1675
108.642
-105.52
-509.234
357.372
151.862
248.563
79.8012
-305.651
-160.811
466.461
-80.2032
298.796
93.7646
-140.896
-55.9974
-133.623
-231.898
-241.6
473.498
-197.804
-242.979
440.782
-280.505
266.881
13.6247
312.869
-250.501
-299.064
-206.559
340.836
-509.798
95.7589
98.0386
-193.798
-383.346
211.929
171.417
157.817
217.152
-79.2365
144.06
-64.824
-330.356
526.16
-195.804
-178.353
128.28
50.073
-133.556
50.8386
82.717
49.8457
-118.607
-63.859
395.524
87.989
64.0018
-151.991
500.079
-184.955
-125.3
262.301
-318.759
156.739
-287.058
287.058
-144.782
234.891
-548.812
281.552
267.259
-246.906
-90.5911
337.497
187.542
-145.659
-118.252
124.069
-5.81652
-245.221
74.0889
123.336
-483.568
45.0466
72.7708
-131.393
-315.873
447.266
-232.481
368.256
-243.705
144.907
498.986
-241.319
-257.667
-191.477
-37.5242
148.838
-327.896
-568.39
398.447
169.943
-284.619
-157.649
-203.932
37.9236
166.008
-41.4355
-116.734
158.17
135.327
118.72
-76.3219
115.784
-39.4625
-1.95822
71.0714
-69.1132
223.183
-222.226
-0.956921
212.894
-337.853
124.959
59.7123
-173.669
-72.516
-155.181
105.817
-200.431
94.6136
-393.406
-262.803
328.474
-65.6706
85.0437
42.0712
-12.7808
-127.688
140.469
-150.131
-201.69
155.697
-386.648
230.951
-174.461
102.102
83.7665
45.1513
-128.918
40.1442
-138.062
-151.496
231.909
-80.4136
150.894
108.375
-259.268
-152.785
-286.508
439.294
171.135
-421.714
250.579
102.558
-149.8
47.2419
-540.724
308.917
231.807
465.025
-323.404
-141.621
-501.515
176.797
-118.083
116.28
-70.7816
-101.095
302.596
-409.186
-344.524
-130.1
-167.293
-129.366
-380.764
155.951
224.813
-210.868
135.544
-46.3313
307.341
-261.01
-93.5088
-241.997
130.351
170.03
98.9623
-268.992
258.821
-454.497
195.676
195.261
-94.8608
-315.952
105.946
224.584
-95.314
-327.576
-112.142
439.718
383.556
-227.859
-331.881
336.503
-4.62184
-70.0811
124.158
-54.0773
-380.154
167.049
-312.525
126.467
186.058
134.126
-134.126
-194.893
-256.101
450.995
471.544
-390.617
66.1313
-263.893
4.00217
335.969
336.732
214.462
-236.873
-47.0789
283.951
120.413
5.88295
-126.296
-73.8361
140.529
-66.693
-180.731
109.012
71.7188
-323.008
-244.947
-157.761
90.8268
117.001
-45.9146
-272.608
-302.289
-146.124
84.4702
132.346
208.882
75.0374
33.9085
-108.946
-45.9269
131.693
-85.7663
379.721
173.161
-166.286
-114.891
-336.295
-172.939
-156.139
-100.955
257.095
-69.3711
-272.708
342.079
-342.757
179.586
163.172
-91.7663
-104.273
196.04
337.827
-505.044
167.217
209.193
-354.65
145.457
231.975
-410.67
178.695
-81.8138
-52.4057
-238.045
165.529
166.701
-395.099
228.399
-143.109
101.674
-379.63
179.175
-205.187
363.004
-73.6528
135.779
-62.1266
90.1042
-136.69
46.5859
29.4194
-92.9798
-153.967
366.861
483.503
-465.551
-17.9522
-98.7008
145.004
-78.4928
136.975
-58.4817
260.906
-455.799
-53.6751
156.385
-102.71
-149.374
289.292
390.879
-507.239
116.36
226.176
74.5396
-300.716
53.6545
-102.785
49.1301
-34.4805
109.272
58.9342
35.3097
-94.244
-39.785
141.68
-101.895
-10.7981
161.156
-150.358
177.606
-71.7888
386.783
-136.545
-65.3285
268.718
-203.39
-303.723
-48.8696
182.495
-101.163
-81.3317
192.053
-296.416
104.363
-239.89
-147.149
387.039
-79.057
169.161
-272.51
158.729
113.78
229.784
-350.779
120.995
-324.31
202.857
121.452
252.494
-134.913
-117.581
-133.154
64.6594
68.4946
182.821
-393.374
-104.326
-76.054
180.38
-46.3153
-134.728
181.043
88.2207
-237.099
148.878
-108.733
199.746
186.769
-98.9039
-87.865
-60.8679
-108.151
169.019
-43.4585
163.889
-163.871
-117.525
281.396
-304.824
-8.6525
313.476
54.4434
-109.134
54.6908
169.943
96.5661
118.067
106.517
-95.3802
102.545
-7.16453
-203.932
-55.6409
446.52
-3.32468
111.537
377.468
12.85
-390.318
387.286
-325.954
-474.139
175.076
50.9317
53.1975
-104.129
-139.204
-31.4435
82.9387
-259.989
177.05
113.006
-375.809
-176.959
-33.9018
260.078
-67.2456
264.654
255.831
154.342
-405.467
210.013
-145.075
65.8384
386.578
-161.748
233.116
-97.1231
-135.993
259.082
-328.453
296.342
-179.807
-116.535
187.172
-174.064
-13.1076
115.323
-60.8795
-215.185
-235.604
450.789
-191.668
35.9178
155.75
492.327
-485.433
-6.89314
235.725
-65.4175
-170.307
243.075
244.87
-487.945
263.942
-175.722
-165.218
301.247
-136.029
-159.875
307.539
-135.241
220.626
-85.3846
-189.761
-149.134
68.2576
-144.355
76.0971
102.148
-198.06
352.078
119.466
-250.96
-162.018
-59.5501
-116.909
117.862
-42.825
-172.563
275.718
-103.154
-61.9701
143.844
118.826
-44.65
-74.1757
-137.961
77.093
-581.537
373.743
207.794
63.3674
-133.021
69.6538
-179.016
261.954
-67.7081
133.025
-65.317
72.9364
45.8892
-142.648
363.792
-221.144
-121.412
-96.5063
217.919
-57.6541
-39.9387
97.5928
338.116
-145.389
-192.727
234.901
-80.8804
-154.021
-379.799
-312.504
-161.635
-53.7064
-91.5893
145.296
117.127
-305.619
188.491
135.504
-67.2465
-116.122
-1.96125
164.785
-418.215
312.427
-94.9294
-162.085
95.9235
-165.579
82.8999
82.679
338.885
-129.692
160.901
-129.059
-31.8422
-79.9304
-85.6485
57.4886
-125.301
67.8126
95.0177
-165.799
115.461
-64.3505
-104.632
168.983
-88.6771
218.305
-129.628
113.318
-32.4132
-80.9052
-269.353
-35.4711
123.78
89.8034
-87.7325
10.7561
-100.583
208.065
-107.482
-96.6692
100.918
-4.24828
-101.008
-78.219
-96.2284
174.447
483.53
-385.79
-97.74
418.954
-116.358
135.126
-101.14
-425.699
463.892
-38.1927
-178.969
305.614
-126.644
-234.813
300.944
99.7597
87.0091
-72.0529
-114.635
-93.0528
272.739
-142.54
289.392
-146.852
37.7403
55.8477
-93.588
-290.758
156.123
134.635
118.558
-61.4713
-80.6653
-64.7464
-217.139
-186.787
403.926
139.261
344.269
-455.818
258.015
240.072
-240.072
-78.822
85.3751
-6.55302
185.199
-104.067
-81.1319
246
-540
294
183.238
154.878
-252.735
356.505
-103.77
120.543
-57.1757
-204.687
130.365
74.3217
156.959
330.237
-487.196
254.494
-119.167
-317.416
160.962
156.454
86.2877
-179
92.7127
281.087
153.626
-434.713
-220.919
99.5071
86.1555
-155.023
68.8672
139.444
-179.229
-169.763
397.747
-182.98
104.006
78.9744
175.065
-105.895
-69.1703
-92.443
365.779
-273.336
333.023
-166.298
-40.0228
106.377
-66.3547
180.844
177.178
-358.023
-206.985
-248.833
-90.7788
349.599
98.6312
-184.875
86.2435
-204.988
399.441
-194.453
153.039
-66.7517
318.801
-219.45
-99.3509
134.071
-59.2168
-219.948
-150.989
77.336
-620.246
303.837
132.737
493.622
-501.54
7.91828
206.086
189.526
-395.611
115.259
45.6414
-373.958
-113.299
144.622
-151.198
12.5897
-293.095
-23.9881
-115.901
139.889
160.034
-295.933
135.899
118.667
276.77
-133.886
88.0983
45.7874
49.0742
-183.802
43.0113
-79.701
36.6896
263.455
95.3634
262.902
-174.387
-88.5151
138.212
-75.1617
-391.167
273.104
118.063
-260.075
-360.171
184.832
50.893
144.191
-454.96
310.77
-59.9492
-81.0993
141.049
34.5225
-126.425
91.9025
287.307
211.679
-2.33569
379.803
-73.2789
-65.8327
424.812
-143.725
71.4688
-125.669
54.2004
-463.499
259.833
203.665
-201.811
-245.304
447.116
-366.49
566.492
-200.002
280.988
146.849
-173.811
249.884
-76.0726
-157.764
258.581
352.028
-277.117
-74.9107
-180.069
290.946
-110.877
-185.787
-152.981
-97.3303
-182.275
279.605
79.3738
38.2156
-117.589
181.664
-81.2344
440.427
-378.767
-61.6604
-178.199
107.375
70.8237
82.9098
266.269
-349.179
115.38
-31.6137
347.513
92.9144
-65.3719
151.527
-101.696
-32.1902
-225.966
514.169
-288.203
4.65758
191.649
-196.306
221.486
-388.868
167.381
-81.9598
-41.7408
123.701
289.3
97.4839
-84.8655
-22.1728
107.038
-137.938
122.531
15.4072
-181.698
119.688
62.0095
182.837
384.289
99.9729
-41.0386
-268.204
-122.963
228.601
-443.786
413.726
-509.852
96.1263
64.9327
223.244
-31.8284
-191.415
123.145
-65.6563
80.9014
-408.477
-77.7865
-88.9043
166.691
102.496
-9.76423
-92.7317
-115.334
37.2123
121.958
132.652
153.631
-328.691
175.06
-92.5164
162.857
-70.341
152.381
-357.369
352.399
-235.271
341.897
-82.8153
-358.939
-199.503
-288.745
469.186
-180.441
429.267
-324.301
-104.965
-9.12829
-339.673
348.801
-336.042
-176.48
512.522
-159.237
-7.85244
74.995
-31.9837
-503.408
261.833
241.576
-171.833
-91.1227
-78.2475
-54.9065
-45.2456
147.803
-91.4014
163.259
-554.657
382.752
171.905
97.9728
-162.323
-24.327
90.9562
-66.6292
181.531
-146.388
192.963
-315.436
122.473
322.53
-255.543
-66.987
87.4099
-397.46
310.05
216.093
-98.0261
114.493
255.523
-92.831
-95.4931
109.701
-56.0468
474.863
-299.215
-175.648
-267.324
364.03
-96.7057
-115.816
192.142
282.72
-417.839
31.8702
385.969
-286.711
-186.792
137.139
-213.61
76.4707
-132.263
-76.0011
208.264
107.603
211.032
-318.635
42.3188
-265.116
-238.293
-87.9987
-30.527
118.526
-204.374
326.238
-121.864
480.353
-174.426
409.909
-63.1264
-293.358
168.011
95.3584
7.13753
-271.144
-34.7751
305.919
57.1124
-373.662
-408.893
137.089
130.212
-16.9744
-113.238
173.938
-272.765
98.8269
-109.212
260.105
-458.715
334.694
-72.7135
-76.6805
497.256
-149.743
-240.555
406.765
-166.21
217.634
-339.897
122.262
470.02
-111.853
51.091
70.2042
-309.352
135.541
349.608
-193.611
-155.997
-173.772
296.372
-122.6
132.986
347.367
165.974
-268.702
102.727
389.865
-107.279
364.008
126.518
-490.526
329.195
-226.183
-103.012
473.54
-502.464
28.9242
124.965
-85.082
-39.8826
339.179
-231.862
-10.3269
-92.9519
-80.46
-182.549
263.009
41.8212
-117.803
75.9813
-141.886
61.2203
-307.191
474.401
-167.21
-87.3127
-52.7953
-194.632
199.29
109.369
38.6076
-119.951
81.3431
288.822
2.91601
-291.738
-138.075
87.1969
50.8782
-100.809
454.125
177.343
118.999
-144.081
304.115
-236.865
157.688
335.261
52.025
-159.57
-157.846
16.6393
226.891
-247.924
81.6377
-141.369
241.292
-99.9232
53.9008
-127.655
410.724
-204.639
-370.178
376.597
-6.4185
-130.796
494.805
68.0922
-139.769
71.6766
125.183
-68.5484
-142.087
210.635
-151.7
186.992
-71.7331
80.3475
17.2819
-97.6294
67.0725
-124.671
57.599
-249.903
153.199
-99.654
-68.9387
168.593
-267.756
-294.033
127.645
166.387
119.015
-84.4928
50.5783
-113.271
62.6929
52.7585
-185.021
139.854
134.114
-105.319
260.517
-155.198
-134.556
83.864
50.6921
-73.9121
192.982
-119.07
-375.368
212.91
-180.519
361.364
152.551
-271.584
119.033
242.173
171.989
-414.162
-55.9355
-32.1955
88.131
331.461
97.8054
330.544
-148.416
-182.128
-157.636
406.193
-248.557
164.972
-70.9649
325.73
-254.765
327.681
121.679
-449.36
474.56
327.165
142.441
-469.606
249.312
-456.297
191.615
-29.5588
-162.056
-338.281
184.737
153.544
-118.656
13.0619
105.595
92.4167
18.2479
-110.665
-66.4605
-73.7818
13.1899
-383.368
-356.365
213.718
61.2366
192.967
-254.204
-377.996
307.032
222.573
123.13
-345.703
-59.3059
108.287
-48.9812
-101.2
-145.806
247.006
568.862
-256.41
63.3069
136.153
-136.332
-279.834
416.166
-122.149
171.223
-222.573
383.432
-160.858
-354.893
42.1141
312.779
-177.983
-279.163
457.146
-61.5601
-71.9955
-564.244
366.716
197.528
300.929
-182.591
-118.338
-123.877
346.45
-168.456
68.8021
111.591
-189.378
142.643
90.4726
-163.034
-490.523
250.996
239.526
-164.899
84.9682
-266.589
97.4655
-301.274
-280.263
-58.1741
-243.657
95.6368
-332.154
236.517
-203.578
-174.766
66.7422
108.024
-244.188
-71.7635
-113.529
-40.1852
153.715
-51.5646
-44.6887
96.2533
-314.506
222.063
13.4529
-86.379
72.9261
158.293
-190.122
153.57
-365.465
211.895
5.81353
-276.957
-191.8
316.574
-124.774
-236.396
248.985
106.453
-133.071
-89.5727
222.644
399.365
-408.493
106.633
-68.8928
285.365
189.62
-474.985
-80.9305
-83.968
-78.3723
272.775
364.843
-367.179
96.4286
-4.01192
409.619
-125.361
-284.258
105.666
161.81
-267.476
143.84
-42.483
-125.799
168.282
269.979
-123.915
-146.064
347.824
42.0411
123.048
-81.2271
-501.722
173.366
67.9683
-135.676
-132.634
70.4407
62.193
-53.573
160.046
-106.473
-140.909
-77.9245
218.833
30.8427
-97.8478
67.0051
-125.493
43.5328
175.284
-187.05
11.7655
228.02
-280.645
52.6255
-218.974
78.065
-88.2115
-77.9471
-57.4678
-62.3321
119.8
142.564
184.409
198.258
-225.578
179.246
172.569
-127.401
-45.1676
-374.019
266.379
107.64
229.337
-84.2422
336.201
161.055
335.147
102.915
-438.062
-130.646
-131.467
-537.841
251.045
286.796
221.031
-302.644
81.6134
143.051
119.852
-95.9662
55.9434
-35.3361
96.7194
-61.3833
-269.449
-218.295
487.744
-408.607
441.873
-33.2654
-267.039
106.175
-129.156
-456.025
-21.5657
477.591
209.397
242.083
-451.48
-123.816
-188.709
-147.598
-143.16
103.623
-23.2752
-337.231
135.42
-30.619
166.709
-121.306
-272.431
170.399
102.032
83.8975
68.1015
-130.49
-144.811
275.301
131.411
-92.8035
416.379
-294.522
-121.857
-132.093
349.727
-212.979
-42.201
457.158
24.1243
-114.567
-75.9847
190.552
454.647
-0.199601
-454.448
-88.8711
320.859
-231.988
117.705
82.2551
-199.96
-373.762
221.012
152.75
-131.022
-109.325
-163.106
142.526
-74.4334
-107.633
290.139
-182.506
139.71
139.888
-279.598
-150.889
-53.7981
-246.348
-176.258
422.606
116.245
476.435
-332.695
-143.741
-154.103
149.388
-93.7657
-55.622
36.4514
-93.1141
204.38
-271.625
294.437
-352.612
-403.031
344.313
193.694
-317.51
230.989
181.055
436.022
-204.047
-227.922
162.594
95.5373
82.4175
-94.135
105.167
-158.74
-271.154
289.482
-18.3278
-276.96
-21.4537
76.9026
-141.932
65.0297
115.587
286.407
-158.762
246.502
-135.701
-110.801
-77.2921
131.193
-269.588
120.77
-189.318
311.28
-62.4902
-248.79
-258.273
467.67
484.777
-148.576
-370.142
267.26
102.882
-22.2799
476.927
-219.607
412.109
-86.0406
-203.278
289.319
104.798
-263.372
158.574
12.3964
289.63
-334.612
-247.386
581.998
147.304
-348.016
200.711
-292.796
392.837
-100.041
-121.642
448.807
352.487
-126.442
176.883
-89.5751
369.597
-280.022
-76.0508
-62.0243
-237.075
154.161
82.9148
177.235
149.003
57.8551
-59.6898
-279.847
339.537
-386.134
-78.9858
-131.536
-198.141
-337.888
230.256
-412.905
412.905
160.093
-335.447
175.354
180.755
-339.983
159.228
231.904
79.3764
53.6299
40.4462
-94.0762
218.418
-371.443
287.7
-465.683
242.049
-39.5669
145.767
158.312
72.7678
197.991
-270.759
125.477
-80.8468
-44.6305
-71.8576
-293.47
365.327
108.597
-180.482
71.8847
-62.2809
177.053
-114.772
331.938
4.35384
-79.0567
80.4561
-276.361
321.66
-45.2986
44.757
146.858
94.538
17.4188
-111.957
-314.215
-40.6773
36.1661