/*--------------------------------*- C++ -*----------------------------------*\
  =========                 |
  \\      /  F ield         | OpenFOAM: The Open Source CFD Toolbox
   \\    /   O peration     | Website:  https://openfoam.org
    \\  /    A nd           | Version:  7
     \\/     M anipulation  |
\*---------------------------------------------------------------------------*/
FoamFile
{
    version     2.0;
    format      ascii;
    class       surfaceScalarField;
    location    "17";
    object      phi;
}
// * * * * * * * * * * * * * * * * * * * * * * * * * * * * * * * * * * * * * //

dimensions      [0 3 -1 0 0 0 0];

internalField   nonuniform List<scalar> 
11265
(
146.717
-526.638
379.921
-754.098
2.46646
751.632
424.562
-373.511
-51.0508
651.785
266.189
-917.974
1510.96
-1069.45
-441.514
1216.29
-1527.13
310.842
-37.4161
471.176
-433.76
168.794
-842.423
673.628
962.105
-1610.82
648.717
-1763.33
1669.5
93.8262
-542.947
1759.23
-1140.45
1934.29
-793.841
608.285
181.205
-789.49
-25.1893
-1313.59
1338.78
220.516
-1983.85
1023.87
-381.875
-641.997
-201.003
347.72
485.846
190.655
-676.502
1155.58
-1313.06
157.477
-303.393
375.424
-72.0312
998.735
-1313.57
314.838
1221.53
799.209
-2020.74
73.0773
-1639.15
1566.08
-484.378
-1166.62
1651
476.963
182.042
-659.005
-191.193
-335.445
498.132
1012.83
1646.37
-1804.63
158.26
-93.5827
-1690.57
1784.15
-1558.69
651.123
907.564
-306.908
653.709
-346.801
-191.303
-125.823
317.126
1283.67
-1210.59
355.204
-1407.43
1052.23
-1754.32
1754.32
101.558
1531.32
-1632.87
-1078.31
-480.375
650.67
-688.086
-384.142
941.618
-557.476
1331.92
-1317.3
-14.6156
-1100.47
716.328
627.543
396.328
-378.657
-43.8187
422.476
-463.764
754.773
-291.009
-1618.48
1618.48
1253.58
-1437.89
184.308
-488.543
1710.08
1255.68
-314.064
1660.75
-1161.25
-499.496
82.8259
-386.219
2065.1
-1134.84
-930.263
1812.29
-165.918
456.064
156.172
-612.235
-456.017
968.83
-512.813
-1170.09
1271.65
-568.467
971.067
-402.6
401.518
754.064
661.487
-492.693
-437.906
595.714
-157.808
1190.69
-835.486
2308.19
-1080.66
-1227.53
1163.57
-2008.43
844.861
-1601.52
1576.33
440.712
-1581.16
-759.106
1250.74
-491.633
-672.941
366.033
1661.47
-699.361
-1106.93
-870.893
1977.82
706.899
-355.975
-350.924
689.727
565.955
-258.209
1511.79
116.979
-319.958
202.979
-284.893
761.856
-335.045
566.028
-230.982
-324.59
810.436
-318.331
-149.906
468.237
320.209
104.352
1456.83
-458.092
-979.63
471.226
508.404
280.576
89.2573
-369.833
949.742
-341.457
-1704.31
634.029
1070.28
11.7422
-854.211
842.469
-281.471
596.552
-315.081
157.057
-1093.88
936.824
1051.58
-1067.14
15.5641
373.053
518.906
-891.958
-245.492
701.556
-1103.76
-482.134
1585.9
-678.195
951.084
-272.889
1356.4
-1449.98
-611.624
233.928
377.697
-470.194
-1011.56
1481.75
-539.257
-793.207
1332.46
576.302
-996.473
420.17
-265.807
-317.199
583.007
408.068
-291.09
-1035.36
579.344
955.438
-798.381
-110.334
943.996
-833.662
-211.069
419.873
-208.804
-640.158
-339.472
-386.743
963.045
1856.37
-1856.37
-491.299
-120.325
-955.737
1568.19
-612.451
462.587
-896.744
434.157
-923.902
355.435
-941.91
-1058.08
-1487
343.133
1143.87
-278.683
930.467
-305.491
606.836
-301.345
-1941.9
999.994
-1138.46
-348.542
556.454
-1512.19
1728.52
-1725.62
-2.90461
198.034
-582.642
384.608
-1465.08
979.894
485.191
289.199
212.12
-501.319
310.69
-645.735
243.191
-419.713
176.521
2018.95
-858.128
-1160.82
-536.755
158.098
617.136
834.391
-1451.53
-184.474
427.666
431.256
876.852
-1308.11
-908.531
394.031
514.5
-1045.69
1447.21
-1068.74
309.632
752.591
-98.8827
524.245
-319.096
-205.149
1004.31
-533.081
593.335
-1403.9
810.566
-1342.32
238.557
-547.686
266.215
-1199.24
920.557
1940.08
-996.648
-943.434
276.802
1579.57
-2093.94
894.637
1199.3
366.567
-31.0649
-335.502
-224.018
482.92
-258.902
-113.571
-375.519
489.09
-467.877
149.546
342.01
-131.261
593.848
411.736
384.365
-796.101
-2042.24
1119.93
922.315
461.206
-533.03
71.8245
222.588
-364.412
141.824
998.976
1019.97
1784.12
-252.803
698.129
-464.201
796.886
-1389.87
592.984
331.373
375.526
1052.56
-1040.82
-491.575
-255.879
747.454
479.494
-137.503
-341.992
797.551
-616.346
544.712
-733.226
188.514
503.331
1157.42
-1239.97
700.712
1041.38
-1525.76
-3.13178
-1439.43
1442.56
325.373
824.875
-1150.25
623.264
269.967
-893.231
-2272.6
1155.16
1117.43
-1113.84
-1158.76
175.516
369.196
958.683
-633.31
879.162
-898.893
19.7314
-2099.38
992.453
-226.247
-190.151
416.398
-41.7477
1770.27
-820.351
66.2531
-1027.71
-1066.23
-229.905
452.493
-648.742
157.443
-266.616
-454.262
720.878
1104.03
-1574.23
783.021
-1374.49
591.467
707.054
-440.865
1947.87
-1444.54
-378.286
-1376.03
61.9631
409.213
-521.683
524.15
8.66349
-561.821
553.158
570.135
-280.936
-605.436
280.167
325.269
777.626
-365.889
33.8722
332.695
1188.47
-1191.61
179.846
228.222
425.321
-691.937
619.68
-1006.42
-2026.71
2026.71
-262.935
-465.073
728.008
699.228
405.876
-1105.1
579.642
172.95
397.637
379.989
-2199.75
1328.86
-926.663
-678.914
1605.58
-487.587
-711.653
-278.6
579.768
-301.168
840.98
-216.874
-624.106
-431.896
629.93
367.181
-672.673
-347.159
-117.32
464.48
-1330.07
-474.568
641
-1128.59
-374.149
-1244.33
844.33
1463.86
303.441
-911.518
608.077
966.653
-339.11
1391.43
-798.095
445.52
-265.674
-328.89
-885.863
586.02
299.842
-349.404
-536.458
305.623
-419.193
-186.958
-158.667
345.625
-392.765
1091.99
435.21
-244.555
-395.543
1349.94
-165.974
-1183.97
-457.404
263.317
194.087
241.383
274.881
-516.264
-3.11193
-730.114
592.098
-1729.01
1136.91
1481.82
-864.685
-1053.68
-411.401
-1057.35
573.425
483.924
1384.49
-404.595
929.306
-1411.44
-174.715
-181.301
356.016
-469.37
581.061
-1626.75
427.947
903.972
280.055
342.052
-622.107
568.065
1186.25
1104.23
-715.071
-389.162
407.621
-220.206
-187.415
-1419.46
445.236
738.321
-1183.56
1473.38
-544.075
-507.218
948.825
-441.608
426.147
1186.16
-1612.31
47.3693
-725.564
-144.425
425.001
194.177
-385.48
541.12
463.187
-591.378
38.8801
552.498
1024.54
-1307.67
283.133
661.208
-263.571
468.27
-1447.25
978.981
394.792
1686.43
-522.853
888.126
1051.96
-661.935
-1684.58
757.914
560.964
396.248
-957.212
454.054
78.7942
1749.96
-1828.75
1443.74
-379.491
-1064.25
1699.13
-1740.87
-367.621
-512.242
713.731
-201.489
-502.593
185.525
293.97
-373.209
-1226
214.438
-764.609
-639.292
-629.738
995.473
-365.735
-653.297
643.285
10.0116
655.029
-923.679
268.65
-705.001
348.486
356.515
-648.645
-715.089
359.707
355.382
-932.316
1400.59
-413.715
884.377
-470.662
-2205.31
5.5583
182.021
-537.329
355.309
139.259
1210.68
-62.231
-586.511
160.2
-598.105
1487.18
-704.163
372.127
-463.226
91.0994
-565.329
565.329
1223.04
395.438
1777.92
-1228.89
589.237
639.656
849.687
-52.1357
1291.54
773.559
-540.14
1337.03
294.747
301.806
275.299
-787.541
208.107
-671.871
231.606
-445.079
213.473
-257.902
595.42
-337.518
113.363
-371.264
-591.911
-564.6
1156.51
-400.24
520.576
-120.336
-1192.16
2032.04
-839.886
1289.85
-331.172
-402.195
136.388
-1984.93
818.304
1537
-854.618
-682.379
1986.96
-877.431
-1109.53
713.618
576.237
-240.905
472.511
-687.742
1157.6
-469.861
-770.069
1201.33
551.591
924.664
-1725.03
800.367
-578.241
-44.7729
623.014
263.923
260.322
418.783
-88.587
-330.196
896.801
-83.484
-813.317
906.503
-562.128
-344.375
1576.2
-472.172
888.877
-1626.25
737.376
1068.48
879.391
749.765
-444.315
-305.45
-1059.01
-258.29
559.707
578.49
-1138.2
-501.016
483.775
17.2408
578.159
-346.356
-231.802
-982.174
568.459
595.741
886.08
-441.83
1096.86
1409.78
-777.339
-632.446
397.22
-925.203
527.983
-1023.59
383.432
554.75
-1061.97
412.535
-491.448
78.9129
442.286
312.487
-516.612
-48.7173
-794.377
-878.027
1672.4
195.748
211.873
-236.546
412.062
-3.01784
-557.216
560.234
494.56
864.749
-1359.31
-499.153
312.195
985.755
-88.9543
836.316
-1064.9
228.587
407.12
846.319
-1386.46
-444.506
828.871
1977.65
-1284.06
-693.596
270.014
609.148
255.862
795.718
83.1661
-972.102
888.936
1673.74
-1089.05
-584.694
-137.851
1887.81
-1866.06
-160.656
483.416
-621.599
138.183
-1014.44
526.545
487.898
-1730.48
538.319
-955.842
845.508
392.304
203.41
575.574
-272.133
-422.467
711.368
255.285
47.7401
720.477
-768.217
-1141.87
-886.164
2028.04
-551.023
1104.48
-553.454
-462.471
-334.729
108.482
-1654.52
860.143
-854.911
-612.815
1467.73
-331.544
-295.192
626.736
359.859
-668.283
308.424
236.936
-602.825
301.281
205.928
-507.209
353.962
-632.562
641.332
-281.473
315.16
-465.066
682.787
442.865
-201.483
-411.284
-303.805
1219.55
-1.34092
-1218.21
1039.81
-420.131
560.323
410.744
-1782.37
869.825
912.542
491.384
546.428
-1037.81
-535.188
203.644
-262.911
1180.83
-917.923
-1590.88
1212.6
504.676
-1096.59
386.404
-14.2777
458.258
289.73
-747.988
372.857
-618.35
-31.3159
755.79
-724.474
-525.93
795.898
384.819
322.397
527.29
654.003
95.7311
-437.609
341.878
1058.86
-645.153
-413.711
494.017
-1664.27
1170.25
-1140.42
1753.24
-612.82
1715.82
-1123.73
-334.968
615.135
-1189.41
1272.57
425.154
-795.729
1601.62
-805.89
-240.202
-217.203
-904.96
1469.94
1812.36
-611.241
-1201.12
-404.996
674.115
-1303.85
-124.742
-63.9898
482.773
-685.845
-354.176
-1236.71
-222.663
459.599
903.586
-559.074
183.555
-1674.59
-71.2042
1745.79
-1067.63
516.604
569.16
-1181.41
612.247
901.084
911.277
630.74
619.999
693.983
254.842
-1149.82
462.075
-400.258
408.922
621.405
-515.275
248.262
-732.238
483.976
712.996
-381.623
-308.149
182.326
-583.511
237.205
346.307
-887.867
-738.386
1087.67
-2145.75
399.563
-684.456
-342.919
-724.225
831.689
578.096
-344.827
301.009
400.251
240.079
634
-874.079
541.151
616.452
-504.501
157.341
376.139
-639.075
-1056.57
-839.183
1895.75
-1796.16
157.003
1107.15
-1370.06
1173.5
-723.075
-450.421
-503.623
1349.94
-1495.53
627.886
867.646
-287.062
-210.454
497.515
1428.4
558.56
322.65
-439.97
-484.874
-565.941
1050.82
-417.405
599.426
1582.34
-1129.2
-453.131
-800.6
335.526
654.853
404.011
-1623.43
416.164
1207.26
-195.92
497.201
797.832
784.504
174.37
-676.155
501.785
208.032
211.84
-293.335
-109.532
402.868
467.209
51.5258
-518.735
-1643.59
589.91
-1608.94
1674.69
-65.7551
10.7919
-1619.73
1069.59
776.797
-318.539
-821.446
-202.145
-1134.57
-239.914
-312.234
685.091
-1812.44
-627.577
1206.07
210.888
757.941
-1329.91
-678.521
-465.469
644.816
-364.761
-1013.28
1350.77
-1932.86
582.09
646.225
1288.07
485.861
-2.94118
716.299
704.174
-1420.47
-639.763
337.958
301.804
440.389
-100.206
-340.182
151.909
277.734
163.875
-441.609
-582.671
1143.63
461.844
-621.352
-461.896
-401.948
863.844
-325.457
150.742
-458.863
167.773
-305.377
-709.066
548.182
-107.793
-570.269
967.489
578.571
-269.639
-308.932
455.949
-780.539
-643.9
439.268
-1129.41
-837.21
1180.34
-569.77
449.198
298.256
-475.808
119.833
1029.06
-316.249
593.026
-276.776
-509.042
1578.63
-705.331
258.475
372.595
-631.07
198.555
520.352
-17.0681
-503.284
-252.886
-205.977
1003.35
1108.93
564.81
-871.643
934.141
-62.4978
-455.761
168.699
-759.907
305.644
-594.49
362.216
350.78
829.688
-1248.84
419.151
777.677
-808.993
-948.953
-550.382
1499.33
-161.959
504.011
-520.794
201.698
1308.14
768.56
-594.19
1330.55
-689.55
487.845
-664.881
-409.808
-423.583
-378.712
802.294
502.911
-844.367
-471.32
71.0625
400.257
-324.4
572.418
729.619
-330.056
-246.106
-175.745
421.852
-489.159
146.301
342.858
1457.76
80.8689
-1538.63
-750.868
1346.61
-1144.76
-466.062
558.825
-186.23
1150.41
-372.73
1083.5
492.706
689.686
-414.387
-885.078
-522.351
-1328.44
-26.8575
984.977
-958.119
612.247
340.855
-953.102
-315.552
-221.203
-682.374
405.52
1621.19
-188.353
364.746
348.23
-712.976
-1839.78
-2106.68
1519.14
587.541
-2039.23
348.656
372.179
547.528
-919.707
-460.289
1020.61
-402.87
-682.587
1085.46
-2030.53
1391.21
639.323
609.613
-1012.48
28.5219
384.013
386.854
200.168
245.352
358.393
981.791
888.383
680.806
-326.246
-354.559
-294.43
622.615
-328.185
573.945
530.289
565.37
514.897
-1080.27
-796.219
-699.312
752.68
397.727
-418.22
726.644
-1193.42
1609.58
426.396
-1108.98
-319.361
525.289
-1388.45
888.758
499.695
-723.421
-355.639
-774.873
338.223
436.65
447.095
718.343
-1165.44
1068.64
-577.252
-399.304
647.247
-247.943
253.988
324.583
-468.367
-432.176
900.543
-238.08
565.208
-949.037
383.829
-460.273
600.599
-1681.26
423.781
671.06
-1094.84
517.369
89.467
113.408
-2212.79
554.608
-105.409
1444.06
1777.09
-217.552
-1559.54
-438.436
1789.2
-1986.97
1194.48
792.494
404.042
345.723
-38.2221
869.911
-1283.41
718.811
-870.315
-822.906
796.048
309.045
50.9608
-360.006
228.763
183.792
-412.555
1552.45
-836.152
-1530.94
-325.432
452.92
-196.612
-256.309
395.011
366.845
240.071
404.746
-8.94689
1001.63
-992.686
414.855
273.199
-688.054
-734.058
1817.31
-1083.25
-343.014
738.025
-1219.03
-413.847
-915.918
483.742
596.622
-806.826
210.205
762.269
-380.962
-381.307
-431.779
-439.864
450.477
1095.9
1236.8
-667.644
801.655
-345.706
405.945
322.063
-252.608
-210.618
-227.852
622.644
408.128
-848.222
440.094
236.839
363.81
-600.649
-422.944
831.071
754.58
-1147.35
895.809
-66.1207
-488.932
272.038
780.519
-95.8062
1383.87
1890.5
-72.0811
335.398
-345.976
441.707
-1086.02
1077.07
654.926
376.533
385.736
62.0813
390.839
257.554
494.078
-370.714
-269.049
-563.705
-89.5921
-354.918
367.357
-12.4384
-258.269
-289.417
1011.04
-1540.72
529.68
-181.36
-192.15
-418.864
692.063
-1632.94
1591.04
-963.156
279.456
-689.264
584.315
1224.42
-1808.74
607.414
983.627
302.014
-1118.84
696.369
-315.94
-306.168
1377.81
-1444.64
826.428
618.21
422.254
-610.544
188.29
-351.564
460.842
-109.278
397.172
70.0372
1723.87
461.272
-253.239
557.628
-1704.79
1147.17
-93.3356
408.269
343.275
337.53
-448.572
-615.723
1064.3
416.891
-861.397
-641.121
902.943
570.438
-476.816
-228.185
-439.143
-409.079
-307.275
-827.299
1821.11
-1821.11
-104.037
-1594
1698.04
292.969
285.19
-917.259
-555.355
1472.61
-408.244
973.614
-600.618
-1042.98
703.103
381.85
-1084.95
478.613
-163.453
573.062
1220.35
-1793.41
-1045.57
2115.22
-1069.65
-374.6
-298.341
-505.236
840.762
-1751.48
1600.8
150.678
1751.48
-1605.23
-146.248
-246.476
525.575
-279.099
-537.286
1620.78
1566.19
-1980.04
1086.54
-332.916
-221.907
554.823
234.217
-553.578
-721.153
302.933
1341.42
636.236
579.407
484.189
-1063.6
278.352
411.335
875.422
500.112
-1375.53
532.631
-1017.51
1574.96
-563.922
-786.764
-379.513
-140.488
520.001
-490.025
1208.37
-740.464
333.514
368.041
355.841
248.243
-604.084
590.058
831.958
-603.371
257.346
676.796
-476.816
-366.558
-199.534
566.092
1168.55
-685.777
610.38
465.661
-1076.04
-1285.39
1285.39
-386.605
763.138
-285.295
-475.29
760.586
486.592
444.334
-930.926
388.908
-674.204
611.541
-868.546
257.004
-367.404
-494.737
1074.14
-661.73
-709.938
1371.67
-366.525
931.733
-1552.7
675.27
-1.5491
-362.706
364.255
-539.399
696.842
274.681
320.739
171.415
307.197
-555.576
239.636
1869.5
-1965.3
255.088
-686.984
446.656
-819.74
373.084
-915.258
1424.72
-509.457
-429.925
-485.993
600.727
1124.2
-1724.92
-715.863
341.263
-460.639
1034.58
-781.642
1038.99
-379.52
-629.397
-501.676
709.783
540.448
-358.406
903.483
-298.43
-190.729
1599.02
-1816.57
-334.6
-614.437
-330.498
476.8
262.732
-627.494
-161.257
1063.69
-791.654
209.737
-312.798
-277.352
590.15
389.361
-874.022
484.661
-487.381
-447.871
-911.518
-346.153
538.726
-192.573
-436.122
-420.36
-318.613
-188.596
-382.198
630.44
-466.371
788.435
-1072.85
624.281
-1409.7
554.788
-27.9596
-1835.32
1863.28
569.925
-449.635
1218.01
-701.402
292.648
-292.648
670.735
-434.624
1044.35
-1644.97
-1158.73
-947.949
293.073
329.541
887.39
714.229
-499.516
-288.149
787.665
1657.44
-1685.4
-434.431
349.11
221.025
1135.15
-524.766
-943.334
1550.48
-607.142
444.998
-244.83
383.988
402.039
-786.026
529.79
470.168
-999.958
-331.961
665.476
-37.8765
1907.37
1600.81
992.842
-1697
727.117
-1177.14
450.018
-492.472
1367.89
837.731
-1341.35
-573.328
240.412
794.975
-398.727
552.165
-1187.68
635.512
-638.48
-1215.54
-695.653
1911.19
-188.619
526.449
-337.831
-120.543
284.24
-472.858
326.9
371.495
-698.395
-1482.87
756.547
726.325
884.087
-1434.47
825.662
-431.63
220.439
-364.865
-602.628
236.07
-661.649
-726.805
698.818
506.159
-1204.98
394.233
-204.597
-189.636
556.121
-958.721
-567.851
-450.234
755.879
-831.294
-1155.68
-1437.97
499.65
938.324
32.6911
-643.275
307.136
336.139
-1312.99
1045
267.993
-616.663
-456.19
-665.881
921.744
402.187
-204.45
-197.737
508.215
980.658
-1488.87
974.123
-563.011
166.753
396.258
-422.839
659.978
-404.89
-504.951
174.453
234.352
-1518.41
529.144
539.492
-751.056
211.656
156.603
-455.033
367.683
-815.554
1954.16
-1195.39
-758.77
439.23
-667.15
227.92
324.104
318.521
124.29
-442.811
-567.645
195.347
265.925
-691.729
1374.36
-682.634
424.087
470.767
-1194.19
267.306
1866.78
-1013.59
-853.187
784.911
-499.356
153.203
1402.38
-975.189
-427.189
332.071
-766.695
-616.511
1725.44
611.497
625.307
317.664
-8.61947
260.674
-1138.43
1725.72
-587.289
-1763.52
820.191
1759.52
-1690.05
-69.4665
-653.28
253.022
596.546
-703.052
201.376
1402.74
-565.007
389.12
439.751
-1858.57
1420.13
515.305
-441.135
-74.1704
203.7
-522.313
-315.72
-146.751
-353.13
696.405
-612.472
232.959
609.053
550.18
-1159.23
1113.65
-1947.47
833.821
147.813
316.666
-1698.98
1661.11
312.827
-727.214
-163.979
384.418
754.616
678.897
-1433.51
1077.81
-1079.15
524.964
-1102.22
-631.404
253.88
377.524
510.478
-273.273
-611.95
-1033.02
291.966
-712.326
-912.32
174.885
166.247
227.986
383.306
288.986
-672.292
-629.242
-834
-978.436
488.88
-1056.52
-275.998
470.086
533.083
647.26
-279.849
-122.347
-439.301
741.315
265.049
-1198.11
568.865
1308.02
-553.403
439.233
-1007.08
-387.642
120.524
394.781
1023.36
551.596
-1718.55
1614.52
1639.37
-574.378
-1064.99
1903.3
-1891.79
-11.503
221.358
-567.334
-335.104
544.841
-768.191
-315.88
-337.4
1027.42
698.854
-1507.01
808.153
315.952
-26.1895
1625.21
-1090.42
404.642
-1252.28
465.516
-60.4513
1518.21
1197.45
-470.331
-488.71
-74.3017
-232.641
736.022
-1951.56
-711.018
346.572
-531.612
185.04
191.389
-507.638
1139.91
671.558
-1811.47
-579.395
138.26
942.022
-1497.38
-210.508
678.9
-468.392
881.919
1118.08
-737.501
1349
625.112
-531.882
-93.2291
-345.415
1171.84
1049.06
-1981.31
932.25
-1170.77
543.192
1488.81
-585.863
-377.223
-127.278
-1240.77
573.127
1165.85
-95.5718
946.086
775.549
-1721.63
-212.502
578.509
-1541.76
963.246
486.998
916.654
-1403.65
619.218
586.849
381.987
-1106.64
591.149
1105.65
1215.86
-452.333
-763.526
-1186.2
-1754.94
-6.79489
-1711.76
-180.352
-430.192
1607.06
-628.343
-978.713
-490.865
1121.61
-1317.38
636.206
681.17
-1361.51
1442.38
-1329.82
592.323
1520.53
-401.385
-542.173
164.95
-1489.64
230.047
176.38
197.802
427.31
456.425
390.843
-847.267
506.352
-939.036
900.792
-1444.87
-686.641
212.635
474.006
-1039.21
456.537
-472.15
861.269
694.918
31.4862
-502.6
164.77
-886.566
-1318.74
-716.124
350.254
365.87
404.577
-723.547
318.969
-479.726
-189.389
-709.504
719.189
1539.62
-593.538
815.302
737.149
1344.8
-844.691
-971.313
-570.442
-797.79
428.081
369.709
-1036.79
-643.516
304.749
338.767
-1433.69
-296.781
-791.211
398.467
392.744
-637.297
405.51
231.787
-663.996
259.106
412.797
487.746
389.955
441.117
479.161
384.683
596.734
-969.943
677.868
465.767
453.709
356.534
-810.242
1630.76
-1079.9
-550.869
-504.536
-285.676
-1027.31
454.412
347.882
409.689
594.217
-1003.91
-1380.45
752.104
-533.355
1145.6
344.692
-66.9579
412.281
-865.906
453.625
-1897.93
303.929
441.608
-726.626
285.018
-186.027
405.9
-219.873
-662.316
308.512
353.804
-675.125
320.566
371.033
392.104
612.819
-1021.06
753.274
661.744
-1415.02
438.805
625.49
339.773
393.006
-732.779
409.506
328.519
615.595
691.213
404.689
600.792
-1019.81
419.021
-1677.64
1185.12
492.524
1696.59
-539.176
621.168
-1147.44
526.269
-643.175
347.983
437.392
-935.484
498.092
765.343
-475.613
351.257
345.148
576.687
-911.287
651.293
-1253.32
602.027
383.147
734.801
-1224.83
769.602
509.576
-1279.18
484.782
400.498
-885.281
-501.663
-936.311
-302.661
629.561
352.642
541.956
-894.598
333.199
332.277
-502.18
1944.74
437.141
-847.331
410.189
-917.843
-807.187
-749.346
368.039
-1213.96
432.319
-1733.34
1605.23
128.108
1745.85
-1600.8
-145.054
-784.848
-594.228
266.636
327.592
-1759.52
1980.04
538.507
791.612
-1330.12
440.122
716.39
690.35
385.642
-1075.99
-54.3958
1617.15
-593.784
377.225
840.781
-650.067
326.728
323.339
-378.594
-297.879
551.867
-223.383
435.503
281.18
-667.279
386.098
265.597
-580.679
-283.29
442.576
-1033.68
591.107
538.046
1092.72
366.07
596.975
311.844
352.514
-664.357
1625.31
-926.459
1691.87
-1520.51
-171.368
-328.631
-823.816
414.737
857.522
-1068.03
-608.253
280.069
-1090.6
1628.64
-1588.91
-78.3075
1667.22
-341.617
-350.442
-370.376
536.993
598.154
-503.472
-29.5578
-549.967
508.074
-284.023
-224.051
1750.48
-1300
-626.1
299.714
326.386
401.347
357.296
734.697
-296.559
-399.092
-1745.85
1685.4
459.58
-1101.09
641.512
-43.2793
1657.8
571.317
476.429
-1047.75
104.316
1144.87
-1452.15
-13.8295
-1884.1
228.975
-599.757
307.793
291.964
-955.498
612.579
-898.708
468.784
-1128.69
673.581
455.113
374.391
256.81
-756.325
-334.218
1217.25
886.821
699.079
-1183
456.164
726.84
494.379
700.884
-1195.26
-387.857
-248.135
414.381
-960.974
438.58
522.394
21.2514
-1879.82
1079.9
-468.356
-493.713
558.149
-1378.27
820.121
-423.531
796.614
-405.475
498.7
-714.613
1717.96
414.739
-186.752
216.223
-172.312
-246.34
418.651
1895.32
-504.113
-1692.78
1051.62
-602.321
304.442
-1014.05
553.765
-313.373
544.301
905.305
-1449.61
-1103.89
438.007
-20.7659
-1944.54
1714.3
-665.241
-540.589
460.745
-1190.6
729.851
190.31
211.878
-282.025
769.363
700.575
838.392
818.455
-461.922
1085.07
-484.77
480.358
-194.72
-285.638
-1923.05
-714.197
-318.576
-643.433
-6.65954
650.093
468.824
-273.478
563.421
1061.89
-803.975
925.137
1244.38
-425.349
-173.821
-244.274
418.095
954.427
-888.535
-322.09
-1068.06
611.871
1556.4
-799.856
537.66
934.954
-389.978
734.656
-344.678
1130.47
-276.329
363.232
1349.76
-704.648
-220.555
448.307
-1198.7
750.394
-988.775
-130.448
1119.22
442.059
-955.994
513.935
152.567
732.541
483.317
744.09
-110.091
853.397
-425.812
1182.6
-796.955
552.13
-1465.51
913.376
-1216.65
1800.97
-431.712
-1510.19
879.682
-1402.03
-301.568
-446.419
1457.26
-1523.24
784.858
1491.5
203.155
277.202
-348.348
-1733.34
-289.367
-1012.74
1576.16
-1767.44
1767.44
1566.19
-1004.52
-634.809
-330.744
368.443
605.171
-407.205
-357.159
-1389.86
897.387
1125.15
600.573
1202.8
1789.48
-1216.42
-611.258
274.105
1658.99
-1916.45
257.465
814.429
-1267.56
1545.25
-561.622
776.196
328.282
-340.678
554.813
795.13
657.67
1370.37
-248.662
-445.083
-349.878
497.585
-341.413
471.785
736.582
-289.367
-153.444
-325.164
564.819
-239.655
26.7096
-373.066
1107.46
-1720.28
-446.372
-483.483
-563.244
863.573
692.83
-1596.53
904.798
-451.742
-620.589
-513.85
1252.17
338.2
1723.69
-1702.44
-1657.44
1891.79
-1560.84
840.279
720.557
-378.831
-1795.72
917.694
583.141
819.598
-389.24
1794.3
-680.657
-443.92
694.111
423.404
-1117.51
-1099.3
444.121
753.326
-1617.18
473.205
901.158
178.564
-404.678
226.114
-1599.12
-384.724
-455.493
990.292
-671.906
1442.96
-973.117
1855.04
242.427
-551.064
498.867
-295.712
474.324
893.57
543.114
977.418
-462.881
-427.986
573.958
883.3
-1392.71
-40.9897
1572.16
-835.006
519.955
971.547
-1475.85
-1115.9
1775.46
-1243.68
-531.78
1206.17
-319.02
-887.145
-193.483
456.855
-263.372
-457.457
-250.964
433.534
-182.57
148.15
-396.285
1733.33
-1740.13
-453.868
-530.854
-903.616
446.722
-208.301
-238.421
635.182
-475.132
-395.067
-304.002
699.07
-944.022
407.564
-1167.34
676.471
420.991
-634.27
-441.697
1574.67
-860.441
530.186
-457.933
-571.069
-462.614
365
-354.726
-10.274
-1106.14
404.737
-664.746
-1033.67
1698.42
-599.976
-1423.37
713.428
562.195
-1596.27
1034.08
-388.97
-483.093
143.172
550.811
-1258.51
744.665
539.23
1006.02
-2133.18
999.989
1133.19
-347.428
412.848
-387.716
-25.1318
1478.07
-365.021
449.543
1190.42
582.205
906.601
567.903
527.493
-1095.4
168.042
-435.248
-1690.05
254.954
1127.58
-613.335
518.487
1013.77
-1532.25
1092.86
-1643.73
200.099
695.71
544.199
-866.289
-1086.51
-172.405
430.161
-257.756
-587.056
-423.34
-636.87
-628.743
346.717
-1618.73
939.816
-476.811
216.004
-402.756
536.61
-307.635
-606.585
1197.21
-1286.38
934.723
351.657
-1026.88
-354.787
-756.697
-824.371
1687.94
-476.955
1795.32
-1584.86
-210.466
-1556.64
1018.73
537.912
-725.053
-261.19
444.281
-183.091
-590.758
383.808
275.376
-659.184
-523.941
984.62
631.497
-351.428
-1620.28
1050.51
571.768
1103.55
-1675.31
-407.243
-294.241
-368.075
-744.241
-485.265
-331.05
502.465
1558
-995.805
-775.306
1497.47
661.148
-312.038
725.882
1152.37
-1878.25
272.246
296.995
-487.181
-1932.03
1719.75
212.284
739.577
-474.687
-264.89
531.832
1060.83
-1592.67
365
-1725.59
-233.21
1752.35
-1580.7
1073.78
506.919
-1726.5
0.907499
-521.682
412.848
1698.98
-1719.75
939.726
624.511
-1564.24
384.592
-219.904
-164.688
-410.874
-253.122
68.8265
95.1046
-356.295
-431.655
-436.891
-408.704
222.677
1510.25
378.867
-196.382
-440.915
464.583
-198.659
316.578
1510.78
989.664
-168.341
-821.323
-1104.11
1704.83
-1728.78
1064.04
-707.161
-1021.62
-1265.09
1844.99
-579.902
1155.07
-1771.15
616.077
271.877
-878.191
1675.7
43.4489
-1719.15
-491.167
-1083.06
-1733.33
-982.35
554.363
1019.61
590.225
1133.04
-1723.26
279.438
-465.667
704.88
-384.314
379.882
924.93
680.647
-372.124
-647.689
582.893
1072.56
-1655.45
-399.211
-370.092
769.304
393.232
-1661.11
1520.51
140.602
583.776
-1044.42
544.747
1083.9
-1555.69
994.067
-239.1
232.071
312.77
1903.3
411.448
-72.1638
995.862
722.753
-1718.62
-697.327
1085.35
-1557.52
167.687
-571.606
198.576
266.008
-661.119
-552.841
582.504
1034.64
-711.172
-250.372
-1368.69
675.877
692.81
-417.105
750.672
86.8746
-837.547
561.72
-137.155
1557.29
-218.394
264.298
-771.141
-1932.03
1664.63
1028.46
348.486
287.05
478.293
-930.124
-992.922
-1767.27
637.688
1693.77
509.629
-474.308
1210.89
1087.14
-424.961
1030.13
-978.881
493.488
485.392
700.206
1047.95
-1748.16
485.761
481.728
-1494.01
-747.144
32.0723
781.009
-412.97
-880.44
386.727
-538.819
-802.535
608.077
-577.273
1397.39
1055.14
195.215
234.946
-550.621
1618.53
-772.47
1525.74
-1727.84
575.253
1152.58
544.47
-883.58
-1732.75
1916.45
-183.7
1721.74
183.378
-543.812
368.649
-273.545
-481.419
1211.27
568.272
1128.32
-491.308
431.333
858.812
-462.484
-772.445
424.291
348.155
1418.83
1089.61
-518.2
1423
-510.638
-533.422
1044.06
-602.755
492.96
-1216.04
1691.87
1839.58
-687.212
1585.67
-645.948
-1241.4
717.458
-562.473
203.54
-393.691
456.415
-244.574
-520.141
-1246.71
1870.94
-624.233
1173.49
-552.321
1120.28
-1659.46
1694.18
-573.938
-545.41
-549.817
1720.07
-317.112
-688.043
-473.32
1223.71
-1683.68
-1860.1
613.395
324.048
-948.153
170.162
214.843
-1719.03
1204.15
514.874
1162.86
558.889
-511.583
-465.389
1192.23
178.077
227.823
588.444
1251.13
-539.176
-1238.58
1777.76
-1025.41
999.99
866.788
-204.118
-1658.99
1702.44
-510.08
1411.24
-1732.75
-345.696
0.386787
345.309
-265.516
585.432
-319.916
94.0988
491.921
781.877
-377.3
1257.53
1270.88
-413.362
852.688
-437.951
1817.45
-662.38
1586.54
-1723.69
-412.788
-753.783
331.435
422.348
-559.697
-563.3
79.7349
-1138.75
-985.51
-669.707
1655.22
-943.707
-1189.47
204.467
-426.374
-648.415
705.624
1167.45
650.003
1410.34
-590.747
1636.75
1318.13
-573.467
-494.314
198.603
-503.282
1396.85
1240.19
-564.312
-999.988
893.557
54.4097
-947.966
603.442
-506.136
1403.52
1495.08
-588.481
-368.138
368.138
-589.427
1623.5
1239.55
-486.228
1134.16
-68.0831
1852.24
-395.951
1489.49
-588.698
-507.679
1347.96
-652.798
1218.69
-565.892
1554.81
-591.568
752.83
570.106
-1322.94
-667.015
261.03
507.53
600.165
-1957.3
-986.561
1586.54
370.654
-370.654
-71.0301
388.868
436.794
342.778
54.3943
-321.17
918.566
-535.419
-425.992
814.86
-244.336
621.86
-430.436
1550.36
-444.343
-884.101
188.674
226.949
-415.623
601.168
1250.78
-1851.94
927.477
-458.694
-354.726
126.152
-1943.02
1816.87
-451.693
186.019
1181.28
-440.463
-740.819
-301.767
-578.673
-492.265
-387.716
-481.959
257.909
1158.43
-560.273
230.492
-383.688
153.196
-22.7158
-107.678
1376.03
-1268.35
34.572
-598.277
-586.395
-452.817
452.817
-1262.36
1985.11
-1344.39
-208.485
-1824.87
240.013
-1025.76
-974.243
-187.117
-1637.67
707.546
1229.32
-1924.97
370.349
311.822
-682.17
-1850.01
1234.27
615.742
-561.713
561.713
-959.193
-39.9697
-1866.06
-558.145
1650.86
-677.398
1636.18
-601.535
-178.121
-1705.98
-585.953
-466.733
-594.799
-466.859
466.859
-1537.81
194.526
1343.28
174.619
226.446
-401.065
499.569
490.095
997.351
-474.957
1751.3
768.18
-423.592
398.46
520.692
1702.06
-594.599
-552.965
1636.86
472.681
1812.74
-645.293
-1803.96
-1938.07
-646.952
-479.09
479.09
-571.975
222.096
-701.496
1019.69
-465.923
-1072.05
-283.92
1579.57
1852.3
1635.34
-1635.34
-292.453
738.518
1761.49
595.787
1275.15
174.692
209.899
586.009
596.086
1603.51
-1603.51
223.237
-353.198
-434.41
461.222
951.786
-458.298
-639.728
-1131.01
1706.26
281.055
-1657.9
614.926
-289.378
472.755
1744.65
-592.063
-216.173
-439.855
378.88
726.767
1738.57
-613.425
-511.766
-781.513
1960.54
-870.454
-1090.08
1642.78
-705.938
1223.97
-1824.95
600.972
349.076
-900.139
-185.843
-105.966
1098.43
-486.563
122.816
623.215
-1656.24
437.739
593.8
-1803.96
-583.276
1787.43
884.292
-1162.92
1760.49
-597.568
1783.83
-575.528
-1208.31
432.402
930.352
-1740.13
924.765
-1489.04
254.534
1234.51
-830.866
-1254.23
-380.408
75.9239
304.484
581.723
270.432
1026.14
-444.981
846.97
-401.989
821.168
738.528
-1559.7
643.793
1066.28
-24.2145
-663.309
687.523
-1744.32
722.697
699.582
150.564
-1122.69
1936.76
-674.549
-1262.21
-537.177
1665.5
830.044
963.747
-1793.79
1227.87
683.324
-402.638
711.15
841.24
1028.6
-586.544
1761.49
626.662
1773.56
-1185.62
-587.941
-418.203
-317.447
735.65
121.448
-1185.69
1660.55
-540.269
-1437.82
1437.82
1250.57
594.415
1351.56
206.437
-570.631
282.683
-193.425
699.075
1113.67
483.537
-305.46
-870.246
-574.621
1739.22
-1739.22
993.655
-993.655
987.331
1025.17
-2012.5
1837.94
-613.971
-581.108
834.385
-947.849
-1052.16
998.369
690.562
-1688.93
-516.612
-359.836
-652.646
-808.423
2042.7
-1246.42
-613.681
1002.97
974.851
1289.77
646.986
326.286
1012.69
239.433
336.896
1186.25
1756.88
-1756.88
671.959
79.8763
-388.808
-997.053
-539.992
1674.15
989.47
1010.53
-1833.28
-224.161
-361.793
596.027
-341.074
1849.5
-1077.86
-771.638