/*--------------------------------*- C++ -*----------------------------------*\
  =========                 |
  \\      /  F ield         | OpenFOAM: The Open Source CFD Toolbox
   \\    /   O peration     | Website:  https://openfoam.org
    \\  /    A nd           | Version:  7
     \\/     M anipulation  |
\*---------------------------------------------------------------------------*/
FoamFile
{
    version     2.0;
    format      ascii;
    class       surfaceScalarField;
    location    "39";
    object      phi;
}
// * * * * * * * * * * * * * * * * * * * * * * * * * * * * * * * * * * * * * //

dimensions      [0 3 -1 0 0 0 0];

internalField   nonuniform List<scalar> 
44730
(
-595.703
670.585
-74.8825
1064.42
-1072.34
7.92647
-334.256
380.827
-46.5713
220.796
-259.131
38.3346
-498.011
498.011
213.471
-260.159
46.6883
-386.977
380.692
6.28533
30.709
-569.431
538.722
664.532
-833.995
169.463
-1009.38
1102.33
-92.955
562.245
-150.759
-411.486
-534.176
535.863
-1.68615
-687.682
582.583
105.1
-859.806
868.864
-9.05715
248.235
70.8392
-319.074
384.597
-10.0652
-374.532
814.387
-666.914
-147.473
-401.118
414.767
-13.6484
160.58
314.824
-475.403
289.37
-355.508
66.1385
-593.897
81.7084
512.189
724.848
-60.3164
49.1586
-383.415
136.379
-489.054
352.675
236.217
-126.762
-109.455
1068.17
-3.75561
659.732
-680.854
21.1221
-279.718
-1.51967
281.238
294.111
-45.8762
-443.941
543.959
-100.019
956.711
-247.88
-708.832
-676.912
767.283
-90.3717
259.399
-225.774
-33.6256
482.66
-75.5123
-407.148
131.737
-411.455
262.579
-432.445
169.867
442.34
-583.849
141.509
291.379
-43.0652
-248.313
825.827
-980.937
155.11
1063.76
-237.937
-1018.36
1035.84
-17.4765
399.19
-86.4015
-312.788
704.078
110.309
188.834
-316.919
128.084
1228.49
-777.717
-450.772
-591.192
147.252
536.345
-538.949
2.60397
230.476
645.57
-876.046
226.016
537.204
-763.22
-100.706
543.046
-392.476
171.349
221.127
-7.18459
-227.573
234.757
-672.402
-4.50962
237.313
-23.8423
423.279
-38.6815
-277.742
-40.0034
317.746
523.731
-499.324
-24.4064
-34.3416
-559.555
-466.627
46.6208
420.006
-297.875
-35.702
333.577
799.484
17.5791
-817.064
-409.152
569.731
10.5145
-248.16
237.646
-222.667
485.245
-322.42
431.265
-108.845
263.033
240.505
-503.538
495.511
-121.09
-374.421
429.628
-50.8814
-378.747
-451.939
-29.0663
481.005
-986.831
-31.5337
1062.35
5.8266
301.66
281.264
-582.924
-245.756
548.365
-302.609
170.375
82.6922
-253.068
-430.505
380.573
49.9317
-377.598
395.352
-17.7545
278.489
-160.802
-117.687
-250.369
-57.7453
308.114
-699.279
16.5328
682.746
407.46
-86.5143
-320.946
-248.933
248.933
78.7638
-758.845
680.081
-666.383
70.6804
-947.211
848.238
98.9737
-327.089
-59.8878
-16.2308
219.384
-203.153
517.342
-132.668
-384.674
-644.437
-43.2447
652.338
-69.7551
90.8452
83.9873
-174.832
-361.74
99.673
262.067
-305.862
55.4927
847.317
-621.301
569.644
-603.663
34.0183
216.439
-89.5642
-126.875
-358.853
135.273
223.58
-31.5692
261.159
-229.59
-846.781
847.621
-0.840341
-38.9941
-154.081
193.075
267.055
-1.19247
-265.863
-711.438
12.1598
-262.085
280.965
-18.8799
778.72
20.7642
435.127
-641.015
205.888
205.203
-212.388
-757.131
822.756
-65.6255
645.94
-715.809
69.8687
74.6219
577.716
943.829
-846.98
-96.8485
-213.559
249.89
-36.3314
198.796
60.6038
357.893
124.513
-482.407
1009.1
-256.887
-752.212
17.2565
564.404
-581.661
-12.2476
-587.752
599.999
539.129
-237.469
113.945
421.125
-535.07
-302.798
406.067
-103.269
76.7203
-814.821
738.101
-700.495
454.74
17.1932
-220.788
203.595
21.3248
-855.782
834.458
-331.895
326.439
5.45573
-36.5268
299.56
23.9723
-891.067
867.095
-352.916
353.324
-0.407973
-72.3449
-328.773
18.6982
-295.764
277.066
705.461
-787.327
81.8659
726.051
-860.295
134.244
-159.091
347.925
179.541
98.948
195.534
-204.541
9.00717
309.854
-313.998
4.14397
-128.429
563.557
629.803
326.909
146.711
73.7157
-220.427
273.571
-312.392
38.8217
232.242
-266.474
34.2319
-18.4389
285.494
-362.169
9.25281
2.18749
-182.194
180.006
216.541
-54.8075
-161.734
181.125
827.974
-198.072
-739.274
937.346
-101.082
-396.929
523.222
13.1232
240.704
-226.072
-14.6313
283.781
-233.407
-50.3746
37.0864
-229.308
192.221
-398.83
639.331
-240.501
48.8588
513.259
-562.118
984.137
-886.701
-97.4363
790.844
-787.078
-3.76636
-576.583
-234.29
810.874
-145.494
722.045
-576.551
452.802
-443.193
-9.60915
-213.805
1.03036
212.775
34.9589
-764.255
729.296
-169.449
-223.027
-242.522
229.425
13.0971
242.704
-21.9076
16.3691
1020.86
-572.448
-448.409
735.193
-933.265
-397.416
94.6174
8.48835
208.053
16.5613
-778.312
761.751
-90.3611
-856.85
415.78
-451.19
35.4098
-106.803
832.854
52.7559
-736.916
684.16
-206.508
-7.29717
273.571
12.073
252.042
-264.115
-431.873
431.873
82.2037
680.416
-762.62
-311.423
49.3382
-580.167
597.423
330.356
-319.739
-10.6166
-777.829
-63.266
841.095
-153.504
454.363
-300.859
434.304
83.0385
430.377
-441.61
11.2327
278.982
-46.7399
-201.733
-332.386
534.118
499.874
-380.769
-119.105
-327.861
20.6487
307.212
786.275
-80.8137
-519.109
-81.5715
600.681
-661.016
661.016
-131.706
505.57
-373.864
95.4682
-345.382
249.914
-919.218
342.634
305.766
-356.076
50.31
436.596
16.2061
813.535
-495.32
-318.215
918.563
-71.1432
-847.419
71.7398
144.7
-847.544
614.643
232.901
-25.6736
279.553
-253.879
-205.143
226.56
-21.4173
-46.1648
-488.012
875.521
-890.36
14.8388
-59.797
428.996
-13.2166
789.321
-794.392
5.07089
247.838
-7.13458
33.065
-246.624
822.121
-963.805
141.684
246.944
-341.707
94.7633
570.457
-570.457
899.935
-93.2214
-806.714
594.107
73.1043
-667.212
64.6125
-333.702
269.09
-176.304
265.348
-89.0447
-479.867
326.363
52.4537
736.867
-392.76
529.139
245.083
-173.344
-684.139
-176.156
484.963
-630.457
453.228
-500.729
47.5011
-900.344
1036.38
-136.035
-579.216
555.434
23.7824
506.811
-581.767
74.9557
130.014
737.056
-867.069
211.187
530.827
-742.014
723.354
505.136
322.495
741.269
320.737
-231.627
-89.1104
-292.459
292.459
370.487
-401.356
30.8687
-27.7116
1090.06
268.33
-321.511
53.1816
532.336
-483.478
-297.43
-562.377
551.398
-564.771
13.3736
-29.0416
904.563
267.503
-293.176
-244.623
212.141
32.4823
498.766
-587.46
88.6944
-197.538
959.122
-761.583
588.582
-81.7716
772.484
-382.644
-389.84
337.639
-48.2696
471.979
548.877
-209.118
192.888
-743.838
59.6989
-937.616
37.2721
477.234
46.4972
-679.979
891.167
-697.524
-59.6067
183.627
-205.987
22.3605
-73.9955
915.277
-841.281
-38.0587
-817.79
855.848
178.591
-176.403
57.9555
174.74
-232.696
-7.22226
-365.926
373.149
330.778
-312.08
-612.229
213.399
-244.368
440.866
-196.497
908.566
-678.09
304.632
16.1053
313.922
-14.1981
-299.724
-569.302
166.99
402.313
459.857
-29.48
525.934
-727.666
-378.31
0.712826
646.282
-746.172
99.8894
-225.327
155.085
70.2428
-656.055
638.902
17.1536
236.088
-224.015
68.7794
176.304
-744.093
826.297
-310.355
328.479
-18.124
67.9491
-362.177
294.228
233.745
-205.861
-27.8836
525.859
-328.269
-197.589
11.209
-346.338
335.129
-496.856
484.609
-77.1765
277.556
-200.379
-663.477
161.483
501.994
-343.77
-15.0827
653.685
6.04712
444.335
-21.0566
-164.552
13.487
151.065
-23.9221
729.829
-705.906
-858.425
988.439
320.145
-154.122
-166.024
677.295
-775.07
97.775
425.579
346.905
706.157
59.8216
-765.978
818.109
81.8262
558.666
-529.416
-29.2507
1093.73
-1012.33
-81.4084
1.84777
-292.109
290.261
291.238
22.684
94.9668
141.25
209.462
-13.9279
199.873
-196.854
-3.01863
138.81
152.075
-290.884
-301.661
281.827
19.8338
-167.233
-299.45
466.683
419.251
-550.957
-316.652
201.108
-189.618
-11.4897
189.935
1008.83
-559.34
-449.492
525.647
-109.058
-416.589
137.553
508.388
84.9148
473.751
-1.53894
-698.202
715.969
-17.7677
42.6073
-546.121
503.514
-96.6212
-248.327
344.948
-447.751
38.717
409.034
-140.218
-335.813
476.031
779.984
-1.26342
24.8501
199.926
-388.293
188.368
153.214
-230.39
-920.956
849.902
71.0548
-291.994
305.989
-13.9947
675.342
-87.5691
-587.773
1047
-603.802
-443.197
199.279
-188.734
-10.5452
260.755
-112.36
-148.395
-420.175
417.66
2.5148
662.23
-30.6285
-631.602
-697.095
-1.10713
380.653
26.8073
-561.303
450.882
110.421
585.222
-578.044
-7.17815
-855.761
44.4117
811.349
856.376
33.1968
-889.573
-424.152
283.935
-202.619
38.0662
-330.096
539.57
-209.474
-189.073
-55.5506
754.992
-793.05
-147.45
205.405
543.246
-168.213
-375.033
-123.37
-308.503
213.473
-213.279
-0.194476
619.613
42.6177
683.319
-608.697
25.9003
-302.264
276.363
838.031
-876.591
38.5605
-310.771
-8.9684
958.376
-961.384
3.0076
63.5174
193.082
-256.599
680.173
-33.8905
571.706
-592.619
20.9128
-828.081
849.406
209.426
-192.233
786.599
212.007
747.115
157.989
190.364
-348.354
-297.127
-5.97009
824.964
-74.2003
-750.764
598.678
-131.413
-467.265
257.519
-86.1701
79.3177
416.193
90.0036
-266.307
473.717
-503.749
30.0318
141.1
-347.41
206.31
137.469
388.39
60.7091
857.854
653.168
-773.159
119.99
-22.3197
980.696
-292.106
-17.7405
309.847
-217.698
207.278
10.4196
-1.50711
171.883
47.8349
452.039
334.729
-341.951
-352.83
30.4105
-346.182
48.3078
838.329
-58.3453
88.0879
-234.396
146.308
-959.262
21.6456
-923.345
-35.9172
-486.348
59.4237
426.924
-736.639
905.956
-169.318
-202.534
-58.3087
260.843
-123.996
-91.612
215.608
-153.151
-47.046
200.197
-135.513
228.674
-93.1608
853.468
424.724
-224.799
159.785
-11.7382
-567.478
-879.91
-41.0467
447.013
151.666
194.414
-524.51
200.805
-1107.17
906.363
17.6985
209.229
-226.927
2.19186
-207.335
417.927
26.4088
89.0838
701.761
277.147
14.9297
-292.077
-468.103
582.048
728.876
72.7132
-801.589
-780.294
-7.03315
802.939
-856.351
53.4126
303.896
-290.102
-13.7936
87.7592
232.386
850.911
-864.913
14.0023
978.825
-862.144
-116.681
939.339
-943.843
4.50355
-400.847
-160.455
-0.615848
-873.436
544.62
328.816
-176.219
161.028
15.1906
-246.601
385.411
138.976
90.8998
-229.876
753.821
270.134
-259.619
431.497
94.1495
784.248
-699.178
-85.0699
-52.3292
-105.683
-89.6776
195.361
-304.201
261.587
42.6138
862.807
-838.835
-20.9147
378.251
-357.336
-332.833
-29.3358
572.482
-583.076
10.5939
365.653
-327.383
-38.27
-828.606
731.253
97.3531
-905.862
831.867
142.964
117.791
-404.985
275.822
129.164
466.632
-453.342
-13.29
620.83
-622.617
1.78695
517.968
-44.2512
-320.104
-129.682
449.785
6.90369
-299.01
-64.5559
-250.7
315.256
544.289
563.934
-1108.22
-900.86
849.223
51.637
1.7884
-404.094
417.679
-13.5855
430.94
-399.205
-31.7352
673.972
-849.342
175.37
711.946
-883.538
171.592
-501.952
-161.524
-439.981
62.2864
377.695
302.358
-5.75863
-296.6
-325.771
172.62
477.515
84.7303
-719.744
-108.862
15.0751
184.797
-298.441
303.327
-4.88618
25.7364
-339.146
313.409
488.881
40.4986
-529.379
-238.742
302.477
-63.7352
-896.189
-19.6369
915.826
-195.424
-39.0894
234.514
6.10389
-849.725
843.621
804.703
-118.348
-686.355
335.973
146.121
-210.677
-874.869
-21.3205
808.791
41.1101
2.42545
552.651
-194.758
-512.804
-18.2197
531.024
-801.988
913.793
-111.805
312.85
-244.9
-406.339
309.718
-29.8247
590.615
63.0701
382.33
-241.23
302.211
511.324
-11.9815
23.8786
341.774
-779.68
90.3284
689.352
456
95.3974
-128.773
-31.3841
160.158
-851.801
-23.0678
65.6259
333.564
-189.879
232.606
-42.7269
41.9777
-280.719
-290.15
280.153
9.99701
-17.3624
24.007
-513.564
489.557
-611.768
-134.404
-18.7688
299.183
-280.415
-337.103
461.617
599.383
447.616
-1102.78
430.491
672.293
328.664
0.239923
-328.904
-231.334
-169.487
400.822
-525.584
556.293
-661.313
-19.4869
680.8
100.558
80.1562
-180.714
-44.2565
799.248
839.49
-862.759
23.2689
807.389
-154.22
35.9514
-605.382
-321.926
-24.4122
556.776
57.7081
-614.484
436.735
23.1221
-348.479
390.586
-42.1076
-854.002
-3.70206
857.704
-27.8212
-823.98
280.828
-288.659
7.83067
625.222
-4.39225
574.319
-418.885
-155.434
-215.927
274.254
-58.327
-85.0545
-267.776
-419.416
-47.2116
896.411
-184.465
-825.927
89.2886
-629.175
17.4069
-537.91
47.9439
489.966
820.546
-39.6221
-780.923
-259.397
123.884
3.7173
-356.692
352.975
863.083
-189.111
305.658
-3.30007
637.175
-65.4691
494.327
-5.44623
801.327
-712.244
-1045.14
-57.6424
444.424
22.2082
537.67
31.9739
729.522
-694.563
796.56
-38.7037
-757.856
189.783
-228.777
272.539
-10.9517
-117.655
211.358
-174.271
474.882
15.2996
-490.181
576.062
-94.8273
-481.235
-458.137
421.313
36.824
128.82
672.507
12.3735
-102.027
-756.31
858.338
73.1307
-666.138
593.007
222.455
-300.943
78.488
-745.534
643.507
91.6836
713.019
-504.412
1048.7
232.368
-144.28
-284.619
-177.892
251.063
-73.1713
204.526
-267.917
63.3907
-178.339
317.315
11.6722
-344.505
-50.9848
4.71346
-409.53
404.816
-47.4916
-161.172
-194.336
-27.2157
364.951
-337.736
-870.859
944.459
-73.6004
45.4724
-527.931
482.458
31.1347
-248.833
-755.686
105.965
649.72
357.236
-225.499
819.408
1.13743
-36.4729
227.341
-190.868
443.334
130.984
-104.707
-335.274
816.271
-201.628
-95.2304
-914.148
614.046
-332.783
124.361
57.9587
651.584
-572.82
495.203
-12.5426
340.394
-34.6273
338.463
-420.775
82.3115
191.426
-237.013
45.5867
52.7295
244.794
-297.523
339.825
-507.058
-6.45758
761.955
-806.212
537.393
-62.5113
-107.711
739.403
-631.692
-268.28
301.374
-33.0941
-70.5344
292.99
198.317
-189.829
-278.812
10.5317
-1061.39
589.097
472.297
-35.8259
-79.2228
170.068
-307.719
293.412
14.3073
-675.985
692.546
267.132
-271.828
4.69615
-484.619
185.169
-504.523
-556.871
235.143
-278.209
847.158
-946.589
99.4306
-343.269
21.3434
488.91
-626.678
137.769
-2.81354
811.605
268.029
-288.415
20.386
-326.921
-546.515
-37.1013
292.224
-25.0918
367.533
-130.387
-237.146
-19.7701
-845.925
865.695
-878.107
488.999
389.108
-55.4363
735.852
-461.26
41.8448
-138.795
-125.925
264.72
874.397
-822.95
-51.4473
390.511
-324.885
797.833
5.10608
110.305
77.2373
-187.542
-580.551
1024.4
-443.846
141.583
-189.13
47.5478
-759.02
-144.965
903.985
144.435
223.098
853.5
-31.3794
813.468
-736.748
502.162
-422.844
-18.2444
-229.916
44.3539
148.888
-193.242
311.25
241.401
-21.7529
-1098.2
619.195
479.004
8.82168
891.722
-60.5381
-831.184
-430.49
622.037
-191.547
57.1248
756.344
27.5262
-540.33
-590.495
-18.1701
608.665
418.246
139.962
-558.208
-264.782
-522.296
278.28
62.1132
-174.36
-74.5726
-405.659
352.249
53.4107
-793.478
298.159
199.415
-260.2
60.7848
225.978
-266.052
40.0737
428.815
-424.102
731.289
52.216
-783.505
-202.815
48.7338
825.772
20.7561
-846.528
-373.704
22.4392
351.264
118.64
860.185
-407.826
454.447
410.843
-72.3803
-954.601
99.7474
854.854
789.132
102.59
-36.0543
227.481
50.0213
380.919
903.034
133.346
23.0341
-484.294
28.8338
-827.212
798.378
701.67
-771.132
69.461
636.363
465.971
769.004
-56.0305
-712.973
190.521
-48.9386
75.9998
339.158
-415.158
-735.267
792.392
263.445
167.82
-275.218
168.749
106.469
-111.251
-426.747
537.997
-31.169
-211.353
1004.42
-573.93
86.1337
-288.668
182.421
-218.894
-107.487
-151.644
30.8196
820.091
-168.947
508.772
-606.028
759.965
-153.937
686.701
-710.623
-399.378
381.159
-443.091
-179.526
39.2426
349.015
-15.6017
-333.413
-46.2941
808.249
-505.251
-623.37
1128.62
287.873
-244.83
213.261
1.61451
196.702
-250.452
123.69
-885.367
909.037
-23.6704
-284.998
259.844
25.1542
72.9043
711.344
3.36205
765.642
634.896
-15.2832
-14.9619
-510.914
472.437
38.4774
933.099
17.1499
-950.249
-323.636
-50.068
-0.1557
-234.457
801.102
-69.8137
529.007
-623.044
94.0366
-762.182
-84.599
12.0859
291.81
891.85
11.184
-490.174
440.378
49.7959
-950.463
-94.6794
39.6011
-377.843
338.242
-224.066
250.437
-26.3716
254.817
-50.2903
-39.389
1050.29
-313.211
-737.077
579.527
-50.5195
54.9162
-262.72
-70.9828
-689.588
778.26
-88.6721
-78.8278
-19.8427
245.821
504.534
-5.76865
92.7853
-870.614
-84.3521
208.476
-124.124
-207.966
217.522
-9.55598
-681.774
570.524
-456.047
480.054
344.637
45.8741
-459.538
424.317
35.2212
584.205
424.627
498.122
-459.738
-38.3849
494.301
-319.662
-174.639
-187.236
26.4341
349.141
-20.7614
-328.38
-253.745
75.8532
-326.628
290.102
-219.054
-636.707
-691.662
-81.4964
257.89
-58.4746
666.027
197.056
7.07289
222.352
817.231
-83.7447
-733.486
328.227
-141.945
646.828
-504.882
238.83
-297.139
-91.6711
509.917
-751.152
7.05896
-119.619
-105.708
500.009
-97.3088
786.73
-689.421
-197.317
231.761
-34.4439
-38.8227
-246.175
829.585
-737.902
217.764
-427.632
-409.348
836.98
865.901
-199.874
-42.6517
792.839
-750.187
597.282
-6.66711
17.5844
-608.079
282.526
145.315
-427.841
-403.747
479.746
-24.942
-314.352
339.294
-616.309
64.8953
551.414
-134.551
510.348
-375.797
-483.339
407.963
-482.245
74.2818
105.086
-170.77
65.6833
-180.82
338.809
-197.729
-180.581
734.398
-32.7275
102.222
581.097
-610.971
648.725
-37.754
269.761
-288.53
-811.018
-51.7409
96.827
-432.64
590.118
460.169
-615.745
172.654
419.723
-847.355
382.712
-681.851
28.6454
653.205
-187.056
234.873
-47.8169
-816.303
886.695
-70.3914
-47.6711
-432.056
479.727
1005.36
-405.642
-599.719
-67.8868
-788.465
-19.3413
300.17
-950.456
207.434
743.022
-857.686
-92.7701
-170.334
-5.8855
-777.772
731.478
-129.302
-303.945
433.247
-7.16353
-271.614
278.777
160.164
647.225
240.743
147.022
-387.765
-902.864
154.565
748.298
541.104
-580.859
39.7541
604.526
58.5822
-663.109
-45.3791
673.508
-639.911
-33.5964
352.291
-23.6275
-39.0649
244.942
-205.877
608.482
65.0258
13.0069
-793.301
721.532
-777.563
-175.554
219.907
333.56
160.741
132.359
-330.088
200.728
-203.581
2.85347
338.115
-197.912
-140.203
592.245
42.6509
-748.816
801.526
-52.7097
-405.675
-95.8688
501.543
-6.44409
-291.996
240.101
61.8173
-301.918
243.545
-95.5598
-147.986
418.164
-465.835
-61.7129
-740.275
-410.302
89.1969
144.548
502.308
-434.501
-67.8065
-234.764
252.462
-195.59
189.149
6.44135
18.5607
-220.191
201.63
-321.381
378.093
-56.7116
223.181
-21.8934
-201.288
450.466
554.894
-257.863
555.38
-473.671
141.717
-233.491
91.7741
-196.713
-22.4653
219.178
701.254
-96.7277
233.369
-164.59
-358.811
272.096
86.7152
-422.07
-19.7641
441.835
-351.817
448.643
306.926
-325.013
18.0868
-14.6876
28.2283
473.934
462.604
35.5181
38.0046
-460.075
219.461
-7.32044
-334.98
-8.28972
-367.596
298.431
69.1648
340.451
-62.1702
675.415
220.996
-229.244
247.804
-285.399
306.048
104.622
654.155
-758.777
-737.686
-25.0985
762.784
1.08815
161.812
16.7751
-338.156
-690.623
621.061
69.5622
120.762
-173.246
169.144
4.10169
436.448
-153.922
-255.232
-174.776
430.008
-162.467
-348.447
216.798
-16.0701
-254.893
116.098
98.0997
-182.452
-1009.53
696.317
-346.855
346.855
851.477
242.258
-35.1724
-509.085
-500.442
208.339
327.523
527.931
42.5259
544.424
-50.0976
273.678
-274.798
1.12066
-629.318
662.112
-32.7936
-50.3302
-531.882
-48.2847
-632.361
715.207
-82.8465
83.7382
-492.89
-352.705
539.398
5.02636
524.48
26.5285
-551.009
749.344
-646.898
6.98635
-113
-64.6538
177.653
-416.089
89.4605
308.889
-31.074
-277.815
-155.257
-47.3615
-299.524
287.597
11.9265
-289.639
73.7124
870.853
-195.438
-340.874
45.1098
769.177
-2.18407
-766.993
584.135
-658.872
74.7369
-922.864
830.383
92.4806
-22.6093
-638.704
110.407
295.66
-21.3968
-260.356
281.753
-786.962
28.1172
-201.559
-287.625
266.229
-465.979
511.451
-269.184
268.401
0.783865
-299.653
302.374
-2.72095
-813.382
705.671
995.973
-148.814
-173.369
295.764
-232.246
361.092
-170.728
423.647
-326.635
-97.012
285.343
55.1077
811.526
-87.8643
-723.662
184.627
-681.483
-759.474
675.854
83.62
6.13444
-617.031
624.915
-7.88394
59.2267
174.142
-102.469
521.72
-268.322
290.125
-21.8032
378.861
-457.966
79.1052
-608.542
649.082
-40.5398
586.1
43.7192
-629.819
256.3
-221.639
-34.661
557.229
-25.7998
-531.429
234.677
-123.09
-111.588
-127.814
-49.3747
177.189
958.583
-949.279
-9.30473
-575.49
-388.315
-45.7754
-758.726
804.501
-897.63
834.364
-591.518
373.569
217.949
605.041
-623.211
-13.3181
676.607
-663.289
22.2884
145.922
-168.211
-49.9859
-289.16
-855.986
-66.878
15.4718
365.101
334.043
-739.684
220.974
-1.51258
-224.837
224.837
409.963
-142.503
-267.46
-911.344
25.9774
-2.80029
-23.0534
-481.589
504.642
-753.797
-80.5179
486.659
-406.141
-252.379
-408.637
431.28
-9.96661
-48.699
257.928
153.502
184.613
-548.927
398.168
-159.612
400.355
338.017
-52.6742
763.498
-710.742
-283.551
-5.56222
270.694
-946.901
-3.56142
5.61615
927.483
532.424
-448.686
-844.574
577.805
266.769
12.077
258.673
-270.75
350.835
-10.6291
-340.206
-461.257
30.7675
-835.64
749.364
86.2764
-131.957
-191.679
188.318
39.4917
-227.81
212.831
125.186
-800.987
17.8828
-591.147
325.68
265.467
61.3392
248.515
360.162
-324.143
-36.0191
-376.19
402.249
-26.0593
847.405
-513.363
-454.877
312.931
-318.486
189.257
129.229
423.371
-720.8
568.32
-27.216
811.239
-807.877
79.8841
154.793
-830.394
814.233
16.1606
-795.167
46.3501
-472.163
-527.85
1042.66
-186.279
931.087
-835.188
-95.8989
-521.122
-463.311
984.433
-47.9846
-253.677
55.4284
224.086
-228.114
4.02801
-21.6754
-56.0591
733.354
471.015
-37.428
-433.587
-370.183
-199.119
30.2281
-90.6469
-251.06
-147.727
429.761
-282.034
-925.615
925.615
92.4215
-808.217
490.001
-510.467
69.0657
441.401
-210.857
-194.129
169.493
-169.789
-379.138
-559.61
389.821
599.064
54.4116
189.134
418.514
-930.198
511.684
-25.0143
302.161
-225.315
-261.033
-212.69
430.003
-96.4435
-179.033
-139.453
-65.4734
-835.387
452.383
-517.947
65.5643
18.0252
-697.344
781.029
-83.6849
415.766
-419.625
3.85942
244.475
-566.731
529.752
36.9795
106.215
115.975
-222.19
198.245
-237.31
378.944
-708.781
329.837
110.535
758.329
170.296
239.666
-68.5259
-492.963
469.91
291.667
-305.649
13.9818
416.249
-37.3879
353.913
-381.128
-20.8251
-367.544
388.369
-17.3868
-296.612
303.174
30.4311
-333.605
-431.761
284.034
-386.752
37.5686
631.173
-749.521
-409.517
531.517
-312.267
-91.8268
976.639
-866.104
-492.78
-312.281
805.062
295.076
34.9717
291.129
-326.101
-459.592
150.438
-282.395
-51.6073
450.509
-563.677
113.168
47.4155
613.6
-184.206
71.2063
350.08
-288.741
708.74
-329.796
273.913
-174.24
23.5551
364.561
-388.116
-27.333
-292.187
-10.0764
-251.352
249.037
2.31526
2.48699
562.078
-534.552
52.5732
-891.585
113.274
800.836
-3.00294
328.29
-115.459
525.493
328.7
-854.193
598.388
239.941
671.532
-768.841
-754.403
108.249
646.154
302.501
41.1369
-343.638
182.013
-174.403
-7.61015
35.8936
274.677
572.945
-196.108
33.4706
162.637
-156.644
-607.077
763.721
-338.88
366.437
-27.5572
-251.093
292.805
-41.7112
-147.41
-174.101
-255.463
207.358
48.1044
920.099
-920.099
-87.1259
727.007
-639.881
294.374
-206.614
344.003
-68.1809
-658.165
187.953
26.4523
-214.405
39.6522
-581.833
542.181
32.6197
-228.77
196.15
908.496
-914.143
5.64705
301.32
-674.643
373.323
337.664
-298.063
50.7924
309.37
-350.74
876.233
556.872
-106.363
-72.0984
-240.294
-400.38
318.765
81.615
224.707
-345.796
330.48
-500.658
170.178
-234.753
47.6978
-873.303
-73.5987
35.5776
-732.922
314.079
-178.806
796.375
-773.259
-23.1159
434.365
54.8205
-489.186
-685.475
610.612
74.863
-275.583
226.202
49.3812
319.221
-27.5542
-426.047
-254.807
881.836
-837.485
-44.3502
-357.483
658.802
126.201
-531.876
-865.043
11.0411
-54.5965
-605.119
659.716
35.354
-137.514
-137.704
-917.085
416.549
500.535
185.801
3.34796
448.976
-33.2108
543.449
256.979
-275.808
18.8293
-333.441
-5.74781
339.189
-546.11
445.404
-6.11964
-195.799
201.918
228.356
-40.4036
-92.3844
369.219
-276.834
-353.411
4.93256
433.977
-9.66047
57.8425
-808.759
750.917
-664.257
664.257
49.7023
189.128
-91.8207
-507.747
599.568
-854.494
938.118
-83.6246
741.143
55.2318
-14.114
-834.574
848.688
323.167
-340.268
17.1012
324.354
12.9124
-337.267
584.868
-636.779
51.9112
24.7813
320.54
-345.321
-201.325
-127.496
328.82
190.584
-8.57079
108.013
-711.311
603.298
-760.035
267.255
347.3
-312.328
793.728
59.7721
-77.2725
-433.194
340.453
-391.334
-682.105
103.067
579.038
330.967
-270.316
-60.6511
-530.627
616.485
-85.8579
-81.6482
-362.717
444.365
406.112
-382.233
-587.69
-329.395
598.564
-726.211
127.646
-410.279
-434.294
837.866
-39.7004
-645.775
120.181
457.223
-577.404
563.547
-644.703
81.1559
28.7442
-262.151
11.1118
-692.962
-318.141
321.858
-9.1707
570.441
-692.688
122.246
-344.477
-430.592
3.67344
-685.696
697.925
-12.229
763.058
-164.67
645.286
-102.67
-542.616
215.456
286.852
285.384
-295.781
10.3971
807.725
-935.862
128.136
-653.309
-101.094
-289.112
20.7896
-325.193
84.7329
240.46
-55.7296
640.598
92.134
-277.866
185.732
356.871
-335.03
-21.8408
-339.617
-251.53
-24.3193
207.946
-37.4909
-168.497
234.334
143.515
-377.849
-270.582
318.551
-47.9691
591.74
-683.561
21.648
287.241
-262.916
-62.2762
-286.903
-304.615
-711.306
540.742
170.564
-113.061
-147.098
-155.382
65.8176
-577.37
536.237
41.1332
576.952
-1098.07
-24.0639
-1013.97
-140.865
377.336
52.6666
-21.9362
-51.3657
-760.399
128.707
855.363
-849.259
617.355
-76.6127
1.85878
589.224
-591.083
-288.569
-162.334
450.903
-54.3686
-221.214
12.4445
189.775
-214.395
24.6193
-992.647
228.392
449.391
-118.911
19.6051
-627.9
608.295
300.482
-365.306
30.5364
334.769
63.3656
574.097
-637.463
-101.896
772.943
-671.047
-669.588
-195.325
-732.971
39.9992
692.972
-28.3122
567.198
-538.886
926.729
-918.043
-8.68622
567.261
-621.857
-611.183
-23.5072
634.69
-394.44
123.858
255.773
-279.53
23.7569
801.615
-772.781
-95.7886
730.756
-634.968
457.762
14.6751
-433.465
-669.683
604.132
65.5505
399.876
-92.097
-563.959
-48.6951
-10.4857
-399.044
-35.3423
244.856
-209.514
19.3787
327.921
-359.34
363.452
-4.11181
748.228
-794.004
125.924
134.919
210.424
-221.663
11.2394
684.164
-775.237
91.073
-319.218
-680.799
-8.78914
795.79
75.0627
290.646
120.198
812.884
-17.0945
-8.27016
-1029.35
173.571
3.93278
22.7649
-568.886
159.551
-137.263
-1083.23
-239.297
233.178
75.6139
218.76
-107.441
-467.096
574.537
-2.39611
-477.414
479.81
838.912
-31.1867
570.008
75.2785
-36.4542
-200.51
236.964
747.121
-789.772
-157.032
391.366
-412.103
447.491
-35.3884
-679.346
723.037
-43.6915
309.052
-362.564
17.181
393.91
-145.646
-248.265
175.001
-511.2
465.849
45.3509
3.60725
-460.876
465.187
-4.31099
613.605
-596.02
41.7734
-166.845
601.211
-291.43
57.4151
440.596
40.5865
608.112
-648.698
-68.4127
-157.361
220.269
5.93256
32.1107
-387.981
22.6749
-416.574
4.47121
249.086
-250.906
1.82001
711.212
-682.567
-483.695
82.9824
400.712
-42.1916
626.327
-15.937
-204.254
914.258
-141.744
-772.514
518.881
537.49
-1056.37
-304.233
-12.6859
289.168
4.24381
10.297
271.53
-694.676
-3.78824
698.464
592.273
-748.917
-224.274
191.813
32.4607
-528.68
-20.7539
-645.384
3.5488
138.168
-136.682
-428.09
-122.472
214.606
18.6817
-640.101
621.419
-38.2198
-497.916
536.136
-270.418
295.199
-69.2317
626.008
-731.267
754.993
-23.7256
217.661
-482.443
239.805
-253.038
13.2324
-16.425
-839.676
26.2946
248.446
-449.771
912.211
-922.891
10.6792
637.611
12.7955
-650.406
-50.6423
-541.977
-807.256
840.453
116.781
-206.459
897.669
-78.261
236.408
-12.3221
-60.4515
-716.018
776.47
-88.9993
-596.696
-25.3731
549.853
-677.813
24.504
206.256
-244.764
38.5083
-232.555
0.249488
232.305
-557.552
533.545
24.0071
-215.327
87.5136
49.1311
97.7536
-146.885
-880.257
314.5
18.1976
-332.697
54.9158
637.906
-692.822
-340.586
373.928
-33.3422
-653.09
-24.723
-663.567
768.189
-896.908
127.735
769.173
-143.179
-168.245
-444.017
63.2474
-456.769
-615.575
246.115
24.0188
-286.204
288.529
-2.32488
177.209
-70.9941
-421.387
393.063
28.3249
-954.901
972.051
-333.154
128.563
204.592
137.939
21.6122
525.42
861.371
-881.141
277.563
-45.1767
371.99
-506.541
-789.801
811.624
-21.8225
-354.294
-187.04
541.334
128.993
-166.409
37.4163
425.859
-528.328
751.367
-687.147
-64.2203
-266.534
-37.6988
319.934
-79.8335
312.555
-290.907
328.971
-652.026
-17.6574
5.62184
633.28
-373.129
147.63
20.6386
-891.497
550.001
-388.518
608.14
368.499
423.06
8.22022
744.68
-805.131
-39.2707
-15.0874
827.285
70.384
421.034
-499.714
78.6802
212.128
-195.272
-16.8566
-212.657
239.584
-26.9265
-4.27588
341.099
-336.823
-618.23
658.817
440.66
257.698
-216.076
-41.6221
361.978
512.419
312.389
-333.15
711.391
100.135
81.5454
-605.073
523.528
639.617
-35.4845
10.9684
-930.699
114.141
816.558
217.952
-257.042
-248.305
-793.248
732.274
60.9736
5.15139
814.801
-819.953
929.388
-929.388
-377.011
17.6707
602.82
36.7973
-109.084
-36.8214
-198.156
234.977
437.402
27.6517
-465.054
-433.291
19.3221
413.969
191.967
972.172
-453.29
-219.975
34.9764
184.998
-627.539
630.685
-3.14638
426.325
-469.026
42.7014
-430.642
-2.6491
42.945
-764.076
721.131
-636.354
-64.1417
-548.584
518.401
30.1834
-368.673
283.618
35.0019
-253.105
218.103
-166.778
-166.376
-27.8001
242.762
-22.4932
46.3027
289.813
-274.883
-71.2729
791.602
365.05
-50.5498
-769.827
32.1411
-890.02
814.441
75.5791
137.061
277.706
378.455
160.674
-757.489
859.105
331.021
194.347
-525.368
-160.748
594.435
-644.005
49.5707
482.777
61.2456
-544.023
645.332
-346.474
-298.858
-480.071
-123.592
-783.327
681.431
25.8261
-688.781
662.955
-711.247
108.491
602.756
-762.241
-6.39759
37.7801
508.473
-87.4392
-527.148
358.201
558.021
-586.333
-35.3467
-64.1735
221.526
-157.353
52.7293
-685.09
-232.753
-224.813
160.639
-26.3892
299.634
-125.227
-174.407
177.162
-8.10664
-631.77
722.098
-39.361
221.027
-181.666
869.862
-630.178
13.1472
160.034
190.046
0.995117
397.392
-398.387
-225.027
-203.378
428.405
180.923
763.537
378.918
-355.363
-843.354
7.71385
626.391
-609.858
-0.674072
-816.334
817.008
589.525
16.0039
-605.529
847.244
46.7514
-893.995
307.411
-5.03631
121.034
-409.603
425.448
8.52942
-254.65
334.321
-79.6705
189.069
381.025
-90.3796
610.768
-54.3186
-556.449
-758.427
785.407
-26.9796
15.1741
651.639
-666.814
-647.026
116.399
-5.23873
-442.134
610.422
34.2215
322.649
-29.057
183.522
-82.9644
-334.919
1.47765
95.9445
742.968
2.55651
-276.121
273.564
-421.778
-508.42
-57.4297
-757.769
815.199
247.842
-54.7609
198.981
-277.431
78.4492
198.667
-95.2777
-217.764
-516.875
-581.325
-792.175
-18.8427
-163.67
-815.75
776.44
39.3098
-34.2935
469.386
-435.092
59.7803
821.334
-881.114
193.93
-144.799
776.025
25.5009
-241.534
204.713
19.5235
-304.344
284.82
575.705
-573.846
-643.056
130.617
512.439
-560.577
586.303
-25.7254
28.257
257.127
-665.269
-441.898
608.532
45.7845
-654.317
-721.941
606.747
-679.202
72.4543
-154.302
-41.8057
449.871
-484.213
-847.029
852.181
107.474
-308.016
-588.892
-642.301
593.222
49.0786
175.351
-70.2643
-43.0752
465.035
180.297
-575.939
62.3748
514.368
-526.737
12.3691
73.3481
-717.644
644.296
265.331
-16.2445
-308.378
164.815
143.564
-565.149
591.678
-119.16
471.14
-351.98
681.39
-86.9559
-0.463458
-316.164
316.627
-447.069
-442.735
889.804
-165.391
268.142
-102.752
-103.259
-578.846
-570.409
425.044
145.365