/*--------------------------------*- C++ -*----------------------------------*\
  =========                 |
  \\      /  F ield         | OpenFOAM: The Open Source CFD Toolbox
   \\    /   O peration     | Website:  https://openfoam.org
    \\  /    A nd           | Version:  7
     \\/     M anipulation  |
\*---------------------------------------------------------------------------*/
FoamFile
{
    version     2.0;
    format      ascii;
    class       surfaceScalarField;
    location    "14";
    object      phi;
}
// * * * * * * * * * * * * * * * * * * * * * * * * * * * * * * * * * * * * * //

dimensions      [0 3 -1 0 0 0 0];

internalField   nonuniform List<scalar> 
43924
(
-594.895
665.317
-70.4227
1062.77
-1072.22
9.44593
-335.235
382.778
-47.5428
229.234
-259.565
30.3308
-498.67
498.67
223.394
-265.401
42.0068
-365.03
363.705
1.32459
24.3555
-561.165
536.809
663.339
-833.351
170.011
-1009.26
1102.23
-92.9753
552.464
-141.774
-410.689
-530.709
536.829
-6.12006
-687.907
582.702
105.205
-859.821
868.884
-9.06264
263.72
57.1112
-320.832
386.184
-10.5574
-375.626
814.657
-666.844
-147.812
-401.4
398.125
3.27413
161.394
314.774
-476.168
291.061
-357.802
66.7414
-594.112
81.6493
512.462
724.309
-60.9695
50.2251
-385.461
136.603
-489.648
353.045
237.134
-129.14
-107.995
1067.32
-4.54439
659.904
-681.058
21.1537
-277.486
-4.46326
281.949
299.401
-35.6805
-441.146
543.843
-102.697
950.711
-249.293
-701.418
-669.318
757.227
-87.9096
240.639
-225.705
-14.9342
477.696
-68.1025
-409.593
134.254
-411.74
269.041
-431.268
162.227
430.926
-581.401
150.474
291.922
-36.6301
-255.292
823.955
-978.237
154.281
1061.13
-237.172
-1018.05
1035.62
-17.5675
404.418
-94.5374
-309.881
704.007
110.65
192.684
-307.564
114.879
1228.46
-777.697
-450.766
-591.294
150.147
539.5
-538.69
-0.809712
230.512
645.509
-876.022
223.978
537.293
-761.271
-110.733
541.659
-367.032
165.679
201.353
-16.2472
-224.529
240.776
-663.191
-6.12657
240.606
-17.2122
424.532
-38.3488
-269.907
-57.2861
327.193
525.071
-500.033
-25.0381
-34.2406
-559.871
-462.464
40.3847
422.079
-299.211
-24.2956
323.507
799.52
17.5775
-817.097
-409.167
570.562
-17.364
-234.359
251.723
-213.907
482.948
-319.358
435.063
-115.706
262.151
241.658
-503.809
497.176
-127.784
-369.393
428.313
-46.6148
-381.698
-450.799
-30.1663
480.965
-986.596
-31.4561
1059.95
7.36701
296.37
286.608
-582.977
-241.789
546.202
-304.413
169.037
84.447
-253.484
-432.529
382.188
50.3411
-368.867
373.986
-5.11908
290.754
-160.19
-130.564
-251.372
-62.1535
313.526
-699.309
16.5466
682.762
408.112
-94.8696
-313.242
-256.297
256.297
88.6237
-763.349
674.725
-661.534
66.6399
-947.224
848.218
99.0053
-311.495
-53.5341
-42.3512
210.668
-168.317
522.383
-140.392
-381.99
-644.592
-43.315
652.532
-69.8299
103.2
80.0256
-183.225
-353.606
87.1987
266.407
-311.346
59.9734
845.453
-621.475
561.932
-590.234
28.3021
229.663
-98.0387
-131.624
-358.435
130.793
227.643
-17.4767
249.097
-231.62
-846.678
847.343
-0.664961
-27.3999
-163.12
190.519
266.841
7.78682
-274.628
-711.459
12.1501
-267.914
284.49
-16.5764
778.75
20.7704
426.137
-628.509
202.372
202.515
-218.762
-754.478
814.64
-60.1623
641.87
-717.979
76.1088
74.7065
577.825
943.852
-846.972
-96.8809
-220.472
237.214
-16.7422
200.665
39.9734
351.649
117.429
-469.077
1009.09
-256.883
-752.205
19.2084
563.334
-582.542
-13.1947
-587.147
600.341
539.002
-242.632
102.872
427.638
-530.51
-303.428
408.604
-105.176
76.7575
-814.829
738.071
-697.726
455.938
-22.814
-187.823
210.637
18.7101
-854.689
835.979
-300.712
315.749
-15.0376
-37.8676
300.019
24.1412
-890.642
866.501
-352.286
333.096
19.1907
-87.6781
-313.721
7.39664
-282.244
274.848
703.044
-786.274
83.2299
726.205
-860.269
134.064
-144.512
337.196
178.246
112.509
195.387
-206.003
10.616
278.495
-302.632
24.137
-126.727
552.865
623.637
327.074
150.716
72.9517
-223.667
278.143
-317.829
39.6854
197.919
-227.605
29.6853
-28.2947
295.136
-340.017
-12.269
1.36156
-189.647
188.286
226.519
-64.6226
-161.896
181.122
827.966
-198.076
-739.277
937.353
-101.187
-397.483
522.714
16.7865
224.098
-225.956
1.85799
251.355
-201.753
-49.6021
12.1855
-224.595
212.41
-394.684
630.021
-235.337
53.8033
505.575
-559.379
984.052
-886.351
-97.7004
790.951
-787.098
-3.85317
-571.117
-239.605
810.722
-146.184
722.14
-575.956
456.51
-443.961
-12.549
-216.723
-1.23998
217.963
33.3536
-763.095
729.741
-166.624
-200.409
-249.581
235.461
14.1203
241.381
-12.1466
29.4943
1020.89
-572.446
-448.443
735.196
-933.272
-400.567
97.1388
17.4331
209.086
16.4346
-778.205
761.771
-90.3981
-856.825
418.237
-452.741
34.5038
-106.605
832.81
54.9942
-736.17
681.176
-210.475
-6.24731
278.143
-1.48329
242.828
-241.344
-433.06
433.06
83.1182
679.063
-762.181
-316.288
48.3739
-579.076
598.284
320.824
-290.82
-30.004
-777.836
-63.273
841.109
-141.939
444.521
-302.581
433.56
88.8226
428.325
-443.561
15.2361
238.256
-40.3369
-212.394
-324.069
536.463
501.891
-381.675
-120.217
-328.746
16.6982
312.048
784.954
-81.9094
-521.323
-78.5539
599.877
-661.12
661.12
-124.75
500.981
-376.231
94.7467
-345.39
250.643
-919.814
348.697
307.239
-359.388
52.1488
436.936
19.5741
810.999
-494.314
-316.685
913.966
-63.3104
-850.656
79.1497
150.513
-847.07
614.063
233.007
-20.7106
258.922
-238.211
-213.701
221.022
-7.32158
-41.4345
-489.275
874.756
-890.065
15.3093
-59.7597
430.049
-11.8121
787.733
-790.596
2.8626
245.168
-21.0697
15.3355
-235.807
822.137
-963.828
141.691
245.03
-342.845
97.8151
570.773
-570.773
899.945
-93.2494
-806.696
594.328
73.0652
-667.393
53.3242
-325.728
272.404
-201.709
271.3
-69.5914
-469.932
327.993
54.1739
733.559
-393.164
529.767
259.868
-180.718
-683.934
-176.335
484.329
-630.514
453.749
-501.376
47.6272
-894.635
1028.38
-133.749
-580.981
555.825
25.1561
505.573
-582.539
76.9656
128.628
730.255
-858.883
211.351
530.655
-742.005
723.335
505.128
321.874
739.254
327.236
-232.575
-94.6612
-296.811
296.811
371.375
-402.436
31.0605
-28.3902
1088.34
270.606
-324.546
53.9407
529.766
-475.962
-297.429
-562.392
551.816
-566.013
14.1964
-29.5135
904.27
252.46
-273.171
-206.664
191.054
15.6106
499.108
-587.909
88.8005
-197.756
959.008
-761.252
588.859
-83.2856
771.388
-384.152
-387.237
339.735
-48.6744
472.009
548.88
-200.052
157.701
-743.855
59.9211
-930.696
36.061
477.859
47.212
-679.808
891.159
-690.681
-63.7962
191.138
-200.846
9.70807
-74.0148
915.165
-841.15
-38.0472
-817.796
855.843
186.072
-184.71
33.1235
167.91
-201.033
-9.79973
-366.031
375.831
319.38
-311.983
-602.838
208.154
-237.985
442.064
-204.079
908.541
-678.028
303.608
23.6277
272.941
15.517
-288.458
-567.051
163.382
403.668
461.202
-32.8767
518.43
-730.824
-358.643
-10.2246
647.232
-746.151
98.9187
-227.299
155.547
71.7517
-656.319
639.002
17.3177
211.904
-213.387
76.2692
183.599
-742.569
825.687
-322.388
315.547
6.84165
68.086
-363.891
295.805
234.616
-208.03
-26.5859
526.839
-328.837
-198.002
7.15701
-347.085
339.928
-497.546
484.351
-73.0833
281.8
-208.717
-660.021
156.299
503.722
-347.756
-10.6795
653.867
6.03658
446.098
-21.5655
-163.558
11.9745
151.583
-21.5518
721.819
-700.267
-850.572
979.2
321.755
-148.621
-173.134
677.344
-775.143
97.7988
423.166
348.223
706.475
59.4936
-765.968
818.093
81.8519
546.343
-524.055
-22.2882
1093.71
-1012.3
-81.4041
5.77073
-297.639
291.868
282.648
-9.70708
96.2614
140.873
211.249
-15.8625
194.238
-201.955
7.71681
146.399
147.579
-293.978
-306.062
285.565
20.4967
-159.266
-296.539
455.806
421.055
-545.804
-321.589
195.466
-196.367
0.900489
195.575
1009.68
-565.774
-443.907
526.017
-109.168
-416.849
131.277
510.593
76.8479
469.495
20.1129
-689.694
711.394
-21.7009
47.8513
-548.503
500.651
-83.9179
-248.389
332.307
-449.415
39.3578
410.058
-140.63
-336.149
476.78
780.015
-1.26572
22.5204
183.6
-369.275
185.674
161.512
-234.595
-920.641
848.973
71.6682
-298.326
306.128
-7.80199
667.186
-82.5147
-584.671
1047.03
-603.81
-443.216
193.682
-194.963
1.28093
261.737
-111.165
-150.572
-422.281
418.503
3.77745
663.736
-32.0681
-631.668
-692.785
3.09156
372.056
36.0555
-564.047
443.974
120.073
582.431
-578.422
-4.00909
-855.762
44.3884
811.374
856.367
33.1991
-889.566
-424.847
284.217
-202.761
39.2032
-321.786
526.342
-204.556
-171.674
-34.9903
754.996
-793.044
-146.502
179.625
534.272
-173.31
-360.962
-123.66
-309.4
223.35
-224.784
1.43458
619.522
44.2147
683.514
-608.807
19.2883
-301.929
282.64
837.271
-876.3
39.0285
-303.606
12.7851
953.814
-957.14
3.32664
48.9293
211.83
-260.759
680.276
-33.0438
567.411
-592.927
25.5162
-829.715
848.425
181
-203.814
786.295
212.194
746.814
153.641
194.166
-347.806
-300.282
-8.86228
820.859
-66.1647
-754.694
595.959
-130.319
-465.639
238.561
-72.8818
86.2201
410.956
69.5126
-271.221
473.899
-503.971
30.0718
143.069
-349.505
206.436
137.787
389.052
51.9888
861.978
653.004
-773.316
120.312
-22.9179
976.732
-248.557
-28.0761
276.634
-220.018
207.96
12.0579
-3.32418
172.361
48.7558
453.136
335.305
-345.105
-356.039
36.6809
-336.357
37.1457
838.358
-58.3427
69.3348
-239.494
170.16
-953.491
22.7953
-916.815
-36.6762
-486.087
55.5055
430.582
-730.394
898.882
-168.488
-200.729
-60.4051
261.134
-111.683
-77.3514
189.035
-155.576
-45.1572
200.733
-133.01
229.323
-96.3132
853.454
406.284
-222.684
139.672
-12.8838
-568.097
-878.964
-41.677
446.032
149.926
189.356
-511.142
200.731
-1106.98
906.249
30.7703
200.454
-231.225
-14.3391
-199.362
419.111
26.9868
89.1903
701.761
282.925
10.3995
-293.324
-473.415
576.287
728.716
72.9106
-801.627
-777.721
-8.55349
800.053
-854.762
54.7082
292.131
-255.511
-36.6198
81.4265
240.329
850.717
-864.984
14.2663
978.833
-862.152
-116.681
939.022
-943.603
4.58125
-391.794
-172.254
-6.40377
-872.904
548.459
324.444
-187.31
162.54
24.7698
-243.368
389.768
141.36
92.1328
-233.493
757.548
254.716
-272.08
431.756
94.2613
782.166
-695.112
-87.0539
-52.7939
-104.436
-91.5506
195.986
-309.938
260.63
49.3085
862.392
-838.251
-22.0306
380.292
-358.262
-331.735
-8.28189
569.77
-583.962
14.1922
369.575
-327.414
-42.1617
-828.456
731.19
97.2663
-905.757
831.742
142.214
119.523
-406.94
277.408
129.532
468.895
-454.29
-14.6055
621.498
-622.673
1.17476
518.181
-44.2826
-314.149
-137.842
451.991
19.2308
-267.788
-75.1826
-245.413
320.596
544.284
563.926
-1108.21
-900.868
849.211
51.6577
-3.81068
-405.453
419.532
-14.0784
432.452
-400.041
-32.4104
671.257
-843.653
172.396
710.923
-880.931
170.008
-503.839
-156.182
-435.715
75.6974
360.017
306.502
-6.71635
-299.786
-326.83
171.254
474.236
78.2277
-719.675
-108.781
4.18561
190.053
-304.433
300.401
4.03217
52.2998
-346.594
294.294
490.906
39.0245
-529.931
-229.264
301.105
-71.8414
-896.199
-19.6395
915.839
-197.648
-36.8905
234.539
6.7648
-844.277
837.513
804.707
-118.46
-686.247
336.404
140.067
-215.249
-874.882
-21.317
808.465
40.5079
-8.27329
538.483
-186.835
-505.414
-14.3127
519.727
-801.995
913.797
-111.802
314.241
-246.155
-393.91
309.992
-30.3044
590.759
63.108
384.597
-241.527
302.645
508.354
-15.2481
27.4431
342.132
-775.786
83.9772
691.808
457.034
94.7823
-130.607
-29.7821
160.389
-851.811
-23.0711
72.7565
331.662
-201.057
227.772
-26.7145
51.2667
-280.53
-254.459
272.145
-17.6864
-19.2054
30.6872
-513.574
482.887
-610.892
-135.259
-24.3884
303.828
-279.44
-330.12
447.548
599.39
447.636
-1102.77
430.483
672.286
329.786
0.37621
-330.162
-236.062
-165.167
401.23
-524.869
549.224
-661.185
-18.0044
679.189
99.11
91.3471
-190.457
-44.2463
799.243
838.687
-862.464
23.7762
807.533
-154.529
40.3833
-601.548
-326.949
-20.1358
556.824
57.8395
-614.664
441.012
20.1898
-349.796
393.92
-44.1244
-853.467
-3.81492
857.282
-27.8169
-823.994
295.646
-271.364
-24.282
625.207
-3.70818
565.738
-405.11
-160.628
-219.475
275.845
-56.3701
-91.3449
-264.694
-421.603
-40.8606
893.885
-182.962
-819.309
88.9154
-629.364
18.4721
-540.639
51.6273
489.012
820.554
-39.6319
-780.922
-259.073
126.063
-1.20486
-356.052
357.257
857.475
-186.218
308.621
-2.11887
636.586
-69.1745
494.175
-3.26824
801.415
-712.225
-1045.13
-57.6406
445.193
23.7023
526.156
35.7761
731.211
-697.857
795.855
-38.4148
-757.44
196.467
-223.867
276.611
-15.981
-118.288
206.419
-194.233
474.989
15.6832
-490.672
576.672
-99.3995
-477.273
-459.97
422.217
37.7524
128.92
672.495
0.503342
-92.5781
-764.072
856.65
83.1801
-669.244
586.064
228.698
-305.449
76.7516
-739.705
647.127
91.7887
712.918
-504.404
1048.69
234.705
-165.371
-270.088
-176.468
251.772
-75.3041
212.524
-261.793
49.2692
-180.786
322.146
-8.70857
-323.027
-51.2154
5.80718
-411.404
405.597
-47.574
-162.324
-195.478
-31.2506
369.026
-337.776
-870.848
944.468
-73.6198
45.5124
-528.206
482.694
28.7604
-248.778
-755.912
106.281
649.631
357.372
-223.118
819.404
1.15029
-2.9602
214.354
-211.394
430.761
134.977
-116.289
-319.425
815.796
-201.733
-95.1975
-914.058
615.094
-328.486
129.162
44.1107
654.619
-565.995
495.762
-18.0668
343.312
-36.073
339.305
-421.768
82.4629
200.194
-243.993
43.7987
45.9027
251.833
-297.735
336.102
-495.369
-2.94887
761.958
-806.204
537.843
-62.8542
-104.914
736.495
-631.581
-269.898
305.215
-35.3167
-68.0087
296.707
207.922
-190.489
-282.915
13.0168
-1057.42
586.123
471.3
-35.8993
-75.9687
179.168
-310.495
295.816
14.6791
-676.045
692.48
269.002
-273.943
4.9411
-472.847
176.308
-501.799
-555.625
242.338
-278.968
847.17
-946.602
99.4316
-344.179
17.2297
484.877
-627.203
142.326
-2.27269
810.738
230.224
-255.996
25.7719
-317.606
-555.297
-37.6124
294.365
-25.3628
339.805
-115.647
-224.158
-20.2645
-838.307
858.571
-875.503
485.041
390.462
-56.4463
735.509
-456.63
35.0271
-147.634
-122.962
270.597
875.536
-817.317
-58.219
394.614
-321.857
796.492
3.56127
104.749
88.6365
-193.385
-580.557
1024.4
-443.841
147.371
-196.396
49.0249
-758.953
-144.998
903.951
130.797
209.008
853.519
-31.3823
813.473
-736.715
504.251
-418.031
8.92714
-243.286
42.8141
151.325
-194.139
307.459
231.025
-25.5991
-1098.2
619.199
479
7.76858
891.682
-60.547
-831.135
-430.652
623.285
-192.634
57.1601
756.313
23.7197
-529.134
-590.542
-18.3627
608.905
409.013
148.249
-557.261
-264.701
-522.397
279.238
64.0741
-179.815
-76.482
-406.683
353.04
53.6432
-790.712
296.398
201.753
-263.093
61.3401
223.209
-248.575
25.3662
430.681
-424.874
724.425
51.6255
-776.05
-203.852
40.7324
818.712
20.8241
-839.536
-351.647
13.7463
337.901
118.64
860.193
-410.768
451.153
411.758
-72.4533
-954.434
99.6816
854.753
789.088
102.594
-34.5266
234.721
50.7944
381.657
894.954
133.43
29.2607
-485.891
28.6437
-826.725
798.082
695.781
-763.181
67.4007
636.286
465.946
769.017
-56.0324
-712.984
197.456
-50.0852
76.5565
339.561
-416.118
-735.234
792.394
260.244
174.819
-276.423
168.025
108.398
-111.157
-426.879
538.036
-32.4526
-217.129
1004.41
-573.924
88.4567
-289.186
204.757
-207.717
-101.992
-157.572
30.5632
820.154
-161.337
497.439
-598.294
752.006
-153.712
680.943
-702.494
-390.173
375.86
-442.481
-180.192
39.6304
348.845
-10.8628
-337.983
-46.2855
808.244
-505.243
-623.364
1128.61
288.24
-234.234
216.757
10.2182
197.704
-251.282
122.142
-885.269
908.925
-23.6564
-267.726
255.473
12.2525
74.6415
707.525
3.36385
765.653
636.15
-16.6284
-15.1383
-513.112
470.652
42.4594
933.069
17.1548
-950.223
-310.568
-41.0799
-0.597408
-235.043
793.424
-68.9989
529.024
-623.171
94.1463
-761.869
-84.809
33.6902
258.441
884.75
10.2036
-491.085
441.094
49.9913
-950.449
-94.6794
48.5761
-384.297
335.721
-193.578
213.368
-19.7901
245.669
-33.1449
-39.8891
1050.31
-313.228
-737.079
579.634
-50.61
44.6787
-265.583
-60.1446
-691.315
771.696
-80.3812
-81.8001
-4.54873
227.758
504.9
-5.79187
92.7931
-870.629
-94.8623
215.058
-120.196
-191.922
217.112
-25.1905
-681.805
570.648
-448.505
479.192
342.156
52.4581
-461.078
425.09
35.9878
576.795
432.886
498.611
-460.057
-38.5544
474.704
-308.478
-166.226
-196.772
36.582
351.178
-21.7524
-329.426
-254.39
77.9218
-327.941
290.074
-219.03
-636.732
-691.509
-81.807
260.614
-58.8611
660.078
197.396
6.94829
228.513
815.866
-85.4042
-730.462
329.148
-142.184
647.121
-504.937
237.593
-297.999
-101.31
510.323
-750.691
8.12243
-121.552
-105.747
500.004
-93.9772
780.873
-686.896
-201.176
218.246
-17.0706
-25.4153
-242.31
829.588
-737.8
223.845
-427.932
-405.106
833.038
860.478
-200.4
-43.7513
785.365
-741.614
597.438
-6.67867
17.8059
-608.348
281.588
134.34
-415.928
-404.3
480.857
-21.1509
-319.091
340.242
-617.385
66.3002
551.085
-144.865
511.221
-366.356
-478.871
410.337
-483.596
73.259
105.575
-180.937
75.3615
-184.491
338.131
-174.498
-184.145
726.621
-30.8403
102.321
581.193
-611.076
648.958
-37.8818
269.23
-293.618
-810.178
-52.2856
97.2208
-433.37
590.12
460.187
-615.814
173.333
415.959
-843.891
379.031
-681.908
28.6563
653.252
-199.074
244.538
-45.4639
-816.291
886.706
-70.4149
-48.6517
-432.283
480.934
1005.36
-405.605
-599.756
-69.3611
-785.4
10.1476
285.499
-950.469
207.418
743.051
-857.722
-92.7468
-174.187
-13.1235
-777.765
731.479
-130.35
-294.405
424.755
-18.7303
-265.097
283.827
160.444
647.089
230.361
155.118
-385.479
-902.871
154.581
748.289
541.219
-581
39.7806
604.548
58.6034
-663.152
-43.9527
674.019
-639.857
-34.1618
353.553
-23.7676
-18.1127
219.8
-201.688
608.335
65.6837
14.4264
-792.147
721.544
-777.577
-178.328
221.142
322.719
151.985
138.649
-313.147
204.849
-209.201
4.35196
343.148
-200.197
-142.951
592.074
44.0758
-747.004
800.796
-53.7925
-397.737
-105.114
502.851
-15.7057
-288.727
250.83
53.0028
-303.833
252.3
-101.613
-150.687
418.417
-467.069
-61.7172
-740.278
-411.214
88.1143
146.502
502.033
-441.038
-60.9949
-227.927
258.697
-205.557
197.325
8.23201
16.0305
-221.035
205.004
-323.089
379.914
-56.8255
210.325
-6.06285
-204.262
450.436
554.925
-264.143
555.603
-473.954
141.229
-235.034
93.805
-204.175
-8.35497
212.53
701.295
-96.7465
246.954
-170.685
-357.852
278.726
79.1261
-429.187
-12.8168
442.004
-352.155
449.376
313.964
-323.497
9.53304
-17.9255
34.6901
469.561
462.879
35.7315
30.637
-459.824
181.938
9.1153
-340.026
-4.15306
-371.388
297.273
74.1157
342.96
-63.7224
672.625
221.26
-232.785
248.816
-290.506
307.205
95.6637
659.052
-754.716
-736.054
-26.0884
762.143
28.1894
159.724
16.7803
-339.869
-690.725
621.133
69.5914
127.915
-172.2
170.711
1.48913
425.24
-143.651
-239.016
-173.031
412.048
-166.85
-346.262
222.388
-17.5384
-259.373
111.739
90.9276
-185.79
-1009.55
696.319
-348.339
348.339
851.457
242.249
-35.308
-509.105
-500.442
210.891
325.938
528.206
42.5671
546.295
-52.1201
263.265
-240.463
-22.8022
-629.448
662.387
-32.939
-50.2646
-532.875
-46.2009
-638.589
712.406
-73.817
84.4988
-493.666
-353.298
539.487
6.80752
527.781
16.9317
-544.713
746.505
-647.537
7.67978
-115.274
-63.8593
179.133
-415.726
87.7842
313.736
-34.2896
-279.446
-156.32
-46.4404
-303.243
290.176
13.0673
-291.131
71.6558
868.549
-195.925
-333.229
50.9852
767.496
-1.02042
-766.475
584.201
-659.092
74.891
-922.85
830.37
92.4799
-24.0303
-637.154
109.983
298.621
-24.1459
-261.782
285.928
-782.165
18.8168
-204.678
-292.186
268.04
-466.209
511.721
-235.697
260.065
-24.3682
-305.179
299.543
5.63524
-809.372
704.458
995.986
-148.815
-165.389
297.78
-248.851
362.482
-168.316
410.159
-307.493
-102.666
288.543
54.4175
812.036
-93.6946
-718.342
184.101
-681.647
-751.663
667.815
83.848
5.37793
-617.509
623.869
-6.35947
66.3472
180.607
-96.3865
517.441
-271.543
290.817
-19.2736
379.303
-458.477
79.1744
-608.691
649.293
-40.6012
585.446
44.6635
-630.109
241.499
-223.199
-18.2993
555.997
-23.4552
-532.542
236.225
-125.115
-111.111
-129.373
-49.5412
178.914
953.732
-944.787
-8.94584
-575.501
-388.327
-46.6666
-755.376
802.043
-897.646
834.373
-579.518
357.243
222.275
605.114
-623.476
-15.9787
671.841
-655.862
20.1634
147.221
-167.385
-70.1325
-276.462
-855.972
-66.8786
15.4583
366.73
334.096
-739.701
197.75
-15.812
-230.793
230.793
410.675
-145.649
-265.026
-911.22
25.9513
-3.40784
-28.6858
-475.212
503.898
-753.704
-80.7178
487.272
-406.554
-252.414
-408.705
432.922
-10.7043
-59.4874
259.942
156.471
186.676
-540.204
398.43
-170.662
401.023
340.305
-51.7621
762.314
-707.32
-284.736
-8.65273
271.121
-946.888
-3.56075
5.60828
927.46
533.264
-448.765
-833.884
572.506
261.378
-1.31965
261.988
-260.669
350.207
-5.53541
-344.672
-462.373
31.7212
-834.658
748.384
86.2739
-131.982
-178.586
195.768
37.8458
-233.614
213.135
127.17
-800.994
17.7923
-591.127
323.669
267.459
39.5831
238.912
363.073
-325.861
-37.2123
-380.556
390.654
-10.0982
847.421
-513.325
-455.077
312.893
-324.643
192.791
131.852
423.387
-720.816
568.45
-27.2306
811.252
-807.888
79.1845
157.041
-828.107
810.259
17.848
-794.384
47.3799
-472.162
-527.844
1042.65
-186.28
931.102
-835.174
-95.9277
-521.12
-463.316
984.436
-48.8994
-257.162
57.1228
226.952
-235.275
8.32288
-22.3301
-56.0752
733.42
467.77
-31.9262
-435.844
-370.683
-196.368
15.5424
-93.743
-249.102
-152.859
415.96
-263.101
-926.153
926.153
93.1296
-805.044
488.359
-511.066
69.249
441.817
-212.081
-194.858
167.268
-161.505
-378.7
-550.872
389.368
601.61
59.202
193.098
422.351
-929.28
506.929
-22.0092
304.934
-222.109
-263.978
-217.786
412.663
-89.9441
-182.604
-142.04
-65.496
-835.372
452.564
-518.184
65.6205
16.8044
-691.5
772.68
-81.1808
415.808
-421.537
5.72975
247.912
-568.521
529.743
38.7776
108.04
114.626
-222.666
197.609
-215.721
378.934
-708.792
329.859
110.544
758.339
171.925
238.75
-68.7279
-492.523
463.837
293.332
-308.057
14.7251
416.675
-37.3723
354.14
-385.391
-23.3533
-367.689
391.042
-36.1996
-266.433
315.773
10.8748
-326.648
-418.726
265.867
-389.384
41.6126
631.076
-749.536
-410.284
532.729
-313.822
-91.6309
976.657
-866.113
-492.716
-312.317
805.033
295.084
40.5849
290.191
-330.776
-453.152
137.781
-269.763
-51.9051
451.397
-564.045
112.648
47.4312
613.688
-185.215
69.9419
320.155
-280.572
708.752
-329.819
268.322
-181.123
24.2476
364.984
-389.231
-29.0334
-298.395
-3.5334
-258.602
252.401
6.20113
0.324801
551.06
-527.34
36.038
-891.589
113.384
798.143
-1.65049
330.402
-117.267
525.487
328.71
-854.197
598.405
239.953
669.169
-763.147
-743.686
103.481
640.206
272.517
60.7245
-333.242
189.162
-182.147
-7.01527
23.597
274.448
572.895
-195.511
32.1889
163.322
-156.977
-606.847
763.824
-341.185
359.398
-18.2124
-249.676
294.695
-45.0183
-148.952
-175.594
-256.089
214.234
41.8544
920.089
-920.089
-87.4403
727.071
-639.631
294.893
-213.467
345.548
-68.1403
-657.635
191.206
28.4069
-219.613
49.2801
-586.999
537.719
31.0568
-232.993
201.936
908.164
-913.895
5.7318
300.844
-674.445
373.6
343.517
-294.941
52.2227
310.851
-350.751
876.238
557.172
-105.775
-73.2006
-244.628
-400.633
324.999
75.6347
218.334
-346.117
334.386
-500.131
165.745
-242.551
43.4772
-873.29
-73.5989
33.1519
-724.652
315.569
-184.777
796.385
-773.231
-23.1541
431.126
47.976
-479.102
-685.644
610.701
74.9432
-241.623
208.671
32.9519
321.555
-28.2231
-426.159
-254.898
875.248
-831.922
-43.3259
-357.796
658.64
133.906
-531.643
-864.559
11.0927
-57.2149
-598.11
655.325
40.8846
-136.55
-139.872
-917.558
411.39
506.168
194.775
2.55088
450.634
-34.8266
543.444
268.13
-258.296
-9.83352
-335.213
-6.19634
341.409
-547.417
436.684
-8.3509
-196.743
205.094
233.246
-42.0399
-90.1738
350.372
-260.198
-356.727
6.93123
435.361
-10.2711
63.278
-808.976
745.698
-664.313
664.313
47.7729
189.82
-87.3153
-505.178
592.493
-854.466
938.098
-83.6321
741.113
55.2719
-14.1535
-834.508
848.662
324.824
-342.314
17.4903
325.597
15.0998
-340.697
584.003
-636.976
52.9732
45.8484
304.171
-350.019
-213.527
-114.282
327.81
198.471
-9.30873
105.718
-710.178
604.461
-760
267.284
352.349
-311.764
793.743
59.7765
-77.4386
-433.627
343.461
-390.076
-680.818
100.798
580.02
309.994
-274.819
-35.1748
-531.742
613.998
-82.2561
-82.0686
-363.047
445.116
410.006
-382.563
-596.884
-320.674
598.454
-724.698
126.244
-406.555
-427.329
837.852
-39.7654
-645.879
129
452.385
-581.384
563.573
-644.839
81.2657
32.0766
-233.83
11.1081
-693.016
-322.666
321.461
8.74386
570.603
-692.739
122.136
-344.52
-430.624
-4.77798
-684.393
698.249
-13.8562
763.082
-164.677
645.728
-103.031
-542.697
209.485
292.548
291.963
-298.432
6.46914
807.725
-935.89
128.166
-647.544
-96.1428
-288.502
16.9586
-328.078
87.5097
240.568
-56.7518
640.754
80.4387
-247.176
166.737
358.278
-336.159
-22.1189
-335.491
-255.636
-11.8991
203.037
-24.5949
-176.251
230.838
133.683
-364.522
-272.32
320.193
-47.8727
587.471
-674.786
24.7166
289.019
-262.686
-65.3916
-288.152
-291.367
-711.349
540.679
170.67
-111.045
-154.356
-164.992
66.9531
-578.851
536.486
42.3654
576.957
-1098.08
-25.3104
-1015.39
-140.746
365.207
47.4559
-23.0264
-51.4069
-757.804
126.223
849.822
-843.058
617.412
-76.7328
1.86118
589.252
-591.114
-280.199
-166.844
447.043
-37.4988
-204.124
5.21276
200.749
-211.378
10.6286
-994.982
231.888
448.366
-113.981
19.7108
-628.018
608.307
298.259
-365.042
25.3861
339.656
59.0276
573.419
-632.447
-103.854
770.728
-666.874
-669.397
-195.586
-724.344
38.6593
685.685
-36.6463
566.999
-530.353
921.704
-913.412
-8.29244
560.53
-617.745
-611.19
-23.7272
634.917
-396.663
124.343
267.576
-263.062
-4.51385
801.162
-772.519
-96.1652
730.932
-634.767
460.476
10.1765
-434.224
-669.966
604.144
65.8216
398.967
-92.2684
-564.051
-48.2252
-11.5583
-399.846
-20.3481
207.101
-186.753
24.8853
327.463
-361.055
364.85
-3.79476
744.933
-791.599
127.606
133.529
215.413
-227.492
12.0784
684.144
-775.311
91.1666
-320.003
-674.068
-17.2468
794.573
73.9757
291.216
120.542
810.701
-16.1273
-31.0883
-1030.3
175.612
3.94499
18.3365
-566.839
159.378
-139.215
-1081.68
-243.174
234.823
69.6012
225.292
-107.798
-467.142
574.94
-2.52314
-477.553
480.076
838.935
-31.2109
570.111
75.6174
-34.4676
-205.487
239.954
739.091
-782.842
-147.489
378.327
-401.218
443.578
-42.3601
-679.243
723.266
-44.0232
279.55
-362.877
17.4875
395.291
-149.718
-245.573
174.386
-511.785
466.253
45.5314
5.12721
-462.089
460.15
1.93892
613.852
-596.046
30.8707
-158.932
590.058
-296.071
57.5261
441.144
41.7704
607.085
-648.856
-84.5518
-141.153
189.264
19.4067
30.9705
-393.084
28.0413
-412.676
11.4575
251.912
-254.065
2.15299
711.271
-682.615
-485.691
84.572
401.119
-42.3213
626.523
-13.8304
-207.205
914.266
-141.787
-772.479
518.881
537.484
-1056.37
-287.153
-20.4112
291.656
4.15934
10.263
275.302
-689.18
-1.90422
691.085
592.063
-749.04
-209.969
195.974
13.9954
-520.522
-29.9681
-639.276
1.80703
139.422
-137.671
-428.342
-108.965
189.404
15.2391
-632.171
616.932
-39.0634
-497.73
536.793
-252.734
298.582
-69.344
626.168
-726.847
753.173
-26.3255
217.741
-482.443
238.633
-257.924
19.2911
7.75354
-837.83
28.4585
236.513
-450.04
907.195
-916.795
9.59985
636.419
14.1953
-650.614
-54.9781
-537.949
-807.247
840.446
115.667
-207.218
897.676
-78.2719
243.146
-16.1941
-60.3567
-715.972
776.328
-87.2212
-597.171
-15.8092
543.591
-667.924
20.3799
210.268
-231.821
21.5537
-238.612
3.08378
235.528
-559.14
533.527
25.6131
-217.156
87.7834
64.4535
85.7353
-150.189
-880.247
314.745
20.8499
-335.595
54.9897
637.877
-692.867
-342.41
365.221
-22.8115
-647.075
-20.8485
-668.428
764.092
-896.523
127.448
769.075
-147.108
-169.18
-445.967
64.2921
-457.115
-615.102
259.399
-4.68318
-291.816
291.924
-0.1081
177.452
-69.4118
-423.383
394.118
29.2648
-954.869
972.024
-280.533
99.6757
180.857
139.517
19.8607
521.694
853.84
-874.105
277.113
-36.7846
362.035
-506.9
-789.182
811.186
-22.0038
-346.423
-182.029
528.452
133.937
-176.785
42.8476
426.955
-523.342
742.814
-679.984
-62.8301
-260.226
-26.9262
325.805
-74.9747
317.232
-292.515
332.989
-652.05
-17.9163
5.48713
633.515
-373.459
150.341
20.6588
-891.507
547.362
-391.063
608.147
368.511
423.918
9.00318
744.623
-804.979
-40.4978
-20.7403
827.282
70.3936
421.174
-499.907
78.7326
230.316
-188.407
-41.9085
-186.137
203.674
-17.5369
-13.1255
344.163
-331.038
-617.154
658.924
434.226
248.701
-221.055
-27.646
367.731
507.805
313.338
-335.091
705.45
106.587
75.9803
-599.478
523.498
639.876
-35.7317
36.4483
-930.315
113.85
816.465
218.805
-255.695
-253.055
-793.316
732.259
61.0576
5.29323
814.095
-819.388
927.482
-927.482
-378.596
17.5417
602.828
37.0477
-109.172
-19.3049
-193.021
212.326
437.668
27.9027
-465.571
-436.11
22.1759
413.934
186.41
972.165
-453.284
-232.375
41.167
191.208
-627.049
630.866
-3.81708
423.568
-470.532
46.9647
-430.905
-5.20458
49.0133
-763.912
714.898
-636.942
-60.784
-549.845
518.543
31.302
-371.355
280.01
20.1289
-235.707
215.578
-151.859
-128.673
-29.3971
222.003
-32.7384
50.8756
290.129
-279.729
-71.8391
791.612
367.753
-53.0077
-769.096
33.0417
-890.028
814.42
75.6082
119.649
278.476
382.011
156.991
-753.465
858.577
331.472
185.501
-516.973
-166.028
594.46
-644.056
49.5955
477.635
54.6982
-532.333
634.074
-340.439
-293.635
-474.67
-115.564
-780.762
676.908
28.4858
-684.359
655.874
-711.355
108.52
602.835
-765.329
19.6025
27.2304
508.653
-87.4785
-515.557
354.22
549.542
-586.188
-35.4397
-68.2508
233.743
-165.492
42.0114
-680.6
-235.553
-237.479
169.228
-31.0544
263.9
-109.267
-154.633
154.934
-8.84814
-637.097
721.074
-25.6252
192.377
-166.752
869.869
-628.996
11.4863
135.354
184.8
1.01092
397.638
-398.649
-223.509
-194.114
417.623
180.941
763.528
379.941
-355.693
-842.169
7.51057
626.417
-609.87
-0.370616
-808.808
809.179
589.56
16.1098
-605.67
843.024
45.4944
-888.518
312.264
-12.7208
126.32
-406.52
426.179
9.18214
-255.555
335.383
-79.8281
196.427
381.831
-90.6143
611.475
-55.7266
-555.748
-755.322
780.377
-25.0548
12.9413
644.631
-657.572
-645.318
113.576
-7.32556
-442.536
602.71
34.5965
323.681
-31.1301
191.478
-92.3675
-337.222
2.0094
95.9706
742.965
4.12556
-278.462
274.337
-424.083
-505.198
-57.4533
-757.746
815.199
257.545
-45.715
192.717
-260.488
67.7713
199.073
-95.3668
-223.845
-516.878
-581.321
-791.909
-18.2692
-169.996
-815.761
776.449
39.3122
-34.5565
469.918
-435.362
59.7826
821.341
-881.124
200.277
-135.824
774.276
26.5208
-218.821
199.516
20.7139
-307.926
287.212
575.735
-573.874
-646.907
138.387
508.52
-554.541
588.986
-34.445
32.9674
258.996
-665.181
-441.799
608.547
45.8285
-654.375
-721.93
606.765
-679.22
72.4555
-155.269
-40.2419
450.137
-484.378
-846.292
851.585
105.156
-307.693
-588.829
-642.474
593.304
49.1699
184.081
-78.5055
-43.9179
457.535
176.539
-568.826
55.2515
514.215
-527.414
13.1998
73.0869
-717.678
644.591
268.483
-16.5703
-315.076
167.026
148.05
-568.189
585.12
-131.012
466.402
-335.39
681.438
-86.9784
1.5329
-318.797
317.264
-446.826
-442.778
889.604
-145.966
243.532
-97.5666
-101.074