/*--------------------------------*- C++ -*----------------------------------*\
  =========                 |
  \\      /  F ield         | OpenFOAM: The Open Source CFD Toolbox
   \\    /   O peration     | Website:  https://openfoam.org
    \\  /    A nd           | Version:  7
     \\/     M anipulation  |
\*---------------------------------------------------------------------------*/
FoamFile
{
    version     2.0;
    format      ascii;
    class       surfaceScalarField;
    location    "7";
    object      phi;
}
// * * * * * * * * * * * * * * * * * * * * * * * * * * * * * * * * * * * * * //

dimensions      [0 3 -1 0 0 0 0];

internalField   nonuniform List<scalar> 
43924
(
-594.925
664.303
-69.3781
1061.63
-1071.73
10.1048
-335.418
383.128
-47.7101
230.705
-260.01
29.3052
-498.791
498.791
224.864
-266.337
41.4727
-360.93
362.615
-1.68472
22.7886
-559.516
536.727
663.105
-833.227
170.122
-1009.23
1102.21
-92.9793
550.684
-139.663
-411.021
-530.177
537.115
-6.93805
-687.948
582.723
105.225
-859.823
868.887
-9.06308
261.593
53.1013
-314.695
386.47
-10.6439
-375.826
814.71
-666.834
-147.876
-395.826
392.9
2.92627
161.547
314.766
-476.313
291.36
-358.204
66.8437
-594.151
81.6382
512.512
724.207
-61.1018
50.4082
-385.826
136.644
-489.758
353.113
240.989
-135.233
-105.756
1066.47
-4.84274
659.934
-681.094
21.1597
-274.727
-9.62223
284.349
294.355
-32.7617
-440.64
543.854
-103.214
949.572
-249.81
-699.762
-666.473
754.468
-87.9945
239.46
-227.024
-12.4359
476.968
-66.7534
-410.214
139.395
-414.121
270.548
-431.428
160.88
425.405
-577.133
151.729
292.2
-35.7596
-256.441
823.584
-977.697
154.113
1060.59
-237.007
-1017.99
1035.58
-17.587
405.516
-95.911
-309.605
703.996
110.714
194.788
-307.068
112.28
1228.46
-777.694
-450.765
-591.346
150.705
540.157
-538.715
-1.44138
230.519
645.499
-876.018
223.563
537.32
-760.883
-112.488
537.893
-362.072
161.304
200.768
-17.5189
-224.38
241.898
-660.798
-5.67503
241.262
-16.3975
424.762
-38.2926
-263.132
-59.0485
322.181
525.321
-500.166
-25.1542
-34.2219
-559.929
-461.844
39.2211
422.622
-300.358
-21.9856
322.344
799.526
17.5773
-817.104
-409.171
570.718
-17.1627
-228.545
245.708
-212.327
482.875
-312.97
431.912
-118.942
263.001
245.781
-508.783
497.743
-129.076
-368.667
428.153
-45.8808
-382.273
-453.214
-32.0995
485.314
-986.55
-31.4405
1058.55
7.91681
290.797
292.852
-583.649
-240.991
545.799
-304.808
166.719
89.2175
-255.937
-432.892
382.479
50.413
-363.318
370.281
-6.96261
283.674
-153.856
-129.818
-251.626
-62.8037
314.43
-699.314
16.5498
682.764
408.917
-96.5975
-312.32
-257.398
257.398
92.9031
-764.098
671.194
-660.646
65.7205
-947.226
848.215
99.0107
-310.473
-50.4569
-37.6707
204.128
-166.457
522.027
-145.078
-376.949
-644.621
-43.3278
652.567
-69.8436
104.736
79.7272
-184.463
-352.852
85.2852
267.567
-312.263
60.6363
845.089
-621.526
558.036
-586.824
28.7882
231.424
-99.0907
-132.333
-353.78
125.334
228.446
-15.1435
247.765
-232.621
-846.659
847.292
-0.632138
-25.8979
-164.659
190.557
260.672
10.7142
-271.386
-711.462
12.1481
-268.841
285.094
-16.2538
778.754
20.772
425.206
-625.604
200.398
202.386
-219.905
-752.336
811.264
-58.9283
637.264
-719.09
81.8252
74.722
577.845
943.857
-846.97
-96.8866
-222.955
236.698
-13.7424
201.985
37.4746
351.836
114.786
-466.623
1009.09
-256.883
-752.205
19.5757
563.149
-582.724
-13.378
-587.032
600.41
538.83
-248.033
97.5803
428.481
-526.061
-303.566
409.065
-105.499
76.7645
-814.831
738.066
-697.214
456.223
-20.4267
-184.018
204.444
17.1141
-853.459
836.345
-296.867
309.595
-12.728
-40.4216
303.423
24.1751
-890.565
866.39
-345.63
328.209
17.4202
-86.3887
-309.438
4.93196
-280.081
275.149
702.565
-786.081
83.5159
726.235
-860.264
134.029
-141.547
336.335
171.756
111.918
192.614
-206.442
13.8278
275.106
-296.416
21.3097
-124.988
550.194
622.282
327.29
153.279
67.1131
-220.392
278.883
-318.703
39.8205
199.184
-224.569
25.3843
-30.6622
291.334
-335.005
-10.6251
1.26728
-190.705
189.438
228.044
-65.8873
-162.156
181.122
827.966
-198.077
-739.277
937.354
-101.207
-397.585
522.683
17.4731
222.561
-226.813
4.25155
247.154
-201.993
-45.1614
10.1773
-217.556
207.378
-394.399
628.08
-233.681
55.2531
503.975
-559.228
984.034
-886.284
-97.7501
790.971
-787.102
-3.869
-571.423
-239.691
811.114
-146.32
722.162
-575.842
457.209
-444.148
-13.0616
-210.529
-6.39454
216.923
39.2404
-766.216
726.976
-162.117
-199.956
-250.64
236.38
14.2599
241.535
-10.8299
31.2229
1020.89
-572.445
-448.45
735.196
-933.273
-401.131
97.5646
18.5438
209.5
16.4095
-778.184
761.774
-90.4051
-856.82
418.686
-453.033
34.3474
-106.566
832.801
55.4728
-736.066
680.593
-208.427
-2.10129
278.883
-5.15924
243.734
-238.575
-433.275
433.275
83.299
678.8
-762.099
-317.095
48.2544
-578.886
598.462
314.656
-286.807
-27.8483
-777.837
-63.2738
841.111
-139.539
443.027
-303.489
429.379
92.6484
428.026
-443.965
15.9381
234.69
-35.5059
-216.464
-319.338
535.802
502.26
-381.844
-120.415
-328.978
16.0987
312.879
784.708
-82.1426
-521.775
-77.9774
599.753
-661.138
661.138
-123.302
500.168
-376.867
94.4051
-348.598
254.193
-920.171
348.748
307.513
-359.963
52.4501
437.043
20.1666
813.155
-499.454
-313.701
910.806
-59.5909
-851.215
80.0663
151.358
-846.98
613.954
233.026
-17.4961
255.537
-238.041
-215.491
220.971
-5.47975
-40.5637
-489.614
874.602
-890.003
15.4013
-55.1482
430.253
-11.5675
787.443
-789.83
2.38709
245.653
-23.0917
12.7455
-235.701
822.139
-963.832
141.692
241.131
-344.071
102.94
570.831
-570.831
899.947
-93.2543
-806.693
594.368
73.058
-667.426
51.4935
-324.937
273.444
-197.891
265.127
-67.2357
-468.414
328.876
54.5501
732.893
-393.238
529.882
261.85
-181.783
-683.894
-176.37
484.208
-630.528
453.845
-501.495
47.6504
-892.312
1025.57
-133.261
-581.319
555.908
25.4118
505.353
-582.7
77.3463
128.365
728.218
-856.583
211.381
530.623
-742.004
723.332
505.127
321.754
738.837
328.413
-232.892
-95.5209
-297.523
297.523
371.537
-402.632
31.0952
-28.6378
1087.19
270.997
-325.063
54.0664
529.577
-474.324
-297.43
-562.394
551.898
-566.245
14.3472
-29.6097
904.211
252.176
-269.672
-203.089
191.024
12.0659
499.171
-587.991
88.8205
-197.796
958.985
-761.19
588.926
-83.5723
771.226
-384.491
-386.735
340.104
-48.7439
472.015
548.879
-194.319
156.648
-743.857
59.9634
-928.164
35.8523
477.978
47.3429
-679.776
891.157
-687.815
-64.5209
192.634
-200.776
8.14171
-74.0178
915.146
-841.128
-38.0455
-817.797
855.842
187.128
-185.86
28.7864
169.584
-198.371
-10.2406
-366.079
376.32
317.878
-312.946
-600.827
206.428
-231.401
438.992
-207.591
908.536
-678.017
303.681
24.732
268.741
13.3636
-282.104
-567.351
159.398
407.953
461.495
-33.4686
513.759
-730.223
-354.851
-8.46655
647.417
-746.15
98.7326
-232.963
157.897
75.0659
-656.368
639.02
17.3482
208.71
-213.869
77.197
184.653
-742.269
825.568
-315.826
309.458
6.36791
68.1115
-364.197
296.086
232.764
-209.852
-22.9121
527.019
-328.942
-198.077
6.53581
-347.305
340.77
-497.683
484.305
-67.7576
276.012
-208.254
-659.514
155.351
504.163
-347.55
-6.22992
653.9
6.03437
446.418
-21.6552
-160.788
8.2296
152.559
-21.4171
719.516
-698.099
-848.242
976.607
322.321
-148.027
-174.294
677.353
-775.156
97.8032
422.698
348.529
706.539
59.4312
-765.97
818.091
81.8562
542.905
-521.07
-21.8353
1093.7
-1012.3
-81.4036
6.36532
-298.563
292.197
276.179
-7.43844
99.8564
141.132
211.961
-19.3475
193.949
-203.101
9.15176
147.689
146.961
-294.65
-306.785
286.185
20.5995
-156.875
-297.078
453.953
421.593
-544.894
-322.442
195.242
-197.784
2.54293
197.977
1009.66
-569.561
-440.095
526.085
-109.189
-416.896
125.705
511.559
76.0997
466.806
17.7889
-687.905
710.624
-22.7188
48.8957
-549.093
500.197
-80.9599
-249.357
330.317
-449.719
39.4721
410.246
-140.707
-336.211
476.917
780.02
-1.26609
22.0788
183.904
-366.303
182.399
162.182
-229.94
-920.581
848.793
71.7877
-299.409
306.344
-6.93473
665.476
-81.2082
-584.268
1047.03
-603.811
-443.218
193.424
-196.272
2.84802
266.018
-109.849
-156.169
-422.667
418.669
3.9979
664.04
-32.3432
-631.696
-692.081
4.17602
371.023
37.8944
-559.722
439.47
120.252
581.937
-578.531
-3.40581
-855.762
44.3848
811.377
856.365
33.1997
-889.565
-424.976
284.269
-202.821
42.0325
-321.615
523.585
-201.97
-172.489
-30.6002
754.997
-793.042
-149.155
177.941
529.628
-171.739
-357.889
-123.713
-309.562
224.725
-226.344
1.61854
619.519
44.5204
683.549
-608.827
18.3483
-302.082
283.734
837.119
-876.239
39.1197
-297.77
10.9626
952.81
-956.217
3.40655
45.1445
209.017
-254.161
680.298
-32.8806
566.635
-593.117
26.4812
-830.429
847.543
177.48
-197.907
786.239
212.228
746.758
148.243
198.379
-346.621
-301.358
-9.4086
817.862
-61.9276
-755.935
596.638
-128.758
-467.879
235.784
-74.4799
87.5555
410.188
67.2415
-265.133
473.932
-504.011
30.0789
143.414
-349.881
206.467
137.846
389.173
48.1285
862.678
652.974
-773.347
120.373
-23.0966
975.907
-248.127
-23.6679
271.795
-222
207.003
14.9972
-7.84566
174.565
48.9193
453.34
335.431
-345.672
-353.973
41.0038
-335.352
34.9937
838.362
-58.342
64.8039
-232.469
167.665
-951.101
22.9365
-914.376
-36.725
-486.12
54.8241
431.296
-728.866
897.237
-168.371
-197.106
-64.9362
262.042
-107.027
-79.8836
186.911
-159.383
-41.4839
200.867
-128.116
228.841
-100.725
853.452
402.762
-218.858
140.127
-13.0962
-568.223
-878.783
-41.7977
448.574
148.064
187.084
-508.699
200.717
-1106.95
906.229
32.7491
199.571
-232.32
-16.5139
-198.977
419.329
27.0886
89.2103
701.761
284.25
5.18503
-289.435
-473.811
571.391
728.686
72.9474
-801.634
-777.206
-8.87552
799.465
-854.452
54.9865
284.677
-251.961
-32.716
80.6466
241.674
850.679
-864.996
14.3167
978.835
-862.154
-116.681
938.96
-943.557
4.59633
-387.2
-172.522
-7.20876
-873.147
545.657
327.491
-188.901
162.984
25.9172
-243
390.689
141.745
92.3367
-234.081
758.272
248.788
-265.95
431.803
94.2819
781.786
-694.296
-87.4898
-52.8838
-101.179
-95.0184
196.198
-310.938
260.648
50.29
862.318
-838.143
-22.2232
380.659
-358.436
-325.745
-9.25951
569.295
-584.181
14.886
370.285
-327.48
-42.8057
-828.429
731.179
97.2495
-905.738
831.721
142.012
124.006
-407.288
277.689
129.599
469.316
-454.476
-14.8395
621.63
-622.689
1.05845
518.22
-44.2881
-307.471
-141.69
449.161
15.0723
-263.199
-76.8915
-244.889
321.781
544.283
563.925
-1108.21
-900.87
849.209
51.6612
-4.59457
-405.701
419.866
-14.1651
432.727
-400.197
-32.5302
670.766
-842.43
171.664
710.732
-880.413
169.681
-504.326
-155.188
-429.419
73.7653
355.654
307.193
-6.86425
-300.328
-327.52
168.137
473.949
76.7348
-719.664
-108.765
2.78852
191.16
-305.64
300.236
5.40363
51.081
-340.019
288.938
491.296
38.7574
-530.053
-228.122
301.345
-73.2233
-896.201
-19.6399
915.841
-202.97
-32.8225
235.793
6.94148
-843.059
836.118
804.708
-118.48
-686.227
340.186
139.313
-216.204
-874.884
-21.3166
808.403
40.3906
-9.67674
536.079
-184.242
-502.315
-15.2237
517.539
-801.996
913.797
-111.802
314.491
-246.379
-392.101
311.141
-30.3895
590.785
63.1153
385.004
-241.59
306.262
506.894
-15.8112
28.0362
342.249
-776.395
85.4165
690.978
457.228
94.67
-134.157
-25.945
160.102
-851.813
-23.0716
73.9714
331.545
-203.318
227.823
-24.505
52.8409
-280.963
-250.6
265.758
-15.158
-19.5511
32.2171
-513.985
481.768
-610.726
-135.424
-25.2552
304.673
-279.418
-330.032
444.818
599.391
447.639
-1102.77
430.481
672.285
329.988
0.399707
-330.388
-241.966
-160.173
402.139
-525.113
547.902
-661.176
-17.706
678.882
99.1246
92.7123
-191.837
-44.245
799.242
838.527
-862.403
23.8754
807.562
-154.588
41.5616
-601.077
-327.826
-19.4798
556.833
57.8637
-614.697
441.814
19.6816
-350.054
394.51
-44.4553
-853.367
-3.83725
857.204
-27.8166
-823.996
288.089
-265.593
-22.4955
625.209
-3.57881
560.788
-401.863
-158.925
-222.206
274.82
-52.6145
-95.0167
-258.957
-422.191
-39.6525
893.38
-182.648
-817.745
88.8786
-629.403
18.677
-541.206
52.3191
488.886
820.556
-39.6336
-780.923
-257.187
129.071
-1.99808
-356.046
358.044
856.259
-185.493
309.132
-1.93921
636.576
-69.9409
494.162
-2.86614
801.431
-712.221
-1045.13
-57.6399
445.346
23.97
523.181
34.8548
733.639
-694.398
795.717
-38.3526
-757.364
197.769
-223.667
277.345
-16.6971
-118.401
200.377
-190.2
475.009
15.7544
-490.763
576.926
-100.35
-476.576
-460.304
422.387
37.9175
128.938
672.493
-1.03045
-94.9807
-763.52
858.501
87.1098
-668.836
581.726
229.696
-306.225
76.5299
-740.483
645.502
91.8087
712.899
-504.402
1048.69
228.006
-163.202
-264.745
-174.765
254.859
-80.0945
214.791
-261.967
47.176
-181.191
322.935
-7.60258
-318.142
-51.2629
5.99873
-411.747
405.748
-47.5898
-162.523
-195.681
-31.9117
369.765
-337.853
-870.847
944.47
-73.6231
45.52
-528.256
482.736
24.5034
-246.504
-755.956
106.341
649.615
359.429
-220.035
819.403
1.15301
-3.2417
208.884
-205.642
427.442
133.346
-114.048
-315.371
815.709
-201.755
-95.191
-914.043
616.963
-324.111
127.765
42.335
654.684
-561.781
496.045
-19.0768
343.822
-36.3092
339.458
-421.949
82.4907
200.106
-239.432
39.3264
44.9665
253.007
-297.974
336.407
-493.281
-2.33412
761.958
-806.203
537.927
-62.9181
-104.313
735.928
-631.615
-270.206
305.867
-35.6609
-67.6659
297.361
209.387
-190.843
-283.602
13.3964
-1055.61
584.849
470.764
-35.9129
-75.737
180.473
-310.97
296.23
14.7398
-676.057
692.467
269.327
-274.309
4.98117
-470.86
173.782
-500.644
-554.97
243.518
-279.277
847.172
-946.604
99.4319
-344.433
16.6077
484.179
-627.449
143.269
-2.16813
810.571
229.327
-250.936
21.6091
-317.59
-555.557
-37.7114
294.737
-25.4091
336.829
-116.834
-219.995
-20.3025
-835.855
856.158
-875.127
487.873
387.254
-56.648
735.448
-455.943
33.7516
-150.139
-117.771
267.91
875.074
-814.087
-60.987
395.519
-321.548
796.234
3.23097
104.276
90.1368
-194.413
-580.557
1024.4
-443.84
148.191
-197.436
49.2444
-758.941
-145.004
903.945
131.627
205.202
853.522
-31.3828
813.474
-736.709
504.894
-417.339
9.08279
-237.628
37.7222
153.327
-191.049
308.026
228.052
-26.6051
-1098.2
619.2
479
7.58598
891.675
-60.5483
-831.127
-430.687
623.52
-192.833
57.1667
756.307
24.307
-526.623
-590.55
-18.399
608.949
403.301
150.291
-553.592
-264.686
-522.416
279.424
64.398
-180.623
-76.7753
-406.87
353.184
53.6856
-791.373
291.919
202.144
-263.579
61.4351
224.884
-247.337
22.4536
431.025
-425.026
722.687
51.2737
-773.96
-204.423
39.764
816.99
20.8652
-837.855
-347.795
10.8411
336.954
118.64
860.194
-411.476
450.697
411.926
-72.4676
-954.403
99.669
854.735
789.081
102.594
-29.8799
229.985
50.9328
381.795
892.317
133.256
30.477
-486.42
28.609
-826.637
798.028
694.699
-761.304
66.6056
636.272
465.941
769.018
-56.0327
-712.986
198.458
-50.2668
76.6575
339.637
-416.294
-735.229
792.395
254.77
177.142
-281.044
168.026
113.018
-111.139
-426.904
538.043
-32.6367
-218.003
1004.41
-573.924
93.7378
-290.844
198.824
-202.066
-101.405
-158.605
30.5142
820.165
-158.985
495.391
-596.541
749.518
-152.977
678.697
-700.115
-388.432
373.208
-442.368
-180.321
39.705
348.918
-10.1125
-338.805
-46.2845
808.243
-505.242
-623.363
1128.6
288.484
-233.072
217.929
11.2953
198.091
-254.816
119.583
-885.252
908.906
-23.6537
-265.625
255.992
9.63336
75.0257
706.76
3.36417
765.654
636.401
-16.8822
-15.171
-513.581
470.397
43.1837
933.064
17.1557
-950.219
-309.66
-38.1349
-0.75472
-235.336
791.297
-68.6105
529.027
-623.194
94.1668
-761.811
-84.8482
29.9169
254.76
882.262
10.0551
-491.253
441.226
50.0271
-950.447
-94.6794
52.0678
-382.429
330.362
-194.22
209.811
-15.5908
245.166
-30.3745
-39.9731
1050.31
-313.231
-737.079
579.654
-50.6271
40.4704
-266.589
-58.3481
-690.029
767.64
-77.6111
-86.3897
-1.17966
226.063
504.967
-5.79633
92.7947
-870.632
-96.3451
216.255
-119.91
-190.76
218.112
-27.3521
-681.81
570.671
-447.131
479.348
341.932
53.5871
-461.361
425.236
36.1249
577.736
431.92
498.703
-460.116
-38.5862
471.186
-308.091
-163.095
-192.265
38.4089
351.543
-21.923
-329.62
-257.353
82.5887
-332.88
292.459
-219.026
-636.737
-691.482
-81.8651
261.074
-58.9301
658.712
197.547
6.93673
229.443
815.613
-85.757
-729.856
329.32
-142.228
647.175
-504.947
234.978
-299.914
-104.021
507.322
-750.609
8.34058
-126.136
-106.827
500.003
-93.0328
778.644
-685.611
-202.918
217.396
-14.478
-22.5898
-243.035
829.59
-737.781
224.761
-427.697
-403.549
831.245
859.321
-200.609
-43.4614
782.823
-739.362
597.466
-6.68084
17.8475
-608.398
282.438
131.84
-414.278
-404.404
481.061
-20.5426
-319.916
340.459
-617.599
66.5674
551.032
-145.501
507.14
-361.64
-478.229
410.775
-483.855
73.0805
105.808
-182.326
76.5177
-188.191
336.434
-174.218
-180.633
724.715
-30.0161
102.339
581.21
-611.095
649
-37.9054
269.268
-294.523
-810.012
-52.3906
97.2934
-433.504
590.12
460.191
-615.829
173.461
414.559
-842.256
374.997
-681.918
28.658
653.26
-198.643
240.25
-41.6075
-816.289
886.708
-70.419
-48.8303
-432.33
481.16
1005.36
-405.599
-599.763
-69.6753
-784.776
8.70636
279.383
-950.471
207.415
743.056
-857.728
-92.7429
-174.931
-13.9698
-777.764
731.48
-128.845
-293.457
422.302
-20.5596
-264.397
284.957
160.497
647.064
224.694
156.143
-380.837
-902.872
154.584
748.288
541.24
-581.025
39.7851
604.552
58.6071
-663.159
-43.7013
674.121
-639.852
-34.2692
353.781
-23.7927
-14.7893
217.614
-202.825
608.31
65.8109
14.726
-791.932
721.546
-777.579
-179.983
217.706
322.112
149.073
135.392
-309.61
205.502
-210.054
4.55128
343.972
-200.583
-143.389
592.056
44.3458
-746.648
800.656
-54.0073
-391.307
-109.009
500.316
-17.113
-288.526
249.692
48.4748
-298.167
253.588
-102.44
-151.148
418.468
-467.299
-61.718
-740.278
-411.385
84.0337
148.73
496.835
-439.512
-57.3233
-227.369
260.118
-206.921
198.476
8.44533
11.0906
-217.409
206.318
-323.393
380.24
-56.8466
209.387
-3.73362
-205.654
450.431
554.931
-265.449
555.644
-474.006
141.634
-240.135
98.5008
-205.862
-6.36147
212.223
701.302
-96.75
248.793
-171.596
-358.112
280.03
78.0826
-431.401
-8.30204
439.703
-352.217
449.51
315.333
-323.621
8.28808
-18.5221
35.9362
468.958
462.931
35.7716
26.0544
-457.455
177.989
13.0344
-340.915
-3.51886
-372.091
297.164
74.9272
343.403
-63.9791
672.056
221.324
-233.675
244.766
-291.369
307.467
91.1277
660.399
-751.527
-735.735
-26.2905
762.026
25.5794
156.459
16.7814
-340.175
-690.743
621.146
69.5964
131.521
-169.214
171.967
-2.75376
423.703
-141.266
-238.805
-169.722
408.527
-167.651
-345.93
223.244
-17.7419
-256.657
106.518
90.1932
-186.538
-1009.55
696.319
-348.606
348.606
851.453
242.247
-35.333
-509.108
-500.442
211.401
325.715
528.256
42.575
546.657
-52.4955
256.893
-237.195
-19.6976
-629.472
662.438
-32.966
-50.2523
-533.079
-45.807
-639.739
708.943
-69.2041
84.6401
-493.811
-353.407
539.522
7.13529
526.512
13.6725
-540.184
745.938
-647.664
7.81228
-118.392
-60.5029
178.895
-418.63
85.7494
314.55
-34.7827
-279.768
-158.619
-44.2014
-303.869
290.623
13.2458
-290.184
67.9784
868.1
-196.043
-332.57
52.4889
767.164
-0.781792
-766.383
584.213
-659.133
74.9196
-922.848
830.368
92.4799
-24.3147
-636.861
109.926
299.139
-24.5653
-262.063
286.629
-778.683
14.5855
-205.187
-292.944
268.379
-466.251
511.771
-232.33
253.837
-21.5079
-306.289
299.367
6.92217
-808.568
704.255
995.988
-148.816
-162.834
290.413
-245.268
363.423
-165.044
405.265
-305.376
-99.8893
289.091
54.3126
811.273
-95.6112
-715.662
184.001
-681.684
-749.809
665.522
84.2875
5.26297
-617.614
623.68
-6.06576
67.2276
181.566
-95.1013
516.694
-273.482
289.022
-15.54
379.384
-458.571
79.1872
-608.718
649.331
-40.6125
585.325
44.8431
-630.168
240.348
-224.373
-15.9742
555.78
-23.0087
-532.772
241.286
-129.989
-111.297
-133.264
-50.3037
183.568
952.66
-943.807
-8.85279
-575.503
-388.329
-46.8721
-754.673
801.545
-897.648
834.374
-574.015
353.99
220.025
605.127
-623.526
-16.8349
670.966
-654.131
15.9648
151.157
-167.122
-68.8573
-271.161
-855.97
-66.8787
15.4569
367.022
334.106
-739.705
197.127
-19.1381
-231.698
231.698
413.183
-151.018
-262.165
-911.198
25.9464
-3.55686
-29.9209
-474.06
503.981
-753.687
-80.7547
487.385
-406.63
-252.42
-408.717
433.222
-10.8348
-61.144
260.715
156.945
187.027
-538.627
398.964
-172.563
397.257
340.712
-51.6214
762.115
-706.642
-285.003
-9.23608
271.356
-946.887
-3.56049
5.60686
927.457
533.422
-448.781
-831.505
571.737
259.768
-3.6729
263.315
-259.642
350.213
-4.71502
-345.498
-462.581
31.8937
-834.465
748.2
86.2651
-134.022
-175.639
195.54
33.4456
-228.986
213.207
127.505
-800.995
17.8036
-592.491
321.869
270.623
41.2758
233.83
363.584
-326.174
-37.4103
-375.743
385.074
-9.33114
847.424
-513.318
-455.114
312.886
-325.619
193.354
132.265
423.389
-720.819
568.473
-27.2331
811.253
-807.889
78.6631
162.623
-827.671
809.442
18.2292
-794.238
47.5897
-472.162
-527.844
1042.65
-186.28
931.104
-835.171
-95.933
-521.12
-463.317
984.436
-49.0462
-257.738
59.6272
227.48
-236.369
8.88874
-22.4554
-56.0781
733.431
467.276
-30.9006
-436.375
-373.566
-193.785
13.5347
-98.4123
-245.659
-149.772
411.096
-261.324
-926.375
926.375
93.2659
-805.497
491.796
-511.176
69.2828
441.893
-212.298
-194.99
163.957
-159.509
-379.118
-549.262
389.753
600.869
59.8441
193.744
421.582
-928.568
506.986
-17.6977
301.947
-221.582
-264.537
-218.8
409.307
-87.1947
-183.167
-142.452
-65.4998
-835.37
452.597
-518.227
65.6306
16.5552
-689.111
770.152
-81.0415
415.834
-421.894
6.06011
248.477
-568.87
529.758
39.1116
113.071
112.221
-225.292
199.165
-213.954
378.932
-708.794
329.862
110.546
758.341
175.29
237.893
-68.7647
-492.694
462.773
293.629
-308.476
14.8469
416.754
-37.37
354.247
-386.159
-23.7873
-367.747
391.534
-33.3781
-263.038
311.275
9.33842
-320.614
-414.057
264.285
-389.867
42.2853
631.058
-749.539
-410.428
533.075
-314.101
-91.6001
976.66
-866.114
-492.705
-312.323
805.028
295.892
41.4723
290.157
-331.629
-453.545
134.754
-268.776
-51.9604
451.565
-564.116
112.551
47.4342
613.703
-184.082
65.6908
315.97
-274.694
708.755
-329.822
267.841
-182.556
24.3726
365.065
-389.437
-29.3475
-299.497
-2.58459
-259.728
252.996
6.73149
-0.137254
548.659
-524.352
33.7794
-891.589
113.405
797.596
-1.36188
330.778
-117.571
525.486
328.712
-854.198
598.408
239.954
667.836
-760.869
-740.535
102.823
637.712
268.732
58.3197
-327.052
190.182
-183.229
-6.9529
21.9613
274.405
572.887
-194.355
28.8789
165.476
-157.041
-606.803
763.844
-342.122
358.593
-16.4714
-246.5
296.408
-49.9075
-149.212
-175.851
-256.425
215.367
41.0581
920.088
-920.088
-87.5003
727.084
-639.583
295.264
-214.618
345.825
-68.1357
-657.54
191.734
28.6832
-220.418
54.3408
-587.49
533.149
26.264
-227.865
201.601
908.1
-913.848
5.74811
300.755
-674.407
373.652
341.371
-289.303
52.463
311.121
-350.753
876.239
557.23
-105.665
-73.3807
-245.322
-400.907
326.163
74.7441
217.297
-346.373
335.243
-500.168
164.925
-237.724
39.0817
-873.288
-73.599
33.148
-722.259
312.993
-187.659
796.387
-773.227
-23.1609
431.317
45.9523
-477.27
-685.675
610.717
74.9581
-237.948
208.452
29.4953
321.963
-28.3341
-426.179
-254.915
873.723
-830.683
-43.0395
-357.856
658.61
137.068
-528.376
-864.47
11.1028
-58.0135
-596.51
654.524
38.9627
-135.878
-145.166
-916.665
414.863
501.802
196.013
2.46253
450.947
-35.1128
543.443
261.585
-252.703
-8.88193
-335.531
-6.26869
341.799
-544.61
432.122
-12.9088
-192.039
204.948
234.013
-42.2791
-86.5622
345.871
-259.309
-357.31
7.25508
435.615
-10.3796
65.0317
-808.299
743.267
-664.322
664.322
43.6926
191.285
-85.9426
-505.07
591.013
-854.462
938.096
-83.6335
741.108
55.2794
-14.1612
-834.497
848.658
325.119
-342.675
17.5558
325.843
15.454
-341.297
583.839
-637.019
53.18
45.2001
299.251
-344.451
-212.675
-111.462
324.137
199.587
-9.40436
105.274
-709.992
604.719
-759.995
267.29
353.272
-311.8
793.745
59.777
-77.4691
-433.707
344.04
-389.921
-680.593
100.366
580.227
304.954
-269.678
-35.2761
-532.037
613.551
-81.5147
-82.1463
-363.107
445.254
410.723
-382.687
-596.616
-320.049
594.39
-725.02
130.63
-406.139
-425.366
837.85
-39.7773
-645.898
133.625
447.72
-581.345
563.578
-644.864
81.286
27.4697
-229.462
11.1076
-693.025
-323.48
321.482
11.2255
570.633
-692.749
122.115
-344.527
-430.629
-6.05338
-684.151
698.324
-14.1727
763.086
-164.678
645.811
-103.099
-542.712
205.067
291.768
293.05
-298.969
5.91939
807.724
-935.896
128.172
-645.074
-95.4611
-285.429
11.9472
-329.256
91.3179
237.938
-56.9496
640.789
75.3617
-243.187
167.825
358.531
-336.363
-22.1678
-331.43
-261.062
-10.3271
202.962
-23.0067
-177.769
231.804
131.008
-362.813
-272.625
320.485
-47.8593
586.84
-672.782
25.1889
289.361
-259.751
-69.5047
-285.548
-288.466
-711.357
540.668
170.689
-110.917
-155.419
-166.266
67.1756
-579.134
536.541
42.5936
576.957
-1098.08
-25.5437
-1016.09
-140.724
364.094
45.2135
-23.2269
-51.4143
-757.318
125.703
848.584
-841.643
617.423
-76.7556
1.86172
589.257
-591.119
-278.747
-167.86
446.608
-33.6198
-204.328
4.18407
202.802
-211.715
8.91235
-994.713
228.497
448.277
-113.034
19.7311
-628.04
608.309
298.22
-365.126
24.5916
340.534
58.0759
573.423
-631.499
-104.313
770.337
-666.024
-669.361
-195.635
-722.207
38.7892
683.418
-38.5425
565.119
-526.576
920.584
-912.398
-8.18658
559.034
-617.047
-611.192
-23.7682
634.96
-397.056
124.431
261.213
-257.16
-4.05275
801.079
-772.47
-96.2376
730.967
-634.729
461.027
9.36996
-434.363
-670.019
604.146
65.8724
398.864
-92.3006
-564.068
-43.892
-11.7453
-400.001
-16.3396
203.529
-187.19
25.7636
327.509
-361.362
365.101
-3.73953
744.25
-791.122
131.69
130.352
216.183
-228.379
12.1956
684.14
-775.324
91.1838
-317.624
-670.183
-19.8463
794.344
73.7554
291.321
120.604
810.272
-15.9279
-29.0378
-1030.61
177.156
3.94716
17.4878
-566.58
160.355
-144.39
-1081.11
-243.531
230.622
68.8591
226.405
-107.864
-467.15
575.015
-2.54657
-477.578
480.125
838.94
-31.2151
570.13
75.6811
-29.428
-205.789
235.217
736.947
-780.408
-144.855
376.659
-399.354
443.246
-43.8925
-679.224
723.31
-44.0859
276.217
-366.749
18.1508
396.583
-154.686
-241.896
173.61
-511.893
466.328
45.5646
5.3081
-462.551
459.373
3.17834
613.899
-596.051
28.9009
-156.806
588.124
-296.846
57.5468
441.244
42.0019
606.889
-648.891
-87.2338
-139.79
185.412
23.0403
30.6634
-394.018
28.8923
-412.343
12.99
252.387
-254.591
2.20441
711.281
-682.623
-486.063
84.8609
401.202
-42.3453
626.559
-9.06437
-208.345
914.268
-141.795
-772.473
518.881
537.483
-1056.36
-284.503
-22.5649
292.084
4.14621
10.2607
275.924
-688.103
-1.20643
689.31
592.023
-749.064
-209.243
197.509
11.734
-517.277
-33.7434
-635.093
-1.54192
143.176
-137.853
-428.392
-111.118
186.48
14.1468
-630.351
616.205
-39.2213
-497.698
536.919
-248.305
293.506
-69.3647
626.198
-725.952
752.848
-26.896
217.756
-482.443
232.364
-256.094
23.7304
4.93192
-837.504
28.9355
232.737
-445.412
905.064
-914.421
9.35678
636.191
14.4732
-650.664
-55.8777
-537.239
-807.245
840.445
112.688
-207.706
897.677
-78.2737
244.189
-16.7092
-60.3386
-715.964
776.302
-86.8716
-597.28
-12.6354
539.147
-664.984
19.9099
211.869
-231.149
19.2797
-239.553
3.47464
236.079
-559.45
533.539
25.9111
-222.355
89.0909
66.6591
84.4963
-151.155
-880.246
314.823
21.2938
-336.116
55.0034
637.872
-692.875
-343.442
364.081
-20.6394
-644.584
-20.3996
-670.023
761.151
-896.451
127.394
769.057
-147.718
-169.377
-446.321
64.4762
-457.083
-614.65
253.399
-4.61106
-292.721
292.51
0.211356
179.422
-66.3504
-423.744
394.316
29.4282
-954.864
972.019
-277.107
101.432
175.674
144.107
16.2474
521.048
851.482
-871.784
277.324
-35.6497
357.619
-503.119
-789.066
811.108
-22.0419
-346.079
-179.714
525.793
134.673
-178.16
43.4869
427.335
-522.436
740.375
-678.365
-62.0102
-260.396
-24.1075
320.964
-71.272
318.025
-292.836
333.705
-652.054
-17.9648
5.46236
633.558
-376.191
156.156
20.6621
-891.509
546.988
-391.637
608.147
368.512
424.08
9.14184
744.613
-804.952
-40.7177
-24.293
827.282
70.3951
421.2
-499.942
78.742
224.868
-181.878
-42.9902
-186.889
200.278
-13.3885
-14.6358
345.012
-330.376
-616.949
658.95
430.439
248.157
-222.734
-25.4229
369.614
505.46
313.514
-335.437
702.625
108.648
74.7845
-598.422
523.637
639.924
-35.778
33.4282
-930.242
113.794
816.448
221.795
-254.617
-253.947
-793.329
732.256
61.0731
5.32285
813.96
-819.283
926.407
-926.407
-378.881
17.519
602.83
37.0946
-109.189
-16.0253
-194.495
210.52
437.718
27.9489
-465.667
-436.647
22.6819
413.965
186.288
972.164
-453.283
-234.07
41.9169
192.153
-626.958
630.903
-3.94582
419.43
-470.761
51.3315
-430.995
-5.65126
50.8607
-762.896
712.036
-637.119
-60.0947
-550.085
518.577
31.5085
-369.284
274.268
17.2022
-234.007
216.804
-147.074
-130.033
-29.6921
221.051
-35.6389
54.0363
285.405
-280.22
-71.9376
791.613
368.245
-53.4223
-768.96
33.2247
-890.03
814.417
75.6132
118.473
274.427
385.79
153.04
-752.645
858.48
332.438
183.423
-515.862
-166.842
594.464
-644.064
49.5999
474.335
54.5831
-528.918
631.357
-338.221
-293.136
-471.487
-115.337
-780.284
675.971
29.3012
-683.573
654.272
-711.374
108.526
602.848
-765.958
16.6423
22.9214
508.685
-87.4857
-513.35
354.365
545.938
-584.481
-35.457
-68.7884
235.39
-166.602
36.8155
-676.555
-236.745
-239.179
170.391
-31.5934
262.078
-111.202
-150.876
150.96
-9.43386
-637.103
722.52
-21.7102
189.365
-167.655
869.871
-628.779
11.1652
135.363
180.606
1.0138
397.683
-398.697
-224.332
-191.679
416.011
180.944
763.526
380.13
-355.757
-841.937
7.47203
626.421
-609.871
-0.134106
-806.917
807.052
589.567
16.1291
-605.696
841.176
45.1606
-886.336
313.255
-13.8878
127.475
-406.223
426.317
9.2985
-255.717
335.575
-79.8577
197.964
381.978
-90.6568
611.617
-55.9944
-555.623
-754.724
779.297
-24.5728
13.1467
641.967
-655.114
-645.05
113.013
-7.62694
-442.61
600.987
34.6625
323.868
-31.467
192.656
-93.5314
-337.627
2.09591
95.9755
742.964
4.38472
-278.873
274.488
-425.514
-503.054
-57.4575
-757.741
815.199
251.89
-42.8736
194.334
-259.234
64.9
201.439
-95.7826
-224.761
-516.879
-581.321
-791.856
-18.1565
-171.769
-815.763
776.45
39.3127
-34.6049
470.017
-435.412
59.7829
821.342
-881.125
201.79
-135.131
773.93
26.726
-216.906
200.881
20.9034
-308.532
287.628
575.74
-573.878
-647.196
143.049
504.147
-549.024
589.347
-40.3227
33.6565
259.393
-665.164
-441.782
608.549
45.8365
-654.385
-721.928
606.768
-679.223
72.4556
-157.979
-36.3761
450.185
-484.407
-846.15
851.473
104.597
-307.634
-588.817
-642.506
593.319
49.1866
185.316
-79.5075
-44.0775
456.565
174.791
-567.707
53.7222
514.189
-527.544
13.3554
73.038
-717.685
644.647
269.01
-16.6233
-316.133
167.405
148.729
-566.977
580.65
-130.038
460.451
-330.413
681.446
-86.9823
1.87151
-319.268
317.397
-446.781
-442.786
889.567
-148.14
241.435
-93.2954
-100.656
-579.937
-562.574
409.094
153.48
400.054
-32.7222
-367.332