/*--------------------------------*- C++ -*----------------------------------*\
  =========                 |
  \\      /  F ield         | OpenFOAM: The Open Source CFD Toolbox
   \\    /   O peration     | Website:  https://openfoam.org
    \\  /    A nd           | Version:  7
     \\/     M anipulation  |
\*---------------------------------------------------------------------------*/
FoamFile
{
    version     2.0;
    format      ascii;
    class       volVectorField;
    location    "20";
    object      U;
}
// * * * * * * * * * * * * * * * * * * * * * * * * * * * * * * * * * * * * * //

dimensions      [0 1 -1 0 0 0 0];

internalField   nonuniform List<vector> 
19930
(
(0.997118 -0.000291678 9.02625e-24)
(0.988635 -0.000853417 1.99601e-22)
(1.02941 -0.00399239 -2.606e-23)
(1.00032 -4.32247e-05 -2.07607e-24)
(1.00081 -0.00981053 7.49418e-23)
(1.00043 -0.010416 -7.30696e-23)
(1.02695 -0.177577 -8.40519e-22)
(1.19933 0.0747652 -1.59108e-20)
(1.00338 -0.0880869 -2.1526e-21)
(1.20682 0.070533 1.1434e-20)
(1.04063 -0.162735 -2.487e-21)
(1.33234 0.00862867 -2.15002e-22)
(0.984448 -0.0562787 -3.3768e-22)
(0.996954 -0.00034784 -8.9731e-24)
(0.995531 -0.0036377 5.78287e-23)
(1.00031 -5.46175e-05 -1.99177e-24)
(1.29159 -0.119442 -1.24011e-21)
(1.16443 -0.00182262 -8.64469e-21)
(0.997259 -0.130736 -1.51315e-21)
(0.991108 -0.000411785 -1.74473e-22)
(1.01485 -0.102372 2.8429e-21)
(1.33121 0.0125807 -3.60321e-22)
(1.21569 0.0758279 -8.32326e-21)
(1.1153 -0.219994 -1.84834e-21)
(1.02729 -0.0018026 4.92903e-24)
(1.00549 0.188113 -3.46716e-20)
(1.01005 -0.00293251 1.33264e-23)
(0.993014 -0.0611294 1.13841e-21)
(1.16506 -0.221364 -1.55412e-21)
(0.999605 -0.132511 5.29038e-21)
(0.998647 -0.00239447 -9.16815e-25)
(0.870908 0.0352869 5.82037e-20)
(1.29708 0.0776717 4.9866e-21)
(0.991621 -0.0356235 1.26241e-22)
(1.00007 -0.00178798 8.25462e-24)
(0.998713 -0.00258253 -3.38454e-24)
(1.2083 0.106241 -1.72357e-20)
(0.999896 -3.64765e-06 -3.39893e-24)
(1.0163 -0.0214484 7.60743e-23)
(1.17199 -0.0117903 -2.78787e-21)
(1.04643 -0.00958812 4.09728e-23)
(1.30598 0.153222 9.29834e-21)
(1.07341 0.0792159 -9.28762e-21)
(1.00897 -0.00340031 -1.10607e-23)
(1.00316 0.180012 1.39846e-20)
(0.975893 -0.00167151 1.38587e-22)
(1.1565 0.00904934 -2.65079e-20)
(1.31493 -0.0543536 1.97523e-22)
(0.99956 -0.000114309 -2.67567e-24)
(0.972089 -0.0490178 1.68744e-22)
(0.999969 -0.00190411 -2.06157e-23)
(1.08908 -0.0114052 1.59411e-21)
(1.18616 -0.162866 4.57219e-21)
(1.00042 -0.00421811 -2.95623e-23)
(1.22107 -0.177567 -1.19586e-21)
(0.94713 -0.0190858 -1.30318e-22)
(0.977669 -0.0329728 4.73071e-23)
(0.998514 -0.00310177 1.38457e-24)
(1.01005 -0.0522448 -1.30773e-21)
(1.29062 -0.113929 1.0089e-21)
(0.943385 0.0667762 3.05805e-20)
(0.966059 -0.00474651 2.82806e-22)
(0.988233 -0.00368534 -7.00917e-23)
(1.22067 0.0570932 -6.83091e-22)
(0.999332 -0.000102263 1.73693e-23)
(0.995296 -0.00878756 3.42824e-24)
(0.998326 0.125743 9.06973e-22)
(0.994735 -0.00917526 5.10235e-23)
(1.12946 -0.103558 -4.16887e-22)
(1.0205 0.187892 1.2885e-20)
(1.04423 -0.0486689 -1.97561e-22)
(1.28395 -0.14516 -2.17368e-21)
(0.995951 -0.00364361 -1.44645e-23)
(0.983047 -0.0412969 1.06682e-21)
(0.999528 0.0237336 -1.32105e-20)
(1.07742 -0.101799 9.35935e-22)
(1.01749 0.174291 5.91044e-21)
(0.956703 -0.00557637 1.05255e-22)
(1.16856 -0.0108479 1.77472e-21)
(1.00827 0.0686795 1.8698e-20)
(0.996246 -0.00913913 1.5649e-22)
(1.00246 -0.0049783 -2.74414e-23)
(1.14689 -0.218515 1.24414e-21)
(1.00462 -0.085488 1.79304e-21)
(0.969288 -0.0037735 -3.12153e-22)
(1.06829 0.0753537 4.46669e-20)
(0.987494 -0.0526694 -6.33095e-22)
(0.76442 0.124363 5.62906e-21)
(1.21242 0.0551909 -6.75124e-21)
(0.971497 0.197815 2.2668e-20)
(1.17626 0.018949 -9.70321e-21)
(1.00039 -7.80988e-05 2.26981e-24)
(1.00005 -0.000345583 9.84377e-24)
(0.890875 0.0111014 -1.6523e-20)
(1.31529 -0.0610255 -7.20388e-23)
(0.988736 -0.00387592 -3.35281e-23)
(0.911979 0.00716123 2.5296e-20)
(0.999447 -0.00502716 2.29367e-23)
(1.04577 -0.158298 -1.08704e-21)
(1.12548 0.0207966 -1.1155e-20)
(0.96468 0.205176 -6.73008e-20)
(0.974488 -0.0113519 3.50152e-23)
(0.93967 0.18966 -7.46359e-20)
(1.17647 -0.148075 4.52765e-21)
(1.12587 -0.0049721 -4.65517e-21)
(1.10661 -0.104514 6.75336e-22)
(1.08434 0.193968 2.26752e-20)
(1.16967 -0.125862 1.03531e-21)
(0.988466 -0.000483654 -9.08106e-23)
(1.1342 0.206534 4.7687e-21)
(1.17195 -0.226596 -5.29658e-21)
(1.02212 -0.176267 -1.91437e-21)
(0.976911 -0.0259212 3.79187e-22)
(1.03752 -0.0250567 -6.53766e-23)
(1.08076 -0.094926 2.9327e-22)
(1.00009 -0.000100319 -2.44799e-24)
(1.1171 0.120902 2.08835e-20)
(0.996839 -0.00855508 -6.05558e-23)
(1.16589 -0.157556 9.83104e-22)
(1.00655 0.0550569 -4.38784e-20)
(1.00038 -5.74983e-05 4.19879e-25)
(1.02688 -0.107841 1.81857e-21)
(1.20234 -0.00941405 -3.52091e-21)
(1.01057 -0.0596636 -1.79029e-21)
(0.991528 -0.0337938 -1.07093e-22)
(1.16619 -0.00222875 4.39115e-21)
(1.32844 0.0459125 -7.97297e-21)
(0.992834 -0.0588703 9.27724e-22)
(0.856024 0.0420127 -1.7135e-20)
(1.1111 0.127671 1.12248e-20)
(0.988481 -0.0675187 -8.84676e-22)
(0.971759 -0.0471468 -5.40516e-22)
(1.04664 -0.00497943 1.55755e-22)
(1.01537 -0.019718 -2.79163e-23)
(1.06779 0.184349 -3.14085e-20)
(1.12024 -0.00859492 -1.19238e-21)
(1.31201 -0.0322141 -6.98673e-22)
(1.01804 -0.103322 -1.20003e-21)
(0.979925 -0.0115185 3.35182e-22)
(0.989151 -0.0891072 3.92916e-21)
(1.02245 -0.1106 3.20686e-22)
(0.981378 -0.0426153 -1.05247e-21)
(1.28062 -0.154405 -1.90539e-21)
(0.933697 0.210055 -2.36841e-20)
(1.24357 -0.0733603 6.0513e-22)
(1.06783 0.191529 2.85179e-20)
(1.33766 0.0864035 -1.18208e-21)
(0.967248 -0.0119242 -2.65431e-22)
(1.32107 0.0333621 -5.95621e-21)
(1.01135 -0.00393338 -2.40406e-23)
(0.966883 -0.0108829 5.20505e-22)
(1.02277 0.183008 1.43063e-21)
(1.00007 -0.000297597 -6.28986e-24)
(1.00336 -0.0791313 6.89126e-22)
(1.0024 -0.00447717 4.74114e-23)
(1.33965 0.093714 5.7457e-21)
(1.06108 0.0802182 -4.69332e-21)
(1.11104 -0.215007 8.01596e-21)
(0.942695 -0.0221301 2.78009e-22)
(0.983494 -0.0575785 7.10332e-22)
(1.22354 -0.187393 1.65515e-21)
(1.03197 -0.172574 1.30813e-21)
(0.998461 -0.00286613 -3.88115e-24)
(1.24437 -0.0667129 -1.15439e-21)
(1.15362 -0.00905995 -7.66676e-22)
(0.77111 0.130094 1.34588e-20)
(0.975739 -0.0115227 2.24642e-22)
(1.13922 -0.223694 4.96411e-22)
(1.07233 -0.103069 -1.07059e-21)
(1.20475 0.101009 -1.0414e-20)
(1.31382 -0.0356631 3.0585e-22)
(0.984471 0.143066 1.38777e-20)
(1.20184 0.2183 2.93067e-20)
(0.988754 -0.0310038 2.10317e-23)
(0.80967 0.0331555 -2.02087e-20)
(1.30078 0.0723763 5.70592e-21)
(0.996403 -0.000734547 -8.85626e-24)
(0.977082 0.0164186 -3.55661e-20)
(1.08798 -0.094374 -7.4722e-23)
(1.12418 0.222943 9.60793e-21)
(1.06257 0.207749 -1.45278e-20)
(0.999843 -2.78573e-06 4.1503e-24)
(0.920725 0.143605 9.37378e-22)
(1.17506 0.188769 2.62899e-20)
(0.990428 -0.000688703 1.234e-23)
(0.941264 -0.0157458 1.45572e-21)
(1.04393 -0.0454942 1.71475e-22)
(1.13319 0.0148642 -2.88726e-21)
(1.169 -0.151103 -1.5702e-21)
(0.843932 0.111167 1.74306e-20)
(1.32235 0.046244 -3.07789e-21)
(1.26033 -0.11822 -5.9547e-22)
(1.1189 0.0162815 2.22187e-20)
(1.13053 -0.0963029 3.70773e-22)
(0.943396 -0.0232566 7.14972e-22)
(1.30832 -0.00443153 -3.14148e-21)
(0.92367 0.151355 -1.10422e-21)
(1.29322 -0.0785933 7.83709e-22)
(0.992605 -0.000266537 -6.97161e-24)
(0.834275 0.109802 -1.71291e-20)
(1.29152 -0.0429519 -2.77495e-21)
(1.24132 -0.160321 1.54285e-21)
(1.18759 -0.155424 -3.91475e-21)
(0.861934 0.127729 -2.08892e-20)
(0.902177 0.132807 4.81027e-20)
(0.963212 -0.0264315 -3.18992e-22)
(1.00003 -0.0438803 -1.0626e-22)
(1.08922 -0.00673415 -2.15415e-22)
(0.947395 -0.0206622 -6.93035e-22)
(0.998568 -0.00013408 2.61889e-23)
(1.00236 0.128486 -6.47182e-21)
(0.973799 0.0504348 -1.27744e-20)
(0.966539 -0.0151268 4.78172e-22)
(0.954159 -0.0361121 4.62253e-22)
(1.12431 0.213874 1.43671e-20)
(0.998225 0.0409479 2.00772e-20)
(0.998581 -6.32754e-05 -6.6365e-23)
(1.00384 0.0447907 -2.98305e-20)
(1.17557 -0.12233 4.63935e-22)
(1.01657 -0.0173685 1.09547e-22)
(1.00385 -0.0638714 1.18084e-22)
(1.08057 0.126518 -2.34483e-21)
(0.912955 0.238105 2.23491e-20)
(1.17205 0.0178546 1.28264e-20)
(1.13194 0.19542 -2.33054e-20)
(0.978661 -0.0114637 -5.69942e-22)
(1.00233 -0.0434061 -5.17972e-22)
(1.00013 -0.000109049 8.12909e-26)
(0.999007 -4.61343e-05 1.32261e-23)
(1.00066 -0.0082107 1.49904e-22)
(1.19772 -0.01042 1.57866e-21)
(1.13148 -0.150256 -9.89712e-22)
(1.08584 0.186337 -2.88816e-20)
(0.996681 -0.104726 1.06901e-21)
(1.0478 0.0662146 1.75295e-20)
(0.989054 -0.0508835 -1.12207e-22)
(1.10059 -0.099163 -5.13855e-22)
(0.989106 0.139212 2.45336e-20)
(0.897174 0.00873477 8.59619e-20)
(1.08018 0.118843 4.04277e-20)
(1.02165 0.167418 -3.65437e-20)
(0.952471 -0.0353113 -4.07908e-22)
(1.27382 0.146865 -6.38281e-21)
(1.01175 -0.0578997 1.95987e-21)
(1.13186 -0.00831978 9.66005e-21)
(0.996654 -0.00771287 -1.05467e-22)
(1.25814 -0.180864 -4.93517e-21)
(1.1915 -0.0988293 8.47311e-22)
(1.09778 -0.0343873 2.41371e-21)
(0.999587 -8.78182e-05 3.2071e-24)
(0.986504 -0.000669837 1.22843e-22)
(0.90295 0.244622 -3.44647e-20)
(1.24475 -0.00510901 2.02303e-20)
(1.01561 -0.0230672 -1.54455e-22)
(0.968773 -0.0529843 -1.02228e-21)
(1.12663 -0.144384 3.48038e-22)
(1.06108 -0.193676 3.30938e-21)
(1.29962 0.161596 -1.25856e-21)
(0.990474 -0.0882014 -1.09214e-21)
(0.971551 -0.00207091 -2.83222e-22)
(0.995034 -0.0695052 1.32245e-21)
(0.992489 -0.0299684 -1.32264e-22)
(0.999268 -7.74314e-05 -9.28011e-25)
(0.988135 -0.0485308 5.76345e-22)
(1.03576 -0.173221 -5.97139e-22)
(0.930619 0.201158 4.4582e-20)
(1.3065 -0.0833787 -7.93055e-22)
(0.978679 -0.0247695 -7.00811e-22)
(1.04344 0.0700744 -2.71409e-20)
(0.907073 0.142877 -5.78555e-21)
(0.988099 -0.0547707 1.21342e-22)
(1.00071 -0.000294406 -1.45885e-23)
(1.00229 -0.0821219 -1.24117e-21)
(0.997954 0.118022 7.54202e-21)
(1.23074 -0.207857 -2.81751e-21)
(0.947913 0.0616733 -4.58897e-20)
(1.00005 -0.00011673 1.15443e-24)
(0.95606 -0.0397066 8.24236e-22)
(1.17664 0.235223 2.39856e-21)
(0.998967 0.0386481 4.0313e-20)
(1.03054 -0.0814221 -3.28413e-22)
(0.979136 -0.0315268 4.7809e-22)
(0.864944 0.219974 3.74698e-20)
(1.24083 -0.143808 3.84081e-22)
(1.25259 -0.118345 5.72823e-22)
(0.949832 0.191355 3.05416e-20)
(0.849714 0.126229 -3.57477e-21)
(0.986645 -0.0565377 -3.79797e-22)
(1.17763 0.242804 -1.62632e-20)
(1.18705 -0.0399234 -3.99517e-21)
(1.01166 0.0693665 -5.10406e-20)
(1.14889 0.121228 1.20324e-20)
(1.00074 -0.000215637 1.84177e-23)
(1.31217 -0.0849579 9.7626e-22)
(1.1923 0.102503 6.3759e-21)
(0.996276 -0.000638156 -1.96539e-23)
(0.994709 -0.110105 -4.32633e-22)
(1.28604 -0.0679996 -1.62537e-22)
(1.1274 -0.212723 -1.421e-21)
(1.28606 -0.0453327 1.721e-21)
(1.20605 -0.0820481 -7.12687e-22)
(1.00012 -0.00019342 -2.18368e-24)
(0.99955 -0.00354655 6.06567e-23)
(0.980714 0.22731 -5.28686e-20)
(1.00138 -0.0147625 -3.09113e-23)
(1.0039 -0.132028 -1.24781e-21)
(0.989006 -0.0728184 1.31816e-22)
(1.32631 0.0138879 -2.6894e-21)
(0.968718 -0.00461461 -5.46351e-23)
(1.12992 0.228519 1.64483e-20)
(1.24671 -0.0502457 3.2518e-21)
(0.99249 -0.0698858 7.66283e-22)
(0.953896 -0.00671713 -2.90339e-22)
(1.20777 0.0915944 1.10025e-21)
(1.30037 0.00366321 2.65274e-21)
(1.00008 -0.000197755 -2.02908e-24)
(0.95645 0.136966 4.49925e-20)
(1.11311 0.135195 5.47696e-21)
(0.983338 0.0350047 -1.10756e-20)
(1.22633 -0.169709 -1.59159e-21)
(0.999373 -7.41862e-05 -1.39058e-23)
(0.867954 0.210466 -2.50151e-21)
(0.99684 -0.00533281 -8.34135e-23)
(0.992352 -0.0538575 2.45059e-22)
(1.30241 -0.00313797 -1.11594e-21)
(1.28673 -0.0758494 -6.11116e-23)
(0.980048 -0.05645 -9.02126e-22)
(1.23646 -0.152268 2.18685e-21)
(1.0557 0.0769527 7.04566e-21)
(0.894742 0.0107973 3.10092e-20)
(1.04904 0.187925 -3.79933e-20)
(1.22864 -0.0280774 -5.92824e-21)
(0.786474 0.0443895 4.36826e-21)
(1.00034 -9.78917e-06 -1.24276e-24)
(0.990266 -0.0294308 -1.42032e-22)
(1.00002 0.0221939 5.32949e-20)
(1.17828 -0.198574 5.63861e-22)
(1.18709 0.0977973 -1.53879e-20)
(0.985211 -0.0418623 -4.37571e-22)
(1.0081 0.173736 3.6904e-20)
(1.2234 -0.0566073 2.44179e-21)
(1.00017 -0.00385834 3.81678e-23)
(1.21614 -0.0578709 -2.13546e-21)
(1.11376 0.111703 -2.69012e-20)
(1.14189 -0.196094 -2.63567e-23)
(0.937009 0.0157026 -8.39725e-21)
(1.19224 0.189949 3.68653e-21)
(0.999282 -0.000340197 -7.18285e-25)
(1.03984 -0.0227299 -3.12744e-22)
(1.26436 0.0731822 6.07527e-21)
(1.16528 -0.000387506 1.67546e-20)
(0.997892 -0.000105124 7.20639e-23)
(1.19742 0.210217 -2.63192e-20)
(1.01256 -0.0515643 -1.59922e-22)
(0.742498 0.124649 -2.09963e-21)
(1.0186 -0.108587 -2.32179e-21)
(0.965953 -0.0137289 1.90821e-22)
(0.987207 -0.000784959 -1.65132e-22)
(1.054 0.194891 4.20631e-20)
(1.17002 0.182649 -4.16708e-20)
(0.972793 -0.00290317 1.25907e-22)
(1.19877 0.0848233 3.91375e-21)
(0.968821 0.187606 -1.30237e-20)
(1.00146 -0.0158374 -4.57771e-23)
(1.08648 0.0101945 6.76262e-21)
(1.04802 0.032217 -1.96169e-20)
(0.758171 0.0679936 2.88716e-20)
(0.997266 -0.00446658 2.49378e-23)
(1.29516 0.0259943 -7.38507e-21)
(1.18411 -0.101381 -8.56309e-23)
(0.945676 -0.0185922 -2.45389e-22)
(0.999578 -6.95829e-05 -2.68607e-24)
(0.999503 0.0125574 3.26764e-20)
(1.31402 0.154046 5.27395e-21)
(1.27709 -0.0939627 2.66533e-21)
(1.00297 0.222192 -1.33462e-20)
(1.22698 -0.0214422 2.87987e-21)
(0.975878 -0.0325114 3.39154e-22)
(1.27072 0.136397 -4.83442e-21)
(1.15309 -0.00516143 -2.57941e-21)
(1.23662 -0.00295021 6.26859e-21)
(0.768108 0.0744955 -7.52792e-20)
(1.02227 -0.0957834 8.21064e-22)
(1.30022 -0.014961 1.30839e-21)
(0.980247 0.0452479 -2.8883e-20)
(0.967366 -0.0538053 9.26218e-22)
(1.17354 -0.0482179 3.44044e-22)
(1.05267 -0.159727 2.53734e-21)
(1.261 0.0668461 -2.71935e-21)
(0.994064 -0.000198911 -2.3806e-22)
(1.16111 0.00885962 -2.82677e-21)
(1.28113 -0.0888433 -9.67799e-22)
(1.29804 -0.0200097 2.89992e-21)
(1.00135 -0.00493111 1.11312e-22)
(1.15302 0.00700791 2.81641e-20)
(0.994276 0.027798 -2.75369e-20)
(1.10558 0.076258 4.84509e-20)
(1.12916 -0.208368 -5.56725e-21)
(0.993817 -0.0283045 2.94331e-22)
(0.870312 0.117011 -2.42098e-20)
(0.872496 0.0407024 -6.25062e-20)
(0.997198 -0.00722404 -2.27155e-23)
(0.957834 -0.0388646 3.74053e-22)
(1.05122 0.13577 5.60303e-21)
(1.0076 -0.138807 -1.01764e-21)
(1.09317 -0.101064 5.04838e-22)
(1.28882 0.159202 1.9264e-20)
(0.989176 -0.000520062 2.06061e-22)
(0.751111 0.059976 4.99195e-20)
(1.03309 -0.0731694 -8.55495e-23)
(1.29767 0.0407144 2.71837e-21)
(0.990243 -0.0104122 2.9045e-23)
(0.990529 0.028057 -1.1792e-20)
(1.19531 0.179931 -7.3899e-21)
(1.09894 -0.0270808 -2.62246e-21)
(1.10597 -0.111354 -4.09701e-22)
(1.26401 -0.113479 1.16297e-21)
(1.29292 -0.038233 2.61967e-22)
(0.999616 -0.00545763 8.78181e-25)
(1.0386 0.112216 -1.03361e-20)
(1.29154 -0.143276 4.61727e-21)
(1.20657 0.0605267 1.66646e-20)
(0.747734 0.131972 7.54244e-20)
(1.23684 -0.169659 1.26332e-21)
(1.07061 -0.0889484 -9.92056e-22)
(1.0003 -0.00891432 -1.50306e-22)
(1.31902 -0.0509359 1.01533e-22)
(1.29446 -0.0860616 -6.75631e-22)
(0.975408 -0.0252557 1.18338e-21)
(1.24866 0.172849 -2.43023e-21)
(1.00005 -0.00144987 -3.28224e-23)
(0.973512 -0.0435962 -1.88401e-22)
(1.0156 -0.0157565 -1.45673e-22)
(1.23588 -0.136342 9.60848e-23)
(0.989469 -0.0466654 4.8337e-22)
(0.999574 -0.000146212 6.16483e-25)
(0.987799 -0.0601695 1.46568e-21)
(1.3104 -0.0101686 -1.5359e-21)
(1.14059 -0.204433 -2.08393e-21)
(1.0479 -0.0788923 -1.33252e-22)
(0.961642 -0.0270656 -6.6259e-22)
(1.27967 -0.064664 -1.11374e-21)
(1.20149 -0.0756018 1.90197e-21)
(0.974648 -0.0559549 -4.70539e-22)
(0.947974 -0.00941429 8.90965e-22)
(1.00102 -0.00515518 -1.81547e-23)
(1.1349 -0.108714 5.26705e-22)
(1.0176 -0.150458 -1.58447e-22)
(1.01282 -0.00330445 1.54042e-23)
(1.03436 -0.0782182 1.05914e-21)
(1.29381 0.00544167 -4.4061e-21)
(1.10629 0.0700276 -2.95155e-20)
(1.25255 -0.0625751 6.89379e-22)
(0.999236 -0.000289056 5.78944e-24)
(0.84794 0.234749 -5.55451e-20)
(1.01299 -0.00169639 3.43337e-23)
(0.999976 -0.00157017 3.92544e-23)
(1.04358 -0.0114443 4.18883e-22)
(0.961773 -0.0392464 -6.10861e-22)
(1.00675 -0.0973254 1.52163e-22)
(0.90869 0.12275 -2.82617e-20)
(1.0241 -0.0596365 9.39391e-23)
(1.18281 -0.0363632 -1.9717e-21)
(1.01531 -0.130631 2.35382e-21)
(1.01198 -0.132374 -3.01886e-21)
(1.28546 0.148768 -1.33723e-20)
(0.994396 -0.0545619 -4.11218e-22)
(0.990148 -0.0842034 6.6081e-22)
(0.99677 -0.108587 1.00071e-21)
(0.999631 -4.96561e-05 6.15381e-24)
(1.17781 -0.139482 -2.42122e-21)
(0.820828 0.223445 -5.19761e-21)
(1.06456 -0.188188 8.70211e-22)
(0.959566 -0.0492778 -1.41752e-22)
(1.23927 0.165546 -2.652e-22)
(0.981199 -0.0533274 -9.43024e-23)
(1.14434 0.113705 -1.00865e-20)
(1.32659 0.0326933 -4.52552e-22)
(0.99636 -0.00570163 1.34482e-22)
(0.998433 -0.000195183 -2.1543e-23)
(1.09962 0.125396 3.35543e-21)
(0.760303 0.164959 2.44739e-20)
(1.04884 -0.1842 2.23379e-22)
(1.32994 0.0743174 1.12875e-21)
(1.31824 -0.0162183 -3.34188e-21)
(0.965577 -0.0439477 -2.71488e-22)
(0.965536 -0.0461251 -6.42718e-22)
(1.05604 0.141393 -1.51772e-21)
(1.12015 -0.015917 1.81735e-21)
(1.14857 -0.210275 4.33261e-21)
(1.05766 -0.153887 -2.06418e-21)
(0.977237 -0.00173682 4.53552e-23)
(1.06941 -0.0176162 1.05561e-21)
(0.869412 0.0625625 -1.07865e-20)
(1.19209 -0.0194834 -1.3048e-20)
(1.00032 -8.80312e-05 2.20261e-24)
(0.935278 0.182194 4.81096e-20)
(1.03649 -0.0700618 -9.88982e-22)
(1.00801 -0.099234 1.76302e-21)
(1.1827 0.227556 -1.426e-20)
(1.01833 -0.0256571 -1.66956e-22)
(0.989438 -0.00995365 -9.89092e-23)
(0.999313 -0.000494085 1.04573e-24)
(1.1693 -0.109335 -1.83539e-22)
(0.963399 -0.0207939 -4.8211e-22)
(1.00033 -1.54825e-05 2.21046e-24)
(1.33346 0.0715986 -2.85361e-21)
(1.23503 -0.201011 -1.94452e-21)
(1.03377 0.110279 -1.8013e-20)
(0.999215 -0.000111067 -4.53692e-24)
(1.00028 -0.00461781 -1.72471e-23)
(0.980034 -0.0546489 -4.53915e-22)
(1.00001 -9.7511e-05 2.06938e-25)
(1.04906 -0.189279 -1.14875e-21)
(1.16641 -0.211461 -2.04286e-21)
(0.999674 -0.00462683 1.22491e-23)
(1.00679 -0.0783196 -5.29601e-22)
(0.942586 -0.0155796 3.56119e-22)
(1.16422 0.204484 -1.7577e-21)
(0.997101 0.220488 1.07764e-20)
(0.996796 -0.0048622 2.63358e-23)
(1.0034 -0.00119821 1.83681e-23)
(0.993671 -0.102763 -2.6083e-21)
(0.982323 0.200303 3.52888e-20)
(1.00472 -0.0359527 4.98166e-22)
(0.958896 0.12773 -1.10991e-21)
(0.980865 -0.0126334 -4.1553e-23)
(0.742096 0.100642 -2.05324e-20)
(1.07716 0.0239545 -3.69693e-21)
(1.22883 0.0336393 -1.52498e-20)
(0.792545 0.131129 -2.21275e-20)
(1.2937 -0.133599 1.72375e-22)
(0.989532 -0.00315314 -1.56009e-23)
(1.17691 -0.097251 1.52806e-22)
(1.00928 -0.0373435 -5.54927e-23)
(0.99836 0.195823 8.70186e-21)
(1.04852 0.121813 2.42367e-20)
(0.969336 -0.00850203 2.04351e-22)
(1.25348 -0.174247 5.4204e-21)
(1.1528 -0.0459293 -2.74074e-22)
(1.0667 -0.0933044 -8.11874e-22)
(0.995251 -0.000322616 3.64801e-24)
(1.25511 -0.189828 4.87728e-21)
(1.00031 -3.45682e-05 3.15902e-24)
(1.15469 0.200528 9.20387e-21)
(0.94136 -0.014608 -1.32069e-21)
(0.990678 -0.0674618 -2.58828e-22)
(0.995788 -0.0326991 2.99233e-22)
(1.00623 -0.062964 1.93428e-21)
(1.29008 0.0411005 8.9323e-22)
(1.25327 -0.0559926 -2.45511e-21)
(0.998202 -6.16787e-05 -6.24542e-23)
(1.02739 -0.0575612 -7.16315e-22)
(0.999878 -0.000147843 7.95641e-25)
(0.746574 0.0931836 1.52184e-20)
(0.880339 0.056174 2.20482e-20)
(0.994688 -0.00114837 2.74689e-24)
(0.970935 -0.0136438 -2.47697e-22)
(1.03749 -0.0430788 -2.66063e-23)
(1.05404 0.127445 1.0407e-20)
(0.939392 -0.0233832 -7.47606e-22)
(1.32261 -0.0163524 -6.61878e-22)
(0.961704 -0.0504402 1.7643e-22)
(1.03863 0.189661 -7.59797e-22)
(1.23682 0.0345233 -1.64182e-21)
(0.962442 -0.0226399 -3.41913e-22)
(0.771464 0.0484266 -3.1682e-20)
(1.06088 -0.00299524 -9.47256e-22)
(1.06212 0.195921 -2.23394e-20)
(0.992305 -0.014936 1.64898e-23)
(1.0186 -0.15946 4.83342e-21)
(0.949028 0.00945827 -7.02833e-20)
(1.01548 -0.0471417 5.75357e-22)
(0.7542 0.176663 -1.1183e-20)
(1.07915 0.144067 1.2952e-21)
(0.776568 0.0552735 -7.52237e-21)
(0.990068 -0.00326133 1.39326e-23)
(0.991577 -0.000600277 1.6433e-23)
(1.0268 -0.102967 -5.21442e-22)
(1.19381 -0.0909455 -1.31464e-21)
(1.01691 -0.0254025 1.79493e-22)
(1.02685 -0.093291 -1.75116e-22)
(1.04504 0.173408 2.05787e-21)
(1.04131 0.207827 7.07881e-21)
(1.07933 0.00444616 7.89627e-24)
(0.988625 0.193556 -2.52727e-20)
(0.774252 0.191316 6.04034e-21)
(1.28878 0.0773185 1.03787e-20)
(0.997935 0.0144007 -4.73395e-20)
(1.0948 0.0601228 -9.43524e-21)
(1.00579 -0.0191107 -3.51883e-22)
(1.09489 0.131245 -1.10123e-21)
(0.988576 -0.0834972 -5.72715e-22)
(0.963468 -0.0493034 4.63051e-22)
(0.998631 -0.001356 1.42577e-24)
(1.05954 -0.0923363 1.87364e-21)
(1.10583 -0.18 -6.20437e-22)
(1.1563 0.0516917 7.20514e-21)
(1.10335 -0.0131473 3.26946e-21)
(1.00618 0.0623897 3.71273e-21)
(1.00926 -0.0544197 1.20089e-21)
(1.16222 -0.0361761 1.82203e-21)
(1.00836 0.0479622 -4.25132e-21)
(1.01055 -0.0391853 7.10356e-22)
(1.10115 -0.11501 9.47437e-22)
(0.999914 -0.000177545 -3.1844e-26)
(1.00051 -0.000244842 3.14704e-24)
(1.15187 0.0468599 -3.79203e-23)
(0.991318 -0.0725115 -7.45414e-22)
(0.969627 -0.0462307 7.36056e-22)
(1.00057 -0.000233392 -4.6671e-24)
(1.00011 -0.00320844 2.43754e-23)
(1.1497 -0.0507646 -4.81433e-22)
(0.999396 -7.40926e-05 8.06252e-24)
(1.30968 -0.0650672 -1.21183e-22)
(0.752873 0.074212 3.97882e-20)
(1.33131 0.0839326 4.92923e-22)
(1.2245 0.0640511 -6.02965e-22)
(0.965147 -0.0082579 -3.09661e-22)
(1.10422 0.195349 7.73604e-21)
(1.31815 -0.0443761 -3.07172e-22)
(1.00532 -0.0335417 -2.92144e-23)
(0.971592 -0.015206 -2.47171e-22)
(0.997258 -0.00413697 7.61889e-26)
(0.999252 -0.000439445 -1.45303e-24)
(1.00204 -0.005245 -4.21604e-23)
(0.996449 -0.0347485 2.56942e-22)
(1.0346 -0.160883 2.67123e-21)
(1.22537 0.102271 1.92595e-20)
(1.21912 -0.102795 -1.05315e-22)
(0.96209 -0.00398798 9.13818e-23)
(0.999887 -0.00010749 7.16923e-26)
(1.01015 0.115233 2.48566e-20)
(1.28491 -0.11136 2.62123e-21)
(1.27085 -0.155807 1.37927e-21)
(1.01806 -0.0485975 -6.4239e-22)
(1.3074 -0.0313118 1.50226e-21)
(1.05688 -0.0953403 -5.55133e-22)
(0.982414 -0.000909255 -6.52331e-23)
(1.00505 0.0396048 2.12556e-20)
(0.953327 0.00174179 -9.38119e-20)
(1.24059 0.220377 -1.63921e-20)
(0.989279 -0.000428199 -1.4722e-22)
(1.23362 0.22515 1.33035e-20)
(0.966072 -0.00592428 1.13667e-22)
(0.98427 -0.0500043 -5.85011e-22)
(1.30957 0.104963 -1.101e-20)
(1.0003 -0.000108454 4.13164e-24)
(0.989121 -0.0328674 -7.30306e-23)
(1.29959 0.029209 2.59764e-21)
(1.27292 0.0745596 1.18039e-20)
(0.963803 -0.0244816 -8.09385e-23)
(1.06252 0.125434 1.63339e-21)
(0.924035 0.244052 -2.32863e-21)
(1.03371 0.0605209 -4.82978e-20)
(0.959822 -0.0401848 9.58596e-22)
(0.949069 -0.00929972 -4.3273e-22)
(1.05242 -0.0752892 -2.00151e-22)
(1.15875 -0.0106031 4.2245e-22)
(1.04502 0.0267396 -1.15452e-20)
(0.994912 -0.00157091 -1.80741e-24)
(0.941968 0.0222598 -2.62683e-20)
(0.991721 -0.0514028 1.33944e-21)
(1.02355 -0.159773 -3.29155e-21)
(1.17588 -0.089495 4.50911e-22)
(0.838497 0.239962 7.89174e-20)
(1.23467 0.107084 -1.51591e-20)
(1.04179 0.123943 -2.54866e-20)
(1.17668 -0.208108 1.07669e-21)
(0.915813 0.00523103 -4.23912e-20)
(0.965379 -0.0205534 4.82947e-22)
(0.98579 -0.0481974 4.22743e-22)
(0.825033 0.025637 1.50754e-20)
(1.09327 -0.0371849 -7.59328e-22)
(1.03657 -0.150044 -4.7416e-22)
(1.0603 0.178302 -5.1673e-21)
(1.03261 0.182286 -1.62864e-20)
(0.975357 -0.0421883 -6.7157e-22)
(1.05486 0.0344001 -2.60105e-20)
(0.985342 0.209587 -4.66003e-21)
(1.03094 0.167208 2.13121e-20)
(1.14749 0.221978 6.18733e-21)
(1.05147 0.180913 3.37084e-20)
(1.14413 0.129426 -1.5808e-20)
(0.985482 -0.00398735 8.75245e-23)
(0.966603 -0.0222848 5.95731e-22)
(1.00313 -0.00841942 -2.31259e-23)
(1.00643 -0.129984 3.40162e-21)
(0.985872 0.0482743 -6.62834e-21)
(1.01122 -0.137791 1.975e-21)
(1.30539 0.00871532 -1.99011e-22)
(1.247 0.0079991 -7.73962e-21)
(0.970315 -0.0534823 5.22985e-22)
(1.3042 -0.0623681 -2.44094e-23)
(1.31743 0.0286914 -2.02865e-21)
(0.982648 0.020104 -2.03428e-21)
(1.29244 -0.0637065 3.32211e-22)
(0.999691 -0.00387209 -6.85746e-24)
(1.07374 -0.0173626 6.85572e-23)
(0.983539 -0.0538753 2.85865e-22)
(1.25054 -0.143125 1.17136e-22)
(1.26557 -0.148893 -2.87275e-21)
(1.01408 -0.146543 6.55727e-22)
(1.14425 0.210463 3.48556e-21)
(0.964262 0.23289 3.77878e-20)
(1.21521 -0.0812466 1.02918e-21)
(0.993405 0.0176153 2.09819e-20)
(0.756911 0.153885 -2.7444e-20)
(0.998322 -0.000117778 1.79377e-23)
(1.00377 -0.0012226 -1.25991e-24)
(0.996403 -0.00628473 -5.97044e-23)
(0.9703 -0.0089984 6.49802e-23)
(1.19583 0.117024 -1.12503e-20)
(0.823774 0.0292539 -3.25933e-20)
(1.19693 -0.0174209 1.12538e-20)
(1.1148 0.208979 4.67189e-21)
(0.980567 -0.0257481 -3.62175e-22)
(1.23539 0.188888 2.19058e-20)
(1.24161 0.207693 6.95294e-21)
(1.23242 -0.190915 7.55323e-22)
(0.954926 -0.0129188 4.37197e-22)
(0.940794 -0.0221064 4.64769e-22)
(1.31152 0.00680835 5.14558e-22)
(1.01317 -0.0481609 2.51309e-22)
(1.22035 -0.0970274 8.27286e-23)
(0.967549 -0.0428087 1.45408e-22)
(0.947717 -0.0414244 -1.33265e-21)
(1.07674 0.180237 3.62656e-20)
(0.9912 -0.00276689 3.13196e-23)
(1.02779 -0.0657709 -1.73672e-22)
(1.04367 0.203425 1.7464e-20)
(1.29855 -0.066677 -3.95492e-22)
(0.8603 0.199489 8.84468e-21)
(1.0144 -0.0946477 -9.08843e-22)
(1.08484 0.0206184 1.20882e-20)
(1.2558 -0.150437 3.06536e-21)
(0.998036 -0.0770857 3.01766e-22)
(0.949449 0.0166632 -9.54929e-21)
(0.976711 0.00110058 6.04837e-20)
(0.978875 0.0633437 -1.02977e-20)
(0.993148 -0.0368248 -5.8554e-22)
(0.854597 0.0377636 3.45531e-20)
(0.961951 -0.037019 4.82714e-22)
(0.949374 0.16847 1.33649e-21)
(1.13777 -0.0921054 -4.98513e-23)
(0.974674 0.101279 -5.76321e-21)
(0.980544 -0.051251 3.54805e-22)
(1.00005 -0.000252218 -3.54995e-25)
(0.973199 0.0888031 1.9313e-20)
(0.941958 0.150694 2.28076e-20)
(0.957709 0.183818 -3.65531e-20)
(0.974617 0.0765812 -2.24948e-20)
(1.13269 0.0077019 -3.98313e-20)
(1.17191 -0.042834 -7.82589e-23)
(1.16457 0.112115 -2.93515e-20)
(1.03392 -0.145285 1.1998e-21)
(0.992116 0.0391965 6.80097e-20)
(1.05781 0.111864 -3.12959e-20)
(1.27699 -0.111928 -3.10683e-21)
(1.10747 -0.0173811 -3.46743e-21)
(0.985927 -0.00378763 4.66494e-23)
(1.30017 -0.13175 -6.56505e-22)
(1.09407 0.181574 -5.88555e-21)
(0.948601 -0.0322537 3.2728e-23)
(0.966067 -0.00504185 -3.23203e-22)
(0.980289 0.0105065 -1.36205e-20)
(0.96404 0.110404 -4.17972e-20)
(0.988093 -0.0586851 -5.98595e-22)
(0.983803 0.11826 3.01885e-20)
(1.01588 -0.155291 1.14446e-21)
(1.30216 -0.0334167 -2.21974e-21)
(0.993042 -0.000340125 2.92791e-23)
(0.952188 0.120527 -2.36083e-20)
(0.938148 0.132936 6.06614e-20)
(0.770637 0.0841724 6.12173e-20)
(0.977711 0.217676 4.89737e-20)
(0.996531 -0.000409552 7.19359e-24)
(0.980733 -0.0279156 2.38613e-22)
(0.998447 -0.00139749 -1.1444e-23)
(0.993879 -0.0804324 -2.41592e-21)
(0.859861 0.152462 -1.27363e-20)
(1.24789 0.0585063 -1.91673e-20)
(1.12208 0.192119 -3.8465e-22)
(0.948244 -0.039731 8.54119e-22)
(1.09694 0.0656929 2.96404e-20)
(1.04013 -0.0421748 -1.241e-23)
(0.859059 0.17663 1.83286e-20)
(1.08907 -0.120838 -5.61075e-22)
(0.989252 0.0154422 2.32437e-20)
(0.993226 -0.000336044 1.16819e-23)
(0.88121 0.142408 -4.17285e-20)
(0.837855 0.188498 -5.14311e-20)
(0.978834 -0.0291782 -6.27833e-22)
(1.25925 -0.0252515 2.96758e-21)
(0.883804 0.119459 -4.16448e-20)
(0.995898 -0.000623888 -4.9778e-23)
(0.810983 0.0856973 -6.79367e-21)
(1.04827 -0.0835184 2.12221e-22)
(0.995958 -0.000419603 2.46248e-23)
(0.953157 -0.0142492 -3.07747e-22)
(1.06558 0.204159 -2.19635e-20)
(1.26075 0.0246187 -9.81704e-21)
(1.00373 -0.109361 1.55109e-21)
(1.01245 0.211526 1.91211e-21)
(0.825141 0.21363 3.44613e-21)
(1.233 0.200677 -2.38946e-20)
(1.06529 -0.0131349 -5.70629e-22)
(0.997046 -0.071745 4.74167e-22)
(1.16908 -0.102257 -6.23271e-23)
(0.967843 0.125042 3.43473e-20)
(0.832497 0.0865073 -3.90101e-21)
(0.759292 0.0801184 3.9616e-21)
(1.23556 0.0493527 3.1096e-21)
(1.00062 -0.0112801 3.29616e-23)
(0.974888 -0.00193271 -2.01707e-23)
(1.10244 0.185557 -2.08616e-20)
(1.00219 -0.00875616 2.52602e-23)
(0.982925 -0.00581363 -4.09899e-25)
(1.00342 -0.0137625 -1.73208e-23)
(0.993169 -0.0321713 -2.87668e-22)
(1.07873 -0.169576 2.24059e-21)
(1.16928 -0.192819 -1.42164e-21)
(0.922417 0.18547 -5.404e-20)
(1.02088 -0.053955 2.1287e-23)
(0.99883 -0.00112324 6.19916e-24)
(1.07246 0.113845 -5.22989e-22)
(1.28644 0.049413 7.84714e-21)
(1.00214 -0.0139238 -3.77226e-23)
(1.29753 -0.00906689 -2.68512e-21)
(1.00205 -0.00147152 4.03258e-24)
(1.23663 0.0184727 1.14508e-21)
(1.03447 0.0639115 3.39144e-20)
(0.977835 0.113689 -5.85661e-20)
(1.13489 -0.189651 1.62851e-21)
(1.24636 -0.0126408 -4.90886e-21)
(0.993258 -0.015303 -4.66332e-23)
(1.12302 -0.129273 1.63706e-22)
(0.99456 -0.00194694 -4.01421e-25)
(0.961375 0.142893 -6.09516e-20)
(0.917697 0.18051 1.65764e-20)
(1.19728 -0.206507 1.43208e-21)
(1.15887 -0.205864 1.35276e-21)
(1.12193 -0.201288 4.5415e-21)
(1.0313 -0.0959885 7.88659e-22)
(1.00127 0.2041 4.01478e-21)
(1.03527 -0.0881753 4.91391e-22)
(1.10261 -0.164962 7.53247e-22)
(1.06155 -0.181068 -1.04953e-21)
(1.11881 -0.1144 -6.91037e-22)
(0.790632 0.0853116 3.32347e-20)
(1.12016 -0.218622 -8.41045e-21)
(1.27975 -0.0811767 6.50169e-23)
(0.966174 0.0380769 1.19362e-20)
(0.994358 -0.000476377 -1.57271e-23)
(1.24806 -0.0444991 1.50581e-21)
(1.03887 -0.0798524 -7.33773e-22)
(1.06397 -0.167819 1.8128e-21)
(0.994987 -0.00119478 -4.66359e-24)
(0.999697 -0.00328309 -1.89746e-23)
(0.79139 0.108962 -5.64264e-20)
(1.11111 0.066602 2.23609e-20)
(1.19159 -0.213176 5.11854e-21)
(1.30889 -0.11004 -8.24175e-22)
(1.13347 0.113892 -1.17582e-20)
(0.991143 0.11462 -4.63828e-21)
(1.0647 0.117557 9.40842e-21)
(1.22597 -0.152632 -2.66341e-21)
(0.981165 -0.0575161 9.75133e-22)
(0.993158 -0.0493257 -3.52797e-22)
(0.984964 -0.0521899 -9.16481e-23)
(1.08853 0.113262 -3.05889e-20)
(0.966213 -0.00639395 3.10807e-22)
(1.00198 -0.0734867 7.1643e-22)
(0.999626 -5.02049e-05 -2.14687e-24)
(0.968518 -0.0219129 -9.85748e-22)
(0.997421 -0.000709187 -7.05543e-25)
(1.09853 -0.181326 1.68522e-21)
(1.05056 0.202319 -2.07296e-20)
(1.04318 -0.150602 6.82813e-22)
(0.976316 0.181062 2.3067e-21)
(0.992907 0.177681 -5.43228e-20)
(0.963539 -0.0471839 -8.86451e-23)
(0.984934 -0.0316821 6.83872e-23)