/*--------------------------------*- C++ -*----------------------------------*\
  =========                 |
  \\      /  F ield         | OpenFOAM: The Open Source CFD Toolbox
   \\    /   O peration     | Website:  https://openfoam.org
    \\  /    A nd           | Version:  7
     \\/     M anipulation  |
\*---------------------------------------------------------------------------*/
FoamFile
{
    version     2.0;
    format      ascii;
    class       volScalarField;
    location    "13";
    object      p;
}
// * * * * * * * * * * * * * * * * * * * * * * * * * * * * * * * * * * * * * //

dimensions      [0 2 -2 0 0 0 0];

internalField   nonuniform List<scalar> 
29659
(
0.0244821
0.287738
-0.0246468
-0.0943048
-0.00685538
-0.102356
-0.0344884
0.0237592
0.00558386
0.000461391
0.0158989
-0.0129103
-0.00142666
-9.96307e-05
0.229315
-0.0166668
-0.000558942
0.101981
-0.00612148
-0.0289063
-0.00248614
0.00523911
-0.0249339
-0.00599735
1.18103
0.285895
-0.00153003
0.972577
0.21424
-0.00471367
0.0436992
0.134004
-0.144155
-0.0179688
0.987024
-0.0186453
0.310112
-0.0741375
0.0157545
0.0151887
0.00114906
-0.0451066
-0.000504659
-0.0481607
6.15537e-05
-0.00421
-0.0113582
0.000159018
0.00920095
0.302444
-0.0434917
-0.083441
0.138288
-0.099135
-0.0163041
0.207078
-0.00964597
-0.00255734
-0.0125308
-0.0434965
-0.00022081
-0.00594147
0.0291943
-0.016322
0.471778
1.11244
-0.0208584
-0.0234252
1.05726
0.00120059
0.283233
0.798792
0.00642899
1.09449
-0.0216014
0.0269423
0.167501
-0.0662545
-0.000170974
-0.0389944
-0.0920428
0.386648
0.0243934
-3.33117e-05
-0.0295206
-0.168316
0.540489
-0.00147991
-0.0013805
-0.134994
-0.0589969
-0.0668778
0.00847138
0.131123
-0.13897
0.536483
-0.0755842
0.00125432
-0.104625
0.268426
-0.00017926
-0.0624587
-0.000214651
0.0946147
-0.085439
0.242107
0.675468
-0.0013292
-5.86558e-05
-0.133523
-0.143963
0.0301437
4.25357e-06
-0.00437601
-0.000555634
0.776371
0.411638
-0.031437
2.42188e-05
0.0074816
-0.0703569
0.30681
-0.017209
1.10706
0.00299081
0.0180296
0.110436
-0.0344698
0.0112302
-1.10466e-05
-0.044627
0.15679
0.722607
-0.0474297
0.0936934
0.0424278
0.490835
-0.0637499
-0.197493
0.260528
0.0279797
-0.117435
-0.115904
3.00442e-06
-9.95969e-06
-0.0070178
-0.0106183
-0.112463
-0.140346
0.0578273
0.0709877
0.0354183
0.00112859
-0.000436868
0.408748
0.00133927
-0.0210745
0.456061
0.493941
-0.0389004
-0.0884421
-0.0918048
0.215112
-0.000179635
-1.0794e-05
-0.0316342
-0.112513
8.6049e-05
-3.79396e-05
-0.0190318
2.6162e-05
0.0157377
0.469523
-0.0627074
-0.103851
-0.0138165
0.0057079
-0.0644711
-0.00355826
-0.0046336
-6.3287e-05
-0.00921442
0.533102
-0.0219866
-0.196624
0.405174
-0.0172486
-0.0479708
0.0105261
-0.00439677
-0.000844097
0.00594576
1.12782
0.401915
-0.0369134
-0.0202214
0.926498
0.361436
-0.137172
0.00314224
-0.0658273
-0.124492
-0.0123605
0.00225974
0.475386
-0.0183544
0.0190076
-0.112587
-0.136794
-0.00011891
0.83851
-0.0029325
-3.75236e-05
-0.00158969
-0.0554781
0.0532533
-0.00620471
0.0185228
-0.00594659
-0.137141
1.44688e-05
0.00117712
-0.00640148
0.199895
-0.00784813
-0.00417031
0.135541
0.000284091
5.68426e-05
0.0145468
-0.0722325
-0.0572352
-0.0129515
0.280388
-0.0393504
0.0373861
-0.000104149
-0.00831603
0.0021033
-0.0600614
-0.193074
-0.00387126
0.00121724
-0.00439348
0.00781763
-0.0281577
-0.000171873
-0.1584
5.46841e-05
0.202936
-0.00932554
0.000334252
0.245854
-0.125963
0.000640706
-1.31142e-05
-0.117646
-0.185464
-0.0240561
-0.0379736
0.0707447
0.510333
0.000168682
-0.0692211
-0.0368741
0.948962
-0.0221258
0.399573
0.0351381
-0.000708049
1.35877
-0.00158362
-0.10955
-0.135411
0.00613072
0.0412169
-0.0225336
0.71784
-0.00954872
-0.0474483
-0.00084534
0.338015
-0.00804457
0.549307
-0.00148843
-0.0159043
0.895787
0.174073
0.135297
-0.0836212
-0.000481218
0.00758915
-0.000589409
-3.32466e-05
0.187301
7.46177e-05
-0.0515415
-0.0410584
1.19509
0.711807
-0.111707
-0.0495828
-0.0546739
0.027413
0.00789275
-0.0486214
-0.11759
0.522499
0.8147
-0.0036113
0.662802
0.182337
-0.0152591
0.0309764
-0.00455229
-0.0199078
-0.0147683
-0.00737646
-0.00020234
-0.00509496
0.0387429
0.33656
0.00446292
-0.0710969
0.0360541
-0.000132757
-0.114538
1.26479
-0.0173989
-0.00397941
0.0330556
-0.0368984
0.230037
-0.00416619
-0.000128311
3.32969e-06
-0.00744492
0.903018
0.0660578
-0.193447
-1.12298e-05
-0.195058
0.144844
-0.0141014
-0.127923
-0.00364927
-0.00130161
-0.0653214
0.00250596
-0.00190554
0.0292145
0.148637
-0.000545971
0.00592968
0.303896
-0.0656741
0.00110992
0.00118512
0.760725
-0.0587068
-0.00454463
0.378526
0.973242
-0.0561938
-0.0194999
0.0621132
-0.00222958
-0.0234388
-0.00933696
0.353627
-0.000132102
0.0281452
-0.129786
0.736958
1.07607
-0.0167432
-0.024642
0.488171
-0.0454011
-0.000196725
0.0952413
0.210889
0.214407
-0.0201947
0.0703644
0.945143
-0.16234
0.834918
0.76566
-5.24429e-05
0.0402642
-0.149337
-0.00825655
0.00455092
0.982388
0.0658017
0.000739596
-0.0877974
-0.127148
-0.0155898
-0.000407076
0.534514
0.403978
6.51704e-05
0.0116082
0.0153807
-0.101692
-0.0832551
0.000105982
-1.06673e-05
0.00134525
0.238958
-0.0735905
0.605332
-0.12845
-0.0479089
-0.0577709
0.370534
0.0378227
-0.00350505
0.0229916
0.0023303
0.836537
-0.0682855
0.00303802
-0.0209396
0.0347607
-0.00439765
-0.0338603
0.000613731
0.000631415
1.28324
-0.0225845
-0.0142322
-0.00138957
-0.00217841
0.48055
-0.130615
-0.0657753
7.97268e-06
-3.14594e-05
-0.0705113
-0.0189281
-0.0147005
0.0484795
0.0176824
-0.00759469
0.0715093
-0.0477151
0.819074
0.0142426
0.000653846
-0.111405
-0.0632933
0.0602177
-0.00967906
-0.0653708
-5.89092e-05
1.05058
0.0549186
0.00018062
1.12791
-0.0679275
-6.28253e-05
0.00412247
-0.114084
0.032187
0.119343
-8.55829e-06
-0.0224376
-0.0162863
-0.0151347
-0.00143039
-0.0231479
0.936198
-0.0234064
-0.0327143
0.429363
-0.00810441
0.869723
-6.90179e-05
-0.0437412
-0.115316
-0.0639878
-0.0598038
-0.00458715
0.00526917
-0.000573495
-0.0517069
0.025117
-0.000125618
1.12231e-05
-0.0178365
0.835401
0.0210991
0.00720066
-0.138605
-9.1814e-06
0.00277166
-0.000200173
0.0268955
-0.0478841
-0.00119785
-0.0224021
-0.0343772
0.00291316
-7.30524e-05
-0.020579
-0.00124759
0.132184
0.668733
0.501868
-0.0117513
0.0173988
0.072284
-0.000404156
-0.0100782
-2.0211e-05
0.776094
-0.0379236
0.047815
-0.0464853
0.0047624
-0.00903721
-0.000369868
1.3707e-05
-0.0137835
0.124181
0.504619
0.00355566
-0.100624
-0.0676619
-0.0221729
0.0607787
-0.00390777
0.00319624
-0.0158797
-0.000344879
-0.116975
0.563372
0.379708
-0.0605193
0.551726
0.000183049
6.68228e-06
0.0974938
0.0510663
1.09738
-0.101279
-0.0577863
0.045235
0.00337832
-0.0165882
0.00128333
-0.0295363
-0.0355114
-4.33881e-05
-0.0026688
0.733316
-0.000486572
1.0128
-1.77028e-05
-0.0184283
0.125573
0.0786258
0.00300206
0.000491757
0.816734
0.137698
-0.117843
0.394393
-0.0184579
-0.0364262
-0.0117243
0.3152
-0.0690098
0.0320902
-0.021459
-7.57955e-06
-0.00386488
0.0171287
-0.0484468
-0.0591781
-0.110555
-0.048963
0.259164
-0.00624926
-0.134517
-0.0376872
5.09281e-05
-0.0332613
0.0259709
0.263428
-0.072783
-1.72346e-05
-0.0497633
-0.00129718
0.00403769
-0.159266
0.603254
0.00257581
-0.0328116
-0.0450843
0.177479
0.91853
0.00526014
-0.0131377
0.379545
0.338433
-0.041154
0.0143594
-0.121322
-7.7612e-06
-0.105738
0.000199812
-0.046292
-0.000113174
3.45587e-05
-0.0170825
0.0333819
0.629393
0.0279348
0.0337594
-4.55865e-06
-0.0179857
0.000213149
-0.0094198
3.58492e-05
0.126918
-0.00147268
0.368819
-0.000437272
-0.035138
-0.0931117
-0.0122868
0.909582
-0.0449552
-0.109271
-0.0162225
0.120342
-0.107866
0.0787092
-0.0402526
-7.65215e-06
-0.0145339
-0.0114972
0.000673221
0.000203558
0.303812
-0.014245
0.193035
-0.0121587
0.00246949
0.0874148
0.000435096
-7.29218e-05
-0.104401
-0.0101864
4.49951e-05
0.455448
1.21349
-0.000687433
-0.0897326
9.82972e-06
0.966077
-0.0245001
-0.0936023
6.0702e-05
0.0333223
0.149045
0.173798
0.117108
-0.00129597
-0.000508869
-0.041924
-5.94298e-06
3.72376e-06
-0.0702607
-0.0733799
-0.108473
1.15291
0.000537096
-0.0741201
0.0223853
-6.64499e-05
-0.00371271
3.21407e-05
-0.0173419
9.12443e-05
-0.0363042
0.076275
0.857353
0.116945
-0.000890078
0.00128455
-0.110515
0.188973
-0.00903642
1.50371e-05
0.384747
-0.196059
-0.0984298
-0.038452
-8.38499e-05
-0.000881892
-0.201529
-0.0548039
0.31413
0.818073
-0.106847
-0.00376801
-6.63671e-05
-0.110114
-0.143219
-0.000663276
0.00805845
-0.0397965
-0.0135656
0.813565
-0.00386406
0.00861652
0.168124
-0.0219162
1.10403
1.1051
-0.000128838
-0.000177013
-0.0443345
0.0448798
-0.0869985
0.0154361
-0.0212174
-0.00176032
0.927915
0.360078
0.00659812
1.3409
7.51208e-06
0.23997
-0.127075
-0.07214
0.000219331
-0.0901464
0.248362
0.0429755
0.157351
-0.00139483
-0.00149549
-0.00853014
-0.0100649
-0.0369148
-0.00323776
0.261545
-0.0161204
-0.0151283
-0.140786
0.745284
0.044191
0.0858934
-0.00125073
-0.0015804
-0.0532061
0.00283896
-0.007566
-8.03294e-05
-0.00113778
0.249178
0.81918
-0.00043122
0.241473
-4.88511e-05
-0.00974333
-7.44885e-05
0.0158261
-0.0303282
-0.000154327
-0.00015886
-0.131362
-4.56017e-06
0.119154
-0.0622873
-0.000163739
0.352112
-3.02261e-05
-0.00124439
-0.000309455
-0.0145481
-0.00119734
-0.0175489
-0.143333
-0.00107155
0.0124258
-7.37314e-05
0.619361
0.00542031
0.0417896
-0.0818909
-0.0581452
-0.00342869
0.00851668
0.437674
-0.0655163
0.310383
-0.0994653
-0.0100607
-1.23258e-05
-0.0163817
0.705157
0.388827
-0.0856676
-0.123482
0.595506
-0.0236192
-0.120823
-7.38856e-05
-0.0647882
-0.00250286
1.30303
-0.109737
-0.000302741
-0.133053
-0.0674141
0.506738
-0.00747685
-0.0701624
-0.010779
-0.0159408
-0.00376554
0.506195
-0.19005
-0.0504136
-0.0400087
-0.0348362
0.0162875
0.587281
-0.0488684
0.397664
0.00792872
-0.0574495
1.03107
-0.0240121
-0.0007338
0.493758
0.749089
-0.00614478
0.0366612
-0.0185079
-0.0809305
0.3844
-0.110948
-9.02403e-05
-0.0206544
6.99985e-05
-0.0127252
-9.49548e-05
-0.012883
-0.00284734
-0.00904523
-0.0863701
-0.00180654
-0.0015251
-0.00330712
0.426345
-0.00598871
-0.00923529
-0.00857815
0.350007
0.0150508
-0.00114416
0.685541
1.08791
-0.0506615
0.91862
-0.0446921
0.666287
0.0155172
-0.0302797
0.00728111
-0.00137886
2.77134e-05
0.0072257
-0.0311303
-0.0505745
0.387686
-0.058145
-0.0513176
-0.00266523
-0.0741485
-0.0610386
0.0184779
-1.40859e-05
0.0295483
0.156263
0.771244
0.0486469
-0.0343055
0.306327
-0.00105076
0.0950516
-0.0456311
0.00167169
-0.131384
0.00878854
0.677249
-0.00571154
-0.00155858
-0.000433547
-0.116202
-0.00356985
1.31233
1.35546
0.0323311
-0.000125608
0.0225128
-6.54492e-05
0.146164
-0.00154004
0.05793
1.18965
0.0691034
2.97399e-05
-0.0210883
-6.12296e-05
-0.191795
-0.0856807
0.944062
0.000565034
0.0311711
0.00820751
0.000711655
-0.00606793
-0.000873108
-0.0155451
-0.0876963
-0.0571645
0.0185727
0.34415
-0.0334981
0.0167008
-0.0506044
-0.00481684
-0.0669379
1.76224e-05
8.4754e-05
-0.0057855
0.072408
-0.0690627
-0.0400294
-0.0094531
0.00697234
-0.0395517
0.345487
-0.0320858
-1.30378e-05
-0.125944
0.86237
-0.0468467
-0.0301274
0.149719
-4.75125e-05
-0.00181524
-0.0697348
-0.000104369
-0.00121249
-6.57083e-05
1.34189
0.0227045
0.00920085
2.93597e-07
2.45444e-06
-5.35586e-05
-5.88688e-06
-0.0556133
0.753476
-0.0853912
-0.00128071
-0.000462733
-0.0131567
0.946483
-0.115663
0.836574
0.0577005
0.294923
-0.000394393
0.939262
-0.00557698
-0.023216
0.0347044
0.0214184
0.0243655
0.385584
-0.0977586
0.927037
0.524165
-0.0201528
-0.0672437
0.00594166
-0.0706457
-3.54869e-05
-0.00237668
0.00675335
0.15767
-0.0161791
-0.0558577
-0.0081214
1.14095
-0.140334
-0.000112176
-9.3049e-05
0.954652
-0.0121073
0.0059687
-0.0320231
-0.0055557
-0.0367222
-0.0236505
-0.0389191
0.15232
0.0654984
-0.0243459
-0.0342495
0.000143608
-0.0140072
-0.00264903
-0.0192495
-8.97633e-05
8.56283e-05
-0.0396705
-0.0481562
0.915348
-0.0439047
-0.000543371
-0.00372065
-0.000810726
0.68601
-0.0391903
-0.00011362
-0.0627953
-0.0108933
-0.00857124
-0.065919
-0.0765206
0.0159197
0.129108
-0.130098
0.00011447
0.0139536
-0.0318844
-4.18032e-05
-0.000184522
0.241668
0.182173
0.0123692
-0.1133
-0.112528
0.00117029
0.97901
0.000115133
-0.0363789
0.78819
-0.0402403
-0.0849473
4.51306e-06
0.000298408
-0.0844793
-0.022097
0.00315197
-0.0756727
0.468227
0.412581
0.00151083
0.000510645
0.388798
-0.0294108
-4.26911e-05
-0.00350366
-0.065075
-0.0498972
-0.022984
-0.00435941
0.255291
1.89918e-05
0.162191
0.528668
3.57011e-05
0.0251861
-0.00108584
-0.146848
-0.0315959
-0.00159404
0.0602789
0.000380599
0.448364
0.00312254
0.0482671
0.0416514
1.19932
0.749943
-0.1217
-0.0160842
4.78752e-06
-0.000778157
-0.0292584
0.301145
0.564247
-0.0752918
-0.0135316
-0.0347129
-0.0132894
0.291561
-0.000467417
0.909694
0.0529224
7.5927e-05
3.8982e-05
0.000172349
-0.0264165
-0.0362793
0.00140507
0.0990276
0.217671
-0.112172
0.00102967
0.000100109
-0.0467599
-0.000106408
-0.00573812
-0.022449
-0.00148278
0.0490224
0.00886733
-0.00275146
-0.00755196
-0.031692
0.750812
0.773392
0.075367
-4.83196e-05
-0.00113267
0.494749
-0.00095314
-0.148469
-0.000448741
-0.0391309
-0.143387
-0.000459572
-0.000501779
-0.0630656
0.00264118
-0.000179558
-0.00263246
0.378686
-0.0674842
-0.000110526
0.186476
0.679759
0.695427
0.00115036
-0.145526
-0.0181086
0.858009
-0.123376
-0.126222
-0.00739046
-0.0249921
0.0558117
-0.0493067
0.6984
0.152908
-0.000391435
-0.103112
-0.138056
-0.00736113
-6.70438e-06
-0.00352627
0.420625
-0.00042206
0.00254116
-0.00770991
-0.00231723
0.0171079
0.0555128
-0.000403675
-0.000280816
-0.0125116
-0.144611
-0.0679456
-0.134928
0.484709
-0.00333195
-0.000579756
-0.0682412
-0.0457549
0.018643
0.0254512
7.24397e-05
0.139024
0.281049
0.035754
0.0466498
-0.00125822
-0.0254457
0.0159088
0.00240823
-0.000170478
-0.0175622
-0.0076535
-0.00145189
-0.0211195
-0.0016626
0.332028
-0.017165
-0.194613
-0.0450951
-0.0203634
0.0221689
0.956143
-0.0824885
-0.000285616
0.933569
0.3187
0.0145417
-0.0110902
0.0141387
0.00995216
0.309905
0.000606665
-0.00531821
1.18772
0.582569
0.55386
-0.0836804
-0.00269498
-0.00237032
-0.000109768
-0.00250424
0.461528
0.158144
-0.00508988
-0.00848937
-0.000743389
-0.0290325
1.12157
0.802519
0.151926
-0.00535078
-0.119287
-0.0084295
-0.00142347
-0.0382018
0.0268082
-0.0512962
-0.00664854
0.00160245
-0.154244
-0.146696
0.0568593
-0.0463123
-0.0065989
-0.0486214
-0.000428147
-0.013044
-0.00135618
0.616663
4.58217e-05
1.23149e-06
-0.0451102
-0.0370301
-0.0537124
0.0729738
2.01672e-05
-0.152254
0.122031
0.383878
1.28458
-0.0086982
-0.154767
0.0569871
-0.00397468
0.094259
-0.00118126
0.0194753
-0.000413434
0.424149
-0.0958266
0.0198781
0.222555
0.225394
0.00266103
0.00550489
3.37161e-06
0.828443
-1.77479e-05
-0.0844168
0.000576009
0.00305098
0.343594
0.194022
-0.130967
-0.0727067
-0.00767799
1.35231
-0.13508
4.72913e-06
-0.0289761
-0.000130908
-0.0265621
0.197936
0.388738
0.0015974
-0.0651949
-0.0175449
0.289029
0.0333273
-0.060175
1.15201
-0.0184376
9.25419e-05
-0.184972
1.20496
0.00365883
0.178034
-0.0805715
0.264353
0.00344371
0.0616014
-0.141681
0.0103906
0.103053
-0.043285
0.29572
-0.0485268
-0.0360175
-0.00154429
-0.00155299
1.02835
-4.16271e-05
-0.0101639
-8.43474e-05
-0.0150433
0.000606338
-0.0135103
0.414406
-1.59088e-05
-0.00195141
0.0736304
-0.198111
-0.0429062
0.00203399
0.835791
-0.0936052
0.335518
-0.0221145
0.303027
0.0128503
-0.00144573
-0.0721879
0.00137505
1.05586
-0.0499302
-0.000271035
0.00413059
0.27741
-0.0208829
-0.00135542
-0.000292938
-0.143006
-0.00484892
-0.0181471
-0.132427
1.39724e-06
-0.127286
0.000686227
0.70256
-0.018974
0.290699
0.00828503
-0.00690169
0.498817
-0.0995135
-0.182912
-0.00810858
-0.148464
0.514718
0.53004
-0.0260975
-5.99979e-05
-0.0287555
0.00852858
-1.72491e-05
0.0993026
0.774858
0.0233291
0.00287462
0.0172742
-0.129441
-0.000362514
0.148713
0.090837
0.138223
0.0245601
0.0514108
-0.000773871
0.346524
-0.084448
-0.204109
-0.00191623
0.0378187
0.279448
0.00143273
-0.133391
0.427882
-0.0723061
-0.135097
-0.139729
-0.140798
-0.143555
0.0992156
0.435987
-0.161676
-3.37626e-05
0.00147743
-0.0387837
-0.00336122
0.0152817
-3.97459e-05
-0.0106871
0.00731555
-0.000168095
0.108307
-0.00101479
0.234994
-0.0609256
-0.01068
-0.0128382
-0.01597
-0.122646
-0.0109205
-0.00202057
0.0395927
0.148969
0.0084166
-0.0614705
-0.00552001
0.0547801
-0.0176531
-0.0358546
-0.137916
-0.0296166
-0.000102327
-0.0283998
0.931806
2.28111e-05
0.133339
-0.0750543
1.12286
0.0916541
-0.087031
-5.93714e-06
0.00305517
-0.152675
-5.0813e-05
-0.00507677
-1.19712e-05
-0.13228
0.00833067
-0.136701
-0.0428428
-0.000279961
0.540785
0.526768
-0.0661474
0.000786551
-0.000374062
-3.31313e-05
-0.00014093
0.987724
-0.00251565
0.00417436
0.0406146
0.0017051
-0.00116401
-0.140554
-0.000578218
0.0866382
0.00463943
-0.00397926
-0.00144294
-0.0479428
-0.0768183
0.344583
0.162971
-0.000354204
-0.0246536
0.000955895
-0.0945697
-0.00120587
0.249803
-0.0164129
1.34928
-0.0272043
-0.00277326
0.142271
-0.0355323
0.691566
-0.0780092
-0.0212108
-0.0243882
0.0342855
-0.00685865
-1.34341e-05
-0.0156469
0.598006
-0.081999
-0.00611548
-0.0780822
-0.0506494
0.295263
-0.00100971
0.53378
-0.00390719
-0.119798
-0.00105438
0.024753
0.0863502
-0.00863905
0.617915
-0.000944597
0.0621521
0.168717
0.000831957
-0.000308235
1.09325
0.121499
-0.00177445
0.0560884
0.0375949
0.00018843
-0.0980909
-0.0416268
-0.188416
-0.0196338
0.674448
0.00790873
0.212637
-0.000805343
0.801494
-0.131765
-0.0100209
0.0116126
0.0591008
-0.120821
-0.157492
-0.0162424
4.771e-05
1.22901
-0.0424872
0.00146747
-0.046307
-0.0743634
0.641658
0.00554959
-0.0308228
-0.000136422
0.127881
0.0150383
-0.0721185
0.00145913
-0.00660717
-0.0528096
4.68827e-05
-0.0976927
-0.00301178
-0.0280569
-0.120832
0.580862
-0.0194582
0.0632002
-0.0728666
-0.0591377
-0.000110063
0.000220685
-0.00724772
4.93206e-05
-0.0213607
-0.0111466
-0.00399832
-3.77851e-05
1.0803
0.00937397
0.000558726
-0.000117933
-0.00409264
0.608528
-0.0995752
1.23178
0.369848
0.0420954
0.563508
-4.62647e-05
-0.027255
-0.00166327
-0.00476053
0.387296
-0.0191662
1.23244
0.503947
-0.106484
0.53827
0.0166433
-0.027064
0.00414897
-0.073887
-0.00761524
-0.0978606
-0.106057
-0.00578643
0.52677
-0.0189543
0.000219464
-0.00827485
-0.00133312
-0.065082
-0.000368826
-0.00246338
-7.15579e-05
0.315502
-0.153322
0.54332
0.0531397
-0.00532697
-0.0617402
-0.0382033
0.140761
-0.00589081
-0.00209333
-0.12351
-0.0854566
0.0189061
-0.0811479
-0.00862663
0.0188748
0.00467528
2.14459e-05
0.268576
-0.000120499
0.10916
-0.00160918
3.30454e-06
0.00368283
-0.00135092
-0.00240031
-0.0305409
0.318087
0.293294
-0.0383642
-0.0242328
0.00541035
-0.0098773
-0.0196559
-0.00020278
-0.00100586
0.00123855
0.223689
-0.0166196
-0.106921
-0.0913005
-0.004487
-0.0423256
-0.0246175
-0.00334811
0.00999232
-0.023985
0.477855
-0.12679
0.0110704
0.00341361
-0.0720723
1.20747
-0.0192514
-0.00949514
0.0146721
0.1592
0.00754558
-0.00610617
0.528639
-0.000763606
0.0850976
-0.0441517
-0.0983599
0.0120045
-0.00726059
-0.0106886
0.0791403
-0.006997
-0.00126505
-0.000631364
0.00472837
-0.000508208
0.0608225
-0.0180775
-0.00397657
-4.41185e-05
0.319136
-0.000117822
-0.0591135
0.153719
-0.0455547
0.000198236
0.22144
-0.0732339
0.346142
-0.000156418
-0.0076807
0.140484
0.000285044
0.00932055
-0.00876597
0.0198972
-0.0398299
-0.061746
-0.0169992
-0.00520977
0.0188158
0.0395104
0.0614868
-0.000410714
0.230945
-0.0764683
-0.00646202
-0.0134312
0.000709853
-0.104422
0.000107097
0.940901
0.395229
-0.00100503
-0.0408317
9.84279e-05
-0.00426881
-0.0106352
-0.0293397
0.318571
0.23535
0.0321797
0.0193565
-0.138204
0.0700292
0.0676866
0.0778916
-0.0969545
0.0309645
0.39781
-0.01843
0.775138
-0.00183688
-0.0210715
-0.0923541
-0.000231159
-0.00150769
-0.000101234
0.770242
-0.0199062
0.000448048
-0.0297765
-0.00966142
-0.000680403
-0.0252847
0.499409
0.00178276
0.0207604
-0.0556086
-0.00103187
-0.00881461
-0.00159983
1.25226
0.000349578
3.36393e-05
-0.00382331
-0.0273105
0.105313
0.000945716
0.0243165
0.150075
-0.000360812
0.00382276
-0.136896
0.0554326
-0.0755518
6.12062e-07
0.00057574
-0.00380708
0.0608124
0.619018
0.181745
-0.0652973
9.4577e-07
-0.0961148
-0.00504105
-0.0238712
-0.023086
0.353357
0.897694
-0.000247031
0.294933
0.470518
-0.0185288
-0.0303534
-0.0433765
-0.0244315
0.000161425
-0.0754654
-0.0163861
-0.000291469
-0.00109667
-0.00303658
-0.00365834
-0.00133401
0.597018
0.592314
0.312291
-1.15304e-05
-0.0438134
0.0425173
0.206857
0.954114
-0.000982497
-0.0382083
-0.0347727
0.487064
-0.0359598
-0.018003
-0.00752579
0.303097
0.000504029
-0.0010138
-0.0470965
-0.0754818
0.24617
0.0746888
-0.0752805
-0.0443579
0.0787845
0.0380449
-0.0908612
0.0130709
0.00392662
0.207882
-0.000714011
-0.00123703
0.171276
0.000336902
0.0504373
0.0598679
-4.98549e-05
0.377337
-0.0199691
-0.00839408
1.28698
-0.0685668
-0.0176186
-0.0714141
-0.00505465
0.887116
0.00209207
1.21222
-0.000305576
-0.027049
1.23584
0.012837
0.875801
-0.0108603
-5.11446e-05
-0.0440614
0.872842
-0.0030179
-0.0125433
-0.0153306
-0.0019394
-0.0398093
0.899738
0.205825
-1.99235e-05
0.0377303
-0.00705367
0.0563429
-0.00172609
0.0435746
-0.00496787
-0.000953292
0.850805
0.909383
0.863296
-0.0953012
0.0209515
0.000220399
-0.105103
0.559337
0.0303661
0.000394351
-0.109752
0.00104535
-0.00023828
0.908274
0.000189756
0.00783713
-0.00365373
-0.0170666
0.875248
0.889674
0.930082
0.0222268
0.000826801
0.406941
0.0141729
0.0463009
-0.0171213
9.88086e-05
-0.00560207
-5.57125e-05
-0.00857486
-0.00145013
-0.010873
-0.000176004
0.286777
0.00388906
-0.125317
-0.0172141
-0.130507
-0.0304282
-0.00150168
0.654442
-0.0202037
-6.36665e-05
-8.74203e-05
1.18772
3.57783e-05
0.0213195
0.105818
-0.0334814
0.558579
-0.0098569
-0.0796831
-0.0677967
-0.00104227
0.000189911
0.506592
0.920294
-0.00293395
-0.039879
-0.00048575
0.892998
1.13887
-0.00273913
-0.012208
0.0361977
0.00564514
-0.0452432
7.18478e-05
0.0189388
-0.0691736
0.106812
0.625917
-0.00286924
0.0537404
0.158517
0.0526367
-0.0815174
0.0531005
1.10088
0.333514
-0.0983482
0.900066
-0.00115139
0.95144
-0.0135946
0.761797
0.142037
-0.0095203
0.0672308
0.00443757
0.0330154
-0.133739
-0.00130057
-0.0430078
0.725852
-0.0482619
0.0471536
-0.00279843
-0.011594
0.31944
-0.0171478
-0.0670017
0.00126339
-0.00682807
-0.0439735
-0.00406211
0.00361059
-0.0164503
-0.000982241
0.00445843
0.743416
0.00399489
-0.0295238
-0.106109
-0.0531592
-0.115841
-0.142434
0.00773954
-9.73861e-06
-6.35433e-05
0.476476
-0.0986105
8.23556e-05
-0.0824363
0.333777
-0.107958
-0.0275718
0.000176323
-0.00355171
-0.0841544
0.251681
-0.0158304
-0.000939874
-0.0839693
-0.0357935
1.24157
0.206587
0.126764
-0.090486
-6.00452e-06
-0.0124211
0.120187
-0.000735484
2.21059e-05
0.309084
0.183078
0.00108372
-0.00163578
0.0146742
-0.0663368
0.0190308
0.0150665
-0.0276814
7.15995e-05
0.413329
0.00102369
-0.00125154
-0.000481538
-0.000449483
-0.00033246
0.150791
0.00167059
-0.00517022
-0.0175051
-0.00873505
0.0529348
-0.0099301
-0.0750639
-0.0190097
0.804373
0.650396
-0.000949302
-0.00272172
0.177213
-0.00155078
-0.0372344
0.104253
0.0861458
-0.00181827
0.037716
0.0736905
0.00229418
0.159868
-0.000232527
0.013534
-0.0175036
0.0252948
-0.0262957
0.0893172
9.8226e-05
0.000596736
0.00044264
-0.000126498
-0.00287775
-0.0175654
-0.0231582
-0.0522383
0.0945314
0.0698824
0.0165617
-0.111601
0.0207705
0.0129061
0.023639
7.96697e-05
0.903858
-0.0148785
-0.00589861
-0.0238925
1.25935
6.69201e-06
0.0978929
-3.57793e-05
-0.0547851
-0.0115345
-0.0386903
0.308006
-0.00714055
-0.000117399
0.221802
0.13009
-0.00104451
0.0930567
-3.79735e-05
0.294009
0.0123675
-0.0497348
-0.000304355
0.409876
0.0514031
-0.0361656
3.11183e-05
0.304342
0.569131
-0.00204392
-0.000107124
-0.0635934
-0.0160022
0.0132789
0.0418406
0.958975
0.507223
0.000802546
0.561246
0.412935
-0.00504156
-0.0980357
-0.0608639
-0.027521
-0.0937652
0.146289
0.00139136
0.993784
0.25798
0.0220541
0.000117619
0.00106156
9.63364e-06
-0.00104181
-0.00495133
1.0705
-2.10704e-05
0.140781
0.0480517
-0.000447661
0.971704
1.13845
0.350755
0.415542
-0.0258538
0.00427923
-0.000550898
-0.0193238
-3.9802e-05
-0.00197091
-0.196608
-9.08777e-05
-0.00326101
1.00563
-0.0202883
-5.14081e-05
1.06464
0.000758665
-0.061503
-0.121096
-0.00233965
-0.133849
-0.000454924
0.201208
0.00576137
-0.0293886
0.00330475
-0.00119404
-0.000728597
-0.000433875
-0.20163
-0.104296
0.274118
0.00479801
-0.00776896
0.397651
9.56394e-05
1.20354
-0.00102563
-0.14814
0.00385281
0.00276688
0.0895653
0.0942971
-3.13549e-05
-0.00724954
0.000144533
-0.00121629
0.00140928
0.147158
0.0856285
0.581476
-0.072057
-0.000208186
0.000251337
0.173065
0.575838
-0.00772644
-0.0108993
1.20161
-0.00482566
-0.035589
0.00142886
0.111829
-0.0687188
-0.0147581
0.280321
0.00224255
-0.000476405
0.00279646
-0.0131623
1.17879
0.904353
-0.0415296
-0.0644585
-0.0111207
0.00263628
1.55481e-05
0.131616
0.334538
-2.23404e-05
-0.0125911
-4.84558e-05
0.000186958
0.837202
-1.1184e-06
-0.129357
-0.0965533
-0.148892
0.121505
-1.54442e-05
0.0171423
-0.0105978
0.761685
0.00678324
0.00857038
-0.051949
0.00103689
0.587741
0.37563
0.0187926
0.0938245
1.01688
-0.10952
-0.0990627
-0.00331632
-0.012085
-0.000709317
0.0416841
-0.000160427
0.294276
0.00495151
0.310043
-0.0590078
-5.5666e-06
0.0974616
-0.000332435
-3.68122e-05
-0.00134936
1.16941
1.11682
0.45934
7.0836e-05
0.247621
0.951429
-0.00171927
0.00288199
-0.0145485
0.119827
0.878925
-0.04718
0.212945
-0.00443203
-0.111211
-0.125532
1.30725
-0.00107692
0.895702
0.153028
0.339565
0.000143671
0.000320148
0.00919057
-0.0153925
0.14381
-0.000127869
8.28207e-05
0.882766
-0.154029
0.000452584
0.929305
-0.00398694
0.000219041
0.695147
-0.0117212
-0.00272321
-0.00885715
0.205017
0.00050109
-0.000266761
0.00584892
-0.00694252
0.869983
1.16146
0.441084
1.27278
0.125526
-0.0788748
1.03047
-0.000173593
-0.00559899
0.152594
-0.00597018
-0.00116115
-0.000205036
0.921081
0.0446265
-0.00115384
1.12569
0.130228
0.283853
0.074811
-0.00466535
-0.0352478
0.241902
0.124697
0.907269
-0.0402902
-0.00138224
0.833407
0.708862
0.0225705
0.607097
-0.0654651
-0.013339
-0.0159607
-0.00113576
-0.000278519
0.84651
-0.105783
0.0206481
0.00138702
0.270469
-0.0536793
-0.0281235
-0.00177543
-0.00650047
0.958221
-0.00140878
-0.0296379
-0.00516001
0.930076
-0.0327883
0.0340304
-0.0127922
0.00230461
0.265238
-0.0374869
0.993908
0.107594
1.26825
0.44815
-0.102699
0.0530841
-0.00308737
0.0190199
-0.0514383
0.886024
0.951029
1.0868
0.473703
0.858837
-0.000679556
1.01795
-8.12483e-05
8.49121e-05
-0.0811737
1.10939
0.0856065
0.397895
-5.00826e-05
-0.00374411
-0.0889457
-0.0584142
0.871113
-0.00120228
-0.013086
0.448093
0.00169245
-0.00728536
1.22488
0.0800934
-0.0659313
-0.177543
-0.000963423
0.0860502
0.0812729
1.28631
0.0908171
0.0607003
0.00717573
-0.000444443
-0.00846517
0.329328
0.0101197
0.000184325
-0.119972
0.42647
-0.00254478
0.887441
-0.116451
0.902514
-0.0349225
-0.0385161
1.02558
-0.00906773
0.0416592
-0.000733198
-0.00227003
-0.109066
-0.0379675
-0.0613598
-0.0165172
0.0124525
-0.12868
-0.119699
0.889075
0.000391773
0.00121921
-0.0342189
0.196546
-0.141212
-0.0990701
-2.33771e-05
-0.124857
0.0785952
-0.000217043
-0.129403
-0.0570713
0.914726
-0.144051
0.873203
-0.0230756
0.167914
0.435965
-0.0587076
0.393289
-0.00306361
0.144845
0.00167343
0.142744
0.325595
0.294722
-0.0473193
0.0101488
-0.00121487
0.302487
-0.000169393
-0.000258264
-0.001794
0.00312988
0.0271926
0.0248056
0.734532
0.243708
1.18426
0.670615
-0.00260543
-0.0547765
-0.000326421
-0.0795063
-0.00213713
0.00954212
0.00101102
-0.0534623
0.570548
0.900699
-0.000533294
2.39541e-05
0.0496519
-5.39525e-05
-0.0153407
-0.000349621
0.208139
-0.0591
0.31511
-0.137798
2.79129e-05
-0.0232195
-0.0658129
-0.0409642
-0.0272912
-0.0875701
0.0818777
-0.000313402
-8.63544e-05
0.00335731
-0.000274635
0.122812
0.0906621
0.0648353
1.08864
0.0737407
-0.183322
-0.144675
-0.000779396
0.0841413
-0.000249696
0.819444
0.162643
0.991721
0.000189741
-0.053914
-0.0113111
0.0813004
0.18323
0.716747
-0.0125853
0.05144
-0.00325789
-0.0309391
-0.0132732
-0.0101109
0.174691
0.00253879
-0.013243
-0.0335494
0.279524
0.102423
-2.93494e-07
-0.00151563
-0.0102834
-0.0010544
0.177112
-0.00115347
-0.0453351
0.225841
9.97999e-05
0.408789
0.00011461
-7.96093e-06
-0.14331
-0.0284342
0.000231242
-0.0371777
0.000228154
1.04484
0.0203334
-0.0401619
0.977835
0.207563
-0.0518256
0.721262
-0.00460278
-0.00311979
-0.00348468
0.134155
1.36188
-0.00253394
-0.00106531
-3.30603e-05
0.012753
-0.00211242
0.0414411
0.00997188
-0.0345732
-0.0972984
0.030136
0.0173442
-0.0308113
-0.000938795
-0.0255595
0.647842
-0.00303932
-0.0227249
-0.000427693
0.743482
0.087854
0.646832
0.000659981
-0.00145204
-0.0390131
1.09415
0.236601
-0.0464951
-0.000257194
0.0512529
0.131506
-0.0319155
0.31885
-0.0784749
0.0321965
-0.189116
0.719935
-0.0260814
0.407416
-0.00527402
1.28105
-0.0676517
-0.0181327
0.981208
-0.0704689
0.268219
-0.203639
0.300993
0.0104569
0.0806585
0.542056
0.0807576
-0.0791381
-0.0159405
-0.0124971
-0.0204768
0.000873228
-0.00256732
-0.0919834
-0.0465903
0.00311905
-0.108063
-0.13502
-9.2853e-05
0.13157
-0.0149979
0.115268
0.979247
0.590757
-0.0880985
-0.116069
0.000686914
-0.113197
-0.00714546
1.236
-0.0577469
-0.0497566
0.58861
0.0775239
-0.0647167
0.29273
-0.0604229
-0.00113137
-0.0192904
0.0163002
0.0010082
0.618691
-0.00450016
0.229912
0.427613
-0.00940418
0.398848
-0.149795
-0.000661958
0.010807
0.116786
0.494619
-0.00419627
0.126912
-0.113617
0.107995
-0.037661
0.612925
0.010204
-0.0909671
-0.00514587
0.000260937
0.873067
-0.00404282
-0.0468947
-0.000218845
0.34475
-0.000137528
-0.0736197
-0.00334272
-0.179667
0.00100082
-0.0167456
0.250688
-0.00648435
0.00144682
0.000964662
-0.00683044
0.074276
-0.000163778
-6.73284e-05
-0.0139802
-0.0173532
-0.037118
0.0131937
-0.00318646
0.12012
0.127882
-0.0021633
0.00159692
-0.000374484
0.856445
-0.00693414
-0.011416
0.707445
-0.0301825
0.629816
0.0780883
0.91362
0.376567
0.178183
-0.00249438
-0.00577375
0.129219
0.0366177
-0.00719232
0.000263656
0.0136359
-0.0838088
-0.00161583
-0.0136483
-0.0131707
-0.015104
-7.58727e-05
-0.00543116
7.27163e-05
-0.000153066
0.00135338
0.561509
0.311203
-0.0181812
-0.00463405
-0.0845809
-0.0343433
0.285486
0.78464
-0.0970024
0.00318139
0.3279
-0.0235834
0.000903387
-0.118367
-3.21406e-06
0.196459
0.269488
-0.00113362
-0.0577169
0.000293673
-0.0133031
-0.0127213
-0.0428791
0.0320654
-0.0849552
-0.000102701