/*--------------------------------*- C++ -*----------------------------------*\
  =========                 |
  \\      /  F ield         | OpenFOAM: The Open Source CFD Toolbox
   \\    /   O peration     | Website:  https://openfoam.org
    \\  /    A nd           | Version:  7
     \\/     M anipulation  |
\*---------------------------------------------------------------------------*/
FoamFile
{
    version     2.0;
    format      ascii;
    class       surfaceScalarField;
    location    "36.5";
    object      phi;
}
// * * * * * * * * * * * * * * * * * * * * * * * * * * * * * * * * * * * * * //

dimensions      [0 3 -1 0 0 0 0];

internalField   nonuniform List<scalar> 
29574
(
588.148
-435.501
-152.648
271.018
43.1867
-314.205
949.372
-1141.46
192.087
-395.175
994.332
-599.157
-631.516
671.207
-39.6906
-687.2
55.6846
222.312
-46.4673
-175.844
649.449
-505.725
-143.724
204.151
-288.736
84.5854
86.5579
562.891
-94.0297
262.731
-168.702
-294.293
295.302
-1.00887
-230.312
-22.5382
252.85
34.6845
553.464
620.531
-649.593
29.0625
-965.122
569.947
-320.471
360.508
-40.0368
-92.8833
-1044.06
1136.94
-261.645
229.134
32.511
305.543
-34.5245
-309.25
294.339
14.9112
-31.6114
-262.682
-509.245
595.803
265.469
-328.69
63.2208
949.372
-350.804
58.5587
292.245
893.358
-977.149
83.7913
338.524
-144.462
-194.062
-160.945
-113.247
274.192
-118.103
-143.542
-592.297
740.681
-148.384
336.407
-281.593
-54.8144
414.575
-87.4464
-327.129
555.05
-294.776
-260.275
-716.942
780.474
-63.5327
-730.885
138.589
170.023
-401.192
231.169
932.366
-932.366
785.204
-343.428
-441.777
281.014
456.844
-737.858
1.03052
806.888
-807.918
-325.483
97.7549
227.728
-886.098
733.012
153.086
974.387
-81.0291
-96.5157
-254.288
116.488
72.545
-189.033
1159.7
-494.622
-665.08
345.052
-247.352
-97.6998
842.877
-30.4362
-812.44
238.719
-226.955
-11.764
-787.763
70.8215
45.2829
-764.045
718.762
-308
-128.743
436.743
763.164
-835.249
72.0858
180.609
-403.007
222.398
14.716
-208.144
193.428
377.717
-107.645
-270.071
694.69
-751.084
56.3941
-63.4483
-291.349
354.798
-88.0596
-232.411
-645.378
401.937
243.442
-50.3082
244.41
-194.102
479.446
-482.007
2.561
-206.293
-381.811
588.104
-697.65
828.104
-130.453
-713.919
106.459
607.46
543.752
-566.632
22.8803
-650.175
-63.744
-184.465
-357.942
542.407
-106.34
-104.349
210.689
358.7
-556.152
197.452
337.725
-230.471
-107.255
674.868
-54.3372
-268.9
-38.9066
307.807
1062.93
-561.159
-501.771
-87.9765
484.6
-396.624
333.657
-105.269
-228.388
-226.679
15.4185
211.261
946.527
-665.513
591.497
-832.4
240.903
631.948
-525.489
816.728
-193.871
-622.857
309.029
-112.192
-196.837
297.697
-93.5463
133.974
-184.283
-633.755
-252.343
235.523
-281.972
46.4488
-32.0487
134.708
-102.659
-689.076
482.783
111.512
-300.264
188.752
-440.748
733.277
-292.53
738.997
148.804
-887.8
904.456
-130.121
-774.335
174.344
-285.219
110.875
204.115
140.937
423.873
55.5731
250.929
-76.5851
-779.407
789.361
-9.954
-330.29
236.26
1042.75
-934.179
-108.571
274.823
-163.311
404.236
-415.46
11.2242
154.134
143.071
-297.205
472.974
-184.937
-288.037
1253.81
-1253.81
476.822
44.9758
-521.797
-6.32134
254.179
-247.858
-492.106
254.148
237.958
265.401
8.93598
-274.337
-299.774
-55.2893
355.063
51.0628
-212.007
178.743
43.5688
393.151
-108.061
-285.089
-269.571
-401.138
670.709
-580.589
492.613
-568.706
-431.365
-423.985
-152.804
576.789
576.662
55.2862
-328.001
6.17244
321.829
-1028.78
240.208
788.572
-170.797
909.794
58.6275
255.073
-313.701
387.533
-640.822
253.289
229.903
-361.891
131.988
132.662
422.388
804.626
-897.509
15.8953
229.373
-245.269
184.856
153.668
243.23
93.1775
109.417
-533.402
-33.0843
-148.153
181.238
23.2641
215.455
862.047
-861.017
289.599
495.605
110.866
-361.371
250.505
272.912
980.894
308.033
-76.9794
-231.053
-276.23
-33.0201
-404.793
35.0077
369.786
97.8646
67.3047
-165.169
295.002
-236.374
32.7813
-301.682
184.773
152.953
-298.249
183.651
114.597
-591.471
97.7822
493.689
-135.487
246.353
-313.339
92.5378
220.802
-94.001
-222.492
316.493
7.87687
318.53
-326.407
-766.136
-211.013
127.264
-221.265
227.317
971.75
-67.2944
-227.264
-55.4298
282.694
150.725
666.003
-290.64
-22.6989
-754.213
120.458
71.5263
193.943
67.7994
-158.452
90.6522
-8.66804
-221.644
-173.899
354.509
-243.878
197.411
-36.1954
-415.826
-175.645
-205.739
-686.287
892.026
-142.399
110.351
345.012
59.2242
277.878
31.1506
443.644
40.9568
-360.521
530.544
362.239
-54.2067
-160.015
-156.041
316.056
21.5504
-233.044
211.494
397.176
-442.493
45.3175
98.0895
96.4816
-194.571
44.251
370.324
-571.694
509.162
62.5323
-537.663
-31.2028
568.866
-441.568
-139.021
3.86017
216.925
-220.785
68.0926
-234.179
166.087
735.579
196.787
341.64
33.4643
-375.104
-61.0924
215.506
-154.414
267.255
38.2882
226.452
-123.433
-103.019
589.036
-230.337
32.2359
1010.51
144.973
206.236
117.474
-323.71
303.199
-287.303
251.66
-403.051
151.391
74.256
-1008.43
-611.836
427.371
215.804
-148.005
-46.4639
317.891
-271.427
97.3335
244.306
-56.8588
328.695
-271.836
325.392
-58.1375
-6.8116
213.048
265.489
-406.887
141.398
-98.1418
339.62
-241.478
-492.936
143.489
-330.281
186.792
268.017
-373.984
105.967
-310.517
283.832
26.6847
-11.5559
-326.106
337.662
782.94
-737.657
196.246
-181.53
619.655
-634.935
15.2801
411.601
132.151
-853
511.738
341.262
-38.5558
302.432
-263.876
-84.2922
-149.998
234.29
-295.914
562.445
500.484
513.858
-513.858
-528.51
-500.269
-272.412
-219.694
900.316
-610.717
-4.39368
267.579
-263.186
-154.057
-284.648
438.705
59.0565
165.496
-224.553
537.387
-978.135
-348.459
293.17
-12.4249
-392.368
350.944
-362.5
-1068.65
499.946
-485.208
485.208
-640.991
-7.1584
648.149
670.599
-283.066
292.761
140.546
-433.307
-329.676
323.355
-215.748
208.781
6.96674
-564.735
844.335
-279.6
306.739
-71.2161
580.95
-104.128
-409.897
249.882
182.835
68.094
-660.517
506.46
250.196
-355.465
88.0275
-172.32
284.348
108.821
-393.169
352.595
-122.692
-1006.44
-247.371
621.589
-44.9265
-84.7148
289.859
-205.144
560.018
-484.544
-75.4744
-82.9427
785.142
-702.199
-53.2186
896.095
263.672
1.7287
-119.895
178.952
-92.9515
581.92
-488.969
-543.11
199.682
-163.584
9.41455
154.169
-140.559
433.321
-57.266
236.267
-179.001
-68.1173
-257.366
192.075
-94.2106
-77.4328
193.921
23.4084
-250.182
226.774
36.3339
454.367
-490.701
710.425
49.3832
-759.809
284.082
22.6576
-84.2627
-159.615
-144.115
45.7353
245.874
-291.609
32.9156
360.235
201.179
-765.914
301.482
-192.351
-89.6214
122.515
-820.695
698.179
70.4331
-404.954
-161.678
-301.949
217.069
84.88
-329.703
-315.675
567.793
-999.158
234.695
-48.3995
-186.296
-67.9202
269.549
-201.629
-1039
342.416
696.584
-52.0749
382.44
-330.365
324.281
53.4355
-231.411
81.6185
149.792
368.996
-111.226
-257.77
396.788
-145.128
-152.155
295.226
260.962
-214.889
137.048
-204.968
-113.537
631.904
-518.367
752.794
-161.297
-110.369
-382.369
492.738
854.072
-731.557
266.559
-220.824
-21.9777
-338.543
-537.01
69.961
90.6761
-160.637
375.311
-92.4152
-282.896
-98.5609
194.315
-95.7544
405.618
-140.13
-124.244
-360.002
484.246
7.68827
843.925
-851.613
-776.666
803.734
-27.068
-239.44
43.1444
196.296
-753.845
439.158
314.687
44.9259
-163.029
-3.78633
176.903
-173.117
-303.891
272.28
6.19821
-230.729
224.531
249.611
-32.6853
184.154
-561.637
377.484
231.575
-208.167
-40.3004
-186.379
-59.1772
589.721
371.762
-81.5363
-290.226
-733.848
741.536
-458.529
364.877
93.6516
460.679
-351.262
481.3
-856.532
375.232
-298.795
-104.212
-726.573
28.9229
-178.53
-52.8804
-645.258
631.47
13.7881
-183.676
351.281
-167.605
325.298
318.453
261.997
-170.331
-91.6667
270.854
-255.586
-498.628
-199.666
-85.5532
269.751
-214.617
-55.1341
-576.455
18.0651
558.39
175.696
-77.6068
1006.25
-1006.25
433.509
-498.229
-540.77
164.876
193.964
-358.84
-497.006
475.029
-331.991
293.084
-324.903
426.703
173.949
-600.652
50.9373
712.226
575.767
-149.064
450.302
-603.106
111.229
211.029
-322.258
-209.02
-215.457
424.477
328.473
68.3123
-396.785
-297.326
-544.635
841.961
492.32
-761.891
395.154
24.9468
-420.1
-1044.06
417.723
96.1352
300.753
-279.202
299.322
-362.771
-11.0911
121.073
-109.982
18.7715
-261.048
-254.558
11.8403
242.718
254.078
15.6732
331.054
-392.147
227.112
-93.1378
-564.902
-202.235
-98.029
-392.131
-361.714
-980.2
-186.83
1167.03
-494.19
964.202
-470.011
-131.416
-4.4519
135.868
-668.158
636.715
31.4436
-255.201
389.054
-133.853
246.971
313.047
2.5236
-210.668
873.977
-912.525
38.5483
438.841
-127.82
225.575
-386.829
168.869
217.96
-258.254
74.8365
183.418
-509.615
-66.8396
135.601
-243.246
364.983
-80.6346
-1136.37
930.627
-572.934
479.983
-98.5831
212.003
-113.42
-77.7671
386.796
-309.029
391.814
-367.865
-23.9498
-371.7
47.0824
-210.666
-322.728
706.445
-383.717
-77.082
-253.208
-89.4922
484.646
4.42974
192.248
-196.678
954.923
204.779
-371.699
-15.1292
174.589
217.226
-372.344
-456.606
828.95
-879.811
385.189
439.072
-950.241
511.169
109.014
-445.608
336.595
-287.744
189.184
-14.1579
468.525
-131.309
-198.972
-429.874
148.281
616.008
5.58014
22.9904
211.705
436.595
-71.3647
-365.23
-113.827
-84.9488
198.776
139.382
243.836
-311.953
9.11441
-108.811
-41.9598
150.771
-383.922
-24.6318
408.554
-26.228
337.327
-311.099
-102.409
492.836
-390.427
-417.459
394.375
-65.9023
-916.254
833.311
369.156
-324.18
-71.0076
-332.043
-74.7139
-332.173
-655.105
-124.302
-538.532
304.547
233.984
-297.084
66.6134
-126.185
123.617
40.8247
201.63
411.707
-613.337
30.2159
-296.37
49.0181
28.6975
299.997
151.054
-259.115
-46.9327
-298.695
345.627
-810.601
796.29
14.3112
229.788
-252.055
22.267
361.742
538.574
279.782
-391.008
-22.3375
306.419
-724.58
694.144
287.259
-211.282
-75.9766
304.288
13.6028
-176.516
-172.852
-310.432
483.285
-213.607
-96.9099
308.959
-401.374
449.115
-573.359
120.167
74.5772
-194.744
205.962
-128.298
-77.6647
278.41
-650.754
164.803
-522.745
245.079
-89.2428
-155.836
47.4031
-813.539
-435.997
318.447
-399.984
-594.841
703.854
-516.391
100.565
368.298
-665.624
112.359
-228.217
115.858
-851.536
898.939
-30.1264
-5.4435
812.331
-216.49
215.724
0.765389
-313.587
195.691
117.897
-241.997
-131.988
-61.6013
429.02
-367.419
563.197
-676.735
51.3691
-231.819
180.45
176.905
-125.536
352.657
80.0023
-263.679
175.962
16.1133
-145.787
766.858
107.119
-461.381
173.344
-208.442
176.3
32.1416
190.247
-247.513
-4.29686
190.832
-186.536
-356.317
309.384
-220.525
-16.95
237.475
-551.244
440.874
212.85
-204.973
-580.769
-64.489
614.919
4.73558
-326.033
-207.369
172.646
-88.4664
-84.1797
-110.908
-105.856
216.764
177.688
-245.357
67.6689
-44.0739
297.601
-253.527
-224.963
211.377
13.586
-193.413
-31.5497
358.965
77.6305
1002.27
-729.358
-288.708
-316.654
239.572
191.242
33.0378
-224.28
-991.619
809.891
181.728
-367.231
170.025
197.206
-515.79
-150.541
666.331
-158.909
-806.214
-16.7155
-280.49
-473.608
448.976
-101.469
-212.119
258.498
11.0517
662.095
-104.69
-557.405
347.11
-449.52
-159.198
756.222
-597.025
-238.226
-210.042
448.268
-284.721
268.314
16.4073
5.95111
-72.281
249.969
-118.094
-183.854
-525.21
-13.3215
-16.148
-90.2816
-744.968
41.4729
-432.201
-216.107
105.199
-287.035
173.788
699.079
253.513
-308.943
163.224
63.2278
-331.679
-11.0766
342.756
-262.15
3.89549
-36.6888
-997.333
778.777
218.556
-16.7754
225.556
-80.9117
269.664
491.954
-524.721
32.767
-304.451
-154.078
-360.495
395.502
-45.1638
136.674
-91.5104
1006.81
-824.485
-182.324
41.48
-590.047
548.567
-27.4888
-123.013
150.502
-158.898
-138.187
487.258
-63.3848
-266.325
513.296
-560.292
124.073
436.218
-212.191
270.75
519.628
-396.006
-123.622
294.073
8.39592
-302.469
-285.922
201.207
686.885
-107.032
-579.853
440.334
-238.703
-433.434
389.723
43.7108
274.761
15.0982
-298.659
-33.0204
-179.684
56.2514
198.491
-500.692
68.3124
432.379
-263.778
259.385
-403.772
377.544
-332.237
-67.4843
-417.723
-460.683
399.081
-530.627
1001.79
-471.158
-119.135
73.9716
-175.788
-191.443
488.226
-50.2452
-437.981
-17.6068
-297.915
315.521
-510.791
565.013
-54.2225
448.263
202.211
-99.8973
-102.313
201.952
-246.026
196.328
-200.625
-309.678
95.061
476.311
-434.831
-11.7684
-272.953
66.885
-911.326
911.326
118.591
2.28135
420.384
-422.665
-169.202
182.295
-13.0925
-514.718
305.698
-427.533
72.547
354.986
56.5112
116.135
-511.645
412.801
98.8443
-209.023
436.347
50.91
308.347
42.0377
-350.384
342.049
-86.9761
-432.329
-52.2152
118.985
-361.511
283.744
336.845
-257.311
-79.534
-25.8509
142.854
-117.003
-980.2
-293.103
-182.464
79.6215
102.843
-347.304
259.857
-428.551
-521.69
241.621
569.835
-811.456
-143.092
-532.957
676.049
-487.972
161.939
-16.7637
192.726
213.661
-17.3331
-657.196
640.466
16.7297
88.7074
351.626
298.211
-78.8178
-219.393
-97.4381
-572.19
669.628
-582.797
826.034
-243.238
-592.192
61.2452
-822.861
211.939
610.921
-984.199
431.232
552.966
-290.451
-269.84
-115.315
484.471
-968.568
437.941
-675.582
814.405
-138.823
666.329
-763.767
-211.953
250.499
-227.235
124.295
-799.877
-163.969
-694.518
858.487
686.259
0.625876
501.278
326.825
-94.2596
298.375
-92.868
88.4161
-152.819
220.752
-602.563
253.911
-226.698
-27.2128
-115.306
344.639
-229.332
-173.085
-123.286
524.288
-32.334
-290.306
272.699
13.4293
623.285
-703.833
-650.477
-256.637
-244.055
45.2032
217.528
19.8309
497.705
-517.536
-394.932
354.666
40.2659
-141.223
156.641
561.646
440.139
-384.177
-163.29
547.467
176.022
-264.082
-108.885
293.658
-75.2331
-352.3
185.863
-262.842
-231.809
320.517
202.663
-130.118
-450.609
-533.59
-291.257
-11.3549
302.612
-338.403
204.097
134.306
-173.979
178.409
-253.607
-84.7961
225.306
-219.108
248.238
-282.349
34.111
323.685
-84.7644
-238.921
-805.21
646.302
-309.831
-337.594
82.3923
-332.894
357.841
272.064
-68.4916
516.755
177.298
-11.8017
259.128
564.83
-823.958
-193.499
165.813
40.1492
-580.169
407.317
-995.422
309.134
321.868
-816.058
-472.943
-73.0401
545.983
-530.776
453.098
77.6782
280.065
-207.417
38.2145
-661.444
395.12
-42.1454
154.504
-367.648
387.479
130.955
-526.96
-122.159
-36.912
219.747
-8.0496
276.363
270.896
-81.4435
177.925
780.697
4.44495
296.687
-287.972
-8.7155
-281.711
-79.6607
-82.361
-35.4237
265.211
719.448
244.753
47.7573
221.907
339.672
-89.4759
-56.4044
316.497
-260.093
-459.963
77.5943
494.49
-230.304
-264.186
286.468
-294.518
-15.7574
-674.781
690.538
221.831
-829.507
457.807
-239.363
77.299
-367.525
-125.603
-405.544
531.148
-125.182
134.597
251.266
-345.525
335.4
-16.8691
-871.557
333.894
90.9996
-373.896
-725.729
-526.14
-465.478
235.9
107.157
-364.927
234.203
-343.088
156.266
88.8126
155.21
-219.011
63.8005
-525.546
165.544
506.023
-923.483
-146.067
57.6008
458.376
26.8314
-574.932
-422.401
17.6
-598.369
-3.66908
297.742
-96.0177
416.751
-320.733
-108.879
-85.6924
154.809
-234.828
-61.0857
-343.125
376.04
-272.724
-47.774
320.498
-60.3395
264.437
-291.994
-259.36
241.293
18.0675
43.7589
-256.487
333.786
371.869
-67.7294
-327.203
-23.1985
234.575
203.439
-29.2133
-174.226
-79.1709
-466.512
53.7969
412.715
-288.713
-139.908
428.621
188.205
-214.056
342.265
-235.241
56.7103
-192.87
-127.647
320.517
819.979
341.36
-43.2914
-208.106
251.398
-22.4884
-508.288
-291.257
-733.68
342.945
390.735
0.683573
-295.459
-9.13478
252.365
-11.2798
227.004
284.413
-327.412
42.9991
-470.241
-141.595
-541.419
174.871
366.548
209.026
28.4487
237.902
348.25
-611.362
263.113
243.978
-407.078
163.1
-354.39
410.065
-664.261
254.196
1000.72
-968.483
-787.732
465.003
-461.694
-107.934
569.628
177.784
118.903
-318.338
578.47
-420.119
-158.352
395.214
-219.192
-840.345
257.548
250.408
244.082
-242.177
83.2793
401.921
-78.5664
178.231
-179.495
1.26359
232.874
11.5366
581.637
-612.84
-500.591
167.316
333.275
72.3697
-366.018
-119.867
485.885
93.052
400.978
-215.115
265.414
59.9777
-453.138
148.687
313.427
102.552
-415.979
118.276
-216.859
-191.683
-229.276
-206.225
-359.109
15.9845
-28.4618
-628.734
-39.2246
232.571
-193.346
-294.987
184.954
110.032
-400.907
-119.379
520.286
-283.553
-64.9062
186.404
17.0359
-353.22
78.2457
182.796
71.0407
-253.837
-265.098
-149.614
414.711
-365.534
-291.773
271.964
19.8087
108.195
-337.17
228.975
162.603
-225.872
63.2692
-34.8281
-124.905
-292.203
417.108
-362.512
231.203
211.629
-440.905
-249.62
107.496
142.124
-466.946
156.514
35.13
-440.385
405.255
-196.263
-63.0974
186.684
436.434
-362.456
-73.9785
-212.39
200.788
11.6018
-261.894
116.995
144.899
-72.7146
-135.727
-333.064
-119.318
929.208
-213.741
-36.4406
275.07
-475.667
321.589
108.263
-307.178
198.915
-413.29
-142.716
556.006
-472.427
-214.774
220.365
-29.1227
286.615
690.44
-706.198
-49.0667
-272.005
321.072
83.8026
-712.255
628.452
207.973
104.797
-312.77
315.092
-121.128
-239.01
222.294
-361.915
-52.3363
414.251
-710.396
39.2122
671.184
-509.979
-150.538
-96.5685
-307.203
522.96
-42.5663
-774.564
-19.8853
794.45
-207.767
574.448
-366.681
-217.403
476.531
142.391
-508.409
332.103
-121.074
125.753
456.168
-425.992
428.273
-324.127
-154.783
478.91
-523.451
50.5082
313.266
51.6112
15.2522
-254.262
271.566
-77.4917
-194.074
-114.92
-118.699
307.883
-90.545
-270.966
40.2431
230.507
-297.905
-105.788
403.693
-280.827
356.94
-76.113
-92.0753
282.323
-337.216
-147
484.216
-233.241
103.772
129.469
-134.374
-53.2468
55.0326
-652.22
597.187
-181.192
-252.242
-310.404
-251.233
-333.266
-102.731
-209.222
-87.7599
296.982
415.186
639.765
169.888
-226.295
56.4068
171.776
532.078
230.258
41.3071
179.433
-258.653
79.2205
-415.174
-136.07
-524.821
-103.219
374.073
-178.999
316.717
-36.6514
657.83
-151.371
-4.59857
229.905
-239.403
279.56
-40.1575
713.639
-0.18179
286.65
-601.895
492.299
109.597
222.258
75.9531
203.878
-51.7119
223.32
-321.349
69.7827
-324.071
20.2478
-354.692
356.336
-1.64379
83.2163
-185.876
161.615
51.9175
-320.232
317.41
2.82114
304.04
-351.814
249.087
-22.3133
-381.989
-115.018
-58.9655
286.694
11.9614
241.95
300.047
7.75975
-394.541
-110.04
504.581
-76.4087
-150.547
-194.154
-37.6645
51.7627
249.719
257.39
-292.814
324.207
-52.2768
-267.823
293.202
-25.3788
-1061.24
714.199
347.044
-423.102
134.39
342.315
3.01693
-345.332
-73.3281
357.072
566.771
-176.466
-43.7748
220.241
-72.7125
-231.178
-259.149
-67.7745
326.924
-282.451
-65.2833
347.734
-69.9297
-510.026
-91.8695
-798.041
785.645
12.3955
27.4614
249.588
-277.05
31.0446
326.264
-198.967
487.044
-288.078
-231.118
-85.5366
-490.399
104.407
-213.286
185.619
-238.5
-317.229
-121.544
438.773
-118.918
478.642
-359.724
-380.554
-93.0542
-240.109
-105.416
2.14463
-448.844
-124.09
-198.397
683.282
17.2141
647.31
-664.524
-196.954
48.8002
231.876
-817.612
585.736
143.129
-385.125
308.211
-54.0317
83.1396
-1030.64
-227.883
-115.205
436.862
-3.35221
-532.669
-395.407
-126.391
-657.41
206.556
-401.23
194.674
-7.79438
305.395
-352.301
-92.9686
445.27
-17.5115
-286.197
303.709
830.068
-116.429
-492.294
478.136
-59.1313
-715.433
-92.9392
470.483
-846.836
783.303
294.379
-476.675
401.441
-96.6929
-114.589
161.876
175.62
-337.496
-438.205
-247.331
183.314
18.9609
-202.275
-211.021
917.652
31.7201
-991.983
559.782
-213.403
-109.387
322.791
765.972
38.6536
359.058
-65.888
370.771
-354.786
-401.653
405.076
-3.42299
332.857
-323.782
-9.07523
363.792
-77.1768
-20.1844
-445.388
-144.659
-225.991
-132.85
-200.172
-122.085
-622.609
834.268
-211.659
-242.97
-10.6367
-224.534
-448.87
-462.413
412.167
70.3039
-305.132
-89.4544
-124.987
214.442
-42.3957
387.436
-345.041
358.88
-49.4961
218.792
-73.3828
-145.41
98.2922
-221.305
134.253
126.709
318.878
-110.905
-337.809
-91.4835
232.42
572.956
-132.082
26.1633
-773.496
747.333
-275.873
111.917
-193.36
-30.164
-78.6071
350.887
55.8619
771.636
-699.55
856.5
-110.885
-745.615
375.299
-74.0451
-301.254
104.616
-218.036
-88.6724
506.282
-417.61
-233.757
-54.9797
21.3375
-733.592
465.022
-69.9771
-290.172
283.253
6.91908
-211.855
-37.2731
249.129
200.919
28.223
-229.142
-37.2813
-83.4344
-450.358
-610.886
-427.283
198.355
-0.266911
-193.17
-26.1539
247.985
59.915
-539.142
479.227
-335.094
223.318
-399.106
148.09
-347.062
684.207
-335.138
67.3789
-267.27
199.891
-146.888
315.756
598.572
-148.269
-201.298
-141.358
227.301
922.523
87.9909
-302.612
226.027
46.0513
725.585
-10.9148
189.146
-322.196
-93.2637
408.414
-89.9668
-464.687
-521.004
153.596
367.408
-164.134
-547.349
711.483
-571.449
1010.29
-765.468
142.859
-491.999
-273.526
279.437
117.351
-935.038
52.447
882.591
-359.645
407.815
-98.8553
-12.8234
363.767
336.081
20.8593
231.726
-194.138
-37.5881
-309.645
98.6245
-191.213
-21.1772
243.137
384.421
-104.639
683.921
-135.354
295.113
110.505
581.16
-132.045
524.196
-112.489
258.812
-44.472
-214.34
450.461
-504.687
-342.777
847.464
543.741
-239.193
-303.482
-553.991
80.9371
473.054
318.164
-78.5912
-711.471
677.321
34.1503
528.995
-80.0191
-27.1879
634.64
-607.452
-386.909
302.145
302.044
87.0105
435.346
140.421
-388.45
220.292
-39.8422
375.297
-16.4165
-439.054
-125.745
-44.594
593.618
319.917
-314.88
-5.03752
-539.602
69.3614
-393.342
-333.784
297.133
56.6713
325.769
-301.298
352.508
-50.3628
-145.302
-272.552
-275.214
-14.5005
289.715
-401.467
-112.391
-36.5994
547.295
-38.133
-3.466
471.991
588.749
-26.3585
-152.646
-266.452
332.678
-66.2262
-52.4443
219.313
31.8221
-743.293
-325.72
-237.491
365.848
-389.088
-71.5949
476.154
645.471
209.136
-854.607
-154.831
589.648
-124.625
333.482
-244.353
-89.1288
-68.8826
-609.734
-213.127
38.066
199.044
137.037
-138.714
201.983
-285.822
-313.342
356.992
-43.6505
213.081
324.663
-439.979
734.971
432.059
-317.756
378.37
-60.6141
-267.292
-482.454
-219.383
837.509
18.991
422.108
-46.8116
-969.178
34.1398
395.699
-64.6444
-745.888
-14.244
-317.799
633.608
205.591
-85.4241
-89.8737
13.5861
292.833
-388.957
-11.1201
400.077
-241.561
-151.608
201.492
-120.724
-474.979
-105.19
503.675
-96.3585
354.568
-5.86582
-326.307
-111.571
-138.013
-518.174
375.082
-113.087
652.582
-631.244
-281.202
385.338
-104.136
-241.045
67.9607
280.588
21.844
-445.173
-478.31
-404.539
972.89
-466.854
-506.036
591.027
-111.044
-528.944
-132.5
-97.9395
17.7087
534.568
-139.448
25.0353
58.2739
174.297
-230.551
-230.83
51.6408
-106.261
569.066
-141.695
-402.89
-343.597
288.782
261.926
3.28586
449.482
-94.9141
-50.5118
-147.886
-141.861
-304.695
31.7422
83.0965
-277.251
441.89
-652.903
625.085
-116.49
-508.595
758.751
-726.929
441.073
-75.2252
-244.286
-280.738
49.217
603.294
-127.14
-758.332
784.496
213.592
-0.363102
-213.229
-152.533
222.837
466.548
-67.4665
628.523
-145.74
-279.514
279.333
-108.652
-73.8126
-207.326
272.266
-64.9398
-91.191
268.975
301.342
-47.8282
-35.7167
249.568
-473.513
-277.571
271.605
-235.803
-35.8024
-438.158
426.675
11.483
-17.3266
-139.906
314.495
296.046
-301.364
5.31807
-252.964
-84.1706
-14.1278
135.201
-318.405
427.492
-42.7982
787.073
-744.275
-507.87
352.469
-27.8057
37.6563
342.871
14.2992
-357.17
7.15435
382.569
233.396
499.615
40.5135
506.401
10.3537
356.332
-47.9856
-71.2977
250.73
272.165
44.3327
-870.739
887.953
-303.493
281.244
22.2494
-545.855
246.252
3.31613
815.109
-605.69
-209.419
258.785
-181.025
-77.7604
433.396
227.178
32.8594
491.429
-196.876
616.678
-419.803
99.8822
-52.0656
848.033
-795.968
-436.454
311.549
475.913
198.955
231.714
2.86103
221.147
-193.784
-489.508
683.292
42.6642
206.423
67.1049
-557.831
571.025
-508.493
815.394
-258.535
-556.859
-293.185
-199.751
70.4294
271.168
0.795934
-221.753
-289.892
-362.014
-517.797
2.14916
184.333
-186.482
289.298
261.641
187.639
-792.372
768.527
23.845
-30.3009
407.305
-458.652
51.3464
279.943
81.4113
-0.57476
797.495
-796.92
103.712
228.966
62.3591
78.8783
-290.596
303.092
-12.4961
-922.093
-58.1064
192.982
-135.359
-489.748
625.107
-290.936
860.772
-146.598
-402.1
-137.503
-560.145
98.8683
387.017
21.8037
-252.313
-27.2016
199.804
-141.53
20.1597
861.017
50.3093
-13.9616
300.612
471.806
-356.259
-115.546
-629.781
231.456
398.325
143.304
164.579
365.5
-355.296
275.762
156.213
282.56
229.367
262.703
30.4992
69.6114
-483.417
413.805
838.936
-234.761
-604.174
169.407
223.418
-392.825
369.065
401.724
247.945
3.91722
-626.343
-306.023
274.571
-889.634
367.348
81.8312
-487.376
87.3713
-637.118
-96.4744
243.119
-356.43
401.368
554.827
-568.168
645.011
-76.8432
-9.77009
370.005
410.621
-357.913
-44.1093
174.116
-130.007
-302.994
293.369
-17.0059
676.943
-345.309
-22.3688
375.526
-353.157
92.153
-175.461
256.226
-80.7655
-295.654
239.924
55.7299
267.768
547.626
131.915
-400.648
462.502
-1136.94
1136.37
132.468
-11.263
442.675
168.174
-56.2571
414.212
355.258
213.649
20.6409
298.885
363.477
-25.6677
-337.81
-649.355
649.088
0.266165
227.944
193.862
-9.52897
501.321
-431.71
-211.037
765.864
312.398
76.6197
276.485
-365.961
-170.587
26.8625
244.743
796.1
-175.079
-621.021
-894.227
968.483
302.594
385.673
256.04
-253.023
554.153
-992.359
474.63
352.331
341.474
-32.7233
476.021
291.012
59.3064
-416.221
356.915
-221.18
336.629
-13.599
-23.2088
-824.3
694.18
867.386
-201.057
333.1
293.692
124.922
338.851
-19.9464
-318.904
268.845
326.093
301.166
-186.811
86.9138
-271.662
280.882
-9.22019
450.237
-567.005
-244.451
-1.94812
215.598
467.133
-577.172
-274.767
22.4538
479.204
-135.713
-237.459
373.172
-332.09
-188.914
634.36
106.321
426.303
-943.916
517.613
-459.048
417.669
41.3792
-2.75561
251.475
-248.719
362.014
-269.861
259.48
-236.647
-22.8324
329.797
47.3935
-222.854
-851.536
80.1598
368.897
-449.057
-33.4374
725.193
-691.755
322.08
-295.091
-26.9894
-445.639
483.864
329.865
-274.004
-399.981
978.653
-578.672
271.931
-13.7264
197.04
539.895
460.105
-186.04
205.458
13.2938
-218.752
-27.5883
397.374
-593.537
33.5994
559.938
200.192
263.391
-368.807
-42.1791
-395.979
-917.652
865.587
-493.964
1033.86
335.889
-62.463
237.481
-1.68195
-235.799
488.41
-434.614
56.9064
-709.126
-459.149
0.100557
-255.255
317.391
-469.443
-499.125
298.182
-18.8261
-279.356
-959.741
431.231
-798.041
155.495
31.8043
-187.3
28.8117
599.641
647.664
-633.876
-271.629
836.459
-73.7096
226.662
385.125
-559.871
174.746
-139.193
357.942
-218.749
-704.33
750.382
-384.843
222.321
-223.013
232.015
-9.00218
-275.946
702.25
313.183
650.975
27.6137
-785.946
-231.297
247.576
-362.781
-31.3869
-228.875
240.715
-898.939
982.73
175.325
39.0506
-214.375
261.184
-326.038
-66.1093
-1.50479
393.328
210.772
-604.099
502.761
-902.742
533.619
-57.3082
-221.066
-1.79271
222.858
-113.997
-190.697
-311.627
72.7068
-167.111
-134.571
302.134
291.424
-264.562
-118.588
-315.027
433.615
279.408
288.115
-17.5491
-292.692
310.241
-690.678
15.897
862.047
-922.093
1000.72
-1006.44
980.894
1023.89
-1023.89
-894.227
-1030.64
278.484
-256.68
-243.371
-257.977
-185.642
-0.89325
753.089
-963.96
210.871
-887.953
9.16086
-279.232
189.77
-34.2745
-763.527
791.141
227.357
-6.80416
-220.553
-284.868
267.357
-11.8969
-249.523
261.42
248.544
-14.2577
-234.286
201.085
-228.298
-23.6767
-253.259
276.936
-187.543
200.267
-12.7235
249.538
280.633
-346.736
406.043
102.84
-179.677
76.8367
-397.24
-611.194
-193.821
207.082
-13.2607
-419.537
-84.1151
503.652
193.129
-174.168
38.9306
201.269
-25.9446
-359.495
279.834
522.543
-121.175
208.687
463.973
-56.6677
314.469
-406.207
91.7385
18.2795
-637.712
666.523
263.547
-460.423
-783.648
730.264
53.3842
480.77
497.883
70.8192
451.724
-280.338
272.544
-73.0663
-710.582
238.282
-347.669
739.476
-951.135
346.794
-773.425
426.631
124.582
264.236
-206.03
-58.206
-57.2105
-386.627
-868.562
592.616
-1.20566
254.188
3.74935
-308.605
304.856
14.87
-54.7554
235.031
281.894
-37.1513
185.566
-58.3384
-127.227
738.861
19.8904
272.598
300.173
6.44517
176.898
-229.549
52.6512
238.954
-299.166
295.497
-339.941
-202.841
217.09
-14.2485
74.6257
-494.163
243.24
184.251
-82.0218
835.111
-609.384
451.032
579.007
-687.578
221.714
-342.788
308.973
-448.166
188.473
-321.322
217.864
-189.641
-339.038
217.91
-188.724
-6.9253
195.649
219.235
-341.32
368.439
-266.322
-102.118
-7.76674
486.993
-442.454
-560.386
1002.84
-769.33
662.298
-50.6227
-320.53
371.153
21.382
61.9511
-294.1
284.965
-266.571
-8.19542
196.501
69.7735
-266.274
-184.599
-216.631
-297.615
223.443
-208.963
-14.4795
-308.605
-410.112
410.112
184.986
-657.412
169.136
185.373
304.856
727.319
-235.02
-41.9877
-645.473
687.461
527.356
-91.1377
234.726
-363.952
314.885
400.843
242.255
4.24072
232.309
-172.264
-60.0456
-29.0333
-686.832
686.832
-177.233
-386.32
-93.1814
-120.105
206.819
20.2934
-143.126
211.22
-422.589
478.162
-145.13
-201.932
747.547
-505.327
-242.221
-111.781
-106.255
561.568
-184.084
-118.995
-47.0177
-489.862
536.88
-500.706
-287.058
512.687
-21.258
-14.5487
-753.472
559.687
-457.78
-65.6713
767.928
19.1449
230.333
-112.911
773.64
-660.729
108.1
884.181
683.156
856.518
144.964
-218.347
-385.534
-73.6149
-232.345
249.979
-233.295
49.2169
-167.471
-898.169
41.5004
856.668
10.5159
391.421
814.596
-260.287
245.586
14.7011
1066.45
-542.403
-524.045
-168.598
1.73875
476.397
202.609
-36.7961
262.038
285.43
420.457
-772.041
956.295
-184.255
-349.56
5.96324
230.805
16.887
666.395
-89.6531
-213.84
-161.509
-243.03
214.83
92.3336
634.985
689.741
-731.729
91.0728
-795.403
22.5824
654.739
752.277
-849.6
97.3228
-627.531
535.558
91.9736
627.253
-563.543
-63.7101
-446.231
520.857
61.2021
-75.7282
-121.643
197.372
122.546
305.71
-603.767
453.229
189.115
-189.115
-198.358
218.355
-879.195
436.742
-675.991
540.632
-553.991
870.739
-952.761
23.4521
-237.562
203.51
-162.012
-223.114
-247.027
19.4132
356.627
34.4496
340.85
-350.235
-365.84
42.0583
441.642
-680.835
-55.317
-726.736
782.053
225.433
-262.706
55.0904
101.398
-226.385
-623.539
654.983
-196.684
-41.8153
8.16091
554.801
151.645
-306.907
-26.8768
-455.122
957.883
864.391
-864.391
332.515
43.0105
8.59136
463.399
-761.443
17.1683
651.94
14.5834
80.3574
417.475
-497.832
213.805
301.623
-3.88008
8.93054
673.724
16.8143
-869.351
656.224
195.355
303.303
-498.658
-826.246
567.711
210.286
-413.471
17.9698
-649.214
-184.927
-60.733
245.66
-78.0463
192.831
-114.785
15.1503
44.2167
355.345
40.1572
-199.639
17.4127
-298.348
522.281
660.534
64.6588
12.3737
145.243
-78.1796
-198.87
195.653
394.328
-499.636
-707.823
-64.2181
-195.825
-466.853
-477.063
-274.099
-360.836
624.525
-514.929
6.65034
798.773
-805.423
318.332
50.1073
391.614
-59.0984
623.18
-58.3761
-564.804
313.772
-20.6876
-573.248
-107.243
680.491
-27.353
-259.95
-609.667
458.297
-171.96
-74.3421
246.302
242.614
611.326
66.3505
-241.472
-79.8772
24.1252
202.44
-546.045
638.379
193.537
3.50385
-199.534
395.185
-195.651
319.808