/*--------------------------------*- C++ -*----------------------------------*\
  =========                 |
  \\      /  F ield         | OpenFOAM: The Open Source CFD Toolbox
   \\    /   O peration     | Website:  https://openfoam.org
    \\  /    A nd           | Version:  7
     \\/     M anipulation  |
\*---------------------------------------------------------------------------*/
FoamFile
{
    version     2.0;
    format      ascii;
    class       volVectorField;
    location    "36.5";
    object      U;
}
// * * * * * * * * * * * * * * * * * * * * * * * * * * * * * * * * * * * * * //

dimensions      [0 1 -1 0 0 0 0];

internalField   nonuniform List<vector> 
19930
(
(0.997586 -0.00023487 3.35369e-23)
(0.990147 -0.00075932 -3.93753e-22)
(1.03456 -0.00479512 4.467e-23)
(1.0003 -6.47717e-05 -2.68605e-24)
(1.0006 -0.0113879 7.09231e-23)
(1.00014 -0.0120951 -6.97168e-23)
(1.0392 -0.217021 -8.73693e-22)
(1.22966 0.0912101 -1.00124e-20)
(1.00359 -0.107369 -2.09792e-21)
(1.2388 0.0863333 7.22647e-21)
(1.05493 -0.197367 -2.69303e-21)
(1.35761 0.00583735 1.40066e-22)
(0.979516 -0.0678317 -2.69402e-22)
(0.997389 -0.000281476 -2.78155e-23)
(0.994711 -0.00389203 -1.5773e-23)
(1.00029 -7.86603e-05 -2.45388e-24)
(1.3251 -0.12592 -2.51722e-21)
(1.19091 -0.00144856 -5.042e-21)
(0.997968 -0.161383 -1.32652e-21)
(0.99242 -0.000360203 3.46557e-22)
(1.01835 -0.124721 2.91225e-21)
(1.35946 0.0108586 1.84972e-22)
(1.2494 0.0929345 -5.094e-21)
(1.14808 -0.254259 -2.12505e-21)
(1.0321 -0.00224498 1.74019e-24)
(0.997395 0.214565 -2.68714e-20)
(1.0116 -0.00344577 5.56513e-23)
(0.990184 -0.0738905 9.53314e-22)
(1.2027 -0.247602 -1.95445e-21)
(1.00109 -0.163423 4.81485e-21)
(0.998352 -0.00261637 -1.19973e-26)
(0.878022 0.0337778 4.6369e-20)
(1.3436 0.0945937 2.12732e-21)
(0.988646 -0.0423325 1.01613e-22)
(1.00001 -0.00199444 6.77461e-24)
(0.998416 -0.00283652 5.48588e-25)
(1.2397 0.129416 -1.10192e-20)
(0.999942 -4.33434e-06 -4.96976e-24)
(1.01885 -0.025567 1.4479e-22)
(1.19996 -0.0124707 -1.43876e-21)
(1.05489 -0.0112586 2.87931e-23)
(1.34286 0.189179 4.57036e-21)
(1.07998 0.0937736 -6.99086e-21)
(1.0103 -0.00398428 -4.63797e-23)
(0.995354 0.205167 1.09335e-20)
(0.978081 -0.00161513 -2.16119e-22)
(1.18012 0.0118874 -1.75537e-20)
(1.34481 -0.0597948 2.46314e-21)
(0.999586 -0.000111671 -5.04358e-24)
(0.964142 -0.058585 8.40374e-23)
(0.999883 -0.00212053 -1.64782e-23)
(1.10556 -0.0134882 1.09415e-22)
(1.22392 -0.181059 7.26033e-21)
(1.00031 -0.00480798 -2.63437e-23)
(1.26052 -0.193086 -1.71952e-21)
(0.940637 -0.0204204 2.06238e-23)
(0.971568 -0.0386295 3.00429e-23)
(0.998162 -0.00342868 -1.2398e-24)
(1.01115 -0.0628038 -1.4409e-21)
(1.32499 -0.120511 1.95889e-21)
(0.940971 0.0706457 2.42026e-20)
(0.967545 -0.00464806 -2.19826e-22)
(0.987508 -0.0036052 5.97234e-23)
(1.25588 0.0703172 -3.9406e-22)
(0.999435 -8.15726e-05 3.25467e-23)
(0.994105 -0.00995793 3.55954e-24)
(0.994195 0.143622 7.17399e-22)
(0.993413 -0.0103783 1.72478e-23)
(1.15593 -0.119158 -2.92072e-21)
(1.01451 0.215485 1.0009e-20)
(1.05262 -0.0581263 -9.40814e-22)
(1.31743 -0.152827 -3.70099e-21)
(0.99519 -0.00392245 -1.37505e-24)
(0.97796 -0.0491354 6.91139e-22)
(0.999585 0.0174556 -1.03163e-20)
(1.09453 -0.120521 1.91255e-21)
(1.01219 0.199802 4.55979e-21)
(0.958296 -0.00555872 -2.6365e-23)
(1.19588 -0.0114555 9.43654e-22)
(1.00718 0.0692652 1.4427e-20)
(0.995217 -0.0104225 7.9382e-23)
(1.00267 -0.00574639 -3.52593e-23)
(1.18336 -0.247304 1.5597e-21)
(1.00504 -0.104065 1.75066e-21)
(0.971215 -0.00368041 2.4335e-22)
(1.07412 0.0892408 3.35658e-20)
(0.983324 -0.0633521 -4.83167e-22)
(0.755193 0.125598 4.50572e-21)
(1.24588 0.0680739 -4.08737e-21)
(0.957842 0.222715 1.77919e-20)
(1.2037 0.0239483 -6.06566e-21)
(1.00038 -9.52058e-05 2.77134e-24)
(1.00003 -0.00039421 8.16704e-24)
(0.901182 0.0103424 -1.31992e-20)
(1.34431 -0.0664291 -1.2116e-21)
(0.987857 -0.0038232 5.21478e-23)
(0.920778 0.00664945 2.02075e-20)
(0.999147 -0.00570445 1.66366e-23)
(1.06076 -0.19146 -1.22668e-21)
(1.14237 0.0248766 -8.04601e-21)
(0.949423 0.230482 -5.28619e-20)
(0.970639 -0.0119612 -3.10985e-24)
(0.922452 0.210564 -5.88116e-20)
(1.21233 -0.165891 8.54076e-21)
(1.14788 -0.00582908 -1.63206e-21)
(1.12928 -0.121889 2.56254e-21)
(1.08769 0.227005 1.70292e-20)
(1.20323 -0.141781 3.16543e-21)
(0.990033 -0.000432096 5.90256e-22)
(1.14492 0.245207 3.4379e-21)
(1.20965 -0.252052 -6.73531e-21)
(1.03301 -0.215995 -1.93923e-21)
(0.970988 -0.0298534 1.71451e-22)
(1.04432 -0.0298334 4.2574e-22)
(1.09811 -0.112199 8.24256e-22)
(1.00007 -0.000146442 -2.49482e-24)
(1.13012 0.143522 1.53097e-20)
(0.995949 -0.00976467 -3.25191e-23)
(1.20122 -0.177499 1.66501e-21)
(1.00566 0.0494929 -3.37292e-20)
(1.00037 -7.17594e-05 5.27036e-25)
(1.03354 -0.130897 2.05296e-21)
(1.23498 -0.00867652 -1.71821e-21)
(1.01186 -0.0719324 -1.99463e-21)
(0.988574 -0.0400868 -6.27057e-23)
(1.19299 -0.00162042 2.46293e-21)
(1.36631 0.0523587 -3.68469e-22)
(0.989952 -0.0710768 7.58809e-22)
(0.862448 0.0403371 -1.36752e-20)
(1.12279 0.151228 8.27514e-21)
(0.98457 -0.0818775 -7.69411e-22)
(0.963767 -0.0562178 -3.05776e-22)
(1.05513 -0.00582098 -6.21288e-23)
(1.01774 -0.0235227 -1.4205e-22)
(1.06933 0.214855 -2.38034e-20)
(1.14143 -0.00979803 -2.5639e-22)
(1.34645 -0.0366238 1.79171e-21)
(1.0224 -0.125738 -1.20664e-21)
(0.976196 -0.0124015 1.73908e-23)
(0.985795 -0.109007 3.52336e-21)
(1.02824 -0.134546 3.27232e-22)
(0.975869 -0.0507473 -6.87958e-22)
(1.31418 -0.162485 -3.2178e-21)
(0.914007 0.233388 -1.87289e-20)
(1.28179 -0.0794591 -9.16295e-22)
(1.06886 0.223055 2.16679e-20)
(1.37239 0.104277 -4.41171e-22)
(0.96333 -0.0124525 7.91679e-23)
(1.36123 0.0371592 -5.29257e-22)
(1.01313 -0.00461259 -1.19828e-22)
(0.963622 -0.0112769 -1.75415e-22)
(1.0176 0.210154 1.06931e-21)
(1.00006 -0.000344606 -5.2577e-24)
(1.0033 -0.0961727 6.56983e-22)
(1.00261 -0.00516643 6.30225e-23)
(1.37256 0.113665 1.63482e-21)
(1.06564 0.0947492 -3.49474e-21)
(1.14319 -0.24948 9.54061e-21)
(0.934731 -0.0240494 2.10399e-23)
(0.97832 -0.0694516 5.6059e-22)
(1.26266 -0.203218 2.43682e-21)
(1.04502 -0.210385 1.36166e-21)
(0.998112 -0.00315288 -6.70812e-25)
(1.28266 -0.0722159 1.11552e-21)
(1.17951 -0.0100718 -3.37114e-22)
(0.759677 0.131812 1.08294e-20)
(0.971866 -0.0122182 -4.46826e-23)
(1.17491 -0.25416 6.14532e-22)
(1.08842 -0.122364 -2.19257e-21)
(1.23554 0.122947 -6.79373e-21)
(1.34666 -0.0403432 -5.09474e-22)
(0.977348 0.161792 1.08318e-20)
(1.22236 0.263375 1.99414e-20)
(0.985256 -0.0365732 1.31384e-23)
(0.822436 0.0319439 -1.62804e-20)
(1.34724 0.0877419 2.10157e-21)
(0.99658 -0.000652187 -3.6866e-23)
(0.982093 0.0136525 -2.80022e-20)
(1.10664 -0.111123 -8.81869e-23)
(1.13168 0.263651 7.10485e-21)
(1.06131 0.24143 -1.10298e-20)
(0.999909 -2.66185e-06 6.11112e-24)
(0.90622 0.156324 7.16408e-22)
(1.19468 0.226912 1.86954e-20)
(0.991789 -0.000612186 -2.13115e-23)
(0.937063 -0.0165003 -9.32718e-23)
(1.05221 -0.0542945 6.83811e-22)
(1.15169 0.0181773 -2.10683e-21)
(1.20422 -0.170071 -2.83582e-21)
(0.832124 0.113815 1.39535e-20)
(1.3634 0.0532158 -4.92412e-22)
(1.29907 -0.126901 -1.88346e-21)
(1.13434 0.0195014 1.58877e-20)
(1.15655 -0.110642 -1.48792e-21)
(0.934754 -0.0253542 9.56915e-23)
(1.34835 -0.00617463 6.52077e-22)
(0.908565 0.165505 -8.65642e-22)
(1.32956 -0.0843589 4.74778e-21)
(0.993759 -0.000233847 -1.23827e-23)
(0.823099 0.111938 -1.37252e-20)
(1.33083 -0.0470719 3.08994e-21)
(1.28043 -0.172566 2.64241e-21)
(1.22499 -0.172858 -6.95724e-21)
(0.846566 0.133368 -1.66941e-20)
(0.887428 0.142386 3.82399e-20)
(0.954782 -0.0299096 -9.10328e-23)
(0.998855 -0.0525474 -1.00065e-22)
(1.10569 -0.00795818 -9.93002e-24)
(0.939988 -0.0222783 -5.49775e-23)
(0.998829 -0.000109178 6.03244e-23)
(0.998383 0.147061 -5.0301e-21)
(0.97549 0.0488334 -1.00559e-20)
(0.961128 -0.0162092 1.26436e-23)
(0.942855 -0.0416902 1.7535e-22)
(1.13273 0.253116 1.04592e-20)
(0.998497 0.0325002 1.56983e-20)
(0.998887 -5.4545e-05 -1.74395e-22)
(1.00319 0.0368122 -2.30017e-20)
(1.2096 -0.137301 1.47934e-21)
(1.01919 -0.0207266 3.79414e-22)
(1.00363 -0.0771866 1.08981e-22)
(1.08724 0.148607 -1.78796e-21)
(0.888362 0.263465 1.7698e-20)
(1.1985 0.0226203 8.02232e-21)
(1.14317 0.232023 -1.69099e-20)
(0.974875 -0.0122781 -3.47146e-23)
(1.00168 -0.0519815 -5.03546e-22)
(1.00011 -0.000153431 1.33245e-25)
(0.999243 -3.80414e-05 4.84841e-23)
(1.00046 -0.00949282 1.37497e-22)
(1.22975 -0.00996446 7.02358e-22)
(1.1617 -0.172994 -1.58291e-21)
(1.09004 0.218279 -2.16538e-20)
(0.995794 -0.128464 9.15151e-22)
(1.0503 0.078446 1.33181e-20)
(0.985269 -0.0611368 -8.33987e-23)
(1.12185 -0.116007 -1.86314e-21)
(0.982981 0.1579 1.91598e-20)
(0.907009 0.0082002 6.87718e-20)
(1.08708 0.139776 3.03187e-20)
(1.01745 0.192282 -2.82253e-20)
(0.940997 -0.0406355 -1.47252e-22)
(1.31296 0.181122 -3.57561e-21)
(1.01327 -0.0697338 2.18696e-21)
(1.15486 -0.00958233 3.69743e-21)
(0.995764 -0.00876215 -4.89322e-23)
(1.29391 -0.191991 -7.20247e-21)
(1.22584 -0.109817 -3.03591e-21)
(1.11567 -0.0400924 6.52296e-23)
(0.999629 -8.55457e-05 6.09505e-24)
(0.988234 -0.000599182 -6.63357e-22)
(0.876663 0.269931 -2.72824e-20)
(1.28358 -0.00337745 6.5599e-21)
(1.01802 -0.0274796 -3.37856e-22)
(0.95989 -0.0635121 -6.76208e-22)
(1.15571 -0.166613 6.26847e-22)
(1.08281 -0.232086 3.66392e-21)
(1.33577 0.199449 -6.73995e-22)
(0.987422 -0.107828 -1.01476e-21)
(0.973871 -0.00201234 3.45794e-22)
(0.992772 -0.0843135 1.15824e-21)
(0.989858 -0.0354345 -9.38274e-23)
(0.999407 -5.99532e-05 -2.42393e-24)
(0.984149 -0.058206 4.39114e-22)
(1.04983 -0.210709 -5.98714e-22)
(0.911308 0.222867 3.51472e-20)
(1.33805 -0.0890329 -2.84363e-21)
(0.973206 -0.0285176 -2.72011e-22)
(1.04531 0.0828098 -2.06358e-20)
(0.891501 0.154215 -4.61556e-21)
(0.984063 -0.0659744 8.4207e-23)
(1.00076 -0.000334099 -1.85903e-23)
(1.00205 -0.0999309 -1.17447e-21)
(0.994403 0.134929 5.88214e-21)
(1.26772 -0.223349 -3.85351e-21)
(0.946493 0.0649428 -3.62529e-20)
(1.00003 -0.000163156 1.13904e-24)
(0.944708 -0.0463215 3.88314e-22)
(1.19114 0.281564 1.62999e-21)
(0.998975 0.0300628 3.1393e-20)
(1.03682 -0.0982575 -4.23202e-22)
(0.973433 -0.0368929 2.31005e-22)
(0.837625 0.238649 2.99825e-20)
(1.28014 -0.15529 8.02149e-22)
(1.29165 -0.127497 1.58811e-21)
(0.93376 0.213369 2.40527e-20)
(0.834761 0.130829 -2.86555e-21)
(0.982249 -0.0681645 -2.89046e-22)
(1.19106 0.290362 -1.15603e-20)
(1.21847 -0.0436801 -9.76667e-22)
(1.01044 0.0728748 -3.93707e-20)
(1.16768 0.145194 8.53332e-21)
(1.00079 -0.000244519 2.39624e-23)
(1.34069 -0.0904908 2.80217e-21)
(1.22056 0.124376 4.21106e-21)
(0.99655 -0.00055449 -1.07987e-22)
(0.993579 -0.135342 -3.83833e-22)
(1.32437 -0.0733876 1.24535e-21)
(1.16175 -0.244006 -1.74628e-21)
(1.32578 -0.0494404 -1.56585e-21)
(1.24122 -0.0903799 1.3261e-21)
(1.00011 -0.000236281 -2.12926e-24)
(0.999329 -0.00399241 4.24378e-23)
(0.9658 0.257146 -4.11385e-20)
(1.00112 -0.0173051 -2.54226e-23)
(1.00653 -0.162517 -1.18787e-21)
(0.985279 -0.0885197 1.06886e-22)
(1.35999 0.0131096 3.97118e-22)
(0.97002 -0.00445817 4.46651e-23)
(1.13794 0.270541 1.20227e-20)
(1.28513 -0.054202 -1.14424e-21)
(0.989608 -0.0848154 6.52781e-22)
(0.955199 -0.00677421 8.41632e-23)
(1.23941 0.111708 7.06656e-22)
(1.34311 0.00380613 -1.07158e-22)
(1.00006 -0.00024116 -1.76833e-24)
(0.946564 0.152402 3.53157e-20)
(1.12474 0.160237 3.94888e-21)
(0.985881 0.029613 -8.7221e-21)
(1.26581 -0.184126 -2.5021e-21)
(0.999493 -5.69638e-05 -2.58383e-23)
(0.841706 0.227999 -2.00514e-21)
(0.996108 -0.00595106 -1.35944e-23)
(0.989339 -0.06484 1.97817e-22)
(1.34406 -0.00417328 3.29765e-23)
(1.32449 -0.0815809 -5.54218e-22)
(0.974003 -0.0680283 -5.84e-22)
(1.27586 -0.164626 3.94572e-21)
(1.05946 0.0909644 5.37639e-21)
(0.904813 0.0100643 2.4767e-20)
(1.0474 0.217634 -2.90301e-20)
(1.26511 -0.0294589 -1.57017e-21)
(0.798518 0.0430871 3.52162e-21)
(1.00032 -1.22315e-05 -1.73907e-24)
(0.987159 -0.0346968 -8.93269e-23)
(0.999827 0.0164349 4.15043e-20)
(1.21677 -0.221148 7.87391e-22)
(1.21442 0.118545 -1.02853e-20)
(0.98062 -0.0498835 -2.96451e-22)
(1.00152 0.198432 2.86615e-20)
(1.25958 -0.0615876 -3.27197e-22)
(1.00002 -0.00438218 3.37104e-23)
(1.25163 -0.0631662 2.96365e-22)
(1.12655 0.132637 -1.97186e-20)
(1.17708 -0.223617 -5.2821e-23)
(0.94447 0.0150924 -6.62942e-21)
(1.2147 0.229489 2.55968e-21)
(0.999232 -0.000332074 1.62675e-24)
(1.04705 -0.0270563 5.07024e-22)
(1.30773 0.0896926 3.09349e-21)
(1.19119 -4.84892e-05 9.94704e-21)
(0.998331 -8.45757e-05 1.83327e-22)
(1.2185 0.25372 -1.79376e-20)
(1.01421 -0.0619532 -1.90367e-22)
(0.735514 0.125785 -1.59092e-21)
(1.02337 -0.132253 -2.45142e-21)
(0.961138 -0.0145419 -2.36663e-23)
(0.988891 -0.000710374 5.18531e-22)
(1.05258 0.225992 3.19916e-20)
(1.18928 0.219525 -2.93664e-20)
(0.974925 -0.00280238 -1.36422e-22)
(1.22873 0.103223 2.47002e-21)
(0.955686 0.210873 -1.02024e-20)
(1.00118 -0.0185804 -4.81782e-23)
(1.09545 0.0122775 4.99669e-21)
(1.04993 0.0384195 -1.48867e-20)
(0.766465 0.0668324 2.3279e-20)
(0.996647 -0.00495882 2.46817e-24)
(1.34015 0.0303868 -1.57026e-21)
(1.21783 -0.11319 1.14326e-21)
(0.939509 -0.0198664 -1.66513e-23)
(0.999659 -5.96825e-05 -5.48453e-24)
(0.999634 0.00918115 2.55895e-20)
(1.34906 0.189862 2.46462e-21)
(1.31517 -0.100694 1.21813e-20)
(0.99152 0.253274 -1.02799e-20)
(1.26332 -0.0219196 6.29528e-22)
(0.969371 -0.0379977 1.71656e-22)
(1.31107 0.168172 -2.75824e-21)
(1.17888 -0.00572433 -1.20536e-21)
(1.27434 -0.000786249 2.49848e-21)
(0.772847 0.0731176 -6.07762e-20)
(1.02726 -0.116232 9.24636e-22)
(1.34077 -0.0173087 -2.51909e-22)
(0.982297 0.0410216 -2.27166e-20)
(0.958101 -0.0645236 6.01923e-22)
(1.20344 -0.0536434 1.32765e-22)
(1.06936 -0.192478 2.89362e-21)
(1.30382 0.0819108 -1.40968e-21)
(0.994928 -0.000182395 8.01707e-22)
(1.18516 0.0118291 -1.75494e-21)
(1.31891 -0.095205 -4.9731e-21)
(1.33852 -0.0227073 -1.25082e-21)
(1.00138 -0.00564956 1.26065e-22)
(1.17634 0.00893024 1.87279e-20)
(0.995382 0.0209941 -2.16268e-20)
(1.1178 0.0906423 3.55316e-20)
(1.16346 -0.239034 -6.96481e-21)
(0.991536 -0.0334466 2.10201e-22)
(0.856727 0.122029 -1.93175e-20)
(0.877825 0.0392776 -4.98103e-20)
(0.996431 -0.00820695 -8.88832e-24)
(0.946933 -0.0453237 1.60639e-22)
(1.05299 0.158024 4.2817e-21)
(1.0117 -0.170749 -9.75399e-22)
(1.11319 -0.118696 1.65291e-21)
(1.32625 0.196438 1.04781e-20)
(0.990684 -0.000464497 -6.46261e-22)
(0.761876 0.0590168 4.03737e-20)
(1.03968 -0.0880687 -1.32514e-22)
(1.34359 0.0483633 9.77929e-22)
(0.987986 -0.0115848 -3.38736e-24)
(0.992434 0.0215177 -9.27337e-21)
(1.21929 0.217708 -5.01027e-21)
(1.11681 -0.0316614 -3.75703e-22)
(1.129 -0.129926 -9.43832e-22)
(1.30254 -0.121655 3.35583e-21)
(1.33237 -0.0420602 -3.82387e-22)
(0.999328 -0.00621068 2.01105e-24)
(1.03968 0.130744 -7.89843e-21)
(1.32276 -0.150116 7.93484e-21)
(1.23861 0.0743386 1.01637e-20)
(0.737884 0.133713 6.08517e-20)
(1.27595 -0.182798 2.04974e-21)
(1.08565 -0.105638 -2.69756e-21)
(1.00002 -0.0103167 -1.38086e-22)
(1.34634 -0.0563961 -4.52311e-21)
(1.32995 -0.0920062 -3.10486e-21)
(0.969206 -0.0289717 4.15655e-22)
(1.28175 0.212014 -1.71511e-21)
(1 -0.00161375 -2.6341e-23)
(0.966054 -0.0517965 -1.07323e-22)
(1.01804 -0.0188257 -5.3128e-22)
(1.27514 -0.147777 3.03508e-22)
(0.985819 -0.0559025 3.59874e-22)
(0.999574 -0.000146904 1.65238e-24)
(0.983698 -0.0727046 1.18799e-21)
(1.34883 -0.0128447 5.16612e-22)
(1.17609 -0.233075 -2.69066e-21)
(1.05789 -0.0945159 -2.25024e-22)
(0.95289 -0.03062 -2.14663e-22)
(1.31877 -0.0698593 3.43569e-21)
(1.23591 -0.0834375 -9.14834e-22)
(0.967229 -0.0673443 -3.08443e-22)
(0.947742 -0.00956361 -3.10672e-22)
(1.00097 -0.00589706 -2.01805e-23)
(1.16247 -0.124864 3.20545e-21)
(1.02513 -0.184528 -1.64927e-22)
(1.01487 -0.00387516 9.1284e-23)
(1.04137 -0.0942137 1.55226e-21)
(1.33727 0.00636861 -1.57335e-22)
(1.11862 0.0832563 -2.15667e-20)
(1.29136 -0.0676173 -3.20103e-22)
(0.99921 -0.000274898 1.64249e-23)
(0.818365 0.253967 -4.46719e-20)
(1.01507 -0.00197163 3.18309e-22)
(0.999907 -0.00174632 3.14935e-23)
(1.05144 -0.0134195 -2.48134e-22)
(0.951701 -0.0459474 -2.70885e-22)
(1.00809 -0.118808 1.35078e-22)
(0.895626 0.131617 -2.24431e-20)
(1.02842 -0.0717327 1.36318e-22)
(1.21353 -0.0397812 -6.67768e-22)
(1.02073 -0.160003 2.40081e-21)
(1.01669 -0.162399 -3.02986e-21)
(1.3247 0.183702 -7.28006e-21)
(0.991869 -0.0657088 -3.50737e-22)
(0.986901 -0.102811 5.09488e-22)
(0.996088 -0.133323 9.35093e-22)
(0.999716 -4.29335e-05 1.1789e-23)
(1.21323 -0.156238 -4.88306e-21)
(0.79151 0.23893 -4.12768e-21)
(1.0865 -0.225175 9.82181e-22)
(0.948445 -0.0586024 -4.78524e-23)
(1.27208 0.202816 -1.54243e-22)
(0.97548 -0.0641225 -6.17558e-23)
(1.16261 0.13606 -7.17627e-21)
(1.36346 0.0358955 1.99669e-22)
(0.995529 -0.00636156 2.98081e-23)
(0.998671 -0.000158807 -4.9145e-23)
(1.10945 0.148074 2.48252e-21)
(0.741176 0.170089 1.97244e-20)
(1.06702 -0.222344 2.41959e-22)
(1.3694 0.0892325 1.98447e-22)
(1.35167 -0.0201244 2.57698e-21)
(0.956152 -0.0520176 -1.37055e-22)
(0.956016 -0.0547687 -3.38465e-22)
(1.05822 0.164673 -1.15343e-21)
(1.1413 -0.0181787 4.32732e-22)
(1.18512 -0.238212 5.54391e-21)
(1.07486 -0.184908 -2.47752e-21)
(0.979444 -0.00164967 2.69011e-23)
(1.082 -0.0208423 -1.40739e-22)
(0.868434 0.062055 -8.60161e-21)
(1.22359 -0.0204038 -5.75699e-21)
(1.00031 -0.000113261 2.66993e-24)
(0.918285 0.201635 3.79158e-20)
(1.04375 -0.0842057 -1.68576e-21)
(1.00974 -0.121121 1.74823e-21)
(1.19909 0.27306 -9.88944e-21)
(1.02121 -0.0306153 -5.07682e-22)
(0.987074 -0.0109974 -4.72002e-24)
(0.99923 -0.000503477 5.99023e-24)
(1.20178 -0.123079 -1.70365e-21)
(0.956128 -0.0229742 -9.06172e-23)
(1.0003 -2.0629e-05 3.01363e-24)
(1.37057 0.0852272 -5.6582e-22)
(1.27219 -0.215691 -2.69687e-21)
(1.03433 0.128455 -1.38189e-20)
(0.999335 -8.67261e-05 -8.7186e-24)
(1.00013 -0.00525895 -1.61087e-23)
(0.97401 -0.0657691 -3.22011e-22)
(0.999994 -0.000145101 2.65106e-25)
(1.06774 -0.228494 -1.2341e-21)
(1.20431 -0.236758 -2.66778e-21)
(0.999429 -0.00524878 8.30305e-24)
(1.00753 -0.0950862 -5.31371e-22)
(0.93845 -0.0163268 6.34121e-24)
(1.18047 0.244843 -1.34997e-21)
(0.985065 0.250757 8.29272e-21)
(0.996084 -0.00539753 4.53996e-24)
(1.00382 -0.00138294 3.62235e-23)
(0.991927 -0.126115 -2.32956e-21)
(0.969954 0.226455 2.75654e-20)
(1.0047 -0.042956 5.24893e-22)
(0.950233 0.142167 -8.36898e-22)
(0.976974 -0.0137783 -6.29233e-24)
(0.741312 0.100425 -1.65081e-20)
(1.08451 0.0285479 -2.74499e-21)
(1.26557 0.0422152 -7.98036e-21)
(0.778809 0.133676 -1.78067e-20)
(1.32518 -0.140211 3.19697e-22)
(0.989004 -0.00306897 3.35116e-23)
(1.20957 -0.108925 -9.62249e-22)
(1.01024 -0.044681 -5.48416e-23)
(0.988659 0.222703 6.72799e-21)
(1.05055 0.142036 1.85108e-20)
(0.967419 -0.00857543 -6.25735e-23)
(1.29068 -0.18579 8.15371e-21)
(1.17966 -0.0516861 -3.95124e-23)
(1.08123 -0.11098 -1.44692e-21)
(0.996027 -0.000279754 1.13466e-22)
(1.29043 -0.201429 7.11383e-21)
(1.00028 -5.46435e-05 4.08693e-24)
(1.16956 0.23955 6.50046e-21)
(0.937964 -0.0152482 1.13867e-22)
(0.987317 -0.0817971 -2.19985e-22)
(0.993829 -0.0388466 2.45178e-22)
(1.00655 -0.0760394 1.97047e-21)
(1.33602 0.0492446 3.59783e-22)
(1.29216 -0.0604472 1.44868e-21)
(0.998592 -4.87102e-05 -1.90624e-22)
(1.03237 -0.0691535 -1.16763e-21)
(0.999864 -0.000187514 -6.79853e-26)
(0.74856 0.0925608 1.21782e-20)
(0.880362 0.0557182 1.75372e-20)
(0.99482 -0.0010561 6.17738e-23)
(0.966202 -0.0145543 -5.92467e-24)
(1.04432 -0.0514218 -5.57209e-22)
(1.05659 0.148665 7.94385e-21)
(0.931003 -0.0254994 -1.30107e-22)
(1.35276 -0.0205116 6.36059e-22)
(0.951069 -0.0601352 9.5727e-23)
(1.0353 0.218904 -5.78749e-22)
(1.27501 0.0432852 -8.07517e-22)
(0.954662 -0.0251925 -9.49844e-23)
(0.783583 0.0472947 -2.56228e-20)
(1.07195 -0.00355789 2.17386e-22)
(1.06187 0.227724 -1.69381e-20)
(0.990205 -0.0171263 2.07519e-24)
(1.02712 -0.195692 4.88276e-21)
(0.956401 0.00901567 -5.5501e-20)
(1.01776 -0.0565518 7.71891e-22)
(0.733142 0.183031 -9.01192e-21)
(1.08473 0.168991 9.76933e-22)
(0.786855 0.0538496 -6.05199e-21)
(0.989413 -0.00320305 -1.55885e-23)
(0.992729 -0.000523182 -2.5775e-22)
(1.03319 -0.124879 -5.67485e-22)
(1.22806 -0.10085 3.88449e-21)
(1.0195 -0.0303009 5.50014e-22)
(1.03277 -0.112946 -1.97775e-22)
(1.04381 0.200721 1.57356e-21)
(1.03688 0.239925 5.42523e-21)
(1.08703 0.00547673 7.13526e-24)
(0.977725 0.219316 -1.9756e-20)
(0.749697 0.200007 4.88159e-21)
(1.33504 0.0943232 4.90081e-21)
(0.998443 0.0101271 -3.71898e-20)
(1.10551 0.071615 -6.98515e-21)
(1.00628 -0.0225968 -4.5219e-22)
(1.10358 0.154672 -8.05128e-22)
(0.984895 -0.101961 -4.38117e-22)
(0.953319 -0.0587402 2.51245e-22)
(0.998404 -0.00142674 -1.88745e-24)
(1.07255 -0.110219 3.43103e-21)
(1.13461 -0.210139 -7.5211e-22)
(1.17872 0.0626036 4.99498e-21)
(1.12236 -0.0155652 5.46397e-22)
(1.00517 0.0582143 2.87809e-21)
(1.01019 -0.0654815 1.3286e-21)
(1.18995 -0.0404051 5.31922e-22)
(1.00673 0.0438766 -3.27482e-21)
(1.01177 -0.0469038 8.93894e-22)
(1.1235 -0.134623 2.14414e-21)
(0.999898 -0.000218929 1.53868e-25)
(1.00053 -0.000277967 3.81261e-24)
(1.17355 0.0565533 -4.07898e-23)
(0.988175 -0.0881112 -6.3274e-22)
(0.961129 -0.0550105 4.1712e-22)
(1.00059 -0.000265388 -5.80683e-24)
(0.999985 -0.00362479 2.12222e-23)
(1.17614 -0.0572989 -5.812e-23)
(0.999501 -5.95997e-05 1.53141e-23)
(1.34143 -0.0704432 8.8728e-23)
(0.759081 0.0730459 3.21032e-20)
(1.37009 0.10126 1.50943e-22)
(1.26031 0.0786297 -4.33181e-22)
(0.963939 -0.00827504 1.25124e-22)
(1.11071 0.229972 5.72866e-21)
(1.34696 -0.0498153 1.95404e-21)
(1.00548 -0.0400489 -3.18247e-23)
(0.966383 -0.0164633 -2.02271e-23)
(0.996655 -0.00457251 -1.17531e-25)
(0.999175 -0.000438771 -4.61147e-24)
(1.00216 -0.00603665 -4.85841e-23)
(0.994589 -0.0413454 2.03594e-22)
(1.04728 -0.195793 2.90012e-21)
(1.26035 0.125131 1.186e-20)
(1.25641 -0.112566 -1.25601e-21)
(0.964189 -0.00391585 -3.03519e-24)
(0.999876 -0.000150189 4.87618e-25)
(1.00791 0.132762 1.92782e-20)
(1.32092 -0.118133 6.70711e-21)
(1.30658 -0.164855 2.2707e-21)
(1.02091 -0.0583116 -8.68071e-22)
(1.34405 -0.0353794 -1.40664e-21)
(1.06951 -0.113962 -8.83406e-22)
(0.984235 -0.000879025 6.31655e-24)
(1.0038 0.0327722 1.63277e-20)
(0.958531 0.00160502 -7.46466e-20)
(1.26471 0.267637 -1.02947e-20)
(0.990711 -0.000396709 4.37572e-22)
(1.25652 0.27282 8.61073e-21)
(0.966653 -0.00580551 -6.70771e-23)
(0.979334 -0.0600063 -4.18637e-22)
(1.35337 0.128734 -4.81707e-21)
(1.00029 -0.000138747 4.82927e-24)
(0.985648 -0.0388671 -3.69443e-23)
(1.34449 0.0339497 6.3176e-22)
(1.31762 0.09138 5.25635e-21)
(0.955772 -0.027516 -9.36597e-24)
(1.06643 0.146726 1.26262e-21)
(0.900119 0.271159 -1.84436e-21)
(1.03409 0.0708915 -3.68913e-20)
(0.949251 -0.047066 4.39103e-22)
(0.948833 -0.00946903 1.10754e-22)
(1.06319 -0.0900219 -5.08566e-22)
(1.1849 -0.0119245 2.25748e-22)
(1.04634 0.0317134 -8.71858e-21)
(0.99467 -0.00149914 1.67357e-23)
(0.94827 0.0216872 -2.07689e-20)
(0.988571 -0.0617971 1.08949e-21)
(1.03337 -0.195612 -3.35091e-21)
(1.20786 -0.100245 -6.43231e-22)
(0.807892 0.259063 6.34592e-20)
(1.2714 0.131374 -8.946e-21)
(1.04282 0.144176 -1.94646e-20)
(1.21513 -0.231604 1.40612e-21)
(0.924123 0.00491838 -3.38977e-20)
(0.958301 -0.022744 8.547e-23)
(0.981245 -0.0577651 3.05204e-22)
(0.837949 0.0246582 1.21375e-20)
(1.11038 -0.0434027 1.01816e-23)
(1.04865 -0.182295 -5.00394e-22)
(1.06103 0.207349 -3.92791e-21)
(1.02893 0.210041 -1.25459e-20)
(0.968391 -0.0500769 -3.77017e-22)
(1.05799 0.0410767 -1.95998e-20)
(0.972579 0.237272 -3.62719e-21)
(1.02807 0.192685 1.64248e-20)
(1.15907 0.264121 4.46846e-21)
(1.05072 0.209773 2.57735e-20)
(1.1616 0.154674 -1.12823e-20)
(0.984916 -0.00387996 -9.77392e-23)
(0.959289 -0.0249201 1.42605e-22)
(1.00334 -0.00980656 -2.79282e-23)
(1.00955 -0.159763 3.38505e-21)
(0.987452 0.042727 -5.19993e-21)
(1.01619 -0.169233 1.96479e-21)
(1.34783 0.00920925 -2.22828e-23)
(1.28644 0.0117234 -2.96005e-21)
(0.961815 -0.0641636 3.13872e-22)
(1.33864 -0.0676981 -1.52032e-23)
(1.35858 0.0317903 9.16159e-24)
(0.986465 0.0160567 -1.59562e-21)
(1.33004 -0.068962 -1.41795e-21)
(0.999476 -0.00437681 -4.93974e-24)
(1.08713 -0.0204427 2.98079e-23)
(0.978395 -0.0648279 2.01655e-22)
(1.28948 -0.153743 1.18181e-22)
(1.30275 -0.158322 -5.03064e-21)
(1.02042 -0.179931 6.38868e-22)
(1.15642 0.250484 2.52539e-21)
(0.946544 0.262034 2.95839e-20)
(1.25128 -0.0891211 -1.11142e-21)
(0.994976 0.0126204 1.6505e-20)
(0.740852 0.157711 -2.21417e-20)
(0.998692 -9.75529e-05 4.67592e-23)
(1.00424 -0.00141185 -2.89193e-24)
(0.995544 -0.00705431 -1.28065e-23)
(0.967982 -0.00912128 -3.72584e-23)
(1.22417 0.142018 -7.55994e-21)
(0.836282 0.0280008 -2.62189e-20)
(1.229 -0.0180533 4.98126e-21)
(1.12202 0.246729 3.47073e-21)
(0.975449 -0.0298036 -1.6448e-22)
(1.26454 0.230585 1.39912e-20)
(1.2681 0.252964 4.37602e-21)
(1.27065 -0.205758 1.07765e-21)
(0.951587 -0.0134481 -2.96601e-23)
(0.932895 -0.0239789 1.00573e-22)
(1.35211 0.00643108 -2.12069e-23)
(1.01494 -0.0577942 2.98079e-22)
(1.25754 -0.106246 -1.45966e-21)
(0.958649 -0.0506386 7.58025e-23)
(0.934573 -0.048283 -5.25223e-22)
(1.07997 0.210663 2.73984e-20)
(0.990699 -0.00270896 -7.03169e-23)
(1.03303 -0.0791533 -2.67809e-22)
(1.03999 0.235027 1.33347e-20)
(1.33447 -0.0720675 -8.66973e-21)
(0.834825 0.214711 7.06163e-21)
(1.01749 -0.115121 -9.72454e-22)
(1.09351 0.0247011 8.94649e-21)
(1.29412 -0.160849 5.14165e-21)
(0.996644 -0.0937338 2.75382e-22)
(0.956279 0.0159315 -7.51558e-21)
(0.979466 0.00101337 4.80636e-20)
(0.979579 0.0632783 -8.08509e-21)
(0.99048 -0.0438058 -4.30594e-22)
(0.862362 0.0360719 2.75724e-20)
(0.952079 -0.0431436 2.12891e-22)
(0.935449 0.187268 1.09668e-21)
(1.16461 -0.105402 7.31624e-22)
(0.970528 0.113549 -4.5051e-21)
(0.97468 -0.0615203 2.5168e-22)
(1.00003 -0.000297661 -4.21041e-25)
(0.970502 0.0983073 1.51513e-20)
(0.929039 0.166511 1.79833e-20)
(0.943435 0.205572 -2.87798e-20)
(0.973691 0.0821577 -1.76373e-20)
(1.15101 0.00921689 -2.79562e-20)
(1.20125 -0.0475229 7.1055e-23)
(1.1867 0.134953 -2.03412e-20)
(1.04502 -0.176698 1.31143e-21)
(0.993422 0.031468 5.33897e-20)
(1.06153 0.130979 -2.38062e-20)
(1.3143 -0.119206 -8.07183e-21)
(1.12691 -0.0205244 -6.0372e-22)
(0.985403 -0.00366219 -5.80912e-23)
(1.32916 -0.137791 -1.24182e-21)
(1.09988 0.213285 -4.35183e-21)
(0.937199 -0.0366371 6.39121e-24)
(0.96731 -0.00493317 2.5411e-22)
(0.985412 0.0085589 -1.07241e-20)
(0.957745 0.123025 -3.28782e-20)
(0.984063 -0.0708539 -4.97106e-22)
(0.978793 0.133924 2.36488e-20)
(1.02335 -0.190729 1.14648e-21)
(1.34018 -0.0374213 2.57392e-21)
(0.994149 -0.000289501 2.82158e-22)
(0.943513 0.13331 -1.8605e-20)
(0.92661 0.145906 4.78979e-20)
(0.772296 0.0830623 4.94225e-20)
(0.963215 0.245858 3.82971e-20)
(0.997011 -0.000354702 3.885e-23)
(0.975547 -0.0324779 1.08575e-22)
(0.998197 -0.0014638 1.71279e-23)
(0.99152 -0.0980037 -2.10306e-21)
(0.840592 0.16109 -1.02083e-20)
(1.28827 0.0719905 -9.95037e-21)
(1.13184 0.227472 -2.99007e-22)
(0.935412 -0.0461111 3.13263e-22)
(1.10796 0.0781825 2.1916e-20)
(1.0475 -0.0503127 5.85545e-22)
(0.836412 0.188488 1.46553e-20)
(1.10969 -0.142438 -9.94635e-22)
(0.992082 0.0111928 1.83019e-20)
(0.994302 -0.000289272 1.60815e-22)
(0.86409 0.151442 -3.32127e-20)
(0.812854 0.200449 -4.11834e-20)
(0.973152 -0.0339636 -3.02277e-22)
(1.2993 -0.0265995 2.85937e-22)
(0.869971 0.125796 -3.31637e-20)
(0.996302 -0.000551874 -1.99067e-22)
(0.808234 0.0850642 -5.46464e-21)
(1.05852 -0.100141 3.77595e-22)
(0.996554 -0.000357142 7.22254e-23)
(0.949186 -0.0149585 1.55254e-23)
(1.06517 0.237444 -1.67296e-20)
(1.30271 0.0308679 -3.85163e-21)
(1.00486 -0.133998 1.51568e-21)
(1.00338 0.241911 1.50021e-21)
(0.796883 0.228142 2.77356e-21)
(1.26003 0.244336 -1.53277e-20)
(1.07723 -0.0156119 -2.00556e-24)
(0.995311 -0.0870804 4.24637e-22)
(1.20104 -0.115095 1.51052e-21)
(0.960445 0.139998 2.70032e-20)
(0.827605 0.0863585 -3.13151e-21)
(0.763768 0.078951 3.19654e-21)
(1.27357 0.0610332 1.69084e-21)
(1.00031 -0.0131233 3.32504e-23)
(0.977113 -0.0018288 -1.1021e-22)
(1.10939 0.218496 -1.5404e-20)
(1.00224 -0.0101839 2.78087e-23)
(0.981391 -0.00580294 1.7022e-24)
(1.00357 -0.0161547 -2.23528e-23)
(0.990633 -0.0381399 -2.10493e-22)
(1.1017 -0.201415 2.77224e-21)
(1.20703 -0.216146 -1.93682e-21)
(0.903736 0.204157 -4.26164e-20)
(1.0244 -0.0648261 2.59104e-23)
(0.998644 -0.00117726 -1.34923e-23)
(1.07824 0.13372 -4.08101e-22)
(1.33246 0.0596213 3.08679e-21)
(1.00204 -0.0163088 -3.88435e-23)
(1.33926 -0.0104482 7.2517e-22)
(1.00227 -0.00168688 5.41897e-24)
(1.27466 0.0241567 6.55214e-22)
(1.0352 0.0750122 2.59404e-20)
(0.972659 0.128152 -4.58836e-20)
(1.1688 -0.217305 2.16228e-21)
(1.28529 -0.0120258 -1.47451e-21)
(0.991333 -0.0176087 -2.68991e-23)
(1.15024 -0.149453 4.03326e-22)
(0.994136 -0.00190344 8.11493e-24)
(0.951409 0.159615 -4.78414e-20)
(0.899111 0.197992 1.30164e-20)
(1.23617 -0.226869 1.99203e-21)
(1.19622 -0.231859 1.78244e-21)
(1.15486 -0.232168 5.63108e-21)
(1.03834 -0.116058 9.63527e-22)
(0.991224 0.232402 3.13309e-21)
(1.04284 -0.106343 6.60481e-22)
(1.12951 -0.193114 1.03416e-21)
(1.08218 -0.217087 -1.19449e-21)
(1.14428 -0.13252 -1.87127e-21)
(0.790008 0.0843103 2.67358e-20)
(1.15362 -0.251566 -1.02464e-20)
(1.31808 -0.0872113 6.40556e-22)
(0.969363 0.0364773 9.39878e-21)
(0.995208 -0.000422884 -1.58857e-22)
(1.28661 -0.0478349 -2.40418e-22)
(1.04694 -0.0960541 -1.08747e-21)
(1.08383 -0.201034 2.0837e-21)
(0.99501 -0.00110128 -1.05711e-23)
(0.999515 -0.003693 -1.31192e-23)
(0.78374 0.109436 -4.53661e-20)
(1.1243 0.0792591 1.63219e-20)
(1.23015 -0.234839 6.83454e-21)
(1.33624 -0.115409 -1.94518e-21)
(1.14973 0.135903 -8.49837e-21)
(0.987184 0.130482 -3.60363e-21)
(1.06923 0.137706 7.10927e-21)
(1.26542 -0.166028 -4.68462e-21)
(0.975391 -0.0693668 6.27589e-22)
(0.990357 -0.059221 -2.93529e-22)
(0.980179 -0.062739 -7.73868e-23)
(1.0969 0.133584 -2.28515e-20)
(0.966382 -0.00627706 -1.98555e-22)
(1.00147 -0.0891717 6.73072e-22)
(0.999704 -4.62092e-05 -3.80749e-24)
(0.961502 -0.0245448 -2.16294e-22)
(0.997417 -0.000653517 -2.99748e-24)
(1.12618 -0.212629 2.19307e-21)
(1.04805 0.23425 -1.58158e-20)
(1.05687 -0.182323 7.70213e-22)
(0.964777 0.204094 1.83494e-21)
(0.983894 0.201642 -4.23013e-20)
(0.953483 -0.0560539 -5.23797e-23)