/*--------------------------------*- C++ -*----------------------------------*\
  =========                 |
  \\      /  F ield         | OpenFOAM: The Open Source CFD Toolbox
   \\    /   O peration     | Website:  https://openfoam.org
    \\  /    A nd           | Version:  7
     \\/     M anipulation  |
\*---------------------------------------------------------------------------*/
FoamFile
{
    version     2.0;
    format      ascii;
    class       volScalarField;
    location    "7.5";
    object      p;
}
// * * * * * * * * * * * * * * * * * * * * * * * * * * * * * * * * * * * * * //

dimensions      [0 2 -2 0 0 0 0];

internalField   nonuniform List<scalar> 
7724
(
0.626657
0.0492752
1.14987
0.726548
-0.00407657
-0.000177321
1.17142
-0.0255018
-0.000554221
0.327832
-0.000167704
0.0114051
-0.0381366
0.16896
0.339644
-0.0478442
0.631816
-0.0501791
0.00617553
-0.204645
0.228006
0.00747309
0.125711
0.603604
-0.065296
0.662874
-0.00375197
0.205787
0.508521
0.0131861
-0.067892
1.8685
0.12433
-0.0023003
-0.000503278
0.269952
0.0146853
1.1308
-0.0210849
-0.00160105
-0.0190616
-0.0465691
-0.184371
-0.00502461
-0.000962017
-0.000393332
0.00739388
-0.021284
-0.000326031
-0.198843
0.0169572
0.195784
-0.0825219
-0.0012529
0.268304
-0.0227145
0.00676241
-0.0256387
-0.104929
-0.00241509
0.000190344
0.0217392
0.169235
0.0125488
-0.0046871
-0.0660972
-0.000453549
2.0971e-05
0.254623
-0.0197469
-0.000360756
-0.17046
-0.0630489
-0.108245
-0.0483858
-0.150404
1.1252
0.222863
0.216089
-0.196631
-0.0366227
1.06198
0.319831
-0.111996
-0.00680697
-0.010886
-0.0273498
-0.0799872
-0.00311692
-0.0213326
0.520954
-0.0105714
-0.000640347
0.00623512
-0.0169815
-0.110275
-0.163144
0.00803636
-0.00752032
-0.00562167
-0.187006
0.234673
-0.0161677
-9.58193e-05
0.00927496
0.534248
1.59767
-0.0240625
-3.29542e-06
0.119508
0.688903
-0.103592
-7.09432e-06
0.126816
0.534958
0.00220745
-0.100629
0.434729
-0.1209
-0.109923
-0.194338
1.01801
-0.172586
0.0484624
-0.189692
-0.00460835
-0.0602376
0.0101877
-0.00494396
-0.0670174
-0.0908804
0.216123
-0.00287648
-0.00367559
-0.115986
0.670833
1.274
-8.2746e-05
0.037626
-0.244277
-0.102546
-0.137995
-0.150902
-0.103473
1.61923
-0.044075
0.513629
-0.100181
-0.142468
1.01328
0.257487
0.00327937
-0.00696629
0.221419
0.318632
1.03832
-0.170349
-0.037951
1.50143
-0.000295095
0.00332877
0.623791
-9.03813e-05
-0.00957731
-0.0191734
0.774429
0.777219
1.55919
-0.0110018
-0.014687
2.34161e-05
-0.202258
0.00217303
0.0658637
0.0406697
-0.140196
0.0470633
0.405131
-0.000634621
-0.00236382
0.735758
-0.000293534
-0.000541371
1.17199
0.0368915
-0.0948175
-0.113291
-0.101074
-0.0548258
-0.239216
-9.8739e-05
-0.156952
0.414609
-0.0163347
0.000346136
0.539684
-0.00607517
-0.0628292
-0.0549961
2.72923e-05
0.0046863
0.68864
0.480633
1.05425
-0.0861649
-0.0886111
-0.16609
0.223461
0.680686
-0.00102912
0.000167749
1.5163
-0.0411517
-0.00301338
-0.149808
-0.0629787
0.941278
0.96695
-0.149243
1.76821
-0.0056252
-0.0496388
-0.191831
0.269523
-0.225182
0.526332
1.50646
0.000300472
0.050835
0.461162
-0.0200406
0.425195
-0.00265
1.68163
1.01999
-0.0272266
0.0142445
-0.00148712
0.35786
-0.000461348
-0.0293831
-0.227596
-0.000360808
-0.00651017
-0.00210249
0.465933
-9.08779e-05
-0.022171
-0.190385
1.86393
0.195992
1.62685
-0.000219223
-0.0631552
-0.000923674
1.0874
0.0209903
1.2791
0.00799481
0.00401947
0.0407077
0.232275
0.0029787
-0.0011194
0.00265747
-0.0210197
-0.0891944
-0.000204709
-0.164524
-0.0182561
-0.000701711
-0.00315123
1.21073
-0.0379002
-0.0038212
1.7558
-0.00719568
0.672957
-0.00102973
0.0079239
3.78441e-05
-0.109586
0.259475
0.0648782
-0.105216
-0.00202267
-0.183589
-0.074622
-0.000893273
0.00256982
-0.0106952
-0.0364555
0.0152016
-0.00600221
-0.107008
-0.0747648
-0.105806
0.0210653
-0.133786
0.97815
1.01868
-0.00750813
0.0135948
-3.66164e-05
-0.0113884
-0.112039
0.587929
0.354125
0.000480203
-0.0104048
-0.130175
0.497857
-0.00497985
0.0185692
0.00636574
0.198024
-0.108554
0.866607
-0.00810609
0.0494015
-0.000569154
0.0213613
-0.000262016
-0.0800873
-0.00171522
0.0268797
-0.033186
-0.129019
0.0141022
0.0451781
-0.00369455
0.106606
-0.0329009
0.266019
0.476351
-0.203881
-0.0218719
-0.0770889
0.0266653
-0.221024
1.60062
-0.0120704
0.154238
1.7282
-0.00780451
-0.00877148
-0.0149235
-0.00531661
-0.0343533
0.0328874
-0.0139312
-0.0104107
0.484213
-0.000336038
0.00285123
0.000388966
-0.0170233
-0.0342577
-4.37699e-05
-0.00556707
-0.100452
1.50647
0.0179405
-0.0405422
1.39723
0.88676
0.235831
0.0368228
-0.205336
0.0255528
0.746431
-0.0539255
0.793117
-0.064959
-0.180018
0.494601
0.789632
-0.156641
0.335596
0.502933
0.712926
0.219982
-0.0153976
-0.0212627
-0.000444529
0.0241549
-0.0550978
0.00531519
-0.000539171
-0.00807175
-0.18622
0.279624
-0.080856
-0.0112377
-0.0190425
0.0397598
-0.0348816
0.00968047
0.451075
-0.00951482
-0.000110974
-0.000271808
0.000241172
-0.0974818
0.471585
-0.0200547
0.141004
-0.231904
1.1117
0.0172354
0.0345395
-0.0257691
1.16994
-0.00537878
0.848629
0.523969
-0.000587979
-0.0721593
-0.0165431
-0.131237
0.0029361
0.256898
0.019039
0.0321772
-0.00432019
0.430198
0.508691
-0.109246
-0.0997154
-0.0112943
-0.0627137
0.219205
1.83611
-0.0633755
0.0237537
-4.65357e-06
-0.0636413
-0.0113817
0.0975828
-0.200872
-0.00802214
1.20455
0.463033
-0.140658
0.558182
1.15015
0.136605
0.00647149
0.763199
-0.00445889
-0.00092194
-0.0827631
0.00043502
-0.184539
0.00131979
-0.100925
0.00999673
0.558488
-0.00901302
-0.000121292
-0.196809
0.00899789
0.150339
-0.179777
-0.23717
0.0790448
0.465651
0.387351
0.397585
-0.00103295
0.257393
0.285151
-0.00265424
-0.0779655
0.00314072
0.0325203
-0.00548441
0.0244575
-0.00392044
0.355251
-9.89642e-05
0.00100927
0.0102057
-0.100422
0.104717
-0.0961295
-0.11903
-0.0861226
-0.228815
0.0480356
0.736252
-0.00114415
-0.0328967
1.70398
-0.15931
-0.0359961
-0.117245
-0.0268527
-0.0947246
-0.0490043
0.141613
-0.02641
-0.000130687
0.124721
-0.000486594
1.00346
0.261264
-0.024013
-0.0660663
-0.000949487
1.06776
0.872523
0.222572
0.354974
-0.16618
1.32023
-0.000314361
0.104595
-0.0842656
0.428739
1.57209
0.194833
0.448432
-0.00764293
-0.0010304
0.326002
-0.0617744
1.11696
0.155706
0.648548
-0.0344956
1.14274
0.834053
-0.0437257
-0.0370539
0.288686
-0.243009
-0.000420745
-0.0610879
-0.232265
-0.165183
0.0562631
0.0465158
-0.000620107
0.870503
-0.00394078
-0.000519854
-0.0618296
-0.00245979
-0.00112639
0.0185096
0.616046
-0.179011
1.46003
0.000311646
0.600159
-0.0529087
-0.000375041
9.07526e-05
0.502744
0.603463
-0.0199439
0.560065
0.000128827
0.587274
-0.203125
-0.0456127
1.20824
-0.144153
0.338278
-0.112443
0.577569
0.590753
-0.0752501
-0.0950403
-0.0281007
-0.0138673
-0.00101144
-0.00465696
0.754682
-0.000136704
0.569993
-0.163652
0.95574
0.545436
-0.237853
1.40692
-0.00783465
0.0308289
-0.0735141
-0.0907472
-0.0313823
-0.0631272
0.150475
1.67077
0.000214607
-0.00926073
-0.106507
3.04127e-05
1.01543
0.00917006
2.93757e-05
0.000973347
0.00190359
-0.0771315
0.0950049
-0.00745192
-0.000434221
-0.0331851
0.0141449
-0.22647
-0.219057
0.105823
-0.000108654
-0.226356
-0.0595249
0.317604
0.948666
0.00601622
0.34415
0.000760954
-0.0572013
0.298029
-0.0314014
0.645582
-0.0585395
0.116885
0.309053
0.452439
0.0235412
-0.0469007
0.495713
-0.192805
1.1022
-0.0421839
0.684153
-0.0420478
-0.00560641
0.4289
0.0135424
0.294526
0.00952228
2.57502e-05
-0.237904
0.444129
0.00724847
0.314233
-0.0555354
-0.236702
0.0448081
-0.0996433
-0.00801635
-0.0395734
-0.182229
-0.12103
-0.0442151
-0.000724781
1.16432
0.337505
0.140547
-0.000962512
0.836208
2.04137e-05
-0.000882889
0.365067
0.0115537
0.404372
0.203335
0.0828147
-0.0265261
-0.203244
0.0726557
0.00648054
-0.17497
-9.15965e-05
0.0192471
0.620359
-0.071656
-0.0134206
-0.0213933
-0.0093997
-0.00196966
1.71859
-0.0446028
-0.0026773
-2.84426e-05
0.424562
-0.124104
-0.00157144
-0.013211
0.488212
0.287332
-0.155436
7.17524e-06
0.535067
-0.0698503
0.537785
0.0784418
0.0959824
-0.127678
-0.000461042
0.301878
0.264454
0.129508
-0.145552
0.761214
0.0295621
0.477065
-0.0108837
-0.0626254
-0.00189957
-0.00407023
-0.000516015
0.483341
0.592589
-0.00708598
0.0923702
-0.0759749
-0.11062
-0.130156
-0.00892365
0.0972595
1.6542
0.106785
-0.000259004
0.283656
-0.0171124
1.39928
-0.055241
-0.0472581
0.00107433
-0.0542909
-0.0276697
-0.035332
-0.0146783
0.00768897
0.131641
0.000512344
-0.162056
0.0570865
0.947123
-0.149148
0.42915
0.0100103
-0.0587444
-0.0445416
0.617936
-0.0333239
0.00051508
-0.0679649
-0.0243091
0.104997
-0.115129
-0.0988188
0.0361376
-0.0647735
-0.0123009
-0.171973
2.67541e-05
0.173642
-0.152376
0.384464
-0.0479158
0.292667
-0.162297
0.820507
0.0430045
-0.131767
-0.0423242
1.48355
-0.140456
-0.0577952
-0.214005
-0.0740553
-0.18174
-0.0959457
0.479127
-0.0133396
0.72839
0.0419586
-0.00186154
-0.00566197
0.253875
1.87801
0.00556605
-0.0513973
0.510866
0.00010865
-0.0908053
0.128781
0.0530292
0.0424873
-0.00762886
-0.109656
-0.0136013
0.000140812
-0.136892
0.686548
0.0220263
-0.0732608
0.00918064
0.509939
-0.00181271
-0.00598181
-0.0017375
-0.00367118
0.162703
0.0276151
0.0169865
-0.0785541
0.00021884
-0.179137
-0.0375018
-0.199808
-0.0576415
0.0701898
-0.0010242
-0.0556927
-0.186619
0.136235
0.964891
-0.00593493
-0.208918
-0.0226875
0.0500908
0.417547
0.0021078
-0.000753016
0.30347
0.109665
0.0729109
-0.0142868
-0.0100375
-0.169947
-0.000854312
0.00945601
-0.0591091
0.835336
0.678169
-0.0459921
-0.144942
0.0349428
0.0254902
0.0903549
-0.163502
-0.0293109
-2.34174e-06
0.0753183
-0.107037
-0.180711
0.029293
-0.168576
-0.00192634
-0.0143607
0.554168
-0.122259
-1.999e-05
-0.013498
-0.110335
-0.000803688
-0.0380447
-0.000240504
0.020567
-0.21909
-0.0516203
-0.000103063
0.000147056
0.371444
-0.114056
1.07927
0.663096
0.0637317
-0.00276876
-0.0349998
0.00104806
-0.104992
-0.161378
0.0612688
-0.0711773
0.613349
0.0427433
0.00130191
0.0314727
-0.172425
0.00946884
-0.0473317
-0.180189
0.0148144
0.0768719
0.218592
0.0427764
-0.0963432
-0.0841315
0.532767
-0.0571792
-1.58647e-06
-0.178613
-0.202096
-0.0673683
0.0218435
0.00363308
0.0424256
-0.208269
0.113701
-0.116655
0.35639
-0.0770787
0.029614
0.0678132
0.0662177
-0.118461
-0.119422
-0.00049935
0.420043
0.582262
0.0276731
0.473198
-0.14668
0.153853
-0.112492
0.560306
0.302399
1.63325
2.03042e-05
0.304946
0.494557
0.0513553
-0.00547986
-0.0616385
0.046544
0.000204448
-0.0614435
-0.128414
-0.0675109
-0.0741694
0.000613216
-0.0705909
-0.00136825
-0.00326997
0.664511
0.0247983
0.202596
0.0728247
0.575907
0.0429793
-0.00146494
-0.133144
0.0304076
1.01753
0.0046845
-0.136561
-0.000824072
-0.00202857
0.0285124
-0.0872658
-0.000117028
-0.0366691
0.102575
-0.00720749
0.00014649
-0.000172169
0.431005
-0.0102346
0.0249471
-0.00409665
0.0315367
0.0543823
0.0315302
-0.0010714
0.868779
-0.105452
0.610831
0.750353
-0.000781399
0.184767
0.322227
-0.00282244
-0.000984311
-0.00157986
0.0551253
0.0639177
-0.0258271
-0.0534883
-0.179452
0.480478
-0.155804
4.65804e-05
-0.0649968
-0.0594698
-0.118996
-0.0153085
0.0217744
0.00455799
0.095823
-0.00188428
-0.000852215
-0.0576816
-0.015394
-0.0830547
-5.74743e-05
-0.0498715
0.115329
0.00951772
-0.0235374
-0.0294447
-0.039692
-0.0310242
-0.0184943
0.0410099
-0.0320067
-0.00038371
-0.00144944
0.0816639
-0.0411885
-0.0176006
0.0302881
0.0124049
-0.247493
-0.0374898
0.441408
-0.0422878
-0.165077
-0.0763494
-0.0755877
-0.0523575
-0.0133466
0.00805596
-0.0125329
-0.0465724
-0.0540587
0.524687
0.414675
0.171886
0.941369
-0.000264082
-0.0112023
-0.0550422
-0.0276004
0.273548
-0.0677571
0.171011
-0.0145037
0.552856
-0.00684099
-0.00572204
0.0700754
-0.0453164
-0.000795903
-0.0636043
-0.0208312
-0.0697561
-7.25296e-05
-0.0233798
0.00715679
-0.05862
0.124316
0.116865
0.0641967
-0.047104
-0.104348
0.337013
-0.00449303
-0.0069767
-0.00751002
1.38048
-0.00032293
0.231299
-0.0710061
-0.0683241
-0.0882402
-0.124903
-0.0955524
-0.113272
-0.0605976
-0.0163362
-0.000352371
-0.0150842
-0.0721852
0.295913
0.00604666
0.379822
-0.109013
-0.0445205
-0.00328844
-0.0957149
-0.000371483
0.420429
-0.100136
-0.0870408
-0.079306
-0.0131227
-0.105769
-0.00603955
-0.134447
0.301706
-0.0859611
-0.187544
-0.00520233
-0.089903
-0.0616901
0.0520663
-0.0114458
0.40387
-0.00854013
-0.0638461
-0.00238305
0.450315
-0.128867
-0.0880618
-0.0114473
-0.0331333
-0.00971503
0.497748
0.0727048
0.466641
-0.0164562
-0.00289644
-0.00448129
-0.0081768
0.420752
-0.195409
-0.0240842
0.00119848
-0.0221177
-0.0189148
-0.00316916
-0.03636
-0.0526206
0.180472
-0.0175374
0.0194451
1.36634
-0.201143
-0.0962284
-0.187749
0.00012469
0.231983
-0.0125384
-0.0895873
-0.0198352
-0.118154
0.0160462
-0.00187679
-0.0102484
0.0114547
0.553836
-0.0206072
-0.00630465
-0.0164628
-0.165099
-0.0293174
-0.0743434
0.0155804
-0.030674
-0.0314839
-0.0115972
0.563568
-0.152055
0.0113789
-0.0148368
-0.0920244
-0.0483121
-0.163336
-0.00493462
0.27639
0.0782037
-0.0276809
-0.00607874
-0.0470226
1.41751
0.558224
-0.0393677
-0.00204777
-0.00840487
0.0264146
-0.0140861
0.0709494
-0.00145755
-0.0448172
-0.00700374
-0.058338
-0.0512024
-0.00373095
-0.0348639
-0.00481007
0.866459
-0.0226667
-0.0406324
0.0183822
-0.00688219
-0.0999124
0.186428
1.23326
-0.0375278
-0.0396891
-0.00749337
-0.00163355
6.41785e-06
-1.41912e-05
-0.0354118
-0.00232329
0.312954
-0.00237101
-0.00641831
0.0287536
-0.000908924
-0.14618
-0.150499
0.0582004
0.128203
0.0870877
0.163372
-0.0839017
0.272069
0.213259
0.285722
0.354248
-0.0448837
-0.00307687
-0.0197215
-0.167968
-0.0123832
-0.0518541
0.137341
0.827102
-0.132459
-0.00171065
-0.000104171
-0.00519132
-6.85008e-07
0.0335246
-0.00194734
-0.0155079
-0.157151
0.00191963
0.00945018
-0.00076511
0.214429
-0.0532411
-0.0496928
-0.00422517
0.89056
0.662365
-0.0351071
-0.145235
-0.0932392
-0.0817282
-0.0497719
-0.00658323
-0.188908
-0.0811033
-0.135431
-0.0473122
-0.000174827
0.514928
-0.026923
-0.0336966
-0.0728613
0.0637113
-0.00186907
-0.029332
-0.00483116
0.048171
-0.00525041
0.439192
0.00123797
0.0345614
-0.00145824
-0.0987142
0.030829
-0.00264998
0.0519198
0.00144935
0.116517
0.339989
0.00757017
-0.00510943
-0.000442027
-0.00201028
-0.00178156
-0.198383
0.360386
0.0987854
-0.000944818
0.0338646
-0.00160734
0.628272
-0.193987
0.656419
-0.141232
-0.00159334
-0.00100934
-0.0256365
-0.019765
-0.00222181
-6.49451e-05
0.0850817
0.0967967
-0.000828936
-0.00116737
-0.0670763
-7.84054e-05
0.472324
-0.00333271
-0.171454
-0.0647364
-0.0222654
-0.179604
-0.19557
0.428632
-0.0359628
-0.0687362
-0.00111949
-0.183831
-0.0698959
0.0845318
0.276729
0.950163
-0.00414607
-0.192431
0.0487524
0.801253
0.129108
-0.000421455
-0.0211692
-0.0142728
-0.0174145
-0.156491
0.274882
0.00062836
0.0728948
0.0107757
0.241484
-0.00184064
-0.000429731
-0.0947663
0.727438
-0.177054
0.405199
-0.00431661
-0.000705744
-8.66461e-06
-0.161665
-0.136651
-0.00119913
0.310098
0.0382729
-0.0187208
1.14693
-0.00138429
-0.0129459
-0.188688
-0.0449812
-0.00800627
0.386607
-0.129896
-0.000584726
0.0487816
-0.000617915
-0.000354929
0.395949
0.0174404
-0.00159276
-0.168114
-0.0825197
-0.0122045
-0.0541582
0.00840633
-0.0765095
0.00595431
-0.0122598
-0.207504
-0.124437
0.076604
-0.0031973
0.442125
0.576741
-0.15342
0.0345539
0.064582
-0.0150548
0.467895
0.315289
-0.0937099
-0.000568008
0.0350042
-0.179764
0.0485083
-0.0910498
-0.00733279
0.152559
-0.0916191
-0.000483727
-0.000258379
-0.0635901
-0.0794153
-0.0867984
0.0339642
0.0737297
-0.143156
-0.000536827
-0.00482575
-0.000735301
-0.10195
-8.26412e-05
-0.00676299
-0.105015
-0.19877
0.303735
-0.0104162
0.0145551
-0.0706432
-0.0849972
-0.00045167
-0.151192
0.28302
0.444625
8.26157e-05
-0.000393385
0.45243
-0.00875467
-0.195244
-0.132158
0.0117446
0.0016904
-0.223771
-0.014335
0.462888
-0.18406
-0.00518048
-0.0274433
-0.162898
-0.00200444
-0.000843976
-0.00321329
0.0244461
-0.166306
0.380148
-0.000735642
1.42736
0.0373478
0.000402715
-0.00336534
0.000868953
0.000996119
-4.96062e-05
0.000474035
-0.172249
-0.00252498
0.00150217
-0.000693861
0.401876
-0.0199281
-0.000675791
-0.000156147
0.909287
-0.0718975
-0.0213892
0.00407466
-0.00248706
0.192051
-0.000343938
-0.0389422
-0.15265
0.00764393
-0.0214578
-0.000339871
-0.000711915
-0.100448
-0.144761
0.025005
-0.152685
-0.0962014
-9.80548e-05
0.0711487
0.106523
0.320285
-0.00603633
-0.000548027
-0.180898
-0.0212188
-0.00174467
-0.160106
-0.000481572
0.138134
-0.000314954
-0.00447409
0.0807175
-0.00711551
-0.189205
1.28851
-0.00564616
0.000955752
-0.167951
-0.147994
0.0320143
0.0163223
-0.00053003
-0.103296
-0.000295902
0.546637
1.76556
0.242765
0.0105979
0.0125832
-6.46754e-05
-0.0913506
-0.000201473
-0.0215924
-0.00591111
0.00128141
-0.0116977
-0.031418
-0.000432069
0.00304129
-0.0256746
-0.00109551
-0.0323659
-0.0553972
-0.00478693
-0.00388797
1.56562
-0.00240363
0.00854487
0.000840725
0.0470062
-0.161796
0.0333263
-0.000614618
-0.000350941
0.00929004
-0.00038368
-0.000101705
-0.0377803
0.00241472
-8.42418e-05
-0.165022
-0.00754311
-0.183509
-0.00572276
-0.000238786
-0.0108588
-0.0145077
-0.0496141
-0.0672696
0.00807867
0.00180356
-0.00161738
-0.00691649
-0.000276927
0.753647
0.00544141
-6.83848e-05
0.00204651
-0.00698586
-0.00123747
-0.206381
-0.177642
-0.000456837
-0.0242679
4.67966e-05
-0.00873467
-0.000257498
0.115482
-0.000488373
-0.000655691
-0.0116926
-8.13776e-05
0.0459483
-0.000777772
-0.00441841
0.063187
4.23557e-05
1.03499
-0.172895
-0.135603
-8.7606e-05
-7.2997e-05
0.00678994
-0.00414124
-0.160145
-5.83797e-05
-7.5746e-06
0.00259584
-1.06181e-05
0.0013102
0.00155494
-0.00159241
0.0027314
-0.170918
1.31697
-0.0994425
0.909314
0.0310792
-0.0541797
-6.39787e-05
-0.00305237
-0.0417624
0.000492919
0.000981558
0.000585921
0.209213
-0.00455717
-0.000757989
1.38387
-0.00185473
0.00204138
0.00174408
-1.63986e-05
0.12844
-0.00744427
0.00394477
0.000426288
-0.0018051
-0.000238788
-0.00311188
-0.142352
-0.00144828
-0.00528302
-5.62651e-06
0.000562769
-0.000891241
0.535535
-0.00153441
-0.000944828
-0.225258
0.0130172
-0.000293893
-0.00465395
-0.000212961
0.492301
-0.234284
-0.00102482
-0.00134334
-0.00621283
-0.000541599
0.185071
0.334154
0.135283
0.00176765
-2.35746e-05
-3.68474e-06
0.191922
0.000876359
-0.19805
-0.0658506
-0.0529251
0.0305133
1.56663
0.00685019
0.530285
-0.0489642
-0.0961083
0.500359
-0.00123179
-0.212061
-4.32439e-05
-0.0308347
-0.161481
0.000189981
-0.145665
-0.00328916
-0.00196605
-0.0177277
-0.141079
-0.138961
-0.0101591
-0.191136
-0.145654
-0.000648296
-0.0411429
-0.00017634
-0.123535
-9.64867e-05
-0.000643916
0.0790418
0.47518
-1.99766e-07
-0.148062
0.0123955
0.000263747
-0.0679332
2.02604e-05
-0.046539
-0.000898927
-0.127211
0.000432389
-0.000301506
-0.00689201
-0.000166848
0.464355
-0.100623
0.23887
-0.000103789
0.00217517
-0.107693
2.73184e-06
-0.185401
-0.215482
-0.182169
1.44209
-0.0222307
-6.02283e-05
0.0875729
-0.136887
-0.00840881
-8.31808e-05
-0.000296
-0.155347
0.00043558
0.00304052
-1.83761e-06
0.000547358
-0.0932891
0.284889
-0.124412
0.299872
-0.018326
-4.58247e-06
0.0232061
-0.15072
-7.1959e-05
-4.67905e-05
0.00111024
0.000221785
0.00140105
0.51879
0.117878
0.000194845
3.77565e-05
-0.216821
0.576706
0.511408
-0.000152041
-0.119225
-0.0621377
-0.0334001
-0.157737
-0.0274454
-0.00992905
0.415351
-0.000142206
-0.0874597
0.489467
-0.159621
-5.9266e-05
-0.201717
-0.000597755
0.684631
0.0973586
-4.77538e-05
-9.44288e-05
0.531024
1.24833e-05
-0.000609153
-0.0396957
4.43586e-05
0.672757
0.012077
-0.0249106
-0.21357
-0.0128487
-0.203947
0.530465
-0.0265906
-0.0141303
0.00342215
-6.65283e-05
-0.00346809
-2.70019e-05
-5.45482e-05
0.0945228
0.523384
0.439459
-0.00149562
0.696261
-0.0338336
2.63128e-05
-0.150724
-6.11002e-05
-0.0918896
0.100733
-0.0465513
0.0152242
0.00642807
-0.031568
0.000846309
-0.00566231
0.0696625
-0.00984757
-0.000163396
0.000101882
-0.000211466
0.104071
0.000191201
-0.0693638
0.738558
-0.0203951
0.000175479
-0.0117545
-3.41335e-05
0.237116
-0.00120538
-0.000225023
-0.000289883
-4.40783e-05
0.604942
-0.000509152
0.647903
-0.197345
0.000379806
-0.163131
-0.00164127
0.457573
1.42011
-0.0047827
8.26631e-06
5.53463e-05
-7.16419e-05
0.396708
2.3895e-06
0.00361657
-0.0806357
0.622786
2.28089e-05
5.21755e-05
1.00584e-05
8.53862e-05
-0.0684507
6.11822e-06
0.608021
-0.0516256
-0.00042338
0.000101875
-0.00700903
-0.0964401
4.90446e-06
-0.000193299
0.482079
0.000115407
-0.105162
-0.115427
0.000452925
3.02983e-06
-0.208271
4.37411e-06
0.475349
5.08465e-05
-0.00150901
3.97267e-05
-0.000595524
0.284742
1.08265e-05
-0.00552381
2.80937e-05
0.0474633
-0.0114722
-0.0215999
0.00359536
0.449739
-0.00090711
-0.000274158
-0.0299295
-0.0289402
-0.000829501
-0.000176403
-0.00304626
0.000138882
0.446104
-0.0333969
1.38219
-2.00287e-06
-0.0258597
-0.000532647
0.390238
0.000196848
-0.0858006
8.0674e-05
-0.0053531
-0.109764
-0.000778137
-0.0525632
-0.160987
0.0174068
-3.0545e-05
-0.164724
-0.00111759
-0.000999718
-0.0187332
-0.0364606
0.00448752
-0.000169649
-0.00147671
-0.00296199
-0.00434756
4.49167e-05
-0.00410496
1.37151
0.000333787
-0.0109856
-0.114671
-0.239768
-0.20573
-0.156659
-0.0718399
-0.00174602
-0.0437071
0.000265402
-0.000277457
1.3646
-0.000320097
0.49329
-0.00150969
0.0013588
-0.00384469
-0.123643
-0.00141649
0.0026169
-5.14671e-05
-0.00133023
-5.26044e-05
-0.000270909
-0.0499764
-0.000369358
-9.00359e-05
-0.000282839
0.000490544
-3.44451e-05
-0.137838
0.543438
-3.30026e-05
-0.00200565
9.77908e-05
0.000105683
-0.00281139
3.12691e-05
-0.00305004
0.000963587
-0.0012382
-0.209399
-0.0023118
-0.00609645
1.66304e-05
-0.00503902
0.00114486
-5.12279e-05
-3.25223e-05
4.60173e-05
-0.00266781
0.00183784
-0.143751
-0.085852
-0.212049
0.00226922
-0.00594839
0.0137595
-0.213802
-0.00031981
0.0544028
0.0232651
-0.00347611
-0.0394884
-0.184166
1.21522
-0.00141994
-5.02181e-05
0.00307873
0.000169554
6.04581e-05
0.229676
0.0125467
0.26597
-0.107694
1.19252
-0.00174019
7.36246e-06
0.000510246
-6.11989e-05
-0.00456893
0.440875
0.626159
-1.77321e-05
-0.000567436
-5.84759e-05
0.59637
0.0702686
-0.0160475
4.02383e-05
6.6064e-05
0.0246038
-0.00232426
-0.228222
-0.0551651
8.29261e-05
0.0118504
-0.0984215
-0.00020449
0.00629336
-0.000226727
-0.149459
-0.00598948
0.424822
5.69828e-05
0.00572131
0.000201283
5.09801e-05
0.000582309
-0.075465
5.02453e-05
-0.00305012
7.74562e-05
-0.0644974
-0.149125
-0.00963453
-0.0209074
-0.0286719
0.0308313
-0.0290602
-0.0083688
0.000231605
0.000353866
7.00829e-05
6.10352e-05
-0.000191105
0.0303076
-0.176969
0.00167184
-0.120638
-0.0103303
-0.146391
0.000299228
-8.50384e-06
0.00447262
-0.0525878
6.20595e-05
-0.122892
-0.0475292
0.102953
-0.117239
9.09218e-05
-0.0114358
0.000656177
-0.159262
0.39163
3.92114e-05
-0.189358
-0.070883
-0.0140611
0.000130529
-2.83815e-05
0.0999766
-0.0546691
8.22663e-05
-0.0224903
-1.50401e-05
0.000729113
0.365331
-2.78094e-05
1.09238e-05
-0.000284005
0.000118574
0.00308386
0.000299394
-0.017198
0.000790047
-0.0414355
0.00378191
-0.000699227
-0.0974984
-0.137582
-0.0208777
-5.11958e-05
7.35171e-05
-0.1701
0.019436
-0.153478
9.90044e-05
-0.017194
-0.000121766
8.38266e-05
0.231159
-0.0230932
-0.00931175
-3.80016e-06
-0.0571606
0.000170438
-0.214536
9.23637e-05
-0.242469
6.46891e-05
-1.98633e-05
0.000290828
0.00348643
-0.122563
-0.0593718
-0.219023
5.49566e-05
0.000316062
-0.247713
-0.0692904
-0.027853
-1.55932e-05
-0.0390861
-0.155723
-0.252037
1.21141e-05
-2.52329e-05
1.5738e-05
-0.138432
-0.209585
0.00246983
-0.0362223
-0.000189464
0.532863
0.000318832
4.96885e-05
0.00050662
-2.84544e-05
-2.77563e-05
-0.0120058
0.000382665
-0.00839566
-0.199764
-0.0427977
-0.190347
0.000135851
-0.000173064
0.17376
-0.115987
-0.0155516
0.33354
1.66912e-05
-4.4386e-05
-4.043e-05
0.320601
0.000585056
-9.19341e-06
-1.51338e-05
-0.175303
-0.0505565
2.0252e-05
0.000262012
-0.0304248
-0.0210277
0.00144904
0.633082
-0.178907
0.000819167
1.7822
-6.11233e-05
-0.00228632
-0.0262681
-0.256048
2.20844e-05
-7.62337e-06
7.33783e-05
0.0161578
-0.0961555
-0.00112718
-0.157153
-0.0254328
9.31224e-05
-1.53046e-05
-0.033284
0.00456816
0.020453
-0.0870322
-0.147604
-0.125392
0.0653073
-0.0850973
-0.000213074
0.00119242
0.0537299
0.00182506
-0.00026274
0.00260537
0.000105635
-0.000310387
-0.0394625
-3.98403e-05
-9.55044e-05
0.129218
-0.0112552
-0.000537724
-0.000140205
-1.79611e-05
0.691761
-0.0217796
0.00268767
-0.0891097
0.000772471
0.000670299
0.000574439
-0.000163887
0.00162869
-0.120676
0.0612841
-3.03668e-05
-0.000540993
-0.130191
-0.0965711
0.151734
-0.00161913
0.0062512
0.058681
6.51459e-06
0.000202412
-0.137091
7.5454e-05
0.468328
3.03394e-05
0.0140762
0.000559779
0.000754164
-0.228208
-0.0241368
-0.0580632
-0.00800617
9.0173e-05
0.0230415
0.189526
-0.0400977
-0.000445349
0.284273
0.459713
1.20232e-05
-0.167474
-0.000224166
-3.35623e-05
-0.000149909
-0.00186237
0.0646374
-1.70303e-05
0.000833557
-0.0795501
-0.0834095
-0.0717728
0.862828
6.09636e-05
-0.00023289
0.48103
-0.0059549
-0.0124959
-0.00214996
0.474819
0.00015075
-0.00102817
0.000154555
9.20945e-05
0.000107509
0.00012307
0.000248214
-0.0581834
2.8485e-05
-0.0108787
-0.144745
0.651458
-0.000463426
-0.000167015
0.0157731
0.257211
-0.132322
-0.00248736
-0.227694
0.853684
0.000146678
1.11739
-1.43618e-05
0.0111897
0.0793603
0.00146345
1.21716
-4.8402e-05
-1.97396e-05
0.00397993
0.000105536
-0.00285653
0.000881817
3.86392e-05
-0.00651666
3.58983e-05
-0.000478484
-0.0109204
0.673365
0.167386
0.0718367
-0.142856
-1.67665e-05
-6.0165e-05
0.0113839
-0.160522
-3.19963e-05
-0.151856
-0.000180514
0.309259
0.191119
-0.104589
-0.00449025
-0.0371297
-0.0032476
-0.0484556
0.0149913
-0.0233905
0.200101
7.26988e-06
0.59792
0.141655
-0.00186878
0.586684
-0.0438216
-4.13786e-05
7.94484e-05
0.000227216
-0.000705514
-0.000394985
0.681421
-0.00326218
0.697022
-0.00339553
0.46952
0.610871
0.334901
-0.023188
-1.67268e-05
0.000208264
-0.0347727
-0.220455
-0.153254
0.00505818
6.85059e-05
-0.124752
-0.000990009
1.72563e-05
0.00343024
-0.00356607
-0.00199661
0.107421
0.000255192
-0.159046
0.185296
0.000197167
0.00090338
-0.0445066
-0.176631
-0.00242652
-0.00171996
4.37595e-05
0.000838214
0.261712
-0.0542444
-0.150938
0.00443353
0.295326
-0.125498
0.000119682
7.75712e-05
0.100833
-0.000302192
0.261447
0.00929513
-0.0445591
-0.00127286
0.00559117
-0.115077
-0.000121604
0.00165449
0.0200976
-0.241294
0.425376
-0.204801
-0.0873955
-0.000544666
-0.000153438
0.0223063
0.000158376
-0.245645
-0.210739
0.00189564
0.0114288
0.0126752
-0.214273
0.00214689
0.000640805
0.00012922
-0.13238
9.79957e-05
0.00187946
0.35862
0.509073
-0.223287
0.154309
0.154449
0.0940455
-0.000524866
0.0421633
0.000413102
3.01396e-05
-0.000237694
-1.94402e-06
9.33891e-05
-0.00119226
-0.0252768
-0.108584
-0.0322758
-0.0897132
0.169226
0.140948
0.0136319
-0.201704
0.000539113
0.0156708
0.0373167
-0.00129751
0.236294
-0.00386343
-0.0356511
0.0412365
0.0183004
0.00362636
-0.0133682
0.143436
0.0028036
-0.064777
-0.0538085
1.4517
-0.0796066
0.252279
0.110959
-0.114218
0.00749419
0.000340329
-0.00866004
0.000189765
-0.00881342
-0.0820853
-0.00023381
-0.000147929
0.716692
-0.0108926
-0.136986
-0.0620958
0.000690381
-0.00443223
-7.67825e-05
2.69831e-05
0.1301
0.000137422
-0.00980124
0.239851
0.0209591
0.00377837
0.0613048
-0.0191277
0.0141254
-0.196363
0.00295187
-0.0147594
-0.182309
-0.00283212
-0.026872
0.00261844
0.00483437
0.00335484
0.12723
-0.00102724
0.0189135
-0.178797
-0.0673474
0.00107221
-0.17866
-0.0494691
-0.0569762
0.00036251
0.0221668
-0.202328
-0.0027896
-0.015954
-0.166571
0.00212654
-0.00393534
0.614783
-0.0650363
-0.000136909
0.0275972
-0.15761
-0.00351209
0.551147
-0.00684732
0.00344727
0.184341
-0.00477362
0.0275305
0.373844
0.000241501
0.00396109
0.000596615
0.000119002
-0.0147695
-0.0224142
-0.00041917
-0.0794924
0.30088
-0.123851
-0.209834
0.0039375
-0.0108372
-0.00191574
-0.0976202
8.76879e-05
0.0603233
0.000145562
-0.0525064
-0.006525
-0.0163297
0.0293312
0.350916
-0.221419
-0.000177943
0.542682
-0.00625793
-0.00761682
-0.196452
-0.228407
-0.0511362
-9.99375e-05
-0.00353217
0.0242335
-0.0102321
-0.0157488
0.00150838
0.266534
-0.132359
-0.0368834
-0.0220527
0.0891982
-0.00595671
-0.00157336
0.00574937
2.69968e-05
-0.0102605
0.343389
0.0027126
-0.214969
-0.000186636
-0.0243056
-0.0108086
-0.238947
-0.0379374
-0.261701
-0.000215435
-0.000208517
-0.0104868
0.0349575
0.00625172
-0.273371
0.271596
-0.156734
0.000628071
-0.282956
4.67529e-05
-0.282196
-0.0834628
-0.2659
-0.250981
-0.227202
-0.155853
-0.0266766
0.021712
0.0672121
0.115188
0.163308
0.313477
0.366095
0.422361
0.545069
-0.0266447
-0.0240897
0.210583
-0.0502325
0.00306554
0.0624958
-0.131969
0.00194419
-0.00203287
-9.44739e-06
-0.0463673
0.0585249
0.000151953
-0.000955833
-0.034711
-0.00860416
-0.280526
-0.0360867
-0.182469
-1.29335e-05
0.00196635
-0.000170546
-0.141511
-0.0286404
-0.117425
-0.0285934
0.0058892
0.000788877
0.015767
-0.00010907
-0.0130714
-5.43478e-05
0.00124225
-0.0158317
-0.0378725
-0.000665744
0.00108961
0.152789
-0.0338372
0.211044
-0.284037
-0.0216443
0.262053
-0.0616289
0.0123644
-0.0702993
-0.0107003
-0.0411301
-0.0396174
0.952741
-0.00406678
0.000232305
-0.0190997
-0.0289264
1.07539e-05
0.247425
-0.0129947
0.884477
-0.0774532
-0.148741
-0.087548
0.157649
-0.0148294
-0.000164766
-2.55155e-05
-0.0138196
-0.168263
0.0001906
0.908001
-0.00901673
-0.0160598
-0.000220338
-0.00126205
-0.0194291
0.212453
-0.0683986
0.35502
0.00213325
-0.0468411
-2.08206e-05
0.0878538
-0.0245897
0.0634013
-0.0289699
-0.0179612
-0.00242047
0.0045603
0.0387151
-4.06811e-05
-0.0303596
0.00205986
-0.00130143
0.001561
-0.0447061
0.000875763
0.419696
-0.0348095
0.012619
-0.128694
0.112441
-0.140223
-0.036716
0.134524
-0.0598934
0.507689
0.00872987
-0.011188
-0.163158
-0.00223122
-0.000160044
0.00145855
0.000298533
-0.00711457
0.01458
0.000283062
-0.0435129
0.0712367
-0.0101102
0.000143009
-0.0108331
-0.138152
0.435238
-0.107259
-0.152979
0.0271162
0.2496
-0.00406824
0.146863
-0.0385333
0.0175283
0.117727
-0.189466
0.325087
-0.000176519
-0.0949996
0.00384929
-0.00485967
-3.24711e-05
-0.0197916
0.318239
0.00322818
0.663343
-0.0678579
0.0487867
-0.0517295
0.000637246
-0.00474664
0.201325
-0.18551
0.637231
0.116932
0.0794274
0.487085
-0.136483
-0.0139935
-0.201931
0.0022067
-0.110133
0.447922
-0.00936172
0.624857
-0.00459977
0.278092
0.000328009
0.301939
0.371904
0.00583715
-0.0645429
-0.00120578
-1.89704e-05
0.0174379