/*--------------------------------*- C++ -*----------------------------------*\
  =========                 |
  \\      /  F ield         | OpenFOAM: The Open Source CFD Toolbox
   \\    /   O peration     | Website:  https://openfoam.org
    \\  /    A nd           | Version:  7
     \\/     M anipulation  |
\*---------------------------------------------------------------------------*/
FoamFile
{
    version     2.0;
    format      ascii;
    class       volVectorField;
    location    "28";
    object      U;
}
// * * * * * * * * * * * * * * * * * * * * * * * * * * * * * * * * * * * * * //

dimensions      [0 1 -1 0 0 0 0];

internalField   nonuniform List<vector> 
30084
(
(1.01122 -0.0134424 1.95573e-22)
(1.0083 0.00387247 8.10542e-22)
(0.990302 -0.00362772 -1.15496e-21)
(0.970295 -0.0588477 3.53671e-22)
(0.997502 -5.44169e-05 1.6803e-22)
(0.952271 -0.0371357 -5.33126e-22)
(1.07506 -0.0685821 5.28915e-22)
(1.01523 -0.0201085 -2.03971e-23)
(1.00206 -0.00199079 2.66727e-23)
(1.00018 -4.91375e-05 6.40829e-24)
(1.01789 -0.0268946 2.19298e-24)
(0.998425 -0.0174425 -4.11562e-22)
(0.999522 -0.000197894 2.41089e-23)
(0.999973 -9.67212e-06 8.45579e-25)
(1.10612 0.0969832 2.37802e-21)
(0.993698 -0.00207327 1.77929e-22)
(0.999837 -0.000876853 -1.16752e-23)
(1.11933 0.0240885 -2.06771e-22)
(0.997812 -0.00187484 -5.75383e-23)
(0.988474 -0.000878081 -2.54138e-22)
(0.999132 -0.000282175 -8.0411e-23)
(1.00194 -0.00198798 9.31026e-23)
(0.990207 -0.00383882 1.2697e-21)
(0.997814 -0.000178355 7.40307e-23)
(0.909255 0.0933826 2.89446e-22)
(1.00913 0.00307272 4.36567e-21)
(0.999488 -5.97983e-05 5.47565e-23)
(0.953648 0.0784751 -2.08432e-20)
(1.10944 0.0981268 -6.05778e-21)
(0.99935 -0.00945369 -8.06456e-23)
(1.01563 -0.0105186 1.36652e-22)
(1.03557 -0.00415435 -1.00629e-21)
(0.997515 -0.138271 3.64082e-21)
(0.999228 -0.0242063 2.05463e-22)
(0.951982 0.0748563 1.7121e-20)
(1.00615 -0.0339293 5.493e-22)
(1.05486 0.0466628 -1.39598e-21)
(0.970358 -0.0325714 1.49526e-21)
(1.00539 -0.000828929 -3.67004e-22)
(1.0052 -0.000591238 6.98033e-22)
(1.00043 -0.00016667 -2.09907e-23)
(0.98989 -0.0334536 -1.45881e-21)
(0.999856 -0.000852017 -1.13161e-25)
(1.03901 -0.0710867 -2.07764e-21)
(1.00003 -4.92645e-06 -9.54004e-25)
(0.999564 -0.00957988 6.06132e-23)
(0.997765 -0.0129475 -1.18966e-22)
(1.00007 -8.56078e-05 2.75176e-24)
(1.00343 -0.00370659 -3.82352e-22)
(1.05518 0.0444037 -5.76447e-22)
(1.13784 -0.054281 3.12448e-22)
(0.973457 -0.0511929 -1.68588e-21)
(1.0353 -0.00337021 3.54149e-22)
(0.953922 -0.0366919 -8.89299e-22)
(0.993856 -0.00212583 -1.56783e-22)
(1.11442 0.0924899 -3.8911e-21)
(0.996528 -0.00235699 5.67211e-23)
(0.999107 -0.000311321 1.01852e-22)
(1.00108 -0.0226316 -2.82875e-22)
(1.01854 -0.0604462 -9.80787e-22)
(0.99994 -6.78887e-06 1.80036e-24)
(0.997888 -0.00192014 -1.19263e-23)
(1.18323 0.0806634 9.90365e-22)
(1.00643 -0.0330694 -3.03042e-22)
(1.04342 0.0936108 1.06487e-20)
(0.929099 0.0260048 4.29474e-20)
(1.00067 -0.0287227 -5.47432e-22)
(0.992765 -0.014824 5.37005e-22)
(0.94737 0.0166008 1.7379e-20)
(1.00045 -0.000157542 1.35603e-23)
(1.01057 0.00370993 -5.94984e-21)
(0.988775 0.066624 1.23803e-20)
(1.0035 -0.00921296 -1.484e-22)
(0.926095 0.107402 1.06588e-20)
(0.991608 -0.000677352 8.23712e-22)
(1.11938 -0.0181285 2.48889e-22)
(1.13146 0.139329 7.54341e-21)
(0.970792 -0.0183935 3.57176e-22)
(0.999956 -2.14084e-05 -5.26165e-24)
(1.00897 -0.0507507 -9.7013e-22)
(0.952853 -0.000858512 -5.90368e-22)
(1.0177 0.0367715 3.4117e-21)
(1.01147 -0.0140198 -5.85023e-22)
(1 -6.11716e-05 1.70954e-24)
(1.0769 -0.065679 -7.81256e-22)
(1.26011 -0.0443434 -2.45841e-21)
(1.02535 0.0813245 -2.01385e-20)
(0.999503 -0.000195431 -2.17344e-23)
(0.999537 -0.000176052 -6.36086e-24)
(0.926912 -0.0497465 -2.17144e-21)
(0.998636 -0.057643 1.91767e-21)
(0.970716 -0.0192717 3.99777e-22)
(1.00322 -0.00383414 6.54862e-23)
(1.0561 -0.00321982 -6.0809e-22)
(0.917851 -0.0214236 -1.83325e-21)
(1.0309 0.0966194 9.64512e-21)
(1.00431 -0.0749444 3.02651e-21)
(1.00047 -0.000394117 3.37588e-23)
(0.973404 -0.0741154 -3.14654e-21)
(1.09751 0.110666 1.00653e-20)
(0.999953 -2.10845e-05 7.71133e-24)
(0.972044 -0.0119279 -2.15324e-21)
(0.999942 -8.3035e-06 -9.28221e-25)
(1.04645 -0.0140464 -3.02946e-21)
(0.971826 -0.0511905 1.10266e-21)
(1.03233 0.0138137 6.16904e-21)
(1.00164 0.0642359 1.9091e-20)
(0.999556 -0.000177845 -5.41773e-23)
(0.999996 -6.93649e-05 -2.07592e-25)
(1.01571 -0.127328 -1.77183e-22)
(0.994307 -0.137298 -3.28338e-21)
(1.04748 -0.0354339 2.77118e-22)
(1.00001 -1.88051e-06 1.27006e-25)
(0.998907 -0.00639142 -2.14931e-22)
(0.999892 -0.00226339 1.00841e-23)
(0.990926 0.0682535 5.83747e-23)
(1.03304 0.0530482 -7.27305e-21)
(0.987719 -0.00788163 -8.68242e-22)
(1.00002 -6.73728e-05 6.49542e-26)
(1.00382 -0.00910902 -1.14499e-22)
(1.23516 0.055144 7.58153e-22)
(1.00535 0.0115256 9.50899e-21)
(1.17133 -0.00610043 -3.73569e-24)
(0.927578 0.0317979 -3.97449e-20)
(1.0011 -0.000366743 -8.81104e-23)
(1.15419 0.00720595 -4.47742e-22)
(1.11665 0.0264423 -1.14297e-21)
(1.02286 -0.0571682 7.03292e-22)
(1.00408 -0.00350462 -3.42234e-22)
(1.00002 -0.000447648 -4.13633e-25)
(1.03802 -0.0689759 7.42265e-22)
(1.13426 0.137232 4.23401e-21)
(0.999545 0.115308 1.92992e-20)
(1.18399 -0.0175582 -2.64803e-22)
(1.04494 -0.0140344 2.56312e-21)
(1.01518 -0.0101536 2.58811e-21)
(1.04608 0.145507 1.47165e-21)
(0.970587 -0.000885368 3.00738e-21)
(1.19964 -0.163174 9.41568e-21)
(1.09945 0.107557 -7.67527e-21)
(1.15117 0.0103587 5.73854e-22)
(0.933386 -0.00618244 -2.3936e-21)
(0.94801 -0.0523401 6.94986e-22)
(1.00001 -1.63311e-06 -5.55256e-26)
(0.99999 -3.55242e-06 5.44414e-25)
(0.997436 -9.02599e-05 -1.31279e-22)
(0.997948 -0.0126722 2.4421e-22)
(0.993836 -0.10283 -2.50288e-21)
(1.17842 -0.112289 3.84825e-21)
(1.17419 0.117482 4.73785e-21)
(1.03131 -0.0165463 1.33885e-21)
(1.01899 -0.0188721 4.41222e-22)
(1.00044 -0.000639844 5.14762e-23)
(0.99987 -0.000224253 6.85609e-24)
(1.00133 0.0210766 -2.033e-20)
(1.00055 -0.00157188 6.11029e-24)
(0.993282 -0.0120275 3.32958e-25)
(1.05515 0.147534 -4.41039e-21)
(1.00365 0.0401941 -2.15915e-20)
(1.13931 -0.0495418 -4.61746e-22)
(0.955176 -0.00324851 1.00847e-21)
(0.971309 -0.0574802 2.58004e-21)
(1.11338 0.0960243 9.87386e-22)
(0.999955 -4.54091e-05 1.6844e-24)
(0.999989 -3.57795e-06 -2.04856e-25)
(0.987669 -0.00828644 3.13192e-22)
(0.949369 -0.0511398 -3.84346e-21)
(1.00005 -0.000228491 -2.07816e-24)
(1 -6.55002e-05 8.39396e-25)
(0.993021 -0.00541556 -1.04179e-22)
(1.00003 -0.000434366 3.55071e-25)
(1.00589 -0.00598077 -1.91625e-22)
(1.05235 0.149614 4.98542e-21)
(0.971034 -0.000466757 -2.54616e-21)
(1.06888 -0.113286 -9.93917e-22)
(0.994808 -0.000103142 5.34822e-22)
(1.00216 -0.00275164 1.98649e-23)
(0.971249 -0.0117499 3.55638e-21)
(0.999214 -0.00636941 -1.96504e-23)
(1.17046 0.00453991 -6.00771e-22)
(0.999981 -9.36647e-06 2.91571e-24)
(1.01662 -0.0388366 -3.27411e-22)
(1.02695 0.0830345 7.12758e-21)
(0.993039 -0.0137567 -3.13579e-23)
(1.1914 -0.16247 -9.05095e-21)
(1.02593 0.0452951 -6.41073e-21)
(0.993506 -0.00297441 -7.78026e-22)
(0.981173 -0.0169218 9.60961e-22)
(1.00386 -0.00352598 5.19877e-22)
(0.9994 -0.00880603 -1.21553e-22)
(0.999733 -7.27767e-06 6.43126e-24)
(1.0069 -0.0181317 9.10737e-23)
(0.923565 0.0159106 1.66555e-20)
(1.00086 0.0173438 1.56835e-20)
(0.985004 -0.00672289 2.43716e-23)
(0.99359 -0.0118341 -3.38731e-22)
(0.982998 0.0356503 -1.67248e-20)
(1.01134 0.0289487 2.939e-21)
(0.919702 -0.0211441 2.26772e-21)
(1.00116 -0.000491891 -6.8872e-23)
(1.0955 -0.0846427 1.22532e-21)
(0.976026 -0.0992757 3.30367e-21)
(0.998735 -0.0177815 1.97187e-22)
(1.00085 -0.00107919 -1.08534e-22)
(1.04787 0.148361 2.07084e-21)
(0.993247 -0.0054227 -7.06865e-23)
(1.00683 -0.005333 -2.15384e-22)
(0.991573 -0.102604 3.26057e-21)
(1.01676 -0.13073 4.3595e-22)
(0.999968 -4.38802e-06 6.51223e-25)
(0.979374 0.0937497 -1.9482e-20)
(0.998976 -2.36361e-05 -1.31367e-24)
(0.999999 -5.16194e-05 4.40797e-25)
(0.999464 -0.000209083 9.22879e-24)
(1.00193 -0.0574623 -6.98932e-22)
(1.16891 0.0882768 -3.81505e-21)
(1.01751 -0.037895 5.09993e-23)
(1.00661 -0.00498469 -1.47638e-22)
(0.997837 -0.000245441 1.84139e-22)
(0.921369 -0.0235414 -4.2809e-22)
(1.00003 -0.000476263 -4.90771e-25)
(1.00049 -0.00160318 6.8971e-25)
(0.997668 -0.000208322 -1.21172e-22)
(1.02535 0.00151286 5.75086e-21)
(0.997343 -0.004066 -3.88836e-23)
(0.998921 -0.00593662 6.40531e-23)
(1.02586 -0.000980776 2.86907e-21)
(1.00012 -0.000389601 4.42615e-24)
(1.00003 -4.11017e-06 2.47744e-25)
(1.00497 -0.000598625 7.46283e-23)
(0.975331 -0.0368046 -1.27463e-21)
(0.974345 -0.000448867 -1.24278e-21)
(0.995129 -0.000391727 -5.66859e-22)
(1.0115 0.00292366 4.92569e-21)
(0.98356 -0.00123495 5.95851e-22)
(1.01913 -0.0181982 -4.25107e-22)
(0.999973 -1.07427e-05 2.37417e-24)
(0.99702 -0.00268519 -2.20655e-22)
(1.00079 -0.00107083 1.1718e-22)
(1.09349 -0.0809751 1.20397e-21)
(1.10825 -0.194834 7.09709e-21)
(0.998626 -0.000126247 9.63825e-23)
(1.00046 -0.000569067 -3.98851e-23)
(0.998819 -0.00579641 -2.16697e-23)
(1.00367 -0.00813068 -2.81412e-22)
(0.988711 -0.000647208 -1.08623e-21)
(0.999957 -4.30647e-05 -8.85815e-26)
(1.2528 -0.0443312 -4.92456e-21)
(1.00004 -0.000487354 1.3046e-25)
(1.025 0.00137749 -4.05205e-21)
(0.996639 -0.00235925 -1.14588e-22)
(1.00014 -0.000377773 1.98492e-24)
(1.03135 0.0140395 -3.92253e-21)
(0.969198 -0.0958001 -3.33821e-21)
(1.00024 -4.23908e-05 2.1591e-23)
(1 -1.02518e-05 2.23111e-25)
(0.933176 -0.0044261 -2.72393e-21)
(1.0828 -0.184323 -1.0823e-21)
(0.9912 -0.00870342 -8.39842e-23)
(1.02215 -0.0587105 -1.90613e-22)
(1.03222 -0.017087 -2.19092e-22)
(1.03147 0.0813509 8.77131e-22)
(1.00007 -8.06905e-05 7.79912e-25)
(0.975803 -0.0359612 1.29513e-21)
(1.20896 0.0258588 1.39325e-22)
(0.96764 0.0512124 4.04669e-22)
(0.992932 -0.0134556 2.49623e-22)
(1.02513 0.0438797 7.83673e-21)
(1.1182 -0.0148368 2.10343e-22)
(0.99989 -0.00249065 -1.06909e-23)
(0.852702 0.0456277 2.1877e-20)
(0.999461 -0.000441724 -6.25048e-23)
(1.06922 -0.117376 -1.31609e-21)
(0.922783 -0.0234729 2.80421e-21)
(1.00229 -0.00259904 -1.09456e-22)
(1.16633 0.0498871 2.47097e-21)
(0.991169 -0.000983373 -6.5075e-22)
(1.00117 0.123746 1.37668e-20)
(0.99648 -0.000271751 5.1976e-23)
(0.981804 -0.0182255 -5.03394e-23)
(0.9998 -0.00226332 -5.6842e-23)
(1.08101 0.127518 2.27692e-21)
(1.00072 -0.0178934 4.97913e-23)
(1.02842 0.0968988 5.92559e-22)
(0.999502 -4.60109e-05 -2.39237e-23)
(0.994021 -0.00196633 -2.48209e-22)
(0.965972 0.113102 -8.21363e-21)
(1.03011 0.00152811 -4.80586e-21)
(1.02567 -0.000685213 3.33482e-21)
(0.970689 -0.0474229 3.09952e-21)
(0.999856 -3.18054e-05 6.76511e-24)
(1.00356 -0.00785447 -3.1888e-23)
(0.999833 -0.000958263 -2.11798e-23)
(1 -4.87507e-05 3.14872e-25)
(1.05258 0.010495 1.36816e-21)
(1.00004 -4.93835e-06 3.31692e-26)
(0.979107 -0.016265 2.25527e-21)
(1.2078 0.0212724 -2.16116e-22)
(0.907396 0.0976166 -2.01847e-20)
(1.00196 0.115719 -3.07475e-20)
(0.971616 -0.0818566 1.02627e-21)
(0.986881 -0.0327931 7.94558e-22)
(0.975644 -0.00172471 5.93126e-22)
(1.03833 -0.0340648 8.68326e-22)
(1.00745 -0.0178447 -1.63959e-22)
(0.981078 -0.0177396 -1.32654e-21)
(0.973653 -0.0899147 4.56877e-22)
(1.02989 0.083093 -1.34333e-20)
(0.999544 0.0142944 2.74745e-20)
(0.998717 -0.000154023 5.30609e-23)
(1.00275 0.0650023 -2.61655e-20)
(1.05202 0.00900317 4.82169e-22)
(1.17376 -0.000944031 1.55674e-23)
(1.0144 -0.0153933 2.02751e-22)
(1.00171 -0.0163848 -2.35622e-22)
(1.02964 -0.0518736 -4.28303e-22)
(0.994458 -0.00189785 -5.88387e-22)
(0.997288 -0.000680182 -3.86838e-23)
(0.999946 -6.47047e-06 9.61458e-24)
(0.999241 -0.00903059 1.78114e-22)
(1.10062 -0.0241179 1.69418e-22)
(1.08081 0.130827 -3.64342e-21)
(1.00165 -0.0014142 5.14556e-23)
(0.971452 -0.0304178 -1.78416e-21)
(1.01635 -0.0155465 -6.4363e-22)
(0.999966 -1.52751e-05 -8.77114e-25)
(0.972551 -0.0857179 -1.64028e-21)
(0.885699 0.0769674 -1.01628e-20)
(0.993601 -0.00508693 8.73159e-22)
(0.998917 -0.00474009 5.8322e-23)
(1.01497 -0.0151484 -1.26039e-22)
(1.00841 -0.0492482 1.24362e-21)
(1.07404 0.0396222 1.72698e-21)
(0.999691 -0.010232 -2.94788e-23)
(0.99997 -5.27361e-05 6.08476e-24)
(1.00001 -2.64829e-06 5.1421e-26)
(0.997252 -0.000619784 -4.27419e-23)
(0.964346 0.112317 1.18581e-20)
(1.05259 -0.0229003 6.65221e-22)
(1.11387 -0.190393 -1.85896e-21)
(1 -1.02167e-05 3.79067e-26)
(1.08107 -0.190444 7.1353e-22)
(1.07637 0.00904623 -2.08345e-21)
(0.994679 -0.000172595 -2.65522e-22)
(0.925573 -0.00850613 -3.38145e-21)
(0.999002 -0.00465516 -5.8787e-23)
(0.999566 -0.000199104 -3.97133e-24)
(0.976319 -0.03242 -3.88206e-22)
(1.00094 -0.00118398 -5.25739e-23)
(1.17242 0.00929538 6.67696e-22)
(1.00932 -0.00106885 -1.54872e-21)
(1.13606 0.118511 -3.80917e-21)
(0.999926 -0.00245745 1.38057e-23)
(1.00493 -0.0143155 5.35115e-23)
(1.00519 0.0102042 -1.28872e-20)
(1.2301 0.0525081 -8.20849e-23)
(1.00043 -0.000602249 -3.0303e-23)
(1.00045 -0.000533503 2.96431e-24)
(0.992316 0.0801817 1.23373e-21)
(1.0001 -0.0585493 -3.83153e-22)
(0.999503 -0.0100845 3.58585e-23)
(1.01024 0.0319647 1.53994e-21)
(0.976458 0.0180805 3.24931e-20)
(1.14031 -0.0581464 -1.00331e-21)
(1.00058 -0.0277005 -1.6851e-22)
(1.16505 0.0872417 3.81806e-21)
(0.999232 -7.53158e-05 -4.04145e-23)
(0.990873 -0.00454188 2.30312e-22)
(0.996554 -0.000285444 -1.46015e-22)
(1.01275 0.0277061 1.66015e-23)
(0.999986 -0.000786333 2.18173e-24)
(1.00902 -0.00130173 1.58229e-21)
(1.19713 -0.0883457 1.29002e-22)
(0.997981 0.109326 2.98793e-20)
(0.928862 0.110691 -4.72919e-21)
(0.993707 -0.0029649 3.1114e-23)
(0.990926 -0.00850562 2.51232e-22)
(1.04108 0.0955778 -8.45243e-21)
(1.0194 -0.062372 1.40669e-21)
(0.999947 -7.73131e-06 -9.37341e-24)
(1.15656 0.128082 8.06223e-21)
(1.02459 0.00194666 -1.72009e-21)
(1.0241 0.0018794 -1.162e-21)
(0.994323 -0.0145674 -3.65528e-22)
(1.0186 -0.00183306 -2.40443e-21)
(0.957344 0.101003 4.66294e-21)
(1.17766 -0.125404 -1.15035e-21)
(0.981069 0.100286 4.77361e-21)
(0.992267 0.0997081 -8.47078e-21)
(0.999997 -6.60809e-05 6.61693e-25)
(1.09738 -0.0240871 -4.35593e-22)
(1.17541 -0.11953 7.59018e-22)
(0.997217 -0.00410492 1.01404e-22)
(1.00169 -0.00151733 -8.46843e-23)
(0.972094 0.0210945 7.74333e-21)
(1.05445 -0.0233404 -8.57546e-22)
(1.00029 -7.84385e-05 4.9558e-24)
(0.985429 -0.0698981 -3.82292e-21)
(0.975484 -0.102163 -1.56171e-21)
(0.994153 -0.00201972 3.49076e-22)
(0.999879 -0.000217658 -8.61221e-24)
(1.03476 0.112729 -1.4199e-21)
(1.03304 0.0512847 1.23053e-20)
(1.00005 -0.000534478 -3.60474e-25)
(1.00425 -0.00377937 6.7256e-23)
(1.00545 -0.00376424 3.64982e-22)
(1.21402 -0.0314352 3.21362e-21)
(0.970635 -0.0461262 -2.80839e-21)
(1.00007 -0.000635501 -1.17154e-24)
(0.999987 -2.39968e-06 -2.82258e-25)
(1.0005 -0.000173259 8.01748e-24)
(1.0724 0.0402381 -1.71493e-22)
(0.970265 -0.0314177 -1.42927e-21)
(1.00178 0.0403948 6.12303e-21)
(0.939846 -0.0585846 1.67376e-21)
(0.98777 -0.0325659 -8.39749e-22)
(0.973569 -0.00134856 -2.379e-21)
(1.01165 0.0309576 -7.57921e-21)
(1.17904 0.0771995 1.70306e-22)
(0.998758 -0.000163816 9.72122e-23)
(1.00821 -0.00604702 -3.90639e-22)
(1.00088 -0.00117204 5.95612e-23)
(0.979962 0.109485 -1.20085e-20)
(0.972479 -0.0283207 7.67236e-22)
(1.00112 -0.000298061 -2.88274e-23)
(0.991986 -0.00402804 -3.14821e-22)
(1.15261 0.0165213 1.27984e-21)
(0.999827 -0.0109924 -7.70674e-23)
(0.987803 -0.0142111 -1.73421e-22)
(1.00024 -0.000149301 -1.48501e-23)
(1.00024 -5.68677e-05 -6.55095e-25)
(0.882703 0.0823871 1.53083e-20)
(0.991235 -0.00146476 -4.0431e-22)
(0.994946 -0.00521897 3.58973e-22)
(0.99961 -0.00200666 -4.82629e-23)
(0.999252 -5.75445e-05 -5.54535e-24)
(1.03685 0.0802646 -4.59664e-21)
(1.20305 -0.0857872 2.38355e-22)
(0.986957 -0.0496157 4.98113e-22)
(1.00001 -1.93368e-06 -6.86764e-26)
(0.999999 -3.91039e-05 2.84461e-25)
(0.971357 -0.0294156 2.01739e-21)
(0.992781 -0.00213622 8.31839e-23)
(0.994502 -0.0024207 -4.80309e-23)
(1.01488 -0.0052893 7.50357e-22)
(1.00608 -0.00254477 1.3099e-22)
(1.00104 -0.0183007 -8.84544e-23)
(1.12279 0.010365 2.38274e-21)
(0.97962 -0.00516196 -4.9958e-22)
(0.982634 0.0984959 -4.06441e-21)
(1.01697 -0.0270474 -1.78174e-22)
(1.00025 -0.000149973 1.65446e-23)
(0.970334 -0.0804759 1.51557e-22)
(0.984278 -0.0440759 -1.74507e-21)
(1.15707 0.0490108 1.6962e-21)
(0.997015 -0.00678462 -1.07266e-22)
(0.992478 -0.057884 -5.8126e-22)
(0.99998 -6.70172e-06 1.58386e-24)
(0.939067 0.0811185 -1.61797e-20)
(1.01572 -0.00218619 1.36095e-21)
(1.00008 -0.000255208 -4.24786e-24)
(0.923465 0.0217615 -2.16129e-20)
(0.985768 -0.0499896 1.11531e-21)
(0.99998 -7.31928e-06 2.46893e-25)
(1.00153 -0.00138318 2.49958e-23)
(0.97107 -0.0841571 -9.00312e-22)
(1.04557 -0.0344405 2.89095e-22)
(1.04971 -0.00734259 1.72749e-21)
(0.999992 -3.54251e-06 4.57864e-25)
(0.991188 -0.000747678 3.21353e-22)
(1.03031 -0.050515 6.96695e-22)
(0.994317 -0.00185169 4.82852e-22)
(0.999523 -5.27243e-05 -1.29887e-22)
(0.991058 -0.00468779 6.51281e-24)
(0.980018 0.0372614 1.92949e-21)
(0.9926 -0.0144066 -4.47607e-22)
(0.988332 -0.0138943 1.27312e-22)
(1.00153 0.0243766 -6.26031e-21)
(0.997075 -0.00253547 1.15052e-22)
(0.975544 0.110868 -1.48158e-21)
(0.999979 -7.16746e-06 -8.0068e-25)
(0.99019 -0.0325762 3.3908e-22)
(0.99014 -0.0973675 3.8013e-21)
(0.993756 -0.0581042 9.87029e-22)
(1.21125 0.00871968 2.73242e-22)
(0.998799 -0.00621205 1.44028e-22)
(1.01166 -0.0259003 7.27555e-23)
(0.999917 -0.00264743 2.86818e-24)
(0.981968 -0.0258119 -9.9052e-22)
(1.04784 -0.0374976 9.8776e-23)
(0.999968 -1.44439e-05 4.53848e-24)
(1.00001 -8.9689e-07 -1.15046e-25)
(0.993147 -0.000478264 2.19607e-22)
(0.982371 0.0705114 1.24477e-20)
(1.0148 -0.0208979 7.63638e-22)
(1.00278 -0.0038768 -1.05909e-22)
(0.921159 -0.0442422 2.33724e-21)
(1 -9.11228e-06 1.11783e-25)
(1.00104 -0.00129267 -9.56523e-23)
(0.999961 -0.000749456 -1.48426e-24)
(1.01617 -0.0198462 8.47733e-22)
(0.981756 -0.0190368 1.76627e-22)
(0.999598 -0.00031139 1.65078e-23)
(0.993051 -0.012833 1.68673e-22)
(0.986447 -0.00825667 -1.84396e-22)
(1.00108 -0.000178535 -7.94815e-24)
(0.999978 -7.78266e-06 -4.95744e-25)
(1.19786 0.0449477 5.98004e-22)
(0.999651 -0.00197285 5.19424e-23)
(1.07527 0.0039591 1.58511e-21)
(1.0097 0.107505 3.1344e-20)
(1.03761 0.0941203 -7.6867e-21)
(1.00174 -0.0231493 -3.32446e-22)
(1.00595 -0.0023071 -4.33917e-23)
(1.01892 -0.00145267 1.47422e-21)
(0.999971 -0.00270626 -3.25905e-24)
(0.997878 -0.0117961 1.739e-22)
(1 -1.6771e-05 4.43581e-25)
(0.990092 0.0999375 -6.308e-22)
(0.986991 -0.0187936 2.45909e-22)
(1.01458 -0.004882 -5.36225e-22)
(0.980098 -0.0053507 1.04048e-21)
(1.0044 -0.0141101 5.56921e-24)
(0.997197 -0.00666779 2.34722e-22)
(0.999891 -0.000222912 2.06366e-24)
(1.00002 -1.0933e-06 -6.7728e-25)
(0.995121 -0.0051949 -2.61432e-22)
(1.05664 -0.00471032 -9.58044e-22)
(1.00383 0.0418578 9.70523e-22)
(1.0013 -0.000528682 -1.17176e-22)
(0.975511 -0.073951 -8.27735e-22)
(0.972344 -0.0274802 -3.384e-22)
(0.991409 -0.000586266 -1.2061e-21)
(1.17181 0.114278 -2.98813e-21)
(0.99861 -0.00108184 -5.81646e-23)
(1.0046 -0.0159723 -1.42024e-22)
(0.994066 -0.00319109 2.44151e-22)
(0.9999 -0.000214638 1.72867e-24)
(0.971944 -0.0881543 1.03161e-21)
(1.00164 0.0353743 -9.64559e-21)
(1.0261 0.0403221 -8.10066e-21)
(0.974774 -0.0182117 -1.63616e-22)
(1.00117 0.0337286 -4.32609e-22)
(1.00008 -0.000239441 7.95335e-24)
(1.00001 -1.03673e-06 1.97728e-25)
(1.15543 0.125253 -3.05388e-21)
(1.16226 0.0517517 -1.52443e-21)
(0.926011 0.0827308 -7.93593e-22)
(1.01285 -0.0979141 2.76931e-21)
(0.973868 -0.00186055 -7.64125e-22)
(1.14879 0.0201816 -1.76044e-21)
(1.00124 -0.000551458 1.32643e-22)
(0.993853 -0.00430532 1.39666e-22)
(1.00048 -0.000184027 -7.67733e-24)
(0.988226 -0.000831846 -2.57727e-22)
(0.987275 -0.0153295 -3.60822e-22)
(0.999995 -3.48907e-05 -1.75784e-24)
(0.999068 -3.65012e-05 2.30147e-23)
(0.997723 0.107031 -2.92104e-20)
(0.999861 -0.000778581 1.94754e-23)
(0.945762 0.0749074 2.03848e-20)
(1 -1.56491e-05 -3.37371e-25)
(1.2081 0.0825601 1.62768e-21)
(1.07578 0.00221457 -3.36113e-21)
(1.12141 0.0127189 -2.64691e-21)
(1.00111 -0.00052337 7.90396e-24)
(1.00019 -4.51703e-05 1.30733e-23)
(0.986101 0.0669757 -1.89719e-20)
(1.07723 0.00697295 6.78347e-21)
(0.989806 -0.0996086 -3.45308e-21)
(1.01826 0.0384766 3.66818e-21)
(0.998649 -0.023788 1.43664e-22)
(0.98515 -0.00633013 -2.68559e-22)
(0.995616 -0.000246006 -1.46053e-22)
(1.08299 0.149147 -1.64403e-20)
(0.973999 -0.032791 1.25318e-21)
(1.03848 -0.0323352 -5.80446e-22)
(0.993338 -0.0127002 -9.68874e-23)
(1 -9.11903e-06 -1.26818e-27)
(0.998625 -0.00102131 -4.9458e-23)
(1.00648 -0.00644465 2.28599e-22)
(0.979401 -0.00956958 1.33082e-21)
(0.97547 -0.0183314 2.45197e-22)
(0.951426 -0.0519639 -3.72306e-22)
(0.979188 -0.010155 -1.00948e-21)
(1.01733 0.00277896 6.6791e-22)
(0.997726 -0.000157297 3.03783e-24)
(0.928852 -0.0502394 1.20374e-21)
(0.984326 -0.00108031 -3.69251e-22)
(1.00004 -0.000231015 3.78675e-25)
(0.986385 -0.000858821 -2.55202e-22)
(1.0398 -0.035192 -9.42421e-22)
(1.01659 0.00295605 -3.69499e-21)
(0.97155 -0.0331613 -3.11242e-22)
(0.999987 -6.19809e-07 -7.3739e-27)
(0.980871 -0.019508 2.65191e-22)
(1.00296 -0.016445 2.18659e-23)
(1.00149 -0.00128389 3.20749e-23)
(1.20153 -0.112043 -3.41968e-21)
(1.00134 0.0326733 -2.22966e-20)
(1.00097 -0.00127712 8.87263e-23)
(0.986625 -0.00064705 3.50201e-24)
(1.13167 -0.0620929 -1.99262e-23)
(1.02626 0.000669826 5.79629e-21)
(0.991749 0.0258639 -2.08516e-21)
(1.002 -0.0027121 2.85875e-23)
(1.00164 -0.0241454 1.04124e-22)
(1.06869 0.11603 -2.57626e-21)
(1.01371 0.0247864 -1.89392e-20)
(0.991401 -0.0323492 8.9725e-22)
(1.00514 -0.00377406 -4.08691e-23)
(0.946269 -0.0623714 1.70916e-21)
(0.999997 -4.32805e-06 3.41683e-25)
(0.942104 -0.00263297 -1.22799e-21)
(1.00009 -7.50383e-05 1.63219e-24)
(1.12926 -0.0649127 -2.55772e-21)
(0.999969 -3.05622e-06 -5.107e-25)
(1.00003 -6.58045e-05 4.66715e-25)
(1.00151 -0.0271005 -1.24917e-22)
(1.18229 0.0858242 -2.12233e-21)
(1.0197 0.133595 1.31334e-20)
(1.0436 -0.0355317 -1.47756e-21)
(1.01564 -0.0157809 4.28124e-22)
(0.999999 -3.11471e-06 -1.03423e-25)
(0.993364 -0.00512848 -4.71376e-22)
(1.00009 -2.32504e-05 -1.25693e-24)
(0.996609 -0.00270486 1.64528e-22)
(1.00003 -6.10421e-05 -3.55546e-25)
(1.04937 -0.0055345 -5.38729e-21)
(0.999499 -0.000519889 -6.43863e-23)
(1.04577 0.0554087 8.10001e-21)
(0.999869 -0.000237999 -1.31043e-23)
(0.985709 -0.00617286 -4.55161e-22)
(0.951759 -0.00139365 2.85035e-21)
(0.995386 -0.00033698 -1.88531e-22)
(0.98629 0.0374375 2.00342e-20)
(0.98061 -0.000858113 6.96432e-22)
(1.0527 -0.117001 2.26062e-22)
(0.994018 -0.00451322 7.24033e-22)
(1.02552 -0.00213389 -1.22014e-21)
(0.972471 -0.0755486 3.60742e-21)
(1.02005 -0.00133342 -4.11007e-21)
(1.05798 -0.0717217 -7.91105e-23)
(0.999987 -1.91304e-06 7.47693e-26)
(1.00028 -0.0229082 1.16334e-22)
(0.995688 -0.000324476 2.29587e-23)
(1.00026 -0.000101299 1.00477e-23)
(1.00009 -1.97721e-05 2.05322e-24)
(1.0859 0.151144 1.78789e-20)
(0.994687 -0.00242668 4.05225e-22)
(1.02581 0.00150061 6.60331e-21)
(1.00241 -0.0246641 1.26204e-22)
(1.00092 -0.000334802 3.05255e-23)
(1.02457 -0.00761884 -4.52613e-21)
(1.00017 -4.22787e-05 -2.84356e-23)
(0.999978 -4.36418e-06 -7.0881e-26)
(0.942857 -0.00350429 9.47867e-22)
(0.996221 -0.0013739 1.83475e-22)
(1.00003 -5.94072e-05 6.86701e-25)
(1.04637 0.0942775 5.79786e-21)
(0.895878 0.0668933 -2.85986e-20)
(0.999779 -0.000252285 3.13515e-23)
(0.954039 -0.00280014 -7.85006e-22)
(1.00001 -1.19416e-06 1.45424e-25)
(0.954489 0.0988776 -1.89322e-20)
(1.21162 0.0864405 1.78886e-21)
(0.970572 -0.0602301 -2.90749e-21)
(1.00005 -0.000614477 -1.24679e-24)
(1.03699 -0.031323 1.36074e-21)
(1.03045 -0.00123273 -1.68517e-21)
(1.03081 0.00164032 4.92122e-22)
(1.05101 -0.00775855 -6.72962e-22)
(0.999616 -0.0021155 -7.9448e-24)
(0.999859 -0.000934231 1.68002e-23)
(0.984866 -0.0188049 -7.8379e-22)
(1 -8.1123e-06 2.99776e-25)
(1.00001 -9.64663e-07 -3.67207e-26)
(0.972913 -0.0322795 -7.38095e-22)
(1.00587 -0.0736546 -1.48781e-21)
(0.952939 -0.0508439 -9.53304e-23)
(0.914378 0.0936648 -5.91545e-22)
(1.00021 -2.75289e-05 -1.21193e-23)
(1.03353 -0.0877643 -3.03536e-21)
(1.00794 -0.00568331 -4.01462e-22)
(0.999979 -4.79367e-06 8.11142e-25)
(0.998938 -0.00441152 -1.27546e-22)
(1.00004 -0.00051976 -4.37317e-25)
(0.995533 -0.0147048 2.75615e-22)
(1.00004 -1.08836e-05 1.09796e-24)
(1.05974 -0.0697018 -1.80206e-22)
(1.0197 -0.00163878 3.98586e-21)
(0.976848 0.108958 4.17451e-21)
(1.02504 -0.00205861 4.58268e-21)
(0.999709 -0.000246561 2.44192e-23)
(1.00049 -0.000430298 -2.94128e-23)
(1.21679 -0.0368854 -3.30378e-21)
(1.02583 0.00121009 -5.31357e-21)
(0.99667 -0.000442763 1.6515e-22)
(1.00002 -1.71778e-06 3.19646e-25)
(1.05997 0.0862712 -9.67318e-21)
(1.17638 -0.171748 -1.61731e-21)
(1.01244 -0.0954917 -1.23001e-21)
(0.983881 -0.000921143 -1.95348e-22)
(0.999982 -2.15414e-05 1.63678e-24)
(0.999712 -0.000232365 -1.42882e-23)
(1.18547 -0.171884 4.55708e-21)
(1.00349 -0.0582647 -4.05472e-22)
(1.03331 0.0305075 1.15576e-21)
(0.982227 0.0952291 1.75286e-20)
(1.05013 -0.114056 1.7064e-21)
(0.99866 -9.38055e-05 -3.02838e-23)
(0.999981 -1.02527e-05 -1.89503e-24)
(0.960934 -0.0656499 2.87592e-21)
(0.989588 -0.131137 -3.86315e-21)
(0.999788 -0.000261321 1.69365e-23)
(1.01225 -0.0250903 3.53716e-22)
(0.991683 -0.0314319 -1.57391e-22)
(0.994966 -0.00259949 1.59977e-22)
(0.998504 0.0264384 -1.59838e-20)
(0.998628 -0.000609964 1.0784e-22)
(1.06585 -0.0465013 1.14174e-22)
(1.13083 0.142533 -7.65991e-21)
(0.991535 -0.00380622 -4.59439e-22)
(0.924114 0.078116 -2.87675e-21)
(0.930803 0.0370934 9.07545e-21)
(0.99997 -5.57728e-05 -6.13051e-24)
(0.999972 -0.000819901 -1.9385e-24)
(0.980853 -0.00113938 -4.46264e-22)
(1.01388 -0.00484939 -9.70794e-22)
(0.956083 -0.00257138 1.63699e-21)
(1.0056 -0.00467251 -4.19676e-22)
(0.991845 -0.00381378 4.30066e-22)
(0.999398 -0.00055564 -4.8707e-23)
(0.961961 0.0992643 -3.36977e-21)
(1.04658 0.0533983 -1.26301e-20)
(1.00245 -0.00262319 7.37516e-23)
(0.859034 0.0429759 -5.6095e-21)
(1.00001 -7.62481e-07 -2.03589e-25)
(1.02341 0.00679872 -9.16526e-21)
(1.01023 -0.121857 2.72182e-21)
(1.03644 -0.0869923 1.18134e-21)
(1.0001 -0.000232494 -3.88494e-25)
(0.953836 -0.00141548 1.34718e-21)
(1.02103 0.00596087 5.14744e-21)
(1.01354 -0.00520749 8.03534e-22)
(1.02972 -0.000355527 2.33298e-21)
(0.999537 -4.12157e-05 9.15607e-23)
(0.999492 -0.00055448 5.83228e-23)
(1.03354 -0.0483062 1.49589e-22)
(0.996284 -0.00148043 -5.26462e-22)
(0.986213 -0.0139795 -8.5254e-22)
(0.999065 -0.00399441 7.5617e-24)
(1.06977 0.0455555 6.55201e-21)
(1.00008 -0.0239117 -8.045e-23)
(0.994649 -0.00553177 8.67929e-24)
(0.916196 -0.0376815 -3.44776e-21)
(0.994266 0.0802125 2.02731e-21)
(1.12005 -0.00993511 -1.88542e-21)
(1.02403 -0.0073392 3.63943e-21)
(0.999584 -0.000199678 1.75559e-23)
(0.999464 -0.000361937 7.88861e-24)
(0.981059 -0.025563 1.99626e-21)
(1.00107 -0.00139121 -7.13921e-23)
(0.997215 -0.000779197 -2.99084e-23)
(0.999983 -2.03038e-05 -6.18934e-25)
(0.999657 -0.00215492 1.57349e-24)
(1.02047 0.00547075 -2.00067e-21)
(0.985216 0.0697192 -1.81711e-20)
(0.999872 -1.64622e-05 4.04097e-24)
(1.10169 0.143098 -1.52461e-20)
(0.999994 -4.37805e-05 7.38695e-25)
(0.996503 -0.00320589 2.23575e-22)
(0.999992 -0.00010425 8.22925e-25)
(1.00563 -0.00404288 -1.85951e-22)
(1.202 0.0433771 -3.97821e-22)
(0.999962 -4.64713e-05 4.69025e-25)
(0.999961 -4.98543e-05 3.41221e-24)
(0.938523 -0.0594075 -1.59818e-21)
(1 -8.13897e-06 1.28719e-27)
(1.05416 -0.00692223 5.6643e-21)
(0.989925 -0.0504921 1.59049e-21)
(0.999974 -0.000720116 1.73337e-24)
(1.06204 0.0700346 -7.52241e-21)
(0.999999 -3.15269e-05 -6.13201e-25)
(0.99959 -4.26262e-05 8.04481e-23)
(0.999912 -3.88649e-05 1.32571e-25)
(0.994846 -0.00553915 -1.34632e-22)
(0.999643 -0.00171707 -2.50685e-23)
(0.993281 -0.000362277 -1.47623e-22)
(1.03156 -0.145221 -3.16454e-22)
(0.999683 -0.00167162 1.67394e-23)
(1.00451 -0.00379019 -1.44414e-22)
(0.999978 -3.27508e-06 -3.00833e-25)
(1.02132 0.131381 -2.5604e-20)
(1.06434 -0.0482562 2.31977e-22)
(1.12301 -0.00948881 -1.25815e-22)
(0.959407 -0.00763675 1.76374e-21)
(0.974426 -0.0052391 -3.23658e-22)
(0.999033 -0.00431224 2.10504e-22)
(1.00314 -0.00291193 2.00786e-22)
(1.03593 0.063624 3.36325e-21)
(0.983637 -0.0454759 2.371e-22)
(1.08498 0.106244 3.70451e-21)
(0.948945 -0.0177217 -3.18615e-21)
(0.996376 -0.00309668 -2.10804e-22)
(0.999992 -4.317e-06 -8.17423e-25)
(0.993859 -0.00320501 -2.9436e-22)
(1.0037 0.125197 6.33349e-21)
(1.05421 0.0759093 -1.73953e-21)
(0.987267 -0.0690851 1.30157e-21)
(0.928927 -0.00788819 7.40178e-22)
(1.02515 0.125787 7.02303e-21)
(0.990735 -0.000670274 3.81182e-22)
(1.00108 -0.112309 2.16332e-22)
(0.999992 -9.96933e-05 1.89574e-24)
(0.98861 -0.0509158 1.98517e-21)
(0.999126 -0.000250747 -1.14289e-22)
(0.870356 0.072565 -1.60953e-20)
(0.987801 -0.0925442 -2.86941e-21)
(0.999915 -3.49189e-05 7.69745e-24)
(0.924503 -0.0258439 -1.92841e-22)
(0.983834 -0.0483216 1.03879e-22)
(1.02448 0.0676203 1.18095e-20)
(0.997253 -0.000850199 -2.82495e-22)
(0.98129 -0.0468786 -7.09878e-22)
(0.997689 -0.0121069 -2.4223e-22)
(1.0015 -0.0261586 -2.59932e-22)
(0.998665 -0.000620484 -7.36932e-23)
(1.02359 0.0662831 -1.434e-20)
(1.09876 -0.192193 3.14903e-21)
(0.980844 -0.0203152 -5.88163e-22)
(0.98543 -0.0174442 1.25215e-23)
(0.985828 -0.00582802 -1.83225e-22)
(1.00558 -0.00220277 -1.70477e-22)
(1.02657 0.122943 2.77428e-20)
(0.980582 -0.0164713 2.67336e-22)
(1.01234 0.0363067 7.99467e-21)
(1.00289 -0.00234081 1.52694e-22)
(1.21318 0.0143869 -1.17985e-22)
(0.943379 0.08014 2.98766e-21)
(0.990548 -0.000523181 -1.31737e-21)
(0.999769 -4.40655e-05 1.62093e-23)
(1.03508 0.0820788 3.57696e-21)
(0.995633 0.102832 -2.36238e-20)
(1.03225 -0.0466117 -1.4515e-22)
(1.09231 -0.0282633 2.05235e-22)
(0.995315 -0.0152708 -3.06291e-22)
(0.960057 -0.00689441 -1.04507e-21)
(1.06702 0.113761 1.03955e-20)
(0.959225 -0.066128 4.84054e-22)
(0.99998 -2.08123e-05 2.09532e-24)
(0.99199 -0.000128808 -6.79535e-22)
(1.00003 -5.65548e-06 1.07188e-24)
(0.995224 -0.000302845 5.11512e-22)
(0.999979 -2.23071e-05 -3.26366e-24)
(0.998424 -0.0169026 3.96886e-22)
(0.999004 -4.06468e-05 4.05709e-23)
(0.997146 -0.0063213 2.73652e-23)
(1.21405 -0.0169164 -4.86807e-22)
(0.999383 -0.000424953 4.15971e-23)