/*--------------------------------*- C++ -*----------------------------------*\
  =========                 |
  \\      /  F ield         | OpenFOAM: The Open Source CFD Toolbox
   \\    /   O peration     | Website:  https://openfoam.org
    \\  /    A nd           | Version:  7
     \\/     M anipulation  |
\*---------------------------------------------------------------------------*/
FoamFile
{
    version     2.0;
    format      ascii;
    class       volVectorField;
    location    "3";
    object      U;
}
// * * * * * * * * * * * * * * * * * * * * * * * * * * * * * * * * * * * * * //

dimensions      [0 1 -1 0 0 0 0];

internalField   nonuniform List<vector> 
7807
(
(1.04926 0.0855579 9.23262e-20)
(1.04158 -0.0232414 2.74308e-19)
(1.00878 0.0674192 -1.47228e-19)
(1.02841 0.047676 2.91504e-19)
(1.00706 -0.00177472 3.68929e-20)
(1.00608 -0.00766805 2.10379e-20)
(1.0049 0.0609982 -2.91286e-19)
(1.0054 -0.00304299 1.01523e-21)
(1.00533 -0.00101388 2.98895e-20)
(1.02098 -0.00137666 -2.44653e-20)
(1.00356 -0.00353914 -2.32976e-20)
(1.00904 -0.00183715 -6.26263e-20)
(1.00365 -0.00371227 -6.14545e-20)
(1.01564 -0.00110399 -2.83367e-19)
(1.01955 0.000248423 1.02153e-19)
(1.0052 -0.00982759 1.01569e-19)
(1.04973 0.0899451 -1.95922e-19)
(1.0029 -0.00429944 1.72703e-20)
(1.01143 -0.00579093 -5.12567e-20)
(1.00053 -0.0573242 2.24963e-20)
(1.02778 0.00209843 -7.77245e-20)
(1.00813 8.14168e-05 1.74829e-19)
(1.01805 -0.00221997 3.61631e-20)
(1.00968 0.0235517 -1.75873e-19)
(1.00167 -0.00476878 6.23216e-20)
(1.04671 0.084203 -9.24815e-20)
(1.00709 -0.00147272 3.06258e-20)
(1.02223 0.000987308 9.409e-20)
(1.00539 0.0126097 -2.55193e-20)
(1.01039 -0.00587534 4.58837e-20)
(1.00214 -0.0112383 1.45196e-19)
(0.933676 0.0316909 3.10374e-20)
(1.01594 -0.00227908 1.96179e-19)
(1.00597 -0.00220841 -6.64906e-20)
(0.870793 -0.000736406 4.02632e-22)
(1.01924 0.00136191 3.88689e-20)
(1.01234 -0.00703761 3.39552e-20)
(1.00545 0.0571552 -4.94118e-20)
(1.00614 -0.00684757 -1.79854e-19)
(1.00362 -0.00164058 -7.49239e-20)
(1.0064 -0.00641637 1.81038e-20)
(1.0053 -0.00943655 3.7698e-20)
(1.01638 -0.0630225 -1.0853e-19)
(1.10406 -0.026364 -4.0798e-20)
(0.854656 -0.000689937 -3.49207e-20)
(1.00655 -0.00260212 1.72354e-20)
(1.00734 6.70239e-05 -1.06325e-19)
(1.00701 -0.00522404 1.05789e-19)
(1.00527 3.15487e-05 1.58698e-20)
(1.00318 -0.057629 -3.31704e-20)
(1.00972 -0.00145509 5.05386e-20)
(1.02252 0.00165778 -1.01454e-19)
(0.999538 -0.00497455 1.73721e-19)
(1.01599 -0.0188893 3.80711e-20)
(1.01758 -0.000779936 -2.96508e-20)
(1.00606 -0.00343497 1.77938e-20)
(1.00893 -0.0053734 8.07286e-20)
(1.00531 -0.00337145 -1.14183e-19)
(0.997521 -0.0125047 1.6654e-19)
(1.006 -0.0028865 8.0388e-20)
(1.00519 -0.000543746 -4.04714e-20)
(1.01052 -0.000269976 4.83983e-20)
(1.01719 -0.000708279 -6.40991e-20)
(1.00846 -0.00183358 6.39e-20)
(1.00646 -0.00342394 -6.49067e-20)
(1.00234 -0.0114842 -2.30925e-20)
(1.00507 -0.00141879 -2.8029e-20)
(1.00419 7.01249e-05 3.98918e-21)
(1.10256 0.0529865 9.36215e-20)
(1.00675 -0.00477408 4.25615e-20)
(1.00502 -7.0255e-05 -1.56695e-20)
(0.99357 -0.0339281 1.97894e-19)
(1.00191 -0.00494799 -3.10006e-20)
(0.995588 -0.00602826 -2.64238e-20)
(1.00335 -0.00441785 -5.42515e-20)
(0.990497 -0.0172527 2.67125e-20)
(1.01014 0.0684842 2.35885e-19)
(1.02636 0.00132841 9.76515e-20)
(1.06137 0.00410221 -2.04943e-19)
(0.984456 -0.0281186 2.22267e-19)
(1.00407 -0.00364358 9.45453e-20)
(1.0067 0.042971 3.30752e-19)
(1.0281 0.00774414 1.73008e-19)
(0.995661 -0.00753412 -1.18186e-19)
(1.00613 -0.00369147 5.19395e-20)
(0.997707 -0.00606474 -2.6919e-20)
(1.00516 -0.00330356 -1.53518e-19)
(0.999877 -0.00538227 -1.11285e-19)
(1.00653 -0.00196343 -4.25559e-20)
(1.00338 -0.000215762 -5.47118e-20)
(1.00541 0.0144287 1.81236e-19)
(1.12577 -0.0149754 6.38019e-20)
(1.00443 -0.00134502 2.66397e-20)
(1.00972 -0.00544482 3.75105e-20)
(1.00739 -0.00405817 -6.31469e-20)
(0.956468 -0.00347472 2.05892e-19)
(0.994978 -0.0337627 -1.18113e-20)
(1.01665 -0.0175671 -6.54824e-20)
(1.00562 -0.0039537 -1.04788e-20)
(1.00742 -0.000669784 -1.81229e-20)
(0.981963 -0.0110485 -5.64303e-20)
(1.06266 0.00796543 1.54181e-19)
(1.00684 -0.00392737 1.57268e-19)
(0.887849 -0.000318805 1.28492e-22)
(1.12868 -0.00692674 4.07003e-20)
(1.02349 0.0214586 -1.74578e-19)
(0.984004 0.032252 4.1083e-20)
(1.00583 -0.00323844 6.7889e-20)
(1.00346 -0.000303665 -1.22004e-21)
(1.0236 -0.00566556 -8.10672e-20)
(1.03251 0.045778 -3.38334e-19)
(1.02651 -0.0471576 2.0639e-19)
(1.00333 -8.36871e-05 1.47297e-21)
(1.0262 -0.00512894 -1.76183e-20)
(1.02038 0.0216609 1.82272e-19)
(1.00661 -0.000410159 -2.29752e-20)
(1.05354 -0.0541007 1.55039e-20)
(1.02402 0.01311 -4.80699e-20)
(1.00052 -0.0270982 -1.21496e-19)
(0.995977 -0.00615386 2.81565e-20)
(0.973781 -0.00833058 1.33622e-19)
(1.00382 0.0414624 -2.20467e-19)
(1.0202 -0.0619299 1.4906e-19)
(1.013 -0.00351338 2.17834e-20)
(0.979832 -0.00848388 -5.25311e-20)
(1.00629 -0.00246349 -9.10641e-20)
(1.00271 -0.00828683 -5.30336e-20)
(1.01013 -0.00612634 -6.18691e-20)
(1.00766 -0.0117154 1.45118e-19)
(1.00258 -0.00968987 -3.52719e-21)
(1.15256 -0.0284839 1.89996e-20)
(1.05705 0.00255519 3.43526e-20)
(1.0062 -0.00230574 -6.36627e-21)
(1.00607 -0.00208923 9.46398e-20)
(0.994969 -0.00700123 -3.40065e-20)
(1.03096 0.036947 1.34374e-19)
(1.00356 0.0501958 3.67344e-19)
(0.991223 -0.000488956 2.18371e-21)
(1.01429 -0.00170001 1.1862e-20)
(0.946969 -0.00417011 1.36996e-19)
(0.99139 -0.00427624 1.15024e-19)
(1.00363 -0.0372195 1.53411e-19)
(0.990709 -0.0184809 -3.58087e-20)
(0.996139 -0.00537816 2.10571e-21)
(0.951123 0.024427 1.62423e-19)
(1.01755 -0.0270906 1.00728e-20)
(1.01079 0.0136095 -9.65915e-20)
(0.998565 -0.0145273 8.96882e-20)
(0.969966 -0.00541201 -2.33573e-20)
(1.00321 0.0413003 -1.10024e-19)
(1.02096 0.00362912 1.1288e-19)
(1.1167 -0.0165332 2.75113e-20)
(1.00638 -0.00261597 1.45378e-19)
(1.10704 0.0466068 2.24738e-20)
(1.02799 0.00649246 -1.82953e-19)
(1.01321 0.0596171 -2.55404e-19)
(0.987679 -0.0198633 -9.64575e-20)
(1.0036 -0.00402568 -2.28306e-20)
(0.990863 0.0513442 3.74456e-19)
(1.00544 0.000258902 1.63083e-20)
(1.00949 -0.00524978 -9.34151e-20)
(1.0109 0.0266535 1.2096e-19)
(1.00424 -0.00130931 -1.85452e-20)
(1.00706 -0.0044772 1.82935e-19)
(1.00699 -0.00265511 2.82426e-20)
(1.00509 0.0296941 -3.65939e-20)
(1.00351 0.0327065 1.31576e-19)
(0.985318 0.0530651 1.16738e-19)
(1.00681 -0.00522796 7.91758e-20)
(0.99357 -0.00631216 3.48153e-20)
(1.00451 0.000647261 -4.03238e-21)
(0.881607 -0.00698989 2.14148e-19)
(1.00681 -0.000735567 3.07497e-20)
(1.04447 -0.0211422 -3.20892e-19)
(1.01473 -0.00220564 7.77125e-20)
(0.984931 -0.00551699 -5.07147e-20)
(1.12193 0.000852408 7.57075e-20)
(1.0713 0.0508424 7.58857e-21)
(1.00453 -0.00138125 -1.54899e-20)
(1.00629 -0.00166706 8.4259e-20)
(1.02689 0.0486695 -4.86201e-20)
(1.00565 0.000704625 7.36197e-21)
(0.984193 0.000118828 -7.4892e-21)
(1.00587 0.0618289 -2.3948e-19)
(1.04183 -0.0245322 1.3913e-19)
(1.01811 -0.0388085 1.30788e-19)
(1.00171 -0.0263186 1.74408e-19)
(0.997105 -0.00633076 -8.55678e-20)
(1.0159 -0.0283692 -2.48839e-20)
(0.929615 -0.00965111 -7.14034e-20)
(1.00369 -0.00162263 5.5799e-21)
(0.995314 -0.0316542 4.87823e-20)
(1.07423 0.0565209 -1.40536e-19)
(1.00664 -0.00363459 -2.26115e-20)
(1.0058 -0.000177414 -2.07232e-20)
(1.05334 0.0528309 1.10639e-20)
(1.00484 -2.90317e-05 -1.37188e-19)
(1.00265 -0.00938528 -7.92071e-20)
(1.0144 -0.0271582 -8.89107e-20)
(1.00478 -0.00048566 -1.67435e-21)
(1.00739 -0.00212066 -7.72095e-20)
(1.02819 0.0378087 1.52413e-19)
(1.06158 0.0586843 -1.58638e-19)
(1.00946 0.0542605 -3.35414e-20)
(1.05061 -0.0506671 -8.68979e-20)
(1.02818 -0.0446117 -4.23969e-20)
(1.08312 -0.0764583 2.27273e-20)
(1.02034 -0.00336679 2.54804e-19)
(1.02513 0.0400769 -5.60202e-20)
(0.979304 -0.00184043 3.28075e-20)
(1.00554 -0.00021638 1.16459e-20)
(0.909752 0.0220278 -1.85896e-19)
(1.00556 -0.00951449 4.0921e-20)
(1.00632 -0.00249343 5.64187e-20)
(0.996668 -0.0311964 -1.1295e-19)
(1.00263 -0.0086439 5.89113e-20)
(1.01894 0.054297 -3.06055e-19)
(1.01499 0.0536564 -6.79802e-20)
(1.00192 -0.0379977 -3.94947e-20)
(0.972405 0.0424701 -1.24914e-19)
(1.00636 -0.00104289 1.04099e-19)
(1.0028 -0.00468225 -6.04472e-20)
(0.980628 -0.0102771 -7.33224e-20)
(1.02805 0.00465997 -5.07879e-20)
(1.01903 -0.0787958 9.98197e-21)
(1.06265 0.0865952 -2.21961e-19)
(0.990279 0.0468516 -3.27006e-19)
(1.00528 -0.00087767 3.00014e-20)
(1.0128 -0.00398124 2.90653e-20)
(1.02209 0.0156341 2.51601e-19)
(1.00681 -0.00499313 1.39623e-19)
(1.02553 0.0140227 -3.31567e-20)
(1.00653 -0.00201425 3.11479e-20)
(0.975903 0.0563215 2.28139e-19)
(1.0136 0.055706 5.26971e-20)
(1.00531 -0.00343503 -9.32018e-20)
(1.01158 -0.00557637 -5.60586e-21)
(1.00531 -0.0012393 1.42886e-19)
(1.08657 0.0711734 7.56958e-20)
(0.98831 -0.00165769 -2.80759e-20)
(1.00614 -0.00739891 -4.0009e-20)
(0.97454 -0.0183674 -8.38989e-20)
(1.00504 0.000299041 6.55796e-21)
(1.00645 -0.00364289 3.88356e-20)
(1.00655 -0.00201878 -3.43623e-20)
(1.04667 0.0315855 1.71428e-19)
(1.0046 -0.00124591 -2.52259e-20)
(0.985126 0.000405281 -2.99689e-22)
(0.985882 -0.0279554 -2.59358e-19)
(0.869854 0.0283512 -6.80643e-20)
(1.05688 -0.000400085 -5.04265e-20)
(0.982202 0.0433698 1.82786e-19)
(1.01151 -0.00878839 1.84039e-20)
(1.01307 -0.0278878 -7.53646e-21)
(1.00581 -0.00195268 6.3544e-20)
(1.01078 0.0612172 -2.43917e-19)
(1.00916 0.000217902 -5.97225e-20)
(1.00467 0.0390166 1.18384e-19)
(1.01099 -0.00744331 -1.52478e-19)
(1.00776 -0.00158875 9.82985e-20)
(1.02712 -0.0196958 -1.22532e-19)
(1.01986 -0.00193367 -2.37478e-19)
(1.00675 -0.000463844 4.76992e-20)
(1.00539 -0.00351788 -1.89461e-21)
(1.00671 -0.000727236 1.20287e-19)
(1.00711 -0.0052372 1.18479e-19)
(1.0223 -0.0410411 -1.63339e-19)
(1.00789 -0.00304109 -1.2383e-20)
(0.988403 -0.0189904 -7.06117e-20)
(1.00727 -0.00295812 6.30137e-21)
(1.00459 -0.000645821 -2.78176e-20)
(1.0064 -0.00232646 -1.71206e-20)
(0.999974 0.0492178 2.80494e-19)
(0.971174 -0.00318535 -2.79851e-20)
(1.00775 -0.0145905 1.54856e-20)
(0.711271 0.0387226 2.89264e-19)
(1.00631 -0.0042461 7.35246e-20)
(1.04425 0.0659401 -1.18678e-19)
(1.00559 -0.00200255 -9.18049e-20)
(1.0139 -0.0151946 1.14857e-19)
(1.00517 0.000156748 -1.27015e-21)
(1.00021 -0.0218939 7.4486e-20)
(1.02822 0.00517379 7.34382e-20)
(1.1239 0.00691929 -1.74891e-19)
(0.997569 -0.0132609 -1.42775e-19)
(1.00613 -0.00195021 -1.05474e-19)
(0.999695 -0.0486709 -5.65054e-20)
(0.464597 0.00179043 -7.88982e-20)
(0.980441 -0.00126499 -5.23205e-21)
(1.00665 -0.000575774 -1.06721e-19)
(1.00716 -0.00361811 -8.6513e-20)
(1.00323 -0.00356684 8.95887e-20)
(1.01059 -0.000597041 -9.73093e-20)
(1.00628 -0.00306986 -4.83956e-20)
(0.9963 -0.00733048 -1.99303e-20)
(1.02536 -0.0385761 1.09731e-19)
(0.996426 -0.00662899 -8.62957e-20)
(1.09872 -0.021091 1.16865e-20)
(0.991661 -0.00663581 9.19747e-20)
(1.01947 0.0680624 2.76814e-20)
(1.01719 0.0697424 -2.08034e-19)
(1.00522 -0.00293491 7.41229e-20)
(1.1404 0.00428265 2.23533e-19)
(1.00343 -0.00314181 6.80169e-22)
(1.00773 -0.00371588 9.2982e-20)
(0.85338 -0.000474982 -2.12557e-19)
(1.00726 0.0195112 1.03562e-19)
(1.03197 0.008533 -1.52929e-19)
(1.00551 -0.000804196 4.12849e-20)
(1.0072 -0.0033322 1.3452e-20)
(0.992472 -0.00717828 -6.94306e-20)
(1.03855 0.0289232 -6.8839e-20)
(1.00611 -0.00263996 -5.14726e-20)
(1.00909 -0.00139668 4.50364e-20)
(1.00791 -0.000700849 -1.02347e-20)
(1.08724 0.0183248 1.80052e-19)
(1.15191 -0.0376943 1.16043e-19)
(1.02812 0.0796839 1.38116e-19)
(1.00523 -0.00127878 6.69522e-20)
(1.04956 -0.0246214 -2.7322e-19)
(1.0045 -0.00121584 2.74151e-20)
(1.0116 -0.00515242 -1.5908e-19)
(1.00582 0.00184506 5.4924e-21)
(1.00173 -0.0139699 -2.46566e-20)
(1.00469 -0.00299399 2.46171e-20)
(1.01658 -0.012894 1.6174e-20)
(1.15756 0.00525373 -1.90551e-19)
(0.994947 -0.0180357 -1.4012e-19)
(1.0146 -0.0137699 -3.36009e-20)
(1.01293 -0.00339054 -4.75752e-20)
(1.00652 -0.00627437 -7.06066e-20)
(1.02563 -0.0108455 5.40286e-20)
(1.00752 -0.0116229 -7.24838e-20)
(1.05844 0.0121746 -7.67714e-20)
(1.04345 0.0313208 8.27108e-20)
(1.11774 -0.0870101 -1.92302e-21)
(1.10264 -0.0318046 1.02376e-19)
(0.726841 -0.0088462 8.32579e-20)
(1.0112 -0.00227896 1.1051e-19)
(0.975971 -0.0175657 3.43015e-20)
(0.981613 0.0533341 -3.66129e-19)
(1.08675 -0.0321641 -1.78549e-19)
(1.02361 -0.00455956 -1.60327e-19)
(0.975102 0.0433599 -1.73587e-19)
(0.998819 -0.00106532 -3.29645e-20)
(1.0054 -0.00313662 2.04421e-20)
(1.11464 -0.0235088 1.02006e-19)
(1.00696 -0.00316592 4.32799e-20)
(1.01771 -0.0251395 -3.45773e-20)
(1.01196 -0.00222946 3.51507e-20)
(1.00382 -0.00403116 3.34092e-20)
(1.00294 -0.0038518 6.78408e-20)
(1.02363 0.0213596 1.38531e-19)
(1.00517 -0.00118474 1.23631e-20)
(1.00662 -0.000175378 -4.20165e-20)
(1.00542 -0.000277378 3.56967e-20)
(1.0061 -0.00346938 -1.60066e-19)
(1.00561 -0.00690888 -1.07431e-19)
(1.00839 -0.0078474 -2.95287e-21)
(1.00711 0.000237231 -9.91492e-21)
(0.998029 -0.0119699 -5.16569e-20)
(0.981571 0.042195 1.08885e-19)
(1.01605 -0.0146219 -7.25418e-20)
(1.00596 -0.00861031 -1.51738e-19)
(0.99701 0.048937 4.76975e-20)
(1.00242 0.0377497 2.12004e-19)
(1.05047 0.00182637 -7.31063e-20)
(1.13373 0.00883917 -8.48238e-20)
(0.757299 0.00302016 -1.1738e-19)
(1.01139 -0.00245276 -5.77667e-20)
(1.00809 0.0332501 -1.05603e-20)
(1.00202 -0.00397501 1.34679e-19)
(1.03181 0.0647674 5.75818e-21)
(1.01564 -0.0307721 -4.31753e-21)
(1.03287 -0.0708695 4.86069e-20)
(1.05906 0.0573717 9.7642e-20)
(1.03297 0.0682421 -1.34839e-19)
(0.98921 -0.0167 -1.66388e-19)
(1.03539 0.00751108 -1.07809e-19)
(1.06528 0.0896305 2.08605e-19)
(1.04071 0.0662337 2.11136e-19)
(1.02029 -0.00101323 8.20702e-20)
(1.00648 -0.00361947 -3.75098e-20)
(1.00616 -0.00342622 -2.62329e-20)
(1.00246 0.00223574 1.40727e-20)
(1.01989 -0.0167357 5.03342e-20)
(0.998858 -0.0041404 -3.26831e-20)
(1.00737 -0.00299403 -5.65691e-20)
(1.00382 -0.00545999 2.13342e-20)
(1.00508 -0.00235192 -2.80805e-20)
(0.998045 -0.0479687 9.33653e-20)
(1.07729 0.0266276 6.61129e-20)
(0.999736 -0.00588057 1.286e-19)
(1.00756 -0.00868396 -1.73461e-19)
(1.00945 -0.00233895 7.75071e-20)
(1.04963 -0.025402 9.8034e-21)
(1.00361 -0.00317903 1.54387e-19)
(1.00981 -0.00477114 1.12163e-19)
(1.07495 0.0876036 3.3e-20)
(1.00176 -0.00400922 1.68019e-19)
(1.00481 -0.0010447 2.27502e-20)
(1.00543 -0.00113751 8.57173e-21)
(1.00523 -0.000994194 5.61105e-20)
(0.997669 -0.00675131 -4.9094e-20)
(1.02275 0.0173985 -1.73912e-19)
(1.00567 -0.000188437 -2.57253e-21)
(1.02162 -0.0047378 1.09189e-19)
(1.02338 -0.0824343 -7.19919e-20)
(1.00782 0.0546831 -5.40936e-21)
(1.01102 -0.00584662 6.03462e-20)
(1.0138 -0.00255401 -1.06337e-20)
(1.0056 -0.00335887 7.64357e-20)
(1.006 0.0495872 -2.76649e-19)
(1.00329 0.00454158 -3.64174e-20)
(1.03011 0.0819411 -7.17184e-20)
(1.00971 0.0137156 -1.78027e-19)
(1.00458 -0.00194514 -2.53606e-20)
(1.01443 -0.0315935 9.75991e-20)
(1.00679 -0.00424836 7.76034e-20)
(1.0059 -0.0375974 -1.92814e-19)
(1.00647 0.000150349 4.03452e-20)
(1.04615 0.00490828 9.88764e-20)
(1.01357 -0.0101748 -3.45372e-21)
(1.01248 -0.00186093 1.73053e-20)
(1.00696 -0.000606134 8.67228e-20)
(1.05418 0.0291736 8.96668e-20)
(1.035 0.0287212 2.60073e-20)
(1.01626 -0.0402027 -1.10465e-19)
(0.998489 -0.0135781 9.26192e-21)
(1.00753 -0.00381504 6.11052e-20)
(1.01047 -0.0239732 2.24251e-19)
(1.1033 0.039346 -1.36786e-19)
(0.959828 0.0355885 -1.51299e-19)
(1.06283 -0.048314 8.1687e-20)
(1.01183 -0.0055084 -3.32344e-20)
(1.00379 -0.000299973 1.21475e-21)
(1.00181 -0.00540279 1.25253e-19)
(1.0045 -0.00562157 -1.33991e-19)
(1.02643 -0.00903642 8.90531e-20)
(1.01406 -0.0658705 3.87546e-20)
(1.13849 -0.00506004 -8.42742e-20)
(1.0038 0.0546424 -3.20622e-19)
(1.04164 0.0262766 1.23699e-19)
(1.08504 -0.0685853 -8.38286e-20)
(1.05351 0.0575482 3.76863e-20)
(1.00475 0.0466358 3.43467e-19)
(1.02108 -0.00253765 9.26082e-20)
(1.00781 -0.00195043 1.24371e-19)
(1.02139 0.0407439 7.59164e-20)
(1.00685 -0.00286477 -9.18244e-20)
(1.00515 -0.00187829 -2.41711e-20)
(0.962871 -0.00809214 -3.51828e-20)
(1.00644 -0.000608195 8.63799e-21)
(1.08898 -0.0822966 -3.00618e-20)
(1.01181 -0.0116703 8.1361e-20)
(1.00157 -0.021837 -1.35179e-19)
(1.0082 -0.00153586 3.9951e-20)
(1.04937 0.0505051 2.07205e-19)
(1.002 -0.00132607 1.41178e-20)
(1.00479 -0.00115449 1.83524e-22)
(1.02854 -0.0737757 -5.01843e-20)
(1.0083 -0.000701329 -2.45986e-20)
(1.07766 0.000935692 -1.92604e-20)
(0.983358 -0.0105009 -2.80058e-20)
(0.970578 -0.0102773 -9.37612e-21)
(1.14537 0.0407555 -1.60336e-20)
(1.02054 0.0135171 -6.44105e-20)
(1.01851 0.00367867 4.41057e-20)
(1.01701 0.00343894 -2.06379e-20)
(1.00424 -0.00871829 -7.57698e-21)
(1.08279 0.0264699 5.25106e-20)
(1.05918 0.0137631 9.26094e-20)
(1.00726 -0.00200944 -3.45602e-20)
(1.00017 -0.00617347 -1.48867e-19)
(1.00726 -0.000102672 -4.47267e-20)
(1.0164 -0.0117186 -1.90441e-19)
(1.0167 -0.0172503 3.55223e-20)
(1.01179 -0.00135713 -1.02695e-21)
(1.00636 -0.00254426 1.12539e-19)
(1.08651 0.0659697 -2.24392e-19)
(1.00449 -0.00164247 2.52863e-20)
(1.00621 5.50422e-05 -2.53794e-20)
(1.00976 -0.000713956 -6.30894e-22)
(0.984824 -0.00556532 -7.93211e-20)
(1.01978 -0.00592454 1.08039e-19)
(1.00077 -0.0184813 1.9992e-19)
(0.990123 -0.0041544 3.96794e-20)
(1.02062 -0.038732 -7.34118e-20)
(1.03532 -0.0888741 7.94578e-20)
(1.0265 -0.0171202 6.54333e-20)
(1.02672 0.0406998 -4.37798e-19)
(1.15105 0.0102656 1.14834e-19)
(1.0046 -0.00366207 9.79904e-21)
(0.974868 0.0537641 2.63873e-19)
(0.996603 -0.0350402 -1.81159e-19)
(1.00599 -0.007686 -3.22872e-20)
(0.986101 0.00195286 -6.82855e-20)
(1.00828 -0.012141 1.50839e-20)
(0.963538 0.00068267 -1.29536e-19)
(1.0032 -0.00468002 4.50298e-20)
(1.02436 -0.00868196 -1.21804e-19)
(1.09216 -0.0340637 3.90947e-20)
(1.00482 -0.00107689 2.26409e-21)
(1.02166 -0.00705416 -8.83512e-21)
(1.00196 -0.00155882 1.37662e-20)
(1.01636 0.0606217 6.89288e-20)
(1.1032 0.0576227 2.08473e-19)
(1.00619 -0.00302575 -2.63401e-20)
(0.983783 -0.00525223 1.56989e-19)
(1.00155 -0.00329744 4.51358e-20)
(1.00237 0.0458886 2.18611e-19)
(1.02592 0.0667341 1.71194e-19)
(1.08441 0.01945 -9.81914e-20)
(1.09104 0.0843716 -1.78319e-19)
(0.996562 -0.0371851 7.76646e-20)
(0.999481 0.0438334 -3.20442e-19)
(1.00521 -0.00105219 -2.53714e-20)
(1.04098 -0.0138384 2.15083e-19)
(0.892628 -0.00716771 5.28867e-21)
(1.06657 0.0487679 -5.26271e-20)
(0.986654 0.0452489 -2.29856e-19)
(1.10615 0.0345816 2.0872e-19)
(1.03914 0.0235855 2.02106e-20)
(1.00814 -0.0086554 5.24608e-20)
(1.00424 -0.0026184 4.05192e-20)
(1.09212 0.0731407 7.90116e-20)
(1.14257 -0.0216707 -3.50532e-20)
(1.00671 0.0499851 -8.40498e-21)
(1.07139 -0.00136667 2.39319e-19)
(1.02758 0.0355606 1.36346e-19)
(1.00449 -0.00352284 2.86665e-20)
(1.00675 0.0547085 8.81734e-20)
(1.02829 0.0640503 6.4551e-20)
(1.00376 -0.00438403 1.36082e-19)
(1.0042 -0.0040236 6.01527e-20)
(1.10145 0.0679992 5.75421e-21)
(0.964486 -0.0072786 1.43334e-19)
(1.00526 -0.00117937 3.36393e-20)
(1.00214 -0.00557508 -1.63327e-19)
(0.972988 -0.014847 -1.07333e-19)
(1.00455 -0.046786 1.96014e-20)
(1.01379 -0.00233049 -1.6423e-19)
(1.01167 -0.00276773 1.47498e-20)
(1.00626 -0.00145131 4.33979e-20)
(1.02649 0.0703568 -2.54223e-19)
(1.00989 -0.00783582 -1.33864e-20)
(1.00452 -0.00105382 -1.26378e-20)
(1.02467 -0.0360685 -1.31535e-19)
(1.0064 -0.00242198 -2.65166e-20)
(1.00503 -0.00306282 -3.92215e-21)
(1.01131 -0.00798844 -3.6139e-20)
(1.04366 0.0490511 2.6555e-19)
(1.0234 -0.0652787 -7.50601e-20)
(0.993586 0.0471683 1.41331e-19)
(1.00547 -0.000520702 -2.76316e-20)
(1.04539 0.0527358 -2.81489e-19)
(1.01956 -0.0307705 -1.0201e-19)
(1.00555 -0.00143725 8.87265e-21)
(1.00501 0.000167993 -1.35507e-20)
(1.00335 0.00891425 -3.04536e-20)
(1.03978 0.0438875 1.00678e-19)
(1.00633 -0.00345751 -2.81397e-20)
(1.0372 0.0346219 -1.42345e-19)
(1.00486 -0.000171756 1.00064e-20)
(1.03793 0.0381283 -1.92585e-19)
(1.10633 -0.0866844 -8.31289e-20)
(1.00349 -0.00435895 -1.47196e-19)
(1.00011 0.0400187 -4.34592e-19)
(0.996856 -0.0293619 -1.36682e-19)
(1.09408 0.0804923 1.82931e-19)
(0.992313 -0.00634165 -4.11873e-20)
(1.0403 0.0398703 2.47163e-19)
(1.04343 0.045685 -7.26598e-20)
(1.00066 -0.00698375 -2.23731e-19)
(0.998074 -0.0078505 1.3329e-19)
(1.00663 -0.00715327 -1.23626e-19)
(1.00654 -0.00438014 3.04665e-20)
(1.00527 -0.00185835 -5.43742e-20)
(1.00979 -0.00775903 2.20789e-20)
(1.03426 0.0612858 -3.29119e-20)
(1.00481 -0.00112219 -5.91441e-21)
(1.03379 0.0338972 1.87185e-19)
(1.03233 -0.0655918 -1.29789e-19)
(1.01116 0.0391917 8.61281e-20)
(1.03359 0.03119 -2.18499e-19)
(0.971209 -0.0136908 1.39512e-20)
(0.994348 0.0516212 -3.02872e-19)
(1.00588 -0.00300682 7.52662e-23)
(1.01949 -0.0155263 7.53145e-20)
(1.04433 -0.0465938 -4.77371e-20)
(0.968474 -0.0032612 8.3551e-21)
(1.00498 -0.0039971 -8.9468e-20)
(1.01823 -0.0323383 8.10458e-20)
(1.04213 -0.00887884 -1.90957e-20)
(0.978747 0.0406896 3.41729e-19)
(1.00462 -0.00059728 3.78989e-20)
(1.00593 -0.00333411 -4.70505e-20)
(1.02412 -0.0462967 2.39371e-22)
(1.00538 -0.000234337 2.16397e-21)
(1.01525 0.0640312 3.33866e-20)
(1.00775 -0.000564418 0)
(1.00485 0.000475628 1.89515e-21)
(1.00537 -0.00016462 6.25794e-20)
(1.00714 0.000144672 7.71441e-22)
(1.00192 -0.0132604 -1.67497e-19)
(1.02005 -0.00918692 -6.15428e-20)
(1.00573 -0.00292116 -9.15501e-20)
(1.00699 0.00776307 -2.87579e-20)
(1.00471 -0.0038739 -4.67784e-20)
(1.01033 -0.00796714 -3.98474e-20)
(1.007 -0.0696311 9.6619e-20)
(0.883896 -0.00533298 -1.14559e-20)
(1.01912 -0.00535595 1.66902e-19)
(0.992747 -0.000287515 -1.02958e-20)
(1.07429 -0.0975399 -1.02036e-19)
(1.00224 -0.00494253 6.82976e-20)
(1.09189 0.0606555 -1.58205e-20)
(1.00081 0.0310507 -7.03508e-20)
(1.00746 -0.00282209 3.65443e-20)
(1.08407 0.0529726 -2.3224e-19)
(1.00535 -0.000367715 -1.18256e-21)
(1.00248 -0.00497431 -1.29629e-21)
(1.01964 0.00106178 -1.21687e-19)
(1.00504 -0.00423991 3.61815e-20)
(1.04481 0.0571311 -1.65556e-20)
(1.00256 -0.00612925 1.26426e-19)
(1.04054 -0.014705 -1.66777e-19)
(1.02151 0.0042098 -1.23371e-19)
(1.04506 0.0294742 -4.85908e-20)
(1.0135 -0.00959652 -1.04392e-19)
(1.00348 -0.0048774 -3.61235e-21)
(1.05729 0.0504149 1.40989e-19)
(1.00015 -0.0515378 9.8833e-20)
(1.01048 0.0625939 2.70347e-19)
(1.00407 -0.00506371 1.67915e-19)
(1.04518 0.0741855 9.32236e-22)
(1.00405 -0.00479774 -4.48384e-20)
(1.00577 -0.00143458 7.91484e-21)
(1.03765 0.023752 5.92192e-20)
(1.0191 -0.0184068 -5.60555e-20)
(1.02743 0.00541606 1.777e-19)
(1.00695 -0.00086125 2.72692e-20)
(1.00494 0.000348661 8.67766e-22)
(1.01484 -0.0803068 -3.57136e-20)
(1.07364 0.0827833 -2.057e-19)
(1.0078 -0.00288281 -3.2844e-20)
(1.08986 0.0542075 2.58333e-20)
(1.00282 -0.00588859 8.98178e-20)
(1.06858 -0.101275 3.51065e-20)
(1.03813 -0.0228945 2.53561e-20)
(1.00073 -0.0196161 -1.08371e-19)
(1.00579 -0.00297015 3.68076e-20)
(0.993882 -0.00390941 3.53672e-20)
(0.996506 -0.0440409 6.75282e-20)
(0.994087 -0.00730339 -1.5068e-19)
(1.00375 -0.00468657 -1.12691e-19)
(1.006 -0.00165499 -4.18388e-20)
(1.00724 0.0650385 -2.95149e-20)
(1.08178 0.0474296 1.47399e-19)
(1.02382 -0.00547573 -3.92449e-20)
(1.00501 -0.00191342 -3.64804e-20)
(1.02733 0.0611081 -1.21553e-19)
(1.00471 -0.000503171 1.05108e-20)
(1.00493 -0.00178782 -7.50378e-20)
(1.0756 0.0464112 1.25256e-19)
(1.01672 -0.0149572 1.03464e-19)
(1.08106 0.0762347 1.88784e-19)
(1.02117 -0.00290066 6.8651e-20)
(1.01927 -0.00756266 -2.06565e-20)
(1.06955 -0.038935 -7.31538e-20)
(1.04527 -0.0820819 -9.76541e-20)
(1.145 0.0351487 -7.65765e-20)
(1.00778 -0.000927296 -7.29119e-20)
(0.984459 -0.0112561 9.96659e-21)
(1.00492 -0.000806943 7.5009e-21)
(1.01177 -0.008534 2.58948e-20)
(1.04636 0.0575667 9.61067e-20)
(1.00103 -0.00669629 -1.66412e-19)
(1.00631 -0.00370437 -4.78592e-20)
(1.01963 -0.0240233 1.11402e-19)
(1.00576 -0.00358402 -2.43602e-21)
(1.00662 -0.0019393 -6.25266e-20)
(0.719288 0.0115495 5.9818e-20)
(1.00391 -0.00530158 8.78375e-20)
(1.00593 -0.00259745 1.14591e-19)
(0.883061 -0.000968416 4.96401e-22)
(1.0149 0.00477824 1.86347e-19)
(0.995304 -0.0170004 2.04036e-20)
(1.00614 -0.0019283 -5.27237e-20)
(1.00614 -0.00421405 -6.29284e-20)
(1.01956 0.0160655 6.82159e-20)
(1.05064 0.00999485 1.71772e-20)
(0.989142 -0.0153916 1.05283e-19)
(1.00451 -0.000465275 1.15866e-20)
(1.00236 0.0144974 4.20132e-19)
(1.00236 -0.0121878 1.20938e-19)
(1.04969 0.0464159 -2.1497e-19)
(1.01563 -0.00129948 -1.79418e-19)
(1.01661 -0.00051163 3.64746e-19)
(0.99309 -0.0086444 -1.95041e-19)
(1.00454 -0.000959666 8.94085e-21)
(1.02034 9.66717e-06 -1.5389e-20)
(1.05257 0.00814915 -3.19089e-20)
(1.12726 0.0398261 1.58992e-19)
(1.03635 -0.0621465 -4.13938e-20)
(1.0321 0.0584761 1.03948e-19)
(1.01289 -0.000981138 -4.29212e-21)
(1.06151 0.0538078 -1.93476e-19)
(1.00901 -0.00996125 6.7172e-20)
(1.02214 -0.0347795 2.00064e-19)
(1.00554 -0.00230963 4.05128e-20)
(1.01157 -0.0118731 -1.6502e-19)
(1.00597 -0.00156688 -3.72444e-20)
(1.03399 0.0243257 -1.61267e-19)
(1.05433 0.0804266 -3.19837e-19)
(1.00606 -0.00285799 -2.82891e-20)
(1.01943 -0.00664966 1.33731e-20)
(1.00026 -0.00515029 -5.45473e-20)
(1.03908 -0.0538962 -2.44965e-20)
(1.03542 -0.0572877 6.5017e-20)
(1.005 -0.00388528 -4.94287e-20)
(1.03695 -0.0135847 -8.56011e-20)
(0.408447 0.00401409 -1.02073e-19)
(1.1243 0.0252321 1.42037e-19)
(1.00537 -0.00108547 -6.46669e-20)
(1.04706 0.00852037 -6.83425e-20)
(1.00723 -0.0068072 9.43173e-20)
(0.825362 -0.00632717 3.31742e-19)
(1.00283 -0.00551943 -1.21597e-19)
(1.00784 -0.0169681 4.43084e-20)
(1.02091 -0.0211786 -4.72715e-21)
(1.00692 -0.0170776 1.61224e-21)
(1.00857 -0.0136568 1.70556e-19)
(1.00445 -0.00411317 -2.90822e-20)
(1.00873 -0.0101945 -1.45413e-19)
(1.00955 -0.00481786 -3.39027e-20)
(1.04346 -0.0122979 3.84811e-20)
(1.00493 -0.000834514 -5.97105e-20)
(1.13583 -0.0644265 5.02768e-20)
(1.1116 -0.00256725 5.95572e-20)
(1.02156 0.0685023 1.98359e-19)
(0.990178 -0.0146379 -1.65212e-19)
(1.07541 0.0722455 -9.45395e-20)
(1.00823 -0.000670304 8.21535e-20)
(1.05465 -0.0455581 -3.38449e-21)
(1.01367 -0.0234213 1.00429e-19)
(1.01792 0.0273432 1.63401e-19)
(1.00492 -0.00448682 -8.24217e-20)
(1.00576 -0.000859097 4.45672e-20)
(1.00275 -0.0123689 -1.67583e-19)
(1.00675 -0.00725363 4.83173e-20)
(1.03452 -0.0141611 1.41329e-19)
(0.995412 -0.0058451 1.32399e-19)
(0.997509 -0.00741838 -4.43478e-20)
(1.09108 -0.0199037 4.62085e-20)
(1.00155 -0.0054031 1.03908e-19)
(1.01939 -0.0224821 -9.34963e-20)
(1.00524 -0.0495922 -8.22758e-20)
(1.00482 -0.000911999 1.87778e-21)
(1.04282 -0.0066195 1.66051e-19)
(1.00654 -0.0447564 2.49707e-19)
(1.08083 0.0628919 1.04456e-19)
(1.06987 -0.0442324 1.19707e-19)
(1.02581 0.00471827 1.81177e-20)
(1.02783 -0.0631649 1.73279e-19)
(1.03242 0.0744664 5.92358e-20)
(1.03129 -0.0205303 1.27504e-19)
(0.992289 -0.0080741 1.15836e-19)
(1.01963 -0.0285163 1.44657e-19)
(0.677932 0.00110173 1.16563e-19)
(1.10919 -0.0647266 -4.80441e-20)
(1.00247 -0.00538733 3.76074e-20)
(1.02869 -0.0795603 1.01972e-20)
(1.02738 -0.039964 -1.22433e-19)
(1.03803 -0.0734271 6.40153e-21)
(1.03747 -0.0497986 9.92055e-20)
(1.0571 0.0463286 1.84405e-19)
(1.00636 -0.00362495 -2.36065e-21)
(1.00553 0.0322265 5.73783e-20)
(1.01312 -0.00101156 3.85861e-20)
(1.00631 -0.00178413 6.52199e-20)
(1.00717 -0.00294425 -2.06364e-19)
(1.04402 0.00476174 -3.46998e-20)
(0.243523 0.0104607 2.42247e-21)
(1.00945 -0.00477231 4.87044e-20)
(1.02208 -0.0321448 -2.6163e-20)
(1.01913 0.0171512 -1.11398e-19)
(1.00494 -0.000322114 -1.95051e-21)
(0.998637 -0.00753797 -1.13542e-19)
(1.02153 -0.00489572 1.08112e-19)
(1.05674 -0.0232344 1.6521e-19)
(1.0129 -0.00088057 2.02314e-19)
(1.00727 -0.00308974 -2.85838e-20)
(1.00144 -0.024707 5.60526e-22)
(1.00769 -0.00664189 4.89545e-20)
(1.0045 0.000393441 2.27142e-20)
(0.99813 -0.0288683 2.33859e-19)
(1.03812 0.0555085 -4.12963e-20)
(1.02178 -0.0185988 -1.85565e-20)
(1.00073 -0.00541936 1.01174e-19)
(1.00873 -5.91268e-06 -3.09837e-20)
(1.02201 0.0201632 1.48105e-19)
(1.00656 -0.00201342 2.57735e-20)
(1.00579 -0.0021052 5.92655e-21)
(1.00554 -0.00229366 4.09868e-20)
(1.00703 -0.0027831 8.29384e-20)
(1.11727 0.0405115 1.09319e-19)
(1.02721 -0.0225808 3.04353e-19)
(1.01449 -0.011629 7.23215e-20)
(1.00013 -0.00674389 4.56119e-20)
(1.00524 -0.00038988 2.27347e-20)
(1.05764 -0.0784963 -1.38693e-19)
(1.14528 -0.0110571 2.88013e-21)
(1.06119 -0.0853994 6.30245e-20)
(1.00884 -0.0207777 6.80989e-20)
(1.01606 -0.00516909 1.64215e-19)
(1.00475 -0.00231633 -2.6206e-20)
(1.00321 -0.0087461 7.47591e-20)
(0.987232 -0.0295489 1.0493e-19)
(1.11583 0.0273943 -3.46636e-23)
(1.00888 0.0402215 -4.07526e-21)
(1.00718 -0.0036752 -4.87875e-20)
(0.979391 -0.0210995 -5.30989e-20)
(1.00592 -0.00358774 1.11107e-19)
(1.02982 -0.019339 -5.00841e-20)
(1.06523 0.0440245 2.18014e-20)
(1.00744 -0.000437253 -8.06346e-20)
(1.00581 -0.00184196 1.73942e-20)
(1.10004 0.0722905 2.50977e-20)
(1.11133 0.013887 -3.31187e-20)
(1.02197 -0.0098462 5.57641e-20)
(1.00641 -0.00360593 -8.02053e-20)
(1.00443 -0.00464966 1.03233e-20)
(0.99128 -0.0300438 -2.64617e-20)
(1.00576 -0.0018561 5.26229e-20)
(1.02049 -0.020002 1.73586e-19)
(0.980159 -0.00347044 -2.36528e-19)
(1.00079 0.0305824 -5.70004e-20)
(1.04087 0.0570051 -2.00408e-20)
(1.05119 -0.0418592 -7.17525e-20)
(1.00883 -0.0448249 -8.80274e-20)
(1.01085 -0.00154803 1.24527e-19)
(1.01799 -0.0147933 -1.5309e-19)
(1.10615 0.00235615 1.62535e-19)
(1.00847 -0.0498826 4.99895e-20)
(1.02136 -0.0271036 -8.82512e-20)
(1.00431 -0.000323883 -2.21894e-21)
(1.09674 -0.00802788 1.39361e-19)
(0.962248 -0.00726941 -1.28644e-20)
(1.00806 -0.0557821 -9.08472e-20)
(1.0212 -0.0174161 -2.40058e-19)
(0.985693 -0.0105783 1.98007e-20)
(1.00565 -0.00244253 2.07108e-20)
(1.00647 -0.00373211 3.76282e-20)
(1.0306 0.0299531 1.67089e-19)
(0.99394 -0.00826115 4.5986e-20)
(1.00271 -0.00226407 -2.76722e-21)
(1.00596 -0.00476228 8.45512e-20)
(1.10824 -0.0549236 1.78713e-19)
(1.00397 -0.00127673 -7.72895e-20)
(1.02375 -0.0303999 3.57295e-20)
(1.00518 -0.00101785 3.16566e-21)
(1.01251 -0.00894421 1.07477e-20)
(1.007 -0.0666341 -4.48491e-20)
(1.04684 -0.0424618 5.37351e-20)
(1.00524 -0.000931725 2.63097e-20)
(1.0048 0.000454671 -1.35967e-20)
(1.01796 0.00171238 5.35556e-21)
(1.01787 -0.0424377 -1.89985e-20)
(1.00125 0.035147 -4.45584e-21)
(1.04587 0.0702267 2.43017e-21)