/*--------------------------------*- C++ -*----------------------------------*\
  =========                 |
  \\      /  F ield         | OpenFOAM: The Open Source CFD Toolbox
   \\    /   O peration     | Website:  https://openfoam.org
    \\  /    A nd           | Version:  7
     \\/     M anipulation  |
\*---------------------------------------------------------------------------*/
FoamFile
{
    version     2.0;
    format      ascii;
    class       surfaceScalarField;
    location    "32";
    object      phi;
}
// * * * * * * * * * * * * * * * * * * * * * * * * * * * * * * * * * * * * * //

dimensions      [0 3 -1 0 0 0 0];

internalField   nonuniform List<scalar> 
11512
(
153.892
-515.153
361.261
-769.461
-17.1093
786.57
437.129
-397.263
-39.8661
667.988
261.437
-929.425
1564.4
-1108.25
-456.148
1165.32
-1433.87
268.551
-45.1442
504.475
-459.331
168.221
-856.52
688.299
991.29
-1664.37
673.076
-1786.85
1699.17
87.6853
-568.943
1734.26
-1179.45
2000.68
-821.225
600.058
169.686
-769.743
-22.6569
-1350.21
1372.86
228.954
-2015.81
1061.06
-393.679
-667.383
-180.815
334.707
472.454
170.34
-642.794
1197.4
-1358.49
161.091
-320.214
392.283
-72.0689
1040.78
-1346.58
305.798
1263.08
826.716
-2089.8
70.622
-1683.68
1613.06
-523.47
-1142.87
1666.34
450.416
152.214
-602.63
-197.662
-317.491
514.601
1049.8
1689.97
-1846.22
156.246
-112.666
-1683.98
1796.65
-1612.8
670.956
941.84
-315.567
677.059
-361.492
-93.7192
-90.3283
184.048
1318.53
-1247.91
370.418
-1456.26
1085.84
-979.505
979.505
94.9578
1568.04
-1663
-1112.86
-499.936
682.995
-728.139
-396.135
974.964
-578.829
1179.92
-1173.71
-6.2114
-1139.65
743.512
652.197
408.865
-401.259
-43.7328
444.992
-441.925
791.868
-349.943
-849.794
849.794
1161.37
-1282.86
121.496
-505.244
1768.33
1301.38
-326.417
1709.65
-1189.87
-519.781
84.1866
-404.401
2134.94
-1172.8
-962.143
1857.17
-167.205
407.954
121.374
-529.328
-464.562
1002.15
-537.587
-1198.58
1293.54
-587.74
1005.43
-417.694
418.407
778.99
642.26
-474.04
-452.297
617.591
-165.294
1232.45
-862.029
2380.79
-1115.28
-1265.5
1203.29
-2076.47
873.178
-1642.29
1619.63
456.152
-1635.6
-601.223
1081.59
-480.362
-697.442
381.875
1716.53
-725.245
-1140.61
-897.626
2038.23
689.382
-379.743
-309.639
713.996
587.385
-266.923
1428.29
121.459
-332.263
210.804
-280.274
730.69
-272.225
434.685
-162.46
-325.593
798.047
-328.4
-155.312
483.712
343.154
93.9747
1493.65
-452.865
-1004.94
508.519
496.416
290.602
92.0447
-382.647
949.066
-349.008
-1751.47
604.236
1147.23
34.514
-881.523
847.009
-271.126
581.093
-309.967
162.686
-1132.53
969.847
806.9
-818.239
11.339
383.56
535.439
-918.999
-232.973
640.927
-1141.36
-500.091
1641.45
-444.462
674.172
-229.71
1348.31
-1460.98
-648.756
298.464
350.292
-489.13
-1023.73
1512.86
-560.193
-818.776
1378.97
578.978
-983.948
404.969
-109.97
-183.12
293.09
423.974
-302.515
-1071.75
607.184
989.24
-826.555
-89.2436
702.203
-612.959
-175.679
362.111
-186.432
-632.949
-371.986
-396.262
975.241
1112.89
-1112.89
-466.305
-182.451
-943.135
1582.24
-639.102
316.141
-713.262
397.121
-955.422
367.682
-966.194
-1090.63
-1537.69
365.988
1171.7
-270.87
938.858
-315.167
636.146
-320.979
-1999.21
1033.02
-1167.29
-370.397
586.176
-1529.31
1785.86
-1784.15
-1.71562
228.164
-629.183
401.019
-1486.18
976.255
509.925
301.595
219.357
-520.951
282.737
-554.962
165.303
-267.109
101.806
2038.7
-846.984
-1191.72
-568.289
167.03
641.617
859.078
-1500.69
-141.963
307.266
447.331
907.155
-1354.49
-942.987
410.793
532.194
-1078.94
1497.35
-762.101
160.878
781.659
-104.6
558.867
-277.431
-281.436
1030.78
-522.256
617.045
-1453.56
836.516
-1389.78
248.424
-510.79
239.665
-1209.3
938.427
2017.72
-1146.47
-871.247
248.493
864.401
-2163.13
923.004
1240.13
187.15
-13.8481
-173.302
-155.537
303.019
-147.482
-118.666
-390.785
509.451
-483.933
155.533
279.148
-50.0207
366.162
423.258
405.491
-828.749
-2053.46
1142.55
910.913
476.859
-553.433
76.5741
134.881
-201.672
66.7909
964.271
1074.43
1823.03
-254.994
742.471
-444.007
824.738
-1438.91
614.175
360.136
329.246
1080.19
-1045.67
-514.045
-260.534
774.579
494.783
-141.784
-352.999
683.179
-513.494
614.995
-813.838
198.843
523.065
1186.58
-1283.87
723.677
1024.74
-1548.21
1.45384
-1485.81
1484.36
336.144
854.752
-1190.9
606.268
239.645
-845.913
-2275.76
1179.85
1095.91
-1120.76
-1155
214.93
400.065
992.473
-656.329
619.969
-629.981
10.0118
-2164.14
1023.53
-78.6028
-91.4403
170.043
-44.3514
1830.21
-854.626
85.1653
-1060.44
-1102.7
-162.818
297.7
-686.863
220.559
-282.083
-427.617
709.7
1136.13
-1625.26
807.972
-1422.48
614.505
711.845
-450.408
1905.17
-1382.1
-316.895
-662.61
74.7106
429.764
-552.731
535.621
5.51944
-584.154
578.634
592.211
-290.617
-562.05
269.938
292.112
808.546
-385.288
15.5429
171.607
1227.02
-1225.56
187.144
236.831
396.856
-678.939
639.031
-1035.29
-2091.99
2091.99
-267.573
-452.913
720.486
718.52
398.71
-1117.23
599.853
181.807
409.007
399.539
-2267.72
1370.09
-958.256
-702.3
1660.56
-478.054
-731.243
-258.659
558.602
-299.943
878.019
-232.541
-645.478
-443.876
672.04
391.57
-706.737
-359.88
-150.171
510.051
-1355.7
-490.512
667.798
-1145.85
-303.587
-546.207
870.944
1509.85
209.101
-374.846
165.745
1001.36
-349.165
1440.41
-823.361
462.924
-275.781
-343.134
-914.198
602.74
311.458
-363.975
-550.224
318.105
-436.771
-184.333
-117.652
301.984
-405.402
1123.92
376.833
-206.493
-317.642
1391.03
-186.959
-1204.07
-488.47
285.382
203.088
233.046
257.801
-490.847
2.24089
-816.079
613.169
-1785.95
1172.78
1531.27
-889.655
-1048.18
-438
-1095.79
593.569
502.223
1407.07
-430.818
960.913
-1461
-166.738
-216.294
383.032
-472.959
603.628
-1682.57
405.444
774.475
290.068
299.605
-589.673
450.739
528.766
1144.34
-742.946
-401.395
383.779
-203.949
-179.83
-1456.79
460.692
764.549
-1225.24
1524.92
-564.007
-486.537
946.25
-459.713
443.327
1220.68
-1664.01
16.5989
-461.061
-149.512
440.115
69.9618
-163.681
533.172
497.604
-638.687
52.2161
586.471
922.332
-1122.38
200.051
686.209
-277.202
486.698
-1496.96
1010.26
422.461
1743.31
-540.015
821.973
1195.75
-687.531
-1742.53
784.273
592.404
399.633
-992.037
467.328
82.9669
1807.61
-1890.57
1320.28
-380.332
-939.947
1755.37
-1799.72
-381.795
-531.694
746.976
-215.282
-511.536
192.176
302.607
-377.679
-1238.82
215.094
-793.879
-659.682
-597.921
1061.9
-463.981
-386.688
381.488
5.20068
504.168
-648.271
144.103
-228.194
66.4829
161.711
-671.841
-709.372
359.501
349.871
-961.883
1448.58
-422.201
913.317
-491.116
-2273.83
6.10859
190.569
-558.308
367.739
156.59
1234.44
-109.598
-577.266
167.848
-620.145
1538.46
-730.485
389.322
-483.383
94.0606
-108.314
108.314
541.442
308.353
1838.34
-1272.51
609.878
662.635
715.718
-32.5387
1335.59
799.354
-559.395
1384.13
279.313
301.78
293.796
-825.49
259.805
-701.729
200.804
-369.03
168.227
-252.726
607.497
-354.771
128.838
-381.563
-612.709
-584.919
1197.63
-366.624
547.023
-180.4
-1169.8
2039.53
-869.727
1335.82
-343.346
-144.093
34.1229
-1988.01
845.134
1561.7
-850.015
-711.682
2051.83
-906.812
-1145.02
738.617
597.202
-219.205
420.009
-675.415
1166.76
-491.341
-797.016
1244.35
570.508
956.194
-1783.97
827.774
-545.244
-87.8586
633.103
309.345
249.522
429.028
-104.436
-324.592
660.418
-63.2147
-597.204
940.1
-563.436
-376.663
1627.25
-491.118
916.676
-1681.38
764.701
1086.67
818.496
777.267
-462.51
-314.756
-918.172
-255.536
572.798
605.105
-1177.9
-453.33
516.654
-63.3235
599.069
-359.783
-239.286
-1016.2
593.996
618.612
912.66
-416.234
920.403
1452.79
-790.52
-662.273
414.967
-959.951
544.984
-1053.42
420.469
579.832
-1066.37
479.63
-537.674
58.0438
493.786
298.082
-91.1472
-17.1669
-822.574
-906.163
1728.74
187.88
195.899
-237.727
452.657
-46.9
-556.298
603.198
495.682
901.476
-1397.16
-482.654
298.321
692.965
-32.5463
866.471
-1102.72
236.253
392.528
875.815
-1435.21
-456.604
862.094
2044.01
-1326.32
-717.694
214.833
405.136
217.638
589.262
111.975
-997.062
885.087
1729.05
-1122.37
-606.682
-143.88
1951.49
-1926.63
-165.356
416.637
-517.979
101.342
-1052
544.673
507.332
-1620.87
451.069
-913.898
824.654
404.78
212.81
434.026
-224.926
-443.399
738.507
262.855
46.2242
807.881
-854.105
-1153.02
-879.238
2032.25
-537.339
1127.27
-589.927
-476.221
-99.813
21.2102
-1710.38
887.802
-823.924
-651.128
1475.05
-248.416
-253.723
502.139
369.028
-672.656
303.629
242.311
-627.599
321.805
221.36
-543.165
361.162
-619.821
640.926
-271.899
323.23
-478.542
680.175
415.672
-182.626
-402.241
-307.131
1251.51
-10.083
-1241.42
1073.51
-434.478
579.448
425.986
-1767.9
832.125
935.776
516.443
558.726
-1075.17
-371.781
123.364
-271.688
1221.38
-949.687
-1500.07
1183.17
518.334
-1131.04
402.545
-13.2228
426.849
319.483
-746.332
371.284
-604.257
-28.8915
780.744
-751.852
-411.092
650.737
387.369
289.614
426.104
678.57
93.6733
-409.08
315.407
875.887
-503.938
-371.949
513.409
-1718.68
1205.27
-1175.8
1811.28
-635.476
1772.29
-1159.12
-330.137
600.075
-1183.53
1295.5
263.08
-828.465
1648.75
-820.286
-260.293
-228.177
-960.681
1520.3
1873.12
-633.078
-1240.04
-419.983
776.938
-1374.86
-59.8983
-44.5803
473.608
-705.149
-359.386
-1140.68
-234.722
477.033
821.606
-583.113
192.329
-1730.34
-74.304
1804.65
-1091.67
554.333
593.15
-1222.06
628.913
932.579
940.538
585.997
495.589
707.913
238.336
-1162.89
487.471
-420.736
426.256
644.707
-533.897
262.061
-762.751
500.69
702.405
-342.269
-220.892
130.564
-618.026
230.53
387.496
-920.657
-760.72
1119.01
-2209.64
406.619
-686.894
-299.741
-518.498
864.791
588.003
-362.845
319.112
364.572
266.701
680.234
-946.935
525.464
641.292
-553.675
193.795
364.473
-632.046
-1128.75
-808.28
1937.03
-1846.97
163.285
1145.31
-1417
1190.18
-718.51
-471.671
-521.597
1397.41
-1545.75
651.914
893.838
-131.871
-126.103
257.974
1474.68
577.144
342.282
-492.453
-506.005
-581.884
1087.89
-431.754
622.323
1636.51
-1167.1
-469.41
-797.552
344.639
509.171
366.717
-1676.5
433.559
1242.94
-208.19
529.994
825.502
811.013
216.843
-706.26
489.417
184.901
177.21
-202.63
-82.6758
285.306
496.487
-7.93256
-488.554
-1662.94
614.761
-1622.25
1699.72
-77.4695
18.9595
-1641.21
1016.69
778.453
-351.604
-823.01
-230.408
-1175.59
-246.884
-315.451
686.735
-1874.22
-642.716
1247.82
213.957
788.193
-1374.66
-701.812
-482.629
621.439
-331.371
-1042.48
1394.74
-1997.21
602.467
668.239
1332.44
304.201
-1.1818
745.661
718.478
-1464.14
-663.879
352.309
311.571
286.684
-69.7239
-216.96
162.822
303.766
175.226
-478.992
-592.812
1185.22
458.939
-633.73
-468.154
-414.708
882.861
-340.346
173.608
-477.066
174.551
-318.147
-733.858
345.58
-58.8962
-587.726
1002.69
294.663
-154.586
-140.077
468.094
-793.688
-671.608
446.886
-1163.09
-852.434
1218.42
-584.726
471.489
303.09
-460.331
80.5883
1055.98
-161.043
342.955
-181.911
-519.396
1536.09
-787.199
251.824
387.473
-639.297
233.209
490.41
-28.4312
-461.978
-263.236
-213.83
853.527
1142.95
586.101
-894.114
973.353
-79.239
-175.721
43.8502
-748.425
320.808
-636.447
320.507
381.898
858.551
-1260.99
402.438
806.474
-835.365
-963.331
-571.839
1535.17
-169.977
469.582
-554.132
276.701
1381.17
796.408
-579.565
1347.72
-679.924
480.912
-693.98
-420.832
-427.025
-386.017
813.042
518.403
-867.411
-463.087
98.0884
364.999
-216.478
594.167
744.608
-337.989
-203.718
-155.214
358.932
-511.111
152.462
358.648
1505.55
81.8794
-1587.43
-773.417
1392.03
-1184.72
-479.646
561.78
-174.307
1189.96
-383.49
1115.89
511.359
720.822
-427.026
-913.301
-542.96
-1343.66
-32.1465
1019.88
-987.734
605.407
349.505
-954.912
-334.441
-233.848
-769.854
418.633
1673.35
-192.145
375.216
368.346
-743.561
-1901.05
-2172.78
1566.13
606.656
-2041.08
357.102
385.587
540.422
-926.009
-477.316
1056.76
-420.813
-674.057
1094.87
-2094.25
1433.94
660.313
601.886
-1022.7
63.1772
416.453
371.022
208.536
254.389
320.433
987.473
889.927
701.454
-336.87
-364.584
-301.054
635.306
-334.252
596.367
547.974
561.834
473.248
-1035.08
-820.703
-725.05
780.411
409.552
-423.65
727.278
-1228.35
1661.91
448.679
-1122.74
-337.182
558.542
-1422.14
930.077
492.06
-714.207
-286.394
-863.629
384.669
478.96
463.07
744.143
-1207.21
1106.34
-589.896
-410.691
685.036
-274.345
152.166
142.496
-484.383
-448.341
932.725
-252.384
562.555
-979.337
416.782
-430.437
619.693
-1734.98
438.396
695.342
-1133.74
544.542
91.6042
117.231
-2281.37
568.871
-97.3811
1493.74
1832.02
-223.495
-1608.53
-453.136
1847.87
-2054.01
1234.36
819.647
420.833
356.434
-27.1193
891.91
-1329.54
744.621
-899.091
-853.364
821.218
322.372
58.5411
-380.914
78.6042
87.6846
-166.289
1600.12
-854.456
-820.939
-291.956
498.16
-206.251
-291.909
388.759
341.932
259.196
362.243
-7.7906
1035.39
-1027.6
377.99
292.472
-670.461
-757.78
1876.43
-1118.65
-346.868
735.626
-1246.1
-416.891
-950.004
501.662
594.428
-803.365
208.937
789.24
-395.314
-393.926
-427.82
-466.294
453.063
1105.3
1278.95
-685.803
824.087
-355.992
387.263
333.223
-261.799
-221.584
-228.319
650.779
421.599
-879.142
457.543
225.64
363.244
-588.884
-438.07
859.669
781.824
-1187.23
902.227
-43.6762
-513.021
297.743
782.442
-98.7123
1431.15
1949.26
-70.8621
356.244
-323.303
416.976
-1122.41
1114.62
637.186
388.302
400.938
63.659
434.501
282.475
504.095
-383.215
-280.664
-320.598
-66.091
-370.494
382.102
-11.6077
-245.821
-264.969
1043.46
-1593.44
549.978
-201.446
-195.817
-387.531
680.003
-1680.9
1644.06
-992.142
278.095
-698.927
604.317
1261.46
-1865.78
630.911
1013.15
322.169
-1158.65
715.255
-289.826
-299.847
1407.75
-1490.3
845.85
644.446
422.246
-648.035
225.789
-376.602
497.886
-121.284
376.872
119.614
1782.91
422.385
-237.484
578.451
-1760.23
1181.78
-92.9802
402.283
350.682
350.772
-463.851
-636.6
1100.45
439.493
-896.097
-664.328
933.282
591.638
-115.724
-112.47
-455.9
-423.242
-320.048
-855.545
1072.05
-1072.05
-96.5741
-1613.65
1710.23
302.264
296.805
-946.714
-576.677
1523.39
-414.003
975.837
-626.879
-1036.06
691.715
414.691
-1106.41
490.766
-167.536
592.343
1257.24
-1849.58
-1047.02
2114.13
-1067.11
-386.02
-311.422
-493.766
838.404
-1805.09
1651.04
154.053
1805.09
-1652.96
-152.128
-237.994
512.068
-274.075
-557.604
1673.49
1597.16
-2014.05
1112.18
-287.515
-269.241
556.756
253.7
-590.882
-727.1
303.45
1386.91
657.106
596.384
504.628
-1101.01
296.14
424.682
901.493
515.432
-1416.92
548.15
-1054.15
1628.5
-585.045
-773.518
-373.228
-126.272
499.5
-507.713
1251.86
-771.819
318.656
322.271
372.06
270.171
-642.23
625.76
859.822
-623.568
284.546
688.808
-115.724
-322.702
-244.744
567.446
1204.6
-676.981
633.813
480.716
-1114.53
-973.896
973.896
-397.74
786.042
-299.085
-489.769
788.854
498.932
468.371
-967.303
401.131
-700.216
636.976
-899.755
262.779
-380.688
-515.268
1111.65
-686.392
-732.849
1419.24
-398.133
960.688
-1603.61
696.8
52.6053
-436.723
384.117
-509.911
730.47
268.862
338.634
177.315
313.451
-531.072
241.247
1932.92
-2031.63
286.351
-730.227
460.194
-852.018
391.824
-901.445
1442.62
-541.175
-445.768
-504.236
622.076
1160.23
-1782.31
-741.986
355.967
-475.541
1071.91
-791.967
1076.51
-315.298
-631.191
-489.757
749.562
429.106
-276.893
938.425
-313.006
-198.105
1649.6
-1873.09
-369.559
-609.777
-345.346
497.808
273.605
-604.976
-195.78
1090.23
-792.485
224.101
-300.7
-289.881
590.581
415.378
-908.001
492.622
-457.199
-460.403
-374.846
-346.95
598.23
-251.28
-468.483
-433.919
-338.535
-204.63
-395.883
666.053
-450.262
783.485
-1110.12
646.273
-1408.98
585.06
-28.2619
-1895.79
1924.05
591.743
-465.363
1250.12
-695.786
42.6729
-42.6729
692.577
-447.421
1035.35
-1662.23
-1194.49
-978.291
303.164
332.142
905.77
742.981
-499.464
-322.765
822.229
1712.16
-1740.43
-449.673
364.095
228.116
1175.65
-541.835
-973.105
1599.44
-626.333
462.302
-253.767
383.218
405.968
-789.186
542.01
495.502
-1037.51
-326.348
645.004
-39.3024
1972.22
1621.53
1025.2
-1755.69
752.607
-1219.73
467.118
-511.778
1413.27
866.904
-1388.5
-570.268
282.753
820.908
-421.276
576.235
-1229.07
652.839
-652.321
-1253.28
-718.963
1972.25
-214.534
571.812
-357.278
-189.56
304.35
-518.884
336.775
388.492
-725.266
-1529.59
785.032
744.558
909.947
-1481.79
856.755
-445.962
228.642
-378.154
-603.26
280.558
-710.885
-711.253
723.74
523.668
-1247.41
397.175
-207.235
-189.939
575.768
-993.461
-576.658
-428.98
749.787
-858.648
-1195.36
-1487.16
518.708
968.454
6.49444
-649.118
358.879
290.24
-1352.01
1082.35
269.659
-637.951
-472.173
-645.302
862.94
417.347
-212.23
-205.118
528.067
1011.95
-1540.02
1010.38
-293.835
101.502
192.333
-420.147
698.574
-412.223
-528.25
182.904
242.429
-1568.75
554.869
551.47
-772.176
262.265
163.656
-476.662
389.293
-849.695
2013.25
-1231
-782.246
415.266
-692.615
277.348
145.608
335.503
129.084
-464.587
-579.666
184.568
237.817
-717.765
1421.35
-703.586
436.909
496.18
-1210.39
266.247
1930.87
-1048.72
-882.144
688.081
-548.974
202.025
1415.3
-974.153
-441.142
352.99
-800.412
-639.124
1782.07
636.731
642.222
334.712
-12.34
287.882
-1173.58
1782.39
-608.816
-1819.34
846.235
1785.1
-1710.31
-74.7874
-684.431
263.694
585.141
-735.096
245.339
1451.83
-584.926
409.615
452.479
-1919.91
1466.78
567.603
-429.39
-138.213
223.263
-561.798
-280.42
-195.802
-360.387
711.069
-595.472
222.244
623.034
576.237
-1199.27
1149.86
-2013.07
863.218
176.934
333.117
-1757.44
1718.14
333.993
-761.02
-169.975
398.616
773.06
705.73
-1478.79
1099.44
-1109.53
550.998
-1140.89
-654.329
265.229
389.1
538.036
-307.506
-639.482
-1022.75
313.541
-747.46
-940.266
195.21
168.676
228.499
395.698
312.076
-707.775
-645.827
-862.834
-1011.39
514.772
-1094.44
-296.146
499.234
558.368
660.054
-116.705
-27.3878
-412.527
734.696
289.153
-1239.07
593.247
1350.25
-577.192
467.65
-1044.31
-175.601
176.441
391.162
1056.07
572.435
-1730.26
1633.68
1655.37
-604.555
-1050.81
1966.84
-1954.59
-12.2467
215.662
-538.965
-352.002
576.102
-779.423
-329.26
-355.171
1015.88
728.169
-1536.16
807.987
348.744
-26.0108
1675.61
-1113.01
436.028
-1268.56
495.045
-61.3303
1566.88
1241.19
-488.582
-269.311
-24.5234
-286.463
760.744
-2014.03
-733.303
361.057
-555.428
194.371
58.3943
-219.438
1177.09
694.079
-1871.17
-626.993
197.603
972.552
-1549.23
-207.043
626.159
-419.115
883.262
1116.74
-758.444
1395.17
620.86
-489.531
-131.329
-364.599
1210.45
1064.54
-1981.22
916.684
-1210.73
568.011
1540.56
-607.28
-384.721
-168.954
-1282.84
597.035
1202.24
-55.0059
978.671
802.028
-1780.7
-222.056
600.268
-1594.85
994.583
506.43
945.47
-1451.9
635.078
612.742
397.696
-1140.23
348.949
1144.58
492.052
-270.262
-221.79
-1223.31
-1812.7
-2.17947
-1728.08
-224.362
-423.673
1661.38
-646.378
-1015.01
-497.486
1083.48
-1361.58
661.038
700.544
-1406.44
1488.32
-1374.64
616.199
1572.82
-405.136
-591.086
206.365
-1506
238.686
176.471
241.022
379.838
433.469
422.404
-855.873
527.105
-968.89
931.353
-1495.36
-718.865
252.657
466.208
-1076.48
483.669
-484.94
894.555
722.256
32.0512
-547.361
190.083
-913.577
-1360.25
-741.3
364.892
376.408
421.743
-750.138
328.395
-385.022
-152.307
-477.673
740.727
1591.94
-613.27
834.344
765.773
1360.91
-845.477
-1003.14
-591.708
-828.032
442.622
385.41
-1072.43
-662.811
317.021
345.79
-1377.45
-243.422
-820.416
414.391
406.025
-671.741
404.386
267.355
-701.194
288.971
427.996
504.728
401.65
458.019
491.003
391.859
611.554
-989.234
693.031
492.185
440.654
329.871
-770.525
1684.21
-1112.62
-571.59
-524.028
-287.448
-1064.56
465.761
347.281
423.739
613.981
-1037.72
-1426.86
780.483
-556.238
1185.15
371.19
-67.4242
426.904
-898.337
471.432
-1906.83
293.174
422.463
-675.542
253.079
-192.578
420.758
-228.181
-687.301
322.108
365.193
-698.662
334.079
380.176
405.867
632.363
-1046.37
780.423
683.441
-1463.86
452.609
647.841
304.52
308.653
-613.173
413.512
322.114
603.529
676.942
428.354
599.995
-1050.55
450.558
-1707.28
1175.83
531.443
1748.85
-562.267
644.269
-1188.35
544.083
-574.402
320.68
453.854
-970.097
516.242
769.614
-450.13
354.174
356.895
575.624
-945.184
673.391
-1298.11
624.717
396.161
760.856
-1268.57
796.607
527.971
-1324.58
491.008
429.362
-920.37
-521.115
-966.046
-316.522
653.296
351.588
546.971
-898.558
332.719
312.285
-520.409
2004.76
430.414
-815
384.586
-948.877
-835.092
-777.294
383.368
-1254.06
462.091
-1782.92
1652.96
129.955
1801.76
-1651.04
-150.719
-811.892
-605.024
275.613
329.411
-1785.1
2014.05
557.88
819.146
-1377.03
456.087
741.542
709.156
388.922
-1098.08
-55.7484
1671.72
-615.655
408.549
841.571
-541.446
290.345
251.101
-390.528
-212.976
365.142
-232.803
452.16
255.212
-571.261
316.049
270.853
-580.82
-295.838
458.448
-1070.06
611.608
558.189
1126.02
365.784
609.457
207.703
174.342
-382.045
1661.01
-932.843
1749.27
-1572.27
-176.999
-334.171
-854.599
431.357
864.127
-1071.17
-625.621
291.369
-1123.59
1681.78
-1612.41
-69.0208
1681.43
-350.007
-359.647
-381.642
554.596
621.052
-521.382
-32.0504
-515.188
506.609
-284.212
-222.397
1782.22
-1329.16
-628.931
306.531
322.399
419.689
366.542
757.38
-296.789
-412.402
-1801.76
1740.43
475.242
-1139.6
664.363
-39.3863
1673.07
579.743
459.338
-1039.08
73.6432
1182.98
-1503.02
-4.72686
-1902.1
232.535
-558.498
276.64
281.858
-892.474
592.733
-932.458
486.69
-1168.54
697.604
470.934
388.142
287.038
-786.502
-315.41
1260.78
916.489
724.962
-1224.73
476.753
747.975
511.872
725.873
-1237.74
-363.729
-253.641
422.316
-996.124
454.862
541.262
21.6343
-1941.55
1118.85
-481.872
-506.804
578.149
-1426.66
848.513
-435.416
827.24
-419.479
506.968
-1026.1
1879.63
412.539
-184.04
149.615
-173.114
-250.19
423.304
1954.54
-520.598
-1731.93
1084.97
-465.663
252.688
-1050.53
573.211
-314.573
565.435
934.368
-1499.8
-1089.03
443.723
-20.853
-2010.78
1717.69
-653.149
-494.326
478.183
-1233.8
755.612
197.205
220.142
-219.175
793.823
726.482
832.513
705.416
-375.545
1123.08
-513.428
476.267
-191.6
-284.667
-1988.33
-669.298
-303.286
-360.447
-1.6279
362.074
450.354
-265.786
586.844
1074.17
-823.86
958.583
1288.83
-440.208
-204.906
-257.499
462.405
952.984
-910.494
-344.481
-1105.53
633.362
1605.65
-820.621
558.369
965.022
-401.129
762.712
-361.583
1165.24
-232.47
327.094
1397.3
-728.915
-231.036
467.347
-1243.36
776.014
-984.692
-163.993
1148.69
458.538
-990.923
532.385
193.264
207.981
284.071
800.217
-119.983
884.924
-440.794
1151.76
-762.841
572.711
-1516.52
943.813
-1253.22
1857.54
-441.965
-1557.25
908.06
-1451.02
-326.668
-419.664
1508.13
-1574.6
813.877
1540.86
205.126
271.141
-364.594
-1782.92
-311.039
-1024.03
1610.87
-1809.5
1809.5
1597.16
-1040.76
-658.932
-347.578
361.311
614.526
-368.56
-372.524
-1437.38
925.6
1159.9
622.499
1191.2
1845.16
-1252.81
-626.331
258.754
1713.83
-1980.11
266.283
842.071
-1311.48
1596.72
-583.572
811.32
315.946
-342.731
574.591
822.822
632.845
1399.41
-232.228
-461.025
-367.619
360.413
-239.039
489.174
762.683
-305.825
-158.762
-335.12
588.57
-253.45
26.6536
-386.437
1142.24
-1777.71
-462.839
-496.705
-587.504
895.077
710.576
-1651.28
933.514
-468.435
-634.49
-531.69
1296.24
354.505
1780.51
-1758.88
-1712.16
1954.59
-1597.67
863.472
734.198
-372.533
-1855.58
949.419
603.841
847.989
-416.992
1854.63
-704.774
-413.297
684.002
457.756
-1141.76
-1138.12
461.536
779.653
-1670.22
491.908
929.442
172.09
-382.845
210.755
-1617.24
-398.564
-430.35
1015.77
-689.591
1492.74
-971.76
1855.02
239.426
-548.944
504.508
-299.381
492.297
920.973
563.898
1008.92
-479.881
-442.263
595.263
912.864
-1340.48
-36.9695
1620.63
-854.859
540.486
1000.37
-1527.17
-1091.99
1789.33
-1241.62
-547.707
1249.69
-331.803
-917.889
-187.56
449.018
-261.458
-468.144
-252.598
433.279
-180.682
152.404
-406.045
1749.7
-1751.88
-466.418
-552.447
-929.339
425.043
-194.209
-230.834
458.804
-457.748
-358.911
-327.547
686.458
-979.345
429.122
-1187.59
690.1
411.516
-648.273
-449.005
1621.33
-878.348
549.9
-474.759
-590.604
-479.452
47.8879
-45.5083
-2.37958
-1131.19
435.403
-688.417
-1067.21
1755.63
-608.831
-1472.39
739.544
582.949
-1650
1067.05
-389.061
-485.736
168.301
539.612
-1302.71
771.023
560.303
1036.42
-2197.25
1021.31
1175.94
-366.588
60.295
-53.9388
-6.35626
1528.92
-389.54
466.16
1149.83
603.661
936.902
588.145
546.074
-1134.22
172.126
-447.479
-1710.31
273.758
1153.47
-626.122
538.421
1045.97
-1584.39
1126.17
-1697.76
178.083
724.144
557.876
-902.357
-1105.37
-117.083
312.004
-194.921
-531.163
-435.384
-658.649
-440.697
221.521
-1674.17
971.871
-493.332
207.389
-391.429
544.66
-312.125
-614.947
1239.56
-1308.63
930.747
377.881
-1028.24
-370.427
-777.607
-846.995
1742.07
-493.926
1798.67
-1592.62
-206.056
-1608.35
1049.77
558.588
-745.383
-146.304
268.491
-122.187
-602.253
396.196
287.54
-683.736
-542.696
1016.78
652.916
-361.547
-1664.83
1080.11
593.031
1137.3
-1730.33
-418.621
-307.219
-380.083
-765.824
-473.526
-340.842
518.157
1610.51
-1027.57
-802.434
1548.68
686.614
-322.519
750.412
1184.09
-1934.5
293.257
321.092
-504.175
-1997.33
1778.29
219.041
767.529
-490.713
-276.816
552.218
1093.16
-1645.37
47.8879
-1732.8
-240.83
1806.96
-1630.01
1108.99
521.015
-1738.39
5.58389
-540.141
60.295
1757.44
-1778.29
971.414
646.662
-1618.08
240.635
-146.923
-93.712
-413.75
-287.444
60.2862
39.9714
-186.276
-450.484
-449.271
-423.915
231.337
1556.26
394.147
-235.798
-435.943
405.184
-167.367
337.261
1560.67
1103.37
-230.399
-872.969
-1139.41
1761.49
-1787.07
1098.66
-732.066
-1055.01
-1302.18
1902.3
-600.12
1191.87
-1829.61
637.742
151.408
-907.761
1731.1
45.0452
-1776.15
-510.142
-1115.12
-1749.7
-1013.82
571.559
1050.53
611.911
1167.74
-1779.65
296.195
-470.502
730.882
-396.803
378.836
956.278
704.279
-404.57
-645.984
604.609
1105.41
-1710.02
-410.689
-386.548
797.237
443.768
-1718.14
1572.27
145.864
606.462
-1082
564.198
1117.58
-1607.79
1024.22
-249.549
246.712
329.39
1966.84
429.275
-91.1475
1020.99
743.687
-1764.67
-720.108
1118
-1609.12
170.706
-587.837
180.898
224.286
-665.101
-588.957
604.033
1067.69
-710.834
-287.026
-1416.87
700.331
716.537
-380.641
819.584
112.047
-931.631
581.699
-141.968
1608.75
-226.71
275.752
-794.113
-1997.33
1719.2
1012.54
66.4829
318.624
450.989
-962.715
-1025.61
-1822.59
661.425
1749.21
531.123
-491.81
1254.49
1122.56
-436.492
1051.02
-1014.58
513.514
501.062
724.427
1082.93
-1807.36
506.096
496.596
-1544.59
-774.543
31.5976
810.495
-427.127
-916.231
409.427
-557.626
-830.876
165.745
-597.889
1446.4
1090.09
152.039
159.965
-571.94
1673.19
-797.88
1578.3
-1784.21
596.365
1187.84
566.652
-915.817
-1790.81
1980.11
-189.308
1771.4
183.232
-562.116
133.563
-93.5919
-499.493
1255.1
586.289
1162.56
-496.292
453.485
890.572
-481.706
-802.915
438.321
364.594
1466.98
1125.44
-538.405
1471.92
-479.666
-422.703
902.369
-624.919
520.133
-1238.64
1749.27
1895.19
-711.105
1640.09
-668.68
-1285.57
742.878
-583.358
118.342
-209.782
362.289
-185.079
-538.6
-1284.57
1929.47
-644.907
1215.04
-570.771
1152.72
-1714.99
1743.02
-595.606
-563.634
-570.087
1775.36
-328.915
-713.956
-492.826
1268.84
-1738.14
-1918.56
633.996
350.153
-995.631
171.821
220.296
-1774.11
1239.66
534.443
1198.21
573.192
-528.859
-486.293
1234.27
184.132
236.626
607.646
1287.55
-557.421
-1275.29
1832.71
-1059.72
1057.62
873.246
-210.444
-1713.83
1758.88
-530.045
1459.49
-1790.81
-383.597
11.3653
372.231
-277.452
608.302
-330.851
97.7739
504.967
810.643
-388.901
1293.66
1292.46
-428.328
884.654
-453.297
1877.02
-685.155
1638.54
-1780.51
-426.52
-763.233
300.83
462.403
-578.972
-584.513
55.9155
-974.087
-1018.56
-693.068
1711.63
-968.659
-1228.59
154.197
-423.438
-671.399
729.107
1204.37
672.651
1459.65
-611.657
1672.96
1364.28
-593.26
-504.146
204.765
-523.266
1444.24
1283.86
-583.526
-942.503
926.931
53.9306
-980.862
561.934
-525.95
1451.55
1546.89
-609.984
-48.3434
48.3434
-611.02
1678.07
1284.9
-505.248
1161.42
-55.21
1851.86
-359.163
1541.3
-609.946
-527.672
1391.14
-676.9
1261.73
-584.83
1608.07
-613.484
762.075
601.335
-1363.41
-655.254
299.451
496.957
621.536
-2017.38
-1014.35
1638.54
48.3448
-48.3448
-76.5424
405.263
451.491
397.906
-21.0333
-279.236
920.795
-524.634
-439.972
845.236
-254.946
644.046
-417.153
1559.7
-461.806
-881.857
175.456
200.344
-375.8
621.749
1287.1
-1908.85
961.977
-475.287
-45.5083
130.12
-2005.16
1875.03
-469.65
193.87
1218.29
-459.622
-758.671
-321.882
-594.349
-508.066
-53.9388
-467.87
245.472
1199.77
-578.72
237.537
-396.049
158.512
-6.05086
-90.9016
662.61
-571.708
14.0121
-334.61
-608.104
-69.4373
69.4373
-1240.31
1984
-1231.59
-231.563
-1826.38
233.762
-1056.01
-1004.31
-190.695
-1693.67
730.957
1267.69
-1986.65
386.145
321.153
-707.298
-1907.79
1271.81
635.98
-110.018
110.018
-990.041
-9.14222
-1926.63
-578.984
1705
-701.574
1691.19
-623.504
-193.082
-1709.02
-604.954
-444.608
-616.466
-76.1724
76.1724
-1585.97
201.508
1384.46
145.354
172.059
-317.414
587.727
515.641
1033.47
-492.211
1805.85
796.772
-172.116
165.76
538.14
1758.6
-616.362
-573.606
1691.19
439.653
1871.76
-667.387
-1865.11
-1996.28
-669.381
-80.5221
80.5221
-612.154
244.535
-695.161
1056.07
-482.854
-1107.99
-295.1
864.401
1909.3
1687.74
-1687.74
-281.164
766.873
1817.86
615.664
1313.81
118.537
122.098
615.533
585.175
861.167
-861.167
230.086
-363.993
-447.924
376.326
986.322
-472.808
-662.804
-1165.56
1761.93
293.269
-1674.83
638.765
-292.131
475.362
1801.34
-613.498
-148.767
-429.89
399.213
745.367
1795.41
-635.512
-531.168
-772.384
2020.32
-897.599
-1122.72
1697.3
-579.585
1261.2
-1882.95
621.743
360.556
-909.5
-172.74
-21.2088
1136.97
-503.613
130.484
648.638
-1671.39
459.139
630.175
-1865.11
-604.108
1843.77
914.666
-1198.37
1817.33
-618.962
1840.35
-596.161
-1244.19
461.566
932.89
-1751.88
954.332
-1473.62
229.133
1244.49
-861.173
-1292.13
-145.365
33.9893
111.376
602.972
282.499
1059.27
-463.635
878.054
-414.418
850.204
762.695
-1612.9
665.474
1102.85
-3.34771
-406.948
410.295
-1803.39
748.379
717.752
85.3238
-1157.15
1997.55
-696.685
-1300.86
-557.971
1720.53
851.634
995.989
-1847.62
1265.9
706.349
-415.665
737.773
844.997
1065.78
-607.242
1817.86
648.48
1830.13
-1221.23
-608.902
-377.515
-344.189
721.704
97.9054
-1037.85
1714.36
-561.639
-696.451
696.451
1287.11
615.194
1394.25
216.265
-565.453
291.81
-199.766
722.742
1149.02
500.695
-316.563
-900.065
-595.295
1746.29
-1746.29
515.934
-515.934
1018.24
1056.94
-2075.19
1896.07
-634.864
-601.909
845.243
-976.676
-1084.82
1031.93
714.568
-1746.5
-91.1472
-373.405
-649.294
-834.032
2105.85
-1284.26
-634.305
1033.45
1004.78
1329.64
667.906
340.354
1043.65
234.989
347.008
528.766
1812.68
-1812.68
672.096
22.1602
-162.237
-1028.04
-563.07
1724.49
989.155
1010.84
-1891.18
-233.048
-371.906
628.772
-355.014
1909.36