/*--------------------------------*- C++ -*----------------------------------*\
  =========                 |
  \\      /  F ield         | OpenFOAM: The Open Source CFD Toolbox
   \\    /   O peration     | Website:  https://openfoam.org
    \\  /    A nd           | Version:  7
     \\/     M anipulation  |
\*---------------------------------------------------------------------------*/
FoamFile
{
    version     2.0;
    format      ascii;
    class       volScalarField;
    location    "32";
    object      p;
}
// * * * * * * * * * * * * * * * * * * * * * * * * * * * * * * * * * * * * * //

dimensions      [0 2 -2 0 0 0 0];

internalField   nonuniform List<scalar> 
30084
(
0.0143527
0.169286
-0.014522
-0.0579087
-0.00412983
-0.0612828
-0.0276971
0.0136698
0.00328806
0.000264605
0.00864562
-0.00774263
-0.000867587
-6.34298e-05
0.189701
-0.00992761
-0.000361708
0.0760871
-0.00365788
-0.017156
-0.0015001
0.0030871
-0.0147506
-0.0035984
0.585634
0.16827
-0.000929304
0.497123
0.182471
-0.00279434
0.0259504
0.0801687
-0.0954073
-0.0111007
0.503689
-0.012552
0.191838
-0.0441087
0.00936585
0.00899207
0.000675025
-0.0277906
-0.000328263
-0.0345373
3.21094e-05
-0.00253055
-0.00700937
8.57956e-05
0.0054188
0.187268
-0.0368616
-0.0508067
0.08277
-0.0590527
-0.00972211
0.174055
-0.00580601
-0.00154552
-0.00786747
-0.0295663
-0.00013726
-0.00355707
0.0612954
-0.0110713
0.292236
0.555436
-0.0132614
-0.0139901
0.53086
0.000708741
0.166656
0.421378
0.00369504
0.550843
-0.0128327
0.0169541
0.190112
-0.0389858
-0.00010679
-0.0256911
-0.0543271
0.223499
0.0143718
-2.56774e-05
-0.0244617
-0.135871
0.3149
-0.000900712
-0.000839051
-0.0795569
-0.0374716
-0.0395248
0.00497439
0.080353
-0.0823314
0.321356
-0.0496154
0.00073109
-0.0663256
0.217664
-0.000111922
-0.0369533
-0.00013307
0.0574712
-0.0519497
0.143926
0.365713
-0.000808319
-4.15357e-05
-0.0931904
-0.0950286
0.0167509
1.95758e-06
-0.00262655
-0.000336736
0.411903
0.242431
-0.0185854
7.7951e-06
0.00435667
-0.0240303
0.180058
-0.00692933
0.552332
0.0017742
0.0176051
0.0818998
-0.0246415
0.00663295
-2.81729e-05
-0.0321872
0.182559
0.407642
-0.0315993
0.0567802
0.0252168
0.346166
-0.0377281
-0.162556
0.210953
0.0264309
-0.0685078
-0.0706183
1.44043e-06
-6.33476e-06
-0.00421993
-0.0065838
-0.072803
-0.113952
0.108721
0.0423208
0.0206173
0.00065378
-0.000273493
0.234334
0.000768762
-0.0127462
0.330561
0.277476
-0.0325631
-0.0520571
-0.0565743
0.179927
-0.000113084
-6.87536e-06
-0.0187287
-0.0677754
3.95963e-05
-2.85381e-05
-0.0114229
-6.39556e-06
0.00926753
0.334867
-0.0369242
-0.0777876
-0.00825112
0.00336723
-0.0384954
-0.00214952
0.00406732
-4.05205e-05
-0.00720198
0.312571
-0.0129837
-0.161985
0.235866
-0.0102878
-0.0284215
0.00624078
-0.00276932
-0.000515706
0.00293319
0.561424
0.230744
-0.0218406
-0.0122121
0.474357
0.209266
-0.0815903
0.00185457
-0.0509272
-0.0801404
-0.00744934
0.001331
0.34435
-0.0109727
0.0112381
-0.0720504
-0.0948072
-7.56428e-05
0.445572
-0.00177528
-2.75738e-05
-0.000968597
-0.0355374
0.0837326
-0.00533388
0.0109454
-0.00357159
-0.0824473
-5.14727e-06
0.000670827
-0.00385177
0.118312
-0.00474182
-0.0024964
0.0805828
0.000151775
2.95031e-05
0.00859073
-0.0445405
-0.0340042
-0.00771876
0.164928
-0.0233209
0.0217428
-6.61238e-05
-0.00497714
0.00123882
-0.0468266
-0.156495
-0.00234169
0.000702237
-0.00259696
0.00458768
-0.0166149
-0.000108301
-0.123629
1.83924e-05
0.120118
-0.00560687
0.000182089
0.145988
-0.0794342
0.000369571
-8.87148e-06
-0.0685919
-0.147316
-0.0142425
-0.0264923
0.0421622
0.301158
9.19513e-05
-0.0421048
-0.0120164
0.485779
-0.0130077
0.232395
0.022291
-0.000489026
0.665221
-0.000963983
-0.0828741
-0.0815315
0.00362357
0.0502513
-0.0133037
0.411597
-0.00574335
-0.0281771
-0.000532975
0.265361
-0.00492117
0.326976
-0.000903093
-0.00950073
0.472718
0.103619
0.0804444
-0.0502317
-0.000294923
0.00446964
-0.000379778
-2.48603e-05
0.115073
3.94766e-05
-0.0306558
-0.0148188
0.592197
0.40416
-0.0698114
-0.0304605
-0.0323186
0.015216
0.00423127
-0.0288896
-0.0746747
0.307244
0.424488
-0.00218033
0.360075
0.111908
-0.00390399
0.0182721
-0.00307008
-0.0156346
-0.0088131
-0.00440563
-0.000125769
-0.00320533
0.0263555
0.271324
0.00262252
-0.0421556
0.0212367
-8.38545e-05
-0.0722302
0.621693
-0.0103865
-0.00246771
0.0195123
-0.0239988
0.149189
-0.00247162
-8.19666e-05
1.4707e-06
-0.00443909
0.475598
0.0398743
-0.156886
-7.74573e-06
-0.154221
0.0928394
-0.00839445
-0.0753134
-0.00226374
-0.000791826
-0.0391166
0.0014775
0.00866226
0.0173369
0.167318
-0.000401705
0.00330155
0.1787
-0.020176
0.00064003
0.000684094
0.408094
-0.0373468
-0.00267547
0.218459
0.493534
-0.0447795
-0.0122439
0.0886654
-0.00134732
-0.013802
-0.00562015
0.205165
-0.000101975
0.0166848
-0.10183
0.412435
0.542891
-0.00999214
-0.014622
0.300697
-0.0306846
-0.000122286
0.149057
0.124671
0.126733
-0.0121666
0.0417329
0.490269
-0.133898
0.446831
0.417425
-3.76826e-05
0.0265606
-0.126565
-0.00500157
0.00267905
0.497852
0.0401134
0.000433391
-0.055643
-0.0821878
-0.00931509
-0.000255669
0.333735
0.237742
2.3532e-05
0.00687065
0.00910297
-0.0792591
-0.0502252
4.71734e-05
-6.84163e-06
0.000794599
0.154466
-0.0436914
0.330988
-0.0785843
-0.029492
-0.0337922
0.214153
0.0655542
-0.0021177
0.0136215
0.00137383
0.450154
-0.0403656
0.00180252
-0.0124006
0.0339422
-0.00267583
-0.020174
0.000354053
0.000364171
0.629917
-0.0134276
-0.00855377
-0.000879632
-0.00131646
0.287653
-0.102232
-0.0413819
3.86688e-06
-2.2874e-05
-0.0416322
-0.0112737
-0.00875062
0.0287525
0.0104251
-0.00468479
0.0514315
-0.0283975
0.439828
0.00789157
0.000378125
-0.0693284
-0.0388984
0.0642499
-0.00587406
-0.0405013
-3.79688e-05
0.530996
0.0326237
9.43463e-05
0.561487
-0.0428539
-4.04149e-05
0.00243659
-0.0713003
0.0183573
0.0728267
-5.34753e-06
-0.0132346
-0.01304
-0.00904736
-0.000869174
-0.0136645
0.479268
-0.0139055
-0.0195433
0.244414
-0.00481711
0.463909
-4.42311e-05
-0.026937
-0.0771708
-0.0396775
-0.0347024
-0.0027379
0.0023986
-0.000347793
-0.0309507
0.0133849
-7.9396e-05
5.46405e-06
-0.0105663
0.437919
0.0120464
0.00423891
-0.0810619
-6.34124e-06
0.00163572
-0.000140233
0.0157512
-0.0284671
-0.000729369
-0.0136467
-0.0203741
0.00172908
-4.67698e-05
0.00515655
-0.000794486
0.0835958
0.384317
0.305358
-0.00745839
0.0102452
0.0428924
-0.000248089
-0.00619127
-1.41517e-05
0.421185
-0.0226124
0.0283473
-0.0275054
0.00267272
-0.00545736
-0.000232865
6.81981e-06
-0.00827951
0.0759424
0.282018
0.00209832
-0.0626732
-0.0396394
-0.0131912
0.11007
-0.0023496
0.00159763
-0.00946783
-0.000217932
-0.0737864
0.311677
0.221492
-0.0362787
0.304879
9.64729e-05
3.18202e-06
0.148186
0.0590153
0.550052
-0.0691306
-0.0340659
0.0415891
0.0019972
-0.00987962
0.000756088
-0.0175284
-0.0211802
-2.95465e-05
-0.0016124
0.408757
-0.000312612
0.514345
-1.24532e-05
0.028733
0.079071
0.0561959
0.00177197
0.000282396
0.429703
0.0880853
-0.0781995
0.227809
-0.0112337
-0.0214865
-0.00699639
0.280544
-0.0412196
0.0181284
-0.0130758
-5.35655e-06
-0.00232517
0.0100621
-0.0285575
-0.0354793
-0.0665793
-0.028859
0.152548
-0.00376062
-0.080526
-0.0222753
1.67113e-05
-0.0196056
0.0142309
0.155053
-0.0433729
-1.14209e-05
-0.0295752
-0.00102592
0.00238108
-0.133079
0.330162
0.00152113
-0.0193697
-0.0342446
0.105309
0.469591
0.0031018
-0.00832077
0.276114
0.196871
-0.0252932
0.00850659
-0.0728469
-4.93795e-06
-0.06148
0.000110914
-0.0354116
-7.19194e-05
1.41369e-05
-0.0108427
0.0669331
0.383906
0.0153264
0.0198973
-2.86387e-06
-0.0107425
0.00011993
-0.00563414
1.51857e-05
0.0773244
-0.000895907
0.223538
-0.000271104
-0.0206623
-0.0545661
-0.00731884
0.466579
-0.0264598
-0.0786372
-0.00966536
0.0715702
-0.0684167
0.0468356
-0.0312087
-4.86542e-06
-0.00909848
-0.00684797
0.000391354
0.000113845
0.278691
-0.00848673
0.11443
-0.00778441
0.00146433
0.0521132
0.000248106
-4.67274e-05
-0.0604588
-0.00606799
2.08277e-05
0.286921
0.599278
-0.000421837
-0.0526078
4.66287e-06
0.498333
0.0261282
-0.0566203
2.27926e-05
0.0189631
0.0889909
0.103506
0.0715965
-0.000774313
-0.000332418
-0.0249663
-4.19804e-06
1.63355e-06
-0.0419522
-0.0486724
-0.0655439
0.574182
0.00030927
-0.0519318
0.0132684
-4.27706e-05
-0.00226759
6.09377e-06
-0.0104446
4.88921e-05
-0.0284738
0.0453394
0.458481
0.0695434
-0.000544149
0.000747271
-0.0886107
0.112178
-0.0054324
7.53486e-06
0.251034
-0.162802
-0.0677911
-0.0226629
-5.38852e-05
-0.000538227
-0.169418
-0.0352315
0.185888
0.437686
-0.0771761
-0.0022733
-4.24898e-05
-0.0680281
-0.0939716
-0.000407268
0.0040759
-0.0244439
-0.00809191
0.424721
-0.00234106
0.00253644
0.20037
-0.0129827
0.552799
0.552319
-8.21501e-05
-0.000127737
-0.0260246
0.0266624
-0.0511735
0.00914027
-0.0125675
-0.00107054
0.483631
0.218698
0.00389397
0.657718
3.60073e-06
0.141743
-0.0866673
-0.0507997
0.000118034
-0.0529693
0.146698
0.0255099
0.0937146
-0.000846891
-0.00091031
-0.00768047
-0.00601146
-0.022003
-0.00197335
0.168412
-0.0100796
-0.00910005
-0.0815459
0.401333
0.0350423
0.0511677
-0.000761288
-0.000959942
-0.0318896
0.00167699
-0.00452141
-5.15568e-05
-0.00067797
0.147141
0.431413
-0.000263918
0.242619
-3.35821e-05
-0.00581233
-5.27124e-05
0.00936918
-0.00602998
-9.72389e-05
-0.0001004
-0.0806897
-3.3661e-06
0.0735533
-0.0390432
-0.000119403
0.225786
-2.13226e-05
-0.000755628
-0.000190169
-0.00873042
-0.00074913
-0.0104145
-0.101898
-0.000672766
0.00735704
-4.73362e-05
0.378441
0.000182184
0.0339916
-0.0479798
-0.0347916
-0.00210055
0.00503436
0.259173
-0.040332
0.234857
-0.058725
-0.00600343
-7.72375e-06
-0.00975941
0.405921
0.244358
-0.0546426
-0.0724457
0.36614
-0.0140007
-0.0808637
-5.1857e-05
-0.0407034
-0.00150838
0.638599
-0.0715432
-0.000185986
-0.0794506
-0.0410399
0.292821
-0.004467
-0.0430254
-0.00661401
-0.0100927
-0.00227761
0.29191
-0.153752
-0.0300919
-0.0237486
-0.020457
0.00965333
0.360447
-0.028973
0.228705
0.00468001
-0.0306616
0.523267
-0.0142145
-0.000447577
0.294465
0.412458
-0.0059321
0.023295
-0.0112638
-0.047475
0.276338
-0.0677454
-5.74522e-05
-0.0122402
3.68619e-05
-0.00759219
-6.06367e-05
-0.00795681
-0.00172163
-0.00544505
-0.0621959
-0.00109718
-0.000927099
-0.0020017
0.246185
-0.00358337
-0.00555541
-0.00517907
0.209191
0.00891407
-0.000720331
0.403296
0.545243
-0.0299538
0.483158
-0.0264725
0.382382
0.00918688
-0.021118
0.00430464
-0.00083952
1.39778e-05
0.0042587
-0.0185546
-0.0297989
0.223726
-0.0344602
-0.030294
-0.00160989
-0.0493025
-0.0373218
0.0109344
-9.25768e-06
0.0164799
0.165609
0.414053
0.0316001
-0.0203863
0.179444
-0.000664949
0.0565448
-0.0270227
0.000955293
-0.0786577
0.00481813
0.382924
-0.00344126
-0.000946762
-0.00027779
-0.0760161
-0.00216946
0.643336
0.664817
0.0192239
-7.97807e-05
0.0133187
-4.19508e-05
0.0952799
-0.000936997
0.0343864
0.587157
0.0685096
1.50957e-05
-0.0125045
-4.57278e-05
-0.155159
-0.0503917
0.486276
0.000326668
0.0185098
0.00442436
0.000414996
-0.0036436
-0.000532263
-0.0092509
-0.0546417
-0.0342207
0.0102131
0.220931
-0.0198677
0.00985736
-0.0300064
-0.00287823
-0.0401817
8.86009e-06
4.50843e-05
-0.00346436
0.0431489
-0.0460005
-0.0239773
-0.0056334
0.00411305
-0.0300125
0.291609
-0.0187976
-8.16234e-06
-0.0738129
0.450645
-0.0314649
-0.0178655
0.110941
-3.72263e-05
-0.00109978
-0.0418627
-6.61848e-05
-0.00073576
-4.22159e-05
0.658217
0.0134573
0.00543457
-5.65161e-08
1.04252e-06
-3.72742e-05
-3.74942e-06
-0.0327687
0.41385
-0.050279
-0.000803409
-0.000282718
-0.00812248
0.484624
-0.074873
0.443993
0.0389095
0.174045
-0.000245534
0.478981
-0.00336054
-0.0138386
0.0221513
0.0119857
0.0137876
0.224997
-0.0578363
0.472671
0.331362
-0.012057
-0.0406242
0.000521776
-0.0423627
-2.54235e-05
-0.00143578
0.00399377
0.0939318
-0.00961847
-0.0329538
-0.00490153
0.56939
-0.101047
-7.06964e-05
-5.92667e-05
0.492184
-0.00722055
0.00306756
-0.0188982
-0.00333265
-0.0219878
-0.014052
-0.024484
0.126668
0.0442143
-0.0144539
-0.0204775
7.142e-05
-0.00834721
-0.00185134
-0.0114079
-5.70278e-05
4.27484e-05
-0.0272388
-0.0288686
0.468284
-0.0334966
-0.000345681
-0.00226404
-0.000493658
0.400964
-0.0269219
-7.15431e-05
-0.0405342
-0.00649838
-0.00516722
-0.0396008
-0.045267
0.00938
0.0785467
-0.0886207
5.60532e-05
0.00825997
-0.0186414
-2.68439e-05
-0.000114794
0.142745
0.109114
0.0190368
-0.0658905
-0.0733426
0.000683336
0.506529
4.80745e-05
-0.0235771
0.425772
-0.0238607
-0.0508548
2.2866e-06
0.00015889
-0.0506214
-0.0130714
0.00186277
-0.0440676
0.270098
0.315845
0.000892391
0.000286346
0.254689
-0.0174383
-2.72638e-05
-0.00212966
-0.0386787
-0.0301728
-0.0145525
-0.00312866
0.24703
9.64002e-06
0.0966231
0.3178
1.37122e-05
0.0139105
-0.000661617
-0.114983
-0.0186604
-0.000966249
0.0358068
0.000206245
0.264624
0.00185264
0.0285947
0.0262581
0.593202
0.396138
-0.0711844
-0.0095525
2.21857e-06
0.0251723
-0.017313
0.185694
0.3598
-0.0440455
-0.0131875
-0.0205607
-0.00791928
0.171228
-0.000286046
0.476202
0.0312875
4.00459e-05
1.57218e-05
9.53764e-05
-0.0156556
-0.0214964
0.000805911
0.0843477
0.150827
-0.0655018
0.000551345
5.19474e-05
-0.0280828
-6.76955e-05
-0.0034583
-0.0134439
-0.000910729
0.0521354
0.00507324
-0.00166367
-0.00451097
-0.0189366
0.396434
0.406229
0.0449253
-3.4089e-05
-0.0006897
0.283707
-0.000582456
-0.120176
-0.000274556
-0.023381
-0.0958464
-0.000291713
-0.000307555
-0.0385148
0.00153266
-0.000111642
-0.0015948
0.238523
-0.0402636
-7.25223e-05
0.111746
0.382229
0.394911
0.000658768
-0.121351
-0.0107448
0.447657
-0.0779038
-0.0799826
-0.00766154
-0.0147367
0.0330123
-0.0292264
0.394885
0.0992631
-0.000244371
-0.0613727
-0.080206
-0.00443157
-4.22132e-06
-0.00214614
0.240333
-0.0002684
-0.00165947
-0.00463952
-0.00139571
0.0100716
0.032945
-0.000250854
-0.000172312
-0.00822276
-0.112527
-0.040697
-0.0872392
0.273045
-0.00255068
-0.000358213
-0.042044
-0.0271763
0.0108967
0.0150934
2.51179e-05
0.0829633
0.168249
0.0212458
0.0276244
-0.000767753
-0.0150642
0.0418907
0.00142368
-0.000124445
-0.0105351
-0.00457334
-0.00088784
-0.0126814
-0.00101154
0.288018
-0.0102141
-0.159328
-0.0270739
-0.0120801
0.0131122
0.496101
-0.0484818
-0.000182321
0.476622
0.18824
0.00860116
-0.00660702
0.00834286
0.0185593
0.181938
0.000350674
-0.00350898
0.587136
0.319894
0.354738
-0.049927
-0.00162553
-0.00143073
-7.1021e-05
-0.00152018
0.323909
0.094125
-0.00609676
-0.00604386
-0.000464652
-0.0168729
0.559511
0.427159
0.0907412
-0.00322343
-0.0698177
-0.00556467
-0.000866391
-0.0247886
0.0152133
-0.0302862
-0.00399774
0.000928299
-0.106531
-0.113948
0.0338105
-0.0276754
-0.0048755
-0.0286426
-0.000262067
-0.00781718
-0.000824445
0.373559
1.8981e-05
3.04874e-07
-0.032602
-0.0218721
-0.0317297
0.0433927
-9.6208e-06
-0.101578
0.0745767
0.223142
0.628586
-0.00521251
-0.128476
0.0337525
-0.00238418
0.0833453
-0.000718928
0.0115211
-0.000255463
0.290102
-0.0709682
0.0117787
0.151949
0.133109
0.00155042
0.00303242
1.48718e-06
0.44636
-1.21388e-05
-0.0496045
0.000330993
0.00177625
0.206343
0.116054
-0.0875887
-0.0428737
-0.00462386
0.663952
-0.0900707
2.11103e-06
-0.0171735
-8.89816e-05
-0.0181199
0.118457
0.224023
0.000936808
-0.0386546
-0.0104494
0.170015
0.0591415
-0.0356851
0.573152
-0.0109885
4.96644e-05
-0.161452
0.595073
0.0019155
0.105595
-0.0489124
0.169193
0.00203697
0.0369336
-0.0820822
0.0057994
0.0613829
-0.0320016
0.228182
-0.0287453
-0.0213808
-0.000940658
-0.000943835
0.520536
-2.86802e-05
-0.00628448
-5.38352e-05
-0.0089617
0.000349527
-0.00811114
0.282435
-1.08866e-05
-0.00117791
0.12589
-0.163816
-0.0268694
0.00118642
0.433646
-0.06254
0.195342
-0.0130845
0.17775
0.00737366
-0.000881494
-0.0458839
0.000801556
0.532472
-0.0299851
-0.000172777
0.00244487
0.163201
-0.0124178
-0.000827968
-0.000185896
-0.105052
-0.00291571
-0.010891
-0.0864243
4.38042e-07
-0.0757442
0.000380772
0.382298
-0.0113878
0.171044
0.00479414
-0.00414318
0.302394
-0.071239
-0.157008
-0.00487473
-0.115352
0.311148
0.328412
-0.0155229
-3.87768e-05
-0.0170401
0.00503353
-1.59295e-05
0.0739235
0.412335
0.0138286
0.00170651
0.00936673
-0.0770777
-0.000222334
0.0917414
0.0545735
0.0855478
0.0145647
0.0304992
-0.000471843
0.2014
-0.058161
-0.17111
-0.00115871
0.021724
0.167058
0.000845144
-0.079113
0.246615
-0.0481503
-0.0808287
-0.0802685
-0.110117
-0.113383
0.0590709
0.248551
-0.128797
-2.39993e-05
0.000845998
-0.026594
-0.00202677
0.00737459
-2.72935e-05
-0.00637184
0.00432108
-0.000104881
0.0644413
-0.000619542
0.138737
-0.0370607
-0.00714614
-0.00765424
-0.00945517
-0.0777144
-0.00649739
-0.0012316
0.0234966
0.0892555
0.00481649
-0.0364141
-0.00332383
0.032435
-0.0104807
-0.021231
-0.0801459
-0.017521
-6.63025e-05
-0.0167927
0.474188
9.24145e-06
0.156575
-0.0549916
0.562006
0.0544847
-0.051162
-3.73664e-06
0.0018045
-0.103309
-3.2944e-05
-0.00305115
-7.81666e-06
-0.0876873
0.00492274
-0.100799
-0.0253332
-0.00017173
0.305018
0.294746
-0.0395973
0.000462504
-0.000231052
-2.3271e-05
-8.89944e-05
0.508979
-0.00151728
0.00247226
0.0241367
0.00100356
-0.00070845
-0.0812261
-0.000357097
0.0520544
0.00210304
-0.00238658
-0.000880578
-0.0282804
-0.0461577
0.20562
0.1164
-0.000217217
-0.0146313
0.000552763
-0.0695317
-0.000749474
0.155711
-0.0108656
0.659689
-0.0188358
-0.00167172
0.084945
-0.0210378
0.377655
-0.046848
-0.0125159
-0.0144513
0.0203669
-0.00410837
-1.12109e-05
-0.00932637
0.338503
-0.0480872
-0.00367161
-0.0459632
-0.0298865
0.174344
-0.000615284
0.31004
-0.00374082
-0.0757324
-0.000642104
0.0146716
0.0516508
-0.00755898
0.364523
-0.000576292
0.0369338
0.100406
0.00046755
-0.000195678
0.550021
0.0781954
-0.00136818
0.0332862
0.0215366
0.000100328
-0.0720041
-0.0247146
-0.153746
-0.011875
0.364855
0.00453171
0.195416
-0.000490447
0.427531
-0.0782312
-0.00597796
0.00685142
0.0350997
-0.0800727
-0.131558
-0.00963611
1.99208e-05
0.606325
-0.025095
0.000857038
-0.0385293
-0.0438303
0.371811
0.00327985
-0.0182323
-8.61273e-05
0.0991562
0.00889964
-0.0425438
0.000850489
-0.0039711
-0.0311621
2.37231e-05
-0.0578932
-0.00182542
-0.0166006
-0.0716895
0.319618
-0.0115606
0.0537061
-0.0536313
-0.0360315
-7.9617e-05
0.000119849
-0.00435833
2.50491e-05
-0.0125925
0.0163134
-0.00239675
-2.80244e-05
0.541159
0.00553624
0.000312706
-7.69017e-05
-0.00247519
0.359305
-0.0582229
0.607775
0.213255
0.02489
0.314413
-3.23049e-05
-0.0164607
-0.00101151
-0.00286451
0.223061
-0.011542
0.606189
0.288907
-0.0641871
0.300272
0.00969552
-0.0160963
0.0024425
-0.0558232
-0.00455677
-0.057972
-0.0619135
-0.00348928
0.296413
-0.0112888
0.000122341
-0.00495449
-0.000808769
-0.0376774
-0.000227579
-0.00149229
-4.58e-05
0.184805
-0.129135
0.305477
0.0315348
-0.00319686
-0.0388188
-0.0228491
0.0836416
-0.00354154
-0.00126575
-0.073236
-0.0511475
0.010156
-0.0476676
-0.00517619
0.00950721
0.002291
6.04114e-06
0.160458
-7.81616e-05
0.0649356
-0.000977159
1.64696e-06
0.00218272
-0.000824024
-0.00144819
-0.0182705
0.206111
0.172745
-0.0224771
-0.014383
0.00319426
-0.00588194
-0.01166
-0.000142227
-0.000613527
0.000720507
0.132306
-0.0100379
-0.0651157
-0.0606996
-0.00279086
-0.0281107
-0.0172422
-0.0020173
0.00588939
-0.0141911
0.275575
-0.0818203
0.00623636
0.00166505
-0.0430355
0.596754
-0.0114668
-0.00624352
0.00868009
0.0946845
0.00445233
-0.00575427
0.297953
-0.0004656
0.0507603
-0.0273439
-0.0678306
0.00709525
-0.00435685
-0.00637564
0.0471039
-0.00420075
-0.000773316
-0.00179037
0.00276726
-0.000314596
0.0363827
-0.0107713
-0.0023982
-3.06035e-05
0.186959
-7.74762e-05
-0.037173
0.0914743
-0.0284395
9.77637e-05
0.130808
-0.051134
0.201221
-0.00010759
-0.00461564
0.117887
0.000160483
0.00550658
-0.00524727
0.0117472
-0.0234878
-0.0364156
-0.0104235
-0.0031365
0.0111195
0.0234829
0.113815
-0.000251464
0.136365
-0.0453706
-0.00387747
-0.00800781
0.000412388
-0.0741369
5.81819e-05
0.478931
0.254027
-0.000610011
-0.0243589
2.20385e-05
-0.0025628
-0.00655839
-0.0201632
0.186443
0.187904
0.0193689
0.0114388
-0.082157
0.0418472
0.0589575
0.0727198
-0.0574788
0.0176571
0.24716
-0.010969
0.414799
-0.00111543
-0.0124754
-0.0590948
-0.000146404
-0.000916963
-6.45154e-05
0.411753
-0.011828
0.000250789
-0.0176521
-0.00626851
-0.00041487
-0.0150034
0.318397
0.00101091
0.0123
-0.0351464
-0.000643346
-0.00529113
-0.000971733
0.614919
0.000198543
1.70081e-05
-0.0023065
-0.0164321
0.11783
0.000546569
0.0129469
0.0898573
-0.000234868
0.00222869
-0.0819046
0.0763293
-0.0560024
9.6249e-08
0.000322898
-0.00527819
0.0360892
0.345383
0.107867
-0.0379557
2.89155e-07
-0.0653373
-0.00302637
-0.0142107
-0.0137409
0.205033
0.460268
-0.000152748
0.173138
0.270438
-0.0110014
-0.024865
-0.0271989
-0.0168031
8.86557e-05
-0.0446417
-0.00980713
-0.000196299
-0.000675091
-0.00184084
-0.00219992
-0.000813864
0.33874
0.360748
0.230678
-7.45815e-06
-0.0259173
0.0439405
0.122829
0.484927
-0.000595319
-0.0223981
-0.0205413
0.337417
-0.0213156
-0.0108119
-0.00824382
0.177561
0.000283774
-0.000633034
-0.0290086
-0.0517951
0.167352
0.0507959
-0.0485379
-0.0270078
0.118656
0.0223582
-0.0555281
0.00773796
0.0323655
0.171429
-0.000441095
-0.000759477
0.121407
0.000190582
0.0335442
0.0355575
-3.53536e-05
0.313406
-0.0120079
-0.00503667
0.632196
-0.0405329
-0.0113448
-0.0422451
-0.00310563
0.456364
0.00121843
0.598943
-0.000191908
-0.0226763
0.608455
0.00758276
0.454489
-0.0064783
-4.3143e-05
-0.0300944
0.462388
-0.0018265
-0.00747905
-0.00910056
-0.00117355
-0.0237823
0.465112
0.128831
-1.66102e-05
0.0221832
-0.00423311
0.033448
-0.00104938
0.0259035
-0.00297806
-0.000594908
0.442871
0.474392
0.447565
-0.0565855
0.0494501
0.00011858
-0.061414
0.312821
0.01747
0.000218483
-0.0807278
0.000608542
-0.000147278
0.472064
0.000104462
0.00461867
-0.00221251
-0.0102684
0.451846
0.465464
0.478999
0.0131896
0.000473662
0.24065
0.00838565
0.0270076
-0.0101822
5.32977e-05
-0.00335785
-3.61061e-05
-0.00513449
-0.000882074
-0.00653383
-0.000118691
0.170074
0.00230442
-0.0874471
-0.0103108
-0.0771257
-0.0180008
-0.000912805
0.376937
-0.0119841
-5.56837e-05
-5.68703e-05
0.588922
1.81301e-05
0.0126297
0.0648328
-0.019778
0.330456
-0.00588172
-0.0468212
-0.0401316
-0.000651635
0.000105733
0.283515
0.47572
-0.00177115
-0.0247607
-0.000297185
0.469847
0.567609
-0.00165679
-0.0073585
0.0214902
0.00333492
-0.0268539
2.95649e-05
0.011208
-0.04131
0.0654199
0.379526
-0.00173912
0.0318737
0.128986
0.0465813
-0.0477878
0.0315003
0.551324
0.212416
-0.0567735
0.475519
-0.000708575
0.484341
-0.00828806
0.400859
0.0877487
-0.00567782
0.0403196
0.00262684
0.0195841
-0.0776717
-0.000788533
-0.0254841
0.40057
-0.0289983
0.0276133
-0.00169925
0.00317228
0.205504
-0.0102061
-0.0190212
0.000732128
-0.0040968
-0.0260831
-0.00244255
0.00211604
-0.00977392
-0.000598273
0.00264181
0.398301
0.00230839
-0.0173615
-0.0644185
-0.0317298
-0.0674796
-0.0992649
0.00457455
-6.25525e-06
-5.07373e-05
0.284627
-0.0671717
4.36543e-05
-0.0639285
0.196174
-0.0656397
-0.0163122
9.86318e-05
-0.00214858
-0.049477
0.16307
-0.00976155
-0.000572946
-0.0493383
-0.0214813
0.611746
0.122753
0.0768539
-0.0580209
-3.73478e-06
-0.00740398
0.0716923
-0.000455171
1.1152e-05
0.18686
0.112094
0.000635271
-0.000995484
0.00785014
-0.043878
0.0112341
0.00873689
-0.0163856
3.75855e-05
0.312557
0.000592053
-0.000768636
-0.000298164
-0.000274984
-0.000207718
0.0898416
0.00094456
-0.00310961
-0.0103952
-0.00532145
0.0313855
-0.00591998
-0.0443664
-0.0112929
0.431781
0.359635
-0.000581948
-0.00165889
0.108284
-0.000944122
-0.0232602
0.0744208
0.104433
-0.00110092
0.022414
0.0438084
0.00133733
0.117677
-0.00014676
0.00801729
-0.0161819
0.014946
-0.0157173
0.0531595
5.2655e-05
-3.81046e-05
0.00024212
-8.21599e-05
-0.00176886
-0.0104389
-0.0136886
-0.0310377
0.0676053
0.041643
0.00988684
-0.0740015
0.0119199
0.0068156
0.0140471
4.21726e-05
0.465553
-0.00887381
-0.00355053
-0.0142287
0.619517
3.08428e-06
0.0847124
-2.8153e-05
-0.0446176
-0.00688354
-0.0231865
0.18557
-0.00428853
-9.34663e-05
0.199347
0.0773356
-0.000637539
0.055417
-2.4777e-05
0.172986
0.00688632
-0.0297343
-0.000191615
0.257173
0.030518
-0.0213572
1.14682e-05
0.17946
0.328255
-0.00123511
-7.45051e-05
-0.0381743
-0.00950128
0.00614162
0.0243038
0.486423
0.283868
0.000460926
0.354932
0.263875
-0.00303719
-0.0570348
-0.0399339
-0.0171348
-0.0622167
0.154384
0.000807068
0.505853
0.16003
0.0130585
5.72145e-05
0.000615025
4.72676e-06
-0.000641687
-0.00297277
0.540847
-1.84503e-05
0.0836561
0.0285687
-0.00027586
0.501903
0.567738
0.208371
0.240877
0.00380266
0.00252325
-0.000340107
-0.0114979
-2.58513e-05
-0.00119303
-0.161454
-7.3525e-05
-0.00206276
0.514317
-0.0120483
-3.31984e-05
0.535823
0.000433231
-0.0360545
-0.0740456
-0.00141951
-0.0941079
-0.000278561
0.164431
0.00340291
-0.0179924
0.00195944
-0.000737291
-0.00045017
-0.000267388
-0.166609
-0.0629818
0.161241
0.00280402
-0.00667263
0.248804
5.10821e-05
0.593933
-0.0006399
-0.0862141
0.00226909
0.00164321
0.0533322
0.0561417
-2.49506e-05
-0.00434344
7.81328e-05
-0.000739361
0.000822242
0.0876446
0.0510083
0.333542
-0.0505139
-0.000128803
0.000140788
0.102698
0.362868
-0.00461983
-0.00650259
0.594352
-0.00290849
-0.0210244
0.000822969
0.0789202
-0.0494872
-0.00878837
0.164935
0.00131535
-0.000297987
0.00165997
0.000192866
0.583853
0.4643
-0.0245462
-0.0421691
-0.00668219
0.00156282
4.73801e-06
0.0782481
0.211651
-1.87321e-05
-0.00750454
-3.11883e-05
9.94023e-05
0.438085
-7.89582e-07
-0.0871162
-0.0647997
-0.1122
0.07242
-1.25326e-05
0.0101339
-0.00640059
0.405199
0.00159919
0.00506678
-0.0309299
0.000599477
0.364531
0.216393
0.0109919
0.0578383
0.519892
-0.0673617
-0.0621248
-0.00200484
-0.00721104
-0.000444112
0.0242286
-0.000110031
0.172675
0.00291286
0.206755
-0.0358032
-3.53189e-06
0.0587194
-0.00020802
-2.66448e-05
-0.000828163
0.580231
0.557454
0.326477
3.70328e-05
0.193579
0.482282
-0.00104008
0.00145444
-0.00864622
0.0884856
0.465416
-0.0279881
0.126198
-0.00270248
-0.0656046
-0.0743496
0.641455
-0.00065282
0.463037
0.0911102
0.1978
6.57913e-05
0.000180293
0.00542035
-0.00916774
0.0861976
-8.27096e-05
4.37682e-05
0.45441
-0.123124
0.000254422
0.475799
-0.0024145
0.00011895
0.387744
-0.00732265
-0.00164997
0.0161283
0.164537
0.00028732
-0.000168741
0.00344966
-0.00416466
0.451317
0.576615
0.296554
0.626444
0.132429
-0.0465733
0.525125
-0.000111397
-0.00336275
0.15623
-0.00357941
-0.000704891
-0.000126938
0.474358
0.0278205
-0.000702647
0.561719
0.0774253
0.257615
0.0445091
-0.00281042
-0.021024
0.166036
0.075711
0.472927
-0.0249123
-0.000839677
0.435741
0.403625
0.0132228
0.340223
-0.0404255
-0.00794198
-0.00960153
-0.000690638
-0.000173569
0.440604
-0.0644801
0.0189415
0.000730082
0.161817
-0.0316567
-0.0196145
-0.00109093
-0.00403077
0.491497
-0.000856522
-0.0176532
-0.00309749
0.483627
-0.0197051
0.0202066
-0.00762529
0.00135717
0.15712
-0.0221386
0.502287
0.137405
0.62361
0.254464
-0.0600638
0.0315237
-0.00187045
0.00947428
-0.0275651
0.457839
0.487906
0.54495
0.326712
0.445086
-0.000428735
0.515983
-5.30293e-05
4.50999e-05
-0.0484184
0.556296
0.0509749
0.251251
-4.75761e-05
-0.00224701
-0.064646
-0.0368094
0.450027
-0.000730945
-0.00780083
0.326216
0.00100004
-0.00434768
0.604324
0.0476302
-0.0449094
-0.146445
-0.000595521
0.0775693
0.131238
0.631303
0.106659
0.0547992
0.00415765
-0.000272041
-0.00800002
0.194065
0.00552658
0.000103142
-0.0957701
0.243908
-0.00154293
0.46365
-0.0781374
0.46882
-0.0268635
-0.023136
0.522379
-0.00542973
0.0490785
-0.000452207
-0.0013831
-0.0632275
-0.0225064
-0.0361155
-0.00982961
0.00530279
-0.104059
-0.0706843
0.466588
0.000216516
0.000708307
-0.0205613
0.120611
-0.113218
-0.0587952
-1.88871e-05
-0.100422
0.0468741
-0.000137738
-0.0919008
-0.00640962
0.472774
-0.113269
0.461882
-0.013715
0.117777
0.248795
-0.0346175
0.316611
-0.00186334
0.107077
0.000666797
0.0850186
0.195657
0.173178
-0.0282811
0.00598931
-0.000745259
0.177289
-0.000105973
-0.000161317
-0.00108543
-0.00108644
0.0155376
0.0146162
0.395821
0.157029
0.587018
0.36726
-0.00158014
-0.0320128
-0.000205986
-0.0477937
-0.00132639
0.00561892
0.000588096
-0.0337484
0.327111
0.461252
-0.00032513
1.21017e-05
0.0474394
-3.85391e-05
-0.00910161
-0.000219769
0.134241
-0.0349826
0.184891
-0.0988809
9.48976e-06
-0.0137214
-0.0392885
-0.025635
-0.0162234
-0.0513417
0.0551886
-0.000192018
-5.65598e-05
0.00198059
-0.000173997
0.0795452
0.1023
0.0385174
0.545973
0.0438101
-0.148729
-0.0851358
-0.000480952
0.0500664
-0.000157874
0.436488
0.0969071
0.50919
0.000102233
-0.032109
-0.0067467
0.04859
0.200051
0.400484
-0.00751452
0.0304514
-0.00194194
-0.0190725
-0.00791903
-0.00603804
0.103854
0.00149176
-0.0084658
-0.0199544
0.248267
0.0641339
-7.11713e-07
-0.000921976
-0.00614312
-0.000640392
0.114165
-0.000701661
-0.0319671
0.147417
5.38574e-05
0.251537
6.24803e-05
-5.04704e-06
-0.0940138
-0.019286
0.000128902
-0.022037
0.000117616
0.530707
0.0120397
-0.023568
0.495171
0.123022
-0.0305885
0.389513
-0.00276482
-0.00189073
-0.00209907
0.0824031
0.662607
-0.00153061
-0.000660723
-2.51649e-05
0.00756022
-0.00128308
0.0246297
0.00588971
-0.0203949
-0.057647
0.0178053
0.0101537
-0.018333
-0.000574805
-0.0156227
0.385438
-0.00184123
-0.0134533
-0.00026336
0.397455
0.052496
0.381439
0.000382014
-0.000886696
-0.0233335
0.547913
0.140699
-0.0275554
-0.000160343
0.0303703
0.101113
-0.0256404
0.195974
-0.0461112
0.0187407
-0.155668
0.400704
-0.0162408
0.238722
-0.00316231
0.627909
-0.03989
-0.010766
0.501
-0.0416201
0.158965
-0.169622
0.1764
0.00617608
0.0480287
0.312749
0.0480997
-0.046426
-0.00947684
-0.00747906
-0.0145854
-0.00300912
-0.0015675
-0.0556944
-0.0273669
0.0018233
-0.063846
-0.0810824
-6.05146e-05
0.133425
-0.00892899
0.139464
0.504458
0.355787
-0.0517018
-0.0697849
0.00039044
-0.0821723
-0.00441187
0.608702
-0.0341908
-0.0293191
0.351342
0.046112
-0.0391913
0.224778
-0.0357502
-0.000701333
-0.0114479
0.0096309
0.000558969
0.369047
-0.00270444
0.136017
0.322433
-0.00560008
0.229556
-0.110789
-0.000403735
0.00638684
0.0839047
0.335717
-0.00252451
0.0803987
-0.0696676
0.0674264
-0.0223587
0.359671
0.00369314
-0.0724084
-0.00321603
0.000146951
0.459899
-0.00245245
-0.0322086
-0.000138262
0.200137
-8.7498e-05
-0.0476295
-0.0027592
-0.149886
0.000562084
-0.0100836
0.192857
-0.00388777
0.00085442
0.000543273
-0.00409061
0.0537444
-0.0001025
-4.44857e-05
-0.00833871
-0.0103233
-0.0222826
0.00780334
-0.0019232
0.0718204
0.07619
-0.00131111
0.000942765
-0.000234451
0.453809
-0.00416025