/*--------------------------------*- C++ -*----------------------------------*\
  =========                 |
  \\      /  F ield         | OpenFOAM: The Open Source CFD Toolbox
   \\    /   O peration     | Website:  https://openfoam.org
    \\  /    A nd           | Version:  7
     \\/     M anipulation  |
\*---------------------------------------------------------------------------*/
FoamFile
{
    version     2.0;
    format      ascii;
    class       volVectorField;
    location    "32";
    object      U;
}
// * * * * * * * * * * * * * * * * * * * * * * * * * * * * * * * * * * * * * //

dimensions      [0 1 -1 0 0 0 0];

internalField   nonuniform List<vector> 
30084
(
(1.01178 -0.0140546 1.79959e-22)
(1.00835 0.00405439 7.66218e-22)
(0.989812 -0.00381627 -1.06795e-21)
(0.969058 -0.0621928 3.29673e-22)
(0.997378 -5.71484e-05 1.55857e-22)
(0.949784 -0.0393498 -4.93099e-22)
(1.0792 -0.070766 5.86211e-22)
(1.01603 -0.020999 -1.86625e-23)
(1.00216 -0.0020871 2.47349e-23)
(1.00019 -5.16801e-05 5.93499e-24)
(1.01886 -0.028077 7.28982e-25)
(0.99839 -0.0183118 -3.86966e-22)
(0.999498 -0.000207878 2.2359e-23)
(0.999972 -1.01913e-05 7.8756e-25)
(1.1099 0.100917 2.18595e-21)
(0.993384 -0.00217842 1.64916e-22)
(0.99983 -0.000920169 -1.08938e-23)
(1.12374 0.0259201 -1.84604e-22)
(0.997704 -0.00196719 -5.33317e-23)
(0.987891 -0.000923823 -2.35109e-22)
(0.999089 -0.00029649 -7.45551e-23)
(1.00203 -0.00208401 8.63478e-23)
(0.989713 -0.00403812 1.17412e-21)
(0.997704 -0.000187318 6.8609e-23)
(0.906212 0.0970261 2.78594e-22)
(1.00922 0.00322274 4.12713e-21)
(0.999462 -6.28484e-05 5.0792e-23)
(0.952354 0.0818102 -1.9973e-20)
(1.11331 0.102087 -5.58409e-21)
(0.999329 -0.00991872 -7.52674e-23)
(1.01638 -0.0109784 1.26376e-22)
(1.0371 -0.00415264 -9.38265e-22)
(0.999301 -0.145781 3.48439e-21)
(0.99927 -0.0254065 1.9517e-22)
(0.950656 0.078051 1.64056e-20)
(1.00662 -0.0355655 5.37775e-22)
(1.05692 0.0489123 -1.31105e-21)
(0.968898 -0.0344022 1.38517e-21)
(1.00564 -0.000868407 -3.4077e-22)
(1.00545 -0.000622231 6.48549e-22)
(1.00045 -0.000174517 -1.94844e-23)
(0.989513 -0.0352022 -1.37193e-21)
(0.99985 -0.000894195 -1.05562e-25)
(1.04159 -0.0740942 -2.10264e-21)
(1.00003 -5.27121e-06 -8.76408e-25)
(0.999557 -0.01005 5.62346e-23)
(0.997681 -0.0135929 -1.12174e-22)
(1.00008 -8.97423e-05 2.54723e-24)
(1.0036 -0.00388349 -3.54238e-22)
(1.05727 0.046562 -5.41133e-22)
(1.14401 -0.0546385 3.55376e-22)
(0.972323 -0.0540606 -1.57495e-21)
(1.03682 -0.00334101 3.30399e-22)
(0.95153 -0.0388668 -8.21631e-22)
(0.993549 -0.00223315 -1.45286e-22)
(1.11842 0.0962697 -3.57869e-21)
(0.996357 -0.0024748 5.27052e-23)
(0.999062 -0.000327016 9.44379e-23)
(1.00121 -0.0237414 -2.71137e-22)
(1.01995 -0.0632636 -9.66241e-22)
(0.999937 -7.14971e-06 1.66622e-24)
(0.997784 -0.00201494 -1.10536e-23)
(1.18859 0.084183 8.22644e-22)
(1.00691 -0.0346597 -2.9859e-22)
(1.04513 0.0975963 1.00714e-20)
(0.927151 0.027101 4.1258e-20)
(1.00082 -0.0301425 -5.2369e-22)
(0.99243 -0.01558 4.99508e-22)
(0.946234 0.0173191 1.66938e-20)
(1.00047 -0.000164854 1.25878e-23)
(1.01074 0.00388967 -5.62448e-21)
(0.988774 0.0697157 1.18445e-20)
(1.00368 -0.00965156 -1.35535e-22)
(0.923622 0.111652 1.0221e-20)
(0.991185 -0.000711436 7.62855e-22)
(1.12431 -0.0176331 1.79521e-22)
(1.13595 0.144191 6.87071e-21)
(0.969288 -0.0194241 3.29836e-22)
(0.999953 -2.25708e-05 -4.88488e-24)
(1.00976 -0.0532131 -9.43579e-22)
(0.950282 -0.000908748 -5.43627e-22)
(1.01817 0.0386174 3.23124e-21)
(1.01205 -0.0146574 -5.38366e-22)
(1 -6.45088e-05 1.59366e-24)
(1.08107 -0.0677038 -8.78988e-22)
(1.26667 -0.041578 -2.60395e-21)
(1.0264 0.0849426 -1.91166e-20)
(0.999478 -0.000205233 -2.01644e-23)
(0.999514 -0.00018495 -5.90273e-24)
(0.922928 -0.0529226 -1.99849e-21)
(0.998964 -0.0605918 1.83037e-21)
(0.969212 -0.0203512 3.6993e-22)
(1.00338 -0.00401735 6.05578e-23)
(1.0585 -0.00297053 -5.63414e-22)
(0.913142 -0.0228126 -1.69049e-21)
(1.03218 0.10074 9.14509e-21)
(1.0052 -0.0787323 2.9022e-21)
(1.0005 -0.000413413 3.12717e-23)
(0.972534 -0.0783147 -2.96995e-21)
(1.10107 0.115037 9.34156e-21)
(0.999951 -2.21996e-05 7.1603e-24)
(0.970589 -0.0125921 -1.99124e-21)
(0.999939 -8.74463e-06 -8.59004e-25)
(1.04856 -0.0143709 -2.78643e-21)
(0.970597 -0.0540735 1.02617e-21)
(1.03354 0.0146067 5.8065e-21)
(1.00186 0.0671798 1.82105e-20)
(0.999534 -0.000186826 -5.02434e-23)
(0.999995 -7.28656e-05 -1.93213e-25)
(1.01829 -0.133747 -1.72102e-22)
(0.995866 -0.144839 -3.14339e-21)
(1.0499 -0.0366679 2.31456e-22)
(1.00001 -2.04166e-06 1.1165e-25)
(0.99886 -0.00670705 -2.00131e-22)
(0.999887 -0.00237377 9.31196e-24)
(0.990954 0.0714512 5.8651e-23)
(1.03426 0.0555606 -6.88697e-21)
(0.987104 -0.00829596 -8.03501e-22)
(1.00002 -7.08698e-05 5.77621e-26)
(1.00402 -0.00954359 -1.04989e-22)
(1.24035 0.0585593 1.60758e-21)
(1.00527 0.0118539 8.99863e-21)
(1.1775 -0.00444998 -5.55223e-22)
(0.92554 0.0331327 -3.81775e-20)
(1.00116 -0.000384691 -8.1684e-23)
(1.15976 0.00896189 -3.04138e-22)
(1.12096 0.0283194 -1.02504e-21)
(1.02444 -0.0597501 7.05313e-22)
(1.00428 -0.00366994 -3.17522e-22)
(1.00003 -0.00046984 -4.23664e-25)
(1.04053 -0.0718941 7.51e-22)
(1.1388 0.142008 3.85874e-21)
(0.999746 0.120106 1.83818e-20)
(1.19061 -0.0159374 -3.95263e-22)
(1.047 -0.0143718 2.35665e-21)
(1.01591 -0.010607 2.39969e-21)
(1.04803 0.15133 1.39224e-21)
(0.969034 -0.000936389 2.77447e-21)
(1.2089 -0.164399 9.62381e-21)
(1.10306 0.111826 -7.12781e-21)
(1.15663 0.012141 4.21051e-22)
(0.929634 -0.00656923 -2.1974e-21)
(0.945377 -0.0555101 6.46876e-22)
(1.00001 -1.80165e-06 -4.93899e-26)
(0.99999 -3.86498e-06 4.9768e-25)
(0.997308 -9.48862e-05 -1.2171e-22)
(0.997873 -0.0133026 2.30019e-22)
(0.994625 -0.108371 -2.38288e-21)
(1.18711 -0.113277 4.00248e-21)
(1.1791 0.121519 4.11857e-21)
(1.03279 -0.0171395 1.23409e-21)
(1.01996 -0.0196781 4.02606e-22)
(1.00046 -0.000671434 4.76626e-23)
(0.999863 -0.000235404 6.35699e-24)
(1.0013 0.020205 -1.92969e-20)
(1.00057 -0.00164805 5.65141e-24)
(0.992968 -0.01264 2.19624e-25)
(1.05743 0.153391 -4.15921e-21)
(1.0036 0.0400603 -2.05322e-20)
(1.14545 -0.0497219 -5.90594e-22)
(0.952743 -0.00343897 9.27658e-22)
(0.970116 -0.060732 2.4142e-21)
(1.11735 0.0999046 9.09083e-22)
(0.999952 -4.77431e-05 1.56359e-24)
(0.999989 -3.86936e-06 -1.87143e-25)
(0.987051 -0.00872128 2.89707e-22)
(0.946807 -0.0542247 -3.56437e-21)
(1.00005 -0.000239821 -1.92478e-24)
(1 -6.89945e-05 7.82959e-25)
(0.992677 -0.00569243 -9.68172e-23)
(1.00004 -0.000455904 3.65353e-25)
(1.00619 -0.00626354 -1.7734e-22)
(1.05453 0.155561 4.70011e-21)
(0.969505 -0.000495027 -2.34881e-21)
(1.07381 -0.117593 -1.00629e-21)
(0.994549 -0.000108445 4.95613e-22)
(1.00226 -0.00288388 1.8416e-23)
(0.969751 -0.0124063 3.28829e-21)
(0.999182 -0.00668305 -1.83602e-23)
(1.17645 0.00643935 -1.90896e-22)
(0.99998 -9.85541e-06 2.72451e-24)
(1.01765 -0.0406051 -3.52729e-22)
(1.02807 0.0867119 6.76435e-21)
(0.992713 -0.0144591 -2.88675e-23)
(1.2008 -0.164097 -9.25153e-21)
(1.02684 0.0475134 -6.07286e-21)
(0.993183 -0.00312561 -7.21243e-22)
(0.980233 -0.0178325 8.89653e-22)
(1.00405 -0.00369294 4.82306e-22)
(0.999384 -0.00923885 -1.151e-22)
(0.999719 -7.65641e-06 5.95899e-24)
(1.00728 -0.0189817 7.66085e-23)
(0.921414 0.016576 1.60056e-20)
(1.00081 0.0165116 1.48859e-20)
(0.984243 -0.00708067 2.23601e-23)
(0.99329 -0.0124361 -3.15652e-22)
(0.983138 0.0366049 -1.60285e-20)
(1.01148 0.0303302 2.78366e-21)
(0.915114 -0.0225101 2.08713e-21)
(1.00121 -0.000514929 -6.3848e-23)
(1.10084 -0.087035 1.29208e-21)
(0.975695 -0.104929 3.13594e-21)
(0.998717 -0.0186643 1.84954e-22)
(1.00089 -0.00113154 -1.00789e-22)
(1.04989 0.154287 1.95609e-21)
(0.992915 -0.00569928 -6.54647e-23)
(1.00716 -0.00558202 -1.99737e-22)
(0.992213 -0.108182 3.10552e-21)
(1.01947 -0.137335 4.22961e-22)
(0.999966 -4.74488e-06 6.06732e-25)
(0.978915 0.0977669 -1.8621e-20)
(0.998925 -2.47862e-05 -1.22089e-24)
(0.999999 -5.44057e-05 4.10464e-25)
(0.999437 -0.000219524 8.56523e-24)
(1.00243 -0.0603582 -6.68456e-22)
(1.17407 0.0919141 -3.2638e-21)
(1.01858 -0.0396099 4.71782e-23)
(1.00693 -0.00521776 -1.36873e-22)
(0.997729 -0.000257608 1.70698e-22)
(0.916894 -0.0250568 -4.00955e-22)
(1.00003 -0.000499792 -4.6881e-25)
(1.00051 -0.00168071 6.24899e-25)
(0.997552 -0.000218775 -1.12365e-22)
(1.02633 0.00164695 5.41152e-21)
(0.997214 -0.0042683 -3.62534e-23)
(0.998873 -0.00622914 5.96103e-23)
(1.02695 -0.000986789 2.6884e-21)
(1.00013 -0.000408436 4.09447e-24)
(1.00003 -4.44297e-06 2.28449e-25)
(1.0052 -0.000627851 6.90266e-23)
(0.974186 -0.0388445 -1.19174e-21)
(0.973001 -0.000473118 -1.14794e-21)
(0.994885 -0.000411766 -5.25171e-22)
(1.01171 0.00306848 4.65523e-21)
(0.982715 -0.00130133 5.51311e-22)
(1.02009 -0.0189699 -3.89854e-22)
(0.999971 -1.13538e-05 2.2095e-24)
(0.996873 -0.00281928 -2.0474e-22)
(1.00083 -0.00112298 1.08803e-22)
(1.09866 -0.0832655 1.27534e-21)
(1.11688 -0.201051 7.12489e-21)
(0.998557 -0.000132612 8.94221e-23)
(1.00049 -0.000597107 -3.69255e-23)
(0.998764 -0.00608284 -2.01352e-23)
(1.00386 -0.00851928 -2.58705e-22)
(0.988139 -0.000680854 -1.00451e-21)
(0.999954 -4.53415e-05 -8.21415e-26)
(1.25967 -0.0417099 -5.2705e-21)
(1.00005 -0.000511341 1.3349e-25)
(1.02596 0.00150184 -3.81288e-21)
(0.996473 -0.0024767 -1.06418e-22)
(1.00015 -0.000396149 1.83764e-24)
(1.03251 0.0148361 -3.69176e-21)
(0.968401 -0.101364 -3.15055e-21)
(1.00026 -4.4522e-05 1.99911e-23)
(1 -1.10023e-05 2.096e-25)
(0.92941 -0.00470284 -2.49915e-21)
(1.09029 -0.191316 -1.08333e-21)
(0.990768 -0.00915123 -7.78492e-23)
(1.02372 -0.0613825 -1.89877e-22)
(1.03375 -0.0176934 -2.01887e-22)
(1.03273 0.0849366 8.33134e-22)
(1.00008 -8.46146e-05 7.21741e-25)
(0.974676 -0.0379481 1.20853e-21)
(1.21515 0.0287412 6.73285e-22)
(0.967121 0.0535167 3.86985e-22)
(0.992599 -0.0141443 2.31452e-22)
(1.02599 0.0460436 7.42509e-21)
(1.12304 -0.0142456 1.62505e-22)
(0.999887 -0.0026121 -1.02865e-23)
(0.847762 0.0472595 2.10504e-20)
(0.999434 -0.000463774 -5.79938e-23)
(1.07429 -0.121863 -1.32118e-21)
(0.918398 -0.0249778 2.59196e-21)
(1.0024 -0.00272361 -1.01522e-22)
(1.1717 0.0527669 2.02991e-21)
(0.990723 -0.001033 -6.02413e-22)
(1.00142 0.128847 1.31152e-20)
(0.996305 -0.000285029 4.83591e-23)
(0.980904 -0.0192046 -4.6644e-23)
(0.999791 -0.00237364 -5.32028e-23)
(1.08412 0.132516 2.1245e-21)
(1.0008 -0.0187738 4.73591e-23)
(1.02962 0.101038 5.63398e-22)
(0.999477 -4.84721e-05 -2.21888e-23)
(0.993723 -0.00206526 -2.30192e-22)
(0.96496 0.117752 -7.84913e-21)
(1.03134 0.00170747 -4.50979e-21)
(1.02675 -0.000694868 3.12556e-21)
(0.969358 -0.0501026 2.88733e-21)
(0.999849 -3.35028e-05 6.26203e-24)
(1.00375 -0.00823204 -2.91714e-23)
(0.999825 -0.00100538 -1.97786e-23)
(1 -5.13531e-05 2.92227e-25)
(1.05471 0.0112757 1.27323e-21)
(1.00004 -5.20869e-06 2.9904e-26)
(0.978054 -0.0171465 2.08913e-21)
(1.21407 0.0240481 -7.08398e-22)
(0.904265 0.101401 -1.93834e-20)
(1.00225 0.120531 -2.92872e-20)
(0.970749 -0.0865422 9.66138e-22)
(0.98634 -0.0345238 7.46508e-22)
(0.974371 -0.00181936 5.47543e-22)
(1.04033 -0.0353543 7.42125e-22)
(1.00786 -0.0186792 -1.44237e-22)
(0.980137 -0.0186951 -1.22811e-21)
(0.973031 -0.0950482 4.31616e-22)
(1.0311 0.0867462 -1.27408e-20)
(0.999549 0.0136665 2.62905e-20)
(0.998653 -0.000161786 4.92214e-23)
(1.00298 0.0680558 -2.49545e-20)
(1.05415 0.00971922 4.45415e-22)
(1.1799 0.00088392 1.70258e-22)
(1.01511 -0.0160712 1.86672e-22)
(1.00183 -0.0171838 -2.30833e-22)
(1.03148 -0.0541006 -4.51517e-22)
(0.994182 -0.00199318 -5.45582e-22)
(0.997153 -0.000713744 -3.58335e-23)
(0.999943 -6.79827e-06 8.90628e-24)
(0.999219 -0.00947545 1.68581e-22)
(1.10499 -0.0241318 1.51261e-22)
(1.08394 0.135937 -3.40863e-21)
(1.00173 -0.00148401 4.76654e-23)
(0.970043 -0.0321207 -1.65036e-21)
(1.01716 -0.0162159 -5.92167e-22)
(0.999964 -1.61607e-05 -8.15968e-25)
(0.971797 -0.0906181 -1.54608e-21)
(0.881848 0.0798795 -9.77732e-21)
(0.993285 -0.00534618 8.09947e-22)
(0.998869 -0.00497384 5.4535e-23)
(1.01572 -0.0158086 -1.16141e-22)
(1.00916 -0.0516412 1.20819e-21)
(1.07684 0.0416721 1.60503e-21)
(0.99969 -0.0107353 -2.74859e-23)
(0.999969 -5.53688e-05 5.63729e-24)
(1.00001 -2.90611e-06 4.5054e-26)
(0.997115 -0.000650381 -3.96126e-23)
(0.963279 0.116935 1.13332e-20)
(1.05508 -0.0235239 5.98212e-22)
(1.12262 -0.19624 -1.85944e-21)
(1 -1.0978e-05 3.53668e-26)
(1.08861 -0.197732 7.0926e-22)
(1.07946 0.00998074 -1.90238e-21)
(0.994413 -0.000181531 -2.4587e-22)
(0.921331 -0.00904941 -3.10771e-21)
(0.998958 -0.00488432 -5.5048e-23)
(0.999545 -0.000209219 -3.68321e-24)
(0.975195 -0.0342044 -3.60805e-22)
(1.00099 -0.00124156 -4.88047e-23)
(1.17838 0.0113434 2.89422e-22)
(1.00977 -0.00110977 -1.44019e-21)
(1.14064 0.122871 -3.46557e-21)
(0.999925 -0.0025772 1.32759e-23)
(1.0052 -0.0149995 4.76098e-23)
(1.00512 0.0104949 -1.21955e-20)
(1.23553 0.055884 -4.48961e-22)
(1.00045 -0.000632057 -2.80542e-23)
(1.00047 -0.000559869 2.74232e-24)
(0.992326 0.0838035 1.17782e-21)
(1.00052 -0.0615275 -3.64373e-22)
(0.999492 -0.0105812 3.34675e-23)
(1.01033 0.0333965 1.45934e-21)
(0.976473 0.0186349 3.1161e-20)
(1.14666 -0.0585641 -1.15679e-21)
(1.00072 -0.0290704 -1.59733e-22)
(1.17017 0.0908624 3.26545e-21)
(0.999193 -7.91826e-05 -3.74654e-23)
(0.990414 -0.00477531 2.1273e-22)
(0.996383 -0.000299553 -1.35426e-22)
(1.01297 0.0290791 1.45049e-23)
(0.999986 -0.000825102 2.05774e-24)
(1.00945 -0.00135378 1.47139e-21)
(1.2055 -0.0881055 1.32197e-22)
(0.998137 0.113914 2.84963e-20)
(0.926471 0.115072 -4.53245e-21)
(0.993394 -0.00311574 2.90822e-23)
(0.990478 -0.00894287 2.32767e-22)
(1.04271 0.0996332 -7.99506e-21)
(1.02088 -0.0652756 1.3873e-21)
(0.999945 -8.13018e-06 -8.68237e-24)
(1.16135 0.132437 7.20227e-21)
(1.02551 0.00209312 -1.61953e-21)
(1.025 0.00201151 -1.09502e-21)
(0.994068 -0.015305 -3.4145e-22)
(1.01945 -0.00189235 -2.24251e-21)
(0.956067 0.105183 4.46372e-21)
(1.18661 -0.12675 -1.18814e-21)
(0.98065 0.104531 4.56359e-21)
(0.992234 0.103957 -8.08575e-21)
(0.999997 -6.95127e-05 6.16886e-25)
(1.10164 -0.024142 -3.53056e-22)
(1.18419 -0.120813 7.8756e-22)
(0.997083 -0.00430948 9.44212e-23)
(1.00177 -0.00159145 -7.84639e-23)
(0.971955 0.0218718 7.42939e-21)
(1.05702 -0.0239643 -7.69259e-22)
(1.0003 -8.22829e-05 4.5941e-24)
(0.985191 -0.0736921 -3.61635e-21)
(0.97517 -0.108001 -1.48057e-21)
(0.993862 -0.00212109 3.23727e-22)
(0.999873 -0.000228478 -7.98208e-24)
(1.03621 0.117402 -1.33878e-21)
(1.03424 0.0537238 1.16437e-20)
(1.00005 -0.000560891 -3.25489e-25)
(1.00445 -0.00395818 6.23835e-23)
(1.00571 -0.00394249 3.38602e-22)
(1.22126 -0.029499 3.57535e-21)
(0.969292 -0.0487319 -2.61424e-21)
(1.00007 -0.000666809 -1.0609e-24)
(0.999986 -2.6367e-06 -2.62571e-25)
(1.00053 -0.000181372 7.43989e-24)
(1.07515 0.0422989 -1.58686e-22)
(0.968794 -0.0331843 -1.32342e-21)
(1.00181 0.0395723 5.83619e-21)
(0.936757 -0.062218 1.55734e-21)
(0.987275 -0.0342797 -7.86853e-22)
(0.972181 -0.00142216 -2.1923e-21)
(1.01181 0.032441 -7.18276e-21)
(1.1844 0.0806547 1.31157e-22)
(0.998695 -0.000172045 9.0168e-23)
(1.00861 -0.00632789 -3.62301e-22)
(1.00092 -0.00122893 5.52925e-23)
(0.979476 0.114049 -1.14755e-20)
(0.971115 -0.0298985 7.09269e-22)
(1.00118 -0.000312659 -2.6733e-23)
(0.991585 -0.00423542 -2.91398e-22)
(1.15803 0.0184868 1.02369e-21)
(0.999837 -0.0115331 -7.27784e-23)
(0.98721 -0.0149531 -1.61095e-22)
(1.00025 -0.000156589 -1.37609e-23)
(1.00025 -5.98073e-05 -6.0687e-25)
(0.878723 0.085474 1.47253e-20)
(0.990794 -0.00153893 -3.74372e-22)
(0.994699 -0.00548142 3.33641e-22)
(0.999592 -0.00210537 -4.52319e-23)
(0.999214 -6.05207e-05 -5.14298e-24)
(1.03831 0.0838012 -4.35338e-21)
(1.21139 -0.0852724 2.5235e-22)
(0.986563 -0.052259 4.70594e-22)
(1.00001 -2.12887e-06 -6.11054e-26)
(0.999999 -4.11617e-05 2.63052e-25)
(0.969936 -0.0310611 1.86677e-21)
(0.99242 -0.00224536 7.69964e-23)
(0.994229 -0.00254322 -4.45095e-23)
(1.01558 -0.00552476 6.97721e-22)
(1.00637 -0.00266712 1.21523e-22)
(1.00114 -0.0191984 -8.45991e-23)
(1.12744 0.0118151 2.02416e-21)
(0.978568 -0.00543952 -4.62016e-22)
(0.982274 0.10269 -3.88516e-21)
(1.0179 -0.028249 -1.54447e-22)
(1.00027 -0.000157254 1.53312e-23)
(0.969371 -0.0851013 1.4224e-22)
(0.983683 -0.0464445 -1.63741e-21)
(1.16226 0.0518029 1.43025e-21)
(0.996876 -0.00712292 -1.00045e-22)
(0.992472 -0.0609199 -5.50213e-22)
(0.999979 -6.91777e-06 1.48217e-24)
(0.937223 0.0844655 -1.55267e-20)
(1.01644 -0.00228615 1.26789e-21)
(1.00009 -0.000267752 -3.93024e-24)
(0.921292 0.0226649 -2.07665e-20)
(0.985312 -0.0526618 1.05143e-21)
(0.999979 -7.57964e-06 2.30466e-25)
(1.0016 -0.00145121 2.3165e-23)
(0.970204 -0.0889882 -8.46296e-22)
(1.0479 -0.0356589 2.47219e-22)
(1.0519 -0.00733894 1.59757e-21)
(0.999992 -3.87217e-06 4.16529e-25)
(0.990744 -0.000785947 2.97687e-22)
(1.03216 -0.0526736 7.58755e-22)
(0.994034 -0.00194451 4.47707e-22)
(0.999499 -5.5539e-05 -1.20488e-22)
(0.990609 -0.00492861 5.86084e-24)
(0.98008 0.038533 1.84782e-21)
(0.992255 -0.0151433 -4.15754e-22)
(0.987766 -0.0146179 1.181e-22)
(1.00144 0.0234924 -5.94407e-21)
(0.996931 -0.00266212 1.0663e-22)
(0.974895 0.115466 -1.41646e-21)
(0.999978 -7.44263e-06 -7.48653e-25)
(0.989822 -0.0342755 3.18493e-22)
(0.990608 -0.102658 3.64292e-21)
(0.993826 -0.0611363 9.35986e-22)
(1.21775 0.0113338 3.91545e-22)
(0.998745 -0.00651912 1.34106e-22)
(1.01233 -0.0270972 5.48972e-23)
(0.999913 -0.00277688 2.64132e-24)
(0.981117 -0.027197 -9.2097e-22)
(1.05031 -0.0388148 7.64094e-23)
(0.999966 -1.5303e-05 4.2258e-24)
(1.00002 -1.07796e-06 -9.99644e-26)
(0.992803 -0.000503081 2.03262e-22)
(0.982151 0.0737537 1.19079e-20)
(1.01559 -0.0218304 6.88184e-22)
(1.00292 -0.00406376 -9.80816e-23)
(0.916765 -0.0471001 2.14739e-21)
(1 -9.78552e-06 1.03953e-25)
(1.00109 -0.00135562 -8.87725e-23)
(0.99996 -0.000786364 -1.37825e-24)
(1.01701 -0.0207198 7.71851e-22)
(0.980858 -0.0200593 1.63644e-22)
(0.999578 -0.000326979 1.53037e-23)
(0.992728 -0.013488 1.57639e-22)
(0.985766 -0.00869305 -1.7045e-22)
(1.00113 -0.000187412 -7.37121e-24)
(0.999977 -8.1457e-06 -4.62924e-25)
(1.20372 0.0479944 6.86836e-23)
(0.999635 -0.00206978 4.87036e-23)
(1.07836 0.00469495 1.43897e-21)
(1.01027 0.112031 2.98527e-20)
(1.03911 0.0981362 -7.27887e-21)
(1.00191 -0.0242804 -3.19503e-22)
(1.00624 -0.00241942 -4.02334e-23)
(1.01978 -0.00149842 1.37481e-21)
(0.99997 -0.00283835 -2.99998e-24)
(0.997795 -0.0123843 1.63424e-22)
(1 -1.79214e-05 4.14991e-25)
(0.989981 0.104193 -6.00276e-22)
(0.986374 -0.0197804 2.2853e-22)
(1.01528 -0.00510242 -4.98642e-22)
(0.979071 -0.00563768 9.61771e-22)
(1.00464 -0.0147878 5.15397e-24)
(0.997066 -0.00699934 2.18743e-22)
(0.999886 -0.00023405 1.91477e-24)
(1.00002 -1.22996e-06 -6.10387e-25)
(0.994882 -0.00545585 -2.42983e-22)
(1.05907 -0.00451066 -8.81943e-22)
(1.00377 0.0417719 9.21646e-22)
(1.00137 -0.000553913 -1.08674e-22)
(0.974761 -0.0781153 -7.79105e-22)
(0.970967 -0.0290127 -3.12634e-22)
(0.990976 -0.000615618 -1.11663e-21)
(1.17678 0.118297 -2.594e-21)
(0.998541 -0.00113514 -5.39168e-23)
(1.00486 -0.0167371 -1.21597e-22)
(0.993771 -0.00335307 2.26319e-22)
(0.999895 -0.000225416 1.60176e-24)
(0.971192 -0.0932104 9.7319e-22)
(1.00159 0.0343411 -9.18797e-21)
(1.02698 0.0423224 -7.66831e-21)
(0.973492 -0.019214 -1.51346e-22)
(1.00113 0.0326683 -4.10756e-22)
(1.00009 -0.000251276 7.35729e-24)
(1.00001 -1.23209e-06 1.74257e-25)
(1.16025 0.129575 -2.73891e-21)
(1.16753 0.0546385 -1.20778e-21)
(0.923657 0.0860724 -7.60569e-22)
(1.01461 -0.102797 2.68871e-21)
(0.972497 -0.0019624 -7.07105e-22)
(1.15406 0.0221958 -1.39531e-21)
(1.0013 -0.000577403 1.23023e-22)
(0.993549 -0.00452421 1.29421e-22)
(1.0005 -0.00019256 -7.12036e-24)
(0.987629 -0.000874928 -2.38412e-22)
(0.986658 -0.0161326 -3.34999e-22)
(0.999995 -3.67598e-05 -1.6203e-24)
(0.999021 -3.83228e-05 2.13413e-23)
(0.997868 0.111539 -2.78558e-20)
(0.999855 -0.000817034 1.81549e-23)
(0.944201 0.0780655 1.9549e-20)
(1 -1.67704e-05 -3.16193e-25)
(1.2133 0.0861234 1.10153e-21)
(1.0789 0.00289314 -3.06103e-21)
(1.126 0.0142177 -2.25232e-21)
(1.00116 -0.000547612 7.32803e-24)
(1.0002 -4.74874e-05 1.21097e-23)
(0.986028 0.0700984 -1.81477e-20)
(1.08037 0.00784038 6.20238e-21)
(0.990298 -0.105047 -3.31034e-21)
(1.01875 0.0403927 3.47664e-21)
(0.998659 -0.0249727 1.35926e-22)
(0.984396 -0.00666748 -2.48311e-22)
(0.995397 -0.000257981 -1.35273e-22)
(1.08627 0.15486 -1.53535e-20)
(0.972747 -0.0346106 1.16362e-21)
(1.04046 -0.0335447 -5.01669e-22)
(0.993028 -0.0133463 -9.05934e-23)
(1 -9.78531e-06 -1.00663e-27)
(0.998557 -0.00107175 -4.58476e-23)
(1.00681 -0.00674848 2.11416e-22)
(0.978345 -0.0100867 1.22868e-21)
(0.974227 -0.019338 2.27021e-22)
(0.948997 -0.0550815 -3.45877e-22)
(0.978121 -0.0107037 -9.32038e-22)
(1.01783 0.00292385 6.3058e-22)
(0.997613 -0.000165267 2.81717e-24)
(0.924997 -0.053433 1.10873e-21)
(0.983522 -0.00113853 -3.41331e-22)
(1.00004 -0.000242427 3.40687e-25)
(0.98569 -0.000904928 -2.35798e-22)
(1.04188 -0.0365151 -7.94924e-22)
(1.01705 0.00310598 -3.48915e-21)
(0.970162 -0.0350173 -2.88583e-22)
(0.999986 -6.82936e-07 -6.99003e-27)
(0.979927 -0.0205598 2.45991e-22)
(1.00314 -0.0172424 2.34165e-23)
(1.00156 -0.0013469 2.97467e-23)
(1.21037 -0.112178 -3.55923e-21)
(1.00134 0.0315032 -2.12533e-20)
(1.00102 -0.00133922 8.23496e-23)
(0.985944 -0.000682106 3.18305e-24)
(1.13783 -0.0628293 -6.7597e-24)
(1.02731 0.000726302 5.4479e-21)
(0.991962 0.0257563 -1.99853e-21)
(1.0021 -0.0028426 2.64969e-23)
(1.00181 -0.0253267 9.99038e-23)
(1.07135 0.120709 -2.42656e-21)
(1.01397 0.0260299 -1.79298e-20)
(0.991095 -0.0340272 8.439e-22)
(1.00539 -0.00395207 -3.79118e-23)
(0.94362 -0.0661821 1.59101e-21)
(0.999997 -4.7973e-06 3.15237e-25)
(0.938887 -0.00279175 -1.12647e-21)
(1.00009 -7.87362e-05 1.51076e-24)
(1.13539 -0.0658159 -2.88464e-21)
(0.999967 -3.34006e-06 -4.75253e-25)
(1.00003 -6.9213e-05 4.26959e-25)
(1.00169 -0.0284339 -1.20254e-22)
(1.18759 0.089421 -1.74336e-21)
(1.02064 0.139044 1.24745e-20)
(1.04585 -0.0368229 -1.23709e-21)
(1.01642 -0.0164648 3.93899e-22)
(0.999999 -3.53632e-06 -9.49903e-26)
(0.993037 -0.00539023 -4.37222e-22)
(1.0001 -2.42784e-05 -1.16538e-24)
(0.996442 -0.00283989 1.52547e-22)
(1.00003 -6.42144e-05 -3.25435e-25)
(1.05152 -0.00545633 -4.98004e-21)
(0.999474 -0.000545847 -5.9731e-23)
(1.04747 0.0579985 7.64184e-21)
(0.999862 -0.000249775 -1.21124e-23)
(0.984984 -0.00650129 -4.20522e-22)
(0.949124 -0.00147658 2.62151e-21)
(0.995155 -0.000354508 -1.74626e-22)
(0.986475 0.0382239 1.92021e-20)
(0.979606 -0.000903148 6.42543e-22)
(1.05697 -0.121915 2.25813e-22)
(0.993723 -0.00474255 6.71245e-22)
(1.0266 -0.00219038 -1.14153e-21)
(0.971568 -0.0798483 3.40465e-21)
(1.02095 -0.00137724 -3.83627e-21)
(1.06145 -0.0743826 -8.20964e-23)
(0.999986 -2.12406e-06 6.91852e-26)
(1.00037 -0.0240363 1.11285e-22)
(0.995472 -0.00034032 2.12728e-23)
(1.00027 -0.000106104 9.31452e-24)
(1.00009 -2.06473e-05 1.90058e-24)
(1.08928 0.156895 1.66945e-20)
(0.994423 -0.00254927 3.75506e-22)
(1.02681 0.00160289 6.21119e-21)
(1.00262 -0.0258677 1.21648e-22)
(1.00096 -0.000351284 2.83083e-23)
(1.02568 -0.00789962 -4.21739e-21)
(1.00018 -4.45571e-05 -2.63086e-23)
(0.999977 -4.43921e-06 -6.6212e-26)
(0.939686 -0.00371569 8.69168e-22)
(0.996033 -0.00144278 1.69924e-22)
(1.00003 -6.248e-05 6.32848e-25)
(1.04819 0.0982803 5.47205e-21)
(0.892457 0.0694829 -2.74853e-20)
(0.999768 -0.000264664 2.90699e-23)
(0.951539 -0.0029651 -7.21627e-22)
(1.00001 -1.40617e-06 1.29101e-25)
(0.953121 0.102966 -1.81339e-20)
(1.21664 0.0900261 1.1605e-21)
(0.969364 -0.0636518 -2.7171e-21)
(1.00005 -0.000644722 -1.14935e-24)
(1.0389 -0.0325038 1.18954e-21)
(1.03174 -0.00118525 -1.57823e-21)
(1.03207 0.00183455 4.62267e-22)
(1.05326 -0.00775826 -6.20667e-22)
(0.999597 -0.00221927 -7.32583e-24)
(0.999852 -0.000980069 1.57034e-23)
(0.984134 -0.0198014 -7.27054e-22)
(1 -8.69624e-06 2.77292e-25)
(1.00001 -1.11639e-06 -3.24581e-26)
(0.971597 -0.0340767 -6.84547e-22)
(1.00682 -0.0773507 -1.43524e-21)
(0.950592 -0.0538801 -8.82099e-23)
(0.91153 0.0973466 -5.74432e-22)
(1.00022 -2.89792e-05 -1.12238e-23)
(1.03616 -0.0916832 -3.00335e-21)
(1.00833 -0.00594776 -3.7232e-22)
(0.999978 -4.89525e-06 7.57711e-25)
(0.998889 -0.00462906 -1.1915e-22)
(1.00004 -0.000545406 -4.13667e-25)
(0.995342 -0.0154454 2.57324e-22)
(1.00005 -1.14821e-05 1.0116e-24)
(1.06326 -0.0722469 -1.91513e-22)
(1.02058 -0.00169291 3.72007e-21)
(0.976252 0.113496 3.99049e-21)
(1.02612 -0.00211899 4.28812e-21)
(0.999694 -0.000258828 2.26256e-23)
(1.00051 -0.000451283 -2.72495e-23)
(1.22415 -0.0349678 -3.66231e-21)
(1.02684 0.00128725 -4.99797e-21)
(0.996504 -0.000464613 1.53166e-22)
(1.00002 -1.85183e-06 2.88486e-25)
(1.06225 0.0899553 -9.10712e-21)
(1.18589 -0.174247 -1.64997e-21)
(1.01412 -0.10024 -1.19718e-21)
(0.983052 -0.000970912 -1.80318e-22)
(0.999981 -2.29782e-05 1.52463e-24)
(0.999698 -0.000243942 -1.32377e-23)
(1.19493 -0.173954 4.64169e-21)
(1.00409 -0.0611821 -3.89301e-22)
(1.03451 0.0320726 1.09363e-21)
(0.981858 0.0993091 1.67554e-20)
(1.0542 -0.118889 1.6914e-21)
(0.998592 -9.86029e-05 -2.81026e-23)
(0.99998 -1.0814e-05 -1.77041e-24)
(0.959219 -0.0695032 2.68745e-21)
(0.990721 -0.138434 -3.69834e-21)
(0.999777 -0.000274188 1.56884e-23)
(1.01294 -0.0262404 3.02224e-22)
(0.991386 -0.0330593 -1.48715e-22)
(0.994716 -0.00273069 1.48277e-22)
(0.998574 0.0255965 -1.52923e-20)
(0.99856 -0.000639498 1.00111e-22)
(1.06923 -0.0479282 5.18049e-23)
(1.1353 0.147466 -7.00429e-21)
(0.99111 -0.00400203 -4.25283e-22)
(0.921712 0.081271 -2.75866e-21)
(0.928887 0.0386435 8.71938e-21)
(0.999968 -5.85709e-05 -5.67946e-24)
(0.99997 -0.000860411 -1.82408e-24)
(0.979862 -0.00119944 -4.11655e-22)
(1.01453 -0.00505468 -9.02821e-22)
(0.953703 -0.00272192 1.50727e-21)
(1.00588 -0.00489231 -3.89094e-22)
(0.991436 -0.00400984 3.98005e-22)
(0.999368 -0.000582935 -4.52113e-23)
(0.960862 0.103404 -3.22625e-21)
(1.04832 0.0559079 -1.19147e-20)
(1.00258 -0.00274885 6.83833e-23)
(0.85433 0.0445353 -5.39473e-21)
(1.00001 -9.65066e-07 -1.79579e-25)
(1.02423 0.00717921 -8.64049e-21)
(1.01238 -0.128107 2.63213e-21)
(1.03921 -0.0908126 1.17006e-21)
(1.0001 -0.000244019 -3.58828e-25)
(0.951324 -0.00149808 1.23998e-21)
(1.02175 0.00629816 4.85666e-21)
(1.01418 -0.00542563 7.47075e-22)
(1.03096 -0.000272452 2.1872e-21)
(0.999513 -4.34734e-05 8.49327e-23)
(0.999467 -0.000582031 5.41062e-23)
(1.03551 -0.0503164 1.80678e-22)
(0.996099 -0.00155439 -4.87965e-22)
(0.985535 -0.0147134 -7.91783e-22)
(0.999022 -0.00419134 7.06611e-24)
(1.0724 0.0477976 6.12414e-21)
(1.00016 -0.025091 -7.65836e-23)
(0.994388 -0.0058111 8.19247e-24)
(0.911441 -0.0401397 -3.15949e-21)
(0.994331 0.0838407 1.93456e-21)
(1.12488 -0.00917323 -1.54477e-21)
(1.02512 -0.00761423 3.3912e-21)
(0.999564 -0.000209781 1.62807e-23)
(0.999437 -0.000379972 7.32049e-24)
(0.980157 -0.0269392 1.8543e-21)
(1.00112 -0.00145889 -6.62472e-23)
(0.997076 -0.000817774 -2.77259e-23)
(0.999982 -2.17033e-05 -5.76655e-25)
(0.999641 -0.00226058 1.42427e-24)
(1.02116 0.00577677 -1.88823e-21)
(0.98509 0.0729619 -1.7383e-20)
(0.999866 -1.7318e-05 3.74187e-24)
(1.10553 0.148425 -1.41434e-20)
(0.999994 -4.61302e-05 6.85092e-25)
(0.996331 -0.00336619 2.07318e-22)
(0.999991 -0.00010948 7.63229e-25)
(1.0059 -0.00423354 -1.72501e-22)
(1.20791 0.0464444 -4.75998e-24)
(0.99996 -4.89127e-05 4.35853e-25)
(0.999959 -5.24475e-05 3.16813e-24)
(0.93536 -0.0631082 -1.48721e-21)
(1 -8.71097e-06 1.69553e-27)
(1.05653 -0.00685804 5.22091e-21)
(0.989702 -0.0531551 1.50481e-21)
(0.999973 -0.000755553 1.61958e-24)
(1.06437 0.0731401 -7.07647e-21)
(0.999999 -3.31316e-05 -5.63004e-25)
(0.999569 -4.48639e-05 7.45817e-23)
(0.999908 -4.07692e-05 1.22645e-25)
(0.994594 -0.0058178 -1.25137e-22)
(0.999626 -0.00180139 -2.341e-23)
(0.992944 -0.000381389 -1.36651e-22)
(1.03549 -0.152188 -3.06424e-22)
(0.999669 -0.00175362 1.56514e-23)
(1.00473 -0.00396947 -1.33948e-22)
(0.999976 -3.31557e-06 -2.8078e-25)
(1.02232 0.136747 -2.43163e-20)
(1.06767 -0.0497823 6.67423e-23)
(1.12793 -0.00867693 -6.30176e-23)
(0.957223 -0.0080785 1.62247e-21)
(0.973092 -0.00552809 -2.98328e-22)
(0.998989 -0.00452479 1.96706e-22)
(1.00329 -0.00305238 1.86191e-22)
(1.03728 0.0665436 3.18383e-21)
(0.98302 -0.047927 2.22377e-22)
(1.08813 0.11053 3.46407e-21)
(0.946169 -0.018782 -2.93203e-21)
(0.996198 -0.0032516 -1.95432e-22)
(0.999991 -4.69783e-06 -7.45483e-25)
(0.993554 -0.00336794 -2.72847e-22)
(1.00404 0.130349 6.02925e-21)
(1.05626 0.0792512 -1.63788e-21)
(0.98712 -0.0728102 1.23497e-21)
(0.924897 -0.00838749 6.79776e-22)
(1.02628 0.130944 6.66723e-21)
(0.990268 -0.000704186 3.52517e-22)
(1.00249 -0.118229 2.09557e-22)
(0.999992 -0.000104735 1.76444e-24)
(0.988319 -0.0536147 1.87565e-21)
(0.999083 -0.000263309 -1.06014e-22)
(0.865962 0.0752314 -1.54708e-20)
(0.988051 -0.0975937 -2.73559e-21)
(0.99991 -3.66431e-05 7.12528e-24)
(0.920237 -0.0274956 -1.75964e-22)
(0.983255 -0.0509296 9.55422e-23)
(1.02543 0.0707533 1.12113e-20)
(0.997116 -0.000892344 -2.61662e-22)
(0.980556 -0.0494325 -6.66061e-22)
(0.997598 -0.0127112 -2.27875e-22)
(1.00167 -0.0274448 -2.49668e-22)
(0.998598 -0.00065062 -6.84113e-23)
(1.02451 0.0693701 -1.36141e-20)
(1.10702 -0.198792 3.1539e-21)
(0.979903 -0.0214111 -5.45331e-22)
(0.984723 -0.0183668 1.16564e-23)
(0.985108 -0.00613863 -1.69449e-22)
(1.00585 -0.00230358 -1.58255e-22)
(1.02775 0.127995 2.6319e-20)
(0.979608 -0.017359 2.47013e-22)
(1.01254 0.0380452 7.58177e-21)
(1.00303 -0.00245254 1.41603e-22)
(1.21958 0.0171276 -1.16786e-22)
(0.941706 0.0834817 2.87142e-21)
(0.99007 -0.000549412 -1.2192e-21)
(0.999757 -4.64176e-05 1.50134e-23)
(1.03647 0.0856814 3.38842e-21)
(0.99571 0.107189 -2.25367e-20)
(1.03413 -0.0485593 -1.939e-22)
(1.09645 -0.0285504 1.61039e-22)
(0.995115 -0.0160391 -2.86796e-22)
(0.95791 -0.00729268 -9.61775e-22)
(1.06961 0.118365 9.77284e-21)
(0.957412 -0.070029 4.46269e-22)
(0.999979 -2.21694e-05 1.94917e-24)
(0.991586 -0.000135484 -6.28936e-22)
(1.00004 -5.95071e-06 9.8557e-25)
(0.994986 -0.000318662 4.73886e-22)
(0.999978 -2.36752e-05 -3.03403e-24)
(0.99839 -0.0177445 3.7451e-22)
(0.998954 -4.26302e-05 3.76324e-23)
(0.997012 -0.00663606 2.54744e-23)
(1.22102 -0.0147078 -5.55131e-22)
(0.999352 -0.000445972 3.85948e-23)
(0.99946 -0.000226934 2.64203e-23)