/*--------------------------------*- C++ -*----------------------------------*\
  =========                 |
  \\      /  F ield         | OpenFOAM: The Open Source CFD Toolbox
   \\    /   O peration     | Website:  https://openfoam.org
    \\  /    A nd           | Version:  7
     \\/     M anipulation  |
\*---------------------------------------------------------------------------*/
FoamFile
{
    version     2.0;
    format      ascii;
    class       volVectorField;
    location    "26";
    object      U;
}
// * * * * * * * * * * * * * * * * * * * * * * * * * * * * * * * * * * * * * //

dimensions      [0 1 -1 0 0 0 0];

internalField   nonuniform List<vector> 
7807
(
(1.08249 0.112963 3.36699e-20)
(1.07303 -0.0221446 1.04561e-19)
(1.0477 0.0962692 -5.426e-20)
(1.05559 0.0746696 1.08176e-19)
(1.03175 -0.00183182 1.67822e-20)
(0.957473 -0.0115189 1.30466e-20)
(1.04813 0.0940859 -1.07687e-19)
(1.0177 -0.00167147 4.1553e-22)
(1.02947 -0.00150918 1.48346e-20)
(1.03641 0.00302069 -9.29897e-21)
(1.00152 -0.00745925 -1.44678e-20)
(1.0322 -0.00220519 -2.66238e-20)
(0.985668 -0.00253335 -2.57503e-20)
(1.03838 -0.000676239 -1.10315e-19)
(1.03513 0.00318906 3.88153e-20)
(1.02671 -0.00888115 4.12346e-20)
(1.08318 0.116939 -7.14639e-20)
(0.966736 0.00050909 7.1918e-21)
(1.03356 -0.00563297 -2.09181e-20)
(1.01858 -0.0717091 8.8705e-21)
(1.05112 0.00496045 -2.97292e-20)
(1.03187 0.0002522 7.57214e-20)
(1.04004 -0.00144209 1.42791e-20)
(1.01593 0.0434576 -6.58554e-20)
(0.936461 0.00293265 2.5591e-20)
(1.0798 0.111296 -3.37847e-20)
(1.03203 -0.00156883 1.40263e-20)
(1.04173 0.000741285 3.63476e-20)
(1.00731 0.0216056 -9.58333e-21)
(1.03365 -0.00572428 1.86667e-20)
(1.02293 -0.00921103 5.8834e-20)
(0.534174 0.00990734 1.11656e-20)
(1.03943 -0.00156453 7.69676e-20)
(1.02978 -0.00261587 -3.20398e-20)
(0.502845 -0.000133622 -6.10412e-23)
(1.03826 0.00305506 1.48246e-20)
(1.03441 -0.00692913 1.3747e-20)
(1.04758 0.0935067 -1.82901e-20)
(1.0289 -0.00527544 -7.4565e-20)
(0.889064 -0.00385828 -3.95139e-20)
(1.02926 -0.00530263 7.50305e-21)
(1.02677 -0.0084687 1.53883e-20)
(1.04185 -0.0794468 -4.22293e-20)
(1.15395 -0.015801 -1.49486e-20)
(0.472081 -0.00237269 -1.87989e-20)
(0.918116 0.0075765 8.29187e-21)
(1.03074 0.000408468 -4.60612e-20)
(1.02977 -0.00478214 4.38938e-20)
(1.02864 -0.00220814 8.10514e-21)
(1.02222 -0.0722879 -1.30649e-20)
(1.03263 -0.00172613 2.12302e-20)
(1.04248 0.00146101 -3.92554e-20)
(0.888792 0.00282749 6.98378e-20)
(1.03956 -0.0187283 1.49683e-20)
(1.03858 0.00226751 -1.14119e-20)
(1.02879 -0.00286122 7.62028e-21)
(1.03258 -0.00478273 3.29976e-20)
(0.998515 -0.00157131 -4.90502e-20)
(1.01587 -0.0108202 6.71811e-20)
(1.02959 -0.00311358 3.89233e-20)
(1.02785 -0.00133739 -1.95888e-20)
(1.03396 -0.000165739 2.01713e-20)
(1.03895 -0.000200216 -2.49358e-20)
(1.03156 -0.00154337 2.7185e-20)
(0.908557 -0.00853871 -2.88745e-20)
(1.02333 -0.00960554 -9.39038e-21)
(1.02856 -0.00189473 -1.37977e-20)
(1.02576 0.000239694 2.00021e-21)
(1.14193 0.077941 3.40117e-20)
(1.02998 -0.00429253 1.76845e-20)
(0.989298 -0.00183727 -7.51694e-21)
(1.01049 -0.0394551 7.87263e-20)
(0.97651 -0.000645745 -1.26384e-20)
(0.804792 -0.00298765 -1.06995e-20)
(0.996499 -3.52878e-05 -2.25392e-20)
(1.00515 -0.0177387 1.0728e-20)
(1.04821 0.097114 8.6935e-20)
(1.04969 0.00447857 3.73587e-20)
(1.09405 0.0157977 -7.66596e-20)
(0.998547 -0.0311316 8.89543e-20)
(1.00847 -0.00335988 3.96657e-20)
(1.02595 0.10115 1.23434e-19)
(1.05282 0.0158024 6.54131e-20)
(0.97588 -0.00314477 -4.79619e-20)
(1.02962 -0.00241539 2.2667e-20)
(0.774165 -0.00367033 -1.2164e-20)
(1.0257 -0.00294129 -6.55301e-20)
(0.93728 -0.00102871 -4.46237e-20)
(1.03082 -0.00157445 -1.91963e-20)
(0.772581 -0.00584066 -2.34924e-20)
(1.00769 0.0245272 6.80155e-20)
(1.17905 0.00137805 2.32064e-20)
(1.02429 -0.0023139 1.38212e-20)
(1.03247 -0.00453689 1.54189e-20)
(1.00265 -0.00341805 -2.80837e-20)
(0.535241 -0.00370067 8.27621e-20)
(1.01234 -0.039266 -4.73844e-21)
(1.0407 -0.0176764 -2.57912e-20)
(1.02931 -0.0023599 -4.5349e-21)
(0.860578 0.00727183 -8.24109e-21)
(0.870635 -0.0116098 -2.26035e-20)
(1.09431 0.0201222 5.7651e-20)
(1.01882 -0.00129152 6.94619e-20)
(0.521787 -0.00129107 9.98506e-22)
(1.18035 0.0117739 1.46667e-20)
(1.04057 0.0412132 -6.54161e-20)
(0.769818 0.0438685 1.51587e-20)
(1.02816 -0.00286983 2.91014e-20)
(1.02439 -0.00107896 -6.82193e-22)
(1.04708 -0.00510819 -3.15541e-20)
(1.05701 0.0716688 -1.25552e-19)
(1.05452 -0.0552226 7.99602e-20)
(1.02521 -0.00100786 8.55536e-22)
(1.04847 -0.00508728 -6.84625e-21)
(1.03661 0.0400207 6.82848e-20)
(1.03023 -0.000341788 -1.03046e-20)
(1.09481 -0.0638556 5.85366e-21)
(1.04062 0.0260169 -1.80991e-20)
(1.01995 -0.0306336 -4.82984e-20)
(0.883214 -0.000412674 1.14413e-20)
(0.661742 -0.00561595 5.33053e-20)
(1.0084 0.0591274 -8.21751e-20)
(1.04733 -0.0780527 5.80156e-20)
(1.03656 -0.00346158 8.82046e-21)
(0.741473 -0.00752588 -2.09306e-20)
(1.03064 -0.00181737 -4.07858e-20)
(1.02453 -0.00661338 -2.15905e-20)
(1.03265 -0.00496686 -2.53264e-20)
(0.769821 0.00821882 6.65245e-20)
(1.02351 -0.00824698 -1.41836e-21)
(1.21279 -0.00829519 6.73824e-21)
(1.08942 0.0133796 1.28595e-20)
(1.03048 -0.00310733 -3.0106e-21)
(1.03044 -0.00169323 4.26237e-20)
(0.943794 -0.00371843 -1.37289e-20)
(1.05388 0.0666614 4.99558e-20)
(1.02964 0.115507 1.3936e-19)
(0.762043 0.00929389 2.06339e-21)
(1.03658 -0.00175854 4.83832e-21)
(0.555783 0.00514702 5.75142e-20)
(0.686162 -0.00376567 4.7183e-20)
(1.0238 -0.044077 6.05182e-20)
(1.00618 -0.0193165 -1.43785e-20)
(0.795997 -0.000326823 8.42674e-22)
(0.61976 0.0036933 5.99119e-20)
(1.04206 -0.0303838 3.95488e-21)
(1.0157 0.0263349 -3.63015e-20)
(1.0176 -0.013698 3.6093e-20)
(0.589305 0.00391472 -1.01886e-20)
(1.01141 0.0817881 -4.1014e-20)
(1.03997 0.00339075 4.33186e-20)
(1.16818 -0.00268199 1.01563e-20)
(1.03073 -0.00160268 6.39106e-20)
(1.14687 0.072056 8.09759e-21)
(1.05091 0.0149946 -6.93041e-20)
(1.0489 0.0929356 -9.44505e-20)
(1.00116 -0.0215514 -3.86994e-20)
(0.914237 -0.00590384 -9.77887e-21)
(1.04593 0.0756153 1.37302e-19)
(1.02741 -0.0068443 8.69843e-21)
(1.03249 -0.00462066 -3.84778e-20)
(1.01666 0.0479868 4.52603e-20)
(1.02566 -0.00225111 -1.05255e-20)
(1.03015 -0.00348535 7.71631e-20)
(0.966705 0.00127428 1.23835e-20)
(1.00696 0.0553089 -1.36499e-20)
(1.0039 0.0414273 4.91086e-20)
(1.03532 0.0700631 4.26776e-20)
(1.02991 -0.00372051 3.33759e-20)
(0.705536 0.000590742 1.58064e-20)
(1.0269 0.00107139 -2.00084e-21)
(0.423374 -0.00330221 8.50714e-20)
(1.03053 -0.000611807 1.37739e-20)
(1.07425 -0.018912 -1.22339e-19)
(1.03635 -0.00204199 3.15316e-20)
(0.682913 -0.00230826 -1.99231e-20)
(1.17112 0.0194506 2.73762e-20)
(1.10667 0.0748161 2.76585e-21)
(1.02757 -0.00255278 -8.013e-21)
(1.03069 -0.00195275 3.93991e-20)
(1.0575 0.0767562 -1.79986e-20)
(0.995999 -0.00196667 3.5687e-21)
(0.702376 -0.0129927 -4.50293e-21)
(1.04797 0.093905 -8.84628e-20)
(1.07526 -0.0246179 5.2983e-20)
(1.04241 -0.0459988 5.1012e-20)
(1.02141 -0.0295521 6.93231e-20)
(0.944925 -0.00298557 -3.47102e-20)
(1.03983 -0.0316054 -9.75971e-21)
(0.510199 -0.00337539 -3.06483e-20)
(1.02495 -0.00261367 3.32072e-21)
(1.01296 -0.0365427 1.93841e-20)
(1.10825 0.080535 -5.1364e-20)
(1.02598 -0.00125002 -9.9829e-21)
(1.02908 -0.000457491 -9.77157e-21)
(1.08545 0.0769892 4.03966e-21)
(1.01974 0.0017381 -6.39705e-20)
(1.02411 -0.00784761 -3.21921e-20)
(1.03743 -0.0298379 -3.4972e-20)
(1.02737 -0.000835046 -8.4091e-22)
(1.0309 -0.00158039 -3.32316e-20)
(1.05077 0.067398 5.66089e-20)
(1.0981 0.0843889 -5.80923e-20)
(1.04624 0.0926644 -1.23931e-20)
(1.09058 -0.058528 -3.30108e-20)
(1.05749 -0.0519127 -1.64499e-20)
(1.13908 -0.0862484 8.45713e-21)
(1.04069 -0.000804483 9.80775e-20)
(1.0469 0.0655234 -2.09349e-20)
(0.660759 -0.0183195 1.89469e-20)
(1.02874 -0.000706623 5.66817e-21)
(0.474423 0.0456207 -6.37333e-20)
(1.02736 -0.00829212 1.67124e-20)
(1.03037 -0.00340468 2.67484e-20)
(1.01474 -0.0359571 -4.48779e-20)
(1.02416 -0.00698971 2.39473e-20)
(1.05031 0.0890529 -1.13266e-19)
(1.04822 0.0894728 -2.52282e-20)
(1.02167 -0.045241 -1.56175e-20)
(0.80631 0.0262034 -4.53373e-20)
(1.03033 0.0010018 4.85101e-20)
(0.915152 -0.00193901 -2.52555e-20)
(0.818437 -0.0101336 -2.92832e-20)
(1.04845 0.00828688 -1.94032e-20)
(1.04659 -0.102642 3.894e-21)
(1.09646 0.113961 -8.08171e-20)
(1.04494 0.0732079 -1.19825e-19)
(1.02819 -0.00144955 1.42114e-20)
(1.03601 -0.00347939 1.16323e-20)
(1.03799 0.0288121 9.46266e-20)
(1.02977 -0.00398312 5.85415e-20)
(1.04366 0.0266028 -1.2477e-20)
(1.03068 -0.00155205 1.39191e-20)
(0.991066 0.0602527 8.35434e-20)
(1.04809 0.0917451 1.94798e-20)
(1.01982 -0.00201927 -3.99937e-20)
(1.03357 -0.00505892 -2.30845e-21)
(0.949599 -0.00359722 7.53971e-20)
(1.12367 0.0985668 2.754e-20)
(0.688228 0.0118952 -1.38477e-20)
(1.02878 -0.00635877 -1.63734e-20)
(0.926888 -0.0190575 -3.36515e-20)
(1.02522 -0.00419622 3.11908e-21)
(1.02979 -0.00253621 1.6817e-20)
(1.03067 -0.00164363 -1.54423e-20)
(1.07852 0.0539901 6.35235e-20)
(1.02658 -0.0022494 -1.37783e-20)
(0.640411 0.00436668 -9.21167e-23)
(1.00055 -0.0311017 -1.03784e-19)
(0.417148 0.0144409 -2.43908e-20)
(1.08906 0.009175 -1.89557e-20)
(0.990881 0.0535444 6.67969e-20)
(0.895574 -0.00204133 1.0149e-20)
(1.03555 -0.030571 -2.9804e-21)
(1.02957 -0.00246712 3.0719e-20)
(1.04848 0.093755 -9.01035e-20)
(1.03267 0.000414502 -2.49087e-20)
(1.03926 0.134324 4.41337e-20)
(1.03329 -0.00630283 -6.19645e-20)
(1.03163 -0.00131717 4.23046e-20)
(1.05399 -0.019346 -4.7517e-20)
(1.04011 0.000191856 -9.14387e-20)
(1.03047 -0.00058152 2.12813e-20)
(0.960713 -0.00591673 -1.35037e-21)
(1.03049 -0.000818499 5.37402e-20)
(1.02985 -0.00418358 4.94445e-20)
(1.04852 -0.0476885 -6.34971e-20)
(0.97796 -0.0078468 -6.67956e-21)
(1.00246 -0.0204905 -2.83269e-20)
(1.00227 7.86279e-05 2.63812e-21)
(1.01675 -0.00399697 -1.45906e-20)
(1.03066 -0.00322733 -8.03555e-21)
(1.04835 0.116493 1.04964e-19)
(0.588721 -0.00280691 -1.17968e-20)
(0.753994 0.00349948 7.29447e-21)
(0.313009 0.0255911 1.03495e-19)
(1.02966 -0.00278066 3.19128e-20)
(1.07582 0.0926922 -4.35841e-20)
(1.02949 -0.0025067 -4.47932e-20)
(1.03677 -0.0138254 4.56355e-20)
(1.02818 0.000876934 -6.26466e-22)
(1.01955 -0.0240471 2.97563e-20)
(1.0484 0.00771111 2.80131e-20)
(1.17183 0.0278753 -6.33186e-20)
(1.01609 -0.0120183 -5.75754e-20)
(1.03011 -0.00206774 -4.91706e-20)
(1.01775 -0.0597656 -2.23813e-20)
(0.152313 0.000390615 -3.17469e-20)
(0.656721 0.015149 -2.30674e-21)
(1.03054 -0.000755643 -4.76838e-20)
(1.03034 -0.00267542 -3.70301e-20)
(0.866452 -0.0102763 3.77885e-20)
(1.03371 -0.000887779 -4.10891e-20)
(1.03035 -0.00173019 -2.12935e-20)
(0.977924 -0.00268929 -8.1065e-21)
(1.05218 -0.0455978 4.26721e-20)
(0.942701 -0.000783215 -3.52048e-20)
(1.14724 -0.00936652 4.2802e-21)
(0.853542 -0.00279008 3.73226e-20)
(1.05383 0.0967818 1.01948e-20)
(1.05241 0.0977864 -7.66144e-20)
(1.03069 -0.000878879 3.36779e-20)
(1.19094 0.0285459 7.99367e-20)
(1.01297 -0.00248239 1.17423e-21)
(1.03053 -0.0032401 3.93984e-20)
(0.38447 0.00418057 -8.53337e-20)
(1.01193 0.0390641 3.87648e-20)
(1.05354 0.020421 -5.77016e-20)
(1.02828 -0.00173698 1.93976e-20)
(1.03053 -0.00270469 5.73885e-21)
(0.906321 -0.0027993 -2.81735e-20)
(1.0649 0.0496805 -2.56884e-20)
(1.03072 -0.00181905 -2.31005e-20)
(1.03171 -0.00106728 1.88875e-20)
(1.03135 -0.000529934 -4.42028e-21)
(1.12877 0.0379434 6.60433e-20)
(1.21313 -0.0197144 4.14726e-20)
(1.06196 0.106339 5.0631e-20)
(0.831229 0.00246548 3.16389e-20)
(1.08288 -0.0221595 -1.03661e-19)
(1.02775 -0.00227285 1.40823e-20)
(1.03418 -0.00469773 -6.48704e-20)
(1.00288 -0.00383866 3.07214e-21)
(1.02188 -0.0133652 -9.90972e-21)
(0.959218 -0.0034685 1.28873e-20)
(1.03997 -0.0129226 6.38305e-21)
(1.21077 0.033236 -6.759e-20)
(1.0124 -0.0186699 -5.62087e-20)
(1.03764 -0.0131067 -1.33185e-20)
(1.03531 -0.00291125 -1.91678e-20)
(0.879809 -0.00847317 -3.39024e-20)
(1.04938 -0.00838697 2.09407e-20)
(1.0298 -0.0117766 -2.91479e-20)
(1.08895 0.0239399 -2.87097e-20)
(1.07415 0.0524923 3.08226e-20)
(1.18584 -0.0916005 -5.78236e-22)
(1.15212 -0.0244706 3.74122e-20)
(0.272436 -0.00186056 3.39439e-20)
(1.03416 -0.00198525 4.54223e-20)
(0.930084 -0.0178811 1.37821e-20)
(1.01815 0.0640862 -1.33694e-19)
(1.13501 -0.0269333 -6.59433e-20)
(1.04735 -0.00253101 -6.20117e-20)
(0.887541 0.0372364 -6.32842e-20)
(0.734727 -0.0125052 -1.55658e-20)
(1.03041 -0.000894904 9.20522e-21)
(1.16614 -0.011961 3.71073e-20)
(1.03065 -0.00206915 1.88712e-20)
(1.04215 -0.0278783 -1.35457e-20)
(1.03451 -0.00205971 1.44849e-20)
(0.788667 -0.00158409 1.48642e-20)
(0.837072 -0.000878974 3.09143e-20)
(1.04399 0.0358071 5.19394e-20)
(1.02859 -0.0017715 6.01717e-21)
(1.03052 -0.000264505 -1.87378e-20)
(1.02819 -0.00037273 1.68546e-20)
(0.882816 0.00497818 -6.80211e-20)
(1.02829 -0.00586014 -4.42158e-20)
(0.975356 -0.00653446 -8.10164e-22)
(0.971981 0.00231337 -4.59963e-21)
(1.01683 -0.0100965 -2.08744e-20)
(0.696977 0.0152913 3.60325e-20)
(1.03907 -0.0138332 -2.86716e-20)
(1.02757 -0.00776616 -6.18342e-20)
(1.06163 0.0854034 1.75497e-20)
(1.00442 0.0479466 7.90025e-20)
(1.08022 0.0134613 -2.75205e-20)
(1.1829 0.0326873 -3.04485e-20)
(0.313349 0.0055777 -4.63488e-20)
(1.03417 -0.00233717 -2.37449e-20)
(1.01771 0.0654604 -3.9321e-21)
(0.834402 -0.00315764 5.46675e-20)
(1.06449 0.0928334 2.10241e-21)
(1.03965 -0.0342504 -1.682e-21)
(1.06696 -0.0891158 1.87225e-20)
(1.09471 0.0818415 3.581e-20)
(1.06601 0.0957149 -4.95734e-20)
(1.00215 -0.0172529 -6.68616e-20)
(1.05497 0.0184162 -4.07328e-20)
(1.09931 0.117691 7.59074e-20)
(1.07216 0.0930461 7.76337e-20)
(1.04211 0.00150444 3.1574e-20)
(1.02792 -0.00126513 -1.64674e-20)
(1.02873 -0.00292258 -1.12921e-20)
(1.00999 -0.00134305 7.02434e-21)
(1.04395 -0.0169178 1.97426e-20)
(0.742089 0.0033701 -1.22856e-20)
(1.03078 -0.00228042 -2.4118e-20)
(0.956938 -0.00470252 1.23335e-20)
(1.0296 -0.000658342 -1.27544e-20)
(1.01547 -0.0586689 3.69606e-20)
(1.11426 0.0465085 2.44273e-20)
(0.983856 -0.00315695 5.23793e-20)
(1.03065 -0.0076267 -7.04611e-20)
(0.884604 0.0029416 3.50737e-20)
(1.08081 -0.0247962 3.66364e-21)
(0.899835 -0.00695391 6.70302e-20)
(1.03244 -0.00436736 4.60527e-20)
(1.10918 0.115142 1.19932e-20)
(0.871804 0.00331448 7.65378e-20)
(1.02736 -0.00223375 1.16438e-20)
(1.02898 -0.00178862 4.18746e-21)
(1.02822 -0.00165077 2.68554e-20)
(0.979393 -0.00274404 -1.9945e-20)
(1.04196 0.0332025 -6.53201e-20)
(0.752333 -0.00564578 -9.16372e-22)
(1.04473 -0.00315704 4.23854e-20)
(1.05418 -0.107458 -2.77395e-20)
(1.04759 0.0940107 -2.051e-21)
(1.03368 -0.00494001 2.46173e-20)
(1.03576 -0.00292972 -4.27436e-21)
(1.02788 -0.00276848 3.26704e-20)
(1.03869 0.115422 -1.03534e-19)
(0.750293 -0.00224749 -1.70054e-20)
(1.06355 0.108681 -2.62756e-20)
(1.0124 0.0273592 -6.67978e-20)
(0.981427 -0.00325221 -1.36723e-20)
(1.03797 -0.035086 3.83109e-20)
(0.947822 -0.00230472 3.30638e-20)
(1.02667 -0.0448261 -7.60401e-20)
(1.03013 0.000259368 1.80044e-20)
(1.07571 0.0156308 3.72365e-20)
(1.03613 -0.00978706 -1.37853e-21)
(1.03535 -0.00222902 7.12967e-21)
(0.913192 -0.00642593 4.3294e-20)
(1.08275 0.0516222 3.32244e-20)
(1.06057 0.0486635 9.66057e-21)
(1.04087 -0.048234 -4.31263e-20)
(1.01744 -0.0124762 3.73897e-21)
(1.0305 -0.00286089 2.6051e-20)
(1.03329 -0.0273663 8.84562e-20)
(1.14363 0.0638219 -4.97173e-20)
(0.637354 0.0198846 -5.55973e-20)
(1.10624 -0.0516233 3.06128e-20)
(1.03469 -0.00492189 -1.34959e-20)
(1.02537 -0.00112446 6.75128e-22)
(1.00624 -0.00239967 5.12557e-20)
(0.846903 -0.00269581 -6.13926e-20)
(1.0488 -0.00863256 3.46467e-20)
(1.03896 -0.0838854 1.51312e-20)
(1.19109 0.0171862 -3.02368e-20)
(1.05047 0.0959406 -1.18639e-19)
(1.06838 0.0465345 4.62273e-20)
(1.13968 -0.075632 -3.11217e-20)
(1.08554 0.0817292 1.37887e-20)
(1.01411 0.0805473 1.28653e-19)
(1.04233 -0.00166255 3.62378e-20)
(1.031 -0.00149542 5.31649e-20)
(1.04576 0.0732995 2.8269e-20)
(1.03067 -0.00203623 -4.01563e-20)
(1.0289 -0.00273969 -1.2011e-20)
(0.541851 -0.00131497 -1.35078e-20)
(1.02993 -0.00149051 4.08724e-21)
(1.14842 -0.0928984 -1.11156e-20)
(1.03438 -0.0110332 3.25478e-20)
(1.02107 -0.0237151 -5.39173e-20)
(1.03138 -0.00100356 1.70421e-20)
(1.0812 0.0748489 7.63097e-20)
(0.87972 -0.000696356 6.33604e-21)
(1.02721 -0.00240782 8.00412e-23)
(1.06084 -0.0938564 -1.93588e-20)
(1.03131 -0.000364134 -1.05274e-20)
(1.11576 0.0121677 -7.20742e-21)
(0.873602 -0.0112916 -1.13081e-20)
(0.726704 -0.00372805 -3.38035e-21)
(1.18978 0.0703279 -5.71118e-21)
(1.03494 0.0276078 -2.41976e-20)
(1.03167 0.00923743 1.66659e-20)
(1.02968 0.00844215 -7.84302e-21)
(0.932672 -0.00734925 -3.8081e-21)
(1.12093 0.0462833 1.93014e-20)
(1.08915 0.0275721 3.46773e-20)
(1.03114 -0.00250607 -1.59711e-20)
(1.0022 -0.00297984 -6.05303e-20)
(1.03091 -0.000394976 -1.99576e-20)
(1.03981 -0.0116846 -7.52236e-20)
(1.03872 -0.018302 1.4003e-20)
(1.03445 -0.00116328 -4.48967e-22)
(1.03059 -0.00189232 5.03699e-20)
(1.12343 0.0923299 -8.15738e-20)
(1.02633 -0.00292222 1.41586e-20)
(1.03003 2.8957e-05 -1.17556e-20)
(1.03317 -0.00111014 -2.50626e-22)
(0.643412 -0.00283247 -3.27468e-20)
(1.04277 -0.00488171 4.2333e-20)
(1.02043 -0.0195071 8.00497e-20)
(0.717958 0.00126752 1.63353e-20)
(1.04526 -0.0452371 -2.86245e-20)
(1.0725 -0.115635 3.0508e-20)
(1.05235 -0.0174804 2.53748e-20)
(1.04955 0.0721147 -1.62759e-19)
(1.20185 0.037386 4.05456e-20)
(1.02196 -0.00338971 4.02609e-21)
(0.97221 0.0550085 9.64777e-20)
(1.0144 -0.0410463 -7.19871e-20)
(1.02812 -0.00636596 -1.32238e-20)
(0.655686 0.00458843 -2.82636e-20)
(1.03032 -0.0114917 6.07432e-21)
(0.545603 0.00561122 -5.29221e-20)
(1.01608 -0.00246413 1.86983e-20)
(1.04807 -0.00435603 -4.7093e-20)
(1.14272 -0.0295483 1.43301e-20)
(1.02732 -0.00231612 1.12125e-21)
(1.04563 -0.00462694 -3.37683e-21)
(1.00869 0.00247214 7.20242e-21)
(1.05063 0.0928644 2.54932e-20)
(1.14259 0.0833671 7.56138e-20)
(1.02513 -0.00235668 -1.12526e-20)
(0.612093 -1.77868e-05 6.31403e-20)
(0.996379 0.000340732 2.47807e-20)
(1.01874 0.100724 8.16949e-20)
(1.05958 0.0955278 6.29663e-20)
(1.12347 0.0393086 -3.59816e-20)
(1.12551 0.113236 -6.44457e-20)
(1.01433 -0.0438158 3.07718e-20)
(1.01973 0.0714134 -1.2329e-19)
(1.02856 -0.00174858 -1.25678e-20)
(1.06836 -0.0113236 8.21963e-20)
(0.416668 0.0106298 1.62862e-21)
(1.10072 0.0727088 -1.93514e-20)
(1.01878 0.0643205 -8.4207e-20)
(1.1474 0.0582775 7.56816e-20)
(1.0628 0.0407592 7.52843e-21)
(1.03111 -0.00759181 2.12797e-20)
(1.02521 -0.00344994 2.13438e-20)
(1.12913 0.10178 2.86375e-20)
(1.20073 -0.00239308 -1.2675e-20)
(1.03571 0.110036 -3.11246e-21)
(1.10948 0.0105 8.90755e-20)
(1.0473 0.0612857 5.08576e-20)
(1.00896 -0.00471018 1.22053e-20)
(1.04759 0.0960868 3.25848e-20)
(1.06125 0.0928242 2.37761e-20)
(1.01514 -0.000512983 5.69346e-20)
(1.02402 -0.00350265 2.53417e-20)
(1.13888 0.095006 2.07043e-21)
(0.669754 0.00416647 5.65448e-20)
(1.02853 -0.00179347 1.66194e-20)
(1.01688 -0.00272672 -6.69438e-20)
(0.851144 -0.0142842 -4.28048e-20)
(1.02457 -0.0573648 7.76589e-21)
(1.03624 -0.00164779 -6.61282e-20)
(1.03525 -0.0024594 5.92518e-21)
(1.02996 -0.00232846 2.13473e-20)
(1.06066 0.0981183 -9.34377e-20)
(1.032 -0.00737701 -5.45594e-21)
(1.02767 -0.00209309 -6.49843e-21)
(1.05161 -0.0411094 -5.10325e-20)
(1.03026 -0.00298595 -1.26176e-20)
(1.01499 -0.00526038 -2.09993e-21)
(1.03418 -0.00717269 -1.45464e-20)
(1.07307 0.0755935 9.79328e-20)
(1.05278 -0.0823775 -2.90617e-20)
(1.05673 0.0782956 5.17279e-20)
(1.02845 -0.000957705 -1.31962e-20)
(1.07697 0.0777281 -1.03757e-19)
(1.04487 -0.0347189 -3.98668e-20)
(1.02905 -0.00210849 4.36565e-21)
(1.02777 9.84573e-05 -6.64648e-21)
(1.0041 0.0161857 -1.14122e-20)
(1.06855 0.068732 3.72336e-20)
(1.02893 -0.00283921 -1.20916e-20)
(1.06289 0.0577845 -5.29919e-20)
(1.02751 -0.000172453 4.92249e-21)
(1.064 0.0624418 -7.14537e-20)
(1.17261 -0.0951339 -3.04186e-20)
(0.996581 -0.000593768 -6.16697e-20)
(1.00453 0.0495332 -1.63729e-19)
(1.01502 -0.0336041 -5.43815e-20)
(1.12942 0.109058 6.60903e-20)
(0.678749 -0.00276929 -1.66228e-20)
(1.06808 0.0641507 9.16603e-20)
(1.0727 0.0705883 -2.68857e-20)
(1.01875 -0.00373645 -9.1149e-20)
(1.00957 -0.00378701 5.41898e-20)
(1.02891 -0.00613346 -5.08042e-20)
(0.98353 0.000144936 1.37367e-20)
(1.0291 -0.00256753 -2.71132e-20)
(1.03188 -0.00726566 8.9882e-21)
(1.06625 0.0894067 -1.21383e-20)
(1.02716 -0.00242201 -3.12971e-21)
(1.05839 0.056499 6.96536e-20)
(1.06553 -0.0814412 -4.99603e-20)
(1.03455 0.0873893 3.20176e-20)
(1.05735 0.0521942 -8.14923e-20)
(0.807757 -0.0113903 5.80582e-21)
(1.05446 0.0842464 -1.11541e-19)
(1.03067 -0.00130028 2.16189e-23)
(1.04351 -0.0153392 2.95285e-20)
(1.0796 -0.0536116 -1.82173e-20)
(0.551432 0.0012982 3.17549e-21)
(1.02832 -0.0033249 -3.77902e-20)
(1.04276 -0.0360293 3.16935e-20)
(1.07259 -0.00318819 -7.2562e-21)
(0.915115 0.0427457 1.23082e-19)
(1.02693 -0.00084132 1.83264e-20)
(1.03033 -0.00112991 -2.10863e-20)
(1.05066 -0.0549481 1.37243e-22)
(1.02844 -0.000927219 1.07205e-21)
(1.05115 0.0944091 1.23322e-20)
(1.03138 -0.000108657 0)
(1.02742 0.00060821 9.35012e-22)
(1.02841 -0.000205375 2.90164e-20)
(1.03132 -2.28301e-05 3.51093e-22)
(1.02211 -0.0124645 -6.75407e-20)
(1.04602 -0.00780692 -2.38739e-20)
(1.03089 -0.00137486 -4.14766e-20)
(0.934413 0.00632189 -1.46042e-20)
(1.02702 -0.00338943 -1.97812e-20)
(1.03383 -0.00731735 -1.60086e-20)
(1.0289 -0.090218 3.77325e-20)
(0.424304 -0.000208319 -4.67401e-21)
(1.04217 -0.0043453 6.53828e-20)
(0.767163 -0.00942415 -8.96189e-21)
(1.13112 -0.118486 -3.83695e-20)
(0.976138 -0.00388314 2.81124e-20)
(1.12924 0.0871899 -5.719e-21)
(1.00159 0.0221655 -2.62384e-20)
(1.03086 -0.00212174 1.54567e-20)
(1.12045 0.0778533 -8.47426e-20)
(1.02821 -0.000524079 -5.61838e-22)
(1.0028 -0.00319753 -5.7037e-22)
(1.03805 0.00272158 -4.65823e-20)
(1.02868 -0.00338465 1.52698e-20)
(1.07515 0.0846616 -6.1364e-21)
(1.02431 -0.00345558 5.18775e-20)
(1.06891 -0.00899066 -6.37281e-20)
(1.03817 0.00426489 -4.70832e-20)
(1.07315 0.0480928 -1.80015e-20)
(1.03623 -0.00895844 -4.16925e-20)
(1.02247 -0.00210597 -1.50629e-21)
(1.09027 0.0740714 5.1794e-20)
(1.01887 -0.0636668 3.89592e-20)
(1.04874 0.0944495 9.98714e-20)
(1.0271 -0.00273767 7.00088e-20)
(1.07718 0.100263 3.1162e-22)
(1.02638 -0.00200982 -1.86757e-20)
(1.03153 -0.000732953 3.62659e-21)
(1.06212 0.0377239 2.2169e-20)
(1.04292 -0.0182696 -2.20049e-20)
(1.05063 0.0120805 6.73855e-20)
(1.0301 -0.000712049 1.17409e-20)
(1.02787 0.0010492 4.33146e-22)
(1.04054 -0.105105 -1.38898e-20)
(1.10874 0.110352 -7.48048e-20)
(1.03106 -0.00206081 -1.38486e-20)
(1.12744 0.0799524 9.40324e-21)
(1.02472 -0.00352909 3.69881e-20)
(1.12316 -0.125903 1.28602e-20)
(1.06895 -0.022966 9.70691e-21)
(1.02016 -0.0209356 -4.3324e-20)
(1.03086 -0.0011314 1.6562e-20)
(0.677026 -0.00374984 1.48307e-20)
(1.01365 -0.0531457 2.67576e-20)
(0.943899 -0.00404742 -6.09513e-20)
(1.02321 -0.00167225 -4.70807e-20)
(1.02975 -0.00197069 -1.97169e-20)
(1.04767 0.095005 -1.08695e-20)
(1.11852 0.0712106 5.37792e-20)
(1.04593 -0.00333504 -1.52494e-20)
(1.02891 -0.00299202 -1.84603e-20)
(1.05965 0.0903308 -4.48192e-20)
(1.02713 -0.000975045 5.33259e-21)
(1.02864 -0.00286066 -3.8311e-20)
(1.11182 0.0696854 4.58964e-20)
(1.03921 -0.0152438 4.08898e-20)
(1.11678 0.102758 6.8635e-20)
(1.04205 -1.4336e-05 2.65314e-20)
(1.04164 -0.006338 -8.13985e-21)
(1.11313 -0.0388677 -2.7365e-20)
(1.08726 -0.103065 -3.71062e-20)
(1.19063 0.0634719 -2.73943e-20)
(1.03138 -0.000536052 -3.15896e-20)
(0.9165 -0.0116037 3.9729e-21)
(1.02768 -0.00169392 3.81031e-21)
(1.03414 -0.00708412 1.04597e-20)
(1.07747 0.0820037 3.53195e-20)
(1.0196 -0.00327163 -6.79781e-20)
(1.02885 -0.00113504 -2.11571e-20)
(1.04432 -0.0265891 4.3614e-20)
(1.03038 -0.00102395 -1.16704e-21)
(1.03069 -0.00175788 -2.82183e-20)
(0.328625 0.00723375 2.20552e-20)
(1.02661 -0.00299336 3.64696e-20)
(1.03028 -0.00263973 5.30141e-20)
(0.50554 -0.00340991 2.1401e-21)
(1.02497 0.010041 7.03421e-20)
(1.01287 -0.0172767 8.21119e-21)
(1.03001 -0.00214171 -2.47666e-20)
(1.0134 0.00168799 -2.83314e-20)
(1.03228 0.030198 2.5629e-20)
(1.07957 0.0230857 6.44981e-21)
(0.999716 -0.0154358 4.22958e-20)
(1.02671 -0.000974282 6.01166e-21)
(1.00179 0.0169229 1.57459e-19)
(1.02292 -0.0106752 4.88647e-20)
(1.08081 0.0700249 -7.92778e-20)
(1.0378 -0.000811642 -7.13762e-20)
(1.03858 -0.000391771 1.44487e-19)
(0.9727 -0.00479836 -7.88298e-20)
(1.02798 -0.00180611 4.58172e-21)
(1.03761 0.00134453 -5.7502e-21)
(1.08416 0.0210569 -1.19538e-20)
(1.17147 0.0656924 5.72788e-20)
(1.07083 -0.0763811 -1.59031e-20)
(1.06399 0.086702 3.83456e-20)
(1.03574 -0.00132808 -1.73105e-21)
(1.0952 0.0768845 -7.1064e-20)
(1.03136 -0.00914363 2.71723e-20)
(1.04811 -0.0395274 7.79518e-20)
(1.02808 -0.00247639 2.06182e-20)
(1.03414 -0.0117736 -6.60215e-20)
(1.02974 -0.00186616 -1.74442e-20)
(1.05886 0.0436811 -6.02961e-20)
(1.08816 0.10689 -1.16863e-19)
(1.03086 -0.00137817 -1.27368e-20)
(1.04264 -0.00578213 5.24617e-21)
(0.937567 -0.00128952 -2.25298e-20)
(1.07311 -0.064437 -9.36576e-21)
(1.06871 -0.069734 2.50288e-20)
(1.02997 -0.00115123 -2.23829e-20)
(1.06558 -0.0121862 -3.27702e-20)
(0.13918 -0.00460555 -3.69094e-20)
(1.16981 0.0499823 5.12533e-20)
(1.02877 -0.00172227 -3.17436e-20)
(1.07553 0.0202439 -2.56733e-20)
(1.03 -0.00582796 3.88726e-20)
(0.592771 0.0261797 1.51999e-19)
(1.02249 -0.00326885 -5.008e-20)
(1.02941 -0.01729 1.76787e-20)
(1.04579 -0.0227528 -1.83868e-21)
(1.02862 -0.0178493 6.77538e-22)
(1.03096 -0.013366 6.83461e-20)
(1.02709 -0.00321543 -1.22618e-20)
(1.03086 -0.00921403 -5.88411e-20)
(1.03244 -0.00402671 -1.39953e-20)
(1.07442 -0.00625538 1.46153e-20)
(1.02743 -0.00123038 -2.8031e-20)
(1.20385 -0.0577252 1.80734e-20)
(1.16054 0.0147879 2.166e-20)
(1.05556 0.0972409 7.29505e-20)
(1.00169 -0.0142615 -6.64587e-20)
(1.11087 0.0987803 -3.43849e-20)
(1.03111 -0.000391457 3.52087e-20)
(1.09322 -0.0510851 -1.28376e-21)
(1.03639 -0.0257506 3.96084e-20)
(1.03001 0.0504403 6.11105e-20)
(1.02862 -0.00333703 -3.46155e-20)
(1.02903 -0.00122063 2.08996e-20)
(1.02341 -0.011217 -6.77432e-20)
(1.02929 -0.0061357 1.987e-20)
(1.06259 -0.0107317 5.41575e-20)
(0.886706 -0.00121119 5.34776e-20)
(0.99928 -0.0033661 -1.80391e-20)
(1.13698 -0.0110739 1.70595e-20)
(0.85695 0.00137171 4.28382e-20)
(1.04402 -0.0242887 -3.65913e-20)
(1.02605 -0.0612149 -3.23109e-20)
(1.02726 -0.0015 9.36911e-22)
(1.07456 0.000572833 6.27777e-20)
(1.02732 -0.0540862 9.81952e-20)
(1.11634 0.089066 3.80623e-20)
(1.11419 -0.0451374 4.47146e-20)
(1.04926 0.0111328 6.92176e-21)
(1.05872 -0.0787287 6.70258e-20)
(1.06517 0.101736 2.17415e-20)
(1.05884 -0.0205345 4.9247e-20)
(0.945827 -0.00405337 4.68541e-20)
(1.0447 -0.0318854 5.65107e-20)
(0.309621 0.0262102 3.99547e-20)
(1.1715 -0.0649983 -1.77234e-20)
(1.0172 -0.0033286 1.55238e-20)
(1.06174 -0.102416 3.92945e-21)
(1.05596 -0.0471426 -4.73838e-20)
(1.07498 -0.0918965 2.45161e-21)
(1.07042 -0.0586512 3.80964e-20)
(1.08975 0.068994 6.79266e-20)
(1.02917 -0.00144252 -1.05273e-21)
(1.01463 0.0620947 2.14229e-20)
(1.03565 -0.000901201 1.57112e-20)
(1.03009 -0.00197317 3.07275e-20)
(1.03074 -0.00185533 -8.97849e-20)
(1.07227 0.0138375 -1.30782e-20)
(0.082308 0.00550159 8.65497e-22)
(1.03234 -0.00415731 2.01356e-20)
(1.04786 -0.0361894 -1.0197e-20)
(1.03257 0.0340603 -4.18081e-20)
(1.02744 -0.00088394 -9.51789e-22)
(1.01102 -0.00375592 -4.61774e-20)
(1.04398 -0.0036383 4.21568e-20)
(1.09247 -0.0205166 6.2367e-20)
(1.03556 -0.000690725 8.2223e-20)
(1.03073 -0.00222481 -1.24853e-20)
(1.02111 -0.0273477 1.94137e-22)
(1.03047 -0.00562963 2.01176e-20)
(1.02696 0.000800834 1.10903e-20)
(1.01669 -0.0328863 9.30116e-20)
(1.06881 0.0818982 -1.52886e-20)
(1.04647 -0.0190845 -7.25766e-21)
(0.979511 3.51214e-05 4.1659e-20)
(1.03197 6.45391e-05 -1.33072e-20)
(1.03635 0.0361972 5.55864e-20)
(1.03054 -0.00225452 1.19968e-20)
(1.0314 -0.00163116 2.67902e-21)
(1.02949 -0.00247023 2.06597e-20)
(1.03074 -0.00193167 3.62036e-20)
(1.16069 0.0654933 3.95736e-20)
(1.05348 -0.0215175 1.18049e-19)
(1.03691 -0.0113553 2.87956e-20)
(1.01379 -0.00355403 1.85947e-20)
(1.02824 -0.000690662 1.10099e-20)
(1.10425 -0.095937 -5.23379e-20)
(1.20059 0.0115197 1.06821e-21)
(1.11073 -0.104356 2.37573e-20)
(1.03055 -0.022499 2.70435e-20)
(1.03886 -0.00494881 6.5198e-20)
(1.02808 -0.00360877 -1.36666e-20)
(1.02517 -0.00687712 3.0471e-20)
(1.00233 -0.0331651 4.19579e-20)
(1.16067 0.0507889 1.32122e-22)
(1.03142 0.0893102 -1.54993e-21)
(1.03046 -0.00266317 -2.09201e-20)
(0.978607 -0.0226471 -2.13189e-20)
(1.02895 -0.00292776 4.75187e-20)
(1.05676 -0.0186371 -1.93508e-20)
(1.09941 0.0668545 7.96313e-21)
(1.03104 -0.000738137 -3.6416e-20)
(1.02944 -0.00272246 8.44011e-21)
(1.13658 0.0999343 9.06068e-21)
(1.15796 0.0348437 -1.19524e-20)
(1.04317 -0.00851872 2.18526e-20)
(1.02903 -0.00171195 -3.51039e-20)
(0.959493 -0.00571172 4.75091e-21)
(1.00764 -0.0341286 -1.05712e-20)
(1.02942 -0.00230864 2.51968e-20)
(1.04513 -0.020673 6.78554e-20)
(0.596712 -0.00298703 -9.65761e-20)
(1.00128 0.0225814 -2.12387e-20)
(1.07186 0.0848619 -7.42426e-21)
(1.08819 -0.0465472 -2.72527e-20)
(1.03073 -0.0544215 -3.46614e-20)
(1.03373 -0.00169326 5.10734e-20)
(1.04175 -0.0148347 -6.02687e-20)
(1.15228 0.0200409 5.93557e-20)
(1.03049 -0.061546 1.96468e-20)
(1.04692 -0.0302745 -3.44673e-20)
(1.02656 -0.000731844 -1.19435e-21)
(1.14226 0.00625543 5.1128e-20)
(0.541131 -0.00632649 -5.17851e-21)
(1.02976 -0.069559 -3.57023e-20)
(1.04578 -0.0173265 -9.38077e-20)
(0.921598 -0.00930185 7.97147e-21)
(1.0295 -0.00233215 1.0028e-20)
(1.02805 -0.00104653 1.65983e-20)
(1.05315 0.0509677 6.23043e-20)
(0.974539 -0.00468481 1.8596e-20)
(1.03179 0.00145232 -2.14241e-21)
(0.914957 -0.00328386 3.80333e-20)
(1.16699 -0.0522353 6.5391e-20)
(1.02151 -0.00140983 -4.10149e-20)
(1.0502 -0.034334 1.3889e-20)
(1.02854 -0.00166948 1.56642e-21)
(1.03527 -0.0084125 4.30985e-21)
(1.02888 -0.085709 -1.74931e-20)
(1.08205 -0.0477992 2.04928e-20)
(1.02854 -0.00152148 1.28807e-20)
(1.02721 0.00049916 -6.64308e-21)
(1.03109 0.00255952 2.00111e-21)
(1.04213 -0.0523395 -7.45238e-21)
(1.00336 0.0327272 -1.8349e-21)
(1.07841 0.0961905 8.8471e-22)
(1.13169 -0.00415598 -2.2158e-20)
(1.03077 -0.0020012 -2.73639e-21)