/*--------------------------------*- C++ -*----------------------------------*\
  =========                 |
  \\      /  F ield         | OpenFOAM: The Open Source CFD Toolbox
   \\    /   O peration     | Website:  https://openfoam.org
    \\  /    A nd           | Version:  7
     \\/     M anipulation  |
\*---------------------------------------------------------------------------*/
FoamFile
{
    version     2.0;
    format      ascii;
    class       surfaceScalarField;
    location    "34";
    object      phi;
}
// * * * * * * * * * * * * * * * * * * * * * * * * * * * * * * * * * * * * * //

dimensions      [0 3 -1 0 0 0 0];

internalField   nonuniform List<scalar> 
172499
(
201.241
58.5979
-259.839
-473.773
101.999
371.773
-111.472
-76.6924
188.164
112.584
-278.099
165.515
-436.134
323.56
112.575
138.362
-337.085
198.723
-143.414
287.201
-143.787
-80.9801
196.523
-115.543
-363.389
351.888
11.5014
-465.117
-8.656
-229.959
354.459
-124.5
495.018
-360.236
-134.782
-169.273
341.04
-171.768
87.6969
-88.466
0.769041
-44.0463
-319.343
-104.535
59.2537
45.2812
-456.099
86.5213
369.578
-411.55
77.033
334.517
-113.953
286.124
-172.171
-331.89
-104.245
-72.6535
184.572
-111.918
198.875
-196.821
-2.05475
392.778
-290.21
-102.567
159.417
-312.874
153.458
-227.458
200.791
26.6673
-117.553
228.849
-111.296
69.2005
73.1318
-142.332
-207.825
463.381
-255.556
-263.244
-175.9
439.144
-48.1865
100.761
-52.5745
427.806
-342.011
-85.7951
-248.939
-67.1177
316.056
-266.991
406.33
-139.339
-101.089
-75.619
176.708
-70.0869
-100.198
170.285
182.212
95.3001
-277.512
-225.957
98.09
127.867
-99.7111
-356.388
115.684
-148.006
32.3219
124.943
197.608
-322.551
157.485
-406.424
-57.6149
-353.935
-131.407
-34.7506
166.158
-118.874
301.086
-36.7515
101.202
-64.4508
-2.14908
89.846
263.718
66.4342
-330.152
544.166
-303.874
-240.292
397.949
-148.705
-249.244
414.145
-534.097
119.952
-390.722
478.202
-87.4802
279.632
-101.653
-177.979
-473.582
331.877
141.704
-504.397
451.001
53.3961
-119.458
-165.783
285.241
-318.8
-154.782
556.496
-366.736
-189.76
-131.676
82.3257
49.3504
86.8433
77.7811
-164.624
127.094
-229.336
102.242
-515.337
327.481
187.856
-186.325
330.598
-144.272
345.933
-129.376
-216.557
-103.999
185.044
-81.0446
295.875
87.1843
-383.06
9.43889
-401.329
391.89
-351.579
197.44
154.139
-220.104
400.951
-180.847
80.749
-146.848
66.0989
-537.774
255.685
282.089
-105.688
202.948
-97.2599
204.311
-155.806
-48.5051
372.919
-247.976
-133.477
67.4292
66.0476
-98.3393
-90.5237
188.863
79.7485
-163.492
83.7433
-210.027
50.1681
159.859
202.647
-402.958
200.31
-248.697
-140.487
389.184
-297.819
221.108
76.7116
-79.4467
-218.373
429.779
-432.778
2.99881
36.5434
-84.6679
48.1245
-306.915
559
-252.085
-137.142
240.654
-103.512
342.478
152.54
-107.966
177.154
-69.1882
-324.469
472.876
-148.408
105.256
-117.075
11.8193
-86.7012
441.524
-354.823
136.174
-5.19987
-130.975
202.301
-20.5903
-181.711
206.543
-469.787
221.157
50.2526
-271.409
-420.525
315.139
105.386
-575.007
416.908
158.099
261.943
-321.778
59.8355
93.7402
-57.1968
88.3139
-165.57
77.2565
0.724485
104.532
-314.495
-200.842
200.887
-436.018
235.131
328.081
-177.473
-150.608
-485.652
499.572
-13.9202
110.306
-215.995
171.035
-96.5359
-74.4992
-502.284
319.513
182.77
-41.4849
103.047
-61.5621
-140.926
225.129
-84.2028
-311.346
-71.1237
382.469
-124.076
236.435
-112.358
-54.6571
316.6
-178.361
-31.6661
133.224
107.746
-240.97
-104.047
46.3681
57.6793
203.76
-345.332
141.572
-307.559
77.5999
-98.4706
223.785
-125.314
363.999
-541.571
177.571
51.6104
152.701
-216.363
117.893
-64.6445
-39.8904
-222.422
115.311
107.11
47.5014
-173.94
126.438
-230.663
532.609
-301.946
-112.851
64.6649
-264.569
78.2434
-113.485
77.3094
36.1754
-180.997
-41.6869
222.684
-508.672
511.441
-2.76902
-110.217
237.9
-127.684
567.201
-287.78
-279.42
-172.756
189.776
-17.0197
538.978
-196.5
-329.44
480.85
-151.41
-112.694
226.984
-114.29
-258.696
173.598
85.0988
63.5068
-330.498
147.8
-267.258
182.746
147.852
83.6766
56.4631
-140.14
-191.938
341.162
-149.223
502.99
-504.548
1.55822
382.618
-196.991
-185.626
-269.311
159.094
141.961
-532.683
438.683
-332.925
-105.758
-115.147
-149.421
-454.443
234.338
-226.59
-167.753
394.343
106.667
64.3685
56.0224
-92.7739
8.03243
194.269
-567.957
273.279
294.678
133.043
146.589
-361.226
427.905
-66.6788
-412.189
100.843
-68.13
223.418
-155.288
132.155
-132.34
0.185847
-153.591
114.987
38.6043
149.614
-69.8654
137.297
301.386
158.328
187.605
-190.508
146.867
43.6409
263.394
-142.767
-120.627
139.94
173.331
-313.271
447.035
-261.114
-185.921
-62.1225
-104.485
166.608
-192.537
124.407
-240.835
122.872
117.963
-241.325
155.44
85.8848
-102.778
366.496
-98.3489
-28.3356
126.684
26.7141
59.1493
-85.8633
-74.1516
-81.2672
155.419
220.522
-438.413
217.891
-69.8671
96.5811
193.495
85.9187
-279.414
113.324
-333.414
220.09
276.951
120.998
-290.016
-131.113
421.129
-194.283
95.9438
154.635
-262.864
108.229
-210.404
417.686
-207.283
-275.697
-226.586
-162.605
384.865
-222.26
95.518
-261.7
166.182
311.145
188.855
-138.78
327.382
-188.602
128.164
8.01067
-106.177
299.672
-338.861
188.574
150.287
453.318
-164.504
-288.814
-201.771
116.506
85.2648
-235.65
118.097
68.1799
-131.822
63.6416
21.4729
-91.3399
-172.469
163.35
9.11932
55.0596
-145.907
90.8472
84.879
136.993
-221.871
-569.757
391.21
178.547
-183.301
360.868
-177.567
364.786
56.2546
-421.041
481.283
-479.308
-1.97443
-338.198
169.035
169.163
134.789
-89.5515
-45.2377
369.939
-271.29
-98.6491
-87.3056
383.181
-214.324
-196.888
411.211
96.5161
-210.181
113.665
-66.5651
88.038
55.0477
264.466
18.6373
-246.095
-384.206
297.504
-164.249
-62.8551
227.104
-84.1921
-117.579
-100.617
255.745
-155.128
-183.008
-137.893
320.901
77.9386
-80.0877
-123.622
-261.396
385.018
128.993
10.1482
-139.141
133.884
0.197286
-134.081
134.597
-329.321
194.724
-75.0707
138.24
-63.1696
-73.5436
-430.853
-174.807
12.0877
162.719
-201.084
-80.2679
281.352
183.907
-68.5533
-115.354
138.456
-70.2757
-350.999
103.078
247.921
0.536781
-414.297
413.76
69.6361
-117.488
47.8515
53.6908
-135.274
81.5828
82.8788
-175.906
93.027
-239.343
121.986
117.356
-224.806
-344.952
-641.92
285.524
356.396
392.887
-204.49
-188.397
-56.9193
160.697
-103.778
239.589
-166.182
-73.4067
-45.0249
152.063
-107.038
-293.885
167.859
126.025
-120.651
-32.9406
156.155
-67.8413
278.121
-217.159
-60.9618
-234.477
407.648
-173.171
449.754
-222.753
-227
133.859
-85.7767
-48.0825
-163.231
101.109
-64.1779
-31.0443
95.2222
206.015
279.425
-485.441
-370.44
240.802
129.637
227.498
-531.747
304.248
387.317
-236.421
-150.896
117.738
-70.2386
-47.4994
-6.74601
-283.27
-75.135
180.552
-105.417
-563.18
299.997
263.183
503.723
-503.723
-189.176
108.196
370.456
-377.202
-3.65858
81.5972
-482.722
272.318
-129.141
125.559
3.58119
41.8116
-182.738
257.714
-145.129
-106.512
154.013
179.484
-279.837
100.353
105.44
98.5208
-203.961
-102.359
211.02
-108.661
415.208
-131.53
-283.679
-329.304
190.525
428.146
-151.195
-224.464
-69.4204
141.987
177.219
-319.206
-187.362
104.303
83.0595
45.9043
-99.3569
53.4525
-171.435
97.2837
-247.835
297.84
-50.0053
74.0477
-115.533
-120.354
-70.1543
97.124
184.337
-404.754
220.417
69.5707
65.2185
456.598
-254.257
-202.341
172.137
207.182
-379.319
69.6609
-244.468
498.73
-508.86
10.1304
116.986
-73.204
-43.7818
101.067
-151.827
50.7598
108.757
-62.8526
-500.322
66.1306
434.192
-171.194
30.1059
141.088
370.395
-315.347
-258.565
409.608
-151.043
-481.876
303.081
178.794
364.144
-244.481
-119.663
-142.054
-213.821
355.875
-161.258
345.129
-183.872
-234.757
132.398
-67.0638
-22.9029
89.9667
111.727
-192.817
81.0898
-60.8349
133.584
-72.7495
308.561
-193.365
-115.196
86.3037
37.0846
-123.388
-131.128
285.28
-154.152
-253.657
168.079
85.5781
111.103
72.8038
102.256
-130.734
28.4778
-173.706
287.029
-92.0194
-187.295
279.314
129.783
13.2682
-143.051
-95.3581
165.137
-69.7791
-152.624
95.7049
-330.239
160.966
-179.482
346.539
-167.058
339.987
113.331
177.986
-412.463
272.542
-113.126
-182.494
125.154
57.3405
-3.71731
-181.992
185.709
262.729
-386.351
-57.3492
422.135
-34.9779
-69.0696
186.159
71.7553
-257.915
-142.057
59.1015
82.9559
-368.46
7.2336
198.246
-415.218
216.972
29.215
-96.2788
-154.767
-16.4265
193.889
-285.908
-432.871
-67.451
141.734
229.371
-371.104
219.147
144.997
120.982
-57.1257
-63.8565
171.898
102.25
-274.148
-260.206
169.875
90.3316
80.3325
-357.602
277.269
352.974
-214.613
243.216
-147.698
82.869
108.108
-190.977
-132.842
270.77
-137.928
130.153
-60.9527
90.859
-181.116
90.2571
265.696
-89.4884
-176.208
-170.663
-212.72
383.383
-175.182
-72.653
-66.0396
-37.2126
103.252
77.2328
50.0324
-127.265
320.496
-172.653
-147.843
-218.239
45.4834
-510.169
344.344
165.824
365.85
4.60636
170.013
-290.179
120.166
186.209
-101.33
180.832
91.5083
-272.34
-52.7931
254.034
-105.321
-299.56
404.881
-171.355
388.642
-217.287
-112.57
263.735
-151.165
-172.374
285.847
-113.473
144.585
-99.144
-45.4408
-143.09
-82.8662
-133.865
80.9876
52.877
278.381
-159.56
-118.822
-438.081
332.76
-160.423
163.147
-2.7238
-185.241
112.085
73.1562
303.668
-169.071
-168.962
473.041
-304.079
203.432
-89.27
-114.162
67.8966
88.0002
-155.897
72.2794
61.5797
25.6666
229.865
-255.531
96.7823
106.748
-203.53
63.8471
305.896
-369.743
148.6
510.448
-96.3022
225.647
95.893
-321.54
-143.649
301.239
-157.59
135.649
-66.0132
213.415
-117.145
-96.2698
-81.6671
203.279
-121.612
140.886
-253.456
396.509
-224.372
-371.319
369.328
1.99151
144.907
-91.2162
-58.3543
-35.8074
94.1616
489.287
-165.727
-61.7927
186.453
-124.66
-232.071
430.001
-197.93
280.846
170.648
-451.494
68.6793
-176.646
-455.638
247.813
-22.8195
156.703
-324.672
187.233
137.438
3.06102
99.1954
-316.448
-132.183
448.63
267.311
160.835
-74.4823
-84.4907
158.973
95.7309
3.0702
-98.8011
-241.939
354.519
-112.58
127.555
-117.791
-9.76385
-172.32
394.096
-221.777
-128.262
133.734
-5.4712
55.5907
125.157
-180.748
142.05
-471.49
-168.906
261.14
-92.2341
-98.1605
251.851
-153.691
-133.214
197.471
-64.2571
254.536
-163.19
-91.3463
-274.461
87.1667
237.19
-407.853
-39.66
214.049
-174.389
-225.639
88.4971
195.67
102.17
381.958
-114.647
86.0178
-138.88
52.8623
353.324
69.9366
-423.26
-196.273
407.219
-210.947
-232.838
-267.158
22.8158
-89.3809
601.533
-379.338
-222.195
-33.9487
128.982
-95.0335
-163.521
68.1632
308.193
-392.689
84.4968
-139.753
195.344
-390.7
381.626
9.07394
331.336
225.16
148.116
156.727
-304.843
-504.947
382.612
122.335
-352.476
426.17
-73.6938
-99.4516
252.549
-153.097
179.017
-67.914
128.35
180.211
126.157
-295.063
-123.907
271.321
-147.414
382.851
218.681
336.275
-330.389
-5.88608
325.158
-529.573
204.415
341.422
-138.774
-103.112
-405.56
66.7062
-218.064
151.358
80.5597
-155.042
357.359
99.2391
185.276
-82.2568
-103.019
237.818
169.83
134.62
233.644
-368.264
-97.5489
378.395
415.466
-194.944
-401.273
9.81014
391.463
-291.196
-180.986
472.182
421.62
-291.781
-129.839
489.935
-249.776
-240.159
-71.9083
-91.3232
-59.3805
271.935
-212.555
56.5069
86.8928
-143.4
83.3352
-140.251
56.9161
157.55
160.376
-317.926
-184.719
31.2716
153.448
39.6417
87.9128
412.1
-174.282
374.927
114.36
-268.549
-146.29
414.839
-28.1364
157.919
-176.509
103.856
-161.437
-219.931
381.368
-25.4742
84.6235
-37.9198
-146.799
166.349
-457.545
200.236
-31.532
-57.2099
88.7419
216.603
-55.9061
-89.6278
-43.849
-262.22
138.313
-103.869
290.028
-324.718
499.957
-175.239
261.307
-422.744
399.028
-198.141
104.095
197.644
-301.739
-143.592
62.3772
81.2143
-367.32
488.64
-121.319
307.402
-227.069
554.833
-227.569
-327.264
115.989
100.614
358.769
-116.987
-241.782
-271.7
434.515
-162.815
141.718
-249.48
107.761
-158.939
33.0543
125.885
-155.935
-78.8216
148.262
-391.927
243.665
10.6583
-118.815
108.156
454.538
-196.851
-257.687
303.185
-478.391
175.205
-227.602
187.942
90.7799
112.652
100.855
-6.56873
-94.2865
253.7
-120.476
249.566
143.321
322.424
-180.969
-141.454
-326.752
217.189
109.563
-488.797
396.966
91.8309
183.673
-100.795
-105.336
188.863
-83.527
-183.92
-69.7379
350.123
-41.9307
118.002
11.2328
-129.235
-117.926
200.795
-132.703
87.6781
-531.088
359.954
171.134
311.301
-141.288
226.173
161.144
161.518
-397.938
-474.616
238.098
236.518
-249.267
166.413
82.8542
112.713
-44.2647
-68.4484
-219.117
-203.064
422.181
101.883
149.695
-251.579
-407.087
282.47
124.617
-272.11
-134.976
-561.847
373.613
188.235
-285.144
101.225
586.045
-299.838
-286.207
-149.327
-176.305
325.632
-131.987
136.836
-4.84896
-164.978
274.567
-109.589
-254.242
154.79
-415.916
298.873
117.043
108.426
93.1188
-201.545
-370.996
193.752
177.245
-112.913
-128.412
141.256
-105.119
-36.137
276.104
105.854
573.971
-316.418
-257.553
253.319
-519.759
266.441
55.1223
-116.345
61.2232
93.7349
7.12035
-62.8379
144.775
-81.9372
272.978
300.993
71.8715
-172.96
-291.957
159.116
120.377
-39.628
117.64
160.742
347.268
82.5106
107.179
71.838
37.3064
-186.931
149.625
365.276
-514.259
148.983
-60.9647
326.114
-265.149
-33.7368
117.072
174.782
380.05
-146.57
359.063
-212.493
69.911
-167.078
97.1667
-341.03
-300.89
-61.4471
-36.8957
98.3429
6.43363
-138.42
-107.009
117.667
176.308
-85.4485
178.781
-328.108
-137.22
77.2168
60.0032
-351.942
-87.6675
439.61
-338.28
521.85
-183.569
108.223
-370.762
262.539
59.5998
-146.264
86.6647
-115.878
-235.122
295.034
106.187
-401.221
179.222
-112.516
249.744
-142.142
-107.602
555.131
-194.266
-360.865
-371.342
53.3
318.042
331.635
90.7942
-422.429
-480.635
500.855
-20.2197
-146.22
-76.2013
-96.0633
201.503
142.939
179.484
250.653
-537.946
287.293
377.042
-367.603
461.8
-166.766
553.038
-298.86
-254.178
-224.087
244.777
-20.6897
-52.1612
170.164
-102.038
-252.994
355.031
56.7878
446.935
-68.5018
-84.1224
143.996
-87.4894
324.358
-166.807
128.546
60.2965
-188.842
167.086
-226.466
-69.358
-102.403
171.761
552.678
-552.678
-3.19029
-125.072
280.86
-168.061
-112.798
-310.764
-171.112
-162.987
91.0791
-366.601
-119.05
-77.6301
145.527
200.599
-293.916
188.9
105.016
15.1757
-405.876
128.934
110.18
-239.114
90.2491
120.771
137.114
-53.4379
-67.7321
-303.61
82.0824
-254.428
172.345
-8.03576
-393.237
-298.197
151.627
-132.501
-183.602
316.103
115.247
234.719
-349.966
-328.357
500.853
-172.496
-92.1927
-36.9478
-73.6843
105.444
-31.76
-98.6051
180.838
-82.2324
227.746
169.707
-397.452
318.845
-214.751
405.7
-186.553
-304.331
-200.616
160.281
-274.234
-160.866
90.779
-412.901
308.079
104.822
83.9155
-435.858
91.2334
152.804
-244.037
-221.796
-153.507
375.303
41.0614
-101.896
138.292
-166.428
-119.538
-224.945
344.483
-301.849
240.884
-102.422
-51.1323
153.554
-188.352
111.052
77.3
358.264
-517.329
159.065
320.026
-214.272
-105.754
157.054
292.7
75.2262
86.6538
-161.88
387.188
-161.015
146.879
-514.2
261.343
-179.26
158.988
161.038
-64.6907
-348.21
219.385
-379.213
159.829
408.991
-238.326
-170.665
75.6351
-260.329
184.694
-228.731
-10.1037
238.835
66.609
-158.802
92.1932
83.3363
-160.831
77.4946
193.587
212.113
-49.0794
144.81
-334.362
418.277
135.782
234.085
-369.867
-105.862
309.622
79.3088
108.224
-187.532
41.7871
-314.661
272.873
-138.864
145.298
278.615
-458.138
179.522
-94.5281
223.074
268.357
-455.229
196.664
-92.8787
1.31147
91.5672
40.087
121.94
-162.027
221.706
232.832
-116.008
195.317
339.828
-28.4204
-311.408
-124.039
444.717
-320.678
101.959
290.818
44.3018
227.633
317.103
135.006
-452.109
327.767
-268.568
-59.1986
-32.2785
-128.144
-208.661
95.9669
-74.9829
-30.998
105.981
14.0859
-89.0688
-317.156
173.508
-75.2099
-179.198
254.408
186.3
133.987
-320.287
-222.591
-47.5401
270.131
-153.643
85.1408
82.0371
-180.642
-84.0509
-318.655
402.705
-82.1138
-142.35
517.71
-239.095
-70.0455
76.4357
51.1815
-127.617
-167.227
83.2372
83.9894
69.9097
-90.9624
21.0527
106.142
172.679
-278.821
-186.152
105.09
81.0611
-138.511
319.342
-100.347
-127.735
228.082
-328.316
-209.458
-244.642
126.917
117.725
-229.283
527.005
-297.723
441.118
-292.856
-72.6153
-93.8726
166.488
-72.437
101.652
-183.233
323.639
-140.405
-117.994
271.063
-153.069
163.197
-70.3661
-92.8314
-251.589
359.812
145.371
-87.48
-57.8912
-274.054
279.961
-5.90688
-279.289
135.876
195.44
11.3178
-206.757
-198.328
390.615
-192.287
123.938
-60.0756
-63.8622
227.879
-470.124
242.244
-497.834
173.365
164.04
-35.0475
-139.469
0.604123
-189.374
86.9341
102.439
-149.679
369.063
148.455
-78.5438
80.8491
-415.211
-40.9864
-73.2744
114.261
-105.595
-509.239
357.359
151.88
249.34
78.4268
-305.802
-160.735
466.537
-85.6397
298.801
106.344
-140.293
-54.0091
-133.353
-233.457
-244.367
477.824
-198.581
-242.902
441.484
-287.991
277.254
10.7364
314.118
-250.271
-295.569
-214.6
340.839
-509.801
102.655
95.0508
-197.705
-383.21
212.529
170.68
157.004
217.923
-76.727
142.024
-65.2973
-330.359
526.172
-195.813
-190.589
136.872
53.7172
-129.785
40.3635
89.4214
53.2125
-126.897
-63.9487
395.584
96.4425
64.7911
-161.234
504.376
-187.273
-111.081
265.716
-318.523
157.266
-287.01
287.01
-152.339
243.573
-548.856
281.608
267.248
-237.35
-98.323
335.673
186.668
-149.362
-126.95
135.771
-8.82054
-254.483
82.1091
123.379
-483.615
37.1984
79.7874
-138.438
-310.256
448.694
-232.448
368.23
-251.816
151.199
500.871
-245.165
-255.705
-191.236
-37.4947
150.672
-328.145
-568.512
398.52
169.992
-285.786
-156.16
-203.268
37.7853
165.483
-56.2657
-111.186
167.452
132.673
121.027
-63.0808
110.273
-47.1922
-0.124158
59.508
-59.3839
222.84
-221.893
-0.947834
212.819
-337.858
125.039
73.5982
-178.934
-73.1039
-154.498
104.583
-198.672
94.0889
-393.469
-264.805
339.17
-74.3644
83.3004
40.6374
-22.0552
-113.553
135.608
-150.649
-200.93
155.951
-386.712
230.76
-173.383
100.768
89.5679
47.7234
-137.291
36.1942
-138.616
-159.342
243.157
-83.8146
157.303
107.763
-265.066
-157.446
-287.178
444.623
171.144
-421.678
250.534
109.021
-159.889
50.8674
-540.731
308.913
231.817
465.419
-323.443
-141.975
-501.517
176.799
-127.782
124.592
-67.2956
-109.214
315.749
-413.298
-344.521
-130.095
-155.264
-138.652
-380.672
155.933
224.739
-215.533
133.42
-46.2575
307.204
-260.946
-89.8863
-240.901
127.989
175.424
105.616
-281.04
258.8
-454.457
195.657
197.708
-101.192
-317.153
102.88
223.356
-96.2626
-327.559
-112.157
439.717
383.611
-227.659
-331.835
336.455
-4.6208
-72.1446
122.416
-50.2714
-380.55
167.83
-312.362
126.507
185.855
131.883
-131.883
-194.962
-256.065
451.028
471.563
-390.714
63.7343
-264.819
3.94596
335.882
331.976
223.155
-242.621
-48.4728
291.094
127.494
6.71063
-134.205
-72.8084
138.673
-65.8651
-183.619
116.441
67.1778
-323.01
-244.947
-167.653
98.295
116.912
-40.4766
-272.65
-302.357
-144.175
81.3369
132.898
208.142
72.3911
34.5996
-106.991
-45.7766
140.592
-94.8158
379.816
173.222
-172.567
-112.578
-336.283
-172.957
-156.614
-99.8843
256.498
-69.3827
-272.626
342.009
-353.92
195.794
158.126
-91.6077
-103.682
195.29
337.794
-505.078
167.283
209.148
-354.603
145.455
236.393
-415.439
179.046
-78.0175
-53.6586
-237.917
164.813
166.982
-395.171
228.189
-154.442
98.1768
-380.308
197.007
-206.112
363.115
-76.6365
146.472
-69.8359
91.6984
-145.56
53.8617
25.6305
-89.8084
-154.054
366.873
483.497
-465.545
-17.9518
-94.5276
154.127
-78.2156
134.527
-56.311
260.873
-455.835
-59.3531
168.204
-108.851
-149.216
289.156
390.876
-507.237
116.361
234.394
76.7585
-311.152
46.5169
-101.039
54.5224
-36.7606
106.67
59.2279
31.1953
-90.4232
-42.796
142.546
-99.7502
-10.7888
160.628
-149.839
176.118
-71.5349
387.652
-138.086
-76.1156
280.313
-204.198
-303.722
-48.7543
182.529
-105.14
-77.3888
199.481
-307.828
108.347
-239.764
-147.252
387.017
-87.5854
179.284
-275.292
164.068
111.225
229.716
-359.456
129.74
-324.153
204.559
119.594
252.008
-132.799
-119.209
-134.789
70.8215
63.9678
184.253
-398.577
-111.693
-72.3307
184.024
-43.8374
-135.804
179.641
103.319
-249.367
146.048
-114.033
210.816
185.609
-98.5054
-87.1034
-55.6035
-112.551
168.154
-36.8353
175.127
-163.718
-117.503
281.221
-304.762
-8.6488
313.411
47.2361
-111.529
64.2928
168.498
97.1981
115.969
107.387
-82.3175
95.8643
-13.5468
-203.268
-55.642
446.518
-2.9607
118.645
377.224
13.6655
-390.89
389.908
-326.401
-477.335
181.766
62.9924
47.3843
-110.377
-148.551
-33.9434
83.2301
-259.82
176.59
122.263
-387.068
-175.244
-34.6847
269.078
-69.6731
265.113
257.478
160.208
-413.781
215.452
-142.819
66.0918
390.516
-163.018
246.094
-110.146
-135.948
259.003
-328.386
308.837
-186.357
-122.48
179.111
-168.924
-10.1865
118.354
-71.1175
-215.442
-235.482
450.924
-196.282
31.4825
164.8
491.83
-485.186
-6.64406
243.127
-71.0544
-172.073
245.004
247.669
-492.674
274.774
-171.455
-164.137
300.755
-136.618
-159.227
307.343
-134.694
220.03
-85.3361
-189.675
-148.523
72.4968
-155.583
83.0862
106.757
-207.104
352.16
119.403
-239.021
-176.896
-64.5858
-102.641
115.82
-43.4286
-172.337
275.45
-103.112
-67.1179
153.961
115.889
-43.4124
-72.4762
-136.334
80.7307
-581.756
368.075
213.681
55.3715
-139.253
83.881
-178.556
261.786
-65.5903
130.664
-65.074
71.2706
44.6181
-143.011
363.738
-220.728
-124.496
-104.17
228.666
-57.8889
-35.8928
93.7817
337.599
-145.01
-192.59
246.506
-86.3416
-160.164
-379.852
-308.696
-168.639
-56.4675
-98.5156
154.983
124.715
-315.094
190.38
145.791
-73.2946
-124.359
-3.42335
171.974
-420.671
312.203
-95.0143
-164.37
102.577
-174.587
83.3964
91.191
338.848
-129.7
159.145
-127.446
-31.6993
-80.4681
-94.1193
68.4881
-135.072
66.5839
103.489
-170.784
115.881
-63.9876
-103.903
167.89
-91.5582
227.828
-136.27
125.545
-43.0437
-82.5012
-269.294
-35.4684
120.764
92.6514
-83.3694
10.9325
-96.9788
214.738
-117.759
-97.9141
98.6715
-0.757458
-98.2077
-77.8862
-95.762
173.648
484.019
-385.952
-98.0669
424.082
-108.333
142.183
-102.096
-425.693
463.886
-38.1925
-178.381
305.255
-126.874
-238.102
301.836
99.3807
86.2281
-69.5899
-115.651
-93.0034
272.488
-149.866
301.477
-151.611
41.1097
58.866
-99.9757
-299.811
158.475
141.336
115.843
-60.7212
-83.845
-71.9608
-221.271
-187.798
409.07
139.693
344.325
-456.599
258.018
239.593
-239.593
-64.87
79.1137
-14.2437
185.372
-108.255
-77.1167
246.001
-540.003
294.002
182.785
154.814
-252.663
356.437
-103.774
123.528
-68.1564
-203.119
129.927
73.1927
156.959
330.238
-487.197
253.875
-121.202
-317.623
162.573
155.05
95.7847
-186.963
91.1783
281.536
158.382
-439.917
-231.869
107.374
93.2662
-165.011
71.7446
136.657
-179.453
-170.263
398.008
-179.986
110.778
69.2074
172.817
-105.851
-66.9661
-96.1262
372.831
-276.705
332.242
-165.156
-32.3964
107.475
-75.079
179.904
180.156
-360.06
-207.778
-248.821
-90.7702
349.57
97.8273
-183.779
85.9513
-204.816
399.358
-194.542
160.435
-64.6503
318.652
-219.258
-99.394
143.735
-57.7173
-219.73
-163.217
86.581
-620.25
303.832
132.92
493.642
-501.558
7.91579
212.428
188.729
-401.158
113.781
45.3645
-370.053
-118.744
151.763
-155.481
16.1551
-304.146
-25.02
-124.093
149.113
158.354
-296.638
138.284
121.408
275.558
-130.787
88.4461
42.3409
46.6582
-182.462
33.6067
-66.7858
33.1791
263.326
95.4426
262.187
-173.025
-89.1612
147.126
-80.5171
-397.175
275.782
121.394
-260.071
-360.179
186.923
56.204
145.325
-456.396
311.071
-67.1816
-77.3566
144.538
32.5905
-124.049
91.459
289.951
210.92
-3.13249
380.357
-78.4817
-69.5241
430.272
-148.737
81.8959
-134.829
52.9328
-464.272
260.842
203.43
-201.746
-245.719
447.465
-366.486
566.485
-199.999
280.958
146.848
-173.841
249.667
-75.8265
-164.734
266.617
351.939
-277.043
-74.8963
-179.264
290.574
-111.31
-184.472
-154.389
-115.684
-166.711
282.395
90.1855
28.7625
-118.948
191.924
-83.4981
440.473
-378.693
-61.7808
-187.496
117.073
70.4226
85.0974
268.977
-354.074
122.682
-33.1137
347.43
93.0436
-68.1018
161.368
-101.317
-29.4696
-225.97
514.179
-288.209
3.65875
191.696
-195.355
226.769
-395.286
168.517
-80.4616
-41.1826
121.644
288.766
98.8857
-82.6769
-20.1362
102.813
-127.407
108.783
18.6236
-190.035
129.714
60.3215
182.871
384.33
96.1782
-36.9503
-270.768
-126.408
228.476
-443.918
413.734
-509.87
96.1353
68.6445
223.031
-31.8221
-191.209
133.961
-65.4724
80.9153
-408.475
-77.4879
-88.4617
165.95
99.0118
-7.37909
-91.6327
-111.86
45.82
119.719
134.817
151.701
-329.414
177.713
-91.2011
161.114
-69.9129
152.477
-357.293
361.396
-236.681
341.83
-82.8268
-362.186
-200.994
-287.543
473.987
-186.444
429.259
-324.285
-104.974
-9.32242
-343.136
352.458
-336.669
-176.311
512.979
-149.874
-9.06531
62.8578
-29.2511
-506.184
263.042
243.141
-158.251
-100.445
-69.3439
-65.4453
-48.7054
157.727
-96.7976
174.579
-554.709
382.758
171.952
97.263
-161.251
-23.7833
88.3411
-64.5578
181.344
-146.378
199.253
-319.632
120.379
322.403
-255.437
-66.9662
87.4109
-397.45
310.039
214.907
-98.9373
114.61
255.33
-88.7899
-99.5622
108.786
-62.2694
474.774
-299.406
-175.367
-267.287
363.983
-96.6963
-123.369
191.871
282.902
-417.832
31.8673
385.965
-289.995
-192.727
144.941
-224.903
79.9618
-129.315
-83.5477
212.863
107.656
210.815
-318.471
38.2894
-266.348
-239.836
-93.9307
-34.8642
128.795
-203.113
326.152
-123.039
481.831
-175.935
413.941
-69.5972
-305.79
174.662
94.1326
4.87919
-274.58
-32.3721
306.952
57.3901
-373.838
-408.879
137.179
128.354
-16.7756
-111.578
166.392
-280.024
113.632
-108.892
266.195
-458.716
334.677
-77.7284
-81.0738
497.296
-149.866
-240.443
406.746
-166.303
218.886
-348.977
130.091
470.158
-111.894
59.5311
58.2069
-309.076
135.235
356.807
-207.159
-149.648
-171.029
297.236
-126.207
134.217
347.614
170.465
-270.178
99.7123
389.879
-107.409
360.585
129.491
-490.076
329.047
-226.071
-102.977
473.911
-502.839
28.928
122.561
-72.9363
-49.6244
340.094
-224.847
-11.5968
-81.2819
-80.805
-182.05
262.855
41.1877
-125.729
84.5412
-152.133
68.2884
-307.186
474.404
-167.218
-87.2837
-49.9363
-194.646
198.305
102.379
52.117
-133.819
81.7016
288.288
4.30353
-292.591
-146.829
93.075
53.7541
-100.816
454.14
184.113
124.724
-146.398
304.752
-236.841
155.174
335.84
54.0673
-158.059
-159.564
17.0204
226.196
-251.608
79.0413
-141.034
240.88
-99.8467
61.4935
-139.124
416.454
-204.025
-371.45
376.967
-5.51741
-133.442
494.028
66.8583
-137.572
70.7138
133.389
-68.3598
-141.584
209.944
-152.444
184.978
-71.1978
64.4211
25.0905
-89.5116
59.3225
-129.305
69.9821
-258.119
159.958
-97.6709
-69.4348
167.106
-267.753
-293.645
126.519
167.126
117.027
-84.4362
55.502
-113.742
58.2398
59.2173
-188.533
145.331
139.948
-122.513
272.646
-150.133
-142.808
89.3237
53.4844
-83.3833
205.818
-122.434
-375.35
212.746
-183.558
363.462
151.614
-270.89
119.276
256.799
163.236
-420.036
-51.7834
-32.3405
84.1239
331.446
97.8131
339.831
-146.928
-192.903
-157.714
406.184
-248.47
165.392
-70.9644
325.724
-254.76
327.681
121.679
-449.36
474.56
340.083
130.95
-471.033
249.325
-457.103
189.377
-25.7605
-163.616
-338.497
183.122
155.376
-129.554
16.7864
112.768
88.7237
19.2829
-108.007
-58.1417
-85.4499
12.2769
-383.727
-356.296
213.285
61.4319
192.455
-253.887
-377.991
307.027
222.191
123.425
-345.615
-52.7019
108.303
-55.6006
-100.553
-152.129
252.682
568.605
-257.46
63.1035
135.772
-141.753
-279.984
421.738
-123.17
169.828
-221.66
385.322
-163.662
-361.084
45.0262
316.058
-178.135
-279.148
457.283
-69.7819
-60.0031
-564.255
366.718
197.538
300.467
-181.761
-118.706
-124.191
346.381
-166.909
69.2386
111.025
-188.513
157.79
88.3037
-162.282
-490.528
250.992
239.537
-174.053
93.585
-265.976
97.9153
-291.076
-290.68
-58.2385
-243.61
96.0762
-332.31
236.233
-203.33
-172.148
62.9414
109.206
-248.296
-68.8571
-114.62
-37.6044
152.224
-49.1265
-42.8262
91.9527
-321.157
225.03
27.4629
-93.8482
66.3853
158.122
-189.944
154.021
-365.619
211.598
3.05198
-277.632
-191.534
316.37
-124.835
-241.832
257.987
106.683
-132.824
-89.4285
222.252
403.453
-412.775
114.303
-73.1928
285.325
189.793
-475.117
-81.6033
-92.4498
-78.5321
272.421
364.632
-367.764
94.2942
-5.57052
410.125
-126.235
-283.891
106.517
168.681
-275.198
138.83
-56.5415
-118.35
174.892
279.501
-121.442
-158.059
347.732
42.1478
131.525
-90.3374
-501.733
173.376
67.588
-133.178
-130.348
68.1947
62.1532
-52.1904
168.526
-116.335
-141.963
-76.2873
218.251
23.2569
-98.2474
74.9905
-123.351
42.8889
178.456
-185.979
7.52337
232.164
-281.639
49.4749
-218.328
76.3649
-87.4088
-76.0829
-50.8361
-71.888
122.724
142.569
189.154
201.461
-225.473
179.215
178.132
-140.13
-38.002
-379.892
271.69
108.202
237.524
-84.72
336.123
161.173
335.047
103.201
-438.248
-130.142
-139.169
-537.846
251.055
286.792
225.695
-312.991
87.2963
141.73
120.457
-95.0476
62.6511
-42.9456
99.4551
-56.5095
-272.914
-220.897
493.811
-417.861
441.42
-23.5588
-267.369
103.12
-126.959
-457.975
-21.0533
479.028
210.178
244.731
-454.91
-123.849
-188.513
-150.12
-149.692
92.6559
-28.2348
-337.436
135.689
-32.7424
174.461
-129.293
-275.555
175.92
99.6341
83.2593
66.3546
-131.646
-143.6
275.246
143.012
-90.8946
416.416
-294.444
-121.972
-140.142
359.029
-209.184
-53.6806
457.151
24.132
-114.326
-75.0384
189.364
454.658
-0.194328
-454.464
-93.4895
329.743
-236.254
116.328
82.515
-198.843
-375.195
223.876
151.318
-130.128
-106.698
-168.857
140.327
-73.4686
-108.376
290.437
-182.06
137.495
143.268
-280.763
-150.211
-52.9082
-246.174
-178.231
424.405
117.383
476.438
-332.679
-143.758
-153.678
146.673
-93.0635
-53.6094
32.4658
-89.6757
202.103
-271.776
294.376
-352.615
-405.23
347.881
193.49
-317.339
230.594
181.506
441.396
-205.003
-240.382
164.266
93.8668
82.4408
-91.6285
114.889
-167.079
-270.82
290.366
-19.5463
-277.373
-20.8243
77.9529
-139.908
61.9549
116.48
286.158
-159.638
248.614
-140.821
-107.793
-81.291
142.785
-270.474
120.323
-188.683
311.017
-62.5752
-248.442
-260.947
471.125
484.818
-148.695
-370.066
267.158
102.908
-22.2851
476.943
-222.552
420.798
-86.0437
-203.107
289.151
105.099
-263.035
157.936
11.1769
291.905
-334.611
-247.386
581.997
147.965
-348.215
200.25
-292.773
392.807
-100.034
-111.561
451.644
352.247
-126.6
175.627
-89.5813
369.582
-280.001
-80.4464
-66.3827
-248.63
155.544
93.0858
175.986
150.166
67.5175
-59.7495
-279.793
339.542
-386.129
-78.9873
-135.478
-197.447
-338.106
229.73
-412.871
412.871
178.135
-339.107
160.973
179.02
-340.826
161.807
231.561
79.4559
53.7489
36.3572
-90.1061
217.997
-371.504
287.698
-465.833
240.972
-37.6936
144.243
159.425
72.7433
197.877
-270.62
124.445
-69.4807
-54.9638
-71.8673
-293.421
365.288
117.623
-188.034
70.4107
-78.3894
190.97
-112.58
331.904
4.37144
-77.2632
80.3334
-276.246
321.586
-45.3405
40.9719
148.405
90.951
18.5525
-109.503
-317.74
-43.3442
36.0542
-169.268