/*--------------------------------*- C++ -*----------------------------------*\
  =========                 |
  \\      /  F ield         | OpenFOAM: The Open Source CFD Toolbox
   \\    /   O peration     | Website:  https://openfoam.org
    \\  /    A nd           | Version:  7
     \\/     M anipulation  |
\*---------------------------------------------------------------------------*/
FoamFile
{
    version     2.0;
    format      ascii;
    class       volScalarField;
    location    "30";
    object      p;
}
// * * * * * * * * * * * * * * * * * * * * * * * * * * * * * * * * * * * * * //

dimensions      [0 2 -2 0 0 0 0];

internalField   nonuniform List<scalar> 
115545
(
-0.011726
-6.00957e-06
-0.0154129
-0.00385548
0.00152485
-0.000825707
0.375077
-0.0571138
-0.000188594
-6.40941e-06
-0.000221578
0.000271061
-0.00184141
-0.059967
-0.000190951
-0.0585666
-2.09981e-05
-0.000291803
0.464389
0.00158227
-0.0592422
-0.00570412
-0.000334855
-0.00613553
0.680678
0.0586898
-0.095687
0.0240786
9.33212e-06
0.392372
-0.000110666
0.0996639
0.0052404
-0.0146883
0.68554
-0.00173294
0.367175
-1.79267e-05
-0.190915
0.253606
0.100136
-0.000296008
-0.020815
-0.00173659
-0.0531696
-0.0602203
0.00246844
0.00613982
-0.000827057
0.000258385
2.36829e-06
-0.00330808
0.11315
-3.14415e-06
-0.00317299
0.114833
0.0922746
-0.0438452
-0.0360659
-0.0136203
-2.20821e-06
-0.00633762
-0.000681544
-0.0191821
-4.16667e-05
0.00109162
-0.00153268
0.0661163
-0.105677
0.0841569
0.244794
0.0053521
0.24982
-0.038794
-0.029277
-0.027853
-0.024005
-0.000815012
0.443655
0.0282481
0.0292623
-4.35722e-05
-0.109419
0.0236623
-0.00328542
0.000264618
-0.0206206
2.2538e-07
-0.028565
1.16502e-05
-0.127802
-0.0119126
8.65739e-06
-0.00128576
-0.000369444
0.000480899
-0.000336076
-0.109562
-0.105153
-0.0284869
-2.96038e-06
0.0299249
-0.00037555
0.00280764
0.247611
-0.0577288
0.27723
-0.060414
-0.0167292
2.16722e-05
0.0201567
-0.000333537
-0.022097
-0.0105313
0.877
-0.00331664
-0.000221532
0.213535
6.05896e-05
0.00603011
0.21603
-0.061512
-0.0153124
-0.017649
-9.7429e-07
0.391068
-0.00620955
0.6676
-0.00154691
0.0501613
-0.0193357
0.000360588
0.161711
0.000264385
6.05405e-05
0.465257
0.644051
0.00502403
-0.00303568
-0.00627461
0.0704802
-0.00248475
0.000118023
0.117689
-0.0175111
2.9306e-06
0.00817024
-0.00633196
0.0673526
0.000805221
-0.0565474
-0.055225
-0.0118222
-1.14557e-06
-0.00323808
0.00762173
2.32588e-05
-0.000234999
-0.026278
-0.0840752
-0.027268
0.00811764
-0.00066811
-0.0372653
-0.0111642
-0.000753678
0.0328476
-0.0231242
-0.000765351
-0.0121249
-0.0130031
0.00277323
-0.153748
-0.0609197
-0.032696
0.0632887
-0.0610942
-0.00230154
0.00371297
-0.000812209
0.0143837
-0.0288311
0.484044
0.121284
0.278731
-0.000237241
-0.00410353
0.153044
0.016898
-0.127912
-0.00227486
-0.00225715
0.517726
-0.0260676
0.0614235
-0.0775527
-0.0612255
-0.0109662
-0.027345
-0.0160925
0.132062
0.392811
0.0174824
3.30232e-06
-0.00401032
-0.0329513
-0.000568615
-3.90951e-05
0.0467438
-0.038524
-0.0603784
0.274666
0.677068
1.29579e-05
-0.0129998
-0.0264071
0.01878
0.00342466
-0.0610959
-6.93614e-05
-0.0356496
-0.0237932
-0.00168051
-0.0266464
-3.39443e-06
0.574581
-0.0014813
-0.0285151
-0.0761039
0.598744
0.0278474
-0.0396759
0.110791
-0.0262082
-0.0213067
0.13316
0.000546441
-0.000979445
-0.0255554
-0.00333596
-0.11286
-0.0106665
-0.0846474
-0.11003
-0.00163788
0.000711608
0.0830938
-0.0279777
-0.0227054
-0.0570546
0.533693
-0.00126096
0.114031
-0.000157926
0.683919
0.014797
-0.044473
0.0251066
0.00040215
-0.0595253
0.0150733
-0.060543
0.122226
-0.198202
-0.0174596
-0.00376179
-0.0154946
-0.00155124
-0.00917131
-0.0403069
-4.66438e-05
0.0178433
-0.00067703
-0.0105108
-0.00149536
-0.0215749
-0.0464167
-0.0322476
-0.0042008
-0.0608959
-0.0384593
-0.00161612
4.11962e-05
-0.0316599
0.000149904
0.0115173
0.566291
0.106731
-0.0994844
-0.181421
-0.0468188
4.42687e-06
-0.038649
0.270473
2.22414e-05
0.01992
-0.00135343
0.0944009
-0.000314578
-0.0416448
-0.0609525
-0.0311857
-0.142567
-0.00721708
-0.0404429
0.0394687
-0.0175153
-0.0280736
-0.208763
0.00388111
-0.00269368
0.21068
0.147907
-0.0255195
-0.00198228
-9.89476e-05
0.517795
0.000663741
-0.00592324
-0.0509768
-0.00802919
-6.26787e-05
0.0169487
0.872012
0.0503795
-0.026331
0.00797548
0.0911051
-0.0619368
-0.0395638
-0.00270464
4.70089e-06
-0.000223957
-0.00131642
0.815461
-0.00362343
0.00497465
-4.1907e-05
-0.000831779
-0.00408079
-0.0145466
0.0609418
-0.103878
-0.0186862
-0.0101462
0.00154442
-0.0044445
0.699441
-0.0328414
-0.00354979
0.163686
0.161279
0.0149732
-0.00289523
-0.0169517
-0.00340606
-0.0109916
2.07317e-06
-0.0005667
0.00537562
0.130507
-0.0445785
0.372102
0.818858
-0.0235565
2.24298e-06
-0.0143631
-0.0202485
-0.00152847
3.88713e-06
-0.0883254
-0.0262298
-0.0279382
-0.000473336
0.00058054
0.00366226
-0.000342115
0.000253099
-0.00117978
0.00697359
-0.0398361
-0.0156663
-0.0104934
0.00488339
0.0116708
-9.97452e-05
0.103738
-0.0582212
0.00160815
-0.0461166
0.0975243
0.216477
-0.0208889
0.0241873
-0.0233659
-0.00180821
-0.205264
0.000639439
-0.000662001
-0.0191749
-0.0298383
-0.00190677
0.300603
0.241369
-0.209576
-0.032565
6.12866e-05
-0.00724913
0.0150454
-0.0070297
-0.0107834
-0.00273147
0.00162963
-0.00347606
-0.00336391
-0.00405088
-0.000540969
-0.142075
9.44808e-05
0.0115202
-5.08882e-07
-0.0613164
0.000358955
0.396725
0.154103
0.171052
-0.0326684
0.187634
0.0907451
-0.00196502
0.00175905
-7.99625e-05
-0.00453131
-0.0276594
-0.00717622
-0.0074929
-0.00851925
0.000354492
-0.000117991
0.000246118
-0.000841668
0.0511491
-0.0102343
-0.0198657
0.000138888
-0.0870326
0.000698419
-0.000101679
0.214081
0.062379
0.298895
0.000100632
0.000197375
0.00180316
-0.0227209
-0.00610013
-0.0830748
-0.0276235
0.120953
-0.00849097
0.3018
0.000732909
0.00154038
0.359375
0.205431
-0.0607814
0.00261311
-0.0604115
-0.00845999
0.000101496
0.0114173
-0.0579764
-0.0264531
-0.0392732
-0.0101995
0.0502749
7.65603e-08
0.00266127
0.029405
0.0307311
0.416905
1.11413e-06
-4.04193e-05
0.0018944
-0.026749
-0.00047093
2.08899e-05
-0.00170385
0.730663
-0.0409781
0.276881
-0.0184895
0.556336
0.12623
-0.00345815
-0.0905083
-0.0529523
-0.0101595
-0.000960681
-0.00440206
-0.00125658
0.453707
-0.0256847
0.341218
-0.0186688
0.168987
-0.0194675
-0.0141922
-0.110668
0.136956
-0.00276574
-0.0001376
-0.000231665
-1.44685e-05
-0.0101977
-0.0524054
0.000347939
0.0135155
-0.000162783
-0.000165605
0.00218124
-0.0171085
0.000805578
-9.59161e-05
-0.0214321
-0.00461932
-0.00454551
0.48015
-0.0564394
0.00660186
-0.0129283
-0.035959
-0.000532548
5.88048e-05
1.08467e-06
-0.0342197
-0.052442
-0.0317447
5.76206e-05
-0.0147867
0.0631263
-0.113321
-0.0225218
-4.11228e-05
-0.0274712
-0.0162637
0.00018662
1.6903e-05
-0.0269734
0.0018378
-2.83661e-06
-0.0712717
0.000558994
-0.0561727
-0.0216962
-0.0184281
-0.0183728
0.000147304
-0.0387763
0.000395452
5.78245e-05
0.00454825
0.254666
0.593108
0.214388
-0.0115537
-0.0126235
0.237464
0.0146973
0.000348014
0.0403884
-0.0153318
-0.0146954
-0.00432073
0.0633577
0.00108547
0.211574
0.000664958
-0.00586924
-0.0193714
0.26253
0.000389284
-0.0255311
-0.0816183
0.11777
-0.0263045
-0.00578907
-0.0902948
0.00013408
-0.209347
-0.00487892
0.0204299
-0.0224596
0.00285898
-0.0149519
0.244928
0.573968
0.187806
0.173986
-0.0424877
0.0700248
0.0151249
0.247025
0.303943
-0.000217765
-0.00155123
0.589807
7.20332e-05
-0.201324
-0.105799
-0.0197112
0.00097257
0.0309652
-0.00131687
0.00177588
0.45795
0.675436
-0.000123952
0.000405396
-0.00115807
-1.88695e-05
-0.142839
0.211733
0.13841
2.3308e-05
-0.0392245
-0.0318876
0.000703639
-0.0028054
0.0819324
0.661968
-8.98061e-05
1.2648e-06
0.244279
-0.00313971
-0.000127925
0.0358525
0.00436228
-0.00353389
-0.00201213
-0.184625
-0.0163377
-0.00128777
-0.0296343
0.000417021
-9.01841e-05
-0.0030594
-0.0274363
-0.000188152
-0.0214771
0.00082527
-0.0252909
0.265807
1.1232e-05
0.869065
-0.0407083
0.555851
-0.0244255
-0.000441784
1.33606e-05
-0.000329445
-0.00610709
0.122021
-0.0026656
-0.0142819
0.462479
-0.0556011
-0.0559083
0.00827502
0.00722993
0.474831
-0.000384206
-0.0253162
-0.0200122
0.00032434
-0.0119572
0.000846221
-0.00927574
-0.0557851
0.744179
-0.0574728
-0.00214066
-0.0212012
-0.00286363
0.0219677
0.0855282
-0.0154385
8.48768e-06
0.273745
-0.013593
-0.0623433
-0.00263482
0.0045071
-0.0359226
0.0046818
-0.109146
-0.000768311
0.373395
-0.0060527
0.0844677
-0.0385479
0.0298391
-4.8311e-07
-0.0352425
-0.0215377
-0.0258134
0.034714
-0.0718857
0.000427919
-0.151165
-0.00128579
2.85576e-05
-0.00255666
0.000372944
0.671324
0.000332923
0.394013
-0.0216357
0.0285291
0.00293685
0.0872692
0.00341592
0.163506
4.10545e-06
-0.0271103
-0.00172863
0.00131278
-0.0260443
6.6232e-05
-0.0619433
0.590868
-0.100536
0.000348276
-0.103421
0.121344
0.480035
-0.000474523
-0.000239284
-5.50302e-05
0.000282147
0.605069
-0.0156182
-0.0285381
0.132427
0.000271886
-0.0998547
0.190051
-9.12935e-05
0.0179878
0.585666
-0.00200189
-0.000578827
0.000518842
0.00321174
-0.0192559
-0.00630143
0.325492
-0.00998724
0.751178
0.904089
-0.00260225
0.000165771
0.345256
-0.0034798
-0.0168548
0.000384254
0.143954
-0.0388414
0.720686
-0.00162727
4.92669e-05
-0.0136881
-0.115629
-0.0392505
-0.00355185
0.0110805
0.123295
-0.000142601
-0.0973972
5.38883e-05
0.00163476
1.32197e-08
-0.20244
-0.0619697
0.211878
-1.50937e-05
0.574656
-0.000351805
-0.0114516
-0.000510601
-0.058441
-0.0129413
0.0657747
-0.000121337
-0.0382383
-0.00241398
-0.0132341
2.37419e-05
2.46232e-05
-0.000202433
-0.0413774
0.00150319
-0.000947437
-0.0289571
0.00020204
0.000423503
-0.00106618
-0.000431061
0.234944
0.0614803
-0.128087
-0.0234528
-0.0542161
-1.21445e-06
-0.0941143
-0.0569395
0.000493033
-0.0317363
-0.00183875
-0.0333126
-0.156896
0.00065143
-0.0170788
2.97373e-05
-0.00577169
-0.000323868
0.234614
-0.00781813
0.000258157
-0.000134953
0.0286188
-0.0457616
-0.0034602
7.42878e-05
0.329227
0.388043
0.0014039
-0.00596791
-0.110949
-0.0567931
0.000173475
-1.64435e-06
0.250457
-0.0321191
0.000210424
-0.01602
-0.000746888
-2.3667e-06
0.0515112
-0.07628
-0.0571937
-0.059288
-0.0223682
-0.00666152
-0.0163782
-0.000698856
0.160077
-9.89202e-05
-0.0326566
0.0362429
2.16225e-06
-0.103679
-0.011357
0.144381
-0.000958863
-0.00966718
0.469123
0.0478188
-0.0441985
-0.020394
0.246624
0.00142514
-0.0126071
-0.037332
0.209007
-0.00102261
-0.000290909
-0.136657
-0.00988686
-0.0130038
0.801287
-0.00650492
-1.97638e-06
-0.195959
0.00226397
0.00529119
0.163173
-0.16887
-0.0496284
-0.00211049
0.145578
-0.0210762
0.052355
-0.00567316
0.118623
0.0861093
-0.0263981
0.113737
0.18551
-0.000322414
0.0462942
0.675066
-0.133774
0.000476486
-0.0555912
0.147331
-0.0174153
0.0305429
0.242323
-0.00412263
-0.00197966
-0.00536241
-0.00407588
-0.0487574
0.0216893
0.000418807
0.480198
0.744208
-0.0330493
-0.00168562
-0.0412267
-0.0378493
-0.0388345
0.254533
0.282945
-0.00212621
-0.0303845
-0.0378388
-0.000917761
0.0466183
-0.058543
-0.00283655
0.0375264
0.000360351
0.16501
-0.117415
0.127374
-0.0571407
-0.200898
0.436681
-0.00123077
-0.047367
-0.095842
-0.000129098
-0.0214514
-0.0956624
-0.165419
-0.0640397
-0.00476847
-0.0130804
0.00107994
-0.181883
-0.00029013
-0.0154559
-0.0615288
0.163085
-0.0549877
-0.0575419
-0.00940009
0.00167557
0.209145
-0.0441526
-9.16895e-06
-0.00264744
-0.000595675
-0.0123944
-0.0203985
-0.00151538
0.0526919
-0.196638
0.00289593
-0.0337476
-0.00907244
0.0409908
0.00160646
0.00304516
-0.00359231
0.836314
-0.0330524
2.62603e-06
-0.00278734
-0.000302171
0.279859
-0.013487
1.72141e-07
-0.00978277
-0.00186234
-0.0620509
0.127563
0.0503496
-0.100026
-0.0225067
0.00100048
0.483948
-0.02566
0.0944693
-0.00594913
-0.11471
0.00876545
0.00314353
-0.00011648
-0.0119052
-0.000136974
-0.0650054
-0.000937731
-0.14281
5.00201e-05
0.00283359
6.13347e-05
-0.00272408
0.000148121
0.128975
-0.02099
0.453453
-0.00892216
0.0896303
-0.151008
-0.001014
0.446022
-0.0398534
-0.0203713
0.918707
-0.000472054
-0.0093392
-0.180165
0.0315362
6.25656e-05
-0.0183602
0.00589491
-0.047634
-0.0254595
0.584794
0.00227322
-0.182873
0.126922
-0.160554
0.00389994
0.00170344
-6.92197e-07
-0.000107447
-0.00161231
0.014508
-0.000372296
-0.00325178
-0.0022838
0.482195
0.393426
-0.0608291
0.000127621
-0.0900736
0.0483106
-0.120929
0.000128809
-0.103241
-0.0404404
8.6078e-05
-0.00514879
0.0383257
-0.0278219
-0.000748468
-0.0534344
0.822521
-0.0851074
0.000354147
-0.0591968
0.0321996
0.000501278
0.000110829
-0.179871
-0.00153706
-0.168815
2.20258e-05
-0.00909805
-0.0401031
0.697579
-0.0107609
0.00467082
-0.0198759
-0.000152493
0.125639
-0.000314925
0.0258641
0.142967
-3.15727e-05
0.0356449
0.00190926
0.728106
0.913441
0.013537
0.637181
0.481208
-0.0959289
-0.0364984
0.000267833
-0.0131677
-0.0422343
-0.00153291
-0.000123936
-0.00188971
-0.000591431
-2.7654e-05
-0.0128061
-0.000547254
-0.0325845
-0.0747385
-3.4065e-06
-0.000174831
-0.15228
-3.57983e-06
-1.58456e-05
0.12359
-0.0157922
-0.0383653
-0.000910846
-0.0590215
0.0138838
-0.0356379
-0.003351
0.0038702
0.161591
0.0387813
-0.0397774
0.000485757
0.000614895
9.51692e-06
-0.0248631
0.359775
0.00946763
1.62295e-05
-0.179174
0.000141419
7.96463e-06
0.113324
0.00068764
0.681011
-0.00166271
0.24847
-0.00807729
0.00382561
-0.00911389
-0.000136601
0.158374
-0.000696557
0.00163616
0.614905
0.58536
0.854311
-0.00227246
-0.183138
-0.00565196
3.25076e-05
-0.0384064
-0.0050892
0.245354
0.23314
0.00256847
-0.117685
9.34165e-05
0.0444236
-0.000756718
-0.0106133
0.00510697
-0.00191878
-0.00413502
-0.0164434
-0.00313099
-0.011082
0.127144
0.00210046
0.157535
-0.0267987
-0.186309
-0.00666545
0.0370508
-0.0210195
0.842685
0.386276
0.0141476
-0.0194506
5.52432e-05
-0.000650397
-0.0249201
-0.0555916
-0.0403506
0.0372211
0.234235
-0.135363
0.0701556
-0.00022299
0.00896102
-0.00575815
0.221564
-0.0592012
-3.07512e-05
0.151634
-2.57038e-05
-7.70301e-05
-1.51472e-05
1.25817e-06
1.05231e-06
0.225591
0.00324209
-0.0288406
-0.00109877
-0.211836
-0.04299
0.41821
0.00217346
-0.000876384
-0.00281266
-1.51673e-05
-0.000661911
-0.0943809
0.0114851
0.152301
-0.00559369
0.127381
-0.0203144
0.00753627
0.0235261
0.000667717
0.599101
7.57509e-05
-0.00343845
-0.000617508
-0.0197166
-0.0091993
0.184207
-0.00355002
4.82733e-05
-0.0986511
-0.00498787
0.255151
2.37052e-05
9.33704e-05
6.88554e-05
-0.034367
-0.00227013
-0.0247005
-0.0572856
0.0950552
0.418243
-0.00152449
0.000143552
0.000651774
-0.00117148
0.0899704
-0.056065
-0.00309049
0.035747
-0.208382
0.000692642
-0.0984769
-0.00264745
0.002448
-0.0424682
-0.000339414
0.0188655
0.237231
0.376108
0.169329
-0.000139941
-0.182017
7.24861e-05
-0.0308201
-0.0314464
0.0576541
-0.00916844
-0.14052
-0.0280985
-0.0377454
-0.00465823
-0.00912907
-0.0282472
-0.12704
5.85062e-05
0.0826157
-0.000503772
0.261698
0.049074
-0.00295368
0.000139287
0.000726155
-0.016884
3.99187e-05
0.0946351
-0.00914048
-0.118382
-0.0799176
0.0557908
0.479859
-0.0124734
-0.0280801
0.140363
0.0211272
-0.000980547
0.0038251
0.859803
0.00166747
0.000491713
-0.14907
-0.0124613
-0.0270126
-0.00356657
0.226973
0.000181432
0.11158
0.485865
3.11469e-06
-0.0130875
0.000105666
0.0877136
-0.0118097
0.00724598
-0.0062381
-0.0129259
-0.0266061
-4.41692e-06
-0.00183756
-0.0137882
0.00911553
-0.00353262
2.86438e-05
-0.00214626
-0.0314159
-0.0581463
-0.00544094
2.61508e-05
0.0166827
-0.000981813
0.000725272
0.0280469
0.162507
-0.0181455
-0.0279001
0.0586632
-0.000689789
-0.000136416
-0.0325117
-0.000390366
-0.000534923
-0.016466
-0.00980292
-0.000247386
-0.00664082
-0.00206305
0.0210921
0.000149465
-0.000328299
0.000103997
0.0906012
-0.000986053
-0.00341488
0.0195014
-1.371e-06
0.000127965
-8.43927e-05
0.222602
-0.00117555
-0.0058292
-4.27577e-05
-0.114231
0.13239
-0.00327218
-0.129721
8.25915e-06
-6.81479e-06
0.00820948
3.6053e-05
-0.000123283
0.446603
0.00366398
-0.00201112
-0.0603572
6.00649e-05
0.00069033
-0.0107819
-0.00147945
-0.000788557
0.574747
-0.000181897
-0.0581478
0.218763
-0.00011657
-0.0285797
-0.000403742
-0.0286003
-0.0412787
0.0244153
-0.00699954
-0.000433963
-0.00652579
-0.107406
-0.00302041
-0.017041
0.000912547
-0.000640228
-4.48085e-05
-0.000175828
-0.0660655
-0.0249367
0.105368
0.00247152
-0.0130569
0.824384
0.116896
-0.05612
-0.000167188
-0.0260677
-0.0324519
0.0452049
-0.0521343
-0.0897789
0.0884111
0.0989605
-0.0181379
-0.0513253
0.385777
-0.0581064
0.000243937
-0.0593364
-0.060686
-0.00731178
0.00658854
-0.0208845
-0.00151018
0.0200223
-0.0349774
0.36267
-0.0477149
0.369539
-0.036602
-0.000533559
0.00269987
-0.000136976
6.68029e-05
1.37532e-05
0.166795
-2.38664e-05
-0.0267224
-0.000372905
0.00851602
-0.0405337
-0.000308798
-0.0136804
-0.0285477
-0.000102216
0.165135
0.00496934
-0.000806272
-0.0268402
0.0726948
-5.31624e-07
0.0472888
0.000719476
0.0978434
-0.040077
-0.037611
-0.0278265
-0.000795267
-0.000574555
0.119181
0.222492
0.21956
-0.00526975
-0.0306445
0.35887
0.044512
0.00691094
-1.15946e-06
0.115226
0.0194148
-0.000358824
-0.0950602
0.44364
-0.0205023
0.000637167
0.728216
-0.000100638
-0.00777998
0.0879206
0.232852
0.0923964
0.093526
0.512595
0.19115
-0.000180551
-0.000505194
-0.000908648
-0.000785734
0.0992209
-0.0261974
0.344623
-0.0179277
-0.00665265
-0.0179695
-0.0872006
0.000546201
0.000765265
-0.000496684
-0.0341934
-0.00132106
0.00613182
3.48437e-05
5.97137e-05
0.000113459
9.80206e-06
0.000619013
-0.109847
-0.00679849
-0.118061
-0.12589
0.793631
-0.0364237
-0.00032695
-0.00171056
-0.156045
-0.000772348
-0.000112148
-0.0133907
-0.00226779
-0.00054716
-0.00680714
0.0325133
-1.16234e-05
0.00338042
0.00268277
-0.00047958
-0.000237708
0.00291029
0.00230724
-0.0402328
0.0352487
-0.0573863
-0.0117876
-0.0143846
-0.0456578
-0.000990849
3.60242e-05
0.000193784
-0.00426167
0.160382
-0.126614
-0.00562047
-0.00966839
-0.101359
-0.000373339
0.484848
-0.0109015
0.066783
0.000693087
-0.000468317
0.000147252
-0.0686545
-0.0609934
0.463609
0.486549
0.118197
-0.0130793
-0.0314568
-2.36134e-05
4.27654e-05
-0.00777107
-0.124446
0.206867
-0.112387
-0.0314135
-0.0351179
0.138561
-0.0154794
-0.154555
2.36667e-06
-0.0321121
0.164539
0.00366129
-1.51494e-06
-0.00786841
-0.00420023
0.217172
0.0624123
0.00217286
-0.0146932
0.832058
-0.0116542
-1.89876e-07
2.76385e-05
0.00682355
-0.0131075
0.086752
3.28451e-05
-0.0804263
0.00205344
0.00011466
0.562439
-0.00774548
0.0881078
-0.00852161
0.000714422
0.0121447
-0.0784846
0.131349
-0.0195171
-0.0120716
0.5644
0.000614837
0.0242767
0.0724621
0.341369
-0.000984273
0.0752397
1.02481e-06
0.000531482
0.119792
-0.0110095
-0.00460836
0.0467766
0.000106098
0.208705
-0.0691031
1.37459e-05
-0.0523792
-0.00188281
-0.00673981
-0.000187933
-3.82092e-05
-0.0344887
-0.09883
0.000684816
-0.00516213
0.001672
0.0923046
0.420531
0.000212946
-0.0018172
-0.000361612
-0.0369463
-0.000220545
0.000111455
-1.66419e-05
0.365762
-0.0113734
0.00075988
-0.0428094
-0.0271325
-0.0550284
0.411991
0.257263
0.22525
1.48703e-05
-0.177681
-0.0366141
-0.00824146
-0.0535146
-0.00100466
0.162147
-0.015659
0.00718165
-0.00085331
0.0141057
-0.0546231
0.0110817
3.53789e-06
0.0340441
-3.72449e-05
-0.000233636
-0.0589675
-0.00123096
-0.0336186
0.807084
-0.0106215
0.00129907
-0.00235962
0.141832
0.236447
0.473927
0.245665
-0.0569276
-0.00184994
-0.000619035
-0.022208
-0.0297654
0.0020763
-5.70434e-05
-0.0611226
0.00149097
-0.0238201
-0.0096029
-4.94459e-06
-0.0913952
0.0131287
0.545449
0.125723
-5.99703e-06
0.0251037
0.00071998
-0.0526928
-0.0570413
-0.0120321
0.450318
-0.000413931
-0.033267
-0.019497
-0.000353779
0.00016488
-0.0277312
0.114667
-0.0380393
-0.034507
0.00822524
-0.108688
-1.65363e-06
4.10932e-05
0.00575194
0.00372407
-0.0266953
-0.000610652
0.166848
-8.79843e-05
-6.90026e-07
-0.00067269
0.00278386
-0.0110059
-9.4901e-06
-0.0231018
0.0364412
0.141259
-0.00223726
0.286737
-0.0163591
0.143464
-0.00909688
0.00752224
0.000108246
0.0144778
0.00766014
0.0563155
0.677125
0.185278
-0.00970956
0.000334045
0.215891
-0.00844104
0.222881
3.01223e-06
0.00826081
0.0164315
0.50743
0.000252242
1.33211e-05
0.171896
0.480827
0.100889
6.25478e-05
-0.175935
0.0638687
-0.00336531
-0.00105098
0.00206483
0.0238968
0.00762031
0.356029
-0.00176324
-0.0388287
-0.00294143
-0.000130212
-0.00127972
0.41728
0.0955637
-0.00964563
-0.000669783
0.0692248
-0.0798397
0.0035495
-0.031188
0.000291307
-0.0311855
0.0134949
-0.0134239
-0.00234808
-0.0588432
-0.00819263
-3.85873e-06
-0.116459
-0.00285936
0.000169407
0.00919454
-0.00142659
-0.00353698
0.0235434
-1.22369e-05
0.0102796
-0.042763
0.263424
-0.000172084
0.736093
8.40201e-06
-0.00709466
0.00653146
-2.83847e-05
-0.00637913
-0.00182765
-0.0563776
0.186444
-0.0227148
-0.0648222
-0.0371851
0.303181
9.5286e-06
-0.137318
0.0382682
-0.0239207
1.45419e-05
0.822168
0.00528077
0.00727868
-0.00377346
-0.0024959
-3.65902e-05
0.26624
-0.00535074
0.121537
0.000259232
-0.0432423
-0.00097277
-2.2445e-06
0.356655
-4.59108e-05
0.16157
0.616132
0.147612
-0.00781338
0.149021
0.128364
0.286619
0.353204
0.22029
0.555691
3.19934e-06
-0.0256432
0.148277
-0.000480183
0.112628
-0.0368059
-5.48687e-06
-0.000205405
-0.0276922
0.737678
0.00118563
0.00485953
0.0921264
-0.000193061
0.000130964
0.00768647
-0.0252846
0.00777817
0.266885
0.719032
-0.02595
0.36443
-0.0352301
0.0332756
0.448871
-0.00012303
0.18875
-0.00617879
0.0226442
0.00159661
-0.11882
-0.0113549
-0.0441083
4.43092e-06
-0.0203808
1.73088e-05
0.159751
0.746591
-0.16261
0.000829882
-0.0450711
-0.0328171
-4.43642e-05
0.00598494
-0.026737
0.00621118
-0.0295605
-0.0245993
-0.000536817
0.000271814
0.0420913
0.000229285
-0.0293187
1.83968e-05
0.101847
-0.00148197
-0.0326889
0.000225982
-0.0054969
-0.0359419
-0.0131948
-0.0470185
0.000734259
0.0628738
-0.0328276
-0.0595956
-0.00011545
0.0410806
0.0419415
-0.0796882
0.3508
-0.00668755
-0.0600814
0.00898341
-0.00466385
0.00484172
0.000104745
-0.162697
-0.0193109
-0.00329257
-0.000113411
-0.000710111
0.0853904
-3.91114e-07
-0.000462891
0.000130165
-1.61131e-05
-0.00179736
0.416946
0.863819
-0.000330276
-0.00983599
-1.6249e-05
-0.0541223
0.0029009
-0.00945842
0.019317
-0.0014179
0.127452
0.00262541
-0.00134467
-0.00155401
-0.00537164
-0.0016298
-0.000237586
0.30653
-0.00202474
0.729184
-0.0229713
1.10079e-05
0.0933987
-0.000684631
-0.0246709
0.159548
-0.00358413
-0.0229409
0.714764
-0.0329782
0.000537203
-0.0769784
0.0491889
-0.0067333
-0.0315439
-3.09642e-05
-0.0250024
0.00077588
0.493304
-0.0134195
-0.0259328
0.0199095
-0.00668288
-0.0135561
-0.0183732
-0.0212188
0.143216
0.00112085
-0.122949
-0.00655562
-0.00195691
-0.000444387
0.00478314
-0.0359603
-0.00105593
-0.0756886
0.00545661
0.000842717
-0.0382909
-0.000272166
-0.000452134
-0.00144057
-4.61416e-05
-0.0582397
0.00118503
0.128656
4.41003e-05
-0.00045999
0.000108341
0.610701
-4.64104e-05
-0.0539421
0.0025736
0.147135
0.000420355
-0.0047794
0.00304837
0.00197188
-0.0138868
-0.0366611
-0.0349935
-0.0225966
-0.00590159
-0.000360385
0.0917467
0.030234
-0.0383074
-0.000930282
-0.215876
-0.035961
-0.000125355
-0.00772441
0.0462026
0.715521
0.364126
-0.00307581
-0.132146
-0.0116257
-0.000476185
-0.000189748
-0.0256931
-4.3607e-07
-0.100735
-0.0233084
-5.65497e-06
6.26697e-05
-0.0406616
0.0103606
-0.03158
0.0421389
8.82088e-05
-0.0362456
0.0168409
-0.0325201
0.000223268
-0.0351041
-0.000393993
0.164549
-0.000530804
-0.0490778
-2.46342e-06
-0.00262607
-0.0279302
-0.14279
-0.0126476
-0.0295552
0.000182228
-0.04092
-0.0115495
-0.0231393
-0.0727077
0.00473349
0.0431819
0.746046
0.00306179
0.0192298
0.000410839
9.02693e-05
-0.000156904
-0.0396955
1.67998e-05
-0.00153216
-0.0289626
0.65444
0.674795
-0.000634092
0.215567
-0.00672301
0.000789638
-0.00073843
-0.0286199
-0.037326
6.13269e-05
0.0219675
-0.0199342
-0.11136
-0.060092
-0.0607391
-0.0233507
2.99291e-05
0.000883205
-0.00731516
0.171007
-0.035578
-0.0434178
-0.0312929
0.661964
-0.0107237
0.141032
-3.73246e-05
-0.0327894
-0.00455959
4.96291e-05
0.0010585
-0.00105642
-0.00360484
-0.0605084
-0.00328944
0.0225384
0.416925
-0.00692746
2.60638e-06
2.35451e-05
-0.0265338
0.0341806
-0.0258527
-0.00913595
0.00116973
0.000560105
0.10085
-2.90888e-05
-0.0204375
-0.00063589
-0.00702478
-0.00342521
-0.00370824
0.0123461
0.00837162
0.00573923
0.0272746
0.914885
-0.0743867
0.226355
0.0534731
-0.04272
-0.0616126
0.00486365
-0.0427202
-0.0201441
0.128529
-0.0181676
0.000106302
-0.00567256
-4.7019e-07
-0.0527958
-0.00238643
-0.00184216
-0.00620342
0.136053
-0.000171622
-1.42414e-05
-0.0601407
-0.149272
1.30319e-05
3.21791e-05
0.00122048
-0.18
-2.22011e-06
-0.0393193
-0.0012178
-0.0264654
-0.0258207
-0.0910805
-0.01567
0.00904751
-0.0422451
0.000258853
-0.000694296
0.261055
-0.00702449
0.014792
0.00010294
-0.0227819
-0.0229697
0.000127511
-0.017099
-0.0218373
0.00296467
0.455322
-3.33308e-05
-0.146086
-0.000696507
-0.00113206
-0.000342548
-0.00349473
0.198086
0.00416931
-1.53928e-07
0.0694519
-0.0111383
-0.000406366
-0.12218
-0.00141845
0.0333943
-0.0599858
-0.000142349
-0.00137557
-0.0348329
-0.0257407
8.6631e-05
-0.169807
-0.025488
0.00909819
-0.0382129
0.00948463
0.421373
-0.00742799
0.0217617
0.118761
-0.000411688
-0.000295869
0.249683
8.97944e-06
0.894984
-0.0143768
-4.01482e-07
0.143799
0.185458
-0.207637
-0.00111068
-0.0311143
0.0346894
-0.00552723
0.0104926
7.84605e-08
-0.00722801
0.0408792
-0.0238849
-0.0174344
-0.002258
-0.042865
-0.00421667
-0.00253963
-0.000122845
0.0460469
0.697597
-0.0317453
-8.04903e-09
-8.47882e-06
0.00118019
-0.00122903
-0.16833
0.143872
-0.0435435
-0.0234595
-0.0973092
-0.106028
0.629926
6.9674e-05
0.00705162
0.00576939
-0.0457699
0.00173696
0.0668598
-0.00224506
-0.00069467
-0.0073271
-1.81247e-05
1.10336e-05
0.0325324
-0.00166737
0.160564
-3.2866e-05
0.0465116
-0.00877562
-0.031272
-0.0229888
-0.0250295
-0.0602491
0.00989553
2.1322e-06
0.0518815
-0.10278
-0.00960938
0.0924142
-0.0420301
-0.0172007
-0.0348397
-0.194427
0.0950359
-0.186108
0.0481107
0.00034635
-0.0231028
0.000204376
0.139136
0.0109557
-0.000166045
-4.89744e-06
0.100028
-0.00074897
0.041663
0.100195
-0.1638
-2.69164e-05
-0.0199453
0.466278
0.0916876
-0.00583424
0.141455
0.0068108
0.0434911
0.000359435
-0.00146947
0.0143343
0.185045
-0.0369609
-0.000171972
-0.00068973
9.97624e-05
-0.0495789
-0.0385857
0.0465229
0.00562331
-0.0189551
-0.123571
-0.0403718
-0.077232
-0.0404988
0.266697
0.0296586
-0.080382
-0.00160803
1.28248e-05
-0.00868982
-0.100988
0.00175712
-0.000186519
0.118937
0.0728335
-0.0282948
0.10502
0.00370895
0.448134
-0.00121684
0.164726
-0.0864761
-0.00151649
1.2454e-06
0.0311538
-0.0269274
-0.000693462
-0.0118539
0.228859
0.232199
-0.0160832
0.443487
0.153394
-0.0269467
-0.0248739
-0.0546136
-0.0031663
0.138285
-0.0497288
-0.000247768
-1.44094e-06
-0.000675153
-0.0318757
-0.00489395
-0.0202891
-0.0718354
-0.110432
-0.000835907
0.484903
-0.0139148
0.249374
0.753005
0.143013
-0.0590189
-4.35448e-06
-0.0257746
0.00156896
-0.00715616
0.422291
0.107803
0.0864979
0.619156
0.00593914
0.0361026
-0.0348709
4.43599e-05
0.206245
-0.00417395
-0.0561325
-0.0214067
0.00683313
3.21162e-05
-0.0778793
0.0480762
2.26854e-06
0.742276
0.0709487
-0.00029243
-0.000184572
-0.000936672
0.210038
0.0589053
-6.75582e-07
-0.000953503
9.66638e-05
-0.000152012
0.00135386
-0.000934996
-0.00693392
-0.00342152
-0.00184204
-0.00721988
-0.000343657
-0.000288664
0.0287632
-5.07523e-06
-1.75487e-06
-0.0563533
-0.0416668
-0.00331564
0.360538
-0.0365809
-0.000544398
-0.00739881
-4.22934e-07
0.00344504
-0.0532999
-0.0996308
-0.12598
-0.000255364
0.259605
-0.002627
0.121558
0.0139152
-0.0191544
-0.0202764
-0.00902471
5.79018e-05
0.0073214
-0.122539
0.000266476
-0.0378889
-0.0423708
1.00875e-05
0.811082
0.115606
-0.00101201
-0.045355
-0.0140116
-0.0200119
-0.00955976
1.26232e-05
-0.0261868
-0.0158352
-8.51569e-07
0.0682648
1.52514e-05
-0.000831428
-0.0314725
-0.0605913
-0.00487042
-0.00608466
-1.58143e-06
-0.0477713
0.0016712
0.139948
-0.0267409
-4.61686e-06
-0.00502301
-0.00104091
-0.0664013
-0.148727
-0.0924661
-0.00791469
-0.054243
0.103029
0.000963311
-1.89496e-06
-0.00243313
-0.0305139
-0.0151326
0.59846
-0.0388631
0.870401
6.59159e-05
-0.0318062
-0.0601805
0.218141
0.44836
-0.00955182
-0.00135604
-0.0550698
1.11897e-05
0.651018
0.209503
0.0835798
-0.0331714
0.0522397
0.104352
0.578584
0.205136
0.158094
-0.0492044
-0.110774
0.238611
-0.0593
-0.00102842
-0.0878589
0.0192787
0.000681648
-0.0230623
-0.000161522
0.00418166
-0.00338717
0.00185966
-0.0249904
0.000102953
-0.0258046
-0.110323
-0.0494934
1.864e-05
-0.00390596
-3.67314e-05
4.55953e-05
0.122598
-0.0546534
-0.0128841
-0.000299784
0.00904786
4.53154e-06
-3.07078e-05
-0.000426569
-0.000215963
-0.120132
-0.0405675
-0.00105631
0.0888006
-0.00139385
-0.0424497
0.0409431
-0.00814524
-0.00168575
7.49383e-05
0.00601947
-0.0327576
-0.00160511
4.82014e-05
0.00345138
-0.0720793
-0.0252502
0.0355572
0.000145179
-0.0257161
0.735183
0.000792052
0.00100004
0.032368
-0.000393311
-0.000731257
1.28449e-06
-7.87124e-07
-5.65091e-05
0.0137414
-0.0543226
0.526917
0.812694
-0.000248443
1.0254e-06
-0.000248674
-0.0568263
0.926687
-0.0460777
-0.0594201
-0.034565
-3.6047e-05
0.000738566
-0.0455827
-0.00238291
-0.0598548
0.0102773
-0.0778439
-0.0502928
0.00120621
0.6506
-0.119347
0.00046829
-0.00144903
0.00604045
-0.0188097
-0.158649
-0.0559369
-0.00792398
0.32352
0.480189
0.124322
0.284694
0.0554505
-0.0649362
-0.00776942
0.00405149
0.0027596
-0.0276839
0.000383428
-4.10771e-06
-0.121047
-0.158025
-0.000539811
-0.0249937
-0.0590771
-0.0593019
0.471147
-0.0015594
-0.0253419
-0.0145028
-0.0323649
-0.00753701
0.0230294
0.00366713
-0.00332511
-0.0154279
-0.0135779
-0.0104014
-0.0281139
-0.00412109
-0.059032
0.238426
-0.0318228
-0.0140877
-0.0039616
0.11565
-0.103113
-0.0559281
-0.089758
4.93144e-06
0.265351
0.0410129
-0.0379342
0.00165474
-0.0205816
-0.0136343
-0.00176268
-0.0429961
-0.0124421
-0.12336
-0.00592863
0.00167692
0.00010182
-0.000138639
0.0303431
-8.47998e-06
-0.0169854
-0.0342378
-0.0374247
-0.0001538
0.000103386
0.000222355
0.00154673
-0.0149008
0.0152833
-0.0485066
-0.0584099
-0.0557875
-0.0100365
-0.00226412
0.582987
-0.0102657
-0.00335192
0.283964
-0.0141396
0.301305
0.594496
-0.00908687
0.107917
-0.0124948
0.00783562
-0.0021929
-0.00159264
-0.00490644
-0.0323253
-0.159418
-0.0335224
0.00226434
0.0682845
-0.0998207
-0.164108
-0.000245108
-0.00037974
0.258675
0.182474
-0.014196
0.269388
-0.00832668