/*--------------------------------*- C++ -*----------------------------------*\
  =========                 |
  \\      /  F ield         | OpenFOAM: The Open Source CFD Toolbox
   \\    /   O peration     | Website:  https://openfoam.org
    \\  /    A nd           | Version:  7
     \\/     M anipulation  |
\*---------------------------------------------------------------------------*/
FoamFile
{
    version     2.0;
    format      ascii;
    class       volVectorField;
    location    "5";
    object      U;
}
// * * * * * * * * * * * * * * * * * * * * * * * * * * * * * * * * * * * * * //

dimensions      [0 1 -1 0 0 0 0];

internalField   nonuniform List<vector> 
29540
(
(1.00541 -0.00735459 5.26239e-22)
(1.00717 0.00247604 2.07155e-21)
(0.995245 -0.00169492 -2.98607e-21)
(0.98333 -0.0242452 8.96963e-22)
(0.998751 -2.61782e-05 4.26314e-22)
(0.977871 -0.0145898 -1.37032e-21)
(1.02535 -0.0469151 6.18143e-22)
(1.00698 -0.0113422 -5.31479e-23)
(1.00105 -0.00101533 7.16255e-23)
(1.00009 -2.43744e-05 1.95123e-23)
(1.00758 -0.0152089 1.13393e-23)
(0.998722 -0.00857104 -1.01176e-21)
(0.99976 -0.000101681 5.81249e-23)
(0.999988 -5.25349e-06 1.41098e-24)
(1.1125 0.0515163 6.06408e-21)
(0.99687 -0.00101328 4.5364e-22)
(0.999908 -0.000440246 -2.36035e-23)
(1.08329 -0.0162791 -5.62839e-22)
(0.998907 -0.000944908 -1.45886e-22)
(0.994372 -0.000421338 -6.54546e-22)
(0.999566 -0.000136574 -2.00135e-22)
(1.001 -0.00102106 2.51774e-22)
(0.995188 -0.00179843 3.28148e-21)
(0.998916 -8.66636e-05 1.88468e-22)
(0.921157 0.0753873 7.22337e-22)
(1.00758 0.00198466 1.11451e-20)
(0.999744 -2.68763e-05 1.32347e-22)
(0.959677 0.0635703 -5.26274e-20)
(1.1165 0.0508109 -1.55349e-20)
(0.999559 -0.00474626 -1.96696e-22)
(1.00818 -0.00595316 3.62142e-22)
(1.02128 -0.00535585 -2.62726e-21)
(0.982702 -0.0557154 8.27515e-21)
(0.998678 -0.0119493 4.86832e-22)
(0.958114 0.0602276 4.32344e-20)
(1.00091 -0.0171941 1.13386e-21)
(1.0455 0.0256003 -3.57989e-21)
(0.985352 -0.0137429 3.85948e-21)
(1.0029 -0.000432043 -9.73108e-22)
(1.00275 -0.000240498 1.83953e-21)
(1.00022 -9.31654e-05 -5.8328e-23)
(0.993584 -0.0154427 -3.55776e-21)
(0.999919 -0.00042652 -4.2414e-25)
(1.00949 -0.0390955 -3.76932e-21)
(1.00001 -1.65954e-06 -4.04099e-24)
(0.999617 -0.00482516 1.54616e-22)
(0.998558 -0.00637514 -2.78959e-22)
(1.00003 -4.48071e-05 1.05301e-23)
(1.00169 -0.00195234 -1.02322e-21)
(1.04493 0.0238696 -1.47661e-21)
(1.05575 -0.0633516 3.20593e-22)
(0.985275 -0.0215387 -4.21382e-21)
(1.02096 -0.00470349 9.23065e-22)
(0.978558 -0.014529 -2.30481e-21)
(0.996943 -0.00104861 -4.00216e-22)
(1.11817 0.0424255 -9.87697e-21)
(0.998246 -0.0011639 1.42472e-22)
(0.999552 -0.000153396 2.53292e-22)
(0.999621 -0.0113151 -6.38647e-22)
(1.00286 -0.0308304 -2.01571e-21)
(0.999973 -4.8238e-06 3.4631e-24)
(0.998937 -0.000963207 -3.01016e-23)
(1.16844 -0.0271061 2.18724e-21)
(1.00113 -0.0168276 -6.01871e-22)
(1.04571 0.0705953 2.7602e-20)
(0.938562 0.0204767 1.06566e-19)
(0.998854 -0.0142179 -1.25148e-21)
(0.996146 -0.0070944 1.36571e-21)
(0.952751 0.0132763 4.30335e-20)
(1.00023 -9.09681e-05 3.7777e-23)
(1.00841 0.00262166 -1.5193e-20)
(0.989696 0.0512273 3.1228e-20)
(1.00161 -0.00484731 -4.25891e-22)
(0.934832 0.0881578 2.70098e-20)
(0.995876 -0.000333132 2.10485e-21)
(1.06316 -0.0400327 8.7543e-22)
(1.17255 0.0878192 1.93589e-20)
(0.986162 -0.00780244 9.30459e-22)
(0.99998 -9.27158e-06 -9.8145e-24)
(1.00014 -0.0251559 -2.1079e-21)
(0.979042 -0.000351682 -1.5411e-21)
(1.01489 0.0239493 8.69011e-21)
(1.00559 -0.00768015 -1.58137e-21)
(0.999999 -2.93975e-05 -9.6273e-25)
(1.02682 -0.0462604 -8.22998e-22)
(1.09219 -0.126692 -3.70659e-21)
(1.02569 0.0610851 -5.17581e-20)
(0.99975 -0.000101295 -5.23868e-23)
(0.999767 -8.99005e-05 -1.53861e-23)
(0.967924 -0.0180093 -5.68975e-21)
(0.994943 -0.0267845 4.46166e-21)
(0.986088 -0.00817862 1.03054e-21)
(1.00159 -0.00202251 1.77512e-22)
(1.03355 -0.00927749 -1.57264e-21)
(0.965658 -0.00766061 -4.70792e-21)
(1.03354 0.0755603 2.49641e-20)
(0.994837 -0.0346357 6.92401e-21)
(1.00024 -0.000199 9.58494e-23)
(0.98303 -0.0304315 -7.45362e-21)
(1.10996 0.0716229 2.61348e-20)
(0.999979 -1.00423e-05 1.43166e-23)
(0.986877 -0.00514151 -5.55137e-21)
(0.999974 -5.21081e-06 -1.78127e-24)
(1.02533 -0.0129495 -8.03634e-21)
(0.984627 -0.0214065 2.80469e-21)
(1.02255 0.00636767 1.58122e-20)
(1.00222 0.0471397 4.85023e-20)
(0.999776 -9.0949e-05 -1.30337e-22)
(0.999997 -3.49411e-05 -4.4352e-26)
(0.990261 -0.055329 -3.65362e-22)
(0.981946 -0.0548463 -7.44828e-21)
(1.021 -0.0247619 9.08787e-22)
(1.00001 -5.67497e-07 7.41168e-25)
(0.999382 -0.00319834 -5.29531e-22)
(0.99995 -0.00115846 1.94824e-23)
(0.992072 0.0523622 1.25851e-22)
(1.02856 0.0351216 -1.85554e-20)
(0.993955 -0.00365481 -2.24353e-21)
(1.00001 -3.34628e-05 1.22067e-24)
(1.0018 -0.00476948 -3.20422e-22)
(1.16392 -0.0930414 3.30206e-21)
(1.0052 0.00771058 2.42083e-20)
(1.09309 -0.0608414 1.97523e-21)
(0.937469 0.0251264 -9.87042e-20)
(1.00056 -0.000186496 -2.36344e-22)
(1.09327 -0.0452494 -1.53668e-21)
(1.08282 -0.0133038 -2.98354e-21)
(1.00538 -0.0302544 1.35615e-21)
(1.00207 -0.00187186 -9.0722e-22)
(1 -0.000222535 3.62081e-24)
(1.0095 -0.0380809 1.32631e-21)
(1.17532 0.0819623 1.02801e-20)
(1.00314 0.097166 5.01626e-20)
(1.09129 -0.0734107 -2.37807e-23)
(1.02424 -0.0126756 6.78983e-21)
(1.00796 -0.00552322 6.86898e-21)
(1.05606 0.128285 3.94937e-21)
(0.986396 -0.000352523 7.84849e-21)
(1.02935 -0.116307 1.52997e-20)
(1.11072 0.0671293 -1.99336e-20)
(1.09371 -0.0416025 1.8156e-21)
(0.971528 -0.00228655 -6.3113e-21)
(0.9754 -0.0201241 1.73219e-21)
(1.00001 -1.1678e-07 -3.0886e-25)
(0.999995 -1.30499e-06 6.20624e-25)
(0.99872 -4.18546e-05 -3.33932e-22)
(0.998652 -0.0062605 5.77093e-22)
(0.986895 -0.043371 -5.86643e-21)
(1.04342 -0.0971714 6.02642e-21)
(1.20444 0.0134499 1.01794e-20)
(1.01626 -0.011482 3.56756e-21)
(1.00893 -0.0110935 1.21613e-21)
(1.00022 -0.000315458 1.49217e-22)
(0.999933 -0.000112927 1.39847e-23)
(1.00131 0.0235725 -5.16584e-20)
(1.00026 -0.000809559 1.6986e-23)
(0.996423 -0.0057973 2.3713e-24)
(1.06766 0.130187 -1.18572e-20)
(1.00401 0.0328909 -5.4836e-20)
(1.05791 -0.0621295 -1.23386e-22)
(0.979979 -0.00130709 2.649e-21)
(0.98386 -0.0238329 6.38149e-21)
(1.11938 0.0463763 2.50388e-21)
(0.999978 -2.22678e-05 3.05963e-24)
(0.999994 -1.02862e-06 -2.22121e-25)
(0.993931 -0.00385238 8.11474e-22)
(0.975995 -0.0197466 -9.77368e-21)
(1.00002 -0.000115252 -1.11595e-23)
(0.999998 -3.11553e-05 -7.7591e-25)
(0.996494 -0.00261815 -2.61953e-22)
(1.00001 -0.000217312 -3.03092e-24)
(1.0029 -0.00314337 -5.1328e-22)
(1.06433 0.133021 1.33892e-20)
(0.986593 -0.00016189 -6.64748e-21)
(1.01102 -0.0619432 -1.71386e-21)
(0.997421 -4.82094e-05 1.36485e-21)
(1.00108 -0.00141789 5.3089e-23)
(0.986515 -0.00503863 9.17685e-21)
(0.999532 -0.00319967 -4.69184e-23)
(1.09921 -0.0561112 -2.52274e-21)
(0.999992 -4.54159e-06 4.58706e-24)
(1.00539 -0.0208911 -4.19895e-22)
(1.02742 0.0623754 1.83389e-20)
(0.996333 -0.00655809 -8.37877e-23)
(1.02766 -0.11303 -1.4671e-20)
(1.02159 0.0298846 -1.63349e-20)
(0.996765 -0.00144678 -1.98201e-21)
(0.990724 -0.00757719 2.48634e-21)
(1.00202 -0.00187091 1.37881e-21)
(0.999504 -0.00442799 -2.68955e-22)
(0.999867 -3.68954e-06 1.49477e-23)
(1.0028 -0.00963639 3.3859e-22)
(0.934081 0.012454 4.12077e-20)
(1.00127 0.0222275 3.98565e-20)
(0.992721 -0.00306273 6.62068e-23)
(0.996591 -0.00571708 -8.47007e-22)
(0.98129 0.0278894 -4.18102e-20)
(1.01011 0.0188242 7.49632e-21)
(0.966307 -0.00757922 5.88363e-21)
(1.00057 -0.000273647 -1.85457e-22)
(1.02844 -0.0594064 1.85254e-21)
(0.981142 -0.0397746 7.63062e-21)
(0.998854 -0.00878121 4.92055e-22)
(1.00043 -0.000556119 -2.98304e-22)
(1.05842 0.131646 5.53655e-21)
(0.996611 -0.0026328 -1.81461e-22)
(1.0035 -0.00285311 -5.69503e-22)
(0.986239 -0.0429183 7.61075e-21)
(0.990034 -0.0564564 9.15063e-22)
(0.999984 -9.93031e-07 1.11171e-24)
(0.982995 0.0767102 -4.97453e-20)
(0.999486 -1.28941e-05 -3.2423e-24)
(0.999998 -2.51922e-05 -1.87359e-25)
(0.999731 -0.000105834 2.22054e-23)
(0.9963 -0.0271405 -1.61939e-21)
(1.1656 -0.00658221 -8.79226e-21)
(1.0059 -0.020548 1.22463e-22)
(1.00336 -0.00264498 -3.91436e-22)
(0.998926 -0.000123907 4.68033e-22)
(0.966851 -0.00847305 -1.00566e-21)
(1.00002 -0.000238388 -2.63304e-24)
(1.00024 -0.000830582 1.51127e-24)
(0.998839 -0.000100992 -3.07837e-22)
(1.01622 -0.000335186 1.48176e-20)
(0.998627 -0.00202281 -9.54097e-23)
(0.999409 -0.00298589 1.57216e-22)
(1.01537 -0.00115458 7.4238e-21)
(1.00006 -0.00020267 1.61417e-23)
(1.00001 -1.05054e-06 1.05195e-24)
(1.00261 -0.000328485 2.05204e-22)
(0.987057 -0.0158057 -3.13573e-21)
(0.988005 -0.000204537 -3.22778e-21)
(0.997585 -0.000185376 -1.44949e-21)
(1.00906 0.0018975 1.25939e-20)
(0.992105 -0.000558025 1.53634e-21)
(1.00918 -0.0108419 -1.15223e-21)
(0.999989 -5.53281e-06 4.00062e-24)
(0.998489 -0.001326 -5.59214e-22)
(1.00041 -0.000545975 3.22845e-22)
(1.02886 -0.0574387 1.7775e-21)
(1.00122 -0.0948557 1.19727e-20)
(0.999312 -5.96684e-05 2.41063e-22)
(1.00022 -0.000285735 -1.15328e-22)
(0.999371 -0.00289583 -5.38203e-23)
(1.00176 -0.00419394 -7.78714e-22)
(0.994498 -0.000309758 -2.80346e-21)
(0.999978 -1.94656e-05 -2.04164e-25)
(1.09155 -0.122496 -7.82941e-21)
(1.00003 -0.000247231 3.70601e-24)
(1.01609 -0.000355105 -1.04379e-20)
(0.998302 -0.00117273 -2.88731e-22)
(1.00007 -0.000192983 6.59329e-24)
(1.02192 0.00669379 -1.00567e-20)
(0.97916 -0.0377212 -7.92822e-21)
(1.00012 -2.2535e-05 6.33478e-23)
(1 -4.3534e-06 3.61864e-26)
(0.971457 -0.0016403 -7.20396e-21)
(0.997949 -0.086053 -1.89949e-21)
(0.995589 -0.0041424 -2.15058e-22)
(1.00471 -0.0307634 -3.70315e-22)
(1.01673 -0.0119722 -5.84672e-22)
(1.03156 0.0607051 2.27086e-21)
(1.00003 -4.22485e-05 2.88743e-24)
(0.987328 -0.0154976 3.22699e-21)
(1.12966 -0.0776491 -2.47958e-22)
(0.970289 0.0398008 1.02703e-21)
(0.996317 -0.00639808 6.44685e-22)
(1.02077 0.0286837 1.99832e-20)
(1.06392 -0.0375398 6.98129e-22)
(0.999891 -0.00126238 -1.46621e-23)
(0.877948 0.0348861 5.38148e-20)
(0.999728 -0.000221165 -1.50953e-22)
(1.01007 -0.063402 -2.37101e-21)
(0.967361 -0.00848422 7.11378e-21)
(1.00115 -0.00134273 -2.92186e-22)
(1.12933 -0.0306374 6.39657e-21)
(0.995671 -0.000479126 -1.66759e-21)
(1.00483 0.105599 3.5746e-20)
(0.998244 -0.000138309 1.29435e-22)
(0.990942 -0.00816442 -1.2976e-22)
(0.999883 -0.00115624 -1.16128e-22)
(1.09661 0.0990479 6.0024e-21)
(0.999831 -0.00888755 1.18707e-22)
(1.03106 0.0761228 1.52631e-21)
(0.999752 -1.79171e-05 -5.79388e-23)
(0.99703 -0.000975792 -6.30815e-22)
(0.970494 0.0951001 -2.11991e-20)
(1.01889 -0.00055973 -1.24029e-20)
(1.01533 -0.000568224 8.62292e-21)
(0.984493 -0.0197639 7.83262e-21)
(0.999929 -1.46468e-05 1.50087e-23)
(1.00173 -0.00399177 -9.12892e-23)
(0.999914 -0.000479731 -4.09431e-23)
(0.999998 -2.39014e-05 -7.6348e-26)
(1.03465 0.000383067 3.53817e-21)
(1.00002 -2.57414e-06 1.22185e-25)
(0.989832 -0.00723743 5.80418e-21)
(1.12551 -0.0771248 3.55737e-24)
(0.919382 0.0787139 -5.06034e-20)
(1.00558 0.0975012 -7.98992e-20)
(0.981532 -0.0330256 2.47921e-21)
(0.992311 -0.0149888 1.93338e-21)
(0.988589 -0.000753692 1.54676e-21)
(1.01673 -0.0221665 2.735e-21)
(1.00317 -0.00950875 -5.23541e-22)
(0.990637 -0.00792733 -3.43144e-21)
(0.981365 -0.0361756 1.08417e-21)
(1.03047 0.0624869 -3.45254e-20)
(0.999425 0.0275541 6.8982e-20)
(0.999358 -7.51547e-05 1.32691e-22)
(1.00362 0.047861 -6.6496e-20)
(1.03385 -0.000519567 1.25489e-21)
(1.09728 -0.0605279 -5.06715e-22)
(1.00717 -0.00870507 5.42e-22)
(1.0003 -0.00830196 -4.49043e-22)
(1.00923 -0.0291334 -6.41129e-22)
(0.997247 -0.000940341 -1.49739e-21)
(0.998655 -0.000341958 -9.89029e-23)
(0.999975 -5.1185e-06 1.84581e-23)
(0.999404 -0.00451929 3.95608e-22)
(1.05127 -0.03492 4.38309e-22)
(1.0975 0.103305 -9.61618e-21)
(1.0008 -0.000689977 1.39535e-22)
(0.985921 -0.0128876 -4.64923e-21)
(1.00803 -0.00903833 -1.72648e-21)
(0.999983 -7.56366e-06 -1.55634e-24)
(0.981452 -0.034548 -3.93415e-21)
(0.902776 0.0607878 -2.50688e-20)
(0.99679 -0.00247259 2.21984e-21)
(0.999384 -0.00236057 1.3689e-22)
(1.00743 -0.0086796 -3.37654e-22)
(1.00008 -0.0243815 2.70131e-21)
(1.0583 0.0139152 4.47629e-21)
(0.99969 -0.0051214 -7.30583e-23)
(0.999985 -2.67614e-05 9.38167e-24)
(1 -9.95854e-08 4.07595e-25)
(0.998639 -0.000310695 -1.09091e-22)
(0.969005 0.094236 3.05819e-20)
(1.0264 -0.0193969 1.83963e-21)
(1.00352 -0.0951304 -3.33615e-21)
(1 -4.21787e-06 -1.40771e-26)
(0.995931 -0.0872491 1.25212e-21)
(1.04942 -0.00771392 -5.53397e-21)
(0.997365 -8.05288e-05 -6.80632e-22)
(0.968632 -0.00307962 -8.85115e-21)
(0.999423 -0.00232227 -1.37133e-22)
(0.999781 -0.000100697 -9.52897e-24)
(0.987823 -0.0140463 -9.89922e-22)
(1.00047 -0.000603675 -1.43725e-22)
(1.1032 -0.0556142 2.52147e-21)
(1.00491 -0.000747472 -4.07224e-21)
(1.16152 0.0554248 -9.4805e-21)
(0.99989 -0.00124789 1.90787e-23)
(1.0021 -0.00745093 1.64458e-22)
(1.00485 0.00682028 -3.28212e-20)
(1.15974 -0.0888349 -7.34411e-22)
(1.00021 -0.000295997 -8.79229e-23)
(1.00022 -0.000265925 8.7207e-24)
(0.99444 0.0637347 3.15427e-21)
(0.995396 -0.0273392 -9.10706e-22)
(0.999619 -0.00503967 8.9196e-23)
(1.00943 0.0211705 3.92633e-21)
(0.975813 0.0140568 8.09902e-20)
(1.05481 -0.066093 -1.02948e-21)
(0.998896 -0.0136834 -4.05507e-22)
(1.16224 -0.00392409 8.7906e-21)
(0.999618 -3.65156e-05 -1.00483e-22)
(0.995513 -0.00217379 5.99338e-22)
(0.998279 -0.000142034 -3.70525e-22)
(1.01074 0.0176508 4.73921e-23)
(0.999989 -0.000395297 5.25265e-25)
(1.00477 -0.000879139 4.16087e-21)
(1.05764 -0.0998328 1.66398e-22)
(1.00126 0.0912705 7.69821e-20)
(0.937106 0.091322 -1.2021e-20)
(0.996862 -0.00143773 7.47794e-23)
(0.995469 -0.00405838 6.45486e-22)
(1.04366 0.0730694 -2.19217e-20)
(1.00292 -0.0317671 2.88224e-21)
(0.999976 -5.25391e-06 -1.80073e-23)
(1.19737 0.0465568 1.84949e-20)
(1.01619 0.000100132 -4.42677e-21)
(1.01573 0.000347945 -2.98773e-21)
(0.996852 -0.00703556 -9.06424e-22)
(1.01029 -0.00156344 -6.29937e-21)
(0.962838 0.0834592 1.18863e-20)
(1.03825 -0.100275 -1.80056e-21)
(0.984662 0.0828871 1.21781e-20)
(0.995412 0.082112 -2.17011e-20)
(0.999997 -3.2642e-05 1.64672e-25)
(1.04952 -0.033829 -1.35305e-21)
(1.04022 -0.0977886 1.1499e-21)
(0.998561 -0.00203586 2.51063e-22)
(1.00084 -0.0007511 -2.29141e-22)
(0.972329 0.0162201 1.92651e-20)
(1.02743 -0.0199847 -2.38108e-21)
(1.00015 -3.84246e-05 1.42399e-23)
(0.988117 -0.0301411 -9.11235e-21)
(0.980599 -0.0407203 -3.62619e-21)
(0.997092 -0.00100647 8.87459e-22)
(0.999937 -0.000110487 -1.76628e-23)
(1.03961 0.0917358 -3.7502e-21)
(1.0284 0.0337585 3.14065e-20)
(1.00002 -0.000266811 -7.58413e-25)
(1.00218 -0.00198176 1.7805e-22)
(1.00277 -0.00194648 9.65111e-22)
(1.09214 -0.0955554 4.33172e-21)
(0.984545 -0.0192386 -7.11418e-21)
(1.00003 -0.000316106 -8.16578e-24)
(0.999994 -8.42815e-07 -3.76933e-25)
(1.00025 -9.66253e-05 2.22014e-23)
(1.05723 0.015133 -4.48779e-22)
(0.985362 -0.013239 -3.69851e-21)
(1.00197 0.0391074 1.54919e-20)
(0.972026 -0.0218807 4.15826e-21)
(0.992695 -0.0149287 -2.07371e-21)
(0.987694 -0.000602722 -6.26035e-21)
(1.01045 0.0202432 -1.93217e-20)
(1.16198 -0.0246985 3.95127e-22)
(0.999379 -8.12019e-05 2.42985e-22)
(1.00422 -0.0032888 -1.02656e-21)
(1.00044 -0.00060147 1.62983e-22)
(0.983733 0.0917816 -3.07914e-20)
(0.986452 -0.0120768 2.00418e-21)
(1.00056 -0.00015415 -7.70247e-23)
(0.996041 -0.00193169 -8.09626e-22)
(1.09796 -0.0394361 3.59243e-21)
(0.999703 -0.00550631 -1.81366e-22)
(0.993808 -0.00661807 -4.41995e-22)
(1.00012 -7.61253e-05 -4.38008e-23)
(1.00012 -2.68788e-05 -1.94622e-24)
(0.900151 0.0649567 3.78145e-20)
(0.995683 -0.000713576 -1.03489e-21)
(0.997432 -0.00257388 9.02034e-22)
(0.999785 -0.00101291 -1.02506e-22)
(0.999627 -2.77656e-05 -1.37402e-23)
(1.03655 0.058738 -1.18101e-20)
(1.06058 -0.10251 4.11727e-22)
(0.990905 -0.0221791 1.19044e-21)
(1.00001 -4.87378e-07 -3.77907e-25)
(0.999999 -1.89561e-05 -6.40129e-26)
(0.98594 -0.012453 5.24496e-21)
(0.996423 -0.00103095 2.13416e-22)
(0.997258 -0.00118128 -1.22834e-22)
(1.00774 -0.0028323 1.97176e-21)
(1.00305 -0.00124176 3.48064e-22)
(0.999944 -0.00912843 -2.02933e-22)
(1.07864 -0.0263612 6.96811e-21)
(0.990298 -0.0023152 -1.29071e-21)
(0.986122 0.0810156 -1.03725e-20)
(1.0072 -0.0150816 -5.61539e-22)
(1.00013 -7.64274e-05 4.86194e-23)
(0.981224 -0.0323614 3.73485e-22)
(0.990302 -0.019532 -4.30238e-21)
(1.12311 -0.0240477 4.37306e-21)
(0.9984 -0.0033658 -2.64146e-22)
(0.992394 -0.026157 -1.39847e-21)
(0.99999 -3.53029e-06 2.57053e-24)
(0.946812 0.0658683 -4.04847e-20)
(1.00848 -0.00120168 3.55452e-21)
(1.00004 -0.000129791 -1.65664e-23)
(0.934164 0.0171931 -5.35514e-20)
(0.99039 -0.022269 2.69225e-21)
(0.99999 -3.83894e-06 4.27813e-25)
(1.00078 -0.000693029 6.73886e-23)
(0.981076 -0.0338096 -2.1864e-21)
(1.02027 -0.0237528 9.00467e-22)
(1.02845 -0.0100871 4.5444e-21)
(0.999997 -1.47709e-06 4.77569e-25)
(0.995687 -0.000353531 8.19763e-22)
(1.00977 -0.0285479 8.23661e-22)
(0.997173 -0.000922117 1.22899e-21)
(0.999762 -2.25206e-05 -3.13868e-22)
(0.995594 -0.00224718 1.95187e-23)
(0.979221 0.028476 4.85191e-21)
(0.996077 -0.00686024 -1.14656e-21)
(0.994057 -0.0064911 3.26386e-22)
(1.00224 0.0259822 -1.58955e-20)
(0.998535 -0.00125133 2.93782e-22)
(0.979451 0.0931578 -3.79507e-21)
(0.999989 -4.02591e-06 -1.33027e-24)
(0.993775 -0.0150754 8.31835e-22)
(0.986324 -0.0409619 8.3634e-21)
(0.992852 -0.0264033 2.36467e-21)
(1.11739 -0.0833465 3.35406e-22)
(0.999344 -0.00310511 3.54897e-22)
(1.00447 -0.0138579 3.13968e-22)
(0.999976 -0.00133603 5.26114e-24)
(0.990635 -0.011555 -2.52556e-21)
(1.02082 -0.0259202 3.68899e-22)
(0.999984 -6.63664e-06 7.91543e-24)
(1 1.35031e-06 -6.43799e-25)
(0.996623 -0.000227226 5.63728e-22)
(0.98449 0.0555525 3.14495e-20)
(1.00659 -0.0116677 2.18541e-21)
(1.00139 -0.00199997 -2.84561e-22)
(0.966169 -0.0158111 6.1559e-21)
(1 -3.98165e-06 -9.4954e-26)
(1.00052 -0.000656912 -2.60282e-22)
(0.999976 -0.00037604 -3.65665e-24)
(1.00754 -0.011239 2.33377e-21)
(0.990889 -0.00852333 4.55747e-22)
(0.9998 -0.000156733 3.95052e-23)
(0.996259 -0.00614742 4.13662e-22)
(0.993351 -0.00380024 -4.79619e-22)
(1.00054 -8.97843e-05 -2.11975e-23)
(0.999989 -4.53861e-06 -8.3428e-25)
(1.14206 -0.0597465 2.22889e-21)
(0.999803 -0.000999237 1.09948e-22)
(1.0473 -0.0105592 4.33011e-21)
(1.01288 0.0887931 8.07211e-20)
(1.03982 0.0721881 -1.98817e-20)
(0.999904 -0.0116331 -7.48823e-22)
(1.00293 -0.00109453 -1.15622e-22)
(1.01042 -0.00122283 3.86606e-21)
(0.999994 -0.0013744 -6.01821e-24)
(0.99867 -0.00584008 4.1723e-22)
(1 -7.69399e-06 -1.68e-26)
(0.993402 0.0823531 -1.64127e-21)
(0.993263 -0.00867383 6.26651e-22)
(1.00746 -0.00254204 -1.4094e-21)
(0.990529 -0.00240834 2.69651e-21)
(1.00187 -0.00728447 1.54168e-23)
(0.998496 -0.00332127 5.81152e-22)
(0.999945 -0.000112004 4.02633e-24)
(1 1.11097e-07 -3.41754e-24)
(0.997523 -0.00256242 -6.56921e-22)
(1.03357 -0.0104309 -2.54782e-21)
(1.00504 0.0346006 2.51935e-21)
(1.00065 -0.000278164 -3.15064e-22)
(0.983864 -0.0305556 -2.00746e-21)
(0.986453 -0.0117051 -8.8638e-22)
(0.995781 -0.000289644 -3.08789e-21)
(1.19742 0.0130818 -6.41266e-21)
(0.999306 -0.000542712 -1.46439e-22)
(1.00179 -0.00827804 -4.94051e-22)
(0.997035 -0.00155074 6.22652e-22)
(0.999949 -0.000107757 3.48053e-24)
(0.980956 -0.0353458 2.46307e-21)
(1.0027 0.0376434 -2.44987e-20)
(1.02138 0.0258628 -2.0651e-20)
(0.987845 -0.00794649 -4.23265e-22)
(1.00148 0.0367514 -1.08442e-21)
(1.00004 -0.000120763 3.23556e-23)
(1 6.10992e-07 1.09086e-24)
(1.19158 0.0442495 -7.02352e-21)
(1.12844 -0.0260158 -4.11383e-21)
(0.935855 0.0669822 -1.99428e-21)
(0.994412 -0.044606 5.79864e-21)
(0.987811 -0.000827182 -1.96376e-21)
(1.09823 -0.0351454 -5.01478e-21)
(1.00063 -0.000302397 3.56681e-22)
(0.996925 -0.00209636 3.57145e-22)
(1.00024 -0.000105524 -2.11571e-23)
(0.994259 -0.000406166 -6.64336e-22)
(0.99352 -0.00710417 -9.22043e-22)
(0.999997 -1.65849e-05 -7.52927e-25)
(0.999533 -1.86597e-05 5.7278e-23)
(1.00101 0.089014 -7.53204e-20)
(0.999926 -0.000391923 3.91667e-23)
(0.952807 0.0603263 5.12338e-20)
(1 -6.49618e-06 1.32662e-26)
(1.18548 -0.05462 2.64793e-21)
(1.04723 -0.0118686 -9.08268e-21)
(1.0789 -0.0238863 -7.66462e-21)
(1.00056 -0.000299703 2.14792e-23)
(1.00009 -2.2499e-05 3.92089e-23)
(0.98725 0.0516074 -4.78879e-20)
(1.04937 -0.00932234 1.79758e-20)
(0.985875 -0.0416099 -7.57497e-21)
(1.01575 0.0257086 9.33505e-21)
(0.998437 -0.0116675 3.46411e-22)
(0.9928 -0.00287705 -6.96517e-22)
(0.997825 -0.00013149 -3.74145e-22)
(1.10577 0.127587 -4.42514e-20)
(0.986847 -0.0140689 3.20606e-21)
(1.01715 -0.0213075 -1.78706e-21)
(0.996405 -0.00612148 -2.36837e-22)
(1 -3.93387e-06 7.24539e-27)
(0.999313 -0.000508057 -1.24086e-22)
(1.0032 -0.00339614 6.12929e-22)
(0.990152 -0.0042572 3.47712e-21)
(0.988152 -0.00802231 6.31969e-22)
(0.976713 -0.0201926 -9.40808e-22)
(0.990051 -0.00452481 -2.63701e-21)
(1.01292 0.00167607 1.71024e-21)
(0.998869 -7.48973e-05 7.69895e-24)
(0.968571 -0.0182843 3.14014e-21)
(0.992463 -0.000484002 -9.57734e-22)
(1.00002 -0.000117359 5.71502e-24)
(0.993411 -0.000389311 -6.63533e-22)
(1.01724 -0.0230128 -3.05216e-21)
(1.01233 0.00183546 -9.4588e-21)
(0.98581 -0.0140788 -8.01199e-22)
(0.999996 -8.37465e-07 -8.48696e-27)
(0.990474 -0.00868894 6.79816e-22)
(1.00092 -0.00836353 1.80806e-23)
(1.00075 -0.000650371 8.62745e-23)
(1.04866 -0.107241 -5.14674e-21)
(1.00175 0.0383257 -5.65651e-20)
(1.00049 -0.000652149 2.41624e-22)
(0.993518 -0.000287534 9.84723e-24)
(1.04978 -0.063905 -3.7817e-23)
(1.0164 8.67909e-05 1.49063e-20)
(0.988951 0.0239052 -5.20672e-21)
(1.00101 -0.00139813 7.68215e-23)
(0.99978 -0.0121205 2.36149e-22)
(1.078 0.0888441 -6.59991e-21)
(1.01178 0.0157938 -4.83549e-20)
(0.994338 -0.0150711 2.19417e-21)
(1.00264 -0.00198191 -1.08005e-22)
(0.974106 -0.0236521 4.26972e-21)
(0.999998 -9.41344e-07 1.34243e-25)
(0.974844 -0.0010423 -3.26014e-21)
(1.00004 -3.81907e-05 5.76065e-24)
(1.04792 -0.0636311 -3.10794e-21)
(0.999985 -4.99637e-07 -8.96216e-25)
(1.00001 -3.27613e-05 3.90032e-24)
(0.999403 -0.0134625 -2.7928e-22)
(1.17328 -0.0227855 -4.64401e-21)
(1.02465 0.115747 3.45865e-20)
(1.01907 -0.0239095 -4.86303e-21)
(1.00769 -0.00910895 1.14963e-21)
(0.999999 -5.4342e-07 -2.62845e-26)
(0.99667 -0.00248848 -1.19882e-21)
(1.00005 -1.20265e-05 -4.18452e-24)
(0.998292 -0.00134239 4.18617e-22)
(1.00001 -3.0432e-05 -3.04398e-24)
(1.02892 -0.00893776 -1.41781e-20)
(0.999748 -0.000260481 -1.55083e-22)
(1.04022 0.0347677 2.07213e-20)
(0.999938 -0.000121008 -2.79126e-23)
(0.993068 -0.00281806 -1.18584e-21)
(0.97862 -0.000551261 7.48397e-21)
(0.997713 -0.000154139 -4.82813e-22)
(0.984324 0.0301591 5.0039e-20)
(0.990791 -0.000404307 1.82494e-21)
(1.00456 -0.0593304 4.1342e-22)
(0.997005 -0.00219624 1.84645e-21)
(1.01517 -0.00176015 -3.16453e-21)
(0.982496 -0.0308296 8.54413e-21)
(1.01138 -0.00103502 -1.06924e-20)
(1.0174 -0.0438457 -1.37047e-22)
(0.999994 -3.82863e-07 1.07851e-25)
(0.999199 -0.0114086 2.65571e-22)
(0.997863 -0.000172975 5.86697e-23)
(1.00013 -5.33054e-05 2.90667e-23)
(1.00004 -9.87081e-06 7.11434e-24)
(1.11042 0.129762 4.81174e-20)
(0.997347 -0.00118726 1.03626e-21)
(1.01659 0.000852533 1.6973e-20)
(1.00006 -0.0124022 2.81147e-22)
(1.00046 -0.000176811 8.21832e-23)
(1.01351 -0.00498886 -1.18228e-20)
(1.00008 -1.88808e-05 -8.77886e-23)
(0.999991 -3.0166e-06 -1.23761e-25)
(0.975136 -0.00138356 2.52204e-21)
(0.99812 -0.000678768 4.69962e-22)
(1.00001 -2.98955e-05 4.35673e-24)
(1.0487 0.0705297 1.50845e-20)
(0.911457 0.05292 -7.10826e-20)
(0.999891 -0.000128929 7.03569e-23)
(0.979526 -0.00112116 -2.07186e-21)
(1 9.04538e-07 7.6196e-25)
(0.960219 0.0815534 -4.808e-20)
(1.19213 -0.0572347 2.3836e-21)
(0.98334 -0.024815 -7.25691e-21)
(1.00003 -0.000308021 -9.25767e-24)
(1.01657 -0.0205123 4.08742e-21)
(1.01823 -0.00190703 -4.3498e-21)
(1.01931 -0.000630614 1.26719e-21)
(1.02907 -0.0106771 -1.78083e-21)
(0.999823 -0.00107131 -1.88746e-23)
(0.999923 -0.00047265 3.20106e-23)
(0.992316 -0.00857898 -2.01502e-21)
(1 -3.61473e-06 -5.92199e-25)
(1 -3.96239e-07 -1.88146e-25)
(0.986433 -0.0137957 -1.89771e-21)
(0.995645 -0.0343535 -3.27898e-21)
(0.977355 -0.0198703 -2.44875e-22)
(0.925541 0.0759043 -1.34686e-21)
(1.0001 -1.27098e-05 -3.61554e-23)
(1.00404 -0.0447244 -6.05286e-21)
(1.00408 -0.00307412 -1.05743e-21)
(0.999991 -2.89278e-06 1.37807e-24)
(0.999416 -0.0022054 -3.04764e-22)
(1.00002 -0.000261468 -5.97878e-24)
(0.997411 -0.00713964 6.88848e-22)
(1.00002 -5.17412e-06 4.34444e-24)
(1.01847 -0.0433376 -2.63217e-22)
(1.0112 -0.00126825 1.03754e-20)
(0.980704 0.091248 1.06899e-20)
(1.01465 -0.00162733 1.18869e-20)
(0.999858 -0.000122838 5.69498e-23)
(1.00024 -0.000222255 -8.34676e-23)
(1.08949 -0.0991197 -4.45671e-21)
(1.01633 0.000778123 -1.36539e-20)
(0.998338 -0.000220317 4.19625e-22)
(1.00001 -1.26166e-06 1.61119e-24)
(1.06017 0.0594052 -2.50369e-20)
(1.02202 -0.109572 -2.56102e-21)
(0.994687 -0.0437651 -2.53097e-21)
(0.992264 -0.000411328 -5.10926e-22)
(0.999992 -7.89963e-06 2.45106e-24)
(0.99986 -0.000115015 -3.32857e-23)
(1.02372 -0.112701 7.21199e-21)
(0.99684 -0.0276948 -9.25893e-22)
(1.0259 0.0174423 2.93992e-21)
(0.98577 0.0779342 4.47517e-20)
(1.00432 -0.0577949 3.27948e-21)
(0.999332 -4.3016e-05 -7.57059e-23)
(0.999992 -4.13256e-06 -2.96835e-24)
(0.979185 -0.0260408 7.11475e-21)
(0.981329 -0.052166 -8.66477e-21)
(0.999894 -0.000132725 3.79827e-23)
(1.00493 -0.0135944 1.1661e-21)
(0.994543 -0.0146834 -3.76339e-22)
(0.997484 -0.00127267 4.08605e-22)
(0.997548 0.0339052 -4.01406e-20)
(0.999313 -0.000314079 2.68325e-22)
(1.02719 -0.0346458 6.62633e-22)
(1.17411 0.0926085 -1.95896e-20)
(0.995826 -0.00182841 -1.18064e-21)
(0.934422 0.0630324 -7.25289e-21)
(0.939702 0.0296955 2.24859e-20)
(0.999987 -2.81608e-05 -9.33979e-24)
(0.999983 -0.000411961 -1.48237e-24)
(0.990905 -0.000532741 -1.17071e-21)
(1.00736 -0.00304171 -2.53966e-21)
(0.980347 -0.00103331 4.28093e-21)
(1.00283 -0.00245514 -1.10901e-21)
(0.995976 -0.00183545 1.10646e-21)
(0.999698 -0.000284356 -1.17759e-22)
(0.966974 0.0818737 -8.56159e-21)
(1.04029 0.0330405 -3.23261e-20)
(1.00124 -0.0013529 1.96768e-22)
(0.882893 0.0331188 -1.38587e-20)
(1 9.01739e-07 -1.12238e-24)
(1.01622 0.00342879 -2.34909e-20)
(0.989387 -0.0525737 5.8269e-21)
(1.00529 -0.0450362 2.34881e-21)
(1.00005 -0.000116831 -1.66276e-24)
(0.979445 -0.000580272 3.52662e-21)
(1.01423 0.00280569 1.31598e-20)
(1.00721 -0.00334828 2.10371e-21)
(1.01817 -0.00144972 6.02806e-21)
(0.999769 -1.72061e-05 2.21284e-22)
(0.999744 -0.000279265 1.4058e-22)
(1.01167 -0.0280971 4.63652e-23)
(0.998147 -0.000736266 -1.34205e-21)
(0.993098 -0.00647225 -2.16669e-21)
(0.999492 -0.00200808 1.80641e-23)
(1.05689 0.0203473 1.68445e-20)
(0.999077 -0.011891 -1.86674e-22)
(0.99728 -0.00271214 1.97852e-23)
(0.96468 -0.0133265 -9.17791e-21)
(0.996318 0.0636246 5.16299e-21)
(1.0666 -0.0359454 -5.42111e-21)
(1.01306 -0.00471852 9.50632e-21)
(0.99979 -0.000101425 4.21363e-23)
(0.99973 -0.000181305 1.89572e-23)
(0.990255 -0.0114012 5.10438e-21)
(1.00054 -0.000710825 -1.93317e-22)
(0.998614 -0.000388352 -7.62239e-23)
(0.999993 -7.88762e-06 -8.9105e-25)
(0.999833 -0.00109149 4.29849e-24)
(1.01388 0.00264697 -5.10783e-21)
(0.986908 0.0541751 -4.59029e-20)
(0.999938 -8.69264e-06 8.87943e-24)
(1.13076 0.112237 -4.03713e-20)
(0.999996 -2.11208e-05 3.28624e-25)
(0.998236 -0.00158579 5.69529e-22)
(0.999997 -5.16671e-05 7.38749e-25)
(1.00287 -0.00211172 -4.91517e-22)
(1.14164 -0.0648298 -1.58988e-21)
(0.999982 -2.16961e-05 8.69657e-25)
(0.99998 -2.44756e-05 5.99103e-24)
(0.971475 -0.0220665 -3.96885e-21)
(1 -3.79053e-06 -8.98023e-27)
(1.03121 -0.0107583 1.48944e-20)
(0.992058 -0.0228175 3.79989e-21)
(0.999983 -0.000360178 3.15211e-24)
(1.05783 0.0436799 -1.92283e-20)
(0.999999 -1.5931e-05 1.64178e-26)
(0.999797 -2.00948e-05 1.94011e-22)
(0.999959 -1.92943e-05 3.45285e-25)
(0.997382 -0.00273262 -3.38072e-22)
(0.999809 -0.000863576 -5.46764e-23)
(0.996684 -0.000165973 -3.78701e-22)
(0.99196 -0.0638817 -6.91185e-22)
(0.99983 -0.000841206 3.60396e-23)
(1.0023 -0.00198083 -3.81831e-22)
(0.999991 -2.35994e-06 -5.32403e-25)
(1.02637 0.113274 -6.72414e-20)
(1.02615 -0.035049 1.643e-21)
(1.06886 -0.0370317 -6.6812e-22)
(0.981676 -0.00311715 4.64738e-21)
(0.98799 -0.00228455 -8.50501e-22)
(0.999467 -0.00216184 5.0154e-22)
(1.00159 -0.00149818 5.3413e-22)
(1.03307 0.0438221 8.59787e-21)
(0.989897 -0.0200611 5.85707e-22)
(1.09337 0.0720248 9.63303e-21)
(0.977301 -0.00697686 -8.35822e-21)
(0.998175 -0.00153013 -5.37345e-22)
(0.999996 -1.39857e-06 -9.00416e-25)
(0.996934 -0.00155539 -7.50983e-22)
(1.00748 0.107072 1.65678e-20)
(1.05229 0.0508962 -4.4991e-21)
(0.988917 -0.0300207 3.0565e-21)
(0.969861 -0.0028751 1.94582e-21)
(1.03033 0.106962 1.84182e-20)
(0.99546 -0.000323639 9.82605e-22)
(0.987913 -0.0478745 4.56136e-22)
(0.999998 -4.82127e-05 6.31154e-25)
(0.991471 -0.0228763 4.761e-21)
(0.999565 -0.000126869 -2.8384e-22)
(0.89085 0.0566546 -4.00135e-20)
(0.986129 -0.038922 -6.53853e-21)
(0.99996 -1.68536e-05 1.60004e-23)
(0.967928 -0.00936686 -5.23699e-22)
(0.989731 -0.0212426 2.96009e-22)
(1.02313 0.048523 3.01652e-20)
(0.998631 -0.000422593 -7.23023e-22)
(0.988806 -0.0204033 -1.74333e-21)
(0.998559 -0.00597709 -5.77069e-22)
(0.999491 -0.0130058 -5.8774e-22)
(0.999333 -0.000316933 -1.83378e-22)
(1.02233 0.0474644 -3.66339e-20)
(0.999859 -0.0916783 5.38239e-21)
(0.990416 -0.00903449 -1.51186e-21)
(0.992618 -0.00798223 3.15858e-23)
(0.99313 -0.00265681 -4.744e-22)
(1.00288 -0.00127209 -4.49864e-22)
(1.03173 0.103739 7.27274e-20)
(0.99048 -0.00737151 6.93388e-22)
(1.01117 0.0241446 2.03411e-20)
(1.00146 -0.00121865 4.07525e-22)
(1.12235 -0.0834584 -1.71416e-22)
(0.950472 0.0649075 7.41669e-21)
(0.995375 -0.000257006 -3.38057e-21)
(0.999887 -2.18687e-05 3.75433e-23)
(1.03519 0.0608153 9.21681e-21)
(0.998797 0.0850668 -6.07868e-20)
(1.01138 -0.0270537 1.01046e-22)
(1.0454 -0.034027 6.7488e-22)
(0.997269 -0.00745133 -7.53935e-22)
(0.981946 -0.00281574 -2.74867e-21)
(1.07547 0.0865809 2.709e-20)
(0.978528 -0.0260805 1.28555e-21)
(0.999991 -7.53791e-06 3.21264e-24)
(0.996063 -6.0055e-05 -1.74344e-21)
(1.00002 -2.89594e-06 4.39816e-24)
(0.997629 -0.000136458 1.30809e-21)
(0.999992 -9.35533e-06 -4.98398e-24)