/*--------------------------------*- C++ -*----------------------------------*\
  =========                 |
  \\      /  F ield         | OpenFOAM: The Open Source CFD Toolbox
   \\    /   O peration     | Website:  https://openfoam.org
    \\  /    A nd           | Version:  7
     \\/     M anipulation  |
\*---------------------------------------------------------------------------*/
FoamFile
{
    version     2.0;
    format      ascii;
    class       volScalarField;
    location    "29";
    object      p;
}
// * * * * * * * * * * * * * * * * * * * * * * * * * * * * * * * * * * * * * //

dimensions      [0 2 -2 0 0 0 0];

internalField   nonuniform List<scalar> 
7639
(
0.2017
-0.00381383
0.411161
0.246329
-0.00119596
-5.22697e-05
0.419386
-0.00715799
-0.000168839
0.102394
-4.89912e-05
0.00325993
-0.0106686
0.050357
0.106854
-0.0141631
0.216117
-0.0138384
0.0013251
-0.0624684
0.0663067
0.00214135
0.0372154
0.203496
-0.0179117
0.217148
-0.0011059
0.0625231
0.169372
0.0031969
-0.0189857
0.669422
0.0364557
-0.00067115
-0.00014615
0.0833466
0.00366388
0.404292
-0.00609733
-0.00046996
-0.00559341
-0.0135753
-0.0646269
-0.0688287
-0.000280668
-0.000114319
0.00209733
-0.00632273
-9.46048e-05
-0.0620936
0.00491387
0.059298
-0.0224629
-0.00450988
0.0825339
-0.00639548
0.00144386
-0.00713886
-0.0289334
-0.000697731
5.46128e-05
0.00629765
0.0507371
0.00360016
-0.00133758
-0.0186469
-0.000135258
5.47495e-06
-0.000977999
-0.00594551
-0.000105005
-0.0500929
-0.0173462
-0.028827
-0.0134125
-0.0405362
0.403932
0.065146
0.0401172
-0.0539478
-0.0102408
0.373179
0.094856
-0.03023
-0.00199089
-0.00313135
-0.00765039
-0.0218204
-0.00090887
-0.00605685
0.172895
-0.0941371
-0.000186125
0.00154875
-0.00482773
-0.0298342
-0.0476464
-0.00168778
-0.00218991
-0.00159187
-0.0485602
0.0469969
-0.00457904
-2.80521e-05
-0.0942251
0.173955
0.575117
-0.00679967
-7.68625e-07
0.0327511
0.230229
-0.0438464
-2.13338e-06
0.0346923
0.175092
0.000624915
-0.0603163
0.138533
-0.0364631
-0.0295833
-0.0502923
0.355346
-0.0621362
0.013772
-0.0490895
-0.001336
-0.0171844
0.00259837
-0.0014138
-0.0191985
-0.138713
0.0429642
-0.00084027
-0.00107038
-0.0312422
0.223273
0.453339
-2.41277e-05
0.0110331
-0.0621056
-0.0273427
-0.0437276
-0.0409626
-0.0277576
0.581402
-0.0193018
0.169943
-0.0283424
-0.0374558
0.354296
0.0796671
-0.0795702
-0.0020886
-0.0248368
0.0945821
0.36857
-0.0463513
-0.01062
0.536712
-8.57736e-05
0.000690003
0.211217
-2.64976e-05
-0.00287307
-0.00542942
0.267769
0.268261
0.559766
-0.00324159
-0.00424014
6.32787e-06
-0.0519174
0.000617097
0.00243668
0.0120003
-0.0370285
-0.0742612
0.0919919
-0.000185101
-0.000704855
0.249706
-8.55344e-05
-0.000157228
0.420299
-0.00932464
-0.035946
-0.0344284
-0.0274191
-0.0221422
-0.0608005
-2.88676e-05
-0.0461707
0.0928211
-0.00462299
0.000100892
0.159464
-0.00172501
-0.0180801
-0.0209993
7.57153e-06
0.00126574
0.231568
0.127113
0.373189
-0.0549966
-0.0401828
-0.0983266
0.0682397
0.230774
-0.000300916
4.83534e-05
0.54259
-0.0120623
-0.000871799
-0.0442539
-0.0179858
0.3301
0.340223
-0.0477917
0.633589
-0.00160039
-0.0135489
-0.0497058
0.0809177
-0.0783971
0.151587
0.538288
8.79517e-05
0.0144751
0.148497
-0.0057538
0.134806
-0.000770937
0.600094
0.361127
-0.00759193
0.00383675
-0.000436162
0.042206
-0.000133924
-0.00886646
-0.0591667
-0.000104615
-0.00189199
-0.000610998
0.135139
-2.66367e-05
-0.00628444
-0.0527208
0.668879
0.0365155
0.584735
-6.44991e-05
-0.0231828
-0.000267369
0.388439
0.00603586
0.454075
0.00180217
0.00106506
0.00341798
0.0712491
0.000849539
-0.000327322
0.000752698
-0.00606859
-0.0369611
-6.028e-05
-0.0448693
-0.00517542
-0.000204494
-0.000901757
0.431545
-0.0106426
-0.00110041
0.637321
-0.00207771
0.220805
-0.000297737
-0.000280699
1.07198e-05
-0.0327776
0.0778502
-0.0716551
-0.02924
-0.000593735
-0.0556651
-0.0204768
-0.000259091
0.000728599
-0.00312066
-0.0102852
0.00441438
-0.00178062
-0.0289415
-0.0327921
-0.0285407
-0.059602
-0.0355704
0.346838
0.364689
-0.00213872
-0.115207
-1.04796e-05
-0.00341044
-0.0299131
0.197571
0.106622
0.000139834
-0.00315031
-0.0346249
0.154259
-0.00143689
0.00537879
0.00181325
-0.00241171
-0.125505
0.313095
-0.00228562
-0.0075946
-0.000166185
0.00604148
-7.65139e-05
-0.0231995
-0.000500509
0.00520237
-0.160517
-0.0361778
0.00167188
0.0130922
-0.00106432
0.0276262
-0.0107772
0.0616908
0.141664
-0.12308
-0.0667138
-0.02096
0.00764536
-0.0577442
0.570908
-0.0605523
0.0431954
0.621176
-0.00220604
-0.00250744
-0.0790365
-0.0015782
-0.016359
0.00947935
-0.00400696
-0.00298741
0.155749
-0.000100144
0.000812302
0.000112288
-0.00485539
-0.00994323
-1.26558e-05
-0.00158258
-0.0278086
0.53354
0.00251279
-0.0118152
0.499615
0.310004
0.0548651
-0.106861
-0.0523405
0.00738635
0.257044
-0.0149465
0.274142
-0.0257204
-0.0720262
0.136513
0.273355
-0.0422358
0.099465
0.139575
0.238275
0.0661533
-0.00434879
-0.00599238
-0.000128667
0.00253186
-0.0152357
0.00141582
-0.000156633
-0.00232354
-0.0550094
0.0403365
-0.0220636
-0.00411726
-0.00539095
-0.0077676
-0.00979913
0.00249755
0.104136
-0.00270529
-3.24407e-05
-8.19946e-05
6.99235e-05
-0.0264487
0.151217
-0.00570115
0.0401579
-0.0854056
0.395645
0.00477879
0.0100993
-0.00723102
0.415219
-0.00153203
0.30555
0.173975
-0.000170934
-0.0276071
-0.00469083
-0.042232
0.000835935
0.0639721
0.00426338
0.00935942
-0.00123888
0.119083
0.159674
-0.0419364
-0.0280161
-0.00331401
-0.0229083
-0.0135272
0.65738
-0.0554977
0.00663995
-1.22666e-06
-0.0174935
-0.00326689
0.0253393
-0.0709444
-0.114069
0.429645
0.140049
-0.0911111
0.166815
0.405424
0.0408353
0.00174731
0.261718
-0.00131615
-0.0002696
-0.0223981
0.000127238
-0.105764
-0.00107701
-0.0298177
0.00281407
0.169378
-0.00256381
-3.54038e-05
-0.0754419
0.00255156
0.00415685
-0.0469522
-0.0609789
-0.120035
0.150551
0.123506
0.127254
-0.00030178
0.0292434
0.0679536
-0.000771544
-0.0212833
0.000898798
0.0070873
-0.00486142
0.00705233
-0.00113672
0.0499717
-2.88673e-05
0.000292525
0.00292234
-0.0273619
0.0294309
-0.0281515
-0.031615
-0.0337907
-0.0863463
0.00685288
0.250687
-0.133997
-0.0091583
0.607833
-0.0469407
-0.0104092
-0.0317041
-0.0088101
-0.025826
-0.0135883
0.038909
-0.0682604
-3.81667e-05
0.0341598
-0.000141349
0.35584
-0.00205343
-0.0068024
-0.018141
-0.000277192
0.37532
0.307535
0.0120068
0.0277785
-0.05002
0.468381
-9.29236e-05
0.0187403
-0.0228058
0.102995
0.564486
-0.0252433
0.137596
-0.00295961
-0.000298953
0.0164549
-0.12856
0.39383
0.00823193
0.217087
-0.00965705
0.405373
0.290146
-0.012117
-0.0103305
0.00629081
-0.0618958
-0.000125049
-0.0167817
-0.0598985
-0.0526392
0.016478
0.0134705
-0.00018577
0.308108
-0.00176807
-0.000151911
-0.0292656
-0.000717904
-0.000328002
0.00453891
0.195606
-0.0677589
0.523418
9.04299e-05
0.189513
-0.0234867
-0.000111712
2.60601e-05
0.166423
0.193366
-0.00561348
0.17848
3.69547e-05
0.188161
-0.12227
-0.0126706
0.427401
-0.042454
0.0217162
-0.0304168
0.183177
0.186657
-0.0206377
-0.0258775
-0.00828608
-0.00396609
-0.000292864
-0.00190959
0.256177
-3.98821e-05
0.183847
-0.0669444
0.334107
0.174812
-0.0610213
0.506091
-0.00224898
0.00489354
-0.0450963
-0.0247265
-0.00872847
-0.0262006
0.0302825
0.599685
6.14401e-05
-0.00264645
-0.0421223
8.66934e-06
0.362567
0.00259229
8.22513e-06
0.000278672
0.000554121
-0.0220582
0.0243149
-0.00213647
-0.00012433
-0.00924289
0.00305223
-0.0760663
-0.0563328
0.0300546
-3.19378e-05
-0.105465
-0.0164098
0.0221709
0.331618
0.00158891
0.0491671
0.000220808
-0.0157412
0.0924204
-0.00875944
0.206542
-0.0161552
0.0216627
0.0958434
0.134776
0.0057151
-0.0129685
0.139068
-0.0613096
0.39447
-0.0117273
0.227517
-0.0116511
-0.00159833
0.131344
-0.000580447
0.0871961
0.00267487
7.15856e-06
-0.0808465
0.0997738
0.00200489
0.0302278
-0.0153665
-0.103659
-0.0024795
-0.0291144
-0.00230357
-0.0110839
-0.0538021
-0.0324366
-0.0122618
-0.000210464
0.420201
0.0531617
0.0396861
-0.000280757
0.290961
5.49772e-06
-0.000258771
0.0696437
0.000502895
0.0777169
0.0612809
0.0230814
-0.0477156
-0.0880515
-0.10638
0.00184747
-0.0458488
-2.71098e-05
0.00492306
0.198917
-0.0197246
-0.00379788
-0.0127474
-0.00267867
-0.000570367
0.624463
-0.0123687
-0.000765417
-8.2871e-06
0.137398
-0.0342956
-0.000460398
-0.00375555
0.159209
0.0721446
-0.0416212
1.8099e-06
0.178433
-0.0196954
0.161896
0.0231404
0.0284235
-0.0341576
-0.000134378
0.0935278
0.0624311
-0.0785988
-0.0628642
0.259678
0.0085574
0.129686
-0.00385459
-0.0277671
-0.000547651
-0.00275273
-0.000150113
0.15093
0.189155
-0.00203642
0.0256093
-0.0208302
-0.0527194
-0.057818
-0.00253273
0.0171388
0.591524
-0.0757444
-7.80925e-05
0.0732527
-0.00521539
0.500498
-0.0152326
-0.0154017
-0.00598517
-0.0177135
-0.00954412
-0.00981702
-0.00490637
0.00205624
0.0233503
0.000148976
-0.135591
-0.0659313
0.337054
-0.0401294
0.088968
0.00285808
-0.045324
-0.0172322
0.207509
-0.00927674
0.00014991
-0.0193293
-0.00720511
0.0203676
-0.0310896
-0.0269309
-0.0457176
-0.0176782
-0.00973794
-0.0562778
7.7602e-06
0.0359757
-0.0493788
0.0664441
-0.0550677
0.087109
-0.063392
0.28609
0.00231118
-0.0352237
-0.0199384
0.531729
-0.111003
-0.015929
-0.0810541
-0.0348378
-0.0761838
-0.04774
0.133848
-0.00378028
0.25066
0.0123267
-0.000547647
-0.00169944
0.0653329
0.676573
0.00140685
-0.0242507
0.16701
3.12294e-05
-0.0248193
0.0366923
-0.0114854
0.0125069
-0.00225804
-0.0330693
-0.00425756
3.99876e-05
-0.0405108
0.228524
0.000589089
-0.0200343
0.00263685
0.166231
-0.000532713
-0.00170871
-0.000499627
-0.00109245
-0.055684
-0.000861432
0.00323295
-0.0215
6.18062e-05
-0.086156
-0.129229
-0.0940374
-0.0194934
0.0202241
-0.000296975
-0.0158332
-0.0517518
-0.0576573
0.337205
-0.00176044
-0.0551797
-0.00638534
0.00537241
0.10281
0.000613053
-0.000220204
0.00994701
-0.0575043
0.0195312
-0.00403345
-0.00283048
-0.0480782
-0.000246229
-0.00308561
-0.0162803
0.289641
0.222071
-0.0405271
-0.048175
0.0101068
0.00390551
-0.0483042
-0.0548404
-0.0164533
-7.9982e-07
-0.0412009
-0.0293071
-0.0592899
0.00323658
-0.0444715
-0.000556117
-0.00407329
0.178837
-0.0328709
-5.74408e-06
-0.00383207
-0.100448
-0.000232257
-0.0206139
-7.11922e-05
0.00502301
-0.0744979
-0.0386247
-3.15613e-05
4.20956e-05
0.118526
-0.0411867
0.379464
0.218642
-0.0341738
-0.000828083
-0.0155574
0.000302713
-0.129531
-0.0712745
-0.098876
-0.019529
0.193943
0.00939727
0.000377891
0.00602338
-0.093625
0.00271179
-0.0253872
-0.0502333
0.000681996
0.0218188
0.0656561
0.00850612
-0.0266392
-0.0625494
0.175699
-0.0305292
-3.94652e-07
-0.080657
-0.05327
-0.0364733
0.00480626
0.00104437
0.00726398
-0.073692
0.0313601
-0.0307496
0.0712772
-0.0429259
0.00712842
0.0190185
0.0105507
-0.0313492
-0.117222
-0.000144548
0.136074
0.194314
0.00800434
0.112014
-0.0587896
0.0436549
-0.0413712
0.185507
0.0919048
0.584106
5.94958e-06
0.0823106
0.155768
0.0150744
-0.00156193
-0.0169126
-0.0545371
5.8227e-05
-0.0169299
-0.0431081
-0.0184636
-0.0203506
0.000179182
-0.111226
-0.000401158
-0.000928017
0.226532
0.00631036
-0.0520336
0.0197267
0.193713
0.0101917
-0.000425899
-0.0963247
0.00777464
0.356337
0.00134127
-0.0447968
-0.000240582
-0.000588625
0.00632254
-0.0501489
-3.43339e-05
-0.0103056
0.0271591
-0.0020484
4.18562e-05
-5.15575e-05
0.140116
-0.0487245
0.00674904
-0.00116904
0.00854205
0.0158278
0.00834085
-0.000312589
0.31201
-0.0871137
0.205116
0.258991
-0.000225482
-0.0564913
0.0819411
-0.000817595
-0.000283989
-0.000460147
-0.0282835
0.0117084
-0.0126991
-0.0199187
-0.0534096
0.154512
-0.0803422
1.31718e-05
-0.0179425
-0.0173784
-0.031742
-0.00441399
0.00598489
0.0012959
0.0273342
-0.000545733
-0.00025074
-0.0161845
-0.00434868
-0.0227783
-1.67147e-05
-0.0138331
0.032387
-0.0325105
-0.0336525
-0.00822097
-0.0110361
-0.00867086
-0.0052362
0.00568725
-0.00895313
-0.000111943
-0.000426963
0.0221947
-0.0114659
-0.00496494
0.00839846
0.00227187
-0.0911217
-0.0104463
0.143489
-0.011793
-0.0456162
-0.0228975
-0.020837
-0.0144819
-0.00379439
0.00227764
-0.00356089
-0.0130448
-0.0149424
0.163351
0.118147
0.0401854
0.329788
-7.66045e-05
-0.00337904
-0.0152212
-0.00772583
0.0443493
-0.0186425
0.0340664
-0.004377
0.169356
-0.00197403
-0.00165806
0.00935554
-0.0183008
-0.000230693
-0.0207735
-0.00588316
-0.0191519
-2.15574e-05
-0.00661572
0.00202901
-0.0162409
0.0274548
0.0347384
0.0189244
-0.013048
-0.0283982
0.10614
-0.00130622
-0.00199234
-0.00214363
0.494372
-9.39092e-05
0.0575369
-0.0194823
-0.0188122
-0.0239657
-0.0368621
-0.0259543
-0.0306933
-0.0169615
-0.00461026
-0.000102814
-0.00429082
-0.0199364
0.0902059
0.00172466
0.0707365
-0.029557
-0.012391
-0.000937666
-0.0261585
-0.000108171
0.135237
-0.0272692
-0.0238087
-0.0217976
-0.00403515
-0.029895
-0.00170442
-0.0359422
0.0932671
-0.023486
-0.0599334
-0.00148396
-0.0244819
-0.017055
0.0153625
-0.00325937
0.130148
-0.00242422
-0.0176301
-0.000692376
0.146851
-0.0345925
-0.0240003
-0.00327026
-0.00925814
-0.00278309
0.14327
-0.00458539
0.112519
-0.00489749
-0.000835679
-0.00127964
-0.00235471
0.0880892
-0.0517957
-0.00675848
0.000347011
-0.00785651
-0.0130904
-0.000923169
-0.0148948
-0.0145625
0.0540607
-0.00494537
0.00359613
0.488387
-0.0527421
-0.025971
-0.0495743
3.5702e-05
0.0704675
-0.00355829
-0.024348
-0.00559005
-0.0318704
0.00412975
-0.000548716
-0.00292312
0.00331877
0.185222
-0.00581459
-0.00181007
-0.00463694
-0.0465927
-0.00817445
-0.0202313
0.00432858
-0.00855471
-0.0088219
-0.00329328
0.186244
-0.0403786
0.00325768
-0.00424092
-0.0249657
-0.0134711
-0.0430904
-0.00142689
0.0834776
0.0224046
-0.00773222
-0.00175333
-0.0130547
0.507885
0.186534
-0.0109449
-0.00059029
-0.00240888
0.000883694
-0.00398721
0.0205515
-0.000426121
-0.0166081
-0.00199233
-0.0159691
-0.146397
-0.00108427
-0.0113566
-0.00137208
0.30219
-0.00639774
-0.0113185
-0.0461816
-0.00195164
-0.0270981
-0.0477115
0.441417
-0.0104197
-0.0110343
-0.00213778
-0.000477158
1.39542e-06
-4.11254e-06
-0.00985477
-0.000682441
0.0558887
-0.000685477
-0.00183483
0.00819528
-0.000264621
-0.0390208
-0.0511967
0.0171619
0.038221
0.0257819
-0.045849
-0.0406516
0.0823987
0.0652729
0.0882247
0.112334
-0.0124412
-0.000870135
-0.00586104
-0.0564142
-0.00353276
-0.0143326
-0.0473456
0.290787
-0.0449211
-0.000493285
-3.14405e-05
-0.00148431
-5.20833e-07
0.00792418
-0.000572787
-0.00469555
-0.0416604
0.000551908
0.00262351
-0.000225109
0.0474436
-0.0146493
-0.047048
-0.00123596
0.311166
0.217006
-0.00978641
-0.065873
-0.0253886
-0.0221165
-0.0137515
-0.00189469
-0.0643092
-0.0315265
-0.037634
-0.112631
-5.28893e-05
0.157751
-0.0169622
-0.00936058
-0.0292364
0.0184708
-0.000543948
-0.00818609
-0.00137635
0.0112868
-0.00156364
0.114179
0.000356584
0.0100934
-0.000424108
-0.106124
0.00884093
-0.000783168
0.00358202
0.000416419
-0.0397496
0.0945451
0.000691894
-0.00145687
-0.000129212
-0.000587902
-0.000516236
-0.051745
0.114336
-0.0372854
-0.000275934
0.00856407
-0.000468994
0.212749
-0.0510466
0.214279
-0.0377877
-0.000460305
-0.000294342
-0.00717591
-0.00558636
-0.000644978
-1.88302e-05
0.0240188
0.0277919
-0.000242857
-0.000342892
-0.0183975
-2.26672e-05
0.154488
-0.000941426
-0.0452205
-0.0177953
-0.00625554
-0.0473429
-0.0519771
0.139273
-0.0215356
-0.0188164
-0.0003238
-0.0481612
-0.0192227
-0.0306474
0.019021
0.333979
-0.00118471
-0.0503261
0.0106396
0.275608
0.0370647
-0.000122875
-0.00595003
-0.00404618
-0.00490568
-0.0411309
0.0735765
0.00018149
0.0134951
0.00295485
0.0542192
-0.000531839
-0.000126515
-0.0917186
0.244789
-0.0466487
0.112461
-0.00128873
-0.00020763
-2.45451e-06
-0.0755702
-0.0363226
-0.000349019
0.0751133
0.0112123
-0.00528662
0.404634
-0.000402973
-0.00368363
-0.0501542
-0.0264831
-0.00228648
0.124023
-0.0547706
-0.00017024
0.00962053
-0.000179638
-0.000103797
0.117063
-0.00245245
-0.00046268
-0.0439023
-0.022533
-0.00348298
-0.0317169
0.00240728
-0.0210059
0.00165233
-0.00347924
-0.054328
-0.0334942
0.012406
-0.000904971
0.136602
0.193166
-0.0856663
0.00909049
0.01876
-0.00424757
0.15383
0.0831619
-0.0251954
-0.000166847
0.00941434
-0.0466472
0.00833438
-0.0254853
-0.00211443
0.033029
-0.0250925
-0.000140795
-7.5748e-05
-0.0379827
-0.0238959
-0.0235902
0.00939306
-0.0256985
-0.038529
-0.000157743
-0.00140641
-0.000213279
-0.0310824
-2.46995e-05
-0.0019398
-0.0428045
-0.0817798
0.0357113
-0.0029731
0.00419399
-0.0197336
-0.0231477
-0.00013232
-0.0396794
0.0136989
0.145087
2.3436e-05
-0.000114306
0.148007
-0.0025188
-0.0720746
-0.0351451
0.00339492
0.000479182
-0.0561555
-0.0344245
0.151925
-0.0475006
-0.00147488
-0.00965776
-0.0454683
-0.000588363
-0.000246502
-0.000911035
-0.0321386
-0.043704
0.0839733
-0.000215549
0.51135
-0.0650895
0.000116334
-0.000982652
0.000252491
0.000288479
-1.48605e-05
0.000138463
-0.0448563
-0.0007308
0.000435191
-0.000203135
0.12955
-0.00563979
-0.000198026
-4.62264e-05
0.32743
-0.0198512
-0.0552167
0.00112653
-0.000734104
0.0457616
-0.000100983
-0.0128098
-0.130661
0.00218472
-0.00649516
-9.89801e-05
-0.000211617
-0.0276907
-0.0556494
0.00724905
-0.104067
-0.0602246
-2.87225e-05
0.0210169
0.0315938
0.100113
-0.00171865
-0.000160414
-0.0479653
-0.00598032
-0.000507534
-0.0422724
-0.000140802
0.0311854
-9.16743e-05
-0.00127481
-0.0751713
-0.00213878
-0.0494436
0.460845
-0.0016536
0.00027555
-0.0469596
-0.0475581
0.00905407
0.00473317
-0.000154474
-0.0280173
-8.65167e-05
0.182736
0.631947
0.0311206
0.0030474
0.00360795
-1.9224e-05
-0.0253369
-5.92137e-05
-0.00735142
-0.00170011
0.000372462
-0.00332966
-0.0094137
-0.000125511
0.000870069
-0.00831425
-0.000318055
-0.00982715
-0.0153678
-0.00920392
-0.00116553
0.56078
-0.000702724
0.00244096
0.000244651
0.0138597
-0.042523
0.00957126
-0.000180927
-0.000101995
0.00263686
-0.000112269
-3.0295e-05
-0.0112986
0.000696718
-2.45995e-05
-0.0437409
-0.00229848
-0.047438
-0.00164202
-6.94327e-05
-0.00309918
-0.00948285
-0.0143126
-0.0225664
0.0023221
0.00052491
-0.000470423
-0.00194648
-8.1284e-05
0.259086
0.00155927
-2.02133e-05
0.000581187
-0.00202492
-0.000362642
-0.0532093
-0.0462931
-0.000133618
-0.00679788
1.31271e-05
-0.00265493
-7.4891e-05
0.0342289
-0.000143258
-0.000189821
-0.0035613
-2.41692e-05
0.0134897
-0.000228974
-0.00125749
0.0186876
1.18852e-05
0.365658
-0.0457925
-0.03643
-2.57727e-05
-2.13823e-05
0.00186212
-0.00117949
-0.0443319
-1.73835e-05
-2.45886e-06
0.000740091
-2.97887e-06
0.000378503
0.000448759
-0.000460892
0.000786485
-0.0448682
0.47493
-0.0310028
0.318911
0.00906278
-0.0159961
-1.89095e-05
-0.000878195
-0.0116287
0.000143549
0.000283721
0.000169259
0.0245398
-0.00136564
-0.000220902
0.493025
-0.000544417
0.00058337
0.00050242
-4.68699e-06
-0.0916683
-0.00216892
0.00113388
0.000124826
-0.000540833
-6.94733e-05
-0.00094514
-0.0383096
-0.000417155
-0.00161566
-1.48506e-06
-0.000625895
-0.000261214
0.179085
-0.000442072
-0.000277213
-0.0577507
0.00377049
-8.72823e-05
-0.0013239
-6.23816e-05
0.162202
-0.0608175
-0.000301698
-0.000387714
-0.0019092
-0.000159155
0.0519906
0.0935357
0.00382881
0.000506396
-6.89413e-06
-9.08905e-07
0.0430354
0.00025313
-0.0514431
-0.0236234
-0.0150337
-0.1463
0.568902
0.00195238
0.16108
-0.0139234
-0.0263706
0.165406
-0.000357424
-0.0551672
-1.30405e-05
-0.00862243
-0.0422071
5.4554e-05
-0.0434929
-0.000942112
-0.00928519
-0.00546958
-0.0372195
-0.0370659
-0.00319374
-0.052282
-0.0381801
-0.000187804
-0.011544
-5.33856e-05
-0.0331409
-2.82565e-05
-0.000186871
0.0108125
0.156454
-2.38212e-08
-0.0396192
0.00354807
7.51652e-05
-0.0196974
5.59677e-06
-0.012913
-0.000260157
-0.0338114
0.00012655
-8.78812e-05
-0.00201694
-4.92237e-05
0.152271
-0.0275051
0.0356031
-3.11049e-05
0.000625911
-0.0291231
6.67134e-07
-0.0487542
-0.0557319
-0.0474307
0.51681
-0.00624733
-1.77503e-05
0.025236
-0.0365361
-0.00252863
-2.62935e-05
-8.60899e-05
-0.0409977
0.000126947
0.000871095
-4.67054e-07
0.000158847
-0.0253852
0.00048951
-0.0604651
0.0825135
-0.00515952
-1.1201e-06
0.00599746
-0.0450779
-2.09915e-05
-1.4025e-05
0.00031991
6.38996e-05
0.000404022
0.144729
0.0338142
5.56924e-05
1.0653e-05
-0.0554223
0.192627
0.164679
-4.51972e-05
-0.0322383
-0.0182247
-0.0101297
-0.0414652
-0.00832847
-0.00282954
0.134455
-4.19636e-05
-0.0240235
0.160069
-0.0424264
-1.81019e-05
-0.0519114
-0.000175107
0.234709
0.0262837
-1.51219e-05
-2.7847e-05
0.17031
3.38376e-06
-0.000181999
-0.0111371
1.2243e-05
0.222725
0.00324714
-0.00705449
-0.0539457
-0.00364596
-0.0643006
0.17531
-0.0122367
-0.0411504
0.000990361
-1.97656e-05
-0.00100977
-8.71315e-06
-1.63968e-05
0.0183933
0.173939
0.143232
-0.00043623
0.241033
-0.0114994
7.2586e-06
-0.0396291
-1.83885e-05
-0.0252918
0.0273718
-0.0138489
0.00438462
0.0018443
-0.00883014
0.000248767
-0.00163451
0.0183521
-0.00277869
-4.86066e-05
2.91018e-05
-6.14296e-05
0.0306094
5.4209e-05
-0.021032
0.25494
-0.00577681
5.0076e-05
-0.00334747
-1.0602e-05
0.00568734
-0.00035284
-6.54077e-05
-8.45731e-05
-1.32164e-05
0.203995
-0.000152194
0.213243
-0.0524071
0.000111471
-0.0452544
-0.000480641
0.150009
0.50745
-0.00136699
2.37146e-06
1.53423e-05
-2.12027e-05
0.109998
5.7569e-07
0.00103421
-0.022138
0.202846
6.38464e-06
1.45492e-05
2.80981e-06
2.45022e-05
-0.0189452
1.71208e-06
0.201794
-0.0152032
-0.000122085
2.93497e-05
-0.00199263
-0.0258137
1.29732e-06
-5.62733e-05
0.159072
3.3272e-05
-0.0286335
-0.0501749
0.000131642
6.98496e-07
-0.110252
1.15765e-06
0.149786
1.44923e-05
-0.000438461
1.1197e-05
-0.00017274
0.0874077
2.90635e-06
-0.00159249
7.69862e-06
0.011697
-0.00327698
-0.00610669
0.000697712
0.147048
-0.00026655
-8.01081e-05
-0.00839218
-0.00810675
-0.000239357
-5.37581e-05
-0.000871479
3.9136e-05
0.106839
-0.00984449
0.496672
-8.33973e-07
-0.00725071
-0.000155525
0.113542
5.56525e-05
-0.0240893
2.30091e-05
-0.00153114
-0.0298307
-0.000227081
-0.0146062
-0.042982
0.00491442
-9.54041e-06
-0.0493686
-0.000327185
-0.000291934
-0.00528372
-0.0142901
0.00125431
-5.01816e-05
-0.0004264
-0.000897309
-0.00123636
1.25167e-05
-0.00117074
0.488593
9.57486e-05
-0.00313546
-0.0310203
-0.0605185
-0.0535322
-0.0414181
-0.0199242
-0.000517815
-0.0156466
7.52779e-05
-8.0867e-05
0.48883
-9.31104e-05
0.144781
-0.000440766
0.000394104
-0.00109783
-0.0647106
-0.000408916
0.000554872
-1.54291e-05
-0.000384143
-1.62134e-05
-7.88433e-05
-0.013789
-0.000108719
-2.78462e-05
-8.21505e-05
0.000143179
-1.05513e-05
-0.0376286
0.159112
-9.92478e-06
-0.000587732
2.84385e-05
3.03001e-05
-0.000810467
8.86109e-06
-0.000877691
0.000279164
-0.000358593
-0.0540501
-0.000673257
-0.00176745
4.61153e-06
-0.00153331
0.000331706
-1.50249e-05
-9.84853e-06
1.31117e-05
-0.000773006
0.000533165
-0.0389016
-0.0247421
-0.0544061
0.000549979
-0.00182361
-0.0392249
-0.0547403
-9.30304e-05
0.0144825
0.00663165
-0.0010165
-0.0110196
-0.0474992
0.434259
-0.00040938
-1.50376e-05
0.000862833
4.81702e-05
1.73256e-05
0.0705444
0.00350922
0.0816142
-0.0332319
0.423503
-0.000510819
2.0145e-06
0.000149142
-1.81746e-05
-0.00132125
0.133043
0.213168
-5.54026e-06
-0.000168193
-1.75871e-05
0.20068
0.0142674
-0.00579109
1.14838e-05
1.89842e-05
0.00703912
-0.000677464
-0.0598835
-0.0153852
2.31522e-05
0.00340426
-0.0281405
-5.95197e-05
0.00175746
-6.69175e-05
-0.0396834
-0.00167449
0.129222
1.62282e-05
0.00163704
-0.000162518
1.45609e-05
0.000169795
-0.0208651
1.42996e-05
-0.000886271
2.18324e-05
-0.0179046
-0.03923
-0.00300234
-0.00696639
-0.00801704
0.00880653
-0.0081415
-0.00235712
6.60137e-05
0.000102949
1.98251e-05
1.7357e-05
-5.56383e-05
0.00871882
-0.049658
0.000484709
-0.0397323
-0.00293868
-0.0446161
8.55238e-05
-3.12816e-06
0.00127759
-0.098605
1.75918e-05
-0.0392166
-0.0136566
-0.090178
-0.040318
2.59603e-05
-0.00328293
0.000190936
-0.136249
0.125627
1.06345e-05
-0.050782
-0.0203412
-0.00402343
3.68747e-05
-8.61066e-06
0.0212049
-0.0150967
2.30903e-05
-0.0063584
-5.33562e-06
0.000212258
0.112973
-8.34695e-06
2.25992e-06
-8.50634e-05
3.36152e-05
0.000879427
8.598e-05
-0.0049475
0.000230075
-0.0115827
0.00107878
-0.000203008
-0.02927
-0.0373363
-0.00588014
-1.50293e-05
2.07811e-05
-0.0527601
0.00557776
-0.0409747
2.74982e-05
-0.0048523
-3.60325e-05
2.3587e-05
0.0595069
-0.00653069
-0.00264321
-1.94003e-06
-0.0161925
4.83173e-05
-0.0561458
2.58947e-05
-0.0631701
1.7771e-05
-5.94904e-06
8.30714e-05
0.00099943
-0.0829828
-0.0163373
-0.0583235
1.50808e-05
9.22535e-05
-0.0642346
-0.0236329
-0.007808
-4.8853e-06
-0.0337237
-0.0436507
-0.0638864
2.74658e-06
-7.72109e-06
3.44444e-06
-0.0741132
-0.056851
0.000706535
-0.0101463
-5.56078e-05
0.152789
9.25144e-05
1.34337e-05
0.000147611
-9.7403e-06
-8.51312e-06
-0.0034199
0.000110917
-0.00243508
-0.0547009
-0.0119387
-0.0487622
3.84964e-05
-5.04305e-05
0.0424062
-0.0481374
-0.00444812
0.102174
3.39487e-06
-1.33416e-05
-1.21881e-05
0.0529714
0.000169916
-2.66278e-06
-5.01897e-06
-0.0522818
-0.0140461
4.68646e-06
7.56856e-05
-0.00853491
-0.0059811
0.000419857
0.214344
-0.0507074
0.00013921
0.640933
-1.92003e-05
-0.000665837
-0.00798023
-0.0633213
5.72929e-06
-3.37861e-06
2.09138e-05
0.00464139
-0.0296573
-0.000327572
-0.0424574
-0.00715174
2.57976e-05
-4.605e-06
-0.00931702
-0.0059928
-0.0261328
-0.0774338
-0.0390385
-0.0338885
-0.0204473
-0.0242496
-6.20856e-05
0.000347038
0.00125618
0.000520745
-7.85583e-05
0.000745829
2.93584e-05
-9.03603e-05
-0.011061
-1.1854e-05
-2.83468e-05
0.030104
-0.0280818
-0.000159001
-4.04788e-05
-5.67655e-06
0.23585
-0.00615121
0.000765405
-0.0251353
0.000223567
0.000194371
0.000167973
-4.79543e-05
0.000473165
-0.0332533
0.0145119
-9.01925e-06
-0.000160471
-0.0365355
-0.028553
0.0453778
-0.000474169
0.00178383
0.0170454
1.30713e-06
5.86964e-05
-0.0421494
2.1572e-05
0.15394
7.17302e-06
0.00406209
0.000163063
0.000218579
-0.0582866
-0.00679304
-0.0161766
-0.0022679
2.56516e-05
0.00599148
0.0568501
-0.011265
-0.000131367
0.086847
0.149837
3.20066e-06
-0.044567
-6.55919e-05
-1.02733e-05
-4.37736e-05
-0.000546545
0.0188834
-6.76335e-06
0.000241798
-0.0220442
-0.0229587
-0.0197278
0.299639
1.63564e-05
-6.77759e-05
0.158643
-0.00677696
-0.00356036
-0.000628908
0.155969
4.23409e-05
-0.000306201
4.38257e-05
2.49568e-05
3.05148e-05
3.48355e-05
7.17733e-05
-0.0159804
7.44034e-06
-0.00312825
-0.0384515
0.214506
-0.000140398
-4.86075e-05
0.00454862
0.0779398
-0.0417197
-0.000722974
-0.0585742
0.296986
4.18401e-05
0.395953
-4.45709e-06
0.00322238
0.0230512
0.000425811
0.432
-1.53973e-05
-6.03549e-06
0.00112203
2.99746e-05
-0.000827967
0.000256382
1.01236e-05
-0.00185551
8.63794e-06
-0.000141597
-0.00310549
0.22954
0.0454832
0.0209516
-0.0377754
-5.06855e-06
-1.81772e-05
0.00327477
-0.0486143
-9.72369e-06
-0.0401924
-5.26428e-05
0.0948564
0.0570512
-0.0294806
-0.00128477
-0.0110895
-0.000940807
-0.0134577
0.0033785
-0.0069157
0.0581018
2.02338e-06
0.186365
0.0102866
-0.000573306
0.192453
-0.0122158
-1.21691e-05
2.2025e-05
6.47394e-05
-0.000203901
-0.00011907
0.233841
-0.000936398
0.238933
-0.00104342
0.154277
0.201262
0.0675981
-0.00652872
-5.36357e-06
6.0973e-05
-0.00972631
-0.0982184
-0.0425386
0.00144731
1.85652e-05
-0.0333396
-0.000311759
4.54507e-06
0.000981552
-0.00101908
-0.000635034
0.0310145
7.33521e-05
-0.0416675
0.0523345
5.63226e-05
0.000261876
-0.0132791
-0.0509875
-0.000701029
-0.000499937
1.18115e-05
0.000244
0.0219063
-0.0156144
-0.0422379
0.0012704
0.055748
-0.0343807
3.40612e-05
2.15035e-05
0.00838058
-8.89358e-05
0.0470817
0.00080305
-0.0123798
-0.000369769
0.00157272
-0.0323492
-3.59721e-05
0.000479381
-0.00205473
-0.0625316
0.116911
-0.0528582
-0.0242838
-0.000162278
-4.46711e-05
0.00648093
4.46502e-05
-0.0627129
-0.0566006
0.00054982
0.00326778
0.00365397
-0.0833572
0.000623132
0.000185527
3.60587e-05
-0.0365321
2.7355e-05
0.000544899
0.112442
0.167607
-0.0973374
0.0459235
0.0445777
0.00994566
-0.000157222
0.0105378
0.000119993
8.38316e-06
-7.34131e-05
-6.18435e-07
2.33595e-05
-0.000344424
-0.00710255
-0.0548363
-0.00903205
-0.0264864
0.0486247
0.0408783
0.00392924
-0.0546263
0.000156917
0.00445651
0.0107744
-0.000374209
0.0675886
-0.00120823
-0.0101763
0.011317
0.00530731
0.000951314
-0.00379141
0.0392607
0.000799378
-0.0179497
-0.015118
0.518917
-0.0226079
0.0733173
0.00682374
-0.0340859
0.00212135
9.8437e-05
-0.00242679
5.3877e-05
-0.00248833
-0.0230426
-6.81999e-05
-4.75416e-05
0.240408
-0.00311546
-0.0369267
-0.0171177
0.000197033
-0.00140357
-2.27731e-05
7.23927e-06
0.0345491
3.87823e-05
-0.00277606
0.0676041
0.00600509
0.00108746
0.0173536
-0.00539247
0.00402973
-0.100597
0.000839902
-0.00417534
-0.0487525
-0.000825327
-0.00753197
0.000727047
0.000731801
0.000959737
0.0330982
-0.000310605
0.00544335
-0.0468682
-0.0189243
0.000300016
-0.0464153
-0.0137594
-0.0156816
0.000100487
0.00636157
-0.0601262
-0.000804936
-0.00457495
-0.0431761
-6.7298e-05
-0.00111447
0.202886
-0.0201942
-4.0346e-05
0.00791825
-0.0447091
-0.00100338
0.183384
-0.00213659
0.000982911
0.0556655
-0.00135962
0.00797129
0.119222
5.67613e-05
0.00113505
0.000172802
3.38354e-05
-0.00423323
-0.00686467
-0.000132118
-0.021926
0.0878111
-0.0329936
-0.062562
0.00112591
-0.00308799
-0.000596804
-0.0454844
2.49439e-05
0.0151041
4.12766e-05
-0.0145691
-0.00185011
-0.00467048
-0.121419
0.100365
-0.0668874
-5.19728e-05
0.167706
-0.00187387
-0.00249936
-0.0509855
-0.0704805
-0.0143878
-2.92654e-05
-0.00109533
0.0069539
-0.0029218
-0.00444403
0.000418643
0.0788818
-0.039046
-0.0103005
-0.00624069
0.0188349
-0.00270795
-0.00129285
0.0016492
-3.87242e-05
-0.00291859
0.0994337
0.000765303
-0.109194
-5.70647e-05
-0.00684489
-0.00353763
-0.0756805
-0.0106716
-0.0878506
-6.284e-05
-6.09755e-05
-0.00430165
0.0101907
0.00173859
-0.0998301
0.074132
-0.0427812
0.000181904
-0.110072
5.06958e-06
-0.116532
-0.0230913
-0.141504
-0.152988
-0.163028
-0.173736
-0.182168
-0.176708
-0.16468
-0.140316
-0.119848
-0.00582153
0.0364283
0.0830279
0.163169
-0.00749671
-0.00692043
0.0483644
-0.017235
0.000867401
0.0126936
-0.0359749
0.000497146
-0.000659206
-2.83482e-06
-0.0131813
0.0169996
4.27378e-05
-0.000312639
-0.00970719
-0.00706037
-0.135337
-0.0130017
-0.0488416
-6.47965e-06
0.000550893
-5.06687e-05
-0.0497129
-0.00820734
-0.0327817
-0.0103867
0.00166221
0.00021275
0.00454107
-3.20235e-05
-0.0131027
-1.65945e-05
0.000359989
-0.00616326
-0.0106108
-0.000283443
0.000316915
0.0457632
-0.00963165
0.0532272
-0.125225
-0.00815143
-0.0514973
-0.0171281
0.00354973
-0.0196317
-0.00307763
-0.0115246
-0.0118795
0.332777
-0.00127702
6.59439e-05
-0.00544279
-0.00835646
2.96861e-06
0.0746176