/*--------------------------------*- C++ -*----------------------------------*\
  =========                 |
  \\      /  F ield         | OpenFOAM: The Open Source CFD Toolbox
   \\    /   O peration     | Website:  https://openfoam.org
    \\  /    A nd           | Version:  7
     \\/     M anipulation  |
\*---------------------------------------------------------------------------*/
FoamFile
{
    version     2.0;
    format      ascii;
    class       surfaceScalarField;
    location    "13";
    object      phi;
}
// * * * * * * * * * * * * * * * * * * * * * * * * * * * * * * * * * * * * * //

dimensions      [0 3 -1 0 0 0 0];

internalField   nonuniform List<scalar> 
176195
(
201.078
52.9974
-254.075
-473.474
101.95
371.524
-96.9927
-75.1223
172.115
97.4214
-260.893
163.472
-455.816
331.949
123.867
149.816
-330.353
180.537
-147.537
243.78
-96.2428
-91.8234
203.116
-111.292
-362.409
344.965
17.4435
-464.789
-8.68507
-226.789
350.116
-123.327
499.025
-360.105
-138.92
-159.378
341.964
-182.587
63.4269
-62.6363
-0.790622
-50.7511
-311.657
-83.439
42.1307
41.3083
-456.532
92.0845
364.448
-406.534
79.389
327.145
-178.778
291.644
-112.865
-341.328
-114.488
-84.9215
190.088
-105.166
163.726
-162.542
-1.18385
386.093
-280.794
-105.299
144.649
-292.336
147.687
-319.263
264.884
54.3787
-60.8779
178.161
-117.283
-1.38749
47.3654
-45.9779
-226.146
499.672
-273.526
-261.823
-176.755
438.579
-63.6746
99.4676
-35.7931
425.097
-338.939
-86.1581
-265.183
-46.972
312.155
-281.248
427.609
-146.362
-85.4372
-65.6258
151.063
-144.1
-98.3589
242.459
180.344
78.5001
-258.844
-189.514
71.3347
118.18
-104.923
-351.609
-38.1258
-91.1452
129.271
91.8254
186.727
-278.553
137.289
-402.472
-60.715
-345.819
-114.641
-39.3764
154.018
-99.9176
280.262
-34.6257
103.225
-68.5988
-0.444744
63.8717
276.025
64.9388
-340.963
589.139
-329.925
-259.214
408.757
-158.332
-250.425
416.985
-538.298
121.313
-390.845
478.316
-87.4716
244.112
-89.7113
-154.401
-466.287
336.798
129.489
-504.19
450.805
53.3849
-124.014
-162.726
286.739
-323.478
-142.809
575.372
-376.407
-198.965
-126.657
85.4971
41.1594
11.2345
57.3874
-68.6219
123.619
-215.364
91.7451
-512.808
328.883
183.925
-177.384
308.874
-131.49
333.668
-125.353
-208.315
-97.3421
163.722
-66.3797
294.019
88.0765
-382.095
9.82962
-418.384
408.554
-351.805
205.666
146.139
-208.489
406.026
-197.537
16.9571
-57.3278
40.3707
-559.741
268.182
291.559
-76.4715
155.986
-79.5149
91.2989
-63.2431
-28.0558
327.669
-235.844
-113.295
58.1833
55.1113
-93.5912
-92.2401
185.831
72.1568
-142.983
70.826
-166.53
71.5788
94.9513
214.153
-403.304
189.151
-318.148
-44.8089
362.957
-272.383
177.83
94.5526
-94.7338
-177.649
428.681
-431.677
2.9959
34.3842
-92.0069
57.6227
-333.272
607.724
-274.453
-114.463
211.452
-96.9891
342.444
156.581
-105.615
161.068
-55.4533
-323.858
472.635
-148.777
93.3582
-102.6
9.2415
-87.6817
441.657
-353.975
111.167
-73.2644
-37.903
177.343
-17.9689
-159.374
207.452
-469.275
198.046
59.5885
-257.635
-411.988
304.652
107.336
-585.301
423.15
162.151
256.776
-315.685
58.9089
100.585
-66.2005
11.0045
-122.316
111.311
1.53118
91.827
-316.4
-196.408
205.2
-461.419
256.219
338.359
-182.763
-155.596
-515.971
532.091
-16.12
92.0957
-168.567
182.435
-102.027
-80.4078
-471.669
271.049
200.62
-48.8924
111.142
-62.2496
-146.969
217.172
-70.203
-312.408
-69.6293
382.037
-72.591
185.866
-113.275
-54.0291
310.805
-111.859
-54.6713
140.524
96.4101
-236.934
-170.445
60.1318
110.314
208.028
-349.355
141.327
-303.685
76.8952
-79.4575
170.995
-91.5371
364.001
-542.143
178.142
32.2872
59.0118
-165.953
86.4957
-47.3349
-36.1041
-203.771
100.747
103.024
68.1677
-108.744
40.5763
-230.605
532.333
-301.728
-109.712
46.0374
-247.124
69.7398
-146.07
73.3237
72.7465
-166.906
-39.7158
206.622
-543.28
545.443
-2.163
-106.179
232.361
-126.182
574.033
-292.022
-282.011
-119.457
133.464
-14.0077
543.032
-200.588
-329.47
481.39
-151.921
-152.713
232.107
-79.3946
-320.815
258.727
62.0889
65.7262
-346.974
145.346
-269.36
174.285
134.589
73.0939
14.2566
-87.3505
-195.689
348.193
-152.503
504.427
-505.943
1.51509
376.112
-181.782
-194.33
-262.648
156.469
141.917
-532.762
458.38
-341.35
-117.03
-105.145
-141.978
-462.833
254.345
-223.283
-185.515
408.798
114.218
68.2164
59.4123
-94.038
6.96597
170.377
-567.495
273.095
294.4
116.954
127.158
-382.171
453.566
-71.3953
-411.741
99.3333
-95.3147
210.735
-115.42
113.507
-113.172
-0.334779
-175.441
128.63
46.8108
130.747
-58.5901
150.24
308.14
153.123
180.546
-193.797
148.767
45.0302
258.512
-145.674
-112.838
141.149
160.915
-302.064
461.41
-263.742
-197.668
-49.0073
-108.781
157.788
-184.255
88.94
-235.398
126.379
109.02
-228.2
150.419
77.7817
-103.907
379.931
33.7184
-94.7885
61.0701
24.4775
41.1001
-65.5776
-74.1744
-80.0045
154.179
217.085
-454.917
237.832
-48.698
73.1756
175.235
96.4779
-271.713
125.836
-346.472
220.636
278.311
130.447
-301.333
-144.251
445.584
-191.195
97.6036
98.2618
-249.893
151.631
-220.093
414.495
-194.401
-222.837
-248.832
-173.7
382.774
-209.073
96.0222
-244.649
148.627
312.174
187.826
-132.617
328.636
-196.019
33.8646
77.3028
-114.574
289.809
-346.435
192.761
153.674
441.551
-79.4934
-362.058
-184.998
103.121
81.8769
-186.134
125.256
74.4631
-146.027
71.564
20.4805
-69.1785
-135.275
128.025
7.25034
51.4032
-129.818
78.4152
76.1348
139.108
-215.243
-562.351
394.72
167.631
-259.749
343.522
-83.7727
378.418
68.149
-446.567
481.381
-478.854
-2.52646
-311.214
161.817
149.396
119.861
-76.53
-43.3305
363.384
-256.494
-106.89
-88.2306
382.249
-219.394
-212.596
431.99
101.385
-215.383
113.998
-46.2756
66.7561
8.011
263.038
-0.469918
-318.793
-384.399
296.717
-149.07
-71.9253
220.996
-80.0357
-104.963
-121.859
248.11
-126.25
-191.445
-141.361
332.806
55.8471
-56.2918
-127.231
-255.343
382.574
127.96
12.1831
-140.143
126.944
-5.59206
-121.352
132.526
-336.008
203.482
-65.3129
119.55
-54.2373
-73.5465
-430.643
-250.558
69.5535
181.004
-193.571
-91.5451
285.116
159.501
-58.1004
-101.401
152.631
-78.1675
-388.159
70.8775
317.282
-5.58124
-438.22
443.801
78.2174
-121.49
43.2723
13.2371
-78.2612
65.0241
85.9091
-170.385
84.4761
-234.281
120.802
113.479
-214.842
-347.509
-654.944
292.049
362.895
405.041
-209.501
-195.541
-46.4272
152.292
-105.865
208.812
-143.425
-65.3873
-94.4203
93.5063
0.913984
-290.306
161.862
128.444
-135.028
-40.4129
111.132
-100.128
257.177
-199.915
-57.262
-229.564
418.658
-189.094
449.085
-235.816
-213.27
117.043
-75.2579
-41.7856
-153.861
104.853
-60.9591
-22.676
83.6352
282.635
204.901
-487.535
-353.608
217.573
136.035
233.883
-542.653
308.77
392.889
-226.207
-166.681
148.519
-115.836
-32.683
-1.76042
-299.573
-4.15047
99.5264
-95.3759
-611.458
326.658
284.8
510.711
-510.711
-196.016
104.193
395.917
-397.678
-2.01208
57.8592
-478.419
258.325
-20.9763
137.749
-116.773
28.7311
-175.7
241.866
-144.445
-32.8842
101.052
164.145
-258.962
94.8162
40.0589
106.919
-146.978
-113.366
159.913
-46.5465
414.215
-131.879
-282.337
-331.287
198.67
440.327
-162.016
-218.106
-72.1996
154.565
163.824
-318.389
-171.241
88.3861
82.8548
51.1356
-103.341
52.2052
-169.668
95.4932
-248.398
298.71
-50.3119
75.4135
-124.306
-122.107
-71.6894
90.2709
170.825
-404.309
233.484
64.1458
55.7148
459.089
-244.37
-214.719
186.266
217.085
-403.351
25.0076
-275.565
510.552
-522.172
11.6197
127.957
-83.5128
-44.4445
-38.2281
-90.6804
128.909
112.656
-61.5208
-500.457
66.6463
433.811
-85.7919
40.3633
45.4286
323.539
-315.528
-250.37
408.252
-157.882
-507.894
325.704
182.19
344.949
-239.782
-105.167
-162.682
-191.754
354.436
-153.805
351.473
-197.668
-176.36
62.9942
-46.6713
-20.4712
67.1425
111.607
-190.869
79.2621
-61.6205
48.6227
12.9978
289.194
-181.654
-107.541
92.9967
34.845
-127.842
-143.094
268.549
-125.455
-247.151
161.441
85.7101
98.3226
61.1788
191.089
-136.578
-54.5112
-173.126
298.962
-96.3269
-162.393
258.72
87.4938
17.7981
-105.292
-80.4706
113.715
-33.2443
-145.615
99.1874
-327.995
168.617
-184.858
358.001
-173.143
406.713
34.8382
193.544
-423.108
256.105
-111.456
-87.1338
28.5541
58.5797
-25.3003
-159.042
184.343
257.137
-384.368
-68.0954
446.514
-40.1642
-130.281
194.95
39.8324
-234.782
-122.563
53.5142
69.0488
-390.435
8.26454
213.07
-415.121
202.051
24.341
-71.0123
-53.4011
-32.3908
169.038
-265.365
-432.451
-68.0064
153.057
215.054
-368.111
219.413
125.536
191.068
-83.2511
-107.817
159.21
107.34
-266.55
-230.728
127.161
103.567
79.2769
-356.205
276.928
347.392
-197.576
227.901
-131.879
82.0267
94.9015
-176.928
-103.21
250.509
-147.299
34.3814
-35.7689
85.3605
-159.778
74.417
248.123
-83.7996
-164.324
-187.777
-214.111
401.888
-175.132
-73.2667
-109.619
-15.7802
125.4
69.0248
50.3508
-119.376
323.668
-173.154
-150.514
-155.27
35.8137
-501.385
334.219
167.166
385.525
10.3925
151.422
-274.717
123.295
179.718
-103.583
192.672
79.4949
-272.167
-46.8082
247.886
-105.439
-299.585
405.024
-184.387
386.083
-201.696
-119.333
264.184
-144.851
-113.66
230.467
-116.806
151.313
-106.819
-44.4944
-132.236
-57.2784
-212.354
116.451
95.9034
224.562
-103.536
-121.026
-438.149
332.71
-127.403
129.755
-2.3516
-172.631
96.9987
75.632
310.65
-178.124
-169.105
473.152
-304.048
211.173
-115.725
-95.4482
13.958
57.97
-71.9281
63.9509
53.0925
24.5016
224.047
-248.549
98.3791
48.8194
-147.199
72.4124
318.449
-390.861
153.501
514.224
-97.2397
200.616
110.39
-311.006
-137.526
298.041
-160.515
140.323
-62.1054
205.698
-123.038
-82.6597
-69.3181
194.583
-125.264
135.336
-254.669
425.047
-238.782
-369.406
367.331
2.07513
87.9942
-74.7571
-55.2743
-25.5663
80.8406
512.293
-180.344
-69.3585
189.618
-120.259
-246.906
426.923
-180.018
253.976
164.413
-418.389
55.1441
-160.759
-489.413
263.268
-14.7903
141.734
-311.141
165.452
145.688
90.3586
100.731
-315.403
-147.031
462.434
268.987
171.34
-73.3141
-68.2788
141.593
86.0639
3.64666
-89.7106
-223.432
343.194
-119.762
99.9162
-109.263
9.34726
-138.129
349.757
-211.628
-23.8605
147.839
-123.978
78.992
100.934
-179.926
142.574
-472.043
-168.288
259.126
-90.8376
-113.005
243.192
-130.187
-106.508
159.095
-52.5865
247.846
-149.693
-98.1528
-253.929
91.5362
240.243
-428.02
-47.2646
208.407
-161.143
-196.078
81.6147
195.661
103.049
393.905
-124.919
82.338
-167.774
85.4358
353.53
70.7006
-424.231
-212.668
438.116
-225.448
-232.757
-266.941
20.6904
-66.966
606.697
-386.268
-220.429
-38.5791
121.77
-83.1906
-113.152
32.6815
301.772
-369.813
68.0407
-110.252
189.244
-358.87
357.247
1.62317
344.916
230.456
155.31
143.933
-299.243
-530.439
396.026
134.413
-342.996
424.593
-81.597
-97.3932
228.597
-131.204
155.246
-56.9237
119.104
170.091
123.924
-292.212
-125.472
267.976
-142.503
389.523
217.174
335.029
-327.39
-7.63927
325.135
-533.411
208.276
339.076
-124.923
-110.631
-432.649
59.9638
-212.543
152.579
66.1383
-139.452
348.912
110.176
189.029
-111.57
-77.4594
233.656
185.002
135.311
230.618
-365.929
-96.7561
350.732
426.162
-209.077
-355.112
-30.6464
385.758
-291.109
-182.177
473.286
427.192
-286.655
-140.537
514.638
-268.75
-245.888
-58.9088
-94.9519
-52.0534
257.468
-205.415
73.9483
86.2867
-160.235
72.3737
-122.904
50.5302
115.726
175.149
-290.874
-145.802
24.9689
120.833
11.9903
87.9259
423.477
-189.821
386.046
126.247
-331.796
-49.3432
381.139
-26.998
114.492
-183.686
98.7642
-177.026
-226.576
403.602
-23.6286
64.7287
-30.6532
-115.149
167.648
-458.757
212.38
-21.9649
-54.4158
76.3808
212.214
-59.9225
-76.9949
-36.2998
-257.77
132.297
-72.6887
267.639
-324.506
499.606
-175.101
270.889
-447.915
419.104
-213.904
117.422
191.302
-308.723
-141.985
71.6615
70.3235
-367.315
488.591
-121.276
306.18
-226.903
584.781
-239.854
-344.927
107.859
104.356
354.391
-126.965
-227.426
-262.758
432.723
-169.965
149.874
-223.218
73.3442
-218.024
34.8888
183.135
-83.3893
-92.9711
101.778
-360.855
259.077
12.0758
-100.763
88.6871
463.8
-251.239
-212.561
297.855
-481.175
183.32
-222.127
174.862
119.238
91.935
86.5985
-11.468
-75.1305
250.472
-109.948
256.193
148.848
317.695
-181.818
-135.877
-308.098
194.804
113.294
-506.531
332.317
174.214
177.339
-91.4294
-96.8036
165.923
-69.1194
-177.512
-69.6396
330.538
-28.7659
108.652
2.93148
-111.584
-104.387
186.414
-92.4232
-1.99705
-528.953
349.782
179.171
298.22
-146.798
217.603
175.286
175.014
-401.222
-474.27
238.005
236.265
-245.404
160.31
85.0943
117.966
-49.0519
-68.9139
-230.017
-196.486
426.503
114.421
129.322
-243.743
-405.539
273.042
132.497
-261.519
-144.02
-594.129
393.377
200.753
-278.086
100.574
604.582
-310.745
-293.837
-158.534
-179.047
337.581
-108.903
116.168
-7.26547
-151.424
264.528
-113.104
-230.705
133.312
-411.507
393.442
18.0649
63.369
115.562
-178.931
-386.013
206.395
179.618
-103.036
-125.165
142.322
-110.307
-32.0149
279.651
114.254
574.589
-317.307
-257.282
253.246
-519.743
266.497
45.027
-99.9075
54.8805
75.4028
11.1957
-60.7312
136.788
-76.0569
273.82
300.768
63.1664
-148.604
-276.522
173.312
45.5141
-28.557
71.9751
152.587
346.423
82.2583
95.3691
59.8772
46.8813
-186.869
139.988
366.92
-516.947
150.027
-66.915
327.171
-260.256
-29.8717
102.245
184.655
400.126
-144.065
370.762
-226.696
69.8037
-180.836
111.033
-348.758
-306.186
-57.291
-37.3805
94.6715
9.95033
-118.853
-87.8165
99.8923
155.981
-70.6204
182.512
-341.046
-127.591
66.1035
61.4874
-365.593
-79.8677
445.46
-338.332
522.394
-184.062
107.219
-388.296
281.077
37.4958
-112.421
74.9248
-76.1038
-312.055
270.183
116.299
-386.482
173.573
-113.609
233.511
-129.043
-104.468
522.445
-159.587
-362.857
-388.506
49.7555
338.751
328.208
99.2723
-427.48
-515.204
535.888
-20.684
-128.944
-74.8275
-93.8233
133.882
145.334
172.36
265.376
-567.84
302.464
392.381
-382.552
443.258
-173.075
567.757
-307.823
-259.934
-217.429
233.928
-16.4984
-39.7372
148.389
-57.4791
-251.227
308.706
57.9892
452.722
-58.5514
-87.0632
161.077
-87.1287
290.237
-174.511
127.738
54.5609
-182.299
163.262
-215.316
-107.611
-31.0501
138.661
554.38
-554.38
102.057
-125.918
269.247
-154.175
-115.072
-320.349
-187.545
-153.741
94.8325
-391.007
-124.964
-48.5928
62.5508
189.54
-345.523
170.362
175.161
20.2245
-379.094
79.7232
103.631
-183.354
101.629
58.284
82.5442
-9.45023
-65.6408
-322.866
76.7129
-208.524
131.811
40.9114
-396.023
-304.258
160.193
-145.3
-168.801
314.101
78.4329
308.526
-386.959
-328.287
501.511
-173.224
-99.408
78.4317
-21.0318
42.6313
-21.5995
-96.8769
164.538
-67.661
226.54
187.513
-414.053
326.657
-209.235
385.965
-166.552
-313.067
-217.372
84.5352
-263.314
-225.631
81.5312
-410.043
305.857
104.187
76.4343
-442.027
103.621
129.388
-233.009
-213.312
-169.349
382.662
-24.3587
-37.2617
94.5332
-121.531
-133.43
-195.299
328.729
-303.427
236.512
-105.815
-50.9279
156.743
-186.541
111.522
75.0186
367.059
-531.886
164.827
317.882
-208.766
-109.116
144.294
304.792
145.484
70.7966
-216.28
393.228
-175.625
146.772
-514.087
214.492
-137.78
153.017
164.864
-64.3856
-345.658
220.117
-390.095
169.979
426.966
-249.566
-177.401
82.476
-254.334
171.858
-208.619
-8.77295
217.392
128.122
-73.9824
-54.1396
72.4767
-135.588
63.1112
196.101
189.864
-44.8873
130.951
-347.353
423.787
136.579
231.092
-367.672
-106.605
314.633
87.0539
33.887
-120.941
42.5711
-311.545
268.974
-114.371
124.322
280
-476.165
196.165
-87.4065
215.144
266.059
-453.208
202.838
-148.073
-8.14983
156.223
21.7173
131.162
-152.88
278.861
184.939
-45.352
132.406
328.311
-23.8483
-304.463
-125.599
444.523
-318.925
104.464
281.628
38.692
218.776
318.922
139.199
-458.121
331.972
-274.15
-57.8221
-25.4007
-102.003
-208.908
56.1951
-55.3702
-31.2526
86.6228
17.2188
-72.589
-314.991
177.466
-90.587
-159.027
249.614
269.558
43.351
-312.909
-221.806
-41.6337
263.439
-147.013
88.4617
67.3702
-164.247
-90.6514
-317.726
408.377
-74.9192
-143.187
537.131
-257.131
-71.831
85.0041
50.7044
-135.708
-232.814
91.7989
141.015
65.2959
-86.7877
21.4918
112.865
157.093
-269.958
-168.717
102.191
66.5261
-128.176
320.849
-114.639
-94.6179
209.257
-339.701
-220.04
-238.763
127.425
111.338
-229.454
527.352
-297.898
415.32
-313.543
-61.7354
-83.2531
144.989
-50.8263
75.1673
-183.976
329.064
-145.088
-123.021
271.411
-148.39
167.387
-74.4332
-92.9537
-271.158
378.377
46.7601
4.80164
-51.5617
-263.259
268.638
-5.37966
-230.066
82.5289
200.269
4.23291
-204.501
-185.142
391.296
-206.154
105.444
-49.2176
-56.2262
248.205
-505.669
257.464
-497.518
173.659
163.905
-35.9449
-118.821
4.44944
-184.371
90.6187
93.7526
-158.427
378.544
160.222
-90.4184
73.7507
-421.104
-56.6342
-83.093
139.727
-110.051
-509.151
355.594
153.557
254.867
77.1047
-318.521
-153.817
472.338
-80.1473
298.872
91.5998
-130.179
-55.5852
-115.656
-254.507
-262.9
517.407
-217.046
-251.935
468.981
-249.301
263.259
-13.9571
332.038
-259.626
-288.118
-213.267
340.717
-509.822
98.6815
95.7243
-194.406
-388.349
223.78
164.569
152.61
233.436
-71.3507
126.699
-55.3484
-330.332
526.782
-196.449
-83.5914
27.0112
56.5802
-158.225
68.8818
89.3433
29.6143
-50.646
-72.2124
400.42
42.0605
108.954
-151.014
510.841
-191.919
-168.502
266.763
-319.965
166.16
-283.137
283.137
-128.417
232.038
-552.728
286.695
266.032
-324.523
-68.2591
392.783
186.665
-139.783
-68.1022
54.0465
14.0558
-207.104
93.4442
127.38
-487.485
36.2622
91.695
-128.7
-311.342
440.042
-229.563
366.142
-248.569
126.709
513.818
-275.342
-238.477
-173.482
-35.1364
154.747
-337.511
-579.67
405.092
174.578
-295.352
-137.079
-165.15
30.1559
134.994
-41.7787
-99.3565
141.135
140.402
110.07
-112.414
147.805
-35.3918
-6.18782
110.716
-104.528
198.425
-198.06
-0.365234
206.308
-338.233
131.925
59.0293
-155.833
-79.8446
-142.282
88.1095
-164.531
76.4218
-398.389
-229.504
323.359
-93.855
72.4145
33.0293
4.35392
-186.167
181.813
-161.771
-190.034
173.872
-392.069
218.197
-152.194
90.4587
15.3303
36.4671
-51.7974
35.6623
-141.477
-117.063
213.759
-96.6961
150.188
117.392
-267.58
-167.237
-281.599
448.836
171.886
-418.341
246.455
103.07
-69.884
-33.1857
-541.292
308.679
232.613
486.781
-332.075
-154.706
-501.165
176.66
-30.7821
132.839
-81.3239
-102.362
289.755
-386.511
-344.14
-130.13
-233.907
-111.616
-373.182
154.475
218.707
-209.922
135.003
-40.3325
296.233
-255.9
-77.2392
-228.157
125.122
135.845
118.858
-254.703
257.247
-451.447
194.199
201.528
-100.143
-317.045
108.279
210.641
-87.0222
-325.873
-113.707
439.58
388.119
-214.246
-328.204
332.629
-4.42568
-78.9502
127.029
-48.079
-398.779
184.668
-299.157
129.015
170.142
115.587
-115.587
-201.056
-252.512
453.568
472.825
-399.074
74.3507
-267.921
-0.382748
328.694
326.513
195.931
-222.778
-70.7101
293.489
58.4573
-22.577
-35.8803
-61.3291
116.221
-54.8917
-194.172
122.048
72.1239
-322.693
-244.802
-127.27
19.6585
123.595
-38.5911
-276.549
-308.752
-136.838
76.1068
144.217
197.747
60.8031
35.0704
-95.8735
-124.572
166.755
-42.183
388.772
178.985
-166.264
-111.821
-334.678
-174.474
-154.625
-88.9848
243.61
-70.1673
-265.8
335.967
-293.005
169.558
123.447
-80.5793
-83.7852
164.364
334.431
-507.829
173.398
205.599
-351.105
145.506
240.014
-434.959
194.945
-69.4707
-57.1858
-232.432
152.587
186.008
-401.394
215.387
-130.069
88.2899
-354.194
94.4448
-223.508
376.118
-36.3449
64.6966
-28.3516
131.115
-141.197
10.0825
18.7466
-79.7058
-161.484
367.792
483.355
-465.405
-17.9506
-80.7411
118.237
-71.5347
118.741
-47.206
257.584
-458.64
-44.1932
74.79
-30.5969
-137.023
278.172
390.582
-506.988
116.407
243.204
49.5008
-292.705
46.7066
-109.024
62.3177
-36.7036
101.999
55.4626
21.2467
-76.7093
-31.7478
133.18
-101.432
-9.53948
130.301
-120.762
146.224
-58.114
400.333
-144.14
-95.2108
245.968
-150.757
-303.324
-39.6721
182.074
-106.101
-75.9732
167.429
-293.123
125.693
-229.446
-155.191
384.637
-52.286
183.4
-270.968
156.728
114.24
199.629
-339.963
140.334
-331.539
208.106
123.433
248.186
-135.389
-112.797
-144.756
69.5894
75.1664
199.305
-418.699
-108.557
-78.7901
187.347
-48.1863
-117.792
165.978
90.8492
-200.411
109.562
-56.6362
155.015
154.227
-81.7154
-72.5116
-53.9092
-114.607
168.517
-31.5202
126.053
-151.83
-115.349
267.178
-300.046
-8.3496
308.396
62.7247
-135.634
72.9097
156.824
91.2993
113.426
97.2155
-141.204
139.354
1.84994
-165.15
-55.733
446.315
-130.563
92.4376
389.696
20.3694
-410.065
407.564
-341.838
-469.558
181.44
70.4143
67.1995
-137.614
-47.9724
-39.1614
91.4551
-250.554
159.099
135.743
-365.247
-162.828
-12.0961
255.3
-63.7527
264.021
244.53
169.965
-413.902
228.76
-127.397
56.0462
399.069
-165.186
182.789
-86.7423
-96.0467
252.383
-322.55
290.485
-155.637
-134.848
242.482
-218.046
-24.4359
142.641
-79.916
-231.484
-228.883
460.367
-204.73
40.1807
164.549
493.288
-486.844
-6.44395
235.911
-65.1329
-170.778
266.767
266.535
-533.303
219.102
-128.252
-156.363
297.272
-140.909
-146.701
302.012
-109.208
187.947
-78.7392
-180.229
-130.984
17.4772
-56.0916
38.6145
74.5952
-189.234
359.197
113.628
-325.527
-85.9793
-63.4255
-169.388
103.645
-42.8418
-155.346
254.762
-99.4169
-49.6271
60.8615
98.1928
-36.134
-62.0588
-136.768
82.8585
-578.689
345.485
233.204
64.7817
-115.489
50.7069
-159.766
251.221
-56.0512
114.792
-58.741
60.9886
37.2042
-155.044
364.449
-209.405
-58.951
-106.539
165.49
-54.3787
-24.5628
78.9415
305.198
-124.117
-181.081
212.567
-96.0914
-116.475
-383.834
-302.423
-167.135
-98.5894
3.46894
95.1204
139.492
-311.178
171.686
50.0053
-32.5281
-125.782
94.9996
69.5416
-387.69
295.127
-100.323
-168.611
99.2522
-180.362
115.519
64.843
335.969
-130.37
132.628
-107.966
-24.662
-114.863
-65.4987
56.8102
-166.198
109.388
96.3895
-177.713
117.823
-50.6351
-82.8906
133.526
-111.434
214.24
-102.806
154.069
-41.3271
-112.742
-264.752
-35.2949
127.1
78.5974
-60.8911
10.0649
-51.2213
151.726
-100.505
-102.138
99.9103
2.2277
-93.9945
-61.4806
-74.8916
136.372
507.581
-399.232
-108.349
395.734
-105.979
130.89
-109.172
-425.481
463.639
-38.1576
-161.239
293.633
-132.394
-232.57
306.92
82.243
71.984
-72.0485
-100.582
-88.9717
253.117
-160.964
282.817
-121.853
-81.3731
159.312
-77.9392
-292.904
164.686
128.217
99.8208
-54.7938
-25.0051
-38.238
-225.836
-202.496
428.332
153.725
353.855
-486.237
269.191
207.108
-207.108
-121.272
116.39
4.88206
184.348
-109.532
-74.8156
246.108
-540.267
294.159
156.91
148.288
-246.415
350.518
-104.103
106.955
-42.1736
-178.001
112.981
65.0196
156.891
330.007
-486.898
252.277
-111.875
-325.353
166.421
158.932
79.7098
-184.057
104.347
274.834
167.764
-442.598
-172.035
113.084
15.4505
-119.932
104.481
138.597
-170.345
-187.607
414.147
-199.138
111.895
87.2427
156.626
-93.2721
-63.3543
-113.504
379.695
-266.191
316.389
-153.127
-35.8624
122.895
-87.0324
194.732
185.662
-380.394
-226.915
-259.322
-90.048
347.295
81.1054
-152.014
70.9086
-191.104
392.413
-201.309
157.963
-78.2533
306.648
-204.402
-102.246
171.937
-89.5985
-206.061
-74.9909
38.6459
-620.857
303.55
136.982
495.613
-503.377
7.76416
219.191
172.705
-391.896
97.0971
35.5309
-302.882
-203.649
134.172
-159.472
36.5319
-285.833
-83.8715
16.4255
67.446
164.658
-301.315
136.657
9.6503
322.667
-126.703
91.7465
34.9561
50.8196
-168.611
71.2199
-123.243
52.0232
253.12
101.271
245.457
-161.031
-84.4262
78.3383
49.7837
-408.387
289.028
119.359
-259.743
-361.114
185.083
50.8279
160.401
-492.578
332.177
-69.3953
-80.9384
150.334
33.2359
-110.307
77.0708
322.805
191.013
-9.58044
399.276
53.541
-144.686
433.657
-158.823
76.4941
-167.875
91.3812
-491.243
282.331
208.912
-205.651
-263.225
468.876
-366.376
566.334
-199.958
278.369
146.729
-173.636
234.477
-60.8404
-146.631
261.051
344.867
-271.077
-73.7905
-166.855
283.297
-116.443
-188.459
-157.976
-29.4852
-249.556
279.041
75.1059
42.9385
-118.044
164.446
-101.077
443.199
-372.004
-71.1942
-193.839
97.0251
96.8135
79.7286
287.899
-367.627
46.0647
-30.7344
339.932
103.266
-105.225
120.676
-103.865
-22.838
-226.528
515.223
-288.695
-3.62296
186.368
-182.745
227.865
-406.54
178.675
-70.4762
-35.8415
106.318
296.959
103.374
-70.1279
-11.2656
81.3936
-192.475
179.133
13.342
-201.184
117.581
83.6028
185.859
388.174
81.7069
-26.2443
-283.666
-124.721
221.661
-453.145
414.524
-511.316
96.7923
131.879
206.868
-31.2416
-175.627
161.391
-104.581
82.3899
-408.263
-61.7379
-70.1115
131.849
88.6055
0.0530662
-88.6586
-141.444
31.8249
125.669
122.177
160.796
-344.325
183.528
-79.4515
135.447
-55.9951
159.812
-350.916
352.065
-212.574
335.975
-83.5923
-392.122
-219.336
-278.516
470.288
-191.772
428.194
-322.748
-105.446
-9.61423
-369.929
379.543
-358.227
-179.275
537.502
-212.159
-5.86493
115.918
-44.6983
-552.111
288.382
263.729
-243.337
-77.4785
-85.6702
-59.0856
30.6678
72.4018
-15.2256
72.613
-559.078
382.674
176.404
78.5663
-129.201
-20.4942
73.3171
-52.8229
167.153
-145.59
191.137
-315.432
124.295
312.347
-246.972
-65.3749
87.0211
-396.749
309.728
203.035
-89.6094
122.96
240.424
-86.5526
-99.988
117.339
-70.6327
472.669
-308.078
-164.591
-264.499
360.544
-96.0459
-50.1531
182.443
290.226
-417.456
31.8589
385.598
-279.529
-198.889
93.838
-187.036
93.1976
-135.036
-79.0714
214.107
111.119
193.983
-305.103
27.3282
-291.615
-260.496
-47.5059
-4.55312
52.059
-203.728
330.104
-126.375
509.82
-191.371
406.807
-72.5882
-287.229
144.135
90.4018
-1.79631
-270.275
-42.1388
312.414
68.4055
-383.809
-407.224
144.466
109.521
-13.5329
-95.9881
151.307
-230.789
79.4823
-116.691
266.879
-458.461
332.862
47.3958
-121.378
499.562
-159.63
-231.159
404.642
-173.483
185.157
-330.657
145.5
483.216
-116.157
49.2549
99.2644
-290.116
116.48
284.098
-168.619
-115.478
-179.167
293.385
-114.218
146.426
363.394
159.74
-264.787
105.047
390.563
-117.52
363.774
126.6
-490.374
317.205
-217.129
-100.076
499.153
-528.929
29.7767
148.52
-110.538
-37.9827
377.238
-298.805
-10.3676
-137.705
-90.7754
-164.522
255.297
134.897
-178.623
43.7265
-65.1217
40.1167
-306.493
474.545
-168.052
-86.9921
-40.5988
-189.623
186
75.5741
16.9825
-90.0318
73.0493
298.197
8.48694
-306.684
-55.412
15.9044
39.5075
-101.552
455.082
153.818
136.667
-145.682
310.34
-231.353
162.035
351.096
56.4684
-162.053
-163.299
22.0221
205.879
-245.936
79.6715
-119.142
212.53
-93.3881
14.8707
-63.4635
408.624
-189.434
-393.634
393.17
0.464017
-130.868
494.642
59.7443
-119.947
60.2025
91.0429
-57.0698
-113.937
171.007
-162.231
154.29
-57.1929
127.617
8.42032
-136.038
68.0108
-121.512
53.5009
-250.907
137.902
-93.7189
-55.3989
149.118
-267.471
-297.216
120.288
176.928
103.636
-70.3997
62.4202
-120.887
58.4666
55.4705
-190.506
117.211
151.338
-111.969
224.728
-112.759
-42.4789
1.0059
41.473
-88.1027
141.809
-53.7063
-373.551
199.851
-189.427
384.159
136.787
-254.02
117.232
228.662
157.134
-385.796
-35.3796
-29.7108
65.0904
329.938
98.2561
308.566
-115.066
-193.5
-164.237
405.307
-241.07
179.916
-71.0216
325.47
-254.448
327.759
121.592
-449.351
474.532
306.152
143.917
-450.068
260.454
-487.369
185.97
-26.7891
-159.181
-346.172
188.212
157.96
-132.136
-47.3935
179.53
73.1925
22.7883
-95.9808
-65.1296
-76.8554
6.64899
-400.283
-357.465
202.421
68.115
167.136
-235.251
-377.635
306.614
206.016
137.773
-343.788
-52.0693
117.292
-65.2225
-112.534
-142.207
254.741
568.793
-256.62
51.2901
112.435
-152.778
-271.552
424.33
-106.926
157.745
-237.363
405.494
-168.131
-364.936
38.6405
326.296
-190.713
-278.45
469.163
-64.2739
-93.9512
-565.09
366.72
198.37
291.957
-169.331
-122.626
-139.491
345.507
-148.791
55.0721
88.7338
-150.472
124.419
58.3699
-149.956
-490.944
250.653
240.291
-179.546
64.6828
-254.309
100.134
-271.079
-307.61
-63.9146
-239.512
112.485
-340.96
228.475
-195.594
-172.253
61.8347
110.418
-242.93
-74.1144
-102.637
-39.5714
142.208
-35.1069
-31.983
67.0899
-329.262
215.758
18.3861
-85.4246
67.0385
145.136
-176.377
170.985
-375.342
204.357
12.8327
-283.107
-172.09
300.622
-128.532
-207.666
244.197
113.125
-115.713
-79.1954
194.909
435.862
-445.476
32.8658
-114.239
283.828
201.214
-485.043
-120.046
-59.4994
-84.8658
253.903
376.975
-386.556
84.3068
-11.1144
423.377
-135.947
-287.43
117.12
155.704
-272.824
102.524
-44.643
-110.524
155.167
228.43
-78.2276
-150.202
340.118
50.4449
178.674
-43.7773
-502.41
174.123
60.6533
-116.704
-115.177
58.2811
56.8963
0.593398
89.7251
-90.3185
-134.398
-77.7527
212.151
34.0548
-121.364
87.3094
-107.862
37.3862
181.845
-188.349
6.50361
222.657
-279.68
57.0237
-212.906
78.5077
-74.579
-68.4038
-65.9302
-81.1973
147.128
143.058
203.051
188.244
-217.074
176.741
145.461
-106.502
-38.959
-394.629
270.724
123.905
230.422
-101.034
329.013
170.549
335.939
116.815
-452.755
-128.378
-134.269
-538.138
251.728
286.41
194.496
-296.381
101.885
131.439
114.018
-108.595
72.7323
-53.7734
108.93
-55.157
-288.359
-235.564
523.923
-475.187
430.234
44.9522
-259.042
109.971
-111.099
-460.326
-20.7383
481.064
229.444
261.118
-490.562
-125.852
-173.305
-155.502
-137.402
148.263
-20.6454
-351.268
145.617
-7.35823
157.232
-56.839
-269.701
169.487
100.214
69.9033
60.8437
-135.423
-140.612
276.035
102.081
-85.0989
419.132
-287.428
-131.704
-153.144
338.301
-236.966
-12.9271
456.722
24.6588
-97.8594
-64.8715
162.731
455.619
-0.0128403
-455.606
-114.067
328.003
-213.936
104.797
73.7736
-178.57
-392.135
227.911
164.223
-118.051
-107.178
-162.523
122.248
-62.5035
-124.241
302.097
-177.856
148.852
133.719
-282.57
-130.886
-47.1149
-264.394
-191.732
456.126
119.94
476.309
-330.979
-145.33
-137.688
131.311
-84.2834
-47.0279
23.5144
-77.9302
208.064
-271.816
289.072
-352.986
-430.095
361.999
177.686
-303.538
226.057
197.42
459.321
-219.307
-216.553
121.342
88.2516
67.7293
-92.5134
93.0868
-92.4934
-276.07
299.55
-23.48
-287.655
-16.603
76.5791
-133.654
57.0746
126.161
291.087
-170.8
242.987
-134.656
-108.331
-49.3232
64.1939
-274.708
96.6267
-153.697
291.547
-67.056
-224.491
-279.764
509.208
487.347
-158.334
-363.686
258.642
105.045
-22.4542
478.073
-207.983
421.053
-85.7844
-189.652
275.436
108.389
-250.527
142.138
18.0339
307.67
-334.453
-247.167
581.62
163.136
-360.826
197.69
-291.347
391.11
-99.7627
-122.723
428.874
336.622
-136.007
161.764
-90.3792
368.755
-278.376
-48.5015
-6.91046
-187.081
90.2551
96.8254
176.202
153.901
76.7105
-65.174
-275.032
340.206
-385.92
-78.869
-129.522
-211.828
-350.14
225.899
-409.976
409.976
88.6584
-321.628
232.97
189.638
-352.417
162.779
208.206
83.341
49.7167
25.1702
-74.8869
211.235
-380.585
287.881
-478.594
239.012
-44.4294
142.277
168.374
70.666
188.762
-259.428
143.581
-100.12
-43.4618
-72.4743
-289.045
361.52
103.026
-185.592
82.5658
-53.4643
140.092
-86.6279
329.145
5.88444
-69.3182
72.9649
-266.733
315.206
-48.4728
42.1389
143.831
76.9768