/*--------------------------------*- C++ -*----------------------------------*\
  =========                 |
  \\      /  F ield         | OpenFOAM: The Open Source CFD Toolbox
   \\    /   O peration     | Website:  https://openfoam.org
    \\  /    A nd           | Version:  7
     \\/     M anipulation  |
\*---------------------------------------------------------------------------*/
FoamFile
{
    version     2.0;
    format      ascii;
    class       volVectorField;
    location    "13";
    object      U;
}
// * * * * * * * * * * * * * * * * * * * * * * * * * * * * * * * * * * * * * //

dimensions      [0 1 -1 0 0 0 0];

internalField   nonuniform List<vector> 
117990
(
(1.02097 -0.0393893 -5.19888e-19)
(0.999347 6.52181e-06 -2.79129e-21)
(0.895486 0.0126639 -1.78029e-19)
(0.941459 -0.0352108 4.08335e-20)
(1.04247 -0.0259406 4.97817e-20)
(0.96686 -0.0461138 -7.60945e-22)
(0.865938 0.0173786 -1.21451e-18)
(1.10114 -0.0573993 -1.21059e-19)
(0.985015 -0.0199964 -6.43993e-22)
(0.999286 7.02765e-05 5.90553e-22)
(0.987353 -0.00123904 8.62251e-21)
(1.0079 -0.00662274 4.78463e-21)
(0.999262 -0.0425141 5.45259e-20)
(0.630215 -0.0143252 1.32589e-18)
(0.98488 -0.0204927 6.38147e-21)
(0.716609 -0.0798494 2.98495e-18)
(0.993544 -0.0163541 2.00928e-21)
(0.981799 -0.0112482 -1.0851e-20)
(1.0052 -0.0982584 1.21044e-18)
(1.04237 -0.0247892 1.78619e-19)
(1.10306 -0.0469605 -1.15431e-18)
(0.818188 -0.00433737 -1.92827e-20)
(0.979141 -0.01485 -9.62881e-21)
(0.930458 -0.0269644 2.37431e-20)
(1.17466 -0.0220587 8.50672e-19)
(0.942602 0.160479 1.39222e-18)
(0.416039 0.214268 -1.69262e-19)
(1.10021 -0.000102655 9.12411e-19)
(0.999116 -0.00284035 3.12498e-21)
(1.03305 0.0964887 -1.11362e-18)
(0.992807 -0.00260851 7.16107e-21)
(1.04898 0.0710329 3.28511e-19)
(1.06157 -0.0123319 -6.73521e-20)
(0.839647 -0.00135622 9.75455e-20)
(1.18705 -0.0262374 3.65494e-19)
(0.926628 -0.0377064 7.55329e-20)
(0.884162 0.0859272 2.03535e-19)
(0.993581 -0.0166961 -1.00681e-21)
(0.754991 1.04345 2.12006e-20)
(0.921468 0.0338478 2.8258e-18)
(1.05163 0.0702086 -6.38324e-19)
(0.981541 -0.0116291 -2.02256e-21)
(0.902429 0.0153133 3.99924e-19)
(0.926206 -0.0369284 -5.29771e-20)
(0.986362 -0.101007 5.01484e-20)
(0.632121 -0.0148334 -1.38114e-18)
(1.04023 -0.0050191 6.45813e-19)
(1.0903 -0.00449057 1.5734e-19)
(1.02387 -0.0292156 7.06219e-20)
(1.00789 -0.000668284 -2.18324e-20)
(1.00027 -1.99527e-05 1.51208e-23)
(0.867846 -0.00464707 7.04308e-20)
(1.04363 0.04546 9.92751e-19)
(0.999495 1.09433e-05 -4.52265e-22)
(0.999005 -0.0268444 -2.52766e-19)
(1.043 0.0447298 -2.46652e-19)
(1.07187 0.00661275 8.18938e-19)
(0.904441 -0.118496 2.81997e-19)
(0.507294 0.209748 6.40898e-19)
(0.924434 0.00585545 -5.13995e-19)
(0.996004 -0.00987668 -2.32841e-21)
(0.929901 -0.0229074 -2.19265e-20)
(0.962968 -0.00199247 -1.74868e-20)
(0.862041 0.0243422 -4.66888e-20)
(0.996612 -0.00276075 -7.95124e-21)
(1.0423 -0.000174726 -1.35003e-20)
(1.00197 -0.0366652 -2.9039e-19)
(1.07123 0.034298 8.60466e-19)
(0.500565 0.135532 3.61989e-19)
(1.07983 0.00631053 3.58011e-19)
(0.858153 0.143489 7.05598e-19)
(0.523138 0.10528 -8.54148e-19)
(0.926233 0.0344073 1.27344e-18)
(0.802508 -0.0145237 3.21628e-19)
(1.02572 -0.0583836 2.52966e-19)
(0.842912 0.00567301 1.01655e-19)
(0.862028 0.204249 -3.31596e-19)
(0.998195 -0.0406506 1.09996e-19)
(0.998346 -0.161005 -4.36612e-19)
(0.998167 0.123681 8.4532e-20)
(0.994053 0.129273 2.97365e-19)
(0.99733 -3.43847e-05 2.73428e-22)
(1.07148 -0.237513 -4.07742e-19)
(1.11128 -0.0012901 -4.12712e-19)
(0.873598 -0.0273597 3.80429e-20)
(1.00763 -0.00643247 4.70442e-21)
(0.886454 0.0266065 2.40389e-19)
(0.999411 -0.00104333 -3.63864e-22)
(0.838137 -0.023604 1.44781e-21)
(0.999398 -0.00170129 1.55827e-21)
(0.523664 0.628397 2.04243e-21)
(0.866006 -0.00656783 -6.03149e-20)
(0.99892 -0.00275011 -3.96872e-21)
(0.93997 -0.0365074 5.75895e-20)
(0.977713 -0.0139058 -1.65847e-20)
(1.01806 -0.00244995 9.3144e-21)
(0.980778 -0.000906381 -3.841e-21)
(1.07567 -0.236234 -3.23266e-20)
(0.966981 0.35258 -3.06636e-20)
(0.836316 -0.0222542 2.02319e-19)
(0.995941 -0.0101135 2.32936e-21)
(1.08942 0.00709393 -8.44495e-19)
(1.03448 -0.0164309 -5.17982e-19)
(1.069 -0.00280418 -1.67793e-21)
(0.856522 0.143463 4.73131e-19)
(1.09102 -0.113136 -4.36794e-19)
(0.935684 -0.0120652 -7.80626e-19)
(1.03225 -0.145022 -3.46184e-19)
(0.960327 0.0205945 -1.2315e-19)
(0.999151 -0.00324356 -1.86806e-21)
(0.930642 0.147295 -6.63566e-19)
(0.980967 -0.00118329 1.54001e-21)
(0.848663 0.214706 2.08341e-19)
(0.980093 0.0175894 7.37702e-19)
(1.18367 0.0240886 -1.1274e-19)
(1.01106 -0.00853137 9.39718e-19)
(0.987198 -0.00104357 -1.59193e-20)
(0.850454 0.13507 -9.15946e-19)
(1.001 -0.000895936 1.68577e-22)
(0.52149 0.113553 5.90274e-19)
(0.848773 0.135244 1.31063e-18)
(0.714419 -0.0808474 -1.19507e-18)
(0.901528 0.013621 -1.60803e-19)
(0.646746 0.218964 4.75724e-19)
(0.999369 -9.98649e-05 -5.59128e-22)
(1.0289 0.100231 1.28627e-18)
(0.930325 -0.0233125 1.91889e-20)
(1.13368 0.0799039 -3.66598e-19)
(0.923372 -0.00344342 1.32512e-21)
(1.1049 0.00123194 -7.55436e-19)
(1.03867 -0.0579735 -5.79522e-20)
(1.01225 -0.00187726 7.38229e-21)
(0.820753 0.118369 -5.88194e-19)
(1.00764 -0.00608332 -1.43569e-20)
(1.0011 -0.000792665 7.87254e-23)
(1.00687 0.00118651 1.90271e-18)
(1.17954 -0.0504556 -2.34883e-19)
(1.05836 -0.00992343 -8.58166e-20)
(1.00056 -0.0267547 3.47608e-19)
(0.931099 -0.0248684 -2.00409e-19)
(0.807076 -0.0710746 3.81343e-19)
(1.02089 -0.0139939 4.76119e-19)
(1.00283 -0.000166896 -5.78022e-21)
(1.03472 0.0595796 1.23821e-19)
(1.03569 -0.0575853 8.54316e-19)
(1.00013 -4.96613e-05 -1.47657e-23)
(1.05341 0.00555282 7.43916e-23)
(0.928691 -0.0201825 6.76463e-20)
(1.07345 0.0347332 -1.32843e-18)
(1.03597 -0.0309804 -1.72477e-19)
(1.08804 -0.112032 3.32973e-19)
(0.981585 -0.0984951 -3.62894e-19)
(0.864092 -0.0066409 -3.80031e-20)
(0.999102 -9.17725e-05 2.51574e-22)
(0.869291 -0.00417359 4.15446e-20)
(1.07178 -0.0126299 4.0634e-19)
(0.999142 -0.00331566 2.3831e-21)
(1.01861 0.111253 1.03279e-18)
(0.828533 0.00397435 9.03559e-21)
(1.16969 -0.146021 1.77373e-19)
(0.84239 0.0103802 -5.54228e-19)
(1.05375 0.00718605 4.84761e-19)
(0.96356 -0.00173034 -1.29126e-20)
(1.01991 -0.0845727 -4.7026e-20)
(0.97305 0.00500684 2.77998e-19)
(0.959056 -0.0216677 -4.51879e-20)
(1.07375 -0.000189066 4.12981e-19)
(0.955661 0.00338141 4.29316e-20)
(1.00578 0.114601 -1.50823e-18)
(0.961894 0.00745081 -3.20695e-19)
(0.937945 0.000639514 -4.25051e-19)
(1.04379 -0.00877087 -3.6472e-19)
(0.500603 0.694622 4.74191e-20)
(0.682581 -0.0631845 2.08942e-18)
(0.991967 -0.0745916 -3.97231e-20)
(1.08155 0.0226535 -3.78956e-20)
(0.683292 -0.0617466 -4.61453e-19)
(0.959173 -0.0445063 -4.7974e-20)
(1.03943 0.000906322 1.3474e-18)
(1.02357 -0.0310517 1.15496e-19)
(1.07415 0.00116363 8.10209e-20)
(1.02224 -0.0589163 2.88624e-19)
(1.05127 -0.0697639 -5.21322e-19)
(1.03523 0.0528011 5.32427e-19)
(0.93776 -0.0175534 1.8348e-18)
(0.984095 -0.034972 -2.29814e-22)
(0.923941 -0.0294437 -2.11351e-20)
(1.0001 0.00203626 -5.52308e-19)
(1.04936 -0.0105809 1.21389e-18)
(0.540621 0.627753 -3.17856e-21)
(0.961462 -0.0437202 -1.59045e-20)
(1.0232 -0.0143165 -3.19086e-19)
(1.02954 -0.154935 -7.6098e-19)
(0.887677 -5.96338e-05 -7.52364e-19)
(0.94953 0.1589 -1.84377e-18)
(1.1116 -0.158124 2.09991e-19)
(0.678671 -0.059086 1.37317e-19)
(0.773699 -0.000863468 -3.61162e-20)
(0.855235 -0.00338985 5.46177e-19)
(0.987937 -0.0180424 4.00078e-19)
(1.03102 0.0461685 6.96915e-19)
(0.929808 -0.128694 7.90716e-19)
(1.08038 0.00567444 2.40217e-19)
(0.999381 -0.00118937 -2.47093e-21)
(0.91954 -0.0306133 -2.25226e-21)
(0.849864 -0.0497419 3.71171e-19)
(0.969951 -0.0368249 -1.29584e-20)
(0.996661 -0.00277285 6.12348e-21)
(1.08598 0.00605469 -2.00322e-19)
(1.05028 -0.0709598 -1.2293e-18)
(0.677761 -0.0573459 -1.16511e-18)
(0.935105 -0.00650026 -4.85851e-19)
(1.17283 -0.022747 -6.31094e-19)
(0.999439 -0.00169922 2.04445e-22)
(0.97025 0.0102496 9.04598e-19)
(0.888386 -0.00268589 3.73577e-19)
(1.04124 0.0747824 5.93572e-19)
(1.04412 -0.0121087 7.30053e-19)
(0.627429 -0.0124481 -7.98123e-19)
(0.992507 -0.0113796 1.18337e-21)
(0.976469 -0.0669693 1.50541e-20)
(0.888502 0.0124718 -2.6401e-20)
(1.0249 -0.0246207 -3.33389e-20)
(0.833395 0.00536671 -4.5967e-19)
(0.999497 -3.4202e-05 6.49698e-22)
(1.14713 -0.0582696 6.62776e-19)
(1.01939 0.0087761 -6.21018e-19)
(0.841324 -0.00691147 5.88505e-19)
(1.11099 -0.155966 1.20822e-19)
(1.11999 -0.0766063 3.75128e-19)
(1.09317 0.00593839 -8.28974e-20)
(0.979582 -0.111489 -6.4123e-20)
(0.813898 -0.0478249 -3.32227e-19)
(0.947784 -0.00318921 3.64178e-19)
(1.04304 -0.0576163 -3.89009e-19)
(1.03056 0.0463949 1.04478e-18)
(1.02111 -0.00166508 1.04843e-20)
(1.0322 -0.0179779 5.67399e-19)
(0.959317 -0.00822138 -1.31432e-19)
(0.866139 -0.00660003 -9.15277e-20)
(0.635581 0.493069 -2.80978e-19)
(1.00919 -0.0310724 7.9204e-21)
(1.17342 -0.146197 -2.26445e-19)
(0.978523 0.366188 2.24834e-19)
(0.921044 -0.00322878 -6.76392e-20)
(1.03323 -0.0282274 -3.43242e-20)
(1.05628 0.0490847 9.51292e-19)
(0.840143 0.00314776 1.0057e-18)
(0.955318 0.00359061 1.54224e-20)
(0.80548 -0.0959821 5.40802e-19)
(1.00758 -0.126924 -3.93287e-19)
(0.951233 -0.0472515 -2.37574e-21)
(1.05171 0.00651651 -3.5912e-18)
(1.0177 -0.0371426 1.81102e-20)
(1.1404 0.0784553 -6.84214e-19)
(1.07387 7.1128e-05 -5.57468e-19)
(0.755494 0.242931 -7.49449e-19)
(1.11107 0.00158048 3.76865e-19)
(1.01433 -0.000331215 5.01963e-20)
(1.10669 -0.0569344 -1.26041e-20)
(1.07666 0.0028955 -1.30108e-18)
(0.631031 -0.00711518 4.9019e-19)
(1.03306 0.0569532 -7.64168e-19)
(0.90863 1.1092 -3.93751e-20)
(0.959241 0.0210405 -9.50033e-20)
(0.943756 -0.0362923 -1.29888e-19)
(0.650771 0.21579 7.73103e-19)
(0.924289 -0.00888669 7.35532e-20)
(0.869768 0.187637 -3.90449e-19)
(0.873634 0.200547 7.2556e-20)
(0.996775 -0.00151649 -5.17216e-23)
(1.05129 -0.00970986 -2.96024e-19)
(1.02606 -0.0316425 2.99148e-19)
(1.00929 -0.0307943 -4.65692e-19)
(0.992721 -0.04478 2.12183e-19)
(0.883489 0.0252838 1.19616e-19)
(0.98365 -0.105725 -3.73918e-19)
(0.990584 -0.0735798 -1.92736e-20)
(1.00067 -0.01301 -3.82382e-19)
(1.03468 -0.144408 2.78696e-19)
(1.02009 -0.0870513 1.23511e-19)
(0.921986 -0.00262542 -5.11776e-20)
(1.00639 -0.0385377 2.82256e-20)
(0.845411 -0.0442252 -1.95156e-19)
(0.998459 -0.0304905 1.22381e-20)
(1.07552 -0.00155996 9.20875e-19)
(1.14259 -0.0690136 3.87952e-19)
(1.0599 0.00389123 -1.85607e-18)
(1.08417 -0.244917 2.38675e-19)
(0.758779 0.973842 1.4291e-20)
(0.981799 -0.104593 -9.10372e-20)
(0.99952 -0.00122312 -1.86584e-21)
(0.507899 0.239051 4.19849e-19)
(0.938801 -0.00398762 -4.74051e-19)
(0.994761 -0.0208603 -2.98195e-22)
(1.07754 0.00833046 -6.28951e-19)
(0.94928 -0.0404724 3.87046e-22)
(1.05285 0.0679501 5.12809e-19)
(1.02128 -0.0357182 -2.26028e-19)
(0.856682 0.218353 1.85346e-19)
(0.664909 -0.0472476 6.25078e-19)
(0.981014 -0.0698525 -1.32316e-19)
(0.361785 0.431575 -2.17203e-20)
(0.931414 -0.011216 1.69688e-19)
(1.0102 -0.0979208 4.96562e-20)
(1.04457 0.0958861 2.96385e-19)
(1.00592 -0.0474255 -6.26603e-20)
(0.840245 -0.00286238 -4.07398e-19)
(1.58669 0.672481 8.18865e-21)
(1.04097 0.000642152 5.19941e-21)
(0.921676 -0.0443664 -1.06342e-20)
(0.848075 0.0827607 9.11938e-19)
(0.826895 0.0210997 6.03903e-19)
(0.958384 -0.00745571 3.95119e-19)
(0.992101 -0.0384774 -2.80985e-19)
(1.03675 -0.0168764 1.41228e-19)
(1.03115 -0.151253 -1.19364e-18)
(1.03203 -0.0277984 1.46353e-19)
(0.932915 -0.029005 -1.05239e-19)
(0.522183 0.250516 -1.05512e-19)
(1.06192 0.0418206 2.06607e-19)
(0.99269 -0.0115832 -8.97283e-21)
(1.07908 0.0043375 -1.88597e-19)
(1.1846 0.0200329 2.04389e-19)
(1.01732 0.113082 -1.14486e-18)
(0.831276 0.0125642 9.43563e-19)
(1.07202 -0.0134451 -5.97478e-19)
(1.05276 0.057372 6.57564e-19)
(0.660557 -0.0434555 -1.21706e-18)
(0.502365 0.231834 -6.60397e-19)
(0.924442 -0.0444828 7.51283e-21)
(0.999481 -0.00127658 3.52221e-21)
(0.985771 -0.036415 -4.03824e-21)
(0.95102 -0.0458434 4.51432e-21)
(1.18701 0.00296041 1.61731e-19)
(0.964573 -0.0329954 1.40488e-19)
(1.00215 0.112787 5.99432e-19)
(0.997176 -0.0015987 6.1692e-22)
(0.964231 -0.046056 -2.91162e-22)
(0.921435 -0.0289816 2.93911e-20)
(0.903375 0.0107462 1.57116e-19)
(1.042 0.0820132 -2.21849e-18)
(0.420051 0.210245 6.57479e-20)
(0.860702 0.0234474 -4.28585e-19)
(0.924995 -0.01199 -6.65672e-20)
(1.04854 -0.0271942 -5.34673e-20)
(0.997863 -0.0116876 2.37728e-19)
(1.13533 0.0664895 -6.20584e-21)
(0.898699 -0.0569073 -1.03731e-18)
(1.00826 -0.0176783 -1.20144e-19)
(0.823351 0.119451 3.09765e-19)
(1.00761 0.0428169 -8.32996e-19)
(1.07733 0.0019776 1.18645e-18)
(0.948392 -0.0401853 -7.19936e-20)
(0.988059 -0.0175194 4.42566e-20)
(1.00878 0.0129731 8.40358e-20)
(1.02152 -0.0377028 8.27046e-19)
(1.00031 -0.000122073 -1.51827e-24)
(0.980472 -0.0464616 -7.17774e-20)
(1.04208 -0.0168555 -5.19257e-19)
(0.91122 0.183184 1.11448e-18)
(1.02056 -0.11019 -8.65198e-20)
(0.882466 0.0779691 3.87021e-19)
(1.20033 0.0113268 -1.62545e-19)
(0.963934 0.141792 -7.63369e-19)
(1.00014 -0.000146414 -1.13403e-23)
(0.780831 0.000238003 1.17073e-19)
(0.913162 0.0186836 -2.3389e-19)
(1.02712 -0.0251833 -2.9721e-19)
(1.00013 -0.000186231 6.63578e-23)
(1.17607 0.0518391 2.08517e-19)
(0.592836 -0.0974633 -4.54497e-19)
(0.840207 0.0042417 9.85725e-19)
(0.972817 -0.00120363 -1.99378e-20)
(0.857697 0.176253 -5.86748e-19)
(1.0549 -0.0203799 7.61391e-20)
(1.03493 -0.0164065 -2.89017e-19)
(1.00764 -0.000433698 1.93667e-20)
(0.957006 -0.0526208 -8.82741e-22)
(1.04342 -0.0203846 -7.59327e-20)
(0.978359 -0.111172 -4.90042e-19)
(0.961085 0.0172032 2.33687e-19)
(0.975716 0.0167956 1.02981e-18)
(1.04085 -0.0158886 -6.31444e-19)
(1.0826 -0.00412164 -4.91889e-19)
(0.994466 -0.000341774 -1.06109e-20)
(0.810028 -0.0403913 7.06224e-19)
(0.780156 -0.098833 -1.22657e-19)
(1.04414 -0.0270368 -1.92474e-19)
(1.06773 -0.0606879 1.77688e-19)
(1.04885 0.0654812 -2.27557e-18)
(0.958209 0.0441161 -1.68011e-18)
(0.885319 0.0265613 -1.78874e-19)
(1.09676 0.00222196 4.89891e-19)
(0.889444 0.0126405 -2.42781e-20)
(0.95434 -0.0520267 4.65182e-20)
(1.58906 0.636282 -7.18397e-21)
(1.02679 -0.0274891 1.46955e-19)
(1.02567 -0.0317309 -5.4181e-19)
(0.866895 0.0239721 -5.19461e-19)
(0.871659 -0.029196 -2.6152e-19)
(0.961658 -0.041309 -6.80366e-20)
(0.99474 0.0430698 -2.81766e-19)
(0.930993 0.0403009 1.18678e-19)
(1.27294 0.945074 1.7788e-20)
(1.04681 0.0545535 -6.83182e-19)
(1.0011 -0.000838422 -1.72344e-22)
(0.985557 -0.0115779 -9.97673e-20)
(1.04143 0.0539673 2.53067e-19)
(0.797666 -0.00454186 4.44976e-20)
(0.973808 0.019875 5.76455e-19)
(0.918494 -0.0436999 3.13539e-21)
(1.05103 -0.0260055 -1.494e-19)
(0.949921 -0.0353553 1.04829e-19)
(0.870166 -0.0250561 -3.02218e-20)
(1.00089 -0.0156145 1.35343e-19)
(1.02698 -0.0313068 3.27955e-19)
(1.38762 -0.0333029 -3.68333e-20)
(1.00197 -0.00128831 2.59634e-21)
(1.08792 -0.00422827 -8.27027e-20)
(0.999397 6.99664e-05 -4.70253e-23)
(0.673375 -0.0544967 1.59465e-18)
(1.01115 -0.0100028 1.31178e-20)
(0.965378 0.149673 8.12805e-19)
(0.828687 0.0261506 -3.21039e-19)
(0.989555 0.0817281 -6.9366e-19)
(1.05669 0.0485127 4.6846e-19)
(0.972774 0.0713409 -6.61565e-20)
(1.07372 0.00687065 1.17491e-18)
(0.978441 -0.0357317 -2.90781e-20)
(1.04931 -0.0200961 -1.53033e-19)
(0.989948 -0.0266951 6.76006e-23)
(0.891523 -0.0333641 -2.31937e-21)
(0.84388 0.000202931 -2.36595e-19)
(0.932387 -0.0155054 6.42225e-20)
(0.983517 -0.00972223 -2.39699e-19)
(1.02603 -0.039293 -3.09722e-19)
(1.01099 -0.00963546 -1.59037e-20)
(0.992097 -0.00433065 -2.65385e-21)
(1.00689 -0.00590372 -1.0369e-20)
(0.99362 -0.0406583 -1.03619e-19)
(1.1029 0.00125124 7.12922e-19)
(1.01988 -0.0336579 6.57482e-19)
(0.862683 0.02626 5.52424e-19)
(0.998312 -0.0296368 -2.53439e-20)
(1.15176 0.0895375 -4.65275e-19)
(1.03333 -0.029084 4.3383e-19)
(0.992829 -0.00434687 -1.10428e-20)
(0.959622 0.0463572 2.40936e-18)
(1.077 0.0202515 1.14729e-19)
(0.976038 -0.0646888 3.06772e-18)
(1.00219 -0.00167405 -2.58678e-21)
(1.00135 -0.0246136 0)
(1.05143 -0.0193444 2.28003e-19)
(0.956346 0.000920728 -2.21172e-19)
(0.949036 -0.0254071 6.65898e-20)
(1.18197 -0.0715461 1.82783e-19)
(0.840733 0.00237222 -6.74926e-19)
(1.00114 0.135721 1.52779e-18)
(0.779925 -0.00251186 2.98489e-19)
(0.989317 0.0396711 -1.46628e-19)
(1.0342 -0.0288066 -3.15448e-19)
(1.04402 -0.0265836 2.26938e-19)
(0.965693 -0.115644 -6.95772e-19)
(0.846307 0.0847677 -3.80436e-19)
(1.10766 -0.0457515 6.68963e-19)
(1.05508 -0.0203849 3.50254e-20)
(0.687871 -0.0654216 -2.28518e-18)
(0.779906 -0.00403252 -1.71454e-19)
(1.0022 -0.00177023 1.09922e-21)
(1.08401 -0.00399368 9.90842e-20)
(0.788386 -0.0984146 3.05842e-19)
(0.956138 -0.00586518 3.48665e-20)
(0.800854 -0.0163159 -5.66284e-19)
(1.02551 -0.0414145 -1.12841e-19)
(1.02464 0.108963 1.89088e-18)
(0.999334 1.70432e-05 -1.44147e-22)
(1.0585 -0.0177704 -6.89331e-20)
(1.0857 0.00541951 6.19038e-19)
(1.06191 0.00787958 -7.53334e-19)
(1.02799 0.152415 -3.81992e-19)
(0.999896 -3.81347e-05 1.23344e-24)
(0.997212 -0.00175297 2.07234e-22)
(1.05763 -0.000431584 -3.38896e-19)
(0.955425 -0.00457762 3.81318e-19)
(0.973387 -0.0367469 1.00786e-20)
(0.994643 -0.0223475 -5.18662e-21)
(0.997748 0.122369 -7.4637e-19)
(1.17699 -0.0048516 -7.76297e-19)
(0.846997 0.231724 -8.06436e-20)
(0.974892 -0.0367979 -8.43631e-19)
(0.812006 0.0130879 -1.14262e-19)
(1.01459 -0.11156 2.4573e-19)
(1.03907 0.0318264 1.12842e-18)
(0.954153 -0.0352434 -4.43876e-20)
(1.17938 0.0402371 -2.83381e-19)
(0.733762 -0.0822677 -2.12646e-18)
(0.982933 0.0154067 -5.32886e-19)
(1.03224 -0.0182597 -3.04675e-19)
(0.983324 -0.0245106 -1.80524e-19)
(0.942599 -0.0369491 1.69254e-20)
(0.999785 -0.169624 -2.44577e-18)
(0.948484 -4.90302e-05 5.55282e-19)
(0.932246 0.139862 4.46509e-19)
(1.00798 -0.0534369 -4.49796e-19)
(0.992197 0.0817055 3.85793e-19)
(0.850261 0.0292912 -1.96027e-19)
(0.906897 0.00980297 4.26194e-19)
(0.615308 0.507897 -1.16299e-20)
(1.02939 0.0430962 1.11337e-18)
(0.954758 -0.0430503 8.81061e-20)
(1.01815 -0.0380047 3.54054e-19)
(1.01486 -0.0354287 -2.74525e-19)
(0.999199 -0.000225217 -3.9813e-21)
(1.01719 -0.036541 -1.14277e-18)
(0.996853 -0.117571 3.73339e-19)
(1.00813 -0.0223584 -2.41521e-20)
(1.05598 0.0351006 -7.07769e-20)
(0.986636 -0.0307559 6.56939e-22)
(0.986646 -0.0314077 -7.67246e-23)
(1.06099 -0.00289102 -2.59297e-20)
(1.00891 -0.0500134 2.7522e-19)
(1.03323 -0.00387009 -5.71027e-20)
(1.03849 -0.0204412 4.25395e-21)
(0.821065 0.0138943 -3.36703e-19)
(0.95748 -0.036219 -6.41361e-20)
(0.894447 -0.0324896 -2.18109e-22)
(1.02068 -0.160672 -3.06026e-18)
(1.03077 0.135807 1.15177e-18)
(1.05302 -0.00224709 6.37629e-19)
(0.9376 -0.000355223 -3.26888e-19)
(0.975372 -0.0923972 6.54496e-20)
(1.02645 -0.0303874 -1.94473e-19)
(1.00106 -0.00163436 -3.04212e-22)
(0.99993 -0.000162758 4.27742e-23)
(0.820241 -0.0238384 -1.11321e-19)
(0.731995 -0.0825602 2.16897e-18)
(0.911875 -0.0458316 1.7307e-20)
(1.00103 -0.0015479 -7.94036e-22)
(0.842954 -0.000638223 -1.85112e-19)
(1.04493 0.081572 2.04966e-18)
(0.510582 0.133781 -4.33183e-19)
(0.968892 0.150454 -5.32966e-19)
(0.99747 -0.000117773 -2.78001e-21)
(0.841882 0.00195154 -7.74447e-19)
(0.988795 -0.00782703 -6.63895e-19)
(1.00523 -0.000550686 -9.49977e-22)
(0.996042 -0.0119873 1.14567e-21)
(0.836011 -0.00422165 1.22873e-19)
(1.057 -0.000126322 -1.12574e-19)
(1.03464 -0.0276422 -2.48347e-20)
(1.13573 -0.0960544 9.89645e-20)
(1.02159 -0.00199183 -3.19723e-20)
(0.905595 -0.0879462 -9.53119e-19)
(0.827541 0.0205942 3.41001e-19)
(0.81236 0.013587 -1.94215e-19)
(0.863768 0.0232636 -7.07384e-20)
(1.04085 -0.0208679 -2.27063e-19)
(0.889831 -0.0900066 -1.16287e-18)
(1.01166 -0.0218666 2.97799e-20)
(1.00103 -0.000717452 -6.119e-23)
(1.06293 -0.0216751 1.91018e-19)
(0.888508 0.093313 -3.6452e-19)
(1.11567 -0.0803205 1.89208e-18)
(0.978578 0.0224403 8.56034e-19)
(1.0205 -0.0349287 -2.12535e-19)
(0.927639 0.00396386 9.82201e-20)
(0.966562 0.00601761 4.26454e-18)
(1.07644 0.00239258 -1.64252e-18)
(1.00929 -0.0189484 -1.98016e-20)
(1.10419 0.00167214 -6.27832e-19)
(0.901272 0.0152339 -9.23688e-20)
(0.856875 0.189572 -7.42827e-19)
(0.983995 -0.0279729 -2.1729e-19)
(1.09423 0.0024624 -1.56499e-18)
(1.04161 -0.000897973 1.22627e-19)
(0.979517 0.0238346 5.90232e-19)
(1.02757 -0.00277839 -5.79729e-20)
(0.954195 -0.0217843 -4.32721e-20)
(0.855886 0.0260349 5.31569e-20)
(0.937703 0.00680498 4.9602e-19)
(1.01376 -0.000678822 -4.4574e-20)
(0.960719 -0.0102541 -5.13794e-19)
(1.17621 -0.0710047 -3.60999e-19)
(0.997639 0.136439 -1.20284e-18)
(0.964127 -0.0364394 3.90767e-19)
(0.946397 -0.0267055 -9.88492e-20)
(0.917012 0.317724 -1.38861e-19)
(1.00311 -9.02019e-05 -2.48307e-21)
(1.24731 0.935839 -7.87006e-21)
(0.954699 -0.0356411 -6.85532e-20)
(1.07805 0.00831623 -9.74906e-19)
(0.956022 0.00129019 -2.11552e-19)
(1.06793 -0.0020655 -3.60344e-19)
(0.593656 -0.0853715 -1.14205e-18)
(0.927258 0.0392116 -1.17347e-18)
(1.13586 -0.0927179 8.72225e-19)
(0.973404 0.0693285 1.93722e-19)
(0.847357 0.171482 6.40984e-19)
(0.886338 0.199639 -5.66967e-19)
(0.804075 -0.080525 -1.04056e-20)
(1.07738 0.00192106 1.81897e-18)
(0.86155 0.123678 6.10249e-19)
(0.980138 -0.0695485 -2.38373e-18)
(1.02814 -0.0258783 -1.07678e-20)
(0.987174 -0.0464969 9.8559e-20)
(1.10351 -0.0808624 -2.04779e-18)
(1.00135 -0.00109926 -3.43522e-22)
(0.88608 1.09061 4.84403e-20)
(0.526468 0.0974163 -1.86424e-19)
(0.88997 0.0255025 -3.79067e-19)
(1.03787 -0.0315486 -1.99982e-20)
(1.06622 0.00497317 -2.54464e-19)
(0.949795 -0.0459773 -2.89061e-21)
(1.04992 -0.0196176 -4.57368e-21)
(0.990985 -0.107446 -5.5508e-19)
(1.18462 -0.0274726 6.61617e-19)
(0.992773 -0.000314881 -6.35153e-22)
(1.01227 -0.0217512 -2.97119e-20)
(1.05711 0.0424407 -2.41199e-19)
(1.02036 -0.0377739 2.40051e-20)
(0.353173 0.423658 5.12541e-20)
(0.846004 0.089922 -6.40389e-19)
(1.01322 0.103739 2.36504e-19)
(0.996242 -0.0120803 -3.04515e-21)
(1.01494 -0.0918573 -8.91393e-20)
(0.984906 -0.0751868 -7.00244e-19)
(1.02879 -0.00185721 3.87373e-20)
(1.01053 -0.0170857 5.8965e-19)
(1.0569 0.0521796 5.13788e-19)
(1.18066 -0.0381433 -4.29308e-19)
(1.01956 -0.0373729 -8.9402e-20)
(0.999779 -6.73449e-05 1.92678e-23)
(0.865171 0.123314 4.59657e-19)
(1.0098 -0.0178422 1.04652e-18)
(0.99268 -0.000323339 -1.41295e-20)
(1.07278 -0.0034718 -1.60124e-19)
(1.05431 -0.0183829 -1.24802e-19)
(0.961734 -0.033993 1.22621e-20)
(0.907634 -0.00252854 2.90919e-20)
(0.635344 0.992385 3.51736e-20)
(0.823962 0.00739538 -7.61307e-20)
(0.95104 -0.0480508 -8.37614e-22)
(0.873162 -0.0271971 -5.11046e-21)
(1.01276 -0.0211889 4.26616e-20)
(0.993402 -0.00461278 7.74145e-21)
(1.01486 -0.0115309 -5.29576e-19)
(0.775778 0.210817 -1.07821e-19)
(0.988287 -0.00333367 5.41069e-21)
(0.827104 0.0203646 4.0496e-19)
(1.03774 -0.0262102 1.75829e-20)
(0.962779 -0.0336652 1.83369e-19)
(0.936316 0.00404131 -6.55894e-19)
(0.994349 -0.0209591 2.00491e-21)
(1.1835 0.00876583 -3.47742e-19)
(1.05628 0.00493742 -4.68208e-19)
(1.02245 -0.116619 2.8156e-19)
(0.795549 0.208218 3.03624e-19)
(0.974544 -0.0128819 7.70006e-21)
(0.998372 -0.00412259 -2.06421e-21)
(0.97947 -0.0145088 -1.54099e-20)
(0.947813 -0.0247206 -1.99115e-21)
(1.04202 0.00805711 0)
(1.01557 -0.0208153 -3.68376e-19)
(0.781306 0.000680558 -2.7211e-20)
(0.997779 -0.00599843 -1.83307e-18)
(0.750711 -0.0901959 1.82582e-18)
(0.749523 -0.0882738 -1.57992e-18)
(1.04345 -0.019995 4.05693e-19)
(1.05667 0.0220574 1.12317e-18)
(1.01918 -0.150073 1.8988e-18)
(0.976159 -0.0149488 7.48173e-21)
(0.960334 -0.00953922 -1.06763e-19)
(0.88874 0.0257791 3.61047e-19)
(1.00997 -0.0102187 1.86079e-20)
(1.01216 -0.0346488 2.73119e-19)
(1.03901 -0.0252953 -8.54195e-21)
(1.01619 -0.0308337 -6.06138e-19)
(1.02408 -0.135366 -7.02422e-20)
(1.18533 0.0332602 -7.19292e-19)
(0.895183 -0.0844031 9.26336e-19)
(0.952676 -0.041925 -1.44316e-20)
(0.882392 0.0272555 6.31255e-19)
(1.01348 0.0112979 -4.4587e-20)
(1.02234 0.113762 -1.28166e-18)
(1.07899 0.00652847 -2.08867e-19)
(0.990891 -0.0318457 -8.15643e-20)
(1.00066 -9.08591e-06 -1.2316e-23)
(0.975378 -0.0330568 1.05201e-18)
(0.859643 0.000258191 2.28272e-20)
(0.654798 -0.0414372 -1.13036e-18)
(1.01375 -0.0212871 -1.90837e-19)
(1.04077 -0.0195978 -2.00967e-18)
(0.99718 -0.0821293 -5.45774e-19)
(1.06507 -0.0221673 8.33806e-20)
(0.396365 0.328731 -2.47872e-19)
(0.958797 -0.00153342 4.9462e-20)
(0.861259 0.00918963 1.23427e-18)
(0.995102 0.00317988 3.7194e-19)
(1.05683 0.0531479 -2.48272e-19)
(0.806925 -0.0292035 -1.28129e-18)
(1.10251 0.0033613 1.21811e-19)
(0.999387 -0.00109599 -1.04419e-21)
(0.974639 -0.0640642 3.72474e-20)
(0.82379 0.0155636 -3.8351e-19)
(0.953381 -0.00158762 -5.12464e-19)
(1.07211 -0.00479438 -1.18403e-19)
(1.13973 -0.0988826 9.51688e-20)
(1.01294 -0.0212188 -4.86244e-20)
(1.32288 -0.213367 7.87389e-20)
(0.941553 -0.0374222 -7.00394e-20)
(0.999022 -0.00382102 -8.90467e-22)
(1.01631 -0.0216472 4.09628e-19)
(1.00995 -0.0222698 1.22856e-20)
(1.18402 -0.0368453 5.89368e-19)
(1.0103 -0.010046 -1.63999e-20)
(0.957466 0.14762 -2.58595e-19)
(0.882752 0.0229251 1.00489e-19)
(1.10805 0.000397118 -2.31701e-19)
(1.06408 -0.017597 -3.51202e-19)
(1.02731 0.111347 1.81928e-18)
(1.05258 -0.0195172 -4.38399e-19)
(1.00621 0.0408036 -7.15488e-19)
(0.999991 -0.000247714 3.05662e-23)
(1.02044 -0.0590285 3.931e-19)
(1.01143 -0.0359551 -1.32101e-19)
(1.0412 -0.0267285 3.86082e-20)
(0.861386 0.00217072 1.60173e-19)
(1.00118 -0.000920242 7.65634e-22)
(0.519775 0.268486 -3.29572e-19)
(1.12288 0.110327 1.66376e-19)
(0.515245 0.0967153 4.19183e-19)
(1.00922 -0.0184318 3.84254e-20)
(1.10575 0.251026 1.21349e-19)
(1.04223 0.00878358 -2.82206e-19)
(1.04192 -0.067501 1.27621e-18)
(1.01432 -0.032773 6.02342e-20)
(0.986142 -0.000136765 -4.21773e-21)
(1.05374 0.0405316 -2.82675e-19)
(1.00831 -0.00735762 -1.06457e-20)
(1.12768 -0.0679095 -4.14717e-19)
(0.988071 -0.00696122 -7.04346e-20)
(0.595198 -0.119737 -9.04045e-21)
(0.913725 0.181752 -1.48309e-18)
(1.00791 -0.00690237 8.4355e-21)
(1.0818 -0.237899 2.30089e-19)
(0.993982 0.026101 -1.42389e-18)
(0.993407 -0.00438722 3.80047e-22)
(1.04044 0.0783948 1.61167e-18)
(1.01988 -0.0541749 1.26424e-18)
(0.906896 -0.00322893 2.37286e-20)
(1.03205 -0.0153787 3.62942e-19)
(1.01982 -0.0024993 2.34299e-20)
(1.04297 -0.00936013 -4.34515e-19)
(0.858648 0.0250404 -2.55633e-20)
(0.807444 -0.00249596 3.06928e-20)
(0.926286 0.135781 -6.13904e-19)
(0.984267 0.0136007 -3.66759e-19)
(1.15305 0.0545474 1.03939e-18)
(1.17327 0.00211049 9.1223e-19)
(0.887976 -0.00303881 -6.8196e-20)
(1.00116 -0.0195858 -2.0417e-21)
(0.928431 0.138532 -2.49774e-19)
(0.955562 -0.0348037 -4.34215e-20)
(0.810836 0.00606511 -3.58548e-20)
(1.01081 -0.0224082 -6.88858e-21)
(0.999648 0.11661 5.89494e-20)
(0.80936 -0.0280521 1.82494e-18)
(1.19586 -0.000358433 9.68567e-19)
(1.00161 -0.041443 1.79976e-19)
(1.00172 -0.0449214 -3.32312e-20)
(0.863901 0.00145658 -7.98428e-20)
(0.477435 0.187713 -2.58186e-19)
(1.01615 -0.0908409 -1.76333e-20)
(0.995262 0.11615 -2.3462e-19)
(1.06623 -0.00398867 -7.90819e-19)
(1.0419 0.0335151 -9.47444e-19)
(0.990038 -0.00606305 -3.61838e-21)
(0.516399 0.431111 1.23598e-19)
(1.0009 -0.00148107 -3.82148e-22)
(1.04722 -0.0187573 2.87737e-19)
(0.999274 -4.42081e-06 3.08389e-22)
(1.24171 0.887946 -4.22134e-20)
(1.10909 -0.0418591 -5.48239e-19)
(0.963257 0.0447911 1.14313e-19)
(0.999167 -0.000279751 4.00215e-22)
(1.13457 -0.0976808 -2.35715e-18)
(0.979619 -0.00597014 1.07675e-20)
(1.01293 -0.0348888 2.73863e-19)
(0.970704 -0.0142273 2.53226e-20)
(0.78319 -0.0983675 -6.09674e-20)
(0.936961 -0.00155796 5.35513e-19)
(1.00278 0.127233 9.1261e-19)
(0.993106 -0.000536905 1.93064e-20)
(1.04764 -0.0691771 3.90586e-19)
(1.01249 -0.0163552 1.05984e-19)
(0.929198 0.00284274 3.79254e-19)
(0.998883 -0.00412001 4.11893e-21)
(1.00018 -0.0453188 -3.52361e-20)
(0.988426 -0.000593107 2.09671e-21)
(1.00833 -0.105796 3.45254e-19)
(1.04661 -0.0279598 1.64108e-19)
(0.951092 -0.0256906 -1.889e-21)
(0.845586 -0.00172914 -1.02736e-18)
(1.00433 -0.0106924 -1.12496e-22)
(1.01333 -0.019467 3.95968e-20)
(1.02151 0.00961383 4.68905e-19)
(0.974951 -0.0129556 4.60258e-21)
(0.964444 0.0105893 -1.89728e-18)
(1.06255 0.0633795 1.83261e-18)
(0.424705 0.269049 7.16859e-22)
(0.811145 0.00395248 9.01066e-20)
(1.08376 -0.103729 -3.41439e-19)
(0.999116 -9.27938e-05 -2.56599e-22)
(0.90882 0.334293 1.53346e-19)
(1.0236 -0.134498 2.56375e-19)
(1.01864 -0.00262354 3.45341e-20)
(0.914232 -0.0458348 2.20393e-19)
(0.998947 -0.0443208 1.30577e-19)
(0.854915 -0.0594524 -3.17745e-19)
(1.34467 0.387301 2.37883e-20)
(1.0272 -0.00248575 -4.1851e-20)
(1.01079 -0.0490776 -8.57481e-19)
(0.99903 -0.00388636 3.54785e-21)
(0.942461 -0.029932 5.81636e-20)
(0.980717 -0.00626104 1.0593e-21)
(0.880012 0.110836 -8.71858e-20)
(0.832398 -0.0194364 -3.10665e-20)
(1.00637 -0.0126531 -2.93983e-22)
(0.991327 -0.00452572 6.33706e-21)
(1.07955 0.0048504 7.74154e-19)
(0.907562 -0.118283 -1.07427e-19)
(0.958286 -0.0347218 6.85402e-20)
(1.00436 -0.0441473 -8.33748e-20)
(0.928967 0.134532 -7.03551e-20)
(0.92793 -0.127106 5.00261e-19)
(1.04375 -0.026173 1.06467e-19)
(0.567614 0.0207646 -1.74433e-20)
(1.19579 0.165517 -3.18097e-19)
(0.808131 -0.0944802 -4.95308e-19)
(1.00156 -0.019343 8.07395e-21)
(0.999642 -3.7569e-05 9.23932e-22)
(0.885364 0.0964029 4.77038e-19)
(0.845054 -0.0429779 -1.14931e-19)
(1.00467 -0.0106719 -5.00287e-21)
(0.511935 0.163756 7.0983e-19)
(0.959019 -0.0210498 2.77232e-20)
(0.999452 -0.000284659 2.17711e-21)
(1.04375 0.0850563 1.95189e-19)
(1.07766 -0.16369 8.56348e-20)
(0.896756 -0.0865562 -1.2323e-18)
(0.769909 -0.0966937 -2.25059e-19)
(0.955306 0.0113784 4.45664e-19)
(0.801946 -0.00386689 4.97705e-20)
(0.813241 0.0048972 2.91947e-19)
(1.03354 -0.018392 -4.47623e-19)
(0.924823 0.167992 -6.74221e-19)
(0.989376 -0.0270146 1.2151e-21)
(0.986713 -0.0731236 -1.32551e-19)
(1.05607 0.0950401 1.36622e-19)
(0.993733 -0.0261561 3.63315e-21)
(1.19126 0.151956 4.39237e-19)
(1.00801 -0.0265649 8.39318e-19)
(1.00703 0.097999 -1.82164e-18)
(1.026 -0.0123979 3.12417e-19)
(0.979753 0.000718527 -9.60681e-20)
(1.08049 0.172186 -6.18231e-19)
(1.0873 0.00632296 5.75998e-19)
(1.06679 -0.0640814 -4.74158e-20)
(0.906914 0.0167841 -3.80267e-19)
(0.858227 0.140455 1.2748e-18)
(0.871879 0.175382 4.17003e-19)