/*--------------------------------*- C++ -*----------------------------------*\
  =========                 |
  \\      /  F ield         | OpenFOAM: The Open Source CFD Toolbox
   \\    /   O peration     | Website:  https://openfoam.org
    \\  /    A nd           | Version:  7
     \\/     M anipulation  |
\*---------------------------------------------------------------------------*/
FoamFile
{
    version     2.0;
    format      ascii;
    class       volScalarField;
    location    "37.5";
    object      p;
}
// * * * * * * * * * * * * * * * * * * * * * * * * * * * * * * * * * * * * * //

dimensions      [0 2 -2 0 0 0 0];

internalField   nonuniform List<scalar> 
7807
(
0.251787
0.00201887
0.395821
0.256989
-0.0013781
-5.85453e-05
0.400857
-0.00824482
-0.000191571
0.111292
-5.46284e-05
0.00374343
-0.0123416
0.0563286
0.115771
-0.0163851
0.262072
-0.015997
0.00161948
-0.0808599
0.0762874
0.00246303
0.0418206
0.209423
-0.0207991
0.261775
-0.00127614
0.0694488
0.177194
0.00377764
-0.0219513
0.612429
0.0410864
-0.00076751
-0.000165259
0.0918068
0.00436301
0.388361
-0.00698321
-0.000537337
-0.00638726
-0.0156297
-0.085041
-0.0454114
-0.000319399
-0.000128583
0.00240302
-0.00728814
-0.000106077
-0.0788842
0.00564245
0.0658592
-0.0261677
-0.00451193
0.0909368
-0.00737171
0.00169703
-0.00820571
-0.0338779
-0.000796552
6.50184e-05
0.00723356
0.0567107
0.00413351
-0.00153293
-0.0215603
-0.00015142
6.5433e-06
0.0863819
-0.00687854
-0.000117969
-0.0625921
-0.0201478
-0.033534
-0.01553
-0.0480091
0.389717
0.0746811
0.0651448
-0.0664605
-0.0118453
0.359864
0.107592
-0.0354319
-0.00227828
-0.00361204
-0.00881885
-0.0254101
-0.0010417
-0.00699068
0.180863
-0.0536012
-0.000210395
0.00183544
-0.00556008
-0.0350702
-0.0587553
-0.00111241
-0.00251142
-0.00182513
-0.0577669
0.0734001
-0.00526946
-3.12212e-05
-0.0439207
0.184842
0.532038
-0.00784728
-7.58986e-07
0.0383736
0.242763
-0.0529212
-2.36873e-06
0.0408049
0.185281
0.000721456
-0.0657159
0.149706
-0.0435921
-0.034634
-0.0600894
0.344055
-0.078221
0.0158391
-0.0584155
-0.00153236
-0.0200288
0.00304339
-0.00162333
-0.0223793
-0.105818
0.0658867
-0.000962439
-0.00122745
-0.0366805
0.235565
0.42674
-2.67701e-05
0.0126491
-0.075402
-0.0317727
-0.053693
-0.0486861
-0.0323756
0.536972
-0.0216266
0.1781
-0.0334583
-0.044006
0.343189
0.0877285
-0.042869
-0.00241413
0.0665699
0.106991
0.359645
-0.0555677
-0.0122777
0.497951
-9.61472e-05
0.000858424
0.21636
-2.90107e-05
-0.00328711
-0.00625217
0.2676
0.268391
0.516862
-0.00370906
-0.00489449
7.65756e-06
-0.0619193
0.000713895
0.00933727
0.0137627
-0.0435324
-0.0219126
0.149001
-0.000209322
-0.000809064
0.261543
-9.60214e-05
-0.000177911
0.402145
-0.00288255
-0.0439693
-0.0411199
-0.0321041
-0.0254263
-0.0735421
-3.17936e-05
-0.0565454
0.154314
-0.00532446
0.000119677
0.197194
-0.0019796
-0.0211054
-0.0241275
9.12338e-06
0.00145085
0.242044
0.183426
0.362413
-0.0599845
-0.0473324
-0.117199
0.0754808
0.239705
-0.000342618
5.7785e-05
0.502522
-0.0138856
-0.000997484
-0.0540258
-0.0209652
0.328063
0.335759
-0.0592436
0.581163
-0.00183562
-0.0155868
-0.05929
0.0910177
-0.105528
0.22037
0.499572
0.000106105
0.0165817
0.159221
-0.00661399
0.146593
-0.000881533
0.550618
0.352891
-0.00873832
0.00450936
-0.000498398
0.141851
-0.000151083
-0.0102652
-0.0721037
-0.000117461
-0.00216104
-0.000696436
0.163943
-2.89061e-05
-0.00725127
-0.0647952
0.611962
0.0574589
0.538718
-7.22197e-05
-0.0271747
-0.000301977
0.375777
0.00691511
0.427751
0.00217185
0.00122151
0.00666053
0.0787716
0.000983231
-0.000372751
0.000868077
-0.00697818
-0.0438263
-6.74082e-05
-0.0539636
-0.00596029
-0.000232066
-0.00102983
0.409589
-0.0123217
-0.00126139
0.584846
-0.00237435
0.250735
-0.000337073
7.00166e-05
1.29596e-05
-0.0391047
0.0873944
-0.0135544
-0.0343218
-0.00067719
-0.0684658
-0.0238635
-0.000294175
0.000844748
-0.0035872
-0.011926
0.0050752
-0.00204965
-0.0339037
-0.0372619
-0.0333703
-0.032288
-0.0418368
0.344967
0.358674
-0.00245341
-0.0455394
-1.15571e-05
-0.0039249
-0.0349635
0.204188
0.119802
0.00016519
-0.00363696
-0.0406215
0.17417
-0.00164794
0.00616697
0.00208852
0.0542361
-0.120526
0.324112
-0.00262635
0.000431792
-0.000187515
0.00702514
-8.57844e-05
-0.0271628
-0.000571568
0.00669658
-0.0748633
-0.0430131
0.00241409
0.0150404
-0.00122038
0.0331637
-0.0123791
0.0868769
0.167648
-0.153226
-0.0526254
-0.0243303
0.00877851
-0.0702869
0.52666
-0.0430139
0.0500276
0.57027
-0.00253609
-0.00288036
-0.0527721
-0.00181276
-0.0181274
0.0108576
-0.00462096
-0.00344695
0.167878
-0.000110898
0.000942881
0.000133189
-0.00558759
-0.0114808
-1.40213e-05
-0.00181492
-0.032582
0.497089
0.0034964
-0.0135684
0.467019
0.305082
0.0745726
-0.0331313
-0.0623181
0.00850061
0.259099
-0.0173358
0.288829
-0.0301722
-0.0922431
0.186968
0.290001
-0.0502943
0.112486
0.216865
0.262978
0.073565
-0.00500478
-0.00690563
-0.000144933
0.00418917
-0.0176659
0.00162064
-0.000177123
-0.00267541
-0.0683334
0.0904184
-0.0257058
-0.00474133
-0.00620436
-0.00175199
-0.0113481
0.00292427
0.190791
-0.00311878
-3.46874e-05
-8.97561e-05
8.4914e-05
-0.0308961
0.163134
-0.0065772
0.0460242
-0.115242
0.380868
0.00556117
0.0116207
-0.00833486
0.395542
-0.00175922
0.319338
0.181932
-0.000193448
-0.0331031
-0.00538907
-0.0507375
0.000970178
0.0832443
0.00525154
0.0107671
-0.00142146
0.149829
0.177717
-0.0510172
-0.0329192
-0.00381051
-0.0264252
0.0648716
0.60175
-0.0569799
0.00771283
-1.24334e-06
-0.0203181
-0.00376219
0.0303614
-0.092721
-0.0569151
0.408643
0.161762
-0.104759
0.206147
0.386346
0.0459294
0.00200174
0.267487
-0.00150909
-0.000305955
-0.0260186
0.00015076
-0.130925
-0.000963744
-0.0351826
0.00322096
0.202901
-0.00295543
-3.83775e-05
-0.098889
0.00292244
0.0363499
-0.0559005
-0.0745506
-0.00917652
0.16079
0.132833
0.136434
-0.000343451
0.0814391
0.0942942
-0.000882701
-0.0247581
0.00104187
0.00880734
-0.00480892
0.0080904
-0.00130254
0.136441
-3.1496e-05
0.000343062
0.00335772
-0.0321338
0.0339479
-0.033086
-0.0369058
-0.0397673
-0.118016
0.0105927
0.258736
-0.0606414
-0.0105705
0.557627
-0.0568674
-0.0119769
-0.0373451
-0.0100687
-0.0302678
-0.01575
0.0454254
-0.0491809
-4.13594e-05
0.0397655
-0.000159589
0.349831
0.0955751
-0.00785259
-0.0210769
-0.000315223
0.361731
0.314767
0.0635029
0.142556
-0.0618348
0.44019
-0.000102678
0.0279458
-0.0265198
0.155819
0.521675
0.0518747
0.156079
-0.00334055
-0.00033943
0.129993
-0.0844627
0.377559
0.0384426
0.227063
-0.0111689
0.388666
0.300608
-0.0140083
-0.0119472
0.108151
-0.0755229
-0.000139668
-0.0194607
-0.0728144
-0.0647107
0.0187626
0.0154517
-0.00021055
0.31667
-0.00186145
-0.000171338
-0.0332427
-0.000821387
-0.000373174
0.00532486
0.221574
-0.0870409
0.48631
0.000107089
0.218672
-0.0265169
-0.000124002
3.13032e-05
0.174749
0.215296
-0.00646475
0.197054
4.4219e-05
0.207177
-0.146077
-0.0146679
0.405347
-0.0513762
0.135221
-0.0358133
0.204518
0.211517
-0.0240001
-0.0302243
-0.00952241
-0.00456879
-0.000331998
-0.00202141
0.273893
-4.36089e-05
0.200395
-0.0844499
0.327639
0.190819
-0.0743775
0.472202
-0.00258417
0.00680191
-0.0488534
-0.0289301
-0.0100676
-0.0304936
0.0429339
0.551733
7.28549e-05
-0.00304107
-0.0499117
1.06299e-05
0.355955
0.00296576
1.01428e-05
0.000325835
0.000647844
-0.0256421
0.0290338
-0.00245415
-0.000139456
-0.0106746
0.00360574
-0.100608
-0.067999
0.0345329
-3.55748e-05
-0.145894
-0.0190499
0.115472
0.323577
0.00181277
0.123969
0.000259385
-0.018242
0.100898
-0.0101115
0.235466
-0.0187329
0.0314575
0.104532
0.158513
0.00685571
-0.0150051
0.181531
-0.0779222
0.381413
-0.0135674
0.259815
-0.0134661
-0.00183436
0.148881
0.000495035
0.0988449
0.00306242
8.76438e-06
-0.113881
0.185538
0.00231458
0.111939
-0.0178238
-0.145694
0.00311834
-0.0342473
-0.00264824
-0.0128246
-0.066834
-0.0380506
-0.0141896
-0.000235801
0.402459
0.119811
0.0456427
-0.000318751
0.29963
7.92176e-06
-0.000293767
0.130488
0.00132426
0.16214
0.0682577
0.0267489
-0.0427872
-0.11736
-0.0109636
0.00212574
-0.0544648
-2.83375e-05
0.00579078
0.228178
-0.0229533
-0.00436868
-0.0134946
-0.00307615
-0.000648674
0.573699
-0.0143057
-0.000873066
-9.25706e-06
0.146474
-0.0403446
-0.00052352
-0.00432037
0.168871
0.0943212
-0.0493573
3.12679e-06
0.186328
-0.0228196
0.193592
0.0262369
0.0321505
-0.0401216
-0.00015119
0.102007
0.085891
0.0231734
-0.0771379
0.274678
0.00981203
0.176057
-0.00426715
-0.031759
-0.000625122
-0.00283473
-0.000166562
0.168263
0.238366
-0.00233888
0.029778
-0.0242709
-0.0619534
-0.0697787
-0.00290394
0.0254876
0.54527
0.00634869
-8.53874e-05
0.0935603
-0.00595468
0.466549
-0.0176491
-0.0177994
-0.00531899
-0.0205669
-0.0108694
-0.0113365
-0.00552282
0.00240702
0.0354966
0.000175955
-0.134869
-0.0158221
0.337558
-0.0475951
0.16893
0.00327952
-0.0477548
-0.0193988
0.214612
-0.0107073
0.00017828
-0.0223584
-0.0082734
0.028312
-0.0365365
-0.0315489
-0.019121
-0.0204696
-0.00999342
-0.0708394
9.74031e-06
0.0507456
-0.0610541
0.146226
-0.0531985
0.0982827
-0.0799538
0.302603
0.00632286
-0.0414897
-0.0222035
0.493732
-0.110285
-0.0184769
-0.107748
-0.0393508
-0.0978841
-0.0551946
0.173163
-0.00435047
0.253036
0.0140837
-0.000624763
-0.00195728
0.0828235
0.618608
0.00167101
-0.0273489
0.176657
3.73375e-05
-0.0290048
0.0420515
-0.000203227
0.0142757
-0.00260151
-0.0393543
-0.00486151
4.74281e-05
-0.0489816
0.249177
0.00229972
-0.023286
0.00302521
0.176334
-0.000607157
-0.00196189
-0.000569434
-0.00125093
0.0399827
0.00142699
0.00417938
-0.0250327
7.36266e-05
-0.108246
-0.0734564
-0.126319
-0.022465
0.0232557
-0.000337093
-0.0183736
-0.0631058
0.0233429
0.330043
-0.00201292
-0.0669125
-0.00736245
0.00953139
0.149887
0.000715709
-0.000248722
0.115663
0.010967
0.0229095
-0.00463968
-0.0032476
-0.0584918
-0.000276832
-0.00212219
-0.018892
0.286923
0.246863
-0.0405211
-0.0588683
0.0115455
0.00544761
-0.00104685
-0.0683108
-0.0176564
-4.8497e-07
-0.00427571
-0.0346352
-0.074729
0.00526463
-0.0529169
-0.000633108
-0.00469075
0.193202
-0.0386466
-6.25053e-06
-0.00440023
-0.09924
-0.000263025
-0.0224233
-7.76565e-05
0.00601749
-0.0975788
-0.0402197
-3.21692e-05
4.99973e-05
0.127483
-0.0472103
0.364371
0.251105
-0.00722958
-0.00094637
-0.0171995
0.000354266
-0.103842
-0.0889574
-0.0145226
-0.0227018
0.239798
0.0117388
0.000440668
0.00779298
-0.116336
0.00310815
-0.0279493
-0.0613583
0.00166381
0.0251836
0.0732027
0.0110406
-0.0312068
-0.0681117
0.184558
-0.0337506
-3.601e-07
-0.102797
-0.0642936
-0.0407995
0.00590859
0.00120849
0.0100114
-0.0989388
0.0364008
-0.0357074
0.125355
-0.0479438
0.00861541
0.022038
0.0155821
-0.0365296
-0.114712
-0.000160115
0.145107
0.202037
0.00914035
0.1912
-0.0731595
0.0502933
-0.0468091
0.194066
0.102099
0.538091
7.53984e-06
0.101601
0.171625
0.0171823
-0.00179171
-0.0196081
-0.0183472
7.00097e-05
-0.0196523
-0.0520274
-0.0214326
-0.0236973
0.000211948
-0.0875857
-0.000454935
-0.00105839
0.230331
0.00745865
0.0595758
0.0229436
0.20032
0.0123812
-0.00048288
-0.104373
0.00924951
0.345389
0.00154805
-0.0546478
-0.000269908
-0.000673262
0.00785034
-0.0555307
-3.67033e-05
-0.0119362
0.0319656
-0.0023614
5.00019e-05
-5.50117e-05
0.149049
-0.0361848
0.00786742
-0.00133941
0.0099498
0.0180439
0.00980819
-0.000353092
0.321356
-0.0916683
0.212094
0.279518
-0.000255563
0.0509014
0.108579
-0.00093546
-0.000320575
-0.000521711
-0.00832142
0.016104
-0.0139059
-0.0231422
-0.0655929
0.165589
-0.0993226
1.59059e-05
-0.020846
-0.0201348
-0.0371481
-0.00509013
0.0069809
0.00149218
0.0313907
-0.000623083
-0.000282145
-0.0187869
-0.00500695
-0.0265619
-1.84456e-05
-0.0160229
0.0373804
-0.0234486
-0.0316717
-0.00948696
-0.0127631
-0.0100186
-0.006035
0.00864274
-0.0103488
-0.00012523
-0.000485227
0.026085
-0.0132678
-0.00571903
0.00974447
0.00290731
-0.131099
-0.012073
0.152464
-0.0136501
-0.0549574
-0.0266943
-0.0242687
-0.0167874
-0.00436791
0.00264515
-0.00409818
-0.0151571
-0.0173302
0.184314
0.143807
0.0524193
0.322181
-8.55653e-05
-0.00385732
-0.0176593
-0.00891258
0.088312
-0.0216792
0.0496061
-0.00500138
0.197716
-0.00226853
-0.00190342
0.0154248
-0.0207573
-0.000260264
-0.0241138
-0.00678104
-0.0222797
-2.35865e-05
-0.00763936
0.00233225
-0.0188477
0.0359742
0.0391276
0.0215364
-0.0151051
-0.0332904
0.114944
-0.00149735
-0.00228851
-0.00246512
0.46236
-0.000102095
0.0734202
-0.0226683
-0.0218488
-0.0279393
-0.04412
-0.0303493
-0.0360632
-0.0196764
-0.0053082
-0.000114956
-0.00494262
-0.0232803
0.0999165
0.00198139
0.140933
-0.0346349
-0.0143392
-0.00107188
-0.0305957
-0.000121209
0.144412
-0.0318804
-0.0277606
-0.0253786
-0.00459817
-0.0352418
-0.00195254
-0.0422969
0.102022
-0.0274111
-0.0764711
-0.00170258
-0.0285568
-0.0197864
0.0175116
-0.00374922
0.139189
-0.00278524
-0.0205187
-0.000791018
0.155686
-0.0407207
-0.0280242
-0.00376165
-0.0106905
-0.00319992
0.178743
0.00740958
0.185149
-0.0056239
-0.000954091
-0.00146728
-0.00270669
0.161663
-0.0623548
-0.00778898
0.00040552
-0.008872
-0.0137062
-0.00105449
-0.016768
-0.0168642
0.0601687
-0.00569326
0.0046473
0.455894
-0.0634462
-0.030332
-0.0593921
4.25678e-05
0.0778848
-0.00409294
-0.0284215
-0.00644039
-0.0374193
0.00481962
-0.000626134
-0.00336369
0.00381653
0.192262
-0.00669674
-0.00207945
-0.00533684
-0.0563488
-0.00942618
-0.0234708
0.00503602
-0.00987258
-0.0101997
-0.00378638
0.195176
-0.0477211
0.0037425
-0.00488578
-0.0291159
-0.0156243
-0.0510486
-0.00163565
0.0927187
0.025763
-0.00891548
-0.00201284
-0.0151021
0.473509
0.193705
-0.0126515
-0.000673987
-0.00276704
0.00286397
-0.0045881
0.0235724
-0.000484501
-0.0190714
-0.00228707
-0.0184703
-0.0841269
-0.00124143
-0.0129649
-0.00157377
0.300123
-0.00736305
-0.0130862
-0.0289595
-0.00224966
-0.0317107
0.0532031
0.418721
-0.0120326
-0.0127485
-0.00245888
-0.000542827
3.11354e-06
-4.49491e-06
-0.011385
-0.000781348
0.105407
-0.000781289
-0.00210665
0.00948494
-0.000300032
-0.0461602
-0.0634989
0.0195473
0.0428769
0.0291943
0.0390472
-0.0467829
0.0913405
0.0722016
0.0965117
0.121197
-0.0143803
-0.000990415
-0.00670609
-0.0712473
-0.00406782
-0.0166045
0.0240797
0.303872
-0.0549231
-0.000562575
-3.2103e-05
-0.00170352
3.40783e-07
0.00958928
-0.000654269
-0.00537963
-0.0493891
0.000642511
0.00299733
-0.000255095
0.0657352
-0.0169428
-0.0445221
-0.0014146
0.30586
0.254797
-0.0112964
-0.0804767
-0.0296767
-0.0256701
-0.0159127
-0.00217634
-0.0832663
-0.0372212
-0.0448427
-0.0718412
-5.60949e-05
0.180927
-0.0180287
-0.0107894
-0.034123
0.0211841
-0.000620444
-0.00943929
-0.00157795
0.0138015
-0.00179454
0.157132
0.000416127
0.0115271
-0.000483805
-0.0951586
0.0101328
-0.000892967
0.00870353
0.00048421
0.0144797
0.115865
0.00113596
-0.00167131
-0.00014518
-0.000671657
-0.000588649
-0.0620761
0.123369
0.00712184
-0.00031357
0.0101964
-0.000534005
0.218227
-0.0613342
0.235704
-0.0445853
-0.000524776
-0.000332215
-0.00826766
-0.006438
-0.000735913
-2.07694e-05
0.027735
0.0318142
-0.000275532
-0.000388181
-0.0213609
-2.50089e-05
0.163287
-0.00107517
-0.0537507
-0.0206497
-0.00719894
-0.0564455
-0.0625591
0.148179
-0.0231586
-0.0218464
-0.000367757
-0.0574437
-0.0223708
0.00325195
0.092466
0.32947
-0.00135821
-0.0601566
0.0133522
0.286616
0.0423131
-0.000138192
-0.0068534
-0.00465588
-0.0056468
-0.0486295
0.0903596
0.000214879
0.0187231
0.00344545
0.0760889
-0.000606879
-0.000140581
-0.0876233
0.261644
-0.0556771
0.142367
-0.00147227
-0.000235065
-2.66089e-06
-0.0937718
-0.0428083
-0.00039527
0.103102
0.0128012
-0.00609274
0.385902
-0.000456635
-0.00423486
-0.0603066
-0.0287509
-0.00262851
0.132988
-0.0661435
-0.000192516
0.0125592
-0.000201132
-0.000115754
0.136826
-0.000533366
-0.000528046
-0.0519078
-0.026233
-0.00400701
-0.0343912
0.00276822
-0.0245111
0.00190176
-0.0040008
-0.0656632
-0.0393561
0.018493
-0.0010312
0.152175
0.200212
-0.101609
0.0106972
0.021467
-0.00488572
0.162438
0.106236
-0.0292893
-0.000188101
0.0109706
-0.0553357
0.0115556
-0.0298516
-0.0024291
0.0451446
-0.0292947
-0.000158885
-8.33812e-05
-0.0415198
-0.0279708
-0.0274902
0.0108912
0.000505315
-0.0454716
-0.000176734
-0.00161222
-0.00023996
-0.0368783
-2.74111e-05
-0.00222726
-0.0504436
-0.107616
0.104012
-0.00341701
0.00481153
-0.0228996
-0.0269663
-0.000148397
-0.0467337
0.0971424
0.153934
2.80955e-05
-0.00012845
0.156799
-0.00289489
-0.0949993
-0.0413449
0.0038978
0.000559781
-0.0666333
-0.0291255
0.160625
-0.0563425
-0.00169125
-0.0109603
-0.0547794
-0.000671676
-0.000279581
-0.00104046
-0.0178761
-0.0518008
0.133958
-0.000244052
0.476982
-0.0261282
0.00013914
-0.00112315
0.000297208
0.000337871
-1.58513e-05
0.000165008
-0.0531207
-0.000834869
0.000507249
-0.000230022
0.138542
-0.00650467
-0.000224098
-4.94002e-05
0.331566
-0.0230796
-0.0431918
0.00129815
-0.000841606
0.0596234
-0.000112209
-0.0146966
-0.131859
0.00250566
-0.00742967
-0.00011083
-0.000239979
-0.0324317
-0.0684939
0.00829498
-0.120333
-0.0648546
-3.18687e-05
0.0238818
0.0356821
0.108686
-0.00197215
-0.000180853
-0.0574131
-0.00688942
-0.000577673
-0.050149
-0.000158288
0.0412464
-9.97013e-05
-0.00146099
-0.00794507
-0.00243665
-0.0591653
0.434223
-0.00189934
0.000322647
-0.0568568
-0.0586005
0.0104787
0.00544262
-0.000174329
-0.0327878
-9.5893e-05
0.1902
0.580139
0.0740791
0.0034943
0.00414354
-2.07877e-05
-0.0296196
-6.44501e-05
-0.00822637
-0.00195112
0.000434783
-0.00383046
-0.0107949
-0.000141215
0.00100582
-0.00945682
-0.000361441
-0.011419
-0.0178075
-0.00879259
-0.00133714
0.518868
-0.000800974
0.00279942
0.000287127
0.0158034
-0.0504008
0.0109704
-0.000204282
-0.000114359
0.00305033
-0.000125276
-3.14011e-05
-0.0130225
0.000809135
-2.71949e-05
-0.0520131
-0.00262993
-0.0562229
-0.00188514
-7.74775e-05
-0.00356576
-0.00982132
-0.0166044
-0.0259894
0.00266609
0.000611019
-0.000535609
-0.00223055
-8.95448e-05
0.264122
0.00179586
-2.2205e-05
0.000675972
-0.00232682
-0.000410912
-0.0638866
-0.0549699
-0.00014841
-0.00783211
1.65104e-05
-0.00302494
-8.3585e-05
0.038577
-0.000160838
-0.000212413
-0.00406914
-2.53949e-05
0.0153989
-0.000259321
-0.00144096
0.0212912
1.52249e-05
0.355435
-0.0546075
-0.0430009
-2.76462e-05
-2.35923e-05
0.00213474
-0.00135104
-0.0532865
-1.91096e-05
-2.14812e-06
0.00085531
-3.18733e-06
0.000441872
0.000522361
-0.000524782
0.000912665
-0.0533599
0.447249
-0.0367538
0.318644
0.0103533
-0.0185392
-2.06589e-05
-0.00100521
-0.0134376
0.0001706
0.000332322
0.000199647
0.0614011
-0.00156096
-0.000247775
0.460733
-0.000622656
0.000678381
0.000584129
-5.09977e-06
0.0264399
-0.00249425
0.00131066
0.000149064
-0.000614863
-7.75685e-05
-0.00107853
-0.0453508
-0.000474692
-0.00184159
-1.48091e-06
-0.000679208
-0.000297276
0.186523
-0.000503401
-0.000312241
-0.0697845
0.00432679
-9.54863e-05
-0.00151763
-6.96924e-05
0.170659
-0.0743801
-0.000339835
-0.000440924
-0.00217104
-0.000176564
0.0609162
0.113474
0.0292864
0.000591161
-7.56347e-06
-9.36781e-07
0.0576733
0.00029695
-0.0617451
-0.0270614
-0.0174378
-0.0304614
0.524255
0.00224062
0.187994
-0.0161184
-0.0308198
0.173461
-0.000406482
-0.066633
-1.41756e-05
-0.00994457
-0.0498478
6.4815e-05
-0.0525654
-0.00107805
-0.00875676
-0.00625452
-0.0437581
-0.0437183
-0.00363843
-0.064048
-0.0448033
-0.00021285
-0.0133753
-5.71493e-05
-0.0390191
-3.14101e-05
-0.000211829
0.0179108
0.165041
3.67964e-08
-0.046843
0.00407653
8.91444e-05
-0.0228567
7.44743e-06
-0.0149393
-0.000292923
-0.0396698
0.000150751
-9.77796e-05
-0.00230752
-5.10548e-05
0.160994
-0.0321931
0.0734849
-3.21658e-05
0.00072811
-0.0341963
9.30997e-07
-0.0583244
-0.0672971
-0.0565072
0.481311
-0.00719374
-1.95459e-05
0.028896
-0.0431602
-0.00287564
-2.57105e-05
-9.60046e-05
-0.048425
0.000151184
0.00101172
-3.85758e-07
0.000188341
-0.0297107
0.103875
-0.0718454
0.100154
-0.00593746
-1.11939e-06
0.00700685
-0.0547991
-2.32216e-05
-1.53632e-05
0.000373957
7.56045e-05
0.000470731
0.210958
0.0386065
6.59784e-05
1.35375e-05
-0.0665052
0.200124
0.176492
-5.07447e-05
-0.0379043
-0.0211659
-0.0116839
-0.0489726
-0.00956487
-0.00325077
0.143402
-4.49268e-05
-0.0280466
0.169385
-0.0503099
-1.75567e-05
-0.0619503
-0.000197626
0.269204
0.0308633
-1.35216e-05
-2.98719e-05
0.184316
4.19332e-06
-0.000206276
-0.012896
1.61478e-05
0.240406
0.00377041
-0.00815186
-0.0639521
-0.00419239
-0.0828924
0.18389
-0.0133692
-0.0332523
0.00115259
-2.08747e-05
-0.00115681
-7.08936e-06
-1.67478e-05
0.0252473
0.181698
0.152085
-0.000496339
0.243719
-0.0130562
9.53005e-06
-0.0467327
-1.80109e-05
-0.0295683
0.0319205
-0.0160029
0.00506595
0.00211598
-0.010197
0.00029304
-0.00187661
0.0215156
-0.00319246
-5.19699e-05
3.49274e-05
-6.83228e-05
0.034731
6.48308e-05
-0.0244852
0.25585
-0.0066398
5.93557e-05
-0.00385289
-9.83758e-06
0.0707346
-0.000402129
-7.27063e-05
-9.50528e-05
-1.41258e-05
0.209884
-0.00017111
0.231074
-0.0632998
0.000133411
-0.0547536
-0.00054567
0.158789
0.473236
-0.00156822
2.8632e-06
1.95507e-05
-2.28303e-05
0.138324
6.84744e-07
0.00119621
-0.0258638
0.219255
8.24418e-06
1.83968e-05
3.32594e-06
2.95428e-05
-0.02203
2.10391e-06
0.248409
-0.0175776
-0.000137006
3.51917e-05
-0.00228942
-0.0300049
1.44478e-06
-6.26424e-05
0.167664
3.98168e-05
-0.0334944
-0.0597263
0.000155826
8.18277e-07
-0.146042
1.3318e-06
0.164611
1.73874e-05
-0.000499143
1.40312e-05
-0.000195633
0.0958691
3.95641e-06
-0.00182881
1.0327e-05
0.0139928
-0.00376377
-0.00704226
0.000876888
0.155856
-0.0002999
-8.87348e-05
-0.00969793
-0.00936088
-0.000270989
-5.71783e-05
-0.000997108
4.71709e-05
0.165923
-0.0113215
0.464156
-2.0337e-07
-0.00836177
-0.000172295
0.134766
6.62441e-05
-0.0281525
2.76715e-05
-0.00175701
-0.0349876
-0.00025726
-0.0169262
-0.0511353
0.0056899
-8.18565e-06
-0.0604305
-0.000372723
-0.000328085
-0.00608631
-0.0160045
0.00144572
-5.23204e-05
-0.000485437
-0.00102438
-0.0014172
1.62068e-05
-0.00134162
0.456856
0.00011305
-0.0036086
-0.0363552
-0.0728948
-0.0643192
-0.0491272
-0.023177
-0.000587592
-0.0178447
8.89138e-05
-8.99148e-05
0.457602
-0.000104337
0.174683
-0.00050273
0.000459843
-0.00125762
-0.0757841
-0.000465483
0.000677511
-1.5796e-05
-0.000436922
-1.49093e-05
-8.78687e-05
-0.0159255
-0.000121024
-2.75189e-05
-9.17434e-05
0.000171484
-9.92217e-06
-0.0444148
0.218237
-1.06859e-05
-0.000672089
3.92753e-05
3.64057e-05
-0.000927151
1.11858e-05
-0.00100482
0.000327634
-0.00040795
-0.0648074
-0.000769692
-0.00202743
6.00716e-06
-0.00174864
0.00038833
-1.66377e-05
-1.036e-05
1.60026e-05
-0.000884334
0.000621222
-0.0460002
-0.0290683
-0.0651319
0.000647555
-0.00207347
-0.0262313
-0.0655522
-0.00010458
0.017062
0.00766554
-0.00116651
-0.0127374
-0.0562941
0.413208
-0.000465459
-1.6303e-05
0.000998988
5.76338e-05
2.11445e-05
0.0779655
0.00407242
0.0896013
-0.0394425
0.402656
-0.000583974
2.77183e-06
0.000177005
-1.92324e-05
-0.00152006
0.153461
0.218067
-5.01613e-06
-0.00018997
-1.77383e-05
0.206816
0.0187983
-0.00649618
1.40181e-05
2.2955e-05
0.0080737
-0.000775213
-0.0732225
-0.0178407
2.91633e-05
0.00391912
-0.0330924
-6.61144e-05
0.00202245
-7.2892e-05
-0.0469449
-0.00192322
0.146388
1.97352e-05
0.00188116
-0.000138774
1.80123e-05
0.000201018
-0.0242598
1.75899e-05
-0.00101518
2.70824e-05
-0.0208852
-0.0461759
-0.00341735
-0.00792609
-0.00924977
0.0100819
-0.00939132
-0.0027089
7.82437e-05
0.000123404
2.45399e-05
2.14677e-05
-6.18539e-05
0.0100563
-0.0605321
0.000566459
-0.048009
-0.00337937
-0.0540288
0.000101011
-1.13865e-06
0.00147238
-0.0717334
2.15965e-05
-0.0473828
-0.0158158
0.0039265
-0.0485936
3.15032e-05
-0.00378128
0.00022551
-0.138658
0.134735
1.45829e-05
-0.0612955
-0.023642
-0.00463278
4.47853e-05
-9.10751e-06
0.0281014
-0.0174899
2.87844e-05
-0.00733219
-2.78926e-06
0.000250396
0.12452
-9.01257e-06
5.61072e-06
-9.32103e-05
4.07723e-05
0.00101552
0.000101408
-0.00571003
0.000271262
-0.0133878
0.00124532
-0.000228291
-0.0343036
-0.0441979
-0.00677277
-1.65899e-05
2.54946e-05
-0.0652953
0.00641077
-0.0486012
3.42612e-05
-0.0055861
-4.02135e-05
2.8937e-05
0.0744614
-0.00753045
-0.00304188
3.66969e-07
-0.0186446
5.76319e-05
-0.0680102
3.18176e-05
-0.0764019
2.37458e-05
-6.33844e-06
9.80655e-05
0.0011556
-0.0907809
-0.0189441
-0.0712543
1.95036e-05
0.000110893
-0.0781775
-0.0273323
-0.00900776
-4.66084e-06
-0.0339425
-0.0524597
-0.0771575
5.44319e-06
-7.8244e-06
7.9628e-06
-0.0885136
-0.0693831
0.000818442
-0.0117316
-6.04967e-05
0.209687
0.000109443
1.7907e-05
0.000174889
-6.92913e-06
-8.54979e-06
-0.00393399
0.000132789
-0.00279958
-0.0669837
-0.0138139
-0.0577119
4.75608e-05
-5.61109e-05
0.0540201
-0.0572618
-0.00512292
0.113079
8.73889e-06
-1.37977e-05
-1.26728e-05
0.109051
0.000200817
2.92464e-06
-3.70081e-06
-0.0642312
-0.0162883
8.53061e-06
9.33811e-05
-0.0098421
-0.00690417
0.000489372
0.220065
-0.0620406
0.000178536
0.587397
-1.7036e-05
-0.00075845
-0.00917591
-0.0754282
8.58393e-06
-3.8064e-07
2.5355e-05
0.00534809
-0.0349113
-0.000370754
-0.0505327
-0.00824689
3.27435e-05
-4.95963e-06
-0.0107664
-0.00501883
-0.016292
-0.0760898
-0.0460189
-0.039903
-0.000617208
-0.0284594
-6.88342e-05
0.000406646
0.00721576
0.000605647
-8.36586e-05
0.000865321
3.79936e-05
-9.75915e-05
-0.0128056
-1.2997e-05
-2.95717e-05
0.0385609
-0.0245825
-0.000175506
-4.03149e-05
-4.98831e-06
0.239295
-0.0070859
0.000887978
-0.0293118
0.000262821
0.000229099
0.000198859
-5.25759e-05
0.000552301
-0.0391835
0.0177946
-9.8208e-06
-0.000177979
-0.0433964
-0.0335273
0.0510835
-0.000541579
0.00204462
0.019493
3.66649e-06
7.14791e-05
-0.0510129
2.62412e-05
0.162629
1.23005e-05
0.00466683
0.000192825
0.000257164
-0.070349
-0.00781492
-0.0187605
-0.00260702
3.0995e-05
0.00709079
0.0635753
-0.0130031
-0.000147207
0.0957035
0.158754
4.60312e-06
-0.053056
-7.21059e-05
-9.98987e-06
-4.84952e-05
-0.000625066
0.0215362
-3.45592e-06
0.000284325
-0.0258489
-0.0267557
-0.0229871
0.296382
2.25772e-05
-7.51865e-05
0.16721
-0.0067456
-0.00409523
-0.000719372
0.164696
5.27098e-05
-0.000344076
5.5624e-05
3.33122e-05
3.67812e-05
4.2003e-05
8.47613e-05
-0.0185033
1.12338e-05
-0.00359391
-0.0453307
0.230964
-0.000153312
-5.38534e-05
0.00522846
0.0862379
-0.0504097
-0.000827511
-0.071038
0.29506
5.01498e-05
0.380206
-4.34339e-06
0.00371918
0.0263374
0.000498382
0.410573
-1.25214e-05
-6.23357e-06
0.00129757
3.63351e-05
-0.000947844
0.000301337
1.44384e-05
-0.00213048
1.4801e-05
-0.000158899
-0.00357017
0.234436
0.0540602
0.0239083
-0.0445306
-5.26928e-06
-1.82399e-05
0.0037898
-0.0596945
-9.52292e-06
-0.0475683
-5.80371e-05
0.104402
0.0639677
-0.0346268
-0.0014741
-0.0128749
-0.00107625
-0.0155914
0.00410402
-0.00793588
0.0664271
2.67056e-06
0.23064
0.0340962
-0.000651222
0.20493
-0.0141138
-1.33754e-05
2.88721e-05
7.66582e-05
-0.000231004
-0.000133036
0.237391
-0.00107191
0.243047
-0.00118697
0.162903
0.215128
0.114059
-0.00751675
-4.24576e-06
7.65949e-05
-0.011239
-0.139129
-0.0509681
0.00166753
2.59454e-05
-0.0391569
-0.000350099
1.11825e-05
0.00113562
-0.00116689
-0.000719404
0.0353232
8.67098e-05
-0.0491965
0.060943
6.69769e-05
0.00030767
-0.0153359
-0.0620671
-0.00080125
-0.000570897
1.72947e-05
0.000287495
0.0834524
-0.0181281
-0.0505215
0.00146608
0.0972023
-0.0405465
4.32403e-05
2.76329e-05
0.0209848
-9.60277e-05
0.0828675
0.0012603
-0.0143152
-0.000419584
0.00181315
-0.0381145
-3.52608e-05
0.000559223
0.000170959
-0.0758906
0.149948
-0.063377
-0.0283817
-0.000180201
-4.95243e-05
0.00742393
5.42707e-05
-0.0756027
-0.0687731
0.000641593
0.00379018
0.00419724
-0.112477
0.0007269
0.000219619
4.58777e-05
-0.0434274
3.37585e-05
0.000635673
0.122114
0.176383
-0.127124
0.0515853
0.050693
0.0202908
-0.000173894
0.0125964
0.000141931
1.00523e-05
-7.8257e-05
-4.03288e-07
3.36071e-05
-0.000391244
-0.00818557
-0.0636734
-0.0104118
-0.0311791
0.0554616
0.0463946
0.00452403
-0.0671386
0.000187029
0.00517011
0.012458
-0.000425048
0.0786709
-0.00136836
-0.0117422
0.0131528
0.00609089
0.00113207
-0.00435839
0.0461248
0.000924788
-0.020833
-0.0175124
0.482988
-0.0264315
0.0843414
0.0228999
-0.0404647
0.00243948
0.000119293
-0.00278367
6.72727e-05
-0.0028607
-0.0268899
-7.53965e-05
-4.78489e-05
0.262236
-0.00358651
-0.0435779
-0.0198899
0.000233699
-0.00158254
-2.39608e-05
1.00524e-05
0.0411559
4.73586e-05
-0.0031908
0.0793481
0.0069493
0.00125825
0.0200928
-0.00620433
0.00461722
-0.126401
0.000972151
-0.0048032
-0.0585697
-0.000944137
-0.00867736
0.000843628
0.000946387
0.00110971
0.0398
-0.000349655
0.00626722
-0.0558517
-0.0220074
0.000352645
-0.0551791
-0.0159228
-0.0181585
0.000121791
0.00730417
-0.0753351
-0.000920902
-0.0052563
-0.0508458
6.76582e-05
-0.00127478
0.215402
-0.023419
-4.51113e-05
0.00908309
-0.0539582
-0.00114804
0.191243
-0.0024228
0.00113451
0.0619548
-0.00155704
0.00920566
0.128244
7.38211e-05
0.0013106
0.000204484
4.45869e-05
-0.00487782
-0.00787538
-0.000144455
-0.0255434
0.100635
-0.038653
-0.0786161
0.00129916
-0.00355172
-0.000679143
-0.0528339
3.43e-05
0.0182124
5.38955e-05
-0.016895
-0.00212286
-0.0053776
-0.0404027
0.118971
-0.087118
-5.69903e-05
0.191788
-0.00214539
-0.00282214
-0.0608917
-0.090923
-0.0166697
-3.17137e-05
-0.00124736
0.0079887
-0.00336072
-0.00511073
0.000489786
0.0894359
-0.0468389
-0.0118915
-0.00719354
0.0247222
-0.00290281
-0.00130864
0.00189779
-3.67827e-05
-0.00335356
0.116569
0.000887823
-0.140801
-5.83646e-05
-0.00789027
-0.00401852
-0.1008
-0.012319
-0.121065
-6.94219e-05
-6.69831e-05
-0.00471624
0.0117411
0.00202246
-0.143926
0.0897433
-0.0509175
0.000215248
-0.162463
1.31582e-05
-0.172385
-0.0269387
-0.191288
-0.191564
-0.184113
-0.148131
-0.0703555
-0.0398178
-0.0106756
0.0182769
0.0478681
0.133735
0.162193
0.188407
0.234603
-0.0086535
-0.00793959
0.0647159
-0.0198389
0.00100373
0.0165547
-0.0425125
0.000576433
-0.000748401
-3.01146e-06
-0.0152409
0.0194459
5.16005e-05
-0.000352653
-0.0112144
-0.00724157
-0.192401
-0.0147414
-0.0586801
-1.21998e-06
0.000640777
-5.69082e-05
-0.0603628
-0.00944905
-0.0386705
-0.0116804
0.00191324
0.000251942
0.00521455
-3.56081e-05
-0.013133
-1.24391e-05
0.000421134
-0.00684511
-0.0122758
-0.000314169
0.000371737
0.051366
-0.0111057
0.0669137
-0.182541
-0.00911552
0.106032
-0.0198911
0.00409396
-0.0227311
-0.00353769
-0.0133473
-0.013703
0.324373
-0.00144814
8.0809e-05
-0.00626215
-0.00961381
3.77426e-06
0.0828844
-0.0044252
0.303859
-0.103075
-0.0454177
-0.0281825
0.0481834
-0.00539731
-5.30225e-05
-8.1757e-06
-0.00450735
-0.0635657
6.76931e-05
0.323652