/*--------------------------------*- C++ -*----------------------------------*\
  =========                 |
  \\      /  F ield         | OpenFOAM: The Open Source CFD Toolbox
   \\    /   O peration     | Website:  https://openfoam.org
    \\  /    A nd           | Version:  7
     \\/     M anipulation  |
\*---------------------------------------------------------------------------*/
FoamFile
{
    version     2.0;
    format      ascii;
    class       surfaceScalarField;
    location    "37.5";
    object      phi;
}
// * * * * * * * * * * * * * * * * * * * * * * * * * * * * * * * * * * * * * //

dimensions      [0 3 -1 0 0 0 0];

internalField   nonuniform List<scalar> 
11512
(
139.199
-508.924
369.725
-778.919
5.08583
773.833
422.422
-371.66
-50.762
659.236
253.281
-912.517
1510.19
-1069.39
-440.796
1216.25
-1527.1
310.841
-34.9459
469.149
-434.204
169.265
-840.363
671.098
961.913
-1610.71
648.795
-1771.9
1680.39
91.5089
-542.947
1759.2
-1142.62
1936.34
-793.717
604.695
181.432
-786.126
-25.8508
-1323.43
1349.29
223.764
-1995.66
1021.89
-387.074
-634.813
-194.985
334.184
481.869
190.639
-672.508
1154.15
-1316.33
162.18
-334.828
379.872
-45.0436
1014.7
-1329.45
314.746
1221.75
800.36
-2022.11
75.5844
-1651.82
1576.23
-498.392
-1155.14
1653.53
471.695
181.971
-653.666
-182.411
-326.513
497.417
1012.77
1659.41
-1818.81
159.4
-98.5837
-1688.06
1786.64
-1561.36
658.54
902.818
-313.244
652.398
-339.154
-192.082
-125.492
317.573
1294.18
-1218.59
355.384
-1407.17
1051.78
-1754.23
1754.23
100.036
1543.87
-1643.9
-1085.98
-475.377
648.858
-683.804
-389.01
942.252
-553.241
1331.69
-1317.1
-14.5863
-1100.35
711.344
621.04
400.848
-418.872
-13.2283
432.101
-461.998
807.36
-345.362
-1618.32
1618.32
1253.52
-1437.83
184.308
-489.416
1711.17
1252.4
-310.148
1660.7
-1161.19
-499.506
55.1148
-389.943
2068.22
-1137.38
-930.846
1826.63
-167.228
449.391
156.106
-605.496
-475.713
982.01
-506.296
-1180.11
1280.15
-565.991
968.955
-402.964
395.962
758.187
660.142
-490.877
-438.412
587.714
-149.302
1190.52
-835.132
2308.24
-1080.71
-1227.54
1164.99
-2012.46
847.466
-1613.87
1588.02
440.46
-1583.08
-758.644
1250.18
-491.537
-670.494
357.251
1661.41
-699.494
-1106.93
-870.904
1977.84
702.977
-389.961
-313.017
690.939
561.46
-258.219
1511.74
94.1891
-308.295
214.106
-284.689
756.384
-332.468
557.931
-225.463
-324.33
806.2
-320.7
-137.061
457.761
318.278
104.145
1474.12
-459.424
-1004.48
499.539
504.939
259.586
100.789
-360.374
946.077
-341.382
-1704.89
630.582
1074.31
22.3651
-868.345
845.98
-273.668
587.462
-313.794
158.896
-1093.92
935.02
1050.36
-1066.01
15.6509
373.165
516.283
-889.448
-245.26
694.651
-1102.69
-482.816
1585.51
-676.42
949.058
-272.638
1351.91
-1450.49
-661.906
295.081
366.825
-470.212
-1011.46
1481.67
-535.416
-798.159
1333.58
574.817
-994.686
419.869
-260.704
-313.38
574.085
399.274
-305.084
-1049.11
573.401
955.631
-796.735
-110.424
943.551
-833.127
-198.56
406.028
-207.468
-638.668
-365.809
-386.736
961.552
1856.35
-1856.35
-482.536
-179.37
-945.109
1570.52
-625.407
463.403
-899.595
436.192
-921.573
355.581
-941.901
-1058.08
-1502.68
342.558
1160.12
-266.674
925.91
-338.614
634.081
-295.467
-1941.89
999.992
-1152.88
-349.798
570.901
-1516.01
1728.5
-1726.11
-2.39071
199.714
-621.39
421.676
-1473.26
975.932
497.327
273.669
225.694
-499.363
303.287
-635.755
230.536
-403.587
173.051
2017.64
-871.949
-1145.69
-558.552
139.68
614.104
842.323
-1456.43
-182.524
413.06
431.901
875.755
-1307.66
-901.793
386.491
515.302
-1052.45
1448.41
-1068.18
309.533
745.092
-92.6945
575.551
-294.46
-281.091
1029.45
-529.91
593.498
-1403.56
810.059
-1342
239.306
-538.45
264.782
-1192.09
925.412
1945.3
-987.067
-958.236
276.796
1579.55
-2101.08
899.485
1201.59
350.373
-34.6597
-315.713
-222.538
476.761
-254.223
-90.4559
-396.09
486.546
-457.354
136.654
335.393
-132.121
595.524
434.899
374.317
-809.216
-2043.83
1128.24
915.59
462.124
-523.643
61.5188
215.467
-355.543
140.076
1004.29
1013.35
1797.72
-253.85
755.681
-460.599
795.053
-1388.64
593.591
367.306
335.671
1066.2
-1043.83
-486.563
-257.628
744.191
465.233
-124.715
-340.518
794.576
-613.144
545.68
-735.378
189.698
503.332
1157.37
-1240.47
705.052
1031.2
-1529.59
-3.11216
-1439.42
1442.53
328.228
821.87
-1150.1
621.563
269.891
-891.454
-2270.44
1153.02
1117.42
-1099.21
-1171.23
175.567
370.113
959.244
-631.016
877.766
-897.588
19.8228
-2099.39
992.463
-215.161
-184.958
400.119
-42.1617
1770.66
-846.611
67.6916
-1032.84
-1068.24
-226.99
442.457
-699.147
216.611
-290.892
-425.334
716.226
1103.92
-1574.13
782.415
-1374.11
591.695
698.525
-445.243
1947.81
-1444.48
-378.28
-1375.95
61.1073
408.042
-539.83
544.916
33.6681
-592.874
559.206
568.203
-294.534
-596.887
273.618
323.269
789.578
-354.679
35.3261
315.047
1188.47
-1191.58
160.407
238.867
396.289
-687.181
617.991
-1004.73
-2026.79
2026.79
-274.876
-445.533
720.408
698.631
405.832
-1104.46
579.966
165.126
421.095
368.483
-2199.77
1328.86
-925.536
-680.747
1606.28
-474.668
-717.418
-249.826
558.623
-308.797
838.755
-220.405
-618.35
-465.278
664.992
361.875
-700.489
-383.83
-132.614
516.444
-1339.88
-478.926
653.313
-1127.98
-374.134
-1244.19
844.365
1463.88
305.297
-915.554
610.257
966.118
-345.078
1391.12
-797.62
439.067
-278.66
-321.827
-881.482
586.25
295.233
-352.191
-529.291
320.518
-410.974
-186.96
-159.546
346.507
-392.831
1091.46
433.184
-242.546
-381.084
1366.95
-173.366
-1193.58
-486.016
309.682
176.334
221.29
274.722
-496.012
-4.16241
-731.216
592.215
-1729.1
1136.89
1486.91
-872.808
-1048.34
-424.914
-1055.4
574.833
480.569
1394.51
-418.576
928.327
-1411.14
-175.438
-181.816
357.253
-467.198
577.561
-1630.01
427.835
903.855
302.663
298.106
-600.769
568.027
1186.2
1102.13
-708.577
-393.554
389.359
-201.512
-187.848
-1419.41
447.141
736.19
-1183.33
1473.17
-544.847
-484.808
943.985
-459.177
426.166
1186.13
-1612.3
47.4384
-723.859
-155.019
414.605
194.207
-386.289
542.301
487.147
-592.592
38.3235
554.268
1024.5
-1307.64
283.13
673.416
-252.321
468.444
-1447.19
978.743
391.23
1689.41
-524.415
894.163
1051.14
-657.789
-1684.96
759.426
563.549
413.565
-977.114
457.839
79.1314
1750.22
-1829.35
1443.59
-379.491
-1064.1
1699.24
-1741.4
-364.463
-544.784
731.706
-186.922
-502.59
170.477
294.756
-373.123
-1225.9
214.446
-764.768
-638.789
-627.168
995.851
-368.683
-650.606
640.384
10.2223
654.719
-923.304
268.585
-706.698
349.201
357.497
-646.775
-702.66
345.699
356.961
-932.059
1400.5
-427.585
894.262
-466.677
-2205.32
5.55607
167.193
-529.056
361.863
144.616
1222.33
-107.469
-591.678
151.127
-589.539
1486.92
-704.501
394.561
-466.151
71.5897
-560.025
560.025
1222.94
395.382
1778.37
-1227.63
590.294
637.331
846.053
-51.477
1292.83
775.393
-541.237
1336.29
293.599
293.863
266.491
-811.275
250.714
-712.712
224.059
-435.566
211.507
-256.7
590.141
-333.44
111.842
-368.542
-591.015
-564.717
1155.73
-379.756
559.743
-179.986
-1192.14
2032.03
-839.883
1287.85
-328.608
-395.471
134.767
-1982.3
827.165
1550.31
-851.833
-698.476
1987.06
-877.501
-1109.56
714.61
573.242
-239.607
463.666
-673.562
1159.63
-486.072
-769.004
1200.91
552.033
924.515
-1726.05
801.536
-555.052
-85.1845
640.236
313.205
262.345
411.583
-86.5875
-324.996
896.183
-83.5811
-812.602
940.613
-580.198
-360.416
1576.13
-472.208
895.708
-1630.88
735.168
1068.44
879.376
746.092
-434.133
-311.959
-1058.79
-258.314
574.459
573.876
-1148.33
-470.795
529.758
-58.9635
571.649
-333.418
-238.231
-990.424
562.839
593.792
893.121
-441.746
1096.47
1428.64
-790.761
-637.875
387.692
-922.253
534.561
-1050.01
411.341
575.688
-1060.5
481.054
-557.024
75.9696
492.18
315.18
-511.178
-48.847
-793.744
-882.383
1676.13
179.284
210.075
-237.662
413.229
-29.4463
-575.555
605.001
502.141
872.861
-1375
-500.425
313.465
985.003
-88.8198
835.145
-1064.08
228.939
410.319
844.696
-1385.93
-464.424
838.741
1983.04
-1288.77
-694.271
269.398
608.368
255.41
794.951
99.9558
-983.64
883.684
1673.71
-1088.9
-584.806
-138.099
1888.32
-1866.15
-160.642
482.208
-620.352
138.144
-1010.91
528.595
482.315
-1730.46
538.315
-955.342
844.918
393.063
194.65
577.993
-272.696
-415.966
706.525
259.593
46.2204
722.597
-768.817
-1128.05
-900.791
2028.84
-546.003
1125.36
-579.357
-487.225
-320.48
105.319
-1658.45
864.709
-843.507
-620.508
1464.01
-328.574
-294.239
622.813
350.528
-660.459
309.932
260.35
-615.029
344.711
195.072
-539.783
370.193
-620.019
631.055
-280.527
315.55
-452.611
681.964
419.266
-197.976
-410.012
-292.648
1229.77
-2.14738
-1227.62
1038.3
-420.308
558.044
410.911
-1782.29
869.803
912.485
487.541
563.668
-1051.21
-531.494
202.92
-264.926
1182.35
-917.426
-1590.8
1212.52
504.584
-1095.6
386.203
8.35796
432.598
319.624
-752.222
366.585
-611.846
-39.5466
760.594
-721.047
-524.589
794.479
400.783
320.368
525.685
650.248
107.462
-423.157
315.695
1057.89
-644.424
-413.464
494.056
-1664.27
1170.21
-1140.25
1753.22
-612.962
1715.9
-1123.68
-333.616
607.234
-1182.7
1282.65
424.47
-801.328
1616.75
-815.424
-285.446
-200.57
-904.208
1473.27
1817.24
-610.508
-1206.73
-405.29
678.447
-1305.61
-124.626
-62.0229
473.606
-691.924
-354.185
-1236.61
-212.77
473.12
902.077
-561.509
165.419
-1674.95
-71.3466
1746.29
-1086.47
540.466
564.526
-1187.78
623.257
901.055
916.182
630.376
619.805
706.083
237.902
-1153.08
479.518
-395.419
429.087
613.251
-513.016
232.83
-730.758
497.928
715.185
-347.879
-308.656
183.165
-623.705
255.789
367.916
-885.662
-745.214
1087.66
-2145.74
394.503
-679.192
-342.762
-723.251
838.645
589.991
-341.142
327.914
380.373
243.28
631.196
-874.476
525.201
634.433
-560.635
176.805
356.886
-631.761
-1041.76
-854.312
1896.08
-1809.39
157.574
1106.53
-1371.45
1168.57
-710.736
-457.83
-504.801
1349.5
-1495.41
627.941
867.468
-283.261
-208.828
492.088
1428.45
558.61
365.177
-497.791
-478.283
-576.366
1054.65
-427.953
595.146
1583.54
-1131.51
-452.026
-794.794
349.261
654.379
403.51
-1623.42
416.194
1207.22
-181.702
526.413
797.509
786.032
207.669
-708.197
500.528
196.164
209.864
-273.244
-110.615
383.859
508.588
-6.41011
-502.178
-1649.93
601.59
-1613.04
1684.04
-71.0008
14.4612
-1627.5
1069.45
786.614
-354.017
-825.039
-224.97
-1134.57
-239.535
-312.071
678.657
-1813.05
-640.923
1214.8
223.448
758.562
-1333.53
-678.933
-466.244
633.121
-330.458
-1013.26
1350.82
-1933.07
582.249
647.654
1288.68
478.885
-2.12399
718.454
714.7
-1433.15
-634.958
325.555
309.403
433.998
-100.839
-333.159
138.832
329.484
150.356
-479.841
-599.753
1163.3
451.148
-650.781
-459.126
-401.839
860.966
-326.532
151.094
-454.614
149.53
-300.257
-710.653
538.844
-104.845
-579.535
967.227
571.333
-266.989
-304.344
451.74
-776.07
-650.743
462.734
-1129.36
-848.794
1191.35
-569.771
444.666
299.524
-469.979
80.0185
1026.68
-313.15
588.205
-275.055
-509.039
1578.49
-700.599
259.046
365.558
-624.604
231.562
504.574
-36.7923
-467.782
-268.551
-186.063
1012.93
1108.81
564.894
-892.259
956.878
-64.6189
-450.508
167.247
-751.866
326.532
-596.754
327.895
387.29
848.316
-1252.85
404.534
775.482
-815.028
-948.803
-550.398
1499.2
-180.282
478.388
-567.928
273.467
1309.03
798.472
-590.803
1330.88
-677.563
486.95
-660.929
-401.413
-420.086
-378.462
798.549
499.506
-840.889
-476.351
104.685
371.666
-307.904
572.508
724.646
-330.143
-226.976
-175.009
401.985
-492.631
126.996
365.635
1463.1
83.4425
-1546.55
-756.795
1350.59
-1144.78
-465.923
551.133
-185.575
1154.14
-378.659
1083.4
492.724
706.931
-440.44
-884.646
-522.522
-1328.29
-19.1648
985.975
-966.81
594.821
352.294
-947.115
-356.096
-202.456
-684.995
405.548
1621.24
-199.973
388.472
338.833
-727.305
-1839.75
-2106.71
1519.15
587.555
-2037.27
349.219
384.897
532.262
-917.159
-460.624
1018.67
-416.77
-669.276
1086.05
-2030.57
1391.21
639.352
595.247
-1012.02
43.5544
437.5
386.113
183.209
255.858
324.292
980.144
884.556
674.808
-320.123
-354.685
-287.022
615.029
-328.007
568.594
533.536
564.22
514.463
-1078.68
-796.025
-699.383
750.571
403.57
-407.213
717.144
-1193.37
1609.57
441.658
-1110.93
-358.583
553.655
-1384.95
892.566
492.387
-711.422
-337.59
-775.497
337.898
437.6
447.403
717.223
-1164.63
1080.3
-592.754
-428.591
678.569
-249.977
249.972
321.361
-465.356
-432.421
897.777
-226.557
573.73
-972.047
398.316
-462.101
600.598
-1681.31
424.042
669.88
-1093.92
524.528
109.553
113.414
-2212.81
551.151
-106.485
1445.16
1777.1
-217.547
-1559.55
-438.569
1789.39
-1987.35
1194.62
792.732
394.87
351.222
-44.8296
883.474
-1282.55
717.831
-867.195
-821.859
802.694
296.447
82.8234
-379.271
220.64
172.736
-393.375
1565.03
-846.575
-1530.92
-325.432
519.615
-232.312
-287.303
390.622
365.762
267.827
365.294
-11.8191
1003.89
-992.071
379.816
299.775
-679.591
-734.205
1817.46
-1083.25
-342.649
733.271
-1228.64
-415.26
-912.964
480.543
595.16
-794.223
199.063
757.422
-375.781
-381.641
-439.496
-452.763
451.745
1100.89
1242.84
-678.314
797.674
-345.934
381.673
338.736
-231.876
-234.274
-227.994
619.224
408.28
-844.369
436.089
239.18
350.332
-589.512
-419.212
827.491
753.908
-1146.74
898.323
-50.0069
-485.447
282.865
783.332
-96.7882
1385.47
1890.51
-44.2633
353.945
-318.467
425.929
-1088.84
1077.02
647.643
376.555
380.867
87.8817
431.733
261.103
512.73
-379.037
-255.921
-560.892
-89.7143
-374.032
362.26
11.7718
-257.45
-281
1010.71
-1540.67
529.963
-180.049
-191.612
-388.561
688.336
-1650.12
1590.91
-962.971
282.134
-683.547
584.338
1224.41
-1808.75
607.448
983.463
327.664
-1129.14
713.173
-286.427
-314.342
1389.16
-1456.95
838.825
618.129
444.558
-651.279
206.722
-401.274
495.389
-94.1153
388.078
120.51
1724.87
447.49
-251.326
557.674
-1704.79
1147.12
-100.007
395.187
343.106
331.702
-448.79
-614.2
1062.99
410.101
-874.525
-640.042
902.143
571.032
-478.136
-228.562
-434.85
-409.519
-307.749
-826.826
1821.09
-1821.09
-100.52
-1600.95
1701.47
298.678
272.97
-916.763
-555.685
1472.45
-408.161
972.382
-612.67
-1037.26
697.926
404.535
-1102.46
466.96
-151.411
573.078
1220.34
-1793.42
-1039.79
2114.06
-1074.27
-380.716
-289.778
-487.304
836.565
-1761.62
1608.86
152.752
1761.62
-1615.62
-145.995
-237.689
516.021
-278.332
-537.317
1620.72
1577.11
-1992.37
1109.27
-295.131
-274.799
569.93
227.451
-586.035
-714.848
307.635
1344.02
639.024
588.862
477.377
-1066.24
268.554
438.377
875.167
500.113
-1375.28
542.603
-1020.89
1574.94
-564.229
-773.332
-361.127
-143.28
504.407
-490.417
1207.64
-742.254
328.499
366.152
391.229
245.228
-636.457
618.68
831.487
-602.548
262.23
694.647
-478.136
-332.257
-248.126
580.384
1168.41
-681.935
605.735
469.86
-1075.6
-1289.1
1289.1
-381.997
758.552
-273.527
-487.246
760.773
505.414
439.584
-944.999
398.232
-671.76
603.315
-871.352
268.036
-367.689
-487.958
1076.82
-658.581
-714.555
1373.14
-381.852
955.582
-1552.79
675.293
37.6326
-439.371
401.738
-526.011
742.622
273.813
316.328
159.705
307.256
-538.984
252.557
1870.82
-1967.61
263.755
-729.033
465.029
-827.493
362.464
-905.11
1427.82
-522.714
-430.413
-482.55
600.911
1124.15
-1725.06
-713.444
332.727
-464.748
1033.34
-798.518
1060.75
-370.973
-620.638
-506.148
756.862
536.772
-354.801
915.515
-323.8
-168.831
1599.04
-1816.58
-352.559
-619.487
-354.422
481.417
283.302
-613.759
-179.147
1076.13
-793.269
197.559
-308.802
-270.605
579.407
391.564
-894.472
502.908
-477.296
-470.383
-915.554
-367.607
608.23
-240.623
-467.149
-449.4
-361.186
-178.597
-414.091
659.319
-446.01
784.745
-1071.47
622.678
-1405.48
561.976
-28.9974
-1841.26
1870.26
570.153
-450.913
1241.66
-701.195
293.109
-293.109
674.994
-458.751
1036.71
-1649.38
-1158.74
-947.968
286.196
328.833
898.782
717.97
-513.682
-307.207
820.888
1662.76
-1691.76
-433.012
333.56
234.643
1134.82
-529.085
-943.342
1550.5
-607.157
440.879
-257.669
369.727
409.614
-779.34
547.691
466.854
-1014.55
-331.136
659.635
-38.2172
1909.04
1607.61
992.28
-1696.78
726.366
-1176.48
450.113
-492.519
1367.69
836.214
-1341.01
-582.772
287.641
814.63
-401.066
546.857
-1194.96
648.105
-632.194
-1215.52
-695.714
1911.24
-191.429
572.536
-381.107
-187.555
333.44
-524.869
339.371
361.239
-700.61
-1492.93
756.921
736.011
883.938
-1434.34
820.824
-434.334
202.026
-357.046
-615.536
283.278
-666.201
-718.753
696.759
507.883
-1204.64
379.94
-206.385
-173.556
553.516
-956.479
-585.55
-427.159
753.691
-831.362
-1155.99
-1437.93
499.76
938.173
2.03659
-661.422
360.238
301.184
-1327.78
1050.92
276.855
-614.907
-456.562
-665.438
920.848
395.901
-187.673
-208.228
508.459
980.365
-1488.82
987.275
-558.681
164.914
393.766
-424.496
693.65
-429.896
-510.334
155.913
234.08
-1522.85
524.558
555.738
-784.806
258.794
136.339
-460.138
360.428
-830.811
1954.16
-1195.38
-758.778
430.69
-701.707
271.017
319.862
347.991
101.586
-449.577
-584.355
184.489
263.001
-691.837
1374.13
-682.296
424.099
486.261
-1197.68
258.571
1866.77
-1013.59
-853.179
783.861
-558.138
190.531
1402.29
-975.086
-427.203
325.257
-784.008
-616.609
1725.42
606.742
636.098
332.306
-35.8583
265.059
-1138.32
1725.72
-587.399
-1763.55
820.212
1768.61
-1696.99
-71.6219
-672.334
276.915
584.878
-742.136
235.987
1402.53
-566.316
379.731
459.01
-1858.81
1420.24
579.615
-449.923
-129.692
198.448
-559.633
-289.89
-197.335
-347.52
690.626
-596.812
235.686
623.777
547.19
-1170.97
1113.43
-1947.7
834.268
156.986
359.458
-1700.63
1662.41
306.662
-747.103
-174.772
376.799
765.068
679.092
-1444.16
1087.07
-1089.21
522.601
-1115.36
-623.562
245.52
378.042
549.839
-294.05
-623.929
-1025.45
286.793
-736.193
-912.323
171.262
150.916
229.024
413.827
286.132
-699.96
-640.925
-834.457
-978.588
486.954
-1071.31
-323.958
500.292
534.372
656.979
-275.908
-119.563
-413.257
740.922
264.478
-1205.83
564.902
1316.71
-551.643
442.324
-1027.87
-380.754
166.333
413.282
1023.09
551.849
-1721.56
1621.04
1642.06
-586.607
-1055.45
1907.33
-1896.84
-10.4891
228.906
-547.374
-370.893
568.451
-777.261
-337.606
-334.729
1018.13
710.649
-1520.02
809.368
316.606
-26.1819
1625.22
-1106.59
424.66
-1257.51
484.18
-61.7787
1524.88
1196.89
-470.527
-485.375
-73.3056
-282.022
736.088
-1951.61
-705.924
368.646
-536.658
168.012
190.133
-503.283
1139.96
671.632
-1811.59
-640.292
190.369
941.555
-1497.24
-210.541
678.724
-468.183
872.994
1127.01
-747.162
1353.9
636.215
-499.897
-136.318
-341.179
1180
1049.28
-1979.64
930.357
-1181.02
540.101
1488.69
-586.546
-406.641
-153.994
-1247.8
569.489
1165.05
-90.7381
946.298
776.117
-1722.41
-192.863
578.886
-1541.71
962.821
487.031
916.353
-1403.38
632.123
582.676
415.014
-1106.59
588.907
1115.29
1215.03
-452.075
-762.957
-1186.2
-1754.93
-4.66798
-1716.9
-207.898
-443.381
1612.85
-635.948
-976.902
-490.804
1121.18
-1323.23
633.42
689.814
-1365.81
1449.25
-1336.3
589.14
1520.44
-395.389
-599.349
192.708
-1491.72
221.043
176.388
247.101
389.115
439.576
414.899
-854.475
506.472
-938.728
899.927
-1444.77
-723.576
240.813
482.762
-1057.69
457.934
-490.499
870.23
697.859
12.1709
-549.724
168.617
-886.569
-1318.75
-710.646
344.67
365.976
395.632
-721.347
325.714
-471.812
-189.358
-708.231
727.189
1540.24
-593.944
826.03
738.999
1344.57
-844.461
-970.803
-570.904
-792.556
429.164
363.391
-1035.22
-636.707
298.109
338.598
-1433.68
-296.776
-786.846
393.852
392.994
-673.121
422.471
250.65
-698.562
268.667
412.888
484.888
389.892
437.599
476.56
384.406
594.943
-968.065
698.688
464.614
451.413
355.905
-807.318
1630.72
-1079.8
-550.914
-504.96
-293.111
-1034.67
450.997
347.552
409.784
592.35
-1002.13
-1385.94
749.987
-527.58
1150.84
371.282
-41.798
412.64
-862.491
449.852
-1899.46
298.506
438.575
-723.079
284.504
-194.235
398.287
-204.052
-659.309
297.812
361.497
-668.836
314.151
370.762
387.79
611.527
-1019.69
751.448
665.322
-1416.77
438.885
624.105
336.966
391.643
-728.609
405.308
327.963
599.974
677.376
423.513
608.592
-1041.1
432.507
-1675.66
1180.76
494.896
1696.55
-539.186
617.862
-1146.86
529
-638.784
344.545
437.764
-932.875
495.112
775.078
-455.453
350.677
339.949
584.487
-937.047
654.355
-1252.38
598.029
397.253
733.645
-1224.06
768.427
510.112
-1278.54
500.623
405.408
-906.031
-501.832
-936.101
-292.168
631.539
352.465
540.195
-892.66
328.514
331.121
-502.195
1944.73
435.391
-845.075
409.684
-917.528
-808.523
-744.323
362.682
-1239.29
440.77
-1745.6
1615.62
129.973
1753.54
-1608.86
-144.67
-780.784
-585.564
258.789
326.776
-1768.61
1992.37
539.229
790.394
-1329.62
440.178
715.553
689.582
385.61
-1075.19
-52.9008
1617.14
-594.053
394.276
847.385
-644.109
322.545
321.564
-378.944
-295.686
545.658
-209.045
434.739
275.549
-658.662
383.113
257.325
-571.119
-277.253
442.865
-1032.03
589.167
538.077
1092.64
365.964
595.589
308.292
349.929
-658.221
1640.46
-929.813
1692.72
-1521.47
-171.252
-328.239
-819.869
410.35
857.155
-1067.7
-600.475
272.469
-1090.52
1628.59
-1597.62
-73.9694
1671.59
-341.687
-350.511
-370.727
541.04
593.78
-501.4
-22.2433
-549.51
498.174
-283.5
-214.674
1762.51
-1310.76
-618.976
293.596
325.38
403.105
357.325
734.137
-290.143
-399.653
-1753.54
1691.76
459.853
-1099.89
640.039
-41.4992
1662.54
570.608
476.254
-1046.86
102.83
1144.22
-1451.96
-9.62815
-1889.83
219.842
-592.64
306.174
286.466
-954.394
611.632
-895.658
465.245
-1127.68
672.211
455.469
390.555
272.1
-785.782
-310.078
1215.82
885.983
699.526
-1182.5
456.16
726.342
494.746
699.616
-1194.36
-361.203
-249.784
400.7
-958.71
439.118
519.592
21.2086
-1880.02
1081.65
-478.333
-514.097
558.995
-1377.98
818.987
-440.106
802.57
-405.979
503.199
-710.903
1723.84
399.951
-170.926
211.895
-157.697
-247.593
405.29
1895.35
-504.135
-1706.54
1050.41
-595.008
299.323
-1012.05
551.422
-312.548
544.492
904.892
-1449.38
-1102.74
437.305
-21.1816
-1946.42
1712.85
-663.573
-538.989
460.925
-1189.91
728.981
199.661
196.24
-277.957
775.204
698.066
835.819
815.795
-459.89
1083.96
-497.877
469.056
-184.337
-284.719
-1925.23
-712.719
-317.091
-640.01
-6.3157
646.325
456.436
-271.947
571.738
1068.72
-813.841
922.652
1243.76
-426.017
-173.65
-244.757
418.407
960.206
-888.248
-315.857
-1066.64
610.078
1565.69
-808.768
537.901
934.546
-405.001
738.043
-333.043
1129.76
-273.022
342.204
1349.39
-709.379
-212.874
448.366
-1198.17
749.8
-978.33
-141.084
1119.41
439.053
-953.937
514.884
181.307
732.078
482.953
742.935
-111.739
850.239
-426.402
1181.79
-796.182
552.566
-1465.35
912.782
-1216.64
1800.98
-431.705
-1510.19
879.231
-1401.75
-329.47
-422.753
1457.01
-1528.5
783.285
1491.39
193.048
276.008
-373.996
-1745.6
-286.661
-1018.54
1590.28
-1781.1
1781.1
1577.11
-1004.3
-630.494
-358.553
368.313
604.069
-378.143
-380.745
-1389.64
897.119
1125.06
600.659
1202.24
1789.49
-1216.41
-623.152
272.099
1659.27
-1916.86
257.585
816.109
-1268.14
1545.15
-561.688
800.998
324.362
-361.117
555.708
793.788
662.313
1366.53
-246.48
-445.806
-387.587
492.936
-336.83
472.075
735.565
-320.019
-129.558
-350.652
576.287
-225.635
36.4202
-369.838
1107.32
-1720.28
-460.521
-505.554
-577.209
864.351
701.339
-1596.28
904.44
-452.332
-633.833
-515.492
1251.68
357.586
1723.88
-1702.67
-1662.76
1896.84
-1560.6
840.092
720.511
-391.805
-1800.54
918.157
584.195
818.336
-393.849
1794.58
-681.143
-424.568
687.562
447.41
-1134.97
-1103.95
444.257
752.635
-1617.12
473.285
900.848
164.605
-389.447
224.842
-1605.38
-390.279
-442.913
990.162
-682.902
1442.79
-980.57
1853.56
242.253
-537.501
488.405
-295.357
474.344
893.343
543.417
977.024
-463.598
-427.87
574.411
882.604
-1392.69
-40.9936
1583.67
-844.667
519.976
971.409
-1475.76
-1115.89
1779.08
-1240.9
-538.179
1205.99
-319.389
-886.606
-181.211
443.912
-262.701
-457.269
-251.286
420.411
-169.125
133.605
-383.389
1738.48
-1743.15
-477.345
-530.888
-903.448
432.537
-194.804
-237.733
629.856
-471.118
-362.34
-334.626
696.967
-942.446
413.155
-1166.87
676.062
406.858
-648.365
-432.714
1588.23
-870.264
530.203
-458.53
-568.985
-463.048
355.817
-344.86
-10.9574
-1123.58
422.384
-665.088
-1033.47
1698.56
-615.362
-1425.45
710.897
562.368
-1596.24
1033.87
-408.818
-471.705
165.81
540.273
-1258.31
742.814
539.274
1005.88
-2133.17
999.98
1133.19
-388.371
404.359
-378.933
-25.4267
1477.96
-385.463
449.683
1195.48
582.744
905.945
565.909
528.177
-1094.09
153.107
-460.309
-1696.99
247.787
1127.48
-628.402
518.697
1013.52
-1532.21
1092.77
-1643.68
183.62
714.703
563.179
-879.036
-1086.26
-164.248
417.882
-253.634
-586.081
-450.061
-636.64
-622.023
344.066
-1619.92
939.176
-477.213
215.439
-386.365
527.18
-307.338
-622.466
1196.94
-1297.1
929.221
367.882
-1019.43
-392.738
-766.813
-832.42
1696.77
-477.472
1794.62
-1586.01
-208.601
-1556.56
1018.61
537.959
-734.095
-249.807
430.432
-180.625
-606.695
385.232
266.469
-651.701
-524.446
1006.91
624.393
-351.924
-1620.21
1050.44
571.826
1103.46
-1675.29
-435.482
-282.406
-376.903
-752.515
-487.588
-332.409
492.113
1557.98
-995.608
-773.915
1497.44
658.206
-324.646
725.884
1152.34
-1878.23
316.792
325.996
-487.641
-1934.95
1721.81
213.136
733.792
-475.809
-257.982
531.879
1060.73
-1592.61
355.817
-1726.52
-233.216
1752.37
-1580.64
1073.71
506.927
-1729.52
2.99985
-522.151
404.359
1700.63
-1721.81
939.217
625.447
-1564.66
367.004
-214.591
-152.413
-430.486
-268.076
65.0921
94.2802
-344.087
-423.326
-448.026
-401.499
207.264
1510.14
379.169
-220.689
-452.433
451.666
-188.665
340.433
1510.68
993.586
-170.136
-823.45
-1104.02
1704.94
-1728.98
1063.89
-707.559
-1021.42
-1265.06
1844.98
-579.919
1155.05
-1771.28
616.231
266.184
-877.554
1675.98
43.4029
-1719.38
-491.196
-1082.94
-1738.48
-980.321
552.451
1019.49
590.294
1132.96
-1723.25
274.77
-460.345
699.147
-384.997
397.103
924.227
682.056
-388.251
-652.849
582.954
1072.46
-1655.41
-410.083
-360.774
770.858
450.914
-1662.41
1521.47
140.944
578.65
-1043.4
544.766
1083.83
-1555.59
993.902
-230.499
222.046
346.406
1907.33
454.236
-71.5506
995.843
722.75
-1718.59
-696.626
1085.24
-1557.45
154.004
-569.41
188.922
262.744
-671.875
-567.413
582.721
1034.42
-710.706
-290.494
-1368.33
673.292
695.039
-402.272
749.802
89.7725
-839.574
562.374
-137.204
1557.45
-201.838
288.555
-778.512
-1934.95
1664.59
1020.93
349.201
316.32
458.758
-929.8
-995.431
-1767.26
630.752
1693.75
502.113
-474.753
1210.32
1087.02
-424.941
1029.01
-976.865
486.85
490.015
700.896
1047.88
-1748.77
478.422
488.805
-1493.86
-745.071
36.4943
776.454
-413.772
-895.917
381.82
-540.246
-800.769
610.257
-578.249
1397.24
1055.18
186.623
231.259
-550.687
1618.48
-775.795
1527.24
-1727.83
575.314
1152.52
536.925
-882.003
-1733.21
1916.86
-183.641
1721.73
171.966
-546.462
357.434
-263.154
-481.696
1210.68
568.274
1128.28
-491.112
425.017
855.26
-454.412
-774.127
438.334
335.794
1419.62
1089.52
-518.38
1422.82
-510.464
-532.928
1043.39
-602.829
503.972
-1214.71
1692.72
1839.56
-687.222
1586.12
-646.906
-1240.61
716.165
-562.981
192.018
-376.976
442.299
-232.435
-517.362
-1246.7
1870.95
-624.255
1173.37
-555.509
1120.23
-1659.42
1706.21
-574.001
-548.833
-549.855
1720.07
-316.379
-688.123
-473.45
1223.25
-1691.22
-1860.12
613.419
329.167
-947.517
157.71
204.905
-1719.02
1204.12
514.897
1162.84
558.89
-513.395
-465.46
1191.8
185.416
212.871
588.449
1251.12
-539.189
-1238.57
1777.76
-1025.21
999.985
866.781
-204.042
-1659.27
1702.67
-510.21
1411.06
-1733.21
-345.047
0.100789
344.946
-250.81
584.711
-333.9
99.7858
486.464
779.415
-383.782
1257.51
1270.53
-413.378
849.161
-438.812
1817.57
-662.523
1586.68
-1723.88
-412.834
-767.806
310.312
457.494
-561.547
-563.646
79.7493
-1138.54
-985.139
-670.509
1655.65
-943.697
-1189.47
159.173
-433.972
-647.02
705.784
1167.43
650.137
1410.26
-591.927
1636.71
1317.97
-575.156
-483.296
187.94
-503.337
1396.68
1239.96
-566.67
-999.979
890.371
60.2921
-950.663
603.406
-506.225
1403.34
1495.04
-589.095
-350.887
350.887
-589.622
1623.49
1239.07
-486.431
1134.12
-62.8328
1849.47
-376.521
1489.46
-589.531
-507.706
1347.8
-649.761
1218.58
-568.819
1554.8
-591.982
762.403
579.274
-1341.68
-659.185
289.222
509.25
600.984
-1957.28
-1007.74
1586.68
356.365
-356.365
-57.342
382.162
438.662
405.803
-17.7252
-321.602
916.875
-519.623
-428.928
811.09
-236.412
614.454
-423.909
1552.15
-444.351
-883.943
174.009
224.04
-398.048
601.176
1250.76
-1851.94
924.779
-459.534
-344.86
126.146
-1943.05
1816.91
-447.544
168.884
1180.95
-440.516
-740.431
-296.364
-599.553
-496.945
-378.933
-471.443
256.769
1158
-564.219
233.153
-368.307
135.154
-23.1156
-107.686
1375.95
-1268.26
34.6598
-595.552
-586.521
-444.48
444.48
-1262.34
1985.09
-1344.3
-211.384
-1823.84
237.822
-1025.75
-974.246
-176.041
-1639.9
710.098
1229.32
-1925.03
361.143
318.574
-679.717
-1850.02
1234.27
615.757
-558.701
558.701
-958.862
-40.1201
-1866.15
-558.187
1650.83
-675.448
1636.19
-601.772
-184.663
-1705.17
-578.098
-451.486
-594.877
-459.683
459.683
-1537.81
194.532
1343.28
161.531
221.749
-383.279
502.667
490.92
995.347
-475.754
1751.29
769.825
-414.642
389.216
523.61
1702.07
-594.752
-552.994
1636.82
461.021
1812.84
-645.405
-1804.56
-1938.07
-647.129
-473.077
473.077
-609.03
221.443
-698.92
1018
-466.579
-1076.91
-298.014
1579.55
1852.29
1635.38
-1635.38
-272.651
741.66
1761.52
595.805
1275.15
162.764
204.241
598.074
586.876
1603.48
-1603.48
214.632
-360.204
-439.94
449.367
950.234
-463.384
-638.453
-1130.94
1706.26
273.882
-1662.78
625.519
-288.794
460.76
1744.65
-592.13
-211.569
-428.892
378.386
736.909
1738.58
-613.52
-511.797
-771.251
1960.54
-870.463
-1090.08
1642.7
-702.858
1223.96
-1824.96
601.007
361.492
-898.993
-184.933
-99.84
1097.2
-487.127
147.996
634.12
-1659.57
430.123
629.193
-1804.56
-583.3
1787.42
883.146
-1162.87
1760.5
-597.625
1783.83
-575.559
-1208.27
438.282
925.731
-1743.15
924.414
-1486.53
252.46
1234.07
-833.409
-1254.22
-369.88
72.1983
297.682
581.779
262.529
1035.37
-436.674
844.773
-408.099
820.144
742.16
-1562.3
644.636
1066.53
-23.9094
-661.223
685.132
-1744.51
723.087
709.745
150.527
-1122.59
1936.78
-674.568
-1262.21
-537.188
1665.47
837.929
968.167
-1806.1
1227.86
683.379
-410.993
708.805
828.77
1026.8
-587.747
1761.52
625.471
1773.56
-1185.58
-587.981
-383.432
-349.088
732.519
121.455
-1185.55
1660.52
-540.288
-1437.77
1437.77
1250.55
594.427
1351.37
206.611
-555.667
280.413
-179.624
699.175
1113.66
474.369
-288.953
-869.239
-575.535
1740.15
-1740.15
998.341
-998.341
987.339
1025.17
-2012.51
1837.96
-614.005
-581.127
843.186
-947.857
-1052.16
998.139
691.499
-1689.64
-511.178
-370.243
-641.774
-808.44
2042.71
-1246.41
-613.709
1002.97
974.86
1289.78
647.004
320.204
1012.69
226.446
342.74
1186.2
1756.9
-1756.9
671.328
79.4173
-383.761
-997.061
-539.997
1674.12
990.966
1009.03
-1833.31