/*--------------------------------*- C++ -*----------------------------------*\
  =========                 |
  \\      /  F ield         | OpenFOAM: The Open Source CFD Toolbox
   \\    /   O peration     | Website:  https://openfoam.org
    \\  /    A nd           | Version:  7
     \\/     M anipulation  |
\*---------------------------------------------------------------------------*/
FoamFile
{
    version     2.0;
    format      ascii;
    class       volVectorField;
    location    "37.5";
    object      U;
}
// * * * * * * * * * * * * * * * * * * * * * * * * * * * * * * * * * * * * * //

dimensions      [0 1 -1 0 0 0 0];

internalField   nonuniform List<vector> 
7807
(
(1.0882 0.15404 5.34182e-21)
(1.06992 -0.0463567 4.65539e-22)
(0.995006 0.12673 -1.19784e-20)
(1.04217 0.0811055 1.64271e-20)
(0.998984 -0.00125988 -2.96147e-23)
(0.999951 -1.10844e-05 -3.25287e-24)
(0.989742 0.105599 -2.40059e-20)
(0.993347 -0.00242829 -5.84885e-24)
(0.999853 -0.00023153 -5.50005e-24)
(1.02833 0.00189891 -7.6003e-22)
(0.999954 -1.34293e-05 3.58767e-24)
(1.00276 -0.00153202 -1.18581e-22)
(0.98977 -0.00309881 2.97246e-22)
(1.02459 -0.00201512 -4.78417e-21)
(1.02739 0.00217223 3.21977e-21)
(0.989443 -0.0198325 -6.0789e-22)
(1.09114 0.160629 -1.12445e-20)
(0.986166 -0.00401198 -1.03054e-22)
(1.00317 -0.0120527 -3.37427e-23)
(0.988463 -0.132241 -5.54172e-22)
(1.04263 -0.00396309 -1.62956e-21)
(1.00183 -0.000955948 2.22465e-22)
(1.02235 -0.00381471 4.09635e-22)
(1.01187 0.0366355 -8.54792e-21)
(0.981449 -0.00509134 -4.67183e-22)
(1.08299 0.152402 -5.39527e-21)
(0.999038 -0.00119955 -2.07102e-23)
(1.02844 -0.00202425 1.90274e-21)
(1.00529 0.0169542 -1.08939e-21)
(1.005 -0.01274 2.71993e-23)
(0.9832 -0.021223 -1.07208e-21)
(0.854048 0.0455047 3.69738e-21)
(1.02219 -0.00469483 2.52817e-21)
(0.999413 -0.000501585 3.66958e-23)
(0.999873 -8.71675e-06 7.02232e-26)
(1.02872 0.000564336 1.12135e-21)
(1.00569 -0.0138983 3.40987e-23)
(0.994953 0.102843 -3.8295e-21)
(0.995482 -0.0102537 4.95659e-22)
(0.999589 -7.45681e-05 3.52768e-23)
(0.996027 -0.0105439 -5.56934e-23)
(0.989552 -0.0186079 -2.21609e-22)
(1.02708 -0.138658 2.64423e-21)
(1.18228 -0.0365576 5.16486e-22)
(0.999755 -1.58885e-05 1.13757e-23)
(0.999902 -1.95541e-05 -3.25332e-24)
(1.00176 -0.00077329 -1.35752e-22)
(0.995245 -0.00940162 -2.94182e-22)
(0.999917 -3.72997e-05 -2.62392e-24)
(0.994565 -0.132129 8.07251e-22)
(1.00404 -0.00132888 1.28867e-22)
(1.02804 -0.00132422 -1.97363e-21)
(0.975605 -0.00618356 -1.57456e-21)
(1.01624 -0.0381118 4.08866e-23)
(1.02934 8.9153e-06 -6.59768e-22)
(0.994188 -0.00333286 -5.46774e-23)
(1.00305 -0.011183 7.44611e-23)
(0.993297 -0.0021045 4.05661e-22)
(0.97075 -0.0262827 -1.90622e-21)
(0.999389 -0.000446634 -4.69559e-23)
(1.00005 -2.88798e-05 -4.97916e-24)
(1.00525 -0.00150736 1.44149e-22)
(1.02478 -0.00131217 -1.12937e-21)
(1.003 -0.00134234 1.20046e-22)
(0.998817 -0.000240464 6.66872e-23)
(0.98404 -0.0219923 1.80795e-22)
(0.999882 -0.000231053 4.20658e-24)
(1.00002 -3.37637e-06 3.26827e-25)
(1.16964 0.0885571 2.02597e-21)
(0.995481 -0.00890755 -9.05041e-23)
(0.999909 -2.39509e-05 2.88201e-24)
(0.965409 -0.0799797 -3.79849e-21)
(0.982281 -0.00564237 2.28805e-22)
(0.965827 -0.00788948 3.09162e-22)
(0.986804 -0.00442474 3.23545e-22)
(0.954067 -0.0389564 -4.13883e-22)
(0.999363 0.128313 1.92686e-20)
(1.04063 -0.00408187 2.0733e-21)
(1.10091 0.00616073 -3.44537e-21)
(0.941172 -0.0674189 -4.60302e-21)
(0.99027 -0.00342377 -4.56246e-22)
(1.00003 0.0640393 2.37589e-20)
(1.0477 0.00910881 4.87803e-21)
(0.965309 -0.0139577 1.42598e-21)
(0.998323 -0.00317806 -4.85367e-23)
(0.997221 -0.000407141 4.94949e-23)
(0.992904 -0.00320524 5.58699e-22)
(0.976602 -0.006903 1.01264e-21)
(0.999221 -0.00148104 3.16762e-23)
(0.99443 -0.000858426 1.74767e-22)
(1.00557 0.0192219 8.07376e-21)
(1.21417 -0.0137024 -8.41793e-22)
(0.999835 -6.71976e-05 -6.85511e-24)
(1.00245 -0.00947521 3.19247e-23)
(0.9956 -0.00131354 1.58613e-22)
(0.965358 -0.00438351 -2.47857e-21)
(0.968691 -0.0791619 2.81992e-22)
(1.01835 -0.0364958 1.0673e-22)
(0.99814 -0.00306605 1.58953e-23)
(0.998589 -0.000243786 2.21908e-23)
(0.931975 -0.0243316 1.05604e-21)
(1.10132 0.0120226 2.89402e-21)
(0.995851 -0.00149232 -3.95053e-22)
(0.999968 -1.72838e-06 -2.77413e-25)
(1.21575 -0.000286596 -6.9338e-22)
(1.03483 0.037593 -7.6527e-21)
(0.928074 0.0329339 4.1878e-21)
(0.99379 -0.00315172 -2.27784e-22)
(0.99999 -3.53271e-06 5.35735e-26)
(1.03161 -0.0161551 -8.41179e-22)
(1.04566 0.0771426 -1.90805e-20)
(1.0427 -0.0983233 -3.15664e-21)
(0.999987 -4.08794e-06 -9.21194e-26)
(1.03362 -0.0164432 -1.8383e-22)
(1.03105 0.0357612 8.05106e-21)
(1.00054 -0.000717343 -1.04534e-23)
(1.10386 -0.10693 -1.77697e-22)
(1.03523 0.0217931 -1.83973e-21)
(0.980818 -0.0616968 1.63205e-21)
(0.965439 -0.00959301 -3.24576e-22)
(0.926859 -0.0160037 -2.53849e-21)
(1.00116 0.0270462 -1.5485e-20)
(1.03531 -0.135296 -3.63527e-21)
(1.01229 -0.00981238 7.09032e-23)
(0.92956 -0.0182564 1.0007e-21)
(0.998854 -0.00172749 7.0373e-23)
(0.984656 -0.0160427 3.63457e-22)
(1.00374 -0.0106107 -5.07099e-23)
(0.998753 -0.000177772 -1.48706e-22)
(0.983279 -0.0195654 1.96824e-23)
(1.25437 -0.0254479 -6.21194e-22)
(1.09462 0.00307773 5.91117e-22)
(0.99927 -0.00068684 4.00007e-24)
(0.999085 -0.001516 -6.15351e-23)
(0.963546 -0.0128074 4.24245e-22)
(1.04284 0.069702 7.01012e-21)
(0.996695 0.0235726 2.79564e-20)
(0.999971 -2.99032e-06 -3.26034e-25)
(1.009 -0.00392326 6.05257e-23)
(0.898379 -0.0205676 -3.1789e-21)
(0.96807 -0.00569006 -1.2612e-21)
(0.990134 -0.0849828 -2.50973e-21)
(0.954928 -0.0418988 5.61621e-22)
(0.967836 -0.00708087 -2.73425e-23)
(0.920243 0.0257111 1.64655e-20)
(1.02011 -0.0590374 -9.35731e-23)
(1.0119 0.0222985 -4.1056e-21)
(0.97413 -0.0311933 -1.00409e-21)
(0.951537 -0.0077337 3.47451e-22)
(1.00099 0.0452486 -7.68913e-21)
(1.02904 0.000920973 2.81615e-21)
(1.20046 -0.0190409 1.30428e-22)
(0.998223 -0.00254609 -1.67594e-22)
(1.17562 0.0801309 2.31182e-22)
(1.04532 0.00848987 -5.08004e-21)
(1.0079 0.106359 -1.91827e-20)
(0.946934 -0.0461668 1.7252e-21)
(0.98976 -0.00239634 1.01528e-22)
(0.938371 0.0868849 3.64024e-20)
(0.999924 -3.18924e-05 -2.46154e-24)
(1.00189 -0.0100472 -1.63942e-23)
(1.01184 0.040005 6.16272e-21)
(0.999973 -2.466e-05 1.53724e-24)
(0.997915 -0.00647317 -2.35078e-22)
(0.99502 -0.00127456 -7.58861e-23)
(1.00341 0.0380006 -2.02356e-21)
(1.00163 0.0246123 7.54615e-21)
(0.929084 0.0950682 1.20568e-20)
(0.997545 -0.00627152 -1.45208e-22)
(0.996164 -0.000484418 -8.66062e-23)
(1.00002 -4.4186e-06 -3.06796e-25)
(0.922029 -0.00977355 -4.34433e-21)
(1.00052 -0.00064244 1.44289e-23)
(1.07169 -0.0415246 -5.53547e-22)
(1.00943 -0.00419626 4.05279e-22)
(0.952792 -0.00915384 7.17454e-22)
(1.20417 0.00965692 -4.66832e-22)
(1.12019 0.0881289 1.70515e-22)
(0.999837 -8.37686e-05 3.73692e-24)
(0.999391 -0.000784925 -4.22995e-23)
(1.04383 0.0854032 -2.88848e-21)
(0.999924 -2.2185e-05 -1.19935e-24)
(0.999863 -1.5965e-05 1.79223e-24)
(0.989899 0.111871 -1.9777e-20)
(1.07313 -0.0503031 -1.16276e-22)
(1.02215 -0.0850876 -1.68815e-21)
(0.98333 -0.0595315 -2.31605e-21)
(0.969076 -0.0101676 9.30951e-22)
(1.01633 -0.0612117 1.72971e-22)
(0.900978 -0.017358 1.67802e-21)
(0.999971 -2.25234e-05 -5.52575e-25)
(0.969093 -0.0739891 -9.20081e-22)
(1.12294 0.0963154 -4.92768e-21)
(0.995835 -0.00181933 5.67517e-23)
(1.00009 -8.40472e-06 -3.6571e-24)
(1.08811 0.0921891 5.40628e-22)
(0.998472 -0.000494618 1.5708e-22)
(0.984368 -0.0187653 5.80503e-22)
(1.01223 -0.0582537 5.58495e-22)
(1.00002 -2.77771e-06 -1.30049e-25)
(1.00113 -0.00247545 -5.79199e-23)
(1.03866 0.0690045 8.73682e-21)
(1.10835 0.103331 -6.72308e-21)
(1.00311 0.094925 -2.57984e-21)
(1.09727 -0.0995571 1.47933e-21)
(1.04689 -0.0929216 7.24883e-22)
(1.16737 -0.132262 -5.8914e-22)
(1.02891 -0.00189508 5.65509e-21)
(1.03566 0.0647269 -2.85024e-21)
(0.999738 -2.81314e-05 -1.33438e-23)
(1.00005 -2.60933e-05 1.31615e-24)
(0.946994 0.0135807 -1.61529e-20)
(0.99107 -0.0177475 -2.08723e-22)
(0.99924 -0.000611046 -3.95817e-23)
(0.972223 -0.0724828 1.87659e-21)
(0.983918 -0.0169511 -4.26254e-22)
(1.01857 0.0990876 -2.13621e-20)
(1.01454 0.0962475 -4.52559e-21)
(0.986659 -0.087575 6.89294e-22)
(0.883341 0.0635274 -1.39814e-20)
(0.998583 -0.000558675 -1.15679e-22)
(0.986212 -0.00347157 3.69385e-22)
(0.929077 -0.022269 1.38307e-21)
(1.03999 0.00127201 -1.18069e-21)
(1.0398 -0.172401 -3.60502e-22)
(1.11205 0.150169 -1.09913e-20)
(0.938812 0.0765038 -3.11701e-20)
(1.00008 -0.00013619 4.1542e-24)
(1.01225 -0.00899374 1.99447e-22)
(1.03273 0.0247094 9.9684e-21)
(0.995357 -0.00772932 -3.73651e-22)
(1.0385 0.0222426 -1.25675e-21)
(0.999357 -0.00161258 -1.01547e-23)
(0.902417 0.106511 2.44945e-20)
(1.00852 0.0990566 4.2356e-21)
(0.992892 -0.00277013 3.54628e-22)
(1.00477 -0.0106729 -8.92612e-24)
(0.999616 -8.38825e-05 -6.54795e-23)
(1.14839 0.119903 2.41516e-21)
(0.999882 -1.31207e-05 5.30338e-24)
(0.993745 -0.0142517 1.81511e-22)
(0.913639 -0.0450044 1.93569e-21)
(0.999909 -3.30815e-05 -1.19475e-24)
(0.998465 -0.00371257 -4.02071e-23)
(0.999498 -0.00156482 1.85947e-23)
(1.07985 0.0579023 7.04142e-21)
(0.999974 -3.19967e-05 1.84268e-24)
(0.99419 -0.000660243 1.99515e-25)
(0.944538 -0.0666843 5.33623e-21)
(0.855743 0.0340861 -8.17015e-21)
(1.09396 -0.00267937 -8.01321e-22)
(0.916772 0.0725742 1.88275e-20)
(0.999942 -1.00036e-05 -2.99752e-24)
(1.00906 -0.0595369 -3.29043e-23)
(0.999769 -0.000400298 -1.47387e-23)
(1.00217 0.108723 -1.93361e-20)
(1.00494 -0.001032 -1.85529e-22)
(0.994936 0.035318 9.0687e-21)
(1.00382 -0.0128646 -1.41446e-22)
(1.001 -0.00266807 6.1487e-23)
(1.0406 -0.041017 -2.09398e-22)
(1.02878 -0.000920373 -5.23847e-21)
(1.00073 -0.000429826 3.02047e-23)
(0.999714 -6.9281e-05 3.41534e-25)
(1.00064 -0.000579079 6.76747e-23)
(0.995118 -0.00820592 -3.35515e-22)
(1.0321 -0.0871009 1.96276e-21)
(0.999945 -1.3222e-05 2.026e-24)
(0.949142 -0.0440812 1.22451e-21)
(0.995277 -0.00145993 -1.44621e-23)
(0.999821 -5.83204e-05 7.28007e-24)
(0.999217 -0.000759849 1.28384e-23)
(0.988685 0.0667139 2.19611e-20)
(0.989708 -0.00111845 1.45846e-22)
(0.999037 -0.000133397 -1.34219e-23)
(0.891335 0.0152802 3.12443e-20)
(0.998266 -0.00356894 -9.14204e-23)
(1.07146 0.118604 -6.5483e-21)
(0.999743 -0.00036959 2.66948e-23)
(1.01146 -0.028745 -2.50279e-24)
(1.00002 -2.60193e-06 -1.15819e-25)
(0.979035 -0.0498545 -9.10681e-22)
(1.0393 0.000599447 1.83148e-21)
(1.20515 0.0205649 5.69766e-22)
(0.971203 -0.0282768 1.6195e-21)
(0.999488 -0.000793563 4.87911e-23)
(0.983652 -0.112851 1.19632e-21)
(0.978103 -0.000670835 6.6626e-22)
(0.999772 -2.47506e-05 6.83232e-25)
(1.00062 -0.000508308 -5.98743e-23)
(0.997445 -0.00467064 1.26189e-22)
(0.990209 -0.00200301 -4.37822e-22)
(1.00376 -0.00121807 -2.19945e-22)
(0.99848 -0.00255951 6.08352e-23)
(0.967137 -0.0129943 2.24538e-22)
(1.03775 -0.0833631 -1.43122e-21)
(0.967255 -0.0109136 9.90913e-22)
(1.17329 -0.0282907 -1.16852e-22)
(0.955911 -0.0123577 -1.25436e-21)
(1.02135 0.125284 2.14484e-21)
(1.01663 0.128339 -1.5764e-20)
(0.9981 -0.00102108 -1.00893e-22)
(1.22878 0.0209052 -2.80168e-21)
(0.999979 -4.0759e-06 -1.80485e-25)
(0.997399 -0.00577895 -1.54819e-22)
(0.964397 -0.00306584 2.52688e-21)
(1.00871 0.0323167 5.11375e-21)
(1.04878 0.0149991 -4.79297e-21)
(1.00012 -4.19349e-05 8.35944e-24)
(0.997568 -0.00545025 -1.01715e-23)
(0.95759 -0.0136432 9.457e-22)
(1.06197 0.0504342 -2.88871e-21)
(0.998758 -0.00159066 5.24735e-23)
(1.00431 -0.000978428 1.24202e-22)
(1.00158 -0.00130612 -1.09784e-23)
(1.14915 0.035495 2.6541e-21)
(1.2549 -0.0396082 -3.87215e-21)
(1.04509 0.149381 9.87605e-21)
(0.997979 -0.000333329 -9.80053e-23)
(1.08431 -0.0464993 -1.06258e-22)
(0.999856 -8.97521e-05 -5.9571e-24)
(1.00625 -0.00939742 -4.22731e-22)
(0.999931 -1.81239e-05 -8.50158e-25)
(0.981598 -0.0297154 2.90487e-22)
(0.999562 -9.96933e-05 -1.25502e-23)
(1.01725 -0.0279048 9.65124e-23)
(1.25165 0.0259706 3.33254e-21)
(0.96522 -0.040607 1.9665e-21)
(1.01298 -0.0278703 -3.166e-23)
(1.01098 -0.00809807 -2.59713e-22)
(0.999075 -0.000174497 6.03072e-23)
(1.0347 -0.0210939 5.90041e-22)
(0.996655 -0.0255436 2.88395e-22)
(1.0942 0.0171754 -1.7881e-21)
(1.07391 0.0552816 3.23535e-21)
(1.22562 -0.132578 1.32419e-22)
(1.18007 -0.048153 -1.80981e-21)
(0.977114 -0.00135701 -7.11077e-22)
(1.00648 -0.00468704 3.9573e-22)
(0.917113 -0.0424739 -7.44246e-22)
(0.919111 0.0939869 -3.76851e-20)
(1.15744 -0.0522872 1.82904e-21)
(1.03447 -0.0124622 -2.37202e-21)
(0.893781 0.0688046 -1.89258e-20)
(0.99805 -0.000255205 4.85008e-23)
(0.997776 -0.00125933 -3.10965e-23)
(1.198 -0.0312019 -1.74622e-21)
(0.998672 -0.00277332 -3.23509e-23)
(1.02005 -0.0548325 1.53414e-22)
(1.0074 -0.00223004 1.38448e-22)
(0.996354 -0.000562495 -7.72701e-23)
(0.997338 -0.000468183 -1.21783e-22)
(1.03908 0.0317895 5.83605e-21)
(0.999915 -0.000197579 -4.17314e-25)
(1.0007 -0.000354614 -2.68677e-23)
(1.00011 -1.68289e-05 6.26506e-24)
(0.995515 -0.000883296 4.06798e-22)
(0.992095 -0.0125745 4.66414e-22)
(0.999978 -3.07873e-06 1.36751e-25)
(0.998601 -0.000330868 1.24259e-23)
(0.972189 -0.0248408 5.67823e-22)
(0.945413 0.0202871 1.01021e-20)
(1.01549 -0.029148 5.61858e-24)
(0.991105 -0.0166465 7.53879e-22)
(0.958971 0.075183 4.31224e-21)
(1.00089 0.0258643 1.37175e-20)
(1.08235 0.00373657 -1.45194e-21)
(1.21911 0.0263555 8.38247e-22)
(0.919913 -0.00722028 2.36629e-21)
(1.00645 -0.0054372 -1.95798e-22)
(1.01047 0.0533843 -7.5473e-22)
(0.984993 -0.00307524 -8.82586e-22)
(1.0493 0.118152 2.66277e-22)
(1.01631 -0.0658294 2.10941e-23)
(1.06703 -0.147911 -1.33242e-21)
(1.10282 0.0994799 4.19185e-21)
(1.05237 0.124549 -8.69395e-21)
(0.950874 -0.0379399 2.69251e-21)
(1.04999 0.0125403 -3.08149e-21)
(1.11779 0.155188 1.02519e-20)
(1.06467 0.119272 1.2488e-20)
(1.03014 -0.00230389 1.77732e-21)
(0.996101 -0.00196255 8.92656e-23)
(0.994567 -0.00305318 7.78455e-23)
(0.999886 -3.26436e-05 -2.8022e-24)
(1.02379 -0.035596 6.36884e-23)
(0.984546 -0.00258071 2.07419e-22)
(1.00133 -0.00308796 -5.06105e-23)
(0.999863 -3.23662e-05 -5.28502e-24)
(0.997941 -0.000933259 3.94437e-23)
(0.979454 -0.111748 -1.98305e-21)
(1.12954 0.0477253 1.51407e-21)
(0.97647 -0.00851717 -1.1383e-21)
(0.999562 -0.0165619 3.16584e-22)
(0.995052 -0.000979886 -2.193e-22)
(1.081 -0.0502976 -2.96493e-23)
(0.990654 -0.00209576 -7.0081e-22)
(1.00333 -0.00962773 1.54844e-22)
(1.1317 0.147572 1.65139e-21)
(0.997623 -0.000446307 -2.8234e-22)
(0.999972 -6.11841e-05 -1.25883e-24)
(0.999932 -0.0002392 -7.25137e-25)
(1.00006 -0.000139277 5.48948e-24)
(0.970562 -0.0112827 5.23199e-22)
(1.03717 0.0291975 -6.90105e-21)
(0.994746 -0.000746665 8.73014e-24)
(1.02935 -0.0111351 1.53811e-21)
(1.05197 -0.177489 2.66509e-21)
(0.996293 0.0966986 -4.22867e-22)
(1.00531 -0.00962047 1.39336e-22)
(1.00854 -0.00597464 -6.49931e-23)
(0.993359 -0.00343873 -2.82027e-22)
(0.993551 0.065494 -2.14738e-20)
(0.998647 -0.000175932 4.02988e-23)
(1.04951 0.153921 -4.97754e-21)
(1.00911 0.0227439 -7.93898e-21)
(0.99985 -3.96692e-05 6.18485e-24)
(1.0136 -0.0672576 -9.84219e-22)
(0.995674 -0.00102277 -2.01157e-22)
(0.995215 -0.0856603 3.07149e-21)
(1.00073 -0.0001913 2.69414e-23)
(1.0765 0.00658331 2.06955e-21)
(1.01006 -0.020985 -4.61866e-24)
(1.008 -0.00547116 3.3651e-23)
(0.99891 -0.000213408 -8.01419e-23)
(1.08548 0.0549312 3.37394e-21)
(1.05672 0.0484176 1.12066e-21)
(1.01993 -0.0891898 1.64792e-21)
(0.973547 -0.0289207 -1.08143e-22)
(0.997303 -0.00498922 -1.08936e-22)
(1.00442 -0.054496 -1.79037e-21)
(1.17055 0.0694961 -2.44527e-21)
(0.862696 0.0527621 -1.79079e-20)
(1.11901 -0.0883212 -1.58747e-21)
(1.00692 -0.010144 -6.3805e-23)
(0.999991 -4.65785e-06 -3.84644e-26)
(0.982218 -0.00686898 -9.14091e-22)
(0.997078 -0.000514878 2.62905e-22)
(1.03312 -0.0215619 8.55739e-22)
(1.02364 -0.146225 -1.07239e-21)
(1.22894 0.00649787 1.25849e-21)
(0.984801 0.0913 -2.63797e-20)
(1.06666 0.046752 4.71757e-21)
(1.16713 -0.11794 2.54584e-21)
(1.08811 0.099656 1.80096e-21)
(0.999622 0.0281743 2.53724e-20)
(1.02404 -0.00292528 1.29813e-21)
(1.00159 -0.00299114 1.16501e-22)
(1.02987 0.0733529 4.42585e-21)
(0.998924 -0.00270148 7.20273e-23)
(0.999766 -0.000222134 5.86036e-24)
(0.975215 -0.00283485 3.17198e-22)
(1.00012 -4.15389e-05 1.56924e-24)
(1.18018 -0.139782 1.42666e-21)
(1.00618 -0.0235082 -7.10605e-23)
(0.981939 -0.04886 1.53209e-21)
(1.00243 -0.00203951 6.01261e-23)
(1.08158 0.0886252 9.79096e-21)
(0.997728 -0.00042463 -2.3287e-23)
(0.999968 -4.89946e-05 -1.27679e-25)
(1.05894 -0.156172 1.45686e-21)
(1.00216 -0.00177266 -3.52729e-23)
(1.13065 0.000668416 -4.26353e-22)
(0.93564 -0.022737 4.93826e-22)
(0.903897 -0.028212 2.47668e-22)
(1.22824 0.0728614 2.57081e-23)
(1.02962 0.023637 -2.6019e-21)
(1.02538 0.00707809 1.60292e-21)
(1.02369 0.00666139 -6.38561e-22)
(0.999737 -5.71164e-05 2.07573e-24)
(1.13873 0.0471782 1.12877e-21)
(1.09451 0.0221913 2.07715e-21)
(0.999339 -0.000853406 1.87567e-23)
(0.97759 -0.00923333 1.32236e-21)
(1.00079 -0.000270344 -2.99857e-23)
(1.01699 -0.0256048 -5.81593e-22)
(1.01376 -0.0371868 -5.58147e-23)
(1.00573 -0.0017627 8.28325e-25)
(0.999033 -0.00170009 -8.53831e-23)
(1.14664 0.111131 -7.42726e-21)
(0.999972 -2.92935e-05 -2.14527e-24)
(1.00026 -0.00014583 -8.00937e-24)
(1.00254 -0.00138674 -2.63334e-24)
(0.969177 -0.00490182 8.77351e-22)
(1.02486 -0.0136469 1.07663e-21)
(0.980142 -0.0412108 -2.1538e-21)
(0.961588 -0.00770889 -5.1355e-22)
(1.02666 -0.0834568 9.46628e-22)
(1.08023 -0.184966 -2.90258e-21)
(1.03786 -0.0377148 1.7872e-22)
(1.03474 0.0740963 -2.51644e-20)
(1.24171 0.03159 -2.31774e-21)
(0.991382 -0.00353064 -3.63186e-23)
(0.897023 0.0996508 2.92766e-20)
(0.972747 -0.0817372 3.27437e-21)
(0.9917 -0.0133589 1.45574e-22)
(0.962628 -0.00638145 8.40707e-22)
(0.998112 -0.024571 -8.36233e-23)
(0.971185 -0.00354383 1.34456e-21)
(0.986742 -0.00539875 -2.66891e-22)
(1.03501 -0.014648 -1.6266e-21)
(1.16788 -0.0555656 -4.40771e-22)
(0.999966 -5.69721e-05 -1.79203e-25)
(1.03026 -0.0146758 -1.83964e-22)
(0.999876 -3.96205e-05 -3.00066e-24)
(1.0131 0.109479 5.13795e-21)
(1.17134 0.0955702 4.64631e-21)
(0.993755 -0.00262312 8.95262e-23)
(0.98098 -0.00245469 -1.21399e-21)
(0.999759 -7.08554e-05 -1.52389e-23)
(0.999157 0.0560225 1.59234e-20)
(1.03768 0.123424 1.16638e-20)
(1.14198 0.0375903 -1.39624e-21)
(1.15394 0.139829 -6.0093e-21)
(0.973283 -0.0867911 -1.42984e-21)
(0.998662 0.00839125 -2.42281e-20)
(0.999921 -0.000175125 2.75899e-24)
(1.06318 -0.0300368 1.72023e-21)
(0.974682 -0.00216393 -4.86362e-23)
(1.11123 0.0853691 -1.92247e-21)
(0.928276 0.0692476 -2.29205e-20)
(1.1751 0.0617251 2.48511e-21)
(1.06008 0.038888 7.87307e-22)
(1.00046 -0.0163669 -5.33222e-23)
(0.999741 -0.00011039 -1.39359e-23)
(1.15652 0.123228 2.48107e-21)
(1.24051 -0.0182889 6.409e-22)
(0.996298 0.0695897 -4.87603e-22)
(1.12212 -0.0014036 2.51052e-21)
(1.0376 0.0601492 7.42031e-21)
(0.99085 -0.0031585 -1.25051e-22)
(0.992201 0.0915853 7.14032e-21)
(1.04226 0.117501 4.08942e-21)
(0.988259 -0.00454497 -7.47706e-22)
(0.990241 -0.00421026 -2.78013e-22)
(1.16826 0.111887 7.14515e-23)
(0.899838 -0.0262158 -3.38023e-21)
(0.999892 -0.000203108 -4.32562e-24)
(0.983116 -0.00740632 1.17636e-21)
(0.908689 -0.0366155 2.4939e-21)
(0.994409 -0.107191 -4.1858e-22)
(1.01229 -0.00302417 -1.12229e-21)
(1.01096 -0.00734966 7.04149e-23)
(0.999841 -0.000252971 -8.24245e-24)
(1.04024 0.129873 -1.75334e-20)
(1.00085 -0.0148674 8.2183e-24)
(0.999868 -7.81148e-05 2.65569e-24)
(1.03646 -0.0762421 1.12992e-21)
(0.999371 -0.00056181 1.66915e-23)
(0.999715 -9.82898e-05 1.05263e-24)
(1.00727 -0.0155312 -7.1635e-23)
(1.0683 0.0886916 1.35266e-20)
(1.04446 -0.140779 1.9773e-21)
(0.948966 0.070274 1.34e-20)
(1.00008 -1.23799e-05 -4.37985e-24)
(1.07456 0.0928625 -1.40651e-20)
(1.02505 -0.0662384 8.21694e-22)
(0.999903 -0.000250004 -1.22914e-24)
(1.00003 -8.20958e-06 -1.36138e-24)
(1.00267 0.0118156 -1.30854e-21)
(1.06311 0.0770233 5.08189e-21)
(0.994957 -0.00321809 7.75428e-23)
(1.05782 0.0604926 -6.6232e-21)
(1.00004 -2.64554e-05 9.88095e-25)
(1.05792 0.0668839 -9.13296e-21)
(1.21025 -0.139083 3.49623e-21)
(0.987603 -0.00408148 8.2226e-22)
(0.999331 0.0134296 -3.2864e-20)
(0.97225 -0.0680565 2.16615e-21)
(1.15836 0.132973 5.78199e-21)
(0.964432 -0.00633984 5.18675e-22)
(1.06342 0.0703946 1.19085e-20)
(1.06891 0.0808708 -3.68093e-21)
(0.97881 -0.0113718 1.91339e-21)
(0.971999 -0.0141024 -1.40739e-21)
(0.993895 -0.0132539 4.37371e-22)
(0.996412 -0.000958947 -6.6259e-23)
(0.999747 -0.000246696 1.5969e-23)
(1.00052 -0.0142576 -1.53639e-23)
(1.05358 0.111547 -2.07459e-21)
(0.999964 -4.47447e-05 5.48691e-25)
(1.0525 0.0578311 8.75841e-21)
(1.06347 -0.136822 3.15981e-21)
(1.00797 0.0740007 6.19022e-21)
(1.05211 0.0522903 -9.98924e-21)
(0.904566 -0.0344205 -3.04409e-22)
(0.956221 0.0898418 -2.79491e-20)
(0.998023 -0.0015037 5.63177e-24)
(1.02307 -0.0326788 2.3661e-22)
(1.08067 -0.0933522 8.25529e-22)
(0.972477 -0.00333247 -8.37182e-23)
(0.991913 -0.00443224 3.706e-22)
(1.02165 -0.0685047 -7.25807e-22)
(1.07065 -0.0187832 -1.77307e-22)
(0.906184 0.0624837 3.59899e-20)
(1.00006 -2.45366e-05 4.75106e-24)
(0.997661 -0.00160531 7.54564e-23)
(1.03629 -0.0984144 5.70711e-23)
(1.00002 -6.61606e-06 1.63935e-25)
(1.0139 0.116379 2.52679e-21)
(1.0022 -0.00153835 0)
(1.00002 -8.91772e-06 1.26703e-25)
(1.00025 -0.00011309 1.88425e-23)
(1.0005 -0.000158564 3.74284e-25)
(0.981906 -0.0277813 1.44074e-21)
(1.03015 -0.0204005 -6.13597e-22)
(0.998111 -0.0011747 1.18872e-22)
(0.999891 -2.27397e-05 5.55477e-24)
(0.991366 -0.00415806 2.05823e-22)
(1.00648 -0.0162085 -5.01055e-23)
(1.00964 -0.158574 -2.92742e-21)
(0.912723 -0.0115268 2.39294e-22)
(1.0239 -0.0122044 1.8982e-21)
(0.999966 -3.62277e-06 1.73002e-24)
(1.16036 -0.176087 4.23174e-21)
(0.983355 -0.00516286 -4.71134e-22)
(1.15391 0.103004 -3.76805e-22)
(1.00029 0.0104461 -4.50725e-21)
(1.00165 -0.00450598 2.69668e-23)
(1.14031 0.0911675 -6.98691e-21)
(1.00019 -0.000121769 -1.03079e-26)
(0.984186 -0.00577733 1.37113e-23)
(1.02878 0.00111401 -3.23719e-21)
(0.991965 -0.00504427 -1.51763e-22)
(1.07038 0.104347 -8.14168e-22)
(0.984144 -0.00902393 -8.89289e-22)
(1.06461 -0.026523 -1.52869e-21)
(1.02912 0.00195016 -3.48127e-21)
(1.07294 0.049159 -1.99158e-21)
(1.01034 -0.0192164 -2.79623e-22)
(0.987445 -0.00580941 2.21764e-23)
(1.09559 0.0876545 5.93901e-21)
(0.986367 -0.119126 -2.44176e-21)
(1.00085 0.114903 2.12251e-20)
(0.988964 -0.0065542 -8.66976e-22)
(1.07486 0.132377 -1.49352e-22)
(0.988918 -0.00574538 2.31624e-22)
(0.998591 -0.000673045 -7.74242e-24)
(1.05959 0.0348933 2.22632e-21)
(1.02168 -0.0376182 -1.17784e-23)
(1.04449 0.00493519 4.78429e-21)
(1.00227 -0.00106428 3.93e-23)
(1.00002 -7.18543e-06 5.80183e-26)
(1.03124 -0.177565 1.10526e-21)
(1.1296 0.140662 -8.93753e-21)
(1.00195 -0.00437118 -3.76613e-23)
(1.15037 0.0932261 6.33223e-22)
(0.985035 -0.00839734 -5.82432e-22)
(1.15054 -0.187363 -1.71178e-21)
(1.06358 -0.0476099 -5.6162e-23)
(0.979844 -0.0438713 1.21317e-21)
(0.997969 -0.00131037 -5.02968e-23)
(0.989195 -0.00144997 -1.75479e-22)
(0.974782 -0.103062 -1.37466e-21)
(0.961565 -0.013755 1.93164e-21)
(0.988215 -0.00536443 6.11894e-22)
(0.999823 -0.00057247 6.98608e-24)
(0.992966 0.120995 -2.62588e-21)
(1.13691 0.0819724 4.20782e-21)
(1.03099 -0.0123063 -5.92054e-22)
(0.999756 -0.000192222 1.07041e-23)
(1.03944 0.111192 -7.89951e-21)
(1.00001 -3.151e-05 2.79035e-25)
(0.999775 -0.000171458 2.11729e-23)
(1.12726 0.0803283 3.75222e-21)
(1.01542 -0.0318209 1.27668e-22)
(1.1393 0.127522 7.19727e-21)
(1.02896 -0.00297103 1.34228e-21)
(1.02197 -0.0154095 -1.24262e-22)
(1.12796 -0.0698715 9.27063e-22)
(1.09875 -0.163851 3.26673e-21)
(1.22911 0.0644041 1.81689e-22)
(1.00159 -0.00110003 -8.65181e-23)
(0.938457 -0.0247184 -1.89527e-22)
(0.999977 -7.48809e-05 -3.66376e-25)
(1.00678 -0.0140973 5.17814e-23)
(1.07485 0.0997728 5.0181e-21)
(0.979973 -0.0106233 1.33632e-21)
(0.996616 -0.00191841 1.04697e-22)
(1.0237 -0.0525195 -4.58537e-22)
(0.997619 -0.00141672 7.21289e-24)
(0.999527 -0.00140911 2.19251e-23)
(0.898218 0.0145542 6.43207e-21)
(0.988289 -0.00706442 -4.90554e-22)
(0.99934 -0.00093078 -6.4877e-23)
(0.999978 -7.86717e-07 -3.5861e-25)
(1.0199 0.00820016 6.99898e-21)
(0.966111 -0.0379169 -2.93547e-22)
(0.999607 -0.000702462 1.93433e-23)
(0.996619 -0.00111643 1.35017e-22)
(1.02702 0.0260519 2.85918e-21)
(1.08185 0.0163542 4.94222e-22)
(0.950416 -0.0346543 -1.67314e-21)
(1 -2.01196e-05 1.24598e-25)
(1.00103 0.0106658 1.89717e-20)
(0.983382 -0.0240455 -9.77021e-22)
(1.08144 0.0811779 -9.82868e-21)
(1.01582 -0.00147969 -1.70369e-21)
(1.01825 -0.00151621 3.88763e-21)
(0.959314 -0.017205 2.63119e-21)
(0.999883 -8.27185e-05 -1.73468e-24)
(1.0284 0.000553022 -6.394e-22)
(1.08792 0.0136038 -6.55323e-22)
(1.20641 0.0690434 1.25265e-21)
(1.0705 -0.128396 6.70603e-22)
(1.04992 0.105466 6.18425e-21)
(1.00701 -0.00209501 -2.76457e-23)
(1.10319 0.0917847 -8.15822e-21)
(1.00075 -0.0191484 -9.11406e-23)
(1.03076 -0.0739229 -1.97579e-21)
(0.999524 -0.000211579 -2.10062e-23)
(1.00547 -0.0251651 1.38691e-22)
(0.999877 -0.000548307 2.52044e-24)
(1.05537 0.042345 -6.61423e-21)
(1.09602 0.141465 -1.73251e-20)
(0.998213 -0.00154576 3.99785e-23)
(1.0238 -0.0154593 2.68052e-23)
(0.977933 -0.00641802 4.60295e-22)
(1.07219 -0.110243 2.96251e-22)
(1.06632 -0.118772 -1.58178e-21)
(0.997736 -0.00111883 7.92633e-23)
(1.05915 -0.0312194 -5.78838e-22)
(0.907299 0.00429225 -1.08597e-20)
(1.20349 0.0491679 5.32085e-22)
(0.999935 -0.000212841 5.90999e-24)
(1.07649 0.0127809 -1.76412e-21)
(0.996744 -0.0119664 -2.13486e-22)
(0.995591 0.00220774 2.30068e-20)
(0.985 -0.00734537 8.09235e-22)
(0.996819 -0.0359258 -2.73638e-22)
(1.02629 -0.0460007 -2.79316e-23)
(0.995116 -0.0373044 -4.13948e-23)
(0.999628 -0.0283442 -6.13675e-22)
(0.990785 -0.00451062 1.41916e-22)
(0.999577 -0.0190407 3.26303e-22)
(1.00261 -0.00815177 -4.23378e-23)
(1.0728 -0.0231109 4.1807e-22)
(1.00013 -3.10263e-05 -1.21749e-23)
(1.24541 -0.0879347 -1.46084e-21)
(1.1906 0.00377098 -2.44347e-22)
(1.02644 0.127146 1.44429e-20)
(0.953004 -0.0326734 2.53123e-21)
(1.12976 0.123023 -3.68661e-21)
(1.00241 -0.000826072 1.4021e-22)
(1.10037 -0.0885147 -2.5397e-23)
(1.00994 -0.0511537 -6.76782e-22)
(1.02322 0.0448974 8.29225e-21)
(0.991455 -0.00545474 3.52234e-22)
(1.00013 -0.000234711 8.07073e-24)
(0.984389 -0.02499 1.2734e-21)
(0.994969 -0.0128607 -1.65896e-22)
(1.05518 -0.0284612 1.30194e-21)
(0.963636 -0.0104959 -1.63446e-21)
(0.970435 -0.0131992 4.65017e-22)
(1.15952 -0.0307732 -4.0451e-23)
(0.981462 -0.00414484 -8.00943e-22)
(1.02319 -0.0485294 3.00447e-22)
(0.997617 -0.113264 1.76287e-21)
(1.00001 -1.05754e-05 1.08682e-25)
(1.07384 -0.0136267 2.4337e-21)
(0.998289 -0.101195 -4.63064e-21)
(1.13593 0.107748 3.37169e-21)
(1.12982 -0.078524 -1.77622e-21)
(1.0426 0.00428168 4.03328e-22)
(1.05277 -0.134037 -4.02297e-21)
(1.05084 0.137851 3.78398e-21)
(1.04806 -0.0432246 3.13222e-22)
(0.957379 -0.0159426 -1.55726e-21)
(1.02455 -0.0614362 -9.51859e-22)
(0.959076 0.0060926 1.02874e-20)
(1.20733 -0.100189 8.91607e-22)
(0.984121 -0.0068438 -2.46089e-22)
(1.06196 -0.168495 -3.15263e-22)
(1.04384 -0.0855261 1.36536e-21)
(1.07922 -0.150361 -5.96609e-22)
(1.06745 -0.101818 -1.6335e-21)
(1.09491 0.0799829 7.57555e-21)
(0.996652 -0.00220534 6.89908e-24)
(1.00879 0.049906 3.107e-21)
(1.00946 -0.00200899 2.01551e-22)
(0.999528 -0.000710965 -2.77928e-23)
(0.998596 -0.00306821 1.98625e-22)
(1.07169 0.00450092 -6.1469e-22)
(0.853737 0.00509574 3.12995e-22)
(1.00218 -0.00873033 2.12805e-23)
(1.03006 -0.0684879 2.82002e-22)
(1.02722 0.0298036 -4.7466e-21)
(1.00003 -9.44261e-06 -2.36056e-25)
(0.973468 -0.0132183 1.12248e-21)
(1.02769 -0.011552 1.36415e-21)
(1.09807 -0.0444016 1.60807e-22)
(1.00961 -0.00100164 1.13088e-21)
(0.998095 -0.00274652 3.62016e-23)
(0.982539 -0.0556442 1.8644e-23)
(0.997587 -0.0114721 -6.38734e-23)
(1.00004 -7.77004e-06 2.59038e-24)
(0.975185 -0.0663946 -3.6566e-21)
(1.0601 0.0981852 -2.17952e-21)
(1.02799 -0.0397694 1.42983e-22)
(0.978969 -0.00724902 -8.59004e-22)
(1.0022 -0.000566502 -5.02749e-23)
(1.03089 0.031868 6.25099e-21)
(0.99954 -0.000866392 -1.28169e-23)
(0.998496 -0.000882581 -4.01807e-24)
(0.999565 -0.000231347 -1.91399e-23)
(0.999133 -0.00289066 -4.97479e-23)
(1.19294 0.0698706 1.54047e-21)
(1.03963 -0.0442251 1.51106e-22)
(1.01129 -0.0242646 7.42126e-23)
(0.977563 -0.0107176 -3.9264e-22)
(1.00006 -6.91858e-05 2.51809e-24)
(1.12136 -0.1508 4.44354e-21)
(1.24022 -0.000711706 7.05201e-23)
(1.1316 -0.161382 -2.13936e-21)
(0.999187 -0.0456912 -5.15504e-22)
(1.01726 -0.011605 1.27322e-21)
(0.999742 -0.000135126 8.79408e-24)
(0.986164 -0.0162592 -5.10384e-22)
(0.948306 -0.0702714 -2.09176e-21)
(1.19194 0.0508208 3.81172e-22)
(1.00629 0.0715652 -2.23325e-22)
(0.998647 -0.00434704 4.01576e-23)
(0.926693 -0.0506731 1.1467e-21)
(0.994261 -0.00381857 -3.37598e-22)
(1.04506 -0.0399527 9.8542e-25)
(1.10913 0.0767953 7.33109e-22)
(1.00053 -0.00017996 -4.24631e-23)
(0.999809 -0.000292241 -3.23121e-24)
(1.16594 0.118894 6.28481e-22)
(1.18774 0.0300429 1.09257e-22)
(1.02308 -0.0192795 4.57048e-22)
(0.99642 -0.00240532 1.78266e-22)
(0.997451 -0.000639893 -1.76275e-23)
(0.958492 -0.0706215 5.12972e-22)
(0.99979 -0.000479057 -1.0672e-23)
(1.02539 -0.0422984 -2.77969e-23)
(0.983194 -0.00203363 1.6445e-21)
(1.00039 0.0123403 -3.74349e-21)
(1.06475 0.10427 -1.13702e-21)
(1.09272 -0.0822889 6.967e-22)
(1.00399 -0.101077 1.70763e-21)
(1.00789 -0.00181379 5.58987e-22)
(1.02016 -0.0316579 -3.24278e-22)
(1.1799 0.0108235 2.79648e-22)
(1.00498 -0.112854 -1.08129e-21)
(1.02821 -0.0586733 5.39881e-22)
(0.999998 -1.03825e-05 3.63565e-26)
(1.16648 -0.00744357 -2.83514e-22)
(0.966585 -0.00426352 1.56048e-22)
(1.00575 -0.125853 2.15812e-21)
(1.02694 -0.0365202 -4.11769e-22)
(0.941525 -0.0233334 -3.47861e-22)
(0.999513 -0.000405035 -9.34828e-24)
(0.99636 -0.00179783 -7.95666e-23)
(1.04715 0.0498904 7.71689e-21)
(0.961487 -0.016053 -5.90829e-22)
(0.999982 -3.08765e-06 3.74661e-25)
(0.996489 -0.00074681 -1.86483e-22)
(1.20087 -0.0839676 -5.21532e-21)
(0.999797 -7.07613e-05 2.2213e-23)
(1.03379 -0.0653426 -1.85046e-22)
(0.99994 -0.000169024 -4.59405e-25)
(1.00896 -0.0180292 -2.94783e-24)
(1.00847 -0.151538 1.34586e-21)
(1.0838 -0.0845627 -5.17571e-22)