/*--------------------------------*- C++ -*----------------------------------*\
  =========                 |
  \\      /  F ield         | OpenFOAM: The Open Source CFD Toolbox
   \\    /   O peration     | Website:  https://openfoam.org
    \\  /    A nd           | Version:  7
     \\/     M anipulation  |
\*---------------------------------------------------------------------------*/
FoamFile
{
    version     2.0;
    format      ascii;
    class       surfaceScalarField;
    location    "32";
    object      phi;
}
// * * * * * * * * * * * * * * * * * * * * * * * * * * * * * * * * * * * * * //

dimensions      [0 3 -1 0 0 0 0];

internalField   nonuniform List<scalar> 
29574
(
588.088
-435.458
-152.63
270.949
43.1656
-314.114
948.252
-1139.85
191.601
-395.185
994.342
-599.157
-631.798
671.149
-39.3517
-687.243
55.4448
220.3
-44.4099
-175.89
646.217
-501.384
-144.833
205.497
-288.636
83.1384
88.0225
558.195
-91.3344
260.735
-169.401
-293.525
294.606
-1.08109
-231.197
-21.6875
252.885
34.6711
553.417
620.692
-649.73
29.0379
-965.13
569.944
-318.701
358.726
-40.025
-92.2117
-1038.35
1130.56
-260.328
229.483
30.8455
305.464
-34.5156
-307.507
294.088
13.4193
-31.528
-261.997
-504.692
592.714
264.403
-326.033
61.6299
948.252
-352.107
60.4736
291.633
892.912
-976.778
83.8661
338.834
-145.33
-193.504
-160.358
-111.631
271.989
-116.14
-144.188
-592.305
740.732
-148.426
335.738
-280.928
-54.81
412.065
-88.1776
-323.887
555.29
-294.329
-260.961
-716.993
780.477
-63.4841
-730.955
138.65
166.458
-397.856
231.398
932.355
-932.355
784.966
-343.94
-441.026
279.387
454.114
-733.5
1.35685
804.914
-806.271
-324.382
99.2947
225.088
-885.817
730.805
155.011
974.101
-81.1885
-98.8159
-253.291
116.449
72.5222
-188.971
1154.24
-492.807
-661.434
343.688
-246.714
-96.9732
842.868
-30.4366
-812.431
238.798
-227.675
-11.1233
-787.78
70.7864
45.5278
-761.4
715.872
-304.581
-128.497
433.079
763.131
-835.356
72.2247
178.813
-399.911
221.098
14.8947
-208.556
193.662
378.548
-108.404
-270.144
694.71
-751.169
56.4591
-62.0389
-292.271
354.31
-87.3365
-231.364
-645.315
402.181
243.134
-50.2951
244.359
-194.064
479.516
-482.086
2.57007
-206.716
-377.475
584.191
-697.629
828.083
-130.454
-714.286
106.715
607.571
542.708
-567.564
24.856
-650.343
-63.9435
-181.654
-357.144
538.798
-108.663
-102.774
211.438
359.283
-555.126
195.843
336.102
-229.617
-106.485
674.982
-54.2906
-269.794
-38.0902
307.884
1063.06
-561.966
-501.097
-85.4991
481.275
-395.776
334.392
-107.518
-226.874
-226.646
15.4084
211.238
941.104
-661.717
591.86
-832.489
240.629
632.219
-525.503
816.77
-194.041
-622.729
306.108
-110.111
-195.997
297.346
-91.8489
133.928
-184.223
-631.541
-254.276
236.356
-281.995
45.6392
-32.2047
134.896
-102.691
-685.22
478.504
113.57
-301.317
187.747
-439.256
729.2
-289.944
739.002
148.799
-887.801
904.466
-130.134
-774.332
173.959
-284.598
110.639
203.467
140.22
423.931
55.5856
250.452
-76.4937
-779.399
789.476
-10.0764
-327.756
236.422
1038.56
-931.543
-107.014
275.914
-162.344
404.659
-415.843
11.1835
155.695
141.809
-297.503
469.265
-184.29
-284.974
1247.58
-1247.58
475.279
42.9398
-518.219
-8.98983
255.193
-246.203
-488.429
251.336
237.094
265.32
8.93525
-274.256
-297.378
-57.9344
355.312
50.0405
-210.398
178.801
41.4995
393.935
-108.689
-285.246
-268.114
-401.195
669.309
-577.218
491.719
-568.696
-431.381
-420.333
-155.157
575.489
576.7
55.5184
-324.6
5.19716
319.403
-1028.64
239.05
789.586
-170.795
909.797
56.7951
255.635
-312.43
384.722
-636.482
251.76
231.119
-361.888
130.769
132.077
423.213
800.174
-892.385
15.2046
228.658
-243.863
184.182
154.652
242.6
93.1376
112.14
-532.472
-31.9078
-149.027
180.935
22.603
216.195
860.394
-859.037
290.051
494.915
113.219
-361.613
248.395
271.187
976.397
306.347
-76.3162
-230.031
-276.524
-30.9828
-405.234
35.1774
370.057
99.2102
66.3215
-165.532
293.685
-236.89
32.1365
-301.931
183.983
152.119
-299.05
185.581
113.469
-586.903
96.7705
490.133
-133.329
246.548
-311.763
91.0807
220.683
-94.1327
-222.676
316.809
8.23019
316.384
-324.614
-765.657
-211.121
127.311
-221.443
225.728
971.751
-67.2845
-228.124
-54.0342
282.158
150.858
665.912
-290.281
-21.4826
-753.99
122.449
72.4188
191.984
68.1168
-158.837
90.7197
-9.43515
-221.762
-173.179
351.992
-241.727
197.317
-36.2452
-412.872
-174.031
-204.443
-682.587
887.031
-142.659
110.455
345.271
59.3885
276.108
30.0005
442.086
39.1887
-359.606
526.063
360.545
-54.1981
-162.219
-154.402
316.62
18.5549
-230.67
212.115
397.887
-442.586
44.6986
97.8438
96.1381
-193.982
45.0325
367.033
-571.655
509.136
62.5191
-536.702
-31.6918
568.394
-440.606
-136.613
1.11657
218.299
-219.416
65.7698
-232.834
167.064
735.571
196.784
341.878
34.6464
-376.524
-64.0094
215.98
-151.97
267.194
38.2701
226.72
-123.618
-103.102
587.902
-228.619
31.5404
1007.02
144.665
206.784
117.472
-324.257
301.043
-285.838
250.17
-400.349
150.178
73.5212
-1005.06
-607.54
425.886
216.345
-148.228
-46.0979
315.84
-269.742
96.3715
245.506
-56.2336
326.678
-270.445
325.322
-58.1274
-6.70065
213.485
263.813
-404.128
140.315
-97.0567
337.133
-240.076
-488.872
144.319
-331.231
186.911
268.092
-375.18
107.088
-311.339
284.285
27.0546
-10.5768
-326.682
337.259
780.171
-734.644
196.702
-181.807
619.618
-634.899
15.2812
412.363
130.344
-852.465
510.922
341.543
-38.71
302.897
-264.187
-84.9611
-150.173
235.134
-296.262
561.359
501.703
513.821
-513.821
-529.703
-498.933
-269.791
-218.638
899.875
-609.823
-3.07424
266.72
-263.646
-156.713
-282.342
439.055
61.0083
164.99
-225.999
533.892
-973.147
-348.504
290.57
-12.5094
-392.725
351.427
-362.004
-1068.65
499.958
-485.178
485.178
-641.17
-6.90544
648.076
666.194
-281.472
292.17
138.248
-430.418
-329.915
320.925
-216.239
207.745
8.49308
-562.131
843.71
-281.579
306.713
-70.3572
577.153
-101.875
-410.856
248.637
182.484
67.9685
-660.144
503.431
248.705
-356.223
87.9711
-172.932
280.533
110.164
-390.697
352.431
-121.312
-1001.15
-246.43
621.81
-45.1092
-83.9722
288.216
-204.244
556.258
-480.647
-75.611
-81.6486
781.283
-699.635
-53.2165
896.084
263.595
1.72482
-119.062
180.07
-92.5567
577.541
-484.985
-542.865
198.925
-164.462
10.1331
154.329
-138.071
430.241
-54.8086
233.565
-178.756
-69.7979
-254.584
192.297
-93.0869
-77.4048
193.854
22.2004
-249.696
227.496
35.6675
455.058
-490.725
710.401
49.3834
-759.784
284.894
21.8196
-82.3879
-159.339
-143.355
45.2848
244.885
-290.17
33.4438
360.491
203.199
-765.33
302.739
-193.031
-88.9645
122.523
-820.689
698.166
69.2223
-403.743
-163.821
-300.032
215.914
84.1176
-329.852
-315.462
567.784
-999.165
235.621
-48.9892
-186.632
-65.1171
266.862
-201.745
-1039.21
343.64
695.575
-50.3125
381.016
-330.704
324.418
54.1304
-232.994
82.9321
150.062
366.207
-109.977
-256.23
393.888
-143.717
-154.303
296.112
261.792
-214.718
138.555
-203.672
-112.409
627.537
-515.128
753.074
-161.214
-112.648
-379.032
491.68
854.065
-731.542
265.54
-220.255
-24.5344
-335.071
-536.984
71.4179
89.4816
-160.9
372.751
-91.507
-281.243
-96.2935
192.085
-95.7918
402.731
-138.917
-122.764
-357.748
480.512
7.67463
843.936
-851.611
-776.664
803.815
-27.1508
-240.404
44.9619
195.442
-753.947
439.524
314.423
46.9054
-163.046
-2.52534
176.321
-173.796
-302.536
271.008
6.19734
-230.672
224.474
249.037
-30.737
182.586
-557.397
374.811
231.17
-208.969
-40.2832
-186.363
-60.8598
586.923
369.078
-81.0176
-288.061
-733.858
741.532
-459.688
364.345
95.343
460.846
-348.706
482.066
-856.021
373.955
-296.959
-102.952
-726.553
28.9239
-178.714
-54.2793
-645.431
631.525
13.9062
-182.856
351.313
-168.457
322.98
316.517
262.294
-169.954
-92.3405
269.15
-257.231
-496.759
-199.288
-85.3097
270.651
-212.998
-57.6527
-572.274
17.9193
554.354
175.136
-77.2918
1006.26
-1006.26
433.555
-498.903
-540.311
162.813
193.125
-355.938
-495.212
470.677
-331.935
293.845
-325.69
423.895
172.381
-596.275
50.8435
712.288
571.548
-147.653
447.005
-602.162
109.031
210.41
-319.441
-208.71
-214.96
423.671
324.476
70.5871
-395.063
-297.325
-544.643
841.968
492.002
-760.117
390.738
26.3221
-417.06
-1038.35
417.699
96.1221
297.501
-278.946
299.904
-361.943
-11.19
121.162
-109.972
17.161
-261.386
-254.482
11.8322
242.65
253.191
17.4594
327.565
-391.575
227.03
-93.1021
-562.243
-201.271
-100.046
-391.827
-362.12
-978.748
-185.792
1164.54
-495.22
964.143
-468.923
-131.12
-4.35041
135.47
-668.302
636.755
31.5477
-252.825
386.039
-133.214
246.094
310.164
2.43989
-210.996
873.961
-912.507
38.5457
438.034
-125.789
225.084
-384.397
167.978
216.418
-257.698
73.3923
184.306
-505.803
-66.4711
135.403
-243.806
363.038
-82.505
-1130.02
925.573
-568.775
476.218
-98.3346
211.583
-113.249
-75.8624
385.545
-309.683
389.134
-365.203
-23.9303
-370.4
46.6014
-211.063
-320.117
701.885
-381.768
-74.4355
-253.32
-90.134
480.872
4.42813
192.227
-196.655
949.922
204.318
-369.099
-15.2981
173.461
215.673
-372.5
-456.499
828.999
-875.806
382.999
437.798
-950.079
512.281
106.831
-443.945
337.114
-285.026
188.733
-13.4047
468.463
-132.135
-199.096
-429.103
148.175
616.051
5.75886
23.5563
212.065
437.056
-73.5852
-363.471
-111.754
-85.8208
197.575
136.548
240.745
-310.543
9.11356
-108.526
-41.7665
150.293
-384.051
-22.6981
406.749
-26.7156
335.009
-308.293
-102.662
493.194
-390.532
-418.222
392.904
-68.4275
-912.049
830.401
365.847
-322.907
-70.7382
-329.611
-74.369
-329.759
-655.229
-124.17
-537.611
302.382
235.229
-295.822
66.2049
-127.025
123.706
40.1739
198.715
411.394
-610.109
29.9793
-295.294
48.5791
28.2829
298.395
150.994
-259.683
-49.1327
-295.49
344.622
-810.639
796.29
14.3486
230.558
-252.228
21.6703
361.973
537.902
278.024
-388.001
-21.4121
306.306
-724.58
694.143
287.957
-211.17
-76.7874
302.466
13.3738
-175.995
-170.535
-311.024
481.559
-213.938
-97.4009
306.954
-398.461
446.385
-569.149
119.714
75.4263
-195.141
206.014
-128.34
-77.6742
278.295
-650.795
162.517
-519.661
244.259
-90.521
-153.738
47.491
-813.148
-434.364
315.872
-396.889
-594.027
700.859
-512.452
99.5796
368.299
-665.624
114.098
-229.801
115.703
-851.02
898.511
-30.1614
-5.90569
810.82
-217.345
216.059
1.28687
-312.874
196.166
116.708
-241.949
-133.231
-60.0872
427.914
-367.827
559.896
-672.306
49.2817
-230.433
181.151
175.601
-126.32
350.91
80.9781
-263.834
174.975
17.3226
-144.821
766.843
107.118
-457.729
172.755
-209.964
176.867
33.0965
190.446
-245.254
-3.67919
191.155
-187.475
-355.123
305.99
-221.357
-16.173
237.53
-549.772
437.124
212.075
-203.844
-580.831
-64.6003
614.889
4.72896
-322.732
-209.741
173.201
-88.4627
-84.7385
-112.201
-103.465
215.666
177.715
-244.047
66.333
-44.1202
296.266
-252.146
-225.262
212.217
13.0442
-194.266
-30.9956
357.353
79.7032
997.272
-726.085
-286.107
-314.245
239.809
191.17
33.0275
-224.197
-988.401
807.866
180.535
-366.979
170.013
196.966
-512.378
-149.613
661.991
-158.917
-806.212
-15.5907
-281.913
-471.923
449.224
-100.074
-212.8
258.506
8.35574
661.032
-103.74
-557.292
347.216
-449.878
-159.201
756.237
-597.036
-235.654
-209.331
444.986
-285.171
268.902
16.2691
5.94862
-71.2254
248.94
-117.052
-182.979
-526.042
-11.5692
-16.1523
-90.4065
-744.949
40.9371
-432.214
-215.113
102.912
-284.788
173.157
699.069
254.247
-308.281
163.35
63.3705
-332.095
-8.48351
340.578
-263.253
5.55514
-36.7772
-997.207
778.721
218.485
-18.2417
225.987
-82.9421
270.689
492.48
-524.313
31.8336
-303.793
-155.895
-360.769
395.947
-45.1481
136.589
-91.4406
1004.76
-823.967
-180.794
42.2743
-586.15
543.876
-27.3792
-123.496
150.875
-158.444
-137.378
487.306
-63.3756
-263.556
509.65
-559.852
123.101
436.75
-211.226
271.699
519.868
-393.889
-125.979
294.225
8.38695
-302.612
-284.114
200.141
682.467
-105.662
-576.805
437.897
-239.182
-433.366
389.658
43.7076
273.395
14.8216
-296.143
-35.9511
-179.867
56.2493
199.262
-500.637
67.5121
433.125
-263.096
260.022
-400.646
373.931
-329.866
-67.4799
-417.699
-459.43
399.343
-530.62
1001.79
-471.169
-118.963
73.8147
-175.663
-191.316
488.205
-50.2308
-437.975
-17.5227
-298.303
315.826
-508.722
564.02
-55.2976
446.283
202.59
-99.9729
-102.617
201.138
-245.259
197.207
-200.886
-310.315
97.3174
473.154
-430.88
-11.5377
-273.633
66.6091
-908.868
908.868
119.862
2.66075
420.443
-423.104
-167.429
181.973
-14.5442
-513.917
305.206
-426.552
71.2234
355.329
56.4171
116.784
-511.259
410.575
100.684
-208.412
436.389
50.9168
308.283
42.0205
-350.304
340.666
-85.0307
-429.571
-51.0763
118.167
-360.231
284.369
337.388
-255.732
-81.6552
-27.7035
143.561
-115.858
-978.748
-294.168
-183.436
80.4589
102.978
-344.971
256.794
-428.021
-522.058
243.348
566.951
-810.299
-143.763
-532.459
676.222
-486.241
163.51
-17.8435
192.818
213.991
-16.7842
-657.243
640.497
16.7457
86.207
351.69
295.49
-76.7325
-218.757
-98.8392
-568.528
667.368
-580.781
822.535
-241.753
-593.439
60.1605
-817.816
210.112
607.704
-984.541
432.184
552.357
-289.489
-270.362
-115.902
481.749
-968.573
437.952
-675.572
814.402
-138.83
662.09
-760.929
-211.495
250.764
-228.161
124.303
-799.875
-164.053
-694.475
858.528
682.497
-0.0294924
501.265
326.818
-93.5435
297.011
-92.6204
88.2699
-152.967
220.413
-597.888
253.962
-226.759
-27.2028
-117.639
344.498
-226.859
-172.77
-122.524
523.85
-31.3699
-290.635
273.112
13.3722
623.382
-703.844
-650.54
-255.99
-244.647
43.1643
217.571
21.8865
492.508
-514.394
-391.678
352.123
39.5548
-141.184
156.592
561.638
440.151
-382.652
-165.299
547.951
175.133
-262.469
-108.026
292.009
-73.9345
-352.618
184.894
-261.21
-232.27
318.477
202.608
-130.086
-449.584
-534.957
-291.04
-11.3248
302.364
-337.179
201.7
135.479
-173.931
178.359
-250.706
-86.4736
225.299
-219.102
248.976
-282.351
33.3746
321.956
-85.8206
-236.135
-805.216
646.299
-310.509
-334.879
82.0547
-329.332
355.654
272.747
-71.2415
517.524
178.612
-13.6219
261.209
563.214
-824.423
-193.789
165.825
40.1885
-577.84
407.305
-989.83
307.242
320.975
-816.195
-472.974
-73.03
546.004
-529.913
452.249
77.664
280.956
-207.235
39.8057
-656.636
393.08
-41.4519
155.55
-363.89
385.776
132.837
-526.726
-121.975
-36.8737
219.357
-7.84671
276.748
270.796
-81.2505
177.389
777.751
3.53229
296.231
-285.528
-10.703
-279.735
-81.8786
-84.5871
-34.8376
265.396
718.094
246.049
49.5473
221.141
340.319
-91.6142
-59.169
316.475
-257.306
-458.814
79.7817
494.537
-230.343
-264.194
287.124
-294.97
-16.0492
-674.578
690.627
222.507
-829.094
458.694
-238.074
76.835
-364.896
-125.123
-402.005
527.128
-125.073
135.207
250.06
-343.604
333.441
-17.057
-871.003
334.301
90.1852
-371.429
-725.82
-524.828
-463.572
236.712
106.108
-362.338
232.929
-340.955
157.258
87.001
154.358
-219.939
65.5807
-521.573
163.825
505.096
-923.319
-146.437
57.9741
458.353
26.8258
-574.892
-422.314
17.7414
-598.572
-3.63605
297.861
-98.0219
415.32
-317.298
-108.484
-85.4979
153.816
-232.894
-63.3671
-343.324
376.768
-269.703
-50.149
319.852
-62.2743
263.975
-290.231
-259.565
241.529
18.036
43.7533
-254.851
331.686
371.128
-66.7205
-324.958
-22.6343
234.852
203.903
-28.9215
-174.982
-81.5205
-466.542
53.8006
412.742
-289.491
-138.059
427.55
186.859
-214.562
340.245
-236.724
58.0095
-194.013
-125.63
319.643
818.969
339.037
-41.9883
-208.928
250.916
-22.5639
-507.35
-291.04
-733.355
342.434
390.921
1.60842
-295.937
-9.20969
251.81
-11.7647
227.823
283.739
-328.542
44.8023
-468.097
-139.442
-541.908
176.368
365.54
209.718
27.8122
237.893
347.339
-611.622
264.283
243.334
-408.199
164.864
-355.574
409.564
-664.224
254.659
996.609
-965.068
-782.676
462.559
-457.831
-110
567.831
175.977
120.254
-316.813
578.499
-417.805
-160.694
392.779
-217.646
-836.656
255.875
250.438
244.099
-241.341
82.8967
401.841
-80.9162
178.616
-180.185
1.56943
232.819
11.5403
580.829
-612.521
-501.236
168.863
332.373
73.2393
-364.962
-121.74
486.702
91.4522
398.496
-213.602
265.351
59.9702
-454.002
150.208
312.856
104.193
-417.048
118.213
-216.548
-190.857
-229.258
-206.2
-359.899
16.575
-28.4721
-628.771
-37.9793
232.058
-194.079
-296.202
185.085
111.117
-396.731
-119.788
516.519
-281.13
-67.3737
187.178
16.7254
-350.679
79.1794
182.911
72.2556
-255.167
-265.266
-147.011
412.277
-365.907
-291.709
271.901
19.8071
109.29
-338.405
229.115
162.777
-227.186
64.4093
-35.4813
-123.945
-289.929
413.873
-363.453
231.318
211.602
-440.86
-249.516
107.36
142.156
-465.84
154.816
35.1177
-440.327
405.21
-196.474
-63.0903
185.632
433.031
-359.089
-73.9422
-211.345
201.422
9.92307
-262.574
118.704
143.869
-73.9179
-136.046
-331.978
-118.55
926.415
-214.479
-35.2179
273.996
-476.501
320.606
108.196
-307.221
199.026
-409.199
-142.969
552.168
-472.233
-215.009
220.283
-29.1129
284.203
690.315
-706.364
-49.0743
-272.083
321.157
83.3486
-711.999
628.651
207.937
102.46
-310.397
312.372
-119.247
-238.853
223.263
-362.267
-50.9241
413.191
-710.436
39.2256
671.21
-507.258
-152.886
-96.6678
-303.979
522.872
-42.2231
-774.551
-19.8388
794.39
-207.005
570.208
-363.203
-216.05
477.259
144.128
-509.09
329.264
-118.855
124.933
452.608
-426.019
428.68
-323.108
-152.348
475.457
-523.486
50.512
314.337
50.0087
16.6034
-255.457
269.375
-76.2643
-193.111
-112.949
-116.458
305.191
-88.4877
-271.743
42.112
229.587
-298.326
-103.808
402.134
-279.826
353.643
-73.8175
-89.5682
280.014
-336.115
-144.583
480.698
-233.03
103.573
129.457
-133.948
-52.5815
55.4632
-651.97
596.507
-181.165
-252.2
-307.976
-249.42
-333.632
-100.732
-209.318
-85.2503
294.568
415.175
639.762
170.039
-226.473
56.4343
169.636
531.223
228.798
40.5767
179.002
-257.858
78.8562
-411.499
-138.273
-525.483
-101.919
371.069
-179.389
316.508
-35.5519
657.082
-153.652
-4.59213
229.891
-240.17
279.013
-38.8432
713.626
0.08995
287.034
-601.881
492.293
109.589
221.55
73.9397
204.318
-49.1065
222.386
-322.432
71.7817
-325.073
19.725
-354.796
357.079
-2.28297
83.1994
-185.891
163.99
50.9412
-320.306
318.15
2.15526
300.536
-350.685
248.693
-21.1965
-378.372
-116.84
-60.656
285.744
11.959
242.002
300.835
7.04922
-393.062
-112.051
505.113
-77.0586
-150.616
-194.761
-35.6724
52.9039
249.835
258.189
-293.027
322.041
-54.5867
-265.155
291.698
-26.5425
-1061.3
714.887
346.417
-422.58
133.089
338.651
4.97814
-343.629
-71.4302
355.799
566.385
-176.549
-41.248
217.797
-72.4796
-230.056
-259.916
-66.0127
325.928
-283.266
-63.6374
346.903
-69.9389
-510.024
-91.8569
-798.012
785.624
12.3875
29.1828
249.43
-278.613
33.8493
324.127
-195.963
483.36
-287.397
-231.198
-83.0465
-486.865
104.178
-212.662
185.752
-240.032
-316.488
-119.028
435.516
-119.083
474.967
-355.884
-380.827
-91.0952
-239.044
-104.56
2.14744
-445.085
-123.689
-199.162
683.41
16.7406
647.608
-664.349
-197.17
48.1437
231.163
-816.76
585.597
144.031
-385.98
307.367
-52.1737
85.0574
-1027.42
-226.728
-114.227
437.533
-3.97761
-528.987
-394.215
-124.004
-657.414
206.243
-400.411
194.168
-7.53894
303.805
-348.702
-93.0584
441.761
-17.1773
-284.977
302.154
830.053
-116.427
-492.118
478.714
-59.1903
-715.361
-92.8162
466.747
-846.819
783.335
295.096
-475.579
401.644
-95.7634
-115.407
161.924
175.701
-337.625
-438.215
-246.907
183.432
19.0384
-202.471
-210.613
916.777
31.4755
-991.987
559.773
-212.806
-107.161
319.967
761.65
38.5233
358.934
-68.3643
371.506
-354.931
-401.777
405.786
-4.0091
331.664
-324.227
-7.43632
363.662
-79.4591
-19.4706
-441.222
-144.928
-224.867
-131.071
-199.423
-120.018
-618.897
829.087
-210.19
-242.219
-8.48709
-222.78
-445.37
-462.361
412.131
72.4895
-305.384
-90.4791
-125.042
215.521
-42.6342
387.934
-345.3
357.675
-51.6844
218.483
-72.0157
-146.467
98.3185
-221.814
134.293
127.499
316.449
-108.512
-336.017
-91.5203
231.741
571.18
-134.056
26.1864
-773.517
747.331
-274.66
111.624
-192.875
-30.1531
-78.206
349.214
56.8009
771.691
-699.467
856.478
-110.876
-745.602
375.865
-74.3376
-301.528
104.234
-217.482
-89.6443
506.765
-417.12
-232.544
-56.092
21.8346
-733.834
461.18
-71.8348
-290.326
284.059
6.26687
-211.937
-38.5888
250.526
201.624
27.5313
-229.155
-36.6453
-85.2073
-450.148
-611.156
-427.244
199.32
0.129644
-194.57
-24.2118
246.719
58.9934
-538.732
479.739
-333.057
222.86
-398.523
148.555
-347.651
683.977
-333.213
67.5795
-267.667
200.087
-145.582
313.56
597.288
-150.283
-202.058
-141.321
228.129
918.502
88.5156
-302.364
225.871
46.1605
725.531
-11.2022
189.818
-322.567
-93.2759
405.253
-89.381
-461.179
-520.524
153.391
367.134
-164.442
-543.565
708.007
-571.979
1010.01
-760.675
141.778
-488.463
-273.303
277.678
116.21
-935.029
53.6569
881.372
-356.558
404.84
-97.886
-11.795
363.222
334.286
19.3577
230.535
-194.812
-35.723
-309.069
98.4559
-191.834
-19.511
243.093
381.351
-103.326
679.227
-135.352
293.188
109.542
576.889
-130.504
521.658
-110.264
257.347
-42.4487
-214.898
447.342
-501.716
-341.259
842.975
543.783
-241.401
-301.131
-553.642
80.9048
472.737
315.963
-76.1536
-711.431
677.361
34.0701
527.486
-78.2618
-27.8726
634.788
-606.915
-384.704
298.883
299.476
86.5624
432.579
138.968
-386.814
219.024
-37.8728
371.314
-13.6395
-437.44
-125.669
-46.0527
593.136
320.727
-315.25
-5.47704
-535.725
67.6275
-390.306
-333.346
297.794
55.0347
325.981
-298.886
350.43
-51.5467
-145.298
-272.332
-273.1
-15.3259
288.426
-401.441
-112.38
-36.0332
547.258
-38.1217
-4.12716
472.59
586.479
-26.3573
-154.82
-266.857
330.8
-63.9438
-53.8129
220.786
31.9126
-743.343
-324.868
-237.11
363.03
-389.427
-70.0027
472.222
644.941
210.131
-855.072
-154.931
587.527
-126.347
330.988
-244.266
-86.7218
-70.0821
-606.307
-211.509
36.3775
199.358
134.928
-138.888
203.297
-285.138
-309.662
354.92
-45.2577
214.935
321.382
-437.284
733.108
431.431
-314.158
376.98
-62.8224
-266.84
-479.123
-219.422
837.497
18.9808
420.074
-48.7601
-968.583
33.5542
394.685
-67.1197
-745.716
-13.8281
-315.783
633.792
205.856
-86.1414
-91.5662
12.7468
293.559
-388.733
-9.02053
397.754
-241.657
-149.04
201.412
-118.389
-474.734
-103.106
501.743
-94.4377
352.258
-5.67261
-324.086
-110.324
-136.569
-518.346
374.583
-112.975
652.695
-630.86
-279.432
382.152
-102.72
-240.335
67.5655
280.882
22.0149
-445.376
-477.942
-405.563
972.955
-466.498
-506.458
586.75
-110.532
-525.813
-130.823
-97.4128
17.8126
530.665
-137.585
23.4318
57.0005
175.057
-229.333
-228.396
53.3755
-105.272
565.351
-139.465
-403.403
-342.883
288.073
262.722
2.67348
446.21
-93.9513
-51.1127
-148.049
-143.55
-305.272
31.6388
80.8163
-275.577
441.524
-652.645
620.586
-115.464
-505.122
758.783
-726.87
437.69
-74.6605
-245.41
-282.019
46.9234
599.136
-126.913
-758.325
784.511
214.464
-0.903925
-213.56
-150.794
223.284
465.356
-66.0128
624.674
-146.17
-279.901
279.991
-108.835
-74.6018
-208.302
271.016
-62.7133
-92.9357
268.913
300.665
-46.4178
-35.982
249.8
-473.519
-277.649
271.519
-235.735
-35.7838
-434.845
423.298
11.5469
-17.4215
-138.768
312.229
295.471
-300.841
5.36986
-251.788
-84.317
-14.1001
135.262
-319.188
424.091
-42.8552
787.095
-744.24
-507.807
350.628
-29.2462
36.4374
343.605
14.0233
-357.629
7.14441
382.514
231.552
499.253
38.7017
505.143
12.3812
356.259
-47.9759
-70.79
249.792
269.55
46.9249
-871.048
887.789
-303.167
281.926
21.2408
-546.473
247.058
2.74206
811.23
-601.71
-209.52
259.156
-181.886
-77.2701
433.405
227.509
31.9676
491.882
-197.227
616.981
-419.754
98.9606
-51.8517
847.268
-795.416
-433.102
309.157
476.019
198.963
232.532
2.31985
221.674
-191.785
-487.562
679.347
41.8315
206.861
65.6472
-558.361
571.023
-508.504
815.141
-260.193
-554.948
-291.374
-197.498
69.8007
271.111
0.790849
-222.801
-288.458
-360.821
-514.985
2.681
184.661
-187.342
289.786
262.291
189.459
-792.401
768.526
23.8748
-28.5155
407.526
-457.646
50.1207
279.493
80.9474
-0.547839
792.955
-792.407
101.308
229.492
61.9436
80.5077
-290.956
303.724
-12.768
-921.343
-57.4047
193.836
-133.667
-489.044
622.711
-291.9
858.851
-146.869
-400.194
-135.531
-560.331
100.703
386
24.3627
-252.967
-26.9344
199.484
-142.483
18.4522
859.037
49.8306
-14.1884
301.222
471.989
-356.396
-115.593
-629.932
232.848
397.084
140.734
164.457
364.332
-355.707
274.052
153.421
282.095
229.436
260.215
31.4826
69.6127
-483.432
413.819
838.053
-236.324
-601.729
168.958
221.132
-390.09
368.088
401.809
247.942
3.88944
-626.337
-306.018
273.168
-889.674
367.496
81.6496
-483.655
85.3624
-636.729
-97.1048
243.795
-357.214
397.436
554.624
-568.171
645.006
-76.8352
-10.2015
370.692
410.647
-354.884
-42.3315
173.105
-130.774
-303.083
293.943
-17.1945
672.671
-345.634
-22.4319
375.808
-353.376
90.7784
-176.804
255.61
-78.8055
-294.114
238.772
55.342
269.527
545.615
133.768
-401.212
459.015
-1130.56
1130.02
130.471
-10.965
441.347
167.783
-56.1588
414.431
352.779
213.991
21.1428
296.288
363.742
-25.714
-338.028
-649.491
649.023
0.468004
228.795
194.693
-10.0319
501.393
-431.78
-211.098
765.722
308.867
78.7458
274.825
-366.439
-171.254
26.848
244.671
791.125
-174.388
-616.737
-891.547
965.068
300.628
381.908
255.455
-250.477
554.145
-992.36
470.687
348.944
337.569
-33.9914
472.933
291.108
59.3503
-416.369
357.019
-220.369
333.533
-13.5975
-23.5708
-824.309
694.176
863.582
-201.492
333.404
290.254
124.988
339.021
-19.963
-319.058
268.989
322.394
298.922
-187.278
87.3053
-272.03
281.381
-9.35097
448.206
-564.484
-245.816
-2.36168
216.353
465.524
-577.575
-275.19
22.2233
475.446
-133.724
-236.7
370.424
-331.878
-188.646
634.427
106.305
426.334
-943.842
517.508
-459.319
417.811
41.5079
-2.84035
251.849
-249.009
358.895
-268.117
259.4
-236.582
-22.8188
326.257
45.2367
-222.041
-851.02
81.0461
364.774
-445.82
-33.1424
724.594
-691.451
322.159
-295.17
-26.9889
-445.646
479.746
328.252
-271.451
-399.981
978.648
-578.667
273.569
-13.77
197.202
540.347
459.653
-185.153
206.238
13.0244
-219.263
-27.671
397.728
-593.506
33.5924
559.913
200.997
261.886
-366.446
-42.143
-392.702
-916.777
864.925
-493.542
1033.89
336.071
-61.1473
237.759
-1.73594
-236.023
488.504
-434.703
56.2854
-708.256
-459.344
0.0258152
-255.761
317.747
-469.453
-499.119
298.197
-18.8185
-279.378
-959.691
429.987
-798.012
155.772
32.1032
-187.875
29.2261
599.424
647.819
-633.913
-273.312
836.527
-73.5887
225.707
382.605
-555.676
173.072
-136.944
356.774
-219.83
-704.258
750.418
-385.287
221.348
-223.159
232.201
-9.0425
-275.836
702.17
313.307
646.788
27.6413
-785.966
-231.351
246.128
-360.354
-32.9863
-228.797
240.629
-898.511
982.377
175.384
39.1212
-214.505
261.821
-322.983
-68.5916
0.344841
392.681
210.702
-603.383
502.754
-902.735
529.364
-56.2096
-221.443
-2.18134
223.625
-114.064
-191.208
-309.555
73.4197
-166.747
-135.183
302.196
291.372
-264.524
-118.154
-315.603
433.758
279.754
288.454
-17.5531
-292.79
310.343
-690.778
16.2002
860.394
-921.343
996.609
-1001.15
976.397
1018.79
-1018.79
-891.547
-1027.42
278.653
-254.29
-243.039
-255.296
-186.11
-1.36575
753.308
-964.511
211.203
-887.789
9.82001
-279.964
190.31
-34.5382
-763.512
791.153
227.459
-6.82521
-220.634
-283.097
265.92
-11.8894
-249.502
261.392
248.471
-14.2469
-234.224
201.207
-228.41
-23.6653
-253.23
276.895
-187.587
200.33
-12.7438
249.731
280.644
-346.894
406.245
103.469
-180.307
76.8381
-395.182
-609.883
-193.85
207.126
-13.2757
-419.539
-84.0996
503.639
193.401
-174.363
39.493
201.357
-25.9725
-359.833
277.955
518.724
-121.288
209.013
463.085
-55.559
313.266
-402.97
89.7034
18.3702
-637.398
666.624
263.442
-460.669
-783.663
730.272
53.3916
480.773
497.875
71.0784
447.646
-278.536
270.997
-73.0712
-710.592
237.56
-344.721
735.257
-945.447
345.545
-769.543
423.998
125.396
264.138
-205.958
-58.18
-56.0021
-386.9
-868.435
592.599
-1.41548
255.054
3.75839
-308.395
304.637
15.2965
-53.227
235.274
281.803
-37.132
185.497
-58.3169
-127.181
738.816
19.9663
272.554
300.928
6.48028
177.685
-229.045
51.3598
238.021
-299.387
295.751
-336.014
-202.857
217.115
-14.2582
74.6233
-494.163
242.317
181.773
-82.2949
835.603
-609.425
448.73
577.756
-684.771
220.996
-339.85
309.388
-446.332
187.651
-318.722
217.977
-190.446
-336.176
216.928
-189.093
-7.14688
196.24
218.378
-338.396
368.352
-266.269
-102.084
-6.97421
486.713
-442.463
-560.382
1002.84
-764.673
659.01
-50.6049
-320.467
371.072
21.3829
60.573
-293.443
284.233
-267.316
-7.87375
196.426
67.5484
-263.975
-184.291
-216.12
-297.083
223.36
-208.889
-14.4701
-308.395
-409.843
409.843
185.388
-657.621
168.357
183.634
304.637
727.294
-235.001
-41.9646
-645.528
687.493
526.778
-90.0274
234.919
-364.119
315.045
398.614
242.498
4.26855
232.239
-172.214
-60.0254
-30.2242
-686.82
686.82
-176.756
-386.551
-92.9834
-119.679
206.742
20.2878
-142.7
210.668
-422.723
478.308
-145.658
-201.993
745.466
-505.121
-240.345
-111.416
-106.066
557.327
-182.516
-117.245
-45.29
-489.351
534.641
-500.677
-287.103
512.289
-20.4068
-15.8301
-749.196
557.41
-457.822
-65.6644
767.903
19.1926
230.465
-112.919
773.66
-660.741
106.824
879.437
683.166
856.005
145.906
-217.922
-385.827
-73.5169
-233.208
249.891
-232.171
49.2661
-167.611
-898.059
41.468
856.591
10.7192
391.462
814.126
-260.756
245.897
14.8593
1066.43
-542.395
-524.035
-168.623
2.47568
476.238
202.634
-36.8091
264.068
283.883
421.308
-772.039
956.296
-184.256
-348.791
5.9088
231.115
17.1221
666.288
-88.3847
-214.782
-162.773
-242.79
213.153
92.325
634.969
689.793
-731.758
91.187
-795.445
22.6526
654.708
752.269
-849.593
97.3242
-627.562
535.648
91.914
627.246
-563.543
-63.7031
-446.286
520.91
59.7227
-76.6336
-121.774
198.407
122.489
305.654
-603.618
450.732
188.997
-188.997
-198.67
218.417
-879.201
436.739
-673.392
539.724
-553.642
871.048
-953.343
23.5483
-237.543
203.877
-162.971
-223.009
-246.673
19.9271
356.841
34.7213
341.144
-350.538
-364.879
40.652
439.509
-680.91
-55.3137
-726.742
782.055
225.421
-264.01
55.1066
102.135
-227.178
-623.568
655.116
-196.713
-43.3187
8.16199
551.806
150.079
-307.517
-25.829
-455.116
957.87
864.349
-864.349
332.693
43.1149
9.25379
463.336
-761.469
17.2289
651.682
14.942
80.3437
417.44
-497.784
214.171
301.748
-3.88682
8.95859
673.562
17.0657
-864.168
652.659
195.409
303.277
-498.685
-826.383
566.19
210.29
-413.007
18.4719
-649.332
-184.721
-58.8138
243.535
-78.68
193.573
-114.893
15.1727
44.3517
355.592
40.3543
-200.295
17.4018
-294.824
523.371
660.279
64.3151
12.3706
142.844
-79.9075
-198.706
195.841
394.787
-500.038
-707.825
-64.214
-196.664
-466.894
-476.948
-274.087
-360.812
624.538
-514.949
6.66966
798.706
-805.375
318.266
50.0861
391.855
-59.1617
622.228
-57.6036
-564.624
313.777
-19.9317
-572.693
-105.721
678.414
-27.8757
-257.963
-609.21
455.558
-171.645
-73.7743
245.42
240.481
611.314
66.3368
-240.668
-81.7645
24.2513
202.842
-546.059
638.384
193.638
3.56466
-199.644
395.596