/*--------------------------------*- C++ -*----------------------------------*\
  =========                 |
  \\      /  F ield         | OpenFOAM: The Open Source CFD Toolbox
   \\    /   O peration     | Website:  https://openfoam.org
    \\  /    A nd           | Version:  7
     \\/     M anipulation  |
\*---------------------------------------------------------------------------*/
FoamFile
{
    version     2.0;
    format      ascii;
    class       volScalarField;
    location    "20";
    object      p;
}
// * * * * * * * * * * * * * * * * * * * * * * * * * * * * * * * * * * * * * //

dimensions      [0 2 -2 0 0 0 0];

internalField   nonuniform List<scalar> 
30084
(
0.0193483
0.208339
-0.0189816
-0.0730224
-0.00533079
-0.0797222
-0.0188801
0.0192679
0.00438764
0.000385989
0.0137302
-0.0095405
-0.0010818
-6.27783e-05
0.250544
-0.0128776
-0.00040483
0.114928
-0.00471491
-0.0223339
-0.00191056
0.00412001
-0.0192206
-0.00465764
0.683103
0.207062
-0.00116243
0.586322
0.243553
-0.00343752
0.0340281
0.103154
-0.112333
-0.0133025
0.592846
-0.0134137
0.240718
-0.0572909
0.0122507
0.0117959
0.000929761
-0.0344905
-0.000361935
-0.0333876
6.11305e-05
-0.00305055
-0.00856454
0.000147793
0.00720996
0.235118
-0.0166417
-0.0644541
0.106271
-0.0770983
-0.0126004
0.232604
-0.00745868
-0.0019669
-0.00909554
-0.0314361
-0.000150086
-0.00457478
0.113409
-0.0116264
0.359751
0.648176
-0.015434
-0.0178766
0.620809
0.000973424
0.205185
0.49994
0.00517109
0.647173
-0.0166774
0.0439217
0.26027
-0.0512513
-0.000112758
-0.0285832
-0.0716972
0.273015
0.0193451
-5.43308e-06
-0.0146542
-0.107402
0.382513
-0.00112379
-0.0010457
-0.105095
-0.0446106
-0.0517825
0.00664712
0.10697
-0.10884
0.392042
-0.0574982
0.00101114
-0.0816386
0.283026
-0.000118899
-0.0484628
-0.000145317
0.0772574
-0.066054
0.179767
0.437171
-0.00100562
-2.42048e-05
-0.104579
-0.112351
0.0287667
5.13003e-06
-0.00325701
-0.000367185
0.48963
0.297107
-0.0242215
4.03031e-05
0.00599767
0.020962
0.22095
0.0254838
0.645708
0.00238394
0.052913
0.121479
-0.0245057
0.00877739
1.74696e-05
-0.0307721
0.251901
0.489784
-0.00103597
0.0762706
0.0330232
0.426367
-0.0495396
-0.152817
0.275276
0.0622181
-0.0914228
-0.0907015
3.73915e-06
-5.29686e-06
-0.00545543
-0.00800583
-0.0868415
-0.0999809
0.170062
0.0565061
0.0283779
0.000914092
-0.000312829
0.284655
0.00108989
-0.0161643
0.410151
0.335202
-0.0112272
-0.0688097
-0.0712065
0.239628
-0.000118084
-5.82428e-06
-0.0243808
-0.0876958
9.43529e-05
-8.45973e-06
-0.0146909
4.63606e-05
0.0123007
0.415515
-0.0486586
-0.0778408
-0.0106987
0.00450185
-0.050156
-0.00262641
0.0388104
-3.81268e-05
-0.00534377
0.380336
-0.0167372
-0.152981
0.288238
-0.0133224
-0.0370073
0.0082395
-0.00325223
-0.000627573
0.00508223
0.655389
0.280506
-0.0285151
-0.0154965
0.558068
0.255859
-0.107546
0.00249504
-0.0422525
-0.0971651
-0.00911152
0.00180438
0.425198
-0.0141529
0.014805
-0.0867606
-0.106705
-7.65732e-05
0.529077
-0.00226316
-1.0108e-05
-0.00121014
-0.0416909
0.13844
-0.0029727
0.0144213
-0.00461856
-0.107819
3.98169e-05
0.00096224
-0.00497504
0.147909
-0.00602602
-0.00310654
0.102049
0.00024832
5.67983e-05
0.0112758
-0.0561023
-0.0444833
-0.0100267
0.203182
-0.0304653
0.0297745
-6.5671e-05
-0.00640568
0.00168106
-0.0377017
-0.158424
-0.00300104
0.000979013
-0.00327458
0.00624393
-0.0217225
-0.000112471
-0.0958076
7.17344e-05
0.150081
-0.00720731
0.000287786
0.182171
-0.0979419
0.000527483
-2.85457e-06
-0.0915857
-0.151848
-0.0184807
-0.0269493
0.0564764
0.366922
0.000155522
-0.0535692
0.027946
0.571119
-0.0168382
0.284221
0.0500311
-0.000500963
0.770665
-0.00120499
-0.0832099
-0.1065
0.00482832
0.0958061
-0.0173715
0.494775
-0.00741986
-0.0365863
-0.000599686
0.336875
-0.00574341
0.398385
-0.00112956
-0.0122983
0.562162
0.130649
0.101835
-0.0644702
-0.000346651
0.0060636
-0.000427433
-7.29855e-06
0.147856
7.31311e-05
-0.0398713
0.0239285
0.689979
0.485706
-0.0866816
-0.0381144
-0.0424168
0.0252247
0.00662141
-0.0375276
-0.0915674
0.374041
0.503125
-0.00279588
0.431039
0.143939
0.0296738
0.0245253
-0.00314637
-0.0126049
-0.0114188
-0.00571943
-0.000136391
-0.00379061
0.049681
0.343724
0.00352057
-0.0548651
0.0285226
-8.54644e-05
-0.0890831
0.722393
-0.0134109
-0.003008
0.0261452
-0.0269088
0.19422
-0.0029808
-7.90041e-05
4.60384e-06
-0.00577192
0.565455
0.0572993
-0.157953
-1.48298e-06
-0.15996
0.125726
-0.0109104
-0.0999601
-0.0027515
-0.000984029
-0.0503668
0.00199923
0.0443375
0.0225916
0.231646
-0.000376719
0.0049735
0.219163
0.0244016
0.000898009
0.000954743
0.486224
-0.0442148
-0.00327467
0.26655
0.579823
-0.0253822
-0.0143547
0.143314
-0.00170942
-0.0180431
-0.00725693
0.251054
-7.16092e-05
0.0217399
-0.0834062
0.493451
0.639335
-0.0129332
-0.0189521
0.369031
-0.0327592
-0.000132165
0.214183
0.155522
0.158009
-0.0153817
0.0537257
0.580078
-0.12189
0.53042
0.49835
-1.97361e-05
0.049694
-0.11306
-0.00634709
0.00359011
0.584491
0.0576306
0.000608951
-0.0677515
-0.0994863
-0.0120554
-0.000289692
0.407998
0.291572
8.13582e-05
0.00907964
0.0119882
-0.0495726
-0.064289
0.000115559
-6.09946e-06
0.00108858
0.199816
-0.0568345
0.396953
-0.100815
-0.0367829
-0.044729
0.261676
0.117071
-0.00271275
0.0179177
0.00186149
0.53546
-0.0526628
0.00242125
-0.0161387
0.0710217
-0.00315161
-0.0260484
0.000507365
0.000520475
0.731071
-0.0174396
-0.0109675
-0.00103687
-0.00166906
0.352065
-0.0829787
-0.0506504
9.30428e-06
-7.79781e-06
-0.0543475
-0.0146209
-0.0113531
0.0373847
0.0137257
-0.00537764
0.0867802
-0.037028
0.522915
0.0124431
0.000539404
-0.0864547
-0.0485682
0.109541
-0.00739809
-0.0496291
-3.62192e-05
0.622841
0.042162
0.000168063
0.655433
-0.052482
-3.85889e-05
0.00326218
-0.0885033
0.0301213
0.0966327
-4.2122e-06
-0.0172939
-0.00957024
-0.0117068
-0.00108457
-0.0178267
0.563344
-0.0178471
-0.0251738
0.297046
-0.00623424
0.550044
-4.26111e-05
-0.0334226
-0.0903875
-0.0484458
0.00177479
-0.00342104
0.00515808
-0.000378619
-0.0397986
0.0248408
-8.0482e-05
1.2616e-05
-0.0137656
0.519047
0.017275
0.00566824
-0.107813
-6.25719e-07
0.00220858
-0.000123876
0.0217895
-0.0369208
-0.000903542
-0.0172133
-0.0265261
0.00232435
-4.5086e-05
0.049109
-0.000926641
0.114789
0.462188
0.373946
-0.00846502
0.0135051
0.0551995
-0.000244495
-0.0075882
-5.56772e-06
0.502824
-0.0291173
0.0368675
-0.036012
0.00407377
-0.00689416
-0.000260651
1.52931e-05
-0.0106175
0.10193
0.340603
0.00281499
-0.0778606
-0.0520629
-0.0171245
0.170873
-0.00301244
0.00290167
-0.0122594
-0.000241161
-0.0910103
0.373847
0.27148
-0.0469999
0.367417
0.000170194
7.81954e-06
0.212589
0.104969
0.644645
-0.0778492
-0.0448227
0.0795368
0.00267691
-0.0127886
0.00103752
-0.0228228
-0.0273181
-1.76578e-05
-0.00205511
0.489589
-0.00034657
0.60483
-4.04353e-06
0.0804217
0.109696
0.0922699
0.00238359
0.000410218
0.509268
0.120258
-0.0920318
0.278028
-0.01366
-0.0281159
-0.00908485
0.357947
-0.0532723
0.0287496
-0.0164844
5.67442e-07
-0.00298067
0.0133785
-0.0374631
-0.045946
-0.0860932
-0.0378622
0.188726
-0.00485653
-0.105281
-0.029147
6.62234e-05
-0.0256807
0.0243057
0.191639
-0.0562301
-1.04903e-05
-0.0383771
-0.00056199
0.00319098
-0.116798
0.395748
0.00205587
-0.0253395
-0.016986
0.132153
0.553334
0.00415376
-0.00951342
0.345983
0.241372
-0.0313522
0.0112075
-0.0943929
-2.75064e-06
-0.0821546
0.000180383
-0.01914
-7.25576e-05
4.83438e-05
-0.0124871
0.12039
0.465504
0.0263306
0.026749
-1.2101e-06
-0.013867
0.000189721
-0.00726494
4.89443e-05
0.101972
-0.0011178
0.277087
-0.000312293
-0.0270937
-0.0723933
-0.00951398
0.549816
-0.0347803
-0.0824498
-0.0125022
0.0910164
-0.084114
0.0601013
-0.0260929
-4.33875e-06
-0.0106657
-0.00890556
0.000555158
0.000181657
0.3562
-0.0110034
0.143155
-0.00870821
0.00197507
0.0672247
0.000364494
-4.56053e-05
-0.0810055
-0.00788044
5.60842e-05
0.35411
0.698458
-0.000506882
-0.0697502
1.13577e-05
0.588336
0.0782622
-0.0720667
8.04356e-05
0.0294784
0.112887
0.13062
0.095421
-0.000949087
-0.000365466
-0.0322515
1.10814e-06
4.43684e-06
-0.0542912
-0.055878
-0.0845394
0.671043
0.000445982
-0.0549601
0.017441
-4.13897e-05
-0.00279382
5.57682e-05
-0.0131428
8.81557e-05
-0.0226155
0.0582182
0.544187
0.0884898
-0.000664219
0.0010347
-0.059612
0.140339
-0.0070205
1.69759e-05
0.313445
-0.155593
-0.0760001
-0.0297243
-4.97959e-05
-0.000657593
-0.161555
-0.0410695
0.230253
0.520712
-0.0808502
-0.0029184
-3.9944e-05
-0.0858627
-0.111624
-0.000487874
0.0072524
-0.0303015
-0.0104784
0.502975
-0.00299262
0.0149446
0.271151
-0.016898
0.647579
0.644731
-7.90737e-05
-0.000105823
-0.0342726
0.0346483
-0.0676636
0.0120614
-0.0163576
-0.0013427
0.572096
0.271238
0.00518946
0.761962
8.78128e-06
0.176059
-0.0989118
-0.0531032
0.000198373
-0.0701202
0.181735
0.033207
0.118568
-0.00105629
-0.0011354
-0.00299095
-0.00778886
-0.0284604
-0.00242888
0.215697
-0.0118816
-0.0116605
-0.109437
0.478822
0.0633633
0.0660251
-0.000944373
-0.00120189
-0.0410085
0.00226302
-0.0058653
-4.74893e-05
-0.000824012
0.182253
0.511342
-0.000308509
0.316787
-1.99595e-05
-0.00750155
-3.41125e-05
0.0123383
0.0378239
-9.89385e-05
-0.000102169
-0.103201
2.10795e-06
0.09797
-0.0477021
-9.58226e-05
0.282345
-8.67283e-06
-0.000938959
-0.000215784
-0.0112045
-0.00088644
-0.0135495
-0.112549
-0.000789031
0.00971435
-4.62589e-05
0.459315
0.0119036
0.0628135
-0.0635728
-0.0452589
-0.00257547
0.00668081
0.317635
-0.0503416
0.300159
-0.0774684
-0.00775096
-6.28326e-06
-0.0126454
0.488909
0.304532
-0.0660996
-0.0963456
0.445112
-0.0182266
-0.0939384
-3.38376e-05
-0.0497566
-0.00192313
0.74212
-0.0852764
-0.000210764
-0.104331
-0.0515017
0.355714
-0.0057943
-0.0539701
-0.00812489
-0.0116133
-0.00291399
0.354492
-0.156186
-0.0389073
-0.0307566
-0.0268509
0.0126737
0.438533
-0.037736
0.278733
0.00621198
0.0069175
0.613935
-0.0185253
-0.000541582
0.359782
0.493051
-0.00120401
0.0446869
-0.0140741
-0.0628424
0.345731
-0.0862684
-5.42521e-05
-0.0159366
6.89257e-05
-0.00985498
-5.75184e-05
-0.00959701
-0.00219571
-0.00690189
-0.0302337
-0.00137912
-0.00115888
-0.00242652
0.300506
-0.00460772
-0.00717587
-0.00654466
0.258884
0.0117592
-0.000844344
0.485321
0.63661
-0.0391823
0.572138
-0.0346178
0.459736
0.0120791
-0.0207441
0.00572532
-0.00104489
2.97735e-05
0.00569205
-0.0240337
-0.0390995
0.273198
-0.045164
-0.03971
-0.00205214
-0.0150493
-0.046813
0.0144238
-8.54466e-06
0.0274017
0.228965
0.492789
0.0574335
-0.026521
0.220995
-0.000760888
0.0728429
-0.0353499
0.00140375
-0.103092
0.0072949
0.460166
-0.00443879
-0.00118513
-0.000263918
-0.0898058
-0.00261965
0.74695
0.770723
0.0250031
-8.12671e-05
0.0174364
-3.98422e-05
0.130027
-0.00117067
0.0449826
0.688537
0.114716
3.1876e-05
-0.0162734
-2.39009e-05
-0.158694
-0.0666301
0.5728
0.000468882
0.0240788
0.00713586
0.000586432
-0.00471146
-0.000649917
-0.0119977
-0.0673703
-0.0444997
0.01576
0.276653
-0.0258776
0.0130329
-0.0390911
-0.00347088
-0.0517193
1.96936e-05
8.24898e-05
-0.00444843
0.0567191
-0.0521311
-0.0307394
-0.00728202
0.00545583
-0.0236708
0.369601
-0.0247011
-6.79385e-06
-0.0982594
0.532225
-0.00210596
-0.0232557
0.155422
-1.31277e-05
-0.00138508
-0.0544303
-6.5585e-05
-0.0009138
-4.07754e-05
0.762299
0.0176517
0.00720369
5.83402e-07
3.46442e-06
-2.18563e-05
-2.53961e-06
-0.0431184
0.49505
-0.0662635
-0.000950547
-0.000332292
-0.00974448
0.569724
-0.0892454
0.527125
0.0667952
0.213616
-0.000241353
0.563657
-0.00433132
-0.0179372
0.0439599
0.0180838
0.0203275
0.275638
-0.0761655
0.556781
0.406116
-0.0153081
-0.0512029
0.0118482
-0.0551246
-1.03344e-05
-0.00182461
0.00531572
0.119155
-0.0124248
-0.0433255
-0.00619636
0.666949
-0.110454
-6.85024e-05
-5.82578e-05
0.578862
-0.00937834
0.00542375
-0.024715
-0.00431306
-0.0283023
-0.0181664
0.00715428
0.177621
0.0723385
-0.0187086
-0.0263567
0.000138818
-0.0108174
-0.00165551
-0.0148513
-5.57824e-05
9.09706e-05
-0.0284446
-0.0370904
0.55171
-0.0271841
-0.00039025
-0.00285107
-0.00060111
0.482541
0.00217511
-6.98445e-05
-0.0479957
-0.00840963
-0.00654253
-0.0508409
-0.0593954
0.0124551
0.10315
-0.101194
0.000116575
0.0108838
-0.0245353
-2.11122e-05
-0.000123273
0.177323
0.138033
0.0570964
-0.0880958
-0.0874216
0.000945099
0.599164
0.000122066
-0.0267438
0.507056
-0.0311625
-0.0656983
5.68062e-06
0.000266418
-0.0652082
-0.0170419
0.00250653
-0.0586169
0.328774
0.395014
0.0012188
0.000436583
0.317921
-0.0226978
-2.19974e-05
-0.00268028
-0.0506328
-0.0382275
-0.0171127
-0.00292662
0.320913
2.13432e-05
0.122328
0.387441
5.13773e-05
0.0222145
-0.000815889
-0.116245
-0.0243875
-0.00121198
0.0462042
0.00033392
0.32403
0.00248636
0.0376351
0.0510883
0.691163
0.471235
-0.0948548
-0.0123529
5.59747e-06
0.0712969
-0.0225838
0.233066
0.439735
-0.0583853
0.00308216
-0.026781
-0.0102645
0.21111
-0.000336311
0.564709
0.0416643
7.50744e-05
5.35348e-05
0.000158595
-0.0203908
-0.0279991
0.00116567
0.128244
0.198186
-0.0873051
0.000946633
0.000102682
-0.0359911
-6.79874e-05
-0.00445777
-0.0171239
-0.00100161
0.0928773
0.0070801
-0.00212045
-0.00584858
-0.0243636
0.471661
0.483232
0.0590003
-1.83217e-05
-0.000852271
0.344396
-0.000713165
-0.105722
-0.000321908
-0.0300948
-0.112443
-0.000331293
-0.000362525
-0.0483179
0.00215995
-0.000119647
-0.00202147
0.298036
-0.0522545
-6.56076e-05
0.14126
0.458969
0.474556
0.000966933
-0.111121
-0.0139792
0.529128
-0.095979
-0.0982694
0.000565472
-0.0192653
0.0437543
-0.0381478
0.474317
0.134894
-0.000276464
-0.0801312
-0.107535
-0.00564571
-2.6902e-06
-0.00265103
0.291891
-0.000301744
0.00886053
-0.0059162
-0.00177686
0.0133804
0.0425802
-0.00028591
-0.000194582
-0.00865709
-0.113229
-0.0523791
-0.105604
0.329768
-0.0021642
-0.000423075
-0.0525683
-0.0351845
0.0148479
0.0198235
8.95108e-05
0.105514
0.20974
0.0276171
0.036451
-0.000950223
-0.0196356
0.0900145
0.00192442
-9.98669e-05
-0.0133251
-0.00592953
-0.0011015
-0.0161077
-0.00126685
0.366271
-0.0132318
-0.15834
-0.0346937
-0.0157161
0.0171733
0.585906
-0.0641135
-0.000195303
0.560771
0.232751
0.01132
-0.00859272
0.0110048
0.0553197
0.223088
0.000501296
-0.00371146
0.687434
0.384094
0.433774
-0.0645277
-0.00207011
-0.00181966
-6.51286e-05
-0.00192207
0.401371
0.118997
0.0021476
-0.00509
-0.000546671
0.0144238
0.652191
0.507375
0.115077
-0.00415312
-0.0929686
-0.00577563
-0.00107886
-0.0281505
0.0233538
-0.0396768
-0.0051675
0.00132519
-0.12231
-0.115989
0.0436647
-0.0356479
-0.00353886
-0.0376482
-0.000306049
-0.0100437
-0.00102673
0.453247
5.95257e-05
2.84694e-06
-0.0310255
-0.0286299
-0.0416564
0.0561963
4.73717e-05
-0.119956
0.0993502
0.273278
0.733144
-0.00670479
-0.118767
0.044504
-0.0030254
0.127599
-0.000890469
0.0152549
-0.0002934
0.360844
-0.0399532
0.0155172
0.199296
0.165621
0.00215039
0.00466904
4.54621e-06
0.530992
-4.70218e-06
-0.0654687
0.000478075
0.00248015
0.255869
0.146355
-0.102058
-0.0564253
-0.00585668
0.768302
-0.106947
5.60609e-06
-0.0222948
-7.5612e-05
-0.0186747
0.149295
0.273158
0.00128086
-0.0506167
-0.013545
0.209262
0.10927
-0.0467029
0.672152
-0.0142343
8.92094e-05
-0.141026
0.695442
0.00324947
0.132491
-0.0623626
0.215956
0.00273362
0.0531372
-0.110259
0.00853062
0.0788708
-0.0295195
0.293855
-0.0375183
-0.0277144
-0.00117264
-0.0011806
0.611263
-1.5886e-05
-0.00742932
-5.23107e-05
-0.0116128
0.00050198
-0.0104091
0.352421
-3.77501e-06
-0.00149086
0.18908
-0.158952
-0.0323459
0.00165971
0.513231
-0.0715922
0.239692
-0.0170484
0.219053
0.0104088
-0.00109608
-0.0105061
0.00110496
0.625361
-0.0381423
-0.000183896
0.00326713
0.201113
-0.0161254
-0.0010259
-0.000200754
-0.111603
-0.00375544
-0.0138924
-0.104126
2.615e-06
-0.0996282
0.00058783
0.457157
-0.0145309
0.211232
0.006623
-0.00528937
0.370113
-0.0752674
-0.134403
-0.00618673
-0.118198
0.38048
0.401523
-0.0201613
-3.71174e-05
-0.022128
0.00667513
6.36246e-06
0.111339
0.490017
0.0181475
0.00229493
0.0160577
-0.10135
-0.000255705
0.121265
0.0728986
0.113093
0.019149
0.0399375
-0.0005727
0.246536
-0.0250437
-0.165306
-0.00146374
0.0328297
0.208135
0.00115593
-0.104512
0.300643
-0.0548287
-0.106158
-0.108469
-0.100551
-0.104592
0.0760089
0.300924
-0.127381
-9.98133e-06
0.00125892
0.00121661
-0.00259877
0.016237
-1.54274e-05
-0.00824619
0.00572172
-0.000110494
0.0821435
-0.000761232
0.172285
-0.0467198
-0.00720683
-0.00991681
-0.0123292
-0.09531
-0.00845984
-0.00147515
0.0306195
0.114127
0.00675161
-0.047706
-0.00428515
0.0429056
-0.0136307
-0.027668
-0.107115
-0.0228615
-5.96894e-05
-0.0218798
0.558791
3.61165e-05
0.221178
-0.0505971
0.659302
0.0703145
-0.0676807
-1.55371e-06
0.00243178
-0.120914
-3.1275e-05
-0.00393022
-7.08834e-06
-0.104314
0.00653159
-0.106346
-0.0331604
-0.000193913
0.368593
0.355633
-0.0512664
0.000646739
-0.000263968
-1.04784e-05
-9.20769e-05
0.601732
-0.00193347
0.00330176
0.0314129
0.00136643
-0.000876572
-0.10913
-0.000376598
0.0696743
0.00476991
-0.00303496
-0.00109339
-0.0371292
-0.0599696
0.254467
0.159834
-0.000249487
-0.0189719
0.000775182
-0.0567014
-0.000780751
0.198195
-0.0114428
0.766171
-0.0189965
-0.00213184
0.108001
-0.0274019
0.452033
-0.0608878
-0.016348
-0.01882
0.0264793
-0.00523329
4.05116e-06
-0.0120586
0.408055
-0.063551
-0.00474917
-0.0605376
-0.0392492
0.213926
-0.000756526
0.376503
-0.000953726
-0.0931114
-0.000791265
0.0192724
0.0672207
-0.00343442
0.441452
-0.000706168
0.0476479
0.126724
0.000702347
-0.000212707
0.645455
0.106742
-0.000919645
0.0436458
0.034072
0.00017403
-0.0589809
-0.0320048
-0.152671
-0.0149388
0.435936
0.0063337
0.260982
-0.000596961
0.508115
-0.103254
-0.00777119
0.00904229
0.045427
-0.0938241
-0.116252
-0.0125449
6.06611e-05
0.705413
-0.0328693
0.00117885
-0.0215107
-0.0577141
0.449246
0.00437533
-0.0237957
-8.87426e-05
0.142125
0.0117656
-0.0559524
0.00117079
-0.00513441
-0.0409398
4.76228e-05
-0.0758571
-0.00232157
-0.0216124
-0.0937026
0.383579
-0.0150232
0.0920558
-0.0516809
-0.045361
-5.78148e-05
0.000199049
-0.00552812
4.97392e-05
-0.0164604
0.0619054
-0.0030521
-9.31578e-06
0.631865
0.00734049
0.000471209
-7.01411e-05
-0.0031706
0.43527
-0.0773715
0.706736
0.260414
0.0328366
0.378839
-1.75753e-05
-0.0207603
-0.00126663
-0.00368799
0.272037
-0.0146811
0.708626
0.35037
-0.0828522
0.361857
0.0133263
-0.0208324
0.00327198
-0.0510149
-0.00589581
-0.0760389
-0.0823821
-0.00449688
0.358353
-0.0146311
0.000195941
-0.00639039
-0.00100799
-0.050242
-0.000259973
-0.00188997
-4.38695e-05
0.227379
-0.111236
0.368895
0.0419436
-0.00408936
-0.0471858
-0.0293328
0.10576
-0.00457647
-0.00160265
-0.0965063
-0.0660659
0.0170562
-0.0630533
-0.00670197
0.0206
0.00430854
3.8653e-05
0.200173
-7.22883e-05
0.0827522
-0.00122431
4.15751e-06
0.00292082
-0.00102224
-0.00184323
-0.0234779
0.260196
0.212303
-0.0294418
-0.0186412
0.00426327
-0.00765804
-0.0151703
-3.35845e-06
-0.000753963
0.00100045
0.164839
-0.0126198
-0.0829551
-0.0699752
-0.00321258
-0.0314251
-0.0164209
-0.00258804
0.00781789
-0.0185011
0.335152
-0.0989083
0.00902508
0.0033335
-0.0553937
0.694941
-0.0148301
-0.00656878
0.0114805
0.119502
0.00591895
-0.00154264
0.360131
-0.000564702
0.0661719
-0.0334134
-0.0751167
0.00935155
-0.00556713
-0.00826306
0.0608839
-0.00543314
-0.000955648
0.00157523
0.00377016
-0.000367459
0.0528767
-0.0139577
-0.00307736
-1.68486e-05
0.22992
-7.12386e-05
-0.0450494
0.115625
-0.0344341
0.000187432
0.162865
-0.0549493
0.246614
-9.44965e-05
-0.00586126
0.168744
0.000248087
0.00730444
-0.00676846
0.0154239
-0.0305782
-0.0478426
-0.012667
-0.00404307
0.0146239
0.0304834
0.176446
-0.000292752
0.169483
-0.0594366
-0.00492831
-0.0103976
0.000583476
-0.0791224
0.000101789
0.563699
0.316606
-0.000752265
-0.0313994
0.000232068
-0.00325627
-0.00781603
-0.0205543
0.228497
0.247605
0.0391815
0.0150475
-0.10806
0.0566027
0.09851
0.118337
-0.0755501
0.0264541
0.306252
-0.0142339
0.492981
-0.00140291
-0.0162556
-0.0719363
-0.000154198
-0.00114531
-6.45285e-05
0.489478
-0.0153689
0.00037785
-0.0229002
-0.00676817
-0.000500128
-0.0195204
0.390574
0.00143629
0.0162579
-0.0421743
-0.00071783
-0.00684689
-0.00121748
0.717136
0.000298205
3.54126e-05
-0.00281949
-0.0208048
0.174172
0.000777508
0.0246444
0.114669
-0.000248197
0.00307502
-0.107526
0.128066
-0.0537855
1.2018e-06
0.000484214
0.0106315
0.0474357
0.415615
0.135258
-0.0504482
1.47568e-06
-0.0733829
-0.00391226
-0.0183379
-0.0177203
0.251069
0.542974
-0.000169017
0.213439
0.329029
-0.014305
-0.0144787
-0.033058
-0.0164331
0.000149897
-0.0585763
-0.012524
-0.000194367
-0.000821447
-0.00234546
-0.00281983
-0.00100959
0.408801
0.43861
0.294884
-6.79154e-06
-0.0339216
0.0835635
0.153755
0.570353
-0.000734386
-0.0293108
-0.0268711
0.416749
-0.0277381
-0.013718
0.00828727
0.218468
0.000422812
-0.000745011
-0.0360936
-0.0561171
0.216708
0.0801244
-0.0570583
-0.0334768
0.17928
0.0299799
-0.0703298
0.0102023
0.0798541
0.229459
-0.000526544
-0.000933403
0.164552
0.00028813
0.0602949
0.045984
-1.85856e-05
0.394136
-0.0152976
-0.00652128
0.734611
-0.0531101
-0.0123652
-0.0547593
-0.00365735
0.538626
0.0016659
0.696907
-0.000210508
-0.0113638
0.709281
0.0099868
0.536726
-0.00839845
-1.33828e-05
-0.0315589
0.548674
-0.00233019
-0.00969591
-0.0117723
-0.00148255
-0.0305667
0.54904
0.166299
2.40695e-06
0.0296725
-0.00547191
0.0437278
-0.00131635
0.0335786
-0.00385424
-0.000700043
0.523705
0.56116
0.528702
-0.0742817
0.0989226
0.000198965
-0.0816518
0.377261
0.0250286
0.000335338
-0.0831504
0.000848504
-0.000162278
0.557432
0.000172279
0.00616107
-0.00282772
-0.0130025
0.533522
0.550691
0.564394
0.0173766
0.000683132
0.295636
0.0110006
0.0394485
-0.0132261
9.46934e-05
-0.00430153
-3.4501e-05
-0.0066235
-0.00110039
-0.00830061
-0.000109761
0.211099
0.00308033
-0.0978287
-0.013176
-0.102112
-0.0234904
-0.00114075
0.455085
-0.0155923
-1.82524e-05
-4.89414e-05
0.686392
3.75996e-05
0.0165817
0.0865927
-0.0258547
0.401569
-0.00758669
-0.0619107
-0.0524988
-0.000720873
0.000172607
0.342038
0.561279
-0.00225789
-0.0300601
-0.000350334
0.556238
0.66325
-0.00210476
-0.00934409
0.0279987
0.00452174
-0.0349832
8.46639e-05
0.0146925
-0.0537276
0.0875684
0.459935
-0.00219256
0.041352
0.179029
0.0839809
-0.0631654
0.0411616
0.645039
0.266674
-0.0761997
0.563671
-0.00086653
0.569507
-0.0100751
0.477565
0.116732
-0.00732181
0.0571586
0.0035048
0.0255526
-0.103687
-0.000982311
-0.0332794
0.47933
-0.037224
0.0415922
-0.0021555
0.0404105
0.259104
-0.0131692
0.0274542
0.00101617
-0.00520655
-0.0340447
-0.00312954
0.00288261
-0.0127077
-0.000735015
0.00352293
0.474224
0.00319758
-0.0227662
-0.0823602
-0.041175
-0.0901397
-0.111213
0.00607497
-3.88964e-06
-2.3128e-05
0.348228
-0.0752481
8.06499e-05
-0.0471814
0.241829
-0.0839603
-0.0212057
0.00016002
-0.00274681
-0.0654269
0.209826
-0.0117568
-0.00070211
-0.0652689
-0.0274185
0.71206
0.153737
0.100633
-0.0704539
-2.94396e-06
-0.00961675
0.0916593
-0.000545454
2.43363e-05
0.232586
0.143932
0.000880922
-0.00124609
0.0125507
-0.0498877
0.014892
0.0120812
-0.0213678
7.10026e-05
0.390593
0.000828419
-0.000883883
-0.000346595
-0.000322538
-0.000231394
0.113932
0.00135006
-0.004005
-0.0135095
-0.00652519
0.0411362
-0.00765129
-0.0582826
-0.014677
0.51365
0.431727
-0.000710427
-0.00209704
0.139291
-0.00117709
-0.0280109
0.110121
0.158328
-0.00138806
0.0291073
0.0565728
0.00186491
0.162698
-0.000155367
0.010505
-0.0009057
0.0197151
-0.0202591
0.0680611
9.73928e-05
0.00103001
0.000379884
-7.59796e-05
-0.00208521
-0.0135657
-0.0178326
-0.0402723
0.102048
0.0562961
0.0128972
-0.086717
0.0171199
0.011291
0.018472
7.77414e-05
0.549075
-0.0114696
-0.00458109
0.00800751
0.720939
7.91978e-06
0.130504
-6.06155e-06
-0.0279931
-0.00891457
-0.0296801
0.231052
-0.00554217
-5.91847e-05
0.265173
0.0980115
-0.000784222
0.0712358
-1.66588e-05
0.213628
0.0103599
-0.0382854
-0.00020945
0.3194
0.0395883
-0.0279546
4.65817e-05
0.22195
0.39794
-0.00156352
-5.69654e-05
-0.0492794
-0.0123613
0.014928
0.036166
0.572157
0.3423
0.000654573
0.433886
0.327226
-0.00391204
-0.0761079
-0.0456151
-0.0206563
-0.071798
0.216506
0.00111551
0.59452
0.203354
0.0172057
0.000120389
0.00086099
1.12847e-05
-0.000780183
-0.00380379
0.635181
3.91129e-06
0.105756
0.0369769
-0.000320016
0.592727
0.663805
0.257424
0.294421
0.0438441
0.00337513
-0.000400397
-0.014911
-1.82533e-05
-0.00150745
-0.158714
-3.94778e-05
-0.00229443
0.605618
-0.0156462
-2.80438e-05
0.627629
0.000619627
-0.0476505
-0.0946836
-0.00179375
-0.10413
-0.00032598
0.221012
0.00453209
-0.0219649
0.00262736
-0.000897902
-0.000538504
-0.000309555
-0.166656
-0.0811732
0.198833
0.00382017
-0.00302417
0.308835
9.47984e-05
0.693539
-0.000718325
-0.115503
0.00304287
0.00221031
0.0682304
0.0720927
-2.9728e-06
-0.00552999
0.000136554
-0.000917165
0.00113284
0.111077
0.0653035
0.40386
-0.0535929
-0.000139869
0.000221233
0.12895
0.443768
-0.00598311
-0.00842443
0.69245
-0.00374559
-0.0275074
0.00127042
0.114705
-0.0501085
-0.0113936
0.203149
0.00178678
-0.000342756
0.00223168
0.0362725
0.684321
0.547084
-0.0321275
-0.0485094
-0.00853245
0.00210681
3.04618e-05
0.099195
0.265369
1.98001e-06
-0.00972717
-2.6232e-05
0.000173071
0.518498
-3.63814e-07
-0.101099
-0.0740289
-0.116951
0.0924869
2.99128e-06
0.0133665
-0.00809865
0.481839
0.0236771
0.00669787
-0.0400791
0.000840745
0.443945
0.264145
0.0149309
0.0816315
0.612388
-0.0854792
-0.0767847
-0.00256273
-0.0093592
-0.000519527
0.0375566
-9.7114e-05
0.21278
0.00389418
0.262409
-0.0452688
-1.93417e-06
0.0786533
-0.000231255
-1.04143e-05
-0.00102021
0.677436
0.651591
0.405271
7.34481e-05
0.2536
0.568008
-0.00130965
0.00280985
-0.011236
0.127537
0.553021
-0.036481
0.157676
-0.00333008
-0.0865614
-0.0980705
0.745236
-0.000808023
0.546344
0.115248
0.242422
0.000144778
0.000275981
0.00722785
-0.0118633
0.110483
-7.72546e-05
8.38073e-05
0.536309
-0.121064
0.000382253
0.560405
-0.00309273
0.000197607
0.465104
-0.0086467
-0.00202437
0.0592085
0.220291
0.000417102
-0.000181045
0.00468495
-0.00538814
0.533179
0.673706
0.367591
0.727482
0.190491
-0.0612517
0.617974
-0.000110868
-0.00425777
0.217354
-0.00454314
-0.000873904
-0.00013768
0.559336
0.0500179
-0.00086917
0.656392
0.098102
0.332311
0.0576446
-0.00361968
-0.0271704
0.215859
0.0994846
0.559243
-0.0304469
-0.0010468
0.515859
0.485541
0.0178572
0.410026
-0.0502819
-0.0103234
-0.0121335
-0.000854344
-0.000191085
0.521015
-0.0823111
0.0518703
0.00120449
0.20194
-0.0416144
-0.0196588
-0.00128846
-0.00474269
0.578542
-0.00106776
-0.022791
-0.00396797
0.571282
-0.0251226
0.0263538
-0.00988567
0.00183652
0.195206
-0.0289833
0.589573
0.200215
0.724875
0.308295
-0.0798012
0.0407572
-0.00236029
0.0252202
0.00834509
0.54037
0.574389
0.637822
0.403941
0.525962
-0.000497424
0.605745
-4.45706e-05
8.60714e-05
-0.0632261
0.652138
0.0652901
0.312712
-6.33795e-06
-0.00285687
-0.0358978
-0.0444092
0.531294
-0.000906433
-0.0101289
0.404923
0.00136195
-0.00556894
0.703499
0.0614042
-0.0489125
-0.11875
-0.000719428
0.12393
0.195593
0.733597
0.16312
0.0948738
0.00573797
-0.000317975
-0.0020075
0.239521
0.00864748
0.000166632
-0.0779963
0.29662
-0.00195813
0.548532
-0.0903495
0.553913
-0.0189987
-0.029761
0.614756
-0.00700362
0.0930777
-0.000542082
-0.00174261
-0.0846935
-0.0293511
-0.0475827
-0.0126752
0.0203221
-0.0876261
-0.0932911
0.552969
0.000333036
0.00098303
-0.0262313
0.154229
-0.101873
-0.0770167
2.49355e-07
-0.0816513
0.061167
-0.000143773
-0.100755
0.0408464
0.55776
-0.11178
0.547862
-0.01774
0.159988
0.302269
-0.0455468
0.397147
-0.00227506
0.150227
0.00171862
0.107802
0.243321
0.213655
-0.036494
0.00797859
-0.000860682
0.218345
-0.000112468
-0.000176035
-0.0013689
0.0156439
0.0226239
0.0193355
0.472212
0.201746
0.685263
0.439964
-0.00200612
-0.0423653
-0.000226647
-0.0613645
-0.00153026
0.00744164
0.000820247
-0.0405001
0.395697
0.544298
-0.000386434
2.62955e-05
0.0865898
-2.01337e-05
-0.011783
-0.000244555
0.174832
-0.0458415
0.226579
-0.107713
4.45742e-05
-0.0179046
-0.0512721
-0.0308662
-0.0210825
-0.0680217
0.0848082
-0.000218963
-4.78037e-05
0.00266854
-0.000186549
0.108498
0.1558
0.0510352
0.639672
0.057479
-0.146576
-0.113093
-0.000577713
0.0644309
-0.000168019
0.518491
0.122507
0.599982
0.000174567
-0.0417353
-0.00874278
0.0645404
0.269056
0.480529
-0.00969308
0.0451906
-0.00248071
-0.0232817
-0.0102664
-0.00781965
0.130755
0.00201941
-0.0095191
-0.0259044
0.320747
0.0894458
3.82804e-06
-0.00115162
-0.00795628
-0.000790782
0.150902
-0.000868409
-0.0321451
0.190823
9.55037e-05
0.31107
0.000108193
-4.27376e-06
-0.111658
-0.0199925
0.000205203
-0.0286858
0.000204355
0.624933
0.0158386
-0.0310256
0.581798
0.153835
-0.0401723
0.464847
-0.00354606
-0.00241082
-0.00268135
0.108826
0.769839
-0.00192421
-0.000785908
-6.25466e-06
0.00998017
-0.00161598
0.0319522
0.00777606
-0.0267053
-0.0754774
0.0234567
0.0137162
-0.023693
-0.000702181
0.00710566
0.466282
-0.00232509
-0.0175235
-0.000304818
0.473279
0.0700328
0.461063
0.000543542
-0.00110014
-0.0300265
0.641038
0.175896
-0.0359467
-0.000175326
0.0399094
0.143577
-0.0173771
0.245691
-0.0609636
0.025863
-0.15254
0.480237
-0.0195021
0.292527
-0.00405023
0.732266
-0.0524549
-0.0139952
0.589289
-0.0546785
0.197534
-0.166022
0.217156
0.00815564
0.0625848
0.379334
0.0621805
-0.0614402
-0.0123167
-0.00951823
-0.0130874
0.0181478
-0.00185364
-0.0711391
-0.0360368
0.00250467
-0.084025
-0.1057
-5.24218e-05
0.190635
-0.0115812
0.201445
0.596176
0.432377
-0.0684653
-0.0905466
0.000571525
-0.0850851
-0.00525838
0.709143
-0.0447862
-0.0385373
0.426605
0.0594442
-0.0499427
0.289568
-0.0469288
-0.000835099
-0.01489
0.0127282
0.000826175
0.44722
-0.00346289
0.169224
0.402427
-0.00728214
0.279771
-0.116236
-0.000485839
0.00848569
0.121926
0.413685
-0.00323573
0.10948
-0.0886993
0.0930731
-0.0290671
0.435408
0.0173574
-0.0552606
-0.00369043
0.000227748
0.545019
-0.00313777
-0.0338018
-0.000145139
0.245001
-8.61462e-05
-0.055936
-0.00149864
-0.130165
0.00081668
-0.0127227
0.251983
-0.00496772
0.00117018
0.000789069
-0.00523463
0.086951
-0.000108302
-3.43871e-05
-0.0108102
-0.0133987
-0.0284734
0.0102761
-0.00244862
0.0924796
0.0970004
-0.00163616
0.00128578
-0.000263734
0.53832
-0.00537061
-0.00875975
0.473429
-0.0231882
0.440542
0.0669809
0.553132
0.268313
0.139444
-0.00191849
0.00108521
0.0992771
0.0298872
-0.00557166
0.00023106
0.0106644
-0.0647901
-0.00122944
-0.0105561
-0.0101954
-0.0114804
-4.16184e-05
-0.00417721
7.55547e-05
-0.000100581
0.00109691
0.389531
0.260789
-0.0140337