/*--------------------------------*- C++ -*----------------------------------*\
  =========                 |
  \\      /  F ield         | OpenFOAM: The Open Source CFD Toolbox
   \\    /   O peration     | Website:  https://openfoam.org
    \\  /    A nd           | Version:  7
     \\/     M anipulation  |
\*---------------------------------------------------------------------------*/
FoamFile
{
    version     2.0;
    format      ascii;
    class       volScalarField;
    location    "23.5";
    object      p;
}
// * * * * * * * * * * * * * * * * * * * * * * * * * * * * * * * * * * * * * //

dimensions      [0 2 -2 0 0 0 0];

internalField   nonuniform List<scalar> 
7807
(
0.273076
-0.0143821
0.387084
0.246055
-0.000962452
-1.34e-05
0.380025
-0.00544437
-0.000112517
0.0976704
-1.30992e-05
0.00194818
-0.00830531
0.0460015
0.101869
-0.0164907
0.285052
-0.0111689
-0.00148186
-0.0978638
0.0628751
0.0011955
0.0324172
0.191062
-0.0146831
0.281556
-0.000894053
0.0577799
0.159843
-6.65079e-05
-0.0207504
0.520769
0.0317465
-0.000440812
-4.56882e-05
0.0791037
0.000130905
0.368471
-0.00699762
-0.00021013
-0.00670837
-0.0155973
-0.105632
-0.0648397
-0.000101309
-3.61387e-05
0.00117609
-0.00699239
-3.48157e-05
-0.0972833
0.0031732
0.05447
-0.0186344
-0.0137361
0.0782373
-0.00517928
-0.00122585
-0.00528626
-0.0307438
-0.000436945
1.23151e-05
0.00424013
0.0463184
0.00220861
-0.000702979
-0.0207928
-9.64458e-05
4.99192e-07
0.0882695
-0.00655777
-3.31461e-05
-0.068098
-0.0142799
-0.0246062
-0.0108678
-0.0444072
0.382731
0.0614464
0.051521
-0.0664245
-0.00804448
0.327453
0.093691
-0.0276428
-0.00196723
-0.00194731
-0.00606917
-0.0181992
-0.000834162
-0.00396184
0.163729
-0.0717017
-7.64302e-05
-0.000730304
-0.00341967
-0.0231206
-0.0651091
-0.0106192
-0.00207217
-0.000877627
-0.045357
0.0603364
-0.00328905
-5.49515e-06
-0.0597371
0.169633
0.442646
-0.00542236
-4.21168e-08
0.0270442
0.231868
-0.0714659
-5.9501e-07
0.0290216
0.169587
0.000233148
-0.0903239
0.13487
-0.0494556
-0.0261595
-0.0445529
0.311891
-0.100534
0.00971637
-0.0432113
-0.00116963
-0.0178316
-0.000118243
-0.000743766
-0.0205863
-0.126417
0.051913
-0.000585735
-0.000942806
-0.0283657
0.223747
0.374028
-4.80696e-06
0.00798729
-0.05954
-0.0227042
-0.0643137
-0.0459323
-0.0236604
0.442501
-0.03369
0.161228
-0.0319628
-0.0307033
0.311418
0.0751343
-0.0610456
-0.00188792
0.0665044
0.0932223
0.345308
-0.0521345
-0.00798905
0.45224
-3.03873e-05
-0.00156579
0.198198
-9.96408e-06
-0.00348641
-0.00383904
0.245118
0.245654
0.47072
-0.00369502
-0.00278209
6.31918e-07
-0.0404678
0.000230741
-0.00687724
0.00879445
-0.0302871
-0.0363233
0.150068
-8.21587e-05
-0.000535169
0.25217
-2.61661e-05
-4.85654e-05
0.385081
-0.0198705
-0.0586688
-0.0469938
-0.0242626
-0.0370456
-0.0598603
-1.01772e-05
-0.0622443
0.15745
-0.00343097
2.67868e-05
0.197111
-0.00106865
-0.0193665
-0.0348216
1.20855e-06
0.000429704
0.228973
0.188312
0.342331
-0.083098
-0.0657724
-0.146071
0.0633901
0.224955
-0.000109414
1.07691e-05
0.41582
-0.0141103
-0.000582945
-0.0599956
-0.0187593
0.315745
0.320663
-0.0694385
0.506014
-0.00100178
-0.0107314
-0.0460797
0.0774712
-0.13096
0.240839
0.447092
1.20517e-05
0.0104902
0.144044
-0.00605761
0.131916
-0.000780259
0.507118
0.336444
-0.0058575
0.000892486
-0.000195061
0.152913
-4.11617e-05
-0.0104514
-0.0615227
-3.72722e-05
-0.00205408
-0.000669125
0.155958
-1.18028e-05
-0.00411087
-0.0651046
0.515591
0.0430357
0.476279
-1.63838e-05
-0.0373508
-0.00020094
0.360411
0.00404486
0.375342
-0.00125862
0.000255077
-0.00674245
0.0665879
0.000389516
-0.000137989
0.000319295
-0.00642995
-0.0602976
-1.5784e-05
-0.0502018
-0.00368226
-8.31843e-05
-0.000638878
0.36733
-0.00753248
-0.000550854
0.46836
-0.00213819
0.256143
-0.000208667
-0.00714783
1.66714e-06
-0.0422763
0.0740222
-0.0257553
-0.0317356
-0.000470696
-0.0837548
-0.0154831
-9.05249e-05
0.000306667
-0.00320589
-0.00763387
0.00279656
-0.0016692
-0.0264569
-0.0544606
-0.0251981
-0.0506189
-0.0319109
0.342483
0.355676
-0.00148227
-0.0585309
-2.07004e-06
-0.00372316
-0.0231366
0.18583
0.105986
3.99837e-05
-0.00344048
-0.0310983
0.16305
-0.00119594
0.00355783
0.000938909
0.0454266
-0.14335
0.337313
-0.00138763
-0.0171095
-7.64481e-05
0.0029696
-2.43351e-05
-0.0272424
-0.000230116
-0.00190636
-0.0897069
-0.0417796
-0.00511815
0.00932435
-0.000530176
0.0213137
-0.0154429
0.073966
0.158557
-0.184807
-0.0735385
-0.0158651
0.00508242
-0.0604368
0.478993
-0.064062
0.0381692
0.497148
-0.00133835
-0.00180233
-0.0725229
-0.00158639
-0.0296802
0.00687238
-0.00258
-0.00184134
0.152905
-7.57775e-05
0.000368949
2.89541e-05
-0.00321048
-0.0108127
-2.67777e-06
-0.000912038
-0.0293975
0.422238
-0.00473767
-0.0135787
0.419361
0.278476
0.0607008
-0.0452011
-0.0409773
0.00474765
0.237949
-0.0113489
0.290318
-0.0420267
-0.11763
0.190112
0.294203
-0.0456929
0.0988422
0.23989
0.267163
0.061603
-0.0032791
-0.00479961
-4.76859e-05
-0.00636435
-0.0115397
0.000451899
-5.76246e-05
-0.00158457
-0.0824705
0.0835269
-0.0192071
-0.00718564
-0.00373167
-0.0195617
-0.00735261
3.45419e-06
0.210294
-0.00165104
-2.01701e-05
-7.65619e-05
4.59961e-06
-0.0236626
0.148189
-0.00397523
0.0351161
-0.142387
0.359087
0.00186641
0.00695921
-0.00582788
0.355666
-0.000833486
0.334918
0.164743
-6.29023e-05
-0.0445241
-0.00314438
-0.0629001
0.000386577
0.0695149
-0.00103602
0.00638296
-0.000686467
0.142002
0.165744
-0.06579
-0.0309361
-0.00342921
-0.0353231
0.0626672
0.511491
-0.079742
0.00334347
-2.69593e-07
-0.0149608
-0.00206822
0.0187841
-0.11417
-0.0726445
0.379061
0.150756
-0.13207
0.207991
0.345436
0.0359794
0.00070457
0.252396
-0.0013998
-0.000156718
-0.0163337
3.64348e-05
-0.160553
-0.00643554
-0.0390682
0.00158428
0.201068
-0.00161872
-1.85163e-05
-0.12444
0.00142912
0.0217037
-0.0441792
-0.0546327
-0.0123965
0.145393
0.118158
0.121562
-0.000128194
0.0745868
0.0820802
-0.000589141
-0.0187379
0.000424202
0.000416108
-0.0136431
0.00485911
-0.00103128
0.144668
-1.1728e-05
0.000102389
0.00172272
-0.0222268
0.0240896
-0.0352184
-0.0271082
-0.0555134
-0.146679
-0.00245711
0.245228
-0.0734752
-0.00729162
0.507693
-0.0652148
-0.0113994
-0.026786
-0.0134143
-0.0201245
-0.0113954
0.0335831
-0.0714744
-2.12135e-05
0.0288064
-5.21574e-05
0.338958
0.0991069
-0.00524906
-0.0133278
-0.000117722
0.327462
0.315775
0.0552318
0.160323
-0.0704303
0.380502
-6.78483e-05
0.012474
-0.0171016
0.155937
0.459338
0.0478472
0.14357
-0.0060917
-0.000138584
0.142507
-0.10483
0.342703
0.0239457
0.2125
-0.00759485
0.362471
0.300362
-0.00992294
-0.00843368
0.11594
-0.0560938
-8.7131e-05
-0.0145319
-0.0586193
-0.0799464
0.012809
0.00976759
-0.00012414
0.320505
-0.00470021
-6.78501e-05
-0.0491767
-0.00048188
-0.000148914
0.000501186
0.218021
-0.110102
0.433068
2.41607e-05
0.216865
-0.0400045
-9.09605e-05
4.99622e-06
0.15744
0.208148
-0.00457585
0.186497
7.62521e-06
0.197532
-0.177713
-0.0102712
0.358405
-0.0568132
0.149994
-0.0251697
0.196259
0.20615
-0.0189874
-0.0241678
-0.00965306
-0.00273129
-0.000174303
-0.00462882
0.273989
-1.90696e-05
0.188638
-0.108681
0.303698
0.178481
-0.0589133
0.431933
-0.00170467
-0.00336294
-0.070612
-0.020218
-0.00727656
-0.0435186
0.0279721
0.482266
1.48594e-05
-0.00199976
-0.0685707
1.13235e-06
0.347465
0.00147778
7.79886e-07
9.59263e-05
0.000233457
-0.025573
0.0181192
-0.00153654
-4.03654e-05
-0.00758432
-0.00100229
-0.122655
-0.0497327
0.0249097
-6.28879e-06
-0.176429
-0.0135725
0.121544
0.294069
0.000292613
0.126826
6.96693e-05
-0.0131428
0.0877831
-0.00751723
0.236783
-0.0146066
0.016438
0.0912887
0.148233
0.0006704
-0.0110098
0.18097
-0.0931293
0.36876
-0.0103135
0.270029
-0.00996788
-0.00103879
0.135849
-0.00983422
0.085147
0.00154476
7.12409e-07
-0.13748
0.203178
0.000655355
0.115558
-0.0137893
-0.177869
-0.0132769
-0.0368625
-0.00168611
-0.00796875
-0.0787337
-0.0292682
-0.0103383
-0.000212238
0.389988
0.120328
0.0344826
-0.000154223
0.296599
-2.46702e-06
-0.000138754
0.130144
-0.0072392
0.175073
0.0566944
0.0176092
-0.0641117
-0.145237
-0.01639
0.000980969
-0.0435831
-2.1282e-05
0.00116758
0.22799
-0.018049
-0.00288167
-0.0254962
-0.00196172
-0.000608744
0.465532
-0.0109686
-0.000602712
-7.29812e-07
0.131024
-0.0390665
-0.000377219
-0.00260133
0.153047
0.0815279
-0.0438809
-1.46648e-06
0.168609
-0.0223307
0.189946
0.0190002
0.0240584
-0.0318861
-6.18316e-05
0.0889405
0.0727669
0.0198485
-0.101142
0.272091
0.00608198
0.176942
-0.00766979
-0.0467833
-0.000292241
-0.00833219
-0.000175326
0.155691
0.253995
-0.00157576
0.0201068
-0.0177213
-0.0844894
-0.092713
-0.00176441
0.0103706
0.452668
-0.000582186
-6.98375e-05
0.0803111
-0.00680719
0.390442
-0.0133018
-0.022583
-0.0171854
-0.0251132
-0.0151785
-0.00812591
-0.00852453
-5.0191e-05
0.0202076
4.30526e-05
-0.163841
-0.0304917
0.337428
-0.0421331
0.1805
0.00169132
-0.0697733
-0.0290011
0.197183
-0.00803839
2.78276e-05
-0.0223728
-0.00866766
0.0139295
-0.0269499
-0.0248547
-0.0378462
-0.0141789
-0.0215267
-0.0864745
9.6003e-07
0.0359564
-0.0754452
0.153334
-0.0753627
0.0846224
-0.103054
0.311672
-0.00822763
-0.0325722
-0.0351572
0.407592
-0.138876
-0.0137112
-0.134416
-0.0573673
-0.124257
-0.0766212
0.170668
-0.00296334
0.231731
0.00918923
-0.000427358
-0.001745
0.0688719
0.506247
-0.000690818
-0.0416996
0.16075
6.38093e-06
-0.0230861
0.0315532
-0.0184735
0.00936524
-0.0020537
-0.0444344
-0.0058991
8.46092e-06
-0.0545561
0.2463
-0.00927792
-0.0171128
0.00155707
0.160691
-0.000457484
-0.00117136
-0.000272875
-0.0012918
0.0370432
-0.0119588
-0.00273379
-0.0195041
1.16257e-05
-0.137082
-0.0905303
-0.154603
-0.02933
0.0154309
-0.000145987
-0.016728
-0.065215
0.0166934
0.304513
-0.00212111
-0.0607317
-0.00533813
-0.00441957
0.14785
0.000265756
-0.000150324
0.125921
0.000437592
0.0134911
-0.00319837
-0.00180435
-0.0622829
-0.000209565
-0.0134775
-0.0120905
0.262179
0.246933
-0.0618833
-0.0741647
0.00736534
-0.00406497
-0.0141711
-0.0848813
-0.0309275
-6.60477e-07
-0.02
-0.0236197
-0.0932639
-0.00588443
-0.0427413
-0.000348401
-0.00303959
0.179983
-0.0306334
-1.48221e-06
-0.00252938
-0.12507
-9.80927e-05
-0.0370648
-5.75853e-05
0.000326618
-0.118881
-0.0611966
-4.15341e-05
9.40328e-06
0.112923
-0.0651089
0.327707
0.258871
-0.0244431
-0.00108804
-0.0280265
0.000110212
-0.128231
-0.11487
-0.0244979
-0.0173874
0.253373
0.00220234
8.67511e-05
-0.00142281
-0.144828
0.00161256
-0.0440069
-0.0636373
-0.00751706
0.0167003
0.0611203
0.000603037
-0.0273714
-0.0913321
0.168128
-0.0514756
-6.84337e-08
-0.130525
-0.0582754
-0.0600683
-0.000858268
0.000511868
-0.00136467
-0.122605
0.0259416
-0.0260909
0.12298
-0.0689298
0.0014536
0.0138589
0.00169434
-0.0277075
-0.139971
-0.000160413
0.129637
0.184721
0.00561055
0.207229
-0.0951317
0.0386688
-0.0657911
0.177458
0.0885635
0.483262
7.48879e-07
0.0884168
0.158434
0.0116019
-0.00109109
-0.0128099
-0.035213
8.86388e-06
-0.0150797
-0.0658109
-0.0139439
-0.0179206
5.43774e-05
-0.109563
-0.00035954
-0.00048533
0.210397
0.00182234
0.0637901
0.0141872
0.182058
0.0036508
-0.000508035
-0.131821
0.00267895
0.315955
0.000688986
-0.0675276
-0.00027424
-0.000338248
-9.96574e-06
-0.0782987
-2.27447e-05
-0.00719214
0.0211795
-0.00108301
8.52187e-06
-5.18147e-05
0.133354
-0.0575441
0.0031217
-0.000646265
0.00440342
0.0121777
0.00375817
-0.000303891
0.330925
-0.117117
0.194429
0.285184
-9.41265e-05
0.052261
0.0968796
-0.000535829
-0.00022106
-0.000595067
-0.0264198
0.00313599
-0.0243304
-0.0318418
-0.0787272
0.150503
-0.126436
2.06742e-06
-0.0165354
-0.0208724
-0.0274686
-0.00291278
0.00259745
0.000662306
0.0222154
-0.000275555
-0.00029755
-0.016206
-0.00338977
-0.0213516
-3.76664e-06
-0.0125078
0.027084
-0.0434346
-0.0520588
-0.00678518
-0.00936218
-0.00684898
-0.0038697
-0.00380072
-0.00675153
-5.78226e-05
-0.000392708
0.0162095
-0.00932757
-0.00384715
0.00463703
-0.00295263
-0.158625
-0.00924943
0.136701
-0.00921939
-0.0554049
-0.0296513
-0.0196802
-0.0125631
-0.00271744
0.000666089
-0.00267264
-0.0101277
-0.0124348
0.174107
0.133538
0.0379464
0.294233
-2.82665e-05
-0.0043635
-0.0121437
-0.00667907
0.079882
-0.0165222
0.0344416
-0.00539971
0.192543
-0.0015892
-0.00143298
0.000626541
-0.0310571
-0.00016319
-0.0304118
-0.00430843
-0.0163761
-8.45766e-06
-0.00479149
0.00107904
-0.0150759
0.0217307
0.0301476
0.0151355
-0.0113976
-0.0270192
0.101062
-0.00123981
-0.00136259
-0.00139006
0.420838
-0.000129775
0.05944
-0.0160801
-0.0174597
-0.019626
-0.0492782
-0.0223666
-0.0289429
-0.0171013
-0.00375099
-5.15383e-05
-0.00305728
-0.0162134
0.0864778
0.000947803
0.145486
-0.0282161
-0.0112904
-0.000511903
-0.0250894
-5.01344e-05
0.129227
-0.0262979
-0.0224487
-0.0207278
-0.00548079
-0.0337745
-0.00101509
-0.0345768
0.0888949
-0.0211987
-0.0939834
-0.000907185
-0.0221376
-0.0159574
0.0118783
-0.00257049
0.124016
-0.00157103
-0.0136926
-0.000579706
0.139718
-0.0332274
-0.0208818
-0.00216223
-0.00825496
-0.00220642
0.174905
-0.00995153
0.198169
-0.00566482
-0.000752504
-0.000782643
-0.00187925
0.170596
-0.0572846
-0.00588509
0.000132286
-0.0132392
-0.0264096
-0.00101237
-0.0259892
-0.0132724
0.0493963
-0.00370793
-0.00277618
0.389725
-0.0558448
-0.0206532
-0.0529151
7.39561e-06
0.0656633
-0.00258663
-0.0204062
-0.00470552
-0.0300612
0.000932219
-0.000392214
-0.00195114
0.00202719
0.174559
-0.00409736
-0.00130851
-0.003654
-0.0596039
-0.00655294
-0.0164731
0.0016559
-0.00653792
-0.00625728
-0.00251392
0.178866
-0.0396095
0.0019192
-0.00288337
-0.021607
-0.0100025
-0.0417268
-0.00127507
0.079601
0.0174818
-0.00649013
-0.00144644
-0.0119933
0.442178
0.175703
-0.00902143
-0.000320199
-0.00185523
-0.00927239
-0.00326606
0.0159366
-0.000340463
-0.0269625
-0.00131316
-0.0126633
-0.101889
-0.00108274
-0.0163822
-0.000890442
0.279016
-0.00609047
-0.00891086
-0.048198
-0.00114127
-0.0228967
0.0529398
0.390311
-0.00897596
-0.00985858
-0.00132054
-0.000466415
-3.46074e-06
-1.17118e-06
-0.00840386
-0.00048102
0.0998737
-0.000655614
-0.00127786
0.00475474
-0.000133468
-0.0382437
-0.0795314
0.0135265
0.0334598
0.0215038
0.0347202
-0.0663743
0.078388
0.0604366
0.0837717
0.106969
-0.00974383
-0.000634332
-0.00720544
-0.0888666
-0.00242465
-0.0120757
0.0161064
0.309599
-0.0695593
-0.000284193
-3.7973e-05
-0.000865733
-1.87584e-06
0.00193669
-0.000503744
-0.00588612
-0.0403939
0.000236691
0.00141295
-0.000123913
0.0515146
-0.0118034
-0.0674903
-0.00129042
0.27967
0.267986
-0.00880811
-0.105438
-0.0227358
-0.0181612
-0.0121105
-0.00144353
-0.102263
-0.0506723
-0.0431512
-0.0918375
-6.63194e-05
0.171823
-0.0320392
-0.00705545
-0.0478501
0.0140268
-0.000360037
-0.00714586
-0.000857159
0.00453522
-0.00179711
0.154043
0.000138194
0.00733467
-0.000209719
-0.120189
0.00616885
-0.00100222
-0.00630742
0.00011408
0.00308934
0.103208
-0.00478212
-0.00100152
-6.41633e-05
-0.000397434
-0.000318928
-0.0523011
0.109039
-0.00689168
-0.000124824
0.00316867
-0.000348547
0.199022
-0.0539
0.23147
-0.0375083
-0.000245724
-0.000277345
-0.0063133
-0.00415473
-0.000602679
-4.64842e-06
0.0187881
0.0228651
-0.00011918
-0.000357304
-0.0158622
-5.20426e-06
0.147164
-0.000746996
-0.045134
-0.0159847
-0.00461118
-0.0488195
-0.0590277
0.132513
-0.0385468
-0.0155371
-0.000164009
-0.0473887
-0.0153616
-0.012897
0.0917806
0.312132
-0.000687802
-0.0514326
0.00325806
0.282543
0.0320872
-5.48828e-05
-0.00505984
-0.00292086
-0.00403269
-0.0321718
0.0767062
6.75767e-06
0.00528439
0.000671458
0.0625065
-0.000312622
-0.000120809
-0.11281
0.257875
-0.0460759
0.133047
-0.00165124
-0.00011151
-6.16515e-07
-0.120546
-0.0279067
-0.000295417
0.0917062
0.00827031
-0.00426965
0.34562
-0.000465553
-0.00333333
-0.055127
-0.0455888
-0.0015024
0.118139
-0.0882679
-6.82835e-05
0.00157825
-0.00016003
-5.81672e-05
0.124101
-0.0132578
-0.000232281
-0.0393484
-0.0205851
-0.00228475
-0.0529118
0.00137941
-0.0169043
0.000713493
-0.00277659
-0.057032
-0.0325863
0.00419648
-0.000763073
0.138765
0.1819
-0.129831
0.0042329
0.014484
-0.00351925
0.145928
0.0937921
-0.0208131
-9.05561e-05
0.00501747
-0.0389792
-0.000371361
-0.0272321
-0.00172644
0.0303139
-0.0244093
-5.63385e-05
-4.96098e-05
-0.0615326
-0.0313032
-0.0197518
0.00539347
-0.016891
-0.0410068
-0.000129657
-0.00135958
-0.000169925
-0.0420746
-8.1629e-06
-0.00142372
-0.0678385
-0.134771
0.102777
-0.00238832
0.00264075
-0.0203126
-0.0202939
-7.28387e-05
-0.0314257
0.0986341
0.137962
4.18196e-06
-4.58375e-05
0.140641
-0.00203732
-0.118641
-0.0270383
0.00208901
3.09948e-05
-0.0500046
-0.0499048
0.144219
-0.0396001
-0.000975292
-0.0158607
-0.0563432
-0.000429407
-0.000113508
-0.000706621
-0.0376646
-0.0405
0.130868
-0.000108733
0.410152
-0.0426475
1.18055e-05
-0.00110158
4.42107e-05
5.64639e-05
-6.94097e-06
2.81085e-05
-0.0405726
-0.000631102
0.000176389
-9.34086e-05
0.123399
-0.00433818
-9.7176e-05
-3.91489e-05
0.33647
-0.0190293
-0.0651751
0.000364777
-0.000526793
0.0451771
-6.37931e-05
-0.019092
-0.159868
0.00125996
-0.00825183
-4.44954e-05
-0.00012365
-0.0286165
-0.0897713
0.00502713
-0.148129
-0.0904033
-8.31228e-06
0.017064
0.0271463
0.0952091
-0.00113532
-7.90609e-05
-0.0509719
-0.00464031
-0.000509848
-0.0393314
-7.18995e-05
0.0266764
-0.000118544
-0.000746299
-0.0183978
-0.0027267
-0.048154
0.395757
-0.00153173
9.75713e-05
-0.0589321
-0.0716404
0.00539146
0.00305394
-6.39443e-05
-0.0258898
-5.11038e-05
0.172399
0.469065
0.0644641
0.00184588
0.00214236
-8.45771e-06
-0.0264248
-4.22698e-05
-0.0122496
-0.00132314
0.000101616
-0.00231581
-0.0115562
-5.18775e-05
0.000379859
-0.0124836
-0.000170288
-0.0113594
-0.0144915
-0.0217625
-0.00141003
0.425987
-0.000849163
0.001431
8.24377e-05
0.0105445
-0.0377027
0.00669199
-0.000100716
-4.23969e-05
0.00102321
-6.47742e-05
-2.89589e-05
-0.0137036
0.000316758
-7.38203e-06
-0.0437089
-0.00298502
-0.0406816
-0.00121007
-2.49329e-05
-0.00206154
-0.0207234
-0.0158691
-0.0337329
0.00134844
0.000178799
-0.000322269
-0.00113925
-5.5107e-05
0.247708
0.000842193
-6.77159e-06
0.000115434
-0.00172308
-0.000390713
-0.0457211
-0.0414491
-0.000133705
-0.00574168
4.54686e-07
-0.00371271
-3.01489e-05
0.0296228
-8.09758e-05
-0.00017665
-0.00467943
-1.68269e-05
0.0101871
-0.000136784
-0.000833031
0.0148805
-2.53093e-07
0.333562
-0.0471278
-0.0360278
-1.35952e-05
-6.31663e-06
0.000828603
-0.000736557
-0.0531637
-5.67803e-06
-1.68843e-06
0.000295819
-7.58964e-07
0.000145314
0.000186078
-0.000292814
0.000365838
-0.0415003
0.420923
-0.0435694
0.306816
0.00647573
-0.0195043
-6.89302e-06
-0.000486936
-0.0107689
3.23847e-05
0.000102143
4.96681e-05
0.0491933
-0.0017978
-0.000231861
0.387883
-0.000251261
0.000152182
0.000212938
-1.24266e-06
0.0240801
-0.00186732
0.000569902
2.61734e-05
-0.000814913
-2.27076e-05
-0.00137205
-0.0390543
-0.000227966
-0.00228701
-1.31665e-07
-0.00331284
-0.000113087
0.168989
-0.000260628
-0.000377898
-0.0466772
0.00234702
-9.86332e-05
-0.000928697
-1.97904e-05
0.153908
-0.0630148
-0.000479023
-0.000196487
-0.00290232
-0.000221231
0.0477038
0.100458
0.0139096
8.73796e-05
-1.92902e-06
-1.02335e-07
0.0433164
8.74099e-05
-0.0399244
-0.0368742
-0.015746
-0.038446
0.438642
0.00110056
0.181393
-0.0148297
-0.0264531
0.156653
-0.000166023
-0.0554517
-4.79713e-06
-0.00782122
-0.0332261
1.29981e-05
-0.0599802
-0.000556172
-0.022334
-0.00727651
-0.0287358
-0.0352311
-0.00470241
-0.0616353
-0.0300128
-5.94443e-05
-0.00832156
-5.68088e-05
-0.0260086
-7.3253e-06
-6.78855e-05
0.0027761
0.148394
2.34702e-08
-0.0405362
0.00205227
1.73667e-05
-0.0236863
-3.80694e-07
-0.0091764
-0.000229929
-0.0264268
3.37092e-05
-4.59908e-05
-0.00225144
-9.3044e-05
0.144673
-0.0271773
0.062686
-3.19042e-05
0.000276925
-0.021992
-1.12258e-07
-0.049706
-0.0536493
-0.0422186
0.416514
-0.00554027
-5.30731e-06
0.0203764
-0.0293597
-0.00345387
-5.16862e-05
-4.02124e-05
-0.0384715
2.82827e-05
0.000409993
-1.2178e-07
3.45824e-05
-0.0194586
0.110481
-0.0962026
0.0866574
-0.00442309
-1.48774e-07
0.00223135
-0.0629726
-4.5405e-06
-4.69248e-06
0.00011996
1.61524e-05
0.000163067
0.228146
0.0288079
1.36063e-05
3.29829e-07
-0.0506843
0.18266
0.161824
-8.13141e-06
-0.0312653
-0.0222201
-0.0125779
-0.037137
-0.010535
-0.00216974
0.127995
-3.20381e-05
-0.0232238
0.153362
-0.0429215
-2.31525e-05
-0.0454639
-8.88658e-05
0.285102
0.0204043
-2.96037e-05
-1.56371e-05
0.17076
1.1908e-07
-0.000110853
-0.00831478
-2.80676e-06
0.233558
0.000756134
-0.00515151
-0.0464126
-0.00304397
-0.0981707
0.167244
-0.023136
-0.05451
0.000480622
-1.13731e-05
-0.00098594
-1.65708e-05
-1.2286e-05
0.0111165
0.164275
0.136182
-0.000317266
0.22236
-0.0179897
-5.10457e-07
-0.0319079
-2.11176e-05
-0.0252118
0.0216895
-0.0169519
0.00234731
0.00101842
-0.00658804
2.79406e-05
-0.00132648
0.0126433
-0.0017364
-4.32888e-05
5.54954e-06
-2.29106e-05
0.0260644
9.76282e-06
-0.0276673
0.233971
-0.00563444
1.20937e-05
-0.00240626
-1.24541e-05
0.0663202
-0.000147386
-2.73998e-05
-2.10709e-05
-5.72314e-06
0.191073
-0.000118806
0.223131
-0.0631318
2.33581e-05
-0.0531148
-0.000645237
0.142445
0.393896
-0.000786813
3.48293e-07
-1.19712e-06
-9.96786e-06
0.128366
-7.74029e-08
0.000431764
-0.0163911
0.209103
9.17854e-08
-1.57597e-07
4.77424e-07
4.41776e-06
-0.0180345
1.26557e-07
0.266119
-0.0182759
-3.69636e-05
5.91491e-06
-0.00123038
-0.020981
1.90119e-07
-1.85287e-05
0.150688
7.0799e-06
-0.0284489
-0.0807981
3.57167e-05
-8.776e-08
-0.176263
1.07026e-07
0.150964
2.56909e-06
-0.000294606
7.16275e-07
-5.31329e-05
0.0829767
-2.15239e-07
-0.00121951
-1.3968e-06
0.00551812
-0.00304502
-0.00426271
-0.00172887
0.139717
-0.000347762
-4.57833e-05
-0.00616651
-0.00620783
-8.58161e-05
-7.28573e-05
-0.000725002
5.43649e-06
0.171184
-0.011636
0.433378
-1.3996e-06
-0.00602392
-0.000204248
0.122512
1.10147e-05
-0.0261169
4.04833e-06
-0.00111185
-0.0292052
-0.000101261
-0.0136636
-0.0446922
0.0022867
-1.5067e-05
-0.0715861
-0.000117941
-0.000441491
-0.0041342
-0.024598
0.00047645
-8.50727e-05
-0.000264735
-0.00126375
-0.000853568
-1.24411e-06
-0.000762353
0.390458
2.52225e-05
-0.0021653
-0.0304972
-0.0485538
-0.0541018
-0.0340671
-0.0195678
-0.000752975
-0.0251461
1.81781e-05
-4.09735e-05
0.408961
-3.73635e-05
0.167977
-0.000174171
0.0001189
-0.000674578
-0.100785
-0.000235803
-0.00134603
-1.07338e-05
-0.000205193
-2.71321e-05
-3.56173e-05
-0.01037
-7.07294e-05
-4.75497e-05
-3.41933e-05
-1.98929e-05
-1.10398e-05
-0.0416632
0.233127
-3.72459e-06
-0.000250693
-8.47745e-05
5.80439e-06
-0.000443565
5.91431e-07
-0.000509027
6.39512e-05
-0.000177856
-0.0521148
-0.000413026
-0.0015504
8.72127e-08
-0.00211596
0.00012103
-3.9528e-06
-4.54012e-06
1.85655e-06
-0.000353893
0.000186751
-0.0423771
-0.0287938
-0.0499808
-0.000469248
-0.00269583
-0.0460935
-0.0477999
-2.7392e-05
0.00889981
0.00363817
-0.000472865
-0.0101168
-0.0374633
0.389334
-0.000186858
-5.81097e-06
0.000233549
9.01282e-06
2.56163e-06
0.065887
0.00123906
0.0771844
-0.0462672
0.367599
-0.000211336
1.02337e-08
3.88615e-05
-9.76697e-06
-0.000656859
0.14168
0.198913
-4.75535e-06
-0.000100666
-1.54749e-05
0.188447
0.00628143
-0.0105414
1.53864e-06
3.21412e-06
0.00469655
-0.000299542
-0.0683306
-0.0148872
-2.00197e-06
0.00183016
-0.0332174
-2.41167e-05
0.000811311
-5.20471e-05
-0.0374286
-0.000884226
0.133308
2.34169e-06
0.000863671
-0.00203606
1.63347e-06
4.50972e-05
-0.0206356
1.72119e-06
-0.000415873
9.76857e-07
-0.0129149
-0.0344934
-0.00434396
-0.0110584
-0.00594842
0.00622886
-0.00731518
-0.00134611
1.54136e-05
1.62189e-05
1.5232e-06
1.73393e-06
-2.00292e-05
0.00537124
-0.0641255
0.000186796
-0.0595899
-0.0016903
-0.0632458
2.21314e-05
-1.04306e-05
0.000624934
-0.0936091
2.04183e-06
-0.0572382
-0.0149719
-0.0019702
-0.061872
4.02686e-06
-0.00193668
5.05403e-05
-0.166802
0.119815
-5.17654e-06
-0.0582893
-0.0238837
-0.00246597
3.94365e-06
-3.66383e-06
0.0143555
-0.0107795
-1.04943e-07
-0.00485415
-1.90685e-05
5.50243e-05
0.110344
-2.93915e-06
-1.3059e-05
-9.01881e-05
4.33878e-06
0.000394552
2.26072e-05
-0.00310114
5.55746e-05
-0.0110133
0.00047629
-0.000155023
-0.0391667
-0.0395281
-0.00516011
-4.34003e-06
2.21195e-06
-0.0797041
0.00349594
-0.0413593
-1.74857e-06
-0.00411662
-6.85698e-06
2.05267e-06
0.0603662
-0.00416285
-0.00152899
-1.15089e-05
-0.0177993
9.48055e-06
-0.0590191
1.5004e-06
-0.067849
-9.43393e-06
-2.13735e-06
2.15373e-05
0.000472881
-0.117757
-0.0119371
-0.0704474
-2.90526e-06
1.4965e-05
-0.0652834
-0.0356566
-0.00519948
-3.15123e-06
-0.0540538
-0.054399
-0.0628114
-7.66836e-06
-4.25364e-06
-2.28072e-05
-0.114961
-0.0704633
0.000262327
-0.00678786
-3.80947e-05
0.221799
2.52801e-05
-5.46528e-06
3.93208e-05
-3.3549e-05
-5.24595e-06
-0.00282117
1.52276e-05
-0.00204223
-0.0699922
-0.00831731
-0.0368086
-4.51929e-07
-1.59613e-05
0.0397198
-0.077547
-0.00278322
0.0992132
-4.0015e-05
-7.92548e-06
-6.66473e-06
0.105347
4.65152e-05
-7.32628e-05
-8.6206e-06
-0.0752911
-0.0100205
-1.40663e-05
-5.36736e-05
-0.00796195
-0.00383008
0.000108134
0.201572
-0.0676581
-0.000842715
0.507733
-5.94211e-05
-0.000781466
-0.00992631
-0.0591753
-4.81099e-06
-2.06481e-05
3.25288e-06
0.00263745
-0.0411119
-0.000269731
-0.0479529
-0.00469591
-5.1523e-06
-1.53391e-06
-0.00628976
-0.0175182
-0.0358708
-0.101427
-0.0355803
-0.0338195
-0.0187403
-0.027001
-2.82872e-05
0.000100725
-0.00859229
0.000214958
-0.000182994
0.000256995
-1.55137e-05
-0.000149744
-0.00755077
-3.78521e-06
-2.38203e-05
0.0246697
-0.044385
-0.000318444
-0.000106991
-5.69259e-06
0.218819
-0.00562782
0.000235253
-0.0281599
7.35169e-05
5.43282e-05
4.88109e-05
-2.51239e-05
0.00016325
-0.0366623
0.00744236
-2.89322e-06
-0.000255356
-0.0436256
-0.0369709
0.0408237
-0.000190406
0.000982314
0.0130813
-6.90747e-06
5.50061e-06
-0.0601678
3.29325e-06
0.145953
-2.43446e-05
0.00249663
4.76723e-05
6.10001e-05
-0.0551954
-0.00652604
-0.0157773
-0.0013926
4.14663e-06
0.00179467
0.0521994
-0.0112881
-8.06189e-05
0.0826115
0.142844
-8.13654e-07
-0.0464793
-3.98488e-05
-8.63216e-06
-1.55949e-05
-0.00022966
0.0148501
-3.60788e-05
6.5496e-05
-0.0174412
-0.0225134
-0.0139575
0.272692
-1.5921e-05
-3.19404e-05
0.150445
-0.0172125
-0.0030759
-0.000270395
0.148265
-8.1534e-06
-0.000551385
-2.81425e-05
-2.76316e-05
5.01982e-06
5.28807e-06
1.88142e-05
-0.0122092
-8.50798e-06
-0.00303027
-0.0366134
0.221613
-0.000390513
-1.80769e-05
0.00280243
0.0737538
-0.0604318
-0.000326761
-0.0480664
0.27333
7.87557e-06
0.35242
-2.44166e-06
0.00162552
0.018458
0.000154446
0.371298
-6.43935e-05
-2.73401e-06
0.000410539
4.34813e-06
-0.00037388
8.05661e-05
-9.0982e-06
-0.00120559
-4.30928e-05
-8.90164e-05
-0.00226842
0.215458
0.0409343
0.016643
-0.0328932
-2.07431e-06
-1.74175e-05
0.00152301
-0.0695106
-7.36976e-06
-0.0365425
-2.51073e-05
0.0909347
0.0524434
-0.0344483
-0.000940907
-0.0127635
-0.000437958
-0.00947619
-0.00123794
-0.00820117
0.0538145
9.25118e-08
0.241146
0.0184748
-0.000943225
0.191086
-0.0117116
-3.60005e-06
-9.91157e-06
1.52024e-05
-6.6003e-05
-0.000101298
0.216718
-0.000577127
0.22375
-0.00161092
0.146463
0.202619
0.108139
-0.00603191
-7.56493e-06
-5.20957e-05
-0.00652151
-0.167254
-0.0513342
0.00074308
-2.61086e-05
-0.029807
-0.000683033
-7.8504e-05
0.000468158
-0.000589031
-0.00118762
0.0261747
1.87775e-05
-0.0346926
0.0480611
1.26713e-05
6.62075e-05
-0.0160211
-0.0696514
-0.000390293
-0.000245791
-1.52114e-05
5.22105e-05
0.0784523
-0.0170178
-0.0519854
0.000608639
0.0886605
-0.0382451
-8.93534e-06
-5.04399e-06
0.00453542
-0.00016137
0.0722024
-0.00510484
-0.00871886
-0.000280824
0.000705427
-0.0379852
-0.000115145
0.000172717
-0.0133175
-0.0642354
0.142674
-0.0488209
-0.0251493
-0.000275953
-1.46262e-05
0.00441771
3.31035e-06
-0.0607406
-0.0686055
0.000213627
0.00135019
0.0022633
-0.140031
0.000242626
2.16788e-05
-1.60914e-05
-0.0402138
3.52302e-07
0.000216145
0.107971
0.159956
-0.157095
0.0413321
0.0396966
0.0041211
-0.000343309
0.00460351
3.27641e-05
1.34772e-06
-0.000195848
-3.68693e-07
-0.000145557
-0.000188767
-0.00643433
-0.0870292
-0.00850349
-0.0334694
0.0438391
0.036014
0.00224955
-0.0685934
1.65756e-06
0.00202614
0.00700427
-0.000238963
0.0650178
-0.00203843
-0.0107116
0.00685466
0.00351023
-0.000654845
-0.00331314
0.0338464
0.000306413
-0.0173516
-0.0153911
0.441787
-0.0255118
0.0707342
0.00642487
-0.0441829
0.00108791
-2.73792e-05
-0.00143972
-2.92528e-05
-0.00138788
-0.0247822
-3.62889e-05
-0.000238065
0.263621
-0.00179782
-0.0381371
-0.012106
-3.81119e-05
-0.00258262
-1.48236e-05
-2.80134e-06
0.0289145
2.54009e-06
-0.00162105
0.0656309
0.00322108
0.000536617
0.0123417
-0.00482269
0.00250746
-0.157043
0.000300687
-0.00357235
-0.0541897
-0.000856545
-0.00689041
0.000117908
-0.00239626
0.000412733
0.0272587
-0.000593633
0.00331587
-0.039398
-0.0193564
-8.11814e-05
-0.0365901
-0.0130762
-0.0112123
-9.09939e-05
0.00417213
-0.0877962
-0.000476302
-0.00447661
-0.0345866
-0.00355521
-0.000785476
0.201941
-0.0273247
-7.14622e-06
0.00547868
-0.0574773
-0.000629691
0.174084
-0.00339327
0.00043963
0.0511627
-0.00100975
0.00483683
0.113656
-0.000308217
0.000542178
3.4925e-05
-5.03079e-05
-0.00261226
-0.00885475
-0.000418459
-0.0213587
0.0868991
-0.0284085
-0.0935265
0.000543975
-0.00232764
-0.00102072
-0.0736653
-4.73149e-05
0.0085887
-8.86498e-05
-0.0104695
-0.00115665
-0.00291488
-0.04912
0.106028
-0.102594
-2.82631e-05
0.183838
-0.00230757
-0.00423676
-0.0496125
-0.109944
-0.014528
-1.38648e-05
-0.00174226
0.00455048
-0.00210838
-0.0038443
-5.57809e-05
0.0759855
-0.0518558
-0.00961414
-0.00397262
0.011358
-0.00711114
-0.00520854
0.00086076
-0.000562389
-0.00204325
0.103205
0.000193729
-0.172299
-0.000222223
-0.00444393
-0.00542112
-0.121173
-0.010604
-0.149217
-3.23124e-05
-3.57506e-05
-0.00927163
0.00668798
0.000255597
-0.175519
0.0759281
-0.049555
3.07455e-05
-0.19477
-0.000279921
-0.206147
-0.0231831
-0.226982
-0.226632
-0.217134
-0.173452
-0.081918
-0.0452864
-0.011464
0.0228707
0.0571553
0.154469
0.185793
0.214684
0.262996
-0.00494304
-0.00740773
0.0505866
-0.0265973
0.000281916
0.0045377
-0.0385991
-0.000166983
-0.00128481
-9.50421e-07
-0.0139087
0.0129085
5.03296e-06
-0.00073345
-0.00638772
-0.0169739
-0.228534
-0.0213079
-0.0555778
-0.00013423
5.321e-05
-9.63123e-06
-0.077426
-0.00867095
-0.037705
-0.0176568
0.000792817
-0.000184642
0.00283821
-8.151e-06
-0.0273096
-0.000126984
0.000112534
-0.0117841
-0.00716409
-0.00104309
9.55527e-05
0.0411157
-0.0100517
0.0527483
-0.217967
-0.0145281
0.123366
-0.0164381
0.00181379