/*--------------------------------*- C++ -*----------------------------------*\
  =========                 |
  \\      /  F ield         | OpenFOAM: The Open Source CFD Toolbox
   \\    /   O peration     | Website:  https://openfoam.org
    \\  /    A nd           | Version:  7
     \\/     M anipulation  |
\*---------------------------------------------------------------------------*/
FoamFile
{
    version     2.0;
    format      ascii;
    class       volVectorField;
    location    "20";
    object      U;
}
// * * * * * * * * * * * * * * * * * * * * * * * * * * * * * * * * * * * * * //

dimensions      [0 1 -1 0 0 0 0];

internalField   nonuniform List<vector> 
7807
(
(1.07347 0.129158 7.50109e-21)
(1.05571 -0.0401512 1.90922e-21)
(0.995038 0.104959 -1.54202e-20)
(1.03534 0.0664728 2.1821e-20)
(0.999171 -0.00101161 -4.17019e-23)
(0.99996 -1.00005e-05 -4.31376e-24)
(0.990227 0.0870249 -3.05252e-20)
(0.994671 -0.00193964 -8.74327e-24)
(0.999878 -0.000187331 -7.40899e-24)
(1.02381 0.0007817 -1.03528e-21)
(0.999963 -1.17852e-05 4.758e-24)
(1.00225 -0.00129793 -1.72229e-22)
(0.991811 -0.00248076 4.32235e-22)
(1.01939 -0.0018443 -6.72492e-21)
(1.02311 0.00129091 4.3778e-21)
(0.99138 -0.0157447 -8.57447e-22)
(1.07583 0.134973 -1.57973e-20)
(0.988944 -0.00319985 -1.50993e-22)
(1.0025 -0.00967447 -5.80316e-23)
(0.985973 -0.103509 -7.00975e-22)
(1.03491 -0.00388684 -2.31495e-21)
(1.00149 -0.000739859 3.25189e-22)
(1.01812 -0.00332939 5.83313e-22)
(1.01091 0.0297913 -1.12491e-20)
(0.985209 -0.00403842 -6.88847e-22)
(1.06905 0.127573 -7.50682e-21)
(0.999205 -0.000957964 -2.95989e-23)
(1.02353 -0.00169495 2.64612e-21)
(1.00536 0.0150247 -1.44243e-21)
(1.0039 -0.0102803 4.81397e-23)
(0.986512 -0.0168041 -1.55527e-21)
(0.874743 0.0385503 4.55027e-21)
(1.0178 -0.00396951 3.58539e-21)
(0.999527 -0.000404714 5.19552e-23)
(0.999896 -6.08045e-06 9.77659e-26)
(1.02336 0.000546094 1.5373e-21)
(1.00454 -0.0112901 5.73948e-23)
(0.994571 0.0844954 -4.88113e-21)
(0.996393 -0.00823828 7.03108e-22)
(0.999667 -5.88393e-05 4.9521e-23)
(0.996801 -0.00846656 -8.03553e-23)
(0.991502 -0.0147283 -3.18275e-22)
(1.01529 -0.111188 3.02997e-21)
(1.15184 -0.0393183 1.36238e-22)
(0.999801 -1.15602e-05 1.5898e-23)
(0.999921 -1.63105e-05 -4.46476e-24)
(1.00139 -0.000608218 -1.98667e-22)
(0.996135 -0.00750117 -4.16162e-22)
(0.999933 -3.0374e-05 -3.58015e-24)
(0.990602 -0.103831 1.01384e-21)
(1.00327 -0.00114128 1.8586e-22)
(1.02343 -0.000667902 -2.75097e-21)
(0.980603 -0.00488715 -2.32234e-21)
(1.01245 -0.0311137 1.14969e-22)
(1.02368 -0.000458495 -9.15775e-22)
(0.995328 -0.00267303 -7.90624e-23)
(1.00235 -0.0090307 1.22645e-22)
(0.994636 -0.00167735 5.89313e-22)
(0.976589 -0.0205554 -2.7724e-21)
(0.99951 -0.000359766 -6.66607e-23)
(1.00004 -2.39234e-05 -7.66905e-24)
(1.00429 -0.00116821 2.07602e-22)
(1.0197 -0.00114533 -1.58287e-21)
(1.00241 -0.00112302 1.74352e-22)
(0.999051 -0.000199654 9.53502e-23)
(0.987141 -0.0174291 2.73212e-22)
(0.999905 -0.000187987 5.65703e-24)
(1.00001 -2.45396e-06 5.38776e-25)
(1.14626 0.0727968 3.65959e-21)
(0.996296 -0.00709866 -1.24643e-22)
(0.999926 -2.00619e-05 3.9606e-24)
(0.970975 -0.0620961 -5.14617e-21)
(0.985859 -0.00447342 3.35279e-22)
(0.972942 -0.00613506 4.58548e-22)
(0.989442 -0.00352699 4.72902e-22)
(0.963445 -0.030127 -6.05973e-22)
(0.998724 0.106301 2.47812e-20)
(1.03308 -0.00379683 2.93862e-21)
(1.08418 0.00228442 -5.76796e-21)
(0.952884 -0.0516559 -6.51346e-21)
(0.992204 -0.00274073 -6.63502e-22)
(0.999206 0.0539067 3.03795e-20)
(1.03949 0.00659593 6.84191e-21)
(0.972461 -0.0108937 2.10641e-21)
(0.998659 -0.0025673 -6.74371e-23)
(0.99776 -0.000326241 7.07626e-23)
(0.994314 -0.0025592 8.11741e-22)
(0.981383 -0.00545675 1.49438e-21)
(0.999364 -0.00119627 4.47641e-23)
(0.995527 -0.000691614 2.52861e-22)
(1.00561 0.0170675 1.06822e-20)
(1.18267 -0.0215842 -1.6489e-22)
(0.999867 -5.56556e-05 -9.5188e-24)
(1.00193 -0.00767603 5.0603e-23)
(0.996468 -0.00105692 2.2903e-22)
(0.97256 -0.00342025 -3.66808e-21)
(0.973562 -0.0615522 3.66607e-22)
(1.01415 -0.0298734 5.34973e-23)
(0.998522 -0.00247674 2.26425e-23)
(0.998869 -0.000193847 3.18391e-23)
(0.946672 -0.0186273 1.58512e-21)
(1.0848 0.00729101 4.72244e-21)
(0.99667 -0.00120094 -5.71172e-22)
(0.999974 -1.15048e-06 -3.63931e-25)
(1.18521 -0.00957484 -2.15208e-22)
(1.02956 0.0298234 -1.0255e-20)
(0.936335 0.0272885 5.20045e-21)
(0.99501 -0.0025283 -3.29201e-22)
(0.999991 -2.25903e-06 6.34586e-26)
(1.0256 -0.0133885 -1.25589e-21)
(1.03855 0.0631284 -2.53455e-20)
(1.03052 -0.0807215 -3.32429e-21)
(0.999989 -2.699e-06 -1.09422e-25)
(1.02733 -0.0138961 -2.74348e-22)
(1.02632 0.0285596 1.07824e-20)
(1.00042 -0.000577745 -1.55255e-23)
(1.07911 -0.0921753 -1.11465e-22)
(1.02989 0.0170951 -2.48433e-21)
(0.983557 -0.0484524 2.19333e-21)
(0.972615 -0.00746505 -4.78641e-22)
(0.942853 -0.0122377 -3.82724e-21)
(1.00099 0.0325242 -1.97734e-20)
(1.02188 -0.109131 -4.17414e-21)
(1.00978 -0.00789484 1.05967e-22)
(0.944898 -0.0139724 1.50924e-21)
(0.999078 -0.00138749 9.97804e-23)
(0.98763 -0.0126776 5.1793e-22)
(1.00298 -0.00862291 -8.45039e-23)
(0.998997 -0.000147155 -2.12651e-22)
(0.986533 -0.015471 2.66103e-23)
(1.22149 -0.0358373 -3.95637e-22)
(1.07864 -7.89327e-05 9.76826e-22)
(0.999413 -0.000547075 5.65562e-24)
(0.999261 -0.00122686 -8.68304e-23)
(0.9711 -0.00998193 6.27182e-22)
(1.0362 0.0563944 9.37505e-21)
(0.995689 0.0269221 3.52038e-20)
(0.999976 -2.6407e-06 -4.26169e-25)
(1.00748 -0.00311486 8.68614e-23)
(0.921243 -0.0154552 -4.81115e-21)
(0.974691 -0.00442032 -1.87215e-21)
(0.98989 -0.0670195 -3.21155e-21)
(0.964053 -0.0324174 8.21367e-22)
(0.974502 -0.00551621 -4.10071e-23)
(0.929928 0.0213987 2.0297e-20)
(1.01465 -0.0479422 -1.07931e-22)
(1.01138 0.017841 -5.45471e-21)
(0.979155 -0.0244844 -1.43459e-21)
(0.961852 -0.00599393 5.19582e-22)
(1.0007 0.0451731 -9.83126e-21)
(1.02404 0.0012286 3.88269e-21)
(1.16954 -0.0252566 4.32528e-22)
(0.998547 -0.00203394 -2.35474e-22)
(1.15163 0.0650484 6.17934e-22)
(1.03755 0.0061628 -7.10149e-21)
(1.00583 0.0874991 -2.47156e-20)
(0.95779 -0.0355551 2.52876e-21)
(0.991805 -0.00190605 1.46432e-22)
(0.946213 0.0718121 4.54017e-20)
(0.999939 -2.55924e-05 -3.33987e-24)
(1.00146 -0.0080947 -3.52269e-23)
(1.01129 0.0329986 8.10101e-21)
(0.999978 -1.99104e-05 1.94893e-24)
(0.998313 -0.00522713 -3.29017e-22)
(0.996005 -0.00102204 -1.09743e-22)
(1.00364 0.0373121 -2.6435e-21)
(1.00189 0.0296401 9.80207e-21)
(0.938437 0.0790905 1.50422e-20)
(0.998034 -0.00506313 -2.06526e-22)
(0.996914 -0.000383445 -1.245e-22)
(1.00002 -2.77706e-06 -5.03737e-25)
(0.939205 -0.00748223 -6.58711e-21)
(1.0004 -0.000512801 2.14049e-23)
(1.05751 -0.0363029 -2.2364e-21)
(1.00772 -0.00341957 5.79282e-22)
(0.962798 -0.00709127 1.07371e-21)
(1.17498 0.000292262 5.32706e-22)
(1.1022 0.072616 3.00833e-22)
(0.999869 -6.69561e-05 5.18998e-24)
(0.999504 -0.000635659 -5.92588e-23)
(1.03654 0.0700823 -3.83765e-21)
(0.999939 -1.8599e-05 -1.6287e-24)
(0.999889 -1.24515e-05 2.47569e-24)
(0.990445 0.0923006 -2.52255e-20)
(1.05806 -0.0435481 6.00225e-22)
(1.01506 -0.0688101 -1.90529e-21)
(0.985605 -0.0468508 -3.11039e-21)
(0.975446 -0.00794961 1.37415e-21)
(1.01155 -0.0495389 1.86658e-22)
(0.923208 -0.0130536 2.53069e-21)
(0.999977 -1.81293e-05 -7.10646e-25)
(0.974052 -0.057588 -1.23377e-21)
(1.10468 0.0798168 -7.56386e-21)
(0.996653 -0.00146265 8.20767e-23)
(1.00008 -6.75206e-06 -5.43942e-24)
(1.07448 0.0760993 7.70316e-22)
(0.998772 -0.000396057 2.25802e-22)
(0.9874 -0.014859 8.28794e-22)
(1.00843 -0.0469917 6.20308e-22)
(1.00002 -2.27305e-06 -2.17782e-25)
(1.00088 -0.00199656 -8.70931e-23)
(1.03268 0.0558445 1.15693e-20)
(1.09171 0.0858093 -9.8029e-21)
(1.00161 0.0776298 -3.31656e-21)
(1.07435 -0.0856889 1.27018e-21)
(1.03421 -0.0766434 7.83584e-22)
(1.13012 -0.120257 -4.86601e-22)
(1.02373 -0.00232898 7.836e-21)
(1.03013 0.0525982 -3.77126e-21)
(0.999788 -2.20592e-05 -1.86644e-23)
(1.00004 -2.0785e-05 2.04361e-24)
(0.952042 0.0111625 -2.0097e-20)
(0.992737 -0.0140798 -2.99299e-22)
(0.999389 -0.000488679 -5.63374e-23)
(0.976522 -0.0565262 2.5344e-21)
(0.98704 -0.013392 -6.04988e-22)
(1.01499 0.081139 -2.77734e-20)
(1.01145 0.0787384 -5.8843e-21)
(0.987002 -0.0688907 8.90589e-22)
(0.899505 0.0534932 -1.72332e-20)
(0.998861 -0.000449933 -1.65965e-22)
(0.98899 -0.00275651 5.40414e-22)
(0.944483 -0.0170277 2.08576e-21)
(1.03323 0.000612285 -1.65297e-21)
(1.02236 -0.138605 -4.14452e-22)
(1.09413 0.126661 -1.59938e-20)
(0.946328 0.063147 -3.88857e-20)
(1.00006 -0.00011039 6.21675e-24)
(1.00969 -0.00733384 2.87463e-22)
(1.0278 0.0195328 1.34239e-20)
(0.99623 -0.00617257 -5.33879e-22)
(1.03245 0.0174862 -1.70244e-21)
(0.999476 -0.00129859 -1.41795e-23)
(0.916259 0.0893264 3.04367e-20)
(1.00632 0.0811516 5.40959e-21)
(0.994311 -0.00220708 5.15944e-22)
(1.00382 -0.00860238 -1.28287e-23)
(0.999688 -6.8828e-05 -9.20534e-23)
(1.12691 0.100832 3.87788e-21)
(0.999904 -1.13532e-05 7.33388e-24)
(0.994879 -0.0114133 2.50423e-22)
(0.932481 -0.0340423 2.86699e-21)
(0.999926 -2.65502e-05 -1.64023e-24)
(0.998775 -0.00299009 -5.73989e-23)
(0.999591 -0.00126146 2.61757e-23)
(1.06713 0.0466464 9.87834e-21)
(0.999979 -2.56389e-05 2.31762e-24)
(0.995337 -0.000532983 2.93613e-25)
(0.955481 -0.0511913 7.55018e-21)
(0.87605 0.0288132 -1.00383e-20)
(1.0779 -0.00488307 -1.31465e-21)
(0.927499 0.060359 2.33131e-20)
(0.999954 -8.6161e-06 -4.01084e-24)
(1.00592 -0.0479103 -5.20205e-23)
(0.999814 -0.000321906 -2.05382e-23)
(1.00093 0.0895891 -2.47783e-20)
(1.00392 -0.000783243 -2.67552e-22)
(0.993686 0.0341612 1.14857e-20)
(1.00303 -0.0104088 -2.35708e-22)
(1.00078 -0.00211911 9.34904e-23)
(1.03193 -0.0344045 -6.09303e-22)
(1.02361 -0.00115863 -7.25946e-21)
(1.00058 -0.000344366 4.4199e-23)
(0.99977 -5.64409e-05 4.68728e-25)
(1.0005 -0.000465083 9.96051e-23)
(0.996034 -0.00654941 -4.75706e-22)
(1.02276 -0.0710689 2.08022e-21)
(0.999956 -1.17145e-05 2.71375e-24)
(0.959529 -0.0340068 1.77723e-21)
(0.996211 -0.00117665 -2.05445e-23)
(0.999855 -4.74904e-05 1.01096e-23)
(0.999375 -0.000607578 1.83213e-23)
(0.988356 0.0552816 2.77277e-20)
(0.99176 -0.000891133 2.1276e-22)
(0.999228 -0.000113078 -1.91485e-23)
(0.905747 0.012821 3.83998e-20)
(0.998619 -0.00287877 -1.30279e-22)
(1.05997 0.0985079 -8.98622e-21)
(0.999793 -0.000297951 3.74287e-23)
(1.00887 -0.0234844 8.90641e-23)
(1.00002 -1.4962e-06 -1.83761e-25)
(0.982521 -0.0391699 -1.25704e-21)
(1.0327 0.00041395 2.55148e-21)
(1.1766 0.0100163 -1.79409e-21)
(0.976909 -0.0221114 2.34823e-21)
(0.999589 -0.000643168 6.84931e-23)
(0.983393 -0.0883189 1.58501e-21)
(0.982569 -0.00052446 9.81156e-22)
(0.999815 -2.09553e-05 9.96855e-25)
(1.00048 -0.000404582 -8.81545e-23)
(0.997924 -0.00373588 1.78941e-22)
(0.99215 -0.00159063 -6.35578e-22)
(1.00311 -0.000980407 -3.17705e-22)
(0.998764 -0.00205849 8.50666e-23)
(0.9739 -0.0101521 3.30599e-22)
(1.02751 -0.0683014 -1.54494e-21)
(0.974019 -0.008522 1.46871e-21)
(1.14449 -0.0313719 -1.07435e-24)
(0.965175 -0.0095728 -1.87347e-21)
(1.01733 0.103756 2.7798e-21)
(1.01333 0.106393 -2.04869e-20)
(0.998476 -0.000820015 -1.44825e-22)
(1.19934 0.00891396 3.18509e-22)
(0.999983 -3.54595e-06 -2.362e-25)
(0.997895 -0.00463117 -2.17779e-22)
(0.97183 -0.00239099 3.75805e-21)
(1.00832 0.0266819 6.72106e-21)
(1.04085 0.0111721 -6.64818e-21)
(1.0001 -3.69098e-05 1.23783e-23)
(0.998013 -0.00436466 -1.43008e-23)
(0.966469 -0.0105802 1.41212e-21)
(1.05213 0.0405691 -3.95769e-21)
(0.999002 -0.00128057 7.48703e-23)
(1.00343 -0.000835675 1.79116e-22)
(1.00127 -0.00104313 -1.60745e-23)
(1.12653 0.0257908 5.23232e-21)
(1.22123 -0.0489839 -2.68951e-21)
(1.03703 0.124242 1.31248e-20)
(0.998375 -0.000259515 -1.41162e-22)
(1.06759 -0.0411413 -1.73589e-21)
(0.999884 -7.24083e-05 -8.23035e-24)
(1.00504 -0.00761758 -6.18959e-22)
(0.999944 -1.43481e-05 -1.14963e-24)
(0.985034 -0.023459 4.0801e-22)
(0.999648 -7.9706e-05 -1.76828e-23)
(1.01351 -0.0228218 1.47756e-22)
(1.22337 0.0122598 6.16691e-22)
(0.972001 -0.0316033 2.81049e-21)
(1.01009 -0.0228046 -7.52956e-23)
(1.00873 -0.00658318 -3.75406e-22)
(0.999255 -0.00014668 8.58545e-23)
(1.02808 -0.0180005 8.89024e-22)
(0.99702 -0.0204164 3.7695e-22)
(1.07887 0.0119862 -2.76359e-21)
(1.06206 0.0445386 4.51053e-21)
(1.1843 -0.129195 5.14983e-23)
(1.14915 -0.0491974 -8.98561e-22)
(0.981797 -0.00106939 -1.04977e-21)
(1.00523 -0.00379515 5.73141e-22)
(0.935137 -0.0322019 -1.10735e-21)
(0.930079 0.0784144 -4.68778e-20)
(1.1289 -0.0509963 3.61572e-22)
(1.02792 -0.0107872 -3.43281e-21)
(0.908243 0.0577327 -2.33902e-20)
(0.998429 -0.000193589 6.97256e-23)
(0.998213 -0.00101431 -4.47188e-23)
(1.16642 -0.0358579 -7.40273e-22)
(0.998918 -0.00222308 -4.53375e-23)
(1.01477 -0.0445666 1.40645e-22)
(1.00599 -0.00191197 2.01241e-22)
(0.997068 -0.000453103 -1.1068e-22)
(0.997853 -0.00038182 -1.7446e-22)
(1.03275 0.0254158 7.86447e-21)
(0.999932 -0.00016046 -4.66778e-25)
(1.00055 -0.000274884 -3.93394e-23)
(1.00008 -1.5019e-05 9.312e-24)
(0.9964 -0.000720289 5.91441e-22)
(0.993582 -0.0100135 6.6415e-22)
(0.999982 -2.7329e-06 1.77939e-25)
(0.998879 -0.00026723 1.80417e-23)
(0.977729 -0.0194536 8.26444e-22)
(0.950895 0.0166081 1.25369e-20)
(1.0121 -0.0238522 -6.95766e-23)
(0.99278 -0.013181 1.0692e-21)
(0.963363 0.0617847 5.39137e-21)
(1.00095 0.0315798 1.76452e-20)
(1.06827 0.00080554 -2.23648e-21)
(1.19021 0.0145186 -3.33123e-22)
(0.937618 -0.00552775 3.59224e-21)
(1.0052 -0.00436417 -2.83279e-22)
(1.00914 0.0439041 -9.77476e-22)
(0.988013 -0.00245617 -1.29137e-21)
(1.04099 0.0979189 3.91129e-22)
(1.01134 -0.0532663 1.65356e-23)
(1.04574 -0.121931 -1.42984e-21)
(1.087 0.0825117 6.05294e-21)
(1.04352 0.103385 -1.16181e-20)
(0.96099 -0.0292977 3.95694e-21)
(1.04199 0.00917244 -4.32158e-21)
(1.09904 0.131192 1.49903e-20)
(1.05416 0.0990231 1.69133e-20)
(1.0247 -0.00206338 2.47459e-21)
(0.996867 -0.00157797 1.2888e-22)
(0.995633 -0.00244429 1.12594e-22)
(0.999908 -2.51072e-05 -3.89601e-24)
(1.01857 -0.0293044 1.65609e-22)
(0.987667 -0.00206236 3.03779e-22)
(1.00107 -0.00252121 -7.64334e-23)
(0.999889 -2.61942e-05 -7.30974e-24)
(0.998338 -0.000752152 5.65205e-23)
(0.98029 -0.0872464 -2.61375e-21)
(1.10985 0.0371331 2.47809e-21)
(0.981263 -0.00671649 -1.67518e-21)
(0.999522 -0.0133693 4.05969e-22)
(0.99603 -0.000777276 -3.16387e-22)
(1.06476 -0.0440052 3.38625e-23)
(0.99251 -0.00167161 -1.02e-21)
(1.00262 -0.00779906 2.36729e-22)
(1.11158 0.125132 2.40094e-21)
(0.998083 -0.00036137 -4.05403e-22)
(0.999977 -4.89622e-05 -1.54781e-24)
(0.999945 -0.000192551 -9.42109e-25)
(1.00005 -0.000113153 8.41554e-24)
(0.976599 -0.00884183 7.70061e-22)
(1.03104 0.0231622 -9.32194e-21)
(0.995781 -0.000593469 1.2351e-23)
(1.02385 -0.00941721 2.21837e-21)
(1.03136 -0.143885 2.92842e-21)
(0.99578 0.079157 -5.21454e-22)
(1.00429 -0.00784244 2.05412e-22)
(1.00696 -0.00487405 -9.30493e-23)
(0.994674 -0.00275641 -4.10126e-22)
(0.9928 0.0552943 -2.71431e-20)
(0.998912 -0.000135768 5.77575e-23)
(1.04075 0.128131 -6.6605e-21)
(1.00906 0.0185995 -1.05042e-20)
(0.999879 -3.22082e-05 8.56174e-24)
(1.00917 -0.0543317 -1.16865e-21)
(0.996533 -0.000831335 -2.91876e-22)
(0.993788 -0.0677635 3.92553e-21)
(1.00058 -0.000145218 3.92878e-23)
(1.06339 0.00347394 3.14255e-21)
(1.00792 -0.0170629 -8.54019e-24)
(1.00651 -0.00434921 4.85514e-23)
(0.999124 -0.000172734 -1.14647e-22)
(1.07218 0.0440312 4.82783e-21)
(1.04761 0.0389514 1.55085e-21)
(1.01296 -0.0719465 1.91244e-21)
(0.978736 -0.0226725 -1.58686e-22)
(0.997808 -0.003989 -1.54751e-22)
(1.00231 -0.0436065 -2.15345e-21)
(1.14674 0.0555161 -4.72213e-21)
(0.882097 0.0446926 -2.20204e-20)
(1.09337 -0.0782985 -1.22559e-21)
(1.00552 -0.00821779 -9.70555e-23)
(0.999993 -2.89315e-06 -4.29163e-26)
(0.985795 -0.00543934 -1.33971e-21)
(0.997649 -0.000411403 3.77766e-22)
(1.02687 -0.0180946 1.29237e-21)
(1.01195 -0.116826 -1.26541e-21)
(1.1984 -0.00438329 1.66256e-22)
(0.985848 0.0747521 -3.34218e-20)
(1.05612 0.0374054 6.54922e-21)
(1.13132 -0.107999 2.18655e-21)
(1.07447 0.0825398 2.5618e-21)
(0.999352 0.0326864 3.21697e-20)
(1.02013 -0.00266318 1.82437e-21)
(1.00127 -0.00243026 1.75056e-22)
(1.02498 0.0593604 5.81331e-21)
(0.999127 -0.00216651 1.01166e-22)
(0.999812 -0.000177759 8.10961e-24)
(0.980294 -0.00225781 4.70429e-22)
(1.0001 -3.5502e-05 2.34076e-24)
(1.14063 -0.128385 1.34151e-21)
(1.00469 -0.019003 -5.42673e-23)
(0.984866 -0.038462 2.10168e-21)
(1.00196 -0.00166375 8.87224e-23)
(1.06886 0.0729482 1.3644e-20)
(0.998165 -0.000341474 -3.34157e-23)
(0.999975 -3.91193e-05 -1.87814e-25)
(1.03864 -0.127678 1.58631e-21)
(1.00173 -0.00142134 -5.189e-23)
(1.10927 -0.00368131 -6.6644e-22)
(0.949488 -0.0174334 7.37705e-22)
(0.925335 -0.0212991 3.75751e-22)
(1.20266 0.0575547 -2.50164e-22)
(1.02534 0.0185562 -3.50645e-21)
(1.02159 0.00537505 2.15851e-21)
(1.02029 0.00503393 -8.7185e-22)
(0.999788 -4.65449e-05 2.8853e-24)
(1.11784 0.0364512 1.92516e-21)
(1.07929 0.0161533 3.21652e-21)
(0.999472 -0.000689343 2.66072e-23)
(0.98214 -0.00728532 1.94642e-21)
(1.00064 -0.000218453 -4.37226e-23)
(1.01334 -0.0209454 -9.95418e-22)
(1.01053 -0.0301693 -3.24061e-23)
(1.00466 -0.00144693 1.74331e-24)
(0.999222 -0.0013709 -1.21008e-22)
(1.12547 0.0930021 -1.18718e-20)
(0.999977 -2.35553e-05 -2.7461e-24)
(1.00022 -0.000114545 -1.17852e-23)
(1.0021 -0.00111622 -3.66283e-24)
(0.975534 -0.0038204 1.30374e-21)
(1.02009 -0.01139 1.57852e-21)
(0.98363 -0.0324131 -3.00288e-21)
(0.96963 -0.00597443 -7.59831e-22)
(1.01868 -0.067759 1.06569e-21)
(1.0529 -0.152823 -3.10927e-21)
(1.02984 -0.0315085 4.07335e-22)
(1.02926 0.0600309 -3.32385e-20)
(1.21326 0.0181356 -6.55232e-22)
(0.993092 -0.00281168 -5.30743e-23)
(0.911615 0.0836386 3.62527e-20)
(0.976552 -0.0636765 4.4378e-21)
(0.993275 -0.0106517 2.09054e-22)
(0.970422 -0.00494447 1.25174e-21)
(0.998231 -0.0196752 -1.1074e-22)
(0.977108 -0.00278509 1.99348e-21)
(0.989385 -0.00429835 -3.89552e-22)
(1.02844 -0.0128256 -2.39349e-21)
(1.13767 -0.0545564 -7.67205e-23)
(0.999973 -4.58657e-05 -2.32765e-25)
(1.02444 -0.0124216 -2.61029e-22)
(0.999899 -3.1959e-05 -4.13786e-24)
(1.01032 0.0901604 6.62957e-21)
(1.14788 0.0791764 8.44772e-21)
(0.994985 -0.00210249 1.29167e-22)
(0.984837 -0.00195328 -1.78396e-21)
(0.999805 -5.71662e-05 -2.12641e-23)
(0.998128 0.0505978 2.02602e-20)
(1.03107 0.102265 1.54172e-20)
(1.12042 0.0278575 -2.80907e-21)
(1.13202 0.118983 -9.85288e-21)
(0.976748 -0.0676252 -1.89683e-21)
(0.998549 0.0102877 -3.03861e-20)
(0.999936 -0.000141153 3.67874e-24)
(1.05107 -0.0263337 3.08755e-21)
(0.979882 -0.00172219 -7.32908e-23)
(1.09444 0.0702347 -2.8431e-21)
(0.937156 0.0574155 -2.84099e-20)
(1.15069 0.0484266 5.80324e-21)
(1.05055 0.0309197 1.10225e-21)
(1.00025 -0.0132217 -6.21899e-23)
(0.999792 -8.89064e-05 -1.9561e-23)
(1.13429 0.103959 4.09189e-21)
(1.20777 -0.0279561 2.59686e-22)
(0.995759 0.0573898 -6.46412e-22)
(1.1018 -0.00514034 5.15818e-21)
(1.03197 0.0486456 9.79398e-21)
(0.992664 -0.0025154 -1.81285e-22)
(0.99231 0.074919 9.08922e-21)
(1.03503 0.0972987 5.44916e-21)
(0.990603 -0.00361608 -1.09141e-21)
(0.992173 -0.00336219 -4.04485e-22)
(1.14518 0.0939978 1.78047e-22)
(0.922308 -0.0197628 -5.08169e-21)
(0.999913 -0.000164508 -5.81086e-24)
(0.986502 -0.00586882 1.72317e-21)
(0.92887 -0.0276651 3.72314e-21)
(0.992017 -0.0845417 -5.55812e-22)
(1.00992 -0.00258708 -1.60039e-21)
(1.00868 -0.00596842 1.05153e-22)
(0.999872 -0.000204465 -1.11611e-23)
(1.03314 0.107772 -2.31821e-20)
(1.00061 -0.0119308 1.05945e-23)
(0.999894 -6.28649e-05 3.66394e-24)
(1.02684 -0.0625566 1.05855e-21)
(0.999491 -0.000451937 2.36756e-23)
(0.99977 -8.063e-05 1.46564e-24)
(1.00576 -0.0126225 -1.14397e-22)
(1.05759 0.0728204 1.8557e-20)
(1.02857 -0.114228 2.18917e-21)
(0.954677 0.0578568 1.67021e-20)
(1.00007 -1.12143e-05 -6.58532e-24)
(1.06283 0.0764964 -1.93753e-20)
(1.01826 -0.0539479 8.62044e-22)
(0.999922 -0.0001996 -1.65894e-24)
(1.00003 -6.34886e-06 -2.13267e-24)
(1.00315 0.0115528 -1.73489e-21)
(1.05316 0.062953 6.92448e-21)
(0.995946 -0.00257777 1.11907e-22)
(1.04877 0.049059 -8.97988e-21)
(1.00003 -2.08114e-05 1.5576e-24)
(1.04899 0.0544004 -1.24608e-20)
(1.16855 -0.132272 3.06417e-21)
(0.990082 -0.00324263 1.20173e-21)
(0.999195 0.0164117 -4.14808e-20)
(0.976691 -0.0531078 2.94833e-21)
(1.13607 0.112957 9.66403e-21)
(0.97183 -0.00493898 7.59205e-22)
(1.05352 0.0573493 1.62269e-20)
(1.05809 0.0662092 -5.00769e-21)
(0.983076 -0.00897298 2.80253e-21)
(0.977694 -0.0110671 -2.06959e-21)
(0.995027 -0.010582 6.16643e-22)
(0.997117 -0.000768841 -9.54612e-23)
(0.999797 -0.000198448 2.2406e-23)
(1.00037 -0.0114042 -1.89005e-23)
(1.04474 0.0923238 -2.75754e-21)
(0.999971 -3.59579e-05 7.16562e-25)
(1.04415 0.0468344 1.18802e-20)
(1.04388 -0.112786 3.33194e-21)
(1.00613 0.0591014 7.94626e-21)
(1.04387 0.0422568 -1.35076e-20)
(0.92579 -0.0259628 -4.56269e-22)
(0.961179 0.074012 -3.49979e-20)
(0.998407 -0.00120712 8.16438e-24)
(1.01809 -0.0269288 4.35199e-22)
(1.06138 -0.0793182 7.52355e-22)
(0.978128 -0.00261544 -1.19797e-22)
(0.993509 -0.0035367 5.38373e-22)
(1.01546 -0.0556432 -7.85111e-22)
(1.05754 -0.0173468 -3.20745e-22)
(0.918536 0.0520661 4.45148e-20)
(1.00005 -2.03367e-05 7.30733e-24)
(0.998119 -0.00128821 1.08588e-22)
(1.02547 -0.0802954 4.55474e-23)
(1.00002 -5.14902e-06 2.67662e-25)
(1.01093 0.0961589 3.25866e-21)
(1.00175 -0.00122079 0)
(1.00001 -6.59786e-06 2.08518e-25)
(1.00019 -9.00774e-05 2.77051e-23)
(1.00041 -0.000122002 5.51505e-25)
(0.985325 -0.0219173 2.04712e-21)
(1.02406 -0.0170698 -9.3285e-22)
(0.99848 -0.000937728 1.70548e-22)
(0.999913 -1.76193e-05 7.69897e-24)
(0.993069 -0.00331667 2.99466e-22)
(1.00506 -0.0131763 -8.58985e-23)
(1.00028 -0.125193 -3.46361e-21)
(0.932109 -0.00874766 3.63964e-22)
(1.01931 -0.0101518 2.74398e-21)
(0.999973 -2.82543e-06 2.27395e-24)
(1.12014 -0.156884 4.12763e-21)
(0.986712 -0.00408381 -6.909e-22)
(1.13206 0.0857294 -6.85918e-22)
(1.0003 0.0139397 -5.80086e-21)
(1.00131 -0.00365785 4.11125e-23)
(1.11993 0.0751695 -1.12114e-20)
(1.00015 -9.8607e-05 -1.90965e-26)
(0.987368 -0.00457934 2.03288e-23)
(1.02398 0.000910222 -4.45051e-21)
(0.993543 -0.00402267 -2.20499e-22)
(1.05926 0.0861937 -1.10864e-21)
(0.987299 -0.00715347 -1.29972e-21)
(1.05237 -0.0236608 -2.63862e-21)
(1.02453 0.00169484 -4.77617e-21)
(1.06136 0.0395146 -2.79695e-21)
(1.00816 -0.0156654 -4.46116e-22)
(0.989942 -0.00462563 3.23813e-23)
(1.08092 0.0722739 8.54425e-21)
(0.985086 -0.0933327 -3.06479e-21)
(0.999857 0.0948381 2.72425e-20)
(0.991141 -0.00521577 -1.26081e-21)
(1.06263 0.110425 -1.45327e-22)
(0.991114 -0.00457505 3.36741e-22)
(0.998866 -0.000541379 -1.10651e-23)
(1.05 0.0277422 3.07679e-21)
(1.0168 -0.0308826 -1.02563e-22)
(1.03658 0.00333556 6.70504e-21)
(1.00179 -0.000872373 5.76039e-23)
(1.00001 -4.94981e-06 9.63377e-26)
(1.01544 -0.141899 1.26002e-21)
(1.10978 0.118901 -1.34055e-20)
(1.00156 -0.00354613 -5.53944e-23)
(1.12886 0.0769663 1.0896e-21)
(0.988007 -0.00666053 -8.49456e-22)
(1.11097 -0.165022 -1.50723e-21)
(1.05036 -0.0408413 3.84171e-23)
(0.983341 -0.0344882 1.68615e-21)
(0.998364 -0.00105427 -7.20242e-23)
(0.991352 -0.00115213 -2.55414e-22)
(0.977194 -0.0802669 -1.83134e-21)
(0.969555 -0.0107036 2.86742e-21)
(0.990554 -0.00426943 8.9261e-22)
(0.999857 -0.000460745 9.62177e-24)
(0.993163 0.100101 -3.33669e-21)
(1.11685 0.0670697 6.85081e-21)
(1.02525 -0.0103638 -8.44407e-22)
(0.999804 -0.000154042 1.4917e-23)
(1.03271 0.0919263 -1.04522e-20)
(1.00001 -2.50654e-05 5.34733e-25)
(0.999819 -0.000137138 2.94577e-23)
(1.10834 0.065711 5.90695e-21)
(1.01198 -0.0259212 2.85736e-22)
(1.11873 0.107516 1.11013e-20)
(1.02385 -0.00283211 1.87609e-21)
(1.01771 -0.0127994 -1.9343e-22)
(1.10236 -0.0635126 4.98645e-22)
(1.06967 -0.138248 3.30039e-21)
(1.20283 0.049648 -1.05152e-21)
(1.00127 -0.000880169 -1.26303e-22)
(0.951622 -0.0189738 -2.89404e-22)
(0.999982 -6.00718e-05 -4.40735e-25)
(1.00539 -0.0115463 8.01999e-23)
(1.06308 0.0824907 6.9327e-21)
(0.983992 -0.00838789 1.95515e-21)
(0.997278 -0.00153992 1.50942e-22)
(1.01783 -0.0428471 -3.99982e-22)
(0.998087 -0.00113722 1.03904e-23)
(0.999618 -0.00113202 3.07627e-23)
(0.911511 0.0120962 7.91776e-21)
(0.990603 -0.00562127 -7.14186e-22)
(0.999475 -0.00075422 -9.22485e-23)
(0.999982 -6.88476e-07 -4.55766e-25)
(1.01724 0.00640151 9.3876e-21)
(0.972767 -0.0295075 -4.33464e-22)
(0.999684 -0.000569771 2.7178e-23)
(0.997284 -0.000892738 1.94668e-22)
(1.02333 0.0206854 3.82279e-21)
(1.0683 0.0115752 7.14401e-22)
(0.960688 -0.0267495 -2.45449e-21)
(1 -1.5821e-05 3.35119e-25)
(1.00146 0.0131242 2.50473e-20)
(0.986591 -0.0190174 -1.39847e-21)
(1.06875 0.0665966 -1.3719e-20)
(1.01284 -0.00131442 -2.41482e-21)
(1.01478 -0.00125301 5.5033e-21)
(0.967773 -0.0133588 3.90689e-21)
(0.999906 -6.70904e-05 -2.38559e-24)
(1.02376 0.000278269 -8.56586e-22)
(1.07326 0.00905043 -1.03125e-21)
(1.18022 0.0545215 3.90546e-21)
(1.05022 -0.106673 6.4906e-22)
(1.04165 0.0871544 8.29197e-21)
(1.00582 -0.00171298 -3.89795e-23)
(1.08746 0.075916 -1.17439e-20)
(1.00047 -0.0154354 -1.10019e-22)
(1.02242 -0.0603716 -2.07764e-21)
(0.999618 -0.000171122 -2.97538e-23)
(1.00408 -0.0202739 1.02671e-22)
(0.9999 -0.000442825 3.24404e-24)
(1.04635 0.0337479 -9.03215e-21)
(1.08047 0.118672 -2.43419e-20)
(0.998559 -0.00124409 5.73803e-23)
(1.0191 -0.0128449 5.75352e-23)
(0.982425 -0.0050699 6.72957e-22)
(1.05313 -0.092282 2.41049e-22)
(1.0477 -0.0986406 -1.66932e-21)
(0.998184 -0.000898208 1.14057e-22)
(1.04756 -0.0270519 -1.07589e-21)
(0.91944 0.00347621 -1.3388e-20)
(1.17649 0.0362234 2.72222e-21)
(0.999948 -0.000170963 7.73642e-24)
(1.06364 0.0087089 -2.59416e-21)
(0.997322 -0.0095839 -2.97212e-22)
(0.994467 0.00258948 2.87471e-20)
(0.987992 -0.00582821 1.18291e-21)
(0.996973 -0.0287205 -3.5606e-22)
(1.02015 -0.0376845 -4.74937e-23)
(0.995538 -0.0297743 -5.84993e-23)
(0.999361 -0.0227664 -7.79746e-22)
(0.992606 -0.00360225 2.06533e-22)
(0.999554 -0.0153255 4.23352e-22)
(1.00208 -0.00659957 -6.36528e-23)
(1.0592 -0.0210852 7.19385e-22)
(1.00011 -2.75896e-05 -1.80141e-23)
(1.20715 -0.0917405 -9.4469e-22)
(1.16205 -0.00419849 4.91096e-22)
(1.02159 0.10534 1.89154e-20)
(0.96271 -0.02525 3.73006e-21)
(1.11032 0.10331 -5.644e-21)
(1.00193 -0.000685296 2.03407e-22)
(1.07794 -0.0768407 -4.93842e-23)
(1.00686 -0.0411616 -7.94176e-22)
(1.02031 0.0359558 1.09183e-20)
(0.993135 -0.00435167 5.10739e-22)
(1.00011 -0.000189226 1.1986e-23)
(0.987357 -0.01977 1.82444e-21)
(0.995897 -0.010275 -2.33648e-22)
(1.04439 -0.024688 2.19331e-21)
(0.971183 -0.0081711 -2.42399e-21)
(0.976475 -0.0103441 6.82287e-22)
(1.1323 -0.032515 4.34643e-22)
(0.985223 -0.00327097 -1.16813e-21)
(1.01757 -0.0396128 2.23443e-22)
(0.994152 -0.0894477 2.16569e-21)
(1.00001 -8.29728e-06 1.78783e-25)
(1.0603 -0.0132213 3.92951e-21)
(0.995362 -0.0801033 -5.78471e-21)
(1.11601 0.0898557 5.35747e-21)
(1.10322 -0.0709759 -1.09539e-21)
(1.03507 0.00281035 5.70725e-22)
(1.03567 -0.109636 -4.38077e-21)
(1.04209 0.114604 5.09663e-21)
(1.03793 -0.0364318 8.07775e-22)
(0.96628 -0.0123647 -2.31211e-21)
(1.0181 -0.0500836 -9.43105e-22)
(0.961826 0.00503981 1.27825e-20)
(1.16867 -0.0977376 5.22639e-22)
(0.987298 -0.0054244 -3.5923e-22)
(1.03997 -0.137761 -3.42656e-22)
(1.03224 -0.0704493 1.33167e-21)
(1.05524 -0.12512 -6.68409e-22)
(1.05001 -0.0851838 -1.57451e-21)
(1.08034 0.0656975 1.08385e-20)
(0.997305 -0.00176765 1.00089e-23)
(1.0081 0.0420581 4.05814e-21)
(1.00773 -0.00159732 2.87709e-22)
(0.999621 -0.000575947 -3.91037e-23)
(0.998853 -0.00247931 2.78944e-22)
(1.05931 0.00199759 -9.68331e-22)
(0.874285 0.0042839 3.83446e-22)
(1.00173 -0.00705468 3.54232e-23)
(1.02216 -0.0559932 3.02094e-22)
(1.02346 0.0235926 -6.35347e-21)
(1.00003 -7.92879e-06 -3.70335e-25)
(0.978852 -0.0103861 1.64984e-21)
(1.02255 -0.00970227 1.97203e-21)
(1.07919 -0.0401534 1.29897e-21)
(1.00782 -0.000874676 1.61273e-21)
(0.998464 -0.00219243 5.14954e-23)
(0.98511 -0.0438028 4.92147e-23)
(0.997999 -0.00920814 -8.41742e-23)
(1.00003 -5.94248e-06 4.04315e-24)
(0.979023 -0.051922 -4.96335e-21)
(1.05044 0.0810071 -2.94529e-21)
(1.02176 -0.0327816 1.52531e-22)
(0.983238 -0.00572856 -1.26326e-21)
(1.00177 -0.000434128 -7.31975e-23)
(1.02643 0.0255423 8.37737e-21)
(0.999629 -0.000690316 -1.80728e-23)
(0.998788 -0.000709297 -5.68332e-24)
(0.999651 -0.000187395 -2.71039e-23)
(0.999291 -0.0023217 -6.93847e-23)
(1.1674 0.0555115 3.36945e-21)
(1.03108 -0.0370257 1.0314e-21)
(1.0088 -0.0197216 1.53819e-22)
(0.9821 -0.00844833 -5.7594e-22)
(1.00004 -5.55196e-05 3.91848e-24)
(1.08944 -0.130132 4.27718e-21)
(1.20904 -0.0119071 1.14639e-22)
(1.09684 -0.140133 -2.06739e-21)
(0.998514 -0.0365028 -6.62886e-22)
(1.0139 -0.00955849 1.84281e-21)
(0.999793 -0.00010827 1.23486e-23)
(0.988836 -0.012873 -7.30863e-22)
(0.958257 -0.0540263 -2.95543e-21)
(1.16573 0.0381528 3.66322e-22)
(1.00461 0.0575203 -2.87224e-22)
(0.998904 -0.00350156 5.61829e-23)
(0.942246 -0.0385721 1.68618e-21)
(0.995383 -0.00306003 -4.87746e-22)
(1.03564 -0.0336762 -1.61805e-22)
(1.09259 0.0628391 1.14104e-21)
(1.00044 -0.000146458 -6.15632e-23)
(0.999848 -0.000232821 -4.42909e-24)
(1.14312 0.100351 1.13023e-21)
(1.1609 0.0194962 -3.58238e-22)
(1.01874 -0.016006 6.80372e-22)
(0.997121 -0.00192961 2.57048e-22)
(0.997953 -0.000507651 -2.54549e-23)
(0.966028 -0.0546124 7.20808e-22)
(0.999832 -0.000385745 -1.48635e-23)
(1.01957 -0.0347131 2.96597e-22)
(0.986595 -0.00161459 2.41939e-21)
(1.00054 0.0161783 -4.81042e-21)
(1.05439 0.0861138 -1.51838e-21)
(1.07214 -0.0711333 4.23598e-22)
(0.999804 -0.0803193 2.15338e-21)
(1.00634 -0.00157636 8.04798e-22)
(1.01575 -0.0259629 -6.41257e-22)
(1.15285 0.00270888 2.34256e-21)
(0.999904 -0.0895595 -1.33602e-21)
(1.02118 -0.0480255 5.20817e-22)
(0.999999 -7.80245e-06 1.90022e-26)
(1.13987 -0.0126962 1.26858e-21)
(0.973497 -0.00332252 2.28019e-22)
(0.999649 -0.0997211 2.66763e-21)
(1.02105 -0.0301529 -1.00456e-21)
(0.953982 -0.0179328 -5.20674e-22)
(0.999609 -0.000329947 -1.32717e-23)
(0.99707 -0.00144424 -1.14653e-22)
(1.03976 0.0402271 1.04261e-20)
(0.969468 -0.0124867 -8.79093e-22)
(0.999984 -2.05839e-06 4.887e-25)
(0.997185 -0.000594459 -2.69179e-22)
(1.16436 -0.082737 -3.97374e-21)
(0.999837 -5.4541e-05 3.10551e-23)
(1.02531 -0.0536366 -1.47276e-22)
(0.999952 -0.000136537 -6.22804e-25)