/*--------------------------------*- C++ -*----------------------------------*\
  =========                 |
  \\      /  F ield         | OpenFOAM: The Open Source CFD Toolbox
   \\    /   O peration     | Website:  https://openfoam.org
    \\  /    A nd           | Version:  7
     \\/     M anipulation  |
\*---------------------------------------------------------------------------*/
FoamFile
{
    version     2.0;
    format      ascii;
    class       volScalarField;
    location    "35";
    object      p;
}
// * * * * * * * * * * * * * * * * * * * * * * * * * * * * * * * * * * * * * //

dimensions      [0 2 -2 0 0 0 0];

internalField   nonuniform List<scalar> 
29540
(
0.00960341
0.136578
-0.00994508
-0.0396576
-0.00284855
-0.0406939
-0.0327665
0.00842862
0.00230802
0.000189169
0.00406878
-0.00574623
-0.000600879
-4.54454e-05
0.085697
-0.00681919
-0.000246372
0.0104278
-0.00251857
-0.0117403
-0.00103717
0.00216919
-0.0101141
-0.00247874
0.575216
0.135687
-0.000643872
0.475648
0.072741
-0.00203733
0.0180682
0.0573345
-0.0648047
-0.00838335
0.483453
-0.0104469
0.142348
-0.0299056
0.00661265
0.00633933
0.000478951
-0.0198118
-0.000223224
-0.0315781
2.28963e-05
-0.00187155
-0.00512177
6.25696e-05
0.00378053
0.138446
-0.0565979
-0.0347984
0.0594883
-0.0391617
-0.00668128
0.0714259
-0.00401331
-0.0010692
-0.00617066
-0.0245276
-9.75625e-05
-0.00245141
-0.0909924
-0.00935061
0.235417
0.542058
-0.0102399
-0.00983043
0.515371
0.000502725
0.134218
0.393058
0.00243651
0.535082
-0.00879118
-0.0231146
0.0362191
-0.0262981
-7.6125e-05
-0.0206236
-0.0358917
0.185932
0.00958667
-1.75899e-05
-0.0308633
-0.173658
0.268865
-0.00062405
-0.000580961
-0.0513319
-0.0274799
-0.0266867
0.00346144
0.0505635
-0.0528045
0.270556
-0.036369
0.000518099
-0.0449603
0.117316
-7.97731e-05
-0.0248732
-9.45754e-05
0.0358112
-0.0354563
0.111084
0.332109
-0.000559769
-2.87239e-05
-0.0660173
-0.0636611
0.00398141
1.25211e-06
-0.0018645
-0.000217883
0.382169
0.198589
-0.0127595
6.5495e-06
0.0029037
-0.173422
0.146466
-0.0688658
0.537952
0.00125082
-0.0488037
0.0152469
-0.0212326
0.00463885
-1.65037e-05
-0.0296532
0.0222377
0.369015
-0.088155
0.0355151
0.0175744
0.282127
-0.0253123
-0.130184
0.109688
-0.0422637
-0.0445842
-0.046471
9.25996e-07
-4.89503e-06
-0.00290833
-0.00481224
-0.0503913
-0.107133
-0.0816237
0.0278276
0.0131491
0.000464891
-0.000188517
0.198252
0.000546686
-0.00895567
0.258169
0.241213
-0.0565678
-0.0344562
-0.0385828
0.0777476
-8.00766e-05
-5.29104e-06
-0.0128579
-0.0447991
3.15921e-05
-1.94431e-05
-0.00789318
-1.59361e-06
0.00642969
0.263364
-0.0247719
-0.0626325
-0.00566949
0.00235651
-0.0259226
-0.00153615
-0.0645801
-2.90993e-05
-0.00773701
0.265248
-0.00910267
-0.129416
0.195454
-0.00707461
-0.0194378
0.00437184
-0.00204634
-0.000358624
0.0013349
0.548152
0.19479
-0.0149206
-0.00857901
0.453005
0.173398
-0.052383
0.00130657
-0.0528266
-0.0544261
-0.00556637
0.000943076
0.277054
-0.00757384
0.00785551
-0.0497139
-0.067782
-5.41697e-05
0.417068
-0.00122989
-1.93317e-05
-0.00067143
-0.0265836
-0.0765115
-0.0064778
0.00765207
-0.00246133
-0.052974
2.02273e-06
0.000478427
-0.00265604
0.0914785
-0.00329845
-0.0017621
0.0603137
0.000110482
2.09881e-05
0.0060574
-0.0306685
-0.0229064
-0.00530095
0.132645
-0.0158774
0.014065
-4.73253e-05
-0.0034372
0.000879195
-0.0499343
-0.102134
-0.0016204
0.000498049
-0.0018218
0.00308665
-0.0113551
-7.68794e-05
-0.16926
1.84072e-05
0.0930442
-0.00387387
0.000131716
0.113064
-0.0537472
0.000262973
-7.18473e-06
-0.0446165
-0.098284
-0.00983548
-0.0228242
0.0275227
0.253553
6.6842e-05
-0.0289445
-0.105129
0.465061
-0.00909851
0.192293
-0.0185399
-0.000340946
0.659575
-0.000666711
-0.0649027
-0.0524045
0.00253957
-0.0582562
-0.00909628
0.372932
-0.0039562
-0.0193281
-0.00036023
0.174673
-0.00387019
0.277039
-0.000625481
-0.00653256
0.445271
0.0781234
0.0602671
-0.0343934
-0.000205767
0.00301503
-0.00025822
-1.75494e-05
0.0798194
2.82484e-05
-0.0208729
-0.107282
0.583193
0.365196
-0.0475005
-0.0213969
-0.0217857
0.00497577
0.00229119
-0.0197722
-0.0506806
0.260037
0.397762
-0.00150778
0.325708
0.0774543
-0.0713996
0.012235
-0.00259344
-0.01578
-0.00605966
-0.00302871
-8.95322e-05
-0.0023659
-0.00857414
0.179765
0.00184133
-0.0286458
0.0141829
-5.99806e-05
-0.0490242
0.614305
-0.00716803
-0.00174784
0.0130881
-0.0192811
0.0931943
-0.00184643
-5.79532e-05
8.49188e-07
-0.0030494
0.448436
0.0200211
-0.105558
-6.38219e-06
-0.103996
0.0512454
-0.0057614
-0.0486778
-0.00160177
-0.000548309
-0.026812
0.00104525
-0.0662338
0.0122948
0.0177399
-0.000282585
0.00190328
0.145295
-0.170401
0.00045441
0.000485044
0.376502
-0.0277513
-0.00197346
0.182296
0.474131
-0.0674091
-0.00946933
-0.0689875
-0.000932564
-0.00945257
-0.00387249
0.169356
-6.46691e-05
0.0118258
-0.113895
0.376641
0.525327
-0.00687398
-0.0100889
0.24572
-0.0254498
-8.7105e-05
-0.0348969
0.0969351
0.0987394
-0.00863284
0.0302054
0.466813
-0.118402
0.418419
0.384076
-2.60971e-05
-0.00728332
-0.107206
-0.00348372
0.00188224
0.478913
0.0197846
0.000308688
-0.0388376
-0.055352
-0.00640631
-0.00017619
0.278562
0.19444
2.20213e-05
0.00480584
0.00637727
-0.124826
-0.0343938
3.95006e-05
-5.12151e-06
0.000562867
0.0991525
-0.0296543
0.296606
-0.0511182
-0.0208345
-0.0226966
0.177952
-0.0791185
-0.00146499
0.00952453
0.000973182
0.420696
-0.027418
0.00127051
-0.00851129
-0.0399537
-0.00202843
-0.013946
0.000252282
0.000259145
0.62374
-0.00920011
-0.00592957
-0.000607108
-0.000911269
0.23749
-0.11606
-0.0292134
2.56977e-06
-1.6553e-05
-0.0282846
-0.00773829
-0.00601677
0.0204161
0.00731813
-0.00374489
-0.0064103
-0.0192591
0.410118
0.00371986
0.000269193
-0.0469804
-0.0273255
-0.0399203
-0.00413203
-0.0289832
-2.73886e-05
0.514229
0.0234121
6.98066e-05
0.548275
-0.0299805
-2.90972e-05
0.00171532
-0.0484936
0.00567099
0.0464649
-4.18137e-06
-0.00904705
-0.0141855
-0.00622331
-0.000602341
-0.00936892
0.458438
-0.00975996
-0.0135299
0.208164
-0.00331779
0.437344
-3.17887e-05
-0.019251
-0.0534215
-0.0285878
-0.116503
-0.0019338
0.00016432
-0.000226476
-0.0213677
0.00158218
-5.67954e-05
3.72044e-06
-0.00723703
0.410902
0.00716923
0.00295012
-0.0521629
-5.38656e-06
0.00115583
-9.14093e-05
0.00988591
-0.0195297
-0.000504005
-0.00960503
-0.0139685
0.00121873
-3.35706e-05
-0.114264
-0.000547662
0.0448368
0.343564
0.252006
-0.00594789
0.00718826
0.0310767
-0.000158317
-0.00449774
-1.10021e-05
0.388189
-0.0156878
0.0201298
-0.018647
0.00149642
-0.00383058
-0.000159972
4.6734e-06
-0.0057392
0.0466711
0.245598
0.00147798
-0.0429129
-0.0269328
-0.00904008
-0.0768766
-0.00161868
0.000625798
-0.00651549
-0.000149745
-0.0499245
0.276511
0.181883
-0.0245683
0.269445
7.12872e-05
2.1189e-06
-0.0289158
-0.0506281
0.5349
-0.0510124
-0.0229162
-0.0329162
0.00140846
-0.00680635
0.000535879
-0.0119939
-0.0146567
-2.13748e-05
-0.00111621
0.372493
-0.000212014
0.495352
-9.79229e-06
-0.147463
0.0410546
-0.00227833
0.0012496
0.000201611
0.402175
0.0472675
-0.0544195
0.190023
-0.00842416
-0.0146735
-0.00480681
0.177454
-0.0280978
0.00723829
-0.00920001
-4.68073e-06
-0.0016024
0.00696682
-0.0193796
-0.0240446
-0.0441005
-0.0195732
0.121454
-0.00259347
-0.0518649
-0.0151729
1.51169e-05
-0.0133774
0.00400784
0.12372
-0.0294489
-8.32967e-06
-0.0202804
-0.00120058
0.00167595
-0.121952
0.295846
0.00107633
-0.0132245
-0.0536937
0.0805755
0.447642
0.00217193
-0.00657854
0.197614
0.161535
-0.0181486
0.00595906
-0.0478668
-3.96131e-06
-0.0402487
8.02972e-05
-0.0518212
-5.14605e-05
1.10558e-05
-0.00851656
-0.0910571
0.336374
0.00404497
0.0132629
-2.38962e-06
-0.00741397
8.60541e-05
-0.00388901
1.16169e-05
0.0504826
-0.000618326
0.17485
-0.000185901
-0.0141063
-0.036021
-0.00502556
0.444225
-0.0179175
-0.0615672
-0.00666445
0.053051
-0.046642
0.0340798
-0.0305457
-3.63812e-06
-0.00702649
-0.00470192
0.000278752
8.15621e-05
0.17342
-0.00583744
0.0882205
-0.00630903
0.00103342
0.0372894
0.00017731
-3.35901e-05
-0.0396262
-0.00417061
1.56172e-05
0.227756
0.589054
-0.00029087
-0.0347919
3.11363e-06
0.476338
-0.158159
-0.038948
2.27825e-05
0.00815655
0.0659714
0.0778447
0.0449481
-0.000520283
-0.000225511
-0.0172347
-3.82442e-06
1.04217e-06
-0.0285057
-0.0358284
-0.0434477
0.561754
0.000220583
-0.0411414
0.00928432
-3.07854e-05
-0.00159367
1.01963e-05
-0.00746613
3.50514e-05
-0.0290922
0.0329465
0.430943
0.0514813
-0.000375949
0.000529222
-0.127967
0.0863594
-0.00374203
5.14306e-06
0.186628
-0.122518
-0.0496114
-0.0154203
-3.8567e-05
-0.000371732
-0.125768
-0.0265635
0.147126
0.407683
-0.0602451
-0.00157161
-3.04858e-05
-0.0455564
-0.0638606
-0.000280654
0.00146119
-0.0175651
-0.0055711
0.398151
-0.00161919
-0.0103396
0.048615
-0.0089054
0.537816
0.538653
-5.78641e-05
-8.21233e-05
-0.0176231
0.0189651
-0.0338995
0.00638498
-0.00862087
-0.000739833
0.459624
0.170337
0.00272634
0.651731
2.41795e-06
0.111444
-0.0610339
-0.0410478
8.63909e-05
-0.0350188
0.116037
0.0181052
0.0700909
-0.00058681
-0.000628315
-0.0109089
-0.00413664
-0.0151384
-0.001381
0.112848
-0.00771367
-0.00630968
-0.0523512
0.368782
-0.0146804
0.0366206
-0.000527241
-0.00066395
-0.0219634
0.00118494
-0.00310926
-3.69473e-05
-0.000453077
0.116465
0.403772
-0.000184302
0.116956
-2.39354e-05
-0.0040128
-3.54299e-05
0.00656219
-0.121119
-6.88629e-05
-7.10478e-05
-0.0525717
-3.22892e-06
0.0455759
-0.0277706
-7.74838e-05
0.167009
-1.57233e-05
-0.000523543
-0.000133368
-0.00604919
-0.000512929
-0.00713767
-0.0705791
-0.00045946
0.00514645
-3.40315e-05
0.329634
-0.0112168
-0.0175006
-0.0318741
-0.0234762
-0.00147685
0.00352299
0.212614
-0.0282597
0.146197
-0.0386744
-0.00414345
-5.98393e-06
-0.00671364
0.365525
0.185651
-0.03839
-0.0469628
0.315821
-0.00958347
-0.0564714
-3.4942e-05
-0.0288313
-0.00104265
0.631436
-0.0497296
-0.000130571
-0.0512122
-0.0290328
0.249197
-0.00307183
-0.0300417
-0.00480165
-0.00796398
-0.00157441
0.248731
-0.100179
-0.0206621
-0.0163878
-0.0139666
0.00679355
0.309407
-0.0197783
0.19184
0.00328057
-0.119888
0.505788
-0.00972496
-0.000310988
0.245078
0.377892
-0.00954036
-0.00636605
-0.00805637
-0.0315631
0.200005
-0.0451328
-4.10913e-05
-0.00838064
2.637e-05
-0.00521623
-4.33737e-05
-0.00596149
-0.00119223
-0.0038147
-0.12206
-0.000759018
-0.000641947
-0.00143839
0.205794
-0.00246978
-0.00382738
-0.00363272
0.165135
0.00622995
-0.000493233
0.36257
0.531034
-0.0203415
0.458896
-0.0179727
0.341951
0.00645899
-0.0188453
0.00301239
-0.000580433
9.66421e-06
0.00296267
-0.0127559
-0.02021
0.186426
-0.0231965
-0.0205279
-0.00111433
-0.120946
-0.0261793
0.00762372
-6.74072e-06
0.00508972
0.0264092
0.382946
-0.00519096
-0.0139416
0.144888
-0.000455867
0.0407178
-0.0183362
0.00064181
-0.0507216
0.00274378
0.343315
-0.00237461
-0.000655627
-0.00018515
-0.0530241
-0.00156783
0.636378
0.658139
0.0136577
-5.71151e-05
0.00939378
-3.01333e-05
0.0497903
-0.000647246
0.0240473
0.573654
-0.033795
1.04688e-05
-0.00856272
-3.05373e-05
-0.0985474
-0.0334011
0.464642
0.000232971
0.0131421
0.00210703
0.000295411
-0.00251074
-0.000369723
-0.00636238
-0.0382096
-0.0230971
0.00518457
0.162164
-0.013587
0.00686571
-0.0204625
-0.00214661
-0.0274287
6.06481e-06
3.23013e-05
-0.00238866
0.0295912
-0.0347099
-0.0166749
-0.00388454
0.00289258
-0.0336553
0.196055
-0.0128383
-6.30724e-06
-0.0477936
0.425459
-0.0830953
-0.0122366
0.03781
-2.44773e-05
-0.000759084
-0.0280439
-4.73375e-05
-0.000509721
-3.0385e-05
0.652974
0.00944483
0.00380261
-1.275e-07
5.81743e-07
-2.61244e-05
-2.94989e-06
-0.0220678
0.378963
-0.0334844
-0.000551399
-0.000197083
-0.00610359
0.46387
-0.0519232
0.415605
-0.00255933
0.140981
-0.000156766
0.458016
-0.00231921
-0.00949034
-0.00844767
0.00629636
0.00763636
0.184931
-0.0381464
0.451111
0.273735
-0.00855435
-0.0288114
-0.0105201
-0.0283696
-1.82537e-05
-0.00099389
0.00279652
0.0697916
-0.00665782
-0.0221899
-0.00343328
0.556035
-0.070523
-5.04103e-05
-4.2447e-05
0.471457
-0.00496028
0.00111626
-0.0129096
-0.00229584
-0.0152019
-0.00973146
-0.0841415
0.0300267
0.00247096
-0.00999694
-0.0141793
5.35797e-05
-0.00574445
-0.0017111
-0.00781912
-4.07993e-05
3.26456e-05
-0.022876
-0.0199393
0.446307
-0.0362181
-0.000234601
-0.0015658
-0.000342848
0.360425
-0.0764244
-5.10047e-05
-0.0293181
-0.00447743
-0.00361885
-0.0271855
-0.030301
0.00650241
0.0519613
-0.0623811
4.30629e-05
0.00578802
-0.0127255
-1.97271e-05
-8.17867e-05
0.112209
0.0810812
-0.0584037
-0.0429747
-0.051056
0.000485315
0.484959
4.03293e-05
-0.0185795
0.394412
-0.0162383
-0.0344545
1.58074e-06
0.000118492
-0.0344931
-0.00894458
0.0013117
-0.0293522
0.228108
0.235146
0.000631503
0.000211177
0.189479
-0.0119458
-1.99929e-05
-0.00147138
-0.0259492
-0.0212195
-0.0110689
-0.00281451
0.126712
6.59524e-06
0.0721087
0.267213
1.14252e-05
0.00581409
-0.000458362
-0.0809192
-0.0127526
-0.000669041
0.0257655
0.000154631
0.218232
0.0013057
0.0198027
-0.00811898
0.582663
0.366567
-0.0462093
-0.00660856
1.46643e-06
-0.100831
-0.0118451
0.137627
0.304215
-0.0293757
-0.031482
-0.0140932
-0.00545027
0.137622
-0.000199593
0.45056
0.0210512
2.86314e-05
1.27138e-05
6.91742e-05
-0.0107149
-0.014725
0.000564906
-0.00254183
0.0837524
-0.0427602
0.000308782
3.9295e-05
-0.0194535
-4.84727e-05
-0.00238665
-0.00946599
-0.000687169
-0.037696
0.00332456
-0.00115207
-0.00310246
-0.0131416
0.366919
0.377133
0.0308818
-2.39918e-05
-0.000477755
0.242191
-0.000402393
-0.116204
-0.000191627
-0.0161798
-0.0647075
-0.000201167
-0.000214512
-0.0269809
0.00104033
-7.94968e-05
-0.00110056
0.179379
-0.0273358
-5.14435e-05
0.0831403
0.34351
0.355432
0.000464726
-0.10129
-0.00736378
0.422229
-0.0527378
-0.0540731
-0.0150829
-0.0100718
0.0224768
-0.0198682
0.35592
0.0533817
-0.000166613
-0.040826
-0.0514541
-0.00307742
-3.33752e-06
-0.00150298
0.204127
-0.000184773
-0.0114324
-0.00322191
-0.000964943
0.00696645
0.0236617
-0.000171055
-0.000121361
-0.00702079
-0.0816962
-0.0278987
-0.0589965
0.236754
-0.00238543
-0.000247355
-0.0293381
-0.0187366
0.0071919
0.010564
2.38121e-05
0.0611882
0.129686
0.0151122
0.0190255
-0.000528992
-0.0103048
-0.0908421
0.00100442
-7.92151e-05
-0.00748719
-0.00314546
-0.000611963
-0.00894915
-0.000699675
0.188771
-0.00703411
-0.108964
-0.0187744
-0.00827475
0.00924108
0.473941
-0.0321871
-0.000124793
0.455568
0.149784
0.00604095
-0.00453648
0.00585275
-0.0584331
0.148238
0.000249813
-0.00292726
0.574254
0.285065
0.298688
-0.0340261
-0.00112051
-0.000988695
-5.03402e-05
-0.00104956
0.254105
0.0705613
-0.0137099
-0.00608832
-0.000315858
-0.0764592
0.546791
0.397836
0.0672846
-0.00222455
-0.0453789
-0.00482885
-0.000597471
-0.0193912
0.0071082
-0.020539
-0.00275568
0.000648702
-0.0717562
-0.0813389
0.0242915
-0.0191242
-0.00537767
-0.0193617
-0.000183015
-0.00541368
-0.000569755
0.325078
1.53979e-05
-5.8909e-08
-0.0293205
-0.0149024
-0.021399
0.0309208
-1.53603e-07
-0.0674574
0.0470075
0.183981
0.619198
-0.00360132
-0.107324
0.0232175
-0.00164456
-0.00614998
-0.000496802
0.00796608
-0.000174487
0.220451
-0.126655
0.00821511
0.0865762
0.104275
0.00107661
0.00167991
8.76275e-07
0.416616
-9.54055e-06
-0.0330616
0.000236042
0.00120746
0.161563
0.0869898
-0.0605273
-0.0286947
-0.00323264
0.65838
-0.0597331
1.33923e-06
-0.0118363
-5.96326e-05
-0.0156977
0.088927
0.187436
0.000664565
-0.0260231
-0.00718285
0.137205
-0.0793759
-0.0240622
0.559229
-0.00755503
3.56076e-05
-0.136208
0.583349
0.00087774
0.0808572
-0.0333462
0.115244
0.0014344
0.0188591
-0.0526831
0.00345355
0.0443888
-0.0295177
0.134599
-0.0195665
-0.0147356
-0.000647861
-0.000652431
0.502403
-2.07147e-05
-0.00480633
-3.85851e-05
-0.00616649
0.00024916
-0.00562046
0.211075
-8.67729e-06
-0.000814626
-0.0624097
-0.119319
-0.0198432
0.00082983
0.407918
-0.0458992
0.159869
-0.00896894
0.143148
0.00464453
-0.00060734
-0.125022
0.000569389
0.515199
-0.021125
-0.000118338
0.00172142
0.13111
-0.00851134
-0.000570488
-0.000127378
-0.0761545
-0.00201044
-0.00762854
-0.0579448
1.01396e-07
-0.0490327
0.000276652
0.347792
-0.00797638
0.136771
0.00317372
-0.00287202
0.249993
-0.0549065
-0.140629
-0.00340669
-0.080047
0.258996
0.273787
-0.0106342
-2.79704e-05
-0.0117436
0.00352769
-1.08056e-05
0.0120238
0.382479
0.00969985
0.00120284
0.00280423
-0.0498403
-0.00015537
0.0584347
0.0353384
0.0540685
0.0101733
0.0213179
-0.000327886
0.165983
-0.127037
-0.123389
-0.000801916
0.0103256
0.129098
0.000598451
-0.0509513
0.206889
-0.0359478
-0.0519824
-0.0516502
-0.0987505
-0.0980297
0.0425785
0.212287
-0.0959851
-1.74e-05
0.000564698
-0.0713552
-0.00140139
-0.00129174
-1.98789e-05
-0.004391
0.00304063
-7.46921e-05
0.0474985
-0.000427835
0.109211
-0.0259423
-0.00632685
-0.00526915
-0.00647617
-0.052801
-0.00445904
-0.000864169
0.0166327
0.0646639
0.00312591
-0.0245337
-0.00229333
0.0221532
-0.00718461
-0.0145434
-0.0517198
-0.0119851
-4.70758e-05
-0.0115224
0.452866
6.56215e-06
-0.00201914
-0.0535119
0.547965
0.0391032
-0.0338853
-3.10965e-06
0.00127372
-0.0681711
-2.38731e-05
-0.00210352
-5.74495e-06
-0.0588787
0.0034469
-0.0735229
-0.0172122
-0.000120952
0.265468
0.25761
-0.0268757
0.000329422
-0.000160577
-1.70421e-05
-6.3617e-05
0.487279
-0.00104855
0.00174091
0.0171027
0.000712095
-0.000490358
-0.0522569
-0.000237632
0.0335226
-0.000106608
-0.00164435
-0.000605531
-0.0191304
-0.0308708
0.162412
0.0497263
-0.000151919
-0.010089
0.000392987
-0.0842903
-0.000582086
0.109555
-0.0093104
0.652824
-0.0166105
-0.00115229
0.0626805
-0.0144282
0.342529
-0.0313216
-0.00856046
-0.00988981
0.014477
-0.00285676
-8.59342e-06
-0.00643199
0.297817
-0.0320507
-0.00252983
-0.0307408
-0.020185
0.141259
-0.00042626
0.264908
-0.00559287
-0.0514194
-0.000444794
0.0102708
0.0360359
-0.0102978
0.318197
-0.000398052
0.0266008
0.0755661
0.000336942
-0.000133949
0.534823
0.0413316
-0.00148737
0.0231554
0.00823149
7.38127e-05
-0.0869705
-0.0170594
-0.10731
-0.00844541
0.331627
0.00296509
0.0737797
-0.000340577
0.397748
-0.0504175
-0.00410552
0.00481131
0.0251157
-0.0556687
-0.118582
-0.00660382
1.58752e-05
0.596627
-0.0170571
0.000608144
-0.0549459
-0.0293171
0.327804
0.00230104
-0.0124671
-6.1552e-05
0.0231062
0.00620151
-0.0285133
0.000602091
-0.0027371
-0.0210208
1.67082e-05
-0.0384716
-0.00126159
-0.0114014
-0.0471837
0.284784
-0.0079241
-0.019316
-0.0473957
-0.0252629
-5.16273e-05
8.75964e-05
-0.00304138
1.76918e-05
-0.00860987
-0.109879
-0.0016507
-1.93516e-05
0.526752
0.0038711
0.000226603
-5.3708e-05
-0.00171036
0.312657
-0.0382872
0.59821
0.177617
0.0172132
0.276619
-2.29453e-05
-0.0116983
-0.000698791
-0.00197578
0.18663
-0.00809772
0.595518
0.24737
-0.0426751
0.263572
0.00631535
-0.0111112
0.00171899
-0.0527941
-0.00313683
-0.0384908
-0.0406633
-0.0024084
0.257654
-0.00775911
8.83846e-05
-0.00341643
-0.000560126
-0.0252603
-0.000158265
-0.00102977
-3.28675e-05
0.149572
-0.120955
0.266543
0.0211699
-0.00220629
-0.0278209
-0.0158869
0.062856
-0.00244154
-0.000876175
-0.0475532
-0.0346556
0.00361063
-0.0316701
-0.00356273
-0.00212507
0.000719249
5.47996e-06
0.123639
-5.4687e-05
0.0479252
-0.000675652
1.13254e-06
0.00153776
-0.000567843
-0.0010007
-0.0126892
0.145711
0.139756
-0.0154417
-0.00992541
0.0022416
-0.00403693
-0.00798711
-0.000155508
-0.000423708
0.00051224
0.103169
-0.00715751
-0.043839
-0.044178
-0.00214978
-0.0219988
-0.0162344
-0.00139433
0.00411297
-0.00970874
0.23337
-0.0556184
0.00380943
0.000363928
-0.0295875
0.586221
-0.00791334
-0.00534903
0.00604906
0.0713527
0.00311823
-0.00885115
0.258992
-0.000323436
0.0353746
-0.0198723
-0.0501285
0.00498342
-0.00302059
-0.00438793
0.0336605
-0.00289366
-0.000532945
-0.00423977
0.00190589
-0.000216699
0.0179485
-0.00740462
-0.00165536
-2.19385e-05
0.151467
-5.49638e-05
-0.0268174
0.0686551
-0.0208528
7.55034e-05
0.102246
-0.0401165
0.165301
-7.1481e-05
-0.00322131
0.0198919
0.000115585
0.00384725
-0.00361869
0.00826647
-0.0161916
-0.0245475
-0.00774832
-0.00216416
0.00779399
0.0167329
-0.0791705
-0.000175696
0.107106
-0.0303495
-0.00269713
-0.00549954
0.000293245
-0.0568727
4.16963e-05
0.458131
0.1914
-0.000422789
-0.0168478
-5.07257e-05
-0.00176886
-0.0049782
-0.0176883
0.152387
0.0913002
-0.00659596
0.00801482
-0.0527499
0.0264441
-0.0189205
-0.0246504
-0.037964
0.00895171
0.192118
-0.00752765
0.384558
-0.000771376
-0.00853844
-0.040658
-0.00010104
-0.000634365
-4.6214e-05
0.381505
-0.00810688
0.000180825
-0.01218
-0.00524866
-0.000288319
-0.010272
0.260287
0.000709851
0.00851489
-0.0256902
-0.00044857
-0.00364272
-0.000672833
0.605114
0.000142045
1.18513e-05
-0.00165394
-0.0116462
-0.0215748
0.000392891
0.000724424
0.0654377
-0.000156925
0.00152121
-0.0526365
-0.0624458
-0.0491395
-5.84915e-08
0.000233311
-0.0248288
0.0249293
0.306471
0.0826873
-0.0254714
1.01436e-07
-0.0478442
-0.00208588
-0.00985154
-0.00953953
0.169021
0.437324
-0.000107876
0.139234
0.229011
-0.00754055
-0.0325227
-0.0196911
-0.015364
6.44798e-05
-0.02991
-0.00687161
-0.000129259
-0.00046223
-0.00127589
-0.00151539
-0.000561366
0.297211
0.310517
0.145718
-5.50559e-06
-0.0176006
-0.0402642
0.0943416
0.464691
-0.000412302
-0.0154083
-0.0140132
0.27071
-0.0146197
-0.00763829
-0.0285886
0.14369
0.000204184
-0.000430958
-0.0205576
-0.0412085
0.102089
0.00732337
-0.035401
-0.0195187
-0.0545553
0.0150201
-0.0378845
0.00542136
-0.102374
0.0697582
-0.000302819
-0.000521792
0.0560493
0.000136187
-0.00560633
0.0254901
-2.46156e-05
0.225556
-0.0084188
-0.00346689
0.624394
-0.0272757
-0.00953129
-0.0290416
-0.00235042
0.432946
0.000861296
0.58876
-0.000131934
-0.0320509
0.599162
0.00532746
0.429974
-0.00445744
-2.69667e-05
-0.0254088
0.435248
-0.00126519
-0.00514598
-0.00629332
-0.000811604
-0.0165222
0.441338
0.0863768
-1.18225e-05
0.0149932
-0.00291579
0.0234262
-0.000726065
0.0184946
-0.00205145
-0.000404329
0.417304
0.449767
0.422865
-0.0373961
-0.0908344
8.66345e-05
-0.0403826
0.274513
0.0101767
0.000157939
-0.0636522
0.000430284
-0.000104005
0.448224
7.57796e-05
0.00321833
-0.00153039
-0.0072615
0.42779
0.440197
0.456758
0.00917272
0.000341671
0.195557
0.00591376
0.0140499
-0.00698546
3.82002e-05
-0.00231714
-2.61034e-05
-0.00354088
-0.000609852
-0.00458382
-7.91753e-05
0.133512
0.00162345
-0.0614149
-0.00721245
-0.0497687
-0.012311
-0.000632175
0.333748
-0.00820816
-3.40455e-05
-4.04835e-05
0.578248
1.26559e-05
0.00885897
0.0404642
-0.0135066
0.282277
-0.00406223
-0.0311289
-0.0270732
-0.000458329
7.65494e-05
0.24741
0.452606
-0.00122189
-0.0182487
-0.000207265
0.444523
0.554562
-0.00114311
-0.00515724
0.0152132
0.00227066
-0.0183121
2.53729e-05
0.00789284
-0.0278661
0.0406591
0.332251
-0.00119786
0.0227374
0.0377249
-0.0263339
-0.0319051
0.0221152
0.536694
0.154811
-0.0373324
0.449917
-0.000486924
0.463976
-0.0061875
0.371085
0.0545171
-0.00392264
0.0217308
0.00184949
0.0138432
-0.0502883
-0.00054605
-0.017346
0.364916
-0.020006
0.012508
-0.00117516
-0.0799017
0.146512
-0.00707136
-0.177482
0.000518913
-0.00285316
-0.0177492
-0.00168292
0.00147541
-0.00670304
-0.000414469
0.00186025
0.367053
0.00157587
-0.0118513
-0.043129
-0.0216016
-0.043946
-0.0685638
0.00320403
-4.95674e-06
-3.21884e-05
0.235158
-0.0491953
3.12533e-05
-0.0803385
0.157858
-0.0438559
-0.0112363
7.07086e-05
-0.00148568
-0.0328189
0.106767
-0.00730713
-0.000396991
-0.0327328
-0.0150369
0.602402
0.0941236
0.0515391
-0.0400724
-2.93957e-06
-0.00508622
0.0523115
-0.000315236
7.65904e-06
0.143604
0.0780995
0.000449708
-0.000689721
0.00372782
-0.0333319
0.00776627
0.00566346
-0.011208
2.68191e-05
0.233279
0.000420161
-0.000535936
-0.000205012
-0.000191918
-0.000143289
0.0668067
0.000663051
-0.00214443
-0.00713554
-0.00387847
0.0219019
-0.00408364
-0.0296958
-0.00774103
0.401383
0.322294
-0.000401578
-0.00114913
0.0753173
-0.000649793
-0.0172418
0.0177793
-0.0333027
-0.000761596
0.0159582
0.0314391
0.000931017
0.0443941
-0.00010136
0.00565896
-0.0318459
0.0104069
-0.0108698
0.0388517
3.81841e-05
-0.000710424
0.00017699
-5.71376e-05
-0.00129231
-0.00715938
-0.00939812
-0.0212623
0.0125685
0.0264293
0.00698914
-0.051595
0.00700709
0.00284309
0.00979032
3.01711e-05
0.442483
-0.00612009
-0.002449
-0.0534647
0.610694
1.98862e-06
-0.00647498
-1.90092e-05
-0.0607855
-0.00473958
-0.0161647
0.142868
-0.00295449
-5.80967e-05
0.0792668
0.0578118
-0.000440022
0.0400593
-1.82559e-05
0.13833
0.00380027
-0.020519
-0.000131647
0.198519
0.0217524
-0.0145576
9.44479e-06
0.142827
0.283571
-0.000854793
-4.93449e-05
-0.0259691
-0.00651502
-0.00245941
0.0118912
0.466245
0.247929
0.000327674
0.299417
0.203446
-0.00209623
-0.0375421
-0.030366
-0.0126747
-0.0453038
0.0123401
0.000571461
0.486443
0.113697
0.00910766
4.49364e-05
0.000437073
3.14636e-06
-0.00043991
-0.00204995
0.524422
-1.24456e-05
0.0628918
0.0204457
-0.000190908
0.480061
0.554896
0.165786
0.200247
-0.111156
0.00177666
-0.000234466
-0.0079012
-1.90127e-05
-0.000825314
-0.114256
-4.67201e-05
-0.00161336
0.494737
-0.00827616
-2.4167e-05
0.519742
0.000307926
-0.0241982
-0.048776
-0.000979817
-0.0668437
-0.000193914
0.0651487
0.00238965
-0.0133153
0.00138076
-0.000506166
-0.000309628
-0.000185377
-0.110325
-0.0419298
0.129331
0.00193232
-0.00914014
0.191628
3.69703e-05
0.582619
-0.000443417
-0.0550371
0.00159806
0.00115853
0.0390162
0.0406993
-1.67885e-05
-0.00302457
5.73622e-05
-0.000511582
0.000582071
0.0653154
0.0372604
0.289775
-0.0398689
-9.12662e-05
0.000101574
0.078496
0.307366
-0.00317889
-0.00447626
0.583743
-0.00200809
-0.0143374
0.000502382
0.0229158
-0.04105
-0.00604636
0.132677
0.000930639
-0.000203752
0.00117055
-0.0762111
0.570298
0.44186
-0.0166948
-0.0317881
-0.00465604
0.00110196
3.34447e-06
0.0584359
0.155536
-1.29101e-05
-0.00516517
-2.28038e-05
7.32645e-05
0.41165
-6.43324e-07
-0.0603498
-0.0473282
-0.082153
0.0530186
-9.45778e-06
0.00707949
-0.00449743
0.37507
-0.0277836
0.00356397
-0.021204
0.000425823
0.312496
0.180648
0.00729266
0.0295745
0.500837
-0.0448928
-0.0426645
-0.00138671
-0.00495566
-0.000301097
0.0097659
-7.30121e-05
0.139061
0.00204718
0.140735
-0.0249992
-2.85493e-06
0.0373893
-0.000143364
-1.89087e-05
-0.000569522
0.568072
0.543604
0.254807
2.65932e-05
0.098907
0.461887
-0.000719662
0.000404814
-0.00593931
0.0236519
0.437848
-0.0190673
0.0975464
-0.00191485
-0.0430528
-0.048229
0.633778
-0.00045211
0.439457
0.0682243
0.162235
5.23251e-05
0.000129721
0.00376324
-0.00631954
0.0620324
-5.7598e-05
3.15934e-05
0.430872
-0.0917723
0.000183842
0.454035
-0.00167138
8.68678e-05
0.350007
-0.00555941
-0.00115216
-0.100063
0.0694755
0.000204991
-0.000116255
0.00234464
-0.00286807
0.426628
0.564252
0.229212
0.618139
-0.00314974
-0.0310606
0.506764
-7.71246e-05
-0.0023408
0.0221372
-0.00249096
-0.00048841
-9.00458e-05
0.45167
-0.00183458
-0.000485205
0.548349
0.0578927
0.145412
0.0316978
-0.00194013
-0.0144912
0.0985017
0.0502237
0.448482
-0.018184
-0.000580591
0.409238
0.363638
0.00883579
0.300457
-0.0284021
-0.00545213
-0.00681175
-0.000477884
-0.00012065
0.415029
-0.043142
-0.0427395
0.000433877
0.124432
-0.0213416
-0.0170748
-0.00076619
-0.00306006
0.470449
-0.000592376
-0.0122185
-0.00213581
0.460454
-0.0138049
0.0142876
-0.00524652
0.000960615
0.12318
-0.0150806
0.483791
-0.0287645
0.615348
0.218072
-0.039486
0.0226152
-0.00128864
-0.00879552
-0.110827
0.433984
0.466682
0.529845
0.25925
0.420241
-0.000291874
0.497799
-3.78316e-05
3.26444e-05
-0.0322803
0.541555
0.0372217
0.191548
-2.61809e-05
-0.00154663
-0.117151
-0.0267294
0.425945
-0.000506156
-0.00535883
0.253953
0.000707018
-0.00301398
0.594556
0.0342862
-0.0353915
-0.17543
-0.000408328
-0.018827
-0.0538306
0.623631
-0.0387565
-0.0254491
0.002774
-0.000189479
-0.0126719
0.155425
0.00280357
7.39226e-05
-0.104872
0.206536
-0.00106948
0.438412
-0.0548639
0.444631
-0.0324057
-0.0159396
0.503814
-0.00374529
-0.050146
-0.000311042
-0.000957352
-0.0413303
-0.0153732
-0.0242634
-0.0068174
-0.012136
-0.106781
-0.0461022
0.440575
0.000156148
0.000502253
-0.0143873
0.0848265
-0.105979
-0.0389953
-1.32992e-05
-0.11147
0.0326536
-9.52513e-05
-0.0653231
-0.172311
0.449632
-0.0868176
0.435043
-0.00948185
0.0549367
0.211394
-0.0232708
0.231859
-0.00131496
0.0368202
-2.78709e-05
0.0633101
0.151727
0.13893
-0.0194482
0.00415541
-0.00051613
0.143066
-7.56375e-05
-0.000112336
-0.000750507
-0.0212177
0.00873211
0.0101495
0.363167
0.103589
0.575792
0.331562
-0.00109529
-0.021557
-0.000141608
-0.032636
-0.000970507
0.0039463
0.000417554
-0.0247555
0.284093
0.438483
-0.000226182
8.31396e-06
-0.0330969
-2.62962e-05
-0.0062912
-0.000151085
0.0842899
-0.0235998
0.150976
-0.0702036
8.1778e-06
-0.00938505
-0.0263593
-0.0189486
-0.0111141
-0.034024
0.0117748
-0.000134874
-4.01855e-05
0.00139547
-0.000119176
0.041775
-0.0306836
0.0260127
0.530564
0.0302854
-0.107165
-0.0543405
-0.00033079
0.0361553
-0.000108855
0.407316
0.072543
0.489118
7.51083e-05
-0.0218378
-0.00464398
0.0322378
0.0599874
0.362696
-0.00519235
0.0142444
-0.00133068
-0.0139583
-0.00544577
-0.00415657
0.0786934
0.00105313
-0.00682436
-0.0136934
0.137638
0.0331611
-1.14228e-06
-0.000636952
-0.00422827
-0.000443916
0.067889
-0.000485949
-0.0274262
0.0937015
3.85938e-05
0.197605
4.4765e-05
-3.87645e-06
-0.0649259
-0.0167563
9.3163e-05
-0.0151051
8.57004e-05
0.512691
0.0084234
-0.0160006
0.475901
0.0949111
-0.0206455
0.356545
-0.00190508
-0.00131019
-0.00144622
0.0528589
0.656019
-0.00105124
-0.000449723
-1.74872e-05
0.00528665
-0.000885113
0.0175646
0.0041428
-0.0139115
-0.0384007
0.0124075
0.00682747
-0.0126842
-0.000396565
-0.0548781
0.340198
-0.00126865
-0.00922018
-0.0001827
0.366328
0.0343619
0.336742
0.000271943
-0.000609642
-0.0161466
0.533029
0.108336
-0.0187735
-0.000111752
0.0210836
0.0268796
-0.0310284
0.146527
-0.0306776
0.0119079
-0.111079
0.363838
-0.0120963
0.196037
-0.00218106
0.618902
-0.0267927
-0.00738622
0.480996
-0.0279159
0.124538
-0.118709
0.142514
0.00433837
0.0336336
0.268577
0.0343402
-0.0308902
-0.00650202
-0.00525667
-0.0144516
-0.0299125
-0.00113874
-0.0378369
-0.0185093
0.00126826
-0.0420795
-0.0523138
-4.28792e-05
0.00495199
-0.00613986
-0.0166426
0.482539
0.30624
-0.0342378
-0.0457456
0.00028083
-0.0657222
-0.00330556
0.599057
-0.0230777
-0.0198077
0.302706
0.0331956
-0.027004
0.133554
-0.024027
-0.000477818
-0.00784364
0.00671172
0.000396514
0.32193
-0.00186366
0.106367
0.244196
-0.00384671
0.192488
-0.0822592
-0.000280724
0.00444192
0.0236461
0.271595
-0.00174007
0.044175
-0.0462884
0.0363789