/*--------------------------------*- C++ -*----------------------------------*\
  =========                 |
  \\      /  F ield         | OpenFOAM: The Open Source CFD Toolbox
   \\    /   O peration     | Website:  https://openfoam.org
    \\  /    A nd           | Version:  7
     \\/     M anipulation  |
\*---------------------------------------------------------------------------*/
FoamFile
{
    version     2.0;
    format      ascii;
    class       surfaceScalarField;
    location    "5.5";
    object      phi;
}
// * * * * * * * * * * * * * * * * * * * * * * * * * * * * * * * * * * * * * //

dimensions      [0 3 -1 0 0 0 0];

internalField   nonuniform List<scalar> 
11512
(
154.543
-499.486
344.943
-747.356
-8.6692
756.026
405.329
-375.721
-29.6085
621.638
279.01
-900.648
1511.02
-1069.45
-441.563
1216.29
-1527.13
310.842
-69.5988
479.898
-410.3
168.763
-842.55
673.787
962.117
-1610.83
648.711
-1755.75
1663.15
92.5999
-542.946
1759.23
-1140.23
1934.13
-793.901
608.477
181.2
-789.678
-24.1385
-1311.04
1335.17
219.679
-1975.43
1024.45
-382.066
-642.381
-169.713
324.256
485.978
190.711
-676.689
1156.1
-1313.21
157.105
-309.174
379.222
-70.0487
999.107
-1308.09
308.982
1221.53
799.118
-2020.64
71.4043
-1635.73
1564.32
-461.125
-1178.8
1639.92
477.098
182.102
-659.2
-197.256
-302.23
498.182
1012.83
1642.55
-1798.92
156.364
-83.7373
-1694.26
1778
-1558.98
650.56
908.42
-307.192
654.163
-346.97
-195.098
-146.015
341.113
1280.92
-1209.52
355.192
-1407.45
1052.26
-1754.32
1754.32
100.683
1525.95
-1626.63
-1077.76
-481.219
637.269
-706.868
-383.838
941.717
-557.878
1331.93
-1317.31
-14.6172
-1100.58
716.744
627.972
396.475
-385.435
-43.0611
428.496
-435.076
758.392
-323.316
-1618.49
1618.49
1253.59
-1437.89
184.306
-488.489
1710.01
1256.09
-314.376
1660.75
-1161.26
-499.494
81.4944
-390.668
2064.78
-1134.54
-930.245
1807.62
-165.065
456.148
156.241
-612.389
-453.413
969.571
-516.158
-1165.81
1266.49
-568.618
971.219
-402.601
402.223
753.879
661.56
-492.798
-438.513
596.018
-157.504
1190.7
-835.506
2308.19
-1080.66
-1227.53
1163.38
-2007.97
844.594
-1597.17
1573.03
440.75
-1580.98
-759.145
1250.78
-491.633
-673.389
366.196
1661.47
-699.355
-1106.93
-870.894
1977.82
664.638
-354.702
-309.937
689.802
566.29
-258.206
1511.79
115.53
-320.355
204.825
-284.974
762.072
-335.226
566.066
-230.84
-324.668
810.646
-319.244
-149.044
468.288
327.677
77.6522
1451.32
-452.211
-967.483
478.082
489.401
279.238
90.9624
-370.2
949.969
-341.492
-1700.39
659.089
1041.3
15.8498
-849.059
833.209
-281.238
596.592
-315.354
156.826
-1093.78
936.955
1051.68
-1067.24
15.5583
373.07
519.059
-892.129
-245.598
701.747
-1103.87
-482.079
1585.95
-678.334
951.236
-272.902
1359.87
-1443.61
-619.064
272.505
346.559
-470.19
-1011.57
1481.76
-539.732
-792.838
1332.57
576.396
-996.604
420.208
-265.712
-317.255
582.967
409.058
-293.528
-1036.14
582.727
955.404
-798.579
-110.315
944.024
-833.709
-210.091
419.241
-209.15
-620.659
-346.824
-386.741
963.137
1856.37
-1856.37
-457.515
-161.549
-954.406
1551.9
-597.49
488.84
-925.793
436.953
-924.066
355.448
-941.91
-1058.08
-1486.84
347.227
1139.61
-286.694
908.332
-305.714
613.025
-307.311
-1941.9
999.993
-1134.98
-351.858
543.142
-1497.55
1728.51
-1725.59
-2.92543
213.659
-599.314
385.656
-1452.68
973.633
479.05
289.478
213.461
-502.938
310.556
-645.782
242.257
-418.784
176.528
2014.74
-859.665
-1155.08
-546.063
160.629
618.485
833.216
-1451.7
-184.684
426.94
431.19
876.959
-1308.15
-909.023
394.236
514.787
-1045.22
1447.45
-1068.78
309.635
753.074
-98.9117
535.49
-279.81
-255.68
993.808
-515.726
593.322
-1403.93
810.606
-1342.36
238.487
-547.665
266.427
-1180.76
894.064
1943.64
-991.859
-951.776
276.803
1579.57
-2093.04
894.02
1199.02
365.478
-31.6894
-333.788
-224.113
482.952
-258.839
-113.039
-378.51
491.549
-468.008
148.764
341.953
-129.593
618.433
411.564
388.045
-799.609
-2035.3
1109.14
926.165
461.878
-533.328
71.4499
222.261
-364.146
141.884
1022.17
992.568
1777.77
-251.818
708.104
-435.598
797.067
-1389.99
592.92
336.291
328.347
1046.79
-1030.94
-507.153
-221.897
729.05
479.3
-136.522
-342.778
797.728
-616.528
570.026
-733.471
163.445
503.33
1157.42
-1240.19
700.455
1049.37
-1510.49
-3.13396
-1439.43
1442.56
325.195
825.108
-1150.3
623.384
269.96
-893.344
-2271.36
1137.62
1133.74
-1111.41
-1159.96
206.074
363.952
958.706
-633.511
879.248
-898.979
19.7302
-2099.38
992.453
-225.395
-190.01
415.405
-41.7492
1770.26
-822.443
75.0862
-1027.07
-1065.97
-229.981
452.242
-654.265
196.75
-257.432
-426.071
683.503
1104.04
-1574.23
783.065
-1374.51
591.443
694.605
-415.595
1947.87
-1444.54
-378.288
-1376.04
82.0416
397.857
-528.582
519.913
7.44066
-564.95
557.51
571.817
-282.339
-605.5
280.052
325.449
780.573
-369.009
34.2051
331.273
1188.47
-1191.61
179.088
229.971
393.433
-650.865
619.811
-1006.55
-2026.71
2026.71
-244.643
-450.135
694.778
699.266
405.876
-1105.14
579.984
173.09
397.88
382.694
-2199.75
1328.86
-926.771
-678.75
1605.52
-494.153
-686.606
-265.22
545.143
-279.923
826.168
-183.669
-642.499
-429.015
642.674
374.152
-679.866
-346.228
-136.676
482.904
-1324.06
-474.852
614.711
-1108.86
-374.154
-1244.34
844.328
1463.86
301.65
-927.268
625.618
967.066
-339.094
1391.45
-798.128
446.732
-267.644
-329.038
-871.103
559.192
311.911
-319.015
-552.088
308.162
-421.201
-212.261
-154.052
366.313
-392.752
1092.02
435.312
-244.601
-394.774
1345.84
-168.725
-1177.11
-468.498
271.696
196.802
233.845
240.169
-474.013
23.8023
-757.274
592.088
-1729
1136.92
1481.85
-863.363
-1049.68
-403.003
-1057.56
573.452
484.103
1372.16
-398.531
929.409
-1411.49
-162.953
-205.589
368.541
-469.48
581.592
-1626.81
427.953
903.978
267.831
301.353
-569.184
568.067
1186.26
1104.67
-715.572
-389.099
406.535
-218.389
-188.145
-1419.46
444.975
738.56
-1183.53
1473.42
-544.008
-493.375
920.576
-427.202
426.145
1186.16
-1612.31
47.3449
-725.679
-146.137
425.375
212.63
-407.728
523.975
469.832
-622.898
59.8227
563.076
1024.54
-1307.67
283.132
663.421
-265.541
468.255
-1447.25
978.995
415.372
1686.1
-522.719
907.051
1036.58
-662.647
-1684.55
757.777
566.471
391.887
-958.357
453.705
78.803
1749.9
-1828.71
1443.75
-379.492
-1064.26
1699.09
-1740.84
-367.753
-514.31
719.591
-205.28
-502.593
184.55
294.749
-373.22
-1226
214.431
-764.601
-639.327
-661.266
1002.71
-341.445
-653.427
643.434
9.99291
655.049
-923.703
268.654
-739.02
368.313
370.707
-648.806
-682.599
355.857
326.742
-932.334
1400.59
-412.255
884.45
-472.195
-2205.31
5.55771
181.901
-538.31
356.409
141.551
1204.28
-94.3381
-559.927
159.938
-598.452
1487.21
-704.147
376.839
-467.114
90.2748
-565.464
565.464
1223.05
395.443
1777.9
-1229.05
589.222
639.824
849.91
-52.1822
1291.47
773.311
-540.043
1337.11
294.945
301.648
280.307
-794.618
236.933
-672.009
231.302
-444.879
213.577
-229.86
575.644
-345.784
129.989
-359.849
-591.978
-564.584
1156.56
-362.501
523.393
-160.893
-1192.16
2032.04
-839.885
1290.11
-331.405
-402.122
136.41
-1982.04
803.245
1521.83
-844.914
-676.917
1986.95
-877.429
-1109.52
713.633
576.479
-241.114
472.415
-677.032
1132.51
-455.476
-770.168
1201.36
551.559
924.681
-1724.95
800.272
-538.016
-70.3356
608.351
289.511
245.979
414.138
-106.409
-307.729
896.839
-83.4663
-813.373
906.541
-550.63
-355.91
1576.21
-472.168
888.112
-1625.92
737.808
1068.48
879.392
750.478
-444.532
-305.947
-1059.03
-258.288
557.758
581.229
-1138.99
-449.368
493.982
-44.6142
578.778
-346.072
-232.705
-982.804
570.549
596.562
885.285
-441.833
1096.88
1407.21
-772.054
-635.153
398.143
-926.268
528.124
-1010.69
390.034
540.635
-1034.01
447.66
-511.046
63.3858
464.975
293.417
-516.725
-48.7391
-794.598
-877.472
1672.07
194.194
212.341
-219.431
425.505
-32.9076
-540.783
573.691
489.093
866.897
-1355.99
-526.407
314.145
985.808
-88.9692
836.4
-1064.96
228.559
384.788
846.464
-1386.51
-443.973
832.018
1976.97
-1283.32
-693.648
270.051
609.197
255.901
795.777
76.37
-958.273
881.903
1673.75
-1089.06
-584.687
-137.863
1887.77
-1866.06
-160.657
483.488
-621.673
138.185
-1014.84
526.602
488.242
-1730.47
538.318
-955.862
845.547
392.783
203.234
586.242
-284.593
-425.046
711.834
255.232
75.7513
712.833
-788.584
-1140.33
-888.594
2028.93
-534.593
1091.53
-556.934
-456.839
-333.772
108.377
-1654.21
859.614
-876.136
-586.915
1463.05
-331.608
-295.268
626.876
364.556
-643.101
278.545
236.793
-605.802
307.47
211.978
-519.448
334.058
-599.279
615.339
-250.783
315.871
-464.915
672.772
404.139
-170.295
-375.923
-306.675
1216.22
-3.41312
-1212.81
1039.94
-420.124
560.477
410.742
-1782.37
869.826
912.543
494.81
544.277
-1039.09
-535.306
203.699
-262.71
1180.7
-917.989
-1590.89
1212.6
504.672
-1096.65
389.009
-12.1696
424.617
295.648
-720.265
372.887
-618.485
-30.7067
755.691
-724.985
-526.028
795.988
377.959
322.514
527.396
654.607
81.1671
-391.303
310.136
1058.93
-645.194
-413.733
494.013
-1664.27
1170.26
-1140.43
1753.24
-612.812
1715.82
-1123.73
-335.189
615.24
-1182.89
1259.26
425.208
-797.06
1598.62
-801.559
-247.273
-221.225
-890.536
1469.7
1811.91
-611.408
-1200.5
-405.007
641.207
-1302.47
-124.756
-37.4183
451.556
-675.428
-354.174
-1236.71
-224.691
461.484
903.697
-562.696
184.186
-1674.55
-71.2041
1745.75
-1055.54
520.952
570.616
-1181.72
611.103
901.197
910.709
630.767
620.011
676.178
244.398
-1126.99
449.954
-404.552
411.993
621.816
-515.414
250.118
-735.252
485.134
677.447
-341.156
-330.973
184.957
-591.417
226.643
364.774
-888.267
-737.653
1087.67
-2145.75
399.656
-684.63
-342.951
-724.286
833.465
573.743
-349.889
306.828
361.844
207
659.402
-866.402
528.985
603.523
-524.403
178.175
362.563
-607.207
-1048.22
-844.925
1893.15
-1792.76
157.037
1107.23
-1369.94
1155.33
-731.362
-423.964
-503.535
1350
-1495.54
627.881
867.659
-287.066
-210.512
497.577
1428.4
558.555
327.223
-463.899
-486.095
-565.233
1051.33
-418.719
600.62
1582.28
-1128.97
-453.316
-766.588
316.453
654.886
404.041
-1623.42
416.16
1207.26
-200.611
508.082
797.906
784.375
195.066
-674.96
479.894
207.165
212.076
-291.459
-110.068
401.527
472.583
3.98878
-476.572
-1631.15
581.473
-1602.8
1667.05
-64.2494
9.4953
-1612.29
1069.59
750.41
-325.792
-801.605
-209.088
-1134.59
-239.923
-312.386
685.273
-1812.41
-625.49
1206.72
209.578
759.993
-1329.56
-678.413
-465.399
598.358
-330.527
-1013.28
1350.76
-1932.84
582.079
646.056
1288.07
485.851
-2.89939
717.979
700.817
-1418.8
-640.833
338.214
302.619
440.383
-100.334
-340.049
154.64
287.395
168.948
-456.343
-578.422
1144.89
468.721
-610.26
-462.044
-401.981
864.025
-335.309
172.356
-460.696
167.167
-305.644
-709.2
548.095
-107.712
-570.154
968.297
578.614
-269.705
-308.909
456.093
-780.761
-645.89
432.068
-1129.41
-832.927
1180.15
-569.771
459.063
269.986
-443.402
88.701
1029.24
-316.301
593.162
-276.862
-509.043
1578.64
-678.22
228.281
380.021
-608.301
212.394
471.133
-19.3868
-451.746
-255.417
-205.279
1008.14
1108.94
564.804
-867.121
936.798
-69.6774
-455.824
168.758
-721.755
295.685
-599.096
319.57
357.876
815.722
-1227.19
411.466
778.007
-808.714
-948.961
-550.381
1499.34
-155.193
456.546
-529.724
249.915
1300.3
764.471
-569.405
1306.69
-691.979
487.925
-683.537
-414.821
-423.718
-378.784
802.502
503.076
-844.567
-441.211
83.4429
357.768
-323.148
572.413
729.811
-330.156
-244.258
-176.277
420.535
-493.383
146.396
346.988
1457.22
80.3364
-1537.56
-749.861
1346.42
-1144.76
-466.067
536.892
-156.871
1150.26
-372.25
1083.5
492.705
694.597
-414.29
-885.105
-522.341
-1328.45
-27.9718
985.196
-957.224
597.59
319.259
-916.85
-320.742
-225.322
-681.522
405.52
1621.19
-168.997
364.8
352.225
-717.025
-1839.79
-2106.68
1519.14
587.54
-2038.36
344.096
352.516
537.883
-890.398
-460.302
1020.78
-385.139
-674.273
1059.41
-2030.53
1391.21
639.321
600.67
-985.809
51.4007
396.259
386.927
199.761
246.971
315.94
953.186
857.142
681.01
-326.263
-354.747
-294.319
622.766
-328.447
574.345
530.326
565.456
514.932
-1080.39
-796.231
-699.309
753.031
397.226
-419.955
698.5
-1193.42
1609.58
410.467
-1084.74
-323.488
535.465
-1384.51
864.844
519.669
-716.518
-354.327
-791.281
366.483
424.798
447.067
718.424
-1165.49
1069.56
-574.753
-397.646
656.977
-259.331
253.964
324.65
-468.521
-432.216
900.737
-241.002
552.947
-945.446
392.499
-466.584
600.599
-1681.26
423.767
671.139
-1094.91
523.607
89.418
113.407
-2212.79
535.879
-76.8161
1443.96
1777.09
-217.553
-1559.54
-438.424
1789.19
-1986.94
1194.47
792.474
404.303
346.175
-33.3808
866.845
-1283.47
718.883
-870.502
-823.519
795.547
311.973
54.7936
-366.767
228.336
182.826
-411.162
1550.5
-832.523
-1530.94
-325.432
471.159
-197.335
-273.824
395.141
366.931
238.399
359.96
-8.70094
1001.48
-992.778
376.086
269.811
-645.897
-734.042
1817.29
-1083.25
-343.098
738.239
-1214.77
-411.863
-916.132
483.916
564.579
-776.105
211.526
762.506
-381.065
-381.441
-422.603
-444.518
448.382
1069.62
1236.84
-666.221
801.858
-345.765
387.697
307.081
-252.823
-214.291
-198.752
614.123
408.206
-848.465
440.259
206.407
356.868
-563.275
-423.074
831.281
754.631
-1147.38
880.436
-64.7135
-491.863
274.446
772.341
-95.689
1383.76
1890.5
-70.8819
342.578
-320.426
401.593
-1085.75
1077.05
614.484
376.645
385.861
60.5932
410.566
265.871
490.155
-371.773
-269.06
-563.849
-89.5773
-358.899
369.101
-10.2015
-258.52
-289.145
1011.07
-1540.72
529.656
-199.105
-176.616
-385.916
655.728
-1629.99
1591.05
-963.171
250.78
-665.6
584.313
1224.42
-1808.74
607.413
983.64
297.587
-1119.95
694.909
-288.962
-280.222
1372.59
-1443.51
823.4
620.105
411.084
-619.332
208.248
-358.722
474.681
-115.959
367.942
104.641
1723.8
460.755
-253.59
557.624
-1704.79
1147.17
-92.5639
395.581
343.427
337.583
-448.565
-615.84
1064.4
420.721
-864.693
-641.192
903.021
570.396
-496.025
-242.995
-439.298
-409.166
-307.246
-827.339
1821.11
-1821.11
-105.558
-1586.88
1692.43
293.827
284.95
-917.298
-555.331
1472.63
-408.247
973.703
-589.474
-1041.68
682.626
386.153
-1068.78
478.496
-162.625
573.061
1220.35
-1793.41
-1046.72
2116.33
-1069.62
-374.944
-298.445
-491.592
808.044
-1749.61
1599.51
150.092
1749.61
-1602.94
-146.662
-246.119
525.53
-279.411
-537.284
1620.79
1560.35
-1972.21
1072.66
-287.281
-247.992
535.273
241.941
-565.428
-694.996
275.042
1341.19
635.787
578.716
485.131
-1063.85
282.589
412.008
875.438
500.116
-1375.55
532.173
-1018.27
1574.96
-563.898
-777.234
-368.06
-112.847
480.908
-489.997
1208.42
-742.688
333.548
368.199
358.324
256.819
-615.142
600.264
831.986
-603.427
266.161
670.638
-496.025
-321.86
-224.912
546.772
1168.56
-669.392
610.772
465.478
-1076.25
-1286.44
1286.44
-386.713
763.358
-286.23
-475.492
761.722
485.341
448.205
-933.546
389.247
-675.477
612.692
-869.406
256.714
-367.426
-495.596
1074.31
-662.146
-709.53
1371.68
-375.302
928.249
-1552.7
675.269
36.2661
-405.677
369.41
-501.156
697.906
245.351
330.293
170.723
307.773
-511.873
222.912
1869.4
-1965.09
269.438
-698.453
446.952
-822.46
375.508
-920.217
1409.6
-489.381
-429.966
-486.166
600.712
1124.2
-1724.91
-716.444
341.501
-460.53
1034.88
-773.02
1039.18
-379.355
-629.508
-479.175
716.108
540.579
-358.477
906.062
-302.451
-190.933
1599.02
-1816.57
-345.052
-600.394
-334.12
480.516
252.464
-582.992
-180.333
1058.43
-783.988
214.724
-281.291
-286.109
567.4
395.536
-875.984
480.449
-487.233
-447.385
-927.268
-337.189
564.956
-227.767
-447.884
-420.466
-323.703
-195.745
-382.65
639.469
-448.286
755.367
-1072.98
624.411
-1410.41
534.275
-27.729
-1834.58
1862.31
569.914
-449.552
1207.68
-686.728
312.911
-312.911
670.424
-434.436
1042.75
-1632.22
-1158.73
-947.949
293.011
329.755
883.129
715.49
-488.039
-302.495
790.533
1656.8
-1684.53
-434.582
349.563
222.253
1135.31
-524.538
-943.333
1550.48
-607.142
446.232
-246.471
384.28
372.622
-756.902
527.842
474.086
-1001.93
-332.097
665.645
-37.8613
1907.26
1585.89
992.887
-1697.03
727.17
-1177.18
450.007
-492.469
1367.91
837.879
-1341.41
-547.815
260.535
795.016
-403.129
553.94
-1188.27
634.334
-638.648
-1215.54
-695.649
1911.19
-202.088
543.695
-341.607
-167.88
289.401
-491.489
327.387
372.836
-700.223
-1481.49
757.716
723.777
884.096
-1434.48
826.047
-431.812
219.316
-365.453
-580.105
258.245
-637.181
-747.331
699.002
506.006
-1205.01
393.702
-205.527
-188.175
556.301
-958.902
-562.822
-427.045
722.729
-831.281
-1155.66
-1437.97
499.639
938.333
15.3344
-624.215
332.076
292.139
-1311.33
1045.99
265.334
-616.801
-456.175
-665.924
921.826
403.024
-203.577
-199.447
508.19
980.682
-1488.87
976.047
-563.152
166.802
396.35
-391.825
669.612
-400.174
-509.474
175.353
234.458
-1517.78
532.336
537.228
-740.115
238.959
157.256
-459.706
372.05
-819.435
1954.16
-1195.39
-758.769
409.702
-663.434
253.732
324.128
323.729
124.34
-448.069
-565.001
194.61
266.145
-691.721
1374.38
-682.657
424.095
455.952
-1172.47
267.01
1866.78
-1013.59
-853.187
784.984
-519.938
182.749
1402.38
-975.196
-427.188
336.942
-771.378
-616.505
1725.45
612.915
623.922
322.83
-10.8565
271.966
-1138.44
1725.72
-587.282
-1763.52
820.19
1752.53
-1683.76
-68.7729
-659.681
255.129
562.264
-703.567
224.392
1402.78
-564.898
392.252
439.766
-1858.55
1420.13
537.905
-420.071
-117.834
212.423
-536.126
-278.985
-177.854
-353.176
696.602
-572.817
204.757
606.652
553.137
-1159.79
1113.65
-1947.44
833.792
164.096
318.808
-1698.86
1661
318.512
-732.802
-165.687
385.003
752.023
680.292
-1432.31
1073.11
-1076.53
528.263
-1103.02
-631.686
253.758
377.928
515.979
-289.336
-598.011
-1034.21
298.599
-719.064
-912.319
184.973
164.878
228.823
383.288
296.83
-680.118
-627.779
-833.982
-978.432
492.779
-1057.78
-282.76
479.562
535.667
644.487
-279.821
-122.301
-410.792
708.379
274.327
-1198.35
570.576
1307.31
-555.283
445.415
-1008.24
-387.533
156.272
381.633
1023.39
551.576
-1713.83
1608.27
1626.58
-557.029
-1069.55
1902.89
-1891.26
-11.6257
198.979
-519.405
-338.732
553.456
-763.09
-318.327
-341.354
1028.57
697.301
-1498.17
800.874
343.645
-26.1906
1625.21
-1076.36
406.966
-1231.48
454.244
-60.0479
1517.27
1197.48
-470.311
-488.832
-74.3204
-262.307
736.017
-1951.55
-711.221
349.62
-535.711
186.091
191.454
-507.755
1139.91
671.555
-1811.47
-596.473
176.402
942.061
-1497.39
-210.502
678.906
-468.404
883.184
1116.82
-736.194
1349.11
594.742
-478.89
-115.852
-348.244
1171.64
1038.57
-1981.38
942.809
-1171.06
545.573
1488.83
-585.809
-371.945
-152.458
-1240.76
574.537
1160.81
-119.503
946.089
775.51
-1721.6
-213.076
578.48
-1541.76
963.281
486.992
916.679
-1403.67
617.725
588.994
383.343
-1106.65
591.252
1106.23
1215.92
-452.355
-763.566
-1186.2
-1754.94
-8.12572
-1705.71
-204.86
-414.472
1606.66
-627.385
-979.276
-490.866
1121.63
-1317.09
637.132
679.956
-1361.1
1441.44
-1329.66
593.464
1520.54
-387.7
-560.871
188.926
-1477.25
239.415
176.386
219.468
375.274
436.793
392.905
-829.698
506.344
-939.061
900.875
-1444.88
-688.659
232.578
456.082
-1040.12
461.7
-471.529
863.78
697.071
30.1094
-519.707
178.1
-886.566
-1318.74
-716.355
350.338
366.016
405.039
-724.175
319.136
-479.689
-189.381
-709.598
718.395
1539.58
-593.493
812.21
738.292
1344.82
-844.703
-971.356
-570.406
-798.14
428.27
369.87
-1036.92
-643.713
304.743
338.97
-1433.69
-296.782
-791.459
398.612
392.847
-643.469
394.646
248.822
-672.187
272.012
412.835
487.902
390.026
441.254
479.294
384.731
596.859
-970.079
674.43
470.463
453.827
356.612
-810.439
1630.77
-1079.9
-550.866
-504.504
-283.276
-1028.05
454.541
347.961
409.694
594.349
-1004.04
-1380.11
752.725
-534.755
1145.86
354.87
-67.4754
412.337
-866.139
453.802
-1893.49
306.613
441.717
-726.803
285.086
-187.361
406.353
-218.992
-663.417
308.941
354.476
-675.357
320.609
371.142
392.217
612.913
-1021.16
753.557
661.366
-1414.92
438.809
625.596
339.875
393.086
-732.961
409.619
328.62
603.935
670.775
398.845
589.758
-1015.3
425.541
-1668.47
1198.8
469.664
1696.59
-539.175
621.398
-1147.58
526.178
-643.337
348.069
437.423
-935.688
498.265
742.778
-447.131
351.398
345.204
564.106
-909.158
651.192
-1253.52
602.326
365.55
734.891
-1224.89
769.695
509.542
-1279.24
479.64
407.621
-887.261
-501.648
-936.325
-303.579
630.965
352.66
542.057
-894.716
333.232
332.413
-502.18
1944.74
437.238
-847.461
410.223
-917.875
-807.078
-749.599
368.158
-1211.52
438.5
-1730.07
1602.94
127.122
1744.58
-1599.51
-145.066
-785.064
-594.321
266.461
327.861
-1752.53
1972.21
538.454
791.721
-1330.17
440.11
716.452
690.407
385.639
-1076.05
-78.448
1617.15
-593.765
382.637
825.043
-650.231
326.787
323.443
-378.771
-297.99
551.954
-223.272
436.733
281.121
-667.402
386.281
265.358
-580.712
-283.353
442.575
-1033.83
591.25
538.044
1092.72
366.072
597.064
311.896
352.595
-664.49
1617.66
-920.36
1691.82
-1520.43
-171.384
-328.963
-824.07
414.903
857.55
-1068.05
-608.408
279.961
-1090.6
1628.65
-1579.96
-80.1406
1660.1
-341.948
-350.702
-370.613
536.774
598.536
-504.142
-29.1854
-549.986
508.005
-284.404
-223.601
1742.66
-1294.28
-626.246
299.679
326.567
405.223
357.286
734.732
-296.491
-399.261
-1744.58
1684.53
459.566
-1101.2
641.636
-43.8664
1652.14
571.374
476.443
-1047.82
104.331
1144.93
-1452.17
-16.8286
-1876.66
228.594
-599.87
307.952
291.918
-955.579
612.628
-898.936
468.97
-1128.78
673.693
455.083
359.758
268.587
-756.626
-312.894
1217.48
886.9
699.05
-1183.04
456.162
726.873
494.352
700.984
-1195.34
-360.08
-249.129
414.008
-961.156
438.585
522.572
21.2537
-1879.81
1080.78
-468.086
-492.644
558.092
-1378.31
820.216
-423.357
798.865
-405.598
496.581
-713.565
1721.71
414.144
-185.32
216.146
-171.061
-247.188
418.249
1895.32
-504.112
-1687.66
1051.72
-602.427
304.437
-1014.23
553.926
-313.701
544.288
905.333
-1449.62
-1103.98
438.052
-20.7192
-1944.37
1711.3
-672.723
-540.684
460.725
-1190.64
729.916
191.824
211.2
-282.032
768.719
700.985
838.558
818.622
-462.01
1085.16
-468.98
480.151
-194.077
-286.074
-1922.87
-714.316
-318.75
-643.609
-6.65323
650.263
468.48
-273.87
562.791
1054.87
-801.202
925.325
1244.43
-425.457
-198.762
-226.072
424.833
953.284
-888.561
-327.498
-1068.19
612.014
1555.28
-797.559
537.643
934.985
-390.085
736.526
-346.441
1130.52
-276.406
326.102
1349.81
-705.195
-221.073
448.304
-1198.74
750.436
-1001.17
-99.0778
1100.25
442.229
-956.177
513.948
175.325
732.58
483.341
744.422
-85.0197
853.591
-425.881
1182.66
-797.017
552.107
-1465.53
913.424
-1216.66
1800.97
-431.712
-1510.19
879.707
-1402.05
-302.497
-417.768
1457.3
-1522.92
785.27
1491.51
202.601
277.55
-352.218
-1730.07
-296.578
-1006.33
1569.12
-1762.23
1762.23
1560.35
-1004.52
-635.104
-335.366
368.461
605.242
-365.97
-360.358
-1389.88
897.407
1125.15
600.568
1202.83
1789.48
-1216.42
-609.36
274.403
1658.97
-1916.43
257.456
814.261
-1267.58
1545.25
-561.614
776.176
315.35
-333.679
554.755
795.244
675.901
1353.03
-215.949
-445.133
-353.005
497.684
-341.442
471.758
736.664
-294.475
-153.593
-325.646
568.006
-242.36
27.5192
-373.592
1107.47
-1720.28
-430.075
-482.493
-566.648
864.343
690.933
-1596.54
904.822
-451.772
-617.926
-513.701
1252.26
328.323
1723.68
-1702.42
-1656.8
1891.26
-1560.85
840.292
720.561
-363.666
-1795.22
917.745
583.064
819.713
-396.345
1794.29
-680.642
-408.039
675.874
423.962
-1099.84
-1099.99
444.109
753.372
-1617.19
473.197
901.181
177.346
-403.924
226.578
-1592.86
-382.568
-424.475
990.299
-670.182
1442.98
-971.9
1855.08
243.083
-544.228
498.776
-296.174
474.322
893.584
543.09
977.451
-462.891
-428.022
573.936
883.36
-1392.7
-40.9889
1570.23
-831.936
519.954
971.555
-1475.86
-1115.9
1768.78
-1243.58
-525.206
1206.18
-318.995
-887.183
-192.58
456.47
-263.89
-457.478
-251.628
433.128
-181.499
146.903
-396.032
1727.62
-1735.75
-452.865
-530.85
-903.627
446.17
-207.241
-238.929
635.339
-449.835
-357.861
-304.548
662.409
-925.472
373.384
-1167.36
676.496
420.429
-631.526
-444.217
1571.96
-856.473
530.185
-457.927
-571.213
-462.612
364.696
-354.337
-10.3589
-1094.72
407.99
-664.723
-1033.69
1698.41
-594.707
-1423.33
713.796
562.188
-1596.28
1034.09
-378.122
-481.86
144.353
531.825
-1258.55
744.846
539.225
1006.03
-2133.18
999.989
1133.19
-351.154
412.68
-387.49
-25.19
1478.07
-364.812
449.566
1214.93
582.171
906.66
568.052
527.48
-1095.53
166.82
-434.203
-1683.76
261.532
1127.58
-610.238
518.469
1013.79
-1532.26
1092.86
-1643.73
193.197
687.238
542.337
-869.835
-1086.53
-171.867
429.686
-257.819
-587.118
-422.234
-636.884
-628.854
346.822
-1618.63
939.876
-476.791
216.589
-401.91
536.621
-308.028
-600.615
1197.23
-1266.9
921.359
345.541
-1028.1
-355.611
-755.121
-822.554
1686.9
-476.939
1793.87
-1581.62
-212.253
-1556.64
1018.74
537.908
-723.624
-260.447
443.654
-183.206
-587.317
384.246
275.325
-659.571
-523.905
982.257
631.71
-351.748
-1620.29
1050.52
571.765
1103.55
-1675.32
-405.791
-294.6
-368.817
-742.979
-464.267
-331.783
502.506
1558
-995.817
-775.42
1497.46
662.789
-313.226
725.881
1152.37
-1878.25
278.936
297.866
-487.14
-1931.73
1719.58
212.151
739.931
-474.968
-264.963
531.829
1060.84
-1592.67
364.696
-1722.54
-233.21
1752.35
-1580.7
1073.78
506.918
-1721.76
-0.774151
-521.643
412.68
1698.86
-1719.58
939.771
624.424
-1564.19
383.379
-219.891
-163.488
-402.971
-269.216
72.1077
95.2166
-355.664
-432.786
-436.62
-409.336
221.975
1510.25
378.839
-216.934
-426.534
464.136
-197.991
311.937
1510.78
1000.43
-156.501
-843.927
-1104.11
1704.83
-1728.77
1064.05
-707.139
-1021.63
-1265.09
1844.99
-579.902
1155.07
-1771.14
616.066
271.787
-878.236
1675.68
43.4508
-1719.13
-491.164
-1083.07
-1727.62
-982.499
554.477
1019.62
590.221
1133.04
-1723.26
290.037
-446.908
705.131
-384.521
368.831
924.99
680.531
-379.441
-635.858
582.89
1072.57
-1655.46
-399.139
-371.038
770.177
417.899
-1661
1520.43
140.563
584.228
-1044.76
544.746
1083.9
-1555.69
994.078
-238.902
236.491
316.965
1902.89
412.498
-83.3352
995.862
722.753
-1718.61
-697.376
1085.36
-1557.53
166.62
-571.757
197.979
266.157
-651.865
-559.654
582.49
1034.66
-711.2
-267.787
-1368.76
676.089
692.67
-416.391
771.543
59.3123
-830.855
561.69
-137.148
1557.28
-217.512
267.44
-770.199
-1931.73
1664.63
1035.87
368.313
295.317
447.461
-930.261
-992.605
-1767.27
638.004
1693.77
510.624
-474.265
1210.93
1087.15
-424.976
1030.22
-979.449
494.048
485.401
700.14
1047.97
-1748.11
486.52
481.777
-1494.02
-747.579
32.0071
781.279
-413.12
-883.853
391.209
-538.706
-802.709
625.618
-577.198
1397.41
1055.15
194.691
234.994
-550.615
1618.53
-772.123
1525.68
-1727.84
575.249
1152.59
545.035
-884.13
-1732.72
1916.43
-183.708
1721.74
182.6
-543.65
368.144
-272.928
-481.396
1211.31
568.271
1128.32
-491.348
434.533
859.315
-462.84
-774.809
425.216
349.593
1418.77
1089.62
-518.187
1423.01
-510.656
-533.453
1044.11
-602.751
465.572
-1196.93
1691.82
1839.58
-687.211
1585.63
-645.856
-1241.45
717.546
-562.436
202.59
-392.6
455.81
-243.734
-520.318
-1246.71
1870.94
-624.231
1173.55
-552.153
1120.29
-1659.46
1691.44
-573.934
-545.25
-549.814
1720.07
-317.313
-688.033
-473.315
1223.75
-1682.62
-1860.1
613.393
290.924
-933.423
169.238
214.372
-1719.03
1204.16
514.872
1162.85
558.888
-511.395
-465.386
1192.26
179.256
227.097
588.444
1251.13
-539.175
-1238.58
1777.76
-1025.45
999.99
866.789
-204.129
-1658.97
1702.42
-510.07
1411.25
-1732.72
-363.893
21.255
342.638
-265.998
587.173
-321.175
67.409
491.783
782.563
-377.524
1257.53
1270.91
-413.36
852.937
-438.034
1817.44
-662.368
1586.53
-1723.68
-412.787
-736.56
304.173
432.387
-559.546
-563.272
79.7331
-1138.76
-985.541
-669.633
1655.17
-943.707
-1189.47
159.208
-407.201
-648.531
705.599
1167.45
649.992
1410.36
-590.649
1636.75
1318.17
-573.326
-494.216
198.042
-503.279
1396.86
1240.24
-564.156
-999.988
893.982
53.9574
-947.94
603.44
-506.129
1403.54
1495.09
-588.433
-366.859
366.859
-589.416
1623.51
1239.59
-486.22
1134.16
-73.5954
1851.6
-394.666
1489.5
-588.627
-507.676
1347.97
-653.041
1218.77
-565.734
1554.82
-591.535
746.227
573.267
-1319.49
-652.395
276.852
487.619
600.086
-1957.3
-979.835
1586.53
369.8
-369.8
-71.8317
389.067
436.981
373.112
-5.1704
-339.551
888.661
-523.111
-426.18
815.247
-244.166
622.094
-435.599
1544.73
-444.342
-884.111
187.335
227.264
-414.599
601.168
1250.78
-1851.94
927.692
-458.722
-354.337
126.152
-1943.02
1816.86
-453.33
185.686
1181.3
-440.459
-740.845
-306.592
-577.261
-492.021
-387.49
-481.79
258.19
1158.61
-560.069
231.543
-383.216
151.673
-22.7937
-107.675
1376.04
-1268.36
34.5589
-598.408
-586.387
-452.712
452.712
-1262.36
1985.11
-1344.39
-216.623
-1824.44
242.828
-1025.76
-974.241
-186.443
-1637.5
707.242
1229.32
-1924.97
370.7
312.141
-682.841
-1850.01
1234.27
615.741
-561.849
561.849
-959.215
-40.0317
-1866.06
-558.142
1650.86
-677.529
1636.18
-601.519
-172.422
-1704.24
-586.114
-441.244
-594.794
-466.821
466.821
-1537.81
194.525
1343.28
173.397
226.516
-399.913
490.533
509.894
997.523
-474.952
1751.3
769.027
-423.403
398.213
520.51
1702.06
-594.589
-552.963
1636.86
472.382
1812.74
-645.285
-1803.92
-1938.08
-646.938
-479.141
479.141
-584.805
231.8
-687.753
1019.83
-465.906
-1071.84
-286.162
1579.57
1852.3
1635.34
-1635.34
-279.236
739.44
1761.49
595.786
1275.15
173.605
209.775
570.371
593.623
1603.51
-1603.51
222.92
-353.475
-434.414
460.849
952.25
-458.201
-639.822
-1131.02
1706.27
281.008
-1647.13
605.455
-289.917
472.517
1744.65
-592.058
-216.194
-413.205
381.477
724.756
1738.57
-613.419
-511.763
-775.525
1960.54
-870.453
-1090.08
1642.79
-706.105
1223.97
-1824.94
600.97
322.172
-866.4
-185.901
-105.436
1098.55
-486.539
126.399
611.386
-1645.6
440.423
602.895
-1803.92
-583.275
1787.43
884.413
-1162.93
1760.49
-597.564
1783.83
-575.526
-1208.31
438.565
930.384
-1735.75
924.789
-1500.43
272.791
1227.63
-831.925
-1254.23
-379.996
75.6834
304.312
581.719
270.345
1025.96
-445.454
847.605
-402.151
821.372
738.152
-1559.52
643.726
1066.29
-24.2338
-663.426
687.66
-1744.3
722.671
697.749
150.583
-1122.7
1936.76
-674.548
-1262.21
-537.176
1665.5
827.819
963.505
-1791.32
1227.87
683.32
-403.265
712.205
840.041
1028.79
-586.564
1761.49
626.746
1773.56
-1185.62
-587.938
-377.956
-321.253
699.209
121.446
-1185.7
1660.55
-540.267
-1437.81
1437.81
1250.57
594.415
1351.58
206.427
-568.226
283.439
-192.477
699.068
1113.67
483.92
-304.664
-870.339
-574.545
1736.52
-1736.52
1001.24
-1001.24
987.331
1025.17
-2012.5
1837.94
-613.969
-581.107
815.128
-947.849
-1052.16
998.394
690.475
-1688.87
-516.725
-340.106
-645.702
-808.422
2042.7
-1246.42
-613.679
1002.97
974.852
1289.77
646.985
326.359
1012.69
232.096
337.109
1186.26
1756.88
-1756.88
672.001
79.9143
-388.823
-997.052
-539.991
1674.15
988.782
1011.22
-1833.28
-223.912