/*--------------------------------*- C++ -*----------------------------------*\
  =========                 |
  \\      /  F ield         | OpenFOAM: The Open Source CFD Toolbox
   \\    /   O peration     | Website:  https://openfoam.org
    \\  /    A nd           | Version:  7
     \\/     M anipulation  |
\*---------------------------------------------------------------------------*/
FoamFile
{
    version     2.0;
    format      ascii;
    class       volVectorField;
    location    "28";
    object      U;
}
// * * * * * * * * * * * * * * * * * * * * * * * * * * * * * * * * * * * * * //

dimensions      [0 1 -1 0 0 0 0];

internalField   nonuniform List<vector> 
30084
(
(1.01135 -0.0135761 4.03489e-23)
(1.00841 0.00391242 1.64334e-22)
(0.990142 -0.0036755 -2.45917e-22)
(0.969933 -0.0593541 8.30918e-23)
(0.997433 -5.52757e-05 3.46014e-23)
(0.951763 -0.037434 -1.23809e-22)
(1.07565 -0.0693466 1.14207e-22)
(1.0154 -0.0203045 -4.21177e-24)
(1.0021 -0.00201449 5.54391e-24)
(1.00019 -5.14379e-05 1.44731e-24)
(1.01807 -0.0271547 5.65737e-25)
(0.998414 -0.0176166 -8.41492e-23)
(0.999498 -0.000204598 4.72246e-24)
(0.999968 -1.12661e-05 1.32514e-25)
(1.10776 0.0979387 5.30875e-22)
(0.993582 -0.00210484 3.75595e-23)
(0.999836 -0.00089237 -2.11612e-24)
(1.12071 0.024073 -4.47147e-23)
(0.997768 -0.00190211 -1.17706e-23)
(0.98827 -0.000890175 -5.50303e-23)
(0.999099 -0.000288711 -1.61109e-23)
(1.00198 -0.00201178 1.94276e-23)
(0.990048 -0.00388888 2.71787e-22)
(0.997751 -0.000181275 1.52065e-23)
(0.908045 0.0945777 6.71713e-23)
(1.00925 0.00310429 8.82977e-22)
(0.999459 -6.15832e-05 1.07656e-23)
(0.953034 0.0794882 -4.56111e-21)
(1.11113 0.0990797 -1.39852e-21)
(0.999354 -0.00955624 -1.59589e-23)
(1.01581 -0.0106242 2.7888e-23)
(1.03596 -0.00420691 -2.06768e-22)
(0.997274 -0.139426 8.71776e-22)
(0.999221 -0.0244334 4.22106e-23)
(0.951352 0.0758286 3.66143e-21)
(1.00621 -0.0342467 1.14487e-22)
(1.05556 0.047155 -2.91512e-22)
(0.970022 -0.0328443 3.28946e-22)
(1.00547 -0.000837422 -7.51393e-23)
(1.00528 -0.000598221 1.42857e-22)
(1.00045 -0.000170572 -4.49268e-24)
(0.989769 -0.0337588 -3.10117e-22)
(0.999855 -0.000867182 -2.85374e-26)
(1.03928 -0.0717743 -4.55576e-22)
(1.00004 -5.84024e-06 -2.82256e-25)
(0.999572 -0.00968317 1.20097e-23)
(0.997746 -0.0130813 -2.43586e-23)
(1.00008 -8.84426e-05 7.30807e-25)
(1.00348 -0.00374886 -7.8946e-23)
(1.05589 0.044868 -1.19864e-22)
(1.13906 -0.0551521 7.13061e-23)
(0.973137 -0.0516363 -3.82958e-22)
(1.03569 -0.00341051 7.24559e-23)
(0.953428 -0.0369869 -2.01968e-22)
(0.993743 -0.00215822 -3.29884e-23)
(1.11614 0.0933327 -8.66287e-22)
(0.996464 -0.00239018 1.1726e-23)
(0.999074 -0.000318246 2.04091e-23)
(1.00109 -0.0228459 -5.77621e-23)
(1.01867 -0.0610071 -2.10934e-22)
(0.999932 -7.41752e-06 3.07395e-25)
(0.997847 -0.00194808 -2.42315e-24)
(1.18572 0.0808306 2.3329e-22)
(1.00649 -0.0333798 -6.25689e-23)
(1.04411 0.0947819 2.29235e-21)
(0.928209 0.0263357 9.04153e-21)
(1.00068 -0.0289899 -1.1354e-22)
(0.992686 -0.0149707 1.11484e-22)
(0.946696 0.0168384 3.63782e-21)
(1.00047 -0.000161088 2.90681e-24)
(1.0107 0.00375141 -1.20382e-21)
(0.988635 0.067483 2.55921e-21)
(1.00355 -0.00930957 -3.14415e-23)
(0.925085 0.108819 2.49959e-21)
(0.991449 -0.000687493 1.73977e-22)
(1.12055 -0.0185769 5.39106e-23)
(1.13384 0.140734 1.90487e-21)
(0.970454 -0.0185457 7.85908e-23)
(0.999949 -2.3282e-05 -8.7448e-25)
(1.00903 -0.0512204 -2.08487e-22)
(0.952325 -0.000865109 -1.34037e-22)
(1.01792 0.0372011 6.94832e-22)
(1.0116 -0.0141588 -1.21435e-22)
(1 -6.52485e-05 7.45068e-26)
(1.07752 -0.0664222 -1.69573e-22)
(1.2624 -0.0457232 -6.20804e-22)
(1.02574 0.0823555 -4.23626e-21)
(0.999479 -0.000201637 -4.27863e-24)
(0.999514 -0.000182329 -1.25412e-24)
(0.92619 -0.0501487 -5.39874e-22)
(0.998578 -0.0581627 4.15211e-22)
(0.970378 -0.0194314 8.86841e-23)
(1.00327 -0.00387817 1.34941e-23)
(1.0567 -0.00330473 -1.25586e-22)
(0.917056 -0.0215934 -4.52164e-22)
(1.03141 0.0978643 2.13019e-21)
(1.00428 -0.0756054 6.78674e-22)
(1.00049 -0.00040143 7.2415e-24)
(0.973058 -0.0747447 -7.59619e-22)
(1.09911 0.111874 2.34204e-21)
(0.999946 -2.28314e-05 1.27946e-24)
(0.971703 -0.0120262 -4.72196e-22)
(0.999934 -9.09974e-06 -1.58794e-25)
(1.04692 -0.0142242 -6.28658e-22)
(0.971487 -0.0516323 2.54235e-22)
(1.0327 0.0139601 1.26286e-21)
(1.00166 0.0650637 3.93037e-21)
(0.999534 -0.000184511 -1.06026e-23)
(0.999995 -7.24631e-05 -1.82847e-26)
(1.01564 -0.128432 -4.1174e-23)
(0.994044 -0.138438 -7.85286e-22)
(1.04792 -0.0358212 5.83237e-23)
(1.00002 -2.15625e-06 4.92027e-26)
(0.998903 -0.00646615 -4.27672e-23)
(0.999894 -0.00229423 1.61065e-24)
(0.990811 0.0691343 1.21687e-23)
(1.03348 0.0536667 -1.50387e-21)
(0.987553 -0.00796756 -1.87268e-22)
(1.00003 -7.12398e-05 6.67825e-26)
(1.00387 -0.00920431 -2.39639e-23)
(1.23786 0.0546574 2.11524e-22)
(1.00541 0.0116549 1.92641e-21)
(1.17311 -0.00668536 -6.41418e-24)
(0.926658 0.0321934 -8.57502e-21)
(1.00114 -0.000371345 -1.83612e-23)
(1.15585 0.00685677 -9.83069e-23)
(1.11801 0.0264652 -2.47207e-22)
(1.02303 -0.0577048 1.52192e-22)
(1.00415 -0.00354344 -7.03673e-23)
(1.00003 -0.000458287 1.08947e-25)
(1.03829 -0.0696444 1.6062e-22)
(1.13667 0.138569 1.07039e-21)
(0.999592 0.116907 4.85968e-21)
(1.18582 -0.0183218 -6.26612e-23)
(1.04541 -0.0142086 5.30705e-22)
(1.01536 -0.0102564 5.3037e-22)
(1.04698 0.147529 3.54302e-22)
(0.970195 -0.000892752 6.92926e-22)
(1.20099 -0.165224 2.3434e-21)
(1.10106 0.108709 -1.77148e-21)
(1.15284 0.0100344 1.24195e-22)
(0.932709 -0.00623089 -5.73896e-22)
(0.947458 -0.0527681 1.68803e-22)
(1.00002 -1.93949e-06 -2.11506e-26)
(0.999988 -3.77991e-06 7.1379e-26)
(0.997366 -9.16654e-05 -2.73607e-23)
(0.997932 -0.0128045 4.96777e-23)
(0.993635 -0.103699 -5.80602e-22)
(1.17979 -0.113831 9.07318e-22)
(1.17694 0.118132 1.16158e-21)
(1.03163 -0.0167253 2.77156e-22)
(1.01919 -0.0190563 9.11721e-23)
(1.00045 -0.000650862 1.11671e-23)
(0.999863 -0.00023147 1.22088e-24)
(1.00138 0.0213371 -4.13662e-21)
(1.00056 -0.00159364 1.29634e-24)
(0.993211 -0.0121496 6.63337e-26)
(1.05622 0.149571 -1.05581e-21)
(1.00371 0.0406379 -4.39086e-21)
(1.14056 -0.050375 -1.0459e-22)
(0.954667 -0.00327338 2.31909e-22)
(0.97096 -0.0579764 5.89735e-22)
(1.11511 0.0969152 2.27354e-22)
(0.999948 -4.79181e-05 2.76571e-25)
(0.999988 -3.64772e-06 -2.673e-26)
(0.987505 -0.00837532 6.63109e-23)
(0.948827 -0.0515584 -9.01615e-22)
(1.00006 -0.000235022 -7.16929e-25)
(1 -6.92664e-05 2.4714e-26)
(0.992919 -0.00548689 -2.20155e-23)
(1.00004 -0.000444801 -8.73561e-26)
(1.00598 -0.00604314 -3.93839e-23)
(1.05337 0.151698 1.24679e-21)
(0.970646 -0.000470784 -5.70699e-22)
(1.06929 -0.114413 -2.2487e-22)
(0.994696 -0.000104835 1.11641e-22)
(1.0022 -0.00278436 4.13485e-24)
(0.9709 -0.0118459 7.98479e-22)
(0.999214 -0.00644349 -3.86662e-24)
(1.17227 0.00405254 -1.31943e-22)
(0.999978 -1.05249e-05 4.34004e-25)
(1.01676 -0.0392054 -6.69276e-23)
(1.02736 0.0840893 1.5167e-21)
(0.992964 -0.0138939 -6.47943e-24)
(1.1927 -0.164477 -2.17138e-21)
(1.02627 0.0458232 -1.32019e-21)
(0.993396 -0.00301843 -1.61917e-22)
(0.980954 -0.0170746 2.04867e-22)
(1.00393 -0.00356551 1.07253e-22)
(0.999405 -0.0089023 -2.41323e-23)
(0.999712 -7.69727e-06 1.22451e-24)
(1.00698 -0.0183076 1.95787e-23)
(0.922595 0.0161093 3.57727e-21)
(1.00088 0.0175374 3.18315e-21)
(0.984791 -0.00679604 5.22645e-24)
(0.993522 -0.0119551 -7.00495e-23)
(0.982787 0.0361119 -3.41937e-21)
(1.01149 0.0292923 5.96355e-22)
(0.918923 -0.0213125 5.48051e-22)
(1.00119 -0.000497641 -1.43665e-23)
(1.09623 -0.0856184 2.76724e-22)
(0.975671 -0.100097 7.86183e-22)
(0.998727 -0.0179557 4.01278e-23)
(1.00087 -0.00109447 -2.29608e-23)
(1.04881 0.150435 5.17326e-22)
(0.99315 -0.0054946 -1.47054e-23)
(1.00692 -0.00538852 -4.4103e-23)
(0.991353 -0.103473 7.70858e-22)
(1.01669 -0.131863 1.04619e-22)
(0.999962 -5.3587e-06 1.05307e-25)
(0.979109 0.0949983 -4.24786e-21)
(0.998933 -2.4203e-05 -2.66831e-25)
(1 -5.56738e-05 2.19958e-26)
(0.999438 -0.000214915 1.8257e-24)
(1.0019 -0.0579823 -1.51556e-22)
(1.1713 0.088653 -9.1717e-22)
(1.01767 -0.0382561 1.06424e-23)
(1.00671 -0.00503709 -3.02468e-23)
(0.997775 -0.000249525 3.77388e-23)
(0.920602 -0.0237288 -1.03939e-22)
(1.00003 -0.000487196 -1.79142e-25)
(1.0005 -0.00162545 1.29833e-25)
(0.997603 -0.000211755 -2.49402e-23)
(1.02565 0.00154102 1.16684e-21)
(0.997303 -0.00411995 -7.9033e-24)
(0.998916 -0.00600704 1.27026e-23)
(1.02615 -0.000992178 5.82294e-22)
(1.00013 -0.000397852 1.11734e-24)
(1.00004 -5.04101e-06 7.39029e-26)
(1.00504 -0.000605554 1.52853e-23)
(0.975047 -0.0371225 -3.01346e-22)
(0.973986 -0.000452956 -2.75047e-22)
(0.995023 -0.000398161 -1.18845e-22)
(1.01163 0.00295318 9.96642e-22)
(0.983294 -0.00124906 1.3042e-22)
(1.01933 -0.0183761 -8.7875e-23)
(0.999967 -1.25554e-05 3.72893e-25)
(0.996968 -0.00272203 -4.50372e-23)
(1.00082 -0.00108633 2.48213e-23)
(1.09421 -0.0819115 2.69772e-22)
(1.10877 -0.196769 1.77336e-21)
(0.998576 -0.000128834 1.96752e-23)
(1.00048 -0.000578864 -8.58961e-24)
(0.998811 -0.00586606 -4.34185e-24)
(1.00373 -0.00821696 -5.90402e-23)
(0.988509 -0.000656193 -2.33051e-22)
(0.99995 -4.56388e-05 -1.76074e-26)
(1.25506 -0.0456777 -1.24204e-21)
(1.00005 -0.000498203 2.06513e-25)
(1.02529 0.00140958 -8.21599e-22)
(0.996577 -0.00239245 -2.35992e-23)
(1.00015 -0.000385775 4.72036e-25)
(1.03171 0.0141934 -8.029e-22)
(0.968786 -0.0965861 -8.21012e-22)
(1.00026 -4.36349e-05 4.75618e-24)
(1 -1.30027e-05 1.53997e-26)
(0.932497 -0.00446068 -6.5338e-22)
(1.08315 -0.186081 -2.61725e-22)
(0.991091 -0.00879861 -1.74895e-23)
(1.02231 -0.0592579 -4.07337e-23)
(1.03256 -0.0172726 -4.54692e-23)
(1.03194 0.0823669 1.85311e-22)
(1.00008 -8.34958e-05 2.02101e-25)
(0.975524 -0.036272 2.83974e-22)
(1.21128 0.025306 4.20788e-23)
(0.967217 0.0518749 8.44024e-23)
(0.992856 -0.0135905 5.19225e-23)
(1.02546 0.0443914 1.60255e-21)
(1.11941 -0.0152888 4.52021e-23)
(0.999893 -0.00252393 -1.85698e-24)
(0.850861 0.0461654 5.30053e-21)
(0.999442 -0.000452261 -1.22897e-23)
(1.06962 -0.118538 -3.02869e-22)
(0.922027 -0.0236591 6.74656e-22)
(1.00233 -0.00262983 -2.27147e-23)
(1.16838 0.0498731 5.58333e-22)
(0.991003 -0.000997664 -1.38654e-22)
(1.00125 0.12548 3.36008e-21)
(0.996396 -0.000275959 1.0917e-23)
(0.981596 -0.0183904 -1.0716e-23)
(0.999801 -0.00229424 -1.04625e-23)
(1.08245 0.129089 5.28756e-22)
(1.00073 -0.0180683 9.99037e-24)
(1.02889 0.0981544 1.29675e-22)
(0.999474 -4.7532e-05 -4.71613e-24)
(0.99391 -0.00199628 -5.20391e-23)
(0.96551 0.11465 -2.15832e-21)
(1.03046 0.00153828 -9.79686e-22)
(1.02596 -0.000693832 6.75894e-22)
(0.970345 -0.0478311 7.13198e-22)
(0.999843 -3.38614e-05 1.23813e-24)
(1.00362 -0.00793848 -6.73307e-24)
(0.999833 -0.00097471 -3.79214e-24)
(1 -5.27509e-05 1.83168e-26)
(1.05318 0.0105603 2.83782e-22)
(1.00004 -5.50484e-06 7.19889e-27)
(0.978861 -0.0164095 4.86704e-22)
(1.21008 0.0207067 -5.77524e-23)
(0.906153 0.0988682 -5.23901e-21)
(1.00205 0.117322 -7.48034e-21)
(0.971245 -0.0825434 2.50422e-22)
(0.986726 -0.0330898 1.7391e-22)
(0.975297 -0.00174077 1.30757e-22)
(1.03869 -0.0344217 1.83067e-22)
(1.00754 -0.0180179 -3.46617e-23)
(0.98086 -0.0178992 -2.82947e-22)
(0.973289 -0.0906612 1.10655e-22)
(1.03035 0.0841377 -2.86642e-21)
(0.999513 0.0144359 5.57089e-21)
(0.99867 -0.000157219 1.08484e-23)
(1.00278 0.0658351 -5.42269e-21)
(1.05261 0.00905717 9.97984e-23)
(1.17558 -0.00151487 4.87182e-24)
(1.01456 -0.0155448 4.18587e-23)
(1.00174 -0.0165462 -4.65704e-23)
(1.02988 -0.052376 -9.08567e-23)
(0.994355 -0.00192693 -1.22676e-22)
(0.997222 -0.00069049 -7.96075e-24)
(0.999938 -7.17181e-06 1.62491e-24)
(0.999244 -0.00912897 3.56786e-23)
(1.10161 -0.0245547 3.67549e-23)
(1.08227 0.132454 -8.72208e-22)
(1.00168 -0.00143171 1.06743e-23)
(0.971128 -0.0306729 -3.89706e-22)
(1.01652 -0.0156994 -1.32626e-22)
(0.99996 -1.72575e-05 -1.42144e-25)
(0.972182 -0.0864324 -3.98097e-22)
(0.884213 0.077915 -2.35762e-21)
(0.993507 -0.00515599 1.82055e-22)
(0.998908 -0.00479959 1.16394e-23)
(1.01514 -0.0152967 -2.59518e-23)
(1.00846 -0.049705 2.63495e-22)
(1.07496 0.0399773 3.66972e-22)
(0.999699 -0.0103412 -5.79506e-24)
(0.999966 -5.54933e-05 9.11954e-25)
(1.00001 -3.02942e-06 2.42006e-26)
(0.997183 -0.000629069 -8.86031e-24)
(0.963863 0.113854 3.12204e-21)
(1.05311 -0.02318 1.38765e-22)
(1.11445 -0.19231 -4.54952e-22)
(1 -1.30223e-05 1.25044e-27)
(1.08138 -0.192247 1.76016e-22)
(1.07722 0.00903843 -4.38031e-22)
(0.994565 -0.000175417 -5.60867e-23)
(0.924835 -0.00857474 -8.0855e-22)
(0.998994 -0.00471364 -1.1647e-23)
(0.999545 -0.000206674 -7.74338e-25)
(0.976048 -0.0326996 -8.45403e-23)
(1.00096 -0.00120018 -1.10987e-23)
(1.17428 0.00883318 1.47953e-22)
(1.00945 -0.00107288 -3.15215e-22)
(1.13832 0.119555 -9.01643e-22)
(0.99993 -0.00249042 2.4067e-24)
(1.005 -0.0144576 1.13867e-23)
(1.00525 0.0103182 -2.61157e-21)
(1.23275 0.0520399 -3.00007e-23)
(1.00044 -0.000612667 -6.56447e-24)
(1.00047 -0.000542844 6.43494e-25)
(0.992229 0.0812253 2.65904e-22)
(1.00005 -0.0590769 -8.28432e-23)
(0.999509 -0.0101936 7.04945e-24)
(1.01037 0.0323441 3.12948e-22)
(0.976165 0.0183123 6.68349e-21)
(1.14155 -0.0590619 -2.35064e-22)
(1.00058 -0.0279586 -3.46832e-23)
(1.1674 0.0876353 9.11647e-22)
(0.999196 -7.74913e-05 -8.12727e-24)
(0.990729 -0.00460002 4.88994e-23)
(0.996472 -0.000289871 -3.05649e-23)
(1.01291 0.0280167 3.37218e-24)
(0.999988 -0.000800505 2.1964e-25)
(1.00914 -0.00131191 3.22111e-22)
(1.19875 -0.0897726 2.9828e-23)
(0.998 0.110829 7.5169e-21)
(0.927879 0.112146 -1.15757e-21)
(0.9936 -0.0030091 6.46751e-24)
(0.990811 -0.0085989 5.2548e-23)
(1.04174 0.0967822 -1.83346e-21)
(1.01953 -0.06295 3.03789e-22)
(0.99994 -8.56532e-06 -1.58499e-24)
(1.15921 0.129052 1.96549e-21)
(1.02488 0.00198964 -3.49015e-22)
(1.02438 0.00191329 -2.35543e-22)
(0.994262 -0.0147136 -7.5343e-23)
(1.01882 -0.00184962 -4.89837e-22)
(0.956766 0.102355 1.05615e-21)
(1.17897 -0.127051 -2.8825e-22)
(0.980829 0.101635 1.13853e-21)
(0.992187 0.101052 -1.95192e-21)
(0.999997 -6.94212e-05 5.79739e-26)
(1.09834 -0.0245126 -9.28395e-23)
(1.17672 -0.121117 1.86815e-22)
(0.997176 -0.00415914 2.07388e-23)
(1.00172 -0.00153592 -1.76156e-23)
(0.971747 0.0213678 1.59951e-21)
(1.05498 -0.0236293 -1.80745e-22)
(1.0003 -8.01992e-05 1.08388e-24)
(0.985213 -0.0705039 -8.67521e-22)
(0.975119 -0.103009 -3.69348e-22)
(0.994045 -0.00205053 7.3133e-23)
(0.999873 -0.000224755 -1.53216e-24)
(1.03538 0.114219 -3.16074e-22)
(1.03347 0.0518793 2.53568e-21)
(1.00005 -0.00054558 -5.61893e-26)
(1.00431 -0.00382114 1.38261e-23)
(1.00553 -0.00380502 7.47915e-23)
(1.21605 -0.0324742 7.52846e-22)
(0.970292 -0.0465219 -6.31647e-22)
(1.00007 -0.00064749 -4.96519e-25)
(0.999985 -2.44326e-06 -4.00763e-26)
(1.00053 -0.000176806 1.71274e-24)
(1.07331 0.040603 -3.59688e-23)
(0.969929 -0.0316819 -3.14717e-22)
(1.0018 0.0409234 1.25137e-21)
(0.939223 -0.059063 4.21209e-22)
(0.987625 -0.0328616 -1.80605e-22)
(0.973203 -0.00136025 -5.48319e-22)
(1.01181 0.0313275 -1.53977e-21)
(1.18145 0.0773696 3.9313e-23)
(0.998712 -0.000167192 1.98663e-23)
(1.00831 -0.00610902 -7.99799e-23)
(1.0009 -0.00118831 1.25827e-23)
(0.979707 0.110986 -2.94832e-21)
(0.972171 -0.028559 1.67236e-22)
(1.00115 -0.000301926 -6.01258e-24)
(0.991858 -0.00408278 -6.59484e-23)
(1.15432 0.0162574 2.81796e-22)
(0.999837 -0.0111086 -1.51982e-23)
(0.987664 -0.0143482 -3.65335e-23)
(1.00025 -0.000153158 -3.30176e-24)
(1.00026 -5.83856e-05 -1.46134e-25)
(0.881179 0.083407 3.70077e-21)
(0.991073 -0.00148604 -8.64178e-23)
(0.994875 -0.00528876 7.43927e-23)
(0.999607 -0.00203439 -9.24639e-24)
(0.999216 -5.91681e-05 -1.11475e-24)
(1.03741 0.0812541 -9.70682e-22)
(1.20473 -0.0872376 5.60733e-23)
(0.986785 -0.0500607 1.08929e-22)
(1.00002 -2.35884e-06 -2.49283e-26)
(1 -4.24058e-05 1.68006e-26)
(0.971034 -0.0296662 4.42004e-22)
(0.992649 -0.00216817 1.75068e-23)
(0.994405 -0.00245763 -1.00077e-23)
(1.01506 -0.00534308 1.53153e-22)
(1.00617 -0.00257262 2.68155e-23)
(1.00106 -0.0184791 -1.7668e-23)
(1.12415 0.0101851 5.19757e-22)
(0.979329 -0.00521281 -1.10334e-22)
(0.982414 0.0998211 -9.25869e-22)
(1.01714 -0.0273093 -3.77456e-23)
(1.00027 -0.000153722 3.67158e-24)
(0.96995 -0.0811503 3.7469e-23)
(0.984082 -0.0444697 -3.78603e-22)
(1.15902 0.0490481 3.75541e-22)
(0.996981 -0.00686448 -2.20526e-23)
(0.992355 -0.0584028 -1.31256e-22)
(0.999977 -6.24687e-06 2.39191e-25)
(0.938261 0.0821627 -3.63474e-21)
(1.01591 -0.00221055 2.76661e-22)
(1.00009 -0.000261835 -1.14158e-24)
(0.922497 0.0220303 -4.60772e-21)
(0.985582 -0.0504371 2.5344e-22)
(0.999976 -7.25701e-06 3.78529e-26)
(1.00156 -0.00140036 5.20231e-24)
(0.97069 -0.0848616 -2.21315e-22)
(1.04599 -0.0348147 6.06403e-23)
(1.05024 -0.0074538 3.5692e-22)
(0.99999 -4.05874e-06 5.70961e-26)
(0.991023 -0.000758663 6.90093e-23)
(1.03056 -0.0510069 1.45494e-22)
(0.994211 -0.00187995 1.01247e-22)
(0.999496 -5.46581e-05 -2.55548e-23)
(0.990918 -0.00474786 1.37049e-24)
(0.979768 0.0377461 3.97375e-22)
(0.99252 -0.0145499 -9.31678e-23)
(0.9882 -0.014029 2.67885e-23)
(1.00155 0.0246257 -1.2738e-21)
(0.997023 -0.00257054 2.35339e-23)
(0.975224 0.112387 -3.79253e-22)
(0.999975 -7.29111e-06 -1.21539e-25)
(0.990072 -0.0328742 7.20457e-23)
(0.989919 -0.0981898 8.85446e-22)
(0.993645 -0.0586244 2.214e-22)
(1.21349 0.00803031 6.61995e-23)
(0.998793 -0.00628541 2.86832e-23)
(1.01178 -0.0261489 1.5912e-23)
(0.999921 -0.00268263 4.5977e-25)
(0.981765 -0.0260418 -2.14192e-22)
(1.04828 -0.0379046 2.09329e-23)
(0.999962 -1.65064e-05 7.22289e-25)
(1.00002 -1.32052e-06 -4.25798e-26)
(0.99301 -0.000485537 4.65901e-23)
(0.982144 0.071412 2.62734e-21)
(1.01496 -0.0211012 1.58522e-22)
(1.00283 -0.0039222 -2.1977e-23)
(0.920392 -0.0445984 5.79295e-22)
(1 -1.17079e-05 3.42178e-27)
(1.00107 -0.00130976 -2.01413e-23)
(0.999963 -0.000763304 -2.87163e-25)
(1.01634 -0.0200406 1.75952e-22)
(0.981548 -0.0192087 3.75989e-23)
(0.999582 -0.000321476 3.21383e-24)
(0.992977 -0.0129617 3.51543e-23)
(0.986266 -0.0083445 -3.92021e-23)
(1.00111 -0.000181081 -1.65435e-24)
(0.999974 -8.41295e-06 -7.58488e-26)
(1.2002 0.0446641 1.28123e-22)
(0.999648 -0.00200038 9.91115e-24)
(1.07609 0.0039002 3.32682e-22)
(1.0099 0.108966 7.33569e-21)
(1.03821 0.0953126 -1.67616e-21)
(1.00177 -0.0233681 -6.78001e-23)
(1.00604 -0.00233245 -8.87032e-24)
(1.01914 -0.0014636 2.99743e-22)
(0.999975 -0.00274189 -5.19287e-25)
(0.99786 -0.0119197 3.52971e-23)
(1 -1.94189e-05 2.83939e-26)
(0.98998 0.101285 -1.4609e-22)
(0.986846 -0.0189695 5.17061e-23)
(1.01476 -0.00493184 -1.09261e-22)
(0.979813 -0.00540413 2.25441e-22)
(1.00446 -0.0142511 1.15307e-24)
(0.997166 -0.00674661 4.77252e-23)
(0.999886 -0.000230301 3.59038e-25)
(1.00002 -1.26581e-06 -2.30773e-25)
(0.995052 -0.00526427 -5.41198e-23)
(1.05724 -0.00480112 -1.99168e-22)
(1.00388 0.0423239 1.96776e-22)
(1.00133 -0.000534856 -2.44167e-23)
(0.975187 -0.0745816 -1.9462e-22)
(0.972033 -0.027713 -7.5618e-23)
(0.991247 -0.000594853 -2.58209e-22)
(1.1745 0.114916 -7.33775e-22)
(0.998578 -0.00109863 -1.17858e-23)
(1.00466 -0.0161297 -3.10278e-23)
(0.993967 -0.00323843 5.0755e-23)
(0.999895 -0.000222002 3.02427e-25)
(0.971567 -0.0888867 2.51105e-22)
(1.00168 0.0357283 -1.95742e-21)
(1.02643 0.040784 -1.65728e-21)
(0.974479 -0.0183666 -3.65414e-23)
(1.0012 0.0340778 -8.84038e-23)
(1.00009 -0.000245918 2.20527e-24)
(1.00002 -1.70407e-06 7.13245e-26)
(1.15803 0.126197 -7.45697e-22)
(1.16429 0.0517863 -3.39202e-22)
(0.925026 0.0837968 -1.79976e-22)
(1.01283 -0.0987723 6.42067e-22)
(0.973506 -0.00187692 -1.7113e-22)
(1.15048 0.0199704 -3.86259e-22)
(1.00127 -0.000557899 2.76536e-23)
(0.993759 -0.00436605 2.90914e-23)
(1.0005 -0.000187875 -1.63367e-24)
(0.988018 -0.000843147 -5.68155e-23)
(0.987132 -0.0154759 -7.59321e-23)
(0.999995 -3.80104e-05 -1.61458e-25)
(0.999027 -3.75174e-05 4.64657e-24)
(0.997735 0.108495 -6.83889e-21)
(0.99986 -0.000793053 3.43407e-24)
(0.945044 0.0758778 4.37161e-21)
(1 -1.84602e-05 -2.16771e-26)
(1.21083 0.0825183 3.92648e-22)
(1.0766 0.00213527 -7.13593e-22)
(1.12277 0.0125734 -5.7802e-22)
(1.00114 -0.000529574 1.6563e-24)
(1.0002 -4.71158e-05 2.92757e-24)
(0.985926 0.0678407 -3.92365e-21)
(1.07808 0.00694095 1.43277e-21)
(0.989578 -0.100448 -8.17847e-22)
(1.01849 0.0389242 7.4964e-22)
(0.998636 -0.0240132 2.96279e-23)
(0.984937 -0.00639994 -5.78421e-23)
(0.995517 -0.00024993 -3.07426e-23)
(1.0846 0.151098 -4.02536e-21)
(0.973702 -0.0330701 2.72586e-22)
(1.03884 -0.0326762 -1.21951e-22)
(0.993267 -0.0128284 -2.00871e-23)
(1 -1.16516e-05 -5.89909e-28)
(0.998592 -0.00103721 -1.00153e-23)
(1.00657 -0.00651099 4.69694e-23)
(0.979135 -0.00965769 2.89651e-22)
(0.975184 -0.0184885 5.43607e-23)
(0.950901 -0.052391 -8.79685e-23)
(0.978922 -0.0102475 -2.19174e-22)
(1.01753 0.00280927 1.35799e-22)
(0.997661 -0.000159892 6.25574e-25)
(0.928145 -0.0506454 3.02295e-22)
(0.984069 -0.00109308 -8.04615e-23)
(1.00004 -0.000237601 3.06116e-25)
(0.986153 -0.000869816 -5.58303e-23)
(1.04017 -0.0355619 -1.9899e-22)
(1.01679 0.00298704 -7.51074e-22)
(0.971227 -0.0334402 -6.83488e-23)
(0.999982 -8.45752e-07 -1.1157e-27)
(0.980653 -0.0196826 5.67046e-23)
(1.003 -0.016607 3.96809e-24)
(1.00152 -0.00130014 6.6831e-24)
(1.20309 -0.11369 -8.16944e-22)
(1.00136 0.0331005 -4.53542e-21)
(1.00099 -0.00129424 1.86994e-23)
(0.986396 -0.000655468 7.6433e-25)
(1.1328 -0.0630128 -4.66359e-24)
(1.02656 0.0006719 1.17602e-21)
(0.991645 0.0261971 -4.24806e-22)
(1.00204 -0.0027445 5.95805e-24)
(1.00166 -0.0243725 2.12309e-23)
(1.06987 0.11747 -5.96118e-22)
(1.01388 0.0250735 -3.84652e-21)
(0.991297 -0.032646 1.90424e-22)
(1.00522 -0.0038151 -8.3735e-24)
(0.945694 -0.0628845 4.21679e-22)
(0.999997 -5.98721e-06 3.13496e-26)
(0.941493 -0.00265299 -3.0002e-22)
(1.00009 -7.79375e-05 4.09845e-25)
(1.13036 -0.0658449 -5.91618e-22)
(0.999964 -3.91073e-06 -8.012e-26)
(1.00003 -6.96609e-05 2.33036e-25)
(1.00152 -0.0273538 -2.56522e-23)
(1.18481 0.0860521 -5.09374e-22)
(1.02011 0.135468 3.22054e-21)
(1.044 -0.035912 -3.09904e-22)
(1.01582 -0.0159364 8.81924e-23)
(0.999999 -4.70055e-06 -8.30008e-27)
(0.993267 -0.00519758 -9.85165e-23)
(1.0001 -2.38083e-05 -3.05719e-25)
(0.996549 -0.00274222 3.36875e-23)
(1.00003 -6.48941e-05 -1.81025e-25)
(1.0499 -0.00562689 -1.11264e-21)
(0.999484 -0.000532173 -1.26049e-23)
(1.04638 0.0560357 1.69672e-21)
(0.999862 -0.000245534 -2.35936e-24)
(0.985503 -0.00624187 -9.72746e-23)
(0.951223 -0.00140454 6.64933e-22)
(0.995284 -0.000342548 -3.95012e-23)
(0.986125 0.0379195 4.09026e-21)
(0.980311 -0.000866652 1.5744e-22)
(1.05296 -0.118111 5.21764e-23)
(0.993928 -0.00457638 1.50557e-22)
(1.0258 -0.00215836 -2.48706e-22)
(0.972114 -0.0761876 9.09166e-22)
(1.02028 -0.00134287 -8.35828e-22)
(1.05842 -0.0724635 -1.71942e-23)
(0.999984 -1.97351e-06 1.03636e-26)
(1.00029 -0.0231246 2.38574e-23)
(0.995591 -0.000329708 4.82294e-24)
(1.00028 -0.000103468 2.21086e-24)
(1.0001 -2.00277e-05 5.10809e-25)
(1.08758 0.153117 4.4083e-21)
(0.994593 -0.00246355 8.43388e-23)
(1.02612 0.00152022 1.33954e-21)
(1.00244 -0.0248964 2.57508e-23)
(1.00094 -0.000339824 6.40734e-24)
(1.02484 -0.00770211 -9.2653e-22)
(1.00018 -4.44301e-05 -6.46597e-24)
(0.999973 -3.89764e-06 -1.08531e-26)
(0.942253 -0.00353123 2.30525e-22)
(0.996144 -0.00139424 3.80883e-23)
(1.00003 -6.32079e-05 2.7298e-25)
(1.04711 0.0954518 1.25539e-21)
(0.894536 0.0677326 -6.52172e-21)
(0.999769 -0.000260055 5.91865e-24)
(0.953521 -0.00282143 -1.79033e-22)
(1.00002 -1.70471e-06 5.09317e-26)
(0.953875 0.100195 -4.23186e-21)
(1.21441 0.0863969 4.34343e-22)
(0.970211 -0.0607496 -7.21965e-22)
(1.00005 -0.000626293 -5.80327e-25)
(1.03735 -0.0316522 2.8525e-22)
(1.03079 -0.00125264 -3.43439e-22)
(1.03116 0.00165094 1.00398e-22)
(1.05155 -0.00787688 -1.40261e-22)
(0.999613 -0.00214477 -1.51014e-24)
(0.999858 -0.00095028 2.98909e-24)
(0.984696 -0.0189784 -1.6588e-22)
(1 -1.03072e-05 -5.20604e-27)
(1.00002 -1.47651e-06 -1.30937e-26)
(0.972606 -0.0325522 -1.61067e-22)
(1.00585 -0.0743065 -3.32868e-22)
(0.952428 -0.0512623 -2.25011e-23)
(0.91323 0.0948727 -1.35347e-22)
(1.00022 -2.86579e-05 -2.70379e-24)
(1.03371 -0.0885812 -6.77779e-22)
(1.00805 -0.00574197 -8.22286e-23)
(0.999975 -4.14219e-06 1.24115e-25)
(0.998928 -0.00446752 -2.52907e-23)
(1.00004 -0.000530876 -3.57069e-25)
(0.995486 -0.0148542 5.6554e-23)
(1.00005 -1.17114e-05 3.04419e-25)
(1.0602 -0.0704294 -3.93405e-23)
(1.01993 -0.0016498 8.11823e-22)
(0.976547 0.110448 1.00521e-21)
(1.02533 -0.0020811 9.3213e-22)
(0.999695 -0.000254734 4.67518e-24)
(1.0005 -0.000438212 -6.30638e-24)
(1.21881 -0.0379855 -7.87677e-22)
(1.02613 0.00120868 -1.07671e-21)
(0.996589 -0.000449494 3.45467e-23)
(1.00002 -1.75845e-06 1.08596e-25)
(1.06088 0.0872868 -2.08834e-21)
(1.17753 -0.173761 -3.9516e-22)
(1.01242 -0.0963301 -2.78706e-22)
(0.983617 -0.00093184 -4.23874e-23)
(0.999977 -2.51804e-05 2.41388e-25)
(0.999698 -0.000240264 -2.7401e-24)
(1.18668 -0.173938 1.11683e-21)
(1.00348 -0.0587924 -8.84765e-23)
(1.03372 0.0308438 2.36906e-22)
(0.982 0.0965016 3.85572e-21)
(1.05038 -0.115135 3.90514e-22)
(0.99861 -9.57779e-05 -6.18837e-24)
(0.999977 -1.17942e-05 -2.83036e-25)
(0.960478 -0.0662031 7.1945e-22)
(0.9893 -0.13222 -9.57267e-22)
(0.999778 -0.000269211 3.15972e-24)
(1.01238 -0.0253316 7.52958e-23)
(0.991584 -0.031721 -3.34513e-23)
(0.994878 -0.00263841 3.32101e-23)
(0.998445 0.0267812 -3.2507e-21)
(0.998588 -0.000620179 2.21673e-23)
(1.06643 -0.0470384 2.45925e-23)
(1.13324 0.143987 -2.02004e-21)
(0.991396 -0.00385741 -9.69845e-23)
(0.923109 0.0791182 -6.46084e-22)
(0.929921 0.0375477 1.96624e-21)
(0.999966 -5.873e-05 -9.1663e-25)
(0.999973 -0.00083447 -2.38266e-25)
(0.980557 -0.00115094 -1.00224e-22)
(1.01404 -0.00489739 -1.97811e-22)
(0.955581 -0.0025911 3.77606e-22)
(1.00569 -0.00472227 -8.6113e-23)
(0.991712 -0.0038657 9.03867e-23)
(0.999378 -0.000566921 -9.62006e-24)
(0.961451 0.100593 -7.59331e-22)
(1.04719 0.053999 -2.63271e-21)
(1.0025 -0.00265415 1.52744e-23)
(0.857269 0.0434823 -1.32004e-21)
(1.00002 -1.46819e-06 -7.32414e-26)
(1.02368 0.00687222 -1.86825e-21)
(1.01013 -0.122906 6.42817e-22)
(1.03666 -0.0878083 2.63208e-22)
(1.00011 -0.000238861 -1.13043e-25)
(0.953316 -0.00142617 3.077e-22)
(1.02128 0.00602759 1.04732e-21)
(1.01371 -0.00525886 1.63932e-22)
(1.03006 -0.000363834 4.74143e-22)
(0.999509 -4.28331e-05 1.80332e-23)
(0.999478 -0.000566923 1.14152e-23)
(1.03383 -0.0487852 3.10614e-23)
(0.996209 -0.00150215 -1.08699e-22)
(0.986053 -0.0141132 -1.80279e-22)
(0.999057 -0.00404572 1.4978e-24)
(1.07066 0.0459942 1.38046e-21)
(1.00008 -0.0241359 -1.64295e-23)
(0.994576 -0.00560494 1.80637e-24)
(0.915391 -0.0379829 -8.67779e-22)
(0.994201 0.0812566 4.37604e-22)
(1.12131 -0.0103175 -4.09947e-22)
(1.02429 -0.00741859 7.4238e-22)
(0.999564 -0.000207447 3.42374e-24)
(0.999443 -0.000370812 1.54805e-24)
(0.980845 -0.0257894 4.33348e-22)
(1.00109 -0.00140924 -1.50034e-23)
(0.997149 -0.000791027 -6.1734e-24)
(0.999978 -2.41527e-05 -9.11455e-26)
(0.999655 -0.00218467 3.06204e-25)
(1.02071 0.00553308 -4.06977e-22)
(0.98503 0.0706256 -3.77412e-21)
(0.99986 -1.77105e-05 7.35515e-25)
(1.1036 0.144824 -3.87639e-21)
(0.999995 -4.74443e-05 6.87194e-26)
(0.996446 -0.00324937 4.59173e-23)
(0.999991 -0.000108667 9.71439e-26)
(1.00571 -0.00408645 -3.81126e-23)
(1.20435 0.0430459 -8.64687e-23)
(0.999957 -4.93006e-05 7.77523e-26)
(0.999956 -5.28554e-05 5.47854e-25)
(0.937889 -0.0598916 -4.16556e-22)
(1.00001 -1.02121e-05 -2.22627e-27)
(1.05473 -0.0070407 1.18822e-21)
(0.989785 -0.0509467 3.45166e-22)
(0.999976 -0.000733566 2.84894e-25)
(1.06291 0.0708116 -1.62756e-21)
(1 -3.39251e-05 -4.2277e-26)
(0.999564 -4.43594e-05 1.57579e-23)
(0.999903 -4.06587e-05 2.59048e-26)
(0.994776 -0.00561229 -2.7863e-23)
(0.99964 -0.00174137 -4.73771e-24)
(0.993146 -0.000367777 -3.14068e-23)
(1.03158 -0.146506 -7.45972e-23)
(0.999681 -0.00169544 3.15495e-24)
(1.00458 -0.00383184 -2.96767e-23)
(0.999973 -2.83921e-06 -4.64937e-26)
(1.02175 0.133213 -6.11538e-21)
(1.0649 -0.0488051 5.08162e-23)
(1.1243 -0.00987096 -2.75238e-23)
(0.958936 -0.00769566 4.08608e-22)
(0.97408 -0.00528467 -7.38026e-23)
(0.999025 -0.00436705 4.17223e-23)
(1.00319 -0.00294599 4.14564e-23)
(1.03642 0.0643813 7.01254e-22)
(0.983433 -0.0458812 5.14943e-23)
(1.08636 0.107454 8.31618e-22)
(0.948402 -0.0178583 -7.52195e-22)
(0.996316 -0.00313899 -4.33701e-23)
(0.99999 -4.90529e-06 -1.03175e-25)
(0.993757 -0.00325246 -6.11476e-23)
(1.00382 0.126951 1.56054e-21)
(1.05499 0.0767961 -3.73489e-22)
(0.987071 -0.069686 2.92754e-22)
(0.928215 -0.00795044 1.77472e-22)
(1.02563 0.127518 1.63618e-21)
(0.990563 -0.000679943 8.13421e-23)
(1.00093 -0.113265 5.12088e-23)
(0.999991 -0.000103906 1.73412e-25)
(0.988454 -0.0513731 4.33409e-22)
(0.999092 -0.000256725 -2.29657e-23)
(0.86869 0.0734433 -3.82475e-21)
(0.987566 -0.0933263 -6.75802e-22)
(0.999905 -3.64606e-05 1.35767e-24)
(0.923763 -0.0260488 -4.64587e-23)
(0.983629 -0.0487527 2.29191e-23)
(1.02483 0.0684554 2.49302e-21)
(0.997189 -0.000863226 -5.82125e-23)
(0.981059 -0.0472941 -1.5574e-22)
(0.997669 -0.0122333 -4.93105e-23)
(1.00151 -0.0264036 -5.32722e-23)
(0.998625 -0.000630945 -1.50791e-23)
(1.02393 0.0671013 -3.01722e-21)
(1.09921 -0.19407 7.76749e-22)
(0.980627 -0.0204967 -1.26237e-22)
(0.985266 -0.0176065 2.64533e-24)
(0.98562 -0.00589417 -3.95932e-23)
(1.00567 -0.00222642 -3.48602e-23)
(1.02707 0.124622 6.40863e-21)
(0.980355 -0.0166196 5.71597e-23)
(1.0125 0.0367322 1.627e-21)
(1.00294 -0.00236823 3.15156e-23)
(1.21547 0.013723 -2.80031e-23)
(0.942628 0.0811819 6.50643e-22)
(0.990372 -0.000530648 -2.8216e-22)
(0.999752 -4.67364e-05 3.072e-24)
(1.03561 0.0830976 7.5769e-22)
(0.995606 0.104231 -5.70444e-21)
(1.03253 -0.0470734 -2.96614e-23)
(1.0932 -0.0287123 4.38275e-23)
(0.995264 -0.0154247 -6.31981e-23)
(0.95959 -0.00694756 -2.42331e-22)
(1.06815 0.115168 2.39427e-21)
(0.958754 -0.0666835 1.20065e-22)
(0.999974 -2.41813e-05 3.14198e-25)
(0.991835 -0.000130789 -1.43913e-22)
(1.00004 -6.36152e-06 3.08523e-25)
(0.99512 -0.000307883 1.0768e-22)
(0.999973 -2.54324e-05 -4.91557e-25)
(0.998414 -0.0170708 8.31645e-23)
(0.998962 -4.16557e-05 8.19444e-24)
(0.997112 -0.0063971 5.55543e-24)
(1.21616 -0.017838 -1.1598e-22)
(0.999359 -0.000433771 8.23348e-24)