/*--------------------------------*- C++ -*----------------------------------*\
  =========                 |
  \\      /  F ield         | OpenFOAM: The Open Source CFD Toolbox
   \\    /   O peration     | Website:  https://openfoam.org
    \\  /    A nd           | Version:  7
     \\/     M anipulation  |
\*---------------------------------------------------------------------------*/
FoamFile
{
    version     2.0;
    format      ascii;
    class       surfaceScalarField;
    location    "4";
    object      phi;
}
// * * * * * * * * * * * * * * * * * * * * * * * * * * * * * * * * * * * * * //

dimensions      [0 3 -1 0 0 0 0];

internalField   nonuniform List<scalar> 
172499
(
201.611
53.3848
-254.996
-473.776
102.001
371.776
-111.166
-78.3347
189.501
113.278
-278.671
165.393
-435.512
323.67
111.843
138.191
-337.172
198.981
-154.873
285.296
-130.423
-83.6108
191.706
-108.095
-363.401
351.965
11.436
-465.119
-8.65695
-229.998
354.512
-124.513
494.972
-360.232
-134.74
-169.931
341.211
-171.28
91.6053
-92.8315
1.22624
-43.9718
-319.429
-108.629
63.1804
45.4486
-456.098
86.4605
369.637
-411.607
77.0082
334.598
-128.072
286.522
-158.45
-331.953
-103.56
-75.4047
179.658
-104.253
199.409
-197.338
-2.07055
392.85
-290.314
-102.536
160.359
-313.715
153.356
-238.759
206.982
31.7771
-115.948
220.364
-104.417
65.0408
68.9627
-134.004
-207.092
459.989
-252.897
-263.264
-175.893
439.157
-56.8181
99.8015
-42.9834
427.835
-342.043
-85.7915
-242.053
-68.0855
310.138
-267.874
405.067
-137.193
-101.218
-76.659
177.877
-84.7665
-95.1061
179.873
182.209
95.5434
-277.752
-220.319
84.5964
135.722
-99.6552
-356.443
109.292
-140.237
30.9447
108.226
204.719
-312.945
156.675
-398.728
-57.5817
-354.025
-130.703
-36.9668
167.67
-119.142
301.351
-41.4773
103.757
-62.2793
-2.54846
94.1537
264.842
64.3331
-329.175
542.797
-302.974
-239.824
397.644
-147.806
-249.838
414.117
-534.055
119.938
-390.719
478.198
-87.4795
280.101
-101.808
-178.293
-468.706
326.347
142.358
-504.401
451.005
53.3967
-118.56
-166.649
285.209
-313.19
-155.516
550.478
-363.015
-187.463
-133.996
81.5364
52.4596
82.377
72.4198
-154.797
129.082
-230.639
101.557
-515.366
327.47
187.896
-186.313
331.524
-145.211
346.073
-129.422
-216.651
-105.732
186.717
-80.9848
295.895
87.1764
-383.071
9.41316
-401.131
391.718
-351.799
197.041
154.758
-216.736
394.854
-178.118
75.9223
-138.605
62.6826
-531.671
252.657
279.015
-111.926
198.413
-86.4872
189.954
-146.391
-43.5626
363.881
-255.655
-136.635
68.8107
67.8246
-90.9878
-92.9355
183.923
81.5672
-165.931
84.3634
-199.832
47.9143
151.918
202.358
-403.055
200.697
-252.265
-133.869
386.134
-285.591
212.535
73.0556
-75.5577
-210.033
429.791
-432.788
2.99638
44.0631
-85.0718
41.0087
-304.514
554.92
-250.406
-137.472
241.048
-103.576
342.473
152.499
-110.295
178.741
-68.4459
-324.475
472.879
-148.405
106.358
-119.109
12.7505
-86.6919
441.521
-354.829
128.92
-5.3096
-123.611
202.943
-20.0853
-182.857
206.532
-469.796
221.449
50.1211
-271.57
-420.617
315.255
105.362
-574.906
416.846
158.061
262.003
-321.849
59.8463
96.1562
-52.0931
81.9162
-156.361
74.4449
0.0349516
106.323
-314.478
-200.888
197.783
-431.777
233.994
327.777
-178.917
-148.86
-485.096
498.968
-13.8715
96.8674
-208.793
167.775
-89.3063
-78.4686
-503.889
310.33
193.558
-35.7019
101.167
-65.4651
-143.806
225.435
-81.6289
-311.335
-71.14
382.475
-119.702
226.1
-106.399
-54.6646
316.667
-169.633
-30.1992
135.485
105.801
-241.285
-115.528
46.8972
68.6308
205.506
-345.678
140.172
-307.605
77.6065
-85.5801
212.371
-126.791
363.996
-541.56
177.564
46.5095
143.444
-204.221
118.641
-68.5479
-40.0811
-223.817
114.992
108.825
43.8486
-164.009
120.16
-230.665
532.611
-301.947
-110.837
54.0188
-265.302
78.9892
-117.977
71.1397
46.8373
-181.168
-41.7099
222.878
-503.216
505.899
-2.68313
-103.519
231.741
-128.222
567.133
-287.738
-279.395
-170.86
178.833
-7.9733
538.931
-196.458
-329.437
480.842
-151.405
-126.492
227.919
-101.427
-262.288
185.507
76.7808
61.5251
-329.399
148.571
-267.131
182.771
148.753
83.1713
46.4792
-129.651
-190.432
341.034
-150.602
502.973
-504.533
1.56029
376.14
-196.568
-179.572
-262.714
159.195
141.958
-532.677
437.261
-329.965
-107.296
-115.973
-149.329
-447.597
230.861
-226.878
-167.294
394.173
109.38
58.3951
54.1124
-95.5897
7.49102
195.452
-567.955
273.279
294.677
133.253
146.848
-358.473
426.441
-67.968
-412.193
100.859
-66.3208
214.818
-148.497
133.989
-134.142
0.153631
-152.118
108.372
43.7462
151.795
-70.2278
138.489
298.772
158.387
187.686
-187.781
148.241
39.5404
264.185
-144.929
-119.256
139.92
173.477
-313.396
441.206
-256.121
-185.086
-58.3799
-107.747
166.127
-185.095
118.774
-242.071
125.299
116.772
-242.063
157.217
84.8459
-100.534
365.376
-92.6644
-27.2184
119.883
26.6368
63.2024
-89.8392
-69.4664
-84.6714
154.138
217.401
-432.734
215.333
-74.4837
101.12
194.033
85.578
-279.611
115.817
-333.132
217.315
277.565
120.078
-286.894
-131.953
418.847
-190.246
99.2578
138.594
-255.82
117.226
-203.776
410.911
-207.135
-265.641
-238.248
-162.471
384.884
-222.413
95.2513
-262.071
166.82
312.268
187.732
-133.555
322.009
-188.454
120.903
8.01773
-105.902
299.935
-338.773
189.75
149.024
449.931
-159.846
-290.085
-204.28
116.47
87.8092
-227.019
111.072
73.5002
-130.58
57.0798
21.1792
-95.6629
-173.301
164.152
9.14892
57.1681
-148.248
91.0801
80.6715
139.173
-219.845
-565.14
385.229
179.911
-198.813
361.917
-163.104
360.615
57.5709
-418.186
481.283
-479.318
-1.96454
-338.834
169.071
169.763
136.811
-92.0589
-44.7518
370.009
-271.465
-98.544
-87.2957
383.191
-210.914
-195.477
406.391
100.018
-208.101
108.083
-70.883
92.0622
38.4057
271.924
13.7464
-252.505
-384.202
297.51
-161.151
-65.9941
227.145
-86.6595
-117.62
-98.8742
248.205
-149.331
-184.185
-135.675
319.86
81.5177
-84.0662
-123.583
-261.46
385.043
133.071
6.64565
-139.717
136.546
-1.46401
-135.082
136.117
-329.788
193.671
-76.2046
140.223
-64.0179
-73.5446
-430.857
-186.293
25.141
161.152
-198.052
-82.5703
280.622
186.059
-68.5386
-117.52
137.825
-64.3248
-349.189
95.4008
253.788
-0.451544
-410.304
410.756
67.3491
-118.559
51.2097
43.0853
-122.79
79.7046
85.821
-177.149
91.3284
-233.568
122.624
110.944
-225.627
-339.514
-641.791
285.459
356.333
392.307
-205.391
-186.916
-53.0197
159.653
-106.633
239.995
-166.488
-73.507
-43.0645
143.615
-100.551
-291.902
163.312
128.59
-114.294
-37.8244
147.183
-65.2672
278.375
-217.369
-61.0061
-234.921
407.601
-172.68
441.978
-217.913
-224.065
135.936
-87.2764
-48.6598
-162.397
104.017
-63.594
-34.7853
98.3793
196.808
288.277
-485.086
-370.662
241.124
129.538
225.103
-527.058
301.954
387.373
-236.97
-150.403
120.961
-81.885
-39.076
-5.15534
-281.738
-71.1897
171.134
-99.9441
-558.877
297.88
260.996
503.652
-503.652
-184.197
100.586
369.309
-374.464
-4.01232
85.5301
-474.402
270.626
-121.981
118.914
3.06749
39.1065
-182.913
258.265
-144.987
-101.472
145.32
179.668
-280.086
100.418
100.767
93.4586
-194.226
-97.837
200.656
-102.819
415.221
-131.53
-283.692
-324.059
190.504
427.871
-150.306
-219.682
-72.2195
141.535
177.812
-319.347
-189.425
104.199
85.226
42.9135
-99.9459
57.0324
-169.88
100.413
-248.852
297.869
-49.0179
78.3876
-114.09
-122.938
-64.8431
97.2068
184.619
-404.799
220.18
69.4421
67.3687
456.554
-254.364
-202.19
172.974
205.01
-377.984
57.3679
-243.661
494.063
-503.938
9.87436
117.65
-68.3618
-49.2878
95.2357
-143.606
48.3698
109.395
-66.4817
-500.324
66.1257
434.198
-160.878
27.8186
133.059
361.896
-323.49
-258.649
409.616
-150.967
-478.265
302.111
176.154
364.402
-244.5
-119.902
-136.717
-211.827
348.545
-161.952
345.182
-183.23
-223.127
125.29
-71.1904
-22.9599
94.1503
107.859
-192.546
84.6871
-58.2868
127.122
-68.8352
309.443
-193.156
-116.287
83.6647
41.1206
-124.785
-125.807
275.013
-149.206
-250.85
162.725
88.1252
113.177
72.8821
96.7479
-121.988
25.2396
-171.017
286.835
-91.9147
-187.749
279.663
115.187
20.9291
-136.116
-97.7196
156.063
-58.3431
-151.966
98.9467
-330.454
160.523
-180.865
346.246
-165.38
343.23
106.701
177.503
-412.424
273.184
-112.826
-171.821
118.167
53.6541
-6.22081
-174.14
180.36
262.787
-386.37
-58.5852
419.2
-33.9119
-81.6161
177.894
70.3372
-248.231
-144.107
60.3232
83.7842
-367.074
8.60088
192.988
-407.289
214.302
29.7461
-100.936
-145.914
-14.9636
194.358
-286.273
-432.878
-67.4461
141.597
229.54
-371.138
219.113
145.289
132.427
-60.7415
-71.685
172.707
101.762
-274.469
-249.547
162.59
86.9573
80.3384
-357.617
277.279
353.032
-214.841
243.502
-148.251
84.7791
107.69
-192.469
-130.155
263.668
-133.513
122.62
-57.5794
92.3687
-182.728
90.3589
266.438
-88.8934
-177.544
-169.967
-213.071
383.038
-174.673
-74.1786
-76.8296
-27.8794
104.709
80.3443
48.7754
-129.12
320.606
-173.868
-146.738
-206.803
35.9436
-506.169
346.711
159.458
363.097
6.21223
170.611
-290.592
119.981
184.158
-103.486
183.021
88.3212
-271.342
-47.2934
248.905
-105.322
-299.559
404.881
-171.142
388.672
-217.53
-114.22
260.045
-145.824
-171.347
276.412
-105.065
145.944
-96.6922
-49.2516
-150.472
-69.8467
-146.234
85.0981
61.1358
265.448
-151.66
-113.788
-438.079
332.757
-161.449
164.21
-2.76077
-186.56
111.095
75.4649
304.041
-167.924
-168.961
473.04
-304.079
194.134
-88.6476
-105.487
60.4857
84.1897
-144.675
73.546
62.3903
25.6801
229.932
-255.612
91.4951
102.234
-193.729
62.4993
305.923
-368.422
146.911
510.408
-96.2911
226.01
95.6851
-321.695
-138.047
295.347
-157.3
136.761
-69.4121
213.56
-119.843
-93.7164
-79.39
202.546
-123.156
136.117
-250.338
394.983
-222.009
-371.346
369.354
1.99138
133.29
-90.2049
-57.9518
-39.4878
97.4395
488.595
-164.925
-65.7043
183.09
-117.385
-226.029
422.243
-196.214
268.008
178.131
-446.14
68.0532
-178.348
-452.403
245.312
-21.3218
157.868
-324.936
187.653
137.283
4.45209
92.2958
-316.541
-131.928
448.469
267.869
160.003
-76.2784
-84.1401
160.419
98.3508
1.53701
-99.8878
-242.392
354.78
-112.388
117.39
-115.484
-1.90607
-155.254
385.601
-230.347
-119.885
125.835
-5.95018
56.6608
118.315
-174.976
142.044
-471.482
-170.665
261.731
-91.0663
-96.7548
244.614
-147.859
-133.661
198.099
-64.4384
254.596
-161.197
-93.3986
-274.802
87.0531
237.544
-407.511
-39.1389
214.107
-174.968
-226.04
88.5687
196.881
100.988
381.61
-113.741
75.924
-130.886
54.9617
353.317
69.9305
-423.247
-196.823
405.529
-208.706
-232.84
-267.157
22.8166
-93.6996
601.476
-379.268
-222.208
-45.9516
130.544
-84.5928
-154.125
56.4051
297.531
-387.157
89.626
-131.816
188.477
-393.301
375.795
17.5068
327.592
222.886
147.704
157.368
-305.072
-504.456
382.472
121.983
-352.582
426.183
-73.6016
-99.3549
252.98
-153.625
181.045
-67.8684
129.486
179.957
125.277
-295.941
-126.169
268.083
-141.914
382.785
218.692
336.291
-330.423
-5.86723
325.152
-529.528
204.376
341.556
-139.197
-102.12
-401.096
61.2257
-213.689
152.463
80.5387
-156.817
357.446
99.1085
176.881
-81.7226
-95.1581
238.197
169.404
134.613
233.676
-368.289
-105.89
373.899
410.002
-192.602
-408.742
17.1965
391.545
-291.196
-180.973
472.169
421.555
-291.831
-129.724
489.491
-249.238
-240.253
-68.1239
-94.273
-60.2517
272.898
-212.647
60.8113
79.0258
-139.837
84.549
-142.425
57.876
157.705
150.937
-308.642
-185.411
31.3787
154.032
28.3447
89.0453
412.048
-173.851
374.965
113.63
-266.844
-147.646
414.491
-34.966
150.153
-172.195
96.7904
-160.798
-219.967
380.766
-25.2915
88.494
-38.0353
-147.376
166.334
-457.531
198.16
-35.2558
-56.6921
91.948
218.454
-58.8012
-91.5526
-45.0827
-258.018
131.849
-101.354
279.248
-324.717
499.955
-175.237
261.346
-422.144
394.952
-197.17
104.707
192.45
-297.158
-140.613
70.4404
70.1722
-367.32
488.64
-121.32
307.414
-227.076
554.394
-227.415
-326.979
114.529
103.925
358.813
-116.862
-241.952
-271.794
434.528
-162.734
136.525
-239.245
102.72
-166.042
32.0889
133.953
-147.88
-75.2464
149.883
-393.91
244.027
11.1333
-120.114
108.98
453.221
-190.065
-263.157
302.683
-474.024
171.341
-227.689
188.55
91.0581
103.076
103.171
-5.09435
-98.0769
254.012
-118.527
250.179
142.128
322.976
-180.65
-142.326
-326.976
217.47
109.506
-487.035
396.606
90.4295
184.853
-99.0316
-113.239
186.767
-73.5288
-177.825
-73.0249
344.996
-47.4647
119.779
10.4978
-130.277
-117.486
202.265
-125.439
82.3741
-526.026
359.8
166.226
311.67
-141.059
226.624
160.749
161.089
-398.059
-474.623
238.103
236.52
-246.666
161.007
85.6585
112.511
-40.5417
-71.9696
-219
-203.128
422.128
100.839
143.611
-244.45
-407.099
282.576
124.524
-272.23
-134.869
-561.316
373.313
188.004
-281.478
103.653
585.858
-299.731
-286.127
-148.048
-177.476
325.523
-133.166
138.348
-5.18266
-165.919
275.027
-109.108
-254.703
155.348
-413.065
311.552
101.513
101.28
91.0331
-192.313
-369.447
194.752
174.695
-111.753
-130.31
143.169
-104.131
-39.0377
276.477
105.132
573.966
-316.41
-257.556
253.318
-519.76
266.442
56.9236
-118.944
62.0208
97.2793
5.89201
-61.747
146.556
-84.8092
272.969
300.997
72.9494
-174.167
-284.257
154.102
113.797
-37.875
111.589
153.859
347.275
82.5165
109.178
71.867
41.4757
-187.767
146.291
365.259
-514.234
148.975
-60.9049
326.104
-265.199
-34.2939
118.843
174.615
379.779
-147.333
359.02
-211.688
61.9363
-162.322
100.385
-340.955
-300.836
-66.1112
-34.3407
100.452
6.8498
-140.015
-107.817
118.95
177.812
-85.4434
179.793
-327.841
-139.86
80.4734
59.3866
-351.796
-87.7474
439.544
-338.277
521.841
-183.564
108.96
-370.435
261.476
47.4589
-137.308
89.8495
-107.247
-241.942
285.252
114.796
-400.048
174.813
-113.588
250.661
-141.403
-109.258
551.804
-184.847
-366.956
-368.04
51.413
316.627
331.663
90.7089
-422.371
-476.003
495.826
-19.8228
-146.137
-77.6805
-91.1146
191.882
142.428
180.548
247.89
-531.819
283.928
376.862
-367.449
459.562
-174.31
552.897
-298.774
-254.123
-224.001
245.625
-21.6246
-51.7877
171.566
-85.2277
-260.064
345.292
56.7765
446.876
-64.7968
-87.1695
141.128
-80.3163
315.507
-157.802
132.214
56.1042
-188.319
166.756
-227.008
-67.0376
-95.7461
162.784
552.652
-552.652
-2.16076
-117.725
281.417
-169.03
-112.387
-307.133
-171.132
-162.076
93.9523
-366.135
-118.961
-74.1514
134.637
208.627
-296.151
180.403
115.749
6.95951
-400.261
130.644
98.7513
-229.395
86.459
114.197
126.626
-43.455
-65.8962
-302.143
66.6843
-241.523
174.839
-17.5922
-391.15
-298.394
151.061
-132.066
-184.172
316.238
108.021
240.534
-348.554
-328.356
500.842
-172.486
-87.3766
-34.6046
-69.2641
99.5332
-30.269
-100.723
182.3
-81.577
227.963
169.236
-397.199
313.917
-209.209
405.96
-186.847
-304.334
-200.121
143.564
-271.636
-168.915
84.1482
-412.935
308.106
104.828
83.9921
-435.788
90.1309
145.866
-235.997
-222.224
-153.068
375.292
38.7881
-97.0749
122.003
-156.969
-111.516
-224.644
336.16
-301.833
240.928
-98.2806
-54.473
152.754
-188.301
107.203
81.0977
358.175
-517.185
159.01
318.136
-210.376
-107.76
154.986
286.992
88.2165
79.232
-167.449
387.233
-160.609
146.879
-514.199
250.281
-183.597
155.029
163.107
-64.6927
-348.242
214.451
-373.731
159.28
407.582
-235.882
-171.7
75.066
-260.498
185.432
-228.977
-10.121
239.098
63.4011
-150.614
87.2125
84.473
-162.11
77.6374
193.537
212.422
-48.2526
146.603
-334.225
418.217
135.775
234.116
-369.891
-104.084
309.59
74.9965
102.899
-177.895
41.7785
-314.692
272.914
-140.053
146.903
278.676
-457.948
179.272
-90.6791
222.894
276.668
-455.244
196.595
-102.041
-1.40334
103.445
34.621
121.232
-155.853
217.32
235.901
-110.403
185.4
339.959
-28.4725
-311.486
-124.023
444.717
-320.694
101.932
290.918
44.9986
227.9
315.373
133.445
-448.818
328.309
-267.904
-60.4051
-32.4449
-129.004
-208.391
81.8984
-79.3101
-30.4833
109.793
13.0082
-92.3183
-311.411
173.363
-75.6239
-171.904
247.528
199.877
117.258
-317.134
-222.596
-47.6082
270.204
-153.002
88.205
81.4549
-182.178
-83.9882
-318.66
402.648
-75.9386
-143.744
517.514
-238.839
-71.8522
71.5047
55.4751
-126.98
-175.395
80.0776
95.3178
74.3896
-92.8755
18.4859
105.908
173.081
-278.988
-187.948
107.269
80.679
-135.266
318.286
-96.2433
-122.957
219.201
-324.725
-206.947
-242.827
129.324
113.502
-229.281
527.003
-297.721
441.288
-291.405
-72.3806
-94.9608
167.341
-76.6115
106.358
-184.222
323.37
-139.148
-119.25
267.378
-148.129
163.059
-66.9638
-96.0948
-250.435
359.395
137.218
-82.3405
-54.8775
-274.178
280.091
-5.9132
-274.643
119.77
197.234
9.06886
-206.302
-195.781
383.421
-187.64
126.848
-61.9044
-64.9438
226.5
-466.134
239.634
-497.839
173.364
165.378
-32.3068
-141.039
0.985443
-190.664
89.917
100.747
-149.153
363.604
143.133
-81.1967
80.9194
-415.145
-45.8364
-63.1289
108.965
-105.527
-509.235
357.371
151.864
248.63
79.6792
-305.665
-160.804
466.468
-80.6982
298.796
94.9349
-140.886
-55.829
-133.596
-232.04
-241.852
473.891
-197.873
-242.971
440.845
-281.293
267.842
13.451
312.979
-250.479
-298.883
-207.286
340.837
-509.798
96.3672
97.7369
-194.104
-383.334
211.982
171.352
157.745
217.22
-79.0245
143.885
-64.8608
-330.356
526.161
-195.805
-179.579
129.175
50.4044
-133.223
49.771
83.452
50.3005
-119.565
-63.8667
395.529
88.9196
63.9092
-152.829
500.563
-185.19
-123.967
262.561
-318.737
156.785
-287.054
287.054
-145.54
235.671
-548.816
281.557
267.258
-245.652
-91.2257
336.877
187.449
-145.974
-119.162
125.259
-6.0964
-246.111
74.7636
123.34
-483.572
44.3698
73.2798
-132.174
-315.385
447.559
-232.478
368.253
-244.405
145.531
499.119
-241.408
-257.711
-191.456
-37.5215
148.998
-327.915
-568.401
398.453
169.948
-284.719
-157.52
-203.874
37.9115
165.962
-42.7602
-116.302
159.063
135.093
118.918
-74.8594
115.216
-40.3565
-1.73394
69.6873
-67.9533
223.153
-222.196
-0.956164
212.887
-337.853
124.967
60.9648
-174.203
-72.5676
-155.121
105.711
-200.278
94.5674
-393.412
-263.104
329.481
-66.3776
84.8962
41.952
-13.7802
-126.086
139.866
-150.176
-201.623
155.72
-386.654
230.934
-174.367
101.987
84.4151
45.5291
-129.944
39.8017
-138.082
-152.305
232.949
-80.6443
151.502
108.258
-259.761
-153.191
-286.662
439.852
171.136
-421.712
250.575
103.182
-150.862
47.68
-540.725
308.917
231.808
465.06
-323.408
-141.652
-501.515
176.798
-119.332
117.171
-70.359
-101.836
303.787
-409.677
-344.524
-130.099
-166.024
-130.127
-380.756
155.95
224.806
-211.264
135.326
-46.3247
307.328
-261.004
-93.2076
-241.9
130.147
170.613
99.4992
-270.112
258.819
-454.493
195.675
195.423
-95.4053
-316.028
105.653
224.476
-95.3936
-327.574
-112.143
439.717
383.561
-227.841
-331.877
336.499
-4.62189
-70.2413
123.999
-53.7578
-380.189
167.118
-312.511
126.471
186.04
133.935
-133.935
-194.9
-256.098
450.998
471.545
-390.625
65.9158
-263.968
3.99682
335.962
336.419
215.385
-237.468
-47.1357
284.603
121.352
5.94525
-127.298
-73.7483
140.37
-66.6219
-180.91
109.625
71.2848
-323.008
-244.947
-158.716
91.6785
116.963
-45.4579
-272.612
-302.294
-145.953
84.2061
132.394
208.818
74.8159
33.9625
-108.778
-45.6604
132.462
-86.8017
379.73
173.167
-166.833
-114.645
-336.294
-172.941
-156.18
-100.862
257.042
-69.3722
-272.701
342.073
-343.822
180.999
162.823
-91.7522
-104.222
195.974
337.824
-505.047
167.223
209.189
-354.645
145.457
232.391
-411.103
178.712
-81.4969
-52.4991
-238.034
165.466
166.726
-395.106
228.38
-144.178
101.418
-379.672
180.859
-205.269
363.014
-73.9404
136.783
-62.8422
90.0722
-137.49
47.4175
29.1186
-92.7126
-153.975
366.862
483.502
-465.55
-17.952
-98.419
145.878
-78.4651
136.765
-58.3
260.903
-455.803
-54.2103
157.516
-103.306
-149.36
289.28
390.879
-507.239
116.36
226.868
74.8273
-301.696
53.0393
-102.594
49.5547
-34.6537
109.043
58.9431
34.9845
-93.9276
-40.0385
141.745
-101.707
-10.7973
161.11
-150.313
177.477
-71.7659
386.858
-136.68
-66.2282
269.799
-203.571
-303.722
-48.8593
182.475
-101.487
-80.9879
192.815
-297.473
104.658
-239.879
-147.158
387.037
-79.9626
170.035
-272.724
159.193
113.53
229.895
-351.623
121.727
-324.292
203.006
121.286
252.449
-134.728
-117.72
-133.363
65.2785
68.0845
182.932
-393.846
-104.976
-75.6616
180.638
-46.1052
-134.814
180.92
89.533
-238.238
148.705
-109.314
200.809
186.668
-98.869
-87.7991
-60.4101
-108.508
168.918
-42.939
164.942
-163.857
-117.523
281.38
-304.818
-8.65219
313.471
53.6856
-109.18
55.4947
169.817
96.6201
117.886
106.59
-93.8794
101.778
-7.89889
-203.874
-55.641
446.52
-3.12797
112.42
377.445
12.9217
-390.367
387.515
-325.989
-474.552
175.669
52.0289
52.4795
-104.508
-140.147
-31.6734
82.9641
-259.974
177.01
113.781
-376.884
-176.808
-34.0438
260.912
-67.4575
264.691
256.074
154.837
-406.259
210.477
-144.881
65.8567
386.998
-161.895
234.334
-98.2577
-136.076
259.075
-328.447
297.496
-180.487
-117.01
186.102
-173.31
-12.7918
115.427
-61.7412
-215.208
-235.593
450.801
-191.98
35.4577
156.522
492.406
-485.541
-6.86497
236.354
-65.9447
-170.41
243.25
245.124
-488.374
264.975
-175.442
-165.123
301.203
-136.08
-159.818
307.522
-135.194
220.574
-85.38
-189.754
-149.081
68.6461
-145.459
76.8126
102.65
-198.893
352.085
119.46
-249.612
-163.453
-60.0936
-115.302
117.687
-42.8713
-172.543
275.694
-103.151
-62.464
144.841
118.579
-44.5467
-74.0327
-137.8
77.3896
-581.43
374.465
206.965
62.7582
-133.693
70.9346
-178.975
261.939
-67.5307
132.824
-65.2931
72.7963
45.7831
-142.679
363.787
-221.108
-121.799
-97.1617
218.96
-57.659
-39.6181
97.2771
338.07
-145.355
-192.715
235.986
-81.3141
-154.672
-379.804
-312.303
-162.248
-53.8989
-92.3961
146.295
117.749
-306.484
188.735
136.526
-67.8795
-117.018
-2.31415
166.547
-418.812
312.407
-94.9371
-162.213
96.5089
-166.331
82.7795
83.5511
338.882
-129.693
160.749
-128.92
-31.8293
-79.8106
-86.52
58.6247
-126.077
67.4528
95.7951
-166.154
115.498
-64.3188
-104.569
168.887
-88.8503
219.162
-130.312
114.317
-33.4947
-80.8222
-269.348
-35.4708
123.514
90.0452
-87.3783
10.7668
-100.351
208.739
-108.389
-96.7448
100.712
-3.96765
-100.765
-78.19
-96.1877
174.378
483.573
-385.804
-97.7687
419.542
-115.755
135.763
-101.142
-425.698
463.891
-38.1926
-178.918
305.582
-126.664
-235.1
301.015
99.7265
86.9417
-71.8428
-114.717
-93.0486
272.717
-143.139
290.511
-147.371
38.3298
56.0356
-94.3654
-291.551
156.266
135.285
118.33
-61.4062
-80.9742
-65.417
-217.533
-186.858
404.391
139.299
344.275
-455.888
258.015
240.03
-240.03
-77.2201
84.682
-7.46193
185.189
-104.409
-80.7801
246
-540
294.001
183.198
154.872
-252.729
356.499
-103.77
120.933
-58.1745
-204.551
130.326
74.2245
156.959
330.237
-487.196
254.434
-119.341
-317.431
161.102
156.329
87.2095
-179.662
92.4528
281.22
154.04
-435.26
-221.971
100.173
86.9708
-156.002
69.031
139.199
-179.237
-169.807
397.77
-182.714
104.667
78.0468
174.871
-105.887
-68.9839
-92.7217
366.444
-273.723
332.953
-166.197
-39.3298
106.361
-67.0308
180.755
177.445
-358.199
-207.056
-248.832
-90.7781
349.597
98.5615
-184.779
86.2179
-204.973
399.433
-194.461
153.663
-66.4532
318.788
-219.433
-99.3545
134.82
-58.8956
-219.928
-152.128
78.1879
-620.246
303.836
132.752
493.623
-501.541
7.91776
206.644
189.55
-396.195
115.132
45.6171
-374.886
-112.149
145.309
-151.53
12.8349
-294.128
-24.0385
-116.909
140.947
159.883
-295.991
136.108
120.6
276.006
-133.619
88.1175
45.5013
48.8691
-183.684
41.8796
-78.1605
36.2809
263.443
95.3701
262.839
-174.269
-88.5703
139.329
-75.9279
-391.716
273.334
118.382
-260.075
-360.171
184.963
51.3916
144.291
-455.089
310.797
-60.56
-80.7496
141.31
34.3605
-126.222
91.862
287.07
212.049
-2.40613
379.852
-74.0454
-66.1917
425.376
-144.156
72.5085
-126.381
53.8728
-463.567
259.923
203.643
-201.806
-245.341
447.147
-366.49
566.491
-200.001
280.985
146.849
-173.814
249.865
-76.0508
-158.457
259.296
352.02
-277.111
-74.9093
-179.998
290.913
-110.915
-185.671
-153.103
-98.9286
-180.823
279.751
80.4143
37.3752
-117.789
182.621
-81.3407
440.431
-378.76
-61.6711
-178.963
108.322
70.6411
83.1296
266.501
-349.631
116.299
-31.8838
347.506
92.9256
-65.5193
152.49
-101.654
-31.965
-225.966
514.17
-288.204
4.57035
191.652
-196.223
221.996
-389.451
167.455
-81.8327
-41.693
123.526
289.251
97.6071
-84.6801
-22.0102
106.69
-136.679
120.908
15.7707
-182.345
120.626
61.7183
182.84
384.293
99.6576
-40.7145
-268.427
-123.289
228.59
-443.798
413.727
-509.854
96.1274
65.2837
223.225
-31.8276
-191.397
124.038
-65.4138
80.9025
-408.477
-77.7604
-88.8657
166.626
102.203
-9.56953
-92.6335
-115.008
38.1783
121.76
132.836
153.452
-328.75
175.298
-92.4038
162.707
-70.3033
152.39
-357.363
353.257
-235.508
341.891
-82.8163
-359.233
-199.644
-288.755
469.728
-180.973
429.266
-324.3
-104.966
-9.14647
-339.991
349.137
-336.098
-176.466
512.564
-158.069
-7.97269
73.5465
-31.6669
-503.659
261.938
241.72
-170.32
-91.9679
-77.4148
-55.9482
-45.6625
148.845
-91.9519
164.372
-554.662
382.753
171.909
97.9106
-162.229
-24.2812
90.7381
-66.4569
181.515
-146.387
193.523
-315.783
122.26
322.519
-255.534
-66.985
87.4107
-397.46
310.049
215.988
-98.1025
114.504
255.506
-92.4733
-95.8274
109.579
-56.5393
474.855
-299.232
-175.623
-267.32
364.025
-96.705
-116.703
192.118
282.736
-417.839
31.87
385.969
-287.081
-187.321
137.961
-214.672
76.711
-131.94
-76.673
208.613
107.608
211.013
-318.621
41.9986
-265.226
-238.432
-88.5796
-30.9688
119.548
-204.262
326.228
-121.966
480.484
-174.561
410.374
-63.6622
-294.506
168.699
95.2499
6.95319
-271.444
-34.5592
306.003
57.1371
-373.678
-408.891
137.097
130.053
-16.9573
-113.096
173.307
-273.446
100.139
-109.127
260.629
-458.715
334.692
-73.4402
-77.1734
497.259
-149.754
-240.545
406.764
-166.219
217.875
-340.779
122.905
470.032
-111.857
52.034
68.9269
-309.328
135.514
350.353
-194.824
-155.529
-173.517
296.432
-122.914
133.097
347.387
166.362
-268.81
102.448
389.866
-107.291
363.906
126.568
-490.474
329.182
-226.173
-103.009
473.573
-502.497
28.9245
124.761
-83.8432
-40.9173
338.87
-230.849
-10.4757
-91.5658
-80.4905
-182.505
262.996
41.4455
-118.449
77.0031
-142.847
61.8723
-307.191
474.401
-167.21
-87.3017
-52.5583
-194.633
199.203
108.83
39.768
-121.257
81.4889
288.775
3.03758
-291.812
-139.17
87.8828
51.2867
-100.81
454.127
178.041
119.455
-144.284
304.167
-236.857
157.467
335.307
52.2072
-159.436
-157.995
16.6727
226.83
-248.206
81.3732
-141.339
241.256
-99.9165
54.6154
-128.767
411.323
-204.678
-370.29
376.629
-6.33896
-130.874
494.78
67.9875
-139.582
71.5941
126.18
-68.5318
-142.043
210.575
-151.735
186.819
-71.6863
78.4955
18.209
-96.7045
66.4093
-125.165
58.7556
-250.62
153.865
-99.4847
-68.979
168.464
-267.756
-293.998
127.545
166.452
118.845
-84.4847
50.9691
-113.28
62.3105
53.3342
-185.274
140.434
134.579
-106.794
261.64
-154.846
-135.616
84.5492
51.0664
-74.7242
194.17
-119.446
-375.367
212.895
-180.793
361.547
152.469
-271.522
119.054
243.465
171.342
-414.808
-55.6049
-32.1988
87.8037
331.46
97.8061
331.444
-148.376
-183.068
-157.643
406.192
-248.549
165.009
-70.9647
325.73
-254.765
327.681
121.679
-449.361
474.56
328.452
141.464
-469.916
249.313
-456.369
191.403
-29.2311
-162.172
-338.297
184.592
153.705
-119.873
13.7079
106.165
92.1099
18.3291
-110.439
-65.7177
-74.8949
13.11
-383.4
-356.359
213.68
61.2534
192.923
-254.176
-377.996
307.031
222.539
123.156
-345.695
-58.7346
108.216
-49.4811
-101.075
-146.413
247.488
568.822
-256.555
63.2893
136.12
-136.798
-279.942
416.74
-122.231
171.1
-222.487
383.595
-161.108
-355.452
42.393
313.059
-177.996
-279.161
457.158
-62.4424
-70.7807
-564.245
366.717
197.529
300.888
-182.518
-118.37
-123.905
346.444
-168.322
68.8371
111.542
-189.302
143.979
90.3547
-162.968
-490.523
250.996
239.527
-165.669
85.8586
-266.535
97.5047
-301.068
-280.361
-58.1799
-243.653
95.6756
-332.168
236.492
-203.556
-174.532
66.4202
108.112
-244.539
-71.4895
-113.615
-39.9679
153.583
-51.3664
-44.5359
95.9023
-315.113
222.392
14.7377
-87.085
72.3473
158.279
-190.106
153.61
-365.479
211.869
5.56607
-277.01
-191.777
316.556
-124.779
-236.993
249.828
106.444
-133.049
-89.56
222.609
399.74
-408.886
107.674
-69.3443
285.361
189.635
-474.996
-80.8138
-84.8554
-78.3863
272.744
364.824
-367.23
96.2468
-4.13687
409.663
-125.437
-284.226
105.676
162.487
-268.163
143.487
-43.7632
-125.169
168.932
270.894
-123.781
-147.113
347.816
42.0505
123.75
-82.3043
-501.723
173.367
67.933
-135.464
-132.438
70.2518
62.186
-53.5123
160.865
-107.353
-140.998
-77.7823
218.781
30.0774
-97.7166
67.6393
-125.311
43.4778
175.523
-186.925
11.4022
228.374
-280.71
52.3364
-218.916
77.9173
-88.141
-77.7896
-56.7703
-63.1251
119.895
142.564
184.806
198.615
-225.568
179.243
173.17
-128.58
-44.5891
-374.537
266.891
107.647
230.054
-84.1883
336.194
161.065
335.138
102.941
-438.079
-130.533
-132.181
-537.841
251.046
286.795
221.554
-303.619
82.0657
142.936
119.903
-95.783
56.4532
-35.9257
96.8897
-60.964
-269.778
-218.537
488.316
-408.922
442.087
-33.1653
-267.054
105.903
-128.969
-456.311
-21.5296
477.841
209.465
242.323
-451.788
-123.819
-188.692
-147.762
-143.789
102.369
-23.8736
-337.248
135.443
-30.8865
167.412
-122.218
-272.663
170.877
101.786
83.8409
67.9541
-130.591
-144.705
275.295
132.536
-92.7676
416.382
-294.516
-121.866
-132.764
350.639
-212.571
-43.2485
457.158
24.1249
-114.545
-75.9032
190.448
454.648
-0.19858
-454.45
-89.2195
321.683
-232.463
117.586
82.2769
-199.862
-373.882
221.268
152.615
-130.944
-109.055
-163.609
142.338
-74.3506
-107.698
290.165
-182.467
139.507
140.185
-279.691
-150.829
-53.7215
-246.33
-176.435
422.765
116.344
476.436
-332.693
-143.742
-154.066
149.155
-93.7021
-55.453
36.1347
-92.8268
204.176
-271.634
294.432
-352.612
-403.219
344.634
193.676
-317.495
230.954
181.095
436.512
-204.121
-229.049
162.821
95.3942
82.4179
-93.8783
106.032
-159.544
-271.123
289.558
-18.4349
-276.996
-21.3982
76.9834
-141.755
64.7719
115.666
286.385
-158.84
246.66
-136.142
-110.518
-77.6937
132.309
-269.659
120.731
-189.262
311.257
-62.4976
-248.759
-258.516
467.981
484.781
-148.586
-370.135
267.251
102.885
-22.2807
476.929
-219.948
412.936
-86.0409
-203.263
289.304
104.824
-263.343
158.519
12.28
289.831
-334.611
-247.386
581.998
147.363
-348.033
200.671
-292.794
392.834
-100.04
-120.77
449.222
352.466
-126.456
176.773
-89.5754
369.595
-280.02
-76.6668
-62.5027
-238.167
154.38
83.7864
177.125
149.104
58.6565
-59.6951
-279.842
339.538
-386.133
-78.9861
-131.893
-198.071
-337.907
230.209
-412.903
412.903
161.629
-335.678
174.049
180.597
-340.052
159.456
231.873
79.3832
53.6264
40.1225
-93.7489
218.381
-371.448
287.7
-465.696
241.951
-39.4046
145.631
158.41
72.7657
197.982
-270.747
125.431
-79.7212
-45.7098
-71.8584
-293.465
365.324
109.452
-181.101
71.6492
-63.6696
178.335
-114.665
331.935
4.35531
-78.9044
80.4414
-276.351
321.654
-45.3025
44.4281
146.975
94.2386
17.5089
-111.747
-314.52
-40.9326
36.1563
-169.817