/*--------------------------------*- C++ -*----------------------------------*\
  =========                 |
  \\      /  F ield         | OpenFOAM: The Open Source CFD Toolbox
   \\    /   O peration     | Website:  https://openfoam.org
    \\  /    A nd           | Version:  7
     \\/     M anipulation  |
\*---------------------------------------------------------------------------*/
FoamFile
{
    version     2.0;
    format      ascii;
    class       volVectorField;
    location    "24";
    object      U;
}
// * * * * * * * * * * * * * * * * * * * * * * * * * * * * * * * * * * * * * //

dimensions      [0 1 -1 0 0 0 0];

internalField   nonuniform List<vector> 
117990
(
(1.03405 -0.0961025 -5.15217e-19)
(0.998521 1.75138e-05 -2.64319e-21)
(0.750639 0.0331188 -1.73222e-19)
(0.865473 -0.0777938 3.84315e-20)
(1.10026 -0.0607313 4.88753e-20)
(0.921432 -0.105455 1.21374e-21)
(0.726397 0.073515 -1.18931e-18)
(1.17209 -0.143355 -1.17083e-19)
(0.965066 -0.0465728 -6.29874e-22)
(0.998457 9.16817e-05 5.58745e-22)
(0.970227 -0.00288122 8.44176e-21)
(1.01864 -0.0153731 4.68154e-21)
(0.994034 -0.0910791 5.22626e-20)
(0.203711 -0.0321716 1.35421e-18)
(0.96486 -0.0476426 6.27194e-21)
(0.37671 -0.15671 2.98352e-18)
(0.984752 -0.0382466 1.96939e-21)
(0.957478 -0.0263524 -1.06223e-20)
(1.00558 -0.166195 1.18663e-18)
(1.10062 -0.0590998 1.76276e-19)
(1.17604 -0.122879 -1.11679e-18)
(0.580668 -0.00651402 -1.97193e-20)
(0.951408 -0.0344783 -9.42841e-21)
(0.834422 -0.0601246 2.31038e-20)
(1.32548 -0.0344037 8.38321e-19)
(0.914392 0.353547 1.38419e-18)
(0.189653 0.328648 -1.50942e-19)
(1.23597 0.00164652 9.06806e-19)
(0.997784 -0.00661665 2.99659e-21)
(1.0942 0.376304 -1.04875e-18)
(0.983404 -0.00609454 6.9925e-21)
(1.12742 0.156691 3.26414e-19)
(1.14136 -0.0299209 -6.64241e-20)
(0.627846 0.00354171 9.14706e-20)
(1.35801 -0.00709744 3.55102e-19)
(0.827101 -0.0876767 7.64443e-20)
(0.759638 0.226173 1.99191e-19)
(0.984752 -0.0390612 -9.80801e-22)
(0.31801 1.83174 2.59702e-20)
(0.842334 0.09438 2.78574e-18)
(1.12898 0.157718 -6.34408e-19)
(0.956948 -0.0272275 -1.98376e-21)
(0.773317 0.0376822 3.93253e-19)
(0.826155 -0.0858093 -5.37857e-20)
(0.940089 -0.210682 4.86635e-20)
(0.20689 -0.0304925 -1.40999e-18)
(1.09121 -0.0158496 6.35881e-19)
(1.21174 -0.0100704 1.55079e-19)
(1.05626 -0.0664471 6.95782e-20)
(1.01843 -0.00164961 -2.13561e-20)
(1.00077 -7.08297e-05 8.2252e-24)
(0.693442 -0.0103648 6.90004e-20)
(1.11154 0.107256 9.87689e-19)
(0.998797 -2.85307e-05 -4.27867e-22)
(0.998526 -0.0615414 -2.48654e-19)
(1.10993 0.106311 -2.45362e-19)
(1.17474 0.01674 8.14675e-19)
(0.785543 -0.230249 2.76329e-19)
(0.13436 0.358826 6.24998e-19)
(0.818801 0.0211984 -4.9583e-19)
(0.990794 -0.0231004 -2.26616e-21)
(0.834681 -0.0534688 -2.13316e-20)
(0.91349 -0.00454407 -1.71113e-20)
(0.672133 0.0579509 -4.53506e-20)
(0.992018 -0.00640255 -7.70053e-21)
(1.1002 -0.00278069 -1.31912e-20)
(1.00267 -0.0878694 -2.79514e-19)
(1.17436 0.0775381 8.58576e-19)
(0.421699 0.296712 3.34975e-19)
(1.19164 0.0149491 3.56166e-19)
(0.741514 0.383095 6.92583e-19)
(0.212244 0.224367 -8.25513e-19)
(0.850451 0.096447 1.25599e-18)
(0.540582 -0.0322682 3.18915e-19)
(1.02911 -0.130334 2.50682e-19)
(0.628398 0.00535206 9.35515e-20)
(0.698864 0.361692 -3.23794e-19)
(0.990108 -0.0955308 1.05149e-19)
(0.989805 -0.335429 -4.29284e-19)
(1.02118 0.2408 8.35516e-20)
(1.01387 0.24961 2.95302e-19)
(0.993932 -0.000176391 2.64687e-22)
(1.08856 -0.467374 -3.87834e-19)
(1.2612 -0.00114876 -4.09979e-19)
(0.706502 -0.0607813 3.83997e-20)
(1.01793 -0.0149377 4.60414e-21)
(0.732782 0.0580161 2.36132e-19)
(0.998662 -0.00234594 -3.45861e-22)
(0.622784 -0.0423658 8.06035e-22)
(0.998667 -0.00393426 1.48296e-21)
(0.0386411 0.913691 7.71503e-21)
(0.686871 -0.0126217 -5.86897e-20)
(0.997457 -0.00652453 -3.80575e-21)
(0.860299 -0.0840882 5.75483e-20)
(0.948214 -0.0323955 -1.62428e-20)
(1.04189 -0.00590544 9.0306e-21)
(0.954826 -0.00198194 -3.76175e-21)
(1.09607 -0.464273 -3.02837e-20)
(0.815921 0.700096 -2.8564e-20)
(0.620518 -0.0394719 1.8518e-19)
(0.990611 -0.0235995 2.26807e-21)
(1.21206 0.01225 -8.37833e-19)
(1.07443 -0.036811 -5.10488e-19)
(1.16055 -0.00566814 -1.67975e-21)
(0.736237 0.38048 4.64196e-19)
(1.15223 -0.234074 -4.13405e-19)
(0.871863 -0.0104756 -7.67934e-19)
(1.03845 -0.297093 -3.17845e-19)
(0.903582 0.0507766 -1.23094e-19)
(0.997938 -0.00766147 -1.78349e-21)
(0.87161 0.298532 -6.55966e-19)
(0.955348 -0.00260321 1.50779e-21)
(0.678814 0.3738 2.03628e-19)
(0.947308 0.0427784 7.27619e-19)
(1.26702 0.114272 -1.14935e-19)
(1.02567 -0.0204915 9.23636e-19)
(0.969834 -0.00242995 -1.55896e-20)
(0.736238 0.37793 -9.03218e-19)
(1.00248 -0.00206983 1.7242e-22)
(0.206863 0.236369 5.71312e-19)
(0.737848 0.376821 1.29352e-18)
(0.373104 -0.15814 -1.19799e-18)
(0.763461 0.0344596 -1.56548e-19)
(0.328558 0.391667 4.66508e-19)
(0.998592 -0.000222233 -5.3015e-22)
(1.08791 0.380128 1.21146e-18)
(0.837429 -0.0536532 1.87663e-20)
(1.25774 0.307205 -3.70927e-19)
(0.821479 -0.00841303 1.29798e-21)
(1.24721 0.00193518 -7.49823e-19)
(1.066 -0.131283 -5.62029e-20)
(1.0286 -0.0042243 7.21082e-21)
(0.70278 0.338029 -5.8085e-19)
(1.01795 -0.0141795 -1.40486e-20)
(1.00264 -0.00179975 8.08453e-23)
(1.02466 0.047189 1.85183e-18)
(1.34107 -0.0767975 -2.29299e-19)
(1.1369 -0.0273683 -8.45933e-20)
(1.00223 -0.0613461 3.41857e-19)
(0.836864 -0.0565984 -1.94828e-19)
(0.752837 -0.0306847 3.64453e-19)
(1.04302 -0.0302333 4.68308e-19)
(1.00663 -0.000459164 -5.71169e-21)
(1.09478 0.144816 1.22962e-19)
(1.06416 -0.128433 8.31073e-19)
(1.00064 -0.000106044 -7.91505e-24)
(1.12362 0.0161219 6.29322e-23)
(0.834709 -0.0493125 6.57315e-20)
(1.1771 0.0778315 -1.32522e-18)
(1.08231 -0.0716525 -1.68764e-19)
(1.14642 -0.233221 3.17113e-19)
(0.932138 -0.208292 -3.53726e-19)
(0.682931 -0.013394 -3.71148e-20)
(0.998271 -0.000198532 2.37648e-22)
(0.696687 -0.00964903 4.06423e-20)
(1.16205 -0.0271895 4.00426e-19)
(0.997924 -0.00783587 2.27488e-21)
(1.04655 0.202789 1.01323e-18)
(0.605052 0.0064891 7.67765e-21)
(1.29361 -0.310354 1.54229e-19)
(0.62887 0.0112848 -5.09713e-19)
(1.12488 0.0168424 4.79899e-19)
(0.914876 -0.00411057 -1.2638e-20)
(1.01978 -0.175001 -4.60854e-20)
(0.927191 0.0212035 2.73577e-19)
(0.904459 -0.0503449 -4.42199e-20)
(1.17311 -0.000984928 4.11989e-19)
(0.890838 0.0108533 4.31236e-20)
(1.02831 0.208031 -1.47835e-18)
(0.903961 0.0267073 -3.14756e-19)
(0.846548 0.0150776 -4.10568e-19)
(1.09687 -0.020909 -3.59104e-19)
(0.00800744 0.972833 7.82378e-20)
(0.299293 -0.123698 2.1069e-18)
(0.966829 -0.150472 -4.00362e-20)
(1.19699 0.0476074 -3.7792e-20)
(0.295979 -0.119761 -4.65694e-19)
(0.903515 -0.100901 -4.50864e-20)
(1.08906 0.00561336 1.33304e-18)
(1.05533 -0.0689888 1.13938e-19)
(1.17382 0.0045214 8.07356e-20)
(1.02474 -0.130608 2.85254e-19)
(1.09648 -0.110691 -5.11608e-19)
(1.09278 0.129512 5.28669e-19)
(0.877354 -0.0211262 1.80527e-18)
(0.96253 -0.0808864 -2.80467e-22)
(0.821437 -0.0683323 -1.98207e-20)
(1.00037 0.00592418 -5.4881e-19)
(1.11515 -0.0270886 1.20889e-18)
(0.0521162 0.931604 -2.93682e-20)
(0.908181 -0.100243 -1.50033e-20)
(1.04968 -0.0337069 -3.14088e-19)
(1.04802 -0.315714 -7.46743e-19)
(0.737181 -0.000460037 -7.40844e-19)
(0.92563 0.351922 -1.83337e-18)
(1.18576 -0.324422 1.81759e-19)
(0.288333 -0.115055 1.3843e-19)
(0.487734 -0.000408084 -6.10469e-20)
(0.671881 -0.0102324 5.37168e-19)
(0.959115 -0.0436265 4.01889e-19)
(1.08076 0.109647 6.93111e-19)
(0.858804 -0.256831 7.73797e-19)
(1.18486 0.0132892 2.38884e-19)
(0.998559 -0.00305945 -2.35082e-21)
(0.807871 -0.0710587 -2.2043e-21)
(0.656685 -0.105112 3.49058e-19)
(0.929804 -0.0852628 -1.33572e-20)
(0.992185 -0.00643409 5.93073e-21)
(1.20294 0.0140139 -1.99539e-19)
(1.07472 -0.15779 -1.21402e-18)
(0.2838 -0.110917 -1.17652e-18)
(0.869553 0.00493157 -4.7809e-19)
(1.32345 -0.0372979 -6.21689e-19)
(0.998742 -0.00394298 1.94368e-22)
(0.925443 0.0285238 8.98906e-19)
(0.738697 -0.00560816 3.68268e-19)
(1.1139 0.143954 5.8777e-19)
(1.10266 -0.0253867 7.18988e-19)
(0.199765 -0.0241688 -8.15494e-19)
(0.982487 -0.0263442 1.15637e-21)
(0.940303 -0.13393 1.52973e-20)
(0.743211 0.02941 -2.60298e-20)
(1.05566 -0.0562424 -3.28432e-20)
(0.61317 0.00748654 -4.28683e-19)
(0.998784 -8.264e-05 6.14874e-22)
(1.27106 -0.077276 6.54609e-19)
(1.03865 0.0206217 -6.10785e-19)
(0.642191 -0.0148471 5.70186e-19)
(1.18452 -0.319258 1.04265e-19)
(1.2281 -0.159262 3.65971e-19)
(1.22317 0.011486 -8.22611e-20)
(0.93071 -0.21584 -6.53192e-20)
(0.766233 0.0231067 -3.14303e-19)
(0.87666 -0.00421099 3.583e-19)
(1.07298 -0.129217 -3.77225e-19)
(1.07938 0.10949 1.03846e-18)
(1.04887 -0.00433687 1.00753e-20)
(1.07219 -0.0428534 5.58464e-19)
(0.898378 -0.0162795 -1.30938e-19)
(0.689108 -0.0148954 -8.97487e-20)
(0.194316 0.80096 -2.50323e-19)
(1.00667 -0.0734802 7.83263e-21)
(1.30051 -0.310986 -1.9687e-19)
(0.83265 0.728189 2.13807e-19)
(0.816247 -0.00748513 -6.61002e-20)
(1.07752 -0.0674779 -3.35394e-20)
(1.14334 0.112687 9.47215e-19)
(0.621864 0.00307671 9.65758e-19)
(0.890851 0.0110252 1.55975e-20)
(0.566297 -0.19902 5.38743e-19)
(1.01026 -0.180246 -3.86163e-19)
(0.885844 -0.105213 -2.70047e-21)
(1.12584 0.0159231 -3.57079e-18)
(1.04103 -0.0852779 1.73446e-20)
(1.26971 0.286712 -7.03328e-19)
(1.17437 0.00385685 -5.53875e-19)
(0.482822 0.426028 -7.34656e-19)
(1.26058 0.00285034 3.74705e-19)
(1.0331 -0.000730737 4.89549e-20)
(1.18273 -0.142307 -1.19906e-20)
(1.17909 0.00697189 -1.29373e-18)
(0.205126 -0.0181821 5.00673e-19)
(1.08879 0.136581 -7.58997e-19)
(0.58807 2.09472 -4.9221e-20)
(0.900747 0.0513378 -9.50583e-20)
(0.871334 -0.0795975 -1.22202e-19)
(0.34248 0.388159 7.55981e-19)
(0.823866 -0.0203828 7.18495e-20)
(0.727315 0.343151 -3.81431e-19)
(0.697835 0.370164 7.1161e-20)
(0.99243 -0.00349137 -5.20094e-23)
(1.11948 -0.0253882 -2.9469e-19)
(1.06016 -0.070319 2.95034e-19)
(1.00738 -0.0747303 -4.61243e-19)
(0.982028 -0.0975369 2.02277e-19)
(0.725596 0.0547798 1.17458e-19)
(0.939483 -0.212004 -3.62048e-19)
(0.965761 -0.148056 -1.90656e-20)
(0.999389 -0.0307038 -3.75318e-19)
(1.04252 -0.29582 2.54645e-19)
(1.02121 -0.177787 1.21666e-19)
(0.818527 -0.0063767 -4.99824e-20)
(1.01688 -0.087661 2.62709e-20)
(0.651988 -0.0976351 -1.84213e-19)
(0.996584 -0.0705844 1.14504e-20)
(1.18216 -0.00375441 9.10289e-19)
(1.26114 -0.098974 3.82696e-19)
(1.14568 0.00876685 -1.84458e-18)
(1.11299 -0.478631 2.26929e-19)
(0.3198 1.71571 1.87033e-20)
(0.934415 -0.210715 -8.76691e-20)
(0.99885 -0.00288178 -1.77348e-21)
(0.123249 0.390281 4.1016e-19)
(0.876246 0.010535 -4.66707e-19)
(0.987838 -0.048424 -2.82351e-22)
(1.18454 0.0167051 -6.25036e-19)
(0.887799 -0.099064 -4.94496e-21)
(1.13321 0.156208 5.10116e-19)
(1.05096 -0.078945 -2.2133e-19)
(0.664161 0.393902 1.82008e-19)
(0.259189 -0.0915383 6.3313e-19)
(0.945114 -0.142378 -1.33288e-19)
(0.166183 0.398102 -3.51697e-20)
(0.845052 -0.0338159 1.62654e-19)
(0.997996 -0.194929 5.00586e-20)
(1.11377 0.194797 2.94749e-19)
(1.0027 -0.10973 -6.2506e-20)
(0.641081 -0.0093842 -3.93275e-19)
(1.96159 1.50976 -3.61626e-20)
(1.09304 0.00480753 5.13039e-21)
(0.813167 -0.100719 -1.507e-20)
(0.777067 0.290537 8.97525e-19)
(0.769787 0.169439 5.85161e-19)
(0.897884 -0.014993 3.95038e-19)
(0.982351 -0.0859348 -2.69427e-19)
(1.08006 -0.0393866 1.39176e-19)
(1.05163 -0.315935 -1.16958e-18)
(1.07583 -0.0671136 1.43684e-19)
(0.840052 -0.0636438 -1.02039e-19)
(0.129962 0.406536 -1.03484e-19)
(1.12449 0.0687087 2.03617e-19)
(0.98294 -0.0269031 -8.77341e-21)
(1.18249 0.0114497 -1.87586e-19)
(1.27189 0.103997 2.0635e-19)
(1.06683 0.234536 -1.1394e-18)
(0.611705 0.023535 8.82172e-19)
(1.16302 -0.02706 -5.88774e-19)
(1.1355 0.134193 6.53662e-19)
(0.251543 -0.0855558 -1.23239e-18)
(0.118984 0.381045 -6.45364e-19)
(0.819989 -0.101063 1.06616e-20)
(0.998794 -0.00298417 3.34765e-21)
(0.966313 -0.0843825 -2.70346e-21)
(0.889846 -0.104322 1.22955e-20)
(1.31233 0.0200801 1.55169e-19)
(0.911543 -0.0779401 1.34454e-19)
(1.0153 0.215556 5.89446e-19)
(0.993161 -0.0035337 5.94636e-22)
(0.916873 -0.105199 -4.98271e-22)
(0.816153 -0.0676492 2.79365e-20)
(0.775928 0.028223 1.52581e-19)
(1.12252 0.173795 -2.20892e-18)
(0.213759 0.323825 5.86338e-20)
(0.667929 0.0547212 -4.07821e-19)
(0.821179 -0.0225536 -6.43544e-20)
(1.1119 -0.0629319 -5.24008e-20)
(0.995214 -0.0281577 2.33405e-19)
(1.2594 0.286086 -6.75599e-21)
(0.760612 -0.12357 -1.00702e-18)
(1.01504 -0.039454 -1.1824e-19)
(0.706854 0.342835 3.05652e-19)
(1.02679 0.104529 -8.27412e-19)
(1.18069 0.0053815 1.1796e-18)
(0.882023 -0.0908893 -6.81326e-20)
(0.957749 -0.0430915 4.41507e-20)
(1.01617 0.0301077 8.29398e-20)
(1.03493 -0.0927667 8.1931e-19)
(1.00059 -0.000266816 -1.3203e-24)
(0.955092 -0.106059 -5.81612e-20)
(1.08916 -0.05238 -5.17796e-19)
(0.848291 0.426631 1.10848e-18)
(1.01339 -0.220645 -8.57045e-20)
(0.757785 0.203606 3.79035e-19)
(1.31791 0.0506577 -1.60554e-19)
(0.88456 0.271946 -7.41344e-19)
(1.00041 -0.000282281 -9.6693e-24)
(0.49859 0.0007488 8.51916e-20)
(0.800283 0.0460734 -2.28527e-19)
(1.06001 -0.0570239 -2.92138e-19)
(1.00027 -0.000394977 6.10958e-23)
(1.31461 0.0889919 1.94479e-19)
(0.381106 -0.0855505 -4.31498e-19)
(0.622057 0.00470303 9.41057e-19)
(0.93628 -0.00287203 -1.9493e-20)
(0.708288 0.337042 -5.75239e-19)
(1.12987 -0.050051 7.50069e-20)
(1.07591 -0.0378336 -2.84823e-19)
(1.01797 -0.00114775 1.89448e-20)
(0.898994 -0.111364 -5.54673e-21)
(1.09564 -0.0558333 -7.57599e-20)
(0.925727 -0.216601 -4.94773e-19)
(0.906819 0.0435573 2.3364e-19)
(0.940722 0.0423253 1.01766e-18)
(1.08755 -0.0525826 -6.29685e-19)
(1.19301 -0.00704613 -4.8611e-19)
(0.986851 -0.000816243 -1.03386e-20)
(0.756883 0.0357913 6.6828e-19)
(0.513336 -0.198803 -1.22555e-19)
(1.10287 -0.0620649 -1.89571e-19)
(1.10839 -0.152164 1.70859e-19)
(1.12698 0.145782 -2.25959e-18)
(0.920076 0.116357 -1.66281e-18)
(0.729903 0.0577357 -1.75878e-19)
(1.23007 0.00497146 4.86885e-19)
(0.744759 0.0305388 -2.38711e-20)
(0.890453 -0.112453 3.43725e-20)
(1.97511 1.43385 2.09603e-20)
(1.05684 -0.0611232 1.40052e-19)
(1.0592 -0.0710382 -5.34569e-19)
(0.688047 0.0590717 -5.08147e-19)
(0.704721 -0.0631172 -2.55919e-19)
(0.902463 -0.099263 -5.63398e-20)
(1.05841 0.265071 -2.66553e-19)
(0.859499 0.11118 1.17189e-19)
(1.31201 2.01068 2.93987e-20)
(1.08174 0.0966307 -6.70123e-19)
(1.00263 -0.00190618 -1.75479e-22)
(0.954542 -0.0218435 -9.69509e-20)
(1.11058 0.108766 2.50818e-19)
(0.538166 -0.00943877 4.64351e-20)
(0.936699 0.047533 5.6827e-19)
(0.806789 -0.0992091 4.22058e-21)
(1.11674 -0.0611389 -1.46643e-19)
(0.884052 -0.07955 9.87813e-20)
(0.701234 -0.0572735 -3.04602e-20)
(0.999322 -0.0349352 1.33019e-19)
(1.06268 -0.0708787 3.23642e-19)
(1.70934 -0.0985311 -3.0075e-20)
(1.00477 -0.00292784 2.58127e-21)
(1.20333 -0.00917499 -8.17135e-20)
(0.998721 4.16592e-05 -4.5114e-23)
(0.276363 -0.105913 1.6107e-18)
(1.02599 -0.0236458 1.27929e-20)
(0.944698 0.396307 7.94322e-19)
(0.770697 0.179421 -3.12195e-19)
(0.990091 0.194662 -6.87995e-19)
(1.09415 0.0878126 4.59051e-19)
(0.952614 0.17277 -6.5522e-20)
(1.17812 0.0167767 1.16912e-18)
(0.951563 -0.0856875 -2.76093e-20)
(1.11429 -0.046346 -1.50219e-19)
(0.976945 -0.0624962 6.9001e-23)
(0.746211 -0.0722603 2.59916e-21)
(0.645639 -0.0029436 -2.29954e-19)
(0.846846 -0.0385731 6.14332e-20)
(0.949763 -0.018966 -2.32216e-19)
(1.04577 -0.0932378 -3.06664e-19)
(1.02563 -0.0228773 -1.55196e-20)
(0.98135 -0.0101937 -2.59013e-21)
(1.01615 -0.0137838 -1.01483e-20)
(0.98231 -0.0957002 -9.88831e-20)
(1.244 0.00229316 7.07507e-19)
(1.03346 -0.0856652 6.54038e-19)
(0.681094 0.0618844 5.40121e-19)
(0.996311 -0.0691401 -2.37764e-20)
(1.25911 0.170791 -4.36817e-19)
(1.0774 -0.0689844 4.256e-19)
(0.983225 -0.0101611 -1.07748e-20)
(0.92401 0.120231 2.38484e-18)
(1.19126 0.0450687 1.14049e-19)
(0.964408 -0.0911816 3.01789e-18)
(1.00515 -0.00390646 -2.56491e-21)
(1.00324 -0.0571027 0)
(1.11869 -0.0461058 2.23557e-19)
(0.892674 0.00488945 -2.21948e-19)
(0.876959 -0.0573545 6.3745e-20)
(1.32101 -0.177847 1.64913e-19)
(0.622977 0.00255432 -6.44379e-19)
(1.02846 0.315661 1.51089e-18)
(0.502262 -0.00414332 3.32913e-19)
(1.05054 0.25844 -1.41552e-19)
(1.07902 -0.0687204 -3.0943e-19)
(1.10227 -0.0620261 2.23496e-19)
(0.938685 -0.215419 -6.82812e-19)
(0.771141 0.293521 -3.74511e-19)
(1.18516 -0.12073 6.46615e-19)
(1.13352 -0.0468437 3.44707e-20)
(0.3076 -0.127763 -2.30356e-18)
(0.502044 -0.00592904 -1.91329e-19)
(1.00519 -0.0041407 1.09057e-21)
(1.19577 -0.00842238 9.79023e-20)
(0.530625 -0.199523 3.05054e-19)
(0.894039 -0.011887 3.49289e-20)
(0.536891 -0.0340813 -5.58628e-19)
(1.04401 -0.0972223 -1.11051e-19)
(1.07934 0.227055 1.88204e-18)
(0.99865 1.5569e-05 -1.35604e-22)
(1.13889 -0.0431957 -6.79417e-20)
(1.2067 0.0104993 6.14209e-19)
(1.14607 0.0134019 -7.51881e-19)
(1.06442 0.423448 -3.79573e-19)
(0.99988 -0.000134036 1.09052e-24)
(0.993209 -0.00377675 1.99724e-22)
(1.13423 -0.00256377 -3.31101e-19)
(0.892309 -0.00792751 3.79293e-19)
(0.937668 -0.0850607 1.04721e-20)
(0.98748 -0.051894 -5.01302e-21)
(1.0044 0.22199 -7.31736e-19)
(1.32563 -0.00259963 -7.56276e-19)
(0.647484 0.406124 -7.90913e-20)
(0.957322 -0.0507336 -8.31803e-19)
(0.563735 0.0296185 -1.00365e-19)
(1.01889 -0.163499 2.41225e-19)
(1.0976 0.0769191 1.12235e-18)
(0.891249 -0.0797322 -4.18971e-20)
(1.32202 0.0664633 -2.64201e-19)
(0.412852 -0.163234 -2.11722e-18)
(0.952402 0.0389977 -5.25474e-19)
(1.07196 -0.0434336 -2.99847e-19)
(0.957946 -0.0588624 -1.74213e-19)
(0.865846 -0.0846064 1.69656e-20)
(0.996636 -0.320682 -2.40587e-18)
(0.877298 0.002124 5.47486e-19)
(0.875771 0.392973 4.38502e-19)
(1.00591 -0.117403 -4.4556e-19)
(0.996209 0.193337 3.8272e-19)
(0.651631 0.0644413 -1.87306e-19)
(0.781556 0.0265291 4.13078e-19)
(0.165599 0.815478 -8.74283e-21)
(1.07495 0.102242 1.10617e-18)
(0.891965 -0.0945118 8.36772e-20)
(1.04102 -0.0866807 3.41162e-19)
(1.03632 -0.0834633 -2.64381e-19)
(0.998098 -0.000326427 -3.81146e-21)
(1.02537 -0.0893541 -1.13399e-18)
(0.969992 -0.242933 3.58227e-19)
(1.01933 -0.0516304 -2.32061e-20)
(1.12612 0.0700456 -7.03643e-20)
(0.968875 -0.0719851 6.95876e-22)
(0.968886 -0.0733741 -6.27226e-22)
(1.14216 -0.00751725 -2.5466e-20)
(1.00825 -0.11311 2.72226e-19)
(1.07724 -0.00720513 -5.35989e-20)
(1.08897 -0.0507578 4.17066e-21)
(0.584942 0.0361511 -3.01883e-19)
(0.899138 -0.0810453 -6.15918e-20)
(0.752719 -0.070971 -1.78313e-20)
(1.02969 -0.329007 -2.98907e-18)
(1.0118 0.254596 1.12881e-18)
(1.12488 -0.000639239 6.29614e-19)
(0.846168 0.0156677 -3.16108e-19)
(0.926556 -0.181293 6.66124e-20)
(1.06134 -0.0705833 -1.91907e-19)
(1.00249 -0.00381177 -3.22309e-22)
(0.999913 -0.0003505 4.01196e-23)
(0.580471 -0.0560016 -1.09933e-19)
(0.410286 -0.162905 2.15837e-18)
(0.793106 -0.100276 1.69625e-20)
(1.00241 -0.00365527 -8.46554e-22)
(0.634393 0.0046429 -1.73651e-19)
(1.12612 0.173658 2.04048e-18)
(0.45909 0.300766 -4.00411e-19)
(0.891368 0.280747 -5.17263e-19)
(0.994158 -0.000309324 -2.6872e-21)
(0.643661 0.000618807 -7.52992e-19)
(0.95914 -0.0242596 -6.66078e-19)
(1.01214 -0.00127793 -9.32193e-22)
(0.990744 -0.0276888 1.10215e-21)
(0.617894 -0.00436226 1.1649e-19)
(1.13288 -0.00216338 -1.09877e-19)
(1.07832 -0.0667404 -2.45001e-20)
(1.23794 -0.217172 9.13636e-20)
(1.05004 -0.00475391 -3.06141e-20)
(0.779952 -0.193471 -9.56555e-19)
(0.592304 0.0433748 3.05812e-19)
(0.565175 0.0307196 -1.69946e-19)
(0.674236 0.0537773 -6.76176e-20)
(1.0933 -0.0507288 -2.23533e-19)
(0.735799 -0.189865 -1.09891e-18)
(1.02643 -0.0498937 2.85549e-20)
(1.00249 -0.00163485 -6.2927e-23)
(1.14997 -0.0499783 1.88243e-19)
(0.839983 0.326 -3.59653e-19)
(1.21883 -0.163028 1.84658e-18)
(0.963577 0.0667908 8.47387e-19)
(1.03226 -0.0880294 -2.11114e-19)
(0.821805 0.0147847 9.43712e-20)
(0.938592 0.0322677 4.21153e-18)
(1.18325 0.00457811 -1.63126e-18)
(1.02193 -0.0443642 -1.91495e-20)
(1.2464 0.00303041 -6.24023e-19)
(0.762887 0.0375664 -9.00446e-20)
(0.703838 0.345501 -7.25414e-19)
(0.959017 -0.0635095 -2.08666e-19)
(1.22641 0.00631449 -1.55469e-18)
(1.09922 -0.00450242 1.19238e-19)
(0.965242 0.0698242 5.8453e-19)
(1.06376 -0.00579283 -5.45541e-20)
(0.887022 -0.0513309 -4.11446e-20)
(0.659708 0.0602624 5.03433e-20)
(0.875365 0.0334466 4.88426e-19)
(1.032 -0.0013846 -4.34836e-20)
(0.902038 -0.0212694 -5.13891e-19)
(1.30991 -0.176561 -3.2976e-19)
(1.02353 0.318665 -1.18966e-18)
(0.914442 -0.079633 3.92698e-19)
(0.870064 -0.0575491 -9.45276e-20)
(0.730698 0.614937 -1.35622e-19)
(1.00754 -0.000213971 -2.44856e-21)
(1.26018 1.98125 -1.25844e-20)
(0.893116 -0.0788486 -6.56986e-20)
(1.18518 0.0165336 -9.68194e-19)
(0.892575 0.00515137 -2.12368e-19)
(1.15959 -0.0053054 -3.55064e-19)
(0.375445 -0.0670641 -1.09084e-18)
(0.851675 0.108854 -1.15757e-18)
(1.25413 -0.170571 8.52705e-19)
(0.953421 0.168248 1.91827e-19)
(0.725888 0.42174 6.33083e-19)
(0.718338 0.369403 -5.54591e-19)
(0.748018 -0.0494719 -9.47043e-21)
(1.18555 0.00457201 1.8066e-18)
(0.721321 0.309132 5.97466e-19)
(0.970234 -0.0933173 -2.3451e-18)
(1.06918 -0.0651909 -1.05581e-20)
(0.969782 -0.101251 9.39518e-20)
(1.18927 -0.167565 -2.00211e-18)
(1.00326 -0.00255676 -3.47302e-22)
(0.542111 2.03493 6.06419e-20)
(0.443252 0.271757 -1.78002e-19)
(0.742393 0.0573345 -3.71545e-19)
(1.0878 -0.0711151 -1.96864e-20)
(1.15231 0.0106733 -2.53973e-19)
(0.886113 -0.104342 -6.83921e-21)
(1.11569 -0.045545 -4.46005e-21)
(0.978774 -0.182072 -5.43673e-19)
(1.35585 -0.0117801 6.42899e-19)
(0.983102 -0.000867391 -6.19283e-22)
(1.02772 -0.0497397 -2.84687e-20)
(1.12286 0.081459 -2.37809e-19)
(1.04643 -0.0867044 2.31974e-20)
(0.188639 0.37362 8.21366e-20)
(0.76713 0.303551 -6.31219e-19)
(1.04696 0.245696 2.35392e-19)
(0.991206 -0.0278728 -2.94159e-21)
(1.00846 -0.189487 -8.79378e-20)
(0.951796 -0.150547 -7.06959e-19)
(1.06741 -0.00469766 3.63595e-20)
(1.01649 -0.0365874 5.88577e-19)
(1.14476 0.115505 5.11952e-19)
(1.35099 -0.0392199 -4.17086e-19)
(1.04435 -0.0860689 -8.61341e-20)
(0.999754 -0.000181606 1.76511e-23)
(0.727459 0.307465 4.50524e-19)
(1.01527 -0.0362737 1.0447e-18)
(0.982804 -0.000969752 -1.38027e-20)
(1.17077 -0.00459548 -1.59342e-19)
(1.12268 -0.036167 -1.23028e-19)
(0.905722 -0.0784847 1.16577e-20)
(0.78538 -0.00589396 2.85118e-20)
(0.143786 1.61407 4.52277e-20)
(0.596289 0.0198255 -6.97142e-20)
(0.88761 -0.106402 -4.23699e-22)
(0.707387 -0.0590599 -5.42372e-21)
(1.0292 -0.0482968 4.08204e-20)
(0.984517 -0.010696 7.55104e-21)
(1.03219 -0.024951 -5.20527e-19)
(0.528101 0.381374 -1.05655e-19)
(0.972584 -0.00782464 5.29121e-21)
(0.592845 0.0445752 3.62772e-19)
(1.08479 -0.0592507 1.69006e-20)
(0.912004 -0.0735341 1.83786e-19)
(0.870959 0.0281784 -6.45981e-19)
(0.986756 -0.0487616 1.93563e-21)
(1.28153 0.0462231 -3.45471e-19)
(1.10318 -0.0227956 -4.48766e-19)
(1.03164 -0.19157 2.76403e-19)
(0.563794 0.377253 2.96631e-19)
(0.94071 -0.0298245 7.54303e-21)
(0.996281 -0.00964596 -1.98885e-21)
(0.952162 -0.0336416 -1.50868e-20)
(0.87721 -0.0580283 -1.95822e-21)
(1.10416 0.0195211 0)
(1.03604 -0.0463388 -3.63177e-19)
(0.499776 0.0012309 -1.97131e-20)
(1.00502 0.03023 -1.78427e-18)
(0.445792 -0.177265 1.81623e-18)
(0.441233 -0.174022 -1.57201e-18)
(1.0981 -0.0527494 4.03588e-19)
(1.12309 0.044173 1.11521e-18)
(1.02795 -0.292776 1.8564e-18)
(0.94414 -0.0349504 7.32557e-21)
(0.901682 -0.0201249 -1.07077e-19)
(0.739295 0.057555 3.54177e-19)
(1.02356 -0.023612 1.81553e-20)
(1.01174 -0.0798114 2.70247e-19)
(1.08662 -0.058097 -8.2269e-21)
(1.02503 -0.0837077 -6.01249e-19)
(1.02492 -0.276434 -6.52358e-20)
(1.32845 0.138771 -7.05223e-19)
(0.756314 -0.189979 9.31195e-19)
(0.890889 -0.0990997 -1.33419e-20)
(0.722426 0.0589564 6.21732e-19)
(1.02394 0.0279675 -4.4003e-20)
(1.0613 0.21718 -1.26962e-18)
(1.18925 0.015806 -2.07741e-19)
(0.970746 -0.0670238 -8.19849e-20)
(1.00154 -1.28346e-05 -2.41131e-23)
(0.958088 -0.0436066 1.03683e-18)
(0.67572 0.00180835 2.17518e-20)
(0.244017 -0.0804532 -1.1468e-18)
(1.02864 -0.0499719 -1.88133e-19)
(1.08401 -0.055243 -2.00711e-18)
(0.976989 -0.164541 -5.48709e-19)
(1.1538 -0.0505006 8.21939e-20)
(0.103337 0.418671 -2.00647e-19)
(0.903909 -0.00353603 4.84212e-20)
(0.717042 0.0574941 1.20911e-18)
(0.988051 0.00831799 3.67213e-19)
(1.14359 0.121888 -2.4704e-19)
(0.551162 -0.0652273 -1.2567e-18)
(1.24096 0.00804354 1.20998e-19)
(0.99859 -0.00241015 -9.92516e-22)
(0.937187 -0.127788 3.78048e-20)
(0.590841 0.0408269 -3.43712e-19)
(0.887329 -0.00181801 -5.07358e-19)
(1.16867 -0.00752268 -1.17906e-19)
(1.24398 -0.2229 8.69772e-20)
(1.0301 -0.0481995 -4.64917e-20)
(1.54259 -0.458236 6.89115e-20)
(0.863591 -0.085601 -7.01746e-20)
(0.997901 -0.00883604 -8.49514e-22)
(1.03765 -0.0482628 4.03842e-19)
(1.02289 -0.0510472 1.17977e-20)
(1.35467 -0.0335305 5.7273e-19)
(1.02428 -0.0231933 -1.60034e-20)
(0.9286 0.390522 -2.52079e-19)
(0.724284 0.0509794 9.90028e-20)
(1.25246 0.00259258 -2.30157e-19)
(1.14982 -0.0420994 -3.46483e-19)
(1.0839 0.255649 1.80029e-18)
(1.12616 -0.0492691 -4.31766e-19)
(1.02351 0.101737 -7.10347e-19)
(1.00011 -0.000465446 2.82194e-23)
(1.02327 -0.131727 3.88856e-19)
(1.01348 -0.0820121 -1.2698e-19)
(1.0996 -0.0625136 3.77928e-20)
(0.681696 0.00169677 1.57965e-19)
(1.00287 -0.00211905 7.77951e-22)
(0.121187 0.426702 -3.24183e-19)
(1.24889 0.351957 1.55899e-19)
(0.409848 0.263296 4.00089e-19)
(1.02211 -0.0432324 3.71666e-20)
(1.12698 0.511851 1.13696e-19)
(1.10508 0.0215904 -2.80633e-19)
(1.07843 -0.104135 1.25222e-18)
(1.0414 -0.0760462 5.89807e-20)
(0.967473 -0.000345284 -4.12889e-21)
(1.11929 0.0782116 -2.79477e-19)
(1.01943 -0.0172058 -1.04154e-20)
(1.23646 -0.135267 -4.05309e-19)
(0.95907 -0.0222535 -7.07647e-20)
(0.392527 -0.122343 -9.2799e-21)
(0.852924 0.423378 -1.4752e-18)
(1.01866 -0.0160223 8.25158e-21)
(1.10914 -0.469512 2.19306e-19)
(0.993581 0.0722847 -1.4089e-18)
(0.984514 -0.010204 3.7023e-22)
(1.11381 0.147224 1.59534e-18)
(1.02522 -0.0793869 1.24035e-18)
(0.783289 -0.00785848 2.3193e-20)
(1.06934 -0.0344299 3.57666e-19)
(1.04616 -0.006018 2.25716e-20)
(1.09905 -0.021303 -4.27901e-19)
(0.665997 0.0593325 -2.5009e-20)
(0.557356 -0.00452304 3.13015e-20)
(0.873505 0.394092 -6.04223e-19)
(0.955078 0.0359828 -3.61737e-19)
(1.27499 0.243709 1.05959e-18)
(1.22504 0.0212192 9.0174e-19)
(0.739715 -0.00697625 -6.66753e-20)
(1.00289 -0.0453813 -1.99077e-21)
(0.864264 0.387008 -2.4547e-19)
(0.893711 -0.0788823 -4.11531e-20)
(0.561696 0.0155297 -3.10183e-20)
(1.02448 -0.0511867 -6.62212e-21)
(1.01843 0.273942 5.85178e-20)
(0.555157 -0.0632107 1.79155e-18)
(1.35624 0.0497644 9.40367e-19)
(1.00239 -0.0928633 1.73169e-19)
(1.00343 -0.0995885 -2.97353e-20)
(0.683285 0.0032971 -7.63199e-20)
(0.43369 0.321189 -2.23178e-19)
(1.00984 -0.187017 -1.72331e-20)
(0.988172 0.222091 -2.30166e-19)
(1.14177 -0.0228333 -7.83028e-19)
(1.10477 0.0811043 -9.42831e-19)
(0.976798 -0.0142551 -3.53523e-21)
(0.0720849 0.636818 1.09417e-19)
(1.00212 -0.00352092 -4.2177e-22)
(1.11016 -0.0432508 2.8269e-19)
(0.998576 -3.69588e-05 2.89925e-22)
(1.25471 1.88631 -6.85066e-20)
(1.1875 -0.112808 -5.29203e-19)
(0.931746 0.116401 1.13299e-19)
(0.998051 -0.000366183 3.83214e-22)
(1.24982 -0.181384 -2.30002e-18)
(0.952346 -0.0138681 1.05448e-20)
(1.01438 -0.0798819 2.71389e-19)
(0.931763 -0.0330565 2.48127e-20)
(0.520582 -0.199141 -6.08109e-20)
(0.848849 0.0147378 5.18362e-19)
(1.0319 0.281268 9.06234e-19)
(0.983835 -0.00127855 1.88448e-20)
(1.06925 -0.154071 3.85704e-19)
(1.02115 -0.0358136 1.05847e-19)
(0.826523 0.0167946 3.65805e-19)
(0.997429 -0.00952517 3.95404e-21)
(1.00015 -0.100399 -3.13095e-20)
(0.972858 -0.0013512 2.05845e-21)
(0.988661 -0.203974 3.52778e-19)
(1.10832 -0.0639031 1.60634e-19)
(0.885706 -0.0593639 -1.856e-21)
(0.628306 -0.00180196 -9.82912e-19)
(1.01019 -0.0247893 -1.1022e-22)
(1.03136 -0.045798 3.77606e-20)
(1.04266 0.0219498 4.61168e-19)
(0.941645 -0.0301069 4.50801e-21)
(0.935004 0.0406049 -1.87379e-18)
(1.1571 0.135825 1.82165e-18)
(0.378826 0.297686 6.11336e-21)
(0.575389 0.00795083 8.10301e-20)
(1.14092 -0.21676 -3.30131e-19)
(0.998312 -0.000192557 -2.42642e-22)
(0.708995 0.644593 1.49232e-19)
(1.02252 -0.275872 2.39025e-19)
(1.04321 -0.00607908 3.33764e-20)
(0.799496 -0.0997072 2.15665e-19)
(0.993577 -0.0942652 1.25451e-19)
(0.666849 -0.123252 -3.00304e-19)
(1.57887 0.860253 1.34066e-20)
(1.06235 -0.00568364 -3.94998e-20)
(1.01128 -0.113273 -8.4761e-19)
(0.997914 -0.0090581 3.38897e-21)
(0.860355 -0.0628145 5.60937e-20)
(0.954936 -0.014481 1.03814e-21)
(0.756202 0.275936 -8.54747e-20)
(0.605836 -0.0355208 -4.16345e-20)
(1.01512 -0.0294609 -2.84495e-22)
(0.979476 -0.010354 6.18772e-21)
(1.18805 0.00721812 7.69244e-19)
(0.789646 -0.229699 -1.05635e-19)
(0.898999 -0.0790742 6.49701e-20)
(1.00922 -0.0981903 -7.47045e-20)
(0.882594 0.394385 -6.96786e-20)
(0.857107 -0.253087 4.89569e-19)
(1.10338 -0.0619351 1.04572e-19)
(0.303228 0.0987048 -1.68539e-20)
(1.33226 0.342676 -2.8962e-19)
(0.572435 -0.198 -4.93488e-19)
(1.00375 -0.0448339 7.87307e-21)
(0.999042 -8.6428e-05 8.75737e-22)
(0.831755 0.329688 4.70178e-19)
(0.644013 -0.095238 -1.06693e-19)
(1.01097 -0.0247582 -4.89795e-21)
(0.165905 0.307529 6.89728e-19)
(0.904343 -0.0487288 2.71262e-20)
(0.998819 -0.000647927 2.06999e-21)
(1.12477 0.173989 1.93803e-19)
(1.11959 -0.331361 7.69672e-20)
(0.761594 -0.191644 -1.23801e-18)
(0.490923 -0.196613 -2.25162e-19)
(0.88798 0.0269953 4.43916e-19)
(0.546253 -0.00792478 5.14407e-20)
(0.565961 0.013969 2.47187e-19)
(1.07547 -0.0441405 -4.40393e-19)
(0.86193 0.394632 -6.70238e-19)
(0.975888 -0.0631854 1.0687e-21)
(0.954241 -0.149172 -1.33293e-19)
(1.13757 0.183445 1.35401e-19)
(0.985316 -0.0607931 3.46827e-21)
(1.32577 0.313184 4.01546e-19)
(1.00308 -0.0673494 8.32149e-19)
(1.03371 0.234921 -1.81356e-18)
(1.05847 -0.028421 3.07818e-19)
(0.947406 0.00795162 -9.48405e-20)
(1.16994 0.434457 -6.11588e-19)
(1.20588 0.0145983 5.73776e-19)
(1.10493 -0.155484 -4.5796e-20)
(0.78248 0.0407925 -3.73465e-19)
(0.72002 0.357082 1.247e-18)
(0.737161 0.333226 4.09703e-19)
(0.580796 -0.000951947 2.75233e-20)
(0.980268 -0.173386 -2.39697e-19)
(0.761678 0.307537 1.12425e-19)
(0.874302 -0.0295683 1.68178e-20)
(0.9615 -0.00170689 1.52301e-22)
(1.45851 -0.426243 3.44228e-19)
(0.819649 -0.0260845 1.28721e-19)
(0.827893 0.0153066 9.46938e-20)
(1.30949 0.139551 -2.3064e-19)
(0.554351 -0.00227118 7.2674e-20)