/*--------------------------------*- C++ -*----------------------------------*\
  =========                 |
  \\      /  F ield         | OpenFOAM: The Open Source CFD Toolbox
   \\    /   O peration     | Website:  https://openfoam.org
    \\  /    A nd           | Version:  7
     \\/     M anipulation  |
\*---------------------------------------------------------------------------*/
FoamFile
{
    version     2.0;
    format      ascii;
    class       volVectorField;
    location    "21.5";
    object      U;
}
// * * * * * * * * * * * * * * * * * * * * * * * * * * * * * * * * * * * * * //

dimensions      [0 1 -1 0 0 0 0];

internalField   nonuniform List<vector> 
7807
(
(1.06093 0.125601 6.10528e-21)
(1.04904 -0.0381243 -6.31543e-22)
(0.985164 0.0917338 -1.22151e-20)
(1.02875 0.0604893 1.64156e-20)
(0.999313 -0.000746833 -2.19556e-23)
(0.999973 -4.60255e-06 -8.68818e-25)
(0.983672 0.0737955 -2.35294e-20)
(0.995624 -0.00118315 -4.57204e-24)
(0.999904 -0.00013395 -3.38892e-24)
(1.02076 0.000773884 -7.05115e-22)
(0.999974 -6.21025e-06 9.66117e-25)
(1.00177 -0.001045 -6.85639e-23)
(0.993356 -0.00138571 2.18968e-22)
(1.01685 -0.00164388 -4.13653e-21)
(1.02015 0.00118161 2.98934e-21)
(0.991747 -0.0125756 -6.37458e-22)
(1.06301 0.131742 -1.28436e-20)
(0.99107 -0.00174496 -7.80611e-23)
(1.00166 -0.0081205 2.45837e-23)
(0.977759 -0.0932148 -7.00635e-22)
(1.03071 -0.003865 -1.42859e-21)
(1.00116 -0.000606847 1.18922e-22)
(1.01553 -0.0029509 3.31718e-22)
(1.00923 0.0260938 -8.14393e-21)
(0.988208 -0.00214266 -3.53976e-22)
(1.05647 0.123546 -6.04458e-21)
(0.999346 -0.000710935 -1.55351e-23)
(1.02036 -0.00162389 1.67803e-21)
(1.00455 0.0130676 -1.02785e-21)
(1.00287 -0.00870643 -2.83691e-23)
(0.987443 -0.0129926 -1.09188e-21)
(0.927537 0.0128128 3.23962e-21)
(1.01529 -0.00354795 2.0812e-21)
(0.999621 -0.000283479 2.27086e-23)
(0.999958 -3.05777e-06 2.13163e-26)
(1.0204 0.000383694 1.03536e-21)
(1.00334 -0.00958007 -1.30301e-23)
(0.98825 0.0722674 -3.71968e-21)
(0.996571 -0.00651126 5.21573e-22)
(0.999773 -2.63511e-05 1.54116e-23)
(0.996906 -0.00673822 -5.73237e-23)
(0.991909 -0.0117179 -2.18854e-22)
(1.00563 -0.103523 3.43196e-21)
(1.1423 -0.0395629 6.89617e-22)
(0.999923 -4.93729e-06 4.04393e-24)
(0.999947 -8.07151e-06 -1.023e-24)
(1.00109 -0.000495709 -7.27548e-23)
(0.996425 -0.00591867 -3.05996e-22)
(0.999951 -1.8692e-05 -9.89246e-25)
(0.98214 -0.0940604 1.02402e-21)
(1.00261 -0.00092983 7.90877e-23)
(1.0202 -0.000765143 -1.73324e-21)
(0.984995 -0.00241562 -1.22092e-21)
(1.00929 -0.0275922 -6.53217e-23)
(1.02077 -0.000423492 -5.8885e-22)
(0.996092 -0.00183256 -4.26517e-23)
(1.0016 -0.00755532 -1.66659e-23)
(0.995657 -0.00096893 2.8096e-22)
(0.978467 -0.0151926 -1.85592e-21)
(0.999608 -0.000246882 -2.82472e-23)
(1.00003 -1.73494e-05 -1.1727e-24)
(1.00345 -0.000991171 9.08349e-23)
(1.01708 -0.00103589 -9.83165e-22)
(1.00191 -0.000906692 6.94257e-23)
(0.999316 -9.22539e-05 3.30396e-23)
(0.987927 -0.0135873 1.70631e-22)
(0.999923 -0.000134488 2.90121e-24)
(1.00001 -1.80505e-06 5.28862e-26)
(1.13685 0.0714317 2.25194e-21)
(0.996596 -0.00560308 -1.00081e-22)
(0.999947 -1.07674e-05 9.67671e-25)
(0.968289 -0.0519723 -4.37046e-21)
(0.988379 -0.00252678 1.79468e-22)
(0.980442 -0.00266526 2.34051e-22)
(0.991286 -0.00206305 2.47665e-22)
(0.965757 -0.0218731 -4.14009e-22)
(0.988516 0.0937248 1.96533e-20)
(1.02907 -0.00376987 1.8255e-21)
(1.07678 0.00167288 -3.01092e-21)
(0.952919 -0.0397635 -4.89172e-21)
(0.993573 -0.00163269 -3.36548e-22)
(0.997518 0.0442919 2.25303e-20)
(1.03502 0.00572186 4.50642e-21)
(0.976578 -0.00644895 1.2126e-21)
(0.998816 -0.00195994 -4.46425e-23)
(0.998554 -0.000123519 2.90524e-23)
(0.995265 -0.0016636 4.18194e-22)
(0.985012 -0.0028983 7.79056e-22)
(0.999457 -0.000901035 2.51162e-23)
(0.997055 -0.00026705 1.12439e-22)
(1.00476 0.0148347 7.65282e-21)
(1.1731 -0.022438 -1.08414e-21)
(0.999901 -3.34789e-05 -2.85391e-24)
(1.00129 -0.00637184 -6.15979e-24)
(0.99717 -0.000604267 1.08793e-22)
(0.986152 -0.000909762 -1.81343e-21)
(0.970804 -0.0517374 2.48057e-22)
(1.01093 -0.026566 2.95332e-22)
(0.998705 -0.0018793 1.41226e-23)
(0.999212 -9.34488e-05 1.21706e-23)
(0.956664 -0.00937674 9.12496e-22)
(1.07736 0.00645909 2.60727e-21)
(0.9973 -0.000735401 -2.67975e-22)
(0.99999 -5.88678e-07 -5.45127e-26)
(1.17574 -0.0105008 -8.26347e-22)
(1.02563 0.0266981 -7.34498e-21)
(0.955272 0.0111191 3.72176e-21)
(0.995843 -0.00168973 -1.67996e-22)
(0.999994 -1.60119e-06 1.59161e-26)
(1.02194 -0.0122774 -6.22992e-22)
(1.03198 0.0575027 -1.90716e-20)
(1.02275 -0.0752531 -4.36634e-21)
(0.999992 -1.93044e-06 -2.8732e-26)
(1.02348 -0.012758 -1.33684e-22)
(1.02281 0.0254287 7.73317e-21)
(1.00031 -0.000452912 -3.81781e-24)
(1.06922 -0.0893134 -2.69689e-22)
(1.02618 0.0152295 -1.74298e-21)
(0.981549 -0.0408709 1.94708e-21)
(0.978577 -0.00372351 -2.68544e-22)
(0.963435 -0.00435239 -2.05315e-21)
(1.00035 0.0250471 -1.45508e-20)
(1.01216 -0.102074 -4.70463e-21)
(1.00806 -0.00690279 3.82764e-23)
(0.961094 -0.00567068 7.82504e-22)
(0.999214 -0.00104051 5.82114e-23)
(0.988807 -0.00962337 3.53079e-22)
(1.00215 -0.00720845 1.63893e-23)
(0.999363 -5.88244e-05 -7.51673e-23)
(0.987608 -0.0118839 2.53561e-23)
(1.21158 -0.0371238 -7.0727e-22)
(1.07151 -0.000559961 5.17174e-22)
(0.999523 -0.000391158 2.58689e-24)
(0.999371 -0.000917278 -5.11617e-23)
(0.976051 -0.00550961 3.39134e-22)
(1.03015 0.0512294 6.96304e-21)
(0.996101 0.0185373 2.54654e-20)
(0.999987 -1.22356e-06 -5.73312e-26)
(1.00608 -0.00267744 4.25002e-23)
(0.95565 -0.00550146 -2.74384e-21)
(0.98411 -0.00156416 -9.66076e-22)
(0.985453 -0.0587374 -3.16487e-21)
(0.965958 -0.0240023 5.62762e-22)
(0.981773 -0.00236115 -2.34404e-23)
(0.958687 0.00804101 1.40763e-20)
(1.01018 -0.0431684 -1.33384e-22)
(1.00972 0.0157031 -3.88508e-21)
(0.980277 -0.0189238 -1.0218e-21)
(0.978623 -0.00200632 2.76184e-22)
(0.999867 0.0364823 -7.25784e-21)
(1.0209 0.000926813 2.5567e-21)
(1.16 -0.0259259 6.46234e-23)
(0.998761 -0.00153885 -1.40307e-22)
(1.1423 0.0637443 2.79807e-22)
(1.03323 0.00532958 -4.67667e-21)
(0.998472 0.0766381 -1.91423e-20)
(0.959904 -0.0258613 1.73637e-21)
(0.993713 -0.000925445 7.1665e-23)
(0.945319 0.0512141 3.41175e-20)
(0.999955 -1.56596e-05 -9.28016e-25)
(1.00087 -0.00671769 6.59027e-23)
(1.00942 0.0288186 5.89899e-21)
(0.999984 -1.32843e-05 6.04355e-25)
(0.998384 -0.00412454 -2.69164e-22)
(0.996873 -0.000556437 -5.13741e-23)
(1.00274 0.0315008 -1.93722e-21)
(1.00134 0.0240558 7.19895e-21)
(0.93705 0.0561285 1.1545e-20)
(0.998153 -0.00396754 -1.49145e-22)
(0.998133 -0.000137476 -5.43551e-23)
(1.00001 -2.25814e-06 -4.2474e-26)
(0.97419 -0.00160711 -3.20757e-21)
(1.0003 -0.000402339 5.35919e-24)
(1.05082 -0.0344448 7.29007e-22)
(1.0063 -0.00293267 2.79219e-22)
(0.976269 -0.00257063 5.3841e-22)
(1.16565 -0.000609808 -6.00861e-22)
(1.09299 0.0702129 1.89699e-22)
(0.999901 -4.30047e-05 1.56501e-24)
(0.999594 -0.00046289 -3.03302e-23)
(1.02953 0.0640002 -2.92493e-21)
(0.999956 -1.02877e-05 -3.98937e-25)
(0.99994 -4.7868e-06 6.55221e-25)
(0.982893 0.078883 -1.96491e-20)
(1.05114 -0.0414447 -7.28892e-22)
(1.00898 -0.0627429 -2.33028e-21)
(0.98359 -0.0396231 -2.77238e-21)
(0.979817 -0.00433307 7.50446e-22)
(1.00721 -0.0444106 2.68415e-22)
(0.960187 -0.00366726 1.50436e-21)
(0.999983 -1.19095e-05 -1.89773e-25)
(0.971761 -0.0481656 -1.06912e-21)
(1.09517 0.0774115 -5.41316e-21)
(0.997261 -0.000947765 3.80621e-23)
(1.00006 -5.12567e-06 -9.43443e-25)
(1.06552 0.0724334 5.93812e-22)
(0.999033 -0.000237364 9.2014e-23)
(0.988418 -0.011436 5.62284e-22)
(1.00451 -0.0418024 8.68298e-22)
(1.00001 -1.54268e-06 -1.81355e-26)
(1.00065 -0.00160021 -2.05748e-23)
(1.02693 0.0504223 8.68403e-21)
(1.08203 0.0828964 -7.32165e-21)
(0.995924 0.0668545 -2.57382e-21)
(1.06494 -0.0827821 2.05092e-21)
(1.02661 -0.0715827 9.70691e-22)
(1.11851 -0.11926 -7.50209e-22)
(1.02064 -0.00198851 5.04817e-21)
(1.02498 0.047178 -2.75845e-21)
(0.999889 -6.93239e-06 -4.73796e-24)
(1.00003 -1.52998e-05 2.9495e-25)
(0.978008 0.00272689 -1.39374e-20)
(0.993023 -0.0112546 -2.1556e-22)
(0.999508 -0.000342817 -2.49051e-23)
(0.974174 -0.0474711 2.21986e-21)
(0.988241 -0.0101687 -4.14109e-22)
(1.00785 0.0720143 -2.14374e-20)
(1.00491 0.0692755 -4.47392e-21)
(0.982507 -0.0602138 8.33854e-22)
(0.9203 0.0265687 -1.2588e-20)
(0.999094 -0.000282647 -6.91417e-23)
(0.991466 -0.00138735 2.70717e-22)
(0.95713 -0.00785619 1.14081e-21)
(1.02916 0.000254858 -1.05318e-21)
(1.0101 -0.131214 -4.38157e-22)
(1.08238 0.124326 -1.27223e-20)
(0.94742 0.0430655 -2.90035e-20)
(1.00005 -8.19319e-05 7.58689e-25)
(1.00803 -0.00637612 1.43643e-22)
(1.0243 0.0173857 9.46841e-21)
(0.996586 -0.00480432 -3.6101e-22)
(1.02851 0.0156048 -1.19207e-21)
(0.999539 -0.000988769 -1.17948e-23)
(0.915188 0.0604533 2.33352e-20)
(0.999766 0.0707913 4.18646e-21)
(0.995301 -0.00137665 2.55312e-22)
(1.00283 -0.00725722 -2.75943e-24)
(0.999777 -3.38119e-05 -2.85517e-23)
(1.1168 0.0992373 2.74193e-21)
(0.999949 -5.40351e-06 1.64958e-24)
(0.995107 -0.00912672 1.85804e-22)
(0.939658 -0.0202844 1.79714e-21)
(0.999946 -1.56312e-05 -3.92778e-25)
(0.998883 -0.00231687 -3.94086e-23)
(0.999633 -0.000963066 1.67879e-23)
(1.05987 0.0437026 7.10271e-21)
(0.999984 -1.75357e-05 8.35719e-25)
(0.997375 -0.000181741 -1.28133e-25)
(0.955442 -0.0397361 5.69117e-21)
(0.941891 0.00701091 -7.11272e-21)
(1.07078 -0.00513753 -6.71438e-22)
(0.932913 0.0372841 1.72336e-20)
(0.999969 -3.6652e-06 -7.90593e-25)
(1.00213 -0.0424777 -1.83707e-23)
(0.999847 -0.00023424 -1.07207e-23)
(0.993483 0.0779414 -1.93127e-20)
(1.00318 -0.000670034 -1.192e-22)
(0.994117 0.0246505 8.38657e-21)
(1.00209 -0.00873846 5.1539e-23)
(1.00056 -0.00171025 1.68366e-23)
(1.027 -0.0316751 2.34042e-22)
(1.02056 -0.000995236 -4.67268e-21)
(1.00044 -0.000270862 1.33175e-23)
(0.999833 -2.88802e-05 1.75572e-25)
(1.00038 -0.000364597 2.79964e-23)
(0.996395 -0.00510683 -3.29813e-22)
(1.01606 -0.0655144 2.82839e-21)
(0.999969 -5.72295e-06 5.19145e-25)
(0.961699 -0.0247704 1.2159e-21)
(0.996959 -0.000687919 -1.21579e-23)
(0.999893 -2.69164e-05 2.97193e-24)
(0.999487 -0.000435236 8.33388e-24)
(0.987392 0.0435273 2.0456e-20)
(0.995626 -0.000248186 9.93423e-23)
(0.999524 -4.20042e-05 -6.49567e-24)
(0.967429 0.00179089 2.64427e-20)
(0.998762 -0.00221278 -8.35036e-23)
(1.0497 0.0935296 -6.98049e-21)
(0.999832 -0.000214246 1.76916e-23)
(1.00654 -0.0204914 -2.5712e-22)
(1.00001 -1.22706e-06 -2.16822e-26)
(0.98163 -0.0323571 -1.02658e-21)
(1.02864 1.86556e-05 1.65304e-21)
(1.1673 0.00904619 8.10273e-22)
(0.978564 -0.0165935 1.58812e-21)
(0.999657 -0.000470876 3.63815e-23)
(0.976876 -0.0783591 1.51437e-21)
(0.997331 -0.000116224 4.60901e-22)
(0.999904 -9.37985e-06 2.39514e-25)
(1.00037 -0.000318176 -2.47452e-23)
(0.998147 -0.0028924 1.22979e-22)
(0.994244 -0.00069068 -3.05143e-22)
(1.00246 -0.000813892 -1.31589e-22)
(0.998932 -0.00156035 4.96268e-23)
(0.977837 -0.00600429 1.94866e-22)
(1.02074 -0.0632058 -2.02285e-21)
(0.978627 -0.00470024 8.13676e-22)
(1.1352 -0.0316142 -1.61097e-22)
(0.973159 -0.00456302 -1.03757e-21)
(1.00716 0.0939082 2.21125e-21)
(1.00292 0.0960256 -1.62635e-20)
(0.998764 -0.000549594 -6.64768e-23)
(1.18994 0.00783332 -3.13303e-21)
(0.999988 -1.94942e-06 -3.10156e-26)
(0.998069 -0.00362824 -1.56177e-22)
(0.989531 -0.000534077 1.83325e-21)
(1.00703 0.0233786 4.87389e-21)
(1.03616 0.00998818 -4.48494e-21)
(1.00007 -2.66556e-05 2.38531e-24)
(0.998191 -0.00341859 -1.28138e-23)
(0.972879 -0.00551395 7.82188e-22)
(1.04593 0.0373386 -2.82913e-21)
(0.999159 -0.000948404 4.00642e-23)
(1.00277 -0.000679371 7.81727e-23)
(1.00098 -0.000843176 -5.3352e-24)
(1.11785 0.0246469 2.60691e-21)
(1.21118 -0.050285 -4.51593e-21)
(1.02413 0.116954 1.07094e-20)
(0.998891 -0.000113109 -5.62604e-23)
(1.06024 -0.0394124 1.04936e-21)
(0.999912 -4.73304e-05 -2.72894e-24)
(1.00393 -0.006448 -2.03832e-22)
(0.99996 -7.89952e-06 -2.7405e-25)
(0.985531 -0.0186577 2.93512e-22)
(0.999743 -4.03712e-05 -5.58839e-24)
(1.01072 -0.0202111 5.62748e-23)
(1.21394 0.0110167 3.63399e-21)
(0.973137 -0.0243435 2.03741e-21)
(1.00767 -0.0199619 4.78743e-23)
(1.00718 -0.00570571 -1.76337e-22)
(0.999481 -6.25858e-05 3.01047e-23)
(1.02406 -0.0163988 4.37017e-22)
(0.99626 -0.0170788 3.84652e-22)
(1.0717 0.0108931 -1.67293e-21)
(1.05513 0.0414879 3.1895e-21)
(1.17241 -0.130038 1.06499e-22)
(1.13945 -0.0492875 -2.30588e-21)
(0.995123 -0.000172362 -5.04503e-22)
(1.00422 -0.00320904 2.51133e-22)
(0.94223 -0.0191672 -6.72623e-22)
(0.929961 0.0536023 -3.53316e-20)
(1.11952 -0.0506916 2.64452e-21)
(1.02423 -0.00993029 -1.95056e-21)
(0.921592 0.0312159 -1.73773e-20)
(0.999035 -6.18509e-05 2.76711e-23)
(0.998543 -0.000687144 -2.1273e-23)
(1.15678 -0.0364011 -2.19661e-21)
(0.999044 -0.00170647 -3.29964e-23)
(1.01054 -0.0400883 2.7882e-22)
(1.00489 -0.00159257 9.3389e-23)
(0.998057 -0.00018653 -4.52242e-23)
(0.998525 -0.00016774 -7.1738e-23)
(1.0287 0.0227341 5.60218e-21)
(0.999944 -0.000115303 -6.76427e-25)
(1.00042 -0.000218449 -1.19034e-23)
(1.00006 -1.0643e-05 1.62687e-24)
(0.997374 -0.000349332 2.56042e-22)
(0.994085 -0.0078499 4.62037e-22)
(0.999988 -1.23481e-06 3.94827e-26)
(0.999147 -0.000140757 7.28744e-24)
(0.979587 -0.0143755 5.40403e-22)
(0.969306 0.00585543 8.78941e-21)
(1.00939 -0.0210199 1.97631e-22)
(0.993113 -0.0104982 7.99688e-22)
(0.962738 0.0451838 4.00043e-21)
(1.00044 0.0250597 1.30182e-20)
(1.06171 0.000354817 -1.28311e-21)
(1.18088 0.0134727 9.61362e-22)
(0.980042 -0.00121139 1.69616e-21)
(1.00417 -0.00369931 -1.20767e-22)
(1.00726 0.0380955 -7.30632e-22)
(0.991351 -0.0010751 -6.29263e-22)
(1.03104 0.0912033 3.18022e-22)
(1.00674 -0.0478226 4.25436e-23)
(1.03465 -0.116522 -1.72277e-21)
(1.07752 0.0794321 4.51361e-21)
(1.03298 0.0968566 -9.19839e-21)
(0.963718 -0.0207936 2.59715e-21)
(1.03715 0.00814748 -2.85427e-21)
(1.08723 0.129235 1.19467e-20)
(1.04395 0.0935093 1.32348e-20)
(1.02151 -0.00194839 1.58298e-21)
(0.997424 -0.00105466 6.35814e-23)
(0.996357 -0.00167121 5.89419e-23)
(0.999933 -1.43112e-05 -9.3882e-25)
(1.01494 -0.0263255 -8.97321e-23)
(0.991901 -0.000828051 1.48698e-22)
(1.00078 -0.00202359 -1.86175e-23)
(0.999922 -1.2811e-05 -1.83936e-24)
(0.998665 -0.000487716 2.61601e-23)
(0.974083 -0.0769055 -2.50604e-21)
(1.10136 0.0355619 1.50406e-21)
(0.984311 -0.00390004 -9.31993e-22)
(0.998945 -0.0110948 4.86254e-22)
(0.997086 -0.000377601 -1.43772e-22)
(1.0574 -0.0420279 -8.14538e-23)
(0.994341 -0.000787096 -4.90822e-22)
(1.00188 -0.00651855 3.07451e-23)
(1.10043 0.123488 1.91269e-21)
(0.998645 -0.000169822 -1.66531e-22)
(0.999982 -3.44806e-05 -8.5376e-25)
(0.999953 -0.00014028 -6.62918e-25)
(1.00003 -8.35721e-05 5.00457e-25)
(0.980233 -0.00519615 4.42743e-22)
(1.02725 0.0207239 -6.57634e-21)
(0.997265 -0.000213089 5.63899e-24)
(1.02052 -0.00856912 1.26041e-21)
(1.01867 -0.137276 3.31866e-21)
(0.990107 0.0674169 -3.19207e-22)
(1.00328 -0.00659193 5.82522e-23)
(1.00564 -0.00416712 -4.55693e-23)
(0.995544 -0.00184844 -2.0789e-22)
(0.991658 0.0439376 -2.00316e-20)
(0.999325 -5.21844e-05 2.08866e-23)
(1.02751 0.121325 -5.42812e-21)
(1.00766 0.0163323 -7.52629e-21)
(0.999913 -1.73976e-05 2.26022e-24)
(1.00463 -0.0486577 -1.37592e-21)
(0.997332 -0.000427386 -1.25068e-22)
(0.988981 -0.059838 3.90042e-21)
(1.00044 -0.000116932 1.21232e-23)
(1.05714 0.00282943 1.8454e-21)
(1.00602 -0.014792 2.33376e-24)
(1.00527 -0.00373465 1.29502e-23)
(0.999366 -7.90222e-05 -4.16071e-23)
(1.06471 0.0413693 3.40667e-21)
(1.0418 0.0356297 1.11939e-21)
(1.00669 -0.0655814 2.2253e-21)
(0.980107 -0.0173051 -1.03861e-22)
(0.998036 -0.00309377 -1.02715e-22)
(0.999158 -0.0383189 -2.49248e-21)
(1.13753 0.0541999 -2.67722e-21)
(0.921746 0.0169714 -1.59167e-20)
(1.08388 -0.0763453 -2.08557e-21)
(1.00434 -0.00698498 -1.71829e-23)
(0.999995 -2.16809e-06 -1.36125e-26)
(0.988031 -0.00330671 -7.27299e-22)
(0.998363 -0.000182791 1.59346e-22)
(1.0229 -0.0164958 6.0834e-22)
(1.00181 -0.108801 -1.35899e-21)
(1.18892 -0.00543971 1.45786e-21)
(0.981579 0.0615986 -2.54182e-20)
(1.04975 0.0345221 4.59519e-21)
(1.12016 -0.107084 3.17889e-21)
(1.0651 0.0787404 1.95712e-21)
(0.99883 0.0242146 2.35301e-20)
(1.01717 -0.00232868 1.08071e-21)
(1.00095 -0.00196283 4.69783e-23)
(1.01968 0.0530212 4.34706e-21)
(0.999217 -0.00166853 7.03706e-23)
(0.999852 -0.000124106 3.50791e-24)
(0.990046 -0.000600598 2.17817e-22)
(1.00007 -2.59844e-05 4.3482e-25)
(1.12869 -0.127783 1.69547e-21)
(1.00308 -0.0163311 -2.22501e-22)
(0.983817 -0.0319514 1.80326e-21)
(1.00153 -0.00135059 3.23901e-23)
(1.06023 0.0690392 1.02082e-20)
(0.998691 -0.000158868 -1.2452e-23)
(0.99998 -2.72004e-05 -6.02189e-26)
(1.02719 -0.121677 1.86751e-21)
(1.00135 -0.00116061 -1.89418e-23)
(1.10098 -0.00417261 -4.02654e-22)
(0.959056 -0.00875622 4.42327e-22)
(0.946579 -0.00930162 1.50069e-22)
(1.19334 0.0564572 -2.17692e-24)
(1.02209 0.0165095 -2.48005e-21)
(1.01883 0.00475624 1.50494e-21)
(1.01768 0.00446819 -5.92942e-22)
(0.99985 -2.11822e-05 9.38066e-25)
(1.1092 0.0350129 1.14722e-21)
(1.07207 0.014899 1.91943e-21)
(0.99956 -0.0005036 1.40218e-23)
(0.984828 -0.00447057 1.07328e-21)
(1.00049 -0.000172232 -1.35129e-23)
(1.01067 -0.0185393 -1.02101e-22)
(1.00755 -0.0266431 -1.59301e-22)
(1.00376 -0.00120564 1.3179e-24)
(0.999331 -0.00103168 -7.13469e-23)
(1.11559 0.0913035 -8.52019e-21)
(0.999983 -1.58374e-05 -8.74028e-25)
(1.00016 -8.85213e-05 -2.79776e-24)
(1.00164 -0.00091385 -1.63096e-24)
(0.985496 -0.00124902 6.75161e-22)
(1.01709 -0.01025 8.06068e-22)
(0.983345 -0.0264224 -2.40651e-21)
(0.97997 -0.00239263 -3.96417e-22)
(1.0124 -0.0620271 1.31365e-21)
(1.03949 -0.147677 -3.62374e-21)
(1.02516 -0.0289527 -5.42303e-23)
(1.02347 0.0540069 -2.4926e-20)
(1.20389 0.0169778 -2.50039e-21)
(0.994249 -0.00177224 -3.24915e-23)
(0.913449 0.0541365 2.75021e-20)
(0.973301 -0.0540999 3.8776e-21)
(0.993767 -0.00835179 1.49335e-22)
(0.982019 -0.00189402 6.67542e-22)
(0.997379 -0.0164954 -9.91082e-23)
(0.988306 -0.00092848 9.9855e-22)
(0.99108 -0.00268513 -2.06526e-22)
(1.02462 -0.0116968 -1.29158e-21)
(1.12806 -0.0543906 -6.05121e-22)
(0.999979 -3.19033e-05 -1.19192e-25)
(1.02099 -0.0112929 -1.60855e-22)
(0.999926 -1.82899e-05 -1.12745e-24)
(1.00227 0.0798816 5.13081e-21)
(1.13837 0.0778509 5.33294e-21)
(0.995861 -0.00134134 6.73576e-23)
(0.99152 -0.000628172 -8.55438e-22)
(0.999857 -3.16306e-05 -6.38675e-24)
(0.997226 0.0409076 1.49293e-20)
(1.02082 0.0943962 1.22158e-20)
(1.11182 0.0266299 -1.37608e-21)
(1.12154 0.117808 -7.2551e-21)
(0.973056 -0.0578251 -1.73396e-21)
(0.998771 0.00605654 -2.16932e-20)
(0.999948 -0.000101548 1.98846e-24)
(1.04504 -0.0249028 9.56452e-22)
(0.991976 -0.000505977 -2.95153e-23)
(1.08539 0.067575 -2.0204e-21)
(0.941293 0.0363568 -2.08396e-20)
(1.14152 0.047178 2.68987e-21)
(1.04476 0.0282821 7.77899e-22)
(0.999581 -0.0110011 -1.13556e-22)
(0.999842 -5.48067e-05 -6.38394e-24)
(1.12421 0.102592 2.92635e-21)
(1.19803 -0.0290842 7.84486e-22)
(0.993819 0.0464884 -4.86272e-22)
(1.09375 -0.00552907 1.94472e-21)
(1.02689 0.0436962 7.25572e-21)
(0.993962 -0.00149344 -9.54327e-23)
(0.987584 0.06262 6.98337e-21)
(1.02527 0.0899665 4.26398e-21)
(0.992144 -0.00223835 -5.76075e-22)
(0.993444 -0.00214559 -2.16163e-22)
(1.13541 0.092704 9.20055e-23)
(0.948172 -0.00831971 -2.75616e-21)
(0.99993 -0.00011802 -3.0603e-24)
(0.988521 -0.00372864 9.51659e-22)
(0.941321 -0.0142692 2.18779e-21)
(0.985556 -0.0756437 -5.28475e-22)
(1.00828 -0.00220445 -8.26306e-22)
(1.00719 -0.00517651 4.50283e-23)
(0.999897 -0.000146687 -5.36987e-24)
(1.02227 0.100076 -1.84864e-20)
(0.999926 -0.0099512 2.20083e-23)
(0.99992 -4.09984e-05 1.19315e-24)
(1.02052 -0.0577078 1.75977e-21)
(0.999591 -0.000319063 1.05451e-23)
(0.999827 -4.67938e-05 4.81474e-25)
(1.00437 -0.0107914 -1.28637e-23)
(1.04924 0.0681992 1.40163e-20)
(1.01835 -0.107664 2.54769e-21)
(0.955809 0.0402738 1.23759e-20)
(1.00005 -7.77256e-06 -1.15001e-24)
(1.05415 0.0721534 -1.46055e-20)
(1.0131 -0.0489904 1.25231e-21)
(0.999934 -0.00014563 -8.71281e-25)
(1.00002 -4.70576e-06 -2.79037e-25)
(1.00262 0.00995572 -1.23664e-21)
(1.04573 0.0584371 5.18276e-21)
(0.996602 -0.00180199 6.13497e-23)
(1.04239 0.0450838 -6.54751e-21)
(1.00002 -1.52644e-05 2.15031e-25)
(1.04223 0.0500834 -9.16806e-21)
(1.15651 -0.132659 4.20132e-21)
(0.991828 -0.00188996 6.18078e-22)
(0.999214 0.0113437 -3.01516e-20)
(0.974725 -0.0443746 2.522e-21)
(1.12581 0.111743 6.99868e-21)
(0.98234 -0.00178173 3.64209e-22)
(1.0464 0.0531572 1.19774e-20)
(1.05021 0.0618887 -3.74783e-21)
(0.985321 -0.00599506 1.64228e-21)
(0.980587 -0.00719226 -1.20988e-21)
(0.995265 -0.00844371 4.66546e-22)
(0.997734 -0.00042764 -4.3439e-23)
(0.999839 -0.0001386 9.42088e-24)
(0.999738 -0.0094823 -3.86417e-23)
(1.03526 0.0860761 -2.14824e-21)
(0.999978 -2.4638e-05 2.62109e-25)
(1.03825 0.0427742 8.67678e-21)
(1.03346 -0.107388 4.14657e-21)
(1.00264 0.0507478 5.98328e-21)
(1.0382 0.0385257 -9.79205e-21)
(0.941394 -0.0125295 -3.23143e-22)
(0.958524 0.0563793 -2.65091e-20)
(0.998687 -0.000857897 3.00489e-24)
(1.01464 -0.0241484 1.65905e-23)
(1.0526 -0.0758985 1.14886e-21)
(0.988685 -0.000782417 -6.83205e-23)
(0.994521 -0.00240347 2.90159e-22)
(1.01036 -0.0503379 -1.06586e-21)
(1.05143 -0.0166416 -1.13645e-22)
(0.929866 0.0285249 3.23831e-20)
(1.00003 -1.4659e-05 1.13267e-24)
(0.99845 -0.000904762 5.27138e-23)
(1.01792 -0.0744887 6.86306e-23)
(1.00001 -3.72923e-06 2.25227e-26)
(1.00211 0.0857326 2.54373e-21)
(1.00138 -0.000997967 0)
(1.00001 -4.90862e-06 1.44458e-26)
(1.00015 -6.89704e-05 6.42327e-24)
(1.00031 -9.68258e-05 1.55367e-25)
(0.985914 -0.0173489 1.52447e-21)
(1.02055 -0.0155074 -4.3423e-22)
(0.998761 -0.000649142 8.06072e-23)
(0.99994 -8.9358e-06 1.92849e-24)
(0.99418 -0.00218711 1.53473e-22)
(1.00375 -0.0112488 1.7604e-23)
(0.989537 -0.115944 -3.66985e-21)
(0.970749 -0.00215072 1.88719e-22)
(1.01642 -0.00912564 1.49497e-21)
(0.999985 -1.14064e-06 3.50971e-25)
(1.10682 -0.155588 5.18904e-21)
(0.989103 -0.00226085 -3.62863e-22)
(1.12236 0.0841423 -4.5136e-22)
(1.00015 0.0104587 -4.28443e-21)
(1.00095 -0.0029739 4.6867e-24)
(1.11048 0.0732758 -7.69348e-21)
(1.00011 -7.4591e-05 5.4189e-26)
(0.989434 -0.00273016 5.30054e-24)
(1.02091 0.000751693 -2.96123e-21)
(0.994511 -0.00281322 -1.19118e-22)
(1.04991 0.0813397 -8.14348e-22)
(0.989035 -0.00488302 -7.39295e-22)
(1.04639 -0.0223884 -9.57959e-22)
(1.02135 0.00136845 -3.20574e-21)
(1.05466 0.0366685 -2.0092e-21)
(1.00632 -0.013572 -7.22148e-23)
(0.99149 -0.00300749 1.67887e-23)
(1.07203 0.0690076 6.29892e-21)
(0.978058 -0.0833601 -3.00871e-21)
(0.991487 0.082714 2.12459e-20)
(0.99242 -0.0036108 -7.08269e-22)
(1.05142 0.105632 -1.23485e-22)
(0.992452 -0.00307131 1.90304e-22)
(0.999093 -0.00035495 -5.4087e-24)
(1.04438 0.0252761 2.15093e-21)
(1.01323 -0.0276469 1.60515e-22)
(1.03237 0.0027349 4.38387e-21)
(1.00142 -0.000705234 2.16283e-23)
(1.00001 -3.77045e-06 6.80121e-27)
(1.00301 -0.133905 1.38249e-21)
(1.09883 0.117071 -1.03649e-20)
(1.00116 -0.00288779 -1.37956e-23)
(1.11936 0.0753063 7.00881e-22)
(0.989675 -0.0045372 -4.85186e-22)
(1.09723 -0.163392 -1.96624e-21)
(1.04396 -0.0385576 -1.73143e-22)
(0.982868 -0.0282387 1.38118e-21)
(0.998664 -0.000731446 -3.53176e-23)
(0.994811 -0.000385425 -1.17368e-22)
(0.971982 -0.0698436 -1.71338e-21)
(0.974679 -0.0059229 1.62261e-21)
(0.992025 -0.00277194 4.77913e-22)
(0.999875 -0.00034353 6.84141e-24)
(0.984192 0.0867964 -2.6599e-21)
(1.10764 0.0651611 4.62344e-21)
(1.02173 -0.00946646 -4.95024e-22)
(0.999847 -0.000105337 5.79334e-24)
(1.02358 0.0844602 -8.15615e-21)
(1 -1.79696e-05 -6.12182e-26)
(0.999859 -9.35644e-05 1.08456e-23)
(1.09926 0.0635706 4.00067e-21)
(1.00914 -0.0228991 -1.40604e-22)
(1.10836 0.105747 8.29377e-21)
(1.02067 -0.00253804 1.1793e-21)
(1.01489 -0.0114098 -7.48975e-23)
(1.09318 -0.0622006 1.32267e-21)
(1.05736 -0.134321 4.10887e-21)
(1.19352 0.0485335 1.28033e-22)
(1.00099 -0.000707845 -4.48829e-23)
(0.959223 -0.0103481 -1.49487e-22)
(0.999985 -4.2805e-05 -2.78482e-25)
(1.00409 -0.00980528 1.24684e-23)
(1.05398 0.0779823 5.31226e-21)
(0.986154 -0.00560252 1.13615e-21)
(0.997758 -0.00105364 7.33765e-23)
(1.01345 -0.0387059 -8.66281e-22)
(0.998432 -0.000780446 3.53426e-24)
(0.999657 -0.000862789 2.23375e-23)
(0.968984 0.00315757 5.48564e-21)
(0.991939 -0.0038984 -4.03281e-22)
(0.999558 -0.000552454 -4.79142e-23)
(0.999993 -2.77723e-07 -3.01926e-26)
(1.01499 0.0056511 6.57659e-21)
(0.974037 -0.0225884 -2.87046e-22)
(0.999735 -0.000418988 1.48997e-23)
(0.997819 -0.000537333 8.86026e-23)
(1.02026 0.0183424 2.71874e-21)
(1.06172 0.010463 4.68354e-22)
(0.963862 -0.0184895 -1.62801e-21)
(1 -1.1283e-05 -1.00077e-25)
(1.00115 0.0108753 1.79701e-20)
(0.987294 -0.0149306 -1.02249e-21)
(1.06049 0.0628805 -1.01638e-20)
(1.01082 -0.00112394 -1.33392e-21)
(1.01254 -0.00111382 3.10929e-21)
(0.972342 -0.00794235 2.26125e-21)
(0.999928 -4.44489e-05 -7.99179e-25)
(1.0207 0.000250244 -6.04447e-22)
(1.06643 0.00811376 -5.93981e-22)
(1.17092 0.0534131 1.50078e-21)
(1.0401 -0.101823 9.40109e-22)
(1.03275 0.0807441 6.41387e-21)
(1.00471 -0.00144904 -1.9911e-23)
(1.07833 0.072899 -8.66743e-21)
(0.9996 -0.0129351 -1.75683e-22)
(1.0165 -0.0553024 -2.90902e-21)
(0.999704 -0.000108077 -1.05696e-23)
(1.00245 -0.0174277 4.44251e-22)
(0.999909 -0.000330512 4.20151e-24)
(1.04086 0.0308368 -6.41862e-21)
(1.06895 0.115342 -1.93667e-20)
(0.998808 -0.000894913 2.78065e-23)
(1.01616 -0.0115496 -1.20923e-23)
(0.98588 -0.00269128 3.79429e-22)
(1.04384 -0.0879712 4.42169e-22)
(1.03816 -0.0938269 -2.07744e-21)
(0.998523 -0.000592239 5.21432e-23)
(1.04178 -0.0255 -2.65341e-22)
(0.986718 0.00133666 -9.09728e-21)
(1.16724 0.0351405 5.85286e-22)
(0.999955 -0.000124569 4.98346e-24)
(1.05735 0.00775522 -1.64164e-21)
(0.997281 -0.00773871 -2.53608e-22)
(0.998779 0.00126882 1.9981e-20)
(0.989746 -0.00383249 6.56651e-22)
(0.995566 -0.0243725 -3.56806e-22)
(1.0159 -0.0341139 -1.32347e-23)
(0.994196 -0.0252046 -2.88638e-23)
(0.998156 -0.0192613 -8.87657e-22)
(0.993775 -0.00238089 1.04804e-22)
(0.998813 -0.012784 4.95093e-22)
(1.00147 -0.00546795 -8.43281e-24)
(1.05287 -0.0201625 2.94751e-22)
(1.00008 -1.9621e-05 -3.46478e-24)
(1.19633 -0.092953 -1.73534e-21)
(1.15282 -0.00496904 -3.74815e-22)
(1.0111 0.0961557 1.50825e-20)
(0.965848 -0.0174691 2.40627e-21)
(1.09998 0.101203 -4.23131e-21)
(1.00153 -0.000552179 8.01925e-23)
(1.06882 -0.0742791 -1.30733e-23)
(1.0035 -0.0363763 -9.90388e-22)
(1.01719 0.0317524 7.95954e-21)
(0.994148 -0.0030507 2.88231e-22)
(1.00008 -0.000142718 1.76781e-24)
(0.987876 -0.0156681 1.34372e-21)
(0.996029 -0.0082345 -1.77727e-22)
(1.03893 -0.0231731 8.35068e-22)
(0.977353 -0.00412313 -1.32288e-21)
(0.979732 -0.00644914 4.09987e-22)
(1.12316 -0.0325802 -1.89836e-22)
(0.989009 -0.00154577 -5.87539e-22)
(1.01342 -0.0357227 6.3702e-22)
(0.987187 -0.0805542 2.23809e-21)
(1.00001 -5.90063e-06 1.03917e-26)
(1.05411 -0.0128244 1.96415e-21)
(0.989201 -0.0716819 -5.96372e-21)
(1.10615 0.0878569 3.78088e-21)
(1.09376 -0.0695169 -2.45455e-21)
(1.03098 0.00227828 3.57314e-22)
(1.02564 -0.103693 -5.28383e-21)
(1.03033 0.107763 4.05176e-21)
(1.03243 -0.0338517 -1.66261e-22)
(0.971702 -0.00693509 -1.33216e-21)
(1.01323 -0.0454024 -1.54752e-21)
(0.98951 0.00192313 8.77677e-21)
(1.15765 -0.0981079 1.12256e-21)
(0.989226 -0.00343092 -2.04379e-22)
(1.02776 -0.131781 -4.01798e-22)
(1.02513 -0.0656066 2.03255e-21)
(1.04384 -0.120334 -6.9162e-22)
(1.04124 -0.0808947 -2.27701e-21)
(1.07179 0.0625517 7.88322e-21)
(0.997765 -0.00124187 4.3639e-24)
(1.00651 0.0364234 2.9676e-21)
(1.00636 -0.00137878 1.41239e-22)
(0.999686 -0.000421785 -2.01589e-23)
(0.998984 -0.00190562 1.88594e-22)
(1.05328 0.00144027 -5.29291e-22)
(0.986818 0.000209813 2.55554e-22)
(1.00115 -0.00584292 -2.03555e-23)
(1.0166 -0.0511884 4.07642e-22)
(1.02033 0.0209598 -4.53015e-21)
(1.00002 -5.65395e-06 -5.51464e-26)
(0.981638 -0.00674522 9.54725e-22)
(1.01932 -0.00878846 1.09406e-21)
(1.07137 -0.0388656 -5.2081e-22)
(1.00646 -0.000731382 8.03877e-22)
(0.998677 -0.00166315 3.10763e-23)
(0.983458 -0.0367804 1.33824e-23)
(0.997883 -0.00745931 -9.66818e-23)
(1.00002 -4.49111e-06 5.92029e-25)
(0.977012 -0.0435432 -4.27999e-21)
(1.0418 0.0755876 -2.21484e-21)
(1.01768 -0.0296968 2.16514e-22)
(0.986089 -0.00332015 -6.73373e-22)
(1.00139 -0.000360554 -2.84979e-23)
(1.02295 0.0226982 5.96443e-21)
(0.999685 -0.000515572 -9.48035e-24)
(0.999022 -0.000482952 -3.63114e-24)
(0.999728 -0.000121916 -1.02761e-23)
(0.999342 -0.00180442 -5.4575e-23)
(1.15812 0.0543494 1.73731e-21)
(1.02606 -0.0340276 -9.87929e-22)
(1.00667 -0.0171961 -7.92933e-23)
(0.98458 -0.00544966 -3.34082e-22)
(1.00003 -4.09342e-05 5.17828e-25)
(1.07752 -0.127307 5.60046e-21)
(1.19946 -0.0130517 7.70935e-23)
(1.08437 -0.137606 -2.67298e-21)
(0.996279 -0.0315042 -6.83336e-22)
(1.01163 -0.00842948 9.18202e-22)
(0.999841 -6.98708e-05 4.14314e-24)
(0.989823 -0.00987632 -4.89069e-22)
(0.957577 -0.0427432 -2.27311e-21)
(1.15654 0.0370359 3.80815e-22)
(1.00163 0.0490104 -2.02034e-22)
(0.998965 -0.0027442 4.6562e-23)
(0.945756 -0.0260486 1.10787e-21)
(0.996107 -0.00215615 -2.67406e-22)
(1.03044 -0.0311753 2.01824e-22)
(1.08386 0.0602542 8.09232e-22)
(1.00033 -0.000113574 -1.76387e-23)
(0.999876 -0.000168366 -2.36412e-24)
(1.13323 0.0990954 7.59164e-22)
(1.15178 0.0184915 1.38151e-22)
(1.01562 -0.0142827 3.0753e-22)
(0.997604 -0.00135854 1.32707e-22)
(0.998433 -0.000265727 -1.10164e-23)
(0.964686 -0.0443732 5.67892e-22)
(0.999858 -0.000284028 -8.62148e-24)
(1.01555 -0.0313483 -6.12161e-22)
(0.992686 -0.000474288 1.15954e-21)
(1.00036 0.0126196 -3.55401e-21)
(1.04517 0.080863 -1.15552e-21)
(1.06344 -0.0684989 1.09423e-21)
(0.993436 -0.0723358 2.17891e-21)
(1.00522 -0.00131528 3.84795e-22)
(1.01257 -0.0231593 9.75153e-23)
(1.14377 0.00192097 6.05813e-24)
(0.992698 -0.0811846 -1.3673e-21)
(1.01622 -0.0437053 9.00361e-22)
(0.999999 -5.53885e-06 2.96828e-26)
(1.13086 -0.0131808 -6.73503e-22)
(0.98648 -0.000856672 1.13379e-22)
(0.991436 -0.0909844 2.75025e-21)
(1.01717 -0.0272436 3.62008e-22)
(0.961225 -0.00988248 -2.9527e-22)
(0.999688 -0.000227872 -5.91625e-24)
(0.997598 -0.000963159 -5.73233e-23)
(1.03448 0.0364584 7.57103e-21)
(0.973862 -0.00740498 -4.85962e-22)
(0.999989 -1.26475e-06 1.06883e-25)