/*--------------------------------*- C++ -*----------------------------------*\
  =========                 |
  \\      /  F ield         | OpenFOAM: The Open Source CFD Toolbox
   \\    /   O peration     | Website:  https://openfoam.org
    \\  /    A nd           | Version:  7
     \\/     M anipulation  |
\*---------------------------------------------------------------------------*/
FoamFile
{
    version     2.0;
    format      ascii;
    class       volVectorField;
    location    "30.5";
    object      U;
}
// * * * * * * * * * * * * * * * * * * * * * * * * * * * * * * * * * * * * * //

dimensions      [0 1 -1 0 0 0 0];

internalField   nonuniform List<vector> 
7807
(
(1.067 0.139874 5.01781e-21)
(1.05499 -0.0417742 -1.30251e-21)
(0.982271 0.101068 -1.0555e-20)
(1.03122 0.0673149 1.37833e-20)
(0.999247 -0.000802523 -1.6147e-23)
(0.999972 -4.02583e-06 -4.26279e-25)
(0.981338 0.081079 -2.04073e-20)
(0.995228 -0.0012202 -3.21071e-24)
(0.999896 -0.000142309 -2.45997e-24)
(1.02267 0.00125776 -5.72291e-22)
(0.999973 -5.68044e-06 4.77642e-25)
(1.00192 -0.00111426 -4.58393e-23)
(0.992883 -0.00139992 1.54878e-22)
(1.01898 -0.00172854 -3.21569e-21)
(1.02196 0.00155916 2.43045e-21)
(0.990704 -0.0138294 -5.05516e-22)
(1.06941 0.146671 -1.05499e-20)
(0.990495 -0.00176188 -5.53156e-23)
(1.00176 -0.00898166 3.16532e-23)
(0.975066 -0.10621 -6.08587e-22)
(1.03401 -0.00409354 -1.10012e-21)
(1.00125 -0.000680037 7.64739e-23)
(1.01718 -0.00316879 2.50712e-22)
(1.00963 0.0290899 -6.83742e-21)
(0.987591 -0.00216896 -2.49032e-22)
(1.06197 0.137631 -4.98579e-21)
(0.999288 -0.000766458 -1.12626e-23)
(1.02235 -0.00181142 1.32345e-21)
(1.00451 0.0139479 -8.57181e-22)
(1.00313 -0.00962377 -3.40567e-23)
(0.985827 -0.0142103 -8.40407e-22)
(0.928602 0.0128663 2.84067e-21)
(1.01702 -0.00388142 1.5855e-21)
(0.999585 -0.000300391 1.57937e-23)
(0.999961 -3.03843e-06 1.53497e-26)
(1.02267 0.000347161 8.34854e-22)
(1.0036 -0.0105585 -2.07485e-23)
(0.986513 0.0796154 -3.21752e-21)
(0.996109 -0.00710923 4.11303e-22)
(0.999771 -2.55902e-05 9.58051e-24)
(0.996489 -0.00736943 -4.44197e-23)
(0.990884 -0.0128964 -1.68697e-22)
(1.00771 -0.117288 3.15296e-21)
(1.15782 -0.0402319 8.77035e-22)
(0.999929 -4.67538e-06 2.25556e-24)
(0.999946 -7.5384e-06 -5.23002e-25)
(1.0012 -0.000550074 -4.674e-23)
(0.995993 -0.00647415 -2.41354e-22)
(0.999947 -1.88276e-05 -5.79455e-25)
(0.980204 -0.107071 8.93788e-22)
(1.00285 -0.00098663 5.45073e-23)
(1.02204 -0.00110928 -1.36298e-21)
(0.984409 -0.00241614 -8.55686e-22)
(1.01026 -0.0306443 -9.34165e-23)
(1.02318 -0.000242626 -4.66144e-22)
(0.995687 -0.00193618 -3.0997e-23)
(1.00173 -0.00832584 -3.26822e-23)
(0.995329 -0.000989317 1.96317e-22)
(0.975726 -0.0165273 -1.41018e-21)
(0.999572 -0.000260839 -1.94229e-23)
(1.00003 -1.82605e-05 -3.20672e-25)
(1.00375 -0.00111825 6.32352e-23)
(1.01916 -0.00111905 -7.67683e-22)
(1.00209 -0.000975233 4.64231e-23)
(0.999301 -8.65856e-05 2.06307e-23)
(0.986368 -0.014883 1.24085e-22)
(0.999915 -0.000142718 2.14991e-24)
(1.00001 -2.04573e-06 -1.04298e-26)
(1.1496 0.0796371 1.40861e-21)
(0.996201 -0.00613366 -8.11296e-23)
(0.999945 -1.01174e-05 5.16602e-25)
(0.963592 -0.0584775 -3.60088e-21)
(0.987556 -0.00257331 1.27855e-22)
(0.980073 -0.00263447 1.61435e-22)
(0.990584 -0.00210646 1.76455e-22)
(0.961176 -0.0238144 -3.13322e-22)
(0.985943 0.103409 1.69975e-20)
(1.03228 -0.0040857 1.41079e-21)
(1.08478 0.00296161 -1.86967e-21)
(0.945933 -0.0441889 -3.84457e-21)
(0.993026 -0.0016668 -2.38349e-22)
(0.997519 0.0480969 1.93706e-20)
(1.03864 0.00668251 3.5549e-21)
(0.974578 -0.00666495 8.7654e-22)
(0.998674 -0.00211896 -3.47752e-23)
(0.998568 -0.000119757 1.94538e-23)
(0.994787 -0.00173809 2.99073e-22)
(0.98415 -0.00291414 5.43669e-22)
(0.999402 -0.000970034 1.86707e-23)
(0.99708 -0.000252587 7.68936e-23)
(1.00474 0.0158215 6.39162e-21)
(1.19013 -0.0204961 -1.42647e-21)
(0.999893 -3.33115e-05 -1.73858e-24)
(1.00137 -0.00699975 -1.21964e-23)
(0.996958 -0.000607413 7.65179e-23)
(0.98661 -0.000864159 -1.24087e-21)
(0.966494 -0.0582205 2.00308e-22)
(1.01212 -0.0294831 3.05655e-22)
(0.998549 -0.00202916 1.07191e-23)
(0.99921 -9.3711e-05 7.95933e-24)
(0.954238 -0.00956057 6.42667e-22)
(1.0853 0.0082194 1.70636e-21)
(0.997063 -0.000753392 -1.87214e-22)
(0.999991 -6.01023e-07 -2.47954e-26)
(1.19247 -0.00760978 -1.07433e-21)
(1.0279 0.030108 -6.08108e-21)
(0.955875 0.0111299 3.24808e-21)
(0.995419 -0.00177271 -1.20222e-22)
(0.999993 -1.9405e-06 9.71878e-27)
(1.02429 -0.0136478 -4.31357e-22)
(1.03468 0.0640596 -1.60142e-20)
(1.02635 -0.0842573 -4.17053e-21)
(0.999992 -2.27546e-06 -1.87975e-26)
(1.02596 -0.0140456 -9.1885e-23)
(1.02485 0.0285569 6.40657e-21)
(1.00034 -0.000492314 -1.93287e-24)
(1.07951 -0.0984866 -2.97888e-22)
(1.02851 0.0172414 -1.43039e-21)
(0.978903 -0.0457737 1.62632e-21)
(0.977679 -0.00375236 -1.92347e-22)
(0.963418 -0.00430892 -1.40172e-21)
(1.00038 0.0222504 -1.25089e-20)
(1.01522 -0.11541 -4.31868e-21)
(1.00893 -0.00769137 2.34225e-23)
(0.960428 -0.00565421 5.25966e-22)
(0.999129 -0.00112287 4.35513e-23)
(0.987459 -0.0104834 2.73443e-22)
(1.0023 -0.00792038 2.72855e-23)
(0.999378 -5.74437e-05 -4.7632e-23)
(0.986064 -0.0129778 2.11121e-23)
(1.23055 -0.0345471 -8.27634e-22)
(1.07906 0.000390763 3.27929e-22)
(0.999476 -0.000419191 1.82641e-24)
(0.999304 -0.000985542 -3.84381e-23)
(0.974412 -0.0056204 2.39956e-22)
(1.03272 0.0573518 5.8078e-21)
(0.996549 0.016433 2.20455e-20)
(0.999988 -1.06419e-06 -1.91091e-26)
(1.00656 -0.00299659 3.06858e-23)
(0.955991 -0.00558268 -1.91887e-21)
(0.98425 -0.00152984 -6.76437e-22)
(0.983412 -0.0662198 -2.73903e-21)
(0.961315 -0.0262539 4.26345e-22)
(0.9815 -0.0023464 -1.66678e-23)
(0.959737 0.0079691 1.22691e-20)
(1.01147 -0.0482191 -1.22444e-22)
(1.00992 0.0176444 -3.23251e-21)
(0.977686 -0.0207699 -7.95327e-22)
(0.979058 -0.00195404 1.94577e-22)
(0.999883 0.0361277 -6.23569e-21)
(1.02297 0.000736473 2.04443e-21)
(1.17635 -0.024776 -8.45321e-23)
(0.998636 -0.00166857 -1.06399e-22)
(1.15544 0.0714094 7.62929e-23)
(1.03664 0.00621105 -3.69886e-21)
(0.997599 0.0847381 -1.64758e-20)
(0.954418 -0.0282232 1.31496e-21)
(0.993476 -0.000914078 5.0927e-23)
(0.940414 0.0544643 2.98513e-20)
(0.999952 -1.5795e-05 -5.49092e-25)
(1.00091 -0.00739848 6.78552e-23)
(1.00961 0.0318784 4.96243e-21)
(0.999983 -1.38568e-05 3.95171e-25)
(0.998173 -0.00448992 -2.16422e-22)
(0.996697 -0.000557309 -3.57138e-23)
(1.0026 0.031777 -1.63853e-21)
(1.00121 0.0216361 6.11358e-21)
(0.931301 0.0594454 1.01276e-20)
(0.997912 -0.00431438 -1.16729e-22)
(0.998177 -0.00013471 -3.75704e-23)
(1.00001 -2.76059e-06 1.41989e-26)
(0.975087 -0.00154565 -2.09038e-21)
(1.00033 -0.000440005 2.75647e-24)
(1.05684 -0.0376313 1.51033e-21)
(1.00687 -0.00323399 2.01485e-22)
(0.976374 -0.00250232 3.63052e-22)
(1.1815 0.00262515 -1.11766e-21)
(1.102 0.0783472 1.22457e-22)
(0.999893 -4.45015e-05 9.53701e-25)
(0.999555 -0.000493937 -2.21643e-23)
(1.03215 0.0712199 -2.46143e-21)
(0.999954 -9.72977e-06 -2.1791e-25)
(0.999943 -4.37839e-06 3.84002e-25)
(0.980271 0.0867308 -1.70363e-20)
(1.05746 -0.0454502 -1.03395e-21)
(1.01034 -0.0704311 -2.15775e-21)
(0.981231 -0.0443506 -2.31768e-21)
(0.978509 -0.00441909 5.34604e-22)
(1.00811 -0.0496413 2.53144e-22)
(0.960832 -0.0036744 1.07543e-21)
(0.999981 -1.24185e-05 -1.16071e-25)
(0.96762 -0.0541011 -8.8747e-22)
(1.10435 0.0862099 -4.06947e-21)
(0.996998 -0.00098503 2.64628e-23)
(1.00006 -5.49997e-06 -3.6331e-25)
(1.07173 0.0807527 4.78182e-22)
(0.998956 -0.000242553 6.1789e-23)
(0.986983 -0.0124866 4.34463e-22)
(1.00502 -0.0467326 8.099e-22)
(1.00001 -1.6308e-06 7.69338e-27)
(1.00071 -0.00175015 -9.49383e-24)
(1.02918 0.0563923 7.30613e-21)
(1.09007 0.0922983 -5.767e-21)
(0.995123 0.0739224 -2.21948e-21)
(1.07439 -0.0912941 2.11546e-21)
(1.03064 -0.0799912 9.16621e-22)
(1.13583 -0.128896 -7.92439e-22)
(1.02278 -0.00179818 4.00456e-21)
(1.02709 0.0526044 -2.31069e-21)
(0.999896 -6.19805e-06 -2.70302e-24)
(1.00003 -1.64859e-05 6.71218e-26)
(0.979419 0.00273194 -1.21006e-20)
(0.992124 -0.0123902 -1.68523e-22)
(0.99946 -0.000365013 -1.731e-23)
(0.970406 -0.0533138 1.84435e-21)
(0.986815 -0.0110789 -3.21774e-22)
(1.00807 0.0799613 -1.8335e-20)
(1.00494 0.0768444 -3.81696e-21)
(0.980065 -0.0679299 7.13963e-22)
(0.918849 0.027021 -1.10495e-20)
(0.999015 -0.000291609 -4.68405e-23)
(0.991108 -0.00138002 1.90818e-22)
(0.95546 -0.00794163 7.85568e-22)
(1.03205 0.00039222 -8.26391e-22)
(1.01406 -0.149068 -3.99129e-22)
(1.09091 0.138038 -1.0169e-20)
(0.943296 0.0454675 -2.53535e-20)
(1.00005 -8.77868e-05 1.27022e-25)
(1.00893 -0.00705134 1.0379e-22)
(1.02645 0.0196158 7.79235e-21)
(0.996189 -0.00524157 -2.78746e-22)
(1.03117 0.0176394 -9.75688e-22)
(0.999489 -0.00106898 -9.39431e-24)
(0.908338 0.063478 2.05129e-20)
(0.999215 0.0783676 3.62265e-21)
(0.99486 -0.00142718 1.80457e-22)
(1.00306 -0.00802086 -1.30158e-24)
(0.999771 -3.23934e-05 -1.76733e-23)
(1.12824 0.109906 1.98797e-21)
(0.999952 -4.78712e-06 8.25817e-25)
(0.994493 -0.00999612 1.48938e-22)
(0.933917 -0.0214709 1.30309e-21)
(0.999942 -1.56169e-05 -2.06356e-25)
(0.99874 -0.00251547 -3.03819e-23)
(0.999591 -0.00104162 1.2827e-23)
(1.06579 0.0491165 5.69997e-21)
(0.999983 -1.84836e-05 5.72864e-25)
(0.997465 -0.00017076 -1.81664e-25)
(0.948843 -0.0441869 4.47752e-21)
(0.943448 0.00701353 -6.23808e-21)
(1.07833 -0.00469504 -4.21796e-22)
(0.929159 0.038649 1.51045e-20)
(0.999969 -3.26486e-06 -3.73409e-25)
(1.00229 -0.0475144 -1.15366e-23)
(0.999832 -0.000250817 -7.82446e-24)
(0.99204 0.0859971 -1.66982e-20)
(1.00352 -0.000764029 -8.33654e-23)
(0.994606 0.0241423 7.24269e-21)
(1.00222 -0.00963467 8.21515e-23)
(1.00061 -0.00188622 5.10943e-24)
(1.03023 -0.0350083 4.01609e-22)
(1.0227 -0.000901637 -3.70576e-21)
(1.00048 -0.000295917 7.88396e-24)
(0.999827 -2.79497e-05 1.23515e-25)
(1.00042 -0.000397661 1.58057e-23)
(0.995975 -0.00557538 -2.57186e-22)
(1.0185 -0.0733916 2.69245e-21)
(0.999968 -5.07349e-06 2.3794e-25)
(0.956483 -0.027015 9.24887e-22)
(0.996727 -0.000695908 -9.10738e-24)
(0.999886 -2.67169e-05 1.79809e-24)
(0.999435 -0.000465897 5.82549e-24)
(0.986899 0.047176 1.77139e-20)
(0.99579 -0.000233339 6.86374e-23)
(0.999536 -3.87314e-05 -4.06903e-24)
(0.968763 0.00172913 2.30919e-20)
(0.998607 -0.00239787 -6.36656e-23)
(1.05419 0.104145 -5.77042e-21)
(0.999816 -0.000228631 1.2588e-23)
(1.00717 -0.0226717 -2.81581e-22)
(1.00001 -1.59666e-06 -1.14166e-27)
(0.979058 -0.0360475 -8.35446e-22)
(1.03144 -6.28917e-05 1.30657e-21)
(1.18294 0.0130607 2.03171e-21)
(0.975801 -0.0181176 1.21193e-21)
(0.999621 -0.000503492 2.67496e-23)
(0.973745 -0.0889701 1.2755e-21)
(0.997544 -0.00010811 3.15048e-22)
(0.999911 -8.39964e-06 8.79892e-26)
(1.0004 -0.00034869 -1.39504e-23)
(0.997938 -0.00314918 9.54565e-23)
(0.994116 -0.000669438 -2.13262e-22)
(1.00265 -0.00089668 -8.97565e-23)
(0.998819 -0.00168845 3.76087e-23)
(0.975951 -0.00620655 1.42154e-22)
(1.02375 -0.0707247 -1.91227e-21)
(0.97723 -0.00480087 5.80703e-22)
(1.14985 -0.0318596 -2.18756e-22)
(0.972172 -0.00456717 -7.33526e-22)
(1.00678 0.104066 1.90346e-21)
(1.00201 0.106313 -1.39764e-20)
(0.998643 -0.000578088 -4.63867e-23)
(1.20669 0.0123986 -4.7872e-21)
(0.999988 -1.83129e-06 -8.0583e-27)
(0.997836 -0.00395461 -1.22815e-22)
(0.990058 -0.000500104 1.2453e-21)
(1.0072 0.0259012 4.09661e-21)
(1.03967 0.0115746 -3.58481e-21)
(1.00008 -2.71652e-05 1.03283e-24)
(0.997982 -0.00372827 -1.03534e-23)
(0.971381 -0.00558277 5.52956e-22)
(1.05035 0.0419196 -2.30559e-21)
(0.999069 -0.00101991 2.92858e-23)
(1.00305 -0.000724048 5.43134e-23)
(1.00106 -0.000927341 -3.28117e-24)
(1.12958 0.0289217 1.29684e-21)
(1.23048 -0.0485399 -5.13565e-21)
(1.02558 0.130219 9.1196e-21)
(0.99889 -0.000113132 -3.76538e-23)
(1.06749 -0.0429073 1.78471e-21)
(0.999905 -4.9169e-05 -1.74561e-24)
(1.00427 -0.00711282 -1.22844e-22)
(0.999958 -7.78701e-06 -1.50136e-25)
(0.983627 -0.020554 2.3092e-22)
(0.999734 -3.97396e-05 -3.48258e-24)
(1.01187 -0.0224166 3.34786e-23)
(1.23101 0.0163924 5.10017e-21)
(0.969496 -0.0268075 1.58929e-21)
(1.00845 -0.0220803 6.31563e-23)
(1.00796 -0.00631216 -1.24723e-22)
(0.999476 -5.75598e-05 1.92256e-23)
(1.02663 -0.017954 2.9842e-22)
(0.995705 -0.0189116 3.30208e-22)
(1.07902 0.012966 -1.19142e-21)
(1.06058 0.0465957 2.56207e-21)
(1.19387 -0.136557 1.51333e-22)
(1.15505 -0.0509964 -2.75444e-21)
(0.995452 -0.00016385 -3.45861e-22)
(1.00461 -0.00353924 1.73605e-22)
(0.936788 -0.0202414 -4.8417e-22)
(0.924134 0.0564098 -3.09667e-20)
(1.13348 -0.0533282 3.35534e-21)
(1.02688 -0.0108212 -1.45035e-21)
(0.919078 0.0318962 -1.52601e-20)
(0.999056 -6.03808e-05 1.85504e-23)
(0.998399 -0.000724138 -1.4988e-23)
(1.17326 -0.0362273 -2.70257e-21)
(0.99894 -0.00185326 -2.59431e-23)
(1.01184 -0.0447426 2.7473e-22)
(1.00536 -0.0017015 6.55047e-23)
(0.998075 -0.000178884 -3.01032e-23)
(0.998521 -0.000160966 -4.80359e-23)
(1.03148 0.025513 4.61568e-21)
(0.999938 -0.000122455 -5.75782e-25)
(1.00046 -0.000243274 -7.05384e-24)
(1.00007 -1.07495e-05 6.34671e-25)
(0.99732 -0.000341524 1.70522e-22)
(0.99337 -0.00858517 3.59758e-22)
(0.999988 -1.12633e-06 1.78188e-26)
(0.999106 -0.000140748 4.84592e-24)
(0.977009 -0.0156269 4.08232e-22)
(0.970444 0.00600315 7.64853e-21)
(1.01036 -0.0232858 2.19596e-22)
(0.992234 -0.0115551 6.32855e-22)
(0.959574 0.0484829 3.4889e-21)
(1.00039 0.0222481 1.11379e-20)
(1.06825 0.00129131 -9.01256e-22)
(1.19712 0.0181536 1.57805e-21)
(0.980967 -0.00116174 1.08823e-21)
(1.00456 -0.00410122 -8.28153e-23)
(1.00775 0.0421904 -6.24223e-22)
(0.991212 -0.0010463 -4.35282e-22)
(1.03351 0.101421 2.54559e-22)
(1.00761 -0.0534822 4.34965e-23)
(1.04166 -0.130927 -1.63653e-21)
(1.08505 0.0884452 3.57778e-21)
(1.03564 0.107739 -7.7628e-21)
(0.958956 -0.0225211 1.94058e-21)
(1.04069 0.00951219 -2.25312e-21)
(1.09639 0.143408 9.52336e-21)
(1.0478 0.104084 1.10496e-20)
(1.02376 -0.00211784 1.24955e-21)
(0.997169 -0.00110596 4.51308e-23)
(0.995982 -0.00176609 4.24954e-23)
(0.999929 -1.46239e-05 -5.0518e-25)
(1.01662 -0.0291985 -1.28808e-22)
(0.991957 -0.000810815 1.00963e-22)
(1.00084 -0.00219986 -8.67616e-24)
(0.999919 -1.25333e-05 -1.03998e-24)
(0.998542 -0.000507254 1.83449e-23)
(0.970471 -0.0873656 -2.12088e-21)
(1.11137 0.0405563 1.01981e-21)
(0.983023 -0.00399236 -6.69332e-22)
(0.998732 -0.0122105 4.23747e-22)
(0.997024 -0.000372538 -1.00125e-22)
(1.06433 -0.0459647 -1.14817e-22)
(0.994161 -0.000773023 -3.44646e-22)
(1.00203 -0.00716735 3.32848e-25)
(1.11078 0.136667 1.52977e-21)
(0.998627 -0.000166321 -1.12069e-22)
(0.99998 -3.66619e-05 -6.46961e-25)
(0.999947 -0.000150295 -5.20672e-25)
(1.00004 -8.93708e-05 -3.23488e-25)
(0.978584 -0.00536469 3.2124e-22)
(1.02994 0.0233448 -5.40054e-21)
(0.997307 -0.000202087 3.87845e-24)
(1.02269 -0.00942175 9.40563e-22)
(1.02428 -0.155557 3.11925e-21)
(0.988678 0.0743685 -2.73889e-22)
(1.00355 -0.00724189 3.16315e-23)
(1.00615 -0.00458648 -3.29856e-23)
(0.995081 -0.00194319 -1.47919e-22)
(0.991488 0.0472874 -1.73347e-20)
(0.999342 -5.26627e-05 1.34821e-23)
(1.02933 0.135174 -4.60158e-21)
(1.00767 0.01818 -6.28557e-21)
(0.999909 -1.69323e-05 1.29814e-24)
(1.0052 -0.0544382 -1.24684e-21)
(0.99721 -0.00041581 -8.29744e-23)
(0.987487 -0.0674618 3.38057e-21)
(1.00048 -0.000131716 7.30666e-24)
(1.06319 0.00390554 1.32291e-21)
(1.00659 -0.016378 3.72951e-24)
(1.00575 -0.00417153 7.08714e-24)
(0.999353 -7.58282e-05 -2.70812e-23)
(1.07098 0.0466046 2.68556e-21)
(1.04585 0.0399747 9.07549e-22)
(1.00784 -0.0736934 2.03695e-21)
(0.977526 -0.0189481 -7.81333e-23)
(0.997814 -0.00337073 -7.91985e-23)
(0.998972 -0.0428813 -2.24389e-21)
(1.15041 0.0611184 -1.50194e-21)
(0.922088 0.0170467 -1.39747e-20)
(1.09523 -0.0832261 -2.23565e-21)
(1.00474 -0.0077161 -4.30728e-24)
(0.999994 -2.65997e-06 -9.12993e-27)
(0.986946 -0.00341327 -5.21058e-22)
(0.998354 -0.000178466 1.08315e-22)
(1.02528 -0.018202 4.07718e-22)
(1.00355 -0.123506 -1.22981e-21)
(1.20609 -0.00172794 2.03143e-21)
(0.979487 0.0675663 -2.20583e-20)
(1.05455 0.0388562 3.697e-21)
(1.13695 -0.115376 3.3239e-21)
(1.07125 0.0877067 1.57506e-21)
(0.998911 0.0217115 2.03073e-20)
(1.01866 -0.00245011 8.33158e-22)
(1.00103 -0.00214033 2.41047e-23)
(1.0213 0.0592307 3.67388e-21)
(0.999126 -0.00181415 5.4838e-23)
(0.999838 -0.000131789 2.46337e-24)
(0.990394 -0.000562451 1.44897e-22)
(1.00007 -2.69635e-05 1.77692e-25)
(1.14745 -0.137562 1.72099e-21)
(1.00333 -0.0180992 -2.17715e-22)
(0.981527 -0.0356124 1.48377e-21)
(1.00167 -0.00147208 2.05033e-23)
(1.06593 0.0770307 8.29485e-21)
(0.998673 -0.000154718 -8.08114e-24)
(0.999979 -2.88519e-05 -3.56224e-26)
(1.03335 -0.137213 1.76157e-21)
(1.00147 -0.00127602 -1.20435e-23)
(1.11157 -0.00294304 -2.83615e-22)
(0.956791 -0.0089026 3.18276e-22)
(0.94526 -0.00949089 8.16368e-23)
(1.20879 0.0637792 1.45842e-22)
(1.02394 0.0186986 -2.04093e-21)
(1.02045 0.00547385 1.23623e-21)
(1.01913 0.00516183 -4.80229e-22)
(0.999847 -2.05959e-05 5.94532e-25)
(1.11995 0.0400337 7.44126e-22)
(1.07935 0.0174267 1.3581e-21)
(0.999514 -0.000538294 1.02244e-23)
(0.983395 -0.00462691 7.68146e-22)
(1.00052 -0.000187214 -8.15171e-24)
(1.01181 -0.0205527 6.77393e-23)
(1.00829 -0.0296539 -1.62388e-22)
(1.0041 -0.00131731 8.62233e-25)
(0.999257 -0.0011123 -5.35107e-23)
(1.12677 0.101275 -6.2251e-21)
(0.999982 -1.66236e-05 -5.69948e-25)
(1.00017 -9.71888e-05 -1.43799e-24)
(1.00175 -0.00100324 -1.18036e-24)
(0.985751 -0.00121102 4.7447e-22)
(1.0189 -0.0113036 5.74713e-22)
(0.981056 -0.0293302 -1.94287e-21)
(0.979977 -0.00236301 -2.78443e-22)
(1.01425 -0.0695583 1.21745e-21)
(1.04881 -0.16627 -3.43979e-21)
(1.02814 -0.0320459 -1.51952e-22)
(1.02538 0.060348 -2.1e-20)
(1.2207 0.0224152 -3.40607e-21)
(0.993696 -0.00184159 -2.39676e-23)
(0.907423 0.0564857 2.41989e-20)
(0.969401 -0.060967 3.21079e-21)
(0.993004 -0.00912936 1.16327e-22)
(0.982259 -0.00184389 4.70985e-22)
(0.996946 -0.018266 -8.35272e-23)
(0.988712 -0.000897659 6.91954e-22)
(0.990221 -0.00277971 -1.47844e-22)
(1.02725 -0.012659 -9.31829e-22)
(1.14299 -0.0570794 -7.85439e-22)
(0.999977 -3.37356e-05 -8.78545e-26)
(1.02327 -0.0124026 -1.24042e-22)
(0.999922 -1.83438e-05 -6.59758e-25)
(1.00171 0.0884418 4.41156e-21)
(1.15126 0.0865111 3.35731e-21)
(0.995461 -0.00139255 4.85383e-23)
(0.991749 -0.000600496 -5.87684e-22)
(0.999849 -3.16506e-05 -3.94444e-24)
(0.997487 0.042752 1.28644e-20)
(1.02208 0.104878 1.03838e-20)
(1.12292 0.0309926 -6.5712e-22)
(1.13354 0.129939 -5.24318e-21)
(0.969134 -0.0652561 -1.4625e-21)
(0.998826 0.00503347 -1.88e-20)
(0.999943 -0.0001082 1.48128e-24)
(1.05018 -0.0271667 3.18334e-22)
(0.992382 -0.000485956 -1.76914e-23)
(1.09365 0.0754445 -1.55776e-21)
(0.937723 0.0378266 -1.82335e-20)
(1.15475 0.0535782 9.71224e-22)
(1.04906 0.03189 6.22902e-22)
(0.99944 -0.0121115 -1.03387e-22)
(0.999829 -5.61414e-05 -4.03945e-24)
(1.13628 0.113445 2.08734e-21)
(1.21646 -0.0265969 9.80155e-22)
(0.993487 0.0508628 -4.10118e-22)
(1.1037 -0.00455897 6.3663e-22)
(1.02912 0.0488502 6.102e-21)
(0.993452 -0.00152689 -6.88252e-23)
(0.986014 0.0689196 6.05104e-21)
(1.02708 0.0999866 3.59772e-21)
(0.991413 -0.00231753 -4.12833e-22)
(0.992793 -0.00223029 -1.55949e-22)
(1.14816 0.102523 3.54622e-23)
(0.947455 -0.00848365 -1.85881e-21)
(0.999923 -0.00012532 -2.26983e-24)
(0.987372 -0.00388724 6.86028e-22)
(0.937711 -0.0147863 1.53624e-21)
(0.983767 -0.0856786 -4.46875e-22)
(1.00912 -0.00237035 -6.08931e-22)
(1.00799 -0.0057307 2.96917e-23)
(0.999887 -0.000155916 -3.93042e-24)
(1.02366 0.111229 -1.57287e-20)
(0.999818 -0.0109955 1.96544e-23)
(0.999913 -4.25142e-05 7.57873e-25)
(1.02341 -0.0644774 1.74252e-21)
(0.999553 -0.000339194 7.36883e-24)
(0.999815 -4.64328e-05 3.12431e-25)
(1.00476 -0.0119146 3.6704e-24)
(1.05374 0.0761347 1.15301e-20)
(1.02258 -0.121556 2.38361e-21)
(0.952477 0.0427449 1.08154e-20)
(1.00005 -7.77727e-06 -4.31555e-25)
(1.0592 0.0804751 -1.1978e-20)
(1.01485 -0.0547467 1.19411e-21)
(0.999928 -0.000156603 -6.4533e-25)
(1.00002 -5.14492e-06 -4.12047e-26)
(1.0024 0.0100936 -1.03046e-21)
(1.04996 0.065268 4.27546e-21)
(0.996248 -0.00191475 4.48517e-23)
(1.04632 0.0504413 -5.39377e-21)
(1.00002 -1.65568e-05 3.78734e-26)
(1.04604 0.0559942 -7.53276e-21)
(1.17748 -0.140755 4.39032e-21)
(0.991178 -0.00193093 4.39411e-22)
(0.999248 0.00978787 -2.60776e-20)
(0.971058 -0.0497572 2.07971e-21)
(1.13806 0.123239 4.96392e-21)
(0.982519 -0.00172831 2.47402e-22)
(1.05068 0.059432 9.85528e-21)
(1.05488 0.0691302 -3.09501e-21)
(0.983697 -0.00633716 1.20286e-21)
(0.97851 -0.00757872 -8.82267e-22)
(0.994669 -0.0092583 3.70863e-22)
(0.997596 -0.000430668 -3.01633e-23)
(0.999824 -0.000146912 6.48804e-24)
(0.999603 -0.0104889 -3.48165e-23)
(1.03822 0.0957646 -1.8142e-21)
(0.999976 -2.59656e-05 1.76503e-25)
(1.04184 0.0478554 7.14787e-21)
(1.03989 -0.120555 3.97015e-21)
(1.00281 0.0567933 5.14076e-21)
(1.04179 0.0431232 -8.07301e-21)
(0.938568 -0.0129231 -2.4464e-22)
(0.954437 0.0607738 -2.31572e-20)
(0.998556 -0.000914721 1.92544e-24)
(1.01626 -0.0267573 -6.61128e-23)
(1.06018 -0.0840504 1.16129e-21)
(0.98908 -0.000749216 -5.02306e-23)
(0.993942 -0.00254153 2.10047e-22)
(1.01175 -0.056284 -1.00492e-21)
(1.05722 -0.017852 -4.56684e-23)
(0.9275 0.0291934 2.83638e-20)
(1.00003 -1.54577e-05 3.20484e-25)
(0.998294 -0.000962642 3.73472e-23)
(1.02081 -0.083572 7.20649e-23)
(1.00001 -4.04948e-06 -7.11556e-27)
(1.0014 0.0948558 2.19069e-21)
(1.00151 -0.00110465 0)
(1.00001 -5.48777e-06 -8.14081e-27)
(1.00016 -7.50866e-05 3.25535e-24)
(1.00033 -0.000107951 8.7926e-26)
(0.984069 -0.0191003 1.20314e-21)
(1.02288 -0.0171153 -2.87266e-22)
(0.998638 -0.000689444 5.67729e-23)
(0.999939 -8.6214e-06 1.06418e-24)
(0.993583 -0.00229491 1.09352e-22)
(1.00409 -0.012411 2.99347e-23)
(0.98953 -0.132293 -3.32001e-21)
(0.97171 -0.00210621 1.26307e-22)
(1.01817 -0.010077 1.10157e-21)
(0.999986 -1.03876e-06 1.42092e-25)
(1.12494 -0.169825 5.14887e-21)
(0.988342 -0.0022991 -2.58018e-22)
(1.13405 0.0934842 -2.89358e-22)
(1.00013 0.00877931 -3.66432e-21)
(1.00102 -0.00324989 -2.99119e-25)
(1.12109 0.0817332 -5.53092e-21)
(1.00012 -8.02821e-05 4.84908e-26)
(0.988515 -0.0028088 2.57359e-24)
(1.02293 0.000806396 -2.37746e-21)
(0.993922 -0.00299549 -8.62563e-23)
(1.05442 0.0906856 -6.69986e-22)
(0.987823 -0.00517977 -5.38785e-22)
(1.05164 -0.0242474 -4.37168e-22)
(1.02327 0.00143168 -2.58194e-21)
(1.06 0.041192 -1.61087e-21)
(1.00693 -0.0150035 -5.28178e-24)
(0.990616 -0.00314649 1.19537e-23)
(1.07894 0.0769575 4.99298e-21)
(0.975245 -0.0947378 -2.62723e-21)
(0.989645 0.0912378 1.83533e-20)
(0.991597 -0.00383852 -5.17662e-22)
(1.05613 0.117558 -1.29737e-22)
(0.991652 -0.00324155 1.39278e-22)
(0.999009 -0.000370143 -3.86106e-24)
(1.04872 0.0284736 1.73467e-21)
(1.01472 -0.0306842 1.92274e-22)
(1.03584 0.00327858 3.4553e-21)
(1.00157 -0.000765868 1.39953e-23)
(1.00001 -4.40718e-06 -3.78668e-27)
(1.00589 -0.152508 1.26925e-21)
(1.10893 0.129684 -8.06867e-21)
(1.00125 -0.00315877 -6.97126e-24)
(1.13076 0.0839244 4.65951e-22)
(0.988542 -0.00480894 -3.54854e-22)
(1.11461 -0.1793 -2.04756e-21)
(1.04935 -0.0424116 -2.13417e-22)
(0.980491 -0.0313874 1.12087e-21)
(0.998532 -0.000774597 -2.51896e-23)
(0.994932 -0.00036644 -8.04952e-23)
(0.967944 -0.0792198 -1.43925e-21)
(0.972906 -0.00604466 1.15956e-21)
(0.991213 -0.0029005 3.43984e-22)
(0.999861 -0.000369748 5.30226e-24)
(0.981416 0.095532 -2.32084e-21)
(1.11802 0.0728845 3.26963e-21)
(1.02399 -0.0104462 -3.75954e-22)
(0.999834 -0.000111259 3.92406e-24)
(1.02525 0.0938329 -6.90991e-21)
(1 -1.92547e-05 -1.15251e-25)
(0.999847 -9.87513e-05 7.22733e-24)
(1.10888 0.0711206 2.90667e-21)
(1.01008 -0.0254379 -1.98355e-22)
(1.11909 0.117094 6.28362e-21)
(1.02275 -0.00263578 9.24861e-22)
(1.01644 -0.0125875 -4.41462e-23)
(1.10495 -0.0671582 1.51595e-21)
(1.06844 -0.149765 4.0204e-21)
(1.2092 0.0553902 7.83042e-22)
(1.00108 -0.000778083 -2.85824e-23)
(0.95626 -0.0106346 -9.9039e-23)
(0.999983 -4.55892e-05 -2.16896e-25)
(1.00445 -0.0107714 1.435e-24)
(1.05896 0.0868764 4.361e-21)
(0.984636 -0.0059191 8.31735e-22)
(0.997535 -0.00111291 5.19321e-23)
(1.01509 -0.0431683 -8.61748e-22)
(0.998276 -0.000826172 2.20716e-24)
(0.999618 -0.000934232 1.73998e-23)
(0.970238 0.00305704 4.78082e-21)
(0.991057 -0.00414593 -2.94734e-22)
(0.99951 -0.000590688 -3.47624e-23)
(0.999994 -2.39827e-07 5.55401e-27)
(1.01613 0.006416 5.42149e-21)
(0.970542 -0.0248403 -2.14295e-22)
(0.999708 -0.000447884 1.09956e-23)
(0.997644 -0.00055256 6.15116e-23)
(1.02185 0.0206538 2.25175e-21)
(1.06807 0.0123852 3.60417e-22)
(0.959287 -0.0199005 -1.22138e-21)
(1 -1.21464e-05 -1.35927e-25)
(1.00095 0.00970627 1.50335e-20)
(0.985636 -0.0163945 -8.00545e-22)
(1.06624 0.0702188 -8.2336e-21)
(1.01192 -0.00118592 -1.00509e-21)
(1.01386 -0.00122933 2.35775e-21)
(0.969894 -0.00822981 1.62551e-21)
(0.999923 -4.61819e-05 -5.13906e-25)
(1.02264 0.000364918 -4.99188e-22)
(1.07335 0.00987703 -4.0917e-22)
(1.18587 0.0603793 1.06982e-22)
(1.04719 -0.113926 9.29383e-22)
(1.03548 0.0897994 5.37931e-21)
(1.00508 -0.00158985 -1.47465e-23)
(1.08587 0.0812154 -6.86937e-21)
(0.999429 -0.0142776 -1.58262e-22)
(1.0188 -0.0618413 -2.77277e-21)
(0.999679 -0.000111036 -6.84888e-24)
(1.00263 -0.0193464 4.35622e-22)
(0.999898 -0.000355344 3.50313e-24)
(1.0449 0.034742 -5.23756e-21)
(1.07581 0.128256 -1.58399e-20)
(0.998688 -0.000955931 1.97283e-23)
(1.01792 -0.0127547 -2.47583e-23)
(0.985091 -0.00270409 2.75173e-22)
(1.0508 -0.0980364 4.58811e-22)
(1.04463 -0.104911 -1.98877e-21)
(0.99838 -0.000621617 3.63228e-23)
(1.04662 -0.0279357 -3.56741e-23)
(0.987427 0.0013259 -7.92354e-21)
(1.18233 0.0409452 -5.59605e-22)
(0.999951 -0.000133416 3.85628e-24)
(1.06331 0.00933275 -1.23552e-21)
(0.996915 -0.00849973 -2.06445e-22)
(0.999144 0.000960735 1.73316e-20)
(0.988664 -0.00402808 4.75716e-22)
(0.994852 -0.0270808 -3.06689e-22)
(1.01781 -0.0379918 -4.44893e-24)
(0.993329 -0.0280075 -2.06172e-23)
(0.9978 -0.0213398 -7.7713e-22)
(0.993131 -0.00249841 7.44255e-23)
(0.998544 -0.0141074 4.29718e-22)
(1.00157 -0.00600768 -6.36794e-25)
(1.05886 -0.0217068 1.5139e-22)
(1.00008 -1.99198e-05 -1.50161e-24)
(1.21726 -0.0950081 -1.99627e-21)
(1.168 -0.00241402 -7.51341e-22)
(1.01116 0.106676 1.29097e-20)
(0.961551 -0.0187937 1.7888e-21)
(1.10986 0.112269 -3.22527e-21)
(1.00167 -0.000595186 5.35292e-23)
(1.0783 -0.081626 -1.87203e-24)
(1.00385 -0.0406548 -9.02101e-22)
(1.01837 0.0356033 6.68819e-21)
(0.993515 -0.0032501 2.11454e-22)
(1.00008 -0.000153912 5.09028e-25)
(0.986285 -0.017236 1.05287e-21)
(0.995517 -0.0090391 -1.41499e-22)
(1.04342 -0.0253562 4.1945e-22)
(0.976352 -0.00414666 -9.36027e-22)
(0.977745 -0.00673465 3.01594e-22)
(1.13676 -0.0333892 -4.25621e-22)
(0.988748 -0.00155089 -4.14108e-22)
(1.01503 -0.0398158 6.48105e-22)
(0.985756 -0.0913088 1.98381e-21)
(1.00001 -6.38583e-06 -8.01077e-27)
(1.06019 -0.0135466 1.24463e-21)
(0.987902 -0.0810375 -5.23953e-21)
(1.11644 0.0976346 2.76081e-21)
(1.1059 -0.0752193 -2.75914e-21)
(1.03425 0.00277571 2.76869e-22)
(1.03077 -0.116692 -4.98281e-21)
(1.03257 0.119927 3.40486e-21)
(1.03634 -0.0374171 -3.80329e-22)
(0.969613 -0.00711162 -9.56402e-22)
(1.01493 -0.0506907 -1.50124e-21)
(0.990482 0.00185494 7.62001e-21)
(1.17721 -0.10304 1.29258e-21)
(0.988156 -0.00357321 -1.49349e-22)
(1.03448 -0.148756 -3.79334e-22)
(1.0288 -0.0733067 1.99368e-21)
(1.05233 -0.13477 -6.43436e-22)
(1.04756 -0.0900969 -2.25337e-21)
(1.07868 0.0698274 6.25484e-21)
(0.997538 -0.00132063 2.96325e-24)
(1.00673 0.0398379 2.50902e-21)
(1.00694 -0.00154223 1.02598e-22)
(0.999653 -0.000450384 -1.46827e-23)
(0.998873 -0.00206095 1.46451e-22)
(1.05894 0.00223864 -3.57431e-22)
(0.987442 0.000214702 2.23809e-22)
(1.00121 -0.0064233 -2.36892e-23)
(1.01883 -0.0571781 3.86079e-22)
(1.02195 0.0236452 -3.75072e-21)
(1.00002 -5.88502e-06 -1.18714e-26)
(0.979677 -0.00710136 6.94689e-22)
(1.02132 -0.00968269 8.09802e-22)
(1.07985 -0.0420137 -1.05013e-21)
(1.00707 -0.000774963 5.8693e-22)
(0.998532 -0.0018039 2.34348e-23)
(0.981093 -0.0410965 -2.3843e-24)
(0.997587 -0.00818894 -8.29724e-23)
(1.00002 -4.94697e-06 1.32015e-25)
(0.97369 -0.0488121 -3.53895e-21)
(1.04552 0.0841724 -1.83831e-21)
(1.01976 -0.0329825 2.0548e-22)
(0.985022 -0.00339132 -4.79598e-22)
(1.00151 -0.000406756 -1.88524e-23)
(1.02487 0.0254343 4.93293e-21)
(0.999652 -0.000558076 -6.93244e-24)
(0.998929 -0.000508936 -2.77602e-24)
(0.999705 -0.000126468 -6.8168e-24)
(0.999264 -0.00196294 -4.34475e-23)
(1.17239 0.0613369 7.8476e-22)
(1.02916 -0.0376298 -1.34365e-21)
(1.00733 -0.0190676 -1.06513e-22)
(0.982957 -0.00571312 -2.43814e-22)
(1.00003 -4.40031e-05 8.17233e-26)
(1.09078 -0.14061 5.5934e-21)
(1.21726 -0.00943382 5.52046e-23)
(1.09907 -0.151674 -2.66738e-21)
(0.995668 -0.0351471 -5.92502e-22)
(1.01283 -0.00930845 6.59293e-22)
(0.999827 -7.26329e-05 2.64608e-24)
(0.988582 -0.0107819 -3.76152e-22)
(0.951248 -0.0477165 -1.79852e-21)
(1.17097 0.042809 3.94141e-22)
(1.00182 0.0546482 -1.71107e-22)
(0.998834 -0.00298605 3.73995e-23)
(0.938913 -0.0281439 8.22505e-22)
(0.995697 -0.00229416 -1.95331e-22)
(1.03405 -0.0344275 2.69102e-22)
(1.09198 0.0673797 6.01168e-22)
(1.00035 -0.000122651 -1.03781e-23)
(0.999863 -0.000180698 -1.75049e-24)
(1.14584 0.109433 4.95741e-22)
(1.16628 0.0228327 3.82342e-22)
(1.01715 -0.0157658 2.06494e-22)
(0.997359 -0.00144504 9.55312e-23)
(0.998355 -0.000264594 -7.56828e-24)
(0.959461 -0.049686 4.52942e-22)
(0.999842 -0.000304793 -6.41955e-24)
(1.01739 -0.0348638 -7.28842e-22)
(0.992928 -0.000458065 7.97863e-22)
(1.00027 0.0107715 -3.04336e-21)
(1.04921 0.0901075 -9.68788e-22)
(1.07204 -0.0753632 1.20346e-21)
(0.992793 -0.0817201 1.90229e-21)
(1.00574 -0.0013933 2.75114e-22)
(1.01396 -0.0256933 2.2319e-22)
(1.15805 0.00477375 -1.04488e-21)
(0.992131 -0.0919202 -1.20791e-21)
(1.01827 -0.0487453 8.7954e-22)
(0.999998 -6.11686e-06 2.87257e-26)
(1.14452 -0.0119387 -1.45355e-21)
(0.986942 -0.000813898 7.81776e-23)
(0.990912 -0.103261 2.42507e-21)
(1.01915 -0.0302131 5.99759e-22)
(0.958394 -0.0101603 -2.08601e-22)
(0.999659 -0.000239603 -4.11862e-24)
(0.997365 -0.00100951 -4.09344e-23)
(1.03767 0.0408326 6.24728e-21)
(0.971568 -0.0076626 -3.44233e-22)
(0.999989 -1.47943e-06 5.51663e-26)
(0.997834 -0.000286184 -7.86143e-23)
(1.17223 -0.0868659 -7.0155e-21)