/*--------------------------------*- C++ -*----------------------------------*\
  =========                 |
  \\      /  F ield         | OpenFOAM: The Open Source CFD Toolbox
   \\    /   O peration     | Website:  https://openfoam.org
    \\  /    A nd           | Version:  7
     \\/     M anipulation  |
\*---------------------------------------------------------------------------*/
FoamFile
{
    version     2.0;
    format      ascii;
    class       volVectorField;
    location    "35";
    object      U;
}
// * * * * * * * * * * * * * * * * * * * * * * * * * * * * * * * * * * * * * //

dimensions      [0 1 -1 0 0 0 0];

internalField   nonuniform List<vector> 
117990
(
(1.03154 -0.103674 -5.30351e-19)
(0.997758 7.83674e-06 -2.44788e-21)
(0.629759 0.0680316 -1.6131e-19)
(0.797638 -0.1129 3.48624e-20)
(1.15496 -0.0877742 4.85059e-20)
(0.879413 -0.158524 2.35289e-21)
(0.622369 -0.0293849 -1.3938e-18)
(1.23935 -0.114229 -1.22454e-19)
(0.945712 -0.0722414 -7.46442e-22)
(0.997698 7.76083e-05 5.17023e-22)
(0.953383 -0.0045189 8.86653e-21)
(1.02919 -0.0239345 4.57364e-21)
(0.990293 -0.127874 5.05331e-20)
(-0.113887 -0.0456143 1.32891e-18)
(0.945434 -0.0738819 7.30805e-21)
(0.123617 -0.209634 2.95993e-18)
(0.976111 -0.0595061 2.8538e-21)
(0.933797 -0.0409831 -1.15027e-20)
(1.03535 -0.352833 1.4081e-18)
(1.15595 -0.0858119 1.75085e-19)
(1.24398 -0.0732628 -1.17561e-18)
(0.364302 -0.0080813 -2.09099e-20)
(0.924448 -0.0533789 -1.0315e-20)
(0.749315 -0.0804188 2.06974e-20)
(1.53368 -0.0772424 1.02215e-18)
(0.692351 0.497785 1.53495e-18)
(-0.409382 0.327284 -1.89019e-19)
(1.34146 0.00977053 9.37015e-19)
(0.99635 -0.0103604 3.00293e-21)
(1.16257 0.422967 -1.33592e-18)
(0.974255 -0.00948524 7.19798e-21)
(1.13789 0.226634 3.53994e-19)
(1.20637 -0.0298401 -6.7109e-20)
(0.449245 0.0195611 8.04996e-20)
(1.5881 -0.075604 4.33114e-19)
(0.733446 -0.133645 8.3535e-20)
(0.662901 0.175326 2.34788e-19)
(0.976081 -0.0607575 -1.34842e-21)
(0.148169 2.85391 3.12211e-20)
(0.749037 0.0672086 3.15107e-18)
(1.13773 0.228363 -6.88135e-19)
(0.933008 -0.0423321 -2.15539e-21)
(0.679157 0.0767012 3.77778e-19)
(0.73178 -0.130914 -5.87929e-20)
(0.923491 -0.285799 4.78802e-20)
(-0.110281 -0.0420275 -1.38319e-18)
(1.13132 -0.00749875 6.39161e-19)
(1.32081 -0.0145006 1.56586e-19)
(1.08761 -0.0920589 6.80994e-20)
(1.02878 -0.00262351 -2.08944e-20)
(1.00128 -0.000121961 -1.25951e-24)
(0.529022 -0.0154164 7.4656e-20)
(1.12998 0.153711 1.07248e-18)
(0.998112 -5.59673e-05 -3.9467e-22)
(1.00039 -0.0816367 -2.40751e-19)
(1.12782 0.152314 -2.66991e-19)
(1.23357 0.0256199 8.74569e-19)
(0.714615 -0.295926 2.70115e-19)
(-0.532939 0.358431 7.339e-19)
(0.732952 0.0565754 -4.72799e-19)
(0.985646 -0.0359365 -2.59807e-21)
(0.751355 -0.0724349 -1.9303e-20)
(0.865521 -0.00698851 -1.84644e-20)
(0.516425 0.0987645 -4.2664e-20)
(0.987487 -0.00996278 -7.74775e-21)
(1.15543 -0.00583872 -1.31787e-20)
(1.00341 -0.127876 -2.70925e-19)
(1.22676 0.124053 9.12155e-19)
(-0.139336 0.221785 4.75867e-19)
(1.25871 0.0240339 3.80832e-19)
(0.574143 0.438822 8.11259e-19)
(-0.334622 0.0661199 -9.76966e-19)
(0.759449 0.0721722 1.41765e-18)
(0.335563 -0.0459612 3.11764e-19)
(1.02776 -0.14926 2.53966e-19)
(0.461289 0.00736321 9.46621e-20)
(0.236875 0.593796 -3.5636e-19)
(0.982613 -0.143389 1.01716e-19)
(0.991394 -0.541686 -5.02569e-19)
(0.847685 0.384482 9.06476e-20)
(0.835198 0.393791 3.20583e-19)
(0.990654 -0.000390471 2.61317e-22)
(1.13386 -0.615603 -3.9393e-19)
(1.37986 0.000825549 -4.22614e-19)
(0.551356 -0.0894563 4.14288e-20)
(1.02805 -0.0232513 4.49555e-21)
(0.610466 0.0989246 2.24851e-19)
(0.997928 -0.00360756 -3.27418e-22)
(0.454906 -0.0543826 1.27153e-21)
(0.997995 -0.00610499 1.43145e-21)
(-0.511595 1.35635 6.55131e-21)
(0.53143 -0.00866627 -5.03227e-20)
(0.995939 -0.010272 -3.80851e-21)
(0.784825 -0.128158 6.35759e-20)
(0.91954 -0.0502152 -1.77002e-20)
(1.06528 -0.00933422 8.93888e-21)
(0.929466 -0.00301575 -3.99513e-21)
(1.14399 -0.610844 -3.14684e-20)
(0.415453 1.40262 -3.37575e-20)
(0.452563 -0.04969 1.87166e-19)
(0.985348 -0.0366931 2.67799e-21)
(1.3017 0.0238899 -8.68984e-19)
(1.10345 -0.0375393 -5.07166e-19)
(1.24451 -0.00766038 -1.65188e-21)
(0.567012 0.438033 5.41187e-19)
(1.2216 -0.284412 -4.25816e-19)
(0.809368 -0.0880368 -8.72596e-19)
(1.06924 -0.388213 -3.25683e-19)
(0.856503 0.100459 -1.20801e-19)
(0.996713 -0.0119962 -1.8093e-21)
(0.568767 0.451735 -7.26e-19)
(0.930311 -0.00396889 1.60021e-21)
(0.207683 0.601481 2.24189e-19)
(0.91713 0.0899147 7.14219e-19)
(1.54037 0.123314 -1.45426e-19)
(1.03799 -0.0171325 9.11551e-19)
(0.952768 -0.00381509 -1.63768e-20)
(0.554882 0.431805 -1.05407e-18)
(1.00399 -0.00321514 1.72949e-22)
(-0.347331 0.0876453 6.74228e-19)
(0.560679 0.428422 1.51206e-18)
(0.120596 -0.211816 -1.18568e-18)
(0.648955 0.07021 -1.46241e-19)
(-0.295047 0.493 5.27571e-19)
(0.997937 -0.000296282 -4.88758e-22)
(1.15064 0.427544 1.5431e-18)
(0.756274 -0.0725872 1.65902e-20)
(1.50814 0.324816 -4.61499e-19)
(0.723756 -0.0131068 1.40705e-21)
(1.34751 0.00303765 -7.89132e-19)
(1.06945 -0.12152 -5.89661e-20)
(1.04467 -0.00650228 7.10113e-21)
(0.499263 0.340141 -6.90715e-19)
(1.02807 -0.0220975 -1.36984e-20)
(1.00418 -0.0027662 8.13584e-23)
(1.06943 -0.0781421 2.19621e-18)
(1.54427 -0.174149 -2.77804e-19)
(1.20046 -0.026531 -8.53355e-20)
(1.00602 -0.0813373 3.30929e-19)
(0.753966 -0.0759558 -1.74429e-19)
(0.690499 -0.323259 5.11167e-19)
(1.06022 -0.0300569 4.62733e-19)
(1.01038 -0.000761853 -5.57563e-21)
(1.0959 0.208837 1.33814e-19)
(1.06794 -0.117124 8.68275e-19)
(1.00117 -0.000160163 1.49691e-24)
(1.17401 0.045666 4.18526e-23)
(0.752911 -0.0676749 5.92486e-20)
(1.22952 0.123964 -1.40769e-18)
(1.12523 -0.105579 -1.67001e-19)
(1.21412 -0.283757 3.26168e-19)
(0.91441 -0.283449 -3.46324e-19)
(0.525972 -0.010215 -3.16198e-20)
(0.997681 -0.000268109 2.18716e-22)
(0.533854 -0.0144837 4.39507e-20)
(1.23746 -0.0275912 4.06132e-19)
(0.99672 -0.0122566 2.3124e-21)
(0.895415 0.369518 1.10239e-18)
(0.427017 0.00785246 7.99985e-21)
(1.4296 -0.398766 1.56501e-19)
(0.46225 0.0145954 -5.1582e-19)
(1.17629 0.0452586 4.86644e-19)
(0.867669 -0.00638843 -1.36375e-20)
(1.0361 -0.215134 -4.61555e-20)
(0.888002 0.0612405 2.66403e-19)
(0.85162 -0.0777608 -4.86079e-20)
(1.23659 0.0125929 4.29318e-19)
(0.847317 0.0344861 4.20592e-20)
(0.866187 0.378824 -1.6089e-18)
(0.856641 0.0682966 -3.06579e-19)
(0.773182 0.0519171 -3.95173e-19)
(1.13868 -0.0135491 -3.60958e-19)
(-0.41975 1.45395 7.60832e-20)
(0.0142568 -0.166516 2.08041e-18)
(0.961342 -0.180862 -3.9558e-20)
(1.26721 0.0753338 -3.96568e-20)
(0.00813817 -0.160074 -4.59173e-19)
(0.852408 -0.146709 -4.06041e-20)
(1.12537 0.0315715 1.34721e-18)
(1.08603 -0.0952331 1.11446e-19)
(1.25246 0.0220365 8.26407e-20)
(1.02233 -0.14886 2.89933e-19)
(1.1717 -0.283403 -6.09362e-19)
(1.09697 0.185826 5.76646e-19)
(0.819432 -0.100188 2.05168e-18)
(0.941911 -0.12449 -3.98574e-22)
(0.728914 -0.101167 -1.55824e-20)
(1.00023 0.0040715 -6.01652e-19)
(1.15124 -0.0201192 1.24709e-18)
(-0.511768 1.39712 -2.29552e-20)
(0.859048 -0.146472 -1.36014e-20)
(1.07042 -0.0370409 -3.0961e-19)
(1.07487 -0.484288 -8.90343e-19)
(0.628495 0.0114109 -7.15401e-19)
(0.711644 0.496431 -2.0334e-18)
(1.27509 -0.41629 1.93267e-19)
(-0.00195778 -0.155172 1.368e-19)
(0.243504 -0.000180455 -6.69344e-20)
(0.535322 -0.00819028 5.15507e-19)
(0.932367 -0.0389558 4.03154e-19)
(1.0888 0.150162 7.56008e-19)
(0.809836 -0.463351 9.00607e-19)
(1.26391 0.0310307 2.44917e-19)
(0.997672 -0.00497188 -2.25243e-21)
(0.706432 -0.104422 -1.8178e-21)
(0.514255 -0.14312 3.49658e-19)
(0.891328 -0.130878 -1.59153e-20)
(0.987792 -0.0100168 5.96837e-21)
(1.27823 0.0321477 -2.0956e-19)
(1.09624 -0.185161 -1.23471e-18)
(-0.00898506 -0.148078 -1.15934e-18)
(0.803298 -0.0633291 -5.42807e-19)
(1.52722 -0.0844296 -7.57069e-19)
(0.998098 -0.00613056 1.8705e-22)
(0.885637 0.0696951 8.87309e-19)
(0.630677 0.00447935 3.55293e-19)
(1.09562 0.257215 6.2811e-19)
(1.14947 -0.0187449 7.24133e-19)
(-0.117994 -0.0328359 -7.99647e-19)
(0.972699 -0.0408135 1.29005e-21)
(0.926913 -0.169859 1.49494e-20)
(0.636411 0.0594407 -2.51567e-20)
(1.0838 -0.0729004 -3.17808e-20)
(0.437203 0.00861706 -4.27063e-19)
(0.998089 -0.000110931 5.67094e-22)
(1.43956 -0.217738 7.98556e-19)
(1.04782 0.0544396 -6.13096e-19)
(0.4934 -0.0158512 5.53298e-19)
(1.27257 -0.408817 1.11741e-19)
(1.34295 -0.284529 4.39454e-19)
(1.32348 0.0212522 -8.53193e-20)
(0.907337 -0.273875 -6.43585e-20)
(0.699284 -0.223626 -4.25324e-19)
(0.833726 0.0111387 3.49075e-19)
(1.07707 -0.111416 -3.96142e-19)
(1.08703 0.148877 1.13374e-18)
(1.07615 -0.00696124 1.0035e-20)
(1.10515 -0.0531022 5.51805e-19)
(0.861692 -0.00723836 -1.26728e-19)
(0.522453 -0.0221879 -9.7051e-20)
(-0.50264 1.25137 -2.97281e-19)
(0.99453 -0.0790439 8.34992e-21)
(1.43973 -0.399026 -1.99924e-19)
(0.443835 1.45906 2.44263e-19)
(0.715778 -0.0115158 -7.16128e-20)
(1.11995 -0.101432 -3.30454e-20)
(1.17296 0.173438 1.01686e-18)
(0.448442 0.00353031 9.53298e-19)
(0.847178 0.0349541 1.52801e-20)
(0.399379 -0.271105 5.25184e-19)
(1.01422 -0.232204 -4.61855e-19)
(0.825989 -0.156865 -3.0813e-21)
(1.16157 0.0230913 -3.85754e-18)
(1.06465 -0.126284 1.70446e-20)
(1.52358 0.293101 -8.72638e-19)
(1.25352 0.0213015 -5.6517e-19)
(-0.11552 0.661224 -8.15634e-19)
(1.37797 0.00464979 3.86864e-19)
(1.05148 -0.00111565 4.83079e-20)
(1.25584 -0.110764 -1.23596e-20)
(1.25954 0.0244298 -1.32141e-18)
(-0.113224 -0.026906 4.90723e-19)
(1.09113 0.193925 -8.26899e-19)
(0.472751 3.32966 -5.6535e-20)
(0.853347 0.10036 -9.316e-20)
(0.806265 -0.114913 -1.10091e-19)
(-0.270569 0.493384 8.47801e-19)
(0.727497 -0.0312276 7.79227e-20)
(0.296656 0.525597 -4.19647e-19)
(0.218038 0.656233 7.85093e-20)
(0.988182 -0.00537059 -5.91722e-23)
(1.15716 -0.0181469 -3.04173e-19)
(1.09239 -0.0965888 2.8903e-19)
(0.995404 -0.0808975 -4.69081e-19)
(0.973485 -0.140602 1.95428e-19)
(0.600888 0.0928025 1.11923e-19)
(0.922933 -0.280575 -3.62458e-19)
(0.959847 -0.176897 -1.92199e-20)
(1.00033 -0.0319489 -3.6566e-19)
(1.0749 -0.385151 2.62276e-19)
(1.03854 -0.217687 1.22527e-19)
(0.719326 -0.00992642 -5.41292e-20)
(1.02948 -0.130811 2.60435e-20)
(0.509455 -0.133577 -1.83884e-19)
(0.995109 -0.108524 1.07298e-20)
(1.27122 0.00514376 9.27241e-19)
(1.42298 -0.246948 4.65131e-19)
(1.18996 0.0126143 -1.98875e-18)
(1.16715 -0.628925 2.28835e-19)
(0.0760105 2.71513 2.07512e-20)
(0.914874 -0.279812 -8.84991e-20)
(0.998137 -0.0045236 -1.69358e-21)
(-0.56433 0.429697 4.83241e-19)
(0.811946 -0.0540804 -5.28883e-19)
(0.98101 -0.0749916 7.91726e-23)
(1.26591 0.0338901 -6.43242e-19)
(0.832743 -0.152705 -7.38529e-21)
(1.14288 0.230842 5.52061e-19)
(1.08144 -0.113171 -2.17354e-19)
(0.162375 0.682541 2.00749e-19)
(-0.0424551 -0.12214 6.22451e-19)
(0.93062 -0.173048 -1.29883e-19)
(-0.173006 0.64394 -2.56717e-20)
(0.773399 -0.0446789 1.53239e-19)
(0.999726 -0.249224 4.84322e-20)
(1.02382 0.317217 3.17883e-19)
(0.994044 -0.122672 -6.27513e-20)
(0.492249 -0.00895698 -3.82323e-19)
(2.06765 2.89237 -7.69951e-20)
(1.13133 0.0302194 5.06386e-21)
(0.71261 -0.147931 -1.76697e-20)
(0.66026 0.267559 1.09718e-18)
(0.671259 0.0429524 7.39608e-19)
(0.861281 -0.00553879 3.82941e-19)
(0.976186 -0.122963 -2.60571e-19)
(1.11219 -0.042973 1.38385e-19)
(1.0832 -0.498117 -1.39561e-18)
(1.11776 -0.101346 1.41692e-19)
(0.757577 -0.0849635 -9.13503e-20)
(-0.571005 0.482172 -1.22378e-19)
(1.09901 0.183931 2.17534e-19)
(0.973421 -0.0417262 -9.78725e-21)
(1.26104 0.0293283 -1.92242e-19)
(1.54718 0.111244 2.63719e-19)
(0.943816 0.362263 -1.23755e-18)
(0.439256 0.0335315 8.75025e-19)
(1.23929 -0.0264259 -5.97066e-19)
(1.15513 0.20203 7.05257e-19)
(-0.0530385 -0.115938 -1.21256e-18)
(-0.565526 0.410694 -7.59944e-19)
(0.722948 -0.148271 1.25054e-20)
(0.998068 -0.00468413 3.19412e-21)
(0.947791 -0.129765 -1.49337e-22)
(0.834891 -0.157267 1.63045e-20)
(1.58079 0.0163168 1.92567e-19)
(0.862831 -0.114238 1.24604e-19)
(0.82762 0.382581 6.42125e-19)
(0.989172 -0.00534767 5.82333e-22)
(0.873238 -0.158162 -6.74704e-22)
(0.721339 -0.100536 2.2609e-20)
(0.671327 0.0617862 1.4286e-19)
(1.1137 0.266967 -2.38003e-18)
(-0.374502 0.330692 7.42667e-20)
(0.508588 0.0936425 -3.86238e-19)
(0.733154 -0.0164801 -5.98358e-20)
(1.16958 -0.0921929 -5.21247e-20)
(0.995162 -0.0287104 2.27441e-19)
(1.51853 0.306867 -1.07592e-20)
(0.666861 -0.165721 -9.89145e-19)
(1.0217 -0.0434398 -1.15278e-19)
(0.506539 0.350363 3.64482e-19)
(1.01634 0.131968 -9.10242e-19)
(1.26217 0.0220535 1.20458e-18)
(0.822854 -0.132901 -6.04749e-20)
(0.930201 -0.0390891 4.40549e-20)
(1.01501 0.0691933 8.32922e-20)
(1.0322 -0.100231 8.43404e-19)
(1.00084 -0.000398349 -8.73912e-25)
(0.932972 -0.158779 -5.50827e-20)
(1.10624 -0.0476232 -5.3568e-19)
(0.666689 0.568254 1.23916e-18)
(1.02236 -0.285219 -8.48499e-20)
(0.663909 0.141816 4.45488e-19)
(1.58755 0.0466522 -2.05872e-19)
(0.54255 0.512289 -8.2435e-19)
(1.00068 -0.000408645 -6.5464e-24)
(0.26139 0.00198902 7.41234e-20)
(0.718764 0.0920921 -2.20573e-19)
(1.08972 -0.0737814 -2.87114e-19)
(1.00039 -0.000606151 5.3515e-23)
(1.45056 0.368008 2.1187e-19)
(0.052266 -0.499724 -5.4888e-19)
(0.448854 0.00584847 9.29797e-19)
(0.900734 -0.00447977 -2.08718e-20)
(0.272124 0.499815 -6.32715e-19)
(1.19689 -0.0716437 7.50971e-20)
(1.10628 -0.0399568 -2.82998e-19)
(1.02812 -0.00186789 1.85347e-20)
(0.846063 -0.163165 -7.93607e-21)
(1.11567 -0.046508 -7.83176e-20)
(0.899959 -0.275188 -4.89648e-19)
(0.860882 0.0905348 2.29784e-19)
(0.909291 0.0887724 9.95419e-19)
(1.10441 -0.0481962 -6.52186e-19)
(1.28354 0.00146546 -4.95144e-19)
(0.979286 -0.00124665 -1.05195e-20)
(0.678106 -0.204695 8.94167e-19)
(0.323529 -0.267874 -1.19965e-19)
(1.15791 -0.0888761 -1.88355e-19)
(1.14323 -0.158788 1.76919e-19)
(1.14328 0.211385 -2.4464e-18)
(0.857775 0.120369 -1.85891e-18)
(0.606197 0.0978025 -1.6752e-19)
(1.33433 0.0137294 5.03005e-19)
(0.638377 0.0621349 -2.29992e-20)
(0.832854 -0.163924 2.89906e-20)
(2.10242 2.78109 4.69221e-20)
(1.08628 -0.0896094 1.39873e-19)
(1.09105 -0.0979343 -5.23808e-19)
(0.54229 0.10171 -4.7831e-19)
(0.584061 -0.0830842 -2.51274e-19)
(0.848616 -0.150241 -4.95506e-20)
(1.12542 0.268618 -3.59546e-19)
(0.7682 0.0979633 1.31869e-19)
(1.28391 3.54021 3.57135e-20)
(1.00598 0.283727 -7.18733e-19)
(1.00419 -0.0029355 -1.75973e-22)
(0.926419 -0.0148361 -9.37481e-20)
(1.09781 0.21814 2.67648e-19)
(0.307336 -0.0122786 4.95714e-20)
(0.903489 0.0977613 5.58066e-19)
(0.703657 -0.145797 4.87337e-21)
(1.17592 -0.0898403 -1.4592e-19)
(0.824365 -0.115488 9.0091e-20)
(0.544412 -0.0850248 -3.28762e-20)
(1.00009 -0.0373828 1.29582e-19)
(1.09622 -0.0982422 3.17443e-19)
(2.05906 0.0183042 -2.7489e-20)
(1.00756 -0.00451554 2.50551e-21)
(1.29651 -0.00222506 -8.31953e-20)
(0.998182 -2.74849e-05 -4.41784e-23)
(-0.0188301 -0.142915 1.58809e-18)
(1.0405 -0.0370387 1.2539e-20)
(0.932037 0.400623 9.58538e-19)
(0.670373 0.0617102 -3.92941e-19)
(0.940411 0.251642 -7.6319e-19)
(1.02285 0.268416 4.92148e-19)
(0.893391 0.210655 -7.29333e-20)
(1.23866 0.0260472 1.25344e-18)
(0.92925 -0.128195 -2.64244e-20)
(1.17463 -0.0690688 -1.49556e-19)
(0.964428 -0.0969802 8.37976e-23)
(0.613204 -0.102171 7.28757e-21)
(0.497449 0.000137452 -2.22569e-19)
(0.775547 -0.0497698 5.75798e-20)
(0.919413 -0.0112007 -2.24123e-19)
(1.0463 -0.0989895 -3.16826e-19)
(1.03994 -0.0358901 -1.52068e-20)
(0.970795 -0.0158881 -2.6993e-21)
(1.02525 -0.0214929 -9.8792e-21)
(0.97275 -0.144073 -9.54356e-20)
(1.34358 0.00383399 7.44627e-19)
(1.03116 -0.0925184 6.70647e-19)
(0.533525 0.104495 5.08635e-19)
(0.994614 -0.106567 -2.2197e-20)
(1.33341 0.524377 -4.80283e-19)
(1.11925 -0.10279 4.20134e-19)
(0.973837 -0.0158348 -1.11973e-20)
(0.863436 0.126904 2.6649e-18)
(1.26143 0.0732536 1.21308e-19)
(0.956507 -0.168735 3.44865e-18)
(1.00808 -0.00610542 -2.48232e-21)
(1.00497 -0.0883914 0)
(1.18023 -0.0693929 2.22657e-19)
(0.849877 0.0255567 -2.16851e-19)
(0.812884 -0.0767204 5.88241e-20)
(1.47277 -0.179055 1.72241e-19)
(0.449237 0.0029963 -6.36377e-19)
(0.943056 0.441846 1.66814e-18)
(0.261138 -0.00513423 3.52177e-19)
(1.1133 0.258472 -1.91076e-19)
(1.1214 -0.102297 -3.05459e-19)
(1.15674 -0.0891713 2.2208e-19)
(0.922969 -0.354916 -7.86963e-19)
(0.647033 0.272351 -4.57566e-19)
(1.25889 -0.0681875 6.78896e-19)
(1.20707 -0.0688407 3.44411e-20)
(0.0253147 -0.170989 -2.27409e-18)
(0.260781 -0.00692767 -2.02459e-19)
(1.00813 -0.00647557 1.05565e-21)
(1.28705 -0.000804994 9.97137e-20)
(0.348379 -0.269604 2.97954e-19)
(0.85663 -0.00137428 3.38108e-20)
(0.33013 -0.0474047 -5.48951e-19)
(1.04389 -0.10376 -1.14158e-19)
(0.964856 0.352093 2.04495e-18)
(0.998152 -3.54586e-05 -1.28584e-22)
(1.21356 -0.0646419 -6.79451e-20)
(1.29565 0.0222673 6.36485e-19)
(1.18509 0.048568 -7.87708e-19)
(1.11041 0.441907 -4.57598e-19)
(0.999853 -0.000241547 1.16123e-24)
(0.989259 -0.00565843 1.96516e-22)
(1.2057 -0.00500966 -3.31043e-19)
(0.853432 0.00535173 3.6791e-19)
(0.903387 -0.130623 1.28199e-20)
(0.980385 -0.0803125 -3.18856e-21)
(0.811157 0.406295 -7.98396e-19)
(1.56776 -0.0203743 -9.38468e-19)
(0.13686 0.685027 -8.74e-20)
(0.942518 -0.119717 -9.43494e-19)
(0.359786 0.0484324 -9.75814e-20)
(1.02372 -0.21089 2.89131e-19)
(1.11716 0.107073 1.22033e-18)
(0.833762 -0.115913 -3.83591e-20)
(1.4657 0.325444 -2.86479e-19)
(0.174558 -0.217881 -2.10381e-18)
(0.923648 0.0850968 -5.16002e-19)
(1.10512 -0.0540622 -2.95924e-19)
(0.936894 -0.0806129 -1.68756e-19)
(0.792804 -0.128612 1.88055e-20)
(1.00029 -0.477809 -2.82447e-18)
(0.833597 0.0207979 5.32758e-19)
(0.815239 0.419843 5.23257e-19)
(0.997593 -0.129715 -4.53637e-19)
(0.949284 0.251244 4.24576e-19)
(0.49061 0.104456 -1.78008e-19)
(0.678829 0.0596251 3.88191e-19)
(-0.523523 1.26153 -1.11922e-20)
(1.082 0.138501 1.20866e-18)
(0.834885 -0.136755 7.49353e-20)
(1.06391 -0.127729 3.35724e-19)
(1.05853 -0.12465 -2.59872e-19)
(0.997021 -0.000369124 -3.60976e-21)
(1.02015 -0.0969137 -1.15809e-18)
(0.971658 -0.323847 3.67817e-19)
(1.03039 -0.079565 -2.26347e-20)
(1.12232 0.164741 -7.46662e-20)
(0.95185 -0.1115 1.12746e-21)
(0.951872 -0.113563 -3.68735e-21)
(1.21802 -0.0116384 -2.54268e-20)
(1.00026 -0.125124 2.7814e-19)
(1.11996 -0.00985617 -5.42199e-20)
(1.13302 -0.0687433 4.12728e-21)
(0.395111 0.0573454 -2.99312e-19)
(0.847835 -0.111402 -5.7102e-20)
(0.623061 -0.100793 -3.37344e-20)
(1.05966 -0.563222 -3.54477e-18)
(0.816592 0.589212 1.23348e-18)
(1.17992 0.020618 6.38287e-19)
(0.773056 0.0539803 -3.05035e-19)
(0.903652 -0.230425 6.46159e-20)
(1.09447 -0.0986027 -1.88248e-19)
(1.00384 -0.0059596 -3.2007e-22)
(0.999898 -0.00053467 3.64432e-23)
(0.393494 -0.0802336 -1.07521e-19)
(0.171332 -0.216774 2.14387e-18)
(0.716955 -0.13167 1.65789e-20)
(1.00373 -0.00574491 -8.49809e-22)
(0.458225 0.0213182 -1.52976e-19)
(1.11844 0.266511 2.19861e-18)
(-0.0917473 0.237052 -5.71011e-19)
(0.554662 0.528322 -5.75882e-19)
(0.990961 -0.000559642 -2.63766e-21)
(0.495284 0.00512203 -7.29509e-19)
(0.930725 -0.0152915 -6.66549e-19)
(1.01891 -0.00197392 -9.09296e-22)
(0.985545 -0.0428622 1.44567e-21)
(0.443386 -0.00395565 1.15277e-19)
(1.20361 -0.00450677 -1.099e-19)
(1.11847 -0.0973691 -2.42774e-20)
(1.34669 -0.26107 9.64356e-20)
(1.07803 -0.00743161 -3.05707e-20)
(0.708568 -0.270771 -9.51308e-19)
(0.403215 0.0646607 3.03252e-19)
(0.362248 0.0501937 -1.64626e-19)
(0.516869 0.0927257 -6.39135e-20)
(1.13851 -0.068427 -2.21234e-19)
(0.631416 -0.254439 -1.09533e-18)
(1.0407 -0.0764133 2.80499e-20)
(1.00395 -0.00251404 -6.38763e-23)
(1.22661 -0.0692753 1.89289e-19)
(0.760159 0.343204 -4.31796e-19)
(1.32647 -0.285629 2.21546e-18)
(0.937063 0.0559577 9.47645e-19)
(1.02857 -0.0955782 -2.16531e-19)
(0.73414 0.0447394 8.97994e-20)
(0.906606 -0.00307584 4.73327e-18)
(1.27032 0.0174142 -1.66462e-18)
(1.03421 -0.0689523 -1.8653e-20)
(1.35046 0.00550895 -6.52816e-19)
(0.64832 0.0744582 -8.43132e-20)
(0.258969 0.531359 -7.9742e-19)
(0.937889 -0.0856695 -2.01849e-19)
(1.31523 0.012498 -1.64598e-18)
(1.15424 -0.00822804 1.19263e-19)
(0.938892 0.061532 6.52837e-19)
(1.09896 -0.00853335 -5.49782e-20)
(0.82763 -0.0684541 -3.86912e-20)
(0.499818 0.100265 4.80838e-20)
(0.808244 -0.019711 5.53035e-19)
(1.0499 -0.00205873 -4.28851e-20)
(0.86685 -0.0149717 -4.97746e-19)
(1.45578 -0.177174 -3.43417e-19)
(0.933668 0.446874 -1.31381e-18)
(0.88393 -0.0922555 3.8641e-19)
(0.802459 -0.0764007 -8.75264e-20)
(0.264922 1.20692 -1.51841e-19)
(1.01198 -0.00033081 -2.39163e-21)
(1.2209 3.4948 -1.52787e-20)
(0.839011 -0.107297 -6.09802e-20)
(1.26615 0.0334382 -9.96828e-19)
(0.849672 0.0260702 -2.07618e-19)
(1.24413 -0.00759553 -3.55801e-19)
(0.0299086 -0.46291 -1.37552e-18)
(0.757749 0.0923209 -1.30595e-18)
(1.40186 -0.328579 1.02931e-18)
(0.895561 0.204717 2.137e-19)
(0.510578 0.517611 7.2143e-19)
(0.250045 0.66719 -6.12871e-19)
(0.686613 -0.354959 -1.12803e-20)
(1.27314 0.0177111 1.84364e-18)
(0.537333 0.356628 6.83782e-19)
(0.963525 -0.167195 -2.67996e-18)
(1.10791 -0.0958767 -1.04972e-20)
(0.955536 -0.145646 9.04552e-20)
(1.27596 -0.284643 -2.40146e-18)
(1.00518 -0.00400145 -3.40978e-22)
(0.406812 3.22987 7.00583e-20)
(-0.111796 0.137211 -2.416e-19)
(0.624862 0.100321 -3.53733e-19)
(1.13435 -0.103361 -1.94955e-20)
(1.19232 0.0456905 -2.65931e-19)
(0.828759 -0.156983 -8.91659e-21)
(1.17651 -0.0681838 -4.45335e-21)
(0.997291 -0.37229 -6.43461e-19)
(1.58262 -0.0839558 7.81492e-19)
(0.973587 -0.00146726 -6.33764e-22)
(1.04263 -0.0761734 -2.79929e-20)
(1.09412 0.20061 -2.54577e-19)
(1.07164 -0.127597 2.28596e-20)
(-0.13122 0.623563 5.93917e-20)
(0.63904 0.290492 -7.67342e-19)
(0.997982 0.340877 2.59152e-19)
(0.986263 -0.0431389 -3.98072e-21)
(1.02084 -0.237566 -8.85162e-20)
(0.939856 -0.181205 -6.92631e-19)
(1.10496 -0.00738975 3.66971e-20)
(1.01089 -0.0276598 5.96059e-19)
(1.17554 0.175624 5.48803e-19)
(1.56903 -0.119848 -5.0624e-19)
(1.0687 -0.12687 -8.47501e-20)
(0.999743 -0.000303068 1.62424e-23)
(0.544337 0.356466 5.14541e-19)
(1.00938 -0.0261739 1.05922e-18)
(0.973056 -0.00167401 -1.41618e-20)
(1.2278 0.017963 -1.67062e-19)
(1.17755 -0.0332167 -1.24301e-19)
(0.854173 -0.114689 1.08264e-20)
(0.668408 -0.00917194 3.10023e-20)
(-0.0399534 2.46234 4.94584e-20)
(0.407938 0.0408473 -6.28193e-20)
(0.830254 -0.158527 -2.81222e-22)
(0.5876 -0.076698 -4.98968e-21)
(1.04515 -0.0739694 4.02374e-20)
(0.975827 -0.0166111 7.84423e-21)
(1.04628 -0.0224408 -5.13761e-19)
(-0.0347947 0.572794 -1.1753e-19)
(0.957262 -0.0121994 5.54707e-21)
(0.404575 0.06775 3.59628e-19)
(1.12662 -0.0860542 1.68851e-20)
(0.880071 -0.0839233 1.81561e-19)
(0.801545 -0.0286049 -7.31336e-19)
(0.97928 -0.0755381 9.63999e-22)
(1.5514 0.0472408 -4.37304e-19)
(1.10309 0.0852722 -4.82591e-19)
(1.04099 -0.258256 3.30913e-19)
(0.0190825 0.572226 3.27957e-19)
(0.907818 -0.046169 8.19809e-21)
(0.99427 -0.0150384 -2.04884e-21)
(0.925616 -0.0520424 -1.64854e-20)
(0.81464 -0.0783286 -1.64371e-21)
(1.1315 0.0274836 0)
(1.05454 -0.053801 -3.55406e-19)
(0.263197 0.00242456 -1.70701e-20)
(1.04103 -0.100932 -2.1135e-18)
(0.221239 -0.235284 1.80353e-18)
(0.213422 -0.2319 -1.56154e-18)
(1.11936 -0.0415846 4.1927e-19)
(1.11927 0.132626 1.18045e-18)
(1.06223 -0.51901 2.20516e-18)
(0.91302 -0.0542356 7.99443e-21)
(0.866417 -0.0136805 -1.03816e-19)
(0.620159 0.0998327 3.37074e-19)
(1.03684 -0.0367266 1.77407e-20)
(1.00058 -0.0858302 2.74941e-19)
(1.12913 -0.0849323 -8.21559e-21)
(1.02059 -0.0919179 -6.15039e-19)
(1.04944 -0.360996 -6.72488e-20)
(1.58791 0.110175 -8.94627e-19)
(0.675456 -0.268189 9.29091e-19)
(0.835567 -0.14757 -1.20657e-20)
(0.594717 0.0981442 5.92411e-19)
(1.02467 0.0667005 -4.41383e-20)
(0.91684 0.360388 -1.37669e-18)
(1.25475 0.0252503 -2.22069e-19)
(0.94988 -0.0668718 -8.23278e-20)
(1.00235 -3.26951e-05 -5.07431e-23)
(0.942917 -0.109812 1.17651e-18)
(0.517447 0.0145778 1.9296e-20)
(-0.0613775 -0.107217 -1.12758e-18)
(1.04254 -0.0614922 -1.83395e-19)
(1.09857 -0.0526355 -2.07222e-18)
(0.973436 -0.208901 -5.34452e-19)
(1.23178 -0.0696595 8.2668e-20)
(-0.478324 0.519571 -2.77167e-19)
(0.850777 -0.00543129 5.23461e-20)
(0.608333 -0.0483498 1.41592e-18)
(0.981086 0.0361665 3.62489e-19)
(1.16865 0.18728 -2.65818e-19)
(0.352661 -0.0929369 -1.24899e-18)
(1.34514 0.0153178 1.2555e-19)
(0.99781 -0.0036762 -9.40644e-22)
(0.923119 -0.161845 3.69205e-20)
(0.403763 0.0648619 -3.40832e-19)
(0.846466 0.0142904 -4.92939e-19)
(1.22468 0.014109 -1.23622e-19)
(1.35551 -0.26995 9.14679e-20)
(1.04675 -0.0737425 -4.58596e-20)
(1.73373 -0.582219 6.59546e-20)
(0.789609 -0.130094 -7.75952e-20)
(0.996882 -0.013701 -8.7922e-22)
(1.05716 -0.0569925 3.95238e-19)
(1.03548 -0.0783305 1.15454e-20)
(1.57589 -0.109724 6.94401e-19)
(1.03796 -0.0360851 -1.56545e-20)
(0.909187 0.392979 -3.02827e-19)
(0.599867 0.0878834 9.45762e-20)
(1.36091 0.00841393 -2.38719e-19)
(1.22774 -0.0630722 -3.46923e-19)
(1.01117 0.376848 1.98237e-18)
(1.19204 -0.0711175 -4.33212e-19)
(1.01259 0.127751 -7.81697e-19)
(1.00026 -0.000678396 2.46115e-23)
(1.02081 -0.149156 3.96208e-19)
(1.01484 -0.118364 -1.23305e-19)
(1.15402 -0.0898577 3.75172e-20)
(0.546988 0.00926907 1.50973e-19)
(1.00459 -0.00329565 7.73923e-22)
(-0.586836 0.520443 -3.81036e-19)
(1.47362 0.36259 2.00632e-19)
(-0.15014 0.120915 5.40532e-19)
(1.0347 -0.0673118 3.62054e-20)
(1.01876 1.15351 1.31702e-19)
(1.13294 0.0306239 -3.03929e-19)
(1.14381 -0.275271 1.4918e-18)
(1.07078 -0.110743 5.77935e-20)
(0.949154 -0.000550647 -4.34699e-21)
(1.09537 0.192793 -2.99122e-19)
(1.03032 -0.0268645 -1.0167e-20)
(1.35379 -0.238575 -4.86867e-19)
(0.931299 -0.0126743 -7.05008e-20)
(0.0996193 -0.570401 -1.27835e-20)
(0.67551 0.563835 -1.64893e-18)
(1.02922 -0.0249456 8.04732e-21)
(1.16282 -0.618398 2.22086e-19)
(0.98142 0.075696 -1.56237e-18)
(0.975805 -0.0158722 3.86086e-22)
(1.09308 0.262209 1.7079e-18)
(1.03132 -0.102194 1.48953e-18)
(0.665153 -0.0121242 2.51261e-20)
(1.09698 -0.0339475 3.55582e-19)
(1.07202 -0.00953431 2.24411e-20)
(1.14355 -0.0137426 -4.30716e-19)
(0.508808 0.0999661 -2.34641e-20)
(0.332361 -0.00584363 3.35479e-20)
(0.807194 0.43303 -7.17908e-19)
(0.927175 0.0807217 -3.55074e-19)
(1.53964 0.254256 1.38551e-18)
(1.49076 0.0257091 1.11893e-18)
(0.598689 -0.0105612 -7.21784e-20)
(1.00449 -0.0703915 -1.83875e-21)
(0.797791 0.411259 -2.93581e-19)
(0.837197 -0.114877 -3.78831e-20)
(0.352942 0.0304953 -2.77007e-20)
(1.03777 -0.0783954 -6.48169e-21)
(0.952938 0.375791 6.41383e-20)
(0.357668 -0.0904033 1.7779e-18)
(1.60449 0.0043306 1.15869e-18)
(1.00296 -0.131872 1.67833e-19)
(1.00624 -0.147518 -2.95954e-20)
(0.527538 0.0164057 -6.78398e-20)
(-0.100238 0.334943 -3.30764e-19)
(1.02221 -0.234296 -1.76316e-20)
(0.766711 0.406966 -2.51643e-19)
(1.16405 0.010119 -8.18002e-19)
(1.1265 0.114147 -1.02474e-18)
(0.963891 -0.0222166 -3.71857e-21)
(-0.633442 0.894319 1.31761e-19)
(1.00331 -0.00555341 -4.31883e-22)
(1.16916 -0.0641031 2.81365e-19)
(0.998078 -0.000106933 2.74927e-22)
(1.21254 3.38021 -7.96716e-20)
(1.2617 -0.0529223 -5.55608e-19)
(0.876019 0.122597 1.26077e-19)
(0.996944 -0.00041747 3.63149e-22)
(1.39246 -0.342621 -2.77047e-18)
(0.925788 -0.0215001 1.12617e-20)
(1.00405 -0.0852649 2.76819e-19)
(0.894012 -0.0511712 2.70206e-20)
(0.334356 -0.269078 -5.94176e-20)
(0.778896 0.0535558 5.01251e-19)
(0.888624 0.415172 9.96255e-19)
(0.974678 -0.00201725 1.92821e-20)
(1.08757 -0.180312 3.92406e-19)
(1.01736 -0.0273062 1.07554e-19)
(0.742654 0.0514826 3.48806e-19)
(0.996025 -0.0147608 4.10795e-21)
(1.0013 -0.148798 -3.10409e-20)
(0.957581 -0.00207458 2.1357e-21)
(0.983436 -0.259109 3.44543e-19)
(1.16494 -0.093116 1.59738e-19)
(0.822581 -0.0912577 -2.05549e-21)
(0.454235 -0.00226728 -9.70032e-19)
(1.0159 -0.038521 -1.05671e-22)
(1.04892 -0.0708053 3.73102e-20)
(1.05292 0.0559185 4.62909e-19)
(0.909264 -0.0466274 4.89534e-21)
(0.901331 0.00704884 -2.10477e-18)
(1.17865 0.214297 1.94518e-18)
(-0.0642885 0.442615 -6.91009e-22)
(0.388252 0.0110975 8.19083e-20)
(1.20448 -0.260588 -3.37666e-19)
(0.99773 -0.000258807 -2.23072e-22)
(0.225459 1.25153 1.67788e-19)
(1.04451 -0.361796 2.4801e-19)
(1.06731 -0.00950229 3.31263e-20)
(0.726888 -0.13073 2.108e-19)
(0.989524 -0.131328 1.21528e-19)
(0.529237 -0.166703 -3.01513e-19)
(1.77733 1.86606 1.4623e-20)
(1.09656 -0.00856834 -3.97283e-20)
(1.00362 -0.125235 -8.67246e-19)
(0.996897 -0.0140821 3.52816e-21)
(0.787482 -0.0828613 5.12692e-20)
(0.929844 -0.0223992 1.10251e-21)
(0.585873 0.319551 -9.7313e-20)
(0.401889 -0.043447 -5.04535e-20)
(1.02365 -0.0458404 -2.82365e-22)
(0.967808 -0.0160176 6.4517e-21)
(1.26308 0.0201105 7.96535e-19)
(0.719002 -0.295801 -1.02464e-19)
(0.844473 -0.115246 5.97215e-20)
(1.01488 -0.145344 -7.4292e-20)
(0.824383 0.43359 -8.36748e-20)
(0.808095 -0.455826 5.68591e-19)
(1.15856 -0.0893691 1.03925e-19)
(-0.159456 -0.156481 -2.1256e-20)
(1.43679 0.870463 -3.29177e-19)
(0.409673 -0.270624 -4.81051e-19)
(1.00579 -0.0695536 7.26945e-21)
(0.998412 -0.000120444 8.05084e-22)
(0.743407 0.347847 5.6529e-19)
(0.494867 -0.130753 -1.07427e-19)
(1.01711 -0.038481 -4.68766e-21)
(-0.446942 0.235173 8.07142e-19)
(0.85145 -0.0751985 2.97672e-20)
(0.998259 -0.00103408 1.91893e-21)
(1.09862 0.275766 2.08875e-19)
(1.181 -0.426141 7.89881e-20)
(0.682712 -0.269024 -1.23424e-18)
(0.291246 -0.265394 -2.20808e-19)
(0.842105 0.0580501 4.33101e-19)
(0.317737 -0.0103529 5.50181e-20)
(0.358664 0.029085 2.24041e-19)
(1.11068 -0.056132 -4.34657e-19)
(0.704936 0.51725 -7.52194e-19)
(0.962904 -0.098014 -3.53438e-22)
(0.942543 -0.183729 -1.29919e-19)
(1.0867 0.29681 1.45847e-19)
(0.977024 -0.0940801 2.43925e-21)
(1.42966 0.813666 4.55294e-19)
(0.989305 -0.0727941 8.4137e-19)
(0.984582 0.323631 -2.00016e-18)
(1.08364 -0.0258033 3.05946e-19)
(0.918314 0.0407346 -9.2471e-20)
(1.30518 0.440922 -7.51472e-19)
(1.28195 0.0327138 6.03135e-19)
(1.13683 -0.170253 -4.78792e-20)
(0.691874 0.0819488 -3.59149e-19)
(0.534738 0.412623 1.43575e-18)
(0.320005 0.49866 4.51558e-19)
(0.373775 0.0023627 1.76474e-20)
(0.981678 -0.213677 -2.38031e-19)
(0.626142 0.297137 1.37182e-19)
(0.80497 -0.0454872 1.82843e-20)
(0.939848 -0.00268285 1.60881e-22)
(1.64702 -0.560081 3.47684e-19)
(0.73119 -0.02118 1.19853e-19)
(0.744255 0.0484577 9.03124e-20)
(1.57812 0.13263 -3.03876e-19)
(0.328387 -0.00305665 7.7954e-20)
(0.998283 -0.0010811 -2.19479e-21)
(0.216303 2.96522 -2.1974e-19)