/*--------------------------------*- C++ -*----------------------------------*\
  =========                 |
  \\      /  F ield         | OpenFOAM: The Open Source CFD Toolbox
   \\    /   O peration     | Website:  https://openfoam.org
    \\  /    A nd           | Version:  7
     \\/     M anipulation  |
\*---------------------------------------------------------------------------*/
FoamFile
{
    version     2.0;
    format      ascii;
    class       volVectorField;
    location    "4";
    object      U;
}
// * * * * * * * * * * * * * * * * * * * * * * * * * * * * * * * * * * * * * //

dimensions      [0 1 -1 0 0 0 0];

internalField   nonuniform List<vector> 
117990
(
(1.02648 -0.0246383 -8.90137e-19)
(0.999984 -2.98879e-06 -6.01404e-23)
(0.988964 -0.00791293 3.96412e-20)
(0.996858 -0.00351736 -7.94575e-21)
(1.00191 -0.00314942 1.83883e-20)
(0.999027 -0.00173043 2.35366e-21)
(0.999312 0.0401033 -2.72373e-18)
(1.04846 -0.0469949 -4.20021e-19)
(0.999534 -0.000710708 -1.60525e-22)
(0.999977 2.76098e-06 1.14207e-23)
(0.999694 -4.81133e-05 3.51172e-21)
(1.00021 -0.000237359 4.51948e-21)
(0.999326 -0.00366966 8.02868e-21)
(0.931339 -0.00402568 8.64811e-20)
(0.999503 -0.000756853 1.54029e-21)
(0.940521 -0.0218816 1.11097e-19)
(0.999811 -0.000530765 -2.7459e-21)
(0.999383 -0.000379199 -4.93504e-21)
(0.992822 0.0364684 3.33149e-18)
(1.00199 -0.00305201 7.02481e-20)
(1.0524 -0.0454752 -3.9287e-18)
(0.993008 -8.14222e-05 -9.88247e-21)
(0.999277 -0.000544622 -4.64571e-21)
(0.995571 -0.00393022 -4.97146e-21)
(0.960364 0.00941807 3.24635e-18)
(1.04881 0.031521 2.09674e-18)
(1.09158 0.0817517 -4.20518e-19)
(1.01308 -0.00279794 8.07005e-19)
(0.999984 -8.62609e-05 -1.4444e-21)
(0.975349 0.0544011 -2.49995e-18)
(0.999755 -7.44319e-05 1.84882e-21)
(1.02592 0.00972245 4.49824e-19)
(1.00592 -0.00768608 -3.98627e-20)
(0.987965 -0.00387836 -5.8941e-20)
(0.959503 0.0204594 1.4817e-18)
(0.99841 -0.00185428 4.72912e-20)
(0.999049 0.0430023 4.54978e-19)
(0.999826 -0.000521086 1.07082e-21)
(1.17977 0.0621003 -6.86276e-20)
(1.00835 0.0298049 5.05745e-18)
(1.02645 0.00963602 -8.77764e-19)
(0.99937 -0.000385947 -9.64116e-22)
(0.986527 -0.0160764 -3.13803e-20)
(0.998175 -0.00180715 -3.34018e-20)
(0.974571 -0.0461778 4.59461e-20)
(0.932082 -0.00351738 -9.0162e-20)
(1.00489 -0.00954133 3.5375e-19)
(1.00504 -0.000593371 9.16831e-20)
(1.00057 -0.00475711 2.18801e-20)
(1.00024 -2.12439e-05 -2.13261e-20)
(0.999999 8.52997e-06 -1.66609e-22)
(0.995114 -0.000442422 3.91703e-20)
(1.02011 0.00719477 1.33219e-18)
(0.999987 8.73006e-06 -7.64461e-24)
(0.998854 -0.00563739 -5.2067e-20)
(1.01991 0.0074927 -3.35828e-19)
(1.01815 0.00021218 1.05129e-18)
(0.968171 -0.033607 -1.39881e-20)
(1.07565 0.0664888 1.06943e-18)
(0.991788 -0.0101599 2.24234e-20)
(0.999827 -0.000333327 1.37995e-21)
(0.995404 -0.00383721 3.69393e-21)
(0.99881 -9.24938e-05 -1.08669e-20)
(0.985293 -0.00658512 1.30334e-20)
(0.999919 -7.39504e-05 -6.08975e-22)
(1.00124 -6.63337e-05 -5.72657e-21)
(0.999432 -0.00302253 -4.87941e-20)
(1.02293 0.000158785 1.07378e-18)
(1.09248 0.0918245 8.09055e-19)
(1.01856 0.000639099 4.52842e-19)
(1.0094 0.0502781 1.25227e-18)
(1.05511 0.0829036 -1.09868e-18)
(1.00841 0.0292683 2.25313e-18)
(0.964641 -0.00332028 -1.91674e-20)
(1.01863 -0.035929 5.31901e-19)
(0.978579 -0.00700593 -1.69478e-20)
(1.0779 0.0232748 -6.36584e-19)
(0.999805 -0.00215568 1.85423e-20)
(0.998314 0.030878 -1.12635e-18)
(1.05643 0.0171468 1.43785e-19)
(1.056 0.01919 4.82866e-19)
(0.999927 2.88439e-06 4.0603e-23)
(0.994076 -0.0979168 -1.41762e-18)
(1.0131 -0.0009455 -3.47677e-19)
(0.995683 -0.00173563 2.24296e-20)
(1.00021 -0.000226731 4.51298e-21)
(0.985148 -0.0118216 -4.31205e-20)
(0.999986 -2.9696e-05 9.60287e-23)
(0.975139 -0.00921379 -1.02976e-21)
(0.999985 -4.07751e-05 -7.45639e-22)
(1.12586 0.0625347 -1.29916e-19)
(0.990506 -0.00414855 3.63716e-20)
(0.999961 -6.36909e-05 1.67757e-21)
(0.997953 -0.00141738 3.46295e-20)
(0.999168 -0.000526205 -8.35403e-21)
(1.00069 -2.51833e-05 7.26287e-21)
(0.999495 -3.88942e-05 -1.92688e-21)
(0.995309 -0.0973718 -1.27019e-19)
(1.11762 0.00193439 -1.97521e-19)
(0.975309 -0.00867716 -2.54719e-20)
(0.99983 -0.000337862 -1.81178e-21)
(1.01565 -0.00365371 -8.45833e-19)
(1.00232 -0.00900831 -2.22873e-19)
(1.00285 -0.000126842 -6.107e-22)
(1.01004 0.0508199 8.38659e-19)
(1.01749 -0.0555043 -1.3748e-18)
(1.00478 0.0284544 -1.45653e-18)
(0.986095 -0.0592125 -1.02073e-18)
(0.996313 -0.0220539 -7.16811e-20)
(0.999978 -7.6448e-05 1.43986e-21)
(1.0611 0.026 -1.05294e-18)
(0.999502 -7.47866e-05 7.63883e-22)
(1.07669 0.0257568 4.04094e-19)
(0.996204 -0.0154232 1.93945e-19)
(0.941274 -0.00490717 -6.97487e-19)
(0.999317 -0.00894376 3.01081e-19)
(0.999693 -3.64324e-05 -6.4511e-21)
(1.01505 0.0528336 -1.54292e-18)
(1.00001 -2.641e-05 5.52828e-22)
(1.05716 0.0825531 7.59707e-19)
(1.012 0.0548344 2.20293e-18)
(0.94 -0.0223318 -5.08602e-20)
(0.989103 -0.00841018 3.03347e-20)
(1.07477 0.0473798 8.45783e-19)
(0.999989 1.53309e-06 -6.66884e-24)
(0.977998 0.0556264 2.88887e-18)
(0.995486 -0.00427474 -5.18419e-21)
(0.949837 0.0182902 -1.75159e-18)
(0.997393 -0.000135242 8.30149e-22)
(1.0187 -3.63059e-05 -8.78826e-19)
(1.03571 -0.0271935 -1.28972e-19)
(1.00038 -6.59522e-05 6.33201e-21)
(1.02074 0.0633544 -9.2934e-19)
(1.00021 -0.000213083 -1.38626e-20)
(1.00002 -2.50311e-05 2.77992e-22)
(0.988674 0.0393816 5.10917e-18)
(0.96887 0.0254351 -8.88936e-19)
(1.00575 -0.00770894 -4.94522e-20)
(0.99895 -0.00574293 7.05019e-20)
(0.99555 -0.00392478 4.28852e-20)
(1.00741 0.105039 8.25242e-19)
(1.0003 -0.00851917 1.60254e-19)
(1.00007 4.42637e-06 -9.02704e-21)
(1.02231 0.011512 1.70012e-19)
(1.03603 -0.0260535 1.76731e-18)
(0.999984 3.22039e-06 1.66202e-22)
(1.00955 -0.00999946 -2.75038e-22)
(0.99509 -0.00357635 -1.26622e-20)
(1.02278 0.000335658 -1.65581e-18)
(1.00111 -0.00177493 -5.99306e-20)
(1.01719 -0.0563255 1.03208e-18)
(0.97234 -0.0459567 -3.88127e-19)
(0.9904 -0.0038648 2.36048e-20)
(0.999972 1.42213e-06 4.9355e-25)
(0.995051 -0.000214751 2.32328e-20)
(1.00686 -0.00640166 2.49283e-19)
(0.999978 -7.57339e-05 -1.94602e-21)
(1.06219 0.00590507 1.83461e-18)
(0.978175 -0.000499733 -2.12657e-21)
(1.02903 -0.0800056 6.98331e-19)
(0.978359 -0.00756744 9.17864e-20)
(1.00957 -0.00956722 3.90259e-19)
(0.998832 -3.28725e-05 -7.96624e-21)
(1.00564 -0.0445452 -1.07729e-19)
(0.994583 -0.012678 3.7442e-20)
(0.998561 -0.000821136 -2.69919e-20)
(1.01961 -0.00652799 4.76332e-19)
(0.991701 -0.0287746 3.45527e-20)
(1.06215 0.00645256 -2.71872e-18)
(0.993897 -0.0128356 -3.77004e-20)
(0.992495 -0.0107623 -4.82271e-21)
(1.005 -0.0094125 -1.99816e-19)
(1.13575 0.0680555 -6.26147e-19)
(0.935142 -0.0175847 1.26713e-19)
(1.00211 -0.0379287 -6.97565e-20)
(1.0202 -0.000414998 -4.46112e-20)
(0.936463 -0.0168026 -2.9033e-20)
(0.997877 -0.00256251 9.8156e-21)
(1.00688 -0.0110794 9.35413e-19)
(1.00051 -0.00480669 3.40859e-20)
(1.01097 -0.00690251 6.86335e-20)
(1.02051 -0.0350354 6.1407e-19)
(0.987041 0.0363771 -1.48023e-18)
(1.02088 0.010653 7.4299e-19)
(1.00443 0.0287158 3.44086e-18)
(0.999522 -0.00141806 -1.16147e-23)
(0.996211 -0.00279293 1.77474e-20)
(1.00004 0.0016219 -8.13998e-19)
(1.02101 -0.0124885 1.54752e-18)
(1.12773 0.061622 6.40496e-19)
(0.998024 -0.00249746 2.66323e-21)
(1.0002 -0.00773779 -1.04417e-19)
(0.995102 0.0262994 -2.28485e-18)
(0.981926 -0.0166335 1.15225e-19)
(1.04822 0.0315465 -2.77418e-18)
(1.0104 -0.0729049 8.00333e-19)
(0.935514 -0.0164596 8.32079e-21)
(0.989952 -0.000202186 -8.68445e-20)
(0.978462 -0.0121754 -1.03147e-19)
(1.00756 -0.0266125 5.15964e-19)
(1.01635 0.00914888 9.68384e-19)
(0.999674 0.0331766 1.87234e-18)
(1.01291 -0.00708234 2.14606e-19)
(0.999975 -5.9075e-06 6.94187e-22)
(0.996174 -0.00225465 1.34757e-21)
(0.97336 -0.0166872 -4.95698e-20)
(0.999236 -0.00138072 -5.81131e-21)
(0.999917 -7.44112e-05 4.69372e-22)
(1.01954 -0.002706 -2.29808e-19)
(1.02021 -0.0421796 -3.04419e-18)
(0.935631 -0.01545 -7.30893e-20)
(1.00517 0.0294309 -8.97336e-19)
(0.962791 0.0111161 -2.39992e-18)
(0.999989 -3.79707e-05 -1.0034e-22)
(1.00203 -0.0225986 7.62555e-19)
(0.982133 -0.0163248 -5.55129e-20)
(1.04633 -0.00283054 9.59394e-19)
(1.00529 -0.009384 4.09814e-19)
(0.930889 -0.00409877 -5.20458e-20)
(0.999759 -0.000398096 -3.78691e-23)
(0.983751 -0.0331104 1.16522e-20)
(0.983972 -0.0154839 3.56696e-21)
(1.00012 -0.00618868 -7.29121e-21)
(0.977318 -0.000721653 5.79865e-20)
(0.99999 4.08124e-06 1.08516e-23)
(0.974525 0.0275842 2.26711e-18)
(1.00488 -0.0141989 -4.10947e-19)
(0.977211 -0.0141317 -1.12095e-19)
(1.0104 -0.0714466 4.57691e-19)
(0.980857 0.0185294 1.28568e-18)
(1.01461 -0.00288398 -8.07886e-20)
(0.977308 -0.0379897 -2.72692e-20)
(1.0055 0.0983727 -6.71965e-19)
(0.987361 -0.0263914 1.18317e-19)
(1.03832 -0.0276595 -8.48771e-19)
(1.01632 0.00884859 1.46001e-18)
(1.00083 2.64144e-05 7.6719e-21)
(1.00098 -0.00717006 2.06773e-19)
(0.989511 -0.0306308 -7.65117e-20)
(0.99512 -0.000427879 -5.06982e-20)
(1.11951 0.0423693 -1.68005e-18)
(1.01749 -0.0249201 1.10003e-20)
(1.03095 -0.0824007 -9.13013e-19)
(1.12113 0.00270898 1.17122e-18)
(0.997176 -0.000206932 -4.27141e-20)
(1.00105 -0.00192906 -1.07781e-20)
(1.02507 0.0045263 1.25875e-18)
(0.975935 -0.0016159 -1.124e-19)
(0.992089 -0.0289261 1.42693e-20)
(0.949339 -0.0357828 3.75444e-20)
(0.998858 0.0200325 -1.23046e-18)
(0.998718 -0.0017182 -1.86113e-21)
(1.01521 0.00121411 -4.76373e-18)
(1.00032 -0.00245083 4.42313e-21)
(0.948523 0.0169696 -3.23778e-18)
(1.01064 -0.00777655 -4.55093e-19)
(1.08518 0.0323887 -1.58863e-18)
(1.01369 -0.000429613 3.26451e-19)
(1.00051 -5.09214e-06 4.14759e-20)
(1.04903 -0.0477216 -5.54752e-20)
(1.01123 -0.00604757 -1.07027e-18)
(0.931562 -0.00153638 3.17783e-20)
(1.02116 0.0110945 -1.05751e-18)
(1.18693 0.047686 2.36438e-19)
(0.994805 -0.0215415 -5.51838e-20)
(0.99671 -0.00367686 3.00517e-20)
(1.07315 0.0464988 1.32349e-18)
(0.997235 -0.000477393 4.65209e-20)
(1.07171 0.0279738 -6.64846e-19)
(1.08469 0.0166443 1.67253e-19)
(0.99993 -3.09522e-05 -4.19994e-23)
(1.02091 -0.0120653 -3.84813e-19)
(1.00057 -0.00463922 9.21103e-20)
(1.01803 -0.0250702 -7.16702e-19)
(0.999236 -0.00297514 3.00285e-20)
(0.983923 -0.0121281 -2.10022e-20)
(0.975672 -0.0425875 -3.5731e-19)
(1.00372 -0.0376403 -4.72197e-20)
(0.99859 -0.0074193 -8.76328e-20)
(0.989929 -0.0586171 8.56831e-19)
(1.00597 -0.0436378 2.80618e-19)
(0.997211 -5.74332e-05 -3.24144e-20)
(1.00027 -0.00161562 8.89658e-21)
(0.973031 -0.0146752 2.76773e-20)
(1.00009 -0.00127625 1.0358e-20)
(1.00856 -0.00519064 6.34512e-19)
(0.979732 0.0312634 1.30991e-18)
(1.01635 0.000448904 -2.42941e-18)
(1.00124 -0.101549 8.86216e-19)
(1.17174 0.0577137 -1.09746e-19)
(0.975126 -0.0426957 -6.21223e-20)
(0.999986 -1.87532e-05 5.71627e-22)
(1.07902 0.0655855 7.75502e-19)
(1.00515 0.0289672 -8.67934e-19)
(0.999767 -0.000780585 -1.59021e-21)
(1.01342 -0.00589095 -5.78861e-19)
(0.998365 -0.00103754 -1.19222e-20)
(1.02735 0.00892114 7.06553e-19)
(1.00058 -0.00342946 -6.51248e-20)
(1.08532 0.0191693 4.3618e-19)
(0.934755 -0.0131537 3.95229e-20)
(0.998538 -0.0367596 -2.02641e-19)
(1.11505 0.0851426 2.1107e-19)
(0.994914 -0.00498636 -9.44163e-21)
(0.985776 -0.0408775 7.34428e-20)
(1.05114 0.0123787 4.69454e-19)
(1.0222 -0.0292979 -1.09491e-19)
(0.977573 -0.0121616 7.77509e-20)
(1.20535 -0.0432396 1.26853e-18)
(1.00672 -0.0110767 -4.05882e-21)
(0.997147 -0.00170789 -2.04736e-20)
(1.00508 0.0695196 1.58403e-18)
(1.00651 0.0817466 1.08887e-18)
(0.990086 -0.030836 2.70912e-19)
(0.999063 -0.00355489 -4.19799e-20)
(1.00238 -0.00857592 6.16801e-20)
(0.994431 0.0259816 -3.59803e-18)
(1.0009 -0.00190289 4.91262e-20)
(0.995547 -0.00426903 2.26047e-20)
(1.08469 0.0586994 -2.00837e-19)
(1.05229 -0.010202 3.82973e-19)
(0.999746 -0.000386423 1.54515e-22)
(1.01268 -0.0075203 -1.6703e-19)
(0.939826 -0.00182631 1.23535e-18)
(1.05017 0.0191958 -1.78322e-18)
(0.978193 -0.00438665 -1.46664e-19)
(1.00717 -0.00642204 -3.66069e-19)
(1.02614 0.00718643 8.87725e-19)
(0.934713 -0.0124483 -7.65336e-20)
(1.07798 0.0655335 -1.19282e-18)
(0.997074 -0.00180083 1.45213e-20)
(0.99998 -2.4418e-05 -1.09915e-21)
(0.999625 -0.00134143 -6.79841e-21)
(0.998537 -0.00191356 1.91652e-20)
(0.946089 0.00106415 7.80899e-19)
(0.997524 -0.00348787 -9.08526e-21)
(1.06261 0.00993664 1.0417e-18)
(0.99996 -5.90925e-05 5.06872e-23)
(0.998897 -0.00170249 -3.63963e-22)
(0.996309 -0.00279439 -2.11417e-20)
(0.99022 -0.00919719 -2.51575e-20)
(1.03687 0.00784815 -3.22454e-18)
(1.09404 0.0808918 1.61831e-19)
(0.985543 -0.00568941 1.38204e-19)
(0.993782 -0.00647042 8.19104e-21)
(1.00184 -0.00241523 -2.11656e-20)
(0.99852 -0.00769441 5.51747e-20)
(0.941729 0.0181126 -5.60484e-20)
(0.976508 -0.0223471 1.40032e-19)
(0.99905 -0.0072906 -2.97896e-20)
(1.02096 0.0635338 4.8379e-19)
(1.01163 0.0135419 -1.23205e-18)
(1.01092 -0.00601919 9.67866e-19)
(0.997224 -0.00283367 2.02013e-20)
(1.00666 -0.0273326 4.84442e-20)
(1.00528 -0.0154189 6.74423e-20)
(1.0257 -0.0241851 1.42245e-18)
(1.00002 1.7961e-06 7.88483e-24)
(0.999466 -0.0017476 -1.28573e-20)
(1.026 -0.0169229 -7.84983e-19)
(1.03244 0.0360489 1.63885e-18)
(0.987669 -0.0433781 -1.93498e-19)
(0.998084 0.0435184 8.57091e-19)
(0.942591 -0.000919304 -9.35355e-19)
(1.07805 0.01188 -1.52292e-18)
(0.999999 -6.1038e-06 5.84365e-23)
(0.987511 -0.000291647 -1.22942e-19)
(0.988067 -0.0172809 4.89583e-21)
(1.00036 -0.00627406 -9.26077e-20)
(1.00001 -3.9642e-06 -9.98034e-23)
(1.08489 -0.0469934 9.57016e-19)
(1.04567 0.110956 -5.88739e-19)
(0.976147 -0.0018868 -1.12311e-19)
(0.999225 -7.56202e-06 -1.13058e-20)
(1.0689 0.0317673 -9.68714e-19)
(1.00359 -0.00434031 3.68628e-20)
(1.00223 -0.00878367 -1.23585e-19)
(1.00022 -4.83465e-06 1.89428e-20)
(0.998598 -0.00247328 -9.95891e-21)
(1.02784 -0.0161339 -1.10201e-19)
(0.976179 -0.039051 -1.65335e-19)
(0.997029 -0.022121 1.64993e-19)
(0.996323 -0.0150993 2.32712e-19)
(1.0257 -0.0163123 -9.71133e-19)
(1.00863 -0.00525648 -3.3595e-19)
(0.999897 4.67389e-06 -2.64791e-21)
(1.00743 0.0965395 1.3944e-18)
(0.946543 -0.0334043 -8.1007e-21)
(1.00202 -0.00309268 -7.47683e-20)
(1.03727 -0.0422243 4.9719e-19)
(1.02533 0.00804484 -3.08522e-18)
(1.01013 0.024793 -2.80638e-18)
(0.984501 -0.0117761 3.29839e-20)
(1.01297 -0.00252287 4.36351e-19)
(0.984024 -0.0152806 3.65139e-21)
(0.998321 -0.00225733 -2.3363e-20)
(1.2001 -0.046295 -7.94265e-19)
(1.001 -0.0011088 5.48928e-20)
(1.00059 -0.00452394 -1.65185e-19)
(0.984834 -0.00740803 1.3455e-19)
(0.97924 -0.0181259 4.31743e-20)
(0.998637 -0.00189564 2.40125e-20)
(0.977407 0.0684269 -7.21499e-19)
(1.0094 0.0288164 2.05846e-19)
(1.19885 0.00444937 -3.10794e-19)
(1.06669 -0.0145093 -1.59868e-18)
(1.00002 -2.63736e-05 -5.29605e-22)
(0.996356 -0.00805146 -1.31141e-20)
(1.04566 -0.00520247 4.14322e-19)
(0.992084 -5.66673e-05 2.51689e-20)
(0.997362 -0.0171798 2.28977e-19)
(0.997098 -0.00181472 5.21815e-21)
(1.00189 -0.00232544 -6.01966e-20)
(0.996854 -0.00336801 -1.76863e-20)
(0.99479 -0.00114489 -1.77976e-20)
(0.998636 -0.00736493 3.18644e-20)
(1.00062 -0.00453862 1.01002e-19)
(1.09821 -0.0922342 -2.60921e-19)
(1.00004 -4.63665e-05 5.03243e-21)
(1.00843 -0.00488954 -5.5068e-20)
(0.999983 1.06684e-05 6.41719e-24)
(0.934988 -0.0151772 9.96039e-20)
(1.00039 -0.000305563 1.11934e-20)
(0.986887 0.046086 1.89178e-18)
(1.00692 0.0812699 -5.74151e-19)
(1.01796 0.0218125 -1.08199e-18)
(1.06601 -0.0149355 1.08437e-18)
(1.01386 0.0226846 -1.05228e-19)
(1.01862 0.00066546 1.50105e-18)
(0.998742 -0.00290247 -2.57173e-21)
(1.00202 -0.00139254 -6.34533e-20)
(0.999618 -0.000931456 2.1207e-23)
(0.995475 -0.0021916 3.02996e-20)
(0.979119 -0.0123903 4.51504e-20)
(0.995036 -0.00519217 -4.89757e-21)
(0.996086 -0.00795175 -2.57387e-20)
(1.02626 -0.0234241 -5.43503e-19)
(1.00036 -0.000256792 -1.36772e-20)
(0.999798 -0.000105231 -7.29075e-22)
(1.00019 -0.00019914 -1.0363e-20)
(0.999663 -0.00215151 -1.61828e-20)
(1.01855 3.93945e-05 8.30384e-19)
(1.02355 -0.0234703 1.07523e-18)
(0.984629 -0.00769257 -1.44188e-19)
(1.00008 -0.000992396 -2.18351e-20)
(1.08997 -0.0383768 -2.04384e-18)
(1.00103 -0.00180759 1.47322e-19)
(0.99979 -0.00012605 -2.54194e-21)
(1.01057 0.0246937 4.0113e-18)
(1.02035 -0.000995784 1.38208e-19)
(1.0019 0.0286157 6.12421e-18)
(1.00005 -5.09784e-05 -4.76309e-21)
(0.999987 -0.000966366 0)
(1.00194 -0.00142605 9.51451e-20)
(0.992449 -0.0292204 -1.65991e-19)
(0.996474 -0.00455617 -5.87742e-21)
(1.05128 -0.0647298 7.15831e-19)
(0.976171 -0.00073553 7.47887e-20)
(1.03212 0.0257448 2.23627e-18)
(0.991265 -0.000404746 2.07909e-19)
(0.978536 0.0696604 -3.78002e-19)
(1.00107 -0.0017348 -1.07185e-19)
(1.00202 -0.00286441 8.81611e-20)
(1.0009 0.0312862 -1.52982e-18)
(1.0076 0.0676179 -6.59497e-19)
(1.05289 -0.0460415 2.31467e-18)
(1.00246 -0.00189552 1.54735e-20)
(0.936549 -0.0178154 -1.38619e-19)
(0.991255 1.35156e-06 -1.19094e-19)
(1.00006 -4.96448e-05 2.04753e-21)
(1.00855 -0.00493183 6.74436e-20)
(0.94718 -0.0341408 1.94817e-20)
(0.989639 -0.0267711 2.62855e-20)
(0.964253 -0.003802 3.23848e-20)
(1.02648 -0.0244775 -2.14778e-19)
(1.05042 0.0179326 2.9443e-18)
(0.999983 -8.73322e-07 3.40212e-23)
(1.0026 -0.00168839 -3.13574e-20)
(1.01515 -0.00449685 6.15822e-19)
(1.02726 -0.00699952 -1.04614e-18)
(0.983957 0.0462585 -9.20277e-19)
(0.999994 7.37464e-06 5.6962e-25)
(0.999983 -8.00443e-05 2.11256e-23)
(1.0022 -0.000121974 -1.48387e-19)
(0.988993 -0.0278107 2.14107e-19)
(0.999189 -0.001514 3.79577e-21)
(0.999778 -0.000831671 -1.01966e-20)
(1.06496 0.00864838 -1.36615e-18)
(0.955152 0.003109 -3.22226e-18)
(1.0849 0.0238669 -1.82125e-19)
(1.00202 0.0280605 -1.58347e-18)
(0.984084 -0.00178374 4.31005e-20)
(0.997589 0.0173129 7.89955e-19)
(1.01541 0.00634833 1.54265e-18)
(0.997024 -0.00334565 6.45909e-21)
(1.08393 -0.0477892 -1.29994e-18)
(0.945269 -0.0195643 -3.20575e-20)
(0.996482 -0.0154427 -1.42677e-19)
(1.00097 -0.00689317 -1.0866e-19)
(0.997905 -0.00495189 -1.9477e-20)
(0.998332 -0.00160733 1.01249e-20)
(0.998952 0.0293045 -6.49146e-18)
(0.98786 -0.0269751 2.05229e-19)
(0.993917 0.0488414 9.5552e-19)
(1.02258 -0.0297162 -8.31001e-19)
(1.01845 0.0216643 6.01589e-19)
(0.985583 -0.00650337 6.05124e-20)
(0.990631 -0.00923056 -5.75758e-20)
(1.12009 0.0445146 -1.18048e-19)
(1.0154 0.00936421 1.56309e-18)
(0.997798 -0.00316622 -2.09545e-20)
(1.0004 -0.00227797 9.32803e-20)
(1.00018 -0.00234188 -7.04626e-20)
(0.999986 -8.72324e-06 -2.37196e-22)
(1.02301 -0.0246134 -1.88389e-18)
(0.979895 -0.0500354 7.47728e-19)
(1.00021 -0.000804884 -1.94287e-20)
(1.04328 -0.00711983 -1.2162e-19)
(0.999561 -0.00104689 -4.64814e-22)
(0.99953 -0.00115455 6.43056e-21)
(1.00237 -0.000118369 -1.15252e-20)
(1.02318 -0.0293509 5.13687e-19)
(1.0011 -0.000145863 -2.88104e-20)
(1.00124 -0.00575126 1.54285e-21)
(0.981244 -0.00419893 8.64802e-20)
(0.996947 -0.00422947 3.47368e-21)
(0.995404 -0.00223868 -1.05881e-19)
(0.99497 0.0308878 -8.62795e-18)
(1.08397 -0.0100995 3.35231e-18)
(1.00787 -0.00987683 4.47841e-19)
(0.99261 -0.0110202 -5.40559e-21)
(0.980283 -0.033516 2.29797e-20)
(1.00071 -0.00424042 -6.03893e-20)
(1.00002 -4.61148e-05 -1.77417e-21)
(0.999992 -6.87768e-06 -4.39283e-23)
(0.968833 -0.00659942 8.49241e-21)
(0.945532 -0.0191736 3.28075e-20)
(0.978672 -0.02345 -2.01816e-21)
(1.00002 -3.94323e-05 -4.89095e-21)
(0.988186 -0.00393558 1.10823e-19)
(1.03724 0.00798882 2.97321e-18)
(1.09494 0.0906061 -9.72215e-19)
(1.07818 0.0131078 -1.10071e-18)
(0.999941 -3.45684e-06 -3.71857e-22)
(0.978633 -0.0125814 1.53105e-19)
(1.00644 -0.0257562 -8.1591e-19)
(1.00016 -2.5501e-05 -1.10408e-21)
(0.999911 -0.000420571 -1.8475e-21)
(0.975839 -0.00114712 -1.39445e-20)
(1.00212 -2.58006e-05 -4.91175e-20)
(1.00098 -0.0037523 -9.30327e-21)
(1.03305 -0.0625973 3.42005e-19)
(1.00086 -7.53324e-05 -2.28321e-20)
(0.964324 -0.0394878 -3.30276e-19)
(0.982962 -0.00283926 -8.75049e-20)
(0.983622 -0.0018178 7.73835e-20)
(0.986253 -0.00570201 2.22058e-20)
(1.00142 -0.00574634 -8.68813e-20)
(0.971796 -0.0249198 1.19538e-19)
(1.0005 -0.000864199 2.31318e-20)
(1.00002 -2.28041e-05 -2.25367e-22)
(1.00401 -0.00357255 1.02972e-19)
(0.999596 0.0633413 -6.87261e-19)
(0.981756 0.0190004 6.39962e-18)
(1.00633 0.0220113 1.42659e-18)
(1.02224 -0.0243889 -3.51484e-19)
(0.992135 -0.00922105 -6.02893e-21)
(1.0047 0.0245379 7.44911e-18)
(1.01052 -0.00645902 -1.27144e-18)
(1.00029 -0.000593399 -1.63813e-20)
(1.01713 -0.000383712 -6.83436e-19)
(0.989257 -0.00821427 1.64477e-20)
(1.07221 0.0283136 -1.28658e-18)
(0.997895 -0.00501176 -2.08666e-20)
(1.01892 0.000388589 -1.89068e-18)
(1.0012 -2.34998e-05 5.22075e-20)
(1.00629 0.0216027 9.73162e-19)
(1.00095 -0.000109897 -3.54894e-20)
(0.996528 -0.00489612 1.71773e-21)
(0.985136 -0.00623855 -1.71566e-20)
(1.00602 0.0288179 9.05577e-19)
(1.00045 -6.35415e-05 -3.71008e-20)
(0.990374 -0.0310653 -3.5464e-19)
(1.05075 -0.0637581 -1.39135e-18)
(1.03232 0.0257988 -1.76174e-18)
(1.00018 -0.0310459 5.26366e-19)
(0.996917 -0.00506572 8.05224e-21)
(1.10945 0.00651197 -5.65984e-19)
(1.00005 -8.47876e-07 -3.51308e-21)
(1.19784 0.00887283 1.2575e-19)
(0.996766 -0.0042848 3.52374e-21)
(1.0136 -0.0060404 -9.12871e-19)
(0.992963 -0.0291814 -1.60626e-19)
(1.00284 5.63217e-05 -1.71209e-19)
(1.04505 0.109841 -1.50078e-18)
(1.0093 0.029173 -2.07044e-18)
(0.979658 0.0270158 2.97322e-18)
(1.01365 0.0226949 3.0974e-19)
(1.02446 0.047552 9.98452e-19)
(1.08572 0.0154775 -1.3087e-18)
(1.00943 0.107463 -1.70193e-20)
(1.01072 -0.00662878 1.41347e-18)
(1.01309 0.0416512 1.07208e-18)
(1.00154 0.0281957 -4.75678e-18)
(1.00059 -0.00365791 -4.3244e-21)
(0.999062 -0.00290451 1.2308e-20)
(0.98351 0.0172317 -6.89732e-18)
(1.00002 -3.36985e-05 -9.65652e-22)
(1.19194 0.0564048 -2.83334e-19)
(1.09242 0.0954348 -3.46976e-19)
(0.986003 -0.0118851 6.32142e-20)
(1.00125 -0.00192233 -7.59294e-21)
(1.02723 -0.00720097 -3.48527e-19)
(0.998624 -0.00165191 -9.97632e-21)
(1.00193 -0.00146446 -2.00389e-21)
(0.993107 0.0373866 -1.48698e-18)
(0.961143 0.0231596 2.62104e-18)
(0.999814 8.0825e-06 -1.90474e-22)
(1.00058 -0.000840697 -2.2942e-20)
(1.05162 -0.00848885 -4.38274e-19)
(1.00041 -0.00218896 6.71592e-21)
(1.11247 0.0838604 -4.71764e-19)
(1.00664 0.0671106 -1.10345e-18)
(1.02554 0.0213454 3.50613e-19)
(0.999918 -0.000416487 5.36227e-21)
(1.0004 -0.0427058 -2.06534e-19)
(1.00009 -0.0372943 -1.17881e-18)
(1.00086 -2.82289e-07 2.28133e-20)
(1.01425 -0.0199284 7.39851e-19)
(1.02546 0.0038583 6.75128e-19)
(0.961902 0.0209662 -1.6721e-18)
(1.00038 -0.00219542 -2.34937e-20)
(0.999982 3.89084e-06 -1.25551e-23)
(1.01432 0.0413869 7.99629e-19)
(1.01355 -0.0200458 1.29044e-18)
(0.999822 3.44959e-05 -4.16177e-21)
(1.02238 -0.00596882 -1.96537e-19)
(1.00581 -0.00875649 -7.34072e-20)
(0.997355 -0.00354599 -7.56005e-22)
(0.996688 0.000212896 1.78567e-20)
(1.167 0.0713116 -2.15963e-19)
(0.987233 -0.00343178 4.50713e-20)
(0.998705 -0.00185532 3.95116e-22)
(0.978051 -0.0171232 9.65985e-22)
(1.00062 -0.00082555 3.24655e-20)
(0.999815 -0.000149103 1.53808e-21)
(0.999688 -0.00923578 -1.70384e-19)
(1.08008 0.0340868 -2.08413e-19)
(0.99967 -9.21866e-05 2.02227e-21)
(0.982909 -0.00306753 -1.0403e-19)
(1.00111 -0.000990375 6.81119e-21)
(1.00139 -0.030518 2.44401e-19)
(1.00592 0.0289494 -1.19054e-18)
(0.999784 -0.000745974 5.15192e-21)
(0.943089 -0.00205516 -2.01136e-18)
(1.05689 -0.0260237 -1.21917e-18)
(0.996371 0.0178642 8.87688e-19)
(1.07916 0.0331212 5.49633e-19)
(0.999102 -0.000549407 4.17403e-21)
(0.999942 -0.000109152 1.06048e-21)
(0.999286 -0.000540656 -7.36447e-21)
(0.996304 -0.00417406 8.44183e-22)
(1.01376 0.00121474 0)
(0.999777 -0.00703138 -1.06506e-19)
(0.987505 -0.000414083 2.93157e-20)
(0.988639 0.0383072 -4.88077e-18)
(0.948269 -0.0229604 2.15574e-20)
(0.947999 -0.0228495 -1.9247e-20)
(1.02814 -0.0150333 6.2737e-19)
(1.04381 -0.00989651 1.90666e-18)
(0.993602 0.0332202 5.31194e-18)
(0.999257 -0.000461366 3.91215e-21)
(0.990575 -0.0310614 -8.08239e-20)
(0.985415 -0.0118233 -6.16936e-20)
(1.00026 -0.000371958 1.63504e-20)
(1.0173 -0.0257834 4.27385e-19)
(1.00117 -0.000906362 -3.3022e-21)
(1.02423 -0.0244461 -1.00807e-18)
(0.988367 -0.0559757 -1.70572e-19)
(0.949263 0.00446479 -3.35927e-18)
(0.963355 -0.0375351 2.9848e-19)
(0.997909 -0.00213411 2.73751e-21)
(0.984146 -0.0113445 -1.22285e-19)
(1.00613 -0.0154119 -3.5588e-20)
(1.05728 0.0131308 -2.11237e-18)
(1.01862 0.00073817 -2.64e-19)
(1.01059 -0.02676 -1.15516e-19)
(1.00001 -6.79192e-07 -5.79061e-22)
(1.00192 0.0276453 1.97769e-18)
(0.988971 -0.00428461 -1.1586e-20)
(0.933477 -0.0116841 -7.042e-20)
(0.999544 -0.00662671 -4.76216e-20)
(1.02466 -0.0172933 -2.99633e-18)
(0.98848 -0.03796 -7.18177e-19)
(1.00407 -0.00357396 4.48578e-20)
(1.10021 0.077657 -1.1342e-18)
(0.998716 -3.30461e-05 3.12565e-20)
(0.999862 0.0403125 2.75828e-18)
(0.999125 -0.0129033 1.33361e-19)
(1.02614 0.00542901 -3.35712e-19)
(0.965359 -0.00695031 7.89682e-20)
(1.01469 -0.0018705 1.15003e-19)
(0.999986 -3.98339e-05 2.1192e-22)
(0.98431 -0.0326477 2.92587e-20)
(0.981435 -0.00489971 9.80232e-20)
(0.98883 -0.0269948 -2.31857e-19)
(1.02245 -0.00650469 -1.47227e-19)
(1.03142 -0.0642804 3.41147e-19)
(1.0004 -0.0010123 -3.6808e-20)
(1.06668 -0.128129 4.81386e-19)
(0.998245 -0.00152098 -4.21741e-20)
(0.999949 -0.000113976 1.0373e-21)
(0.999724 -0.00699059 1.17871e-19)
(1.00037 -0.000837913 9.738e-21)
(0.9621 0.0203346 2.27777e-18)
(1.00029 -0.000415243 -1.43395e-20)
(0.987469 0.0456911 -5.89977e-19)
(0.984012 -0.0119083 -1.93751e-20)
(1.01428 -0.00183271 -2.17656e-19)
(1.00281 -0.00174141 -1.64865e-19)
(1.03915 0.0216202 2.66579e-18)
(1.00331 -0.00435977 -2.18577e-19)
(1.0113 0.0141937 -1.05862e-18)
(0.999993 -1.35339e-05 -4.7265e-23)
(1.02186 -0.0344208 8.10586e-19)
(1.00003 -0.00373755 -2.32854e-20)
(1.00152 -0.00290943 1.41423e-20)
(0.980609 -0.0123672 -3.03407e-20)
(1.00002 -2.88047e-05 2.24652e-21)
(1.08818 0.0587023 -7.45753e-19)
(0.960756 0.0254982 6.59786e-19)
(1.08949 0.096646 7.80695e-19)
(1.00016 -0.000599231 3.18148e-20)
(1.11174 -0.0193165 6.42404e-19)
(1.01392 0.00137365 -3.80354e-19)
(0.99207 0.0354738 3.62756e-18)
(1.00019 -0.00327716 1.65961e-20)
(0.999622 5.51028e-06 -1.77329e-21)
(1.05056 -0.0086816 -4.98341e-19)
(1.00025 -0.000258501 -9.96816e-21)
(0.978004 0.0161773 -1.43304e-18)
(1.00617 -0.0250618 -7.7292e-20)
(1.04326 0.117397 -1.63724e-20)
(1.0325 0.0356794 -2.17984e-18)
(1.00022 -0.000247146 8.0203e-21)
(0.9989 -0.100426 8.21896e-19)
(1.00512 0.0174766 -2.22415e-18)
(0.99982 -0.00013703 3.36776e-23)
(1.04693 -0.0021589 2.64407e-18)
(0.99656 0.00853005 4.19772e-18)
(0.996662 -0.000132467 1.44911e-20)
(1.00225 -0.00915386 1.58517e-19)
(1.00068 -0.000114901 1.74612e-20)
(1.00529 -0.00967203 -2.42404e-19)
(0.985108 -0.0063965 6.83868e-21)
(0.992784 -0.000153919 1.63346e-20)
(0.996565 0.0509136 -1.26824e-18)
(0.996422 -0.0149355 -9.65768e-20)
(0.944573 0.00513245 5.71112e-18)
(0.947947 -0.00115157 5.69695e-18)
(0.995865 -0.000105504 -3.99171e-20)
(1.00004 -0.000719374 -2.1542e-21)
(0.996197 0.0492761 -5.40069e-19)
(0.997136 -0.00353005 4.92431e-21)
(0.986991 -0.00249046 2.60038e-20)
(1.00055 -0.00087173 -5.4708e-21)
(1.0258 0.023646 8.34273e-20)
(0.965596 -0.00702764 -1.1545e-19)
(0.954099 0.0123477 4.17381e-18)
(0.999233 -0.00330672 3.03567e-20)
(1.00015 -0.00166077 -1.34985e-20)
(0.989108 -0.00438171 3.90494e-20)
(1.09718 0.0921372 -8.37426e-19)
(0.998662 -0.0449884 -4.59527e-20)
(1.06676 0.00997983 -4.18373e-19)
(1.03362 -0.0126004 -1.26492e-18)
(1.01627 0.0066868 -1.29056e-18)
(0.999648 -0.000161241 -1.16641e-21)
(1.10724 0.0558811 5.72737e-19)
(1.00002 -3.58186e-05 -3.20636e-21)
(1.00181 -0.00112437 1.19323e-19)
(0.99998 6.57488e-07 -7.43e-23)
(1.19217 0.00445035 7.72389e-19)
(1.05485 -0.0458496 -1.90987e-18)
(1.01022 0.0240185 1.84137e-19)
(0.999977 -2.72682e-05 2.44063e-23)
(0.979679 0.0269557 -7.92189e-18)
(0.999399 -0.000196876 5.36605e-21)
(1.01826 -0.0256361 4.30839e-19)
(0.999065 -0.000554735 1.42786e-20)
(0.947706 -0.0327248 -3.61564e-21)
(0.992678 -0.0113678 1.63824e-20)
(1.04712 0.0248002 1.38206e-18)
(0.999824 -1.07145e-05 5.39225e-21)
(1.02078 -0.0417059 9.69065e-19)
(1.01449 -0.0195252 1.33578e-19)
(0.991971 -0.0101362 -1.65571e-20)
(0.99996 -0.000123692 -3.66442e-21)
(1.00014 -0.00163914 -1.46435e-20)
(0.999711 -2.01505e-05 6.92901e-22)
(0.9813 -0.037677 4.01566e-19)
(1.00176 -0.00250546 6.40542e-20)
(0.998341 -0.00108447 -1.10917e-21)
(0.97621 -0.000365364 1.12107e-19)
(1.00011 -0.00037993 -1.21118e-22)
(1.00042 -0.000358954 2.94848e-20)
(1.00578 -0.0140864 3.10495e-19)
(0.999085 -0.000490609 2.45751e-21)
(1.00548 0.0240893 -3.30067e-18)
(1.03168 0.00301074 2.53751e-18)
(1.10681 0.0868268 -6.40693e-20)
(0.980153 -0.000644601 -1.75539e-20)
(1.01994 -0.0533451 -1.01954e-18)
(0.999968 8.26647e-07 1.6388e-25)
(1.11212 0.008616 6.46325e-19)
(0.986153 -0.0566664 7.31452e-19)
(1.00068 -6.25094e-05 2.62828e-20)
(0.978259 -0.0238222 -2.52964e-20)
(0.999267 -0.00355534 2.13049e-20)
(0.973951 -0.017991 4.26606e-20)
(1.14961 -0.0396829 3.63856e-19)
(1.00096 -2.75353e-05 -2.65688e-20)
(1.02398 -0.0288635 -1.59688e-18)
(0.999949 -0.000106957 -4.17014e-21)
(0.996613 -0.00547479 -7.28541e-21)
(0.999409 -0.000204071 5.23693e-22)
(1.01498 0.0375685 -1.48199e-19)
(0.9925 -0.00124648 -6.83931e-20)
(1.00017 -0.000443052 -2.1694e-22)
(0.999814 -0.000192201 1.87722e-21)
(1.01654 -0.00552034 8.06604e-19)
(0.968503 -0.0346088 6.77287e-21)
(0.997252 -0.00349608 -8.14256e-21)
(1.00021 -0.00165085 -3.28489e-20)
(0.993727 0.0523744 -1.52517e-19)
(1.00012 0.0331395 1.1605e-18)
(1.00179 -0.00292556 4.10765e-20)
(1.05144 0.0906746 -2.33646e-20)
(1.10777 -0.038686 -1.70875e-18)
(0.951078 -0.0348658 -3.47329e-20)
(1.00001 -0.00073809 8.53492e-21)
(0.999995 -3.78662e-07 4.5721e-24)
(1.00157 0.0625718 8.8885e-19)
(0.973012 -0.0146752 1.38212e-20)
(1.00013 -0.000372691 -5.36856e-21)
(1.06542 0.0710893 9.7457e-19)
(0.998601 -0.000864255 1.66879e-20)
(0.999984 -7.4464e-06 -1.97501e-22)
(1.04331 0.00805775 2.96713e-19)
(0.996965 -0.0664175 2.99973e-19)
(0.966798 -0.0411599 -3.95574e-19)
(0.945375 -0.0323671 -1.58247e-20)
(0.990887 -0.0275516 2.49846e-19)
(0.99224 -6.51504e-05 2.74625e-20)
(0.986859 -0.00275303 -2.07767e-19)
(1.00105 -0.00693714 -1.60651e-19)
(1.02687 0.0350514 -1.03164e-18)
(0.999454 -0.000848373 4.54863e-21)