/*--------------------------------*- C++ -*----------------------------------*\
  =========                 |
  \\      /  F ield         | OpenFOAM: The Open Source CFD Toolbox
   \\    /   O peration     | Website:  https://openfoam.org
    \\  /    A nd           | Version:  7
     \\/     M anipulation  |
\*---------------------------------------------------------------------------*/
FoamFile
{
    version     2.0;
    format      ascii;
    class       volVectorField;
    location    "33";
    object      U;
}
// * * * * * * * * * * * * * * * * * * * * * * * * * * * * * * * * * * * * * //

dimensions      [0 1 -1 0 0 0 0];

internalField   nonuniform List<vector> 
7807
(
(1.06836 0.143572 4.7952e-21)
(1.05656 -0.0426689 -1.45186e-21)
(0.981487 0.103329 -1.02198e-20)
(1.03179 0.0690685 1.3248e-20)
(0.99923 -0.000816411 -1.48105e-23)
(0.999972 -3.91266e-06 -2.42638e-25)
(0.980738 0.08285 -1.97811e-20)
(0.995134 -0.00122864 -2.9242e-24)
(0.999894 -0.000144411 -2.1654e-24)
(1.02314 0.00137306 -5.45111e-22)
(0.999972 -5.5658e-06 2.74964e-25)
(1.00195 -0.00113334 -4.12527e-23)
(0.992779 -0.0014032 1.41247e-22)
(1.01951 -0.00174987 -3.0254e-21)
(1.0224 0.00165309 2.31607e-21)
(0.990427 -0.0141548 -4.77738e-22)
(1.07084 0.150543 -1.00804e-20)
(0.990371 -0.00176612 -5.04965e-23)
(1.00179 -0.00920421 3.30164e-23)
(0.97447 -0.109758 -5.90801e-22)
(1.03484 -0.00412511 -1.03188e-21)
(1.00128 -0.00069811 6.80489e-23)
(1.0176 -0.00322584 2.33925e-22)
(1.00969 0.0298118 -6.57207e-21)
(0.987463 -0.00217464 -2.26897e-22)
(1.0632 0.141269 -4.76888e-21)
(0.999273 -0.000780208 -1.02732e-23)
(1.02285 -0.001846 1.25034e-21)
(1.00448 0.0141062 -8.22357e-22)
(1.0032 -0.00985972 -3.51263e-23)
(0.985401 -0.0145271 -7.87344e-22)
(0.928874 0.0128806 2.76159e-21)
(1.01745 -0.00396448 1.483e-21)
(0.999576 -0.000304591 1.41153e-23)
(0.999962 -3.01361e-06 1.36688e-26)
(1.02323 0.00034208 7.93853e-22)
(1.00367 -0.0108119 -2.22797e-23)
(0.986056 0.0814135 -3.11692e-21)
(0.995989 -0.0072643 3.87694e-22)
(0.999771 -2.54001e-05 8.08806e-24)
(0.99638 -0.0075331 -4.16602e-23)
(0.990613 -0.0132004 -1.58106e-22)
(1.00844 -0.120943 3.10333e-21)
(1.16174 -0.0401958 9.20733e-22)
(0.999931 -4.60911e-06 1.76248e-24)
(0.999946 -7.41429e-06 -3.58847e-25)
(1.00123 -0.000563922 -4.15719e-23)
(0.995879 -0.00661612 -2.27514e-22)
(0.999946 -1.88463e-05 -4.38827e-25)
(0.979819 -0.110606 8.68365e-22)
(1.00292 -0.00100205 4.9475e-23)
(1.02251 -0.00118041 -1.28662e-21)
(0.984291 -0.0024175 -7.78714e-22)
(1.01053 -0.0314395 -9.94973e-23)
(1.02376 -0.000201305 -4.40874e-22)
(0.995583 -0.00196144 -2.85054e-23)
(1.00176 -0.00852696 -3.58851e-23)
(0.995256 -0.000993702 1.78269e-22)
(0.974999 -0.0168738 -1.31689e-21)
(0.999562 -0.00026424 -1.72959e-23)
(1.00003 -1.84989e-05 -2.70804e-25)
(1.00383 -0.00114992 5.75814e-23)
(1.01967 -0.00113881 -7.23114e-22)
(1.00213 -0.000994215 4.17825e-23)
(0.9993 -8.54482e-05 1.77933e-23)
(0.985956 -0.0152207 1.14214e-22)
(0.999913 -0.000144863 1.9004e-24)
(1.00001 -2.1126e-06 -1.00192e-26)
(1.15275 0.0818071 1.22993e-21)
(0.996096 -0.00626845 -7.70315e-23)
(0.999945 -9.96141e-06 3.68849e-25)
(0.962347 -0.0602532 -3.44431e-21)
(0.987374 -0.00258366 1.16965e-22)
(0.980002 -0.00262884 1.46176e-22)
(0.990424 -0.0021162 1.61386e-22)
(0.959966 -0.024325 -2.92341e-22)
(0.985228 0.105766 1.64614e-20)
(1.03309 -0.00413853 1.32477e-21)
(1.08681 0.00336851 -1.6273e-21)
(0.944065 -0.0454062 -3.63098e-21)
(0.992899 -0.00167449 -2.17481e-22)
(0.997543 0.0488292 1.87361e-20)
(1.03955 0.00695549 3.35889e-21)
(0.974113 -0.00671783 8.06092e-22)
(0.998637 -0.00215952 -3.2515e-23)
(0.998573 -0.000118922 1.735e-23)
(0.994668 -0.0017556 2.73685e-22)
(0.983965 -0.00291884 4.94056e-22)
(0.999387 -0.000987591 1.71802e-23)
(0.997089 -0.00024982 6.92799e-23)
(1.00471 0.0159956 6.13431e-21)
(1.1943 -0.0198008 -1.50541e-21)
(0.999892 -3.3285e-05 -1.4126e-24)
(1.00139 -0.00716282 -1.33794e-23)
(0.996911 -0.000607746 6.95474e-23)
(0.986707 -0.00085521 -1.12052e-21)
(0.965357 -0.0599865 1.9159e-22)
(1.01244 -0.0302413 3.08065e-22)
(0.998509 -0.00206721 9.97283e-24)
(0.999211 -9.36555e-05 7.01876e-24)
(0.953682 -0.00962308 5.86205e-22)
(1.0873 0.00874555 1.5156e-21)
(0.997007 -0.000757066 -1.69793e-22)
(0.999991 -5.99285e-07 -1.04185e-26)
(1.19655 -0.00669409 -1.13123e-21)
(1.02844 0.0309925 -5.82337e-21)
(0.956108 0.011146 3.1541e-21)
(0.99531 -0.00179266 -1.10007e-22)
(0.999993 -2.03871e-06 3.45839e-27)
(1.0249 -0.0139803 -3.91241e-22)
(1.03532 0.0657479 -1.53925e-20)
(1.02739 -0.0865968 -4.13908e-21)
(0.999992 -2.36928e-06 -1.04995e-26)
(1.0266 -0.0143611 -8.31347e-23)
(1.02533 0.0293756 6.13613e-21)
(1.00035 -0.00050227 -1.60452e-24)
(1.08231 -0.10072 -3.04895e-22)
(1.02908 0.0177744 -1.36647e-21)
(0.978207 -0.0470899 1.55955e-21)
(0.977492 -0.00376003 -1.76343e-22)
(0.963396 -0.00430995 -1.26502e-21)
(1.00039 0.021541 -1.21004e-20)
(1.01621 -0.118926 -4.24963e-21)
(1.00915 -0.00788956 2.02946e-23)
(0.96027 -0.00566395 4.72076e-22)
(0.999107 -0.00114356 4.01876e-23)
(0.987103 -0.0107036 2.56693e-22)
(1.00234 -0.00810818 2.9448e-23)
(0.999383 -5.7167e-05 -4.13323e-23)
(0.985655 -0.0132608 2.02119e-23)
(1.23482 -0.0336726 -8.56056e-22)
(1.08098 0.00070579 2.878e-22)
(0.999464 -0.000425964 1.6448e-24)
(0.999287 -0.00100301 -3.54696e-23)
(0.974045 -0.00564853 2.19163e-22)
(1.03333 0.0589203 5.57249e-21)
(0.996656 0.0158931 2.13637e-20)
(0.999988 -1.03158e-06 -1.20067e-27)
(1.00669 -0.00307601 2.82511e-23)
(0.956001 -0.00562435 -1.74521e-21)
(0.984284 -0.0015235 -6.15543e-22)
(0.98291 -0.0682336 -2.64843e-21)
(0.960081 -0.0268496 3.97928e-22)
(0.98145 -0.00234394 -1.52496e-23)
(0.960028 0.00795948 1.19106e-20)
(1.01183 -0.049539 -1.20236e-22)
(1.00995 0.0181269 -3.09938e-21)
(0.976997 -0.0212556 -7.47996e-22)
(0.979148 -0.00194413 1.77388e-22)
(0.999889 0.0357968 -6.03114e-21)
(1.02349 0.000701269 1.93903e-21)
(1.18041 -0.0242808 -1.17389e-22)
(0.998603 -0.00170095 -9.87815e-23)
(1.15869 0.0734434 3.24134e-23)
(1.0375 0.00646394 -3.49763e-21)
(0.997338 0.08674 -1.59383e-20)
(0.95297 -0.0288543 1.22769e-21)
(0.993431 -0.00091165 4.65278e-23)
(0.939375 0.0551809 2.90027e-20)
(0.999951 -1.57997e-05 -4.12481e-25)
(1.00092 -0.00757469 6.80721e-23)
(1.00963 0.032603 4.77159e-21)
(0.999982 -1.39995e-05 2.82935e-25)
(0.998117 -0.00458429 -2.04834e-22)
(0.996661 -0.000557123 -3.23357e-23)
(1.00256 0.0315969 -1.57808e-21)
(1.00118 0.0209714 5.89353e-21)
(0.930084 0.0601653 9.84562e-21)
(0.99785 -0.00440361 -1.09695e-22)
(0.998189 -0.000133895 -3.3943e-23)
(1.00001 -2.87646e-06 1.22802e-26)
(0.975255 -0.00153653 -1.85504e-21)
(1.00034 -0.000449484 2.30046e-24)
(1.05842 -0.0384014 1.68423e-21)
(1.00702 -0.00331049 1.85298e-22)
(0.976398 -0.00248988 3.26245e-22)
(1.1854 0.0036084 -1.23325e-21)
(1.10421 0.0804894 1.08239e-22)
(0.999891 -4.48071e-05 7.72162e-25)
(0.999545 -0.000501836 -2.01657e-23)
(1.03275 0.0730707 -2.36721e-21)
(0.999954 -9.59054e-06 -1.54248e-25)
(0.999944 -4.28875e-06 3.00111e-25)
(0.979589 0.0886317 -1.65115e-20)
(1.05912 -0.0464283 -1.10277e-21)
(1.01077 -0.072452 -2.12403e-21)
(0.980614 -0.0456174 -2.22299e-21)
(0.978221 -0.00444037 4.89281e-22)
(1.00838 -0.051014 2.50164e-22)
(0.960915 -0.00369258 9.85234e-22)
(0.999981 -1.2543e-05 -7.92129e-26)
(0.966523 -0.0557133 -8.50294e-22)
(1.1066 0.0885241 -3.78936e-21)
(0.996933 -0.0009935 2.39604e-23)
(1.00006 -5.5751e-06 -3.04733e-25)
(1.07323 0.0829227 4.54367e-22)
(0.998938 -0.00024357 5.50089e-23)
(0.986603 -0.0127578 4.07596e-22)
(1.00518 -0.0480284 7.98172e-22)
(1.00001 -1.66885e-06 7.32026e-27)
(1.00073 -0.00178923 -7.42681e-24)
(1.02972 0.0579227 7.02598e-21)
(1.09202 0.0947592 -5.44563e-21)
(0.994899 0.0756743 -2.14817e-21)
(1.07696 -0.0933742 2.13665e-21)
(1.03179 -0.082165 9.07374e-22)
(1.14034 -0.131018 -8.047e-22)
(1.02331 -0.00175869 3.78955e-21)
(1.02759 0.0540098 -2.21961e-21)
(0.999898 -6.05946e-06 -2.14858e-24)
(1.00003 -1.67698e-05 5.6647e-26)
(0.979752 0.00273942 -1.17357e-20)
(0.991887 -0.0126833 -1.58585e-22)
(0.999448 -0.000370402 -1.55269e-23)
(0.96941 -0.0548968 1.76651e-21)
(0.986438 -0.011312 -3.0238e-22)
(1.00808 0.0819457 -1.77081e-20)
(1.0049 0.0787325 -3.68423e-21)
(0.979457 -0.0700128 6.89036e-22)
(0.918674 0.0271159 -1.07443e-20)
(0.998995 -0.000293596 -4.18212e-23)
(0.991037 -0.0013787 1.73937e-22)
(0.955077 -0.0079797 7.11065e-22)
(1.03278 0.000454232 -7.79544e-22)
(1.01539 -0.153763 -3.9266e-22)
(1.09292 0.141622 -9.64291e-21)
(0.942467 0.045995 -2.46276e-20)
(1.00005 -8.92802e-05 8.55087e-26)
(1.00916 -0.00722611 9.54965e-23)
(1.02697 0.0202057 7.44981e-21)
(0.996085 -0.00535348 -2.61187e-22)
(1.03182 0.018182 -9.31377e-22)
(0.999476 -0.00108932 -8.80116e-24)
(0.906957 0.0641185 1.9952e-20)
(0.999042 0.0802466 3.50931e-21)
(0.994753 -0.00143862 1.64505e-22)
(1.00312 -0.00821894 -1.00464e-24)
(0.99977 -3.20888e-05 -1.48803e-23)
(1.13104 0.112707 1.83001e-21)
(0.999953 -4.65675e-06 5.65907e-25)
(0.994329 -0.0102221 1.41152e-22)
(0.932517 -0.0218255 1.20048e-21)
(0.999941 -1.55938e-05 -1.449e-25)
(0.998704 -0.00256605 -2.83617e-23)
(0.99958 -0.00106162 1.18927e-23)
(1.06724 0.0505378 5.41125e-21)
(0.999983 -1.8716e-05 4.28492e-25)
(0.997486 -0.000168529 -1.93558e-25)
(0.947074 -0.0454071 4.22994e-21)
(0.943794 0.00701789 -6.06468e-21)
(1.08025 -0.00450809 -3.68889e-22)
(0.928485 0.0389372 1.46815e-20)
(0.99997 -3.18236e-06 -2.10209e-25)
(1.00236 -0.048841 -1.00403e-23)
(0.999828 -0.000254955 -7.0149e-24)
(0.991639 0.087977 -1.61722e-20)
(1.00361 -0.000787515 -7.5996e-23)
(0.994727 0.0238512 7.01446e-21)
(1.00226 -0.00986791 8.82033e-23)
(1.00062 -0.00193027 2.98417e-24)
(1.03108 -0.035857 4.38379e-22)
(1.02324 -0.000883366 -3.50652e-21)
(1.00049 -0.000302307 6.87921e-24)
(0.999826 -2.7717e-05 1.06144e-25)
(1.00043 -0.000406161 1.35979e-23)
(0.995864 -0.00569468 -2.4168e-22)
(1.01921 -0.0754463 2.6686e-21)
(0.999968 -4.94243e-06 1.28347e-25)
(0.955105 -0.0276119 8.64538e-22)
(0.996675 -0.000697264 -8.45702e-24)
(0.999885 -2.66704e-05 1.45579e-24)
(0.999421 -0.000473347 5.24375e-24)
(0.986823 0.0479593 1.7166e-20)
(0.995828 -0.000230233 6.2117e-23)
(0.99954 -3.80511e-05 -3.5045e-24)
(0.969055 0.00172088 2.24271e-20)
(0.998567 -0.00244505 -5.92582e-23)
(1.05522 0.106872 -5.5229e-21)
(0.999811 -0.000232224 1.12229e-23)
(1.00734 -0.0232418 -2.86669e-22)
(1.00001 -1.68886e-06 -1.1224e-27)
(0.978377 -0.0370332 -7.95673e-22)
(1.03215 -4.87262e-05 1.23517e-21)
(1.18678 0.0142274 2.30304e-21)
(0.975067 -0.0185151 1.13322e-21)
(0.999612 -0.000511895 2.43788e-23)
(0.972962 -0.0918423 1.20273e-21)
(0.997588 -0.000106481 2.843e-22)
(0.999912 -8.19794e-06 4.28636e-26)
(1.00041 -0.000356426 -1.19961e-23)
(0.997883 -0.00321456 8.94324e-23)
(0.994094 -0.000664971 -1.93772e-22)
(1.0027 -0.000916605 -8.12469e-23)
(0.998789 -0.0017212 3.4917e-23)
(0.975514 -0.0062558 1.31078e-22)
(1.02461 -0.0726739 -1.89231e-21)
(0.97692 -0.00482533 5.31776e-22)
(1.15355 -0.0317416 -2.31988e-22)
(0.971963 -0.00457168 -6.69739e-22)
(1.0066 0.10659 1.84107e-21)
(1.00169 0.108859 -1.35132e-20)
(0.998612 -0.00058486 -4.19321e-23)
(1.21068 0.0136974 -5.15603e-21)
(0.999988 -1.80691e-06 3.22783e-27)
(0.997775 -0.00403752 -1.15541e-22)
(0.990166 -0.000493265 1.12173e-21)
(1.0072 0.0264532 3.93884e-21)
(1.04056 0.0120013 -3.39965e-21)
(1.00008 -2.73603e-05 8.72704e-25)
(0.997926 -0.0038069 -9.79639e-24)
(0.971053 -0.00560217 5.04862e-22)
(1.05143 0.0431199 -2.19824e-21)
(0.999046 -0.00103787 2.68611e-23)
(1.00312 -0.000736991 4.94213e-23)
(1.00108 -0.000948592 -2.87982e-24)
(1.1325 0.0301144 1.01663e-21)
(1.23482 -0.047838 -5.28393e-21)
(1.02578 0.13356 8.79608e-21)
(0.998892 -0.000113063 -3.35404e-23)
(1.0694 -0.0437369 1.94942e-21)
(0.999903 -4.9597e-05 -1.44663e-24)
(1.00435 -0.0072856 -1.06032e-22)
(0.999958 -7.74124e-06 -1.04157e-25)
(0.983122 -0.0210524 2.1787e-22)
(0.999733 -3.95409e-05 -2.95223e-24)
(1.01217 -0.0229866 2.86954e-23)
(1.23481 0.0178452 5.42514e-21)
(0.968521 -0.0274601 1.49605e-21)
(1.00866 -0.0226339 6.64008e-23)
(1.00816 -0.00646845 -1.13902e-22)
(0.999477 -5.6552e-05 1.66924e-23)
(1.0273 -0.018347 2.69309e-22)
(0.995559 -0.0193903 3.18754e-22)
(1.08086 0.0135643 -1.09017e-21)
(1.06191 0.0479377 2.43287e-21)
(1.19885 -0.137677 1.61295e-22)
(1.159 -0.051209 -2.86133e-21)
(0.99552 -0.000162064 -3.1241e-22)
(1.00472 -0.00362446 1.57618e-22)
(0.935466 -0.0205599 -4.44971e-22)
(0.922947 0.0570107 -3.00987e-20)
(1.13706 -0.0538102 3.52052e-21)
(1.02755 -0.0110369 -1.34626e-21)
(0.918694 0.0320382 -1.484e-20)
(0.999062 -5.99781e-05 1.65353e-23)
(0.998362 -0.000733189 -1.36039e-23)
(1.17738 -0.0359631 -2.82119e-21)
(0.998913 -0.00189043 -2.43252e-23)
(1.0122 -0.0459564 2.74179e-22)
(1.00548 -0.0017311 5.98129e-23)
(0.998082 -0.000176931 -2.68142e-23)
(0.998523 -0.000159411 -4.28367e-23)
(1.03216 0.0262506 4.4144e-21)
(0.999937 -0.000124268 -5.1582e-25)
(1.00047 -0.000249448 -6.15571e-24)
(1.00007 -1.08258e-05 5.35368e-25)
(0.997312 -0.000339423 1.52065e-22)
(0.993182 -0.00877326 3.38107e-22)
(0.999988 -1.11372e-06 7.51788e-27)
(0.999099 -0.000140709 4.30649e-24)
(0.976326 -0.015951 3.8054e-22)
(0.970764 0.00603305 7.42157e-21)
(1.01062 -0.0238749 2.24321e-22)
(0.992002 -0.0118274 5.9759e-22)
(0.958903 0.0492405 3.38704e-21)
(1.00038 0.0215236 1.07594e-20)
(1.06991 0.00158452 -8.20962e-22)
(1.20104 0.0194733 1.71548e-21)
(0.981143 -0.00115347 9.6008e-22)
(1.00466 -0.0042039 -7.49766e-23)
(1.00783 0.0431217 -6.02475e-22)
(0.991191 -0.00104093 -3.94266e-22)
(1.03403 0.104014 2.41472e-22)
(1.00787 -0.054971 4.37743e-23)
(1.04373 -0.134621 -1.62414e-21)
(1.08687 0.0908054 3.38463e-21)
(1.03619 0.110503 -7.47065e-21)
(0.957712 -0.0229749 1.80384e-21)
(1.04159 0.00988442 -2.12931e-21)
(1.09854 0.14712 9.02334e-21)
(1.04867 0.106789 1.06037e-20)
(1.02431 -0.00215362 1.18095e-21)
(0.997104 -0.00111807 4.11519e-23)
(0.995885 -0.001789 3.89758e-23)
(0.999928 -1.4662e-05 -3.68611e-25)
(1.01707 -0.0299408 -1.37236e-22)
(0.991976 -0.000807799 9.09028e-23)
(1.00085 -0.00224601 -6.80327e-24)
(0.999919 -1.24654e-05 -7.96297e-25)
(0.998511 -0.00051187 1.66153e-23)
(0.969579 -0.0902854 -2.01364e-21)
(1.11386 0.0419117 9.17659e-22)
(0.982728 -0.00401485 -6.13974e-22)
(0.998675 -0.0125007 4.10189e-22)
(0.997014 -0.000370991 -9.07324e-23)
(1.06616 -0.0469091 -1.22461e-22)
(0.994128 -0.00076979 -3.13539e-22)
(1.00207 -0.00733593 -5.82788e-24)
(1.11325 0.140124 1.45038e-21)
(0.998625 -0.000165531 -1.00122e-22)
(0.99998 -3.71954e-05 -5.28321e-25)
(0.999946 -0.000152849 -4.63435e-25)
(1.00004 -9.08604e-05 -3.23798e-25)
(0.978204 -0.00540564 2.95751e-22)
(1.03059 0.0240362 -5.1601e-21)
(0.99732 -0.00019971 3.50631e-24)
(1.02325 -0.00963356 8.74153e-22)
(1.02606 -0.160308 3.0897e-21)
(0.988308 0.0760788 -2.65086e-22)
(1.00362 -0.00741283 2.6127e-23)
(1.00628 -0.00469331 -3.03471e-23)
(0.994963 -0.00196615 -1.35139e-22)
(0.99148 0.0479662 -1.67956e-20)
(0.999346 -5.26978e-05 1.18052e-23)
(1.02961 0.138673 -4.43329e-21)
(1.00765 0.018601 -6.03284e-21)
(0.999908 -1.67973e-05 1.00861e-24)
(1.00538 -0.0559622 -1.22031e-21)
(0.997186 -0.000412784 -7.38787e-23)
(0.987136 -0.0695067 3.27002e-21)
(1.00049 -0.000135238 6.41094e-24)
(1.06472 0.00423076 1.2133e-21)
(1.00674 -0.0167899 4.02129e-24)
(1.00587 -0.00427918 5.83926e-24)
(0.999352 -7.51184e-05 -2.37209e-23)
(1.07253 0.0479838 2.53644e-21)
(1.04684 0.0411144 8.64016e-22)
(1.00821 -0.0758324 1.99924e-21)
(0.97684 -0.0193783 -7.27493e-23)
(0.997755 -0.00344092 -7.40888e-23)
(0.99894 -0.0440834 -2.19269e-21)
(1.1536 0.0629701 -1.25149e-21)
(0.92224 0.0170675 -1.35899e-20)
(1.09825 -0.0848437 -2.27631e-21)
(1.00485 -0.0079064 -1.68616e-24)
(0.999994 -2.78749e-06 -3.32589e-27)
(0.98669 -0.00343784 -4.77528e-22)
(0.998355 -0.000177485 9.71845e-23)
(1.02591 -0.0186282 3.65576e-22)
(1.0042 -0.127425 -1.20638e-21)
(1.2102 -0.000618976 2.16118e-21)
(0.978983 0.0690187 -2.1386e-20)
(1.05573 0.0399968 3.51203e-21)
(1.14133 -0.117186 3.36831e-21)
(1.07273 0.0900408 1.49641e-21)
(0.998929 0.0210587 1.96639e-20)
(1.01905 -0.00248279 7.82043e-22)
(1.00105 -0.0021865 1.97509e-23)
(1.02168 0.0608134 3.53722e-21)
(0.999102 -0.00185123 5.12852e-23)
(0.999835 -0.00013364 2.16297e-24)
(0.990469 -0.000555077 1.29555e-22)
(1.00007 -2.72176e-05 1.50279e-25)
(1.15224 -0.139651 1.73328e-21)
(1.0034 -0.0185604 -2.16628e-22)
(0.980923 -0.0365885 1.41703e-21)
(1.0017 -0.00150435 1.81287e-23)
(1.0673 0.0791091 7.90208e-21)
(0.998671 -0.000153794 -7.11675e-24)
(0.999978 -2.92513e-05 -2.98469e-26)
(1.03522 -0.141232 1.7456e-21)
(1.00151 -0.00130548 -1.06675e-23)
(1.11425 -0.00251711 -2.5866e-22)
(0.956276 -0.00895281 2.92372e-22)
(0.94491 -0.00957344 6.70985e-23)
(1.21233 0.0656601 1.78092e-22)
(1.02439 0.0192692 -1.9512e-21)
(1.02085 0.00566057 1.18134e-21)
(1.01948 0.00533969 -4.57175e-22)
(0.999846 -2.04808e-05 4.97173e-25)
(1.12262 0.0414037 6.5882e-22)
(1.08119 0.0181387 1.23999e-21)
(0.999502 -0.000547007 9.31426e-24)
(0.983054 -0.00466417 7.03841e-22)
(1.00053 -0.000190911 -7.15416e-24)
(1.01212 -0.0210727 1.03585e-22)
(1.0085 -0.0304365 -1.63119e-22)
(1.00419 -0.00134739 7.66321e-25)
(0.999238 -0.00113274 -4.9414e-23)
(1.12953 0.103897 -5.74471e-21)
(0.999981 -1.68194e-05 -4.14375e-25)
(1.00017 -9.92755e-05 -1.22767e-24)
(1.00179 -0.00102527 -1.08775e-24)
(0.985808 -0.00120371 4.32285e-22)
(1.01936 -0.0115677 5.26406e-22)
(0.980449 -0.0301018 -1.84605e-21)
(0.979983 -0.00235794 -2.5367e-22)
(1.0148 -0.0715292 1.19874e-21)
(1.05155 -0.17096 -3.416e-21)
(1.02893 -0.0328302 -1.73215e-22)
(1.02582 0.0619653 -2.02022e-20)
(1.22457 0.0238959 -3.6065e-21)
(0.993561 -0.00185739 -2.21632e-23)
(0.906258 0.0569787 2.35434e-20)
(0.968379 -0.0628339 3.07309e-21)
(0.992803 -0.00932997 1.09325e-22)
(0.982313 -0.00183408 4.29691e-22)
(0.996832 -0.0187279 -8.02718e-23)
(0.988798 -0.000891596 6.27434e-22)
(0.990013 -0.00280178 -1.35431e-22)
(1.02793 -0.0129009 -8.56588e-22)
(1.1468 -0.0575526 -8.2704e-22)
(0.999977 -3.41895e-05 -7.39558e-26)
(1.02386 -0.012684 -1.16411e-22)
(0.999922 -1.83395e-05 -5.14497e-25)
(1.00151 0.090565 4.26653e-21)
(1.15444 0.0887947 2.93807e-21)
(0.995362 -0.00140446 4.45174e-23)
(0.991802 -0.000594605 -5.31194e-22)
(0.999848 -3.16373e-05 -3.27342e-24)
(0.997554 0.0429253 1.24515e-20)
(1.02229 0.107517 1.00118e-20)
(1.12568 0.0322007 -5.03208e-22)
(1.13643 0.133113 -4.82117e-21)
(0.968112 -0.0672809 -1.40544e-21)
(0.998851 0.00482616 -1.82244e-20)
(0.999941 -0.000109844 1.29333e-24)
(1.05152 -0.0277101 1.80924e-22)
(0.992466 -0.000481891 -1.5211e-23)
(1.09567 0.0775151 -1.4617e-21)
(0.937073 0.0381449 -1.77155e-20)
(1.15803 0.0553034 6.01569e-22)
(1.05013 0.0328444 5.90913e-22)
(0.999402 -0.0124002 -1.01123e-22)
(0.999826 -5.64103e-05 -3.40847e-24)
(1.13924 0.116287 1.91127e-21)
(1.22078 -0.0257496 1.02583e-21)
(0.993439 0.0518205 -3.94708e-22)
(1.10622 -0.00420752 3.54513e-22)
(1.02965 0.0501844 5.86739e-21)
(0.993333 -0.00153424 -6.31648e-23)
(0.985626 0.0704688 5.86417e-21)
(1.02744 0.10252 3.46223e-21)
(0.991238 -0.00233532 -3.78294e-22)
(0.992633 -0.00225019 -1.43177e-22)
(1.15129 0.105096 2.32628e-23)
(0.947231 -0.00855652 -1.67029e-21)
(0.999921 -0.000127163 -1.99518e-24)
(0.987092 -0.00392456 6.2997e-22)
(0.936841 -0.0149639 1.40012e-21)
(0.983369 -0.0883819 -4.27326e-22)
(1.00933 -0.00241796 -5.63713e-22)
(1.00819 -0.00587271 2.64546e-23)
(0.999884 -0.000158221 -3.484e-24)
(1.02389 0.114037 -1.51687e-20)
(0.999789 -0.0112646 1.9106e-23)
(0.999912 -4.28548e-05 6.23872e-25)
(1.02423 -0.0662312 1.74241e-21)
(0.999543 -0.000344157 6.61193e-24)
(0.999812 -4.63432e-05 2.63647e-25)
(1.00486 -0.0122053 7.07196e-24)
(1.05481 0.0781781 1.10212e-20)
(1.02389 -0.125193 2.35686e-21)
(0.95181 0.0433023 1.05051e-20)
(1.00005 -7.81698e-06 -3.66079e-25)
(1.06041 0.0826259 -1.14399e-20)
(1.01535 -0.0562498 1.18332e-21)
(0.999926 -0.000159303 -5.68969e-25)
(1.00002 -5.24767e-06 -3.56449e-26)
(1.00233 0.0100517 -9.88599e-22)
(1.05097 0.0670322 4.08997e-21)
(0.996156 -0.0019424 4.13174e-23)
(1.04727 0.0518384 -5.15788e-21)
(1.00002 -1.68808e-05 3.27406e-26)
(1.04697 0.0575284 -7.19806e-21)
(1.18252 -0.142304 4.44831e-21)
(0.991031 -0.00193974 4.01615e-22)
(0.999263 0.00945288 -2.52649e-20)
(0.970087 -0.0512122 1.98814e-21)
(1.14104 0.126245 4.536e-21)
(0.982562 -0.00171759 2.22826e-22)
(1.05171 0.0610594 9.42113e-21)
(1.056 0.0710023 -2.96158e-21)
(0.983286 -0.00642073 1.11039e-21)
(0.977995 -0.00767383 -8.13456e-22)
(0.994512 -0.0094684 3.50541e-22)
(0.997567 -0.000430992 -2.72789e-23)
(0.99982 -0.00014895 5.69515e-24)
(0.999568 -0.0107472 -3.3933e-23)
(1.03888 0.0982313 -1.7463e-21)
(0.999976 -2.62915e-05 1.38165e-25)
(1.04271 0.0491817 6.83526e-21)
(1.04177 -0.12394 3.94633e-21)
(1.00284 0.0582767 4.97156e-21)
(1.04267 0.044328 -7.72193e-21)
(0.937875 -0.0130681 -2.28479e-22)
(0.95351 0.0617838 -2.24891e-20)
(0.998522 -0.000928751 1.69881e-24)
(1.01669 -0.0274299 -8.3738e-23)
(1.06226 -0.0860797 1.1679e-21)
(0.989164 -0.000742669 -4.64412e-23)
(0.993794 -0.00257501 1.93033e-22)
(1.01216 -0.0578432 -9.93255e-22)
(1.05871 -0.0181141 -3.1044e-23)
(0.927142 0.0293361 2.75657e-20)
(1.00004 -1.56794e-05 2.7069e-25)
(0.998254 -0.000976926 3.39747e-23)
(1.02167 -0.0859431 7.34177e-23)
(1.00001 -4.13219e-06 -5.92052e-27)
(1.00116 0.0971166 2.11947e-21)
(1.00154 -0.00113155 0)
(1.00001 -5.63145e-06 -6.40251e-27)
(1.00016 -7.66209e-05 2.77506e-24)
(1.00033 -0.00011056 7.60566e-26)
(0.98358 -0.0195586 1.13574e-21)
(1.02348 -0.0175198 -2.56349e-22)
(0.998607 -0.000699039 5.14782e-23)
(0.999939 -8.52424e-06 7.89442e-25)
(0.993433 -0.0023205 9.99839e-23)
(1.00418 -0.0127128 3.24423e-23)
(0.989741 -0.136699 -3.25728e-21)
(0.971883 -0.00210315 1.13144e-22)
(1.01861 -0.0103154 1.01979e-21)
(0.999986 -1.01521e-06 4.39972e-26)
(1.12959 -0.172991 5.16544e-21)
(0.988176 -0.00230802 -2.3588e-22)
(1.13693 0.0959431 -2.55044e-22)
(1.00013 0.00844382 -3.53923e-21)
(1.00104 -0.00332156 -1.23499e-24)
(1.12371 0.083965 -5.07748e-21)
(1.00013 -8.17482e-05 4.34133e-26)
(0.988302 -0.00282691 1.98042e-24)
(1.02342 0.00082655 -2.25767e-21)
(0.993769 -0.00304034 -7.92771e-23)
(1.05547 0.0930861 -6.40458e-22)
(0.987512 -0.00525249 -4.96495e-22)
(1.05301 -0.0246889 -3.25482e-22)
(1.02375 0.00146668 -2.4542e-21)
(1.06131 0.0423893 -1.52889e-21)
(1.00709 -0.0153755 8.70819e-24)
(0.990398 -0.00317944 1.09304e-23)
(1.08062 0.0790419 4.72337e-21)
(0.974563 -0.0978384 -2.54828e-21)
(0.989135 0.0933224 1.77711e-20)
(0.991384 -0.00389433 -4.77332e-22)
(1.0572 0.120628 -1.31215e-22)
(0.991448 -0.00328256 1.2848e-22)
(0.998988 -0.000373647 -3.51225e-24)
(1.0498 0.0293294 1.64905e-21)
(1.01512 -0.0314718 1.99188e-22)
(1.0367 0.0034445 3.26401e-21)
(1.00161 -0.000781803 1.24729e-23)
(1.00001 -4.56285e-06 -3.01061e-27)
(1.00694 -0.157432 1.25031e-21)
(1.11136 0.132988 -7.59333e-21)
(1.00127 -0.00322903 -5.62652e-24)
(1.13358 0.086199 4.16334e-22)
(0.988251 -0.0048753 -3.27355e-22)
(1.11911 -0.182889 -2.07459e-21)
(1.05078 -0.0433624 -2.22638e-22)
(0.979861 -0.0322245 1.06651e-21)
(0.998498 -0.000785195 -2.29465e-23)
(0.994961 -0.000362268 -7.266e-23)
(0.966931 -0.081784 -1.37584e-21)
(0.972507 -0.00607588 1.06242e-21)
(0.99101 -0.00293073 3.15656e-22)
(0.999857 -0.000376352 4.85184e-24)
(0.980674 0.0976476 -2.25289e-21)
(1.12058 0.0749286 2.98526e-21)
(1.02458 -0.0106864 -3.51303e-22)
(0.99983 -0.00011268 3.4096e-24)
(1.02559 0.0962046 -6.65685e-21)
(1 -1.95761e-05 -9.19269e-26)
(0.999844 -9.99841e-05 6.21424e-24)
(1.11125 0.0731162 2.67757e-21)
(1.01033 -0.026095 -2.10666e-22)
(1.12171 0.120073 5.86493e-21)
(1.02328 -0.00266475 8.72332e-22)
(1.01685 -0.0128874 -3.76788e-23)
(1.10803 -0.068275 1.56311e-21)
(1.07158 -0.153589 4.01772e-21)
(1.21283 0.0571752 9.26844e-22)
(1.0011 -0.000796312 -2.53633e-23)
(0.955575 -0.0107182 -8.84134e-23)
(0.999983 -4.62759e-05 -1.79366e-25)
(1.00454 -0.0110247 -8.07279e-25)
(1.06014 0.0891731 4.16607e-21)
(0.984251 -0.00599604 7.6765e-22)
(0.997477 -0.00112713 4.72934e-23)
(1.01554 -0.0443265 -8.61812e-22)
(0.998236 -0.000837352 1.92329e-24)
(0.999607 -0.000952343 1.61781e-23)
(0.970517 0.00303918 4.64091e-21)
(0.990828 -0.00420677 -2.71784e-22)
(0.999498 -0.000600328 -3.16324e-23)
(0.999994 -2.3416e-07 2.73157e-26)
(1.0164 0.00661639 5.18544e-21)
(0.969607 -0.0254342 -1.99058e-22)
(0.9997 -0.000455276 1.00083e-23)
(0.997604 -0.0005555 5.56291e-23)
(1.02223 0.0212588 2.15645e-21)
(1.06967 0.0129326 3.37989e-22)
(0.958107 -0.0202685 -1.13671e-21)
(1 -1.23659e-05 -1.02258e-25)
(1.0009 0.00938541 1.44354e-20)
(0.985198 -0.0167761 -7.53904e-22)
(1.06764 0.0721333 -7.83707e-21)
(1.0122 -0.00120565 -9.36877e-22)
(1.01419 -0.00125753 2.20185e-21)
(0.96932 -0.00830172 1.49226e-21)
(0.999921 -4.65968e-05 -4.23972e-25)
(1.02313 0.0003898 -4.77802e-22)
(1.0751 0.0103892 -3.70208e-22)
(1.18949 0.0622271 -1.95038e-22)
(1.04923 -0.11701 9.29874e-22)
(1.03609 0.0921059 5.16862e-21)
(1.00518 -0.00162439 -1.3684e-23)
(1.08771 0.0833992 -6.49816e-21)
(0.999385 -0.0146278 -1.54477e-22)
(1.01946 -0.0635435 -2.74824e-21)
(0.999673 -0.000111687 -5.92986e-24)
(1.00268 -0.0198453 4.33656e-22)
(0.999895 -0.000361654 3.24484e-24)
(1.04589 0.0357631 -4.99564e-21)
(1.07742 0.131614 -1.51173e-20)
(0.998657 -0.000971157 1.79423e-23)
(1.01837 -0.013057 -2.75434e-23)
(0.984924 -0.00270747 2.53198e-22)
(1.05276 -0.100584 4.63837e-22)
(1.04648 -0.107741 -1.97669e-21)
(0.998343 -0.000628607 3.28489e-23)
(1.04789 -0.0285245 1.39022e-23)
(0.987577 0.00132328 -7.69045e-21)
(1.18601 0.042524 -8.08943e-22)
(0.999949 -0.000135635 3.41291e-24)
(1.06481 0.00978555 -1.15088e-21)
(0.996818 -0.00869644 -1.96319e-22)
(0.999204 0.000900685 1.68058e-20)
(0.988392 -0.00407498 4.37536e-22)
(0.994667 -0.0277921 -2.96215e-22)
(1.01832 -0.0389914 -2.58284e-24)
(0.993103 -0.0287458 -1.89332e-23)
(0.997708 -0.0218852 -7.53831e-22)
(0.992968 -0.00252658 6.79805e-23)
(0.998474 -0.0144523 4.15743e-22)
(1.00159 -0.00614714 9.36409e-25)
(1.06041 -0.0220544 1.20726e-22)
(1.00008 -2.00755e-05 -1.26829e-24)
(1.22203 -0.0951274 -2.06034e-21)
(1.17177 -0.00160311 -8.35244e-22)
(1.01108 0.109301 1.2469e-20)
(0.960441 -0.0191373 1.65999e-21)
(1.11228 0.115171 -3.01591e-21)
(1.00171 -0.000607028 4.81701e-23)
(1.08085 -0.0834023 5.23462e-25)
(1.00397 -0.0417771 -8.83989e-22)
(1.01864 0.0366065 6.42972e-21)
(0.993351 -0.00329935 1.95163e-22)
(1.00008 -0.000156751 3.78071e-25)
(0.985864 -0.0176452 9.91652e-22)
(0.995382 -0.00924631 -1.33806e-22)
(1.04459 -0.0258853 3.30652e-22)
(0.97614 -0.00415372 -8.54867e-22)
(0.977268 -0.00680443 2.78796e-22)
(1.14022 -0.0334254 -4.78148e-22)
(0.988701 -0.00155192 -3.7755e-22)
(1.01547 -0.0408763 6.51236e-22)
(0.985465 -0.0942074 1.93049e-21)
(1.00001 -6.5196e-06 -5.34372e-27)
(1.06175 -0.0136781 1.0924e-21)
(0.98763 -0.0835509 -5.08291e-21)
(1.11897 0.100204 2.54731e-21)
(1.1091 -0.0765176 -2.83493e-21)
(1.03507 0.0029273 2.60146e-22)
(1.03231 -0.120065 -4.93475e-21)
(1.033 0.123007 3.27296e-21)
(1.03737 -0.0383144 -4.27265e-22)
(0.969138 -0.00715705 -8.77603e-22)
(1.01541 -0.0520695 -1.49343e-21)
(0.990707 0.0018437 7.39012e-21)
(1.18205 -0.103914 1.33557e-21)
(0.987896 -0.00360669 -1.37733e-22)
(1.03653 -0.153132 -3.76029e-22)
(1.02984 -0.0752949 1.99002e-21)
(1.05479 -0.138426 -6.36274e-22)
(1.04933 -0.0924329 -2.25549e-21)
(1.08037 0.0717404 5.9187e-21)
(0.99748 -0.00133983 2.66256e-24)
(1.00675 0.0405781 2.41611e-21)
(1.00709 -0.0015827 9.45967e-23)
(0.999645 -0.00045772 -1.33199e-23)
(0.998843 -0.00210071 1.36895e-22)
(1.06038 0.00249242 -3.21159e-22)
(0.987569 0.000216588 2.17515e-22)
(1.00122 -0.00657325 -2.42801e-23)
(1.01946 -0.0587364 3.8211e-22)
(1.02233 0.0243424 -3.59176e-21)
(1.00002 -5.94911e-06 -9.07423e-27)
(0.979192 -0.00718892 6.40057e-22)
(1.02183 -0.00990511 7.50741e-22)
(1.08206 -0.0427321 -1.16821e-21)
(1.00723 -0.000787978 5.41875e-22)
(0.998494 -0.00183879 2.17284e-23)
(0.980471 -0.042252 -5.81469e-24)
(0.997508 -0.00837783 -7.99545e-23)
(1.00003 -5.05104e-06 1.0803e-25)
(0.972812 -0.0502333 -3.38535e-21)
(1.04639 0.0863718 -1.76143e-21)
(1.02032 -0.0338273 2.03379e-22)
(0.984781 -0.00340745 -4.38748e-22)
(1.00155 -0.000417803 -1.69201e-23)
(1.02534 0.0261552 4.72249e-21)
(0.999644 -0.000568534 -6.31219e-24)
(0.998905 -0.000515123 -2.57979e-24)
(0.999699 -0.000127538 -5.95523e-24)
(0.999243 -0.00200342 -4.08617e-23)
(1.17589 0.0631996 5.80848e-22)
(1.02999 -0.0385511 -1.42256e-21)
(1.00751 -0.0195522 -1.12213e-22)
(0.982556 -0.00577692 -2.24813e-22)
(1.00003 -4.47744e-05 6.2791e-26)
(1.09442 -0.143807 5.61466e-21)
(1.22142 -0.00833875 5.04372e-23)
(1.10307 -0.155006 -2.67708e-21)
(0.995516 -0.0361101 -5.73545e-22)
(1.01314 -0.00953177 6.0509e-22)
(0.999824 -7.32534e-05 2.24285e-24)
(0.988254 -0.0110147 -3.52391e-22)
(0.94955 -0.0490797 -1.70167e-21)
(1.17452 0.0443836 3.9802e-22)
(1.00186 0.0560123 -1.64867e-22)
(0.9988 -0.00304814 3.53346e-23)
(0.937175 -0.0287267 7.63438e-22)
(0.99559 -0.00232826 -1.79933e-22)
(1.03501 -0.0352487 2.84189e-22)
(1.09397 0.0692601 5.57716e-22)
(1.00036 -0.000124952 -9.08159e-24)
(0.99986 -0.0001837 -1.56563e-24)
(1.14892 0.112137 4.39971e-22)
(1.16986 0.0240661 4.3621e-22)
(1.01756 -0.0161443 1.85351e-22)
(0.997296 -0.00146623 8.75058e-23)
(0.998339 -0.000264121 -6.81413e-24)
(0.958061 -0.0511343 4.295e-22)
(0.999838 -0.000310016 -5.79359e-24)
(1.01789 -0.035771 -7.54566e-22)
(0.992982 -0.000455091 7.21449e-22)
(1.00026 0.0103772 -2.94057e-21)
(1.05015 0.0924748 -9.30796e-22)
(1.07435 -0.0770336 1.23096e-21)
(0.992699 -0.0842318 1.84181e-21)
(1.00588 -0.0014152 2.52498e-22)
(1.01433 -0.0263464 2.50026e-22)
(1.16161 0.00564545 -1.27588e-21)
(0.992077 -0.0948011 -1.17414e-21)
(1.01884 -0.0500532 8.76323e-22)
(0.999998 -6.27122e-06 1.98445e-26)
(1.14796 -0.0114704 -1.62742e-21)
(0.987039 -0.000805519 7.07804e-23)
(0.990899 -0.106563 2.36022e-21)
(1.01968 -0.030978 6.51124e-22)
(0.957741 -0.0102389 -1.90475e-22)
(0.999651 -0.000242612 -3.67269e-24)
(0.997305 -0.00102036 -3.73883e-23)
(1.03845 0.0419769 5.97694e-21)
(0.971031 -0.0077268 -3.14509e-22)
(0.999989 -1.53475e-06 2.82523e-26)
(0.997822 -0.000284726 -7.05594e-23)
(1.17685 -0.0875232 -7.16959e-21)
(0.999866 -3.43286e-05 4.66875e-24)