/*--------------------------------*- C++ -*----------------------------------*\
  =========                 |
  \\      /  F ield         | OpenFOAM: The Open Source CFD Toolbox
   \\    /   O peration     | Website:  https://openfoam.org
    \\  /    A nd           | Version:  7
     \\/     M anipulation  |
\*---------------------------------------------------------------------------*/
FoamFile
{
    version     2.0;
    format      ascii;
    class       volVectorField;
    location    "19.5";
    object      U;
}
// * * * * * * * * * * * * * * * * * * * * * * * * * * * * * * * * * * * * * //

dimensions      [0 1 -1 0 0 0 0];

internalField   nonuniform List<vector> 
19930
(
(0.997098 -0.000294485 7.8398e-24)
(0.988561 -0.000858416 2.28883e-22)
(1.02924 -0.00396501 -2.95959e-23)
(1.00032 -4.246e-05 -2.04894e-24)
(1.00082 -0.00975834 7.51625e-23)
(1.00044 -0.0103603 -7.32624e-23)
(1.02664 -0.176258 -8.41569e-22)
(1.19823 0.0742491 -1.62219e-20)
(1.00338 -0.0874687 -2.15973e-21)
(1.20567 0.0700407 1.16561e-20)
(1.04024 -0.16157 -2.48434e-21)
(1.33091 0.00875325 -2.31933e-22)
(0.984607 -0.0559109 -3.41616e-22)
(0.996936 -0.00035111 -8.05878e-24)
(0.995559 -0.00362827 6.14685e-23)
(1.00031 -5.38041e-05 -1.97266e-24)
(1.29012 -0.119174 -1.18012e-21)
(1.1635 -0.0018382 -8.83142e-21)
(0.997284 -0.129759 -1.52556e-21)
(0.991043 -0.00041459 -2.00175e-22)
(1.01476 -0.101649 2.84564e-21)
(1.32972 0.0126794 -3.87628e-22)
(1.21448 0.0752992 -8.49271e-21)
(1.11419 -0.218661 -1.84024e-21)
(1.02713 -0.0017851 5.08115e-24)
(1.00572 0.187097 -3.51027e-20)
(1.01 -0.00291547 1.11831e-23)
(0.993109 -0.0607215 1.14909e-21)
(1.16365 -0.220257 -1.53929e-21)
(0.999607 -0.131523 5.32589e-21)
(0.998657 -0.00238653 -9.62114e-25)
(0.870708 0.0353587 5.88704e-20)
(1.29533 0.0772223 5.13163e-21)
(0.991715 -0.0354067 1.27525e-22)
(1.00008 -0.00178074 8.31929e-24)
(0.998723 -0.00257355 -3.57222e-24)
(1.20714 0.105512 -1.75636e-20)
(0.999894 -3.63811e-06 -3.32939e-24)
(1.01621 -0.0213132 7.27625e-23)
(1.17101 -0.0117524 -2.85731e-21)
(1.04614 -0.00953465 4.15992e-23)
(1.30421 0.152129 9.5413e-21)
(1.07313 0.0787086 -9.41383e-21)
(1.00892 -0.00338157 -9.27398e-24)
(1.00339 0.179048 1.41538e-20)
(0.975765 -0.00167701 1.56158e-22)
(1.15565 0.0089406 -2.69838e-20)
(1.31354 -0.0541837 8.94967e-23)
(0.99956 -0.000114354 -2.56449e-24)
(0.972341 -0.0487141 1.7305e-22)
(0.999972 -0.00189646 -2.07957e-23)
(1.08852 -0.011333 1.66825e-21)
(1.18484 -0.162139 4.45573e-21)
(1.00042 -0.00419794 -2.96919e-23)
(1.21958 -0.1769 -1.17383e-21)
(0.947389 -0.0190519 -1.37837e-22)
(0.977862 -0.0327906 4.82239e-23)
(0.998525 -0.00309037 1.50977e-24)
(1.01002 -0.0519024 -1.30323e-21)
(1.28914 -0.113664 9.64059e-22)
(0.943575 0.0665824 3.09374e-20)
(0.965983 -0.00475695 3.07929e-22)
(0.988271 -0.00368823 -7.65393e-23)
(1.21942 0.056694 -6.98178e-22)
(0.999329 -0.000103152 1.66535e-23)
(0.995334 -0.00874738 3.42705e-24)
(0.998462 0.125069 9.17585e-22)
(0.994777 -0.00913389 5.26924e-23)
(1.12858 -0.102989 -2.99384e-22)
(1.02065 0.186847 1.30441e-20)
(1.04396 -0.0483533 -1.61868e-22)
(1.28244 -0.144816 -2.1055e-21)
(0.995976 -0.0036334 -1.51142e-23)
(0.983208 -0.0410458 1.08655e-21)
(0.999524 0.0240591 -1.33718e-20)
(1.07688 -0.101155 8.91993e-22)
(1.01762 0.173329 5.98505e-21)
(0.956605 -0.0055868 1.1185e-22)
(1.16762 -0.0108164 1.81764e-21)
(1.00831 0.0684627 1.89345e-20)
(0.996278 -0.00909557 1.60317e-22)
(1.00246 -0.00495252 -2.70295e-23)
(1.14559 -0.217341 1.23266e-21)
(1.00462 -0.0848914 1.79882e-21)
(0.969187 -0.00378243 -3.39775e-22)
(1.06803 0.0748698 4.52766e-20)
(0.987629 -0.052328 -6.41258e-22)
(0.765107 0.124276 5.69205e-21)
(1.21123 0.054796 -6.89105e-21)
(0.971947 0.196823 2.29384e-20)
(1.17528 0.0187978 -9.89525e-21)
(1.00039 -7.75112e-05 2.24447e-24)
(1.00005 -0.000343949 9.90659e-24)
(0.890375 0.011145 -1.67116e-20)
(1.3139 -0.060853 -1.71333e-23)
(0.988778 -0.00387744 -3.77395e-23)
(0.911536 0.00719001 2.55842e-20)
(0.999456 -0.00500411 2.32314e-23)
(1.04535 -0.157179 -1.08351e-21)
(1.12484 0.0206626 -1.13241e-20)
(0.965189 0.204158 -6.81014e-20)
(0.974638 -0.0113319 3.68947e-23)
(0.940288 0.188795 -7.55148e-20)
(1.17525 -0.147379 4.3493e-21)
(1.12513 -0.00493509 -4.8082e-21)
(1.10587 -0.103896 5.87675e-22)
(1.0841 0.192772 2.29839e-20)
(1.16853 -0.125254 9.37239e-22)
(0.988384 -0.000486834 -1.24538e-22)
(1.13367 0.205174 4.84046e-21)
(1.1705 -0.225495 -5.24323e-21)
(1.02185 -0.174945 -1.91901e-21)
(0.9771 -0.0257929 3.89802e-22)
(1.03729 -0.024898 -8.9428e-23)
(1.0802 -0.0943299 2.68629e-22)
(1.00009 -9.88057e-05 -2.44408e-24)
(1.11657 0.120124 2.11869e-20)
(0.996867 -0.00851408 -6.19454e-23)
(1.16469 -0.156781 9.53547e-22)
(1.00659 0.0551323 -4.44398e-20)
(1.00038 -5.69544e-05 4.14378e-25)
(1.02669 -0.107087 1.81145e-21)
(1.2012 -0.00941092 -3.61366e-21)
(1.01053 -0.0592665 -1.7835e-21)
(0.991622 -0.0335898 -1.0935e-22)
(1.16525 -0.00225041 4.49101e-21)
(1.32672 0.0458096 -8.35291e-21)
(0.99293 -0.0584799 9.37249e-22)
(0.855875 0.0420924 -1.73301e-20)
(1.11061 0.126857 1.13855e-20)
(0.988612 -0.067062 -8.92063e-22)
(0.972012 -0.0468585 -5.52689e-22)
(1.04635 -0.00495245 1.66606e-22)
(1.01529 -0.0195922 -2.2193e-23)
(1.06764 0.183236 -3.18257e-20)
(1.11952 -0.00855146 -1.24008e-21)
(1.31055 -0.0320768 -8.20604e-22)
(1.01792 -0.102594 -1.2022e-21)
(0.98006 -0.0114876 3.51141e-22)
(0.989274 -0.0884769 3.95769e-21)
(1.02229 -0.109819 3.20987e-22)
(0.981553 -0.0423551 -1.07165e-21)
(1.27909 -0.154031 -1.84641e-21)
(0.934398 0.209083 -2.39591e-20)
(1.24222 -0.0731241 6.78841e-22)
(1.06769 0.190375 2.88938e-20)
(1.33583 0.08599 -1.21886e-21)
(0.967411 -0.0119102 -2.8258e-22)
(1.31939 0.0333113 -6.22493e-21)
(1.01129 -0.00391084 -1.92243e-23)
(0.967024 -0.0108742 5.55197e-22)
(1.02289 0.181985 1.45037e-21)
(1.00007 -0.000296012 -6.32835e-24)
(1.00337 -0.0785841 6.9197e-22)
(1.00239 -0.00445394 4.65899e-23)
(1.33783 0.0932369 5.95146e-21)
(1.06087 0.0797118 -4.75897e-21)
(1.10997 -0.213685 7.96941e-21)
(0.943005 -0.0220785 2.90995e-22)
(0.983661 -0.057201 7.18878e-22)
(1.222 -0.186695 1.62165e-21)
(1.03162 -0.171307 1.30967e-21)
(0.998472 -0.002856 -4.03551e-24)
(1.24303 -0.0665 -1.26486e-21)
(1.15272 -0.0090218 -7.88536e-22)
(0.771885 0.129979 1.36069e-20)
(0.975887 -0.0114992 2.38009e-22)
(1.13795 -0.222455 4.92624e-22)
(1.07182 -0.102408 -1.02009e-21)
(1.20362 0.100318 -1.06059e-20)
(1.31239 -0.0355182 3.45242e-22)
(0.984714 0.142344 1.40464e-20)
(1.20085 0.216736 2.98069e-20)
(0.988865 -0.0308231 2.14371e-23)
(0.809101 0.0332275 -2.04325e-20)
(1.29902 0.0719794 5.88781e-21)
(0.9964 -0.000738017 -7.49314e-24)
(0.976897 0.016497 -3.59902e-20)
(1.08738 -0.0937912 -7.43645e-23)
(1.12374 0.221488 9.74363e-21)
(1.0625 0.206505 -1.47194e-20)
(0.99984 -2.86471e-06 4.06386e-24)
(0.921311 0.143053 9.49567e-22)
(1.1742 0.187474 2.66974e-20)
(0.990361 -0.000692496 1.39928e-23)
(0.941431 -0.0157363 1.53388e-21)
(1.04366 -0.0452002 1.46951e-22)
(1.1325 0.0147463 -2.92987e-21)
(1.1678 -0.150369 -1.51465e-21)
(0.844619 0.111006 1.76256e-20)
(1.32061 0.0461156 -3.20638e-21)
(1.25887 -0.117867 -5.35679e-22)
(1.11832 0.016173 2.25622e-20)
(1.12966 -0.0957812 4.59336e-22)
(0.943728 -0.0231983 7.46345e-22)
(1.30677 -0.00436718 -3.32796e-21)
(0.924266 0.150748 -1.11769e-21)
(1.29176 -0.0783889 5.94818e-22)
(0.992548 -0.000268225 -6.7051e-24)
(0.834956 0.109666 -1.73201e-20)
(1.29005 -0.0428137 -3.05996e-21)
(1.23981 -0.159791 1.49341e-21)
(1.18629 -0.15473 -3.78034e-21)
(0.862698 0.127435 -2.11242e-20)
(0.902817 0.132368 4.8654e-20)
(0.963497 -0.0263184 -3.30649e-22)
(1.00007 -0.0436004 -1.06705e-22)
(1.08866 -0.00669247 -2.25666e-22)
(0.947685 -0.0206182 -7.25337e-22)
(0.998557 -0.000135273 2.45362e-23)
(1.00249 0.127789 -6.55174e-21)
(0.97378 0.050365 -1.29263e-20)
(0.966746 -0.0150929 5.01601e-22)
(0.954534 -0.0359356 4.76926e-22)
(1.12386 0.212481 1.45781e-20)
(0.998214 0.0412817 2.03211e-20)
(0.998565 -6.37084e-05 -6.10598e-23)
(1.00387 0.0450587 -3.02085e-20)
(1.17441 -0.121755 4.17218e-22)
(1.01648 -0.0172573 9.61003e-23)
(1.00387 -0.0634433 1.18696e-22)
(1.08027 0.125739 -2.37574e-21)
(0.913845 0.237022 2.26062e-20)
(1.17111 0.0177057 1.308e-20)
(1.1314 0.194137 -2.36505e-20)
(0.9788 -0.0114352 -5.96891e-22)
(1.00235 -0.0431287 -5.19232e-22)
(1.00013 -0.000107603 7.95655e-26)
(0.998995 -4.65784e-05 1.15156e-23)
(1.00066 -0.00816823 1.50503e-22)
(1.1966 -0.0104074 1.62349e-21)
(1.13049 -0.149411 -9.64276e-22)
(1.08558 0.185186 -2.92764e-20)
(0.996736 -0.103971 1.07854e-21)
(1.04767 0.0657862 1.77615e-20)
(0.989177 -0.0505554 -1.13748e-22)
(1.0999 -0.098568 -4.51255e-22)
(0.989312 0.138497 2.48318e-20)
(0.89668 0.00876588 8.69385e-20)
(1.07987 0.118107 4.09819e-20)
(1.02174 0.166486 -3.70033e-20)
(0.952856 -0.0351435 -4.21229e-22)
(1.27221 0.145818 -6.52775e-21)
(1.0117 -0.0575163 1.95223e-21)
(1.13107 -0.00826962 9.96194e-21)
(0.996682 -0.00767727 -1.08274e-22)
(1.25656 -0.180339 -4.83786e-21)
(1.19031 -0.0984046 1.03277e-21)
(1.09717 -0.0341901 2.5309e-21)
(0.999586 -8.78172e-05 3.0716e-24)
(0.986414 -0.000674281 1.61771e-22)
(0.903915 0.243529 -3.48616e-20)
(1.24341 -0.00514026 2.09208e-20)
(1.01553 -0.022923 -1.45506e-22)
(0.969055 -0.0526521 -1.04102e-21)
(1.12568 -0.143564 3.35723e-22)
(1.06044 -0.192326 3.30334e-21)
(1.29789 0.160425 -1.28819e-21)
(0.990587 -0.0875788 -1.09866e-21)
(0.971416 -0.00207748 -3.14448e-22)
(0.995114 -0.0690321 1.3326e-21)
(0.992572 -0.0297904 -1.34256e-22)
(0.999263 -7.8264e-05 -8.57851e-25)
(0.988263 -0.0482211 5.83803e-22)
(1.03539 -0.171959 -5.99144e-22)
(0.931317 0.200248 4.51059e-20)
(1.30508 -0.0831802 -6.9585e-22)
(0.978854 -0.0246465 -7.22574e-22)
(1.04333 0.0696242 -2.74993e-20)
(0.907724 0.142369 -5.85099e-21)
(0.98823 -0.0544129 1.23307e-22)
(1.00071 -0.000293053 -1.43756e-23)
(1.00231 -0.0815507 -1.24672e-21)
(0.998072 0.117387 7.63429e-21)
(1.22915 -0.207122 -2.77493e-21)
(0.948064 0.0614941 -4.64292e-20)
(1.00005 -0.000115179 1.15434e-24)
(0.95643 -0.0394973 8.46919e-22)
(1.1759 0.233605 2.43838e-21)
(0.998972 0.0390205 4.08089e-20)
(1.03035 -0.0808681 -3.24481e-22)
(0.979317 -0.0313535 4.90697e-22)
(0.866042 0.219125 3.78873e-20)
(1.23935 -0.143328 3.64985e-22)
(1.25114 -0.117975 5.25849e-22)
(0.950395 0.190456 3.09019e-20)
(0.850494 0.125978 -3.61455e-21)
(0.986787 -0.056167 -3.84741e-22)
(1.17689 0.241136 -1.65193e-20)
(1.18597 -0.0397736 -4.14659e-21)
(1.0117 0.0690592 -5.16867e-20)
(1.14815 0.120425 1.22209e-20)
(1.00074 -0.00021468 1.81289e-23)
(1.31078 -0.084765 8.89703e-22)
(1.19125 0.101805 6.49094e-21)
(0.996268 -0.000641977 -1.53552e-23)
(0.994775 -0.109304 -4.35957e-22)
(1.28459 -0.0678099 -2.30264e-22)
(1.12623 -0.211498 -1.40971e-21)
(1.2846 -0.0451928 1.88092e-21)
(1.20483 -0.0817232 -8.10838e-22)
(1.00012 -0.000192044 -2.18182e-24)
(0.999557 -0.00353126 6.14987e-23)
(0.981179 0.226124 -5.35157e-20)
(1.00139 -0.0146779 -3.11872e-23)
(1.00386 -0.13105 -1.25391e-21)
(0.989133 -0.0723193 1.33227e-22)
(1.32475 0.0139535 -2.84019e-21)
(0.968656 -0.00462697 -5.95865e-23)
(1.12945 0.227015 1.66889e-20)
(1.24537 -0.05009 3.46766e-21)
(0.992589 -0.0694098 7.73144e-22)
(0.95381 -0.00672586 -3.09096e-22)
(1.20663 0.0909635 1.12104e-21)
(1.29879 0.00367523 2.78912e-21)
(1.00008 -0.000196354 -2.03647e-24)
(0.956826 0.136344 4.55306e-20)
(1.11262 0.134326 5.55954e-21)
(0.983258 0.035136 -1.12076e-20)
(1.22483 -0.169091 -1.55195e-21)
(0.999369 -7.49662e-05 -1.33418e-23)
(0.869013 0.209668 -2.52925e-21)
(0.996864 -0.00531171 -8.68598e-23)
(0.992451 -0.0535059 2.47723e-22)
(1.30086 -0.00309471 -1.17273e-21)
(1.28527 -0.0756445 -3.75693e-23)
(0.980242 -0.0560824 -9.18651e-22)
(1.23498 -0.151746 2.10783e-21)
(1.05553 0.0764641 7.13778e-21)
(0.894257 0.0108392 3.13623e-20)
(1.04901 0.186825 -3.84862e-20)
(1.22738 -0.0280061 -6.14736e-21)
(0.785979 0.0444662 4.41664e-21)
(1.00035 -9.84628e-06 -1.22438e-24)
(0.990364 -0.0292595 -1.44738e-22)
(1.00003 0.0225014 5.39517e-20)
(1.17689 -0.197639 5.54815e-22)
(1.18608 0.0971341 -1.56597e-20)
(0.985357 -0.0416052 -4.44961e-22)
(1.00828 0.172797 3.73601e-20)
(1.22214 -0.0564073 2.57833e-21)
(1.00017 -0.00384049 3.8351e-23)
(1.21491 -0.0576586 -2.25535e-21)
(1.11324 0.110983 -2.72922e-20)
(1.1407 -0.195019 -2.52072e-23)
(0.936744 0.0157334 -8.49678e-21)
(1.19128 0.188621 3.74564e-21)
(0.999284 -0.000340382 -8.28833e-25)
(1.03961 -0.0225854 -3.53413e-22)
(1.26283 0.0727154 6.2287e-21)
(1.16438 -0.000403183 1.71082e-20)
(0.99787 -0.000106227 6.65927e-23)
(1.19647 0.208724 -2.67634e-20)
(1.01251 -0.0512271 -1.58673e-22)
(0.743102 0.124574 -2.12808e-21)
(1.01848 -0.107818 -2.32078e-21)
(0.966145 -0.0137048 2.01585e-22)
(0.987121 -0.000789486 -1.98949e-22)
(1.05396 0.19374 4.2616e-20)
(1.16919 0.181402 -4.23282e-20)
(0.972682 -0.00291154 1.38951e-22)
(1.19768 0.0842439 3.98982e-21)
(0.969262 0.186679 -1.31802e-20)
(1.00147 -0.0157468 -4.56781e-23)
(1.08613 0.0101219 6.85925e-21)
(1.0479 0.0319946 -1.98777e-20)
(0.757944 0.0680569 2.91898e-20)
(0.997287 -0.00444943 2.60401e-23)
(1.29354 0.025892 -7.67476e-21)
(1.18295 -0.100926 -1.43911e-22)
(0.945924 -0.0185614 -2.56932e-22)
(0.999575 -6.99527e-05 -2.5577e-24)
(0.999496 0.0127421 3.30715e-20)
(1.31223 0.152956 5.41677e-21)
(1.27563 -0.0937065 2.21489e-21)
(1.00329 0.220984 -1.3515e-20)
(1.22572 -0.0214013 2.99267e-21)
(0.976085 -0.0323347 3.47764e-22)
(1.26911 0.135438 -4.94222e-21)
(1.1522 -0.00513967 -2.64965e-21)
(1.23531 -0.00299425 6.46038e-21)
(0.768095 0.0745622 -7.61005e-20)
(1.02213 -0.0951163 8.17864e-22)
(1.2987 -0.0148835 1.38528e-21)
(0.980197 0.0452849 -2.92279e-20)
(0.96766 -0.0534676 9.43664e-22)
(1.17251 -0.0480061 3.54774e-22)
(1.05219 -0.158613 2.52762e-21)
(1.2595 0.0664197 -2.78684e-21)
(0.994017 -0.000199917 -2.89367e-22)
(1.16025 0.00874705 -2.88309e-21)
(1.27967 -0.0886064 -7.78037e-22)
(1.29654 -0.0199213 3.10373e-21)
(1.00135 -0.00490725 1.10503e-22)
(1.15217 0.00694076 2.86662e-20)
(0.994228 0.0280761 -2.78671e-20)
(1.1051 0.0757686 4.91557e-20)
(1.128 -0.207172 -5.51573e-21)
(0.993888 -0.0281367 2.98686e-22)
(0.871003 0.11675 -2.44841e-20)
(0.872406 0.0407685 -6.32214e-20)
(0.997223 -0.0071909 -2.33959e-23)
(0.958188 -0.0386596 3.85073e-22)
(1.05111 0.134966 5.67584e-21)
(1.00752 -0.137777 -1.02245e-21)
(1.09253 -0.100446 4.51688e-22)
(1.28714 0.158051 1.97163e-20)
(0.989098 -0.000523413 2.48219e-22)
(0.750718 0.0600358 5.04638e-20)
(1.03289 -0.0726782 -8.35103e-23)
(1.296 0.0405306 2.80594e-21)
(0.990316 -0.0103718 3.06459e-23)
(0.990452 0.0282977 -1.19329e-20)
(1.19431 0.178673 -7.5147e-21)
(1.09834 -0.0269199 -2.73517e-21)
(1.10522 -0.110694 -3.85491e-22)
(1.26255 -0.11315 1.06089e-21)
(1.29145 -0.0381066 2.93061e-22)
(0.999625 -0.00543232 8.18458e-25)
(1.03853 0.111552 -1.04706e-20)
(1.29004 -0.142964 4.46835e-21)
(1.20542 0.0600986 1.70061e-20)
(0.748463 0.131863 7.62475e-20)
(1.23531 -0.169083 1.22871e-21)
(1.07013 -0.0883794 -9.13068e-22)
(1.00031 -0.00886774 -1.50902e-22)
(1.31765 -0.0507668 3.2208e-22)
(1.293 -0.0858465 -5.60363e-22)
(0.975608 -0.0251343 1.22224e-21)
(1.24726 0.171593 -2.46832e-21)
(1.00006 -0.00144419 -3.31008e-23)
(0.973748 -0.0433346 -1.92608e-22)
(1.01552 -0.0156543 -1.26452e-22)
(1.23444 -0.135872 8.64679e-23)
(0.989587 -0.0463693 4.89995e-22)
(0.999574 -0.000146169 5.69659e-25)
(0.987933 -0.0597701 1.4816e-21)
(1.30887 -0.0100794 -1.63641e-21)
(1.13938 -0.203304 -2.06078e-21)
(1.04758 -0.0783699 -1.29125e-22)
(0.961939 -0.0269507 -6.85442e-22)
(1.27823 -0.0644787 -1.33316e-21)
(1.2003 -0.0752959 2.03952e-21)
(0.974884 -0.0555948 -4.79135e-22)
(0.947963 -0.00942307 9.513e-22)
(1.00102 -0.00513058 -1.80385e-23)
(1.13398 -0.108121 4.01163e-22)
(1.01742 -0.149344 -1.58632e-22)
(1.01276 -0.00328561 1.15859e-23)
(1.03415 -0.0776899 1.03743e-21)
(1.29225 0.00543081 -4.61666e-21)
(1.10582 0.0695793 -2.99488e-20)
(1.25118 -0.0623827 7.38831e-22)
(0.999238 -0.00028948 5.2928e-24)
(0.849153 0.233859 -5.61502e-20)
(1.01292 -0.00168779 2.00751e-23)
(0.999978 -0.00156399 3.95881e-23)
(1.04332 -0.011382 4.52253e-22)
(0.962097 -0.039033 -6.28398e-22)
(1.00673 -0.0966351 1.53128e-22)
(0.909266 0.122347 -2.85871e-20)
(1.02397 -0.0592407 9.20159e-23)
(1.18175 -0.0362264 -2.03757e-21)
(1.01519 -0.129679 2.35775e-21)
(1.01188 -0.131404 -3.02659e-21)
(1.28377 0.147706 -1.3686e-20)
(0.99448 -0.0542047 -4.14726e-22)
(0.990265 -0.0836128 6.69138e-22)
(0.996821 -0.1078 1.00618e-21)
(0.999628 -4.98613e-05 5.89272e-24)
(1.1766 -0.138832 -2.3111e-21)
(0.822114 0.222697 -5.25728e-21)
(1.06391 -0.18689 8.67492e-22)
(0.95992 -0.0489846 -1.4645e-22)
(1.23792 0.164355 -2.70979e-22)
(0.981382 -0.0529839 -9.60066e-23)
(1.14363 0.112956 -1.02436e-20)
(1.32492 0.0326658 -4.85235e-22)
(0.996387 -0.00567911 1.39663e-22)
(0.998424 -0.000196907 -2.02057e-23)
(1.0992 0.124606 3.40317e-21)
(0.761394 0.164674 2.47413e-20)
(1.04833 -0.182888 2.23156e-22)
(1.3281 0.0739847 1.17572e-21)
(1.31677 -0.0160929 -3.62879e-21)
(0.965876 -0.0436914 -2.78434e-22)
(0.965838 -0.0458512 -6.58521e-22)
(1.0559 0.140552 -1.53779e-21)
(1.11943 -0.0158373 1.88752e-21)
(1.14729 -0.209149 4.28659e-21)
(1.05715 -0.152829 -2.05037e-21)
(0.977117 -0.00174338 4.62462e-23)
(1.06899 -0.0175085 1.11519e-21)
(0.869644 0.062571 -1.09092e-20)
(1.19099 -0.0194298 -1.34207e-20)
(1.00032 -8.71956e-05 2.18069e-24)
(0.935899 0.181383 4.86758e-20)
(1.03626 -0.0695937 -9.57161e-22)
(1.00797 -0.0985295 1.76747e-21)
(1.18188 0.225919 -1.44919e-20)
(1.01823 -0.0254947 -1.49868e-22)
(0.989515 -0.00991733 -1.03568e-22)
(0.999316 -0.000493611 8.13439e-25)
(1.1682 -0.108814 -1.12143e-22)
(0.963659 -0.0207231 -5.02002e-22)
(1.00033 -1.5501e-05 2.17917e-24)
(1.33165 0.0713077 -2.96861e-21)
(1.23344 -0.200317 -1.91282e-21)
(1.03371 0.109624 -1.82447e-20)
(0.999211 -0.000112203 -4.33903e-24)
(1.00028 -0.00459606 -1.72833e-23)
(0.980227 -0.0542955 -4.61039e-22)
(1.00001 -9.59262e-05 2.04351e-25)
(1.04853 -0.187925 -1.14816e-21)
(1.16503 -0.210411 -2.0188e-21)
(0.999681 -0.00460554 1.24361e-23)
(1.00678 -0.0777796 -5.30501e-22)
(0.942752 -0.0155695 3.73816e-22)
(1.16347 0.20311 -1.78193e-21)
(0.997454 0.219305 1.09131e-20)
(0.996819 -0.00484367 2.74153e-23)
(1.00339 -0.00119216 1.7463e-23)
(0.993752 -0.102022 -2.62726e-21)
(0.982714 0.199272 3.57164e-20)
(1.00472 -0.0357243 4.97282e-22)
(0.959231 0.127152 -1.12494e-21)
(0.980999 -0.0125935 -4.33244e-23)
(0.742394 0.100645 -2.07607e-20)
(1.07686 0.0238003 -3.7491e-21)
(1.22755 0.0333927 -1.56255e-20)
(0.793384 0.13097 -2.23699e-20)
(1.29221 -0.133311 1.65703e-22)
(0.989561 -0.00315602 -1.80314e-23)
(1.17579 -0.0968058 2.05895e-22)
(1.00925 -0.0371037 -5.55632e-23)
(0.998647 0.194781 8.81108e-21)
(1.0484 0.121087 2.45524e-20)
(0.969426 -0.0085048 2.17706e-22)
(1.25192 -0.173719 5.29921e-21)
(1.15189 -0.045717 -2.85763e-22)
(1.06624 -0.0927044 -7.83517e-22)
(0.995214 -0.000324615 -1.74317e-24)
(1.25352 -0.189268 4.78126e-21)
(1.00031 -3.37438e-05 3.11764e-24)
(1.154 0.199178 9.34649e-21)
(0.941492 -0.0146023 -1.393e-21)
(0.990791 -0.0670052 -2.61156e-22)
(0.99585 -0.0324992 3.02124e-22)
(1.00622 -0.062543 1.93535e-21)
(1.28844 0.0408968 9.20226e-22)
(1.25191 -0.0558225 -2.646e-21)
(0.998183 -6.24112e-05 -5.62145e-23)
(1.02724 -0.0571807 -6.95425e-22)
(0.999879 -0.000146553 8.33136e-25)
(0.746722 0.0932106 1.53908e-20)
(0.880518 0.0561842 2.23015e-20)
(0.994689 -0.00115256 -1.47594e-25)
(0.971115 -0.0136143 -2.59926e-22)
(1.03727 -0.0428028 -6.73708e-25)
(1.05389 0.126684 1.05427e-20)
(0.939717 -0.0233265 -7.79376e-22)
(1.32117 -0.0162165 -7.24603e-22)
(0.962042 -0.0501351 1.80646e-22)
(1.03866 0.188569 -7.6977e-22)
(1.2355 0.0342727 -1.6847e-21)
(0.962717 -0.022557 -3.54564e-22)
(0.770967 0.0484964 -3.20273e-20)
(1.06051 -0.00297657 -1.00555e-21)
(1.06203 0.194751 -2.26359e-20)
(0.992372 -0.0148632 1.71887e-23)
(1.0184 -0.158271 4.84492e-21)
(0.948726 0.00948253 -7.11137e-20)
(1.01541 -0.0468352 5.66448e-22)
(0.755371 0.176317 -1.1305e-20)
(1.07889 0.143179 1.31266e-21)
(0.776207 0.0553532 -7.6058e-21)
(0.990102 -0.00326302 1.53813e-23)
(0.991522 -0.000604497 2.99248e-23)
(1.02662 -0.10225 -5.20397e-22)
(1.19263 -0.090563 -1.5635e-21)
(1.01683 -0.0252422 1.60864e-22)
(1.02668 -0.0926468 -1.74435e-22)
(1.04501 0.1724 2.08462e-21)
(1.04137 0.206623 7.1697e-21)
(1.07901 0.0044074 7.94402e-24)
(0.988964 0.192549 -2.55782e-20)
(0.775509 0.19086 6.10547e-21)
(1.28707 0.0768594 1.06588e-20)
(0.997908 0.014632 -4.79067e-20)
(1.09437 0.0597276 -9.56943e-21)
(1.00577 -0.0189971 -3.47064e-22)
(1.09451 0.130425 -1.11727e-21)
(0.988707 -0.0829119 -5.80041e-22)
(0.96379 -0.0490057 4.74106e-22)
(0.998638 -0.00135319 1.58559e-24)
(1.05913 -0.0917328 1.80381e-21)
(1.10492 -0.178894 -6.16077e-22)
(1.15547 0.0513333 7.32408e-21)
(1.1027 -0.0130531 3.40691e-21)
(1.00622 0.0623723 3.75914e-21)
(1.00923 -0.0540614 1.19656e-21)
(1.16127 -0.0360121 1.88694e-21)
(1.00842 0.0479918 -4.3052e-21)
(1.01051 -0.0389336 7.01965e-22)
(1.10043 -0.114316 8.93424e-22)
(0.999915 -0.000176185 -4.03199e-26)
(1.00051 -0.000243819 3.11064e-24)
(1.15107 0.0465442 -3.78213e-23)
(0.991427 -0.0720147 -7.52213e-22)
(0.969896 -0.0459518 7.5272e-22)
(1.00056 -0.00023236 -4.60753e-24)
(1.00011 -0.00319431 2.44904e-23)
(1.1488 -0.050524 -5.02518e-22)
(0.999392 -7.47097e-05 7.72605e-24)
(1.30826 -0.0648908 -1.31167e-22)
(0.752778 0.0742741 4.02249e-20)
(1.32945 0.0835226 5.10111e-22)
(1.22323 0.0636142 -6.12138e-22)
(0.965207 -0.00826436 -3.31465e-22)
(1.10386 0.194113 7.84513e-21)
(1.31676 -0.0442109 -4.15332e-22)
(1.00532 -0.0333291 -2.91235e-23)
(0.971783 -0.0151644 -2.58636e-22)
(0.997277 -0.00412159 8.54961e-26)
(0.999255 -0.00043933 -1.3095e-24)
(1.00203 -0.00521871 -4.18151e-23)
(0.996508 -0.0345348 2.59755e-22)
(1.03426 -0.159718 2.66796e-21)
(1.2241 0.101567 1.96477e-20)
(1.21781 -0.102411 -5.08955e-23)
(0.961965 -0.00399865 9.61129e-23)
(0.999888 -0.000106068 5.50104e-26)
(1.01021 0.114586 2.51661e-20)
(1.28344 -0.111088 2.43132e-21)
(1.26931 -0.155396 1.33827e-21)
(1.01797 -0.0482807 -6.32155e-22)
(1.30592 -0.0311821 1.64292e-21)
(1.05649 -0.0947131 -5.4073e-22)
(0.982308 -0.000912232 -6.88159e-23)
(1.00511 0.0398262 2.15279e-20)
(0.953058 0.00175063 -9.4897e-20)
(1.23936 0.218761 -1.67129e-20)
(0.989201 -0.000430252 -1.76156e-22)
(1.23245 0.22351 1.35505e-20)
(0.966047 -0.00593595 1.22712e-22)
(0.984428 -0.0496849 -5.93906e-22)
(1.30773 0.104314 -1.13232e-20)
(1.0003 -0.000107432 4.09719e-24)
(0.989232 -0.0326732 -7.48674e-23)
(1.29795 0.0291039 2.69531e-21)
(1.27133 0.0740886 1.21378e-20)
(0.964078 -0.0243825 -8.45585e-23)
(1.06232 0.124674 1.65393e-21)
(0.924879 0.242907 -2.35545e-21)
(1.03366 0.0601246 -4.8928e-20)
(0.960163 -0.0399663 9.85402e-22)
(0.94906 -0.00930684 -4.60015e-22)
(1.05208 -0.0747945 -1.85738e-22)
(1.15785 -0.0105455 4.32591e-22)
(1.04491 0.0265598 -1.17007e-20)
(0.994927 -0.00157382 -2.71604e-24)
(0.941796 0.0222789 -2.65767e-20)
(0.991823 -0.0510697 1.35343e-21)
(1.0233 -0.158592 -3.29811e-21)
(1.17479 -0.0890862 5.0362e-22)
(0.839768 0.239068 7.97781e-20)
(1.23333 0.10634 -1.54829e-20)
(1.0417 0.123213 -2.58186e-20)
(1.17527 -0.207121 1.06375e-21)
(0.915384 0.00524951 -4.28738e-20)
(0.965629 -0.0204818 5.0312e-22)
(0.985935 -0.0478915 4.29055e-22)
(0.824421 0.0256969 1.52429e-20)
(1.0927 -0.036973 -7.97712e-22)
(1.03624 -0.14897 -4.74132e-22)
(1.06019 0.177239 -5.23537e-21)
(1.03266 0.181248 -1.64927e-20)
(0.975578 -0.0419362 -6.86834e-22)
(1.0547 0.0341674 -2.63631e-20)
(0.985738 0.208497 -4.7171e-21)
(1.03098 0.166261 2.15819e-20)
(1.14689 0.22049 6.28004e-21)
(1.05141 0.17985 3.41449e-20)
(1.14343 0.128574 -1.60521e-20)
(0.985516 -0.00399276 9.67029e-23)
(0.966854 -0.0221982 6.18779e-22)
(1.00312 -0.00837357 -2.28617e-23)
(1.00638 -0.129027 3.41139e-21)
(0.985826 0.0483682 -6.70806e-21)
(1.01112 -0.136774 1.98094e-21)
(1.3038 0.00872168 -2.07728e-22)
(1.24564 0.00790629 -7.98222e-21)
(0.970584 -0.053145 5.33931e-22)
(1.30276 -0.0621927 -2.48167e-23)
(1.31576 0.0286501 -2.1296e-21)
(0.982506 0.0202318 -2.05837e-21)
(1.29098 -0.0635266 4.1658e-22)
(0.999698 -0.00385481 -6.9414e-24)
(1.0733 -0.0172619 7.04542e-23)
(0.983704 -0.0535264 2.90336e-22)
(1.24904 -0.142676 1.17285e-22)
(1.26405 -0.148479 -2.77555e-21)
(1.01393 -0.145457 6.58212e-22)
(1.14365 0.209061 3.53748e-21)
(0.96484 0.231712 3.82411e-20)
(1.21396 -0.0809382 1.13298e-21)
(0.993337 0.0178349 2.12325e-20)
(0.757889 0.153664 -2.77425e-20)
(0.998304 -0.000118818 1.65376e-23)
(1.00375 -0.00121649 -1.16385e-24)
(0.99643 -0.0062586 -6.20268e-23)
(0.970405 -0.00899866 7.00821e-23)
(1.19477 0.116223 -1.14468e-20)
(0.823214 0.0293264 -3.29556e-20)
(1.19581 -0.0173723 1.15746e-20)
(1.1144 0.207633 4.7375e-21)
(0.980729 -0.0256155 -3.72245e-22)
(1.23411 0.187517 2.23223e-20)
(1.24034 0.206172 7.08883e-21)
(1.23085 -0.19024 7.41856e-22)
(0.955069 -0.0129098 4.60816e-22)
(0.941102 -0.0220573 4.83635e-22)
(1.30993 0.00684133 5.40996e-22)
(1.01311 -0.0478477 2.49309e-22)
(1.21905 -0.0966654 1.56249e-22)
(0.967831 -0.0425594 1.49019e-22)
(0.948153 -0.0412105 -1.37446e-21)
(1.07653 0.179136 3.67516e-20)
(0.991227 -0.00276877 3.63347e-23)
(1.02762 -0.0653319 -1.6942e-22)
(1.0437 0.202243 1.76908e-20)
(1.2971 -0.0664945 8.64278e-25)
(0.86136 0.198783 8.94404e-21)
(1.01432 -0.0939851 -9.07777e-22)
(1.08449 0.020479 1.22601e-20)
(1.25428 -0.149986 2.97238e-21)
(0.998091 -0.0765532 3.03597e-22)
(0.949233 0.0166895 -9.66343e-21)
(0.976567 0.00110583 6.1186e-20)
(0.978881 0.0631863 -1.04212e-20)
(0.993233 -0.0365999 -5.93633e-22)
(0.854365 0.0378464 3.4947e-20)
(0.96227 -0.0368234 4.96637e-22)
(0.949878 0.167701 1.35e-21)
(1.13687 -0.0916185 -8.68158e-23)
(0.97485 0.100789 -5.83323e-21)
(0.980731 -0.050924 3.60386e-22)
(1.00005 -0.000250693 -3.51145e-25)
(0.973334 0.0883842 1.95451e-20)
(0.942448 0.150039 2.30762e-20)
(0.958204 0.182939 -3.69846e-20)
(0.974692 0.0762556 -2.27657e-20)
(1.13201 0.00765285 -4.04727e-20)
(1.1709 -0.0426516 -8.55291e-23)
(1.16373 0.111363 -2.98346e-20)
(1.03362 -0.144243 1.19765e-21)
(0.992064 0.0394548 6.88264e-20)
(1.05762 0.111186 -3.17084e-20)
(1.27551 -0.111637 -2.87554e-21)
(1.10681 -0.0172592 -3.61215e-21)
(0.985959 -0.00379353 5.18349e-23)
(1.29872 -0.131486 -6.30016e-22)
(1.09376 0.180439 -5.96909e-21)
(0.948997 -0.032117 3.40785e-23)
(0.966006 -0.00505287 -3.52054e-22)
(0.980073 0.0105679 -1.37831e-20)
(0.964299 0.109902 -4.22946e-20)
(0.988225 -0.0582969 -6.04558e-22)
(0.983988 0.11766 3.05526e-20)
(1.0157 -0.154133 1.14752e-21)
(1.30068 -0.0332892 -2.45256e-21)
(0.992987 -0.000342677 1.67517e-23)
(0.952538 0.120008 -2.38873e-20)
(0.938609 0.132393 6.13729e-20)
(0.770795 0.0842181 6.18847e-20)
(0.978171 0.216555 4.95644e-20)
(0.996511 -0.000412211 5.65838e-24)
(0.980898 -0.0277672 2.45234e-22)
(0.998456 -0.00139478 -1.28215e-23)
(0.993967 -0.0798727 -2.43558e-21)
(0.860745 0.152035 -1.28779e-20)
(1.24649 0.0581171 -1.96425e-20)
(1.1216 0.190874 -3.8943e-22)
(0.948672 -0.0395316 8.82079e-22)
(1.0965 0.0652643 3.00632e-20)
(1.03989 -0.0419051 -4.17369e-23)
(0.860042 0.176065 1.85337e-20)
(1.08841 -0.120082 -5.41864e-22)
(0.98913 0.0156147 2.35207e-20)
(0.993173 -0.000338425 4.30509e-24)
(0.881974 0.141976 -4.22043e-20)
(0.838967 0.187918 -5.20034e-20)
(0.979014 -0.0290231 -6.44464e-22)
(1.25786 -0.025188 3.10112e-21)
(0.884468 0.119147 -4.21195e-20)
(0.995884 -0.000627187 -4.25004e-23)
(0.811341 0.0857057 -6.86908e-21)
(1.04795 -0.0829623 2.04729e-22)
(0.995932 -0.000422854 2.22943e-23)
(0.953324 -0.0142346 -3.24148e-22)
(1.06549 0.202934 -2.22506e-20)
(1.25931 0.0244512 -1.01198e-20)
(1.00372 -0.108573 1.5565e-21)
(1.01269 0.210359 1.93493e-21)
(0.826383 0.21293 3.48378e-21)
(1.23177 0.199219 -2.43457e-20)
(1.06489 -0.0130502 -5.98904e-22)
(0.99711 -0.0712545 4.77415e-22)
(1.16799 -0.101771 -1.36851e-22)
(0.968125 0.124453 3.47566e-20)
(0.832934 0.0864868 -3.94438e-21)
(0.759297 0.080176 4.00496e-21)
(1.23423 0.0490113 3.18313e-21)
(1.00062 -0.0112192 3.29472e-23)
(0.974769 -0.00194081 -1.56929e-23)
(1.10208 0.184384 -2.11583e-20)
(1.00219 -0.00870883 2.51229e-23)
(0.982996 -0.00581495 -5.1613e-25)
(1.00342 -0.0136835 -1.70758e-23)
(0.993249 -0.0319773 -2.91733e-22)
(1.07803 -0.168455 2.22199e-21)
(1.16795 -0.191874 -1.40108e-21)
(0.923117 0.184675 -5.46748e-20)
(1.02077 -0.0536 2.11133e-23)
(0.998836 -0.00112104 7.14321e-24)
(1.0722 0.113144 -5.29344e-22)
(1.28481 0.0491478 8.08813e-21)
(1.00214 -0.0138448 -3.76697e-23)
(1.296 -0.00901515 -2.85292e-21)
(1.00204 -0.00146425 3.95842e-24)
(1.23532 0.0183189 1.17059e-21)
(1.0344 0.0634942 3.43553e-20)
(0.978035 0.113129 -5.92723e-20)
(1.13376 -0.188588 1.6078e-21)
(1.24502 -0.0126376 -5.082e-21)
(0.99332 -0.0152267 -4.76247e-23)
(1.12214 -0.128536 1.52827e-22)
(0.994581 -0.00194862 -8.21082e-25)
(0.961744 0.142227 -6.16806e-20)
(0.918405 0.179759 1.67739e-20)
(1.19578 -0.20562 1.40973e-21)
(1.15755 -0.204808 1.33608e-21)
(1.12084 -0.200105 4.50212e-21)
(1.03109 -0.0953282 7.81984e-22)
(1.00156 0.203004 4.0636e-21)
(1.03504 -0.0875751 4.84367e-22)
(1.10176 -0.163943 7.42058e-22)
(1.06095 -0.179815 -1.04576e-21)
(1.11798 -0.113745 -6.37184e-22)
(0.790899 0.0853437 3.36018e-20)
(1.11902 -0.21733 -8.35188e-21)
(1.2783 -0.0809547 3.7524e-23)
(0.966125 0.0380505 1.20782e-20)
(0.994319 -0.000478788 -8.70549e-24)
(1.24671 -0.0443659 1.59196e-21)
(1.03862 -0.079315 -7.1819e-22)
(1.06339 -0.166671 1.80518e-21)
(0.994991 -0.0011989 -4.37295e-24)
(0.999703 -0.00326905 -1.92468e-23)
(0.791985 0.10891 -5.70499e-20)
(1.1106 0.0661758 2.269e-20)
(1.1901 -0.21223 5.05012e-21)
(1.30749 -0.109824 -7.73806e-22)
(1.13282 0.113146 -1.19349e-20)
(0.991285 0.114019 -4.69573e-21)
(1.06449 0.116843 9.53478e-21)
(1.22452 -0.152074 -2.57297e-21)
(0.98135 -0.0571399 9.93165e-22)
(0.99325 -0.0490081 -3.56209e-22)
(0.985117 -0.0518533 -9.25317e-23)
(1.08817 0.112551 -3.10126e-20)
(0.966209 -0.00640555 3.36264e-22)
(1.00201 -0.0729831 7.19805e-22)
(0.999623 -5.02807e-05 -2.06973e-24)
(0.968756 -0.0218263 -1.02475e-21)
(0.997425 -0.000711245 -5.92933e-25)
(1.09766 -0.180188 1.66621e-21)
(1.05055 0.201131 -2.09994e-20)
(1.04279 -0.149539 6.80648e-22)
(0.976697 0.180153 2.33301e-21)
(0.993186 0.176753 -5.49887e-20)
(0.963858 -0.0469035 -9.05668e-23)