/*--------------------------------*- C++ -*----------------------------------*\
  =========                 |
  \\      /  F ield         | OpenFOAM: The Open Source CFD Toolbox
   \\    /   O peration     | Website:  https://openfoam.org
    \\  /    A nd           | Version:  7
     \\/     M anipulation  |
\*---------------------------------------------------------------------------*/
FoamFile
{
    version     2.0;
    format      ascii;
    class       volVectorField;
    location    "8";
    object      U;
}
// * * * * * * * * * * * * * * * * * * * * * * * * * * * * * * * * * * * * * //

dimensions      [0 1 -1 0 0 0 0];

internalField   nonuniform List<vector> 
29659
(
(1.01011 -0.0132037 5.02274e-22)
(1.01185 0.00429028 1.97374e-21)
(0.991102 -0.00321215 -2.86599e-21)
(0.970433 -0.047752 8.58368e-22)
(0.997642 -4.9905e-05 4.08544e-22)
(0.958153 -0.0292692 -1.31996e-21)
(1.0533 -0.0769296 5.62835e-22)
(1.01318 -0.0200907 -5.15661e-23)
(1.00195 -0.00187061 6.86526e-23)
(1.00018 -4.76282e-05 1.87714e-23)
(1.01467 -0.0268768 1.29688e-23)
(0.997915 -0.0158905 -9.65716e-22)
(0.999537 -0.00019043 5.55977e-23)
(0.99997 -1.01303e-05 1.40412e-24)
(1.17037 0.0556366 4.82012e-21)
(0.994149 -0.00188552 4.35967e-22)
(0.99984 -0.000819359 -2.27915e-23)
(1.12864 -0.018042 -4.919e-22)
(0.997947 -0.00174664 -1.39695e-22)
(0.989442 -0.000787943 -6.29523e-22)
(0.999172 -0.000262485 -1.91513e-22)
(1.00184 -0.00187059 2.41049e-22)
(0.99101 -0.00340193 3.14981e-21)
(0.997938 -0.000162946 1.80395e-22)
(0.841624 0.173773 7.32903e-22)
(1.01272 0.00342262 1.0629e-20)
(0.9995 -5.58497e-05 1.26806e-22)
(0.927571 0.136188 -5.50273e-20)
(1.17398 0.0535098 -1.23649e-20)
(0.999242 -0.00874199 -1.87977e-22)
(1.01479 -0.0106687 3.45124e-22)
(1.03697 -0.00825277 -2.48571e-21)
(0.978694 -0.11077 7.93985e-21)
(0.998085 -0.0220635 4.6558e-22)
(0.923267 0.129688 4.52039e-20)
(1.00299 -0.0314236 1.09706e-21)
(1.07727 0.0404475 -3.30187e-21)
(0.972873 -0.0268303 3.70029e-21)
(1.00521 -0.000791399 -9.30453e-22)
(1.00499 -0.000504853 1.76004e-21)
(1.00042 -0.000168293 -5.6033e-23)
(0.989016 -0.0291694 -3.417e-21)
(0.999859 -0.000796016 -4.0773e-25)
(1.0235 -0.0690267 -3.61014e-21)
(1.00004 -5.01332e-06 -4.01867e-24)
(0.999407 -0.00887155 1.46595e-22)
(0.99755 -0.0118143 -2.70727e-22)
(1.00007 -8.25447e-05 1.012e-23)
(1.00317 -0.00352403 -9.7829e-22)
(1.07628 0.0377825 -1.36387e-21)
(1.1069 -0.0883643 2.71736e-22)
(0.973771 -0.0420722 -4.04408e-21)
(1.03672 -0.0072979 8.73731e-22)
(0.959494 -0.0290506 -2.21518e-21)
(0.994292 -0.00194178 -3.84547e-22)
(1.17279 0.0445849 -7.96938e-21)
(0.996741 -0.00216706 1.36951e-22)
(0.999147 -0.000290489 2.42417e-22)
(0.999849 -0.0208263 -6.13934e-22)
(1.00915 -0.0560191 -1.92761e-21)
(0.999936 -7.73291e-06 3.35949e-24)
(0.998017 -0.00178674 -2.88713e-23)
(1.21133 -0.0181931 1.90508e-21)
(1.00336 -0.0307146 -5.85394e-22)
(1.09367 0.110047 2.50755e-20)
(0.874045 0.045241 1.14571e-19)
(0.998809 -0.0262081 -1.2032e-21)
(0.993016 -0.0132564 1.30874e-21)
(0.904725 0.0281949 4.61004e-20)
(1.00044 -0.000161758 3.63014e-23)
(1.01422 0.00429854 -1.44896e-20)
(0.986186 0.100765 3.20143e-20)
(1.00306 -0.00875678 -4.03742e-22)
(0.878107 0.202046 2.85352e-20)
(0.992259 -0.000614226 2.02613e-21)
(1.10768 -0.0530212 8.35377e-22)
(1.23277 0.0604134 1.32366e-20)
(0.973987 -0.0152076 8.92954e-22)
(0.999952 -2.19446e-05 -9.49622e-24)
(1.0029 -0.046234 -2.01702e-21)
(0.959714 -0.000689784 -1.48468e-21)
(1.02669 0.0421379 8.34552e-21)
(1.01036 -0.0137978 -1.50695e-21)
(1 -5.96371e-05 -7.11478e-25)
(1.05554 -0.0751942 -7.40487e-22)
(1.19503 -0.13574 -2.9854e-21)
(1.05685 0.104614 -4.90465e-20)
(0.999518 -0.000187831 -5.0242e-23)
(0.999551 -0.000169176 -1.47536e-23)
(0.938132 -0.0373401 -5.48022e-21)
(0.99338 -0.0503508 4.26591e-21)
(0.973876 -0.0159377 9.90689e-22)
(1.00298 -0.00365572 1.69132e-22)
(1.05764 -0.0136573 -1.47722e-21)
(0.932602 -0.0159602 -4.56449e-21)
(1.077 0.124485 2.3094e-20)
(0.995076 -0.0651496 6.60789e-21)
(1.00046 -0.000369861 9.18193e-23)
(0.97107 -0.0599321 -7.20215e-21)
(1.17563 0.0773545 2.065e-20)
(0.999949 -2.16387e-05 1.38717e-23)
(0.975236 -0.00993964 -5.34194e-21)
(0.999938 -9.60561e-06 -1.73496e-24)
(1.04476 -0.0209001 -7.59613e-21)
(0.972471 -0.0419099 2.68572e-21)
(1.03873 0.0113943 1.50256e-20)
(1.00808 0.0896327 4.85282e-20)
(0.999569 -0.000171118 -1.24632e-22)
(0.999995 -6.6124e-05 -7.61174e-26)
(0.993562 -0.106594 -3.55476e-22)
(0.976719 -0.109447 -7.14737e-21)
(1.03965 -0.0410847 8.59524e-22)
(1.00002 -1.75059e-06 7.34009e-25)
(0.99891 -0.00590779 -5.06114e-22)
(0.999899 -0.00212186 1.78522e-23)
(0.991037 0.102383 1.98245e-22)
(1.05246 0.0589506 -1.76614e-20)
(0.988748 -0.00691934 -2.15358e-21)
(1.00002 -6.56529e-05 1.15783e-24)
(1.00338 -0.00864917 -3.04664e-22)
(1.22655 -0.06395 -2.75038e-22)
(1.00857 0.0135355 2.31266e-20)
(1.15263 -0.0679282 2.42398e-21)
(0.871838 0.0555591 -1.06046e-19)
(1.00105 -0.000343489 -2.26564e-22)
(1.14682 -0.0501389 -1.45744e-21)
(1.12778 -0.0144088 -2.6604e-21)
(1.01348 -0.054263 1.28939e-21)
(1.00384 -0.00337026 -8.68491e-22)
(1.00002 -0.000421369 3.44691e-24)
(1.02319 -0.0671663 1.27974e-21)
(1.23247 0.0556494 7.01089e-21)
(1.03679 0.18409 4.78682e-20)
(1.15623 -0.0825428 1.57811e-22)
(1.04316 -0.0205012 6.42065e-21)
(1.01438 -0.010122 6.53008e-21)
(1.15659 0.185469 3.29388e-21)
(0.974123 -0.000717559 7.53246e-21)
(1.10856 -0.186318 1.42453e-20)
(1.17437 0.0724817 -1.57824e-20)
(1.14631 -0.0459627 1.69805e-21)
(0.944541 -0.00470532 -6.08349e-21)
(0.953842 -0.0406991 1.67539e-21)
(1.00002 -1.60237e-06 -3.07413e-25)
(0.999989 -2.91567e-06 6.82673e-25)
(0.997582 -8.19651e-05 -3.1992e-22)
(0.997727 -0.0115814 5.58869e-22)
(0.982292 -0.0845224 -5.60309e-21)
(1.11228 -0.144373 5.43313e-21)
(1.23401 0.00828808 7.83057e-21)
(1.0294 -0.0194373 3.38661e-21)
(1.01681 -0.0194497 1.15785e-21)
(1.00041 -0.000593589 1.42913e-22)
(0.999873 -0.000212463 1.34532e-23)
(1.00285 0.0402509 -4.99768e-20)
(1.00051 -0.00148338 1.62953e-23)
(0.993546 -0.0107989 1.95112e-24)
(1.17379 0.176269 -9.52335e-21)
(1.00802 0.0594158 -5.36621e-20)
(1.10951 -0.0853695 -3.38419e-23)
(0.96157 -0.002596 2.54859e-21)
(0.971389 -0.0468196 6.13733e-21)
(1.17516 0.0480187 2.00977e-21)
(0.999952 -4.42575e-05 2.96902e-24)
(0.999988 -2.72562e-06 -2.56328e-25)
(0.988704 -0.00727909 7.78456e-22)
(0.954979 -0.0398774 -9.42058e-21)
(1.00005 -0.000218054 -1.07707e-23)
(1 -6.32711e-05 -5.73321e-25)
(0.993508 -0.00488693 -2.52431e-22)
(1.00002 -0.000408954 -2.87383e-24)
(1.00543 -0.00571952 -4.89126e-22)
(1.17225 0.183197 1.07574e-20)
(0.974499 -0.000360456 -6.37927e-21)
(1.0355 -0.109097 -1.64368e-21)
(0.995146 -9.39548e-05 1.31049e-21)
(1.00202 -0.00259792 5.09868e-23)
(0.974557 -0.00976124 8.8293e-21)
(0.999192 -0.00590024 -4.50086e-23)
(1.15731 -0.0602348 -2.70608e-21)
(0.999979 -9.47336e-06 4.52395e-24)
(1.01156 -0.0373923 -4.0015e-22)
(1.06026 0.106054 1.73413e-20)
(0.993322 -0.0122896 -7.96934e-23)
(1.10292 -0.182558 -1.36665e-20)
(1.03968 0.0513021 -1.56514e-20)
(0.993982 -0.00269912 -1.90522e-21)
(0.98279 -0.0144784 2.38401e-21)
(1.00367 -0.00337432 1.31977e-21)
(0.999243 -0.00814341 -2.63632e-22)
(0.999733 -7.37692e-06 1.42752e-23)
(1.00556 -0.0173483 3.12687e-22)
(0.863767 0.027758 4.43982e-20)
(1.00229 0.036519 3.85595e-20)
(0.986375 -0.00583712 6.2899e-23)
(0.99384 -0.0106415 -8.15401e-22)
(0.965942 0.0569842 -4.3907e-20)
(1.01746 0.0332979 7.20077e-21)
(0.933971 -0.0157827 5.69409e-21)
(1.00109 -0.000482311 -1.77754e-22)
(1.0639 -0.0959247 1.71656e-21)
(0.969674 -0.0791517 7.37951e-21)
(0.998172 -0.0162371 4.68096e-22)
(1.00081 -0.00102084 -2.86919e-22)
(1.16353 0.188046 4.45414e-21)
(0.993721 -0.0049041 -1.74009e-22)
(1.00643 -0.00515907 -5.43923e-22)
(0.980769 -0.0839289 7.27761e-21)
(0.993666 -0.109054 8.85275e-22)
(0.999964 -5.11036e-06 1.11581e-24)
(0.983175 0.155036 -5.00548e-20)
(0.999016 -2.32123e-05 -3.1301e-24)
(1 -5.11089e-05 -1.37103e-25)
(0.99948 -0.000198259 2.13372e-23)
(0.996056 -0.050718 -1.54664e-21)
(1.20794 -0.00347778 -7.29827e-21)
(1.01248 -0.0366864 1.20173e-22)
(1.00621 -0.00480642 -3.73794e-22)
(0.99796 -0.000228446 4.48175e-22)
(0.935153 -0.0176088 -9.90681e-22)
(1.00004 -0.000450127 -2.62889e-24)
(1.00046 -0.00151627 1.49573e-24)
(0.997798 -0.000191033 -2.94847e-22)
(1.02843 0.000224994 1.40894e-20)
(0.997484 -0.00374487 -9.21298e-23)
(0.998939 -0.00549898 1.50398e-22)
(1.02719 -0.00176338 7.05465e-21)
(1.00012 -0.00037159 1.54826e-23)
(1.00003 -4.03957e-06 1.04329e-24)
(1.00476 -0.000569012 1.95304e-22)
(0.976547 -0.0306482 -3.02911e-21)
(0.977266 -0.000386108 -3.09868e-21)
(0.995449 -0.000356132 -1.39037e-21)
(1.01526 0.00327937 1.20105e-20)
(0.985142 -0.00106974 1.47672e-21)
(1.01711 -0.0188785 -1.09847e-21)
(0.999969 -1.13455e-05 3.95325e-24)
(0.997205 -0.00246921 -5.35948e-22)
(1.00076 -0.00100836 3.10488e-22)
(1.06361 -0.0925182 1.65124e-21)
(1.03957 -0.176032 1.16797e-20)
(0.998689 -0.000116901 2.31394e-22)
(1.00043 -0.000531793 -1.10434e-22)
(0.998852 -0.00535744 -5.13945e-23)
(1.0033 -0.00768383 -7.41092e-22)
(0.989662 -0.000581446 -2.69503e-21)
(0.999953 -4.17841e-05 -2.10556e-25)
(1.19026 -0.132577 -6.08295e-21)
(1.00005 -0.000462345 3.74067e-24)
(1.02814 0.000162608 -9.92456e-21)
(0.996845 -0.00217588 -2.77349e-22)
(1.00014 -0.000357541 6.31615e-24)
(1.03772 0.0119279 -9.5549e-21)
(0.965073 -0.0756003 -7.66203e-21)
(1.00024 -4.14925e-05 6.08273e-23)
(1 -1.15526e-05 3.57926e-27)
(0.944388 -0.00337104 -6.9411e-21)
(1.02623 -0.16187 -1.83959e-21)
(0.991839 -0.00776155 -2.06443e-22)
(1.01248 -0.0553647 -3.55544e-22)
(1.03021 -0.0201896 -5.55006e-22)
(1.06584 0.100797 2.11991e-21)
(1.00008 -7.7971e-05 2.76724e-24)
(0.977013 -0.0300214 3.10873e-21)
(1.19453 -0.0677206 -1.39964e-21)
(0.944655 0.0830915 1.0539e-21)
(0.993258 -0.0120049 6.16395e-22)
(1.03809 0.0494812 1.91836e-20)
(1.1081 -0.0494882 6.52332e-22)
(0.999858 -0.00233107 -1.53618e-23)
(0.736464 0.079761 5.91177e-20)
(0.999485 -0.000416502 -1.44591e-22)
(1.03457 -0.112165 -2.27335e-21)
(0.936212 -0.0176021 6.9095e-21)
(1.00215 -0.00245625 -2.80247e-22)
(1.18014 -0.0265905 5.65402e-21)
(0.991866 -0.000890673 -1.60438e-21)
(1.04702 0.199135 3.39299e-20)
(0.996691 -0.000255652 1.24695e-22)
(0.983265 -0.0156026 -1.24465e-22)
(0.999802 -0.00211903 -1.12574e-22)
(1.17842 0.113681 4.62176e-21)
(0.999971 -0.0164495 1.12426e-22)
(1.07327 0.127034 1.44161e-21)
(0.999514 -4.14258e-05 -5.56435e-23)
(0.994446 -0.0018019 -6.0653e-22)
(0.966172 0.201164 -2.1374e-20)
(1.03294 -0.000598968 -1.17775e-20)
(1.02704 -0.0010378 8.19637e-21)
(0.971949 -0.0387686 7.51505e-21)
(0.999854 -3.15548e-05 1.42569e-23)
(1.00322 -0.00737203 -8.64471e-23)
(0.999843 -0.000895339 -3.9743e-23)
(1 -4.8342e-05 -4.6737e-26)
(1.05888 0.00151169 3.32418e-21)
(1.00004 -4.98708e-06 9.62472e-26)
(0.981056 -0.0138511 5.57632e-21)
(1.1913 -0.0692837 1.12402e-21)
(0.837845 0.182671 -5.42741e-20)
(1.04191 0.182856 -7.62446e-20)
(0.968685 -0.0655032 2.3847e-21)
(0.986518 -0.0283898 1.86181e-21)
(0.978376 -0.00146111 1.48339e-21)
(1.03184 -0.0375543 2.59615e-21)
(1.00615 -0.0171101 -4.92909e-22)
(0.982665 -0.0151602 -3.29045e-21)
(0.969156 -0.0718518 1.04495e-21)
(1.0648 0.10433 -3.24419e-20)
(0.999252 0.0447566 7.14956e-20)
(0.998776 -0.000142493 1.27355e-22)
(1.01061 0.0903101 -6.64185e-20)
(1.0577 0.0001338 1.18014e-21)
(1.15696 -0.0657705 -6.46218e-22)
(1.01313 -0.0154611 5.18469e-22)
(1.00092 -0.0152071 -4.44354e-22)
(1.02015 -0.0512322 -6.09302e-22)
(0.994851 -0.00174196 -1.4389e-21)
(0.997455 -0.000634212 -9.46415e-23)
(0.999942 -7.88655e-06 1.77942e-23)
(0.999079 -0.00833787 3.87504e-22)
(1.08975 -0.0495606 4.06962e-22)
(1.18302 0.117442 -7.32207e-21)
(1.00153 -0.00129651 1.3338e-22)
(0.973907 -0.0251291 -4.45045e-21)
(1.01484 -0.0159264 -1.64872e-21)
(0.999962 -1.61956e-05 -1.52826e-24)
(0.968894 -0.0685588 -3.78818e-21)
(0.795164 0.140696 -2.73856e-20)
(0.994051 -0.00460829 2.13373e-21)
(0.998924 -0.00438544 1.32731e-22)
(1.01365 -0.0153355 -3.22364e-22)
(1.00265 -0.0448618 2.58895e-21)
(1.09498 0.0218818 4.05243e-21)
(0.999515 -0.00945752 -6.94164e-23)
(0.999969 -5.03468e-05 9.27652e-24)
(1.00001 -2.37964e-06 3.71451e-25)
(0.99742 -0.000576787 -1.0443e-22)
(0.962065 0.200361 3.08626e-20)
(1.0477 -0.0311707 1.73756e-21)
(1.04429 -0.174658 -3.22244e-21)
(1 -1.1652e-05 -2.43074e-26)
(1.02337 -0.16548 1.23368e-21)
(1.08195 -0.00978794 -5.09952e-21)
(0.995033 -0.000156808 -6.52893e-22)
(0.938596 -0.00639644 -8.54973e-21)
(0.999002 -0.00430819 -1.32744e-22)
(0.99958 -0.000190871 -9.09534e-24)
(0.977754 -0.0271508 -9.49385e-22)
(1.00089 -0.00111442 -1.38118e-22)
(1.16124 -0.0581672 2.66268e-21)
(1.00895 -0.00120366 -3.88603e-21)
(1.21367 0.0429465 -6.87147e-21)
(0.999878 -0.00229936 1.99456e-23)
(1.0041 -0.0135432 1.56226e-22)
(1.00817 0.0119629 -3.13337e-20)
(1.22188 -0.0628863 5.38473e-22)
(1.0004 -0.000557641 -8.41845e-23)
(1.00042 -0.000497314 8.34744e-24)
(0.999597 0.123127 3.14985e-21)
(0.994396 -0.0513065 -8.67819e-22)
(0.999362 -0.00931214 8.44171e-23)
(1.01641 0.0374666 3.77834e-21)
(0.953227 0.0292381 8.5733e-20)
(1.107 -0.0924168 -8.25914e-22)
(0.998831 -0.0252648 -3.8624e-22)
(1.20541 -0.00152725 7.3014e-21)
(0.99926 -6.87435e-05 -9.60291e-23)
(0.991613 -0.00406335 5.74234e-22)
(0.996759 -0.000265965 -3.55568e-22)
(1.01882 0.0313506 3.72229e-23)
(0.999986 -0.00073723 4.87456e-25)
(1.00868 -0.00142344 3.97091e-21)
(1.13396 -0.136017 1.66667e-22)
(1.0292 0.173667 7.45177e-20)
(0.884764 0.20889 -1.26332e-20)
(0.994166 -0.00268888 7.31243e-23)
(0.991603 -0.00759059 6.19541e-22)
(1.0917 0.114678 -1.98739e-20)
(1.00949 -0.0577397 2.75466e-21)
(0.999944 -8.9468e-06 -1.73615e-23)
(1.23496 0.0281469 1.309e-20)
(1.02808 0.000899574 -4.21184e-21)
(1.02748 0.00110295 -2.84415e-21)
(0.994381 -0.0131079 -8.72462e-22)
(1.01847 -0.00232109 -5.98875e-21)
(0.942388 0.179799 1.22273e-20)
(1.10696 -0.153142 -1.65087e-21)
(0.98997 0.1668 1.22183e-20)
(1.01138 0.159201 -2.13817e-20)
(0.999996 -6.32107e-05 2.4763e-25)
(1.08691 -0.0483576 -1.27449e-21)
(1.10784 -0.148158 1.05306e-21)
(0.997365 -0.0037751 2.4176e-22)
(1.00158 -0.00140773 -2.19186e-22)
(0.946327 0.0339726 2.04363e-20)
(1.04939 -0.0320575 -2.24997e-21)
(1.00028 -7.27521e-05 1.36651e-23)
(0.981023 -0.0582474 -8.74546e-21)
(0.968853 -0.0812013 -3.50676e-21)
(0.994567 -0.00185533 8.53168e-22)
(0.999881 -0.000206488 -1.69749e-23)
(1.09824 0.146587 -3.13123e-21)
(1.05163 0.0566811 2.98483e-20)
(1.00005 -0.00050222 -6.69105e-25)
(1.00401 -0.00360596 1.70374e-22)
(1.00512 -0.00357675 9.224e-22)
(1.17039 -0.105796 3.24688e-21)
(0.971999 -0.0377282 -6.82694e-21)
(1.00007 -0.000593278 -7.92834e-24)
(0.999985 -1.54889e-06 -4.05553e-25)
(1.00049 -0.000173732 2.13094e-23)
(1.09366 0.0237095 -4.10038e-22)
(0.972863 -0.0258666 -3.5447e-21)
(1.00461 0.0722591 1.54006e-20)
(0.947228 -0.0448211 4.03145e-21)
(0.987278 -0.0282567 -1.99231e-21)
(0.97663 -0.00114973 -5.99477e-21)
(1.01814 0.0358154 -1.86005e-20)
(1.2064 -0.0171639 3.7846e-22)
(0.998814 -0.000151954 2.33129e-22)
(1.00773 -0.00590045 -9.81328e-22)
(1.00083 -0.00110646 1.56632e-22)
(0.993277 0.186238 -3.06979e-20)
(0.974872 -0.0234841 1.91768e-21)
(1.00106 -0.000280793 -7.38531e-23)
(0.992617 -0.00361563 -7.77197e-22)
(1.15051 -0.0422679 3.31297e-21)
(0.999583 -0.010161 -1.73144e-22)
(0.988625 -0.0124765 -4.24388e-22)
(1.00023 -0.000142318 -4.21117e-23)
(1.00024 -5.16938e-05 -1.8636e-24)
(0.789085 0.150998 4.13039e-20)
(0.991912 -0.00132757 -9.95774e-22)
(0.995273 -0.00476859 8.68296e-22)
(0.999622 -0.00187244 -9.99885e-23)
(0.999278 -5.17396e-05 -1.31334e-23)
(1.07328 0.0955869 -1.1022e-20)
(1.13936 -0.137202 3.43307e-22)
(0.984849 -0.0423246 1.14466e-21)
(1.00002 -2.03698e-06 -3.71481e-25)
(1 -3.87364e-05 -3.85024e-26)
(0.973896 -0.0242909 5.02273e-21)
(0.99331 -0.00192938 2.05058e-22)
(0.994893 -0.00220866 -1.1783e-22)
(1.01423 -0.00524298 1.87674e-21)
(1.00569 -0.00235497 3.32021e-22)
(1.00022 -0.0168704 -1.93455e-22)
(1.12436 -0.031364 6.27218e-21)
(0.981726 -0.00443305 -1.24035e-21)
(0.991937 0.162239 -1.03961e-20)
(1.01389 -0.0268095 -5.33678e-22)
(1.00025 -0.00014284 4.67475e-23)
(0.967898 -0.0642665 3.5749e-22)
(0.983268 -0.0374264 -4.1265e-21)
(1.1733 -0.0213746 3.84126e-21)
(0.997119 -0.00622469 -2.54588e-22)
(0.988365 -0.0496932 -1.33588e-21)
(0.999978 -5.40332e-06 2.50427e-24)
(0.899859 0.145069 -4.27897e-20)
(1.01536 -0.0021984 3.38537e-21)
(1.00008 -0.000242906 -1.59123e-23)
(0.863948 0.0381202 -5.7669e-20)
(0.983837 -0.0425355 2.58584e-21)
(0.999978 -6.34684e-06 4.07393e-25)
(1.00144 -0.00128294 6.45087e-23)
(0.967963 -0.0671786 -2.10357e-21)
(1.03821 -0.0396381 8.54193e-22)
(1.04983 -0.0155885 4.27359e-21)
(0.999991 -2.90643e-06 5.46487e-25)
(0.99189 -0.000668855 7.89541e-22)
(1.02104 -0.0501375 7.94394e-22)
(0.994717 -0.00170185 1.181e-21)
(0.999534 -4.81692e-05 -3.0037e-22)
(0.991776 -0.0041983 1.82128e-23)
(0.96157 0.0588653 5.10494e-21)
(0.992887 -0.0128552 -1.09744e-21)
(0.989097 -0.0122236 3.13234e-22)
(1.00404 0.0448085 -1.54378e-20)
(0.997266 -0.00233196 2.80874e-22)
(0.985029 0.19176 -3.80312e-21)
(0.999976 -6.3171e-06 -1.28383e-24)
(0.989348 -0.0284564 7.98505e-22)
(0.980448 -0.0798959 8.12529e-21)
(0.989327 -0.0500491 2.25649e-21)
(1.1873 -0.0788211 2.52738e-23)
(0.998821 -0.00573929 3.3917e-22)
(1.00904 -0.0249429 2.94648e-22)
(0.999935 -0.00247475 4.94288e-24)
(0.982942 -0.0220727 -2.42112e-21)
(1.03947 -0.0430464 3.4897e-22)
(0.999964 -1.54719e-05 7.72609e-24)
(1.00002 -1.28556e-06 -6.58067e-25)
(0.993646 -0.00042631 5.41447e-22)
(0.977159 0.110873 3.21962e-20)
(1.01262 -0.0207573 2.08093e-21)
(1.00259 -0.00365623 -2.72403e-22)
(0.934203 -0.032963 5.93249e-21)
(1 -1.03355e-05 -8.07188e-26)
(1.00098 -0.00121385 -2.49958e-22)
(0.999962 -0.000702745 -3.47074e-24)
(1.01412 -0.0199435 2.2313e-21)
(0.983185 -0.0162917 4.37053e-22)
(0.999615 -0.000296152 3.77387e-23)
(0.993293 -0.0114853 4.00201e-22)
(0.987616 -0.00720908 -4.59893e-22)
(1.00102 -0.000165792 -2.03415e-23)
(0.999976 -7.42068e-06 -8.06924e-25)
(1.19826 -0.0487347 2.74372e-21)
(0.999658 -0.0018432 1.07258e-22)
(1.07896 -0.0141762 3.99804e-21)
(1.04938 0.160853 7.67548e-20)
(1.0852 0.115492 -1.82471e-20)
(1.0004 -0.0213635 -7.17225e-22)
(1.00552 -0.00209593 -1.10229e-22)
(1.01875 -0.00184829 3.67491e-21)
(0.99998 -0.00253353 -5.62444e-24)
(0.99772 -0.0107884 4.02353e-22)
(1 -1.7691e-05 -5.13613e-26)
(1.00727 0.16078 -1.57224e-21)
(0.987706 -0.016395 6.01344e-22)
(1.01384 -0.00475532 -1.34154e-21)
(0.982151 -0.00460525 2.58951e-21)
(1.00363 -0.0132945 1.44277e-23)
(0.997295 -0.00613079 5.59238e-22)
(0.999893 -0.000211534 3.8743e-24)
(1.00002 -8.44428e-07 -3.43949e-24)
(0.995437 -0.00474843 -6.32365e-22)
(1.05772 -0.0154268 -2.38681e-21)
(1.00905 0.0623112 2.48481e-21)
(1.00123 -0.000503339 -3.02224e-22)
(0.97274 -0.06004 -1.92804e-21)
(0.974824 -0.0227733 -8.47747e-22)
(0.99208 -0.000532976 -2.97153e-21)
(1.22985 0.00854173 -5.03789e-21)
(0.998692 -0.00100919 -1.40137e-22)
(1.00364 -0.0150655 -4.65758e-22)
(0.994494 -0.00289905 5.98112e-22)
(0.999902 -0.00020424 3.33159e-24)
(0.968106 -0.0702981 2.37284e-21)
(1.00501 0.0671797 -2.42762e-20)
(1.03841 0.0445504 -1.97709e-20)
(0.977288 -0.0152979 -4.06506e-22)
(1.00358 0.0649316 -1.05211e-21)
(1.00008 -0.00022758 3.10734e-23)
(1.00002 -1.70432e-06 1.06965e-24)
(1.23079 0.0277641 -4.98637e-21)
(1.17863 -0.0225234 -3.71676e-21)
(0.874555 0.150506 -2.0453e-21)
(0.997423 -0.0843188 5.61842e-21)
(0.976872 -0.00158274 -1.88931e-21)
(1.14971 -0.037466 -4.63068e-21)
(1.00118 -0.000535118 3.42141e-22)
(0.994293 -0.00390973 3.42869e-22)
(1.00046 -0.00018704 -2.0293e-23)
(0.989223 -0.000750306 -6.3884e-22)
(0.988115 -0.0134182 -8.85029e-22)
(0.999996 -3.45884e-05 -8.40409e-25)
(0.999105 -3.57575e-05 5.48452e-23)
(1.02723 0.169172 -7.30282e-20)
(0.999867 -0.000731333 3.73135e-23)
(0.911483 0.131348 5.4e-20)
(1 -1.68443e-05 3.73569e-26)
(1.22716 -0.0335898 3.2902e-21)
(1.07888 -0.0161933 -8.38703e-21)
(1.12437 -0.0282537 -6.90621e-21)
(1.00105 -0.000518467 2.0592e-23)
(1.00019 -4.41733e-05 3.76366e-23)
(0.981837 0.102447 -4.90409e-20)
(1.08194 -0.0121567 1.66002e-20)
(0.979814 -0.0814017 -7.36466e-21)
(1.028 0.0446188 8.98978e-21)
(0.997614 -0.0216157 3.30843e-22)
(0.986513 -0.00549173 -6.68561e-22)
(0.995896 -0.000232978 -3.58556e-22)
(1.21148 0.133862 -3.13998e-20)
(0.975829 -0.0272866 3.07464e-21)
(1.03241 -0.0360244 -1.6972e-21)
(0.99356 -0.0113987 -2.29322e-22)
(1 -1.02428e-05 -8.42684e-27)
(0.998704 -0.000950074 -1.18865e-22)
(1.00599 -0.00617038 5.8379e-22)
(0.981511 -0.00816906 3.33365e-21)
(0.977879 -0.0154292 6.07076e-22)
(0.956491 -0.0406694 -9.06799e-22)
(0.981324 -0.0086683 -2.52829e-21)
(1.02173 0.00285798 1.63054e-21)
(0.997853 -0.000142346 7.38333e-24)
(0.939539 -0.0378366 3.02598e-21)
(0.985813 -0.000933364 -9.19348e-22)
(1.00004 -0.000220556 5.52203e-24)
(0.98761 -0.000744549 -6.36691e-22)
(1.03287 -0.0389038 -2.89518e-21)
(1.02082 0.00312016 -9.0181e-21)
(0.973801 -0.0274121 -7.68027e-22)
(0.999981 -7.96383e-07 -1.09859e-26)
(0.982406 -0.0166425 6.52739e-22)
(1.00206 -0.0153415 1.9749e-23)
(1.00141 -0.0012018 8.27376e-23)
(1.12783 -0.153806 -4.6404e-21)
(1.00368 0.0685706 -5.63291e-20)
(1.00092 -0.00120145 2.32076e-22)
(0.987816 -0.000557185 9.32796e-24)
(1.09891 -0.0919401 -6.43851e-23)
(1.02878 0.000196793 1.41804e-20)
(0.980377 0.0480583 -5.47238e-21)
(1.00187 -0.00255939 7.36756e-23)
(1.0002 -0.0222516 2.2605e-22)
(1.15024 0.115419 -5.46822e-21)
(1.01999 0.0278498 -4.63755e-20)
(0.99041 -0.0283813 2.10465e-21)
(1.00485 -0.00360725 -1.03197e-22)
(0.951759 -0.0481025 4.12395e-21)
(0.999997 -4.91352e-06 1.87201e-25)
(0.951269 -0.00207013 -3.13544e-21)
(1.00009 -7.26166e-05 5.52657e-24)
(1.09618 -0.0927847 -2.58529e-21)
(0.999966 -3.53423e-06 -8.66025e-25)
(1.00003 -6.43351e-05 3.73613e-24)
(0.99973 -0.0248237 -2.68268e-22)
(1.21429 -0.0146506 -4.11393e-21)
(1.09425 0.199829 3.11027e-20)
(1.03619 -0.0401156 -4.59997e-21)
(1.01418 -0.0160665 1.09694e-21)
(0.999999 -3.44957e-06 -3.84298e-26)
(0.993831 -0.00463846 -1.15219e-21)
(1.00009 -2.0757e-05 -4.01458e-24)
(0.996826 -0.00249045 4.0139e-22)
(1.00003 -5.98212e-05 -2.90793e-24)
(1.05025 -0.0136665 -1.33429e-20)
(0.999524 -0.000490031 -1.4836e-22)
(1.07082 0.055875 1.93722e-20)
(0.999875 -0.000227462 -2.6648e-23)
(0.987011 -0.00536913 -1.13707e-21)
(0.958856 -0.0011037 7.20462e-21)
(0.995687 -0.000301267 -4.62815e-22)
(0.971825 0.0609213 5.25166e-20)
(0.982607 -0.000749641 1.74817e-21)
(1.02261 -0.107546 3.98876e-22)
(0.994442 -0.00409925 1.77298e-21)
(1.0267 -0.00294335 -3.00827e-21)
(0.970135 -0.0608655 8.25805e-21)
(1.02021 -0.00163237 -1.01734e-20)
(1.03871 -0.0745846 -1.27248e-22)
(0.999984 -1.02147e-06 1.08239e-25)
(0.999094 -0.0210119 2.55131e-22)
(0.995966 -0.000307495 5.62798e-23)
(1.00026 -9.73117e-05 2.79043e-23)
(1.00009 -1.73609e-05 6.80441e-24)
(1.21707 0.131442 3.41234e-20)
(0.995061 -0.00221676 9.9422e-22)
(1.02895 0.00112696 1.61453e-20)
(1.00081 -0.0227743 2.69338e-22)
(1.00088 -0.000320972 7.88004e-23)
(1.02432 -0.00879581 -1.12339e-20)
(1.00017 -3.84395e-05 -8.44738e-23)
(0.999975 -3.44901e-06 -1.16153e-25)
(0.951857 -0.00275364 2.42448e-21)
(0.996471 -0.00126461 4.50125e-22)
(1.00003 -5.82768e-05 4.18145e-24)
(1.09838 0.108162 1.35525e-20)
(0.815023 0.121505 -7.70599e-20)
(0.999788 -0.000240934 6.74474e-23)
(0.960666 -0.00223164 -1.99067e-21)
(1.00002 -1.485e-06 7.6971e-25)
(0.93559 0.176499 -4.97745e-20)
(1.23168 -0.0337789 3.48853e-21)
(0.970529 -0.0488748 -6.96524e-21)
(1.00005 -0.000575864 -9.16903e-24)
(1.03129 -0.0347623 3.88095e-21)
(1.03217 -0.0032677 -4.13118e-21)
(1.03367 -0.000703328 1.20324e-21)
(1.05093 -0.0164126 -1.67239e-21)
(0.99965 -0.0019756 -1.79198e-23)
(0.999865 -0.000874913 3.11216e-23)
(0.985882 -0.0162802 -1.93152e-21)
(1 -8.92114e-06 -4.88974e-25)
(1.00002 -8.37028e-07 -1.93743e-25)
(0.974984 -0.0267923 -1.81908e-21)
(0.996537 -0.0643862 -3.14863e-21)
(0.95774 -0.0399314 -2.35755e-22)
(0.852111 0.17411 -1.59181e-21)
(1.00021 -2.56136e-05 -3.47293e-23)
(1.0154 -0.0810345 -5.78209e-21)
(1.00748 -0.00553475 -1.01029e-21)
(0.999976 -3.58245e-06 1.32222e-24)
(0.99896 -0.00408212 -2.92545e-22)
(1.00004 -0.000490485 -6.03671e-24)
(0.995442 -0.0132958 6.6076e-22)
(1.00005 -1.0809e-05 4.21129e-24)
(1.0405 -0.0733256 -2.46448e-22)
(1.01984 -0.00198858 9.87099e-21)
(0.986601 0.186867 1.06933e-20)
(1.02597 -0.00272986 1.12979e-20)
(0.999719 -0.00023392 5.44136e-23)
(1.00046 -0.000408103 -7.99815e-23)
(1.16971 -0.111105 -3.37945e-21)
(1.02867 0.00107881 -1.29889e-20)
(0.996867 -0.000411263 4.02366e-22)
(1.00002 -1.08781e-06 1.61366e-24)
(1.1096 0.0859058 -2.22372e-20)
(1.09031 -0.182981 -2.41395e-21)
(0.9976 -0.0825287 -2.4595e-21)
(0.985429 -0.000794762 -4.89593e-22)
(0.999978 -2.30806e-05 2.40983e-24)
(0.999722 -0.000220587 -3.18066e-23)
(1.0962 -0.186394 6.84642e-21)
(0.997199 -0.0516256 -8.8423e-22)
(1.04471 0.0300283 2.81323e-21)
(0.989596 0.156245 4.50796e-20)
(1.02144 -0.104796 3.15592e-21)
(0.998722 -8.56614e-05 -7.26925e-23)
(0.999978 -1.07151e-05 -2.94341e-24)
(0.962441 -0.0520029 6.8581e-21)
(0.974401 -0.104262 -8.35822e-21)
(0.999797 -0.000248633 3.62777e-23)
(1.00974 -0.0243313 1.10882e-21)
(0.990744 -0.0276286 -3.6193e-22)
(0.995318 -0.00237475 3.91951e-22)
(0.996449 0.0627108 -4.14766e-20)
(0.9987 -0.000577521 2.57786e-22)
(1.05231 -0.0560233 6.3628e-22)
(1.23614 0.0620499 -1.32411e-20)
(0.992206 -0.00341434 -1.13381e-21)
(0.870217 0.14166 -7.64259e-21)
(0.877677 0.0649394 2.4134e-20)
(0.999969 -5.39887e-05 -9.26258e-24)
(0.999973 -0.000768381 -1.39914e-24)
(0.98282 -0.000993061 -1.1212e-21)
(1.01334 -0.00514321 -2.42036e-21)
(0.962299 -0.00205477 4.12057e-21)
(1.00525 -0.00447037 -1.05995e-21)
(0.992489 -0.00342693 1.06223e-21)
(0.999427 -0.000526309 -1.12838e-22)
(0.951225 0.174392 -8.7941e-21)
(1.07065 0.0530334 -3.01819e-20)
(1.0023 -0.00247882 1.88673e-22)
(0.747911 0.0757434 -1.51457e-20)
(1.00002 -1.43495e-06 -1.0999e-24)
(1.02793 0.00619187 -2.23778e-20)
(0.990685 -0.101562 5.62583e-21)
(1.01782 -0.0811194 2.24216e-21)
(1.0001 -0.00022039 -1.60095e-24)
(0.960504 -0.00113861 3.39517e-21)
(1.02492 0.00538622 1.25482e-20)
(1.01306 -0.00559694 2.00513e-21)
(1.0318 -0.00228212 5.72382e-21)
(0.999546 -3.72966e-05 2.11595e-22)
(0.999517 -0.000523318 1.34472e-22)
(1.02429 -0.0489433 4.1383e-23)
(0.99653 -0.00136592 -1.28664e-21)
(0.987253 -0.0122204 -2.0843e-21)
(0.999093 -0.00371102 1.73269e-23)
(1.09363 0.0310772 1.53287e-20)
(0.998849 -0.0218928 -1.79524e-22)
(0.994996 -0.0050384 1.94299e-23)
(0.930907 -0.0278892 -8.8349e-21)
(1.00321 0.122268 5.17178e-21)
(1.11151 -0.046502 -5.08872e-21)
(1.02363 -0.0083313 9.0329e-21)
(0.999597 -0.000191655 4.02383e-23)
(0.999486 -0.000341763 1.81465e-23)
(0.982197 -0.0218061 4.89461e-21)
(1.00101 -0.00130845 -1.85586e-22)
(0.997386 -0.000724699 -7.29839e-23)
(0.999978 -2.2115e-05 -8.86813e-25)
(0.999681 -0.00201254 4.007e-24)
(1.02432 0.00505271 -4.87265e-21)
(0.98174 0.107831 -4.69979e-20)
(0.999871 -1.66267e-05 8.42499e-24)
(1.21899 0.100761 -2.81306e-20)
(0.999996 -4.34627e-05 3.72496e-25)
(0.996731 -0.00294417 5.45629e-22)
(0.999992 -9.93238e-05 7.42089e-25)
(1.00529 -0.00385774 -4.69803e-22)
(1.19946 -0.0525569 -1.97883e-21)
(0.99996 -4.45524e-05 8.42374e-25)
(0.999959 -4.835e-05 5.81558e-24)
(0.946154 -0.0453213 -3.84793e-21)
(1.00001 -8.81831e-06 -3.88549e-26)
(1.05431 -0.01649 1.39987e-20)
(0.987174 -0.0433682 3.64495e-21)
(0.999974 -0.000674291 2.96208e-24)
(1.10017 0.0641978 -1.73821e-20)
(1 -3.08861e-05 -3.12228e-26)
(0.999597 -3.95497e-05 1.85059e-22)
(0.99991 -3.72261e-05 3.19127e-25)
(0.995181 -0.00505873 -3.2559e-22)
(0.999657 -0.00160253 -5.26296e-23)
(0.993762 -0.000318543 -3.63798e-22)
(1.00093 -0.122589 -6.59912e-22)
(0.999696 -0.00156129 3.47839e-23)
(1.00425 -0.00361446 -3.65411e-22)
(0.999974 -2.47661e-06 -4.98947e-25)
(1.09453 0.193853 -6.05555e-20)
(1.05063 -0.0570336 1.58866e-21)
(1.11462 -0.0474655 -6.12978e-22)
(0.964949 -0.0061539 4.46299e-21)
(0.977296 -0.00441358 -8.14711e-22)
(0.999053 -0.00399666 4.81867e-22)
(1.00295 -0.00274855 5.11572e-22)
(1.06185 0.0723904 8.12115e-21)
(0.982584 -0.0385052 5.61763e-22)
(1.1582 0.08613 7.87581e-21)
(0.956404 -0.0139667 -8.0399e-21)
(0.996613 -0.00284221 -5.1487e-22)
(0.99999 -3.8724e-06 -9.83751e-25)
(0.994305 -0.00290869 -7.21291e-22)
(1.05328 0.199737 1.55692e-20)
(1.09451 0.0772801 -4.08396e-21)
(0.982576 -0.0578453 2.9378e-21)
(0.941133 -0.0059571 1.87722e-21)
(1.09485 0.179413 1.6608e-20)
(0.991475 -0.00060478 9.44571e-22)
(0.9859 -0.0929034 4.4201e-22)
(0.999992 -9.38426e-05 7.05022e-25)
(0.986045 -0.043568 4.5695e-21)
(0.999165 -0.000236876 -2.71746e-22)
(0.766266 0.131221 -4.36373e-20)
(0.979443 -0.0759292 -6.31331e-21)
(0.999912 -3.31192e-05 1.52381e-23)
(0.937435 -0.0194122 -5.02712e-22)
(0.982439 -0.0408358 2.74858e-22)
(1.04726 0.0838631 2.89085e-20)
(0.997423 -0.00079048 -6.91589e-22)
(0.980524 -0.0393663 -1.67495e-21)
(0.997528 -0.0110533 -5.57591e-22)
(0.999828 -0.0239812 -5.63535e-22)
(0.998735 -0.00058586 -1.76176e-22)
(1.04545 0.0821826 -3.51304e-20)
(1.03439 -0.171311 5.2591e-21)
(0.982332 -0.01732 -1.45078e-21)
(0.986431 -0.0151399 3.03539e-23)
(0.987121 -0.00506646 -4.55511e-22)
(1.00528 -0.00220068 -4.2967e-22)
(1.09428 0.172773 6.53677e-20)
(0.982306 -0.0140827 6.64924e-22)
(1.0197 0.0427003 1.96426e-20)
(1.00272 -0.00222314 3.90114e-22)
(1.19151 -0.076425 -1.55362e-22)
(0.907947 0.142014 7.98502e-21)
(0.99131 -0.000475145 -3.25269e-21)
(0.999771 -4.25931e-05 3.5777e-23)
(1.07194 0.0993979 8.54711e-21)
(1.0201 0.162911 -5.95535e-20)
(1.02357 -0.0471915 1.00579e-22)
(1.08088 -0.0497931 6.39124e-22)
(0.995203 -0.0138285 -7.25051e-22)
(0.96548 -0.0055583 -2.64002e-21)
(1.14572 0.113893 2.23389e-20)
(0.961091 -0.0521839 1.22618e-21)
(0.999975 -2.2121e-05 3.23229e-24)
(0.992604 -0.000114149 -1.67633e-21)
(1.00004 -6.56853e-06 4.31263e-24)
(0.995535 -0.000269948 1.25469e-21)
(0.999974 -2.35336e-05 -5.00488e-24)
(0.997886 -0.0154254 9.10784e-22)
(0.999043 -4.02285e-05 9.66606e-23)
(0.997253 -0.00580547 6.54213e-23)
(1.17682 -0.0965223 -4.68945e-22)
(0.999408 -0.000396753 9.68865e-23)