/*--------------------------------*- C++ -*----------------------------------*\
  =========                 |
  \\      /  F ield         | OpenFOAM: The Open Source CFD Toolbox
   \\    /   O peration     | Website:  https://openfoam.org
    \\  /    A nd           | Version:  7
     \\/     M anipulation  |
\*---------------------------------------------------------------------------*/
FoamFile
{
    version     2.0;
    format      ascii;
    class       volVectorField;
    location    "34.5";
    object      U;
}
// * * * * * * * * * * * * * * * * * * * * * * * * * * * * * * * * * * * * * //

dimensions      [0 1 -1 0 0 0 0];

internalField   nonuniform List<vector> 
7807
(
(1.09004 0.118942 2.90867e-20)
(1.0808 -0.0216585 9.00402e-20)
(1.0587 0.103439 -4.71193e-20)
(1.0619 0.0820138 9.37619e-20)
(1.03708 -0.00158963 1.44804e-20)
(0.919537 -0.0061349 1.0995e-20)
(1.06007 0.10358 -9.36386e-20)
(1.0071 -0.000852683 3.60106e-22)
(1.03517 -0.00137082 1.28513e-20)
(1.0399 0.00395424 -8.04683e-21)
(0.982957 -0.00752446 -1.2247e-20)
(1.03745 -0.00200789 -2.29953e-20)
(0.955008 -0.00174135 -2.21345e-20)
(1.0436 -0.000470693 -9.53425e-20)
(1.03844 0.00393152 3.35916e-20)
(1.03151 -0.00878931 3.5639e-20)
(1.09062 0.122844 -6.17314e-20)
(0.929379 0.00171296 6.19613e-21)
(1.03858 -0.00559329 -1.80699e-20)
(1.02303 -0.0769522 7.6615e-21)
(1.0564 0.00628992 -2.56905e-20)
(1.03716 0.00017404 6.54019e-20)
(1.04514 -0.00128565 1.23378e-20)
(1.01668 0.0482399 -5.71407e-20)
(0.889269 0.00447324 2.2118e-20)
(1.08742 0.117269 -2.91967e-20)
(1.03731 -0.00140126 1.21041e-20)
(1.04627 0.000939687 3.14228e-20)
(1.00731 0.0229855 -8.30921e-21)
(1.03879 -0.0057285 1.61259e-20)
(1.02758 -0.00901083 5.08749e-20)
(0.479899 0.00893357 9.6833e-21)
(1.04468 -0.00142399 6.65087e-20)
(1.03513 -0.00227534 -2.76789e-20)
(0.445866 0.000963186 -1.03791e-22)
(1.04259 0.00339952 1.28248e-20)
(1.03946 -0.00679133 1.18764e-20)
(1.0587 0.103421 -1.59064e-20)
(1.03407 -0.005048 -6.43973e-20)
(0.836336 -0.003236 -3.42364e-20)
(1.0344 -0.00509966 6.48005e-21)
(1.03158 -0.00833551 1.32984e-20)
(1.04909 -0.0848659 -3.63631e-20)
(1.16571 -0.0115209 -1.27672e-20)
(0.416078 -0.00100568 -1.6268e-20)
(0.870901 0.00854051 7.04889e-21)
(1.03619 0.000321375 -3.97837e-20)
(1.0348 -0.00456902 3.79076e-20)
(1.03162 -0.00351169 7.01814e-21)
(1.0271 -0.0775259 -1.12815e-20)
(1.03786 -0.00156436 1.83378e-20)
(1.04693 0.00140602 -3.39337e-20)
(0.833366 0.00386765 6.00884e-20)
(1.04512 -0.0190533 1.29244e-20)
(1.04309 0.00294762 -9.86742e-21)
(1.03297 -0.00272031 6.57385e-21)
(1.03774 -0.00479627 2.85037e-20)
(0.974199 -0.000857942 -4.23327e-20)
(1.01916 -0.010685 5.81663e-20)
(1.03482 -0.00264357 3.36256e-20)
(1.03344 -0.00127272 -1.69564e-20)
(1.03915 -0.000207832 1.7423e-20)
(1.04408 -0.000115991 -2.1553e-20)
(1.03696 -0.00136308 2.34801e-20)
(0.855378 -0.00913042 -2.43707e-20)
(1.02799 -0.00945742 -8.1222e-21)
(1.03435 -0.00169307 -1.19493e-20)
(1.03144 0.000220505 1.72787e-21)
(1.15021 0.084386 2.91912e-20)
(1.035 -0.00413725 1.52721e-20)
(0.96377 -0.00238662 -6.39049e-21)
(1.01398 -0.0414549 6.8137e-20)
(0.942204 9.08988e-05 -1.08909e-20)
(0.742135 -0.0027399 -9.2436e-21)
(0.972226 0.000402355 -1.94357e-20)
(1.00519 -0.0182801 9.29618e-21)
(1.05886 0.104203 7.54925e-20)
(1.05497 0.00568145 3.22849e-20)
(1.10183 0.0192747 -6.60077e-20)
(0.999065 -0.0320837 7.70731e-20)
(0.990292 -0.00332169 3.41402e-20)
(1.0293 0.113608 1.07552e-19)
(1.0579 0.018236 5.65422e-20)
(0.94664 -0.00259337 -4.15698e-20)
(1.03495 -0.00206506 1.95622e-20)
(0.70907 -0.00228376 -1.04019e-20)
(1.02523 -0.00290176 -5.65861e-20)
(0.891999 -0.000569497 -3.83597e-20)
(1.03621 -0.00137273 -1.65658e-20)
(0.705689 -0.00542282 -2.02447e-20)
(1.00769 0.0260602 5.89762e-20)
(1.19036 0.00746508 1.9795e-20)
(1.0242 -0.00288721 1.1903e-20)
(1.03759 -0.00442068 1.33182e-20)
(0.980262 -0.00350767 -2.42319e-20)
(0.477154 -0.00343854 7.16193e-20)
(1.01602 -0.0412654 -4.10312e-21)
(1.04632 -0.0179466 -2.22725e-20)
(1.03469 -0.00200026 -3.91278e-21)
(0.796814 0.00969729 -7.04916e-21)
(0.816594 -0.0110293 -1.9598e-20)
(1.10199 0.0238311 4.96502e-20)
(1.00954 -0.00114987 5.99088e-20)
(0.463449 -0.000812726 1.07626e-21)
(1.19114 0.0181698 1.24832e-20)
(1.04415 0.0462612 -5.66737e-20)
(0.711421 0.0426921 1.31328e-20)
(1.03083 -0.00290086 2.50938e-20)
(1.02997 -0.00135078 -5.75975e-22)
(1.05248 -0.00475088 -2.72539e-20)
(1.06307 0.0787264 -1.08823e-19)
(1.0621 -0.0578316 6.88682e-20)
(1.03103 -0.00141357 7.2456e-22)
(1.05386 -0.00457586 -5.91315e-21)
(1.03982 0.0448211 5.91614e-20)
(1.03568 -0.000338569 -8.90415e-21)
(1.10598 -0.065437 5.024e-21)
(1.04413 0.0293467 -1.56715e-20)
(1.02428 -0.0320042 -4.1772e-20)
(0.827853 0.000166395 9.89802e-21)
(0.597577 -0.00486931 4.62084e-20)
(1.00841 0.0557038 -7.16508e-20)
(1.05511 -0.0831267 4.99592e-20)
(1.0418 -0.00356391 7.62058e-21)
(0.677062 -0.0067878 -1.81366e-20)
(1.03606 -0.00150519 -3.51934e-20)
(1.0293 -0.00635315 -1.8661e-20)
(1.03782 -0.00488655 -2.18768e-20)
(0.699476 0.0115603 5.66895e-20)
(1.02816 -0.00801359 -1.22625e-21)
(1.22337 -0.000740838 5.70305e-21)
(1.09703 0.0166112 1.10751e-20)
(1.03586 -0.00287665 -2.59924e-21)
(1.03591 -0.00145675 3.67858e-20)
(0.902403 -0.00325602 -1.19046e-20)
(1.05945 0.0738365 4.32802e-20)
(1.03401 0.118508 1.22313e-19)
(0.69235 0.0107918 1.88585e-21)
(1.04155 -0.00173323 4.1793e-21)
(0.496815 0.00527143 5.01579e-20)
(0.621383 -0.00312941 4.09201e-20)
(1.02848 -0.0464848 5.22963e-20)
(1.00752 -0.0199731 -1.24593e-20)
(0.732273 0.000293593 7.27346e-22)
(0.564394 0.00292951 5.20801e-20)
(1.04799 -0.0314752 3.41446e-21)
(1.01613 0.0294511 -3.14673e-20)
(1.02164 -0.0138454 3.12372e-20)
(0.528006 0.00370243 -8.88821e-21)
(1.012 0.0838571 -3.57473e-20)
(1.04412 0.0035025 3.74631e-20)
(1.17963 0.00275634 8.71253e-21)
(1.03594 -0.00130341 5.51436e-20)
(1.15532 0.0785274 6.9276e-21)
(1.05583 0.0173084 -5.99132e-20)
(1.0585 0.101959 -8.20491e-20)
(0.999813 -0.0222834 -3.35532e-20)
(0.861676 -0.00560343 -8.47614e-21)
(1.04931 0.0815251 1.19361e-19)
(1.02913 -0.0102919 7.64862e-21)
(1.0376 -0.00454066 -3.32349e-20)
(1.01719 0.0529397 3.92738e-20)
(1.03118 -0.00203199 -9.15303e-21)
(1.03533 -0.00329427 6.66197e-20)
(0.928829 0.00228017 1.06266e-20)
(1.00677 0.0561395 -1.1851e-20)
(1.00364 0.038234 4.26722e-20)
(1.0342 0.074377 3.7065e-20)
(1.0351 -0.00347779 2.88141e-20)
(0.637982 0.0011913 1.37377e-20)
(1.03253 0.000861201 -1.72972e-21)
(0.374605 -0.00294521 7.37866e-20)
(1.03595 -0.000515989 1.19016e-20)
(1.08195 -0.0181839 -1.05352e-19)
(1.04139 -0.00195738 2.7242e-20)
(0.618137 -0.00231731 -1.7211e-20)
(1.18159 0.0255762 2.33573e-20)
(1.11442 0.0807448 2.37498e-21)
(1.03287 -0.00293752 -6.92253e-21)
(1.03607 -0.00181597 3.40232e-20)
(1.0642 0.0840777 -1.55984e-20)
(0.975998 -0.00372124 3.04971e-21)
(0.632503 -0.0125178 -3.98155e-21)
(1.05974 0.102544 -7.68771e-20)
(1.08329 -0.0242628 4.56072e-20)
(1.0487 -0.0482415 4.40047e-20)
(1.02585 -0.0308429 5.99542e-20)
(0.902439 -0.0020237 -3.00643e-20)
(1.04562 -0.0328176 -8.42533e-21)
(0.454174 -0.00281169 -2.6787e-20)
(1.03052 -0.00230522 2.89199e-21)
(1.01671 -0.0383387 1.67731e-20)
(1.11597 0.0865595 -4.42216e-20)
(1.0259 -0.0012047 -8.5982e-21)
(1.03453 -0.000427263 -8.4536e-21)
(1.09277 0.0830804 3.48639e-21)
(1.00784 0.00258781 -5.52296e-20)
(1.02882 -0.00763344 -2.78273e-20)
(1.04304 -0.0309697 -3.01999e-20)
(1.03297 -0.000666529 -7.25359e-22)
(1.03628 -0.00145509 -2.8697e-20)
(1.05615 0.0748147 4.90781e-20)
(1.10573 0.0904697 -5.00954e-20)
(1.05578 0.103347 -1.07667e-20)
(1.10117 -0.0598914 -2.83295e-20)
(1.0652 -0.0541703 -1.4168e-20)
(1.15404 -0.0862523 7.22154e-21)
(1.04526 -0.00019416 8.48025e-20)
(1.05179 0.0727552 -1.81562e-20)
(0.590757 -0.0165788 1.66767e-20)
(1.03424 -0.000754789 4.90514e-21)
(0.428029 0.0435747 -5.47984e-20)
(1.03225 -0.00814137 1.4441e-20)
(1.0357 -0.00319408 2.30879e-20)
(1.01865 -0.0377157 -3.88252e-20)
(1.02887 -0.00671546 2.06991e-20)
(1.05855 0.0980625 -9.83336e-20)
(1.05658 0.0990268 -2.19102e-20)
(1.02617 -0.047776 -1.34998e-20)
(0.749973 0.025243 -3.93715e-20)
(1.02869 0.00169386 4.18543e-20)
(0.863763 -0.00161378 -2.18665e-20)
(0.758073 -0.00937089 -2.53916e-20)
(1.05315 0.00975916 -1.67726e-20)
(1.05529 -0.110253 3.34829e-21)
(1.10385 0.120096 -6.97067e-20)
(1.04443 0.0792126 -1.04125e-19)
(1.03385 -0.00135403 1.22978e-20)
(1.04132 -0.00349825 1.00495e-20)
(1.04125 0.0324105 8.19498e-20)
(1.03485 -0.00379953 5.05446e-20)
(1.04754 0.0299853 -1.08017e-20)
(1.03608 -0.0013485 1.20158e-20)
(0.970688 0.061205 7.26259e-20)
(1.05724 0.101541 1.69357e-20)
(1.01203 -0.00171559 -3.45485e-20)
(1.03866 -0.00498014 -1.99401e-21)
(0.905749 -0.00340281 6.53076e-20)
(1.13139 0.104985 2.36822e-20)
(0.614414 0.0109231 -1.18102e-20)
(1.03377 -0.00623801 -1.41453e-20)
(0.887842 -0.0187428 -2.91813e-20)
(1.0231 -0.00584678 2.64465e-21)
(1.03509 -0.00224149 1.45131e-20)
(1.03606 -0.00143941 -1.33287e-20)
(1.08532 0.0594386 5.4883e-20)
(1.03209 -0.0021513 -1.19665e-20)
(0.57419 0.00375301 -7.41147e-23)
(1.0019 -0.0321962 -8.99203e-20)
(0.371659 0.0130149 -2.11431e-20)
(1.09675 0.0121308 -1.6333e-20)
(0.963908 0.0556197 5.80759e-20)
(0.838708 0.000420467 8.61792e-21)
(1.04103 -0.031765 -2.57426e-21)
(1.03513 -0.0021209 2.65746e-20)
(1.05881 0.10272 -7.82767e-20)
(1.03805 0.000329271 -2.15144e-20)
(1.04568 0.14997 3.85045e-20)
(1.0384 -0.00621955 -5.35307e-20)
(1.03689 -0.00126561 3.65308e-20)
(1.06042 -0.0193868 -4.09944e-20)
(1.04463 0.000617347 -7.90619e-20)
(1.03592 -0.00052809 1.8389e-20)
(0.925215 -0.00551237 -1.22538e-21)
(1.03591 -0.000714888 4.64349e-20)
(1.03489 -0.00399364 4.26951e-20)
(1.05533 -0.0498835 -5.4739e-20)
(0.945183 -0.0075342 -5.64525e-21)
(1.00171 -0.0212101 -2.45426e-20)
(0.980948 0.000156487 2.29064e-21)
(1.00828 -0.00415499 -1.25956e-20)
(1.03608 -0.0029676 -6.9336e-21)
(1.06022 0.135269 9.1698e-20)
(0.525682 -0.00253467 -1.019e-20)
(0.683905 0.00557386 6.23194e-21)
(0.279151 0.0235749 8.97204e-20)
(1.03496 -0.00242571 2.75379e-20)
(1.08345 0.0990762 -3.7686e-20)
(1.03507 -0.00214203 -3.87513e-20)
(1.04211 -0.0139374 3.94238e-20)
(1.03368 0.000905166 -5.42048e-22)
(1.02383 -0.0249728 2.5744e-20)
(1.05307 0.00893359 2.42191e-20)
(1.18194 0.0342623 -5.40634e-20)
(1.01971 -0.0120026 -4.98442e-20)
(1.03556 -0.00186509 -4.24625e-20)
(1.02193 -0.0637138 -1.93571e-20)
(0.133 0.000255222 -2.74109e-20)
(0.583881 0.0160142 -1.86892e-21)
(1.03598 -0.000673785 -4.12019e-20)
(1.03546 -0.00248145 -3.19599e-20)
(0.807613 -0.00991277 3.26285e-20)
(1.03879 -0.000893257 -3.54885e-20)
(1.03565 -0.00143727 -1.83717e-20)
(0.948895 -0.00188324 -7.01591e-21)
(1.05922 -0.0475418 3.67854e-20)
(0.900396 -6.18226e-05 -3.05031e-20)
(1.15848 -0.00519705 3.65722e-21)
(0.795096 -0.00271078 3.23563e-20)
(1.06297 0.103955 8.84733e-21)
(1.06187 0.104829 -6.64774e-20)
(1.03529 -0.000408647 2.90285e-20)
(1.20074 0.0356798 6.80261e-20)
(1.00194 -0.00176243 8.14596e-22)
(1.03562 -0.0030383 3.40107e-20)
(0.3398 0.00364465 -7.38525e-20)
(1.01223 0.0429759 3.36398e-20)
(1.05839 0.0234592 -4.98954e-20)
(1.03386 -0.00160447 1.67838e-20)
(1.03563 -0.00257192 4.95374e-21)
(0.856172 -0.00275837 -2.44225e-20)
(1.07076 0.0550216 -2.22236e-20)
(1.03617 -0.00148957 -1.99269e-20)
(1.03709 -0.000909725 1.63148e-20)
(1.03671 -0.000512549 -3.81782e-21)
(1.13772 0.0432309 5.66939e-20)
(1.22404 -0.0122962 3.51473e-20)
(1.07035 0.112345 4.38574e-20)
(0.767937 0.00335073 2.74597e-20)
(1.09129 -0.0213002 -8.91896e-20)
(1.03351 -0.00236007 1.22147e-20)
(1.03933 -0.00456995 -5.6041e-20)
(0.981938 -0.00306883 2.68374e-21)
(1.0263 -0.0134885 -8.57574e-21)
(0.919066 -0.00281764 1.11535e-20)
(1.04543 -0.013024 5.51337e-21)
(1.21916 0.0411027 -5.74164e-20)
(1.01587 -0.0192483 -4.86682e-20)
(1.043 -0.0132229 -1.15046e-20)
(1.04059 -0.0029476 -1.6561e-20)
(0.822089 -0.00793457 -2.91221e-20)
(1.05502 -0.00779416 1.80842e-20)
(1.03473 -0.0119295 -2.51888e-20)
(1.09629 0.0277095 -2.47441e-20)
(1.08069 0.0578746 2.66411e-20)
(1.20056 -0.0877985 -4.64016e-22)
(1.16418 -0.0206506 3.19106e-20)
(0.238724 -0.00163422 2.9331e-20)
(1.03934 -0.00195879 3.9235e-20)
(0.89148 -0.0174628 1.1967e-20)
(1.00712 0.0667 -1.16098e-19)
(1.14658 -0.0240998 -5.64243e-20)
(1.05276 -0.00187403 -5.35724e-20)
(0.83772 0.0373216 -5.48451e-20)
(0.668478 -0.0122561 -1.35613e-20)
(1.03542 -0.000174765 7.93724e-21)
(1.17799 -0.00692359 3.16308e-20)
(1.03589 -0.00175876 1.62875e-20)
(1.04801 -0.0288172 -1.1693e-20)
(1.03966 -0.00191074 1.25103e-20)
(0.720787 -0.00195719 1.26579e-20)
(0.774352 -0.000372689 2.64524e-20)
(1.04805 0.0400344 4.49808e-20)
(1.03432 -0.00162986 5.20919e-21)
(1.03598 -0.000263288 -1.6191e-20)
(1.03379 -0.000322377 1.45818e-20)
(0.824776 0.00592511 -5.77354e-20)
(1.03324 -0.00564359 -3.8194e-20)
(0.942357 0.000176887 -2.63728e-22)
(0.931855 0.00483676 -3.99423e-21)
(1.02031 -0.00989041 -1.80688e-20)
(0.644587 0.0132076 3.08259e-20)
(1.04449 -0.0139451 -2.47651e-20)
(1.03245 -0.00759802 -5.34323e-20)
(1.07624 0.0956734 1.52701e-20)
(1.0042 0.0442673 6.87568e-20)
(1.08732 0.0165249 -2.37328e-20)
(1.19273 0.039556 -2.59375e-20)
(0.275835 0.0049517 -4.01909e-20)
(1.03936 -0.00232961 -2.05108e-20)
(1.01905 0.0725208 -3.41889e-21)
(0.771864 -0.00277839 4.69872e-20)
(1.07244 0.0996056 1.8114e-21)
(1.04549 -0.0356503 -1.4506e-21)
(1.07716 -0.0942777 1.60798e-20)
(1.10228 0.0878789 3.08925e-20)
(1.07403 0.102296 -4.29294e-20)
(0.999629 -0.01776 -5.79543e-20)
(1.05987 0.0212837 -3.52087e-20)
(1.10657 0.123842 6.54622e-20)
(1.07986 0.0995184 6.71777e-20)
(1.04678 0.00194697 2.72965e-20)
(1.03085 -0.00100749 -1.41973e-20)
(1.03287 -0.00278548 -9.7446e-21)
(0.995318 0.000265451 6.22169e-21)
(1.04967 -0.0170991 1.70467e-20)
(0.674597 0.0042641 -1.04042e-20)
(1.03616 -0.00208222 -2.08266e-20)
(0.92194 5.63174e-05 1.08826e-20)
(1.03159 -0.000370441 -1.10033e-20)
(1.0194 -0.0625171 3.19616e-20)
(1.1225 0.0517546 2.10184e-20)
(0.955595 -0.0026796 4.52195e-20)
(1.03579 -0.00758584 -6.08745e-20)
(0.826461 0.00295319 3.04013e-20)
(1.0891 -0.0242147 3.14261e-21)
(0.844314 -0.00633382 5.81162e-20)
(1.03761 -0.00430343 3.97791e-20)
(1.11647 0.121411 1.03415e-20)
(0.814175 0.00404563 6.59157e-20)
(1.033 -0.00226859 1.00927e-20)
(1.03464 -0.0016453 3.62566e-21)
(1.03388 -0.00154201 2.32428e-20)
(0.950406 -0.00173478 -1.72733e-20)
(1.04587 0.0372709 -5.65593e-20)
(0.682627 -0.00542992 -7.86327e-22)
(1.04992 -0.00269041 3.66182e-20)
(1.06391 -0.115102 -2.37874e-20)
(1.05838 0.10484 -1.81286e-21)
(1.0388 -0.00478734 2.12663e-20)
(1.04083 -0.00285445 -3.69338e-21)
(1.03071 -0.00261166 2.82231e-20)
(1.04702 0.132023 -9.04473e-20)
(0.681241 -0.000468116 -1.47459e-20)
(1.0718 0.114565 -2.27536e-20)
(1.01251 0.0302368 -5.79223e-20)
(0.955386 -0.0033229 -1.18366e-20)
(1.0437 -0.0365515 3.3082e-20)
(0.903217 -0.00395134 2.79492e-20)
(1.0316 -0.0472724 -6.57071e-20)
(1.0356 0.000165588 1.55568e-20)
(1.08249 0.0186698 3.21199e-20)
(1.04135 -0.00980332 -1.1909e-21)
(1.04046 -0.00227135 6.15943e-21)
(0.857863 -0.00536048 3.74573e-20)
(1.08961 0.0569351 2.8682e-20)
(1.06615 0.0539772 8.35224e-21)
(1.04711 -0.0507269 -3.72036e-20)
(1.02139 -0.0124964 3.23808e-21)
(1.03559 -0.00267016 2.24855e-20)
(1.03855 -0.028462 7.64114e-20)
(1.15226 0.0700935 -4.26464e-20)
(0.578199 0.0186434 -4.83286e-20)
(1.1175 -0.0516961 2.62021e-20)
(1.03981 -0.00480804 -1.16588e-20)
(1.03104 -0.00127087 5.75644e-22)
(0.988143 -0.00198844 4.42099e-20)
(0.784112 -0.00197996 -5.29879e-20)
(1.05435 -0.00819675 2.99237e-20)
(1.04606 -0.089894 1.30348e-20)
(1.20147 0.02417 -2.5729e-20)
(1.06365 0.108088 -1.03232e-19)
(1.07438 0.0516287 3.99668e-20)
(1.15411 -0.0750404 -2.65408e-20)
(1.09295 0.0878756 1.19017e-20)
(1.0142 0.078433 1.1245e-19)
(1.04702 -0.00138586 3.13176e-20)
(1.03638 -0.00142703 4.59111e-20)
(1.05125 0.0816485 2.45286e-20)
(1.03592 -0.00175145 -3.46562e-20)
(1.03468 -0.0023152 -1.04023e-20)
(0.483344 -0.00112015 -1.16065e-20)
(1.0353 -0.00145174 3.53603e-21)
(1.16396 -0.0924867 -9.43787e-21)
(1.03955 -0.0111236 2.81204e-20)
(1.02546 -0.0245934 -4.66377e-20)
(1.03675 -0.000961541 1.47183e-20)
(1.08841 0.0809985 6.59364e-20)
(0.821451 -0.000677636 5.41756e-21)
(1.03277 -0.00243499 6.83696e-23)
(1.07068 -0.0998183 -1.66272e-20)
(1.03665 -0.000388256 -9.0924e-21)
(1.1248 0.016048 -6.21094e-21)
(0.819839 -0.0108267 -9.8108e-21)
(0.662976 -0.00317488 -2.90865e-21)
(1.19732 0.0776929 -4.86635e-21)
(1.0378 0.0311404 -2.09554e-20)
(1.03444 0.0105666 1.4432e-20)
(1.03218 0.00967601 -6.78649e-21)
(0.888782 -0.00193207 -3.18981e-21)
(1.1294 0.0516386 1.65928e-20)
(1.09643 0.0315926 2.98893e-20)
(1.03647 -0.00228826 -1.37889e-20)
(0.984676 -0.0026734 -5.22396e-20)
(1.03627 -0.000404286 -1.72443e-20)
(1.04523 -0.0117458 -6.49733e-20)
(1.04411 -0.0186429 1.2094e-20)
(1.03955 -0.00107332 -3.87898e-22)
(1.03601 -0.00159836 4.34643e-20)
(1.13125 0.0986869 -7.01526e-20)
(1.0318 -0.00275188 1.23066e-20)
(1.03551 -3.7769e-05 -1.01647e-20)
(1.03827 -0.00111367 -2.16604e-22)
(0.579685 -0.00230351 -2.84547e-20)
(1.04805 -0.00461528 3.65698e-20)
(1.02476 -0.020093 6.92525e-20)
(0.652684 0.00164892 1.42079e-20)
(1.05176 -0.0473377 -2.46915e-20)
(1.08448 -0.122831 2.61411e-20)
(1.05858 -0.0174692 2.18941e-20)
(1.05516 0.0800973 -1.41143e-19)
(1.21069 0.0449745 3.4406e-20)
(1.01552 -0.00304508 3.43753e-21)
(0.943708 0.0555559 8.38113e-20)
(1.01824 -0.0432029 -6.22916e-20)
(1.03305 -0.00612292 -1.14249e-20)
(0.591429 0.0040938 -2.45637e-20)
(1.03532 -0.0116045 5.24958e-21)
(0.486425 0.00531874 -4.58615e-20)
(1.00624 -0.00235983 1.61324e-20)
(1.05357 -0.00359861 -4.0676e-20)
(1.15475 -0.026491 1.22449e-20)
(1.03293 -0.00237845 9.70386e-22)
(1.05103 -0.00421348 -2.91786e-21)
(0.995895 0.00432111 6.19839e-21)
(1.05988 0.101354 2.21464e-20)
(1.15073 0.0898942 6.48782e-20)
(1.02218 -0.00207788 -9.70138e-21)
(0.548668 0.000210727 5.44833e-20)
(0.975965 0.0024795 2.15108e-20)
(1.02097 0.109209 7.13019e-20)
(1.06797 0.102419 5.45678e-20)
(1.13216 0.0445209 -3.08815e-20)
(1.13273 0.11972 -5.53801e-20)
(1.01815 -0.0462164 2.66128e-20)
(1.02385 0.0720556 -1.08963e-19)
(1.03431 -0.00164668 -1.08867e-20)
(1.07534 -0.0103563 7.08676e-20)
(0.368443 0.00994152 1.37212e-21)
(1.10833 0.0785717 -1.66829e-20)
(1.00092 0.0680241 -7.32491e-20)
(1.15623 0.0645263 6.48299e-20)
(1.06834 0.0454737 6.50553e-21)
(1.03627 -0.0075465 1.83843e-20)
(1.02548 -0.00260992 1.8578e-20)
(1.13677 0.108292 2.46102e-20)
(1.21177 0.00466999 -1.07914e-20)
(1.04249 0.125704 -2.69475e-21)
(1.11828 0.0141519 7.6558e-20)
(1.05194 0.0681583 4.41136e-20)
(0.990812 -0.00462365 1.05441e-20)
(1.05899 0.108119 2.83326e-20)
(1.06935 0.0997846 2.05953e-20)
(1.00285 6.05258e-05 4.91842e-20)
(1.01971 -0.00341508 2.18905e-20)
(1.14669 0.101576 1.77145e-21)
(0.606444 0.00436684 4.89788e-20)
(1.03428 -0.00162954 1.43957e-20)
(1.00803 -0.00240206 -5.77684e-20)
(0.795948 -0.0136445 -3.70851e-20)
(1.02944 -0.0609932 6.71632e-21)
(1.04145 -0.00153562 -5.71337e-20)
(1.04056 -0.00251549 5.1194e-21)
(1.03554 -0.00204246 1.8486e-20)
(1.06908 0.104755 -8.09657e-20)
(1.03706 -0.00726145 -4.71348e-21)
(1.03323 -0.00214193 -5.63885e-21)
(1.05849 -0.0427263 -4.39914e-20)
(1.03555 -0.0026862 -1.08944e-20)
(1.00571 -0.00524323 -1.84834e-21)
(1.03942 -0.00714164 -1.25671e-20)
(1.08009 0.0820434 8.46899e-20)
(1.06128 -0.0876453 -2.49897e-20)
(1.06308 0.0861016 4.49413e-20)
(1.03398 -0.000873004 -1.14204e-20)
(1.08417 0.084068 -8.97043e-20)
(1.05109 -0.0360482 -3.44007e-20)
(1.0347 -0.00188038 3.78071e-21)
(1.03334 7.03539e-06 -5.7538e-21)
(1.00381 0.0164114 -9.8932e-21)
(1.07513 0.0751128 3.22131e-20)
(1.03374 -0.00265291 -1.04316e-20)
(1.06874 0.0637264 -4.58692e-20)
(1.03315 -0.000179063 4.26296e-21)
(1.07001 0.0686565 -6.18235e-20)
(1.18805 -0.0927117 -2.5813e-20)
(0.97157 -5.536e-05 -5.3309e-20)
(1.00548 0.0475627 -1.43382e-19)
(1.01897 -0.0351918 -4.70527e-20)
(1.13679 0.115573 5.67691e-20)
(0.613685 -0.00255499 -1.43797e-20)
(1.07443 0.0703241 7.93119e-20)
(1.07953 0.0768977 -2.32632e-20)
(1.01662 -0.00328816 -7.87722e-20)
(1.00046 -0.00281209 4.6913e-20)
(1.0339 -0.00597792 -4.38862e-20)
(0.95113 0.000949154 1.18381e-20)
(1.03482 -0.00212991 -2.34818e-20)
(1.03693 -0.00711826 7.76512e-21)
(1.07395 0.0962024 -1.05164e-20)
(1.03268 -0.00247592 -2.71485e-21)
(1.06394 0.0624814 6.02898e-20)
(1.07522 -0.0859808 -4.2923e-20)
(1.03971 0.0995914 2.78632e-20)
(1.06269 0.0578333 -7.05559e-20)
(0.747964 -0.010576 5.04483e-21)
(1.06847 0.0927272 -9.70733e-20)
(1.0361 -0.000781941 2.1623e-23)
(1.04914 -0.0154433 2.54977e-20)
(1.08911 -0.0551328 -1.56448e-20)
(0.491661 0.00116835 2.76008e-21)
(1.03173 -0.00303765 -3.26221e-20)
(1.04886 -0.0374818 2.73494e-20)
(1.07971 -0.00153236 -6.2528e-21)
(0.869765 0.0428871 1.06578e-19)
(1.03267 -0.000737278 1.58636e-20)
(1.03556 -0.000486899 -1.81826e-20)
(1.05784 -0.0576859 1.2831e-22)
(1.03388 -0.000952638 9.26795e-22)
(1.06058 0.102332 1.07086e-20)
(1.03676 -0.000184702 0)
(1.03302 0.000455091 8.09883e-22)
(1.03408 -0.000215842 2.50919e-20)
(1.03669 -6.61236e-05 3.03397e-22)
(1.02657 -0.0125057 -5.84166e-20)
(1.0517 -0.00751106 -2.06164e-20)
(1.03631 -0.000892703 -3.57549e-20)
(0.892655 0.00133512 -1.28479e-20)
(1.0276 -0.00317839 -1.70687e-20)
(1.03907 -0.00731783 -1.38306e-20)
(1.03503 -0.0973222 3.24932e-20)
(0.375326 -0.00020963 -4.06211e-21)
(1.0474 -0.00410156 5.64866e-20)
(0.699028 -0.010069 -8.16755e-21)
(1.14699 -0.120668 -3.27012e-20)
(0.941211 -0.00300562 2.4272e-20)
(1.13719 0.0935753 -4.90622e-21)
(1.00162 0.0197473 -2.2833e-20)
(1.03622 -0.0020313 1.33472e-20)
(1.12843 0.0839818 -7.28832e-20)
(1.03386 -0.000463869 -4.85946e-22)
(0.982294 -0.00273507 -4.9049e-22)
(1.04187 0.00308011 -4.02918e-20)
(1.03333 -0.00312586 1.31783e-20)
(1.08253 0.0911531 -5.31033e-21)
(1.02603 -0.00313595 4.47984e-20)
(1.07591 -0.00778213 -5.49531e-20)
(1.0418 0.00470808 -4.07283e-20)
(1.07951 0.0531742 -1.55516e-20)
(1.04145 -0.00893265 -3.60186e-20)
(1.01936 -0.0017981 -1.30184e-21)
(1.09765 0.0800078 4.46902e-20)
(1.02323 -0.068026 3.36415e-20)
(1.0593 0.102767 8.67566e-20)
(1.03069 -0.00229266 6.04552e-20)
(1.08492 0.106463 2.54196e-22)
(1.02765 -0.00139417 -1.61193e-20)
(1.03514 -0.000322352 3.13257e-21)
(1.06765 0.0421186 1.91717e-20)
(1.04859 -0.0185223 -1.90003e-20)
(1.05571 0.0140704 5.82502e-20)
(1.03565 -0.000683072 1.01404e-20)
(1.03346 0.000922243 3.74941e-22)
(1.04859 -0.11328 -1.19474e-20)
(1.11619 0.116632 -6.44468e-20)
(1.03642 -0.00197035 -1.19593e-20)
(1.1355 0.0862226 8.07656e-21)
(1.02653 -0.00326227 3.19441e-20)
(1.13881 -0.129192 1.08819e-20)
(1.07647 -0.0227264 8.35988e-21)
(1.02447 -0.0216246 -3.74807e-20)
(1.03623 -0.000536955 1.42801e-20)
(0.610151 -0.00369463 1.27735e-20)
(1.01737 -0.0564341 2.31455e-20)
(0.902965 -0.00386738 -5.28027e-20)
(1.02006 -0.00122273 -4.06685e-20)
(1.03527 -0.00172676 -1.70441e-20)
(1.05895 0.102673 -9.43896e-21)
(1.12654 0.0771908 4.62402e-20)
(1.05117 -0.00284596 -1.31759e-20)
(1.03471 -0.00254375 -1.6002e-20)
(1.06763 0.0975518 -3.88438e-20)
(1.03275 -0.000970191 4.62082e-21)
(1.0345 -0.00246327 -3.32331e-20)
(1.11972 0.0755482 3.94986e-20)
(1.04464 -0.0154408 3.53179e-20)
(1.12438 0.109099 5.9073e-20)
(1.04674 0.000470203 2.29341e-20)
(1.04693 -0.00611568 -7.03035e-21)
(1.12418 -0.037817 -2.34447e-20)
(1.09996 -0.108052 -3.17526e-20)
(1.19859 0.0708058 -2.33542e-20)
(1.03676 -0.00047512 -2.72853e-20)
(0.871615 -0.0113946 3.43333e-21)
(1.03335 -0.0017432 3.30217e-21)
(1.03934 -0.00692904 9.03654e-21)
(1.0848 0.0883486 3.05312e-20)
(1.01767 -0.00285638 -5.87546e-20)
(1.03297 -0.000740646 -1.82413e-20)
(1.05028 -0.0273868 3.76472e-20)
(1.03535 -0.00020704 -1.01043e-21)
(1.03608 -0.0015505 -2.43618e-20)
(0.29363 0.00724697 1.9163e-20)
(1.03014 -0.00264781 3.14898e-20)
(1.03578 -0.00235946 4.5767e-20)
(0.44678 -0.00275509 1.69734e-21)
(1.02692 0.0113647 6.09289e-20)
(1.01634 -0.0177489 7.11387e-21)
(1.03544 -0.00188659 -2.13957e-20)
(0.998106 0.0025113 -2.44295e-20)
(1.03481 0.0339164 2.22064e-20)
(1.08642 0.0266798 5.5686e-21)
(0.994171 -0.0158007 3.66531e-20)
(1.03234 -0.000973327 5.20935e-21)
(1.00154 0.0154568 1.36557e-19)
(1.02751 -0.0105828 4.22601e-20)
(1.08789 0.0760539 -6.85e-20)
(1.04292 -0.000752783 -6.16733e-20)
(1.04369 -0.000413058 1.24852e-19)
(0.943424 -0.00466771 -6.83102e-20)
(1.0339 -0.00183023 3.97382e-21)
(1.04134 0.00162033 -4.98156e-21)
(1.09134 0.0246279 -1.03015e-20)
(1.18007 0.0726002 4.8978e-20)
(1.08075 -0.0802006 -1.3675e-20)
(1.07156 0.0936765 3.32036e-20)
(1.0407 -0.00132081 -1.49572e-21)
(1.10271 0.0828207 -6.13157e-20)
(1.03648 -0.00909827 2.34762e-20)
(1.0547 -0.0411225 6.72339e-20)
(1.0301 -0.00222174 1.78195e-20)
(1.03929 -0.011921 -5.70406e-20)
(1.03527 -0.0016416 -1.50802e-20)
(1.06429 0.0487017 -5.21744e-20)
(1.09575 0.112987 -1.00925e-19)
(1.03629 -0.000932866 -1.09826e-20)
(1.04795 -0.0055762 4.53063e-21)
(0.891544 -0.000818546 -1.94583e-20)
(1.08264 -0.0671253 -8.05139e-21)
(1.07812 -0.0730765 2.15036e-20)
(1.03357 -0.000378479 -1.93201e-20)
(1.07247 -0.0114148 -2.82557e-20)
(0.122996 -0.00417951 -3.2026e-20)
(1.17907 0.0566619 4.38053e-20)
(1.03446 -0.00160244 -2.74897e-20)
(1.08219 0.0235908 -2.21569e-20)
(1.03507 -0.00566178 3.3576e-20)
(0.58728 0.0341613 1.38837e-19)
(1.02023 -0.00294992 -4.3252e-20)
(1.03434 -0.0176943 1.52799e-20)
(1.05176 -0.0232783 -1.58698e-21)
(1.03348 -0.0183159 5.8682e-22)
(1.036 -0.0135672 5.90618e-20)
(1.02772 -0.00292977 -1.05923e-20)
(1.03594 -0.00914322 -5.08396e-20)
(1.03759 -0.00390588 -1.20882e-20)
(1.08172 -0.00470789 1.25975e-20)
(1.03313 -0.00108008 -2.42535e-20)
(1.21693 -0.0517166 1.53332e-20)
(1.1711 0.020376 1.85073e-20)
(1.06447 0.104215 6.32568e-20)
(0.996967 -0.0145927 -5.76088e-20)
(1.11852 0.105041 -2.96013e-20)
(1.03648 -0.000335456 3.04097e-20)
(1.10357 -0.051793 -1.10588e-21)
(1.04184 -0.026658 3.42132e-20)
(1.03232 0.0565345 5.30224e-20)
(1.03326 -0.00301621 -2.98777e-20)
(1.03462 -0.00111204 1.80782e-20)
(1.02802 -0.0111794 -5.85816e-20)
(1.03431 -0.00596406 1.71639e-20)
(1.06928 -0.00990687 4.67148e-20)
(0.832603 -0.000968775 4.63087e-20)
(0.981771 -0.00238192 -1.56109e-20)
(1.14788 -0.00744073 1.46169e-20)
(0.796039 0.00271635 3.70774e-20)
(1.04991 -0.0249462 -3.15855e-20)
(1.03113 -0.0652089 -2.78867e-20)
(1.03284 -0.00133827 8.11054e-22)
(1.08173 0.00256523 5.41244e-20)
(1.03242 -0.0573527 8.47994e-20)
(1.12412 0.0953071 3.27399e-20)
(1.12562 -0.0443891 3.82861e-20)
(1.05419 0.01303 5.98213e-21)
(1.06764 -0.083356 5.76485e-20)
(1.07337 0.108041 1.88218e-20)
(1.0656 -0.0205105 4.24743e-20)
(0.90611 -0.00386291 4.05966e-20)
(1.05083 -0.0330116 4.87639e-20)
(0.279817 0.0271702 3.43786e-20)
(1.18613 -0.0614945 -1.51249e-20)
(1.00835 -0.00304486 1.34179e-20)
(1.07205 -0.109135 3.37322e-21)
(1.06335 -0.0490889 -4.08219e-20)
(1.08605 -0.0968194 2.07917e-21)
(1.07945 -0.06097 3.27546e-20)
(1.09706 0.0748006 5.86292e-20)
(1.03397 -0.00109735 -9.05656e-22)
(1.01534 0.0679261 1.86019e-20)
(1.04075 -0.000886308 1.35727e-20)
(1.0355 -0.00175744 2.6543e-20)
(1.03592 -0.00159962 -7.74859e-20)
(1.07884 0.0166541 -1.12753e-20)
(0.0725005 0.00490454 7.50015e-22)
(1.03748 -0.00404626 1.7391e-20)
(1.05433 -0.0375495 -8.79453e-21)
(1.03514 0.0382914 -3.62229e-20)
(1.03302 -0.000841436 -8.24402e-22)
(1.00253 -0.00280497 -3.99523e-20)
(1.04917 -0.00325822 3.64201e-20)
(1.1014 -0.0192328 5.36259e-20)
(1.04069 -0.000647098 7.1035e-20)
(1.0359 -0.00182569 -1.07726e-20)
(1.02552 -0.0284892 1.60439e-22)
(1.03554 -0.00546808 1.73773e-20)
(1.03266 0.000707342 9.60078e-21)
(1.02077 -0.034421 8.04707e-20)
(1.07606 0.0885935 -1.32339e-20)
(1.05242 -0.0193495 -6.26316e-21)
(0.948418 0.000454299 3.60398e-20)
(1.03718 3.9149e-05 -1.14934e-20)
(1.03937 0.0404865 4.81565e-20)
(1.03592 -0.00200113 1.03592e-20)
(1.03651 -0.00137375 2.31788e-21)
(1.03393 -0.00195367 1.78774e-20)
(1.036 -0.00169259 3.12476e-20)
(1.16939 0.0721573 3.39053e-20)
(1.05993 -0.0216653 1.01838e-19)
(1.04217 -0.0114303 2.48761e-20)
(1.006 -0.00309421 1.60736e-20)
(1.03385 -0.000689545 9.52888e-21)
(1.11785 -0.0991757 -4.47409e-20)
(1.2109 0.018859 9.18688e-22)
(1.12522 -0.107682 2.02972e-20)
(1.03558 -0.023259 2.33732e-20)
(1.0441 -0.00482808 5.63303e-20)
(1.03295 -0.00301084 -1.18713e-20)
(1.02998 -0.00665396 2.63351e-20)
(1.00447 -0.0344759 3.63494e-20)
(1.16988 0.0572099 1.55188e-22)
(1.03614 0.101605 -1.35537e-21)
(1.03566 -0.00241898 -1.80576e-20)
(0.962268 -0.0228418 -1.84862e-20)
(1.03387 -0.00277947 4.10086e-20)
(1.06333 -0.0185354 -1.66854e-20)
(1.10698 0.0725644 6.85292e-21)
(1.03638 -0.000652685 -3.14766e-20)
(1.03508 -0.00236221 7.30418e-21)
(1.14424 0.106516 7.77224e-21)
(1.1677 0.0408605 -1.0202e-20)
(1.04844 -0.00827292 1.88766e-20)
(1.03386 -0.00141688 -3.02736e-20)
(0.922552 -0.00615552 4.12202e-21)
(1.01083 -0.0356549 -9.15678e-21)
(1.03499 -0.00200276 2.17913e-20)
(1.05103 -0.0210652 5.85739e-20)
(0.532729 -0.00219105 -8.32968e-20)
(1.00119 0.0201474 -1.84869e-20)
(1.07927 0.0914737 -6.42989e-21)
(1.09797 -0.0471776 -2.34148e-20)
(1.03616 -0.0576739 -2.99386e-20)
(1.03903 -0.00156908 4.41183e-20)
(1.04731 -0.0149796 -5.20486e-20)
(1.16244 0.0254577 5.08001e-20)
(1.03603 -0.065492 1.6959e-20)
(1.05316 -0.0312365 -2.97424e-20)
(1.0322 -0.000777283 -1.03309e-21)
(1.15265 0.0108319 4.37593e-20)
(0.482533 -0.00576585 -4.48079e-21)
(1.0354 -0.0743275 -3.08139e-20)
(1.05163 -0.0174862 -8.09814e-20)
(0.877598 -0.00909869 6.92192e-21)
(1.03502 -0.00191612 8.66667e-21)
(1.03078 -0.00087482 1.43196e-20)
(1.05809 0.0566152 5.39458e-20)
(0.945456 -0.00442002 1.61192e-20)
(1.03625 0.00347701 -1.73326e-21)
(0.863946 -0.00400349 3.27596e-20)
(1.18094 -0.0485694 5.56497e-20)
(1.01566 -0.000433644 -3.57154e-20)
(1.05678 -0.0355048 1.19796e-20)
(1.03428 -0.00159284 1.35692e-21)
(1.04051 -0.00837767 3.72348e-21)
(1.03489 -0.0922935 -1.50609e-20)
(1.09145 -0.0487865 1.76182e-20)
(1.03424 -0.00145738 1.11532e-20)
(1.03284 0.000381019 -5.75089e-21)
(1.03381 0.00283017 1.736e-21)
(1.0485 -0.0551751 -6.4295e-21)
(1.00358 0.0303241 -1.6821e-21)
(1.08608 0.102457 7.60746e-22)
(1.14207 -0.000444194 -1.89662e-20)
(1.03606 -0.00176189 -2.36083e-21)
(1.04584 -0.0273272 -2.60083e-20)