/*--------------------------------*- C++ -*----------------------------------*\
  =========                 |
  \\      /  F ield         | OpenFOAM: The Open Source CFD Toolbox
   \\    /   O peration     | Website:  https://openfoam.org
    \\  /    A nd           | Version:  7
     \\/     M anipulation  |
\*---------------------------------------------------------------------------*/
FoamFile
{
    version     2.0;
    format      ascii;
    class       surfaceScalarField;
    location    "4";
    object      phi;
}
// * * * * * * * * * * * * * * * * * * * * * * * * * * * * * * * * * * * * * //

dimensions      [0 3 -1 0 0 0 0];

internalField   nonuniform List<scalar> 
43924
(
-594.962
663.649
-68.6876
1060.71
-1071.24
10.525
-335.525
383.343
-47.8174
231.657
-260.3
28.6428
-498.856
498.856
225.805
-266.935
41.1294
-358.263
361.984
-3.72123
21.7476
-558.441
536.693
662.958
-833.152
170.195
-1009.23
1102.21
-92.9811
549.517
-138.249
-411.268
-529.833
537.305
-7.47237
-687.966
582.732
105.234
-859.821
868.884
-9.06348
259.809
50.6862
-310.495
386.643
-10.6993
-375.944
814.744
-666.83
-147.914
-392.021
389.542
2.47871
161.641
314.757
-476.398
291.544
-358.452
66.9077
-594.168
81.632
512.536
724.146
-61.1879
50.525
-386.05
136.669
-489.816
353.147
243.836
-139.709
-104.127
1065.74
-5.0257
659.945
-681.106
21.1611
-272.854
-13.2757
286.129
290.837
-31.0285
-440.303
543.862
-103.559
948.846
-250.158
-698.688
-664.531
752.639
-88.1078
238.721
-227.898
-10.8227
476.495
-65.8696
-410.625
143.114
-415.967
271.546
-431.548
160.003
421.739
-574.162
152.423
292.377
-35.1956
-257.181
823.344
-977.345
154.001
1060.25
-236.908
-1017.96
1035.56
-17.5984
406.238
-96.8062
-309.432
703.992
110.752
196.214
-306.786
110.573
1228.46
-777.696
-450.765
-591.367
151.064
540.592
-538.738
-1.85467
230.524
645.496
-876.02
223.301
537.339
-760.64
-113.496
535.235
-358.894
158.389
200.505
-18.3363
-224.288
242.624
-659.209
-5.32167
241.679
-15.8743
424.901
-38.2573
-258.731
-59.8793
318.61
525.472
-500.243
-25.2285
-34.2113
-559.957
-461.443
38.4536
422.989
-301.14
-20.4663
321.606
799.523
17.577
-817.101
-409.171
570.812
-16.6499
-224.956
241.606
-211.291
482.837
-308.57
429.575
-121.005
263.788
248.932
-512.72
498.121
-129.92
-368.2
428.046
-45.4022
-382.644
-455.279
-33.4774
488.757
-986.53
-31.4321
1057.49
8.25167
287.106
297.139
-584.245
-240.457
545.529
-305.071
165.041
92.7027
-257.743
-433.111
382.654
50.4569
-359.602
367.935
-8.33328
278.738
-149.757
-128.981
-251.782
-63.2257
315.008
-699.312
16.5489
682.763
409.466
-97.7305
-311.736
-258.101
258.101
95.5768
-764.384
668.807
-660.072
65.1105
-947.228
848.216
99.0115
-309.873
-48.3905
-34.4839
199.91
-165.427
521.603
-148.139
-373.465
-644.632
-43.3341
652.582
-69.8502
105.72
79.537
-185.257
-352.379
84.0467
268.333
-312.848
61.0659
844.866
-621.565
555.365
-584.592
29.2261
232.552
-99.7652
-132.787
-350.493
121.619
228.875
-13.624
246.911
-233.287
-846.655
847.267
-0.611946
-24.9283
-165.656
190.584
256.51
12.4572
-268.967
-711.46
12.1482
-269.435
285.478
-16.0434
778.752
20.7713
424.679
-623.723
199.043
202.305
-220.642
-750.746
808.937
-58.1914
634.221
-719.803
85.5823
74.7294
577.852
943.859
-846.969
-96.8898
-224.595
236.391
-11.7961
202.855
35.8656
352.032
113.007
-465.039
1009.09
-256.883
-752.206
19.8128
563.026
-582.839
-13.491
-586.965
600.456
538.797
-251.692
94.1348
428.877
-523.012
-303.651
409.355
-105.704
76.7667
-814.833
738.066
-696.884
456.427
-18.5275
-181.885
200.413
16.1102
-852.519
836.409
-294.552
305.57
-11.0173
-42.2621
306.05
24.1966
-890.532
866.335
-341.157
325.113
16.0445
-85.3017
-306.719
3.31193
-278.68
275.368
702.26
-785.967
83.7067
726.252
-860.262
134.01
-139.594
335.807
167.559
111.179
190.634
-206.694
16.0606
273.07
-292.36
19.2898
-123.751
548.43
621.408
327.438
154.84
63.1282
-217.968
279.345
-319.251
39.9053
200.138
-222.704
22.5662
-32.0132
288.523
-331.848
-9.30916
1.20688
-191.382
190.175
229.023
-66.6989
-162.324
181.122
827.967
-198.077
-739.277
937.354
-101.217
-397.64
522.675
17.9171
221.58
-227.382
5.80249
244.507
-202.291
-42.2164
9.34657
-213.126
203.779
-394.249
626.816
-232.567
56.2319
502.934
-559.166
984.028
-886.248
-97.7806
790.981
-787.103
-3.87826
-573.206
-238.303
811.509
-146.409
722.18
-575.772
457.666
-444.271
-13.3944
-206.152
-9.81595
215.968
43.6021
-768.558
724.955
-159.093
-199.8
-251.315
236.965
14.3505
241.637
-9.97962
32.1065
1020.89
-572.443
-448.45
735.196
-933.273
-401.489
97.8376
19.2572
209.765
16.3977
-778.176
761.778
-90.4066
-856.821
418.969
-453.215
34.2463
-106.546
832.797
55.7883
-736.018
680.23
-206.825
0.67319
279.345
-7.58538
244.39
-236.805
-433.399
433.399
83.4152
678.636
-762.051
-317.609
48.1742
-578.763
598.576
310.621
-284.387
-26.2345
-777.835
-63.2743
841.109
-137.949
442.065
-304.117
426.449
95.1541
427.828
-444.222
16.3945
232.475
-32.3372
-218.999
-316.231
535.23
502.488
-381.948
-120.541
-329.124
15.7113
313.413
784.557
-82.2968
-522.075
-77.6015
599.677
-661.14
661.14
-122.34
499.637
-377.297
94.2042
-351.124
256.919
-920.32
347.114
307.685
-360.325
52.6398
437.115
20.5502
815.245
-503.327
-311.917
908.599
-57.2139
-851.385
80.655
151.897
-846.932
613.891
233.041
-15.3372
253.35
-238.013
-216.659
220.948
-4.28807
-40.0029
-489.83
874.508
-889.966
15.4581
-51.9855
430.38
-11.4113
787.265
-789.34
2.07535
245.981
-24.4015
11.0684
-235.664
822.138
-963.829
141.691
238.407
-344.952
106.546
570.856
-570.856
899.95
-93.255
-806.695
594.384
73.0535
-667.438
50.3051
-324.44
274.135
-195
260.996
-65.9967
-467.43
329.481
54.7981
732.466
-393.275
529.944
263.12
-182.465
-683.872
-176.39
484.131
-630.54
453.894
-501.558
47.6638
-890.711
1023.67
-132.956
-581.537
555.962
25.5752
505.208
-582.8
77.5918
128.208
726.841
-855.05
211.401
530.604
-742.005
723.334
505.127
321.68
738.572
329.171
-233.097
-96.0744
-297.968
297.968
371.629
-402.745
31.1158
-28.7866
1086.27
271.238
-325.382
54.1438
529.493
-473.262
-297.429
-562.392
551.945
-566.388
14.4435
-29.6715
904.18
252.069
-267.406
-200.831
191.07
9.76127
499.2
-588.03
88.8301
-197.82
958.976
-761.156
588.967
-83.758
771.136
-384.721
-386.415
340.332
-48.7879
472.014
548.879
-190.627
156.143
-743.859
59.987
-926.4
35.6887
478.047
47.4243
-679.76
891.161
-685.825
-64.9213
193.607
-200.739
7.13212
-74.019
915.142
-841.123
-38.047
-817.796
855.843
187.803
-186.596
25.9663
170.725
-196.692
-10.5274
-366.105
376.632
316.917
-313.605
-599.522
205.273
-226.951
436.78
-209.83
908.54
-678.016
303.724
25.4466
266.332
11.7126
-278.044
-567.873
156.704
411.169
461.681
-33.8536
510.644
-729.643
-352.438
-7.16406
647.54
-746.151
98.6107
-237.23
159.674
77.5557
-656.393
639.029
17.364
206.658
-214.243
77.7931
185.327
-742.079
825.494
-311.311
305.561
5.75041
68.125
-364.383
296.258
231.39
-211.051
-20.3382
527.12
-329
-198.12
6.135
-347.445
341.31
-497.77
484.279
-64.2862
271.956
-207.669
-659.185
154.737
504.448
-347.263
-3.23037
653.91
6.03439
446.613
-21.7126
-158.82
5.57654
153.243
-21.3808
717.995
-696.614
-846.674
974.883
322.688
-147.646
-175.042
677.353
-775.156
97.8029
422.4
348.736
706.579
59.3932
-765.972
818.093
81.857
540.671
-519.01
-21.6613
1093.7
-1012.3
-81.4034
6.75002
-299.156
292.406
272.009
-5.67741
102.503
141.334
212.391
-21.757
193.768
-203.845
10.077
148.526
146.562
-295.088
-307.238
286.573
20.6646
-155.271
-297.494
452.765
421.973
-544.313
-322.989
195.104
-198.707
3.60346
199.498
1009.27
-570.983
-438.284
526.118
-109.2
-416.918
122.063
512.158
75.705
464.966
16.0687
-686.71
710.119
-23.4087
49.5802
-549.491
499.911
-78.9966
-250.038
329.035
-449.904
39.545
410.359
-140.753
-336.242
476.995
780.018
-1.26624
21.7867
184.272
-364.443
180.171
162.354
-226.64
-920.552
848.691
71.8607
-300.107
306.481
-6.37376
664.334
-80.3181
-584.016
1047.03
-603.81
-443.217
193.264
-197.123
3.85887
269.22
-108.893
-160.327
-422.91
418.772
4.13752
664.242
-32.525
-631.717
-691.61
4.89973
370.364
39.1022
-556.628
436.447
120.181
581.6
-578.589
-3.01105
-855.76
44.3819
811.378
856.367
33.1993
-889.566
-425.047
284.294
-202.863
44.0434
-321.594
521.793
-200.2
-173.089
-27.7423
754.997
-793.044
-150.928
176.894
526.501
-170.561
-355.941
-123.744
-309.655
225.605
-227.342
1.73668
619.525
44.717
683.565
-608.836
17.7404
-302.178
284.438
837.026
-876.203
39.1773
-293.947
9.56013
952.168
-955.619
3.45082
42.9636
206.746
-249.709
680.317
-32.7771
566.131
-593.251
27.1206
-830.727
846.838
175.47
-193.998
786.209
212.248
746.728
144.564
201.282
-345.846
-302.074
-9.76613
815.747
-59.2135
-756.533
597.612
-127.815
-469.797
234.031
-75.6422
88.4317
409.689
66.0571
-261.057
473.944
-504.027
30.0831
143.634
-350.115
206.481
137.88
389.24
45.6925
862.907
652.956
-773.367
120.411
-23.2079
975.376
-248.053
-20.6899
268.743
-223.327
206.292
17.0353
-11.1288
176.169
49.0231
453.465
335.508
-346.035
-352.413
43.8434
-334.722
33.582
838.36
-58.342
62.2955
-227.831
165.536
-949.455
23.0558
-912.669
-36.7863
-486.142
54.3804
431.762
-727.858
896.164
-168.306
-194.53
-68.1839
262.714
-103.994
-81.616
185.61
-162.048
-38.9106
200.958
-124.708
228.476
-103.767
853.452
400.505
-216.233
140.514
-13.2352
-568.302
-878.678
-41.874
450.704
146.908
185.549
-507.142
200.709
-1106.93
906.223
34.0354
199.003
-233.039
-17.9215
-198.738
419.46
27.1528
89.2211
701.76
284.964
1.68455
-286.649
-473.931
568.066
728.67
72.9681
-801.638
-776.876
-9.0911
799.088
-854.259
55.1712
279.823
-249.831
-29.9922
80.145
242.543
850.659
-865.006
14.347
978.833
-862.153
-116.68
938.931
-943.535
4.6042
-384.154
-172.474
-7.72997
-873.427
543.054
330.373
-189.922
163.268
26.6535
-242.763
391.289
141.984
92.4642
-234.449
758.533
245.108
-261.758
431.825
94.293
781.553
-693.78
-87.7735
-52.9404
-98.8823
-97.4434
196.326
-311.582
260.657
50.9252
862.283
-838.086
-22.3465
380.888
-358.542
-321.726
-10.1221
568.974
-584.319
15.3458
370.743
-327.52
-43.2237
-828.418
731.178
97.2404
-905.734
831.715
141.885
127.335
-407.5
277.862
129.637
469.585
-454.594
-14.9906
621.717
-622.701
0.983639
518.236
-44.2916
-302.932
-144.165
447.096
12.2646
-260.318
-77.9991
-244.558
322.557
544.284
563.926
-1108.21
-900.872
849.21
51.6617
-5.10189
-405.849
420.07
-14.2213
432.897
-400.291
-32.6063
670.456
-841.651
171.196
710.618
-880.096
169.478
-504.648
-154.537
-425.169
72.291
352.878
307.628
-6.96023
-300.667
-328.004
165.956
473.781
75.7357
-719.662
-108.756
1.88845
191.879
-306.425
300.135
6.28922
49.9369
-335.53
285.593
491.548
38.5835
-530.131
-227.392
301.515
-74.1224
-896.2
-19.6411
915.841
-206.845
-29.9112
236.757
7.05896
-842.26
835.201
804.712
-118.492
-686.22
343.136
138.831
-216.83
-874.884
-21.3156
808.373
40.3183
-10.5808
534.53
-182.498
-500.225
-15.9384
516.163
-801.995
913.796
-111.801
314.641
-246.516
-390.94
311.943
-30.4436
590.793
63.1179
385.258
-241.624
308.943
506.301
-16.1762
28.4204
342.323
-777.879
87.9638
689.915
457.348
94.597
-136.647
-23.2375
159.885
-851.811
-23.0726
74.7622
331.476
-204.795
227.868
-23.0733
53.8635
-281.256
-248.339
261.625
-13.286
-19.774
33.2267
-514.274
481.047
-610.618
-135.533
-25.8173
305.219
-279.401
-330.037
443.044
599.39
447.637
-1102.77
430.485
672.286
330.107
0.414876
-330.521
-246.058
-156.831
402.889
-525.303
547.051
-661.175
-17.5136
678.689
99.135
93.5852
-192.72
-44.2461
799.243
838.429
-862.367
23.9382
807.58
-154.624
42.3553
-600.796
-328.389
-19.0565
556.835
57.8763
-614.712
442.333
19.3485
-350.219
394.883
-44.6644
-853.316
-3.85141
857.168
-27.8158
-823.996
282.993
-261.998
-20.9953
625.216
-3.49847
557.436
-399.783
-157.652
-224.014
274.029
-50.0145
-97.4006
-255.012
-422.586
-38.8567
893.075
-182.457
-816.702
88.844
-629.426
18.8076
-541.581
52.768
488.813
820.554
-39.6327
-780.921
-255.86
131.152
-2.51081
-356.043
358.553
855.489
-185.034
309.452
-1.82405
636.573
-70.4421
494.153
-2.6059
801.438
-712.217
-1045.13
-57.6411
445.442
24.1426
521.232
34.1337
735.048
-691.446
795.637
-38.3107
-757.326
198.616
-223.544
277.817
-17.1597
-118.47
196.572
-187.225
475.017
15.7983
-490.815
577.104
-100.975
-476.128
-460.512
422.49
38.0224
128.947
672.491
-2.01901
-98.7685
-761.286
860.055
89.5831
-668.388
578.805
230.336
-306.722
76.386
-742.465
643.697
91.8192
712.893
-504.405
1048.69
223.629
-161.333
-261.374
-173.587
257.157
-83.5705
216.288
-262.105
45.8174
-181.445
323.429
-6.64238
-315.084
-51.2954
6.12126
-411.961
405.84
-47.5989
-162.646
-195.806
-32.3409
370.242
-337.901
-870.848
944.471
-73.6233
45.5234
-528.278
482.755
21.5549
-244.882
-755.984
106.377
649.607
361.012
-217.898
819.403
1.15087
-3.84106
205.534
-201.693
425.301
132.134
-112.376
-312.793
815.663
-201.772
-95.1885
-914.04
618.415
-321.276
126.718
41.1865
654.542
-558.965
496.232
-19.7366
344.143
-36.4577
339.546
-422.052
82.5061
199.697
-236.104
36.4075
44.3601
253.765
-298.126
336.667
-491.938
-1.93847
761.959
-806.205
537.974
-62.9572
-103.928
735.577
-631.65
-270.399
306.281
-35.882
-67.4432
297.779
210.327
-191.07
-284.04
13.6408
-1054.27
583.923
470.344
-35.9212
-75.5884
181.308
-311.263
296.486
14.7773
-676.063
692.461
269.529
-274.535
5.00559
-469.594
172.1
-499.803
-554.464
244.28
-279.475
847.168
-946.599
99.4312
-344.593
16.2046
483.729
-627.623
143.894
-2.10003
810.473
228.892
-247.731
18.8393
-320.025
-553.402
-37.7741
294.967
-25.4379
334.989
-117.729
-217.26
-20.2927
-834.21
854.502
-875.438
490.525
384.913
-56.7791
735.415
-455.502
32.9164
-151.589
-114.293
265.882
874.596
-811.87
-62.7259
396.114
-321.352
796.077
3.01076
103.973
91.1013
-195.074
-580.557
1024.4
-443.842
148.716
-198.101
49.3849
-758.939
-145.008
903.947
132.276
202.713
853.52
-31.382
813.476
-736.709
505.33
-416.898
8.79926
-233.755
34.2001
154.614
-188.814
308.472
226.058
-27.2756
-1098.2
619.199
479.001
7.47038
891.675
-60.5501
-831.125
-430.705
623.662
-192.956
57.1688
756.307
24.793
-525.018
-590.554
-18.418
608.972
399.468
151.527
-550.996
-264.678
-522.425
279.541
64.6019
-181.138
-76.9628
-406.977
353.266
53.7111
-792.372
289.044
202.386
-263.88
61.4937
226.024
-246.575
20.5513
431.242
-425.12
721.516
51.0159
-772.532
-204.796
39.1401
815.843
20.8846
-836.727
-345.287
8.8974
336.389
118.64
860.193
-411.947
450.4
412.021
-72.4753
-954.392
99.6617
854.73
789.08
102.595
-26.8608
226.557
51.0207
381.876
890.556
133.11
31.2754
-486.778
28.5895
-826.594
798.004
694.017
-760.071
66.0542
636.269
465.941
769.017
-56.0337
-712.983
199.099
-50.3833
76.7213
339.677
-416.398
-735.229
792.397
251.017
178.557
-284.525
168.071
116.453
-111.129
-426.916
538.045
-32.7552
-218.56
1004.41
-573.925
97.5401
-292.07
194.76
-198.601
-101.027
-159.273
30.4857
820.173
-157.397
494.064
-595.403
747.849
-152.446
677.148
-698.529
-387.346
371.408
-442.298
-180.403
39.7495
348.965
-9.6291
-339.336
-46.2851
808.244
-505.245
-623.365
1128.61
288.64
-232.33
218.706
11.9875
198.339
-257.438
117.729
-885.249
908.902
-23.6528
-264.278
256.365
7.91303
75.2773
706.276
3.36556
765.652
636.568
-17.0436
-15.1884
-513.887
470.23
43.6573
933.065
17.1558
-950.221
-309.115
-36.1719
-0.859584
-235.529
789.863
-68.347
529.025
-623.202
94.1774
-761.783
-84.8724
27.2994
252.524
880.555
10.0009
-491.347
441.298
50.0484
-950.45
-94.6798
54.2504
-380.93
326.679
-194.748
207.583
-12.8351
244.857
-28.5689
-40.0253
1050.31
-313.228
-737.079
579.66
-50.6352
37.7275
-267.258
-57.1819
-688.991
764.848
-75.8571
-89.5973
1.03109
224.992
504.998
-5.79831
92.7938
-870.629
-97.3015
217.027
-119.725
-190.025
218.774
-28.7488
-681.813
570.684
-446.241
479.468
341.793
54.321
-461.536
425.323
36.2121
580.123
429.144
498.751
-460.147
-38.6045
468.905
-307.911
-160.994
-189.063
39.3059
351.769
-22.0323
-329.737
-259.578
85.9913
-336.6
294.338
-219.023
-636.737
-691.468
-81.8996
261.359
-58.9727
657.814
197.675
6.92879
230.036
815.46
-85.989
-729.471
329.422
-142.252
647.203
-504.951
233.132
-301.315
-105.69
505.159
-750.564
8.48486
-129.577
-107.653
500.004
-92.4181
777.073
-684.655
-204.07
216.868
-12.7981
-20.7317
-243.546
829.594
-737.775
225.346
-427.467
-402.517
829.984
858.585
-200.771
-43.2201
781.126
-737.906
597.474
-6.68124
17.8703
-608.425
283.035
130.188
-413.223
-404.463
481.184
-20.1471
-320.449
340.596
-617.743
66.7412
551.002
-145.724
504.25
-358.526
-477.816
411.054
-484.019
72.9645
105.958
-183.214
77.2565
-190.722
335.286
-174.247
-178.191
723.469
-29.4516
102.348
581.217
-611.104
649.022
-37.9178
269.291
-295.108
-809.91
-52.4571
97.3382
-433.58
590.119
460.187
-615.838
173.541
413.61
-841.077
372.357
-681.918
28.6584
653.26
-197.952
237.094
-39.1427
-816.29
886.709
-70.4193
-48.9449
-432.355
481.3
1005.36
-405.595
-599.765
-69.884
-784.375
7.47098
275.522
-950.47
207.414
743.056
-857.729
-92.7414
-175.409
-14.5125
-777.765
731.48
-127.742
-292.942
420.684
-21.7466
-263.949
285.695
160.53
647.05
220.997
156.665
-377.661
-902.873
154.585
748.288
541.244
-581.032
39.7874
604.55
58.6086
-663.159
-43.54
674.191
-639.855
-34.3361
353.915
-23.8084
-12.6324
216.229
-203.597
608.298
65.893
14.9255
-791.802
721.543
-777.577
-181.017
215.218
321.776
147.129
133.117
-307.365
205.915
-210.597
4.682
344.489
-200.825
-143.664
592.051
44.5173
-746.422
800.571
-54.1489
-386.947
-111.502
498.449
-18.0235
-288.401
248.629
45.6087
-294.238
254.412
-102.971
-151.441
418.496
-467.441
-61.7177
-740.277
-411.489
81.1662
150.224
493.215
-438.278
-54.9371
-227.016
261.051
-207.794
199.212
8.58251
7.71785
-214.807
207.089
-323.579
380.436
-56.8569
208.8
-2.22769
-206.573
450.428
554.932
-266.304
555.662
-474.03
141.956
-243.959
102.003
-206.964
-5.07054
212.035
701.301
-96.7511
249.972
-172.179
-358.29
280.88
77.41
-432.744
-5.29912
438.043
-352.249
449.587
316.222
-323.706
7.48398
-18.9057
36.753
468.577
462.956
35.7948
23.0347
-455.779
175.474
15.5962
-341.487
-3.10672
-372.544
297.09
75.4538
343.681
-64.1394
671.696
221.379
-234.15
241.868
-291.922
307.634
88.2249
661.086
-749.311
-735.536
-26.4245
761.961
23.6695
154.166
16.7805
-340.36
-690.746
621.148
69.598
133.849
-167.124
172.806
-5.68208
422.72
-139.685
-238.807
-167.465
406.272
-168.173
-345.714
223.79
-17.8748
-254.64
103.051
89.7202
-187.022
-1009.55
696.318
-348.764
348.764
851.455
242.248
-35.3483
-509.105
-500.441
211.731
325.575
528.278
42.5783
546.897
-52.7433
252.764
-235.268
-17.4965
-629.481
662.463
-32.9826
-50.2476
-533.211
-45.5527
-640.333
706.535
-66.2026
84.7285
-493.899
-353.467
539.552
7.34522
525.49
11.6347
-537.125
745.576
-647.752
7.89637
-120.498
-58.1474
178.646
-420.942
84.342
315.072
-35.1025
-279.97
-160.253
-42.6102
-304.262
290.903
13.3595
-289.459
65.4444
867.83
-196.134
-332.165
53.4851
766.954
-0.622906
-766.331
584.219
-659.153
74.9346
-922.851
830.37
92.4802
-24.499
-636.676
109.887
299.468
-24.8366
-262.239
287.076
-776.268
11.8845
-205.504
-293.429
268.592
-466.268
511.792
-230.351
249.803
-19.4513
-307.01
299.258
7.75203
-808.064
704.136
995.983
-148.815
-161.121
285.479
-242.516
364.097
-162.815
402.041
-304.114
-97.9271
289.434
54.2468
810.605
-96.7886
-713.817
183.938
-681.708
-748.574
663.972
84.6016
5.18941
-617.685
623.563
-5.87755
67.793
182.179
-94.2456
516.219
-274.748
287.721
-12.9737
379.426
-458.619
79.193
-608.728
649.347
-40.6189
585.249
44.9564
-630.205
239.622
-225.151
-14.4717
555.639
-22.7176
-532.921
245.099
-133.638
-111.46
-136.194
-50.8873
187.081
951.963
-943.168
-8.7955
-575.502
-388.327
-47.011
-754.227
801.238
-897.647
834.373
-570.342
351.946
218.395
605.133
-623.551
-17.4223
670.411
-652.989
12.8759
154.076
-166.952
-67.7453
-267.784
-855.972
-66.8791
15.4565
367.197
334.11
-739.705
196.784
-21.3107
-232.274
232.274
415.074
-154.849
-260.225
-911.193
25.9445
-3.65586
-30.7386
-473.308
504.047
-753.683
-80.7761
487.446
-406.669
-252.421
-408.719
433.407
-10.9174
-62.2205
261.224
157.243
187.245
-537.595
399.347
-173.622
394.618
340.967
-51.5335
762
-706.212
-285.172
-9.61571
271.506
-946.89
-3.56054
5.60651
927.459
533.519
-448.791
-829.93
571.252
258.678
-5.20859
264.199
-258.991
350.218
-4.18406
-346.034
-462.708
32.0026
-834.352
748.096
86.2555
-135.41
-173.705
195.077
30.5596
-225.637
213.251
127.716
-800.994
17.811
-593.612
320.753
272.859
42.5573
230.513
363.905
-326.369
-37.5368
-372.394
381.438
-9.04405
847.425
-513.315
-455.132
312.88
-326.232
193.708
132.524
423.387
-720.816
568.479
-27.2345
811.253
-807.887
78.2877
166.811
-827.396
808.912
18.4843
-794.148
47.7252
-472.162
-527.844
1042.65
-186.281
931.106
-835.172
-95.9339
-521.12
-463.317
984.437
-49.1384
-258.099
61.3517
227.814
-237.07
9.25595
-22.5361
-56.0784
733.431
466.956
-30.2319
-436.724
-375.737
-192.136
12.2399
-101.675
-243.277
-147.599
407.9
-260.301
-926.393
926.393
93.3528
-806.486
494.568
-511.236
69.3036
441.932
-212.431
-195.068
161.698
-158.17
-379.425
-548.209
390.039
600.227
60.2579
194.154
420.049
-928.207
508.158
-14.7872
299.751
-221.242
-264.9
-219.459
407.124
-85.3477
-183.521
-142.711
-65.5002
-835.372
452.609
-518.244
65.6352
16.39
-687.462
768.459
-80.9966
415.849
-422.121
6.27155
248.83
-569.102
529.774
39.3284
116.761
110.47
-227.231
200.211
-212.843
378.93
-708.791
329.862
110.545
758.339
177.717
237.357
-68.7861
-492.819
462.08
293.813
-308.736
14.9236
416.793
-37.3673
354.312
-386.653
-24.068
-367.78
391.848
-31.3559
-261.004
308.043
8.61241
-316.655
-410.988
263.388
-390.173
42.7223
631.051
-749.543
-410.515
533.309
-314.271
-91.5774
976.658
-866.113
-492.7
-312.327
805.027
296.451
42.0456
290.135
-332.181
-455.389
132.766
-268.176
-51.9925
451.669
-564.158
112.489
47.4342
613.705
-183.219
62.7207
313.385
-270.827
708.751
-329.822
267.54
-183.494
24.4523
365.11
-389.562
-29.5505
-300.208
-1.97073
-260.451
253.375
7.07643
-0.440487
547.121
-522.328
32.3214
-891.592
113.416
797.246
-1.16929
331.014
-117.763
525.485
328.711
-854.197
598.406
239.954
666.85
-759.268
-738.439
102.447
635.992
266.5
56.5339
-323.034
190.835
-183.921
-6.91363
20.9042
274.381
572.886
-193.532
26.5077
167.025
-157.082
-606.777
763.859
-342.754
358.09
-15.3363
-244.286
297.586
-53.2999
-149.373
-176.009
-256.64
216.093
40.5465
920.089
-920.089
-87.5366
727.093
-639.556
295.503
-215.358
345.993
-68.1302
-657.491
192.066
28.8633
-220.929
57.6273
-587.652
530.025
23.0768
-224.188
201.111
908.068
-913.826
5.75769
300.701
-674.386
373.684
339.722
-285.471
52.618
311.287
-350.752
876.237
557.265
-105.595
-73.4927
-245.758
-401.087
326.922
74.1641
216.622
-346.543
335.813
-500.202
164.389
-234.247
36.2955
-873.29
-73.5995
33.2113
-720.674
311.114
-189.496
796.39
-773.226
-23.164
431.486
44.6014
-476.088
-685.689
610.724
74.9657
-235.601
208.366
27.2348
322.216
-28.4037
-426.185
-254.921
872.707
-829.871
-42.8355
-357.894
658.595
139.093
-526.04
-864.425
11.1091
-58.5584
-595.452
654.01
37.5977
-135.425
-149.1
-915.969
418.11
497.858
196.806
2.40563
451.145
-35.2954
543.445
257.18
-249.24
-7.94024
-335.725
-6.31441
342.039
-542.562
429.066
-15.9866
-188.704
204.69
234.499
-42.433
-84.1044
342.926
-258.821
-357.679
7.46081
435.772
-10.4482
66.1115
-807.691
741.58
-664.323
664.323
40.7942
192.337
-85.0183
-505.026
590.045
-854.463
938.097
-83.6336
741.108
55.2828
-14.1644
-834.496
848.661
325.298
-342.897
17.5984
325.998
15.6798
-341.678
583.737
-637.05
53.3127
44.4796
296.133
-340.613
-211.865
-109.751
321.616
200.301
-9.46553
104.985
-709.878
604.893
-759.992
267.292
353.871
-311.825
793.744
59.7766
-77.4877
-433.748
344.414
-389.817
-680.449
100.086
580.364
301.801
-266.178
-35.6232
-532.238
613.273
-81.0359
-82.1945
-363.139
445.334
411.188
-382.768
-593.981
-321.988
591.691
-725.527
133.836
-405.873
-424.057
837.851
-39.7832
-645.906
136.584
444.558
-581.143
563.577
-644.873
81.2962
24.4038
-226.695
11.1076
-693.026
-324.006
321.495
12.83
570.648
-692.752
122.104
-344.527
-430.629
-6.87453
-683.997
698.374
-14.3771
763.084
-164.678
645.861
-103.14
-542.721
202.131
291.084
293.748
-299.311
5.56338
807.722
-935.895
128.173
-643.372
-95.067
-283.263
8.51581
-329.987
93.928
236.059
-57.0756
640.813
72.0256
-240.658
168.633
358.682
-336.484
-22.1987
-328.803
-264.809
-9.31332
202.92
-21.982
-178.757
232.504
129.232
-361.736
-272.814
320.662
-47.8486
586.446
-671.464
25.4944
289.578
-257.668
-72.3193
-283.722
-286.62
-711.359
540.66
170.699
-110.835
-156.099
-167.083
67.3174
-579.316
536.577
42.7386
576.957
-1098.08
-25.6916
-1016.18
-140.711
363.422
43.7023
-23.3543
-51.4186
-757.013
125.363
847.787
-840.728
617.428
-76.7675
1.86177
589.256
-591.118
-277.817
-168.527
446.344
-31.0764
-204.524
3.5168
204.139
-211.944
7.80475
-994.086
225.529
448.226
-112.413
19.7419
-628.05
608.308
298.199
-365.178
24.0767
341.102
57.449
573.44
-630.889
-104.612
770.101
-665.489
-669.342
-195.664
-720.83
38.9246
681.905
-39.7167
563.746
-524.03
919.856
-911.738
-8.11744
558.042
-616.601
-611.192
-23.791
634.983
-397.298
124.484
256.905
-253.496
-3.40916
801.037
-772.448
-96.2813
730.989
-634.708
461.387
8.84305
-434.443
-670.049
604.147
65.9017
398.795
-92.3187
-564.074
-41.027
-11.8648
-400.097
-13.7258
201.279
-187.554
26.3323
327.538
-361.549
365.253
-3.70409
743.815
-790.826
134.621
128.093
216.671
-228.943
12.2723
684.139
-775.331
91.1922
-315.961
-667.521
-21.4694
794.213
73.617
291.38
120.641
810.012
-15.7992
-27.4465
-1030.66
178.14
3.94819
16.9385
-566.43
161.087
-148.211
-1081.31
-243.6
227.613
68.3819
227.121
-107.904
-467.153
575.056
-2.56023
-477.588
480.149
838.939
-31.2173
570.141
75.7202
-26.043
-205.788
231.831
735.527
-778.747
-143.106
375.61
-398.144
443.054
-44.9096
-679.213
723.336
-44.123
274.214
-369.753
18.6291
397.507
-158.113
-239.394
173.056
-511.952
466.367
45.5847
5.42403
-462.866
458.872
3.99364
613.924
-596.054
27.61
-155.384
586.87
-297.342
57.5591
441.297
42.1516
606.763
-648.915
-88.9722
-138.926
182.933
25.4323
30.4461
-394.621
29.4428
-412.137
13.9924
252.681
-254.919
2.23767
711.281
-682.623
-486.301
85.0488
401.253
-42.3571
626.576
-5.79185
-209.015
914.271
-141.799
-772.472
518.882
537.484
-1056.37
-282.79
-23.9959
292.348
4.13814
10.2592
276.314
-687.424
-0.724261
688.149
591.998
-749.081
-208.794
198.516
10.2779
-515.088
-36.1624
-632.226
-4.02091
145.977
-137.968
-428.421
-112.607
184.633
13.4122
-629.16
615.747
-39.321
-497.677
536.998
-245.567
290.047
-69.3745
626.21
-725.36
752.631
-27.2703
217.763
-482.441
228.073
-254.667
26.5942
2.93321
-837.312
29.2475
230.324
-442.189
903.546
-912.739
9.19353
636.046
14.6556
-650.701
-56.4654
-536.786
-807.247
840.446
110.592
-208.035
897.676
-78.2724
244.858
-17.0437
-60.3289
-715.963
776.292
-86.6447
-597.352
-10.6351
536.125
-663.042
19.6705
212.925
-230.736
17.8116
-240.155
3.73
236.425
-559.656
533.553
26.1034
-226.279
90.0851
68.0847
83.7024
-151.787
-880.248
314.868
21.5796
-336.447
55.0101
637.868
-692.878
-344.143
363.352
-19.2092
-642.841
-20.2011
-670.877
759.102
-896.411
127.361
769.05
-148.11
-169.499
-446.541
64.5932
-457.001
-614.238
249.296
-4.18754
-293.301
292.882
0.418715
180.871
-64.1101
-423.97
394.437
29.5323
-954.866
972.022
-275.055
102.696
172.36
147.493
13.5944
520.638
849.88
-870.173
277.461
-34.9184
354.722
-500.446
-789.004
811.071
-22.0676
-345.914
-178.155
524.069
135.144
-179.04
43.8961
427.61
-521.856
738.736
-677.304
-61.4327
-260.552
-22.2387
317.513
-68.8842
318.533
-293.039
334.165
-652.055
-17.9934
5.44927
633.58
-378.296
160.398
20.6624
-891.51
546.751
-392.014
608.147
368.511
424.178
9.22955
744.612
-804.941
-40.8596
-26.5675
827.282
70.3935
421.207
-499.955
78.7477
221.004
-177.831
-43.1729
-187.476
198.148
-10.6712
-15.6173
345.573
-329.956
-616.819
658.971
429.017
247.821
-223.844
-23.9774
370.715
503.881
313.619
-335.652
700.692
109.914
73.9835
-597.725
523.742
639.951
-35.8043
31.2741
-930.201
113.76
816.441
224.013
-253.924
-254.524
-793.336
732.255
61.0809
5.34205
813.886
-819.228
925.565
-925.565
-379.052
17.5033
602.83
37.121
-109.197
-13.8887
-195.498
209.387
437.742
27.9771
-465.719
-436.996
23.0111
413.985
186.218
972.166
-453.284
-235.155
42.3983
192.757
-626.901
630.928
-4.027
416.613
-470.892
54.2788
-431.056
-5.93939
51.9972
-762.075
710.078
-637.243
-59.6408
-550.239
518.598
31.6405
-367.734
270.334
15.2892
-232.932
217.642
-143.993
-131.063
-29.8824
220.484
-37.5502
56.1019
282.076
-280.391
-71.9995
791.612
368.557
-53.6895
-768.881
33.3448
-890.032
814.418
75.6139
117.884
271.658
388.382
150.415
-752.119
858.431
333.129
182.043
-515.171
-167.362
594.463
-644.064
49.6014
472.073
54.6146
-526.688
629.558
-336.701
-292.857
-469.283
-115.309
-779.993
675.381
29.8661
-683.085
653.219
-711.377
108.527
602.85
-766.177
14.5352
20.1063
508.696
-87.489
-511.913
354.516
543.522
-583.238
-35.4671
-69.1333
236.445
-167.312
33.4601
-673.793
-237.539
-240.267
171.134
-31.9388
261.012
-112.547
-148.465
148.405
-9.83711
-635.749
723.712
-19.1406
187.453
-168.312
869.872
-628.643
10.9581
135.542
177.842
1.01503
397.702
-398.717
-224.923
-190.058
414.981
180.944
763.527
380.244
-355.791
-841.803
7.45103
626.419
-609.87
0.039284
-805.672
805.633
589.568
16.1389
-605.706
839.818
44.9649
-884.783
313.897
-14.6394
128.229
-406.046
426.399
9.37238
-255.812
335.687
-79.8745
198.966
382.061
-90.6813
611.71
-56.1663
-555.543
-754.353
778.609
-24.2564
13.346
640.134
-653.48
-644.887
112.65
-7.82279
-442.648
599.858
34.7044
323.978
-31.6811
193.41
-94.2753
-337.877
2.15171
95.9762
742.963
4.55277
-279.132
274.579
-426.154
-502.053
-57.4588
-757.741
815.2
247.964
-41.2176
195.467
-258.474
63.0069
203.172
-96.0993
-225.346
-516.878
-581.321
-791.826
-18.0848
-172.928
-815.762
776.449
39.3134
-34.6342
470.071
-435.437
59.7827
821.341
-881.124
202.776
-134.691
773.712
26.8596
-215.703
201.814
21.0236
-308.912
287.888
575.739
-573.877
-647.224
146.036
501.188
-545.272
589.388
-44.1159
34.1018
259.646
-665.158
-441.775
608.548
45.8393
-654.387
-721.929
606.766
-679.221
72.4553
-159.935
-33.5975
450.209
-484.42
-846.072
851.414
104.232
-307.601
-588.81
-642.519
593.325
49.1946
186.106
-80.148
-44.177
455.979
173.578
-566.986
52.7114
514.172
-527.625
13.4538
73.009
-717.686
644.677
269.338
-16.6571
-316.805
167.642
149.163
-566.001
577.635
-129.186
456.427
-327.241
681.446
-86.9838
2.09045
-319.567
317.476
-446.757
-442.792
889.549
-149.696
240.15
-90.4538
-100.387
-580.062
-559.837
406.333
153.504
399.324
-31.5711