/*--------------------------------*- C++ -*----------------------------------*\
  =========                 |
  \\      /  F ield         | OpenFOAM: The Open Source CFD Toolbox
   \\    /   O peration     | Website:  https://openfoam.org
    \\  /    A nd           | Version:  7
     \\/     M anipulation  |
\*---------------------------------------------------------------------------*/
FoamFile
{
    version     2.0;
    format      ascii;
    class       volVectorField;
    location    "31";
    object      U;
}
// * * * * * * * * * * * * * * * * * * * * * * * * * * * * * * * * * * * * * //

dimensions      [0 1 -1 0 0 0 0];

internalField   nonuniform List<vector> 
7724
(
(1.25805 0.179565 2.64193e-21)
(1.07204 -0.0676278 -4.80785e-22)
(1.03152 0.249228 -1.48584e-20)
(1.09276 0.116155 1.82418e-20)
(0.998833 -0.00144066 -2.96425e-23)
(0.999943 -1.29003e-05 -2.87433e-24)
(1.00533 0.203393 -3.20026e-20)
(0.992448 -0.00271949 -5.88265e-24)
(0.999831 -0.000265653 -5.1288e-24)
(1.03807 0.00151688 -8.47759e-22)
(0.999947 -1.55699e-05 3.17095e-24)
(1.00319 -0.00178981 -1.22472e-22)
(0.988458 -0.00343051 3.00194e-22)
(1.03045 -0.00292897 -5.09684e-21)
(1.03705 0.00213376 3.60094e-21)
(0.987491 -0.0218516 -6.24902e-22)
(1.27172 0.183761 -5.50406e-21)
(0.984476 -0.00439651 -1.03827e-22)
(1.0033 -0.0139449 -3.0575e-23)
(0.971266 -0.135028 -5.62487e-22)
(1.05386 -0.0103328 -1.66601e-21)
(1.00211 -0.00109994 2.30909e-22)
(1.02718 -0.00510808 4.28216e-22)
(1.02036 0.0543815 -1.02192e-20)
(0.979328 -0.00551001 -4.69314e-22)
(1.24857 0.189244 -3.3955e-21)
(0.998894 -0.00137089 -2.06239e-23)
(1.03594 -0.00340494 2.04442e-21)
(1.0083 0.0249765 -1.27277e-21)
(1.00537 -0.0148594 2.3958e-23)
(0.980655 -0.0229901 -1.08941e-21)
(0.700464 0.0925254 5.68163e-21)
(1.0269 -0.00628663 2.64618e-21)
(0.999327 -0.000574481 3.62819e-23)
(0.999854 -9.88689e-06 6.81285e-26)
(1.03741 -9.60122e-05 1.2432e-21)
(1.0061 -0.0162612 3.10283e-23)
(1.01522 0.194082 -5.05269e-21)
(0.994662 -0.0115514 5.07853e-22)
(0.999529 -8.53115e-05 3.46787e-23)
(0.995262 -0.0118991 -5.67471e-23)
(0.987671 -0.0205122 -2.25371e-22)
(1.00627 -0.147905 2.78834e-21)
(1.18408 -0.104487 9.85107e-22)
(0.999719 -1.80836e-05 1.10362e-23)
(0.999887 -2.24655e-05 -3.04353e-24)
(1.00202 -0.000890003 -1.40894e-22)
(0.994429 -0.0105909 -3.0148e-22)
(0.999905 -4.28402e-05 -2.42027e-24)
(0.976918 -0.135902 8.23362e-22)
(1.00467 -0.00156717 1.32666e-22)
(1.03531 -0.00220293 -2.11736e-21)
(0.973033 -0.00659803 -1.57846e-21)
(1.01507 -0.0450407 1.38862e-23)
(1.03822 -0.001086 -7.1053e-22)
(0.99338 -0.00374412 -5.53548e-23)
(1.00321 -0.0129437 7.02178e-23)
(0.992393 -0.00235695 4.09743e-22)
(0.96717 -0.0276293 -1.92106e-21)
(0.999299 -0.000511363 -4.64909e-23)
(1.00006 -3.33154e-05 -5.72151e-24)
(1.0061 -0.00175998 1.48173e-22)
(1.03072 -0.00189485 -1.20862e-21)
(1.00346 -0.00156319 1.24013e-22)
(0.998645 -0.000275244 6.67802e-23)
(0.981504 -0.0238624 1.81045e-22)
(0.999865 -0.000264998 3.85157e-24)
(1.00002 -3.76135e-06 3.86224e-25)
(1.25169 0.00698104 1.16403e-23)
(0.994709 -0.0100415 -9.32998e-23)
(0.999895 -2.7646e-05 2.69315e-24)
(0.956971 -0.0813875 -3.82039e-21)
(0.98022 -0.00611857 2.3027e-22)
(0.96269 -0.00823943 3.08312e-22)
(0.98517 -0.00485759 3.26211e-22)
(0.94934 -0.0396682 -4.13707e-22)
(1.04349 0.249098 2.39193e-20)
(1.05108 -0.00991304 2.13632e-21)
(1.12754 -0.0229893 -2.07792e-21)
(0.934389 -0.0669454 -4.5743e-21)
(0.989008 -0.00379664 -4.60791e-22)
(1.00448 0.116481 3.18645e-20)
(1.06477 0.00467446 5.05648e-21)
(0.96201 -0.014555 1.42477e-21)
(0.998063 -0.00362546 -4.86515e-23)
(0.996827 -0.000462297 4.99866e-23)
(0.991943 -0.00358454 5.64712e-22)
(0.974088 -0.00738192 1.01486e-21)
(0.999102 -0.00169518 3.15853e-23)
(0.993671 -0.000965228 1.76595e-22)
(1.0089 0.0284816 9.50924e-21)
(1.22209 -0.101943 -1.76031e-21)
(0.999811 -7.72679e-05 -6.54943e-24)
(1.00261 -0.010964 3.08938e-23)
(0.994989 -0.00148368 1.60227e-22)
(0.962249 -0.00457126 -2.47212e-21)
(0.960309 -0.0809065 2.66667e-22)
(1.01768 -0.0435658 1.57307e-22)
(0.997856 -0.00349545 1.60859e-23)
(0.998385 -0.000278588 2.23149e-23)
(0.928002 -0.0240665 1.04066e-21)
(1.13101 -0.0167669 1.85906e-21)
(0.995271 -0.00168685 -3.98903e-22)
(0.999964 -1.93646e-06 -2.4273e-25)
(1.23012 -0.0919735 -1.38324e-21)
(1.05705 0.0493144 -8.70343e-21)
(0.85523 0.0674608 6.29731e-21)
(0.992936 -0.00353572 -2.30428e-22)
(0.999988 -3.78808e-06 2.64112e-26)
(1.03682 -0.0223573 -8.25701e-22)
(1.09564 0.107619 -2.11782e-20)
(1.02975 -0.113136 -3.60398e-21)
(0.999985 -4.44857e-06 -5.96671e-26)
(1.03929 -0.0232528 -1.78329e-22)
(1.05056 0.0476141 9.16195e-21)
(1.00061 -0.000825378 -1.09656e-23)
(1.08588 -0.138126 -2.75572e-22)
(1.05225 0.0258911 -2.06542e-21)
(0.974418 -0.0650455 1.68821e-21)
(0.962253 -0.0100136 -3.24463e-22)
(0.923174 -0.0157626 -2.4967e-21)
(1.00302 0.0519177 -2.08817e-20)
(1.0144 -0.146435 -3.83233e-21)
(1.01413 -0.0118976 7.07169e-23)
(0.925786 -0.0180274 9.83552e-22)
(0.998682 -0.00197402 7.02663e-23)
(0.982477 -0.0174709 3.70275e-22)
(1.00404 -0.0123214 -4.76334e-23)
(0.998572 -0.000202924 -1.48902e-22)
(0.98083 -0.02121 2.04266e-23)
(1.24684 -0.130262 -9.71981e-22)
(1.11872 -0.0231457 3.77776e-22)
(0.999162 -0.000785528 3.96889e-24)
(0.998947 -0.00173439 -6.12463e-23)
(0.960212 -0.0133107 4.23137e-22)
(1.08667 0.0971026 7.66798e-21)
(0.993779 0.0480077 3.98373e-20)
(0.999966 -3.43135e-06 -2.82691e-25)
(1.01049 -0.00467619 6.23537e-23)
(0.895557 -0.0197155 -3.09901e-21)
(0.965073 -0.00596928 -1.26006e-21)
(0.98058 -0.0896239 -2.62139e-21)
(0.950018 -0.0426962 5.61191e-22)
(0.964806 -0.00742439 -2.72206e-23)
(0.838538 0.0527502 2.50644e-20)
(1.01551 -0.0681947 -1.05274e-22)
(1.01865 0.0316565 -4.78844e-21)
(0.970413 -0.0329845 -1.01692e-21)
(0.94797 -0.00787481 3.44434e-22)
(1.0036 0.0841355 -1.02907e-20)
(1.03766 0.00056875 3.08186e-21)
(1.20787 -0.0990456 -2.05491e-22)
(0.997955 -0.00290025 -1.68647e-22)
(1.24973 -0.00402922 -3.88159e-22)
(1.06142 0.00461199 -5.32341e-21)
(1.04526 0.193416 -2.39441e-20)
(0.941716 -0.0464288 1.71942e-21)
(0.988453 -0.00265411 1.02761e-22)
(0.883143 0.181857 5.34047e-20)
(0.999913 -3.66239e-05 -2.24396e-24)
(1.00193 -0.01159 -1.23999e-23)
(1.02083 0.0601355 7.41871e-21)
(0.999969 -2.82932e-05 1.22122e-24)
(0.997533 -0.00736725 -2.40372e-22)
(0.994335 -0.00143615 -7.66384e-23)
(1.007 0.0650173 -2.49279e-21)
(1.00357 0.0435322 9.43183e-21)
(0.8631 0.201557 1.77224e-20)
(0.997116 -0.00712825 -1.48012e-22)
(0.99563 -0.000548338 -8.74923e-23)
(1.00002 -4.88782e-06 -3.66263e-25)
(0.918513 -0.00958083 -4.26267e-21)
(1.0006 -0.000738023 1.51428e-23)
(1.07533 -0.0627359 5.44173e-22)
(1.01099 -0.00503666 4.15733e-22)
(0.949227 -0.00933619 7.11857e-22)
(1.22571 -0.0775662 -1.85587e-21)
(1.20942 0.0542844 -1.03119e-23)
(0.999813 -9.61263e-05 3.5525e-24)
(0.999301 -0.000898997 -4.17936e-23)
(1.09969 0.122766 -3.15579e-21)
(0.999913 -2.55809e-05 -1.10189e-24)
(0.999843 -1.82556e-05 1.69766e-24)
(1.00976 0.217773 -2.58276e-20)
(1.07398 -0.0727748 -6.62813e-22)
(1.01247 -0.0953854 -1.87486e-21)
(0.977233 -0.0631384 -2.398e-21)
(0.966048 -0.0106895 9.31277e-22)
(1.01118 -0.0697662 2.03824e-22)
(0.898053 -0.0166702 1.63613e-21)
(0.999967 -2.58048e-05 -4.54675e-25)
(0.961315 -0.075938 -9.2729e-22)
(1.22117 0.0601373 -2.07771e-21)
(0.995251 -0.00205616 5.72951e-23)
(1.00011 -9.77743e-06 -3.99569e-24)
(1.17575 0.0918569 3.4934e-22)
(0.998251 -0.000564527 1.5761e-22)
(0.982051 -0.0204 5.90673e-22)
(1.00737 -0.0659473 6.52202e-22)
(1.00002 -3.11493e-06 -1.53836e-25)
(1.00128 -0.0028494 -6.04434e-23)
(1.07924 0.0987651 9.92472e-21)
(1.21381 0.084017 -3.84032e-21)
(1.02746 0.171806 -3.24612e-21)
(1.08213 -0.129529 1.89837e-21)
(1.03523 -0.108733 8.00605e-22)
(1.13472 -0.181787 -7.50262e-22)
(1.03691 -0.00325854 6.10827e-21)
(1.07093 0.0926781 -3.32522e-21)
(0.999699 -3.2183e-05 -1.29803e-23)
(1.00005 -2.99594e-05 1.52554e-24)
(0.892892 0.0277666 -2.4068e-20)
(0.989385 -0.0196599 -2.14118e-22)
(0.999129 -0.000698799 -3.94112e-23)
(0.964569 -0.0748041 1.91828e-21)
(0.981641 -0.0184197 -4.34337e-22)
(1.0626 0.169842 -2.55852e-20)
(1.05231 0.167036 -5.48914e-21)
(0.976677 -0.0916716 7.07703e-22)
(0.760527 0.132507 -2.13574e-20)
(0.998378 -0.000637807 -1.16053e-22)
(0.984533 -0.00380625 3.72135e-22)
(0.925214 -0.0219581 1.36112e-21)
(1.0521 -0.00290071 -1.24081e-21)
(1.01048 -0.181531 -3.49787e-22)
(1.28213 0.130203 -3.55087e-21)
(0.882379 0.158604 -4.57213e-20)
(1.00009 -0.000156499 4.62163e-24)
(1.01414 -0.010915 2.04919e-22)
(1.04957 0.0306838 1.12473e-20)
(0.994599 -0.00870786 -3.81409e-22)
(1.05682 0.0254015 -1.39335e-21)
(0.999257 -0.00184644 -9.95697e-24)
(0.80154 0.2293 3.6555e-20)
(1.04157 0.17725 5.5156e-21)
(0.991934 -0.00309811 3.58211e-22)
(1.00521 -0.0124496 -9.0067e-24)
(0.999559 -9.58269e-05 -6.42912e-23)
(1.27099 0.0508943 4.10991e-22)
(0.999864 -1.49614e-05 5.00668e-24)
(0.992548 -0.0159484 1.86985e-22)
(0.909469 -0.0433858 1.89189e-21)
(0.999895 -3.79634e-05 -1.114e-24)
(0.998216 -0.00423718 -4.04072e-23)
(0.999418 -0.00179216 1.84779e-23)
(1.13427 0.0531114 6.35645e-21)
(0.99997 -3.66891e-05 1.43688e-24)
(0.993402 -0.000741475 1.96653e-25)
(0.937812 -0.0665046 5.30691e-21)
(0.704833 0.0693261 -1.25809e-20)
(1.11534 -0.0290992 -5.53669e-22)
(0.833369 0.152397 2.82744e-20)
(0.999933 -1.15064e-05 -2.69364e-24)
(1.00387 -0.066868 -3.63111e-23)
(0.999735 -0.000459152 -1.40526e-23)
(1.03469 0.202356 -2.45906e-20)
(1.00573 -0.00120087 -1.90982e-22)
(0.990721 0.070521 1.27528e-20)
(1.004 -0.0149132 -1.30762e-22)
(1.00113 -0.00307011 6.43704e-23)
(1.04152 -0.0532398 -1.02998e-23)
(1.03694 -0.00179003 -5.65704e-21)
(1.00083 -0.000494352 3.14541e-23)
(0.999672 -7.9554e-05 3.19014e-25)
(1.00073 -0.000665961 7.06013e-23)
(0.994317 -0.00923803 -3.43249e-22)
(1.02188 -0.0996667 2.28182e-21)
(0.999937 -1.53136e-05 1.822e-24)
(0.944054 -0.0445127 1.22079e-21)
(0.994624 -0.00164635 -1.46993e-23)
(0.999795 -6.67067e-05 6.96575e-24)
(0.999101 -0.000869227 1.2809e-23)
(0.9835 0.126017 3.06369e-20)
(0.988403 -0.00123805 1.47066e-22)
(0.998897 -0.000152821 -1.34039e-23)
(0.778859 0.0315133 4.7969e-20)
(0.997991 -0.00406987 -9.20546e-23)
(1.18088 0.150561 -5.57235e-21)
(0.999704 -0.00042375 2.5799e-23)
(1.01117 -0.0338471 -4.94199e-23)
(1.00003 -2.78987e-06 -1.35567e-25)
(0.973906 -0.0527761 -9.33453e-22)
(1.05081 -0.00331218 1.9422e-21)
(1.23197 -0.0701595 3.82563e-21)
(0.96753 -0.0297384 1.63375e-21)
(0.999411 -0.000908549 4.80988e-23)
(0.969721 -0.115919 1.21835e-21)
(0.975755 -0.00072112 6.68325e-22)
(0.999738 -2.82001e-05 6.46274e-25)
(1.00071 -0.000584008 -6.24614e-23)
(0.997035 -0.00530453 1.28111e-22)
(0.988955 -0.0022217 -4.42178e-22)
(1.00436 -0.00142558 -2.26225e-22)
(0.998245 -0.00291701 6.13526e-23)
(0.963943 -0.0136025 2.24819e-22)
(1.02833 -0.0970531 -1.63991e-21)
(0.964119 -0.0114313 9.89888e-22)
(1.18053 -0.0929005 -2.61447e-22)
(0.952351 -0.0126698 -1.24725e-21)
(1.09127 0.22337 2.54412e-21)
(1.08325 0.233717 -1.8337e-20)
(0.997825 -0.00116284 -1.01457e-22)
(1.25036 -0.0827765 -7.45717e-21)
(0.999976 -4.7188e-06 -1.48284e-25)
(0.996964 -0.00656718 -1.57903e-22)
(0.961255 -0.00319051 2.51873e-21)
(1.01484 0.048304 6.13814e-21)
(1.06818 0.0121625 -5.07266e-21)
(1.00014 -4.87978e-05 9.07375e-24)
(0.997163 -0.00619393 -1.02758e-23)
(0.954039 -0.0140265 9.40371e-22)
(1.10397 0.0548298 -2.99326e-21)
(0.998573 -0.00181666 5.26249e-23)
(1.00498 -0.00114899 1.28053e-22)
(1.00181 -0.00150765 -1.13848e-23)
(1.19458 -0.0221751 -1.94491e-22)
(1.243 -0.14144 -5.62258e-21)
(1.17243 0.246697 9.11027e-21)
(0.997689 -0.000379652 -9.86244e-23)
(1.08666 -0.0725472 1.1143e-21)
(0.999834 -0.000102892 -5.63577e-24)
(1.00702 -0.0110452 -4.24019e-22)
(0.999921 -2.07787e-05 -7.73774e-25)
(0.978387 -0.031955 2.94171e-22)
(0.999498 -0.000114177 -1.23597e-23)
(1.01782 -0.0336978 9.17011e-23)
(1.26795 -0.0922054 7.52575e-21)
(0.960554 -0.0420762 1.98329e-21)
(1.013 -0.0330418 -1.67658e-23)
(1.01266 -0.00977472 -2.64374e-22)
(0.998939 -0.000199839 6.0265e-23)
(1.03955 -0.0290617 5.69087e-22)
(0.994974 -0.0286496 3.09535e-22)
(1.12536 -0.00679126 -1.32621e-21)
(1.12432 0.053345 3.12152e-21)
(1.18477 -0.204094 1.47716e-22)
(1.17765 -0.113533 -3.00476e-21)
(0.974691 -0.001455 -7.12817e-22)
(1.00748 -0.00552821 4.05773e-22)
(0.912896 -0.0411251 -7.30215e-22)
(0.839975 0.19996 -5.59963e-20)
(1.15603 -0.107704 3.62831e-21)
(1.04134 -0.0186214 -2.40474e-21)
(0.782897 0.144322 -2.86938e-20)
(0.997769 -0.000290555 4.88358e-23)
(0.997455 -0.00143261 -3.12987e-23)
(1.2002 -0.107787 -3.13565e-21)
(0.998462 -0.00316525 -3.23986e-23)
(1.01626 -0.0637587 1.96699e-22)
(1.00861 -0.00266255 1.43548e-22)
(0.995845 -0.000635881 -7.81162e-23)
(0.996961 -0.000530915 -1.22916e-22)
(1.06114 0.0387173 6.51697e-21)
(0.999903 -0.00022689 -2.59361e-25)
(1.0008 -0.000405917 -2.79826e-23)
(1.00012 -1.94985e-05 6.85742e-24)
(0.994894 -0.000995951 4.09856e-22)
(0.990781 -0.014007 4.77218e-22)
(0.999974 -3.50815e-06 1.0807e-25)
(0.998399 -0.00037769 1.24628e-23)
(0.968755 -0.026202 5.71953e-22)
(0.889851 0.0411576 1.51615e-20)
(1.01565 -0.0348275 4.86149e-23)
(0.989477 -0.0184456 7.75198e-22)
(0.925462 0.151975 6.25293e-21)
(1.00252 0.0476011 1.78496e-20)
(1.10486 -0.0163257 -1.19407e-21)
(1.24599 -0.0735019 2.56173e-21)
(0.916458 -0.00706639 2.32213e-21)
(1.00741 -0.00640505 -2.00191e-22)
(1.0213 0.0848155 -9.89454e-22)
(0.983204 -0.00335858 -8.8852e-22)
(1.14159 0.177145 6.084e-23)
(1.0103 -0.0745658 3.06307e-23)
(1.04067 -0.16563 -1.4427e-21)
(1.20277 0.0841157 2.61719e-21)
(1.155 0.1856 -8.43973e-21)
(0.946184 -0.0384549 2.6821e-21)
(1.06899 0.00860697 -3.19263e-21)
(1.29369 0.125805 2.80235e-21)
(1.17002 0.16107 1.14474e-20)
(1.03834 -0.00425467 1.9108e-21)
(0.99555 -0.00221977 9.01979e-23)
(0.99381 -0.00343422 7.87548e-23)
(0.999869 -3.73181e-05 -2.6365e-24)
(1.02389 -0.0435625 2.03432e-23)
(0.98272 -0.00281565 2.08847e-22)
(1.00151 -0.00356452 -5.26938e-23)
(0.999843 -3.71747e-05 -5.02201e-24)
(0.997645 -0.0010618 3.96986e-23)
(0.96594 -0.114156 -2.02459e-21)
(1.18464 0.00419553 7.26177e-22)
(0.973915 -0.00910386 -1.14293e-21)
(0.998923 -0.0188776 3.41075e-22)
(0.994371 -0.00110484 -2.21598e-22)
(1.08207 -0.0752409 -9.26859e-23)
(0.989449 -0.00232706 -7.07547e-22)
(1.00361 -0.0111848 1.52893e-22)
(1.29354 0.0944368 7.17621e-22)
(0.997284 -0.000507302 -2.84716e-22)
(0.999967 -7.0165e-05 -9.28251e-25)
(0.999922 -0.000274082 -6.15763e-25)
(1.00007 -0.000160003 6.36442e-24)
(0.967583 -0.0118985 5.24208e-22)
(1.05726 0.0355099 -7.68102e-21)
(0.994027 -0.000841134 8.87388e-24)
(1.03518 -0.0157192 1.57561e-21)
(1.02038 -0.188974 2.7583e-21)
(1.01435 0.179829 -7.42229e-22)
(1.00592 -0.0112564 1.38969e-22)
(1.00987 -0.00713504 -6.63725e-23)
(0.992448 -0.00385136 -2.8493e-22)
(0.992086 0.122843 -2.98539e-20)
(0.998451 -0.000201469 4.04108e-23)
(1.18699 0.249577 -4.35628e-21)
(1.01452 0.0330283 -9.3397e-21)
(0.999828 -4.55886e-05 5.88225e-24)
(1.00723 -0.0756644 -1.09396e-21)
(0.995073 -0.00115472 -2.02761e-22)
(0.985435 -0.0910673 3.21926e-21)
(1.00083 -0.000218821 2.79748e-23)
(1.09947 -0.0103824 1.75036e-21)
(1.01049 -0.0248251 -3.71233e-24)
(1.00925 -0.00649931 3.34284e-23)
(0.998752 -0.000244567 -8.01204e-23)
(1.13921 0.0453337 2.87296e-21)
(1.09513 0.054992 1.09425e-21)
(1.00922 -0.099059 1.8122e-21)
(0.969948 -0.0305699 -1.08878e-22)
(0.996869 -0.00566364 -1.10723e-22)
(0.999751 -0.0608287 -1.98884e-21)
(1.23733 -0.00788549 4.77738e-22)
(0.717512 0.107997 -2.75388e-20)
(1.10658 -0.125984 -2.08178e-21)
(1.00776 -0.0119466 -6.25138e-23)
(0.99999 -5.05502e-06 -1.19759e-26)
(0.980129 -0.00744676 -9.20188e-22)
(0.996665 -0.00058438 2.65245e-22)
(1.03753 -0.0291613 8.23911e-22)
(1.00141 -0.154247 -1.10856e-21)
(1.24357 -0.0938403 2.87798e-21)
(0.986394 0.174897 -3.59328e-20)
(1.10825 0.0466938 4.71839e-21)
(1.13927 -0.169303 3.109e-21)
(1.18412 0.101984 1.22253e-21)
(0.999987 0.0558114 3.51984e-20)
(1.02954 -0.00401519 1.36324e-21)
(1.00181 -0.00345624 1.21186e-22)
(1.0664 0.11187 5.20566e-21)
(0.998751 -0.00308365 7.21512e-23)
(0.999731 -0.000254695 5.56383e-24)
(0.972652 -0.00302133 3.17539e-22)
(1.00013 -4.83022e-05 1.72416e-24)
(1.1432 -0.192777 1.52129e-21)
(1.00579 -0.0272855 -9.61232e-23)
(0.977019 -0.052041 1.58446e-21)
(1.0028 -0.00236243 6.21831e-23)
(1.16272 0.0938575 8.36157e-21)
(0.997404 -0.000483207 -2.34893e-23)
(0.999964 -5.61716e-05 -1.29609e-25)
(1.03136 -0.171107 1.55322e-21)
(1.00248 -0.00205205 -3.65886e-23)
(1.15582 -0.0449732 -2.79369e-22)
(0.931674 -0.0225977 4.88268e-22)
(0.900718 -0.0270943 2.38768e-22)
(1.27608 -0.0498383 4.66962e-22)
(1.04486 0.0301441 -2.92634e-21)
(1.03537 0.00847906 1.82249e-21)
(1.0332 0.00820968 -7.08333e-22)
(0.999698 -6.55377e-05 2.00019e-24)
(1.19326 -0.00309219 3.57854e-22)
(1.12841 -0.00145069 1.5565e-21)
(0.999241 -0.000977986 1.85355e-23)
(0.975095 -0.00989429 1.32744e-21)
(1.0009 -0.00031233 -3.11345e-23)
(1.01788 -0.0310295 -5.00684e-22)
(1.01248 -0.0436045 -8.21204e-23)
(1.00665 -0.00207139 6.65845e-25)
(0.998887 -0.00194398 -8.52386e-23)
(1.25852 0.0462499 -1.04214e-21)
(0.999968 -3.35645e-05 -1.72935e-24)
(1.0003 -0.000167302 -8.48674e-24)
(1.00293 -0.00161256 -2.74001e-24)
(0.966243 -0.00515355 8.76481e-22)
(1.02911 -0.0180664 1.08163e-21)
(0.97588 -0.0439186 -2.21096e-21)
(0.958289 -0.00798792 -5.11683e-22)
(1.01716 -0.0947077 1.05223e-21)
(1.04347 -0.201853 -2.98806e-21)
(1.03924 -0.0489704 7.67652e-23)
(1.07547 0.110204 -2.88598e-20)
(1.26458 -0.0820763 -4.93951e-21)
(0.990241 -0.00392925 -3.67873e-23)
(0.789165 0.213273 4.42022e-20)
(0.963918 -0.0839367 3.32616e-21)
(0.990311 -0.0148593 1.48927e-22)
(0.959385 -0.00662397 8.37643e-22)
(0.996675 -0.027692 -8.8288e-23)
(0.968373 -0.00374294 1.34402e-21)
(0.985086 -0.00592557 -2.69228e-22)
(1.04151 -0.0213881 -1.61007e-21)
(1.16386 -0.114744 -8.94368e-22)
(0.999961 -6.53337e-05 -1.50119e-25)
(1.03558 -0.0202999 -1.91401e-22)
(0.999857 -4.54513e-05 -2.83414e-24)
(1.05899 0.195788 6.38331e-21)
(1.25999 0.00922805 -1.07557e-21)
(0.992904 -0.00294226 9.06199e-23)
(0.978848 -0.00265314 -1.21954e-21)
(0.999724 -8.11608e-05 -1.47859e-23)
(1.00144 0.103872 2.17074e-20)
(1.12477 0.200653 1.21639e-20)
(1.19005 -0.0149402 1.99489e-22)
(1.29441 0.0556919 3.4428e-22)
(0.963807 -0.088941 -1.46354e-21)
(0.997216 0.0171729 -3.51163e-20)
(0.999909 -0.00020111 2.44277e-24)
(1.06983 -0.0474349 1.14273e-21)
(0.972087 -0.00230426 -4.85775e-23)
(1.19691 0.0599403 -1.26217e-21)
(0.858094 0.144053 -3.42769e-20)
(1.23526 -0.0177361 -1.99584e-21)
(1.09441 0.0393674 7.55461e-22)
(0.999951 -0.0187083 -6.03261e-23)
(0.999702 -0.000126611 -1.35344e-23)
(1.2789 0.0434344 -1.50742e-22)
(1.24039 -0.118372 1.22669e-21)
(0.998801 0.128091 -5.77717e-22)
(1.14613 -0.0426584 2.77943e-22)
(1.07156 0.0843586 8.62757e-21)
(0.989656 -0.00351002 -1.26487e-22)
(1.00234 0.171868 9.46489e-21)
(1.12746 0.183854 4.16174e-21)
(0.986767 -0.00501033 -7.54587e-22)
(0.988965 -0.00466881 -2.81015e-22)
(1.27341 0.0235829 -1.22336e-22)
(0.89688 -0.0250922 -3.289e-21)
(0.999876 -0.000233296 -3.91135e-24)
(0.98109 -0.00804721 1.18483e-21)
(0.905074 -0.0352299 2.43556e-21)
(0.981068 -0.112146 -4.26899e-22)
(1.01446 -0.00368712 -1.15753e-21)
(1.0127 -0.00888013 7.04577e-23)
(0.999818 -0.000290538 -7.6873e-24)
(1.13704 0.211018 -1.79391e-20)
(1.00049 -0.0170417 9.26196e-24)
(0.999849 -8.96676e-05 2.50652e-24)
(1.02867 -0.0894978 1.4073e-21)
(0.999277 -0.000643221 1.6563e-23)
(0.999672 -0.000112943 1.00648e-24)
(1.00781 -0.0182508 -6.81925e-23)
(1.14345 0.107359 1.25123e-20)
(1.02174 -0.153641 2.10961e-21)
(0.903191 0.143486 1.97311e-20)
(1.0001 -1.43492e-05 -4.88153e-24)
(1.15668 0.106992 -1.27118e-20)
(1.01923 -0.0766592 9.73542e-22)
(0.999889 -0.000286584 -1.11506e-24)
(1.00004 -9.38278e-06 -1.5849e-24)
(1.00431 0.0179886 -1.52677e-21)
(1.12456 0.0940688 4.9852e-21)
(0.994246 -0.00362404 7.85382e-23)
(1.10425 0.0724828 -6.99161e-21)
(1.00004 -3.0215e-05 1.17171e-24)
(1.10881 0.0822357 -9.23723e-21)
(1.16944 -0.203211 4.09441e-21)
(0.986053 -0.00449164 8.29233e-22)
(0.998757 0.0267477 -4.63946e-20)
(0.965094 -0.0704577 2.21051e-21)
(1.2898 0.046415 -8.02268e-22)
(0.961262 -0.00660251 5.17701e-22)
(1.11968 0.0835286 1.20582e-20)
(1.13699 0.0948131 -3.64485e-21)
(0.976344 -0.0122182 1.92591e-21)
(0.969015 -0.0149114 -1.41102e-21)
(0.992756 -0.0148475 4.50147e-22)
(0.995909 -0.00108621 -6.68862e-23)
(0.999709 -0.000282839 1.54123e-23)
(1.00015 -0.0163168 -1.73571e-23)
(1.14209 0.16054 -2.16207e-21)
(0.999959 -5.12933e-05 4.63641e-25)
(1.09425 0.0716554 9.20791e-21)
(1.04015 -0.154541 3.5002e-21)
(1.02487 0.126871 8.06202e-21)
(1.09031 0.0633545 -1.0784e-20)
(0.901203 -0.0330461 -3.01599e-22)
(0.923935 0.18419 -4.00877e-20)
(0.997735 -0.00171278 5.72713e-24)
(1.02366 -0.0401354 1.80989e-22)
(1.06804 -0.118532 1.02995e-21)
(0.96974 -0.00353134 -8.42318e-23)
(0.990818 -0.00494067 3.74917e-22)
(1.01527 -0.0783071 -8.39817e-22)
(1.08208 -0.0373953 -1.11251e-22)
(0.80988 0.130969 5.44961e-20)
(1.00007 -2.82038e-05 5.44656e-24)
(0.997323 -0.00182555 7.59988e-23)
(1.02358 -0.11174 5.50914e-23)
(1.00002 -7.52841e-06 1.95912e-25)
(1.06643 0.210075 3.11291e-21)
(1.00253 -0.00177683 0)
(1.00002 -1.00707e-05 1.55804e-25)
(1.00028 -0.000129714 2.00182e-23)
(1.00058 -0.000181964 3.90823e-25)
(0.978843 -0.0299252 1.47343e-21)
(1.03424 -0.0271991 -5.84205e-22)
(0.997837 -0.00133854 1.19473e-22)
(0.999875 -2.59821e-05 5.21635e-24)
(0.990214 -0.00462727 2.07979e-22)
(1.00683 -0.018982 -4.40656e-23)
(0.986264 -0.162741 -3.00237e-21)
(0.909429 -0.0111997 2.34327e-22)
(1.02814 -0.0161075 1.94453e-21)
(0.999961 -4.12542e-06 1.49103e-24)
(1.11481 -0.218002 4.43736e-21)
(0.981394 -0.00561563 -4.74292e-22)
(1.25577 0.0324324 1.39359e-22)
(1.00077 0.0192783 -5.83015e-21)
(1.00186 -0.00520278 2.76426e-23)
(1.23279 0.0370846 -2.05563e-21)
(1.00022 -0.000139922 -2.19673e-26)
(0.982285 -0.00629654 1.36271e-23)
(1.03808 0.000773215 -3.56393e-21)
(0.990866 -0.00562441 -1.53532e-22)
(1.16268 0.12962 -8.42906e-22)
(0.982166 -0.00982976 -8.96774e-22)
(1.07264 -0.0439991 -1.10216e-21)
(1.03874 0.00158974 -3.84958e-21)
(1.1182 0.0457882 -1.78351e-21)
(1.01101 -0.0228144 -2.6174e-22)
(0.98585 -0.00638889 2.2351e-23)
(1.18052 0.0779343 4.16953e-21)
(0.971417 -0.122318 -2.48804e-21)
(1.03674 0.217786 2.67747e-20)
(0.987507 -0.0072404 -8.76866e-22)
(1.20463 0.168109 -4.21572e-22)
(0.987473 -0.00634583 2.34316e-22)
(0.998387 -0.000768536 -7.76368e-24)
(1.09146 0.0340234 2.27233e-21)
(1.02116 -0.0454136 3.75383e-23)
(1.059 0.000263448 4.98863e-21)
(1.00262 -0.0012338 4.06765e-23)
(1.00002 -8.00022e-06 7.1295e-26)
(1.00204 -0.184489 1.1221e-21)
(1.28249 0.0918712 -2.27875e-21)
(1.0022 -0.00505137 -3.8587e-23)
(1.24308 0.0283304 5.6533e-23)
(0.983153 -0.00917086 -5.88065e-22)
(1.1038 -0.224851 -1.77176e-21)
(1.06481 -0.0670472 -1.40688e-22)
(0.975332 -0.0466594 1.24759e-21)
(0.997675 -0.00149225 -5.06083e-23)
(0.987834 -0.00160277 -1.77072e-22)
(0.96293 -0.104918 -1.39816e-21)
(0.958131 -0.0142404 1.92548e-21)
(0.986706 -0.00591305 6.17789e-22)
(0.999797 -0.000656735 6.54043e-24)
(1.02289 0.236909 -3.40754e-21)
(1.22047 0.0318461 1.09294e-21)
(1.03696 -0.0175108 -6.15342e-22)
(0.99972 -0.000220278 1.03182e-23)
(1.11543 0.174511 -8.45459e-21)
(1.00001 -3.60733e-05 4.50526e-25)
(0.999742 -0.000196562 2.03558e-23)
(1.20936 0.039543 1.63086e-21)
(1.01513 -0.0378522 7.19146e-23)
(1.27217 0.0688816 1.57845e-21)
(1.03652 -0.00483806 1.43581e-21)
(1.02525 -0.0197401 -1.19185e-22)
(1.12149 -0.111718 1.45141e-21)
(1.06516 -0.188579 3.56428e-21)
(1.27261 -0.0545309 2.15141e-21)
(1.00183 -0.00126646 -8.97478e-23)
(0.9344 -0.0246507 -1.85969e-22)
(0.999974 -8.59056e-05 -2.58423e-25)
(1.00735 -0.0165636 5.03093e-23)
(1.16434 0.117008 4.29137e-21)
(0.977616 -0.0114468 1.34609e-21)
(0.996132 -0.00217372 1.05745e-22)
(1.02058 -0.0620231 -6.00473e-22)
(0.997275 -0.00161073 7.29842e-24)
(0.999454 -0.00161384 2.15009e-23)
(0.792967 0.0300693 9.82543e-21)
(0.986751 -0.00778779 -4.95869e-22)
(0.999241 -0.00106631 -6.42327e-23)
(0.999975 -8.96901e-07 -2.80623e-25)
(1.02832 0.0106642 8.00371e-21)
(0.961642 -0.0393832 -2.92994e-22)
(0.999548 -0.000805483 1.89515e-23)
(0.996142 -0.00126442 1.36262e-22)
(1.04163 0.0343688 3.28367e-21)
(1.11076 -0.00122753 4.54198e-22)
(0.945907 -0.0351159 -1.66874e-21)
(1 -2.29598e-05 3.22266e-25)
(1.0018 0.0171547 2.23848e-20)
(0.98067 -0.0260342 -9.97302e-22)
(1.15525 0.0834698 -8.55771e-21)
(1.01886 -0.00185027 -1.771e-21)
(1.02193 -0.00194459 4.05621e-21)
(0.955709 -0.0177325 2.62101e-21)
(0.999866 -9.49609e-05 -1.62731e-24)
(1.03763 0.000339583 -7.29924e-22)
(1.11621 -0.00762694 -4.70863e-22)
(1.26216 -0.0359018 -2.95156e-21)
(1.04876 -0.148558 8.1408e-22)
(1.12923 0.153253 6.21406e-21)
(1.00818 -0.00248944 -2.89689e-23)
(1.19368 0.0749022 -5.6452e-21)
(1.00005 -0.0218722 -1.02338e-22)
(1.02336 -0.08578 -2.3066e-21)
(0.999455 -0.00024259 -2.0742e-23)
(1.0048 -0.029074 1.88944e-22)
(0.999858 -0.000629036 2.06578e-24)
(1.08976 0.0467095 -7.00638e-21)
(1.24848 0.147841 -1.01249e-20)
(0.997951 -0.00176171 4.02151e-23)
(1.02748 -0.020147 1.07702e-23)
(0.975523 -0.00688703 4.62987e-22)
(1.05508 -0.132081 3.93203e-22)
(1.04735 -0.138528 -1.75771e-21)
(0.99741 -0.00127264 7.98078e-23)
(1.06489 -0.0474733 -3.57323e-22)
(0.811424 0.00889538 -1.655e-20)
(1.24766 -0.0469643 -2.6483e-21)
(0.999925 -0.000244159 5.0936e-24)
(1.10248 -0.00292405 -1.57699e-21)
(0.996004 -0.0135328 -2.2119e-22)
(0.990766 0.00468135 3.38125e-20)
(0.983141 -0.00802178 8.16076e-22)
(0.994128 -0.040005 -2.92971e-22)
(1.02461 -0.0555276 -2.26728e-23)
(0.992118 -0.041304 -3.97868e-23)
(0.997999 -0.0319947 -6.69219e-22)
(0.989563 -0.00501033 1.43285e-22)
(0.99876 -0.0216659 3.5288e-22)
(1.00285 -0.00944332 -4.21519e-23)
(1.08284 -0.0430291 2.92942e-22)
(1.00015 -3.59358e-05 -1.31944e-23)
(1.2166 -0.174971 -2.15221e-21)
(1.21139 -0.0747465 -1.22508e-21)
(1.10464 0.221415 1.58201e-20)
(0.948626 -0.0332476 2.52362e-21)
(1.25891 0.0775858 -9.68692e-22)
(1.00278 -0.00095786 1.4491e-22)
(1.08863 -0.119935 -6.40091e-24)
(1.00612 -0.0580697 -7.63152e-22)
(1.04075 0.0648562 9.88111e-21)
(0.99029 -0.00607211 3.56739e-22)
(1.00015 -0.000269603 8.80351e-24)
(0.981678 -0.0271147 1.3009e-21)
(0.993976 -0.0144539 -1.70852e-22)
(1.06131 -0.04321 1.02514e-21)
(0.960359 -0.0109146 -1.63006e-21)
(0.967397 -0.0139117 4.66639e-22)
(1.16712 -0.08891 -5.85235e-22)
(0.979354 -0.00448838 -8.05919e-22)
(1.0208 -0.0576395 4.17932e-22)
(0.983257 -0.118514 1.83889e-21)
(1.00002 -1.20043e-05 1.38976e-25)
(1.08767 -0.0328063 1.89778e-21)
(0.985834 -0.106887 -4.85623e-21)
(1.24608 0.0560467 8.35445e-22)
(1.11987 -0.120447 -2.63974e-21)
(1.05639 -6.14119e-06 4.12905e-22)
(1.03094 -0.149364 -4.39224e-21)
(1.16904 0.215217 3.45444e-21)
(1.04906 -0.0575909 6.20952e-23)
(0.95376 -0.0163793 -1.55113e-21)
(1.01971 -0.0715916 -1.17004e-21)
(0.917089 0.0122951 1.53773e-20)
(1.17947 -0.169891 1.28914e-21)
(0.982195 -0.00745658 -2.48358e-22)
(1.0313 -0.183023 -3.33959e-22)
(1.03403 -0.100722 1.66671e-21)
(1.05119 -0.170998 -5.62254e-22)
(1.05284 -0.122803 -1.95904e-21)
(1.17192 0.0690042 5.87149e-21)
(0.996171 -0.00249942 6.96914e-24)
(1.01762 0.079156 3.81289e-21)
(1.01107 -0.00240427 2.07564e-22)
(0.999459 -0.000815036 -2.73293e-23)
(0.998374 -0.00350341 1.99351e-22)
(1.09254 -0.0107709 -4.75298e-22)
(0.701646 0.010367 4.8381e-22)
(1.00233 -0.0100955 2.00379e-23)
(1.02392 -0.080049 3.26336e-22)
(1.04296 0.0398549 -5.42973e-21)
(1.00004 -1.09043e-05 -2.69102e-25)
(0.970597 -0.0140249 1.12652e-21)
(1.033 -0.015894 1.39544e-21)
(1.10182 -0.0755639 -7.63388e-22)
(1.01127 -0.00120509 1.164e-21)
(0.997808 -0.00313091 3.6369e-23)
(0.976866 -0.0590627 1.14787e-23)
(0.996978 -0.0130135 -6.76106e-23)
(1.00005 -8.87728e-06 2.99459e-24)
(0.96821 -0.0691262 -3.73842e-21)
(1.13927 0.130177 -2.23417e-21)
(1.02778 -0.0490662 1.71876e-22)
(0.976618 -0.00779672 -8.62456e-22)
(1.00253 -0.000653717 -5.19721e-23)
(1.04888 0.0418729 7.13109e-21)
(0.999471 -0.000991907 -1.26487e-23)
(0.998278 -0.00100749 -4.00807e-24)
(0.999502 -0.000265227 -1.88553e-23)
(0.998987 -0.00330482 -4.97204e-23)
(1.25421 -0.025668 -1.15324e-21)
(1.03964 -0.0565157 -3.6417e-22)
(1.01152 -0.0287272 5.104e-23)
(0.975029 -0.0114826 -3.94968e-22)
(1.00006 -7.93573e-05 2.93007e-24)
(1.08883 -0.183275 4.99532e-21)
(1.24837 -0.105212 1.71867e-23)
(1.0945 -0.195566 -2.37871e-21)
(0.995431 -0.0507679 -5.55324e-22)
(1.02001 -0.0145063 1.29695e-21)
(0.999704 -0.000154927 8.53398e-24)
(0.984107 -0.0177686 -5.19219e-22)
(0.941247 -0.0703103 -2.08751e-21)
(1.24059 -0.0380163 4.62996e-22)
(1.02031 0.123326 -2.99118e-22)
(0.998412 -0.00496314 4.06254e-23)
(0.921576 -0.0495008 1.12884e-21)
(0.993455 -0.00429076 -3.41924e-22)
(1.04668 -0.0531732 1.11618e-22)
(1.18625 0.0519649 2.67644e-22)
(1.00061 -0.000207575 -4.43037e-23)
(0.999781 -0.000335078 -3.01451e-24)
(1.27844 0.0295658 -1.7422e-22)
(1.22448 -0.052005 7.85912e-22)
(1.02598 -0.0245081 4.49309e-22)
(0.995906 -0.00272344 1.80197e-22)
(0.997087 -0.000727602 -1.77498e-23)
(0.951242 -0.0715561 5.13211e-22)
(0.999759 -0.000549525 -1.01092e-23)
(1.02439 -0.0513239 -2.27045e-22)
(0.98125 -0.00221172 1.65319e-21)
(1.00098 0.0219083 -4.88637e-21)
(1.15368 0.136195 -1.19457e-21)
(1.0833 -0.111506 1.04397e-21)
(0.991442 -0.107751 1.77707e-21)
(1.00921 -0.00217729 5.76233e-22)
(1.02053 -0.0384623 -2.27389e-22)
(1.20662 -0.0626302 -2.26406e-21)
(0.990438 -0.119319 -1.12487e-21)
(1.02411 -0.0694875 6.73436e-22)
(0.999998 -1.16864e-05 -6.19859e-27)
(1.18497 -0.0714075 -2.1752e-21)
(0.963534 -0.00445896 1.55898e-22)
(0.988754 -0.131911 2.22234e-21)
(1.02728 -0.0452086 -1.60792e-22)
(0.937503 -0.0233742 -3.43581e-22)
(0.999441 -0.000464233 -9.1886e-24)
(0.995844 -0.00203557 -8.03752e-23)
(1.08149 0.0624666 8.34149e-21)
(0.957985 -0.0166118 -5.88464e-22)
(0.999978 -3.37498e-06 3.00316e-25)
(0.995996 -0.000845987 -1.88084e-22)
(1.18037 -0.153746 -7.06447e-21)
(0.999767 -8.0865e-05 2.13865e-23)
(1.02848 -0.0776836 -2.51461e-22)
(0.999931 -0.000193977 -4.21533e-25)
(1.00953 -0.0213056 -5.5712e-24)
(0.98646 -0.156203 1.38865e-21)