/*--------------------------------*- C++ -*----------------------------------*\
  =========                 |
  \\      /  F ield         | OpenFOAM: The Open Source CFD Toolbox
   \\    /   O peration     | Website:  https://openfoam.org
    \\  /    A nd           | Version:  7
     \\/     M anipulation  |
\*---------------------------------------------------------------------------*/
FoamFile
{
    version     2.0;
    format      ascii;
    class       volScalarField;
    location    "37";
    object      p;
}
// * * * * * * * * * * * * * * * * * * * * * * * * * * * * * * * * * * * * * //

dimensions      [0 2 -2 0 0 0 0];

internalField   nonuniform List<scalar> 
29540
(
0.00940015
0.134266
-0.00964569
-0.0385847
-0.00277266
-0.0394252
-0.0329614
0.00820924
0.0022787
0.000198338
0.00389865
-0.00554052
-0.000569033
-3.35519e-05
0.0814974
-0.00663826
-0.000223855
0.00819396
-0.00244421
-0.0114005
-0.000994606
0.00214329
-0.00981503
-0.00240824
0.567958
0.133391
-0.000610605
0.469086
0.0684207
-0.00193665
0.0176937
0.0560873
-0.0633215
-0.00814599
0.477003
-0.0102873
0.139401
-0.0289715
0.00649732
0.0062275
0.000483932
-0.0193026
-0.00020119
-0.031442
3.08756e-05
-0.00177892
-0.00497104
7.36835e-05
0.00372133
0.135589
-0.0574246
-0.0338203
0.0582259
-0.03791
-0.00650488
0.0676495
-0.00390853
-0.00102636
-0.00599736
-0.0242326
-8.03345e-05
-0.00237949
-0.0947036
-0.00921021
0.230844
0.535493
-0.0100073
-0.00952145
0.509296
0.000507239
0.131946
0.387669
0.00241341
0.527675
-0.00855467
-0.0246983
0.0301964
-0.0254451
-6.00906e-05
-0.0203049
-0.034699
0.182886
0.00939064
-4.62906e-06
-0.0311173
-0.175589
0.264355
-0.000591692
-0.000549442
-0.0494644
-0.0268765
-0.0258401
0.00340806
0.0491214
-0.0509352
0.265725
-0.0356735
0.000522542
-0.0438523
0.11296
-6.34496e-05
-0.0240962
-7.74889e-05
0.0348245
-0.034445
0.109013
0.327288
-0.000528793
-1.48077e-05
-0.0651032
-0.0621242
0.00346541
2.52761e-06
-0.00178816
-0.000192408
0.376814
0.195182
-0.0123629
1.87276e-05
0.00287303
-0.176637
0.143998
-0.0705695
0.530927
0.00124096
-0.0509126
0.0129332
-0.0210826
0.00456212
1.94536e-07
-0.0295451
0.0165493
0.363039
-0.0897608
0.0345338
0.017218
0.276127
-0.0245331
-0.130118
0.105188
-0.0443696
-0.0429661
-0.0450664
1.87827e-06
-2.83336e-06
-0.00283025
-0.00466954
-0.0491744
-0.107443
-0.0864182
0.0271313
0.0128097
0.000471475
-0.000167422
0.195069
0.000552263
-0.00869307
0.252023
0.237768
-0.057477
-0.0333042
-0.0375493
0.0738631
-6.35464e-05
-3.10243e-06
-0.0124593
-0.0433938
4.61503e-05
-6.06681e-06
-0.00767469
1.43959e-05
0.00631329
0.256996
-0.0239918
-0.0623179
-0.00552538
0.00232748
-0.0251482
-0.00146819
-0.0664746
-2.02443e-05
-0.00770049
0.260703
-0.00879831
-0.129459
0.192224
-0.00688461
-0.0188361
0.00430426
-0.0019688
-0.000332147
0.00128972
0.541308
0.191707
-0.0144614
-0.00832371
0.447209
0.170521
-0.0505696
0.00129528
-0.0529896
-0.0531119
-0.00537324
0.000941249
0.270891
-0.0073593
0.00771061
-0.0484448
-0.0668047
-4.09497e-05
0.411134
-0.00118388
-6.78452e-06
-0.000638001
-0.0260414
-0.0805626
-0.00647282
0.00751066
-0.00239164
-0.05122
1.97209e-05
0.000485557
-0.00258325
0.0897895
-0.003205
-0.00168898
0.0591341
0.000124153
2.86318e-05
0.00595115
-0.0298824
-0.0222271
-0.00516344
0.130387
-0.0153977
0.0136928
-3.49799e-05
-0.00334114
0.000878973
-0.0501471
-0.10134
-0.00156762
0.000503473
-0.00174399
0.00305161
-0.0110163
-6.07746e-05
-0.17101
3.5567e-05
0.0913437
-0.00377163
0.000144699
0.110975
-0.0523302
0.000270717
-1.96992e-06
-0.0429953
-0.097611
-0.00952687
-0.022609
0.0268222
0.249234
7.77577e-05
-0.0281567
-0.107257
0.459124
-0.00878762
0.189065
-0.0201122
-0.000318833
0.651224
-0.000633448
-0.0645516
-0.0506849
0.00250714
-0.0613326
-0.00883978
0.366859
-0.00385647
-0.0187368
-0.000334279
0.169408
-0.00372875
0.272132
-0.000592602
-0.00636283
0.438511
0.0766119
0.0590966
-0.0333751
-0.000184134
0.00298289
-0.000235162
-5.35798e-06
0.0780279
3.68445e-05
-0.0202396
-0.109315
0.575789
0.359324
-0.0462243
-0.0208308
-0.0211234
0.00456051
0.00223905
-0.0191688
-0.049388
0.255614
0.392452
-0.00145655
0.320874
0.0756962
-0.0732354
0.0119778
-0.0025111
-0.0157873
-0.00590117
-0.00294509
-7.27748e-05
-0.00228189
-0.00964707
0.174455
0.00181926
-0.027739
0.0138649
-4.57658e-05
-0.0477422
0.60676
-0.00696476
-0.00169002
0.01281
-0.0189504
0.0904037
-0.00174768
-4.24433e-05
2.2092e-06
-0.0029644
0.441711
0.0191857
-0.104941
-1.23268e-06
-0.103361
0.0494469
-0.00561169
-0.0469553
-0.00154698
-0.000517656
-0.0260098
0.00104124
-0.0681584
0.0120703
0.0128777
-0.000263238
0.00188604
0.142967
-0.17362
0.000460835
0.000490586
0.371078
-0.0271656
-0.00186789
0.179358
0.468128
-0.0683815
-0.00923586
-0.0731075
-0.000892185
-0.00916348
-0.00377527
0.166498
-4.58486e-05
0.0116013
-0.114467
0.370923
0.517744
-0.00668998
-0.00977665
0.241124
-0.0251299
-7.05167e-05
-0.0399619
0.0951426
0.0969516
-0.00836986
0.0295942
0.46015
-0.118924
0.412547
0.378355
-1.24737e-05
-0.00839418
-0.107589
-0.00338763
0.00186021
0.472863
0.018971
0.000316158
-0.037915
-0.0540045
-0.00624003
-0.000155544
0.273361
0.191093
3.89944e-05
0.00472722
0.00626394
-0.126586
-0.0333993
5.6156e-05
-3.16375e-06
0.000566293
0.0963893
-0.0287228
0.292277
-0.0495537
-0.0202964
-0.0219663
0.175028
-0.0826469
-0.00141471
0.00934288
0.000970835
0.41452
-0.0265347
0.00126017
-0.00826427
-0.0420805
-0.00193189
-0.0135215
0.000260998
0.000266995
0.616108
-0.00895155
-0.00576506
-0.000579394
-0.000871388
0.233257
-0.116646
-0.0285375
4.61918e-06
-5.33112e-06
-0.0273671
-0.00753199
-0.00585486
0.0199965
0.00717905
-0.00361089
-0.00845312
-0.0186924
0.404269
0.00359724
0.000277547
-0.045682
-0.0266189
-0.0427636
-0.00400906
-0.0282384
-1.92597e-05
0.507598
0.0229368
8.35394e-05
0.541487
-0.0292773
-2.05244e-05
0.00169733
-0.0471855
0.00517893
0.0452056
-2.19693e-06
-0.00879075
-0.014219
-0.00606254
-0.000570281
-0.00908649
0.452652
-0.0094458
-0.013123
0.205028
-0.00322103
0.431116
-2.26316e-05
-0.0187573
-0.0524377
-0.0278576
-0.11863
-0.00185485
0.00011715
-0.00019905
-0.0207303
0.00110524
-4.30963e-05
6.18883e-06
-0.00704198
0.405332
0.00697144
0.00290944
-0.0502065
-8.01629e-07
0.00114966
-7.19559e-05
0.00965211
-0.0189333
-0.000474458
-0.00933545
-0.0135394
0.00120931
-2.39748e-05
-0.117412
-0.000521163
0.0431152
0.338173
0.247362
-0.00578765
0.00704967
0.030447
-0.000132498
-0.00435393
-3.78543e-06
0.382362
-0.0152096
0.0197142
-0.0180795
0.00149653
-0.003712
-0.000139749
7.55443e-06
-0.0055792
0.0452334
0.241539
0.00146352
-0.0417678
-0.0260343
-0.00879809
-0.0815961
-0.00156559
0.000632207
-0.00633879
-0.000129992
-0.0486023
0.272153
0.178809
-0.0238411
0.265627
8.48386e-05
3.79235e-06
-0.0340058
-0.0536779
0.52787
-0.0502722
-0.0222053
-0.0350954
0.00139588
-0.00661459
0.000539814
-0.0116443
-0.0142146
-1.0265e-05
-0.00107201
0.366797
-0.000189929
0.488775
-2.9012e-06
-0.151201
0.0393568
-0.00438884
0.00123995
0.000210495
0.396694
0.045508
-0.0533677
0.186934
-0.0081666
-0.0142153
-0.00468259
0.171258
-0.0272413
0.00678689
-0.00894046
-1.41529e-07
-0.00154974
0.00683524
-0.0187733
-0.0233345
-0.0427181
-0.0189589
0.119339
-0.00252199
-0.0500809
-0.0147065
2.99464e-05
-0.0129622
0.00359627
0.121575
-0.0285368
-5.56884e-06
-0.0196617
-0.0011436
0.0016581
-0.122454
0.291535
0.00107202
-0.0128182
-0.0541553
0.0790633
0.441811
0.0021468
-0.00640436
0.192756
0.158844
-0.0176759
0.00585559
-0.0462841
-1.5908e-06
-0.0387876
9.10584e-05
-0.0522065
-3.85704e-05
2.30012e-05
-0.00831346
-0.0949398
0.330387
0.00358542
0.0129717
-7.6001e-07
-0.00720416
9.64749e-05
-0.00378189
2.33065e-05
0.0491823
-0.000585945
0.171528
-0.000164322
-0.0136583
-0.0347805
-0.00489413
0.438454
-0.0173613
-0.0610239
-0.00647579
0.0519994
-0.0455049
0.0333949
-0.0305335
-2.20431e-06
-0.00683545
-0.00457851
0.000286707
9.19192e-05
0.16717
-0.00568096
0.08658
-0.00615106
0.00102796
0.0365128
0.000186435
-2.41586e-05
-0.0381673
-0.00405748
2.70934e-05
0.223215
0.581443
-0.000266396
-0.0336065
5.46898e-06
0.469704
-0.161933
-0.0378246
4.00735e-05
0.00770628
0.0646674
0.07633
0.0436992
-0.000487929
-0.000203332
-0.0167091
1.56182e-07
2.05734e-06
-0.0276299
-0.0351934
-0.042108
0.554476
0.00022904
-0.040675
0.00910851
-2.19033e-05
-0.00153618
2.77587e-05
-0.00723099
4.44014e-05
-0.0291178
0.0322754
0.424824
0.0504584
-0.000349429
0.000533501
-0.129615
0.0847466
-0.00364664
8.41196e-06
0.182516
-0.122399
-0.0489262
-0.0149397
-2.70304e-05
-0.000345156
-0.125678
-0.0260366
0.144446
0.401771
-0.0597352
-0.00151888
-2.13437e-05
-0.0442779
-0.0623722
-0.000256452
0.00138947
-0.0171066
-0.00542163
0.392897
-0.00156749
-0.0107941
0.0426349
-0.00864844
0.530784
0.532099
-4.2213e-05
-6.27334e-05
-0.017068
0.0185821
-0.0327662
0.00627151
-0.00837206
-0.00070494
0.453127
0.167108
0.00268926
0.643644
4.27821e-06
0.109458
-0.0599837
-0.0406333
9.94742e-05
-0.033835
0.11402
0.0177383
0.0687217
-0.000555027
-0.000595843
-0.0109908
-0.00402609
-0.0146806
-0.00132899
0.109989
-0.00750518
-0.00613427
-0.050301
0.363431
-0.0160521
0.0358528
-0.000497178
-0.000630506
-0.021312
0.00117838
-0.00302418
-2.59131e-05
-0.000421732
0.114432
0.39827
-0.000163441
0.111018
-1.16835e-05
-0.00389912
-2.0374e-05
0.00644545
-0.124256
-5.28596e-05
-5.49578e-05
-0.0509832
6.84932e-07
0.0443191
-0.0271101
-5.85588e-05
0.163522
-5.62834e-06
-0.000493165
-0.000114436
-0.00587821
-0.000485292
-0.00694773
-0.0695184
-0.000432822
0.00506016
-2.45233e-05
0.323715
-0.0116273
-0.0188956
-0.0307993
-0.0227973
-0.00142275
0.00346957
0.208908
-0.0275283
0.141673
-0.0373724
-0.00402716
-3.33765e-06
-0.00653075
0.359418
0.181707
-0.0375248
-0.0452849
0.310131
-0.00931789
-0.0553753
-2.0037e-05
-0.0281544
-0.000999734
0.623335
-0.048661
-0.000111783
-0.0494808
-0.0282535
0.245109
-0.00298738
-0.0292502
-0.00465031
-0.00776965
-0.0015231
0.24467
-0.0993141
-0.0200447
-0.0158796
-0.0135208
0.0066701
0.303807
-0.0191684
0.188721
0.00323134
-0.122071
0.499302
-0.00945245
-0.000285871
0.240784
0.372238
-0.00962972
-0.00734565
-0.00781846
-0.0305083
0.195209
-0.0437801
-2.92822e-05
-0.00815279
3.4811e-05
-0.00508174
-3.11136e-05
-0.00578413
-0.00114673
-0.00369632
-0.123893
-0.000723429
-0.000608933
-0.00137167
0.202356
-0.0023969
-0.00373052
-0.003521
0.162113
0.00611948
-0.000466208
0.356654
0.524567
-0.0197108
0.452537
-0.0174274
0.336651
0.00634192
-0.0186534
0.00296995
-0.000549175
1.48e-05
0.00292314
-0.0123771
-0.0195744
0.183343
-0.0224957
-0.0198881
-0.00107013
-0.122956
-0.0254765
0.0074857
-4.4858e-06
0.0046255
0.021648
0.377481
-0.00649079
-0.0135247
0.142414
-0.000428794
0.03986
-0.01778
0.000653479
-0.0490277
0.00268582
0.337944
-0.00230783
-0.00062226
-0.000159823
-0.0518497
-0.00149729
0.628389
0.64979
0.0134016
-4.3479e-05
0.00921534
-2.12249e-05
0.0478921
-0.000614291
0.0235285
0.565555
-0.0368149
1.59009e-05
-0.00833019
-1.57921e-05
-0.0976326
-0.0322867
0.458519
0.000241345
0.0128916
0.002054
0.000303076
-0.00243994
-0.000342722
-0.00618856
-0.0372316
-0.0224338
0.00498228
0.158723
-0.0131766
0.00674117
-0.0198326
-0.0020406
-0.0266109
9.78111e-06
4.14845e-05
-0.0023177
0.0289242
-0.0341435
-0.0161786
-0.00377427
0.00284922
-0.0338009
0.18985
-0.0124242
-3.61291e-06
-0.0460759
0.419861
-0.0845041
-0.0118705
0.0351591
-9.96539e-06
-0.000723161
-0.0272276
-3.49032e-05
-0.000479565
-2.15932e-05
0.645025
0.00926679
0.00374318
1.4052e-07
1.65558e-06
-1.29844e-05
-1.38228e-06
-0.0213856
0.373185
-0.0323742
-0.000523293
-0.000175555
-0.00591904
0.457972
-0.050689
0.409719
-0.00399065
0.138644
-0.000132893
0.45209
-0.0022535
-0.00923597
-0.00945271
0.00606749
0.00738046
0.181784
-0.0368825
0.445182
0.268419
-0.00828282
-0.0280135
-0.0109346
-0.0275343
-6.63455e-06
-0.000952031
0.00275903
0.0683842
-0.00645523
-0.0215084
-0.00332762
0.548612
-0.069601
-3.63395e-05
-3.10447e-05
0.465398
-0.00483139
0.00108436
-0.0125125
-0.00222865
-0.0147549
-0.00942955
-0.0858505
0.0267267
0.00102919
-0.00968699
-0.0137552
6.77206e-05
-0.00558977
-0.00164004
-0.00760276
-2.9645e-05
4.49981e-05
-0.0226155
-0.0193498
0.440559
-0.0363562
-0.000211857
-0.0015166
-0.000316575
0.35461
-0.0778355
-3.69886e-05
-0.0287246
-0.00435493
-0.00350781
-0.0263858
-0.0293294
0.0063879
0.0506488
-0.0612973
5.73609e-05
0.00568757
-0.0123116
-1.13112e-05
-6.548e-05
0.11021
0.0794797
-0.0604436
-0.0414056
-0.0499622
0.000490785
0.477981
5.67294e-05
-0.0182401
0.388705
-0.0157487
-0.0334018
2.7865e-06
0.000133246
-0.0334525
-0.00869534
0.00130005
-0.0283468
0.224364
0.228943
0.000633605
0.00022462
0.185307
-0.0115886
-1.17437e-05
-0.00142382
-0.0251651
-0.0206244
-0.0108111
-0.00274631
0.120884
1.06185e-05
0.0706792
0.262542
2.41728e-05
0.00547422
-0.00042981
-0.0802782
-0.012363
-0.000634996
0.0252422
0.000169381
0.214433
0.00129462
0.0193734
-0.00933768
0.57532
0.361468
-0.0445436
-0.00640784
2.70277e-06
-0.103978
-0.0114919
0.134762
0.298294
-0.0283939
-0.0321441
-0.0136581
-0.00530336
0.135262
-0.000178059
0.44396
0.0205566
3.7633e-05
2.52735e-05
8.00114e-05
-0.0104081
-0.0142711
0.00057364
-0.00521052
0.0809051
-0.0412277
0.000333256
5.14835e-05
-0.0188837
-3.61507e-05
-0.00231973
-0.00917046
-0.000636137
-0.0399696
0.00327213
-0.00110728
-0.00301707
-0.0127463
0.361873
0.371683
0.0301855
-1.11723e-05
-0.000448669
0.238291
-0.000375256
-0.116728
-0.000170425
-0.0156919
-0.063298
-0.000180188
-0.00019257
-0.0262498
0.0010456
-6.32956e-05
-0.00105886
0.175484
-0.026504
-3.65472e-05
0.0815093
0.338215
0.349805
0.000475844
-0.101628
-0.0071664
0.41659
-0.0513585
-0.0526607
-0.0153239
-0.00977949
0.0219598
-0.0192591
0.350309
0.0514125
-0.000145696
-0.0395142
-0.0494857
-0.00298804
-1.45998e-06
-0.00144783
0.200946
-0.000164246
-0.0117823
-0.00312879
-0.000923116
0.00683736
0.0231874
-0.000149904
-0.00010312
-0.00686437
-0.0811091
-0.0270636
-0.0575978
0.233211
-0.00233161
-0.000224331
-0.0285805
-0.018159
0.00704909
0.0103606
4.05455e-05
0.0599627
0.127247
0.0148218
0.0186093
-0.00049884
-0.010012
-0.0941176
0.000999386
-5.98204e-05
-0.00724557
-0.00305943
-0.000580355
-0.00867153
-0.00066566
0.182435
-0.00683497
-0.108423
-0.0182233
-0.00805035
0.0090662
0.467408
-0.031117
-0.000105828
0.449731
0.147101
0.00593219
-0.00441664
0.00574419
-0.0603527
0.145774
0.000257786
-0.00283458
0.566381
0.280762
0.292902
-0.0329816
-0.00107747
-0.00094742
-3.54992e-05
-0.00100904
0.248331
0.0691784
-0.013965
-0.00597802
-0.000290876
-0.0781441
0.540197
0.392243
0.0659529
-0.0021604
-0.0437497
-0.00471049
-0.000565639
-0.0190312
0.00678752
-0.0198977
-0.00268075
0.000656911
-0.070489
-0.0807559
0.0238041
-0.0185532
-0.0052801
-0.0187653
-0.000162193
-0.00526185
-0.000538521
0.319314
2.8172e-05
1.24332e-06
-0.0291248
-0.0144425
-0.0207471
0.030271
1.71771e-05
-0.0659159
0.0457034
0.180877
0.61078
-0.00350211
-0.107677
0.0226946
-0.0015887
-0.00874707
-0.000467351
0.00782224
-0.000153072
0.215508
-0.128424
0.00806405
0.0836899
0.102414
0.00107596
0.00166656
2.13222e-06
0.410525
-3.09053e-06
-0.0319593
0.000245376
0.00120937
0.158556
0.0853076
-0.0593091
-0.0277687
-0.00313223
0.650308
-0.0584353
2.65059e-06
-0.0114669
-4.29359e-05
-0.0155101
0.0872387
0.18443
0.00066759
-0.0252158
-0.00698647
0.13487
-0.0827681
-0.0233229
0.551511
-0.00734769
4.49801e-05
-0.136782
0.575564
0.000881764
0.079345
-0.0323969
0.11244
0.00142049
0.0180953
-0.050646
0.0033805
0.0434646
-0.0294109
0.129902
-0.0189647
-0.0142804
-0.000615147
-0.000619205
0.495818
-9.4241e-06
-0.00465119
-2.80735e-05
-0.00599892
0.000258185
-0.00546456
0.206116
-2.63204e-06
-0.000776727
-0.0671895
-0.119083
-0.019381
0.00083416
0.402449
-0.0451112
0.15719
-0.008709
0.140693
0.00455507
-0.000575537
-0.127118
0.000574207
0.508264
-0.0205124
-9.96312e-05
0.00170193
0.128891
-0.00828368
-0.000539576
-0.000108319
-0.0753795
-0.00194967
-0.00739376
-0.0566167
1.1538e-06
-0.047367
0.000289515
0.34265
-0.00773212
0.134393
0.00313178
-0.00278696
0.24546
-0.0543534
-0.141631
-0.0033009
-0.0793627
0.254296
0.268697
-0.0103379
-1.97278e-05
-0.0113783
0.00347311
1.54897e-06
0.0100612
0.377185
0.00951598
0.0011937
0.0025688
-0.0481464
-0.000135503
0.0568112
0.0344138
0.0526069
0.00997949
0.0208636
-0.00030229
0.163303
-0.128976
-0.123232
-0.00076452
0.00983852
0.126693
0.000601252
-0.0491852
0.203475
-0.0353469
-0.0502536
-0.0496016
-0.098623
-0.0978891
0.041677
0.208843
-0.0956597
-6.32129e-06
0.000579967
-0.0725294
-0.00135156
-0.00162369
-9.20986e-06
-0.00426984
0.0029952
-5.87278e-05
0.0465454
-0.000400064
0.107276
-0.025225
-0.0061926
-0.00512723
-0.00630229
-0.051425
-0.00433994
-0.00082076
0.0162934
0.0633098
0.00308008
-0.0237752
-0.00222776
0.0216499
-0.00699284
-0.0140945
-0.0497502
-0.0116265
-3.26164e-05
-0.011168
0.447091
1.72721e-05
-0.00708468
-0.0534451
0.54054
0.0382748
-0.0327489
-9.52275e-07
0.00126524
-0.0666919
-1.66395e-05
-0.00204099
-3.69021e-06
-0.0576288
0.00339494
-0.0727987
-0.0166846
-0.00010272
0.261305
0.25355
-0.0260694
0.000336711
-0.000140403
-6.60088e-06
-4.90695e-05
0.480246
-0.00100579
0.00172113
0.0167597
0.000714446
-0.000461073
-0.0502174
-0.000210623
0.0326438
-0.00013925
-0.00158889
-0.000573754
-0.0185452
-0.0299625
0.159433
0.047207
-0.000132238
-0.00977761
0.000400164
-0.0847593
-0.000533457
0.107064
-0.00913621
0.644071
-0.0164448
-0.00110838
0.0614348
-0.0139812
0.337414
-0.0303915
-0.00831897
-0.00961273
0.0141977
-0.00276666
9.77193e-07
-0.00625035
0.293208
-0.0309704
-0.00245861
-0.0297316
-0.0195684
0.13892
-0.00039837
0.260516
-0.00560154
-0.0500774
-0.000416407
0.0100728
0.0352487
-0.0103591
0.31278
-0.00037089
0.0260693
0.0740986
0.000348488
-0.000114611
0.527625
0.0398586
-0.00142995
0.0226511
0.00768456
8.66525e-05
-0.0874062
-0.0165335
-0.106871
-0.00818867
0.326866
0.0029245
0.0689231
-0.000314341
0.392115
-0.0486764
-0.0039967
0.00472859
0.0246025
-0.0545189
-0.119041
-0.00642884
2.84736e-05
0.589196
-0.0165308
0.000612148
-0.0557491
-0.0283686
0.322334
0.00227337
-0.0120907
-4.71593e-05
0.0206333
0.00609256
-0.0275963
0.00060528
-0.00266224
-0.020378
2.36437e-05
-0.0372216
-0.00121688
-0.0110512
-0.0455628
0.280519
-0.00771207
-0.0214856
-0.0472125
-0.024566
-3.38429e-05
0.000100048
-0.00294622
2.47362e-05
-0.00836512
-0.113025
-0.00159519
-6.38291e-06
0.520284
0.00381027
0.000238884
-3.82279e-05
-0.00165668
0.307352
-0.0369406
0.590829
0.174572
0.0168414
0.272378
-1.05662e-05
-0.0113565
-0.000664676
-0.00191583
0.183586
-0.00785284
0.587532
0.243433
-0.0413521
0.259561
0.00619137
-0.010771
0.00170029
-0.052826
-0.0030513
-0.0372339
-0.0392176
-0.00234135
0.253632
-0.00754514
9.90624e-05
-0.00332309
-0.000528802
-0.0243863
-0.000138145
-0.000989183
-2.33834e-05
0.147033
-0.12157
0.262393
0.0206824
-0.00213965
-0.0271779
-0.0154114
0.0616414
-0.00237246
-0.00083718
-0.0459235
-0.033594
0.00334914
-0.0306179
-0.00347007
-0.00257203
0.000701095
1.79293e-05
0.12132
-3.91701e-05
0.0469747
-0.000641823
1.98889e-06
0.00152212
-0.000536883
-0.000959015
-0.0123086
0.142352
0.137437
-0.0149332
-0.00962107
0.00221469
-0.00392849
-0.00777216
-0.000114613
-0.000395958
0.000518151
0.101296
-0.00693413
-0.04255
-0.043388
-0.00205641
-0.0216575
-0.0161059
-0.00134439
0.00404621
-0.0094352
0.229559
-0.0542857
0.00373128
0.000373641
-0.0286881
0.578885
-0.00768252
-0.0052211
0.00594199
0.0699753
0.00307249
-0.00891959
0.254967
-0.000297866
0.0345825
-0.0193688
-0.0493792
0.0048989
-0.00293171
-0.00426945
0.0329556
-0.00281554
-0.000502869
-0.00428622
0.0018909
-0.000194458
0.0171682
-0.00720259
-0.00160181
-1.00801e-05
0.148907
-3.98804e-05
-0.0262009
0.0673175
-0.0203542
9.12428e-05
0.100395
-0.0396956
0.162516
-5.35062e-05
-0.00312127
0.0165331
0.000126129
0.00378775
-0.00351993
0.00811037
-0.0156749
-0.0237694
-0.00751885
-0.00210071
0.00765018
0.0164042
-0.0841078
-0.000155195
0.105201
-0.0293928
-0.002612
-0.00535793
0.000300472
-0.0562576
5.14023e-05
0.452349
0.187243
-0.000394559
-0.0163375
-1.36171e-05
-0.00171074
-0.00481882
-0.0175047
0.149925
0.0872598
-0.0074902
0.00786636
-0.0508829
0.0257292
-0.0211848
-0.0275786
-0.0367201
0.00858472
0.188353
-0.00732617
0.379217
-0.000735358
-0.00830455
-0.0397345
-8.30166e-05
-0.000601773
-3.43037e-05
0.376195
-0.00788995
0.000193092
-0.0117998
-0.00511465
-0.000263822
-0.00998437
0.255269
0.00071144
0.00835977
-0.0251198
-0.000416663
-0.00354844
-0.000638996
0.596956
0.000151657
1.76286e-05
-0.00158077
-0.0112988
-0.0256073
0.000402235
0.000245567
0.0640762
-0.000135774
0.00151495
-0.0508428
-0.0660389
-0.0489561
4.68545e-07
0.000245258
-0.0254626
0.0243751
0.301719
0.0811426
-0.0246018
6.21906e-07
-0.0470348
-0.00202256
-0.00954758
-0.00924355
0.166192
0.431519
-9.00913e-05
0.136845
0.22526
-0.00733867
-0.0328064
-0.0192333
-0.0151881
7.54285e-05
-0.0289552
-0.00665546
-0.000108627
-0.000434003
-0.00122937
-0.00146429
-0.000530526
0.292507
0.304957
0.141285
-3.55584e-06
-0.0170631
-0.0425318
0.0925836
0.458866
-0.000384126
-0.014903
-0.0135819
0.264701
-0.0141687
-0.0073982
-0.0292952
0.141254
0.000215984
-0.00040443
-0.0200253
-0.0407246
0.0991182
0.00582333
-0.0346375
-0.0189747
-0.0591573
0.0146743
-0.0368299
0.00532915
-0.105606
0.0658182
-0.000278184
-0.00049221
0.0535725
0.000145728
-0.00694874
0.0249715
-1.13698e-05
0.219008
-0.00816348
-0.00337634
0.61652
-0.0263994
-0.00932193
-0.0281218
-0.00225001
0.427324
0.000859619
0.581494
-0.000112649
-0.032411
0.591408
0.00523165
0.424262
-0.00433772
-1.10938e-05
-0.0251262
0.42903
-0.00121842
-0.00500873
-0.0061016
-0.000774382
-0.0160251
0.435426
0.0842534
-2.24386e-07
0.014656
-0.00283665
0.0229254
-0.000691393
0.018126
-0.00198817
-0.000378199
0.411725
0.443509
0.417289
-0.0361804
-0.0942111
9.94627e-05
-0.0389574
0.270273
0.00986308
0.000170682
-0.0632507
0.00043506
-8.63182e-05
0.442201
8.66733e-05
0.00317234
-0.00148004
-0.00703372
0.42215
0.434122
0.450751
0.00900404
0.000352137
0.192089
0.00581165
0.0134833
-0.00680069
4.77404e-05
-0.00224766
-1.8377e-05
-0.00344444
-0.000577798
-0.00444093
-6.09757e-05
0.131089
0.00160619
-0.0604548
-0.0069887
-0.0480249
-0.011941
-0.000599465
0.328199
-0.00798684
-1.59816e-05
-2.68295e-05
0.571111
1.87295e-05
0.00869397
0.03937
-0.0130921
0.277449
-0.00394677
-0.0300996
-0.0262126
-0.000425382
8.7276e-05
0.24362
0.446547
-0.00117689
-0.0178065
-0.000185406
0.438388
0.547491
-0.00110025
-0.00500202
0.01491
0.00225386
-0.0177546
4.17396e-05
0.00774825
-0.0270213
0.0395417
0.326435
-0.00115501
0.0222718
0.0346489
-0.0284242
-0.0308377
0.0216466
0.529825
0.151435
-0.0359519
0.443452
-0.000458292
0.458033
-0.00599089
0.365672
0.0528962
-0.00380978
0.0209222
0.00182754
0.0135692
-0.0483738
-0.000515007
-0.0168163
0.359429
-0.0194234
0.0118754
-0.0011321
-0.0820665
0.143185
-0.00685657
-0.18075
0.000523743
-0.00276287
-0.0172121
-0.00162875
0.00146542
-0.00652592
-0.000386756
0.00183814
0.361883
0.00156505
-0.0114868
-0.0418181
-0.020959
-0.0423479
-0.0673706
0.0031575
-2.28575e-06
-1.60205e-05
0.231013
-0.0483695
4.04306e-05
-0.0810297
0.155095
-0.0425465
-0.0108828
8.10392e-05
-0.00143593
-0.0317254
0.103938
-0.00709184
-0.000369762
-0.03164
-0.014591
0.594768
0.0923655
0.0502776
-0.0391877
-1.49498e-06
-0.00495343
0.0512428
-0.000290738
1.20884e-05
0.140912
0.076342
0.000454331
-0.000655656
0.00356486
-0.0327766
0.00762354
0.00555405
-0.0108812
3.55414e-05
0.227258
0.000426484
-0.000501045
-0.000183055
-0.000170683
-0.000123689
0.0654779
0.000665939
-0.00208132
-0.00693889
-0.00374155
0.0214302
-0.00396871
-0.0287465
-0.00753431
0.395626
0.317397
-0.000374747
-0.00110725
0.0736108
-0.000616977
-0.0168288
0.0158285
-0.0368631
-0.000725479
0.0156463
0.0307869
0.00093368
0.0416776
-8.33219e-05
0.00556416
-0.0323957
0.0102011
-0.0105461
0.0380747
4.86612e-05
-0.000678258
0.000190388
-4.13373e-05
-0.00122944
-0.00696916
-0.00911447
-0.0206079
0.0107057
0.0257092
0.00686749
-0.0505601
0.00681909
0.00269611
0.00960912
3.90237e-05
0.436692
-0.00594896
-0.00238042
-0.0544162
0.602908
3.8256e-06
-0.00930791
-5.45214e-06
-0.0616061
-0.00461237
-0.0156835
0.140174
-0.002875
-3.92671e-05
0.0743946
0.056688
-0.000412044
0.0392355
-9.12937e-06
0.135919
0.003701
-0.0199045
-0.000112422
0.194418
0.0213134
-0.014108
2.18636e-05
0.140293
0.278844
-0.000816173
-3.29866e-05
-0.0252013
-0.00634216
-0.00277586
0.0113632
0.460156
0.244184
0.000335647
0.293623
0.199295
-0.00203425
-0.0362007
-0.0298319
-0.0123483
-0.044481
0.00763254
0.000575305
0.480098
0.111109
0.00893512
6.0834e-05
0.00044373
5.58243e-06
-0.000412132
-0.00198723
0.517359
2.69127e-07
0.0616741
0.0200353
-0.000169683
0.47333
0.547727
0.16277
0.196891
-0.113592
0.00175767
-0.000211724
-0.0076803
-9.95226e-06
-0.000787837
-0.113873
-2.85704e-05
-0.00153516
0.488014
-0.00804015
-1.53429e-05
0.513085
0.000316275
-0.0234173
-0.0473014
-0.000940358
-0.0658565
-0.000172591
0.0613933
0.00235962
-0.0129475
0.00136825
-0.000477495
-0.000285014
-0.000164356
-0.109795
-0.0406452
0.127131
0.00191494
-0.00917493
0.187744
4.72847e-05
0.574668
-0.000412552
-0.0529287
0.001582
0.00115031
0.0382293
0.0398615
-3.4653e-06
-0.00292902
6.87806e-05
-0.000481698
0.000585494
0.0640226
0.0365086
0.284948
-0.0394197
-7.41185e-05
0.000112221
0.077025
0.30126
-0.00309223
-0.0043555
0.576387
-0.00194763
-0.0138958
0.000527679
0.0209408
-0.0407452
-0.00588233
0.130446
0.000928082
-0.000181801
0.00116222
-0.0782316
0.562284
0.436191
-0.0161808
-0.0312159
-0.00452089
0.00109488
1.42157e-05
0.0572908
0.152207
-5.48185e-07
-0.00502597
-1.44335e-05
8.63483e-05
0.406098
-1.85454e-07
-0.0592152
-0.0465264
-0.0815758
0.0519334
4.27601e-07
0.00695083
-0.00436143
0.369851
-0.0288515
0.00350725
-0.0205614
0.000432517
0.306712
0.17757
0.00714835
0.0283507
0.493968
-0.0436144
-0.0415837
-0.00133829
-0.00482681
-0.000276331
0.00917541
-5.47621e-05
0.136684
0.00202228
0.137246
-0.0242917
-1.10375e-06
0.0363603
-0.000123731
-6.78689e-06
-0.000538939
0.56079
0.536711
0.248782
3.6464e-05
0.0947879
0.456165
-0.000684164
0.000427399
-0.00577922
0.0214829
0.431161
-0.0184846
0.0957504
-0.00184532
-0.0415797
-0.0465636
0.625701
-0.000423047
0.433649
0.0668915
0.159585
6.83721e-05
0.000140305
0.00370674
-0.00614147
0.0607104
-4.17489e-05
4.17038e-05
0.425287
-0.0914547
0.000196279
0.448127
-0.00161804
9.9128e-05
0.344637
-0.00539641
-0.00110324
-0.102796
0.0658707
0.000213684
-9.76503e-05
0.00232588
-0.0027898
0.420955
0.557013
0.224272
0.61054
-0.00730558
-0.0300519
0.499877
-6.02654e-05
-0.00226412
0.0177741
-0.00240966
-0.00045873
-7.29522e-05
0.445683
-0.00288446
-0.000456055
0.541402
0.0567597
0.139484
0.0310309
-0.00188075
-0.014055
0.0954597
0.0489695
0.442286
-0.0177245
-0.000549062
0.403717
0.357685
0.008654
0.29574
-0.0276795
-0.00531015
-0.00659453
-0.000448654
-0.000101903
0.409512
-0.0418737
-0.0446555
0.000448855
0.122091
-0.0206861
-0.0168938
-0.000726221
-0.00294593
0.464269
-0.000560696
-0.0118441
-0.00207137
0.454141
-0.013398
0.0140069
-0.00510608
0.000957941
0.120952
-0.0146148
0.477693
-0.0335782
0.607621
0.214639
-0.0380963
0.0221584
-0.00124387
-0.00946631
-0.112972
0.428258
0.460571
0.523078
0.253538
0.414686
-0.000267863
0.491356
-2.45613e-05
4.2929e-05
-0.0312772
0.534334
0.0364773
0.187509
-7.97187e-06
-0.00149375
-0.118756
-0.0261255
0.420379
-0.000476275
-0.00521955
0.247986
0.000707659
-0.00291977
0.587087
0.0335752
-0.0349187
-0.177287
-0.000381474
-0.0218551
-0.0591046
0.61575
-0.0429529
-0.0277856
0.00274204
-0.000168305
-0.0128169
0.152677
0.00272605
8.42557e-05
-0.105513
0.203252
-0.00102692
0.43237
-0.0538211
0.438603
-0.0325641
-0.0154791
0.496986
-0.00364357
-0.0527786
-0.000286372
-0.000918464
-0.0398081
-0.0149053
-0.0234957
-0.00660847
-0.0127495
-0.107366
-0.0445059
0.434327
0.000168728
0.000507396
-0.0139635
0.0829764
-0.106368
-0.0377276
-1.33369e-06
-0.112304
0.0319367
-7.75441e-05
-0.0644151
-0.175488
0.443639
-0.0865276
0.428903
-0.00918967
0.0525298
0.208002
-0.0225475
0.225418
-0.00125818
0.0343618
-6.55156e-06
0.0620599
0.148822
0.136531
-0.0188677
0.0040906
-0.000482423
0.140621
-5.99034e-05
-9.40398e-05
-0.000714533
-0.0219246
0.0084475
0.00994657
0.357905
0.100939
0.568375
0.326632
-0.00105227
-0.0208589
-0.000122162
-0.0316664
-0.000917123
0.00387934
0.000423934
-0.0242065
0.279536
0.43282
-0.000203581
1.30589e-05
-0.0353535
-1.21681e-05
-0.00610039
-0.000131294
0.0819499
-0.0228702
0.148481
-0.0693008
2.08114e-05
-0.0091205
-0.0255802
-0.0185036
-0.0107981
-0.0328705
0.0102322
-0.000116027
-2.63757e-05
0.00138419
-0.000100314
0.0403123
-0.0343622
0.0254041
0.523658
0.0295987
-0.106774
-0.0523389
-0.000305577
0.0354117
-9.05099e-05
0.401552
0.0711203
0.48245
8.73817e-05
-0.0211775
-0.00451901
0.0314399
0.0543966
0.357015
-0.00504674
0.0135713
-0.00128122
-0.0135823
-0.00530293
-0.00404478
0.0771879
0.00104757
-0.00665593
-0.0132805
0.132041
0.0318643
1.61504e-06
-0.000604155
-0.0041153
-0.000415097
0.065817
-0.00045654
-0.027176
0.0912236
4.81597e-05
0.19378
5.46266e-05
-2.22111e-06
-0.0635146
-0.0165588
0.000103885
-0.0146403
9.94699e-05
0.505609
0.0082666
-0.0154914
0.469851
0.0931564
-0.0200154
0.351398
-0.00184624
-0.00126287
-0.00139708
0.0514562
0.647357
-0.00101059
-0.000422496
-4.89201e-06
0.00519801
-0.000847618
0.0172162
0.00407377
-0.0134802
-0.0371506
0.0121589
0.00669912
-0.012295
-0.000369759
-0.0558191
0.334329
-0.0012243
-0.00895599
-0.000161742
0.361151
0.0334627
0.331047
0.000279798
-0.000577866
-0.0156646
0.526236
0.106311
-0.0181983
-9.34881e-05
0.0206243
0.0244033
-0.0312788
0.143447
-0.029666
0.0116035
-0.110764
0.358231
-0.0117854
0.192669
-0.00211486
0.610732
-0.025932
-0.00718463
0.474684
-0.0270231
0.12229
-0.118407
0.140088
0.0042658
0.0328901
0.264162
0.0336195
-0.0298612
-0.00633056
-0.00508584
-0.0143577
-0.0309242
-0.00107923
-0.03673
-0.0179299
0.0012634
-0.0406596
-0.0505428
-2.8702e-05
0.000948171
-0.0059741
-0.0213449
0.475648
0.300823
-0.0330795
-0.0442587
0.00029176
-0.0652542
-0.00318557
0.591364
-0.0223656
-0.0191987
0.297441
0.0325113
-0.0262446
0.129004
-0.0232914
-0.000450105
-0.00763365
0.00659026
0.000403582
0.316379
-0.00180566
0.104458
0.237876
-0.0037416
0.189385
-0.081527
-0.000256422
0.00437102
0.0215384
0.265833
-0.00168494
0.0426238
-0.0449429
0.0350493
-0.0148603
0.308535