/*--------------------------------*- C++ -*----------------------------------*\
  =========                 |
  \\      /  F ield         | OpenFOAM: The Open Source CFD Toolbox
   \\    /   O peration     | Website:  https://openfoam.org
    \\  /    A nd           | Version:  7
     \\/     M anipulation  |
\*---------------------------------------------------------------------------*/
FoamFile
{
    version     2.0;
    format      ascii;
    class       volScalarField;
    location    "21.5";
    object      p;
}
// * * * * * * * * * * * * * * * * * * * * * * * * * * * * * * * * * * * * * //

dimensions      [0 2 -2 0 0 0 0];

internalField   nonuniform List<scalar> 
7807
(
0.341692
0.0178795
0.492927
0.328819
-0.00183491
-6.76955e-05
0.495033
-0.0114677
-0.000232026
0.14657
-6.33081e-05
0.00524477
-0.0171862
0.0762852
0.151987
-0.022089
0.352354
-0.0224742
0.00266481
-0.0993415
0.104073
0.00346551
0.0568426
0.266337
-0.0292396
0.351847
-0.00168921
0.0929964
0.226492
0.00577778
-0.0305489
0.734017
0.0560522
-0.00102214
-0.000207425
0.121832
0.00653693
0.480395
-0.0095435
-0.000707704
-0.00866773
-0.0212739
-0.0956096
-0.0138963
-0.000413656
-0.000159614
0.00340896
-0.00981364
-0.000129392
-0.0964894
0.00783992
0.0882733
-0.0369403
-0.00200168
0.120873
-0.0102008
0.0028773
-0.0114745
-0.0472641
-0.00106819
0.000103876
0.0100123
0.0766093
0.00578126
-0.00208685
-0.0298343
-0.000181956
1.17424e-05
0.149928
-0.00918476
-0.000145441
-0.0809326
-0.0282517
-0.0480328
-0.0217133
-0.0674958
0.485846
0.10168
0.102845
-0.090447
-0.0164727
0.445632
0.144668
-0.0501322
-0.00309055
-0.00493385
-0.012258
-0.035814
-0.00138532
-0.00965858
0.231585
-0.015607
-0.000268032
0.00282244
-0.00768055
-0.0495039
-0.0766443
0.00251679
-0.00341787
-0.00249392
-0.0830802
0.113086
-0.00728321
-3.50295e-05
-0.00257689
0.239098
0.638852
-0.010849
-5.46877e-07
0.0541008
0.312331
-0.0551369
-1.99645e-06
0.0575175
0.239003
0.00104753
-0.0588771
0.195511
-0.0566665
-0.0491368
-0.0864432
0.426728
-0.088031
0.0222262
-0.0842067
-0.00206401
-0.0274389
0.00457016
-0.00220388
-0.0306327
-0.0674906
0.102087
-0.00128734
-0.0016417
-0.0519363
0.303397
0.521381
-2.99364e-05
0.0173452
-0.108739
-0.0454865
-0.0666108
-0.0680026
-0.0460971
0.645574
-0.0225369
0.2284
-0.0457424
-0.0632579
0.425469
0.116404
-0.00670502
-0.00322004
0.1278
0.143758
0.448872
-0.0772332
-0.0171205
0.604314
-0.000116325
0.00150588
0.275426
-2.99796e-05
-0.00440861
-0.00866006
0.336065
0.336944
0.625256
-0.00503281
-0.00671129
1.35592e-05
-0.0896318
0.00103404
0.0268297
0.0188371
-0.0623737
0.020772
0.21469
-0.000265585
-0.00106545
0.335036
-0.000116231
-0.000224174
0.4974
0.0123528
-0.0486441
-0.0532031
-0.0453179
-0.0277491
-0.106304
-3.38596e-05
-0.0738111
0.222458
-0.00734548
0.000181529
0.267084
-0.00270359
-0.0288022
-0.0272646
1.5396e-05
0.00211937
0.310307
0.255244
0.450587
-0.0522167
-0.0477014
-0.104992
0.100786
0.30605
-0.000444965
9.25838e-05
0.607491
-0.0188425
-0.00134112
-0.0703978
-0.0287443
0.41272
0.4207
-0.072972
0.697545
-0.00250464
-0.0221069
-0.0852733
0.122209
-0.117642
0.306243
0.60561
0.000166225
0.0232244
0.206957
-0.0090225
0.191946
-0.001166
0.665503
0.440294
-0.0121875
0.0065247
-0.000654955
0.216119
-0.000189134
-0.0136618
-0.102249
-0.000144661
-0.00292897
-0.000913778
0.222344
-2.88791e-05
-0.010034
-0.0877882
0.732826
0.0915882
0.64858
-8.55006e-05
-0.0313906
-0.000387367
0.467034
0.00963149
0.522902
0.00348099
0.00180851
0.0168008
0.104992
0.00140015
-0.000485947
0.00124672
-0.00951126
-0.0465275
-7.93261e-05
-0.0747512
-0.00824436
-0.000295714
-0.00139142
0.501465
-0.0171409
-0.00170731
0.697236
-0.00323738
0.331067
-0.000435972
0.00263197
2.16127e-05
-0.0512807
0.117414
0.0322603
-0.0475987
-0.000896491
-0.0867228
-0.0335343
-0.000381092
0.00121116
-0.00485381
-0.0165137
0.00702995
-0.00274744
-0.0479202
-0.0385459
-0.0473036
0.000442341
-0.0596699
0.435878
0.450926
-0.00336468
0.00101914
-1.23563e-05
-0.00526639
-0.0499007
0.259679
0.160364
0.000247353
-0.00484292
-0.0579879
0.230826
-0.00222948
0.00857799
0.00294952
0.102893
-0.0853007
0.417361
-0.00359951
0.0185591
-0.000236317
0.00988319
-0.000102978
-0.0367176
-0.000757233
0.0118543
-0.0280331
-0.0588877
0.00577736
0.0209256
-0.00164905
0.0482881
-0.0156542
0.12793
0.225364
-0.134873
-0.0240141
-0.0344609
0.0122386
-0.0994432
0.637806
-0.0173722
0.0697105
0.684275
-0.00346952
-0.00394805
-0.0194601
-0.0024242
-0.0180456
0.0150421
-0.00634397
-0.00470264
0.218224
-0.000128427
0.00134396
0.000201438
-0.00773672
-0.0156062
-1.51819e-05
-0.00247747
-0.0453321
0.60282
0.00758631
-0.0184848
0.568225
0.380327
0.110348
0.0141106
-0.0906756
0.0118145
0.326044
-0.0242707
0.372254
-0.0331782
-0.0972624
0.257744
0.374768
-0.0705244
0.1516
0.30387
0.344277
0.0987572
-0.00690586
-0.00954931
-0.000180967
0.0100555
-0.0247777
0.00237885
-0.000223136
-0.00364555
-0.0871824
0.143072
-0.0361929
-0.00569147
-0.00860436
0.0143561
-0.0157421
0.00436673
0.273846
-0.00425599
-3.32551e-05
-9.78995e-05
0.000137741
-0.0436426
0.212305
-0.00908564
0.0636307
-0.12539
0.471549
0.00792718
0.0160008
-0.0115663
0.485875
-0.0023929
0.413118
0.232875
-0.000244847
-0.036958
-0.00748209
-0.0629148
0.00137921
0.119975
0.0085594
0.0148644
-0.00192635
0.206577
0.23408
-0.0567009
-0.0453251
-0.005154
-0.0311148
0.12333
0.721913
-0.0431517
0.0109169
-6.35192e-07
-0.0284844
-0.00516138
0.0442407
-0.104709
-0.0138998
0.502443
0.216324
-0.0901805
0.278567
0.475413
0.0619442
0.00290205
0.339459
-0.00201415
-0.000393387
-0.0369408
0.000225748
-0.117858
0.000174128
-0.0466226
0.00457093
0.272173
-0.00402986
-3.94306e-05
-0.106087
0.0041456
0.0734398
-0.0800797
-0.10637
0.0497743
0.208559
0.173256
0.177616
-0.000446328
0.133748
0.137521
-0.00117716
-0.0348602
0.00147624
0.0144593
-0.00336922
0.0112237
-0.00174799
0.20793
-3.27024e-05
0.00049765
0.00470263
-0.045171
0.0474784
-0.0442821
-0.0528793
-0.0435672
-0.124574
0.0208114
0.329862
-0.0123786
-0.0147167
0.673458
-0.0744044
-0.0163823
-0.052689
-0.0126727
-0.0425795
-0.0219748
0.0640261
-0.0238258
-4.26273e-05
0.055996
-0.000199769
0.438405
0.161023
-0.0108549
-0.029634
-0.000407943
0.447108
0.401797
0.113111
0.22295
-0.0791295
0.536788
-0.000118405
0.0472784
-0.0376301
0.22146
0.629071
0.108048
0.207542
-0.00388894
-0.000442507
0.205062
-0.0465966
0.465919
0.0747431
0.291172
-0.0155118
0.480223
0.385103
-0.0195773
-0.0166133
0.178262
-0.108469
-0.000167181
-0.0272953
-0.103937
-0.0796986
0.0257611
0.0214814
-0.000258851
0.404942
-0.00214877
-0.000214639
-0.0330816
-0.00109535
-0.000487333
0.00818434
0.29252
-0.094905
0.589509
0.000164021
0.289941
-0.0274298
-0.000144399
5.12367e-05
0.223508
0.282482
-0.00893589
0.258452
7.30421e-05
0.271239
-0.130288
-0.0204839
0.496911
-0.0674108
0.212572
-0.0505085
0.269179
0.279458
-0.0336827
-0.0425662
-0.0128566
-0.00628503
-0.000430631
-0.00246615
0.354645
-4.67917e-05
0.261294
-0.0886433
0.408481
0.249356
-0.106375
0.573904
-0.00352793
0.0132293
-0.0429545
-0.0407422
-0.0140013
-0.032637
0.0683628
0.663473
0.000115412
-0.00416616
-0.0542466
1.81401e-05
0.445694
0.00421374
1.82493e-05
0.00047719
0.000916726
-0.0350312
0.0425516
-0.00335242
-0.000175475
-0.0148373
0.0060175
-0.11637
-0.0976892
0.0480302
-4.00931e-05
-0.138615
-0.026686
0.184373
0.40217
0.00269163
0.190008
0.00038204
-0.025584
0.133387
-0.0140235
0.311751
-0.0261808
0.0526886
0.138139
0.21338
0.0106413
-0.0209613
0.24906
-0.0948817
0.474506
-0.0188644
0.343826
-0.0187796
-0.00249851
0.198143
0.005047
0.133256
0.00434409
1.5759e-05
-0.126424
0.267054
0.00332798
0.178137
-0.0248614
-0.141921
0.017089
-0.0458481
-0.00361565
-0.0178827
-0.0858484
-0.0540634
-0.0197864
-0.000293838
0.498231
0.18308
0.0634123
-0.000411753
0.382695
2.04587e-05
-0.000377285
0.193578
0.00469528
0.238821
0.0917494
0.0377862
-0.0239295
-0.118148
0.0453932
0.00300434
-0.0779432
-2.31505e-05
0.00856476
0.301733
-0.0321253
-0.00601707
-0.0118403
-0.00422416
-0.000852912
0.684068
-0.0199262
-0.00117221
-9.65811e-06
0.189731
-0.0560099
-0.000686949
-0.00595498
0.218157
0.135354
-0.0696751
1.08826e-05
0.237762
-0.0314731
0.260173
0.0358116
0.0437856
-0.0570077
-0.000187658
0.134874
0.125655
0.0808933
-0.079077
0.354032
0.0135486
0.244118
-0.00511417
-0.0326788
-0.000832253
-0.0023273
-0.000198411
0.22204
0.322274
-0.00318784
0.0420066
-0.0340973
-0.0607797
-0.0709839
-0.00400168
0.0435348
0.656403
0.0593187
-9.29019e-05
0.132966
-0.00792755
0.566254
-0.024691
-0.0223849
-0.00126058
-0.0259102
-0.0133173
-0.0157819
-0.00687945
0.00354349
0.0595296
0.000262369
-0.109179
0.0251497
0.427751
-0.066991
0.245225
0.00460605
-0.0372382
-0.0219723
0.273679
-0.0148703
0.000270025
-0.0306948
-0.0111263
0.0467883
-0.0516372
-0.0443638
0.0115467
-0.0289222
-0.00751938
-0.0850395
1.74183e-05
0.0788518
-0.0741956
0.217395
-0.0360287
0.132186
-0.0858069
0.391956
0.0177162
-0.0589105
-0.0222256
0.596555
-0.0898123
-0.02586
-0.115607
-0.0393516
-0.10095
-0.0532905
0.238061
-0.00598066
0.318152
0.0193194
-0.000823558
-0.0026041
0.118153
0.73917
0.00254893
-0.0272899
0.227918
6.08383e-05
-0.0407356
0.0582424
0.0205519
0.019592
-0.00350009
-0.0512738
-0.00639106
7.71829e-05
-0.0640586
0.324297
0.00863602
-0.0327773
0.00424658
0.227875
-0.000797781
-0.00267183
-0.000757222
-0.00165245
0.0978947
0.0102556
0.00745004
-0.0351675
0.000120216
-0.105001
-0.0313384
-0.121387
-0.0276195
0.032374
-0.000439018
-0.0252593
-0.0857236
0.0764029
0.411018
-0.00269182
-0.0941385
-0.0101708
0.0211781
0.212771
0.00101195
-0.000314256
0.188398
0.0584679
0.0330252
-0.00639206
-0.00448155
-0.0785
-0.000353139
0.00267243
-0.0265235
0.358994
0.323788
-0.0300516
-0.070805
0.015996
0.0109258
0.0415526
-0.0811295
-0.0160446
2.68671e-06
0.0329066
-0.048399
-0.089121
0.0121549
-0.075355
-0.000845671
-0.00645562
0.251406
-0.0547226
-6.77116e-06
-0.00609302
-0.0757669
-0.000339563
-0.0207385
-8.47061e-05
0.00930637
-0.112842
-0.0318168
-2.18145e-05
8.08333e-05
0.166275
-0.0551764
0.449872
0.332319
0.0254402
-0.00123353
-0.0178383
0.000514205
-0.0729366
-0.0896442
0.0353276
-0.0318579
0.323431
0.0190314
0.000640894
0.0137973
-0.106887
0.00436571
-0.0259928
-0.0829693
0.00587267
0.0352657
0.0982991
0.0188226
-0.0434521
-0.0554201
0.23719
-0.031451
-2.99328e-08
-0.101693
-0.0907924
-0.0376747
0.00972854
0.00171007
0.0183756
-0.109654
0.0512837
-0.0515369
0.185822
-0.0437388
0.0133726
0.0311742
0.028872
-0.0525058
-0.0866879
-0.000191131
0.187886
0.258137
0.0126617
0.272433
-0.0779472
0.0696008
-0.0543304
0.248943
0.136243
0.649777
1.37395e-05
0.142053
0.225331
0.0235989
-0.00243929
-0.0276033
0.0175034
0.000114853
-0.0274904
-0.0626692
-0.0302236
-0.0332458
0.000311504
-0.0544976
-0.000592343
-0.00144203
0.291308
0.0112042
0.125716
0.0329832
0.254934
0.0192503
-0.000622964
-0.0871645
0.0138526
0.429105
0.00218497
-0.066519
-0.000337749
-0.000894033
0.012779
-0.0501233
-3.50428e-05
-0.0165798
0.0461386
-0.00320613
8.2071e-05
-5.29815e-05
0.192654
-0.0144876
0.0113326
-0.00181829
0.0143409
0.0248491
0.0143423
-0.000452623
0.41241
-0.0719059
0.270365
0.363199
-0.000329045
0.113946
0.154002
-0.00125512
-0.000413357
-0.000672582
0.0202344
0.0281117
-0.0136005
-0.0267204
-0.0842246
0.215202
-0.0929194
2.6579e-05
-0.0291228
-0.027199
-0.0530148
-0.00699967
0.00997576
0.00211899
0.0436744
-0.000829092
-0.000351339
-0.025987
-0.00689722
-0.0372462
-2.03912e-05
-0.0223128
0.0522485
-0.00327897
-0.0187766
-0.0131654
-0.0177566
-0.0139033
-0.00833381
0.0176003
-0.0143748
-0.000152386
-0.000630823
0.0372155
-0.0184865
-0.00789252
0.0138625
0.00541098
-0.13838
-0.0167583
0.197031
-0.0190425
-0.0752995
-0.0353012
-0.0339309
-0.0234329
-0.00601127
0.00375839
-0.00563136
-0.0210565
-0.0242355
0.243757
0.196488
0.0786814
0.400196
-0.000102633
-0.00515094
-0.0247231
-0.0123353
0.138396
-0.0303556
0.0781021
-0.00671233
0.263761
-0.00308191
-0.00257474
0.0301858
-0.0228063
-0.000330861
-0.0302113
-0.00938606
-0.0312649
-2.297e-05
-0.0105626
0.00330129
-0.0262656
0.0561588
0.0530881
0.029445
-0.0210574
-0.0468243
0.150825
-0.00201158
-0.00312519
-0.00336511
0.563152
-0.000111049
0.106596
-0.0318592
-0.0305875
-0.0394976
-0.0580742
-0.0428299
-0.0508255
-0.0272787
-0.00731213
-0.000138936
-0.00680911
-0.0325529
0.133127
0.00280204
0.209453
-0.0488394
-0.0199212
-0.00145263
-0.042951
-0.000147912
0.18759
-0.0448659
-0.0389994
-0.0355583
-0.00609919
-0.0482515
-0.00267743
-0.0600503
0.135127
-0.0385298
-0.0921124
-0.00231734
-0.0402452
-0.027626
0.023986
-0.00514195
0.18065
-0.00382015
-0.0287207
-0.00105017
0.200886
-0.0576602
-0.0394726
-0.00517447
-0.0148103
-0.00437683
0.243228
0.0300246
0.263585
-0.00758133
-0.00127644
-0.00199195
-0.00368981
0.235375
-0.0878558
-0.0107658
0.00058569
-0.0106769
-0.0111858
-0.00140082
-0.0183163
-0.023524
0.0812092
-0.00787083
0.00848393
0.554369
-0.0900665
-0.0429902
-0.0841244
7.03885e-05
0.104117
-0.00563401
-0.0401272
-0.00888373
-0.0529033
0.00716057
-0.000827796
-0.00461305
0.00531162
0.245422
-0.0092844
-0.00282926
-0.00736562
-0.0760022
-0.0131091
-0.0332057
0.00716602
-0.0137363
-0.0141569
-0.0052044
0.250664
-0.0678852
0.00524017
-0.00672833
-0.041159
-0.0218031
-0.0728395
-0.0022093
0.124105
0.0358919
-0.0123681
-0.00273154
-0.0210198
0.577948
0.246905
-0.0176296
-0.000899589
-0.00378436
0.0103207
-0.00630797
0.0326857
-0.000633414
-0.0220939
-0.00312918
-0.0260441
-0.041074
-0.00165962
-0.0165145
-0.00213794
0.375986
-0.0101392
-0.0182649
-0.00081906
-0.00305226
-0.0447815
0.114132
0.514248
-0.01675
-0.0177263
-0.00335575
-0.000707933
1.35959e-05
-3.95662e-06
-0.0158187
-0.0010365
0.160694
-0.0010379
-0.0028734
0.0133078
-0.000387969
-0.0654249
-0.0748676
0.0267452
0.0580409
0.039755
0.0949328
-0.0457608
0.122093
0.0963613
0.127926
0.15853
-0.0201417
-0.00134594
-0.00902474
-0.083777
-0.00558969
-0.0232174
0.0748649
0.39127
-0.0652575
-0.000745761
-2.29796e-05
-0.00231714
6.86726e-06
0.0150174
-0.000858596
-0.00718391
-0.0702365
0.000917444
0.00429317
-0.00032442
0.0994359
-0.0238151
-0.0321618
-0.00189426
0.381774
0.339889
-0.0156769
-0.0807122
-0.0418049
-0.0364546
-0.0222274
-0.0029615
-0.0962974
-0.0414261
-0.0616597
-0.0353802
-5.15672e-05
0.240897
-0.0154512
-0.0150845
-0.0372653
0.0293936
-0.000822728
-0.0130895
-0.00214687
0.0215262
-0.00238855
0.219786
0.00060192
0.0159104
-0.000636996
-0.0688114
0.0141123
-0.00116963
0.0216059
0.000702188
0.0598687
0.160187
0.00310089
-0.00227149
-0.000178904
-0.000890159
-0.000780872
-0.0885902
0.161327
0.047461
-0.000405863
0.0153748
-0.00070239
0.276653
-0.0869451
0.308302
-0.0631695
-0.000694394
-0.000424834
-0.011445
-0.00890178
-0.000972947
-2.30415e-05
0.0388709
0.0440767
-0.00035362
-0.000497025
-0.0300021
-2.79602e-05
0.210479
-0.00145261
-0.0765555
-0.028942
-0.010009
-0.0802685
-0.0879836
0.191564
-0.020401
-0.0307559
-0.00048095
-0.0820204
-0.0314061
0.0386662
0.153254
0.412355
-0.00184147
-0.085858
0.0215967
0.36725
0.0583803
-0.000170388
-0.00946882
-0.00642041
-0.00779078
-0.069708
0.127054
0.000327496
0.0321811
0.00497104
0.113565
-0.000806075
-0.00016472
-0.0653038
0.338465
-0.0791998
0.196041
-0.00194916
-0.000297734
-2.70145e-06
-0.0924159
-0.0610447
-0.000512493
0.148542
0.0176235
-0.00840015
0.474524
-0.000588105
-0.00580087
-0.0848898
-0.025576
-0.00359485
0.173023
-0.0689815
-0.000243501
0.0213717
-0.000247981
-0.000138967
0.184287
0.0060763
-0.000697579
-0.0746713
-0.0369145
-0.00551593
-0.0307135
0.00389142
-0.0344139
0.0027192
-0.00549742
-0.0930936
-0.0556715
0.0334086
-0.00139512
0.201481
0.254809
-0.0932328
0.015717
0.0296902
-0.0067302
0.208798
0.149676
-0.0417052
-0.000235051
0.0158769
-0.0797845
0.0210309
-0.041256
-0.00330613
0.0698668
-0.0410963
-0.000198457
-9.47645e-05
-0.0367594
-0.0368243
-0.038834
0.0155273
0.0317072
-0.0641327
-0.000214621
-0.00216914
-0.000301924
-0.0477832
-2.8746e-05
-0.00303812
-0.0545432
-0.110967
0.164648
-0.00468332
0.0066969
-0.0318588
-0.0380231
-0.000182323
-0.0671822
0.160626
0.198581
4.63839e-05
-0.00015847
0.202016
-0.00395185
-0.103618
-0.0589887
0.00543485
0.000820779
-0.0980565
-0.0141842
0.206599
-0.0815156
-0.00230291
-0.0132571
-0.0745785
-0.000889462
-0.000360179
-0.00140425
0.00492114
-0.0741052
0.194396
-0.000311104
0.577459
0.0117122
0.000216946
-0.00149226
0.00043964
0.000499028
-1.29093e-05
0.000249768
-0.0764946
-0.00111088
0.000728412
-0.000292857
0.179824
-0.00897597
-0.000284282
-4.81192e-05
0.421859
-0.0322536
-0.0209563
0.00187837
-0.00111583
0.0881609
-0.000132891
-0.0184759
-0.106553
0.00353348
-0.00991773
-0.000134371
-0.000301717
-0.0452497
-0.0748454
0.0114836
-0.101686
-0.0565309
-3.5175e-05
0.0326169
0.0484905
0.143133
-0.00269132
-0.000226602
-0.081161
-0.00954005
-0.000755145
-0.0714974
-0.000196254
0.0631633
-0.000108631
-0.00198627
0.0399433
-0.00326379
-0.0844784
0.530764
-0.00255764
0.000470347
-0.0770999
-0.0718119
0.0147516
0.00752862
-0.00021926
-0.0462677
-0.000112311
0.242574
0.696603
0.121594
0.00489215
0.00580222
-1.89989e-05
-0.041193
-6.92099e-05
-0.0101738
-0.00265218
0.000630995
-0.00526696
-0.0145145
-0.000175169
0.00143433
-0.0120186
-0.000470794
-0.0151624
-0.0248034
-0.00459035
-0.00176043
0.625461
-0.00105102
0.00394041
0.000419793
0.021663
-0.0721177
0.0152295
-0.00025613
-0.000139631
0.00432142
-0.00015135
-2.46885e-05
-0.0174727
0.00115084
-2.94014e-05
-0.0738438
-0.00348835
-0.0813118
-0.00256163
-9.22359e-05
-0.0048965
-0.00813806
-0.0226288
-0.0321108
0.0037439
0.000871546
-0.00070688
-0.00306529
-0.000102424
0.334572
0.00253185
-2.25503e-05
0.00098234
-0.00315651
-0.000526887
-0.0918848
-0.0789806
-0.000175195
-0.0108488
3.14317e-05
-0.00400599
-9.94162e-05
0.0524054
-0.000198544
-0.000263457
-0.00541473
-2.06929e-05
0.0211583
-0.000329297
-0.00195671
0.0290839
3.01954e-05
0.441781
-0.0774241
-0.0607594
-2.59881e-05
-2.5455e-05
0.00307358
-0.00183403
-0.0730522
-1.93223e-05
2.18315e-06
0.00122935
-3.6382e-06
0.000637332
0.000750651
-0.000693675
0.00129557
-0.0762687
0.546162
-0.0469124
0.401372
0.0142823
-0.0248868
-2.00835e-05
-0.0013547
-0.0186661
0.00025743
0.000483014
0.000296406
0.103635
-0.00206269
-0.000308931
0.559955
-0.000825062
0.000980981
0.000837926
-5.1499e-06
0.0856457
-0.00337974
0.00185315
0.000226122
-0.000784626
-9.27082e-05
-0.00140144
-0.0639063
-0.000627125
-0.00242833
-1.9257e-06
-0.000291737
-0.000382703
0.238234
-0.000665196
-0.00038851
-0.100385
0.00602361
-0.000103093
-0.00206028
-8.23155e-05
0.219039
-0.105383
-0.000420856
-0.000581515
-0.00284493
-0.00020867
0.0847083
0.15635
0.0628556
0.000858489
-7.91433e-06
-9.05851e-07
0.0872074
0.00043333
-0.0884608
-0.0321779
-0.0239598
0.0237338
0.628549
0.00316598
0.251403
-0.0221346
-0.0431616
0.222543
-0.000534019
-0.094928
-1.27831e-05
-0.0137728
-0.0717403
0.000102698
-0.0683448
-0.00145679
-0.00365247
-0.00827456
-0.0627658
-0.0620959
-0.00475211
-0.0876667
-0.0645772
-0.000270985
-0.0186218
-5.44353e-05
-0.055339
-3.48917e-05
-0.000269309
0.0342295
0.211967
4.66557e-07
-0.0662793
0.00571405
0.000141716
-0.030962
1.64459e-05
-0.0209344
-0.000373669
-0.0566848
0.00022398
-0.000116038
-0.00311427
-4.16551e-05
0.207192
-0.0451691
0.118673
-2.47393e-05
0.00103672
-0.0483211
2.58388e-06
-0.0829344
-0.0962716
-0.0811059
0.582944
-0.00993593
-2.03927e-05
0.0400294
-0.0613196
-0.00383566
-9.86623e-06
-0.000114721
-0.0691988
0.000229175
0.0014319
4.36569e-07
0.000283852
-0.0418789
0.17276
-0.0695943
0.139152
-0.00819245
-1.33647e-06
0.0103487
-0.0709071
-2.60112e-05
-1.47612e-05
0.000542204
0.000118778
0.00067862
0.294057
0.0533646
0.000104598
2.61752e-05
-0.096174
0.25557
0.229463
-5.7616e-05
-0.0534525
-0.0284714
-0.0155384
-0.0701824
-0.0127372
-0.00446077
0.185744
-4.36416e-05
-0.0392726
0.218492
-0.0713885
-5.96742e-06
-0.0894846
-0.000248757
0.356707
0.0441185
2.32658e-06
-2.80779e-05
0.240311
8.03904e-06
-0.000254785
-0.0179517
3.48669e-05
0.311975
0.00549797
-0.0112631
-0.0938048
-0.00575871
-0.100854
0.236048
-0.0136519
-0.0153174
0.00161563
-1.72006e-05
-0.00154191
7.05146e-06
-1.02613e-05
0.0419581
0.232301
0.196285
-0.000651479
0.306183
-0.0161274
2.04167e-05
-0.0670556
-7.70621e-06
-0.0413216
0.0454692
-0.021459
0.00707303
0.00299466
-0.0141913
0.000435191
-0.00254259
0.0312511
-0.00439315
-5.06562e-05
5.77668e-05
-8.02968e-05
0.0473646
0.000106732
-0.032189
0.321754
-0.00913404
9.45866e-05
-0.00529041
5.451e-07
0.126236
-0.000525718
-8.51415e-05
-0.000114989
-1.15132e-05
0.266533
-0.000205702
0.300185
-0.0887364
0.000202983
-0.0747751
-0.000701687
0.204311
0.573584
-0.00213104
5.07314e-06
3.90798e-05
-2.09985e-05
0.190503
1.64355e-06
0.00170126
-0.0363139
0.28516
1.68192e-05
3.57664e-05
5.83248e-06
4.91246e-05
-0.0307303
4.03216e-06
0.334125
-0.0237006
-0.000172046
5.68489e-05
-0.00312812
-0.0428561
2.82482e-06
-7.34784e-05
0.214905
6.47226e-05
-0.0471228
-0.061687
0.000234728
1.83355e-06
-0.134539
2.58027e-06
0.216178
2.87994e-05
-0.000656809
2.62858e-05
-0.000247927
0.1274
9.7151e-06
-0.00247853
2.31829e-05
0.0212765
-0.00514784
-0.00974917
0.00156851
0.20082
-0.000373316
-0.000103235
-0.0134594
-0.0129938
-0.000351608
-5.14667e-05
-0.00133512
8.03556e-05
0.237118
-0.0153667
0.566718
5.08038e-06
-0.0115826
-0.000204637
0.182758
0.000108429
-0.0388593
4.60753e-05
-0.00238669
-0.0492295
-0.000330532
-0.0235422
-0.0722175
0.00805029
4.47427e-06
-0.0776512
-0.000485874
-0.000408715
-0.00840696
-0.0179921
0.00207548
-4.43091e-05
-0.000639501
-0.00133064
-0.00192119
3.32605e-05
-0.00181809
0.55574
0.000175156
-0.00495175
-0.0513187
-0.106008
-0.0918506
-0.0700547
-0.0323016
-0.000753128
-0.021178
0.000141431
-0.000105975
0.556783
-0.000126529
0.235986
-0.000663953
0.000665219
-0.00170327
-0.0715055
-0.000612979
0.00118466
-9.92996e-06
-0.000575213
-7.20052e-07
-0.000104251
-0.0224185
-0.000143931
-1.37377e-05
-0.000109941
0.000266325
-6.19671e-07
-0.0620692
0.300354
-8.70508e-06
-0.000894048
8.49539e-05
6.03987e-05
-0.00124764
2.12006e-05
-0.00135302
0.000481778
-0.000535279
-0.0931573
-0.00102741
-0.00274996
1.27065e-05
-0.00230704
0.000561056
-1.76071e-05
-6.98477e-06
2.73732e-05
-0.00118877
0.000884276
-0.0645792
-0.0393675
-0.0940835
0.00101428
-0.00272636
-0.00236172
-0.0948284
-0.00012743
0.0248159
0.0107717
-0.00156994
-0.0176637
-0.0815304
0.509059
-0.00061674
-1.47604e-05
0.00144292
9.50557e-05
3.60408e-05
0.10385
0.00580836
0.119172
-0.0506658
0.495328
-0.000772503
6.98232e-06
0.000264529
-1.58469e-05
-0.00205039
0.205505
0.276403
1.78859e-06
-0.000234822
-9.85805e-06
0.263143
0.0310855
-0.00770375
2.38131e-05
3.8295e-05
0.0112639
-0.00103604
-0.102919
-0.0247627
5.58623e-05
0.00549472
-0.0449747
-7.68219e-05
0.00288222
-7.91187e-05
-0.0667818
-0.0026232
0.194972
3.35675e-05
0.00266646
7.27037e-05
3.20139e-05
0.000299329
-0.0338864
3.08415e-05
-0.00136693
4.97422e-05
-0.0291366
-0.0662695
-0.00448385
-0.009861
-0.0128611
0.0140843
-0.0129896
-0.00371468
0.000125198
0.000191577
4.45015e-05
3.85053e-05
-7.20981e-05
0.0140534
-0.0815803
0.000807621
-0.0585665
-0.00464446
-0.0692377
0.000157846
1.27585e-05
0.00208925
-0.0404246
3.81443e-05
-0.0590137
-0.0215819
0.0588111
-0.0577739
5.38711e-05
-0.00518802
0.000334934
-0.110141
0.175255
3.43101e-05
-0.0855859
-0.0321994
-0.00638382
7.73946e-05
-6.22798e-06
0.0447826
-0.0245647
5.37721e-05
-0.0101468
1.47313e-05
0.000370456
0.164717
-7.38225e-06
2.48806e-05
-0.000100444
7.01602e-05
0.00144968
0.000157405
-0.00785829
0.000400334
-0.0185467
0.00177344
-0.000286623
-0.0451351
-0.0619343
-0.00934084
-1.72301e-05
4.5286e-05
-0.0814302
0.00894157
-0.0687691
6.41147e-05
-0.0076937
-4.54361e-05
5.18277e-05
0.106537
-0.0104452
-0.00416597
1.59074e-05
-0.0258439
9.46159e-05
-0.096335
5.75573e-05
-0.108602
5.11151e-05
-4.4667e-06
0.000153237
0.00163905
-0.0773474
-0.0266314
-0.0991529
4.07021e-05
0.000172465
-0.111268
-0.033394
-0.0125304
4.42039e-07
-0.0252497
-0.0712927
-0.111643
2.14093e-05
-3.23297e-06
3.21577e-05
-0.0823325
-0.0955163
0.00117449
-0.0163471
-6.46284e-05
0.289283
0.000168
4.00678e-05
0.000261743
1.31668e-05
-3.258e-06
-0.00539287
0.000206291
-0.00380885
-0.0914928
-0.0193069
-0.0839921
8.36673e-05
-6.52233e-05
0.0796491
-0.0606327
-0.00706908
0.150298
3.73462e-05
-8.94718e-06
-8.29549e-06
0.167004
0.000299326
3.22021e-05
7.44958e-06
-0.0826825
-0.0227834
3.00633e-05
0.000159516
-0.0136046
-0.00953572
0.000709174
0.279544
-0.0829033
0.000365039
0.703657
3.3147e-06
-0.000995675
-0.0122042
-0.111671
2.41643e-05
1.91196e-05
4.3054e-05
0.00747453
-0.0450167
-0.000479582
-0.0707158
-0.0114604
6.32767e-05
-3.60762e-06
-0.0149876
-6.7315e-05
0.00325671
-0.0578007
-0.0657516
-0.0562294
0.0267204
-0.0388495
-7.94309e-05
0.000588558
0.0215606
0.000870016
-8.0037e-05
0.00123941
7.49892e-05
-0.000103187
-0.0178391
-1.24818e-05
-2.38952e-05
0.0585309
-0.0118295
-0.000200081
-2.60716e-05
2.80692e-06
0.302173
-0.00975671
0.00127554
-0.0403937
0.000385009
0.000340206
0.000293981
-5.7307e-05
0.000789106
-0.0544702
0.0274033
-8.8592e-06
-0.0002073
-0.0593456
-0.0445636
0.0689422
-0.000715414
0.00290317
0.0269142
1.78472e-05
0.000116803
-0.0649811
4.48394e-05
0.208853
3.95164e-05
0.0065044
0.000285829
0.000380595
-0.101466
-0.0107794
-0.0260687
-0.00356831
5.26783e-05
0.0104643
0.0856422
-0.0179632
-0.000178916
0.127382
0.204976
1.22732e-05
-0.0750539
-8.09006e-05
-2.4907e-06
-5.49663e-05
-0.000828717
0.0296242
1.92361e-05
0.000418996
-0.0360189
-0.0374416
-0.0322689
0.370968
5.21576e-05
-8.74337e-05
0.214556
-0.00425393
-0.00561043
-0.000959056
0.211795
9.50849e-05
-0.000422141
0.000102936
7.11936e-05
6.24801e-05
7.13973e-05
0.000132393
-0.0260509
3.11819e-05
-0.0048944
-0.0645646
0.299284
-0.000163305
-6.16583e-05
0.00728272
0.115356
-0.0632877
-0.00110825
-0.101779
0.369779
8.28644e-05
0.469753
-1.52386e-07
0.00520656
0.0363705
0.000712775
0.503935
1.04992e-05
-2.97672e-06
0.00185467
6.23445e-05
-0.00127514
0.000440304
3.67563e-05
-0.00290935
4.70613e-05
-0.000193928
-0.00490631
0.296822
0.076407
0.0329336
-0.0636508
-2.7092e-06
-9.57241e-06
0.00531156
-0.076252
-2.84525e-06
-0.0678094
-6.5177e-05
0.138672
0.0863756
-0.0474975
-0.00199302
-0.0172507
-0.00145562
-0.0218201
0.00668642
-0.0106839
0.0908705
6.13575e-06
0.311314
0.0663876
-0.00082412
0.264957
-0.0195896
-1.34775e-05
5.90641e-05
0.000122452
-0.000296189
-0.000153842
0.29915
-0.0014461
0.307202
-0.00153936
0.209483
0.278111
0.16949
-0.0103699
5.66065e-06
0.000134462
-0.0156625
-0.135348
-0.0698397
0.00235815
5.95965e-05
-0.0557083
-0.000416329
4.51105e-05
0.0016113
-0.0015791
-0.000899649
0.0487122
0.000136363
-0.0706859
0.0844893
0.000107604
0.000452598
-0.0205794
-0.0821266
-0.0010741
-0.000756295
4.34767e-05
0.000424136
0.138579
-0.0247583
-0.0689246
0.00207568
0.147663
-0.0565238
8.02782e-05
5.51723e-05
0.0445334
-9.92654e-05
0.128698
0.00363238
-0.0200524
-0.000547047
0.0025782
-0.0522953
-1.72275e-05
0.000800338
0.00740577
-0.10809
0.207166
-0.0911348
-0.0394285
-0.000208143
-5.68162e-05
0.0102733
9.29509e-05
-0.109101
-0.0954988
0.000911585
0.00533361
0.00585591
-0.11826
0.00102822
0.000331746
8.68587e-05
-0.0600783
6.19087e-05
0.000904602
0.16049
0.226813
-0.129203
0.0699222
0.0696556
0.0412783
-0.00019429
0.0190343
0.000215298
1.69266e-05
-6.92588e-05
1.90591e-06
8.44028e-05
-0.000512637
-0.0113022
-0.0609433
-0.014415
-0.0414717
0.0762851
0.0636574
0.00631487
-0.0921261
0.000286471
0.00728176
0.0173635
-0.000557572
0.10825
-0.00176782
-0.0160884
0.0187793
0.00844918
0.00171437
-0.00598517
0.0651467
0.00132597
-0.0290543
-0.0242215
0.587779
-0.0361704
0.115089
0.0494591
-0.0532674
0.00345606
0.000193834
-0.00383523
0.000120181
-0.00392319
-0.0371351
-8.65883e-05
-2.31655e-05
0.341906
-0.00492259
-0.061422
-0.0279039
0.000359065
-0.00201947
-1.96726e-05
2.4545e-05
0.0589648
8.23628e-05
-0.00438593
0.109852
0.00973395
0.00177724
0.0283075
-0.00855481
0.00646783
-0.119927
0.0013941
-0.00660382
-0.0821633
-0.00124973
-0.012001
0.00122993
0.00191466
0.00157978
0.0577422
-0.000424705
0.00872984
-0.0798737
-0.0304776
0.000536399
-0.0794247
-0.0221345
-0.0255486
0.000206551
0.0101703
-0.0963869
-0.00123746
-0.00719844
-0.073656
0.000758253
-0.00173068
0.277909
-0.0304355
-5.11495e-05
0.0126294
-0.0725905
-0.00155408
0.244709
-0.00314993
0.00161831
0.0834011
-0.00211698
0.0128165
0.16728
0.000155949
0.00185762
0.00030806
8.99116e-05
-0.00671716
-0.0104374
-0.000145789
-0.0357011
0.136512
-0.0551795
-0.100081
0.00184407
-0.00487209
-0.000853822
-0.0526107
7.44774e-05
0.0271973
0.000107094
-0.023656
-0.00290435
-0.00743111
0.0122574
0.16265
-0.107649
-6.26389e-05
0.254637
-0.00285953
-0.00360173
-0.0873985
-0.111535
-0.0230181
-3.18821e-05
-0.00161071
0.0111249
-0.00460773
-0.00703816
0.000731869
0.120897
-0.0616609
-0.0164836
-0.00997619
0.0398306
-0.00296085
-0.000955215
0.0026824
3.11197e-05
-0.00461096
0.158668
0.00128205
-0.133423
-4.11153e-05
-0.0109621
-0.00518455
-0.119967
-0.017
-0.136217
-7.91626e-05
-7.46875e-05
-0.00517585
0.0162593
0.0029062
-0.152353
0.125222
-0.070805
0.000324232
-0.165976
6.77895e-05
-0.171745
-0.0375594
-0.176506
-0.171882
-0.159055
-0.111381
-0.018201
0.0183568
0.0518894
0.0858665
0.119716
0.216034
0.247285
0.27645
0.326892
-0.0120118
-0.0108895
0.0965505
-0.0241444
0.00144347
0.0275764
-0.0594404
0.000890059
-0.000927004
-1.70328e-06
-0.0209454
0.0268941
8.80946e-05
-0.000409932
-0.0156375
-0.00541812
-0.182793
-0.0174768
-0.0822305
3.4086e-05
0.000940812
-6.52048e-05
-0.0704492
-0.0129313
-0.0532686
-0.0138298
0.00271935
0.000403754
0.00727055
-4.01213e-05
-0.00886569
1.5743e-05
0.00060961
-0.00780484
-0.0171063
-0.000318145
0.000539546
0.069202
-0.0152281
0.0968414
-0.177764
-0.0106229
0.185142
-0.0276734
0.00574141
-0.0316681
-0.00482412
-0.0185999
-0.0183235
0.403452
-0.00186086
0.000137727
-0.00858989
-0.0130916
7.90513e-06
0.111105
-0.00594985
0.379988
-0.0562414
-0.0657333
-0.0393537
0.0718934
-0.00703502
-5.90632e-05
-8.72475e-06
-0.00618485
-0.0802216
0.000117936
0.411705
-0.00407621
-0.00729614
-6.53829e-05
-0.0005428
-0.00913892
0.152396
-0.0511911
0.159994
0.00101964
-0.0209665
-7.03318e-06
0.0401382
-0.0114407
0.029082
-0.0176752
-0.00803823
-0.00109265
0.00204077
0.0180342
-1.37782e-05
-0.0140703
0.00090265
-0.000559467
0.00075685
-0.0272789
0.000416927