/*--------------------------------*- C++ -*----------------------------------*\
  =========                 |
  \\      /  F ield         | OpenFOAM: The Open Source CFD Toolbox
   \\    /   O peration     | Website:  https://openfoam.org
    \\  /    A nd           | Version:  7
     \\/     M anipulation  |
\*---------------------------------------------------------------------------*/
FoamFile
{
    version     2.0;
    format      ascii;
    class       volScalarField;
    location    "9";
    object      p;
}
// * * * * * * * * * * * * * * * * * * * * * * * * * * * * * * * * * * * * * //

dimensions      [0 2 -2 0 0 0 0];

internalField   nonuniform List<scalar> 
30084
(
0.0331984
0.325929
-0.0318072
-0.12007
-0.00862133
-0.135385
-0.00325878
0.0343249
0.00749202
0.00074315
0.0268377
-0.0152659
-0.00163071
-5.83493e-05
0.425673
-0.0213213
-0.00048242
0.220965
-0.0076431
-0.0372794
-0.00298449
0.00704281
-0.0321063
-0.00753241
0.987652
0.323954
-0.00176141
0.861888
0.41869
-0.00546056
0.0569263
0.169808
-0.173545
-0.02063
0.868886
-0.0178686
0.384844
-0.0967968
0.0204506
0.0197803
0.00166332
-0.0554868
-0.000416595
-0.0370785
0.000146091
-0.00473742
-0.0134615
0.000334621
0.0122205
0.376209
0.0258503
-0.106564
0.174394
-0.131399
-0.0208415
0.399977
-0.0121341
-0.00307155
-0.0135507
-0.0415272
-0.000172819
-0.00739863
0.253517
-0.0151129
0.561468
0.937439
-0.0230838
-0.0294835
0.900281
0.00173118
0.321329
0.741458
0.00912266
0.946378
-0.0277062
0.112475
0.460034
-0.087417
-0.0001202
-0.040281
-0.123143
0.422378
0.0331123
6.23082e-05
0.00382015
-0.0510819
0.586445
-0.00169565
-0.00157398
-0.182488
-0.0687516
-0.088027
0.0113059
0.182438
-0.188868
0.604539
-0.086024
0.00182232
-0.131289
0.472503
-0.000129072
-0.0823366
-0.000167421
0.132827
-0.1095
0.285973
0.655715
-0.00150984
3.72708e-05
-0.150606
-0.174856
0.0596481
1.42301e-05
-0.00517497
-0.000446235
0.72832
0.461158
-0.0406239
0.000141862
0.0104322
0.133764
0.344276
0.104648
0.93675
0.00407741
0.143287
0.230184
-0.0289503
0.0148012
0.000185954
-0.0334068
0.449142
0.739788
0.0703373
0.131093
0.0552556
0.666417
-0.0842192
-0.162726
0.461452
0.15501
-0.159343
-0.152621
1.06842e-05
-2.22171e-06
-0.00884149
-0.0125225
-0.13552
-0.0870054
0.339018
0.0963874
0.0495976
0.00167529
-0.000387524
0.437608
0.00200981
-0.0263945
0.647267
0.509684
0.0348601
-0.118312
-0.116875
0.410494
-0.000120008
-2.67366e-06
-0.0408533
-0.148521
0.000273759
5.9145e-05
-0.0242141
0.000233872
0.020771
0.655722
-0.0829989
-0.0932307
-0.0176241
0.00766442
-0.084679
-0.00410024
0.125459
-3.16641e-05
-0.00255838
0.584435
-0.027829
-0.163581
0.44591
-0.02205
-0.0623484
0.0138579
-0.0048772
-0.000907558
0.0104277
0.94834
0.431627
-0.0479407
-0.0253314
0.816933
0.396724
-0.186015
0.00428793
-0.0309594
-0.154227
-0.0144571
0.0031582
0.666948
-0.0233974
0.0248485
-0.136915
-0.154203
-7.60679e-05
0.785592
-0.00354414
4.87787e-05
-0.00183025
-0.0631044
0.288016
0.00130716
0.0242241
-0.00745979
-0.185081
0.000208683
0.0018059
-0.00804115
0.236059
-0.00973063
-0.00494225
0.165034
0.000556466
0.000136974
0.0189836
-0.0917791
-0.0752106
-0.0165369
0.318557
-0.0511959
0.0518445
-6.14525e-05
-0.010446
0.00295267
-0.0244315
-0.199336
-0.00474818
0.00179144
-0.00528292
0.0107581
-0.0364134
-0.000111883
-0.0404912
0.000262831
0.239211
-0.0117316
0.000620412
0.289365
-0.158484
0.00098738
1.63638e-05
-0.159712
-0.194848
-0.0308563
-0.0332215
0.0966107
0.564768
0.000346304
-0.0885285
0.125416
0.835268
-0.0281126
0.440248
0.121704
-0.000540816
1.10258
-0.00182198
-0.100661
-0.182569
0.00819439
0.217122
-0.0290192
0.748338
-0.0120959
-0.0614618
-0.000783354
0.546883
-0.00868201
0.613264
-0.00171176
-0.020303
0.836778
0.210367
0.164583
-0.107769
-0.000469871
0.0104206
-0.000515939
5.1652e-05
0.242761
0.000171843
-0.0671214
0.118453
0.99681
0.733884
-0.140869
-0.0618612
-0.0719255
0.0509874
0.0127099
-0.0630866
-0.147025
0.57514
0.744112
-0.00442096
0.647627
0.236702
0.112152
0.0419185
-0.00399682
-0.00866445
-0.0188514
-0.00932969
-0.000154977
-0.00572375
0.10998
0.556605
0.00603435
-0.0928705
0.0487334
-8.42826e-05
-0.143853
1.03787
-0.0221851
-0.00462963
0.0445904
-0.0383861
0.324242
-0.00467539
-5.84454e-05
1.43908e-05
-0.00943256
0.841335
0.104703
-0.195553
1.80394e-05
-0.206201
0.218305
-0.0180234
-0.173648
-0.00422076
-0.00147519
-0.0843041
0.00348045
0.133912
0.0375609
0.413942
-0.000322639
0.00924566
0.341451
0.136246
0.00165236
0.00174634
0.725551
-0.0676329
-0.00521489
0.412064
0.846426
0.0149492
-0.0216936
0.293381
-0.00265555
-0.0302463
-0.0118189
0.389788
5.34344e-05
0.0362243
-0.0563035
0.740919
0.938138
-0.0213916
-0.0316019
0.573602
-0.0435578
-0.000149829
0.396726
0.247695
0.251296
-0.0250849
0.0885505
0.856916
-0.11519
0.787254
0.7457
4.22493e-05
0.109581
-0.102807
-0.0102317
0.00614654
0.85228
0.105267
0.0011165
-0.107457
-0.157848
-0.0198959
-0.00035166
0.631062
0.453013
0.000279986
0.0152758
0.0201157
0.0144488
-0.107142
0.000340905
-3.75157e-06
0.0019234
0.331176
-0.0961569
0.597606
-0.169926
-0.0594717
-0.076535
0.405219
0.255583
-0.00428231
0.0299414
0.00325111
0.797268
-0.0893239
0.00413746
-0.026913
0.167706
-0.00483234
-0.0434238
0.000956537
0.000975421
1.04894
-0.0289767
-0.0179859
-0.00146162
-0.00258989
0.545274
-0.0538301
-0.0804402
2.53901e-05
4.34963e-05
-0.092331
-0.0242318
-0.0187864
0.062064
0.0230774
-0.00797872
0.180922
-0.0622836
0.777908
0.0241542
0.00100984
-0.141188
-0.0788505
0.231383
-0.0119251
-0.0791004
-3.19047e-05
0.907928
0.0696097
0.000402669
0.948216
-0.0834834
-3.42608e-05
0.00557115
-0.143901
0.0606352
0.164265
-6.22939e-07
-0.0289076
-0.00408271
-0.0193032
-0.00163743
-0.0298226
0.823128
-0.0295623
-0.0418564
0.454408
-0.0102223
0.815192
-3.90533e-05
-0.0537427
-0.137386
-0.0769121
0.088849
-0.00547847
0.0117874
-0.000448668
-0.0663796
0.0538129
-7.85215e-05
3.34656e-05
-0.022885
0.768185
0.0312136
0.00965079
-0.188419
1.81919e-05
0.00382661
-4.00534e-05
0.0381753
-0.0619808
-0.00134142
-0.0279338
-0.0444711
0.00397421
-4.10907e-05
0.162644
-0.00128212
0.202045
0.698953
0.579593
-0.0123442
0.0227193
0.0908347
-0.00022665
-0.0119982
2.23552e-05
0.752405
-0.0485118
0.0611941
-0.0608198
0.0076055
-0.0111503
-0.00030521
4.05166e-05
-0.0174158
0.175399
0.520512
0.00482325
-0.126441
-0.0888646
-0.0284224
0.338212
-0.00479996
0.00602996
-0.0202828
-0.000275104
-0.1471
0.566453
0.421716
-0.0789448
0.554498
0.000403046
2.15116e-05
0.392788
0.228365
0.938676
-0.11211
-0.0762503
0.17941
0.00458845
-0.021188
0.00184154
-0.0381107
-0.045506
2.3586e-05
-0.00321369
0.736094
-0.000405388
0.885143
2.30689e-05
0.216343
0.195011
0.188888
0.00410441
0.000785475
0.754102
0.210521
-0.140692
0.429504
-0.0215274
-0.0473684
-0.0149519
0.585005
-0.0895262
0.0564165
-0.026743
1.98546e-05
-0.00474476
0.0226377
-0.0634872
-0.0771298
-0.145691
-0.0641878
0.297361
-0.00784366
-0.181017
-0.0490461
0.00023134
-0.0432042
0.0500683
0.301604
-0.0948189
-7.8269e-06
-0.0644767
0.000181386
0.00546512
-0.100009
0.596207
0.00357026
-0.0425697
0.0180541
0.211566
0.811121
0.00708593
-0.014003
0.552594
0.375699
-0.0503722
0.0187934
-0.160614
3.91756e-06
-0.143115
0.000386863
0.0130176
-7.25877e-05
0.000154481
-0.0184847
0.264443
0.712218
0.054512
0.0457415
3.91192e-06
-0.0229358
0.00039371
-0.011876
0.000153604
0.172196
-0.00168252
0.436286
-0.000390674
-0.0457265
-0.124996
-0.0156907
0.806376
-0.0589148
-0.107022
-0.0206996
0.147863
-0.135058
0.0983904
-0.0203264
-2.60976e-06
-0.0161174
-0.0146766
0.00103125
0.000379556
0.583412
-0.0181863
0.22852
-0.0124645
0.00339924
0.110841
0.00070773
-4.39458e-05
-0.141436
-0.0129547
0.000164735
0.554547
1.00892
-0.000702521
-0.120294
3.097e-05
0.866304
0.215938
-0.119618
0.000277091
0.0570143
0.182839
0.210527
0.1629
-0.00140658
-0.000413459
-0.0539027
1.93013e-05
1.25571e-05
-0.0913736
-0.0825822
-0.142656
0.973032
0.000846353
-0.0725049
0.0291414
-3.88242e-05
-0.0043664
0.000232933
-0.0213505
0.000202876
-0.0146201
0.0955485
0.807696
0.143873
-0.000956052
0.00186711
0.0012455
0.223938
-0.011441
4.52796e-05
0.498219
-0.171959
-0.108851
-0.0501436
-3.47071e-05
-0.000948196
-0.175856
-0.0616776
0.362655
0.77534
-0.104759
-0.00462552
-3.24209e-05
-0.141867
-0.174023
-0.000671925
0.0151117
-0.0486808
-0.0172887
0.742953
-0.00473111
0.0443648
0.473059
-0.0281796
0.942236
0.932816
-5.74839e-05
-3.54027e-06
-0.0581577
0.0573692
-0.116354
0.0202251
-0.0272772
-0.00204507
0.844967
0.427438
0.0088067
1.08952
2.39318e-05
0.278581
-0.146011
-0.0685942
0.000449017
-0.120764
0.28653
0.0550539
0.191602
-0.00159538
-0.00171033
0.0063031
-0.012771
-0.0475247
-0.00379299
0.35344
-0.0180863
-0.0191231
-0.192848
0.715837
0.137687
0.10888
-0.00141129
-0.00182303
-0.0684063
0.00391459
-0.00956852
-3.22964e-05
-0.00120348
0.287257
0.757224
-0.000413031
0.532123
2.7074e-05
-0.0123031
3.46729e-05
0.020694
0.149812
-9.26009e-05
-9.54193e-05
-0.173468
2.06064e-05
0.167175
-0.0756494
6.12929e-06
0.449489
3.45468e-05
-0.00140823
-0.000269161
-0.0184034
-0.00125164
-0.0224897
-0.160201
-0.00109391
0.0163242
-4.51461e-05
0.703635
0.0392415
0.138286
-0.109462
-0.0761508
-0.00400276
0.0112803
0.492859
-0.0816857
0.491083
-0.133208
-0.0127171
-2.12847e-06
-0.0209411
0.741498
0.482754
-0.103989
-0.167563
0.683365
-0.0303627
-0.141798
3.34467e-05
-0.0789443
-0.00300813
1.067
-0.132373
-0.000262039
-0.179693
-0.0839875
0.545465
-0.00945082
-0.0879961
-0.0128696
-0.0171845
-0.00461086
0.543377
-0.198252
-0.0651413
-0.0515096
-0.0453516
0.0212053
0.673948
-0.0635826
0.429937
0.0105138
0.097146
0.895476
-0.0309009
-0.000775022
0.555914
0.739067
0.00852132
0.0996142
-0.0226913
-0.10808
0.551111
-0.143967
-3.98156e-05
-0.0265184
0.000162628
-0.016238
-4.36424e-05
-0.0149239
-0.00343857
-0.0111985
0.0414268
-0.00210639
-0.0017536
-0.00376328
0.464182
-0.00745973
-0.0116916
-0.010583
0.40697
0.0197162
-0.00117465
0.734989
0.92153
-0.0662806
0.846598
-0.0583733
0.694951
0.0202378
-0.0241488
0.00968666
-0.00156628
7.65722e-05
0.00968505
-0.0400511
-0.0663253
0.422551
-0.0765314
-0.0673
-0.00321075
0.0643591
-0.0763422
0.0242162
-7.06515e-06
0.0555997
0.408314
0.734201
0.124608
-0.0443737
0.346018
-0.001031
0.119948
-0.0596396
0.00257956
-0.177191
0.0136764
0.695145
-0.00714082
-0.0017956
-0.000244137
-0.138408
-0.0040655
1.0716
1.10285
0.0414389
-8.1415e-05
0.029158
-3.41765e-05
0.227512
-0.00176703
0.0750743
1.00346
0.239543
8.1737e-05
-0.0270698
5.47028e-05
-0.20388
-0.114556
0.840502
0.000884051
0.0400006
0.0139713
0.00108223
-0.00761603
-0.00094474
-0.0198752
-0.108294
-0.0748223
0.0301983
0.441149
-0.0433454
0.0219447
-0.065908
-0.00546748
-0.0865541
5.20863e-05
0.000191852
-0.00719192
0.0953001
-0.0756428
-0.0510262
-0.0119439
0.00924229
-0.0138943
0.599185
-0.0417324
-2.72978e-06
-0.171106
0.784194
0.065634
-0.0388724
0.279939
7.11307e-05
-0.00212017
-0.0917597
-6.0674e-05
-0.00136976
-3.77933e-05
1.08901
0.0294948
0.0121701
2.02505e-06
1.07174e-05
3.17929e-05
6.20133e-07
-0.0733157
0.742902
-0.113624
-0.00134597
-0.000450083
-0.015129
0.833311
-0.139135
0.782524
0.140194
0.333207
-0.000229821
0.824579
-0.00696392
-0.0297508
0.0997951
0.0340946
0.0376465
0.427941
-0.1307
0.816203
0.630339
-0.0250951
-0.0838722
0.0383871
-0.0930392
4.0963e-05
-0.00284323
0.00900093
0.193115
-0.020589
-0.073606
-0.0100187
0.970522
-0.15453
-5.4705e-05
-5.37989e-05
0.847686
-0.0154512
0.0112172
-0.0415083
-0.0069603
-0.0470382
-0.0302292
0.0824231
0.320738
0.147026
-0.0311668
-0.0438086
0.000357084
-0.017871
-0.00168676
-0.0247186
-5.00456e-05
0.000241487
-0.036611
-0.0617571
0.808544
-0.0181428
-0.000477583
-0.00448168
-0.000869981
0.730654
0.0697388
-5.76393e-05
-0.0734847
-0.0138188
-0.0105995
-0.0848472
-0.101277
0.0210326
0.173435
-0.149576
0.000313307
0.018273
-0.0415086
-3.69476e-06
-0.000137412
0.280607
0.222972
0.154085
-0.153712
-0.135698
0.00170691
0.88502
0.000366078
-0.0387854
0.756132
-0.052368
-0.110561
1.63628e-05
0.000601897
-0.109422
-0.0284272
0.00429699
-0.101202
0.505761
0.629766
0.00214263
0.000900987
0.505164
-0.0379326
-5.42632e-06
-0.00421
-0.0858402
-0.0628109
-0.0259166
-0.00313435
0.535604
5.67865e-05
0.197858
0.596871
0.000168841
0.043709
-0.0012062
-0.144928
-0.0409223
-0.00184353
0.0761954
0.0007355
0.502178
0.00424515
0.0631332
0.114937
0.997453
0.702199
-0.165215
-0.0204842
1.51644e-05
0.191827
-0.0377937
0.372872
0.680034
-0.100449
0.0397085
-0.0449286
-0.016944
0.330878
-0.000454991
0.83709
0.0708736
0.000177986
0.000170805
0.000346381
-0.0340375
-0.0469973
0.00214545
0.248557
0.334407
-0.151858
0.00192329
0.000259782
-0.0597757
-6.76834e-05
-0.00717135
-0.0281504
-0.00140233
0.201162
0.012498
-0.00331703
-0.00954057
-0.0404607
0.701998
0.719082
0.0989486
3.58391e-05
-0.0012649
0.527804
-0.00103427
-0.0904422
-0.000433423
-0.0501015
-0.172874
-0.000402808
-0.000494089
-0.0790144
0.00384501
-0.000132794
-0.00315312
0.473999
-0.0880579
-3.41825e-05
0.227943
0.692508
0.716919
0.00180843
-0.107918
-0.0232172
0.780458
-0.155045
-0.158401
0.0184017
-0.0322627
0.0740803
-0.0643788
0.716086
0.235004
-0.00032833
-0.136596
-0.189065
-0.009139
1.47213e-06
-0.00415845
0.448083
-0.000356794
0.0330479
-0.00958603
-0.00277339
0.0226185
0.0703524
-0.000345448
-0.000240065
-0.0114324
-0.139624
-0.087656
-0.167494
0.502998
-0.00184319
-0.00056789
-0.0854004
-0.0589924
0.0256442
0.0330653
0.000303734
0.171392
0.333031
0.0457484
0.0613091
-0.00140804
-0.0327861
0.217467
0.00332466
1.05163e-05
-0.0217621
-0.00967396
-0.00164502
-0.0263915
-0.00192188
0.596226
-0.0219458
-0.191484
-0.0576008
-0.0261332
0.0287443
0.86324
-0.110194
-0.000201727
0.820478
0.365752
0.019001
-0.0141537
0.018506
0.148963
0.347325
0.000940609
-0.00491505
0.999416
0.580385
0.671285
-0.108617
-0.0032452
-0.00283559
-3.72543e-05
-0.00298674
0.632201
0.192164
0.0203261
-0.00427312
-0.000727468
0.0897465
0.941698
0.753686
0.18634
-0.00667131
-0.161763
-0.00746533
-0.00161926
-0.0409182
0.0446453
-0.0672199
-0.00836533
0.00240187
-0.182818
-0.145628
0.0719636
-0.0594699
-0.00165326
-0.0638381
-0.000409311
-0.0164959
-0.00154067
0.693995
0.000186772
1.03771e-05
-0.0338348
-0.0481857
-0.0706432
0.0929727
0.00024497
-0.186165
0.169538
0.42414
1.06081
-0.0109281
-0.118005
0.0749489
-0.00483498
0.248471
-0.00132202
0.025694
-0.000361927
0.570952
0.0278805
0.0259921
0.335603
0.262762
0.0037893
0.00880916
1.4128e-05
0.790723
1.92539e-05
-0.112388
0.000910808
0.0043817
0.403218
0.235632
-0.154993
-0.0963989
-0.00947958
1.09646
-0.166391
1.58977e-05
-0.0372704
-1.50169e-05
-0.0234891
0.240009
0.421807
0.00228017
-0.0859094
-0.0224524
0.327361
0.243664
-0.079148
0.979717
-0.0235935
0.000204585
-0.122478
1.00825
0.00649274
0.212142
-0.103551
0.352408
0.00466917
0.0971105
-0.194257
0.015652
0.129462
-0.0299457
0.4852
-0.063311
-0.0463854
-0.0017662
-0.0017868
0.892628
2.83797e-05
-0.0113678
-4.63297e-05
-0.0192122
0.000948924
-0.0170769
0.559889
1.91471e-05
-0.00230344
0.364422
-0.181271
-0.0503701
0.00295226
0.757486
-0.105457
0.373546
-0.0284581
0.343169
0.0184831
-0.00164226
0.0725425
0.00199368
0.913723
-0.0629391
-0.000187734
0.00555649
0.315574
-0.0267668
-0.00152708
-0.000214082
-0.149222
-0.00602369
-0.0228239
-0.164346
8.83967e-06
-0.171687
0.00118786
0.685897
-0.0238806
0.331522
0.0115776
-0.00857396
0.573215
-0.0991627
-0.112786
-0.0100407
-0.150746
0.588551
0.621099
-0.0335511
-3.33188e-05
-0.0369883
0.0112891
7.95717e-05
0.213228
0.728567
0.030303
0.00392524
0.0330184
-0.174669
-0.000329921
0.205247
0.124517
0.191494
0.0319687
0.066681
-0.000824096
0.382846
0.050278
-0.185575
-0.00225591
0.0621922
0.330249
0.00203943
-0.180926
0.463657
-0.0800956
-0.182758
-0.192057
-0.10045
-0.106872
0.125045
0.461978
-0.150216
3.79695e-05
0.00232849
0.0649824
-0.0041036
0.0380562
2.58069e-05
-0.0135514
0.00967957
-0.000117025
0.133755
-0.001111
0.272574
-0.0765687
-0.00892142
-0.0163535
-0.020484
-0.153233
-0.0139478
-0.00223178
0.0508079
0.18649
0.0119576
-0.0809431
-0.00689258
0.0724862
-0.0226241
-0.0464528
-0.187908
-0.0382699
-3.09329e-05
-0.0366412
0.818148
0.00012017
0.403466
-0.0500508
0.961773
0.116059
-0.116439
5.56454e-06
0.00419467
-0.185698
-2.74639e-05
-0.00631577
-5.0929e-06
-0.162243
0.0110382
-0.14073
-0.0559433
-0.000239188
0.561284
0.540376
-0.0861772
0.00117805
-0.000334163
3.36312e-05
-9.5015e-05
0.8879
-0.00302291
0.00561064
0.0520782
0.00241892
-0.00130336
-0.192381
-0.000442146
0.119243
0.0111279
-0.00484766
-0.00163253
-0.0628733
-0.101179
0.400112
0.282083
-0.000320989
-0.0316342
0.00142863
-0.036608
-0.00102615
0.32225
-0.0150029
1.1014
-0.0229853
-0.00334709
0.175279
-0.0459941
0.67921
-0.102802
-0.0273111
-0.0313829
0.0439137
-0.00849298
5.45831e-05
-0.0199486
0.619059
-0.109223
-0.00767987
-0.103624
-0.0665305
0.333554
-0.00111212
0.576995
0.00459535
-0.150034
-0.00116793
0.0321699
0.111775
0.00456476
0.674065
-0.001026
0.0785039
0.204265
0.00137747
-0.000229474
0.942144
0.186842
-0.00025663
0.073023
0.066887
0.000402546
-0.038693
-0.0536053
-0.182347
-0.0242671
0.653297
0.011191
0.44903
-0.00086339
0.75544
-0.178574
-0.0127677
0.0152491
0.0751078
-0.143204
-0.102234
-0.0208108
0.000187622
1.01541
-0.0554906
0.00211551
0.0134922
-0.0986689
0.683751
0.00744047
-0.0398636
-9.07936e-05
0.261617
0.019755
-0.0955196
0.00209763
-0.00831261
-0.0694592
0.000117352
-0.129657
-0.00363748
-0.0361662
-0.160709
0.578746
-0.0249423
0.194284
-0.0573002
-0.0742008
4.02287e-05
0.000443048
-0.00894995
0.000121537
-0.0275249
0.179963
-0.0048757
5.33954e-05
0.914752
0.0124017
0.000947278
-3.56492e-05
-0.00502906
0.66494
-0.133986
1.01641
0.403947
0.0552048
0.574609
3.29835e-05
-0.0338626
-0.00192253
-0.00590829
0.420045
-0.0240547
1.02648
0.536213
-0.139872
0.548844
0.0231704
-0.0346999
0.00561149
-0.0496323
-0.00960179
-0.130051
-0.142965
-0.00723232
0.545839
-0.0242674
0.000414427
-0.0104123
-0.00151935
-0.0867887
-0.000329416
-0.00294069
-3.85406e-05
0.355412
-0.0896681
0.561233
0.07125
-0.00658634
-0.0743784
-0.048725
0.170737
-0.00738521
-0.00248115
-0.166498
-0.11119
0.0346327
-0.108378
-0.0109336
0.0481579
0.0091976
0.000140853
0.318052
-4.05546e-05
0.134687
-0.00185943
1.212e-05
0.00497324
-0.00152382
-0.0028745
-0.038935
0.419111
0.331364
-0.0498149
-0.0310563
0.00726234
-0.0125979
-0.0252139
0.000257102
-0.00110148
0.00181753
0.261855
-0.0204712
-0.13824
-0.104033
-0.0047919
-0.0446365
-0.0178525
-0.00408915
0.0132236
-0.030881
0.514986
-0.15652
0.0163543
0.00730313
-0.0927773
1.00186
-0.0245925
-0.0086549
0.0192777
0.192516
0.0100268
0.00699489
0.548514
-0.000811572
0.11028
-0.0529392
-0.106277
0.0157353
-0.00903551
-0.0135763
0.100537
-0.00881218
-0.00141404
0.00880501
0.00652561
-0.00047903
0.097478
-0.0231327
-0.00489022
3.0541e-05
0.359057
-4.09405e-05
-0.0707656
0.18657
-0.0539862
0.000474981
0.258735
-0.0738453
0.383663
-2.10805e-05
-0.00950709
0.310674
0.000507847
0.0123439
-0.0110473
0.025875
-0.0514677
-0.0814274
-0.0198944
-0.00649313
0.0245557
0.0504461
0.349083
-0.000388921
0.268512
-0.101161
-0.00797638
-0.0171479
0.00107905
-0.10582
0.000228995
0.824446
0.502077
-0.00111134
-0.0523689
0.000679427
-0.00521231
-0.0120346
-0.0253206
0.355662
0.419467
0.0895455
0.0252617
-0.186882
0.0977433
0.204532
0.241907
-0.129398
0.0496838
0.481935
-0.0236014
0.732966
-0.00214494
-0.0270734
-0.114049
-0.000155253
-0.0017298
-6.45221e-05
0.72804
-0.0255164
0.000769459
-0.0382829
-0.00925989
-0.000710791
-0.0325259
0.606894
0.00263954
0.0273163
-0.0655008
-0.000982613
-0.0111692
-0.00184756
1.03778
0.000590257
8.96543e-05
-0.00442493
-0.034067
0.33087
0.00145811
0.0541331
0.186985
-0.000246909
0.00538629
-0.185266
0.268482
-0.0593001
3.9654e-06
0.000966105
0.047657
0.079646
0.629139
0.216244
-0.0868938
4.54941e-06
-0.105933
-0.00628984
-0.0304662
-0.0294238
0.390126
0.797824
-0.00019827
0.334493
0.505828
-0.0237526
0.00544533
-0.051978
-0.0189557
0.000332945
-0.0998474
-0.0205969
-0.000145547
-0.00118163
-0.00367361
-0.00448102
-0.00150412
0.621163
0.673442
0.482547
-4.74355e-06
-0.0572331
0.188221
0.245681
0.833624
-0.00108466
-0.0495508
-0.0451665
0.653674
-0.0465278
-0.022447
0.0465847
0.341612
0.000845478
-0.00103356
-0.0582285
-0.0762583
0.359691
0.158614
-0.0869571
-0.0538952
0.34706
0.0511819
-0.116179
0.0171391
0.204631
0.395442
-0.000720774
-0.00136616
0.286677
0.000573761
0.130064
0.0759363
3.89182e-05
0.632898
-0.0251044
-0.0106329
1.05545
-0.0903682
-0.0170601
-0.0923501
-0.00559379
0.791404
0.00295388
1.0033
-0.000237071
0.0112844
1.02462
0.0168065
0.790504
-0.0138037
9.59342e-05
-0.0407802
0.813955
-0.00365319
-0.0159806
-0.0195165
-0.00228264
-0.0508517
0.808024
0.274645
6.54423e-05
0.0505093
-0.00887901
0.0729289
-0.00200371
0.0555135
-0.00620194
-0.000964236
0.772829
0.828588
0.778872
-0.127052
0.230445
0.000448454
-0.14155
0.572909
0.0453307
0.000699523
-0.10453
0.00153593
-0.000188619
0.8209
0.000374808
0.0104575
-0.00446456
-0.0212328
0.78511
0.813386
0.828395
0.029092
0.0013067
0.460188
0.018491
0.0728261
-0.0219197
0.00021543
-0.0069442
-3.05226e-05
-0.0108009
-0.00165677
-0.0135203
-4.85503e-05
0.333443
0.00524072
-0.141072
-0.0216768
-0.177058
-0.0393401
-0.00172451
0.691898
-0.0259223
0.000118277
-1.79948e-05
0.990614
9.51486e-05
0.0277381
0.148008
-0.0434255
0.61596
-0.0124438
-0.106352
-0.089168
-0.000980771
0.000371299
0.521069
0.825486
-0.00354884
-0.0472252
-0.000476518
0.822393
0.96139
-0.0032944
-0.0152239
0.0464808
0.00777755
-0.0588738
0.000276208
0.0246124
-0.0907083
0.149982
0.703121
-0.00342564
0.0685295
0.319823
0.182876
-0.108529
0.0686252
0.936794
0.426665
-0.133131
0.834822
-0.00125704
0.832652
-0.0158638
0.711642
0.199033
-0.0120061
0.103153
0.00595192
0.0424907
-0.181687
-0.00148023
-0.0560625
0.71967
-0.0619022
0.0787876
-0.00336367
0.133932
0.416723
-0.0218167
0.144125
0.00184501
-0.00843536
-0.0573238
-0.00499312
0.00499425
-0.0210634
-0.00107879
0.00597656
0.707057
0.00562475
-0.0382926
-0.137848
-0.0691615
-0.157206
-0.161647
0.0102727
3.19582e-06
8.22303e-05
0.539056
-0.108313
0.00018906
-0.0166774
0.378548
-0.140533
-0.0354789
0.00033919
-0.0043375
-0.112475
0.345695
-0.0182978
-0.00102571
-0.112241
-0.0453065
1.02593
0.245725
0.168647
-0.111309
-2.65219e-07
-0.0158507
0.149666
-0.000756239
6.37018e-05
0.36842
0.236295
0.00158214
-0.00188977
0.0246463
-0.0726272
0.0251297
0.0211116
-0.0357205
0.000169583
0.622068
0.00151927
-0.0012678
-0.000445386
-0.000434404
-0.000273056
0.184547
0.00249978
-0.00643577
-0.0224429
-0.0103495
0.0687611
-0.0125584
-0.0994327
-0.0243628
0.764746
0.651301
-0.00102359
-0.00325727
0.229097
-0.00177392
-0.0436277
0.207844
0.306852
-0.00212733
0.0482043
0.0933166
0.00330468
0.289465
-0.000159133
0.0176624
0.0325296
0.0330275
-0.0336014
0.111178
0.000230506
0.00334267
0.00079968
-4.27954e-05
-0.0031596
-0.0224993
-0.0298054
-0.0677199
0.195776
0.0971819
0.0214268
-0.132146
0.0309741
0.0227253
0.0308596
0.000182066
0.806755
-0.0189534
-0.00738343
0.06012
1.0382
2.2093e-05
0.255526
6.91021e-05
0.00525455
-0.0146606
-0.0491956
0.366182
-0.0089899
7.76812e-05
0.454347
0.158599
-0.00114673
0.11697
1.12286e-05
0.335266
0.0193853
-0.0639057
-0.000233407
0.504156
0.0655961
-0.0470347
0.000155613
0.348874
0.608417
-0.00241887
1.47245e-05
-0.0825829
-0.0204962
0.0363565
0.0677618
0.83707
0.520666
0.00122409
0.671147
0.515588
-0.00627253
-0.132236
-0.0668276
-0.0322246
-0.10692
0.391876
0.00201362
0.869315
0.330039
0.0287977
0.000335333
0.00157915
3.08291e-05
-0.00111879
-0.00610934
0.928115
7.73145e-05
0.170697
0.0610721
-0.000418308
0.873068
0.963307
0.403913
0.455559
0.146463
0.00577474
-0.00053197
-0.0247574
7.93225e-06
-0.00232198
-0.186838
8.69863e-05
-0.00328389
0.888348
-0.0260287
-1.11833e-05
0.913139
0.00117027
-0.0815139
-0.158876
-0.00278103
-0.147946
-0.000436956
0.382526
0.00770928
-0.0347672
0.00448194
-0.00129894
-0.000740762
-0.000403665
-0.20244
-0.136771
0.312311
0.00661085
0.00400941
0.487103
0.000224719
1.00528
-0.000984029
-0.203221
0.00522596
0.00378333
0.111345
0.118224
7.12235e-05
-0.00898282
0.000313013
-0.00136978
0.00202935
0.179758
0.106558
0.616433
-0.070948
-0.00015815
0.000459925
0.206601
0.686791
-0.00975503
-0.0138437
0.999141
-0.00599289
-0.0462551
0.00240625
0.213223
-0.0612885
-0.0188498
0.31846
0.00313841
-0.000424978
0.00382051
0.126367
0.99654
0.802373
-0.0541859
-0.0717027
-0.0139343
0.00361809
0.000111556
0.160603
0.42389
7.03038e-05
-0.0160392
-1.0085e-05
0.000402843
0.766222
3.2647e-07
-0.152494
-0.108848
-0.151042
0.150867
5.48874e-05
0.0224473
-0.0131295
0.717136
0.0772326
0.0112941
-0.0672764
0.00154556
0.683209
0.408971
0.0257377
0.147145
0.898785
-0.141975
-0.123898
-0.00403971
-0.0154082
-0.000681547
0.0726998
-2.35768e-05
0.3333
0.00666681
0.425374
-0.0744025
2.58447e-06
0.134844
-0.000271237
4.43893e-05
-0.00150424
0.980608
0.944891
0.639858
0.000181957
0.42694
0.829919
-0.0020051
0.00603866
-0.0186121
0.235504
0.822153
-0.061463
0.251464
-0.00522592
-0.149207
-0.169416
1.07028
-0.00120214
0.80352
0.186137
0.377136
0.000399262
0.000560916
0.0122455
-0.0196346
0.181058
-4.64145e-05
0.000202814
0.788211
-0.141282
0.000776001
0.821473
-0.00489229
0.000438711
0.700721
-0.0131986
-0.00315008
0.170447
0.379554
0.000798011
-0.000192469
0.00805948
-0.00874389
0.78566
0.97627
0.579022
1.04397
0.352993
-0.104712
0.905745
-9.1649e-05
-0.00686022
0.389978
-0.00734202
-0.00130546
-0.000155576
0.821754
0.10755
-0.00128571
0.951497
0.15872
0.550152
0.0953498
-0.00578763
-0.0453068
0.359963
0.167315
0.825362
-0.0482107
-0.00157561
0.762643
0.734648
0.0306867
0.621962
-0.0812643
-0.017044
-0.0197811
-0.00126976
-0.000220858
0.768938
-0.137434
0.136295
0.00240762
0.321009
-0.0706617
-0.0236739
-0.00191583
-0.00722361
0.847974
-0.00160717
-0.0379423
-0.00638111
0.841867
-0.0414206
0.0437645
-0.0163031
0.00320927
0.308472
-0.0487974
0.859655
0.375955
1.04211
0.47201
-0.138225
0.0673323
-0.00369924
0.0640148
0.0949986
0.7949
0.841965
0.926814
0.63438
0.775291
-0.000644108
0.884214
-1.26235e-05
0.000208061
-0.107365
0.950159
0.106601
0.494951
0.000147065
-0.00454727
0.0270226
-0.0694001
0.781609
-0.00135285
-0.0167033
0.639319
0.0023827
-0.0090767
1.01371
0.101129
-0.0671803
-0.0659743
-0.00101836
0.249996
0.374078
1.05418
0.319306
0.201859
0.0100101
-0.000425167
0.0103832
0.375511
0.0166309
0.000352259
-0.0508237
0.455735
-0.00304942
0.810095
-0.135597
0.816394
-0.00532547
-0.0494169
0.900963
-0.0114347
0.209522
-0.000748605
-0.00268838
-0.147941
-0.0492982
-0.0811469
-0.0209859
0.0566841
-0.0650084
-0.161124
0.818758
0.000694915
0.00178254
-0.0432909
0.25197
-0.0934689
-0.131604
6.37056e-05
-0.05127
0.102005
-0.000140914
-0.14143
0.161491
0.820181
-0.130793
0.812302
-0.0295167
0.279302
0.463794
-0.0775032
0.63563
-0.00351572
0.270778
0.00411412
0.174513
0.384967
0.335023
-0.0609791
0.0134918
-0.00123321
0.341882
-0.000122217
-0.000198327
-0.00209778
0.0553317
0.0415224
0.0325028
0.70604
0.331684
0.99191
0.661819
-0.00312624
-0.0724627
-0.000256335
-0.102596
-0.00223308
0.0125751
0.00149449
-0.0628794
0.603196
0.798736
-0.000533704
6.8864e-05
0.190257
4.4936e-05
-0.0195441
-0.000284331
0.291789
-0.0777633
0.352609
-0.149736
0.000154106
-0.0298974
-0.086664
-0.0480766
-0.0351155
-0.117215
0.164664
-0.000277144
-1.37568e-05
0.00459319
-0.000195412
0.189748
0.303403
0.0864832
0.930962
0.0964206
-0.172915
-0.197434
-0.000803301
0.105911
-0.000175015
0.770304
0.19783
0.880971
0.000396227
-0.0702472
-0.0143798
0.109557
0.466362
0.724286
-0.0159646
0.0846437
-0.00395463
-0.0368378
-0.0169252
-0.0128223
0.210172
0.00351705
-0.0137054
-0.0432926
0.531818
0.159564
1.90799e-05
-0.00173754
-0.0130483
-0.00117282
0.255766
-0.00129179
-0.0389002
0.316336
0.000216752
0.488328
0.000241458
-1.63349e-06
-0.173215
-0.0253358
0.000432068
-0.0481437
0.000482152
0.916843
0.0265248
-0.0525553
0.849235
0.245572
-0.068117
0.695396
-0.00568308
-0.00378024
-0.00424843
0.184052
1.10583
-0.00300071
-0.00110793
5.70662e-05
0.016741
-0.00248923
0.0528609
0.0131081
-0.0449308
-0.128904
0.0393463
0.0235306
-0.0394941
-0.00101206
0.0601544
0.711128
-0.00364194
-0.0292365
-0.000397524
0.705827
0.119469
0.702274
0.00101287
-0.00164204
-0.0499533
0.930908
0.280186
-0.0605928
-0.000198538
0.0668772
0.26192
-0.00239026
0.39242
-0.104692
0.0452759
-0.176955
0.722684
-0.0303009
0.454098
-0.00652582
1.05624
-0.0894747
-0.0232515
0.862749
-0.09323
0.312216
-0.192198
0.339818
0.0137509
0.104241
0.580423
0.102627
-0.105616
-0.0204014
-0.0155872
-0.0124829
0.0686715
-0.00280094
-0.118569
-0.0611844
0.00437394
-0.144432
-0.18122
-1.98824e-05
0.350825
-0.0191676
0.374889
0.879197
0.663399
-0.117933
-0.154019
0.00110762
-0.107825
-0.00810805
1.02324
-0.0759293
-0.0653656
0.653861
0.0978782
-0.0826783
0.478157
-0.0796987
-0.00118542
-0.0247364
0.0214009
0.00159632
0.683534
-0.00554263
0.268332
0.639941
-0.0119642
0.43161
-0.152028
-0.000688645
0.0143099
0.226618
0.646865
-0.00516619
0.191143
-0.147894
0.164474
-0.0487346
0.664479
0.0500989
-0.0251115
-0.00547949
0.000462175
0.806986
-0.00495694
-0.0437656
-0.000145532
0.38039
-7.07212e-05
-0.085066
0.000721042
-0.105948
0.00155847
-0.0207119
0.422809
-0.00805069
0.00205931
0.00151049
-0.00850045
0.176088
-0.000116697
1.89094e-06
-0.0178393
-0.0222229
-0.0470986
0.0172537
-0.00386015
0.152253
0.157697
-0.00252126
0.00225705
-0.000308238
0.798211
-0.00870908
-0.0143059
0.713133
-0.0385778
0.671669
0.120489
0.812428
0.416604
0.22887
-0.00298546
0.0173121
0.163125
0.0532417
-0.00904417
0.000478259
0.0178754
-0.106625
-0.00187014
-0.0174095
-0.0168128
-0.0186707
-1.35468e-05
-0.00673557
0.000187077
-0.000106602
0.00193612
0.594227
0.422389
-0.0233178
-0.00574387
-0.102236
-0.0441485
0.526435
0.735424
-0.108641
0.0044535
0.382822
0.00680454
0.00138987
-0.159376
3.635e-06
0.233731
0.31213
-0.00125506
-0.0764631
0.000524605
-0.0166284
-0.0162316
0.190801
0.0504412
-0.113657
-3.42159e-05
0.0228791
0.00379752
-0.072631
0.0119148
0.824406
0.000882125
-0.00806953
-0.0679961
0.505496
0.590409
0.642084
0.124527
0.00016308
0.0140971
-0.00120831
-0.00288271
-0.00188344
0.188553
0.397748
-0.0255012
-0.0745084
0.595814
-0.00856774
-0.0117178
-0.126071
0.172427
-0.00189421
0.175716
-0.0296754
0.206453
0.294535
-0.127049
0.00116312
-0.0103084
0.210102