/*--------------------------------*- C++ -*----------------------------------*\
  =========                 |
  \\      /  F ield         | OpenFOAM: The Open Source CFD Toolbox
   \\    /   O peration     | Website:  https://openfoam.org
    \\  /    A nd           | Version:  7
     \\/     M anipulation  |
\*---------------------------------------------------------------------------*/
FoamFile
{
    version     2.0;
    format      ascii;
    class       surfaceScalarField;
    location    "0.3";
    object      phi;
}
// * * * * * * * * * * * * * * * * * * * * * * * * * * * * * * * * * * * * * //

dimensions      [0 3 -1 0 0 0 0];

internalField   nonuniform List<scalar> 
176195
(
203.605
47.6887
-251.294
-473.774
102
371.774
-110.968
-79.7527
190.72
113.935
-279.206
165.271
-434.923
323.749
111.173
138.031
-337.244
199.213
-168.354
281.405
-113.051
-88.8139
189.942
-101.128
-363.402
352.025
11.3764
-465.117
-8.65684
-230.02
354.539
-124.519
494.947
-360.238
-134.709
-170.549
341.373
-170.825
94.5429
-96.0608
1.51785
-43.9028
-319.499
-111.806
66.0237
45.7821
-456.092
86.4088
369.683
-411.647
76.9884
334.659
-146.965
287.771
-140.806
-332.017
-102.906
-80.9581
177.687
-96.729
199.904
-197.818
-2.08558
392.91
-290.403
-102.508
161.251
-314.528
153.277
-262.89
222.118
40.7717
-108.832
207.746
-98.9135
52.3753
67.026
-119.401
-206.397
456.548
-250.152
-263.273
-175.887
439.16
-67.4643
96.4853
-29.021
427.846
-342.061
-85.7853
-235.214
-67.2869
302.501
-268.916
403.981
-135.064
-101.374
-77.5679
178.942
-110.39
-88.1085
198.498
182.197
95.7631
-277.96
-211.586
66.8711
144.715
-99.6067
-356.485
94.0013
-131.536
37.5344
89.6699
210.653
-300.323
153.614
-388.828
-57.5514
-354.096
-130.27
-38.8206
169.091
-119.381
301.578
-45.1459
106.14
-60.9943
-2.81153
97.3544
266.102
62.3054
-328.407
541.505
-302.093
-239.413
397.357
-146.971
-250.386
414.1
-534.029
119.929
-390.72
478.198
-87.4785
280.521
-101.946
-178.575
-460.977
319.645
141.332
-504.401
451.004
53.3966
-117.727
-167.448
285.175
-306.472
-154.505
542.554
-357.815
-184.738
-136.15
81.2373
54.9124
71.2966
69.249
-140.546
130.861
-231.878
101.016
-515.382
327.454
187.928
-186.332
332.425
-146.093
346.18
-129.459
-216.721
-107.219
188.213
-80.9934
295.907
87.167
-383.074
9.3871
-400.961
391.574
-352.01
196.662
155.349
-211.477
387.516
-176.039
61.0247
-121.728
60.7031
-523.731
248.847
274.884
-116.907
189.812
-72.9048
170.234
-130.214
-40.0198
351.087
-261.417
-139.21
69.9537
69.2559
-83.9579
-96.1995
180.157
83.0754
-168.025
84.9498
-189.858
50.0671
139.791
202.082
-403.147
201.065
-267.153
-113.883
381.036
-272.612
199.902
72.7099
-74.5767
-198.035
429.789
-432.787
2.99748
50.329
-86.8917
36.5627
-302.029
550.727
-248.698
-137.784
241.406
-103.623
342.478
152.469
-112.299
180.191
-67.8922
-324.477
472.879
-148.402
107.356
-120.831
13.4754
-86.6859
441.519
-354.833
124.977
-12.54
-112.437
203.542
-19.6459
-183.896
206.522
-469.795
221.718
49.994
-271.712
-420.692
315.353
105.339
-574.832
416.802
158.03
262.045
-321.894
59.8489
99.5763
-49.2473
69.7644
-147.043
77.2789
-0.485427
107.841
-314.458
-200.924
194.236
-427.341
233.106
327.601
-180.348
-147.253
-484.585
498.419
-13.8333
80.2893
-197.197
166.651
-83.6116
-83.0392
-502.323
297.642
204.681
-31.5551
100.529
-68.9738
-146.563
226.001
-79.4383
-311.327
-71.1484
382.475
-109.882
212.54
-102.658
-54.6652
316.71
-157.161
-32.6974
137.63
104.12
-241.75
-137.879
47.9038
89.9751
207.197
-346.076
138.879
-307.629
77.6091
-70.046
195.661
-125.615
363.999
-541.562
177.563
42.785
127.449
-186.79
116.744
-71.3924
-40.4134
-225.113
114.785
110.329
45.5536
-152.976
107.422
-230.665
532.611
-301.946
-106.008
38.5432
-265.999
79.6664
-124.613
59.5399
65.0734
-181.314
-41.7287
223.043
-497.115
499.63
-2.51541
-96.1026
226.871
-130.768
567.087
-287.71
-279.377
-163.525
162.497
1.02795
538.908
-196.429
-329.44
480.842
-151.403
-145.518
229.015
-83.4968
-272.748
207.534
65.2144
59.5482
-328.465
149.266
-266.993
182.829
149.596
76.8887
34.1835
-111.072
-189.068
340.979
-151.91
502.969
-504.53
1.56086
367.417
-193.975
-173.442
-257.539
161.436
141.956
-532.676
436.028
-327.081
-108.946
-116.742
-149.257
-439.306
227.828
-227.17
-166.852
394.022
113.059
53.5914
52.9846
-98.1306
7.01271
196.53
-567.957
273.279
294.678
133.439
147.082
-355.712
425.042
-69.3302
-412.196
100.869
-69.1171
206.879
-137.762
135.562
-135.691
0.128758
-153.813
104.504
49.3088
153.671
-70.5958
139.765
296.263
158.432
187.748
-186.478
150.296
36.1817
265.037
-146.924
-118.113
139.896
173.602
-313.498
434.914
-250.089
-184.825
-55.2252
-110.758
165.983
-179.023
109.906
-243.302
127.52
115.783
-242.8
158.81
83.9903
-98.3397
364.442
-78.0465
-33.827
111.874
26.7338
66.0932
-92.827
-65.6159
-88.0541
153.67
213.009
-426.084
213.075
-77.7876
104.521
194.555
85.2262
-279.782
118.559
-333.176
214.617
278.118
119.24
-283.711
-133.027
416.738
-187.453
103.495
117.028
-247.156
130.128
-196.927
401.971
-205.044
-251.391
-250.933
-162.344
384.898
-222.554
94.989
-262.407
167.418
312.039
187.961
-127.384
316.711
-189.328
109.626
15.3514
-105.627
300.182
-338.762
190.876
147.886
447.873
-143.16
-304.713
-206.557
116.588
89.9689
-214.36
105.528
78.9326
-131.366
52.4334
21.1103
-98.8979
-174.081
164.902
9.17891
58.8915
-150.27
91.3782
76.8569
141.668
-218.525
-556.803
377.294
179.509
-219.008
363.233
-144.225
356.293
59.1493
-415.442
481.28
-479.32
-1.96033
-339.444
169.108
170.336
138.58
-94.1187
-44.4613
370.068
-271.62
-98.4479
-87.2868
383.193
-206.785
-194.529
401.315
104.389
-207.892
103.503
-73.9746
95.0849
19.3485
278.294
6.37652
-269.266
-384.198
297.512
-158.519
-68.9835
227.503
-88.752
-117.805
-100.166
241.191
-141.025
-185.459
-133.513
318.972
84.1932
-87.0048
-123.548
-261.515
385.062
136.706
3.87346
-140.579
138.856
-2.81523
-136.041
137.617
-330.283
192.665
-77.1668
141.917
-64.7502
-73.5444
-430.856
-205.233
44.9438
160.289
-195.16
-84.9342
280.094
187.968
-68.6168
-119.351
139.14
-60.2072
-355.376
86.9766
268.4
-1.64755
-406.134
407.781
65.8418
-119.775
53.9336
30.4088
-103.373
72.9646
88.4134
-178.505
90.092
-229.432
125.331
104.1
-224.478
-332.326
-641.691
285.405
356.286
391.771
-206.237
-185.534
-49.825
159.087
-109.262
240.36
-166.771
-73.5883
-48.2011
135.149
-86.9481
-291.113
159.234
131.879
-110.763
-43.0498
137.533
-67.7685
278.589
-217.546
-61.0434
-235.373
407.591
-172.217
432.258
-213.281
-218.977
137.699
-88.537
-49.1618
-161.93
106.705
-63.5523
-37.4255
100.978
211.868
273.247
-485.115
-370.871
241.425
129.446
221.807
-520.128
298.321
387.449
-237.52
-149.93
125.573
-101.698
-23.8747
-3.38394
-280.327
-60.6116
157.912
-97.3
-554.426
295.688
258.737
503.606
-503.606
-182.244
93.4301
368.419
-371.803
-4.25256
88.4458
-463.416
266.489
-109.426
115.241
-5.81445
36.7709
-183.334
258.785
-144.85
-90.6968
136.25
179.833
-280.302
100.469
89.901
91.8483
-181.749
-98.0343
189.525
-91.4904
415.222
-131.524
-283.697
-318.872
191.488
427.615
-149.498
-215.563
-75.5499
141.088
178.39
-319.478
-191.279
104.213
87.0658
40.896
-100.842
59.9462
-169.231
103.616
-249.826
297.945
-48.1193
82.347
-113.902
-125.951
-60.5272
97.2752
184.889
-404.846
219.957
69.4633
69.1167
456.514
-254.467
-202.047
174.01
202.841
-376.851
39.8048
-245.038
487.303
-496.94
9.6367
120.347
-66.0579
-54.2894
81.2364
-134.419
53.1828
110.358
-69.4622
-500.323
66.1244
434.198
-148.769
29.3442
119.425
349.551
-330.203
-258.73
409.63
-150.9
-474.726
301.367
173.36
364.638
-244.519
-120.12
-132.477
-207.171
339.648
-162.616
345.248
-182.632
-210.962
112.928
-74.1563
-23.124
97.2803
104.928
-192.985
88.0568
-60.5229
117.173
-56.6498
310.267
-192.984
-117.284
81.9148
44.4616
-126.376
-122.767
263.299
-140.532
-249.537
158.054
91.4832
114.933
73.0348
99.127
-114.329
15.2022
-168.432
286.991
-91.8046
-188.184
279.989
96.0389
28.5181
-124.557
-95.9955
140.124
-44.1285
-151.696
101.871
-330.656
160.107
-182.249
346.082
-163.833
356.68
91.1927
177.031
-412.404
273.787
-112.537
-158.504
104.42
54.084
-12.0952
-164.241
176.336
262.837
-386.384
-60.0266
416.32
-31.9088
-105.97
171.588
64.9654
-236.554
-145.865
61.3384
84.5266
-365.739
10.0273
188.136
-397.515
209.379
30.2463
-104.403
-131.256
-17.5128
194.814
-286.619
-432.876
-67.4467
141.468
229.701
-371.169
219.09
145.549
155.38
-68.1907
-87.1895
173.489
101.275
-274.764
-237.958
151.073
86.8853
80.3451
-357.621
277.276
353.078
-215.047
243.76
-148.771
86.4543
107.377
-193.831
-124.266
254.472
-130.206
107.518
-55.1428
93.6593
-184.167
90.5081
267.135
-88.3899
-178.745
-169.293
-213.43
382.723
-174.224
-75.6018
-95.3596
-10.7068
106.066
82.8931
47.9061
-130.799
320.757
-175.014
-145.743
-189.137
25.6125
-498.934
346.613
152.321
360.404
8.01425
171.183
-290.974
119.791
182.697
-105.84
185.39
85.3039
-270.694
-41.138
244.743
-105.321
-299.559
404.881
-170.94
388.694
-217.754
-117.327
257.306
-139.979
-166.103
262.467
-96.3643
147.705
-95.247
-52.458
-158.839
-52.7471
-170.854
93.5528
77.3013
250.443
-138.378
-112.065
-438.078
332.757
-162.408
165.201
-2.79345
-187.847
110.387
77.4596
304.47
-166.853
-168.962
473.041
-304.079
188.607
-92.6409
-95.9662
51.8444
72.538
-124.382
74.6098
63.089
25.6915
229.975
-255.666
88.9604
92.2313
-181.192
61.1681
305.984
-367.153
145.352
510.385
-96.2843
226.347
95.4782
-321.825
-131.703
290.069
-158.365
138.06
-72.2178
213.98
-122.438
-91.5421
-77.3894
202.013
-124.624
131.035
-248.362
393.689
-219.679
-371.353
369.363
1.98999
114.399
-83.9901
-58.0054
-42.0869
100.092
487.931
-164.182
-71.3501
182.042
-110.692
-220.017
412.293
-192.276
252.423
184.305
-436.728
67.5984
-179.897
-449.108
242.711
-20.1118
158.968
-325.184
188.052
137.131
13.2277
85.8993
-316.635
-131.69
448.324
268.37
159.245
-77.8004
-83.9086
161.709
100.538
0.345549
-100.883
-242.816
355.024
-112.207
100.823
-109.056
8.23258
-135.762
373.124
-237.362
-105.484
120.522
-15.0381
62.5149
109.507
-172.022
142.043
-471.482
-172.304
262.325
-90.0209
-98.094
237.936
-139.842
-134.078
198.684
-64.6064
254.839
-159.509
-95.3301
-275.114
86.9295
237.916
-407.209
-38.6242
214.14
-175.516
-226.409
88.6255
198.023
99.9215
381.286
-112.916
66.3081
-127.551
61.2432
353.319
69.9247
-423.244
-197.565
404.017
-206.452
-232.841
-267.157
22.9426
-96.9172
601.437
-379.211
-222.225
-61.5015
131.213
-69.7119
-138.127
42.1315
284.876
-378.341
93.4653
-120.909
183.424
-392.272
366.992
25.2794
322.969
219.584
147.293
157.993
-305.286
-503.987
382.339
121.648
-352.68
426.193
-73.5126
-99.2546
253.378
-154.123
182.851
-67.918
130.522
179.745
124.505
-296.809
-129.909
266.324
-136.415
382.73
218.706
336.298
-330.442
-5.85549
325.158
-529.506
204.348
341.682
-139.6
-101.045
-396.069
55.3176
-210.137
154.82
80.5763
-158.377
357.53
98.9839
171.819
-86.2138
-85.6049
238.586
169.004
134.605
233.697
-368.301
-113.68
366.103
403.491
-190.482
-393.522
1.2869
392.235
-291.199
-180.968
472.167
421.494
-291.876
-129.618
489.064
-248.713
-240.352
-64.9445
-96.9853
-61.0451
273.77
-212.725
67.3444
72.1202
-139.465
85.586
-144.272
58.6862
154.097
141.897
-295.993
-186.061
31.4831
154.578
13.1533
87.67
412.036
-173.45
375.015
112.916
-286.592
-122.287
408.879
-41.2355
137.274
-171.023
90.0645
-160.181
-220.017
380.198
-25.3146
91.4077
-38.1439
-147.917
166.328
-457.527
196.124
-37.8695
-56.6604
94.5299
220.433
-61.3463
-93.1372
-46.0724
-255.077
125.168
-94.9442
266.533
-324.719
499.957
-175.238
261.399
-421.58
390.685
-196.449
107.092
186.222
-293.314
-134.864
80.8051
54.0584
-367.32
488.638
-121.319
307.418
-227.073
554.001
-227.282
-326.719
113.53
106.903
358.853
-116.75
-242.103
-271.884
434.548
-162.663
134.565
-228.858
94.2935
-181.76
31.0798
150.68
-135.04
-75.9224
130.429
-383.248
252.819
11.5184
-121.255
109.737
454.664
-200.427
-254.237
300.158
-467.188
167.03
-227.731
189.106
96.3526
92.2545
105.148
-4.14238
-101.005
254.464
-116.834
250.728
141.043
323.513
-180.387
-143.126
-327.178
217.734
109.444
-491.15
383.205
107.945
186.16
-97.7468
-121.831
181.574
-59.7423
-172.363
-77.1738
336.899
-52.023
121.308
9.90674
-131.215
-117.172
203.626
-119.564
71.3634
-517.943
357.048
160.895
312.017
-140.834
227.072
160.378
160.669
-398.189
-474.619
238.102
236.517
-245.371
155.92
89.4513
113.011
-38.0062
-75.0049
-218.893
-203.189
422.082
102.323
135.188
-237.511
-407.11
282.67
124.44
-272.339
-134.772
-560.828
373.034
187.794
-279.413
107.05
585.7
-299.639
-286.061
-146.817
-178.66
325.477
-134.225
139.675
-5.44991
-166.809
275.457
-108.648
-255.126
155.871
-412.876
331.37
81.5058
90.1884
93.8522
-184.041
-368.078
195.873
172.204
-110.804
-131.996
145.056
-103.664
-41.3919
276.829
104.456
573.966
-316.408
-257.558
253.32
-519.759
266.439
58.3583
-121.078
62.7193
100.041
5.10678
-61.0119
148.216
-87.2038
272.967
300.999
73.885
-175.259
-274.802
150.536
99.3299
-38.3053
101.181
149.262
347.274
82.5155
110.873
71.9786
45.5524
-189.032
143.48
365.252
-514.22
148.968
-60.8447
326.087
-265.242
-34.764
120.35
174.464
379.537
-148.075
359
-210.925
55.0632
-160.397
105.334
-340.896
-300.794
-69.6928
-32.7414
102.434
7.18438
-141.41
-108.558
120.077
179.158
-85.4983
180.802
-327.618
-142.175
83.106
59.0694
-351.667
-87.822
439.489
-338.28
521.843
-183.563
109.681
-370.162
260.481
32.2245
-123.54
91.3157
-97.5318
-257.844
271.404
124.255
-395.659
171.034
-115.716
251.55
-140.826
-110.724
542.959
-170.203
-372.756
-364.699
49.3306
315.368
331.693
90.6302
-422.323
-470.946
490.29
-19.344
-146.15
-78.9631
-88.5775
178.479
141.967
181.546
244.659
-524.591
279.932
376.709
-367.322
453.57
-182.166
552.785
-298.704
-254.081
-223.922
246.396
-22.4736
-51.5139
172.822
-66.0661
-265.902
331.968
56.7697
446.836
-61.7788
-89.917
141.438
-74.0933
302.773
-148.676
135.859
52.5648
-188.424
166.453
-227.498
-70.9906
-83.979
154.97
552.648
-552.648
6.56928
-112.053
281.945
-169.942
-112.002
-303.371
-171.355
-161.549
96.6043
-365.713
-118.873
-64.3412
116.186
215.325
-304.197
171.064
133.133
-0.939468
-391.332
129.089
85.9757
-215.065
87.0158
102.509
108.05
-31.161
-63.9286
-300.77
49.2147
-224.424
175.209
0.398016
-393.92
-298.599
150.524
-131.633
-184.728
316.361
99.6222
255.615
-355.237
-328.359
500.843
-172.484
-84.7569
-24.6692
-56.0942
86.9903
-30.896
-102.547
183.652
-81.1051
228.175
168.784
-396.959
309.52
-202.428
406.205
-187.116
-304.334
-199.653
122.043
-269.008
-184.816
74.4265
-412.948
308.116
104.832
84.063
-435.73
91.8855
136.397
-228.283
-222.652
-152.643
375.295
28.8733
-89.3962
100.996
-142.232
-103.846
-221.17
325.017
-301.809
240.964
-95.2824
-57.5844
152.867
-188.98
104.282
84.6986
358.103
-517.07
158.966
317.038
-206.916
-110.122
151.196
281.062
110.771
68.5125
-179.284
387.3
-160.228
146.877
-514.196
235.036
-185.821
151.364
165.674
-64.692
-348.256
208.355
-368.095
159.74
406.32
-233.534
-172.786
74.4885
-260.625
186.137
-229.193
-10.1356
239.328
66.7637
-139.945
73.1808
85.462
-163.262
77.7998
193.501
212.705
-47.6773
148.215
-334.104
418.167
135.767
234.137
-369.904
-102.428
309.625
74.6985
91.0739
-165.772
41.7684
-314.711
272.943
-141.125
148.31
278.741
-457.785
179.043
-87.5002
223.359
283.485
-455.266
196.536
-120.31
-6.60966
126.92
26.7292
123.927
-150.656
228.882
225.782
-98.6716
173.37
340.068
-28.523
-311.545
-124.011
444.718
-320.707
101.907
291.003
45.6222
228.148
312.054
131.42
-443.474
328.861
-267.339
-61.5223
-32.603
-129.805
-208.031
62.5128
-82.5194
-30.2774
112.797
12.3525
-94.872
-306.356
174.652
-79.173
-162.168
241.341
218.637
96.7565
-315.394
-222.596
-47.6693
270.265
-152.748
90.9688
81.0455
-183.593
-83.929
-318.673
402.602
-69.5512
-146.012
517.347
-238.605
-74.3372
68.2269
59.1659
-127.393
-190.987
74.7357
116.252
77.8683
-94.6882
16.8199
105.675
173.456
-279.13
-189.574
109.136
80.4377
-132.185
317.575
-95.0859
-114.377
209.463
-319.853
-203.878
-241.863
132.106
109.758
-229.282
527.001
-297.719
433.754
-303.325
-72.2044
-95.9176
168.122
-79.6386
109.885
-185.16
323.144
-137.983
-121.675
264.592
-142.917
163.494
-64.447
-99.0467
-249.345
359.026
124.379
-68.8939
-55.4848
-274.275
280.194
-5.919
-267.604
99.2496
199.005
6.97291
-205.978
-191.237
374.657
-183.42
129.221
-63.3604
-65.8607
225.079
-461.91
236.83
-497.84
173.363
166.899
-30.1932
-142.414
1.28848
-192.099
92.5704
99.5285
-149.663
358.018
140.353
-85.2903
80.9847
-415.089
-52.9596
-55.5448
108.504
-105.46
-509.238
357.384
151.854
248.008
80.8526
-305.542
-160.868
466.41
-74.0446
298.801
78.7879
-140.289
-57.3593
-133.92
-230.612
-239.147
469.759
-197.181
-243.063
440.244
-269.621
256.396
13.2251
311.897
-250.729
-300.119
-198.815
340.837
-509.799
90.4588
101.355
-191.814
-383.451
211.472
171.978
158.489
216.526
-80.9303
145.522
-64.592
-330.359
526.163
-195.804
-164.809
113.754
51.055
-137.692
64.8885
72.804
48.2785
-104.373
-63.7891
395.482
77.4141
69.1621
-146.576
494.477
-182.422
-141.853
258.881
-318.953
156.337
-287.079
287.079
-136.181
228.067
-548.789
281.518
267.271
-264.149
-83.3826
347.532
188.636
-143.084
-102.214
107.17
-4.95506
-233.904
67.8009
123.309
-483.547
50.5092
69.838
-122.742
-320.355
443.096
-232.498
368.265
-237.945
137.779
501.304
-247.083
-254.221
-191.646
-37.5462
147.47
-327.818
-568.317
398.405
169.912
-283.799
-158.733
-204.437
38.0312
166.406
-25.1177
-120.94
146.058
137.403
117.062
-96.0541
123.489
-27.4349
-4.91748
89.8726
-84.9551
223.424
-222.46
-0.963787
212.949
-337.846
124.897
44.1666
-165.998
-72.0276
-155.703
106.709
-201.733
95.0246
-393.364
-257.773
316.943
-59.1692
86.2279
42.9932
0.598716
-149.397
148.798
-149.73
-202.28
155.498
-386.595
231.096
-175.263
103.059
69.1
45.9621
-115.062
43.0829
-138.365
-141.024
222.088
-81.064
144.646
110.701
-255.347
-148.722
-284.203
432.924
171.124
-421.732
250.607
102.18
-139.384
37.2032
-540.724
308.919
231.805
464.729
-323.371
-141.358
-501.517
176.798
-105.486
112.055
-76.3909
-94.6318
288.864
-402.544
-344.518
-130.101
-183.904
-120.293
-380.82
155.961
224.859
-207.601
138.05
-46.3892
307.433
-261.044
-95.8749
-242.869
132.065
161.243
95.3946
-256.637
258.828
-454.509
195.681
194.819
-90.4304
-315.82
108.905
225.551
-94.6891
-327.588
-112.131
439.72
383.51
-228.012
-331.9
336.524
-4.62383
-69.0299
125.677
-56.647
-379.852
166.422
-312.641
126.433
186.208
135.674
-135.674
-194.845
-256.134
450.979
471.538
-390.553
68.1553
-263.315
4.04883
336.019
339.083
203.876
-229.835
-47.8125
277.648
112.834
-1.11852
-111.716
-74.5593
141.845
-67.2858
-180.404
104.436
75.9684
-323.01
-244.947
-150.313
79.3223
117.806
-49.5792
-272.585
-302.247
-147.617
86.6055
131.914
209.459
76.7899
33.5396
-110.329
-53.4707
128.681
-75.2106
379.663
173.122
-161.65
-117.764
-336.307
-172.931
-155.768
-101.76
257.529
-69.3596
-272.762
342.122
-328.917
163.246
165.671
-91.8817
-104.729
196.611
337.857
-505.025
167.168
209.215
-354.668
145.453
227.769
-406.631
178.862
-84.311
-51.8388
-238.103
166.075
166.476
-395.04
228.564
-128.99
103.873
-378.905
159.897
-204.471
362.96
-65.0585
120.438
-55.3799
94.3681
-131.267
36.8987
31.5704
-95.1226
-153.902
366.851
483.501
-465.548
-17.9529
-100.58
132.805
-78.7879
138.691
-59.9027
260.936
-455.781
-51.3931
142.634
-91.241
-149.486
289.382
390.879
-507.239
116.36
220.561
69.7901
-290.351
58.7784
-104.968
46.1898
-33.3775
111.246
59.0907
37.6194
-96.71
-37.755
141.299
-103.544
-10.8043
161.559
-150.755
178.707
-71.9979
386.121
-135.394
-56.5761
255.73
-199.153
-303.723
-48.9575
183.08
-98.7655
-84.3142
182.436
-285.757
103.322
-239.987
-147.074
387.061
-69.5999
163.968
-271.173
154.758
116.415
226.923
-340.738
113.815
-324.543
201.597
122.946
252.944
-136.506
-116.438
-129.935
56.4057
73.5292
182.063
-388.849
-98.8585
-80.5108
179.369
-48.0126
-134.137
182.149
73.1133
-222.415
149.301
-99.0854
188.046
187.647
-99.2124
-88.4342
-64.8096
-105.522
170.331
-48.2141
149.21
-163.981
-117.533
281.514
-304.851
-8.65507
313.506
61.7564
-110.884
49.1273
171.003
96.1315
119.602
105.949
-115.704
113.063
2.64133
-204.437
-55.639
446.518
-12.6513
106.653
377.666
12.2375
-389.903
385.245
-325.697
-468.737
168.618
43.0446
60.7395
-103.784
-125.885
-32.619
82.6952
-260.101
177.406
105.525
-363.298
-178.283
-30.8866
251.448
-65.3922
264.397
252.369
149.603
-396.992
205.755
-146.682
65.7518
381.856
-160.049
216.542
-83.8604
-132.682
259.133
-328.493
284.486
-170.659
-113.826
202.222
-184.984
-17.2381
116.606
-54.8495
-214.987
-235.702
450.689
-190.844
41.0054
149.839
490.745
-483.602
-7.14304
230.746
-60.2733
-170.473
241.434
242.38
-483.814
250.214
-177.101
-166.045
301.638
-135.593
-160.388
307.682
-135.666
221.076
-85.4105
-189.822
-149.622
57.4267
-128.443
71.0167
94.8643
-189.95
352.024
119.514
-267.256
-145.62
-52.3452
-138.642
119.314
-42.5239
-172.733
275.914
-103.182
-60.1096
131.406
120.769
-45.456
-75.3129
-139.695
74.8859
-581.972
362.42
219.553
69.9461
-123.082
53.1356
-179.373
262.068
-69.1078
134.667
-65.5595
74.0498
46.7191
-142.364
363.831
-221.466
-113.006
-91.6391
204.645
-57.8255
-42.2301
100.056
338.513
-145.682
-192.83
223.344
-78.946
-144.398
-379.761
-313.807
-154.93
-57.6248
-79.6278
137.253
111.294
-296.149
184.855
120.071
-62.6445
-111.621
6.13494
145.085
-412.238
312.594
-94.8604
-162.387
91.0368
-161.487
87.4135
74.0734
338.898
-129.683
162.171
-130.21
-31.961
-84.5883
-76.8986
47.9002
-121.883
73.9826
88.1782
-164.569
115.136
-64.6293
-105.191
169.82
-89.8043
210.889
-121.084
108.293
-23.8367
-84.4565
-269.379
-35.4719
126.164
87.8161
-90.3646
10.726
-100.805
197.995
-97.1901
-96.5074
102.812
-6.30496
-103.07
-78.4751
-96.585
175.06
483.153
-385.662
-97.4909
411.314
-122.45
129.674
-102.945
-425.696
463.889
-38.1932
-179.427
305.889
-126.463
-232.263
300.419
100.055
87.5914
-73.7904
-114.056
-93.0812
272.914
-138.449
277.727
-139.277
27.5533
61.1728
-88.7261
-284.005
156.223
127.782
120.381
-62.023
-71.1745
-59.0395
-213.068
-186.482
399.55
138.934
344.219
-455.211
258.03
240.425
-240.425
-100.532
94.8635
5.66803
185.718
-101.516
-84.2012
246.002
-540.002
294
183.587
154.926
-252.783
356.547
-103.764
114.135
-44.1886
-205.841
130.718
75.1232
156.959
330.238
-487.197
255.125
-117.722
-317.326
159.767
157.559
77.2791
-174.55
97.271
278.942
149.433
-428.375
-207.765
94.7589
75.1628
-147.094
71.9311
141.6
-179.355
-169.375
397.55
-185.967
95.2806
90.6863
176.72
-106.047
-70.6733
-90.3488
358.918
-268.57
333.612
-167.159
-45.8854
107.91
-62.0248
181.78
174.725
-356.505
-206.353
-248.858
-90.7814
349.61
99.2416
-185.711
86.4691
-205.121
399.5
-194.379
148.649
-71.3699
318.902
-219.587
-99.3146
130.583
-64.2747
-220.118
-134.134
69.0753
-620.246
303.838
132.59
493.614
-501.534
7.92016
200.411
188.377
-388.787
116.317
45.854
-360.812
-130.338
137.486
-149.581
11.9012
-281.522
-29.9727
-100.951
130.923
161.453
-295.486
134.034
97.0902
286.115
-136.139
88.1153
48.0238
50.7362
-184.873
58.2859
-100.627
42.3413
263.543
95.3102
263.45
-175.385
-88.0652
129.935
-63.1711
-385.862
271.162
114.7
-260.079
-360.167
184.746
46.0003
143.267
-453.835
310.568
-55.0886
-84.4595
139.548
35.7867
-128.073
92.2867
293.733
207.571
-1.73726
379.403
-61.4082
-70.1274
418.36
-139.418
63.1784
-122.887
59.7084
-462.906
259.046
203.86
-201.863
-244.997
446.86
-366.488
566.488
-200
281.001
146.845
-173.786
250.036
-76.2504
-149.957
252.28
352.072
-277.156
-74.9157
-180.704
291.238
-110.534
-186.807
-151.955
-77.73
-200.328
278.058
65.6591
48.5971
-114.256
173.524
-83.3359
440.392
-378.823
-61.5695
-173.996
98.6961
75.2997
80.4844
264.353
-344.838
103.117
-34.0171
347.574
92.8188
-68.7548
143.918
-102.2
-33.9389
-225.966
514.167
-288.201
5.416
191.615
-197.031
216.113
-383.291
167.178
-82.986
-42.1343
125.12
289.745
96.3762
-86.3598
-23.3388
109.699
-155.219
144.663
10.5563
-178.737
111.698
67.039
182.818
384.268
102.447
-43.3563
-266.18
-119.681
228.703
-443.69
413.725
-509.848
96.1225
68.5266
223.384
-31.8302
-191.553
118.544
-70.6435
80.8909
-408.479
-78.0145
-89.2423
167.257
104.85
-11.2349
-93.6149
-119.532
24.1719
123.694
131.145
155.376
-328.275
172.898
-93.4469
164.121
-70.6736
152.308
-357.429
342.758
-231.464
341.938
-82.8049
-356.192
-198.233
-287.855
462.714
-174.859
429.272
-324.31
-104.962
-8.90073
-336.627
345.527
-335.545
-176.633
512.177
-175.505
-6.2552
94.6841
-36.3982
-501.108
260.86
240.248
-192.157
-80.5908
-88.7059
-41.229
-35.6403
137.821
-79.9593
149.208
-554.631
382.758
171.873
98.5115
-163.141
-24.692
92.6542
-67.9622
181.655
-146.393
187.929
-312.783
124.853
322.603
-255.607
-66.9962
87.4095
-397.453
310.044
217.02
-97.4183
114.406
255.662
-96.0168
-92.9634
111.374
-52.5959
474.925
-299.064
-175.861
-267.337
364.045
-96.7081
-108.019
192.347
282.578
-417.833
31.869
385.964
-282.173
-181.243
126.033
-203.455
77.4212
-136.161
-70.0839
206.245
107.56
211.198
-318.758
44.6215
-264.123
-236.985
-76.1176
-27.7032
103.821
-205.346
326.344
-120.997
479.212
-173.228
404.243
-57.6301
-281.641
158.873
96.3196
8.53015
-268.488
-36.7896
305.278
56.8952
-373.53
-408.908
137.023
131.519
-17.1189
-114.4
180.828
-263.497
82.6692
-111.135
255.781
-458.718
334.706
-61.1811
-78.7634
497.226
-149.653
-240.639
406.785
-166.146
212.904
-329.635
116.731
469.931
-111.828
38.3627
87.21
-309.551
135.765
338.826
-179.019
-159.808
-176.248
296.183
-119.935
132.022
347.191
162.731
-268.183
105.452
389.851
-107.181
360.832
129.388
-490.22
329.288
-226.255
-103.034
473.272
-502.192
28.9197
127.464
-101.358
-26.1053
345.442
-245.82
-8.4134
-111.897
-80.1664
-182.937
263.104
50.7163
-117.138
66.422
-127.302
56.128
-307.195
474.401
-167.206
-87.536
-54.6393
-194.616
200.032
114.403
24.0296
-102.14
78.1102
289.272
1.81522
-291.087
-124.407
73.0745
51.3329
-100.804
454.124
168.114
116.371
-142.277
303.73
-237.023
159.634
334.873
50.3716
-160.766
-156.56
16.3309
227.429
-246.251
84.601
-141.625
241.598
-99.9725
46.821
-111.162
403.74
-203.33
-369.152
376.287
-7.13536
-133.236
494.067
68.9388
-141.299
72.3602
118.771
-68.6917
-142.469
211.161
-151.982
188.457
-72.1401
105.424
4.86893
-110.293
74.9372
-117.622
42.6846
-243.884
145.79
-101.036
-68.6526
169.689
-267.758
-294.352
128.558
165.795
120.41
-84.6233
47.8207
-113.717
65.8962
47.694
-183.855
131.913
131.386
-88.5887
246.313
-157.725
-121.706
70.6091
51.0966
-67.7011
178.727
-111.026
-375.379
213.034
-177.982
359.763
153.276
-272.117
118.841
227.524
178.266
-405.79
-58.3098
-32.2863
90.5961
331.47
97.8018
319.452
-147.28
-172.173
-157.579
406.196
-248.618
164.648
-70.964
325.724
-254.76
327.683
121.676
-449.358
474.559
312.449
152.484
-464.933
249.32
-455.674
193.77
-32.3502
-161.419
-338.207
186.046
152.161
-110.766
4.59114
106.174
94.7998
17.6903
-112.49
-75.5236
-59.3399
13.9175
-383.069
-356.42
214.056
61.0725
193.368
-254.44
-377.993
307.029
222.877
122.895
-345.772
-63.999
109.789
-45.7904
-103.74
-139.46
243.2
568.807
-256.768
63.4628
136.441
-131.743
-277.918
409.661
-121.585
172.321
-223.446
382.049
-158.603
-349.584
39.2018
310.382
-177.87
-279.185
457.056
-49.7549
-87.9376
-564.245
366.72
197.525
301.301
-183.245
-118.055
-123.626
346.504
-169.595
68.5584
112.026
-190.041
126.707
89.8348
-163.614
-490.523
250.997
239.526
-160.697
76.1089
-267.058
97.1151
-290.155
-291.817
-58.1223
-243.687
95.2838
-332.02
236.737
-203.78
-176.897
69.3804
107.517
-241.298
-74.5223
-112.95
-41.9366
154.887
-53.0371
-45.8419
98.879
-308.363
218.014
-2.64029
-77.1932
79.8335
158.414
-190.244
153.203
-365.336
212.133
8.10502
-276.593
-192
316.728
-124.728
-227.744
239.646
106.987
-133.251
-89.674
222.925
395.775
-404.676
96.8877
-69.3344
285.41
189.488
-474.899
-85.8809
-74.8162
-78.235
273.049
365.028
-366.765
97.9104
-3.1106
409.241
-124.694
-284.547
107.037
154.284
-261.321
146.447
-26.4866
-132.848
159.335
258.075
-123.515
-134.56
347.892
41.9596
121.602
-70.8853
-501.723
173.364
68.2999
-137.408
-134.244
71.931
62.3134
-50.0515
147.744
-97.6926
-140.176
-79.1329
219.309
37.8249
-100.945
63.1196
-126.969
43.9827
173.867
-188.671
14.804
225.094
-280.519
55.4246
-219.503
79.3276
-88.82
-79.2052
-64.262
-56.8722
121.134
142.563
180.899
193.759
-225.649
179.259
163.217
-111.769
-51.4484
-369.263
261.028
108.236
223.525
-87.1277
336.257
160.969
335.237
102.694
-437.932
-132.955
-124.584
-537.843
251.045
286.798
213.302
-291.579
78.2765
144.021
119.43
-98.6919
52.8065
-31.3228
96.1694
-64.8467
-266.015
-216.003
482.017
-420.508
439.955
-19.4468
-267.167
108.648
-130.671
-452.35
-21.9383
474.288
208.834
239.798
-448.632
-123.788
-188.853
-147.419
-136.586
120.723
-15.2993
-337.085
135.223
-25.9158
160.48
-113.491
-271.2
166.413
104.787
84.3968
69.2744
-129.593
-145.754
275.347
115.62
-91.5907
416.351
-294.581
-121.77
-126.106
339.01
-218.109
-29.0464
457.156
24.1238
-114.778
-76.6654
191.443
454.648
-0.202788
-454.445
-86.5385
312.327
-225.789
118.708
82.0785
-200.787
-372.784
218.726
154.058
-131.699
-112.384
-158.816
144.061
-75.1224
-107.035
289.91
-182.875
141.681
137.276
-278.957
-151.408
-54.4332
-246.611
-174.665
421.276
115.411
476.438
-332.707
-143.731
-154.426
151.308
-94.3462
-56.9623
38.7256
-95.386
206.271
-271.663
294.48
-352.602
-401.454
341.428
193.846
-317.634
231.325
180.711
431.326
-203.557
-214.929
158.353
96.7024
82.4553
-96.9945
96.7786
-146.83
-271.426
288.807
-17.382
-276.641
-21.9577
76.3874
-143.48
67.0924
114.889
286.638
-158.081
245.605
-131.994
-113.612
-67.833
114.654
-269.053
121.109
-189.8
311.474
-62.4263
-249.048
-255.959
464.793
484.746
-148.489
-370.192
267.33
102.862
-22.2784
476.926
-215.108
403.244
-86.0366
-203.402
289.438
104.55
-263.618
159.068
13.5007
287.866
-334.612
-247.385
581.997
146.78
-347.856
201.075
-292.798
392.836
-100.039
-130.656
443.106
352.662
-126.316
177.844
-89.5669
369.596
-280.029
-73.7266
-50.6808
-222.899
148.641
74.2577
178.2
148.144
52.344
-59.6416
-279.886
339.528
-386.131
-78.9858
-128.117
-198.964
-337.711
230.676
-412.915
412.915
141.825
-332.871
191.045
182.318
-339.538
157.22
232.153
79.3213
53.8485
42.7535
-96.6021
218.761
-371.404
287.713
-465.584
242.971
-40.9576
147.004
157.467
72.783
198.064
-270.847
125.784
-95.502
-30.2822
-71.8517
-293.5
365.352
100.59
-176.52
75.9306
-45.9773
159.982
-114.005
331.952
4.34558
-80.2976
80.6431
-276.442
321.708
-45.2661
47.6098
146.16
96.8867
16.7851
-113.672
-311.577
-38.0073
36.2516
-170.329
-193.494