/*--------------------------------*- C++ -*----------------------------------*\
  =========                 |
  \\      /  F ield         | OpenFOAM: The Open Source CFD Toolbox
   \\    /   O peration     | Website:  https://openfoam.org
    \\  /    A nd           | Version:  7
     \\/     M anipulation  |
\*---------------------------------------------------------------------------*/
FoamFile
{
    version     2.0;
    format      ascii;
    class       volScalarField;
    location    "11";
    object      p;
}
// * * * * * * * * * * * * * * * * * * * * * * * * * * * * * * * * * * * * * //

dimensions      [0 2 -2 0 0 0 0];

internalField   nonuniform List<scalar> 
29659
(
0.0280978
0.321226
-0.0280732
-0.106764
-0.00776315
-0.116815
-0.0325066
0.0275917
0.00638314
0.000540009
0.0190809
-0.0145026
-0.00160077
-0.000110892
0.273547
-0.018928
-0.000605456
0.126747
-0.00693589
-0.0328998
-0.00280429
0.00599048
-0.0283785
-0.00679626
1.28673
0.319183
-0.00171821
1.06468
0.258124
-0.00529851
0.0497786
0.152055
-0.16102
-0.0200395
1.07952
-0.020116
0.35002
-0.0844906
0.0179258
0.0173051
0.00132341
-0.0507891
-0.000545068
-0.0503876
7.57502e-05
-0.00470722
-0.0127205
0.000193715
0.010502
0.341432
-0.0365631
-0.0945948
0.156784
-0.113244
-0.0185118
0.248392
-0.0109219
-0.00288401
-0.0138413
-0.0469144
-0.000245418
-0.00672857
0.0578762
-0.0175286
0.530146
1.21151
-0.0230672
-0.0265494
1.15205
0.00138034
0.316318
0.876786
0.00742923
1.1971
-0.0245584
0.0415679
0.214369
-0.0756978
-0.000189861
-0.0425798
-0.105346
0.430321
0.0279824
-3.04949e-05
-0.0268146
-0.162651
0.601639
-0.00166046
-0.00154876
-0.154804
-0.0657808
-0.0763486
0.00967741
0.150826
-0.159398
0.599492
-0.0837509
0.00144822
-0.117915
0.317151
-0.000199111
-0.0713191
-0.000238895
0.109011
-0.0969237
0.271928
0.744247
-0.00149073
-5.8739e-05
-0.146834
-0.161108
0.0373931
5.34755e-06
-0.00493049
-0.000608301
0.853098
0.459309
-0.0358024
3.71081e-05
0.0086115
-0.0511102
0.342084
-0.00216178
1.20673
0.00341281
0.0366165
0.136111
-0.0364607
0.0128035
1.14173e-05
-0.046537
0.202593
0.801111
-0.0349545
0.107933
0.048338
0.560044
-0.0728181
-0.205714
0.30817
0.0474335
-0.134841
-0.131993
3.72628e-06
-1.06823e-05
-0.00794998
-0.0118795
-0.125874
-0.142302
0.0934224
0.0814329
0.040902
0.00130813
-0.00047894
0.453747
0.00155615
-0.0238327
0.52283
0.546505
-0.0310651
-0.101252
-0.103919
0.257328
-0.000197714
-1.16373e-05
-0.0360188
-0.128306
0.000114238
-3.54984e-05
-0.021586
5.36433e-05
0.017959
0.537478
-0.0716837
-0.110183
-0.0156761
0.00651807
-0.0735066
-0.00399516
0.0122958
-7.05396e-05
-0.0089477
0.594104
-0.0249679
-0.204827
0.451245
-0.0195855
-0.0546628
0.0119922
-0.00488138
-0.00094209
0.00724153
1.22849
0.44632
-0.0420651
-0.0228742
1.01236
0.402406
-0.157225
0.00359207
-0.0656861
-0.139848
-0.0138582
0.00259509
0.544986
-0.0208334
0.0216547
-0.126321
-0.150473
-0.000132498
0.921635
-0.00330784
-3.64665e-05
-0.0017838
-0.0615878
0.0852503
-0.00553564
0.0211072
-0.00673694
-0.156919
3.72387e-05
0.00137396
-0.00725075
0.224603
-0.00887266
-0.00470141
0.152889
0.000344598
7.00883e-05
0.0165954
-0.0816808
-0.0653015
-0.0147001
0.313253
-0.0448487
0.0431009
-0.000115793
-0.00942496
0.00241762
-0.0593314
-0.207362
-0.00437347
0.00141162
-0.00496886
0.00897278
-0.0320806
-0.000189139
-0.152596
8.31057e-05
0.227934
-0.0105618
0.000401177
0.276005
-0.142079
0.000745308
-1.2849e-05
-0.135102
-0.199746
-0.0273636
-0.0404272
0.0812292
0.568847
0.000204501
-0.0784689
-0.0195247
1.03682
-0.0251516
0.445153
0.0506485
-0.000751806
1.47748
-0.00177627
-0.116491
-0.154899
0.00699604
0.0667922
-0.0256529
0.797249
-0.0108158
-0.0540302
-0.00092634
0.3941
-0.00891235
0.613374
-0.00167178
-0.0180502
0.986192
0.196155
0.152586
-0.0950218
-0.000535242
0.00870383
-0.00063878
-3.1771e-05
0.21287
9.13402e-05
-0.0587241
-0.0242058
1.30172
0.789434
-0.126144
-0.0559661
-0.0624227
0.0335398
0.00939203
-0.0553744
-0.132441
0.582189
0.893277
-0.00408018
0.730729
0.207298
0.000504739
0.035514
-0.00486753
-0.0197364
-0.0167625
-0.00836699
-0.000225237
-0.00566174
0.0521586
0.393616
0.00510289
-0.0810564
0.0413339
-0.000147182
-0.129169
1.37595
-0.0197521
-0.00445396
0.0378765
-0.0403887
0.264452
-0.00466528
-0.000139766
4.21786e-06
-0.00844796
0.994086
0.0778512
-0.206962
-1.07521e-05
-0.210132
0.168447
-0.0160101
-0.146775
-0.00408299
-0.00145951
-0.0742692
0.00287393
0.0156815
0.0332126
0.191364
-0.000565302
0.00698737
0.338868
-0.0463031
0.00128794
0.00137382
0.837091
-0.0653239
-0.00510741
0.42104
1.06246
-0.0498728
-0.0216111
0.0945697
-0.00251314
-0.0266981
-0.0105745
0.39389
-0.000123569
0.03201
-0.12866
0.814811
1.17833
-0.0190088
-0.0280225
0.547623
-0.0490316
-0.000219085
0.135707
0.236788
0.240652
-0.0228225
0.0797973
1.03719
-0.165917
0.917862
0.844269
-5.19672e-05
0.0536923
-0.152114
-0.00932932
0.00520255
1.0721
0.0776024
0.000855322
-0.0985914
-0.142858
-0.0176922
-0.000445501
0.600301
0.45081
9.49465e-05
0.0132265
0.017517
-0.0924455
-0.0945406
0.000141823
-1.17914e-05
0.00154461
0.273913
-0.083888
0.66754
-0.146342
-0.0540196
-0.0660964
0.412387
0.0665176
-0.00395892
0.0261604
0.0026745
0.921178
-0.0778916
0.00346594
-0.0238184
0.0551761
-0.00489753
-0.0384866
0.000714614
0.000734704
1.39552
-0.0256759
-0.0161272
-0.00153435
-0.00245516
0.537086
-0.129191
-0.07387
1.01703e-05
-3.06202e-05
-0.0804539
-0.0215015
-0.0166944
0.0550934
0.0201534
-0.00837796
0.0928266
-0.0543767
0.901266
0.0170696
0.00076004
-0.125957
-0.07143
0.0866496
-0.0109259
-0.0734594
-6.62022e-05
1.14717
0.0623053
0.00022294
1.22852
-0.0763359
-7.05064e-05
0.00470781
-0.128835
0.0394151
0.137076
-9.08984e-06
-0.0255477
-0.0156839
-0.0171727
-0.00160565
-0.0263529
1.02245
-0.0265547
-0.0371606
0.475971
-0.00919842
0.955906
-7.75305e-05
-0.0492408
-0.128311
-0.0718306
-0.0449055
-0.00517769
0.00679768
-0.00062363
-0.0587481
0.0318032
-0.000139298
1.45407e-05
-0.0202791
0.916401
0.0246243
0.00822637
-0.159172
-8.53521e-06
0.003175
-0.000202946
0.0310885
-0.05451
-0.0013412
-0.0252957
-0.0391455
0.0033235
-8.18972e-05
0.0010819
-0.00137347
0.154301
0.74181
0.562054
-0.012918
0.0198321
0.0819239
-0.000431571
-0.0113058
-2.03102e-05
0.855666
-0.0430816
0.0543331
-0.0530262
0.0056276
-0.0102116
-0.00040357
1.77008e-05
-0.0156205
0.143257
0.559135
0.00406331
-0.113615
-0.077289
-0.0252028
0.0963463
-0.00441669
0.00393601
-0.0180304
-0.000375709
-0.13195
0.622456
0.423388
-0.0689094
0.608989
0.000225077
8.63173e-06
0.137701
0.0774994
1.198
-0.111277
-0.0660223
0.0666744
0.00386059
-0.0188397
0.00147526
-0.0336193
-0.0403522
-4.48514e-05
-0.00301071
0.810943
-0.000528356
1.10719
-1.76227e-05
0.00737248
0.147074
0.10071
0.00343383
0.000574839
0.896077
0.160584
-0.131244
0.438752
-0.0206598
-0.0415314
-0.0133026
0.375664
-0.0785471
0.0387533
-0.0242308
-6.77831e-06
-0.0043676
0.0195591
-0.0552954
-0.0673746
-0.126048
-0.0558896
0.290003
-0.00707811
-0.153959
-0.0429684
7.53143e-05
-0.037925
0.0320421
0.294663
-0.0829103
-1.97869e-05
-0.0566556
-0.00118939
0.00461479
-0.161071
0.665413
0.00295204
-0.0373996
-0.0397596
0.199593
1.00407
0.00600905
-0.0144735
0.436499
0.377287
-0.0463161
0.0163491
-0.138484
-7.69782e-06
-0.121407
0.000239723
-0.0416232
-0.000126412
4.89374e-05
-0.0188426
0.0629593
0.704096
0.0345559
0.0387125
-4.34185e-06
-0.0204169
0.000253373
-0.0106786
5.00132e-05
0.145419
-0.00165093
0.413989
-0.00048036
-0.0400817
-0.106695
-0.0139465
0.994472
-0.0513271
-0.117604
-0.0184216
0.13593
-0.121479
0.0890603
-0.0404656
-8.49089e-06
-0.0161078
-0.0130498
0.000781283
0.000242392
0.363902
-0.0161735
0.2169
-0.0133098
0.00282121
0.0991937
0.000510396
-8.23224e-05
-0.11993
-0.0115612
6.04701e-05
0.513146
1.32193
-0.000762828
-0.102799
1.28074e-05
1.0588
0.00137177
-0.106175
8.90812e-05
0.0400031
0.168266
0.195909
0.134745
-0.00144816
-0.000547216
-0.0476652
-5.05272e-06
4.82453e-06
-0.0800051
-0.0810952
-0.123601
1.25737
0.000626657
-0.0800317
0.0254699
-7.50454e-05
-0.00417242
5.64704e-05
-0.0195769
0.000111185
-0.0359466
0.0863427
0.942865
0.132122
-0.000992433
0.00148387
-0.102208
0.212308
-0.0102374
1.93459e-05
0.43641
-0.20546
-0.108068
-0.043866
-9.15263e-05
-0.000983684
-0.21069
-0.0607282
0.351975
0.900245
-0.114961
-0.00425902
-7.37829e-05
-0.124852
-0.160234
-0.000735619
0.00991934
-0.0447849
-0.0153971
0.891627
-0.00436223
0.0147822
0.215785
-0.0249308
1.20503
1.20362
-0.000140299
-0.000174711
-0.0506399
0.0509518
-0.0996016
0.0175754
-0.0241352
-0.0019764
1.01821
0.404272
0.00753022
1.45779
9.73679e-06
0.268929
-0.140498
-0.077567
0.000266312
-0.103241
0.278019
0.0488074
0.177499
-0.00156603
-0.00167673
-0.00693044
-0.0114169
-0.0419823
-0.00364069
0.298534
-0.0178996
-0.017141
-0.162012
0.820662
0.0605815
0.0974645
-0.00140189
-0.00177425
-0.0604564
0.00325057
-0.00858121
-8.76958e-05
-0.00126925
0.278892
0.898852
-0.000480264
0.296509
-5.0322e-05
-0.0110519
-7.40985e-05
0.0180225
-0.0094024
-0.000169582
-0.000174325
-0.149546
-3.51948e-06
0.137175
-0.0699234
-0.000161664
0.398115
-3.01124e-05
-0.00139578
-0.000343725
-0.016491
-0.00132423
-0.0199442
-0.157411
-0.00118187
0.0141541
-8.33075e-05
0.693114
0.0110463
0.0583292
-0.0937844
-0.0662548
-0.00384955
0.00970942
0.488666
-0.073934
0.361034
-0.113867
-0.0114122
-1.31631e-05
-0.0186039
0.783859
0.439109
-0.0960117
-0.141714
0.666992
-0.026871
-0.134239
-7.38134e-05
-0.0727436
-0.00282417
1.41841
-0.122639
-0.000336354
-0.152351
-0.0761304
0.563417
-0.00848007
-0.0792629
-0.012096
-0.0175789
-0.00425225
0.562681
-0.204441
-0.0573446
-0.0455137
-0.0397454
0.0185361
0.657697
-0.0556897
0.442045
0.00904558
-0.0419035
1.12607
-0.0273271
-0.000818608
0.551373
0.826852
-0.00437526
0.0489299
-0.0208565
-0.0926603
0.441234
-0.126084
-9.87701e-05
-0.0234903
8.58133e-05
-0.01444
-0.000103869
-0.0143758
-0.00321227
-0.010229
-0.0752495
-0.00202959
-0.00171195
-0.00370834
0.474505
-0.00678316
-0.010461
-0.00969417
0.39207
0.0171354
-0.00126203
0.762611
1.18503
-0.0577929
1.00921
-0.0509628
0.738903
0.0176647
-0.0319795
0.00830372
-0.00154524
3.4958e-05
0.00825406
-0.0353999
-0.0577336
0.431392
-0.0663715
-0.0585705
-0.003007
-0.0611375
-0.0689524
0.0210536
-1.62197e-05
0.0362416
0.198461
0.848442
0.0637845
-0.0390557
0.342195
-0.00115545
0.107799
-0.0520394
0.00194283
-0.150377
0.0103771
0.75023
-0.00646595
-0.00174988
-0.000462406
-0.129682
-0.00400184
1.42771
1.47428
0.0367183
-0.000139822
0.0256244
-7.31148e-05
0.170733
-0.001727
0.0659484
1.2998
0.0964711
3.73609e-05
-0.0239822
-5.81712e-05
-0.206951
-0.09809
1.03291
0.00065809
0.0354206
0.00986124
0.00082442
-0.00687479
-0.000975161
-0.0176564
-0.0987534
-0.0651299
0.0221178
0.389489
-0.0381471
0.0190429
-0.0576742
-0.00539796
-0.0761162
2.25674e-05
0.000103582
-0.00655112
0.0826385
-0.07599
-0.0454293
-0.0107245
0.00795743
-0.0387901
0.407474
-0.0366145
-1.399e-05
-0.144576
0.944747
-0.0351111
-0.0342963
0.179961
-4.26268e-05
-0.00204005
-0.0794899
-0.000115856
-0.00136007
-7.41108e-05
1.45864
0.0258352
0.0104931
4.7449e-07
3.12266e-06
-5.46845e-05
-6.0622e-06
-0.063535
0.832081
-0.0976833
-0.00141642
-0.000515229
-0.0146791
1.03415
-0.129418
0.919382
0.0743991
0.328939
-0.000423177
1.02605
-0.00631281
-0.026382
0.0470861
0.0253744
0.0286811
0.429876
-0.111861
1.01338
0.590131
-0.0228015
-0.0760096
0.0114599
-0.0805458
-3.51104e-05
-0.00268021
0.00770252
0.178022
-0.0183748
-0.0638024
-0.00917948
1.24593
-0.153555
-0.000122976
-0.000103669
1.04397
-0.0137395
0.00734025
-0.036498
-0.00629513
-0.0417079
-0.0268777
-0.0253531
0.186621
0.0827278
-0.0276767
-0.0388992
0.000181434
-0.0159021
-0.00274356
-0.021889
-9.98405e-05
0.000109866
-0.0425835
-0.0546958
1.00055
-0.0434189
-0.000592891
-0.00418966
-0.000905446
0.762538
-0.0272323
-0.000124689
-0.0699437
-0.0123592
-0.00969128
-0.0748945
-0.0874265
0.0181698
0.147698
-0.143875
0.00014695
0.0158927
-0.0363977
-4.5275e-05
-0.000205477
0.270849
0.205572
0.0317652
-0.130128
-0.125741
0.00135155
1.07481
0.000155698
-0.0399704
0.867915
-0.0458617
-0.0967071
5.90413e-06
0.000363491
-0.0960924
-0.0251449
0.00359993
-0.0867225
0.520698
0.477871
0.00173327
0.00060942
0.441012
-0.0334793
-4.63311e-05
-0.00394566
-0.0742819
-0.0564689
-0.0254978
-0.00452664
0.310507
2.42344e-05
0.18302
0.590598
5.18114e-05
0.0303888
-0.00121541
-0.157349
-0.0360037
-0.00179131
0.0683656
0.000462838
0.500376
0.00356208
0.0550276
0.0558366
1.30599
0.824225
-0.139714
-0.0182702
6.17849e-06
0.0228804
-0.0333197
0.339886
0.635262
-0.0862143
-0.0066105
-0.0395335
-0.015086
0.325782
-0.000520394
0.999592
0.0606098
9.32528e-05
5.54675e-05
0.000207735
-0.0300658
-0.0413207
0.00163125
0.126652
0.252944
-0.128743
0.00124232
0.000126082
-0.053075
-0.000119045
-0.00649531
-0.025423
-0.00163581
0.0722791
0.010254
-0.00310375
-0.00856511
-0.0359862
0.824888
0.84951
0.0859658
-4.89205e-05
-0.00126851
0.549524
-0.00106383
-0.150055
-0.000499737
-0.0444522
-0.160002
-0.000501877
-0.000558088
-0.0712651
0.0030487
-0.000199999
-0.00296503
0.428063
-0.0768696
-0.000118989
0.21038
0.752323
0.771018
0.00134029
-0.149359
-0.020583
0.940161
-0.139117
-0.142271
-0.00403875
-0.0284674
0.0638169
-0.0562175
0.773929
0.178238
-0.000427958
-0.117763
-0.158812
-0.00832854
-6.83229e-06
-0.00396777
0.46675
-0.000459915
0.00744886
-0.0087241
-0.00261458
0.0195317
0.0629952
-0.000442135
-0.00031275
-0.0134895
-0.15454
-0.077246
-0.15151
0.536837
-0.00335841
-0.000641081
-0.0770374
-0.0520564
0.0214387
0.0289453
0.000104798
0.157074
0.315827
0.0405984
0.0532277
-0.0014077
-0.0289639
0.0415555
0.00275414
-0.000166071
-0.0198537
-0.00868019
-0.00162491
-0.0238976
-0.0018656
0.393681
-0.0194993
-0.207324
-0.0511807
-0.023154
0.0252401
1.04835
-0.0944306
-0.00030881
1.01992
0.356779
0.0165619
-0.0125871
0.0161086
0.0287569
0.34546
0.000705903
-0.00572937
1.29669
0.643147
0.624023
-0.0952499
-0.00303916
-0.00267244
-0.000118789
-0.00281869
0.527072
0.178348
-0.00158402
-0.00862976
-0.000817615
-0.0151057
1.22084
0.881851
0.171505
-0.00605626
-0.136916
-0.00904223
-0.00159536
-0.0420071
0.0320025
-0.0585392
-0.00753193
0.00185349
-0.171112
-0.157254
0.0644792
-0.0526253
-0.00646006
-0.0555196
-0.000476785
-0.0147888
-0.00152046
0.689377
6.41117e-05
2.02243e-06
-0.0471806
-0.042222
-0.0613273
0.0828644
4.83533e-05
-0.170306
0.140369
0.427846
1.40078
-0.00985559
-0.159255
0.0650546
-0.0044915
0.121774
-0.00132279
0.0222215
-0.000453843
0.482805
-0.0857761
0.0226343
0.258009
0.252789
0.00306071
0.00652234
4.28157e-06
0.912223
-1.78335e-05
-0.0965922
0.000671636
0.00351571
0.385296
0.21873
-0.145709
-0.0831171
-0.00868237
1.46954
-0.151193
6.06371e-06
-0.0329687
-0.000134807
-0.028377
0.223069
0.432278
0.00184069
-0.0744177
-0.0199288
0.322646
0.0610483
-0.0686726
1.25883
-0.0209418
0.000112576
-0.187972
1.31454
0.00443505
0.200229
-0.0914434
0.301163
0.00393057
0.0725427
-0.163039
0.0121774
0.116772
-0.0447758
0.346073
-0.0553257
-0.0409797
-0.00173099
-0.00174251
1.12336
-4.26012e-05
-0.0112993
-9.37934e-05
-0.0170819
0.000705974
-0.015312
0.471979
-1.58118e-05
-0.00219813
0.1114
-0.208686
-0.0479278
0.00234279
0.915688
-0.103356
0.374224
-0.025163
0.338586
0.0149048
-0.00161948
-0.0584519
0.00158948
1.15379
-0.0565575
-0.000293361
0.00471197
0.310013
-0.0237351
-0.00151689
-0.00031793
-0.154988
-0.00548731
-0.0205559
-0.148616
2.08363e-06
-0.145767
0.000816372
0.774625
-0.0214933
0.325011
0.00955225
-0.00781287
0.558325
-0.107459
-0.185234
-0.00917402
-0.159734
0.575811
0.59454
-0.0296807
-6.75926e-05
-0.0327182
0.00972884
-1.2285e-05
0.123009
0.851427
0.0265404
0.00327957
0.0212827
-0.148232
-0.000402775
0.170728
0.104319
0.158747
0.0279382
0.0585278
-0.00086377
0.386031
-0.0725739
-0.21445
-0.00215741
0.0450172
0.313912
0.00164508
-0.152929
0.475915
-0.0796885
-0.154704
-0.160968
-0.145487
-0.148732
0.112488
0.483718
-0.171226
-3.35306e-05
0.00171998
-0.0276712
-0.0037974
0.0201989
-4.07945e-05
-0.0121261
0.0083474
-0.000186641
0.122409
-0.00113358
0.263314
-0.0689069
-0.011384
-0.0145716
-0.0181547
-0.138156
-0.0123976
-0.00226145
0.0449746
0.16868
0.00974618
-0.0701693
-0.00624898
0.0625982
-0.020062
-0.0408402
-0.158513
-0.0337306
-0.000110601
-0.0323379
1.01833
3.29129e-05
0.175493
-0.0772924
1.2271
0.104019
-0.0996502
-5.66632e-06
0.00349597
-0.170462
-5.72997e-05
-0.00574594
-1.35275e-05
-0.148004
0.0095001
-0.147868
-0.0488622
-0.000311772
0.599195
0.582838
-0.0753092
0.000908171
-0.000413496
-3.31958e-05
-0.00015673
1.08385
-0.00283783
0.00476098
0.0461289
0.00196242
-0.00130398
-0.161731
-0.000629324
0.0995622
0.00608251
-0.00449639
-0.00161474
-0.0547283
-0.0875642
0.385919
0.193194
-0.000393737
-0.0280392
0.00110864
-0.0934233
-0.00131845
0.283472
-0.0176682
1.46908
-0.0288639
-0.00312824
0.160715
-0.0404681
0.762893
-0.088932
-0.0241452
-0.0277513
0.0389404
-0.00776474
-1.08631e-05
-0.0177655
0.66253
-0.0938552
-0.00692924
-0.0892879
-0.0578277
0.329274
-0.00112944
0.593785
-0.00291512
-0.135018
-0.00118005
0.0281571
0.09826
-0.00729512
0.688484
-0.00105474
0.0704819
0.190173
0.000981671
-0.000334268
1.19476
0.141764
-0.00169397
0.0639005
0.045472
0.000230242
-0.0970348
-0.0473502
-0.200183
-0.022167
0.742866
0.00914773
0.2591
-0.000899345
0.881103
-0.151034
-0.0113699
0.0132419
0.0670896
-0.134561
-0.15975
-0.0184574
6.63184e-05
1.33749
-0.0484632
0.00169413
-0.0407242
-0.0850225
0.71341
0.00633534
-0.0351097
-0.00015179
0.156405
0.0171292
-0.0824268
0.00168368
-0.00748576
-0.0603045
5.82121e-05
-0.111657
-0.00339453
-0.0319405
-0.138156
0.64094
-0.0221156
0.0857891
-0.0763109
-0.0668582
-0.000106119
0.000266842
-0.00819817
6.11766e-05
-0.0243211
0.0115999
-0.00451817
-3.61643e-05
1.1766
0.0106909
0.000661113
-0.000126695
-0.00462287
0.67803
-0.11418
1.34016
0.411688
0.0480156
0.623361
-4.71042e-05
-0.0307937
-0.00186666
-0.00538641
0.430633
-0.0216942
1.34442
0.559522
-0.121338
0.595214
0.01918
-0.0307675
0.0047453
-0.0758824
-0.00863304
-0.111867
-0.121654
-0.00654947
0.583567
-0.0215321
0.000262325
-0.00937831
-0.00149645
-0.0745997
-0.000407915
-0.00277408
-7.9998e-05
0.352294
-0.154042
0.601721
0.0608429
-0.00602711
-0.069202
-0.0433659
0.158699
-0.00667261
-0.00235824
-0.141478
-0.0972878
0.0231025
-0.0928974
-0.0097771
0.0250742
0.0058222
3.42166e-05
0.301754
-0.000129915
0.123361
-0.00180673
4.36894e-06
0.00420084
-0.00151246
-0.00270671
-0.0346681
0.361469
0.327184
-0.0437601
-0.0275513
0.00617939
-0.011211
-0.0223474
-0.000179101
-0.00112391
0.00143305
0.25098
-0.018758
-0.121444
-0.101027
-0.0049642
-0.0463273
-0.0256937
-0.0037831
0.0114008
-0.0272986
0.531274
-0.142338
0.0129221
0.00432458
-0.0819391
1.31449
-0.0218663
-0.0102228
0.016711
0.179394
0.00860958
-0.00457217
0.58565
-0.000852144
0.0968925
-0.0495287
-0.107762
0.0136755
-0.00822054
-0.0121279
0.0898228
-0.00792802
-0.00141479
0.000811724
0.00542246
-0.000560407
0.0718651
-0.0205326
-0.00449416
-4.50583e-05
0.35625
-0.000126901
-0.0661966
0.173302
-0.0509692
0.000250545
0.248448
-0.0793122
0.385846
-0.000158974
-0.00869054
0.174084
0.000337859
0.0106304
-0.00993689
0.0226672
-0.0453648
-0.070529
-0.0190225
-0.00589728
0.0214395
0.0448489
0.0979406
-0.00045736
0.258895
-0.0873358
-0.00731225
-0.0152438
0.00082313
-0.113073
0.0001295
1.02783
0.447381
-0.00112516
-0.0464001
0.000170818
-0.00482474
-0.0118409
-0.0312228
0.355151
0.27882
0.0433785
0.0220549
-0.158372
0.0806929
0.0912067
0.105333
-0.110888
0.0366944
0.447635
-0.0209379
0.852006
-0.00206381
-0.0239705
-0.103733
-0.000251943
-0.00169146
-0.000113467
0.846601
-0.0226254
0.000530527
-0.0338756
-0.0104777
-0.000758809
-0.0287663
0.562208
0.00207245
0.0236716
-0.0620996
-0.00113958
-0.00998938
-0.0017965
1.36529
0.000411498
4.2116e-05
-0.00429654
-0.0308864
0.140645
0.00110213
0.0310717
0.169813
-0.000386027
0.00439711
-0.156771
0.0853525
-0.0790732
9.43571e-07
0.000679617
0.0035097
0.0693661
0.684869
0.204309
-0.0747923
1.28633e-06
-0.10575
-0.00570964
-0.0271171
-0.0262204
0.39372
0.982049
-0.000273782
0.329544
0.523046
-0.0210594
-0.0273822
-0.048581
-0.0257566
0.000195509
-0.0862148
-0.018567
-0.000303547
-0.00121985
-0.00342475
-0.00413333
-0.0014934
0.661892
0.662874
0.362059
-1.29288e-05
-0.0499695
0.0648352
0.232566
1.04203
-0.00110017
-0.0435707
-0.0396384
0.554941
-0.0409478
-0.0203661
-3.30066e-05
0.338392
0.000594355
-0.00111907
-0.0530738
-0.081881
0.283733
0.0929744
-0.0837505
-0.0499438
0.115253
0.043598
-0.102992
0.014889
0.0285823
0.249192
-0.000791245
-0.00137972
0.201797
0.000397092
0.0661252
0.0679383
-5.006e-05
0.442891
-0.0226112
-0.00951354
1.40056
-0.0782995
-0.0191509
-0.0813163
-0.00562501
0.970494
0.00241113
1.31908
-0.000333953
-0.0233886
1.3467
0.0146158
0.959068
-0.0123232
-4.18445e-05
-0.0473258
0.959409
-0.00340471
-0.0142362
-0.0174146
-0.00218297
-0.0452039
0.985092
0.23475
-1.65988e-05
0.0432004
-0.00799203
0.0641272
-0.00193808
0.049447
-0.00562846
-0.00105142
0.932216
0.997454
0.945309
-0.108966
0.047579
0.00026738
-0.120529
0.619035
0.0354846
0.000469618
-0.117412
0.00120713
-0.00026414
0.995062
0.00022858
0.0089473
-0.00412443
-0.0192977
0.95798
0.975851
1.01754
0.0253053
0.000968317
0.454634
0.0161608
0.0545962
-0.0194502
0.000119897
-0.00634098
-6.28227e-05
-0.00971882
-0.00162605
-0.0123009
-0.000181663
0.321509
0.00443604
-0.137933
-0.0195075
-0.149675
-0.0346576
-0.00168539
0.727223
-0.0229721
-5.12822e-05
-9.41213e-05
1.29352
4.46619e-05
0.0242667
0.121784
-0.0381588
0.622784
-0.0111804
-0.0912095
-0.0773822
-0.00114981
0.000227908
0.560771
1.00761
-0.0033094
-0.0446302
-0.000540746
0.980249
1.24163
-0.00308721
-0.0138096
0.0411224
0.00646942
-0.0515527
0.000100772
0.0215664
-0.078845
0.122999
0.699586
-0.00323022
0.0610436
0.192508
0.0741867
-0.0932935
0.0604246
1.20071
0.377669
-0.112996
0.989026
-0.0012828
1.03916
-0.0152167
0.837147
0.163511
-0.0107987
0.078773
0.00506152
0.0375225
-0.153663
-0.00146
-0.0490263
0.801505
-0.0548031
0.0562345
-0.00315177
0.00643701
0.362629
-0.019472
-0.0470533
0.00146209
-0.00772666
-0.0501209
-0.00459154
0.00413752
-0.0186892
-0.00109857
0.00508377
0.817615
0.00460017
-0.0336642
-0.120665
-0.0605336
-0.133033
-0.157102
0.00882656
-9.78313e-06
-5.55036e-05
0.532381
-0.108437
0.000100905
-0.0789317
0.373123
-0.122767
-0.0313796
0.000210383
-0.00400977
-0.0963412
0.287966
-0.0176765
-0.00105052
-0.0961365
-0.0405733
1.35176
0.232291
0.144815
-0.101547
-6.38776e-06
-0.0140974
0.135988
-0.000815255
2.81031e-05
0.347033
0.208004
0.00124866
-0.00183633
0.0176263
-0.0730249
0.0217225
0.0173881
-0.0315173
8.80566e-05
0.477655
0.00118626
-0.00139149
-0.00053036
-0.00050057
-0.000364879
0.170221
0.00194591
-0.00585158
-0.0198949
-0.00980588
0.060284
-0.0112658
-0.0857792
-0.0216047
0.885097
0.718664
-0.00105844
-0.0030626
0.20141
-0.00173838
-0.041587
0.12746
0.119055
-0.00204529
0.0428202
0.0835976
0.00264123
0.190991
-0.000253954
0.0154351
-0.0114285
0.0287991
-0.0298628
0.101034
0.000121351
0.00108751
0.000530064
-0.000136122
-0.00321162
-0.0199583
-0.0263571
-0.0594785
0.116573
0.0805086
0.0188153
-0.124251
0.0242597
0.0156707
0.0268865
9.74651e-05
0.988929
-0.0168899
-0.00667904
-0.0142198
1.37122
8.56918e-06
0.126262
-3.17695e-05
-0.0497444
-0.0130874
-0.0438918
0.345685
-0.00808951
-0.000105783
0.268897
0.146767
-0.00116715
0.105449
-4.03372e-05
0.328725
0.0146037
-0.0565207
-0.000332154
0.462292
0.0583857
-0.0412344
4.57775e-05
0.340584
0.632655
-0.00230257
-0.000107895
-0.0723499
-0.0181819
0.0180433
0.049625
1.04755
0.561201
0.000933102
0.631737
0.466215
-0.00570548
-0.112494
-0.0670895
-0.0307549
-0.103785
0.18718
0.00160873
1.08594
0.292512
0.0251056
0.000152894
0.00123018
1.23416e-05
-0.00115901
-0.00560011
1.1703
-1.6386e-05
0.15871
0.0545128
-0.000495175
1.06527
1.24166
0.392548
0.462767
-0.00641942
0.00489152
-0.000608759
-0.0219573
-4.24911e-05
-0.00221855
-0.208328
-8.14377e-05
-0.00357957
1.10067
-0.0230641
-5.59095e-05
1.16165
0.000884167
-0.0703523
-0.137797
-0.00263322
-0.14685
-0.000505134
0.241153
0.0065789
-0.0329435
0.00376988
-0.00132838
-0.000807677
-0.000480012
-0.215007
-0.118796
0.306439
0.00550166
-0.00659956
0.448197
0.000118238
1.31232
-0.00113258
-0.170416
0.00440744
0.00315699
0.101274
0.106808
-2.73021e-05
-0.00820727
0.000176698
-0.0013634
0.00162552
0.166056
0.096815
0.645848
-0.0778392
-0.0002312
0.000299107
0.194669
0.647996
-0.00876113
-0.0123667
1.30848
-0.00546024
-0.0405719
0.00168451
0.135479
-0.0731616
-0.0167587
0.313171
0.002578
-0.000521936
0.00319129
0.00412661
1.28788
0.988793
-0.0473612
-0.0711912
-0.012593
0.00301033
2.4604e-05
0.148514
0.378425
-1.85875e-05
-0.0142916
-5.26474e-05
0.000228792
0.917855
-1.10715e-06
-0.143704
-0.106585
-0.160237
0.13743
-1.2903e-05
0.0195304
-0.0119768
0.837084
0.0177608
0.00977151
-0.0591266
0.00120224
0.659194
0.41788
0.0215978
0.110213
1.11338
-0.124348
-0.111685
-0.00374398
-0.0137129
-0.000778356
0.0501693
-0.000163257
0.328741
0.00566269
0.354117
-0.0667891
-5.4944e-06
0.112122
-0.000364501
-3.62241e-05
-0.00150621
1.27454
1.21744
0.526174
8.84434e-05
0.291939
1.03918
-0.00193396
0.00362139
-0.0165265
0.145641
0.967093
-0.0537716
0.239246
-0.00497996
-0.12736
-0.14383
1.4227
-0.00120693
0.980396
0.172576
0.378549
0.000186977
0.000378833
0.0104892
-0.0174789
0.162984
-0.000137979
0.000102934
0.965843
-0.162885
0.000535409
1.0159
-0.00450346
0.000264717
0.768718
-0.0130268
-0.00306198
0.012763
0.244653
0.00058583
-0.000290749
0.00670377
-0.00786725
0.952781
1.26622
0.50071
1.38435
0.162829
-0.090179
1.12773
-0.000188163
-0.0063309
0.193229
-0.00675421
-0.00130181
-0.000227834
1.00791
0.0576832
-0.00129136
1.22708
0.146913
0.340512
0.0849492
-0.00527887
-0.0400721
0.279592
0.142631
0.994904
-0.0451827
-0.00155068
0.913755
0.786623
0.0259165
0.672205
-0.0738104
-0.0151432
-0.0180387
-0.00127241
-0.000306743
0.927511
-0.12023
0.0383298
0.00165935
0.303964
-0.0613083
-0.0298505
-0.00198156
-0.0072222
1.04794
-0.00158016
-0.0336798
-0.00583751
1.01953
-0.0371508
0.0386638
-0.01452
0.00264595
0.297265
-0.0427451
1.08461
0.146893
1.3801
0.496819
-0.117759
0.0602304
-0.00347711
0.0274597
-0.0362168
0.969771
1.04002
1.18539
0.539616
0.940567
-0.000744725
1.11174
-8.72882e-05
0.000105512
-0.092663
1.21173
0.0968124
0.449378
-3.3906e-05
-0.00422821
-0.0794598
-0.0653298
0.95339
-0.00134748
-0.0148525
0.5143
0.00193992
-0.00825598
1.3334
0.0908233
-0.0717144
-0.172875
-0.00106999
0.114302
0.119652
1.39979
0.125538
0.0841428
0.00826412
-0.000493667
-0.00623255
0.368378
0.0120731
0.000219831
-0.11846
0.473508
-0.00286817
0.973248
-0.129218
0.988959
-0.0333023
-0.0437429
1.12219
-0.0102783
0.0660284
-0.000813219
-0.00255247
-0.1253
-0.0432552
-0.0701365
-0.0187533
0.0201761
-0.128311
-0.137134
0.976282
0.000466519
0.00140999
-0.0387805
0.223008
-0.143811
-0.113229
-2.03839e-05
-0.122797
0.0894942
-0.00023655
-0.141642
-0.0357639
1.00138
-0.152318
0.959562
-0.0262267
0.197741
0.483813
-0.0670784
0.459252
-0.00343575
0.173992
0.00221628
0.161084
0.365427
0.329398
-0.0537997
0.011578
-0.00135064
0.337881
-0.000188437
-0.000284182
-0.00201811
0.0112177
0.0319226
0.0282652
0.808837
0.278459
1.29095
0.740083
-0.00293656
-0.0626618
-0.000355985
-0.0903656
-0.00236984
0.0108875
0.0011689
-0.0596907
0.633342
0.985034
-0.00059396
3.03564e-05
0.0720303
-5.30605e-05
-0.017428
-0.000381976
0.238934
-0.0674616
0.351199
-0.150543
4.23318e-05
-0.0264308
-0.0750719
-0.0457589
-0.0310447
-0.100301
0.100706
-0.000349068
-9.2633e-05
0.00384002
-0.000298225
0.143315
0.123574
0.0741841
1.18813
0.0841072
-0.194277
-0.166161
-0.000865176
0.0953638
-0.000272301
0.900767
0.183438
1.08584
0.000230645
-0.0614222
-0.0128352
0.093135
0.230629
0.793242
-0.0142797
0.0611181
-0.00368311
-0.0346925
-0.0150636
-0.0114689
0.196728
0.00291214
-0.0145161
-0.0381755
0.334128
0.120019
9.54563e-07
-0.00169953
-0.0116644
-0.00118099
0.204373
-0.00129222
-0.0481707
0.258932
0.000120974
0.459371
0.000138334
-8.59838e-06
-0.160091
-0.0304083
0.000276139
-0.0423392
0.000280742
1.14392
0.0231508
-0.0458601
1.06742
0.23326
-0.059174
0.794304
-0.00520566
-0.00351921
-0.00393438
0.153909
1.48238
-0.00285261
-0.00117917
-3.09749e-05
0.014519
-0.00237518
0.047035
0.0113719
-0.0394199
-0.111179
0.0343381
0.0199022
-0.0350226
-0.0010469
-0.0158145
0.722777
-0.00342291
-0.025856
-0.000473325
0.817678
0.100819
0.720595
0.000766928
-0.0016246
-0.0443115
1.1932
0.265844
-0.0529983
-0.000283245
0.0584143
0.159858
-0.0298936
0.359677
-0.0898205
0.0371933
-0.199855
0.796068
-0.0291159
0.454442
-0.00596825
1.39618
-0.0773095
-0.0206091
1.07267
-0.08052
0.300654
-0.21514
0.336126
0.0119233
0.0917982
0.602497
0.0916473
-0.0905999
-0.0181071
-0.0141496
-0.0210162
0.0109957
-0.00286531
-0.104478
-0.0532198
0.00358042
-0.123669
-0.154424
-9.98853e-05
0.168643
-0.0170323
0.154408
1.074
0.660204
-0.100899
-0.132514
0.000805323
-0.121218
-0.00796345
1.3462
-0.0659101
-0.0568183
0.656975
0.0879035
-0.0733819
0.341832
-0.0690046
-0.00125346
-0.0219289
0.0185767
0.00118571
0.690354
-0.00508803
0.257833
0.494082
-0.0106744
0.443419
-0.161569
-0.000738198
0.0123196
0.141788
0.56178
-0.00474367
0.14771
-0.129105
0.126053
-0.0428783
0.682488
0.0171125
-0.0877724
-0.00568325
0.000308946
0.958659
-0.00456511
-0.0503956
-0.000239142
0.3839
-0.000150268
-0.0818666
-0.00299539
-0.180596
0.00117294
-0.0189168
0.29457
-0.00734144
0.00165953
0.00113154
-0.00773594
0.0947944
-0.000182204
-7.16415e-05
-0.0158678
-0.0197144
-0.0420884
0.0150197
-0.00359439
0.136287
0.144491
-0.00243018
0.00183186
-0.000408651
0.940999
-0.00785541
-0.0129262
0.782472
-0.0342884
0.700594
0.0915391
0.999422
0.419717
0.202349
-0.00281135
-0.00267282
0.14654
0.0425615
-0.00814875
0.000313393
0.0155216
-0.0949143
-0.00181548
-0.0154898
-0.0149484
-0.0170612
-8.1793e-05
-0.00614726
9.08582e-05
-0.000170307
0.00155297
0.623383
0.355036
-0.020668
-0.00524238
-0.0947684
-0.0390546
0.339447
0.861956
-0.107116
0.00365266
0.367181
-0.02087
0.00105184
-0.135635
-2.98207e-06
0.220922
0.301865
-0.00126706
-0.0660365
0.000348411
-0.0150627
-0.0144376
-0.019103
0.0378438
-0.0973014
-0.00011129
0.0199495
0.00316484
-0.0628812
0.0102874
1.02899
0.000463196
-0.00728371
-0.059084
0.527965
0.654106
0.62215
0.0589485
7.57144e-05
0.0122342
-0.00123844
-0.00283801