/*--------------------------------*- C++ -*----------------------------------*\
  =========                 |
  \\      /  F ield         | OpenFOAM: The Open Source CFD Toolbox
   \\    /   O peration     | Website:  https://openfoam.org
    \\  /    A nd           | Version:  7
     \\/     M anipulation  |
\*---------------------------------------------------------------------------*/
FoamFile
{
    version     2.0;
    format      ascii;
    class       volScalarField;
    location    "15.5";
    object      p;
}
// * * * * * * * * * * * * * * * * * * * * * * * * * * * * * * * * * * * * * //

dimensions      [0 2 -2 0 0 0 0];

internalField   nonuniform List<scalar> 
20933
(
-0.00127561
-0.0135443
0.0177463
-2.93216e-05
-0.00244887
-0.00295288
-0.0848109
0.541052
-0.0384744
0.529104
-0.072339
0.391654
-0.032152
-0.00128097
-0.00294125
-3.25552e-05
0.065803
0.333417
-0.0614285
-0.0125715
-0.0330362
0.403566
0.532725
-0.0754629
0.0153026
0.8319
0.00387549
-0.02718
-0.0849732
-0.0619322
-0.000973511
0.944008
0.52217
-0.0159771
-0.000516119
-0.00105849
0.592014
1.95763e-05
0.00435877
0.290932
0.0316493
0.628956
0.693416
0.00328392
0.831689
-0.0331744
0.467764
0.223109
-3.4957e-05
-0.0344937
-0.000594224
0.0823873
-0.0121733
-0.000996023
-0.0247296
-0.0376406
-0.0251561
-0.00128631
-0.0123766
0.0764033
0.871074
-0.026252
-0.00708807
0.496171
-6.87855e-05
-0.0049387
0.81239
-0.00535786
0.0516027
0.824489
0.015774
0.0309689
-0.00267105
-0.0248057
0.814792
0.0112099
0.815324
-0.0412944
0.286945
0.765182
-0.00421751
-0.000302283
-0.0890023
-0.0352711
-0.0257004
0.698002
-0.0269782
1.01818
0.494854
0.864921
0.439061
-4.03618e-05
-9.26947e-05
0.990032
0.201566
-0.00643413
0.998369
-0.00150909
-0.0599336
0.570569
0.872669
-0.0181569
0.885917
0.0185183
0.152633
0.0320048
0.77306
0.0468447
-0.0170248
0.743207
-0.0916947
-0.0865358
-0.0221145
0.0192209
0.0200747
-1.28956e-05
0.682217
-0.00386249
-0.00658137
0.755634
-4.40299e-05
-0.0315004
0.328754
-0.016991
-0.0159112
0.336058
0.479619
-0.0263223
0.954492
0.695919
-0.034535
-0.0333498
0.0318457
0.00463397
0.777807
0.137524
0.279802
-0.0339795
-0.0143744
-0.0519329
-0.0365899
-0.0270424
0.00447961
0.89645
0.173782
0.785245
0.550403
-0.022078
0.450374
0.00440823
-0.0215727
0.816389
-7.55793e-05
-0.0308353
-0.000253979
0.559539
0.709387
-0.0802165
-0.0404599
-0.0340789
-0.0338114
-0.0755556
-0.00116577
0.188985
0.235604
1.01089
-0.0169493
-0.0830007
0.00774916
0.582621
0.265458
0.835248
0.723118
-0.0163482
1.04726
0.510279
-0.00142243
0.855661
0.0272045
0.766419
0.797293
2.92665e-05
0.892575
0.713141
-0.011885
-0.0436684
0.0172669
0.548606
0.0103389
0.955144
0.475794
0.0923248
0.582437
0.061589
-0.0409421
0.35523
0.889046
0.166364
-0.0121263
0.964378
0.258852
0.00641784
0.001184
0.940086
0.907112
-0.0310747
-0.014594
0.0843331
-0.0371682
-0.000505529
0.806821
0.850591
-0.0237396
-0.0412165
0.756069
0.814228
-0.00246249
0.755308
0.0582011
0.00618351
-0.0212709
0.727037
0.920143
0.443075
0.737457
-0.015777
-0.0125671
-9.20918e-06
-0.0018569
-0.00188889
0.322265
-0.000827034
0.763883
-0.0494395
0.713626
-0.025141
0.03468
0.829828
1.00679
0.718187
0.808723
-0.0411709
0.620168
-0.0149532
0.167466
-0.00358085
-0.0336681
0.106349
0.0863315
-2.19859e-05
-0.0165883
0.927866
0.342373
0.00296711
-0.0409007
0.000417489
-0.0901268
0.636759
-0.0486178
-0.0313294
-0.0304583
-0.0138125
-0.000126435
-0.0246962
-0.0707967
0.894773
0.154097
-0.0203052
0.720616
0.903461
-0.0266299
-5.62913e-05
-0.032911
0.811666
-0.0685678
0.866741
-2.46861e-05
-0.042136
0.743008
0.796415
-0.0119026
-0.023087
0.951694
0.0360153
0.0871477
0.880325
0.950003
-0.0292453
0.753092
0.225264
0.758934
0.653424
-4.79176e-05
0.14465
0.595007
-0.00153275
-0.0598761
0.193033
-0.109872
0.249937
0.146
-4.48445e-05
-0.0010833
0.866374
-0.003186
-0.0707466
-0.0366866
0.408126
-0.0242747
0.764894
0.230484
-0.0331278
-0.0433367
0.561914
0.372157
-4.8631e-05
0.859527
0.702176
0.848548
-0.00765375
-8.07798e-05
0.945826
-0.00273834
-0.0232454
0.356151
0.17427
-0.0315205
0.0189447
0.713045
0.988331
0.797042
0.28029
1.05671
-1.53527e-05
-0.0150518
0.797111
-0.0564962
0.589581
-0.0228506
0.824161
0.211053
-0.000856585
0.20483
0.677223
-0.0623941
0.886431
0.692171
-0.000170048
0.0227403
0.516141
0.352212
-0.00162715
0.715385
-0.00938325
1.03876
-0.0374271
-0.0233132
-0.0160606
0.793838
0.703895
-0.02746
0.558653
0.863052
-0.00332376
0.638484
0.692469
1.04786
-0.00220779
0.424314
0.0985604
-0.0411512
-3.40262e-05
0.822036
0.634722
0.136787
0.843902
0.298617
-0.0256026
0.610232
0.239894
0.347623
1.03925
-0.0268671
0.32271
0.847078
-0.0419104
0.189842
-0.0581178
0.501711
-0.0209892
0.448433
0.143185
0.312054
-0.000813075
0.474203
0.84171
0.654337
-0.0943441
-0.0124284
0.931309
0.936907
-0.00324431
-0.0400245
0.761104
-0.0669471
0.024178
0.635756
-0.0171519
1.07874
-0.00484701
0.453806
-0.00771357
0.846825
0.684011
0.0918787
0.0212861
0.095294
0.263436
-0.00151757
0.758825
0.0338258
0.508361
1.02926
-0.00679479
0.0160034
-0.00220689
0.235662
0.149833
-0.0224093
0.655249
-0.00041553
-0.0314496
0.00563879
0.0492715
-0.0229167
-4.70935e-05
-0.0327051
0.34142
-0.0760716
0.00244718
-0.0329219
0.203209
0.157296
-0.0360614
-0.0392321
-0.00105149
0.052433
-0.0702619
0.0052874
-0.00629202
0.375956
0.645188
0.202649
-0.000154222
0.96808
0.00547089
-0.000457411
0.0289151
-0.0373569
-0.0322479
0.900623
-0.00444713
0.231627
-0.0583601
-0.0642635
0.622314
-0.022465
-0.0382692
-0.0558392
-4.80851e-05
0.0279381
0.98316
-0.0839701
-0.0446565
0.651175
-0.032536
0.648725
0.4569
-0.00308457
-0.000444283
0.704895
1.01772
-0.0920108
0.531866
0.329714
-0.0367243
-0.0377605
0.75985
0.133348
-0.083468
-0.0518235
-0.0257509
0.0555563
0.931115
0.289241
-2.86891e-05
0.888373
-0.000639842
-0.0347509
0.732897
0.00577196
-0.00797525
-0.000221514
0.0718868
-0.0280565
-1.27424e-05
0.526204
-0.0617949
0.763507
-0.000102347
-0.00112353
-0.0337965
-9.03318e-06
-0.0960618
-0.0747718
-0.00139786
-0.0271851
-0.0439971
0.720646
0.850303
-0.00253961
0.000714006
-0.0493538
0.856674
-0.00808193
0.856486
-0.0137866
1.03413
0.655878
0.440379
0.99791
0.0489861
-0.00577074
0.0977438
-0.00510839
0.841382
0.75459
-0.021061
-0.024085
0.163622
0.00559471
-0.00456199
-0.0400452
-2.05496e-05
0.72705
-0.0424322
-0.0325472
-0.0124927
-0.0200409
0.454652
0.216625
-0.00220569
-0.00048204
-2.96235e-05
1.03405
0.922707
-0.00234002
-0.0208354
0.0150832
0.752404
-0.0447834
0.333107
-0.0418382
0.805584
0.440179
-0.0296147
1.0707
0.047375
0.788805
-0.00821531
-0.0751224
0.883471
-0.00492767
1.02685
0.736018
1.0465
-0.0055179
-0.00793128
-0.0284852
0.120158
0.00524679
-0.0224028
0.789876
0.815232
0.648885
0.849262
1.01738
0.526326
0.842472
0.65372
-0.00191223
0.714069
-0.037668
-0.0408455
-0.000739359
0.00142811
-0.0526689
0.55137
0.104777
0.764557
-0.014526
0.199198
0.739336
-0.0042302
0.0182919
-3.91813e-05
-5.47818e-05
0.549243
-0.0354411
-0.0357073
-6.33608e-05
-0.000725748
0.150048
-0.00011386
0.195985
1.03908
0.547095
0.508411
-0.0239267
0.757219
0.250001
-0.00689311
-0.0206797
-0.00199544
-0.000218256
-0.000629026
-0.0123371
-0.0693273
0.571685
0.104561
-0.0359593
-1.20205e-05
0.794409
0.0953564
0.00970821
-0.00370042
0.290913
-0.00463902
-0.0340581
0.74028
0.96473
0.69946
-0.0223784
0.706838
-0.0247924
-0.0274548
0.569146
-3.45334e-05
-0.0166982
0.435045
0.517164
-0.02878
0.743121
0.913346
0.724084
-0.0388149
-0.0407554
0.0110016
0.248051
0.693068
-0.0022506
0.879423
-0.0238351
-0.0742671
0.109873
0.978345
0.577087
0.762185
-0.0735129
1.01416
-0.0268624
-0.0261429
1.05658
0.0786353
-0.0559943
0.778893
0.805742
-0.0297904
0.68586
0.857231
0.799461
0.748016
0.789135
0.666656
-0.00924398
-0.026613
-0.000580216
-0.0672504
0.840616
-0.0630773
0.3858
0.375324
-0.0377353
0.204404
0.434711
0.854237
0.204092
-0.00111533
0.0621256
-0.0307099
0.0370794
0.023577
-0.0697428
0.740579
0.881181
0.152478
0.848749
1.02337
-0.00144989
0.000842846
-0.0033097
-0.0194856
0.612321
1.03662
0.298876
0.75907
-0.0194532
0.678334
0.695235
-0.0336515
-0.0324076
-0.0455968
0.383159
-0.00768334
0.118119
-0.0350136
-0.0457606
0.767777
-0.0046447
-0.00612794
0.807745
0.194741
0.950698
-0.0345376
0.643722
0.0227127
-0.0333439
0.875804
0.958412
0.839817
-0.0157769
0.961712
-0.0360451
0.872281
0.0763312
0.835781
-0.0308299
-5.20724e-05
0.838067
0.877216
0.871898
0.83872
0.546365
0.198699
0.62743
-0.0556661
0.838247
0.73744
0.0990821
0.109335
-0.00914934
0.0547485
0.753015
-0.0418149
-0.0269267
0.855435
0.848081
-0.0319504
0.827814
-0.0786695
0.273666
-0.00863547
0.861634
0.875415
1.02378
0.865483
-0.00176381
-0.0203574
-0.000796482
-0.0376878
0.944787
0.486785
0.741224
-0.044234
0.656787
0.0182055
0.948158
0.000843999
0.852105
-0.00811486
0.92588
0.965808
-0.0216303
0.295594
0.920513
-0.00171566
0.981908
0.00018658
-0.00208882
-0.0329593
0.794422
0.413559
-0.049977
0.837795
0.981577
0.689995
0.0506706
-0.0305245
0.0838917
0.846432
0.962313
1.05378
0.47161
-0.00253653
-0.0240246
0.75024
-0.00123071
-0.0100841
-0.001409
-0.0144663
-0.0516805
-0.0499613
0.895245
-0.00433609
-0.000601864
0.7222
0.469768
-0.0026903
0.340309
0.000131901
0.402084
0.729229
0.833587
-0.052048
0.324907
-0.00777528
0.0167926
-0.00256081
0.853791
0.900227
-0.0666753
-0.0720984
-0.0714313
-0.0217182
0.842584
-0.0118937
-0.037127
-0.0721722
0.0306408
1.00139
-0.0713932
0.161146
0.857595
-0.00491591
0.242381
-0.00417493
-0.0619153
-0.00214485
-0.00102951
0.996171
0.634691
-0.072409
0.10762
0.659302
0.818182
0.733789
0.0177226
-0.0312422
-0.0221052
-0.0283653
0.704448
-0.0240809
-0.0284885
-2.1187e-05
-0.0253639
-0.000898235
-0.0561378
0.800477
-0.0569337
0.855169
0.839215
-0.0397082
-0.019358
1.01738
0.673065
0.129261
-0.0214607
0.673078
-0.0283583
0.601227
0.997057
0.616447
-0.0226858
-0.0238027
0.778493
-0.0384955
-0.0569719
-0.0306106
0.911363
-0.0289337
0.0819929
0.65972
0.545445
0.715661
-0.00802728
0.59014
-0.0195925
0.854729
-0.0770003
0.420543
-0.0249305
-0.0296215
-0.000648877
-0.000984291
3.51611e-05
0.915776
-0.0372576
0.645015
0.258768
-0.00151235
-0.0479588
0.50198
1.02802
0.935264
-0.0192622
0.47157
0.00278407
0.220282
-0.0251749
0.366954
-0.041479
-0.00126099
0.692603
-0.037912
0.00745014
0.903227
0.770491
0.873177
0.0533378
0.0409727
-0.0145654
0.48687
0.0421556
-3.61959e-05
0.919673
0.308323
0.455044
0.110907
-6.3732e-06
-0.0107631
0.000145349
0.437765
-0.000362871
-0.0212156
-0.000780114
-0.029788
0.941538
1.62783e-06
-0.0353187
-0.0398999
0.973443
0.013361
-1.4612e-05
-0.0528674
0.319373
0.724729
-0.0194338
-0.0170461
-0.0144208
0.73885
-0.0223149
0.458011
-0.0408826
-0.0518611
0.249074
0.720007
0.220488
0.469832
-0.0022561
0.768962
0.972617
-0.0144759
0.638121
-0.0441217
0.990056
0.957483
-0.0488915
0.230964
0.195628
0.634167
-0.000267022
0.836675
1.04674
-0.00498062
0.390797
0.55557
-0.000646619
-1.6427e-05
-0.0180326
1.02719
-0.01099
-0.0353446
0.847432
-0.00150086
0.623429
0.86671
-0.0265561
0.925727
-0.0322566
-0.0198994
0.870078
0.474103
0.71451
-0.00237792
0.87489
0.440024
0.832673
-0.0579831
-0.00890482
0.395096
0.919727
0.870251
0.93266
0.846358
0.0412534
-0.0337602
0.133465
0.663303
0.834195
0.971122
-0.0342875
0.534729
0.991662
0.798921
-0.000573359
-0.0408619
-0.0188876
0.362338
0.0119161
0.900374
0.47923
0.830993
0.260301
0.0282715
0.835593
0.0698496
0.67403
-0.0407543
0.193665
-0.0111969
-0.0397128
-0.0518348
0.96809
-0.048893
-0.0283347
0.0488575
0.421988
0.231363
-0.0274814
0.151409
0.0182033
-0.0518132
0.698647
0.417899
0.751129
-0.0489182
0.864147
-0.046876
-0.000470032
-0.0111735
0.00187319
-0.0586754
-0.0595855
0.000302712
0.56415
0.937016
0.404803
0.183217
-0.0155019
-0.0539652
0.631404
-0.00574841
0.991013
0.574404
0.00551138
-0.02484
0.0770646
-0.0257553
-0.0194155
-0.0129356
0.0412719
-0.0650529
0.550677
0.952107
0.886862
0.50916
-0.00316586
-0.0320513
-0.00122834
-0.0119938
0.707872
-0.00819274
0.68481
-0.0448892
-0.0177069
0.944162
0.961403
-0.00050235
0.844161
0.8838
0.345977
0.00125011
0.403987
0.703266
0.958628
0.608281
-0.0362122
0.94052
0.218171
-0.027219
-0.033776
-0.0424391
0.977113
0.000672913
0.857243
0.583954
0.93277
0.0092869
0.628067
0.662818
-0.05323
0.871084
0.0711261
0.913155
-1.66555e-05
0.613256
0.678812
0.687106
-0.00141718
0.111446
-0.00301586
-0.0355751
0.572065
-0.0223541
0.644272
0.628705
1.02841
0.022534
0.918186
0.0147318
0.0121013
0.175548
0.842811
0.281976
0.0669758
0.176933
0.752387
-0.00296932
1.01238
-0.000311073
0.0327632
0.261866
-0.0229737
0.850003
-0.0308349
0.890295
0.733706
0.332546
0.128715
0.391887
-0.000738179
0.108444
0.909043
-0.0370411
0.0399635
0.598094
0.220815
0.0631578
0.133737
-0.0148285
0.942317
-0.0290884
0.167147
0.031883
-0.0421133
0.830443
1.03696
-0.0317323
-0.057491
0.00398943
0.234986
-0.0003423
0.332578
0.962771
0.929321
0.0120042
0.38869
-0.000226982
-0.0395227
0.777624
0.000887839
0.476282
-0.0249494
1.01069
0.760504
-0.0648475
1.57913e-05
-0.0251221
1.01228
-0.0327077
-0.00155507
-0.0166186
0.339766
-0.0510229
-0.0215812
0.308466
0.945459
-0.0739074
0.985243
1.05516
-0.0238761
0.0332538
-0.000293616
-0.00274373
-0.00128901
-0.0327082
1.00449
-0.0216536
-0.00390597
0.683684
-0.0513034
0.741688
-0.00682251
0.105896
0.743733
0.690395
-0.0668248
-0.019815
-0.0548677
0.802564
-0.0317288
0.499665
-0.0370663
-0.0132603
-0.0377549
-0.00710469
-0.00507998
-0.0733007
-0.0669061
0.00610756
0.0095362
0.300252
-0.00226178
-0.0340741
-0.0524579
-0.0228058
-0.0137401
0.942052
0.113856
-0.0267152
-0.00575544
0.78633
-0.00149301
0.700968
0.022044
0.177488
-0.00754992
0.737342
0.504823
-0.0425127
-0.0204166
-0.0251611
0.618193
-0.000333827
0.686476
0.799401
-0.00115563
0.00773499
0.314577
0.284273
-0.0455718
0.368973
0.764748
-0.0225866
0.660174
-0.0425757
0.0399116
0.639013
0.962763
0.0914736
-0.00112112
0.830153
0.671884
-0.0261941
-0.0401779
-0.0877308
0.0418757
-0.0240137
-0.00743588
0.779503
-0.0774648
-0.0063647
0.783105
-0.0254287
-0.0317081
0.535249
-0.00388197
0.380913
0.681767
0.0740615
0.699234
-0.0157686
0.929424
-0.0403994
-0.000366619
1.12536e-05
0.143767
-0.000413158
-0.0180951
0.388534
-0.00330649
-0.0020659
-0.0280971
-0.0204348
0.472043
0.85083
-0.000431869
-0.0188019
0.00856976
0.651968
-0.0583489
-0.0219967
-0.02541
0.19111
0.539746
-0.0126091
-0.0114655
0.0178903
0.734497
0.787067
0.354905
0.695156
0.880478
-0.00760088
0.654622
0.285216
0.09328
-0.0235593
0.0517695
1.05092
-0.00083613
-0.0402731
-0.0385542
0.734869
-0.0138932
-0.00158509
-0.0366286
-0.0418367
-0.00393983
0.852716
0.573178
0.675332
0.792418
0.698414
-0.0162671
0.350113
0.579939
0.143611
0.835516
0.456098
0.596214
-8.15603e-06
0.597308
-0.0359944
0.440247
0.604956
-0.0706613
0.228922
0.213472
-0.0248407
-0.00869787
0.170718
0.42333
0.956286
0.459917
-9.6672e-05
0.532751
-0.0197082
0.612745
0.485841
-0.0143842
-0.0275143
0.654955
0.850672
0.312113
-0.0455604
-0.0266848
0.426992
0.662288
-0.0362054
0.770367
-0.0274538
0.370497
0.0625556
0.902095
-0.00103842
0.00044694
-0.00587956
-0.0275752
0.00164811
-0.0185
0.679129
0.788244
0.00639985
0.530283
0.00726246
-0.0149108
5.18292e-06
0.459019
-0.00887895
0.555488
-1.11657e-05
0.675194
-0.0377341
0.755592
-0.00799989
0.806354
-0.0399684
-0.0131608
-0.000351772
0.859698
-0.0373428
0.226929
0.352211
0.0102024
0.747578
-0.0130008
0.000461194
-0.0286098
-0.00470854
0.856894
-0.00628179
-0.0279651
-0.0214663
-5.73348e-05
-0.016928
0.764412
6.42171e-05
-0.0424456
-0.00130012
-0.00252824
0.714604
-0.0119775
0.176826
-0.0249554
-0.000361367
-0.0100183
0.0668419
-0.0290338
0.000314125
-0.0136932
0.48053
-0.000251041
-0.0247873
0.0538712
0.358196
0.835212
-0.0168889
0.00391148
-0.0401605
-0.0251377
0.706972
0.777652
0.86235
-1.36434e-05
0.424342
-0.035202
-0.0324294
0.578628
-0.0263716
-0.0142225
-0.0170384
-0.00977255
-0.0243671
-0.0228113
-0.0166489
-0.000371678
0.0279022
0.668344
0.011965
0.526456
0.185413
0.124047
0.44129
0.307622
0.596178
0.0610452
0.678119
-0.000572127
-0.0151578
0.639935
-0.0471948
0.704586
0.676904
-0.0249622
-0.0401187
-0.000199931
-0.0296953
0.122469
-0.0208027
-0.0212231
-0.0242003
-0.0186189
-0.0352318
-0.0301319
-0.0162593
-0.00868267
-0.0470263
0.597521
-0.0327035
-0.00279337
-0.0401396
-0.00130962
-0.0378875
0.772658
0.7475
0.455887
0.905219
-0.000314794
0.0164693
-0.030479
-0.000419107
-0.00548227
-0.000194116
8.22326e-07
0.441431
0.313778
-0.000211349
-0.0420287
0.258446
0.431481
-0.0417893
-0.0203201
0.000282399
-0.00530333
0.00055205
-0.00183056
-0.0371341
-0.0293736
0.930261
-7.24692e-05
-0.0276264
-0.0255011
-0.0326027
-0.0153036
-0.0222069
-0.000297818
-0.0164998
-0.023983
-0.0342315
-0.0374228
0.259923
-0.0195703
0.529636
-0.0297138
-0.00323911
0.0239735
0.701434
0.730716
0.576816
0.0363244
-0.0418771
-0.0144375
-0.0320224
-0.0350355
-0.0388532
-0.0392235
-0.0407421
-0.00806502
-0.00808644
-5.25244e-05
0.171113
-0.00665523
-0.00041917
-0.00541544
0.960334
-0.0290323
-0.0707166
0.913812
0.937488
-0.0229613
0.92304
0.880067
0.720577
-0.0026224
-0.0525493
0.940446
-0.000708861
-0.000819348
-0.00421812
-0.027347
-0.0103964
0.00446157
-0.0262501
-0.0314065
-0.0296816
-0.0141447
-1.17942e-05
-0.0407562
-0.0115656
1.01833
-0.024511
-0.0177655
1.01697
-0.00636059
0.977426
0.924422
0.669628
-0.0199546
1.01663
0.222506
0.81214
0.0232504
-0.000532245
-0.00612196
-0.00549883
0.123177
0.845511
-0.00272321
-0.000264595
-0.0283355
-0.000278278
-0.0744668
0.426043
-0.000206314
0.698662
-0.0410608
-0.0067481
-0.0370753
-0.0206834
0.366441
-0.00708051
0.933011
0.000581849
0.876765
0.00821397
-0.0318297
9.73931e-06
-0.0394503
-0.00973612
-0.0372483
0.795408
0.840028
-3.22939e-05
0.936916
-0.0350801
-0.00107452
-0.0205294
0.884817
-0.0910806
-0.00072783
-0.000785737
-0.000296509
-0.000436189
-0.000118097
-0.00167269
0.94875
-0.000327131
-0.00330395
-0.00637506
0.990535
1.05766
-0.00623006
-0.0399142
0.71596
1.01295
-0.0405072
-0.0284587
-6.84379e-05
0.0460516
0.8606
0.700076
-0.000312088
-0.0219669
-0.0372841
0.896691
-0.0706216
-0.018284
-0.0168598
-0.0150167
-0.0156397
0.744224
-0.000106124
0.915226
-0.00369377
0.975287
-0.00209567
0.929564
-0.0198884
0.172088
-0.0194535
-5.35408e-08
0.000166872
-0.0107647
-0.0214467
-0.0108534
-0.000273057
-0.000179067
-0.00332757
-0.0355455
-0.000312286
-0.0185021
-0.0177597
-0.00042366
0.225842
-0.000702699
0.697737
-0.0291357
-0.00957912
0.000291524
-0.0787435
1.00178
-0.0158662
-0.0124411
-0.013076
-0.0413616
-0.0221881
0.678142
0.734665
0.00623212
-0.018124
-0.00626867
0.263031
0.915128
-0.0390984
0.662764
0.763752
-3.93915e-05
-0.0436095
-0.0229868
0.000498219
-0.000617649
-0.000933804
0.000341667
-0.00851477
-0.00982238
0.00999195
-0.0217142
0.0284343
0.486631
-0.0404418
0.698801
0.304915
-0.0734449
-1.55372e-05
0.000111459
0.85229
-0.00226705
-0.0394534
-0.000745855
-0.0365681
-0.0183385
0.563775
0.146486
0.950472
-0.000234989
-0.000585203
-0.0320588
0.525901
0.00290372
0.911946
0.312681
-0.0254631
-0.0141062
-0.0491654
0.0200594
0.671387
0.0898642
0.859194
-0.0420933
-0.000404869
-0.00309916
-0.0156184
-6.54369e-05
-0.000903377
-0.00415177
-0.0179423
0.00803709
-0.0378246
-0.00011882
-0.0392956
-0.0561683
-2.73514e-05
-9.66715e-05
0.00277095
1.1825e-05
-0.000537469
-0.00701796
0.0600302
0.00017761
0.137114
-0.0150978
0.711101
-0.0331433
-0.0461954
-2.8811e-05
-0.0444895
-0.0420668
-0.00932156
-0.0093675
6.90822e-06
-0.00812728
-0.00015696
-0.0440961
0.139478
0.291334
-0.0892393
-0.000256777
0.123514
-0.0578343
0.761552
0.609421
0.729579
-0.00180066
-0.00609769
-0.000532172
-0.00742402
0.881445
0.679946
-0.00365004
-0.00455413
0.515042
0.67888
0.954918
-0.000295935
-0.00439872
-0.0136204
-6.84347e-05
-0.000320678
-0.00010918
-0.00179062
-0.00398963
0.709562
-0.0144819
-0.000667261
0.00880401
-0.000107455
0.125389
0.00468694
0.542182
-2.41196e-06
0.3283
-0.0405291
-0.0371843
0.400061
0.326267
-0.000209197
0.399575
0.911216
-0.0401981
0.728342
-0.036909
-0.00654087
0.780254
-0.00271125
0.699249
-0.00309832
0.012824
-0.0391202
-0.00818615
-0.0186758
-0.000137662
-0.000509303
0.0526261
2.97814e-05
-0.0159976
-0.0327052
0.921787
0.00577591
0.00224469
0.695561
-3.78759e-06
-0.000166706
0.00686982
-0.00189588
0.905525
-0.00213171
-0.000162281
-0.0199001
0.264048
-0.0265866
0.000384395
-2.14781e-05
0.219525
0.00757423
-0.000162326
0.837529
0.985795
-0.00056836
0.0799279
-0.00151033
0.740887
-0.000731989
-0.00344186
-0.000157547
9.9004e-06
-0.0375445
0.00244458
0.000249632
-0.0849189
-0.00156641
-0.0270775
4.48651e-06
-0.000632911
0.010555
0.787724
0.824502
0.00532665
0.671835
0.17183
-7.41472e-06
0.683796
-0.00941568
0.000775476
0.00247687
0.0535666
-0.000716557
0.0431256
-0.00141026
-0.0236518
0.420349
-0.0217125
-0.0170387
0.341629
0.570927
0.322212
-3.31772e-05
-3.19456e-06
-0.0176423
0.507957
-0.00717242
-0.065599
-0.000304393
0.677813
-0.0331435
0.787893
0.600622
-0.0152377
0.362422
-0.000883854
0.702881
0.126314
-0.03836
-0.000276989
0.000299273
-0.0133932
-0.0158626
-0.0115986
-0.0196678
0.294605
-0.00801743
0.516652
-0.000479586
0.00340105
-0.000687923
0.25223
0.0355983
0.000658095
-6.55036e-05
0.0296677
0.485058
-0.023597
0.0246389
0.0209725
0.186397
0.0175672
-0.000897984
-9.213e-06
0.76355
0.813294
0.844582
-0.000228752
0.816088
0.748362
0.821467
-0.00268006
-0.000229386
-0.000155219
0.549488
0.630151
-0.0668778
-0.0429077
-0.0279201
-0.0164582
0.204445
-0.0136157
-0.00674338
0.658943
0.000503002
-0.012398
8.09017e-06
-0.0158217
0.820212
-0.0339879
-0.000588323
1.45465e-05
0.886288
0.74747
0.0971207
0.485072
-0.0126866
0.0788031
-0.0154468
0.0607302
0.0438846
0.0321775
0.460118
-0.0192049
0.287698
-0.000294399
0.798981
-0.0161001
-0.00862441
0.728682
0.0270463
-0.0154437
-0.0302574
0.0616446
0.337465
0.00451272
9.24361e-07
0.663445
1.03008e-05
-0.0174745
0.161092
-0.000575714
-0.00479123
0.00047454
-0.035693
-0.0247121
0.13892
-0.000409299
0.118329
-0.0209677
0.101126
0.0855373
-0.0128305
-0.0213526
0.0727111
-0.0311603
-0.0145926
-0.0119575
0.569073
-0.016788
-0.00647309
-0.000154869
-0.0293586
-0.0483885
-0.000257609
0.580762
0.783952
-0.0311604
-0.0223705
-0.0146286
-0.00753482
-0.000236454
-0.00635693
-0.00265794
0.103349
-0.000464475
0.0196152
-0.0347515
-0.0262273
0.000225762
-0.000369502
0.557004
-0.00346526
0.254813
0.604822
-0.0119449
-0.0449415
-0.0252242
-5.34952e-05
0.228957
-0.0349496
-0.0291483
0.202229
0.39439
-3.2793e-05
0.17656
0.425308
-0.000422514
0.304937
-0.01555
0.0033263
0.660063
-0.00554667
-4.24623e-05
-0.000272972
0.633679
-0.0432381
-0.0264548
-0.0295787
-0.0156089
-0.00693508
-0.013787
-0.028627
0.269914
0.855573
0.940288
0.721162
-0.000319074
0.55253
0.24243
-0.018932
-0.0303015
0.539812
-0.037184
-0.0645899
-0.000587469
-0.0263864
0.693407
-0.000107925
-0.0554118
-0.0121708
0.022571
5.50871e-05
0.732895
-0.0407824
0.718638
-0.0235157
-0.0211299
0.00348711
-0.000582068
0.6385
-0.0185257
-0.00719178
-3.81368e-05
-0.0353957
0.0673963
0.365962
-0.013491
-0.000747618
0.3924
-3.11607e-05
0.508608
0.337528
-0.000154522
0.513844
-0.0458887
-0.000291982
-0.0155465
-9.64948e-05
-6.772e-05
-0.00464523
0.610352
-0.0290334
-7.82067e-05
-0.047032
-0.0145608
0.615555
0.822683
-0.000152403
-0.0172664
-0.00473506
-0.0109348
0.658144
0.0277216
-0.000144238
0.477268
0.357976
0.712282
-0.012666
0.000129996
0.547531
-0.00351239
-0.0336057
0.0324991
0.867782
-0.034842
-0.0179952
-0.000131089
-0.00754947
0.862353
-0.035888
0.967685
0.354793
-0.012764
-0.000209563
-0.0268554
-0.0141579
-4.51148e-05
-0.0169377
0.850467
-1.34865e-05
-0.020492
0.861086
-3.48896e-05
-0.0172163
-4.69301e-05
-0.00121361
-5.71435e-05
0.0896625
-0.0020115
-0.00112851
-0.0612598
-0.000980501
-9.70322e-05
-4.47534e-05
-0.000143397
-0.026435
-4.65003e-05
-0.000364749
-0.000439669
-0.0197577
0.962967
0.109635
-0.00810227
-0.00358621
-2.07607e-05
-0.0188841
-3.33156e-05
0.265237
0.701303
-0.00174029
-0.0190873
-0.00945388
0.1952
-0.000550826
1.00596
0.000676262
-0.000676816
0.501614
0.0118527
-8.02289e-05
-0.0337402
0.693043
-0.000148403
0.682399
0.703207
-0.0214921
-0.0345178
0.801312
-0.0178889
-0.00102871
-0.037841
0.583913
0.267829
-0.0365815
-0.00036194
0.831022
-0.000280665
0.0246926
-0.00386549
-0.00152679
0.930541
-0.000594546
-5.94043e-05
-0.0246623
0.456106
0.972042
0.685639
1.02612
-0.00521175
0.914367
-0.000476281
0.568251
-0.0020803
-0.00056244
0.365969
-0.0209048
0.247075
-0.000206796
-0.04738
0.979196
-0.0223996
0.0283278
0.000132519
-0.000508681
0.408085
0.00091319
-0.0340102
-7.77761e-05
-0.0224509
-7.0299e-05
0.994481
-0.0179037
-0.0268583
0.189513
-0.0351578
0.343531
0.680689
-5.03067e-05
-0.00895513
0.421831
0.7338
1.01005
-1.62363e-05
-0.0275124
-0.032523
-0.000833086
0.465244
0.508437
-0.0319705
0.869532
0.28128
0.413589
-0.0152429
0.66191
-0.0337449
-0.000341974
-4.9993e-05
-0.000106761
-4.64889e-05
4.41824e-06
-0.0232751
-4.16795e-05
0.000195016
0.00788231
-7.22654e-05
0.51729
-0.0247341
-2.35583e-05
0.98033
-4.77166e-05
-0.000249213
0.82417
1.0087
-0.0400423
-0.0129914
0.793717
-0.00901249
0.90726
0.162641
-0.000367055
-0.0557589
-0.0216114
0.000601857
8.62362e-05
0.712496
-3.38502e-05
-4.2311e-05
0.875284
-0.000119239
0.000317264
-0.0387761
-0.0228505
-0.030697
-0.000183148
0.197703
-0.0326993
-7.12118e-05
-0.0301711
-0.00110081
0.534301
-7.98444e-05
-0.000112003
-0.0010181
0.854091
-0.00897502
-0.0042847
-0.00142565
0.00059905
0.828879
0.0126438
0.310081
0.798146
-0.000419821
0.933522
0.774121
-0.00752147
-0.0556274
-5.5528e-05
-0.0204064
0.907073
0.000923295
-0.000146282
-5.33471e-05
-0.0344049
-0.00410325
-0.000235136
-0.000144412
0.924135
-6.89739e-05
0.719814
-0.0180281
-0.0616631
-4.81001e-05
-0.0262832
-0.000915901
0.813612
0.826612
0.382215
-0.00143357
-0.0478288
-0.0482766
0.339563
0.25363
0.500461
-0.07265
-0.0428179
-0.0392484
-0.000462972
-0.00118113
-0.000294162
-0.00240065
-0.00168793
-0.00202153
-0.00249931
-0.0038734
-0.0315757
-0.0045126
-0.00310165
-0.0357107
-0.000532569
-0.0028663
-0.000149752
1.0686
0.222304
-0.00405136
0.00142074
-0.00341294
-0.000119464
-0.000654758
-0.00422655
-0.00358567
-0.0431638
-4.39806e-05
-0.0395888
-0.00101144
-0.000427968
-0.000171097
-0.0334512
-0.0363751
-0.00500395
0.858701
-0.011571
0.704156
-0.0418814
0.887839
-0.0467201
-0.0479872
-0.0489702
-0.0496966
-0.0494486
-0.0504343
-0.050221
-0.000433115
-0.0501201
-0.0491076
0.821838
-0.0492329
0.014175
-0.0457541
-0.000777232
-0.0430895
-0.0178281
-5.79337e-05
-0.00524673
-0.000165225
-0.00216049
0.0824732
-0.000541508
0.465382
0.736995
-0.0108196
0.000687959
-0.033247
0.00195077
-0.00678464
-0.0111979
-0.0275023
-0.00012709
0.992326
-0.0150079
-0.0219116
-0.00631208
-0.000722978
-0.00592266
-0.00313025
-0.0474776
-0.00787579
-0.0017645
-0.0108948
0.140798
-0.000116092
-0.000347912
-0.00714135
0.036557
-0.00213259
-0.0037158
-0.00260983
-6.91624e-05
-0.000100252
-0.00108849
-4.49721e-05
-0.00145506
-0.00438985
-0.00344014
0.808961
-0.000717228
-0.00263225
-0.00081712
-0.00047608
-0.000142425
-9.69619e-05
0.606869
-0.00819512
0.779746
-0.00602332
-0.000903464
-8.83359e-05
0.686005
-0.0353738
-6.6169e-05
-0.000275603
-0.000190076
-0.0121026
-0.00516132
0.113679
-8.15169e-05
-0.023061
-0.000561267
-0.00187043
-0.00112314
-0.00697427
0.000932188
-0.0395709
0.794167
-0.0477377
-0.012422
-0.00051546
-0.000141433
-0.0362579
-0.000134604
0.0100802
-0.00451782
-0.00483634
-8.40074e-05
-0.0105054
-0.0106685
-0.0795383
-0.000436479
-7.98038e-05
-0.0234069
-0.000332817
-0.00805572
-0.00678022
-0.00603763
-0.000104347
0.91369
-0.000252109
1.03141
-0.0125699
-0.0078205
0.00754273
-0.000104444
-0.000185981
0.0691109
-6.51375e-05
-0.0225484
-0.000590953
0.0460338
-0.00931385
-1.79086e-05
-0.000290792
-3.49505e-05
0.918889
-0.000486278
-0.0265631
0.00561823
0.792274
-0.0402115
-0.0457634
-0.00016903
-0.00919351
-0.0113944
-0.0787018
-0.0106104
-5.00348e-05
0.00838062
0.965127
-0.0436493
-0.00138148
-0.00981044
-0.000226789
0.707532
0.786172
-0.000153775
-0.00120344
0.643842
-0.000394792
-0.00915475
-0.000172622
-0.000738358
-0.0288368
-0.0345408
-0.0698804
0.0529845
-0.00126718
-0.000238375
-0.000317151
-0.028961
-0.00947176
0.524389
-0.0162519
-0.000194146
0.763221
-0.00293642
-0.00142399
-0.0478971
-0.00857381
-0.00153616
-0.000356486
0.00297631
-0.00235935
-0.0187306
-0.00021548
-0.00108516
0.514695
-0.00958313
0.650133
0.887856
0.00246991
-0.00141342
-0.0665381
-0.0103554
0.975298
0.0104681
-0.00183042
-7.87041e-05
0.735286
0.92462
0.518348
0.140455
-0.0378003
-0.000264909
-0.0320154
-0.000855418
8.20658e-05
-0.0131496
0.668663
-0.0290348
-0.000515452
0.000394383
-0.00181217
0.205672
0.696497
-0.0151683
-0.028904
-0.00212324
-0.00156966
-0.00149321
0.902537
0.00174015
-0.000524555
-0.000326503
-0.00296278
-0.0219936
0.207416
-0.00860533
-0.00412381
-0.0177039
-7.11832e-05
0.0111421
0.691592
-0.0395212
-0.00109508
0.0119885
0.688823
-0.00257625
0.278806
0.808149
0.000104824
-0.000107245
0.302751
0.648164
0.355543
0.559968
-0.0444796
-0.0011455
-9.21102e-05
0.667109
-0.0207454
0.000177206
-0.0379895
-0.0149813
-0.0344101
-0.036194
-0.00308068
-9.78883e-05
0.640055
0.000679635
-0.0338986
0.823869
-0.0246588
0.785821
2.91248e-05
-0.0319856
0.752661
0.975604
0.00776518
-0.0077283
-0.0132215
-0.000666824
-0.00420849
0.779827
0.00825466
-0.0337072
-0.00357779
-0.000837999
-0.00206964
0.00103862
-0.000407263
0.580876
-0.000312615
0.006876
-0.00283014
-0.00431065
-0.000676041
0.441527
0.731016
-0.0449812
-0.047242
-0.0484666
-0.000524681
0.00278062
-0.000228747
-0.0477508
-0.0486955
0.462656
0.728601
-0.0490943
0.442619
-0.014234
-0.0233063
-0.0131871
-0.0485871
0.569639
0.409857
-0.0490549
-0.00565997
0.738756
0.590465
-0.00449952
-0.000157158
-0.000920981
0.906791
-0.000962902
-0.000129526
-0.00332589
-0.00165926
-0.00104471
0.000996799
-0.00196413
0.00889646
0.28791
-0.0351019
-0.000143813
-0.0307853
-0.0332382
-0.0153382
-0.0326507
-0.0461509
-0.00135625
-0.00172165
-0.00386554
-0.0133284
0.75531
-0.00246227
-0.00456872
0.0442283
-9.19657e-05
0.879057
0.731571
-0.0330468
-0.00291725
-0.00128814
-0.00347021
-0.000324603
0.714762
0.108826
-0.00129136
0.0370477
-2.00427e-05
0.0311231
-0.00131053
0.0263682
0.0220875
0.844429
-0.0140473
-0.000164394
-0.00562131
0.00150971
0.451022
0.641937
-0.0358364
0.648059
0.920453