/*--------------------------------*- C++ -*----------------------------------*\
  =========                 |
  \\      /  F ield         | OpenFOAM: The Open Source CFD Toolbox
   \\    /   O peration     | Website:  https://openfoam.org
    \\  /    A nd           | Version:  7
     \\/     M anipulation  |
\*---------------------------------------------------------------------------*/
FoamFile
{
    version     2.0;
    format      ascii;
    class       surfaceScalarField;
    location    "25";
    object      phi;
}
// * * * * * * * * * * * * * * * * * * * * * * * * * * * * * * * * * * * * * //

dimensions      [0 3 -1 0 0 0 0];

internalField   nonuniform List<scalar> 
11265
(
142.008
-528.65
386.642
-760.459
6.26524
754.193
428.51
-372.397
-56.1135
660.982
260.04
-921.022
1510.82
-1069.44
-441.381
1216.28
-1527.12
310.842
-29.068
468.492
-439.424
168.875
-842.044
673.169
962.069
-1610.8
648.732
-1766.62
1673.03
93.5924
-542.947
1759.23
-1140.87
1934.68
-793.808
607.65
181.236
-788.887
-25.5443
-1315.89
1341.44
221.347
-1987.96
1023.37
-382.678
-640.691
-208.067
350.075
485.161
190.638
-675.799
1155.2
-1313.58
158.377
-306.638
374.789
-68.1504
1001.48
-1317.92
316.441
1221.57
799.429
-2021
73.9224
-1642.21
1568.29
-493.032
-1160.88
1653.92
476.075
182.011
-658.086
-186.814
-341.836
497.997
1012.82
1649.59
-1808.54
158.953
-96.7347
-1689.11
1785.84
-1559.04
652.536
906.506
-307.836
653.353
-345.517
-190.609
-121.557
312.166
1286.19
-1212.27
355.237
-1407.38
1052.14
-1754.3
1754.3
101.557
1534.8
-1636.36
-1079.73
-479.317
653.401
-682.469
-384.995
941.683
-556.689
1331.88
-1317.27
-14.61
-1100.39
715.394
626.344
397.024
-383.223
-38.7116
421.934
-473.19
765.009
-291.819
-1618.45
1618.45
1253.57
-1437.88
184.308
-488.707
1710.28
1255.04
-313.353
1660.74
-1161.24
-499.498
78.5779
-385.216
2065.71
-1135.34
-930.369
1816
-166.414
454.972
156.133
-611.105
-459.941
970.745
-510.804
-1172.87
1274.43
-568.02
970.677
-402.657
400.389
754.814
661.241
-492.366
-437.799
594.323
-156.524
1190.66
-835.42
2308.2
-1080.67
-1227.53
1163.86
-2009.23
845.373
-1604.71
1579.17
440.66
-1581.53
-759.02
1250.63
-491.615
-672.382
364.546
1661.46
-699.386
-1106.93
-870.895
1977.82
719.203
-365.432
-353.772
689.921
565.114
-258.211
1511.78
113.748
-317.907
204.159
-284.829
760.904
-334.579
564.71
-230.132
-324.524
809.685
-318.41
-148.113
466.522
317.775
110.736
1461.41
-459.932
-987.899
474.686
513.213
277.61
90.5491
-368.159
949.08
-341.43
-1705.47
626.925
1078.55
12.7551
-858.228
845.473
-280.281
595.071
-314.79
157.405
-1093.89
936.488
1051.35
-1066.93
15.5801
373.064
518.435
-891.499
-245.413
700.385
-1103.56
-482.262
1585.82
-677.871
950.713
-272.841
1354.39
-1451.12
-621.293
234.596
386.696
-470.198
-1011.54
1481.74
-538.489
-794.126
1332.62
576.031
-996.142
420.111
-265.007
-316.566
581.573
406.295
-292.547
-1037.33
577.392
955.471
-798.066
-110.352
943.914
-833.562
-209.379
417.842
-208.463
-645.285
-342.615
-386.739
962.77
1856.37
-1856.37
-501.177
-120.116
-953.716
1572.6
-618.888
457.215
-891.358
434.142
-923.473
355.453
-941.908
-1058.08
-1489.74
341.884
1147.85
-273.977
934.959
-311.176
609.481
-298.305
-1941.9
999.994
-1141.92
-347.813
562.707
-1516.42
1728.52
-1725.71
-2.81159
192.957
-584.125
391.168
-1469.63
980.53
489.095
286.573
213.888
-500.461
309.541
-644.12
241.466
-417.421
175.955
2019.24
-863.177
-1156.06
-537.165
153.942
616.268
836.068
-1452.34
-184.082
425.547
431.378
876.644
-1308.02
-907.298
392.745
514.553
-1046.96
1447.35
-1068.63
309.614
751.24
-97.8867
533.952
-328.597
-205.355
1012
-537.314
593.365
-1403.84
810.472
-1342.26
238.697
-546.203
265.922
-1202.24
928.265
1941.37
-993.853
-947.516
276.801
1579.57
-2095.37
895.633
1199.74
364.316
-31.4301
-332.886
-223.747
481.909
-258.162
-109.937
-377.904
487.841
-466.125
147.715
340.963
-131.829
589.045
415.617
381.568
-797.185
-2043.85
1124.09
919.76
461.146
-531.413
70.2669
221.542
-363.066
141.525
995.652
1023.59
1788.05
-253.254
707.887
-473.29
796.534
-1389.63
593.1
338.935
380.268
1056.61
-1043.85
-486.496
-264.535
751.031
477.246
-135.762
-341.484
797.015
-615.778
539.256
-733.735
194.479
503.331
1157.41
-1240
701.508
1036.91
-1529.94
-3.1279
-1439.43
1442.56
325.888
824.308
-1150.2
622.952
269.953
-892.905
-2272.05
1158.12
1113.93
-1108.64
-1163.41
168.75
370.507
958.765
-632.877
878.904
-898.653
19.7484
-2099.38
992.455
-224.737
-189.363
414.101
-41.8199
1770.34
-824.396
63.9371
-1028.75
-1066.62
-229.409
450.951
-659.164
157.988
-275.078
-455.233
730.311
1104.01
-1574.21
782.906
-1374.42
591.51
708.164
-448.124
1947.86
-1444.53
-378.285
-1376.02
56.929
411.563
-522.821
529.086
13.2617
-566.019
552.758
569.28
-282.707
-604.036
279.143
324.893
778.651
-363.034
33.9942
330.322
1188.47
-1191.6
176.927
229.367
427.194
-702.272
619.37
-1006.11
-2026.73
2026.73
-270.695
-464.387
735.082
699.118
405.868
-1104.99
579.59
171.649
401.423
377.228
-2199.75
1328.86
-926.439
-679.269
1605.71
-482.988
-719.253
-275.148
584.085
-308.937
843.993
-225.726
-618.268
-439.054
632.011
363.925
-675.101
-355.398
-112.633
468.03
-1333.19
-475.347
650.253
-1133.24
-374.146
-1244.3
844.337
1463.87
304.543
-909.455
604.912
966.429
-340.085
1391.37
-798.007
444.058
-267.131
-327.707
-888.348
592.654
295.695
-357.498
-530.851
307.208
-417.146
-181.565
-159.81
341.375
-392.778
1091.9
434.849
-244.211
-393.461
1354.03
-166.565
-1187.46
-458.254
268.462
189.792
237.253
284.961
-522.213
-9.3836
-724.351
592.12
-1729.03
1136.91
1482.71
-866.441
-1053.41
-416.212
-1056.97
573.659
483.311
1389.44
-408.913
929.119
-1411.38
-177.334
-176.057
353.391
-468.981
580.321
-1627.28
427.926
903.951
289.923
342.114
-632.036
568.058
1186.24
1103.77
-713.875
-389.894
405.034
-217.808
-187.226
-1419.45
445.598
737.913
-1183.51
1473.34
-544.22
-506.091
955.251
-449.16
426.151
1186.15
-1612.3
47.3815
-725.253
-145.564
423.174
190.338
-380.947
546.171
465.829
-584.748
34.1988
550.55
1024.53
-1307.66
283.132
662.532
-261.109
468.303
-1447.24
978.937
388.866
1687.02
-523.158
886.026
1055.34
-661.044
-1684.64
758.205
559.76
400.494
-960.253
454.863
78.8509
1750.01
-1828.86
1443.71
-379.491
-1064.22
1699.15
-1740.97
-367.048
-517.087
714.803
-197.716
-502.592
183.417
293.83
-373.19
-1225.98
214.44
-764.638
-639.199
-621.638
994.031
-372.393
-652.817
642.769
10.0478
654.972
-923.61
268.637
-698.205
344.463
353.741
-648.294
-720.273
356.989
363.284
-932.268
1400.57
-416.435
885.98
-469.546
-2205.31
5.55779
179.65
-535.664
356.014
139.567
1214.46
-62.308
-596.856
158.81
-596.609
1487.13
-704.226
374.204
-462.309
88.1057
-564.431
564.431
1223.02
395.428
1778
-1228.65
589.422
639.224
849.035
-52.0206
1291.78
773.928
-540.348
1336.88
294.495
300.577
272.162
-789.25
207.562
-680.752
230.488
-443.604
213.116
-264.443
598.772
-334.329
108.814
-373.257
-591.744
-564.622
1156.37
-408.71
529.922
-121.211
-1192.15
2032.04
-839.886
1289.46
-330.694
-401.127
136.12
-1984.63
823.742
1543.21
-856.424
-686.783
1986.98
-877.444
-1109.53
713.789
575.669
-240.624
471.112
-687.429
1164.4
-476.973
-769.868
1201.25
551.678
924.633
-1725.22
800.588
-585.004
-46.2194
631.224
266.558
267.394
417.657
-83.3349
-334.322
896.687
-83.503
-813.184
912.578
-568.783
-343.795
1576.19
-472.179
890.213
-1627.09
736.878
1068.47
879.389
748.932
-442.583
-306.35
-1058.97
-258.295
562.688
576.975
-1139.66
-512.828
492.986
19.842
576.892
-344.343
-232.55
-983.365
566.93
595.206
887.502
-441.814
1096.79
1413.58
-781.034
-632.545
395.395
-924.406
529.011
-1032.29
387.001
562.773
-1068.86
413.801
-499.665
85.8641
445.077
319.932
-515.703
-48.7287
-794.214
-878.898
1673.11
193.614
211.42
-240.509
409.259
1.67797
-566.474
564.796
497.335
865.589
-1362.92
-493.55
311.985
985.615
-88.9281
836.098
-1064.75
228.651
416.067
846.01
-1386.36
-448.003
829.571
1978.72
-1285.02
-693.702
269.9
609.004
255.778
795.575
88.3263
-977.954
889.628
1673.73
-1089.02
-584.714
-137.891
1887.9
-1866.07
-160.653
483.196
-621.371
138.175
-1013.74
526.861
486.883
-1730.47
538.318
-955.75
845.399
392.274
202.049
574.076
-269.533
-420.676
710.444
255.985
40.9354
722.882
-763.817
-1136.82
-891.36
2028.18
-554.619
1111.96
-557.343
-471.018
-332.748
108.01
-1655.26
861.049
-847.064
-620.811
1467.87
-331.039
-295.013
626.052
356.162
-672.536
316.375
240.88
-603.914
306.915
201.633
-508.548
363.272
-638.42
645.203
-289.041
314.984
-463.096
684.979
447.016
-209.764
-420.094
-300.179
1222.13
-0.925533
-1221.2
1039.53
-420.16
559.908
410.769
-1782.35
869.821
912.532
489.754
549.903
-1039.66
-534.549
203.51
-263.296
1181.12
-917.823
-1590.87
1212.58
504.659
-1096.4
385.428
-11.224
462.23
294.619
-756.849
371.837
-617.251
-32.8537
756.594
-723.74
-525.685
795.638
389.757
322.037
526.999
653.223
103.715
-447.212
343.498
1058.68
-645.02
-413.665
494.025
-1664.27
1170.25
-1140.39
1753.23
-612.846
1715.84
-1123.72
-334.681
613.824
-1189.53
1277.86
425.028
-796.243
1604.92
-808.68
-245.832
-212.422
-908.194
1470.53
1813.29
-611.069
-1202.22
-405.038
683.391
-1305.03
-124.72
-70.4011
488.058
-689.465
-354.178
-1236.69
-220.376
461.256
903.307
-558.257
180.353
-1674.65
-71.229
1745.88
-1074.51
519.894
567.982
-1182.36
614.375
901.026
912.262
630.672
619.963
701.249
254.002
-1156.25
468.82
-398.037
411.299
619.955
-514.857
245.155
-731.058
485.903
724.68
-385.745
-303.433
181.876
-588.581
244.47
344.111
-887.348
-739.743
1087.67
-2145.75
398.715
-683.544
-342.888
-724.046
832.361
581.218
-342.248
303.537
409.806
248.799
627.287
-876.086
540.983
623.419
-508.803
153.405
375.004
-645.699
-1052.48
-843.936
1896.42
-1799.27
157.061
1107.02
-1370.32
1176.88
-718.216
-458.66
-503.843
1349.85
-1495.51
627.896
867.613
-286.442
-210.171
496.613
1428.41
558.569
330.346
-442.979
-483.407
-567.872
1051.28
-418.696
598.346
1582.56
-1129.66
-452.9
-808.094
343.707
654.766
403.919
-1623.42
416.17
1207.25
-191.425
498.34
797.76
784.797
174.971
-683.184
508.212
206.407
211.435
-290.727
-109.521
400.248
477.2
52.0424
-529.242
-1647.71
594.296
-1611
1678.2
-67.2035
11.8512
-1622.85
1069.56
786.726
-324.496
-827.542
-204.743
-1134.57
-239.846
-312.154
683.991
-1812.55
-630.37
1207.34
213.312
757.433
-1330.62
-678.61
-465.614
655.708
-365.786
-1013.28
1350.77
-1932.89
582.12
646.506
1288.17
484.732
-2.82216
716.193
706.863
-1423.06
-638.641
335.865
302.776
439.352
-100.261
-339.091
148.784
283.733
159.207
-442.94
-586.789
1146.55
457.623
-634.039
-461.404
-401.918
863.322
-323.461
146.127
-457.525
164.978
-304.478
-709.266
546.698
-107.346
-571.817
967.212
577.384
-269.19
-308.194
455.225
-779.749
-644.588
446.755
-1129.4
-840.462
1182.35
-569.77
445.55
305.481
-484.393
118.962
1028.62
-315.727
592.201
-276.474
-509.042
1578.61
-709.82
266.164
368.769
-634.933
201.721
531.105
-22.5372
-508.567
-254.598
-202.927
1006.15
1108.91
564.825
-876.604
937.4
-60.7959
-454.892
168.45
-768.433
313.201
-594.132
367.26
357.42
837.044
-1255.17
418.126
777.184
-810.038
-948.925
-550.385
1499.31
-169.461
511.575
-529.964
201.367
1310.32
775.762
-600.79
1336.51
-686.256
487.676
-659.396
-406.372
-422.975
-378.649
801.624
502.311
-843.741
-482.295
76.4802
405.815
-322.157
572.435
728.749
-330.034
-243.647
-175.442
419.089
-488.254
143.018
345.236
1458.81
81.458
-1540.27
-752.128
1347.33
-1144.76
-466.037
562.215
-193.446
1151.01
-373.827
1083.48
492.71
691.027
-418.864
-884.998
-522.382
-1328.42
-25.2628
985.054
-959.791
611.88
349.09
-960.97
-320.891
-216.274
-683.416
405.525
1621.2
-196.214
368.699
345.404
-714.103
-1839.78
-2106.69
1519.14
587.544
-2038.58
349.471
380.04
546.486
-926.527
-460.342
1020.25
-410.358
-681.805
1092.16
-2030.54
1391.21
639.328
608.67
-1019.03
22.0476
391.754
386.71
197.533
246.524
361.643
988.71
895.576
679.767
-325.251
-354.517
-293.27
621.34
-328.071
572.953
530.815
565.157
514.816
-1079.97
-796.183
-699.325
752.211
398.8
-415.006
731.38
-1193.41
1609.58
433.701
-1115.51
-324.999
526.632
-1388.62
895.588
493.037
-722.548
-353.168
-771.277
331.663
439.614
447.152
718.135
-1165.29
1070.3
-580.547
-405.217
649.628
-244.411
253.344
324.04
-467.832
-432.204
900.037
-235.215
570.168
-954.209
384.041
-459.352
600.599
-1681.27
423.828
670.841
-1094.67
516.509
92.9723
113.409
-2212.79
558.204
-112.654
1444.27
1777.09
-217.551
-1559.54
-438.462
1789.24
-1987.04
1194.5
792.539
402.468
346.465
-40.6902
873.051
-1283.25
718.628
-869.75
-822.539
797.276
305.699
55.1027
-360.802
227.594
182.329
-409.923
1555.06
-838.866
-1530.94
-325.432
459.663
-204.226
-255.437
394.267
366.637
247.795
407.913
-9.49864
1002.05
-992.556
417.475
280.739
-698.214
-734.087
1817.34
-1083.25
-342.923
737.19
-1221.76
-414.593
-915.376
483.171
604.575
-811.622
207.047
761.41
-380.092
-381.318
-435.807
-440.797
451.262
1103.76
1237.77
-669.788
800.945
-345.72
405.161
329.921
-249.001
-213.308
-234.852
623.718
408.13
-847.525
439.395
245.552
361.846
-607.398
-422.296
830.426
754.455
-1147.23
900.216
-63.1729
-487.43
273.447
783.162
-96.0024
1384.17
1890.5
-67.4444
335.907
-345.412
449.127
-1086.56
1077.06
665.271
376.501
384.909
68.6949
390.968
255.656
498.537
-371.733
-266.908
-563.207
-89.6099
-356.691
365.893
-9.20242
-258.055
-288.148
1010.98
-1540.71
529.733
-176.711
-195.686
-421.029
701.768
-1636.7
1591.02
-963.121
287.254
-693.626
584.319
1224.42
-1808.74
607.421
983.597
309.281
-1120.2
699.527
-315.651
-316.385
1381.08
-1447.04
829.358
617.686
430.311
-615.621
185.31
-358.379
461.932
-103.553
405.564
71.6357
1724.06
459.213
-252.807
557.637
-1704.79
1147.16
-94.6716
408.362
343.198
336.57
-448.609
-615.442
1064.05
414.582
-862.585
-640.922
902.79
570.549
-473.083
-225.121
-438.401
-409.124
-307.361
-827.21
1821.11
-1821.11
-102.931
-1596.91
1699.84
293.598
283.294
-917.166
-555.416
1472.58
-408.229
973.386
-605.755
-1041.95
707.656
385.111
-1092.77
476.763
-161.78
573.065
1220.35
-1793.41
-1043.05
2114.59
-1071.54
-375.469
-296.913
-504.685
848.392
-1753.69
1602.5
151.193
1753.69
-1607.57
-146.12
-245.176
524.048
-278.872
-537.292
1620.77
1569.52
-1984.11
1094.66
-338.225
-227.491
565.716
230.191
-555.19
-726.083
311.077
1341.91
636.812
581.088
482.816
-1063.9
275.341
415.685
875.375
500.111
-1375.49
534.407
-1017.81
1574.95
-563.979
-786.35
-377.367
-149.129
526.496
-490.096
1208.23
-740.181
332.693
367.692
361.382
244.709
-606.091
591.573
831.87
-603.219
255.715
681.685
-473.083
-372.82
-203.589
576.409
1168.52
-689.403
609.5
466.39
-1075.89
-1286.59
1286.59
-385.826
762.326
-283.104
-477.158
760.263
490.126
442.342
-932.468
390.298
-673.402
609.837
-868.734
258.897
-367.439
-493.397
1074.49
-661.088
-710.817
1371.91
-366.772
936.94
-1552.72
675.275
-7.83553
-364.483
372.319
-548.95
706.938
281.695
317.078
169.752
307.011
-563.653
248.002
1869.75
-1965.75
251.932
-690.986
449.587
-820.183
370.596
-911.683
1428.92
-517.241
-429.992
-485.384
600.761
1124.19
-1724.95
-715.269
339.8
-461.338
1034.29
-786.996
1042.71
-378.198
-627.951
-509.897
717.459
539.809
-357.799
904.708
-301.305
-186.949
1599.02
-1816.58
-334.995
-619.214
-333.279
476.298
271.02
-636.806
-158.27
1067.27
-793.821
205.741
-319.723
-273.174
592.897
387.931
-876.959
489.028
-485.8
-451.781
-909.455
-354.749
544.071
-189.322
-437.256
-425.324
-324.666
-183.882
-387.785
632.494
-466.536
796.457
-1072.59
623.984
-1408.24
561.175
-28.1935
-1836.52
1864.72
569.966
-449.87
1225.15
-705.253
288.48
-288.48
671.527
-438.761
1043.04
-1648.79
-1158.73
-947.952
291.982
329.359
890.42
714.502
-505.599
-287.312
792.911
1658.5
-1686.7
-434.163
346.426
222.855
1135.03
-525.528
-943.335
1550.48
-607.145
443.912
-246.379
380.421
411.331
-791.752
533.391
468.429
-1001.82
-331.783
664.476
-37.9384
1907.68
1605.74
992.735
-1696.96
726.977
-1177.01
450.036
-492.481
1367.86
837.441
-1341.28
-584.229
246.005
798.316
-397.823
550.771
-1188.71
637.94
-637.405
-1215.53
-695.665
1911.2
-183.716
528.659
-344.943
-120.158
292.219
-475.935
328.794
369.399
-698.193
-1484.9
756.322
728.581
884.06
-1434.44
824.754
-432.009
217.815
-363.379
-613.265
240.445
-668.774
-719.851
698.428
506.477
-1204.9
392.088
-204.56
-187.528
555.648
-958.305
-572.322
-451.288
764.488
-831.308
-1155.73
-1437.97
499.671
938.296
29.2799
-653.804
311.449
342.355
-1315.98
1045.73
270.254
-616.339
-456.254
-665.798
921.576
400.866
-202.003
-198.863
508.262
980.603
-1488.86
975.733
-562.268
166.444
395.824
-431.202
662.982
-411.05
-504.297
171.018
234.29
-1519.31
527.49
542.811
-762.289
213.339
152.945
-454.251
365.124
-816.906
1954.16
-1195.39
-758.771
447.104
-675.91
228.806
323.411
321.679
120.369
-442.048
-571.228
193.839
265.374
-691.749
1374.32
-682.571
424.087
477.737
-1200.28
265.993
1866.78
-1013.59
-853.186
784.716
-504.966
150.217
1402.36
-975.17
-427.191
329.4
-768.161
-616.529
1725.44
610.332
627.438
318.257
-12.5573
257.765
-1138.41
1725.72
-587.31
-1763.53
820.195
1762.76
-1692.71
-70.0481
-654.374
256.337
602.541
-711.08
201.184
1402.69
-565.253
386.616
442.955
-1858.61
1420.15
522.276
-451.72
-70.5554
199.46
-524.126
-321.908
-149.11
-352.209
695.407
-618.786
241.418
612.173
548.846
-1161.02
1113.61
-1947.51
833.905
143.254
324.776
-1699.29
1661.36
309.98
-728.844
-165.152
382.967
757.038
678.56
-1435.6
1080.66
-1081.59
523.625
-1104.17
-630.046
252.564
377.482
516.12
-271.65
-617.823
-1030.97
288.95
-714.274
-912.32
170.281
164.226
227.862
388.678
285.914
-674.593
-631.586
-834.082
-978.463
487.431
-1058.66
-282.066
471.857
532.636
649.711
-279.21
-121.917
-441.279
750.561
261.843
-1199.31
567.725
1309.67
-552.628
438.003
-1010.32
-386.556
117.268
405.008
1023.31
551.643
-1720.03
1617.1
1642.83
-581.211
-1061.62
1904.08
-1892.79
-11.29
230.011
-575.424
-340.19
545.932
-771.116
-318.793
-335.581
1025.01
701.435
-1511.54
810.107
310.04
-26.1881
1625.21
-1097.29
407.885
-1258.51
472.161
-60.7633
1519.58
1197.34
-470.368
-488.132
-74.1361
-233.648
736.034
-1951.57
-710.126
349.235
-531.071
181.835
191.17
-506.897
1139.92
671.571
-1811.49
-588.063
136.342
941.934
-1497.35
-210.514
678.868
-468.354
878.181
1121.82
-739.447
1349.78
638.304
-540.331
-97.9723
-343.943
1173.3
1050.84
-1980.66
929.819
-1172.4
542.034
1488.78
-585.991
-385.663
-123.14
-1241.92
572.135
1166.78
-88.238
946.121
775.656
-1721.78
-209.022
578.579
-1541.75
963.166
487.005
916.598
-1403.6
621.782
585.563
387.6
-1106.63
590.748
1107.16
1215.71
-452.285
-763.421
-1186.2
-1754.94
-6.04148
-1713.99
-177.641
-437.98
1608.12
-629.889
-978.235
-490.855
1121.53
-1318.41
635.491
682.918
-1362.35
1443.81
-1330.93
591.478
1520.51
-403.058
-547.585
161.922
-1492.89
225.109
176.381
203.961
434.343
458.299
395.122
-853.421
506.374
-938.978
900.627
-1444.85
-693.501
211.96
481.542
-1042.11
455.319
-475.396
862.012
694.742
28.7372
-505.387
160.444
-886.566
-1318.74
-715.162
349.322
365.84
402.998
-722.982
319.985
-478.458
-189.383
-709.27
720.776
1539.74
-593.618
817.912
737.148
1344.76
-844.649
-971.217
-570.529
-796.837
428.2
368.638
-1036.5
-642.351
303.679
338.672
-1433.69
-296.78
-790.427
397.674
392.753
-642.274
412.286
229.988
-667.778
256.729
412.802
487.235
389.925
440.501
478.697
384.625
596.407
-969.596
682.346
464.202
453.299
356.414
-809.713
1630.76
-1079.88
-550.877
-504.616
-287.638
-1028.35
453.815
347.809
409.702
593.875
-1003.58
-1381.45
751.559
-531.989
1146.36
345.551
-61.8173
412.322
-865.282
452.96
-1899.04
302.124
441.078
-725.996
284.918
-186.908
404.502
-217.594
-661.48
306.636
354.844
-674.032
319.515
370.959
391.368
612.58
-1020.81
752.899
662.435
-1415.33
438.818
625.233
339.286
392.759
-732.046
408.79
328.4
615.191
693.672
410.085
605.234
-1024.89
419.658
-1679
1180.5
498.499
1696.59
-539.178
620.545
-1147.29
526.747
-642.411
347.398
437.444
-935.001
497.557
773.919
-479.3
351.12
344.286
581.64
-916.635
651.829
-1253.1
601.271
390.891
734.585
-1224.68
769.382
509.674
-1279.06
489.08
399.25
-888.33
-501.694
-936.272
-300.652
629.446
352.605
541.637
-894.242
332.424
332.052
-502.183
1944.74
436.825
-846.92
410.095
-917.782
-807.439
-748.452
367.134
-1219.03
432.039
-1736.23
1607.57
128.656
1747.46
-1602.5
-144.963
-784.121
-592.798
265.424
327.374
-1762.76
1984.11
538.64
791.382
-1330.02
440.132
716.234
690.209
385.636
-1075.84
-48.3956
1617.15
-593.834
378.9
846.247
-649.054
326.034
323.02
-378.592
-297.491
550.835
-221.076
434.964
280.287
-665.856
385.569
264.337
-579.127
-282.285
442.624
-1033.37
590.75
538.052
1092.7
366.049
596.722
311.252
352.067
-663.32
1629.97
-928.536
1692.03
-1520.69
-171.345
-328.461
-823.099
413.975
857.454
-1067.97
-606.946
278.875
-1090.58
1628.64
-1592.57
-76.9888
1669.56
-341.522
-350.369
-370.353
537.706
597.321
-502.927
-28.4858
-549.883
506.496
-283.813
-222.683
1754.47
-1303.2
-624.9
298.733
326.167
400.257
357.302
734.594
-295.542
-399.129
-1747.46
1686.7
459.628
-1100.87
641.237
-42.7635
1659.86
571.185
476.396
-1047.58
104.07
1144.75
-1452.11
-12.2466
-1886.79
227.624
-598.57
307.486
291.083
-955.293
612.405
-898.146
468.154
-1128.5
673.325
455.178
381.856
256.137
-761.736
-333.642
1216.94
886.66
699.162
-1182.91
456.163
726.748
494.446
700.647
-1195.09
-388.804
-248.058
412.284
-960.551
438.665
521.887
21.2436
-1879.86
1079.91
-470.072
-497.461
558.305
-1378.21
819.907
-426.341
796.937
-405.518
500.105
-713.411
1719.56
412.54
-184.678
215.542
-170.369
-246.249
416.618
1895.33
-504.117
-1696.55
1051.4
-601.11
303.619
-1013.68
553.337
-313.135
544.337
905.229
-1449.57
-1103.67
437.877
-20.8504
-1944.9
1714.31
-663.469
-540.3
460.779
-1190.47
729.689
191.316
209.551
-281.362
770.495
700.04
837.923
817.975
-461.561
1084.86
-491.412
478.596
-193.255
-285.341
-1923.46
-713.924
-318.282
-642.829
-6.60243
649.431
466.933
-273.094
565.05
1064.92
-806.343
924.679
1244.26
-425.425
-168.02
-248.506
416.526
956.948
-888.481
-319.474
-1067.79
611.539
1558.26
-801.939
537.704
934.878
-392.435
734.654
-342.219
1130.34
-275.774
372.828
1349.69
-705.262
-219.144
448.318
-1198.6
750.284
-983.11
-140.786
1123.9
441.515
-955.603
514.088
150.985
732.455
483.251
743.727
-116.44
852.823
-425.887
1182.45
-796.812
552.21
-1465.47
913.264
-1216.65
1800.97
-431.711
-1510.19
879.599
-1401.98
-307.653
-449.195
1457.21
-1524.21
784.463
1491.48
201.704
276.893
-351.352
-1736.23
-286.423
-1015.35
1580.4
-1771.12
1771.12
1569.52
-1004.48
-633.998
-333.881
368.418
604.968
-413.36
-360.052
-1389.82
897.337
1125.13
600.589
1202.7
1789.48
-1216.42
-613.747
273.678
1659.04
-1916.53
257.488
814.756
-1267.66
1545.23
-561.635
780.814
331.149
-346.875
554.976
794.876
655.411
1372.77
-256.939
-445.186
-355.731
496.797
-340.664
471.84
736.392
-292.828
-149.221
-329.254
565.686
-236.432
28.0185
-372.361
1107.43
-1720.28
-453.674
-487.506
-564.469
863.529
694.732
-1596.48
904.731
-451.83
-623.558
-514.156
1252.07
345.169
1723.73
-1702.48
-1658.5
1892.79
-1560.79
840.245
720.548
-387.698
-1796.66
917.762
583.336
819.358
-387.879
1794.35
-680.746
-450.84
697.645
427.913
-1125.56
-1099.86
444.147
753.198
-1617.17
473.22
901.1
176.718
-402.463
225.746
-1601.66
-386.301
-462.571
990.269
-674.198
1442.93
-976.292
1854.47
242.171
-549.64
497.203
-295.499
474.327
893.528
543.17
977.343
-462.994
-427.959
574.04
883.169
-1392.7
-40.9905
1574.57
-837.423
519.959
971.521
-1475.83
-1115.9
1777.51
-1242.95
-534.561
1206.13
-319.087
-887.046
-191.803
454.886
-263.083
-457.417
-250.783
431.541
-180.758
146.21
-394.268
1735.48
-1741.52
-458.181
-530.86
-903.585
444.61
-206.479
-238.131
634.273
-482.275
-398.13
-311.499
709.629
-948.051
417.2
-1167.25
676.395
418.888
-637.394
-438.829
1577.65
-863.148
530.189
-458.031
-570.688
-462.686
363.616
-353.26
-10.356
-1112.45
407.198
-664.81
-1033.63
1698.44
-604.105
-1423.72
712.901
562.227
-1596.26
1034.04
-397.368
-480.674
147.615
553.634
-1258.47
744.311
539.238
1005.99
-2133.18
999.987
1133.19
-353.845
411.533
-386.373
-25.1599
1478.05
-369.243
449.562
1186.6
582.305
906.477
567.534
527.611
-1095.14
166.035
-439.894
-1692.71
251.383
1127.56
-616.741
518.526
1013.72
-1532.25
1092.84
-1643.72
198.581
701.636
547.931
-867.406
-1086.47
-171.269
428.334
-257.065
-586.876
-428.36
-636.826
-627.62
346.258
-1618.96
939.688
-476.882
215.708
-400.386
535.082
-307.458
-611.075
1197.16
-1293.41
936.963
356.443
-1023.71
-362.133
-758.79
-826.198
1689.73
-477.043
1795.23
-1585.61
-209.626
-1556.63
1018.71
537.921
-726.931
-259.602
442.251
-182.649
-594.457
383.899
273.947
-657.846
-524.034
989.275
630.281
-351.406
-1620.27
1050.5
571.779
1103.53
-1675.31
-412.75
-292.205
-369.275
-745.957
-492.318
-331.019
500.771
1558
-995.769
-775.045
1497.46
660.14
-313.714
725.883
1152.36
-1878.25
278.049
303.638
-487.265
-1932.6
1720.14
212.46
738.528
-474.765
-263.762
531.841
1060.82
-1592.66
363.616
-1726.23
-233.211
1752.35
-1580.69
1073.77
506.921
-1727.97
1.73922
-521.768
411.533
1699.29
-1720.14
939.629
624.689
-1564.32
382.162
-219.052
-163.11
-417.058
-250.721
67.2625
94.9302
-354.532
-429.95
-438.784
-407.308
220.4
1510.23
378.923
-194.547
-447.727
462.643
-197.269
323.209
1510.76
988.714
-171.733
-816.981
-1104.09
1704.85
-1728.82
1064.01
-707.234
-1021.59
-1265.08
1844.99
-579.905
1155.07
-1771.17
616.106
270.982
-878.072
1675.75
43.4402
-1719.19
-491.172
-1083.04
-1735.48
-981.974
554.015
1019.59
590.238
1133.02
-1723.26
275.337
-468.783
703.869
-384.354
387.155
924.796
680.912
-373.043
-651.849
582.904
1072.54
-1655.44
-400.994
-368.288
769.282
397.172
-1661.36
1520.69
140.668
582.803
-1044.14
544.751
1083.88
-1555.67
994.036
-237.771
228.761
317.171
1904.08
420.931
-68.0044
995.859
722.753
-1718.61
-697.197
1085.33
-1557.51
165.835
-571.205
197.215
265.428
-665.566
-553.468
582.544
1034.6
-711.086
-254.501
-1368.6
675.384
693.218
-414.942
745.667
94.2024
-839.87
561.837
-137.164
1557.32
-215.992
267.275
-772.647
-1932.6
1664.62
1024.84
344.463
290.861
483.058
-930.04
-993.425
-1767.26
636.463
1693.77
508.092
-474.391
1210.78
1087.12
-424.956
1029.92
-978.39
492.254
486.136
700.338
1047.94
-1748.28
484.322
482.89
-1493.98
-746.697
32.8223
780.187
-413.053
-881.997
384.537
-539.085
-802.199
604.912
-577.455
1397.36
1055.15
194
234.334
-550.634
1618.52
-773.115
1526.01
-1727.83
575.264
1152.57
543.078
-883.163
-1732.84
1916.53
-183.689
1721.74
181.792
-544.294
367.003
-272.072
-481.47
1211.16
568.272
1128.31
-491.269
429.311
858.088
-461.064
-771.96
426.29
345.67
1418.98
1089.59
-518.233
1422.96
-510.605
-533.33
1043.94
-602.768
502.145
-1220.36
1692.03
1839.58
-687.214
1585.76
-646.131
-1241.25
717.219
-562.568
201.996
-391.359
454.334
-242.898
-519.64
-1246.71
1870.94
-624.237
1173.44
-552.892
1120.28
-1659.45
1696.95
-573.95
-546.021
-549.824
1720.07
-316.944
-688.058
-473.343
1223.63
-1685.24
-1860.1
613.399
333.255
-951.523
168.458
213.391
-1719.03
1204.15
514.878
1162.85
558.889
-511.934
-465.402
1192.15
178.87
225.632
588.445
1251.13
-539.178
-1238.58
1777.76
-1025.37
999.99
866.787
-204.104
-1659.04
1702.48
-510.105
1411.2
-1732.84
-341.271
-4.49697
345.767
-262.946
584.743
-321.797
102.114
490.54
781.278
-378.28
1257.53
1270.82
-413.364
852.041
-438.066
1817.47
-662.407
1586.56
-1723.73
-412.797
-761.655
335.065
426.59
-560.04
-563.365
79.7377
-1138.71
-985.439
-669.86
1655.3
-943.705
-1189.47
207.655
-435.147
-648.153
705.657
1167.45
650.029
1410.33
-590.968
1636.74
1318.09
-573.782
-492.561
197.061
-503.293
1396.82
1240.13
-564.746
-999.986
892.886
55.5228
-948.409
603.436
-506.152
1403.49
1495.07
-588.596
-365.779
365.779
-589.463
1623.5
1239.46
-486.265
1134.15
-65.6159
1851.46
-393.251
1489.48
-588.855
-507.685
1347.93
-652.222
1218.64
-566.422
1554.81
-591.646
756.303
570.834
-1327.14
-669.374
261.854
513.907
600.321
-1957.3
-992.257
1586.56
368.636
-368.636
-68.5252
387.715
437.039
349.387
56.1775
-317.281
925.927
-535.036
-426.419
814.133
-243.106
620.588
-427.704
1551.8
-444.344
-884.072
186.755
226.371
-413.126
601.17
1250.77
-1851.94
926.975
-458.821
-353.26
126.151
-1943.02
1816.87
-450.447
183.316
1181.22
-440.472
-740.747
-299.376
-582.621
-493.086
-386.373
-480.314
257.63
1158.3
-560.98
230.558
-381.339
150.781
-22.7563
-107.68
1376.02
-1268.34
34.5858
-597.793
-586.418
-451.507
451.507
-1262.35
1985.11
-1344.37
-206.645
-1824.5
238.887
-1025.75
-974.243
-185.55
-1638.09
708.05
1229.32
-1924.98
368.746
312.801
-681.548
-1850.02
1234.27
615.745
-561.182
561.182
-959.131
-39.9745
-1866.07
-558.152
1650.86
-677.035
1636.18
-601.579
-180.803
-1705.99
-584.628
-470.793
-594.814
-465.71
465.71
-1537.81
194.527
1343.28
172.915
225.665
-398.58
502.728
485.985
996.974
-475.088
1751.3
768.227
-422.209
397.049
521.215
1702.06
-594.627
-552.97
1636.85
470.894
1812.76
-645.314
-1804.07
-1938.07
-646.986
-478.105
478.105
-574.221
218.491
-704.567
1019.37
-466.034
-1072.91
-285.469
1579.57
1852.3
1635.34
-1635.34
-290.463
738.784
1761.5
595.79
1275.15
173.132
209.03
592.294
594.65
1603.51
-1603.51
221.947
-354.236
-435.312
459.428
951.401
-459.147
-639.492
-1131
1706.26
279.911
-1661.28
619.323
-289.099
470.891
1744.65
-592.075
-215.425
-443.753
378.108
729.053
1738.57
-613.443
-511.771
-780.775
1960.54
-870.455
-1090.08
1642.77
-705.388
1223.97
-1824.95
600.978
358.657
-908.297
-185.679
-105.153
1098.2
-486.662
125.787
628.287
-1659.26
435.671
597.596
-1804.07
-583.281
1787.43
884.072
-1162.91
1760.49
-597.578
1783.83
-575.533
-1208.3
431.635
928.459
-1741.52
924.7
-1485.95
250.121
1235.83
-830.944
-1254.23
-378.841
75.4003
303.441
581.734
269.182
1027.82
-443.494
846.43
-402.936
820.942
739.234
-1560.18
643.953
1066.33
-24.1611
-662.932
687.093
-1744.35
722.769
701.788
150.556
-1122.67
1936.76
-674.552
-1262.21
-537.179
1665.49
831.968
964.552
-1796.52
1227.86
683.334
-403.801
710.437
836.59
1028.26
-586.741
1761.5
626.442
1773.56
-1185.61
-587.948
-422.05
-323.884
745.934
121.449
-1185.67
1660.55
-540.272
-1437.81
1437.81
1250.57
594.417
1351.53
206.469
-567.87
282.046
-191.497
699.093
1113.67
481.91
-303.04
-870.054
-574.793
1739.78
-1739.78
993.721
-993.721
987.332
1025.17
-2012.5
1837.95
-613.977
-581.111
841.287
-947.851
-1052.16
998.324
690.741
-1689.07
-515.703
-367.089
-651.938
-808.426
2042.7
-1246.42
-613.686
1002.97
974.853
1289.77
646.99
325.277
1012.69
237.514
337.784
1186.24
1756.88
-1756.88
671.843
79.7905
-387.984
-997.054
-539.993
1674.14
990.197
1009.8
-1833.29
-222.925
-361.703
597.455
-346.072