/*--------------------------------*- C++ -*----------------------------------*\
  =========                 |
  \\      /  F ield         | OpenFOAM: The Open Source CFD Toolbox
   \\    /   O peration     | Website:  https://openfoam.org
    \\  /    A nd           | Version:  7
     \\/     M anipulation  |
\*---------------------------------------------------------------------------*/
FoamFile
{
    version     2.0;
    format      ascii;
    class       volScalarField;
    location    "40";
    object      p;
}
// * * * * * * * * * * * * * * * * * * * * * * * * * * * * * * * * * * * * * //

dimensions      [0 2 -2 0 0 0 0];

internalField   nonuniform List<scalar> 
29540
(
0.00881263
0.129531
-0.00918515
-0.0370805
-0.00264165
-0.0376541
-0.0336806
0.00756393
0.00214179
0.000177038
0.00332983
-0.00538733
-0.000557271
-4.19846e-05
0.0740591
-0.00631863
-0.000229031
0.00385138
-0.00233143
-0.0108689
-0.000960153
0.00201416
-0.00935427
-0.00229424
0.555404
0.128688
-0.000597089
0.457701
0.060941
-0.00189579
0.0167517
0.0534136
-0.0615333
-0.0079399
0.465608
-0.0102065
0.133478
-0.0276733
0.00615385
0.00589327
0.00044695
-0.0186233
-0.00020752
-0.0314525
2.19177e-05
-0.00175158
-0.00483124
5.89822e-05
0.00350173
0.129805
-0.0591867
-0.0324505
0.0554748
-0.036172
-0.00619302
0.060419
-0.00373013
-0.00099047
-0.00589546
-0.0239794
-9.04227e-05
-0.00227106
-0.100755
-0.00916131
0.222325
0.523582
-0.00979754
-0.00914108
0.497559
0.000469039
0.127277
0.377655
0.00222155
0.515395
-0.00814224
-0.027338
0.0211275
-0.0242368
-7.02857e-05
-0.0199798
-0.0330452
0.176827
0.00880544
-1.54937e-05
-0.0319344
-0.178054
0.255827
-0.000579015
-0.000538555
-0.0471124
-0.0261045
-0.0246311
0.00320188
0.0460923
-0.0485195
0.256748
-0.0348014
0.000482328
-0.0423021
0.104509
-7.36571e-05
-0.0229519
-8.75237e-05
0.0325965
-0.0330365
0.104725
0.318248
-0.000518904
-2.59608e-05
-0.0637995
-0.0602968
0.002204
1.2479e-06
-0.00173817
-0.000197984
0.366931
0.188442
-0.0117988
7.12286e-06
0.00266231
-0.181628
0.139047
-0.0738355
0.519206
0.00116213
-0.0546532
0.00846241
-0.0210241
0.00430179
-1.47621e-05
-0.0295819
0.00777266
0.352492
-0.0927639
0.0323327
0.016306
0.265798
-0.0233549
-0.130266
0.0971275
-0.0482029
-0.0408461
-0.0431467
9.25313e-07
-4.41714e-06
-0.00269534
-0.00454509
-0.0477063
-0.108254
-0.0938418
0.0255196
0.0119159
0.000432923
-0.00017426
0.188912
0.000506544
-0.00835908
0.241742
0.230292
-0.0594054
-0.0317018
-0.0360787
0.0664309
-7.40649e-05
-4.78236e-06
-0.0118942
-0.0414852
3.07858e-05
-1.71338e-05
-0.00733623
-1.15757e-06
0.00594743
0.246511
-0.0228206
-0.0620072
-0.00525474
0.00218532
-0.0239902
-0.00143507
-0.070047
-2.69144e-05
-0.00788766
0.252157
-0.00843235
-0.129565
0.185789
-0.00655894
-0.0179778
0.00406041
-0.00194194
-0.000332298
0.00102453
0.529328
0.185579
-0.0137921
-0.00800377
0.436527
0.164854
-0.0481929
0.001213
-0.0535878
-0.0514148
-0.00523064
0.000878132
0.260567
-0.00702944
0.00728463
-0.0469103
-0.0654874
-4.99706e-05
0.400397
-0.00114049
-1.72034e-05
-0.000623371
-0.0253696
-0.086881
-0.00671557
0.00709539
-0.002279
-0.048896
4.47633e-06
0.000443271
-0.00246157
0.0862645
-0.00307281
-0.00163983
0.056604
0.000103958
2.01078e-05
0.00563174
-0.0287374
-0.0211694
-0.00490844
0.125759
-0.0146785
0.0127765
-4.37053e-05
-0.00318875
0.000819443
-0.0508142
-0.100339
-0.00150306
0.000463338
-0.00168701
0.00284003
-0.0104913
-7.11862e-05
-0.173375
1.94609e-05
0.087762
-0.00359895
0.000123612
0.106635
-0.0505161
0.000245251
-6.54326e-06
-0.0408657
-0.096558
-0.00910311
-0.0225092
0.0251996
0.240951
6.29487e-05
-0.0270071
-0.111629
0.44818
-0.00841405
0.182719
-0.0229381
-0.000326161
0.637875
-0.000617908
-0.0641889
-0.0483902
0.002357
-0.0664575
-0.00840652
0.356146
-0.00367082
-0.0178965
-0.000335395
0.160333
-0.00367348
0.263056
-0.000579782
-0.00605876
0.42712
0.0734174
0.0565722
-0.0319623
-0.000190549
0.00277867
-0.00023979
-1.55844e-05
0.0741874
2.6932e-05
-0.0193164
-0.113538
0.563371
0.348836
-0.0445513
-0.0200575
-0.0201034
0.00349685
0.00194661
-0.0183049
-0.0477066
0.247189
0.382389
-0.00139745
0.31186
0.0719581
-0.0766252
0.0112519
-0.00253616
-0.0160446
-0.00561745
-0.00280111
-8.27563e-05
-0.00224478
-0.0120652
0.165332
0.00170642
-0.0264892
0.0130206
-5.55239e-05
-0.0460668
0.593795
-0.00664963
-0.00164349
0.0120387
-0.0186258
0.0850725
-0.00172456
-5.33272e-05
8.23802e-07
-0.00281833
0.430329
0.0172792
-0.104084
-5.77489e-06
-0.102274
0.0457024
-0.005334
-0.0446862
-0.00150594
-0.000508269
-0.0248909
0.000972491
-0.071876
0.0114414
0.00504922
-0.000274622
0.00167027
0.137982
-0.178475
0.000422656
0.000451175
0.361105
-0.0264219
-0.00183586
0.17346
0.457066
-0.070103
-0.00903465
-0.0793253
-0.000863928
-0.00872617
-0.00359388
0.160941
-5.94109e-05
0.0110034
-0.115827
0.360518
0.505509
-0.00637413
-0.00934301
0.23247
-0.0248493
-8.04457e-05
-0.0478127
0.0914793
0.0932114
-0.00805928
0.0281915
0.448674
-0.11956
0.40173
0.367942
-2.35269e-05
-0.010804
-0.108218
-0.00324874
0.00174565
0.461747
0.0170629
0.000288516
-0.0366611
-0.0522753
-0.00594212
-0.000162882
0.263898
0.184472
2.23666e-05
0.00445891
0.00591768
-0.129388
-0.032005
3.83037e-05
-4.66723e-06
0.000524504
0.090995
-0.027431
0.283941
-0.0474498
-0.0195585
-0.0208659
0.169196
-0.0886599
-0.00135812
0.00883212
0.000906053
0.403506
-0.0253267
0.00118033
-0.00787312
-0.0460568
-0.00191291
-0.0129354
0.000235804
0.000241715
0.603138
-0.00852349
-0.00551432
-0.000569043
-0.000844291
0.225178
-0.118085
-0.0275761
2.51692e-06
-1.48593e-05
-0.0261214
-0.00717157
-0.00557329
0.018986
0.00678644
-0.00356917
-0.0123403
-0.0178191
0.393559
0.00308369
0.000251458
-0.0439847
-0.0256278
-0.0479111
-0.00386081
-0.0272752
-2.53732e-05
0.495764
0.0218227
6.61755e-05
0.529457
-0.0282828
-2.69444e-05
0.00159285
-0.0454854
0.00393809
0.042491
-3.74884e-06
-0.00835825
-0.0145279
-0.00577289
-0.000558577
-0.00865688
0.441835
-0.00906048
-0.0125619
0.198386
-0.00306982
0.419967
-2.93966e-05
-0.0181018
-0.0510449
-0.0269326
-0.122363
-0.00179861
-0.00020533
-0.000205203
-0.0198464
-8.25922e-05
-5.25917e-05
3.55989e-06
-0.00669391
0.394904
0.00636828
0.00273161
-0.0477621
-4.83802e-06
0.00107485
-8.40152e-05
0.00895626
-0.0180884
-0.00046675
-0.0089859
-0.012924
0.00113223
-3.10315e-05
-0.122276
-0.000513791
0.039583
0.328173
0.238693
-0.00570839
0.00666244
0.0290063
-0.000142773
-0.00423416
-1.02173e-05
0.371865
-0.0145612
0.0187169
-0.0172203
0.00131066
-0.00357257
-0.000147648
4.45681e-06
-0.00533634
0.0423034
0.23462
0.0013723
-0.0402385
-0.0248145
-0.0083773
-0.0888953
-0.00149829
0.000456727
-0.0060396
-0.000138271
-0.0468927
0.264615
0.172703
-0.0227748
0.257544
6.75449e-05
2.05934e-06
-0.0418452
-0.0589097
0.515747
-0.0492953
-0.021124
-0.0392189
0.001309
-0.00630786
0.000499589
-0.011103
-0.0136016
-1.95062e-05
-0.00103403
0.356383
-0.000196444
0.4772
-9.07924e-06
-0.15708
0.0359009
-0.0083861
0.00116098
0.000188455
0.38657
0.0418604
-0.0519385
0.180757
-0.00793986
-0.0135506
-0.00445143
0.161454
-0.0260453
0.00565044
-0.00860639
-4.15123e-06
-0.00148342
0.0064369
-0.0178782
-0.0222911
-0.0408436
-0.0180543
0.114972
-0.00240356
-0.0477891
-0.0140165
1.50819e-05
-0.0123508
0.00253383
0.117159
-0.027267
-7.76643e-06
-0.0187825
-0.00122792
0.00155586
-0.123419
0.283271
0.00100167
-0.0122167
-0.0556011
0.0758775
0.431106
0.00201435
-0.0063039
0.18397
0.153417
-0.0170628
0.0055303
-0.0442413
-3.49153e-06
-0.0368536
7.56044e-05
-0.0534945
-4.73988e-05
1.13263e-05
-0.00816152
-0.101163
0.319837
0.0024302
0.0121772
-2.04491e-06
-0.00687913
8.10062e-05
-0.00360722
1.17753e-05
0.046358
-0.000572282
0.164945
-0.00017108
-0.0130135
-0.03309
-0.00465163
0.427806
-0.016519
-0.0603928
-0.00617762
0.0497144
-0.0439416
0.031841
-0.0308771
-3.30548e-06
-0.00669656
-0.00435101
0.000260434
7.67103e-05
0.157319
-0.00540855
0.0831689
-0.00607901
0.000960677
0.0347527
0.000165815
-3.10287e-05
-0.0362446
-0.00385922
1.54963e-05
0.21476
0.568877
-0.00026853
-0.03197
2.97713e-06
0.458182
-0.167781
-0.0362888
2.33721e-05
0.00657405
0.0618552
0.0731279
0.0409812
-0.000476596
-0.000209574
-0.015982
-3.33679e-06
1.01476e-06
-0.0264081
-0.0343845
-0.0402784
0.542027
0.000206009
-0.0402053
0.00861214
-2.84634e-05
-0.0014906
1.19563e-05
-0.00697505
3.3331e-05
-0.0295393
0.0307743
0.413716
0.0482332
-0.00034778
0.000492338
-0.132237
0.0814128
-0.00347101
4.91961e-06
0.17476
-0.122255
-0.0479801
-0.0142301
-3.58012e-05
-0.000343655
-0.12554
-0.0253952
0.139079
0.391105
-0.0591306
-0.00145631
-2.82208e-05
-0.0425373
-0.0605626
-0.000259047
0.00102176
-0.0165154
-0.00516396
0.382818
-0.00150254
-0.0119951
0.0333785
-0.00823863
0.518638
0.520219
-5.31617e-05
-7.53248e-05
-0.0162338
0.0176457
-0.0311859
0.00591992
-0.0079746
-0.000685433
0.441806
0.160668
0.00252851
0.630331
2.34199e-06
0.105342
-0.0586165
-0.0402372
8.15809e-05
-0.0321991
0.1098
0.0168353
0.0657878
-0.000544007
-0.00058168
-0.0114324
-0.00383174
-0.0140338
-0.00129
0.104328
-0.00734022
-0.00586956
-0.0477699
0.353524
-0.0190002
0.0341219
-0.000488729
-0.000615241
-0.0204014
0.00110194
-0.00287678
-3.43327e-05
-0.00041386
0.110206
0.388081
-0.000170547
0.101819
-2.16316e-05
-0.00371992
-3.19161e-05
0.00608912
-0.129045
-6.35069e-05
-6.56227e-05
-0.0488754
-2.77255e-06
0.0415441
-0.0262062
-7.14373e-05
0.156563
-1.44014e-05
-0.000485011
-0.000123458
-0.00562235
-0.000478112
-0.00660611
-0.0681799
-0.000428128
0.00477472
-3.14367e-05
0.313268
-0.0127457
-0.0219095
-0.029293
-0.0217466
-0.00138254
0.00326757
0.201649
-0.0265044
0.133555
-0.0355959
-0.00384126
-5.39466e-06
-0.00622166
0.348712
0.174235
-0.0363318
-0.0430811
0.299979
-0.00886977
-0.0539619
-3.14469e-05
-0.0272115
-0.000964873
0.610142
-0.0472421
-0.000120888
-0.047191
-0.02719
0.237231
-0.00284193
-0.0281398
-0.00451852
-0.00763253
-0.00146008
0.236834
-0.0984057
-0.0191645
-0.0151807
-0.0128797
0.00630996
0.29377
-0.0182923
0.182576
0.0030435
-0.125927
0.487642
-0.00899636
-0.000287782
0.23257
0.361842
-0.0100861
-0.00955126
-0.0075501
-0.0290206
0.186513
-0.0419739
-3.81416e-05
-0.00775517
2.51846e-05
-0.00483163
-4.02786e-05
-0.00564372
-0.00110498
-0.0035538
-0.126995
-0.00070341
-0.00059538
-0.00134514
0.195662
-0.00228807
-0.0035512
-0.00338797
0.156067
0.00577703
-0.000460432
0.34613
0.512859
-0.0187851
0.441441
-0.0166061
0.32671
0.00599642
-0.0186239
0.0027943
-0.000537839
9.2244e-06
0.00274433
-0.0118275
-0.0186409
0.17729
-0.0214199
-0.0189428
-0.00103219
-0.12637
-0.0245114
0.00706755
-6.26073e-06
0.00346803
0.013804
0.367441
-0.00920236
-0.0129069
0.137383
-0.000426625
0.0379622
-0.01694
0.000586628
-0.046773
0.00238206
0.328062
-0.00220099
-0.000608002
-0.000171752
-0.0503831
-0.00146957
0.615133
0.636314
0.0127146
-5.2679e-05
0.00872778
-2.78965e-05
0.0439462
-0.000599379
0.0222983
0.552699
-0.04215
1.00157e-05
-0.00792544
-2.75241e-05
-0.0965085
-0.0307275
0.447466
0.00021762
0.0122332
0.00172924
0.000275897
-0.00232481
-0.000342321
-0.00589356
-0.0359257
-0.0213985
0.00435986
0.151899
-0.012571
0.00635996
-0.0189237
-0.00201006
-0.0254652
5.79128e-06
3.07332e-05
-0.00221357
0.0273651
-0.0334414
-0.0155039
-0.00359851
0.00268536
-0.0343045
0.17992
-0.0118311
-5.69993e-06
-0.0438259
0.409451
-0.0873333
-0.0113246
0.0300128
-2.18146e-05
-0.00070233
-0.0259844
-4.37467e-05
-0.000472038
-2.80994e-05
0.631646
0.00876868
0.0035271
-1.40667e-07
5.64277e-07
-2.35689e-05
-2.63023e-06
-0.0203413
0.362749
-0.0308286
-0.000514783
-0.000182241
-0.00577764
0.447088
-0.0491688
0.399053
-0.00695564
0.133833
-0.000142584
0.441266
-0.00214976
-0.0088008
-0.0116961
0.00538399
0.00664642
0.175606
-0.0351381
0.434488
0.25891
-0.00796874
-0.0269337
-0.0120298
-0.0262772
-1.63617e-05
-0.000920683
0.00259488
0.0654191
-0.00616959
-0.0204615
-0.00320116
0.536061
-0.0683744
-4.64959e-05
-3.91868e-05
0.454312
-0.004593
0.000799516
-0.0119253
-0.00212418
-0.0141229
-0.00901968
-0.0890194
0.0207001
-0.00198944
-0.00926237
-0.0131686
5.09479e-05
-0.00532305
-0.00169505
-0.00723359
-3.76585e-05
3.14978e-05
-0.0224324
-0.0185279
0.429822
-0.0368495
-0.000217159
-0.00145725
-0.000317204
0.344051
-0.0806654
-4.70757e-05
-0.0279143
-0.00414899
-0.00337299
-0.0252675
-0.0279488
0.00601526
0.0478312
-0.0598908
4.13876e-05
0.00537177
-0.0117189
-1.80255e-05
-7.53641e-05
0.106059
0.0760669
-0.0645201
-0.0393418
-0.0485145
0.000452597
0.466133
3.83742e-05
-0.0178924
0.378264
-0.0150139
-0.031941
1.52073e-06
0.000111228
-0.0320117
-0.00827185
0.00121735
-0.0269277
0.217068
0.218784
0.00058798
0.000198319
0.177416
-0.0110551
-1.82796e-05
-0.00136864
-0.0239746
-0.0198156
-0.010559
-0.00280042
0.111693
6.30399e-06
0.0676495
0.253701
1.18021e-05
0.00457055
-0.000424641
-0.0795514
-0.0117842
-0.000620105
0.0240276
0.000145424
0.207047
0.00121313
0.0183235
-0.0119136
0.562796
0.352003
-0.0423587
-0.00612176
1.4393e-06
-0.109192
-0.0109545
0.12905
0.287949
-0.026993
-0.0336708
-0.013036
-0.00504985
0.130446
-0.000184596
0.432664
0.0193628
2.72729e-05
1.29982e-05
6.5252e-05
-0.00991574
-0.0136205
0.000521162
-0.0102082
0.0752911
-0.0391984
0.000267204
3.7747e-05
-0.0180933
-4.46705e-05
-0.00221256
-0.00881113
-0.000647774
-0.0444779
0.00302012
-0.00106761
-0.00287061
-0.0122062
0.352309
0.362052
0.0285672
-2.16047e-05
-0.000442618
0.230719
-0.000372413
-0.117661
-0.000177266
-0.0150215
-0.061568
-0.000186582
-0.000198632
-0.0252503
0.000957034
-7.31511e-05
-0.00101987
0.168103
-0.025322
-4.75181e-05
0.0780193
0.328386
0.339591
0.000429567
-0.102103
-0.00681525
0.40622
-0.0495813
-0.050861
-0.0160902
-0.00930426
0.0207225
-0.0183639
0.340135
0.0473516
-0.000153023
-0.0377236
-0.0470005
-0.00286307
-2.95217e-06
-0.00140371
0.194562
-0.000171219
-0.0127846
-0.00299712
-0.000892811
0.00643935
0.022057
-0.000157003
-0.000112569
-0.00683224
-0.0804808
-0.0259041
-0.0558019
0.226094
-0.00240487
-0.000228614
-0.0275102
-0.0173594
0.00657876
0.00979983
2.31971e-05
0.0573154
0.122266
0.0140676
0.0175858
-0.000489352
-0.0095326
-0.0996281
0.000933297
-7.25345e-05
-0.00698033
-0.00291076
-0.000566777
-0.0083388
-0.000648449
0.17243
-0.00651716
-0.107703
-0.017462
-0.00765917
0.00858506
0.455909
-0.0296085
-0.000114992
0.438946
0.141711
0.00560696
-0.00419744
0.00542648
-0.0642662
0.140763
0.000233149
-0.002846
0.553574
0.272801
0.282763
-0.0315413
-0.00103673
-0.000915144
-4.63216e-05
-0.000973015
0.238372
0.0662477
-0.0147449
-0.00608701
-0.000291716
-0.0812926
0.52835
0.381999
0.0630914
-0.00206166
-0.0416095
-0.00471425
-0.000552827
-0.0186584
0.00589932
-0.0189556
-0.00255352
0.000599506
-0.0687853
-0.0800516
0.0226503
-0.0177565
-0.00543713
-0.0178527
-0.000169388
-0.00502946
-0.000527682
0.309051
1.54389e-05
-1.37969e-08
-0.029148
-0.0137642
-0.0197439
0.0287806
6.6736e-07
-0.0640135
0.0428754
0.174753
0.59747
-0.00334269
-0.108154
0.0214533
-0.00152464
-0.0138027
-0.00045999
0.0073745
-0.000160119
0.206512
-0.131377
0.00761717
0.0780719
0.0985138
0.000994265
0.00145441
8.48042e-07
0.399606
-8.79652e-06
-0.0304249
0.000220675
0.00111177
0.152527
0.0817143
-0.057754
-0.026439
-0.00301124
0.637011
-0.0567282
1.30794e-06
-0.0109563
-5.43188e-05
-0.0154292
0.0835624
0.17841
0.000619505
-0.0240327
-0.00665567
0.130111
-0.0886079
-0.0222244
0.538806
-0.00700267
3.3861e-05
-0.13754
0.562641
0.000702508
0.0761487
-0.0310544
0.106844
0.00133166
0.0163247
-0.0480944
0.00304901
0.0414242
-0.029529
0.12173
-0.0180846
-0.0136472
-0.000599471
-0.00060433
0.484205
-1.88212e-05
-0.00456046
-3.5694e-05
-0.00571407
0.00023294
-0.00522487
0.197243
-8.00619e-06
-0.000754253
-0.0748843
-0.118752
-0.0188102
0.000767985
0.392302
-0.0441082
0.151799
-0.0082938
0.135697
0.00418854
-0.000562037
-0.130654
0.000530816
0.49645
-0.0196926
-0.000108948
0.00159845
0.1243
-0.00788535
-0.000528029
-0.000117325
-0.074386
-0.0018617
-0.00710107
-0.0548479
1.16739e-07
-0.0451554
0.00025653
0.333133
-0.00742526
0.129541
0.00289979
-0.00266871
0.236908
-0.053716
-0.142434
-0.0031717
-0.0785344
0.245503
0.25938
-0.00985365
-2.59094e-05
-0.0108705
0.00327251
-9.1833e-06
0.00587819
0.367275
0.00900309
0.0011174
0.00184691
-0.0459048
-0.00014377
0.0534336
0.0323397
0.0494567
0.00943525
0.0197651
-0.000303471
0.157776
-0.132219
-0.122938
-0.000742971
0.00863544
0.12176
0.00055749
-0.0468611
0.196826
-0.0345894
-0.047925
-0.0470467
-0.0988667
-0.0980574
0.0397103
0.202514
-0.0952355
-1.57005e-05
0.00051642
-0.0751314
-0.00129807
-0.00253454
-1.82084e-05
-0.00406834
0.00282442
-6.89469e-05
0.0444726
-0.000395978
0.103247
-0.0242491
-0.00620026
-0.00488264
-0.00598708
-0.049682
-0.00412344
-0.000806467
0.0154576
0.0603986
0.00283539
-0.022651
-0.00212521
0.0204425
-0.0066503
-0.0134503
-0.0472855
-0.0110827
-4.32764e-05
-0.0106546
0.436143
6.94215e-06
-0.0149824
-0.0536613
0.528048
0.0364336
-0.0311664
-2.66628e-06
0.00118395
-0.0648366
-2.21544e-05
-0.00194813
-5.29448e-06
-0.0559316
0.00319761
-0.0718932
-0.0158961
-0.00011217
0.253345
0.245982
-0.0249163
0.000307982
-0.000148245
-1.55654e-05
-5.85661e-05
0.468377
-0.000970461
0.0016168
0.0159052
0.000664157
-0.000454251
-0.0476824
-0.000218514
0.0306528
-0.000449216
-0.00152357
-0.000560097
-0.0176484
-0.0286089
0.153503
0.042182
-0.000140618
-0.00934271
0.000366373
-0.0857847
-0.000552381
0.102004
-0.00908234
0.630732
-0.0163991
-0.00106596
0.0587216
-0.013345
0.32797
-0.0290221
-0.00790945
-0.00915184
0.0134756
-0.00265419
-7.78937e-06
-0.0059628
0.284377
-0.029472
-0.00234236
-0.0283114
-0.0186199
0.134106
-0.000394747
0.252143
-0.00589
-0.048355
-0.000411914
0.00952712
0.0334524
-0.0107529
0.302913
-0.000368193
0.0248119
0.0709902
0.000312295
-0.000123427
0.515418
0.0366608
-0.00151205
0.0214501
0.00635052
6.97336e-05
-0.0884509
-0.0158063
-0.106239
-0.00789374
0.317894
0.00269535
0.0607189
-0.000315082
0.381812
-0.0463862
-0.00379865
0.00446495
0.0233961
-0.0530464
-0.119937
-0.00610985
1.58357e-05
0.576544
-0.0157481
0.000566607
-0.0572578
-0.0270088
0.312398
0.00213621
-0.011527
-5.66412e-05
0.0156848
0.00574665
-0.02628
0.000560253
-0.0025359
-0.0193888
1.59886e-05
-0.0354965
-0.00116998
-0.010546
-0.0434766
0.272533
-0.00733814
-0.0257101
-0.0471885
-0.0236256
-4.63978e-05
8.26433e-05
-0.00283084
1.69298e-05
-0.00795221
-0.118143
-0.00152888
-1.71294e-05
0.508749
0.00358988
0.000211321
-4.93219e-05
-0.00158622
0.297617
-0.0351277
0.578186
0.169001
0.0159164
0.264328
-2.06667e-05
-0.0109317
-0.000647215
-0.00182986
0.177594
-0.00754717
0.574454
0.235745
-0.0395491
0.251837
0.00575715
-0.0102982
0.00159569
-0.0530833
-0.00290488
-0.0355015
-0.0372943
-0.00223316
0.245877
-0.00719044
8.31491e-05
-0.00316772
-0.000518937
-0.0231434
-0.000146104
-0.000953877
-3.03924e-05
0.141876
-0.122703
0.254445
0.0194871
-0.00204624
-0.0263011
-0.0147645
0.059029
-0.00226136
-0.00081187
-0.0437598
-0.0321245
0.00260059
-0.0291302
-0.00330148
-0.00370549
0.000452719
6.2087e-06
0.116561
-5.02401e-05
0.0448788
-0.000625924
1.07188e-06
0.00142846
-0.000525435
-0.000926134
-0.0117911
0.13576
0.132608
-0.0142386
-0.00919323
0.00208088
-0.00373239
-0.00739294
-0.000153012
-0.000392063
0.000477322
0.0974074
-0.00668985
-0.0408053
-0.0423682
-0.0020434
-0.0212822
-0.0161501
-0.00129111
0.00381105
-0.00897969
0.222141
-0.0525676
0.00339261
0.000161907
-0.0274572
0.566352
-0.0073363
-0.00521137
0.00560387
0.0670425
0.00289201
-0.00933111
0.247194
-0.000299292
0.0328044
-0.0187425
-0.048479
0.0046266
-0.00280663
-0.0040642
0.0313516
-0.00268067
-0.000493261
-0.00463892
0.00175975
-0.000199976
0.0153715
-0.00686257
-0.00153351
-1.98272e-05
0.143697
-5.0879e-05
-0.0253739
0.0644685
-0.0197321
7.11574e-05
0.0965671
-0.0391862
0.157002
-6.51047e-05
-0.00299804
0.010496
0.000108652
0.00356764
-0.00335577
0.00767395
-0.0149678
-0.0226346
-0.00730888
-0.00200495
0.0072323
0.0155797
-0.0917522
-0.000162653
0.101227
-0.0280163
-0.00250727
-0.00509372
0.000273573
-0.0555316
3.9586e-05
0.441367
0.179463
-0.00039113
-0.0156347
-6.02659e-05
-0.00164063
-0.00471592
-0.0174324
0.144803
0.0799652
-0.00951768
0.00743612
-0.0485036
0.0240668
-0.0255682
-0.0328101
-0.0349985
0.00762067
0.181033
-0.00697415
0.369245
-0.000714675
-0.00789851
-0.0384188
-9.28292e-05
-0.000587988
-4.25789e-05
0.366282
-0.00750811
0.000169554
-0.0112771
-0.00508818
-0.000266658
-0.00951039
0.246136
0.000653169
0.00788585
-0.0243763
-0.000420031
-0.00337662
-0.000623959
0.583947
0.00013289
1.13414e-05
-0.00154536
-0.0108673
-0.0322859
0.000366718
-0.000960397
0.061174
-0.000144557
0.00140144
-0.0485266
-0.0720686
-0.0489376
-5.6546e-08
0.000217385
-0.0269788
0.0230635
0.292845
0.0778873
-0.0233697
8.53518e-08
-0.0460822
-0.00192977
-0.00913737
-0.00884893
0.160599
0.421018
-9.98178e-05
0.131977
0.217978
-0.00698068
-0.0336764
-0.0186277
-0.0151852
6.08637e-05
-0.0275919
-0.00639127
-0.000118862
-0.000427556
-0.00118391
-0.00140226
-0.000519613
0.283626
0.294965
0.133308
-5.059e-06
-0.0162562
-0.0469225
0.0889041
0.447815
-0.000381127
-0.0142132
-0.0129461
0.254461
-0.0135265
-0.007119
-0.0308797
0.136308
0.000191069
-0.000400452
-0.0193065
-0.0401768
0.0932261
0.00265763
-0.0337066
-0.0183094
-0.0664978
0.013792
-0.0353497
0.00503179
-0.110968
0.0587975
-0.000279599
-0.000482891
0.04858
0.000127243
-0.00976197
0.023752
-2.21196e-05
0.208616
-0.00784239
-0.00321242
0.603428
-0.0251612
-0.0092246
-0.0268788
-0.0022226
0.416743
0.000799782
0.568983
-0.0001214
-0.0333938
0.578439
0.00494484
0.41378
-0.00412848
-2.40129e-05
-0.0249042
0.417843
-0.00117319
-0.00476778
-0.00582809
-0.000751859
-0.0153485
0.424709
0.079859
-1.02669e-05
0.0137845
-0.00270131
0.0217305
-0.000673001
0.0172246
-0.00189672
-0.000375166
0.401412
0.432359
0.406933
-0.0344909
-0.099913
8.16873e-05
-0.0370546
0.262199
0.0090136
0.000148268
-0.0627406
0.000400054
-9.61438e-05
0.431248
7.13505e-05
0.00298116
-0.00141975
-0.00677232
0.411722
0.423201
0.439837
0.00850555
0.000318989
0.185312
0.00549966
0.0121238
-0.0064694
3.62925e-05
-0.00214852
-2.4209e-05
-0.00328342
-0.000565028
-0.00426867
-7.21715e-05
0.126149
0.00150808
-0.0592362
-0.00670852
-0.045733
-0.0113837
-0.000586294
0.318166
-0.00759784
-3.05071e-05
-3.71423e-05
0.558514
1.21264e-05
0.00822377
0.0369077
-0.0124799
0.268418
-0.00376647
-0.0286374
-0.0249948
-0.000430108
7.21219e-05
0.236372
0.435603
-0.00113131
-0.017263
-0.000191648
0.427229
0.53524
-0.0010589
-0.00480682
0.0141453
0.00209851
-0.0169386
2.56765e-05
0.00733389
-0.0257977
0.0370422
0.31607
-0.00111124
0.0211636
0.0287408
-0.0325054
-0.0293452
0.0205217
0.517836
0.144807
-0.0341224
0.432039
-0.000450848
0.447166
-0.00583301
0.356082
0.049606
-0.00363652
0.0190702
0.00171761
0.0128664
-0.0459788
-0.000505739
-0.0160323
0.349316
-0.0186005
0.0103702
-0.00109015
-0.0860229
0.136658
-0.00655651
-0.185833
0.000482877
-0.00265284
-0.0164099
-0.00155832
0.00136507
-0.00620523
-0.000383725
0.00172783
0.352229
0.00144741
-0.0109354
-0.0400691
-0.0200127
-0.040246
-0.0659167
0.00297268
-4.43173e-06
-2.87906e-05
0.223044
-0.0473961
2.97229e-05
-0.0824413
0.149546
-0.0407617
-0.0103943
6.66387e-05
-0.00137773
-0.0301904
0.0983582
-0.00690832
-0.000367572
-0.0301064
-0.0140004
0.581971
0.0886795
0.0475466
-0.0379061
-2.61512e-06
-0.0047094
0.0489054
-0.000292233
7.30592e-06
0.135379
0.0726245
0.00041862
-0.000640086
0.00303088
-0.0320945
0.00718499
0.00515202
-0.0103672
2.55482e-05
0.21724
0.000391219
-0.000500164
-0.000189001
-0.000177493
-0.00013202
0.0626418
0.000609843
-0.00198655
-0.00660479
-0.00364319
0.0202967
-0.00378411
-0.0273834
-0.00716816
0.385105
0.308261
-0.000371883
-0.00106747
0.069995
-0.000601104
-0.0163375
0.0118504
-0.0432395
-0.000705705
0.0148578
0.0292984
0.000860627
0.0364521
-9.31077e-05
0.00526694
-0.033789
0.00963559
-0.0100924
0.0363248
3.64201e-05
-0.000825252
0.000165105
-5.24243e-05
-0.00121662
-0.00662928
-0.00868876
-0.0196865
0.00690208
0.0240521
0.00650994
-0.0491941
0.00622129
0.00218789
0.00908477
2.87045e-05
0.426015
-0.00567457
-0.00226959
-0.0565617
0.589924
1.94877e-06
-0.0145735
-1.67427e-05
-0.0630856
-0.00439209
-0.0150362
0.134686
-0.00273784
-5.31673e-05
0.0661715
0.0542476
-0.000407311
0.0373878
-1.67504e-05
0.131012
0.00329172
-0.0190499
-0.000121212
0.186648
0.0202521
-0.0134458
9.92642e-06
0.135153
0.269971
-0.00079192
-4.47166e-05
-0.0241004
-0.00602917
-0.0036703
0.0100743
0.449316
0.236887
0.000305293
0.283499
0.191395
-0.00194231
-0.0344022
-0.0291882
-0.0119939
-0.0434296
7.45095e-05
0.000531621
0.468763
0.105937
0.00844117
4.39882e-05
0.000407068
3.06596e-06
-0.000406904
-0.00190032
0.505272
-1.06575e-05
0.0590661
0.0190494
-0.000176314
0.461678
0.535412
0.156817
0.190296
-0.118047
0.00165012
-0.000216453
-0.00731972
-1.74493e-05
-0.000764741
-0.113332
-4.26836e-05
-0.00154121
0.476323
-0.00766258
-2.22803e-05
0.501351
0.000286661
-0.0222603
-0.0453325
-0.000907831
-0.0646201
-0.000179408
0.054545
0.00221897
-0.0125478
0.00128276
-0.000469216
-0.000286224
-0.00017125
-0.10897
-0.0388832
0.122585
0.00178302
-0.00952722
0.180298
3.52509e-05
0.562219
-0.000414763
-0.0502983
0.00148392
0.00107652
0.0364851
0.0379988
-1.46425e-05
-0.00281112
5.43728e-05
-0.000473823
0.000541609
0.0612652
0.0348351
0.275916
-0.0389598
-8.42104e-05
9.55376e-05
0.0739055
0.290789
-0.00294294
-0.0041468
0.563866
-0.00186057
-0.013245
0.000454644
0.0169372
-0.0405046
-0.00560183
0.125808
0.00086543
-0.000187716
0.00108792
-0.0820191
0.549495
0.425554
-0.0154179
-0.0305074
-0.0043326
0.00102372
3.90581e-06
0.0548236
0.145649
-1.11546e-05
-0.00478537
-2.10282e-05
6.93103e-05
0.395848
-5.57998e-07
-0.0577056
-0.045498
-0.0807405
0.0495864
-8.51959e-06
0.00656334
-0.0041957
0.360102
-0.0310254
0.0033097
-0.0196484
0.000396451
0.296474
0.171876
0.00667897
0.0257187
0.482109
-0.0418377
-0.0401
-0.00128561
-0.00458992
-0.000277845
0.00775086
-6.64052e-05
0.131838
0.00189959
0.130446
-0.0233468
-2.48443e-06
0.0341022
-0.000132105
-1.68654e-05
-0.000527477
0.548366
0.524679
0.238708
2.54973e-05
0.0874789
0.444945
-0.000666635
0.000248371
-0.00549793
0.0170767
0.419699
-0.0176324
0.0919974
-0.00179269
-0.0396041
-0.0443642
0.612476
-0.000418182
0.423029
0.0640449
0.154132
4.9415e-05
0.000121823
0.0034835
-0.00585677
0.057876
-5.28517e-05
3.01966e-05
0.41474
-0.0910817
0.000172584
0.437331
-0.00155105
8.18945e-05
0.334728
-0.0052855
-0.00107354
-0.107531
0.0591278
0.000191454
-0.000106953
0.00216457
-0.00265621
0.410531
0.544575
0.215243
0.597603
-0.0142974
-0.0286189
0.487978
-7.08889e-05
-0.00217654
0.0102552
-0.00231491
-0.000452225
-8.30704e-05
0.434835
-0.00519995
-0.000449172
0.529278
0.0543251
0.130068
0.029502
-0.00179715
-0.0134409
0.0895083
0.0462464
0.431219
-0.0171565
-0.000537852
0.393518
0.347127
0.00810639
0.286923
-0.0266669
-0.00504708
-0.00635499
-0.000442443
-0.000111196
0.39927
-0.0401322
-0.0481838
0.000376875
0.117282
-0.0196796
-0.0168445
-0.000716704
-0.00290214
0.453145
-0.000548935
-0.0113332
-0.00197984
0.44289
-0.0128596
0.0132821
-0.00486081
0.000894209
0.116378
-0.0139277
0.466516
-0.0411172
0.594688
0.20801
-0.0362343
0.0210771
-0.00119579
-0.0110425
-0.116668
0.417717
0.449519
0.511201
0.243647
0.404389
-0.000270199
0.479874
-3.47238e-05
3.12243e-05
-0.029835
0.52204
0.0347962
0.179857
-2.27945e-05
-0.00143244
-0.121462
-0.025324
0.409964
-0.000468843
-0.00496293
0.237864
0.000657851
-0.00279557
0.574415
0.0319686
-0.034406
-0.179567
-0.000377915
-0.0272264
-0.0671989
0.602646
-0.0496815
-0.0322305
0.00253904
-0.000175307
-0.0133779
0.14716
0.00235639
6.9591e-05
-0.106847
0.196689
-0.000992089
0.421507
-0.0524794
0.427719
-0.0332063
-0.0148154
0.485144
-0.00347374
-0.0577116
-0.000287488
-0.000888421
-0.0378065
-0.0142184
-0.0223511
-0.00632133
-0.0142292
-0.108526
-0.0423926
0.423213
0.000146392
0.000467578
-0.0133995
0.0790294
-0.107085
-0.0359806
-1.1582e-05
-0.113785
0.0302865
-8.75707e-05
-0.0632907
-0.180628
0.43278
-0.0861851
0.417819
-0.00878697
0.0476511
0.20136
-0.0214502
0.215079
-0.00122783
0.0293916
-0.000154263
0.0593783
0.14305
0.131642
-0.0180454
0.00384587
-0.000480808
0.135659
-6.9659e-05
-0.000103621
-0.000695161
-0.0235479
0.00765303
0.00938661
0.348181
0.0956249
0.555773
0.317407
-0.00101611
-0.0198172
-0.000130663
-0.0303186
-0.000914608
0.00365965
0.000389198
-0.0234951
0.270871
0.4221
-0.00020895
7.93552e-06
-0.0396391
-2.34887e-05
-0.00582492
-0.000139422
0.0771911
-0.0217868
0.143415
-0.0681306
8.78965e-06
-0.00867658
-0.0243856
-0.017961
-0.0102958
-0.0312702
0.00700872
-0.000124995
-3.68487e-05
0.00129566
-0.000109558
0.037064
-0.0406426
0.0239712
0.511669
0.0280211
-0.106268
-0.0497989
-0.000305796
0.0337337
-0.000100059
0.391038
0.0681027
0.470814
7.09454e-05
-0.0202142
-0.00430224
0.0296246
0.0457374
0.346729
-0.00481697
0.0119789
-0.00122797
-0.0131563
-0.00504662
-0.00385069
0.0740029
0.000978363
-0.0065689
-0.012685
0.122902
0.0290533
-8.94585e-07
-0.000589832
-0.0039174
-0.000410843
0.0615635
-0.000450087
-0.0270573
0.0860932
3.66675e-05
0.186395
4.24601e-05
-3.48894e-06
-0.0617363
-0.0164603
8.76681e-05
-0.013975
8.04237e-05
0.493552
0.00781361
-0.0147409
0.458756
0.0894866
-0.0190451
0.341811
-0.00176454
-0.00121567
-0.00133918
0.0484302
0.633723
-0.000973729
-0.00041709
-1.54503e-05
0.00490477
-0.000819866
0.0163557
0.00384661
-0.0128463
-0.0354296
0.0114917
0.00627114
-0.0117616
-0.000367093
-0.0580036
0.323916
-0.00117698
-0.00852893
-0.000168755
0.351519
0.0314696
0.320799
0.000253838
-0.000564024
-0.0149964
0.514334
0.102105
-0.017356
-0.000103105
0.0195168
0.0195976
-0.0319713
0.137422
-0.0282246
0.0107857
-0.110309
0.348024
-0.0114575
0.186054
-0.00202177
0.597405
-0.0246939
-0.00683712
0.463397
-0.0257391
0.11765
-0.117919
0.135164
0.00402693
0.0312091
0.255781
0.0319801
-0.0284034
-0.00601999
-0.0048905
-0.0144734
-0.0329494
-0.00106835
-0.0351973
-0.0170518
0.0011724
-0.0387456
-0.0482612
-3.93099e-05
-0.00592586
-0.0056878
-0.0290831
0.463915
0.291009
-0.031473
-0.0422828
0.000261698
-0.0647181
-0.00312675
0.57856
-0.0213069
-0.0182647
0.287816
0.0309551
-0.0251695
0.120933
-0.022171
-0.000443531
-0.00726115
0.00621797
0.000364244
0.306336
-0.00172665
0.100483
0.227575
-0.00355709
0.183233
-0.0806303
-0.000259607
0.00411396
0.0172666
0.255819
-0.00161168
0.0393414
-0.0430929