/*--------------------------------*- C++ -*----------------------------------*\
  =========                 |
  \\      /  F ield         | OpenFOAM: The Open Source CFD Toolbox
   \\    /   O peration     | Website:  https://openfoam.org
    \\  /    A nd           | Version:  7
     \\/     M anipulation  |
\*---------------------------------------------------------------------------*/
FoamFile
{
    version     2.0;
    format      ascii;
    class       volScalarField;
    location    "34.5";
    object      p;
}
// * * * * * * * * * * * * * * * * * * * * * * * * * * * * * * * * * * * * * //

dimensions      [0 2 -2 0 0 0 0];

internalField   nonuniform List<scalar> 
20933
(
0.00125745
0.000420495
0.00182901
-6.67222e-05
-0.00276109
-0.00301163
-0.0888049
0.321923
-0.0378242
0.312302
-0.0854433
0.173767
-0.0234505
0.00112311
-0.000546613
-6.91279e-05
-0.0694589
0.18034
-0.052516
0.000925716
-0.0352877
0.185085
0.313274
-0.10872
0.000183384
0.55196
-0.00144325
-0.0218356
-0.143213
-0.0547988
-0.000170243
0.636276
0.290968
-0.0107654
-0.000513375
-0.000304681
0.36085
9.17497e-05
-0.00442829
0.148102
0.00482308
0.374795
0.445057
-0.00142306
0.552398
0.00211002
0.276081
0.0482146
0.000118005
-0.0192046
-0.00053075
0.0250438
-0.092884
-0.00114964
-0.1149
-0.00877187
-0.0131186
-0.000436392
-0.0169393
-0.0600435
0.583081
-0.000626408
-0.000478914
0.286857
0.000312696
-0.00235548
0.536925
-0.00241776
-0.0150083
0.548338
-0.00818662
-0.0909921
-0.000479999
-0.0152351
0.539179
-0.0260529
0.539402
-0.00778235
0.146385
0.502015
-0.00202056
-0.00150822
-0.142055
-0.0355452
0.000336343
0.449284
-0.0192923
0.696009
0.286096
0.578546
0.252755
-0.0001305
-9.51227e-05
0.669862
0.0306972
-7.58629e-05
0.675803
-0.00108152
-0.0743614
0.353211
0.584403
-0.00457844
0.593723
-0.0601533
0.0639999
-0.0215696
0.505271
-0.034646
0.00314085
0.47815
-0.15149
-0.0889829
-0.00961351
-0.00200866
-0.0200472
-1.85385e-05
0.434783
-0.0020046
-0.0800881
0.494496
-0.000127344
-0.0405888
0.167954
-0.0214984
-0.0108081
0.181487
0.250217
-0.0210581
0.64442
0.445855
-0.0272258
-0.0175697
0.00502971
-0.0034633
0.509352
0.0549328
0.0936692
-0.0387902
-0.00361353
-0.046138
-0.0432513
-0.0167477
-0.112232
0.603154
0.0345294
0.515963
0.305789
-0.00386516
0.228635
-0.00167531
-0.00288505
0.540937
-8.6697e-05
-0.0301721
-0.00144937
0.311558
0.458099
-0.112568
-0.00888914
-0.0248576
-0.120683
-0.0814941
-0.000263966
0.0465572
0.113896
0.689684
-0.00376281
-0.1299
-0.0259061
0.353397
0.0798535
0.555355
0.460727
-0.00963261
0.715375
0.279458
0.000766294
0.569318
-0.0170061
0.498382
0.524186
8.78903e-05
0.5995
0.457187
0.000935684
-0.0102485
-0.00707621
0.336232
-0.065137
0.648558
0.248492
-0.0304485
0.361934
-0.0085407
-0.0102967
0.155725
0.595981
0.0123413
0.000319611
0.655634
0.0871019
-0.0959146
-0.0824439
0.636678
0.61095
-0.0120626
-0.0136209
0.0264577
-0.00903369
0.000707074
0.532051
0.566487
-0.00577279
-0.017465
0.489071
0.538835
0.00195344
0.494585
-0.0268003
-0.00252264
-0.0214222
0.471676
0.622152
0.255371
0.474761
-0.00455269
-0.0127331
-2.05271e-05
0.00158819
-0.00208899
0.164321
-0.0555354
0.497331
-0.0439876
0.46212
-0.0183399
-0.0158437
0.551768
0.681966
0.464117
0.534494
-0.0163756
0.371452
-0.0203257
0.0724362
-0.00159994
-0.135644
0.00418144
0.0254434
0.000110634
0.00312533
0.627343
0.164846
-0.0053439
-0.0247725
-0.0541773
-0.110322
0.381452
-0.0431456
0.00309583
-0.025801
-0.00927376
0.000375469
-0.017482
-0.0772845
0.600823
-0.00174693
-0.00877002
0.467263
0.607908
-0.0189171
-0.000352119
-0.0313799
0.537173
-0.154816
0.579442
-2.71757e-05
-0.0196573
0.475444
0.525637
-0.025294
-0.0117398
0.647968
-0.0711146
-0.0331418
0.590326
0.644445
-0.021111
0.485218
0.0948727
0.49706
0.41114
-0.00034961
-0.0120934
0.364771
0.000807832
-0.0555009
0.0360086
-0.160201
0.0815693
0.0287335
-6.41983e-05
-0.000740171
0.57835
-0.00361008
-0.0700012
-0.0292152
0.192152
-0.00137464
0.495979
0.0792523
-0.0275223
-0.00930152
0.335653
0.171677
-5.94506e-05
0.573851
0.450537
0.564091
-0.102272
0.000327515
0.642037
-0.000921071
-0.0176641
0.158219
0.0211639
-0.019093
-0.0835104
0.461092
0.669203
0.525017
0.122398
0.72372
-4.39616e-05
-0.00929139
0.525886
-0.125091
0.360528
-0.0140491
0.546539
0.0732417
-0.000834985
0.0710609
0.431539
-0.116347
0.591296
0.434032
0.000175122
0.000379467
0.293745
0.193235
0.00255114
0.454545
-0.0148786
0.712797
-0.0422337
-0.00479522
0.00229672
0.520947
0.448468
-0.00244074
0.335117
0.576783
-0.00376963
0.404637
0.446559
0.716071
-0.000626084
0.215733
0.00193254
-0.0119329
0.000163857
0.544699
0.380213
-0.00340976
0.558688
0.137195
-0.0124281
0.365595
0.116908
0.171427
0.714336
-0.0346707
0.131403
0.563787
-0.0248777
0.0738919
-0.0754043
0.282751
0.00353003
0.261041
-0.00196582
0.125214
-0.00146017
0.281562
0.559168
0.415895
-0.144619
-0.00864898
0.629727
0.631329
-0.00158931
-0.0183055
0.497247
-0.0656784
-0.0224933
0.382784
0.00175429
0.742635
-0.0202829
0.236753
-0.0021987
0.563284
0.4292
0.0297169
-0.0310263
-0.0321854
0.087761
-0.00117864
0.495834
-0.0905579
0.296365
0.704865
-0.104001
-0.0189789
-0.00219074
0.0571925
-0.00076471
-0.00898952
0.401214
-0.00040657
-0.0168318
-0.0024755
-0.058177
-0.0164825
0.000100293
-0.0256974
0.143797
-0.128783
-0.0211618
-0.0129807
0.0470064
0.0394962
-0.0214538
-0.00410228
-0.00151185
-0.0145454
-0.0725338
-0.00156532
-0.0218111
0.176968
0.407902
0.0553438
0.000210287
0.662044
-0.00145023
-0.000404509
0.00410178
-0.0173032
-0.0295085
0.606003
-0.0157876
0.101294
-0.0612885
-0.0666214
0.371936
-0.0179594
-0.0294617
-0.0519424
0.000134513
-0.0540937
0.672
-0.105786
-0.0239646
0.399738
-0.0221323
0.40808
0.233924
-0.000987387
0.000694931
0.453299
0.696439
-0.108129
0.292456
0.131996
-0.0182754
-0.0193021
0.49597
0.0518285
-0.138511
-0.0727733
0.00177529
0.0148111
0.627462
0.141162
-8.19424e-05
0.596303
-0.0184249
-0.0336651
0.466673
-0.00354886
-0.00206556
0.000117751
-0.0149656
-0.00890084
-3.1511e-05
0.286072
-0.152373
0.499653
0.000373049
-0.00117193
-0.0225402
-7.60369e-06
-0.11112
-0.134995
-0.0011346
-0.0280961
-0.0121411
0.457717
0.565022
-0.000689981
-0.000929068
-0.0422471
0.571653
-0.00969404
0.572044
-0.00337188
0.705198
0.418419
0.243021
0.681705
-0.0804704
0.000186367
0.00256681
-0.00901056
0.559466
0.492525
-0.00364661
-0.125224
0.0612345
-0.0275395
0.00143121
-0.139064
-4.07371e-05
0.465094
-0.00786157
-0.026009
-0.00953158
-0.0218942
0.240168
0.0653081
0.00147986
-0.0136827
-4.49239e-06
0.704543
0.621262
0.000796532
-0.00534072
-0.0044859
0.490521
-0.0137104
0.134015
-0.0213839
0.5317
0.240889
-0.00996389
0.735319
0.010902
0.517212
-0.00380882
-0.0768137
0.58911
-0.0119174
0.705849
0.475999
0.716282
5.45981e-05
0.00129164
-0.0380488
0.0128146
-0.00295283
-0.0330767
0.518947
0.539876
0.413189
0.566022
0.700056
0.298108
0.559906
0.416153
-0.00467449
0.459864
-0.0275497
-0.0215199
-3.37727e-06
-0.0280669
-0.0925972
0.335926
0.0359221
0.501329
-0.0186777
0.0845233
0.482844
-0.00866665
-0.0296801
-1.63878e-05
-0.000237427
0.334919
-0.0291702
-0.0194296
-0.000277266
-0.000687593
0.052625
0.000229855
0.0288548
0.706572
0.305642
0.294868
-0.0034799
0.491557
0.0681444
-0.00905431
-0.00558564
-0.000367618
0.000145146
-0.00161803
-0.00952816
-0.0783858
0.341056
-0.0100663
-0.00169545
2.8e-06
0.523793
-0.0390516
-0.10418
-0.0120316
0.106603
-0.0327177
0.000542415
0.483092
0.648375
0.433753
0.0022576
0.440782
-0.00217271
-0.0181032
0.327645
-8.74401e-05
-0.0101332
0.223336
0.292338
-0.00973639
0.483584
0.616094
0.471141
-0.0176955
-0.00744914
-0.0148589
0.121459
0.447405
0.000567854
0.587439
-0.0184036
-0.0783308
0.0116544
0.670275
0.344253
0.49804
-0.138789
0.687247
-0.00863322
-0.0177503
0.722274
0.0216706
-0.0657651
0.509655
0.531545
-0.0161841
0.441217
0.571793
0.526851
0.481561
0.518344
0.421268
-0.000979654
-0.00902219
-0.00206196
-0.0677018
0.558506
-0.0627588
0.180937
0.189512
-0.0212617
0.0378175
0.21651
0.568295
0.0425823
-0.000845831
0.0181005
-0.0213036
-0.0735252
-0.0907241
-0.0703796
0.476008
0.590476
0.0304798
0.564261
0.700601
0.00176222
-0.00102633
-0.00124005
-0.00268561
0.376187
0.70712
0.147235
0.492036
-0.00872789
0.42141
0.433728
-0.12113
-0.00758143
-0.0158814
0.176857
-0.013682
0.000827464
-0.0175752
-0.0190343
0.501226
0.00029087
-0.0195497
0.532469
0.0324528
0.645696
-0.0394526
0.408935
-0.0879687
-0.0300443
0.584835
0.644165
0.558209
-0.0113265
0.649501
-0.0160239
0.583368
0.00123771
0.555717
-0.0197103
-5.53968e-05
0.55743
0.588812
0.584327
0.557546
0.334932
0.0802655
0.389841
-0.0644676
0.557051
0.479364
-0.0351205
0.0383476
-0.0013377
-0.076535
0.488196
-0.0152654
-0.00236737
0.568664
0.565148
-0.0254277
0.549634
-0.0810927
0.0912894
0.00313907
0.575807
0.585939
0.700411
0.577948
0.000924155
-0.00970887
3.91447e-05
-0.032152
0.640835
0.273439
0.478063
-0.0175042
0.418486
-0.00313791
0.643491
-0.0400758
0.56705
0.00267445
0.625783
0.657383
-0.00983958
0.125603
0.621066
0.00117905
0.667525
-0.0226357
0.00145875
-0.00744769
0.522775
0.215001
-0.0483297
0.557236
0.672209
0.430313
0.011894
-0.0268234
-0.00556476
0.564061
0.652929
0.727616
0.264365
-0.00254183
0.00279399
0.486171
-0.00223682
-0.000580806
-0.00286006
-0.0103729
-0.079532
-0.115891
0.599983
-0.0141652
1.68052e-05
0.467031
0.253069
-0.0035471
0.147321
-0.000865755
0.213064
0.475508
0.554063
-0.103007
0.151387
-0.00384909
-0.0401203
0.000424984
0.56841
0.604723
-0.140994
-0.131578
-0.115973
-0.0348115
0.560336
-0.0270597
-0.0778265
-0.0909733
-0.0274532
0.682564
-0.109943
0.0130438
0.570842
0.00129033
0.0866115
-0.0221578
-0.0840557
0.000772592
-0.000809083
0.679636
0.399781
-0.142769
-0.036397
0.41683
0.542111
0.476243
-0.081187
-0.0193853
-0.0176223
-0.0194741
0.452942
-0.00232571
-0.0273869
0.00013084
-0.00871498
0.000539159
-0.0923999
0.526051
-0.0712635
0.570901
0.558153
-0.0203649
-0.0107891
0.695429
0.427607
0.0174087
-0.0121798
0.418196
-0.0243519
0.36985
0.680214
0.365653
-0.00287742
-0.0138899
0.511424
-0.0235021
-0.0615072
-0.0287787
0.614293
-0.0164054
-0.0487813
0.407651
0.308459
0.464738
-0.0204933
0.345699
-0.0306567
0.569645
-0.0954421
0.202894
-0.0318166
-0.0325581
5.05814e-05
0.000573543
-0.000557404
0.616845
-0.0406045
0.404219
0.0795939
-0.0507318
-0.0720662
0.28468
0.701057
0.633849
-0.0602912
0.259385
-0.0177295
0.0501031
-0.00156742
0.186691
-0.0176304
-0.00189654
0.44727
-0.0304138
-0.00174188
0.607579
0.501634
0.584613
0.0134749
-0.0780456
-0.00851448
0.274976
-0.0162953
-0.000116289
0.616971
0.114847
0.243754
-0.0339552
0.000127502
-0.00805518
-0.00090369
0.227069
-0.000460769
-0.0158748
-0.0105732
-0.0221673
0.635667
1.44815e-05
-0.0311482
-0.00923404
0.656971
-2.89666e-07
-8.05743e-06
-0.0980526
0.169102
0.464444
-0.00965982
-0.00915664
-0.0203633
0.477046
-0.0133494
0.256913
-0.112998
-0.110199
0.116863
0.453426
0.095741
0.254446
0.000972303
0.499744
0.662768
-0.00439196
0.390137
-0.0390917
0.676282
0.650209
-0.0767276
0.0570871
0.0249088
0.396744
-0.000249501
0.555827
0.713873
0.000248256
0.178395
0.314884
-0.00102584
-0.000463819
-0.00548093
0.701978
-0.0104427
-0.0337905
0.564489
-0.00365182
0.387886
0.579015
-0.0147857
0.625555
-0.0187719
-0.011504
0.582501
0.268355
0.464049
0.00109529
0.585381
0.223299
0.553287
-0.0560945
-0.00782341
0.184553
0.617969
0.581969
0.630139
0.56345
-0.0806096
-0.00980163
-0.00394431
0.420739
0.554248
0.659515
-0.0178028
0.325443
0.670408
0.526337
-0.00101982
-0.0148499
-0.00478027
0.167691
-0.0474249
0.600754
0.281338
0.551626
0.123018
-0.031993
0.5553
-0.0460205
0.432487
-0.083132
0.0417201
-0.011892
-0.076157
-0.053002
0.653962
-0.0485175
-0.0177315
-0.0548843
0.229242
0.0666474
-0.0159418
0.0379824
-0.0155521
-0.0609121
0.448443
0.240868
0.490454
-0.123053
0.574258
-0.0670094
-0.000686906
-0.00911099
-0.0155724
-0.1057
-0.120749
-0.00426386
0.323702
0.634689
0.198743
0.055252
-0.0307787
-0.0567235
0.38461
-0.0232106
0.674745
0.332714
-0.00307988
-0.0116273
-0.00183046
-0.0686385
-0.01579
-0.0240875
-0.0195179
-0.0872808
0.314245
0.644517
0.595447
0.275362
0.00153274
-0.0174889
0.000783535
-0.00773434
0.457472
0.00314118
0.43765
-0.0610039
-0.0100085
0.640486
0.653969
-0.000855029
0.562016
0.593107
0.154921
-0.0141059
0.214998
0.455057
0.651765
0.37632
-0.0665268
0.637422
0.0973801
-0.0331871
-0.0367134
-0.0761901
0.666804
-0.0199597
0.572291
0.343634
0.63298
-0.0395517
0.396784
0.411732
-0.0782662
0.583131
-0.0171137
0.615442
-0.000410065
0.368868
0.43595
0.433631
-0.00220552
-0.0184661
-0.00128711
-0.0201169
0.34645
-0.0153293
0.401429
0.377705
0.705743
-0.0158041
0.619712
-0.0142856
-0.0135641
0.0287505
0.56114
0.104994
-0.0456215
0.0532822
0.487096
-0.00496083
0.691629
-0.0032382
-0.0623565
0.0770944
-0.00607339
0.565205
-0.0386074
0.597806
0.478434
0.161393
0.0256182
0.189835
-0.000823443
0.0148157
0.610448
-0.0305002
-0.0455716
0.354594
0.0601594
-0.00331188
0.0265559
-0.0042416
0.634734
-0.0153947
0.0239906
-0.0669982
-0.0169174
0.551599
0.70886
-0.0116224
-0.0607005
-0.00205273
0.0949979
-0.000856565
0.145432
0.654908
0.62833
-0.018148
0.205136
-0.000264727
-0.019355
0.507612
-0.0123806
0.272763
-0.00884714
0.69488
0.489145
-0.072519
-0.0150326
-0.0267595
0.692643
-0.0172729
-0.000598741
0.000878528
0.15639
-0.0682983
-0.00525774
0.124816
0.635019
-0.084693
0.670489
0.728535
-0.0156919
-0.0459189
-0.000604143
0.00102467
-0.0476153
-0.0282613
0.685876
-0.00865315
0.00175607
0.437307
-0.0504865
0.481848
0.00192278
-0.0358238
0.477801
0.445214
-0.0692708
-0.0188813
-0.0555757
0.530191
-0.0162071
0.29774
-0.0191449
-0.00799435
-0.0185308
-0.00827407
-0.00271663
-0.0895164
-0.0862283
-0.100023
-0.000987261
0.13062
-0.000186122
-0.0166537
-0.0592842
-0.0103194
-0.0268219
0.637411
0.0327607
-0.0213901
-0.0152884
0.517634
0.000623893
0.452766
-0.0651743
0.0186578
0.00290343
0.476816
0.30434
-0.020373
-0.0293827
-0.0301998
0.382623
-0.000318825
0.441727
0.524529
-0.0096466
-0.045425
0.147594
0.146233
-0.0591715
0.164722
0.496579
-0.00776977
0.421886
-0.0215815
0.00173761
0.404353
0.656915
0.007286
-0.00481128
0.551257
0.415558
-0.00990557
-0.0330998
-0.103654
0.00883412
-0.00764082
-0.000533363
0.512453
-0.119771
-0.0510249
0.513941
-0.0635774
-0.0194924
0.2994
0.000489782
0.196095
0.437517
-0.0197602
0.439377
-0.00876086
0.626134
-0.0675197
-0.000310518
0.000107275
-0.00762467
-0.000606601
-0.00927579
0.198375
-0.0446648
-0.00406108
-0.0257885
-0.0109174
0.261355
0.565647
0.000402381
-0.00708745
-0.0142034
0.409402
-0.0540371
-0.0116171
-0.00750376
0.0777736
0.30445
-0.0109098
-0.00208342
-0.0722965
0.475804
0.513707
0.15071
0.448167
0.590565
-0.00999398
0.413801
0.147113
0.00510976
-0.00837627
-0.00955037
0.715874
-0.0122424
-0.0752976
-0.0158361
0.473647
-0.00247352
-0.00173112
-0.0174256
-0.0199232
0.000292967
0.567032
0.334134
0.421512
0.521477
0.451235
0.00062341
0.18486
0.360214
0.00496575
0.55477
0.246486
0.349733
1.40416e-05
0.367477
-0.0365677
0.231429
0.361869
-0.0828548
0.10278
0.0787204
-0.013938
-0.000837808
0.0113458
0.215227
0.643956
0.236275
-7.97289e-05
0.322249
-0.00741444
0.363732
0.269588
-0.00194824
-0.0147586
0.404995
0.566427
0.128406
-0.0140492
-0.00738409
0.246579
0.422574
-0.0132203
0.505243
-0.0101735
0.190997
-0.0164243
0.602442
-0.000332237
-0.000992358
-0.00151238
-0.00681646
-0.0891919
0.00038804
0.426554
0.516337
-0.00137415
0.306933
-0.00169683
-0.00142017
2.30052e-05
0.258998
-0.00859972
0.312772
4.01874e-05
0.432765
-0.0079238
0.494782
-0.113587
0.532849
-0.015923
-0.00279092
0.000607022
0.57235
-0.0200059
0.0572801
0.16759
-0.000652028
0.488802
-0.00223215
-0.010984
-0.00663957
6.85268e-05
0.570412
-0.00155981
-0.00820635
-0.00767962
-2.61729e-05
-0.00124776
0.501262
-0.000612071
-0.0142074
-0.00304246
-0.00103072
0.463359
-0.127478
0.0449
-0.0402137
-0.00102115
-0.0101934
-0.0629986
-0.00537161
-0.00118634
-0.00192993
0.283106
-0.00033298
-0.00336614
-0.0655182
0.176073
0.553812
0.00144054
-0.00149396
-0.00730093
-0.0254391
0.449802
0.507437
0.573417
5.0024e-05
0.226758
-0.0145199
-0.011828
0.334094
-0.015524
-0.00143223
-0.000415884
-0.00568521
-0.00745813
-0.00741691
-0.00194975
-0.00232497
0.00412267
0.428219
-0.000359381
0.319695
0.0831514
0.047561
0.256831
0.162439
0.37254
0.0172268
0.419621
-0.000856219
-0.0116255
0.391105
-0.0261596
0.456067
0.434726
-0.012891
-0.01192
-0.00033977
-0.00495791
-0.0206972
-0.00139386
-0.000814645
-0.00400391
-0.000588123
-0.00576729
-0.0155484
-0.00120679
-0.0010605
-0.0178958
0.373395
-0.00499821
0.000847957
-0.00972418
-0.00409784
-0.00655802
0.505411
0.487279
0.24997
0.610213
-0.0089542
-0.0501611
-0.00592952
-0.0027701
-0.00270111
2.09162e-05
3.09922e-05
0.237899
0.122387
4.56605e-05
-0.0903456
0.12469
0.24874
-0.0354154
0.00102045
-0.0096432
-0.0022036
-0.00105752
-0.0017741
-0.00674901
-0.0307599
0.622677
-0.00308927
-0.0300962
-0.00705741
-0.0161939
0.000817081
0.00289444
-0.000840192
-0.000516113
-0.0128131
-0.00560272
-0.0331288
0.0785496
-0.00327817
0.3045
-0.00369145
0.000613445
-0.050757
0.453704
0.474436
0.358367
0.00672216
-0.0962845
-0.0312006
-0.106718
-0.0212057
-0.107043
-0.0129743
-0.101743
0.00188751
-0.00780206
1.77575e-07
0.0678191
0.00152603
0.000607824
-0.0135799
0.648065
-0.0116233
-0.0977583
0.612892
0.629309
-2.07611e-05
0.617555
0.585774
0.460957
-0.00324917
-0.13594
0.630672
0.000642017
-0.000134713
-0.00889368
-0.00612556
-0.00116854
-0.0237219
-0.00636373
-0.00450609
-0.00118979
-0.0178883
0.000416835
-0.0348674
-0.00189497
0.693581
0.000176327
0.000531864
0.690815
-0.000263575
0.658793
0.624066
0.425897
-0.000260693
0.693801
0.075942
0.537377
-0.00514698
-0.000459464
-0.00783366
-0.0180924
0.0394262
0.56194
0.000526985
-0.000596007
-0.0057926
4.16512e-05
-0.138603
0.243992
7.76102e-05
0.450469
-0.0370196
-0.00173127
-0.0164339
-2.19472e-05
0.160559
-0.000756264
0.630007
-0.00101956
0.586725
-0.00112204
-0.00930457
0.00010608
-0.00357787
-0.00776367
-0.00475865
0.525087
0.559063
5.02202e-05
0.631188
-0.0168794
-0.00187026
-0.0206861
0.593713
-0.130632
0.000490432
-0.000196006
-0.00118805
-0.000711192
0.00019075
-0.000567971
0.636778
0.000361477
0.000415454
-0.0175616
0.677159
0.729226
0.00211562
-0.0187736
0.462893
0.684912
-0.0222508
-0.00436573
-9.27129e-07
0.00527502
0.571984
0.452774
-0.00100266
-0.00186678
-0.0138385
0.602621
-0.0770299
-0.0085325
-0.0052367
-0.0032484
-0.0209902
0.485056
0.000159476
0.617115
0.000208661
0.664254
-0.000799485
0.629145
-0.00107575
0.062546
-0.0167043
5.73879e-05
-0.000704488
-0.00197376
-0.00470946
-0.00731719
-0.000699486
-0.00259792
0.000927042
-0.0141342
-0.000712907
-0.00255042
-0.00246425
-0.00199145
0.103613
-0.00060811
0.450452
-0.00400537
-0.0115787
-0.00341411
-0.106333
0.685573
-0.0018464
-0.00276705
-0.00351778
-0.0148658
4.80059e-05
0.431568
0.479053
-0.00161963
-0.000794439
-0.0568273
0.132459
0.618253
-0.00949254
0.421065
0.500874
5.43343e-05
-0.0213142
0.000922859
-0.00110616
0.000675698
0.000452905
-0.00089153
0.00106234
-0.0012634
-0.00263715
-0.0140434
-0.000327573
0.257993
-0.0714717
0.449382
0.112835
-0.0795546
5.77733e-05
-0.000655767
0.568303
-0.00102971
-0.0145661
0.000426179
-0.00750146
-0.00546919
0.348007
0.0539423
0.640571
-0.000493149
-0.00119853
-0.00398852
0.289164
-0.001309
0.612354
0.118037
-0.000976884
0.00281565
-0.0537161
0.00240931
0.424218
0.029306
0.573454
-0.012497
-5.7999e-05
-0.000550225
-0.0031244
-0.000218632
-0.000118645
0.000535245
-0.00738291
-0.00300887
-0.0112008
8.95772e-05
-0.0125047
-0.0687188
-1.52691e-05
0.000184148
-0.00150024
-0.000607818
-5.81854e-05
-0.00440287
0.0130874
-0.000840759
0.0473076
0.000444018
0.460886
-0.00953255
-0.0488755
2.98595e-05
-0.0457112
-0.024027
-0.0171533
-0.0015059
3.99177e-05
-0.0010106
0.000130917
-0.0551306
-0.00663526
0.127016
-0.102019
-0.00049591
0.0466515
-0.0996063
0.496681
0.374737
0.464069
0.000980979
-0.000449349
0.000367537
0.00120619
0.591265
0.434572
-0.00125087
-0.00256422
0.30879
0.435694
0.648834
-0.000407819
3.66762e-05
-0.00436784
1.53568e-05
-0.000398922
0.0001142
-0.00297826
-0.00163382
0.459327
-0.0210875
-0.000687379
-0.00100762
-0.000969484
-0.023202
-0.00140794
0.300212
-0.00111053
0.168438
-0.0203096
-0.00549258
0.192463
0.133135
-0.000408163
0.203626
0.613807
-0.0153336
0.474407
-0.00341887
0.00129382
0.513125
-0.00127847
0.439142
0.000326837
-0.0311105
-0.0621754
0.000864692
-0.00162867
-0.000816935
-9.44121e-05
0.00821679
4.75656e-05
-0.00234834
-0.00374958
0.622365
-0.0257088
-0.00162366
0.449227
2.40576e-05
-0.000592312
-0.0129947
-0.000839098
0.61073
0.000458376
-0.000698988
-0.0021397
0.10934
-0.0200094
-0.000874799
0.000455921
0.0539827
-0.00285439
-0.000496557
0.556855
0.673034
-0.00174858
-0.0125027
-0.00143975
0.483815
-7.00843e-05
0.000691004
4.65276e-05
3.06739e-05
-0.0568969
-0.00190871
-0.000813758
-0.113922
-0.000645577
-0.0603604
0.000389066
-0.000137364
-0.000745791
0.518616
0.546692
-0.0120057
0.412661
0.0445262
8.59719e-05
0.44019
-0.0061643
-0.00103311
-0.0020246
-0.0622226
-0.000227768
-0.0107586
0.000536101
-0.0278533
0.204018
-0.00379605
-0.00289119
0.142392
0.349592
0.148471
-5.25287e-05
4.32693e-06
0.00146503
0.276332
-0.00234834
-0.0592703
0.000318065
0.435606
-0.128794
0.519145
0.354953
0.00224206
0.191186
0.000363294
0.454785
-0.00303376
-0.0165761
7.72681e-05
-0.000819713
0.00326382
0.00343783
0.00267422
0.00260843
0.145778
0.00297976
0.296758
-0.000638067
-0.00139536
0.000378232
0.0751855
-0.0120142
-0.00393137
-1.80433e-05
-0.0122301
0.267667
0.00345206
-0.0121072
-0.0111327
0.0617123
-0.0105779
-0.00030637
-0.000635125
0.500196
0.538473
0.561944
-0.000413769
0.540516
0.48933
0.544905
0.00106842
0.000348979
-0.000415111
0.315397
0.394371
-0.0756604
-0.0153439
0.00271469
-0.00540321
0.0629921
0.00367438
0.00281231
0.41809
-0.00105896
0.0024436
0.000173748
0.00414421
0.543983
-0.0245973
-0.000636206
3.75611e-05
0.595514
0.484866
-0.0247803
0.258423
0.0033425
-0.0344321
0.00319858
-0.0435788
-0.0523966
-0.0570647
0.238588
0.00238806
0.112115
-0.000243314
0.526951
-0.0169336
-0.00497655
0.464922
0.000298097
-0.0052642
0.00410133
-0.0642543
0.167203
-0.0105613
0.000347613
0.424443
-0.000509387
-0.00633131
0.0465109
-0.000165016
0.00169721
-0.000961196
-0.00505826
0.00326865
0.0341709
0.000342014
0.0230627
-0.01484
0.0149784
0.00811016
-0.00153159
-0.00206494
0.00366214
-0.00365918
0.0033132
0.00343225
0.34531
0.00394518
0.00276101
7.08472e-05
-0.00889475
-0.0228784
1.0351e-05
0.342492
0.514604
-0.00576857
-0.00113571
-0.000799093
0.00305689
0.000279704
-0.0072173
0.0013172
0.0357716
-0.000120277
-0.00168316
-0.00650224
0.00344154
-0.000757275
-8.35443e-05
0.330347
0.00108009
0.0863499
0.374537
-0.0196444
-0.0170766
0.00357481
0.000206284
0.0688662
-0.00379912
0.00244531
0.050764
0.193589
-2.57965e-05
0.0336541
0.233911
-2.2836e-05
0.144743
-0.00233923
-0.0203437
0.421271
-0.000168228
-0.000226519
-0.000327771
0.387851
-0.123541
-0.0178123
0.00292884
-0.000318173
0.00312879
-0.00732728
-0.00226007
0.11921
0.570462
0.634976
0.465268
-3.25642e-05
0.328189
0.102124
-0.0033989
0.00316645
0.322583
-0.00845249
-0.14569
-3.10921e-05
0.00172403
0.434695
6.6549e-05
-0.0599294
-0.00284712
-0.0411491
-0.000593104
0.472992
-0.0122984
0.460344
-0.00462631
0.0042952
-0.00967121
0.000522256
0.404466
-0.00640359
0.00254135
-3.90626e-07
-0.0815429
0.0111232
0.172543
-0.00529465
-0.000763308
0.209865
1.80564e-05
0.298662
0.151561
-0.000579551
0.30793
-0.0440865
-5.70535e-05
-0.00394631
0.000546229
-0.000915536
-0.00817566
0.368689
-0.0163453
-0.00118123
-0.0437653
0.000302311
0.386973
0.545099
-0.000485858
-0.00828155
0.00212221
-0.00101889
0.409212
-0.00244671
-0.000678628
0.27503
0.153037
0.462353
-0.00703934
-0.000702689
0.322031
-0.00491028
-0.00110213
0.00165739
0.577601
-0.03133
-0.00479669
-0.000808487
-0.00222365
0.573476
-0.0112103
0.655864
0.189538
-0.0036471
0.000702027
-0.0207012
-0.0320292
-0.000234686
-0.00642951
0.565721
-2.33141e-05
-0.0190087
0.573761
0.000499083
-0.00736448
-0.000270294
0.000600364
-0.000274363
0.0236048
-0.00935406
0.000745443
-0.0860484
-0.000166755
-0.00021425
-0.000182856
2.58052e-05
-0.023889
-0.000210096
0.000926431
-0.0260585
-0.0152486
0.653168
0.0390727
-0.00710943
0.00198401
-4.01712e-05
-0.00614761
-0.000145926
0.132814
0.446249
0.000519544
-0.0221285
-0.00687379
0.076479
-0.00242242
0.685239
-0.00137285
0.00106123
0.299854
-0.00167009
-0.000221834
-0.0140933
0.446152
0.000620888
0.430936
0.454833
-0.00637238
-0.0155062
0.529203
-0.00571139
0.00127893
-0.0126336
0.336332
0.13335
-0.0235996
2.74989e-05
0.551266
0.000805526
-0.00114683
0.00231728
0.00151747
0.62795
-0.00151435
-0.000118314
-0.00534894
0.251663
0.658069
0.440914
0.695298
-0.00019258
0.615729
4.26737e-05
0.348194
0.00185792
0.000433263
0.195576
-0.0128098
0.118398
-0.000265869
-0.0191881
0.663539
-0.0121587
-0.0433714
-0.00182357
0.000991239
0.195325
-0.00155501
-0.0100429
-0.000211459
-0.0196527
0.000178319
0.671351
-0.00158547
-0.00370041
0.0799774
-0.0873043
0.18359
0.424957
-0.00030827
-0.0889073
0.243053
0.476898
0.686284
3.01291e-05
-0.0999971
-0.0908314
0.00116892
0.274975
0.306532
-0.097196
0.57826
0.137744
0.220792
-0.00232435
0.423545
-0.00364487
-0.000486738
-0.000120707
-0.000224263
0.000536448
-0.00140676
-0.00129732
-0.00010982
-0.000766363
-0.00158221
9.68508e-05
0.2989
-0.0373633
1.24794e-05
0.668956
-0.000467043
-1.58213e-05
0.54458
0.686551
-0.00845725
-0.0107268
0.523865
-0.000206137
0.607544
0.064378
6.33991e-05
-0.0519043
-0.0248833
-0.00236294
-0.000662357
0.447446
-3.5037e-05
-0.000342675
0.586176
0.000582131
-0.00209914
-0.0358272
-0.0018767
-0.00358126
-0.000334849
0.0606618
-0.0021689
-0.000220976
-0.00626568
0.000965626
0.324194
7.87256e-05
4.65787e-05
0.000885038
0.567742
-0.000317231
0.000981349
7.316e-06
-0.00161303
0.550185
-0.000973873
0.141926
0.52601
0.000518498
0.631972
0.506672
0.00241975
-0.0523021
-0.000449752
-0.00181058
0.607734
-0.00271665
0.000691348
-0.000149116
-0.00454777
0.00238894
0.000757565
-0.000403559
0.622967
-0.000131219
0.465926
-0.0152974
-0.0579033
-0.000153775
-0.0445886
-0.00153333
0.538583
0.548494
0.167724
-0.000712384
-0.0241293
-0.0548347
0.179717
0.116816
0.285595
-0.0693913
-0.0431306
-0.00206663
6.13307e-06
-0.000548809
0.000888524
-0.0012716
-0.000860767
-0.00106303
-0.000440895
0.00200045
0.00198239
-0.00281432
-0.000750913
-0.00361344
-0.00020103
-0.00158312
-0.000165799
0.733601
0.106065
-0.00249582
-0.0030164
-0.00198106
-0.000128707
-0.000261058
-0.00113855
-0.000899337
-0.0197726
-0.00010609
-0.00243068
-0.000449588
0.000960127
-0.000276301
-0.00589252
-0.0241749
-0.00150254
0.573468
-0.0113064
0.45366
-0.025013
0.59565
-0.0116351
-0.0133938
-0.0153261
-0.016966
-0.0173244
-0.0192091
-0.0198492
-0.000154166
-0.020781
-0.0205742
0.544903
-0.0235778
-0.0366892
-0.0240559
-0.000299467
-0.0569689
-0.00288277
-0.000151138
-0.00326663
-4.16649e-05
-0.0003096
0.0177599
0.00106819
0.235224
0.479649
-0.00359814
-0.0011871
-0.00189222
-0.00344105
-0.00232871
-0.00511411
-0.00328099
0.00021921
0.677957
-0.000261854
-0.00829261
-0.00422044
0.00113885
-0.00203161
0.000161278
-0.0120068
-0.00287676
0.000419798
0.00224242
0.014302
-0.000174458
-0.00011497
-0.00484774
0.00678357
0.000383938
3.49521e-05
0.000262513
-0.000171802
-0.000408241
-0.00157632
-0.00037477
0.000423035
-0.000123139
0.00102129
0.535012
0.000299014
0.000728679
0.00131976
-0.00173257
-0.000342954
-0.000392249
0.356803
-0.00574816
0.507262
-0.00058215
0.000291497
-0.00017613
0.439277
-0.0613764
-0.000373899
-8.32258e-05
-2.62226e-06
-0.00170609
-0.000332102
-0.0356862
0.000119344
-0.0287796
0.000296929
0.000579662
0.000277555
-0.000874332
-0.00140137
-0.0355736
0.523513
-0.0231669
-0.000306394
7.54e-05
6.02854e-06
-0.00843771
-0.000164489
-0.0122877
0.00104095
0.00141694
-0.000581393
-0.00654233
-0.0022374
-0.0916851
0.000282883
-0.00016558
-0.00374795
0.000263667
-0.00121568
0.000889601
0.000862148
2.48369e-05
0.611964
0.000240019
0.700109
-0.00514123
0.000622656
-0.00120643
-0.000168641
-0.00021079
-0.011834
-0.000396784
-0.0594783
-0.000281017
-0.0884085
-0.00173992
0.000204125
-0.000158039
-0.00367806
0.620469
-0.000223528
-0.0136149
-0.00174952
0.521402
-0.024893
-0.0505061
-0.000211302
-0.0964654
0.00114148
-0.103129
-0.0190643
-0.000310039
-0.00366611
0.650979
-0.0465417
-0.0026793
0.00104085
-3.61554e-05
0.458598
0.517582
-5.82062e-05
0.000988398
0.389509
-0.000173866
-0.00362297
-2.10637e-05
-0.000378803
-0.0222613
-0.0134381
-0.109359
-0.00558238
-0.000689893
-0.000192355
-0.000133789
-0.0433977
-0.0156199
0.315308
-0.00457889
-7.34518e-05
0.497829
-0.00549996
-0.000105234
-0.0234315
0.000820406
-0.000883866
-0.000196141
-0.00846808
-0.000562677
-0.0112504
-0.000197415
-0.00057646
0.311099
-0.00352032
0.392774
0.596138
-0.00407749
-0.0049273
-0.0603675
-0.00363621
0.663127
-0.00258121
0.000712167
-0.000122974
0.468571
0.619807
0.285973
0.00579851
-0.0132106
-0.000170953
-0.00263422
-0.000405255
-0.000896811
0.000554863
0.427943
-0.0142746
-0.000296512
-0.00201607
-0.00107171
0.0756935
0.444682
-0.0170441
0.000164679
-0.00125116
-0.000286108
0.000126564
0.601771
-0.00186912
0.000505233
0.000176659
0.00198579
-0.0064398
0.0817986
-0.00500645
-0.00699464
-0.0172512
0.00014131
-0.00170803
0.427965
-0.00351356
0.000373189
-0.00400068
0.443598
-0.00157123
0.11982
0.533932
-0.000757858
-0.000126319
0.123354
0.394634
0.181105
0.324424
-0.026045
0.000525545
-0.000467641
0.424631
0.00303282
-0.00178952
-0.0240667
-0.00537946
-0.05655
-0.0113474
-0.00195239
-0.000490671
0.402337
-0.0022722
-0.00666003
0.546387
-0.0108517
0.517234
5.43383e-05
-0.0053755
0.49216
0.661552
-0.0119597
-0.00455442
-0.00450689
0.000242262
-0.00290993
0.506495
-0.00412288
-0.015438
-0.002324
0.000233748
-0.000314039
-0.0025666
0.000233755
0.354747
0.000216158
-0.010166
-0.000747183
0.000793078
0.000181409
0.236282
0.464605
-0.0102273
-0.0133827
-0.0157748
0.000241925
-0.00177735
0.000207622
-0.0153861
-0.0169543
0.269957
0.470312
-0.0184542
0.247411
-0.000143498
-0.0440007
-0.00061893
-0.0186194
0.321502
0.206388
-0.0206828
0.00307859
0.481552
0.350855
-0.00295913
-0.000272329
0.000691778
0.610004
-0.000643428
-0.000215975
-0.0009507
0.000319401
0.000212669
-0.00137135
0.000344011