/*--------------------------------*- C++ -*----------------------------------*\
  =========                 |
  \\      /  F ield         | OpenFOAM: The Open Source CFD Toolbox
   \\    /   O peration     | Website:  https://openfoam.org
    \\  /    A nd           | Version:  7
     \\/     M anipulation  |
\*---------------------------------------------------------------------------*/
FoamFile
{
    version     2.0;
    format      ascii;
    class       volScalarField;
    location    "38.5";
    object      p;
}
// * * * * * * * * * * * * * * * * * * * * * * * * * * * * * * * * * * * * * //

dimensions      [0 2 -2 0 0 0 0];

internalField   nonuniform List<scalar> 
20933
(
0.00154585
0.00198877
0.000181002
-7.11184e-05
-0.00279104
-0.00301696
-0.0912908
0.301935
-0.0382597
0.292441
-0.0886365
0.152192
-0.022739
0.00139792
-0.000279022
-7.34987e-05
-0.0849673
0.165673
-0.0523391
0.00244412
-0.0360713
0.163497
0.293132
-0.115633
-0.00139819
0.528192
-0.00198983
-0.021431
-0.152795
-0.0549454
-7.09037e-05
0.610721
0.269166
-0.0102503
-0.000505448
-0.000211417
0.340023
0.000101581
-0.00538698
0.134168
0.00201015
0.351519
0.423492
-0.00190256
0.5287
0.00616794
0.258522
0.029507
0.000137401
-0.0176688
-0.000516226
0.0190171
-0.103595
-0.00115549
-0.126862
-0.00557783
-0.011894
-0.000333284
-0.0176281
-0.0755864
0.558943
0.00225592
0.000253958
0.267481
0.000359638
-0.00207256
0.513536
-0.00209587
-0.0228985
0.524882
-0.0109718
-0.10606
-0.000230698
-0.0143033
0.515882
-0.0307976
0.515907
-0.00403582
0.132674
0.479551
-0.00176944
-0.00162489
-0.150953
-0.0360667
0.0032875
0.427734
-0.0186065
0.669341
0.266779
0.554353
0.235499
-0.000139227
-9.30959e-05
0.643414
0.0124779
0.000638583
0.649167
-0.00102187
-0.0775782
0.333891
0.560065
-0.00310421
0.569087
-0.0703587
0.0549448
-0.0280915
0.482223
-0.0446366
0.00543462
0.455058
-0.161439
-0.0912783
-0.00828637
-0.00426667
-0.0249771
-1.90891e-05
0.413147
-0.00179378
-0.0899371
0.472161
-0.00013557
-0.0422656
0.152304
-0.0222505
-0.0103128
0.166704
0.228074
-0.0206534
0.618703
0.424065
-0.0267205
-0.0159445
0.00220884
-0.00432778
0.486299
0.0464512
0.0744865
-0.0399354
-0.0024287
-0.0462036
-0.0446907
-0.0157593
-0.126495
0.578518
0.0194052
0.492878
0.282643
-0.00184244
0.207006
-0.00230657
-0.00079556
0.517494
-8.60676e-05
-0.0304639
-0.00156634
0.288096
0.436379
-0.119209
-0.00535212
-0.0241082
-0.132762
-0.0840659
-0.000153604
0.0312695
0.101837
0.663068
-0.00229107
-0.138354
-0.0302707
0.33269
0.0606771
0.531626
0.437677
-0.00894191
0.688084
0.257562
0.00101849
0.545366
-0.0223572
0.475202
0.500745
9.54234e-05
0.57493
0.434842
0.00237425
-0.006571
-0.00989825
0.317237
-0.0750874
0.62305
0.226529
-0.0448774
0.342381
-0.016743
-0.00690992
0.135693
0.571376
-0.00453515
0.00171708
0.629948
0.0691353
-0.109008
-0.0932916
0.611399
0.586167
-0.0100643
-0.0136197
0.0203954
-0.00595109
0.000850037
0.50868
0.542602
-0.00380852
-0.0149704
0.465882
0.515548
0.00245015
0.472294
-0.0371424
-0.00344049
-0.0216664
0.449631
0.597104
0.237994
0.45189
-0.00334102
-0.0128455
-2.15729e-05
0.00198057
-0.00210009
0.14894
-0.0629429
0.474323
-0.0439872
0.440417
-0.0177468
-0.0219372
0.528219
0.655171
0.442134
0.511133
-0.0137512
0.348738
-0.0211678
0.062765
-0.00137279
-0.148975
-0.00747604
0.0189703
0.000127308
0.00536817
0.602044
0.147326
-0.00626488
-0.0232626
-0.0614827
-0.115146
0.358105
-0.0431898
0.00705831
-0.0255499
-0.00882455
0.000437078
-0.0168308
-0.0799233
0.576114
-0.018976
-0.0075527
0.445411
0.583161
-0.0182076
-0.000380494
-0.031585
0.51389
-0.166763
0.555369
-2.71125e-05
-0.0173582
0.451959
0.502666
-0.0271417
-0.0105752
0.622649
-0.0843559
-0.0473011
0.565865
0.619004
-0.020403
0.461858
0.0815676
0.474671
0.389761
-0.00037886
-0.0294077
0.344111
0.00107588
-0.0559316
0.0190741
-0.168437
0.0639174
0.0158607
-6.50641e-05
-0.000691143
0.553935
-0.00365089
-0.071242
-0.0287071
0.170714
0.00119537
0.472688
0.0634228
-0.0272002
-0.00550689
0.315047
0.15175
-5.94516e-05
0.549771
0.428635
0.540211
-0.114765
0.000377963
0.616669
-0.000712827
-0.0171812
0.138379
0.00444391
-0.0178322
-0.0963689
0.439338
0.642811
0.501751
0.106438
0.696347
-4.7541e-05
-0.00870973
0.502906
-0.13521
0.339947
-0.0131686
0.522937
0.0587632
-0.000818743
0.0569973
0.410068
-0.124753
0.566674
0.411109
0.000218654
-0.00197962
0.272973
0.178068
0.00301948
0.431568
-0.015637
0.685884
-0.0434361
-0.00275066
0.00438053
0.497559
0.426071
0.000383383
0.314811
0.552599
-0.00381154
0.384168
0.425287
0.688763
-0.00044186
0.195443
-0.00913171
-0.00876072
0.000188909
0.521271
0.356955
-0.0191326
0.534367
0.121063
-0.0110604
0.343278
0.104741
0.154135
0.687538
-0.0360399
0.111986
0.539979
-0.0232534
0.0618724
-0.0789349
0.262224
0.00635181
0.243733
-0.0181426
0.106204
-0.00151898
0.263967
0.535411
0.395045
-0.152745
-0.00828077
0.604608
0.60595
-0.00140019
-0.0160793
0.474597
-0.0668774
-0.028256
0.359735
0.0038984
0.715057
-0.0222868
0.215832
-0.00158081
0.539452
0.40659
0.0231698
-0.0376086
-0.0470497
0.0694652
-0.0011276
0.473288
-0.105881
0.276827
0.678093
-0.116779
-0.0232928
-0.0021776
0.0380917
-0.0174881
-0.00755027
0.378314
-0.000398609
-0.0153442
-0.00332696
-0.0712446
-0.0159092
0.000119305
-0.025195
0.123792
-0.137286
-0.0241278
-0.0108659
0.0302421
0.0267317
-0.0200102
-0.000159467
-0.0015503
-0.0224997
-0.0742278
-0.00227686
-0.0238551
0.157246
0.38708
0.0396226
0.000255954
0.636569
-0.00216919
-0.000391109
0.00150652
-0.0152365
-0.0294993
0.581346
-0.0172271
0.088087
-0.0627811
-0.0681766
0.349036
-0.0176042
-0.0287742
-0.0523217
0.000157898
-0.064458
0.646145
-0.110533
-0.0219241
0.377125
-0.021209
0.38685
0.212188
-0.000747977
0.000829214
0.431438
0.669851
-0.112083
0.26973
0.111735
-0.0163804
-0.0174218
0.473296
0.0434256
-0.147289
-0.0766527
0.00490495
0.0105147
0.602206
0.126551
-8.70615e-05
0.571751
-0.0206653
-0.0339411
0.443244
-0.0045469
-0.00140718
0.000160658
-0.0251772
-0.00685157
-3.41656e-05
0.263239
-0.164791
0.477065
0.000431095
-0.00116521
-0.0215133
-7.17894e-06
-0.115109
-0.144464
-0.00109501
-0.028532
-0.00865542
0.434596
0.540777
-0.000476836
-0.00109324
-0.0420348
0.547521
-0.00992717
0.548091
-0.00222441
0.678068
0.397727
0.224366
0.655481
-0.0960635
0.00084833
-0.00826665
-0.00948599
0.535536
0.470026
-0.00172441
-0.138186
0.0505483
-0.0317726
0.00209935
-0.15257
-4.33664e-05
0.442175
-0.00399561
-0.0255565
-0.00925327
-0.0223445
0.21955
0.0492967
0.00189893
-0.0153087
-8.70091e-07
0.677381
0.596155
0.00115042
-0.00365519
-0.0067449
0.46801
-0.0103912
0.113692
-0.0192904
0.508314
0.222002
-0.00785528
0.707793
0.00707455
0.493882
-0.00332364
-0.0786336
0.564543
-0.0127977
0.679325
0.453505
0.689116
0.000676977
0.00232114
-0.0397225
0.000782598
-0.00381358
-0.0347732
0.495753
0.516387
0.39262
0.542022
0.673779
0.276726
0.536109
0.395413
-0.00497287
0.437793
-0.0266737
-0.0195735
8.60908e-05
-0.031905
-0.0991854
0.316568
0.0287825
0.478886
-0.0193441
0.0728097
0.460839
-0.00919434
-0.0357981
-1.29109e-05
-0.000254409
0.315677
-0.0288106
-0.0178045
-0.00029773
-0.000670031
0.0423504
0.000273459
0.0108432
0.679192
0.282842
0.275117
-0.00122212
0.468563
0.0489209
-0.00934268
-0.0039517
-0.000176207
0.000190763
-0.0017134
-0.00926104
-0.0810114
0.320014
-0.023189
0.00220767
5.0557e-06
0.500768
-0.054486
-0.118389
-0.0130663
0.0875455
-0.0364725
0.00452475
0.461053
0.622187
0.409951
0.00507668
0.416987
0.000351913
-0.0172126
0.305135
-9.25412e-05
-0.00946406
0.202773
0.271285
-0.00770602
0.461245
0.591064
0.449437
-0.0155017
-0.00373028
-0.0179968
0.108947
0.426183
0.000886248
0.563026
-0.0179628
-0.0804173
0.000614913
0.644559
0.323012
0.475388
-0.148718
0.66031
-0.00667467
-0.0169756
0.694808
0.0155871
-0.0681871
0.486524
0.508135
-0.0148084
0.420022
0.547612
0.503577
0.458307
0.495137
0.399671
-7.45469e-05
-0.00714539
-0.00220596
-0.0689745
0.534748
-0.0639568
0.160631
0.171414
-0.0196146
0.0199191
0.195198
0.54433
0.025231
-0.000804616
0.0134654
-0.0204663
-0.0870985
-0.104851
-0.0717738
0.452936
0.565906
0.0171329
0.540394
0.673862
0.00212834
-0.00121504
-0.00100525
-0.000819615
0.355022
0.679992
0.132308
0.4689
-0.00759254
0.39845
0.410404
-0.133403
-0.00487304
-0.0127529
0.156357
-0.0144796
-0.0124256
-0.0157896
-0.0162669
0.47828
0.000842711
-0.0213042
0.508919
0.0149383
0.620225
-0.0406163
0.388415
-0.101769
-0.0300311
0.560507
0.618127
0.534476
-0.0109028
0.623623
-0.0139423
0.559003
-0.0073973
0.532083
-0.0186514
-5.41101e-05
0.533774
0.564575
0.560093
0.533842
0.316023
0.0680719
0.368705
-0.0666378
0.533368
0.457144
-0.050858
0.0309771
-0.000474186
-0.0923708
0.46528
-0.0124521
0.000383607
0.544719
0.541299
-0.0249842
0.526106
-0.0829822
0.0723074
0.00445682
0.551752
0.561585
0.673728
0.553601
0.00123338
-0.00859597
0.000139717
-0.0319073
0.615497
0.25342
0.455186
-0.0147132
0.397694
-0.0055931
0.618067
-0.0454515
0.543134
0.0038803
0.600718
0.631685
-0.0085873
0.108389
0.596069
0.00150927
0.641468
-0.0255259
0.00185934
-0.00467054
0.499462
0.195839
-0.0489167
0.533419
0.64653
0.407159
0.00779681
-0.0267011
-0.0159097
0.540236
0.627287
0.700789
0.24491
-0.00252881
0.00584974
0.463313
-0.00233354
0.000471752
-0.00299748
-0.009991
-0.0845035
-0.125723
0.575137
-0.0154087
9.27335e-05
0.444973
0.232385
-0.00363419
0.127917
-0.00096434
0.194931
0.453754
0.530447
-0.111011
0.134119
-0.00341368
-0.0474616
0.000763136
0.544287
0.579887
-0.151991
-0.140962
-0.123556
-0.0368188
0.536362
-0.0291576
-0.0841924
-0.095142
-0.0346888
0.656205
-0.117666
-0.00320225
0.546789
0.00198469
0.0703943
-0.0244932
-0.0883496
0.00110454
-0.000774961
0.653461
0.379123
-0.153317
-0.0534901
0.395514
0.518722
0.454033
-0.093713
-0.0181937
-0.0172891
-0.0186607
0.431108
9.84606e-05
-0.0275769
0.000150221
-0.00693076
0.00070789
-0.0985786
0.502528
-0.0743364
0.546867
0.534324
-0.0183998
-0.00991254
0.668808
0.406097
0.00495431
-0.0112368
0.395437
-0.0241487
0.349141
0.654006
0.342625
-0.000681177
-0.012896
0.488632
-0.0220992
-0.0631595
-0.0289088
0.589417
-0.0151506
-0.064036
0.385068
0.2862
0.44314
-0.0221348
0.323124
-0.0323399
0.545749
-0.0995616
0.181445
-0.0330316
-0.0333072
0.000135778
0.000753874
-0.000616215
0.59172
-0.0415631
0.38291
0.0609558
-0.0574456
-0.0763045
0.264366
0.674115
0.608622
-0.0662526
0.239302
-0.0202683
0.0319497
0.00108566
0.169166
-0.0151348
-0.0019495
0.426066
-0.0299322
-0.00270216
0.582844
0.478438
0.560238
0.00928094
-0.0926161
-0.00789
0.25514
-0.0232959
-0.000124058
0.591802
0.0950507
0.223549
-0.0503872
0.000144443
-0.00779023
-0.00100687
0.206719
-0.000462091
-0.0154098
-0.0117553
-0.0215228
0.61022
1.65605e-05
-0.0310449
-0.00585554
0.630769
-0.00138373
-6.87805e-06
-0.105319
0.154629
0.441711
-0.00863628
-0.00833655
-0.0212606
0.45432
-0.012461
0.238042
-0.12366
-0.119126
0.103647
0.429715
0.083047
0.233917
0.00133892
0.476473
0.637001
-0.00328753
0.367785
-0.0390443
0.65025
0.624638
-0.0815571
0.0386176
0.0065718
0.375726
-0.000241968
0.53217
0.686502
0.00082748
0.157277
0.292298
-0.00105293
-0.000507854
-0.00410892
0.675173
-0.0104521
-0.0340432
0.54052
-0.00387894
0.366959
0.554747
-0.0135982
0.600447
-0.0174087
-0.0106554
0.55828
0.249116
0.442495
0.00148786
0.560876
0.202282
0.529713
-0.0567998
-0.00772775
0.163698
0.592859
0.55771
0.604946
0.539663
-0.0953715
-0.00720203
-0.0193205
0.399474
0.530642
0.633665
-0.0161233
0.306642
0.643837
0.503047
-0.00105627
-0.0120941
-0.00326233
0.148349
-0.0551674
0.575807
0.263186
0.528033
0.10934
-0.039572
0.531693
-0.0598491
0.411524
-0.089773
0.0253509
-0.0120553
-0.0820544
-0.0540193
0.627916
-0.0492374
-0.0166936
-0.0675921
0.210922
0.0492158
-0.0147994
0.0256542
-0.0196162
-0.0630198
0.426692
0.224414
0.468087
-0.133898
0.550088
-0.0706169
-0.000697821
-0.00893466
-0.0177102
-0.113277
-0.130073
-0.0047539
0.301289
0.609491
0.178524
0.0416097
-0.0329821
-0.0580473
0.36232
-0.0255135
0.648539
0.310278
-0.00399759
-0.0102597
-0.0108975
-0.0749352
-0.0155115
-0.0256575
-0.0268635
-0.0917176
0.292155
0.618941
0.570992
0.253046
0.0020622
-0.0160151
0.00101537
-0.00729909
0.435837
0.00441074
0.416098
-0.0639603
-0.00922169
0.615131
0.628337
-0.000881928
0.538238
0.568656
0.135761
-0.0159855
0.196898
0.433647
0.626198
0.355639
-0.0713374
0.612141
0.0851622
-0.0343386
-0.037573
-0.0815916
0.641003
-0.0225645
0.548314
0.321507
0.607898
-0.0460214
0.376512
0.389323
-0.082769
0.558938
-0.0275605
0.590586
-0.000448244
0.346633
0.414881
0.411255
-0.00227446
-0.0332658
-0.00108915
-0.0185475
0.326066
-0.0146702
0.379859
0.35482
0.679099
-0.0204241
0.594791
-0.0177583
-0.0166322
0.0126986
0.537378
0.0867834
-0.0591341
0.0400643
0.46409
-0.0051775
0.665116
-0.00354191
-0.0743091
0.057525
-0.00423127
0.541275
-0.0400801
0.573279
0.456533
0.144525
0.0142079
0.169956
-0.000819703
0.00433152
0.585304
-0.0301229
-0.0562987
0.332257
0.043096
-0.0110018
0.0147518
-0.00308332
0.609177
-0.0139985
0.00827164
-0.0793041
-0.0142361
0.528044
0.681825
-0.00951598
-0.0622588
-0.00268517
0.0805902
-0.000900512
0.126611
0.62927
0.603166
-0.0218407
0.187503
-0.000262925
-0.0172907
0.484322
-0.0139928
0.253845
-0.00711298
0.668768
0.46546
-0.0747648
-0.0168974
-0.0272568
0.666214
-0.0157115
-0.000485526
0.00284731
0.138156
-0.0715926
-0.00348281
0.106129
0.609267
-0.0875799
0.64434
0.701648
-0.0149125
-0.0558338
-0.000628425
0.00145085
-0.0538874
-0.0280798
0.659514
-0.00728153
0.00238686
0.415867
-0.0512414
0.459453
0.00290018
-0.052723
0.45458
0.424014
-0.070889
-0.0189599
-0.0566203
0.507051
-0.0146187
0.27937
-0.017298
-0.00745573
-0.0165658
-0.00843832
-0.00245065
-0.093408
-0.0901971
-0.113432
-0.00208189
0.113508
4.87481e-05
-0.0148572
-0.061145
-0.00900505
-0.0286782
0.612079
0.0240415
-0.0209683
-0.0165143
0.494746
0.000865741
0.431322
-0.0764762
0.00134247
0.00407063
0.45429
0.286226
-0.0180982
-0.0308061
-0.0311672
0.361621
-0.000310872
0.420522
0.500925
-0.010664
-0.0524288
0.130986
0.132808
-0.0618927
0.144283
0.47336
-0.00616974
0.401141
-0.0194553
-0.00250221
0.383784
0.631504
-0.00226149
-0.00521188
0.527661
0.392591
-0.00817324
-0.0327306
-0.107944
0.00536766
-0.00587296
0.000235379
0.489697
-0.127151
-0.057223
0.490884
-0.069311
-0.0183078
0.277157
0.000980597
0.178187
0.416311
-0.030811
0.416331
-0.00803992
0.600892
-0.0719978
-0.000297482
0.000120293
-0.0244516
-0.000619075
-0.0083603
0.179905
-0.050168
-0.00427332
-0.025808
-0.00994359
0.241463
0.541731
0.000502103
-0.00581983
-0.0169564
0.387964
-0.0544675
-0.0105514
-0.00556399
0.0661064
0.282344
-0.0107951
-0.0010529
-0.083828
0.453457
0.490129
0.130147
0.426799
0.566123
-0.0103179
0.392637
0.133672
-0.00490459
-0.00673629
-0.0167586
0.688356
-0.0136395
-0.0807845
-0.0134667
0.450939
-0.00121902
-0.00173646
-0.0154454
-0.0176767
0.000764932
0.543077
0.312021
0.398925
0.498324
0.429868
0.00252188
0.168964
0.340731
-0.0103891
0.531106
0.226505
0.326972
1.72013e-05
0.346914
-0.0371615
0.211325
0.339694
-0.0860785
0.0900442
0.0646832
-0.012839
3.53567e-05
-0.0060607
0.195004
0.618064
0.214627
-7.55776e-05
0.303264
-0.00609132
0.340878
0.249179
-0.000577956
-0.0134655
0.382625
0.542318
0.109781
-0.0106507
-0.00529693
0.229832
0.401681
-0.0107718
0.482589
-0.00834102
0.173611
-0.0257606
0.577465
-0.000246636
-0.00113224
-0.00102682
-0.00456568
-0.101017
0.00251278
0.404188
0.492949
-0.00218195
0.286243
-0.00263407
7.45726e-05
2.58235e-05
0.240276
-0.00860626
0.289959
4.68795e-05
0.411695
-0.00463477
0.472496
-0.126978
0.509691
-0.0134215
-0.00165352
0.00072121
0.547939
-0.0182614
0.0393021
0.149363
-0.00177443
0.466656
-0.00104239
-0.0123634
-0.00425748
0.000598896
0.546381
-0.00103831
-0.00607951
-0.00620311
-2.13897e-05
0.000496764
0.478813
-0.000679482
-0.0111847
-0.0032203
-0.000857736
0.44171
-0.141751
0.0306978
-0.0425873
-0.00107989
-0.0102733
-0.0784799
-0.00276324
-0.00133719
-0.000629231
0.265032
-0.000335892
-0.000995485
-0.0798702
0.158184
0.52986
0.00351385
-0.00205326
-0.00364645
-0.0257575
0.427226
0.484145
0.549279
5.83707e-05
0.207864
-0.0123571
-0.00968145
0.311304
-0.0144319
-1.06345e-05
0.00144334
-0.00525301
-0.00562604
-0.00575307
-0.000321519
-0.00252258
0.00162831
0.407352
-0.00163215
0.3011
0.0728124
0.0397116
0.239759
0.148409
0.352805
0.0126243
0.396461
-0.000873995
-0.0113159
0.368653
-0.0241288
0.434644
0.413718
-0.0116494
-0.00886353
-0.00034869
-0.00222542
-0.036964
0.000773865
0.00147715
-0.00177983
0.00142969
-0.00248826
-0.0140625
0.000471637
-0.000218836
-0.0148178
0.353585
-0.00191401
0.00125589
-0.0063913
-0.00439427
-0.00307574
0.482453
0.464919
0.230461
0.585404
-0.00997595
-0.0586933
-0.00321358
-0.00300859
-0.00238927
4.87654e-05
3.51043e-05
0.218483
0.10278
7.86303e-05
-0.0977411
0.111421
0.231812
-0.0351391
0.00343349
-0.0108248
-0.00185531
-0.00121799
-0.00175439
-0.00337269
-0.0313082
0.597123
-0.00340473
-0.0307574
-0.00505027
-0.0145113
0.00262892
0.00576861
-0.000888523
0.00127238
-0.0116663
-0.00241443
-0.0330634
0.0594844
-0.00148677
0.283577
-0.000789118
0.00104745
-0.0602626
0.432311
0.452357
0.339
0.00361053
-0.104436
-0.0336042
-0.11726
-0.0198753
-0.116823
-0.0101751
-0.110693
0.00299408
-0.00780342
7.36567e-06
0.0571418
0.00243798
0.00073013
-0.0146234
0.622179
-0.00979063
-0.102963
0.587831
0.603725
0.00257159
0.592152
0.561231
0.438245
-0.00331324
-0.147435
0.604958
0.000799019
-5.07179e-05
-0.00946267
-0.00381029
-0.000159995
-0.0272944
-0.00419353
-0.0015071
0.00202846
-0.018477
0.00047015
-0.0346462
-0.000828494
0.66679
0.00296021
0.00259026
0.663927
0.000412991
0.632437
0.599042
0.4046
0.00195208
0.667145
0.0605826
0.513929
-0.00838541
-0.000441452
-0.00805612
-0.0197283
0.0305264
0.538098
0.000891878
-0.000623742
-0.0033215
8.26281e-05
-0.14862
0.227068
0.000113516
0.428993
-0.0370525
-0.00117179
-0.0143066
0.00230844
0.139917
-5.44068e-05
0.604785
-0.00118213
0.56243
-0.00208927
-0.0068746
0.000117788
0.00047172
-0.00758399
-0.00110835
0.502097
0.535347
6.06276e-05
0.605772
-0.0150102
-0.00194223
-0.0209282
0.569315
-0.137845
0.000634783
-0.000122029
-0.0012727
-0.000730636
0.000228995
-0.000434885
0.6109
0.000444704
0.000831366
-0.0190174
0.651158
0.702182
0.00304623
-0.0165961
0.441017
0.65788
-0.0204344
-0.00169484
8.0246e-06
0.000796788
0.547928
0.431431
-0.00106612
0.000374877
-0.0113504
0.578022
-0.0792657
-0.00750968
-0.0039753
-0.00195804
-0.0218191
0.462798
0.000192677
0.592124
0.000646847
0.638403
-0.00064633
0.604002
0.00103043
0.0510557
-0.0165349
6.45148e-05
-0.00079136
-0.000999723
-0.00287654
-0.00696606
-0.000736128
-0.00284497
0.00140513
-0.0118987
-0.00074558
-0.000785661
-0.000765182
-0.00214634
0.0913337
-0.000587067
0.429089
-0.00120864
-0.0118862
-0.00380408
-0.111876
0.659432
-0.000289117
-0.00170316
-0.00246869
-0.0120592
0.0025581
0.40997
0.457108
-0.00243607
0.00114464
-0.0637801
0.119646
0.59337
-0.00624316
0.399935
0.478441
6.63238e-05
-0.0190773
0.00363061
-0.00126375
0.000828417
0.000614864
-0.00101507
0.00213037
-0.000312701
-0.00398872
-0.0133044
-0.00351202
0.236047
-0.0764905
0.427734
0.0927973
-0.0820104
6.75108e-05
-0.000732078
0.544292
-0.000884889
-0.0119432
0.000563965
-0.00428748
-0.00408995
0.3288
0.0442664
0.614855
-0.000513787
-0.0012521
-0.000842455
0.266643
-0.0017334
0.587385
0.0977386
0.00179918
0.00473455
-0.0551761
0.000576098
0.40246
0.0229705
0.549446
-0.00931499
-1.28586e-05
-0.00026541
-0.00175389
-0.000233055
-2.36998e-05
0.00105677
-0.00625854
-0.00419259
-0.00832756
0.000116051
-0.0096365
-0.0714836
-1.30858e-05
0.000219547
-0.00193803
-0.000668975
2.10523e-06
-0.00412195
0.00802332
-0.000942257
0.0378538
0.00218908
0.439337
-0.00696817
-0.0499922
3.73459e-05
-0.0465567
-0.0222741
-0.0182064
-0.000638097
4.44297e-05
-0.000220324
0.000167087
-0.0573883
-0.0229771
0.110424
-0.105764
-0.000513448
0.0387055
-0.106521
0.473871
0.353718
0.440699
0.00129539
0.000179783
0.000475558
0.00216868
0.566774
0.413181
-0.000978871
-0.00234164
0.290093
0.414583
0.623347
-0.000412999
0.000533238
-0.00335912
2.64524e-05
-0.000399529
0.000142521
-0.00309847
-0.00136954
0.437744
-0.0220606
-0.0006801
-0.00202445
-0.00105003
-0.0400178
-0.00203967
0.277371
-0.00121622
0.152917
-0.0182531
-0.00194297
0.17202
0.113524
-0.000423384
0.184591
0.588871
-0.012729
0.452597
0.000358578
0.00216715
0.49039
-0.00111814
0.416047
0.00071332
-0.0367108
-0.0660511
0.00187422
0.000269332
-0.00087906
-4.09582e-05
0.00337297
4.94892e-05
-0.000845703
-0.000502124
0.597344
-0.0297141
-0.00202173
0.427943
2.79041e-05
-0.000629654
-0.0153868
-0.00071386
0.58595
0.000754053
-0.000747082
-0.00016044
0.0935133
-0.019446
-0.00100096
0.000514914
0.0363619
-0.00396792
-0.000525149
0.533072
0.647071
-0.00185968
-0.0233186
-0.00141728
0.461781
1.12007e-05
0.00115244
7.28847e-05
3.39107e-05
-0.0602029
-0.0023568
-0.000919585
-0.119737
-0.000534433
-0.0654032
0.000437049
-7.42436e-05
-0.00192178
0.495749
0.523155
-0.0140886
0.389325
0.0307818
9.78025e-05
0.419094
-0.00583639
-0.00121703
-0.0024891
-0.0762559
-0.000165533
-0.0171224
0.0007609
-0.0286812
0.182783
-0.00183547
-0.00133037
0.122212
0.329754
0.131141
-5.39339e-05
5.6297e-06
0.00362498
0.254289
-0.00181596
-0.0594794
0.000394306
0.414606
-0.142251
0.496327
0.332368
0.00422472
0.174732
0.000510677
0.433394
-0.0177276
-0.014315
0.000122048
-0.000931903
0.00515992
0.00564416
0.00428664
0.00515895
0.131161
0.00421312
0.276324
-0.000645856
-0.00188814
0.000505072
0.0565399
-0.0176645
-0.00442164
-1.14326e-05
-0.0172043
0.247102
0.00656875
-0.0164667
-0.0149237
0.0485312
-0.0138903
-0.000232239
-0.000696035
0.477668
0.515131
0.538141
-0.000426539
0.517172
0.467154
0.521442
0.00149128
0.000419316
-0.000436751
0.293589
0.373513
-0.0781577
-0.0124108
0.00625292
-0.00420324
0.0480146
0.00564813
0.0038785
0.396986
-0.0012179
0.00412493
0.000194425
0.00643142
0.520622
-0.0237479
-0.00063227
4.07104e-05
0.57107
0.462158
-0.0388492
0.236705
0.00516593
-0.0477785
0.00532914
-0.0561196
-0.0642321
-0.0682335
0.217192
0.00485818
0.0940645
-0.000231438
0.503846
-0.0171661
-0.00457879
0.44176
-0.00258357
-0.00416155
0.00809355
-0.0792892
0.150508
-0.0123606
0.000391171
0.403658
-0.000560969
-0.00513321
0.034218
-0.000111945
0.00241936
-0.00110621
-0.00162821
0.00649574
0.0227697
0.00043323
0.0125548
-0.014283
0.00536109
-0.000630018
-0.000289919
8.7263e-05
-0.00418655
-0.000567588
0.00535693
0.00517942
0.325124
0.00631973
0.00379405
9.95863e-05
-0.00671552
-0.0202751
4.48684e-05
0.320592
0.491544
-0.00296843
0.00124674
0.00074379
0.00424468
0.000343379
-0.0073367
0.00176193
0.0287082
-7.52659e-05
-0.00386777
-0.00337379
0.0068729
-0.000855348
-4.5728e-05
0.309612
0.00158639
0.0688179
0.354027
-0.0207363
-0.0141267
0.0068998
0.000238771
0.0519789
-0.000290639
0.00609797
0.0345689
0.173892
-2.40204e-05
0.0181269
0.215802
2.80076e-05
0.128834
-0.000841663
-0.0233265
0.400461
0.000427486
-0.000244174
-0.000326855
0.365719
-0.134812
-0.0170214
0.00669071
0.0013915
0.0042566
-0.00665063
0.000701127
0.104016
0.546516
0.609587
0.443089
5.07612e-06
0.3077
0.0878063
-0.00167945
0.00704678
0.302818
-0.00529297
-0.157486
3.80899e-05
0.00494236
0.411731
8.89537e-05
-0.0615685
-0.00182179
-0.0492988
-0.000656983
0.450431
-0.00921314
0.43779
-0.0025685
0.00721467
-0.0112344
0.000653024
0.383968
-0.00509132
0.00363189
4.73915e-06
-0.0885872
0.00494641
0.153385
-0.00440737
-0.000754405
0.192407
2.43347e-05
0.279383
0.132935
-0.000617959
0.289249
-0.0445507
-2.57486e-05
-0.00266102
0.000624836
-0.000995564
-0.00860217
0.346768
-0.0150619
-0.00128958
-0.0440182
0.00197081
0.366849
0.521512
-0.000515343
-0.00733243
0.00288888
8.60992e-05
0.387028
-0.00583774
-0.000727739
0.256286
0.132412
0.440833
-0.00644631
-0.00078517
0.301309
-0.00507263
0.00258945
-0.00171556
0.55338
-0.0313102
-0.00334764
-0.000871947
-0.00163983
0.549352
-0.00856007
0.630015
0.17371
-0.00264623
0.000811555
-0.0202128
-0.034548
-0.000253098
-0.00529898
0.541914
-2.45716e-05
-0.0190023
0.549706
0.000564513
-0.00631238
-0.000292157
0.000808972
-0.000295402
0.0164969
-0.010235
0.000962506
-0.0908093
-6.85337e-05
-0.000223692
-0.000196216
4.78387e-05
-0.0238469
-0.000226015
0.00107784
-0.0294188
-0.0148749
0.627461
0.0317863
-0.00701969
0.00260648
-4.29132e-05
-0.00476462
-0.000156711
0.119805
0.423875
0.000779056
-0.0227091
-0.00661114
0.0641741
-0.0026093
0.658751
-0.00158108
0.00126299
0.281536
-0.00310425
-0.000233791
-0.0120255
0.424761
0.000714156
0.408763
0.433397
-0.00473354
-0.0135372
0.506092
-0.00443139
0.00154503
-0.00994254
0.313265
0.120121
-0.0224055
7.69426e-05
0.52769
0.00093457
-0.00403805
0.00300706
0.0018656
0.602473
-0.00159801
-0.000122934
-0.00324151
0.232341
0.632052
0.419702
0.668052
0.000367994
0.590798
0.000107008
0.328486
0.00230236
0.000551115
0.179267
-0.0120014
0.105613
-0.000267169
-0.0162242
0.637392
-0.0111123
-0.0524235
-0.00201727
0.00116627
0.174378
-0.00180384
-0.00744429
-0.000223187
-0.0195362
0.000209286
0.644671
0.000232493
-0.00113522
0.0687685
-0.0951114
0.168257
0.402192
-0.000333428
-0.0996451
0.226442
0.454789
0.659569
3.61986e-05
-0.110223
-0.0994283
0.00140046
0.257523
0.288298
-0.106589
0.553969
0.123584
0.202327
-0.000896285
0.402819
-0.000253756
-0.000494545
-0.000126553
-0.000233171
0.000607789
-0.00154505
0.00116851
-0.000116009
-0.000862271
-0.00257245
0.000118534
0.278667
-0.039378
1.72827e-05
0.643084
-0.000506431
1.5015e-05
0.520742
0.65996
-0.00496804
-0.010535
0.500999
0.000786797
0.582591
0.0542107
0.000117263
-0.0523981
-0.02554
-0.00266526
-0.000736821
0.423907
-3.42694e-05
-0.000372319
0.561901
0.000667632
-0.00234266
-0.0359778
0.00046425
-0.00054432
-0.000345909
0.0460876
0.00129337
-0.000235366
-0.00364423
0.00120355
0.305285
9.89676e-05
6.71903e-05
0.00110544
0.543855
0.000657207
0.00157041
0.000173863
-0.0018353
0.526667
-0.0024106
0.125119
0.50282
0.000630446
0.606737
0.483718
0.00352947
-0.0528185
-0.000487204
0.000264978
0.582808
-0.00309394
0.00079212
-0.000158042
-0.00120126
0.00311383
0.000876157
-0.000425982
0.597879
-0.000135693
0.444006
-0.0151214
-0.0585846
-0.000163125
-0.0474908
-0.00158472
0.515294
0.525009
0.146317
-0.000622653
-0.021781
-0.0565318
0.164346
0.103103
0.265581
-0.0702814
-0.0438357
0.00216672
6.5157e-05
-0.000468974
0.00102796
-0.00112947
-0.000758469
-0.000945626
-0.000205695
0.00265661
0.005842
-0.00261889
-0.000484719
2.69395e-06
-0.000156371
-0.00143015
-0.000163496
0.706105
0.0944978
-0.00231764
-0.00348074
-0.00181374
-0.000126556
-0.000208729
-0.000790535
-0.000596011
-0.0173256
-0.000111549
0.00179376
-0.000377873
0.00112266
-0.00028245
-0.0028298
-0.023051
-0.00110911
0.54938
-0.0113532
0.431955
-0.023391
0.571165
-0.00775871
-0.00960398
-0.011689
-0.0134773
-0.013917
-0.0159356
-0.0166828
-0.000116156
-0.0177475
-0.0176009
0.521469
-0.0209843
-0.043222
-0.0218746
-0.000236834
-0.0595995
-0.00123094
-0.00015922
-0.00303987
-2.41941e-05
-9.79359e-05
0.0106976
0.00125513
0.212895
0.457522
-0.00280908
-0.00137667
0.00166627
-0.0040122
-0.001832
-0.00446166
-0.00058517
0.000261454
0.651902
0.00138774
-0.00683706
-0.00399189
0.00135432
-0.00159797
0.000531024
-0.00809166
-0.0023225
0.000669581
0.00372194
0.000288067
-0.000177294
-8.28739e-05
-0.00459907
0.00366902
0.000669732
0.000454563
0.00058609
-0.000180427
-0.000435789
-0.00161078
-0.000406043
0.000638616
0.000353246
0.00152285
0.511802
0.000419549
0.00110866
0.00156636
-0.00185423
-0.000359154
-0.000419187
0.333729
-0.00549098
0.483693
2.29967e-05
0.000432159
-0.000182604
0.417801
-0.0655601
-0.000402767
-5.6468e-05
2.22836e-05
-0.000558724
0.00020611
-0.0523956
0.000144616
-0.029795
0.000399647
0.000858145
0.0004409
-0.000197582
-0.00163563
-0.0355941
0.500541
-0.0206642
0.00103774
0.000147957
2.57383e-05
-0.0053565
-0.00016434
-0.0149473
0.00166181
0.00211077
-0.000627354
-0.00613508
-0.00130807
-0.095214
0.000369778
-0.000172393
-0.00156963
0.000336272
-0.000458901
0.00174363
0.00163124
4.1762e-05
0.586852
0.000300091
0.672852
-0.00434045
0.00156077
-0.00211321
-0.000172678
-0.000208523
-0.0213116
-0.000427588
-0.0648984
-0.00023879
-0.103614
-0.000906045
0.000231663
-0.000137464
-0.00406279
0.595441
-0.000187222
-0.0122824
-0.0025171
0.498295
-0.0234362
-0.0518944
-0.000211657
-0.108029
0.00254488
-0.108185
-0.0202187
-0.000335597
-0.0049734
0.62499
-0.0475876
-0.00280978
0.00225011
-1.0609e-05
0.437148
0.49471
-4.43612e-05
0.00124111
0.366393
-0.000142933
-0.00301634
-6.45029e-07
-0.000330539
-0.0217308
-0.01123
-0.116223
-0.012394
-0.000616475
-0.000181839
-0.000107804
-0.0457193
-0.0164549
0.296365
-0.0033313
-5.60487e-05
0.474985
-0.00578282
4.89049e-05
-0.0209452
0.00186327
-0.000802374
-0.00017166
-0.00980892
-0.000357206
-0.0104936
-0.00019065
-0.000511043
0.292735
-0.00285709
0.369337
0.571545
-0.00477593
-0.00530575
-0.0607438
-0.00289901
0.637122
-0.00397963
0.00100373
-0.000125594
0.445057
0.594469
0.263982
-0.0092023
-0.0105994
-0.000155319
0.000680999
-0.000345847
-0.000990407
0.00209058
0.407009
-0.012747
-0.000263618
-0.00226054
-0.000979919
0.0621163
0.422689
-0.0174088
0.00347249
-0.00114256
-0.000134838
0.000313582
0.576755
-0.00223673
0.000628165
0.000238613
0.00254057
-0.00475029
0.0688065
-0.00462691
-0.00732948
-0.0173566
0.000168166
-0.00306997
0.404334
0.000575406
0.000544859
-0.0057765
0.422366
-0.00144884
0.103709
0.510583
-0.000842899
-0.000125842
0.105115
0.371718
0.164145
0.302578
-0.0242915
0.000719862
-0.000502388
0.403435
0.00576182
-0.00198612
-0.0227429
-0.00433858
-0.0601601
-0.00867873
-0.00182022
-0.000526441
0.38137
-0.00257497
-0.0036477
0.522964
-0.00939033
0.494369
5.79196e-05
-0.00242289
0.469854
0.635517
-0.0143124
-0.00420928
-0.00355719
0.000351264
-0.002764
0.482821
-0.0054792
-0.0135351
-0.00217912
0.000361045
-0.000111376
-0.00294141
0.000312038
0.334428
0.00028127
-0.0121808
-0.00051212
0.0013606
0.000284425
0.216659
0.44115
-0.00638266
-0.00969456
-0.0122818
0.00033475
-0.00224673
0.00026144
-0.0119236
-0.0135727
0.252229
0.447925
-0.01523
0.229068
0.00143021
-0.0471414
0.000778961
-0.0154636
0.298094
0.186568
-0.0177575
0.00405722
0.459472
0.328915
-0.00277922
-0.000280315
0.000880122
0.585222
-0.000597821
-0.000221655
-0.000682902
0.000546566
0.000360612
-0.00161183
0.000609141
-0.00351391
0.129248
-0.0292993
-0.00022675