/*--------------------------------*- C++ -*----------------------------------*\
  =========                 |
  \\      /  F ield         | OpenFOAM: The Open Source CFD Toolbox
   \\    /   O peration     | Website:  https://openfoam.org
    \\  /    A nd           | Version:  7
     \\/     M anipulation  |
\*---------------------------------------------------------------------------*/
FoamFile
{
    version     2.0;
    format      ascii;
    class       surfaceScalarField;
    location    "38.5";
    object      phi;
}
// * * * * * * * * * * * * * * * * * * * * * * * * * * * * * * * * * * * * * //

dimensions      [0 3 -1 0 0 0 0];

internalField   nonuniform List<scalar> 
31093
(
588.275
-435.597
-152.677
271.163
43.2421
-314.405
946.705
-1137.56
190.853
-395.173
994.308
-599.135
-632.032
670.99
-38.9577
-687.194
55.1616
224.325
-43.3687
-180.956
588.001
-455.718
-132.282
207.24
-290.36
83.1199
76.0784
511.922
-89.4144
264.668
-175.253
-246.609
274.976
-28.3679
-231.689
-21.612
253.301
34.7137
553.561
620.937
-649.84
28.9026
-965.1
569.927
-291.683
354.575
-62.8915
-93.9807
-988.834
1082.81
-263.602
232.4
31.2026
305.701
-34.5379
-308.927
296.344
12.5831
0.351686
-246.96
-457.122
533.201
278.631
-334.482
55.8513
946.705
-357.878
90.5001
267.378
892.288
-976.246
83.9585
339.645
-145.864
-193.781
-175.272
-101.727
276.998
-117.235
-146.368
-592.234
740.763
-148.529
362.853
-310.943
-51.9099
348.556
-59.2443
-289.311
555.58
-294.208
-261.372
-717.057
780.437
-63.3798
-731.014
138.78
145.19
-354.566
209.376
932.372
-932.372
784.803
-344.631
-440.172
280.995
425.047
-706.042
2.22097
801.458
-803.679
-271.904
79.8503
192.054
-860.81
689.302
171.509
973.668
-81.3798
-133.24
-224.638
116.702
72.6213
-189.324
1089.35
-464.524
-624.83
320.859
-260.869
-59.9905
842.902
-30.4248
-812.477
239.067
-227.9
-11.1667
-787.758
70.701
47.4874
-755.48
707.992
-282.491
-149.704
432.196
763
-835.426
72.4264
157.575
-394.327
236.752
14.9869
-208.958
193.971
378.854
-108.62
-270.234
694.642
-751.235
56.593
-60.9093
-293.565
354.474
-54.196
-237.487
-663.13
431.324
231.807
-50.4663
244.934
-194.468
480.007
-482.483
2.47599
-178.212
-351.99
530.202
-697.69
828.144
-130.454
-714.58
107.038
607.542
514.24
-573.311
59.0709
-650.353
-64.2267
-163.191
-372.028
535.219
-140.255
-72.425
212.68
361.933
-555.149
193.217
331.389
-252.315
-79.0741
675.068
-54.1302
-270.171
-37.9108
308.082
1062.02
-554.465
-507.557
-77.2248
478.929
-401.704
331.557
-138.662
-192.895
-227.18
15.3632
211.816
907.344
-626.349
566.899
-832.608
265.709
632.431
-525.393
816.751
-194.249
-622.501
308.427
-98.0531
-210.374
298.708
-91.4677
134.155
-184.621
-592.373
-268.437
236.88
-282.438
45.5584
-61.9929
165.629
-103.636
-623.603
445.391
147.506
-305.425
157.919
-406.031
684.775
-278.745
738.978
148.789
-887.767
904.467
-130.155
-774.312
185.203
-302.196
116.994
216.924
103.935
424.214
55.7929
263.81
-78.6076
-779.282
789.554
-10.2722
-332.112
242.698
981.784
-886.829
-94.9546
279.67
-132.164
405.239
-416.262
11.0236
181.113
104.813
-285.926
470.644
-202.41
-268.235
1222.26
-1222.26
482.332
31.2647
-513.597
-41.0213
252.713
-211.692
-485.866
234.334
251.532
265.577
8.93566
-274.513
-251.241
-79.9394
331.181
38.7617
-214.033
183.324
41.0006
394.229
-108.952
-285.277
-265.478
-401.985
667.464
-574.931
497.706
-568.686
-431.378
-368.613
-169.929
538.542
576.62
55.8104
-312.363
-10.795
323.158
-1030.09
260.276
769.81
-170.786
909.764
55.5259
258.96
-314.486
385.816
-606.329
220.513
232.663
-362.862
130.199
131.82
423.76
759.633
-853.614
40.4058
184.23
-224.635
184.369
155.276
271.3
91.5536
133.063
-501.676
-31.839
-149.543
181.382
22.6662
216.401
857.733
-855.512
290.647
494.157
138.256
-347.632
209.376
261.457
960.798
263.161
-37.0763
-226.085
-279.488
-29.4395
-405.717
35.4611
370.256
99.8448
66.6894
-166.534
295.627
-240.101
32.052
-302.223
203.514
127.876
-295.588
215.059
80.5283
-551.445
66.1629
485.282
-97.5441
235.8
-272.309
94.0169
178.292
-94.4467
-222.91
317.357
-24.1942
299.441
-275.247
-764.99
-211.257
127.418
-221.864
191.302
971.736
-67.2689
-229.576
-53.5673
283.143
151.023
665.728
-238.354
-33.9541
-734.114
141.741
83.7738
194.857
68.2219
-159.068
90.8462
-9.48146
-222.208
-197.539
355.114
-245.746
202.378
-36.3726
-415.174
-136.271
-191.587
-665.031
856.618
-171.155
109.162
345.568
59.6706
287.755
20.6722
445
33.929
-327.535
472.725
338.795
-75.634
-198.529
-118.958
317.488
-4.63995
-188.723
193.363
398.301
-442.706
44.405
105.203
111.17
-216.373
20.9417
327.614
-571.878
509.285
62.5932
-546.511
-26.281
572.792
-447.288
-127.643
-27.9885
215.623
-187.635
30.7567
-200.799
170.042
735.582
196.79
331.365
70.014
-401.379
-80.8585
201.137
-120.278
267.369
38.3317
227.199
-123.91
-103.289
587.351
-225.419
27.583
954.2
158.281
250.999
104.131
-355.131
279.897
-239.491
270.497
-400.192
129.695
66.7391
-953.568
-597.239
434.048
216.634
-148.412
-9.98269
273.379
-263.397
66.05
265.315
-20.5507
300.365
-279.814
325.521
-58.1518
14.9738
236.025
275.773
-386.574
110.802
-72.7323
328.953
-256.22
-484.901
185.47
-361.615
176.145
255.397
-400.386
144.989
-311.588
284.435
27.1528
-9.95653
-327.341
337.298
773.311
-725.824
197.027
-182.04
619.726
-635.005
15.2784
415.679
98.561
-863.368
535.83
327.539
-38.9377
303.364
-264.426
-84.9342
-150.305
235.24
-279.23
574.344
487.679
513.91
-513.91
-516.746
-513.34
-255.05
-230.816
899.399
-608.752
-2.29525
266.96
-264.665
-181.155
-245.809
426.964
101.782
137.983
-239.765
507.669
-913.699
-325.957
246.017
-12.7187
-392.998
352.056
-362.012
-1068.64
499.95
-485.243
485.243
-641.3
-6.59745
647.897
634.377
-248.561
308.513
128.485
-436.998
-316.113
275.091
-218.148
209.232
8.9155
-520.717
818.604
-297.887
307.085
-70.205
573.26
-90.9283
-418.872
220.342
192.893
70.9175
-635.179
454.023
216.358
-355.019
88.0743
-173.009
240.692
93.2861
-333.978
353.036
-120.374
-975.83
-246.426
621.989
-45.3691
-61.5016
280.712
-219.211
556.349
-459.123
-97.2258
-74.2265
769.776
-695.55
-53.2254
896.128
263.834
1.74306
-86.2936
188.076
-61.3161
528.947
-467.631
-542.72
198.088
-164.559
10.036
154.523
-125.194
433.707
-50.7774
236.827
-186.049
-58.57
-213.334
193.323
-93.4783
-77.5478
194.25
21.9915
-250.376
228.385
35.2937
455.521
-490.814
710.471
49.3833
-759.854
285.436
21.6483
-82.0769
-163.669
-114.474
10.6284
256.773
-267.401
33.7024
360.527
222.482
-743.2
325.411
-193.478
-88.9596
122.532
-820.651
698.118
69.1326
-376.66
-196.651
-296.875
228.581
68.2944
-354.695
-308.435
567.779
-999.157
235.708
-48.9261
-186.782
-34.192
217.615
-183.423
-1037.38
330.449
706.93
-48.051
381.529
-333.478
324.484
54.3707
-255.759
114.023
141.735
357.303
-82.6563
-274.647
384.559
-114.062
-191.453
296.266
289.601
-215.09
136.756
-170.948
-82.8271
593.262
-510.435
750.871
-183.971
-122.582
-333.981
456.564
854.022
-731.49
239.787
-229.158
-29.8201
-297.715
-537.165
72.2424
90.1894
-162.432
344.883
-52.5936
-292.289
-85.6061
191.444
-105.838
376.03
-100.258
-92.8927
-366.843
459.736
7.66319
843.927
-851.59
-776.571
803.873
-27.302
-242.221
75.8421
166.379
-753.96
439.85
314.111
48.2297
-165.464
-2.38707
176.863
-174.476
-261.96
262.312
6.29236
-231.2
224.908
222.92
-7.29646
148.558
-529.519
380.961
231.787
-209.795
-40.3006
-186.879
-56.7293
529.454
324.686
-42.1357
-282.551
-733.857
741.52
-474.393
342.01
132.383
440.727
-307.664
471.719
-861.934
390.215
-313.614
-80.7135
-726.612
28.9219
-165.64
-90.1181
-645.583
631.471
14.112
-182.869
351.84
-168.971
314.704
324.332
262.739
-170.256
-92.483
284.571
-269.65
-464.464
-209.096
-93.1004
269.592
-179.385
-90.207
-527.785
-9.04095
536.826
201.186
-95.9833
1006.22
-1006.22
433.595
-492.443
-544.936
150.04
209.626
-359.667
-453.863
424.043
-332.173
294.262
-326.135
432.434
139.596
-572.03
50.6836
712.316
546.73
-114.297
400.527
-570.456
97.321
225.659
-322.98
-211.066
-228.341
439.407
269.218
78.8789
-348.097
-297.37
-544.655
842.025
492.018
-757.496
358.774
7.84235
-366.616
-988.834
417.752
96.1578
245.676
-250.316
300.936
-361.845
-37.7326
156.276
-118.543
16.1392
-261.848
-254.72
11.8653
242.854
227.882
41.7102
276.746
-357.604
227.446
-93.2916
-512.448
-170.866
-134.559
-391.484
-362.476
-943.367
-172.581
1115.95
-496.186
942.541
-446.355
-143.116
-19.7181
162.835
-668.431
636.685
31.7455
-250.596
343.316
-92.7207
265.421
290.928
2.38976
-211.348
874
-912.556
38.5561
445.535
-107.471
187.321
-385.67
190.733
194.937
-231.622
44.5143
187.108
-492.431
-35.3541
135.368
-243.988
310.894
-70.2015
-1089.39
897.802
-522.819
461.503
-128.205
248.502
-120.297
-74.3809
387.392
-313.011
372.196
-318.921
-53.276
-391.649
46.7713
-211.33
-288.764
679.932
-391.168
-70.7865
-261.325
-67.2723
426.046
4.43576
192.283
-196.719
899.118
190.237
-339.551
-46.1195
188.791
183.405
-372.681
-456.304
828.985
-827.705
363.18
449.931
-951.784
501.852
84.9397
-415.486
330.547
-287.75
202.144
-12.9122
468.433
-169.547
-192.068
-460.49
149.547
615.981
6.00856
23.4984
212.21
428.832
-100.139
-328.693
-112.574
-87.5889
200.163
125.972
204.125
-262.695
9.11481
-118.511
-59.8708
178.382
-386.618
-19.7027
406.321
1.20556
283.853
-285.059
-103.018
493.47
-390.452
-412.003
347.631
-78.4133
-898.874
824.648
359.533
-328.268
-90.1414
-310.051
-91.9531
-294.621
-655.322
-123.959
-513.237
267.054
246.183
-289.286
36.9703
-111.681
127.896
15.3391
192.214
416.274
-608.488
29.6901
-273.215
12.3459
-5.68817
306.053
150.925
-259.877
-50.3231
-247.598
297.921
-810.679
796.251
14.4279
230.781
-252.459
21.6785
362.279
537.12
294.634
-377.29
-21.1171
306.553
-724.603
694.178
288.652
-211.611
-77.0409
293.757
-20.3779
-190.429
-166.609
-315.185
481.794
-214.048
-97.5404
318.032
-370.626
453.574
-546.467
119.962
75.4857
-195.448
206.522
-128.717
-77.8055
278.097
-650.778
149.649
-521.677
248.283
-93.1882
-155.095
47.6111
-812.601
-434.669
310.465
-352.601
-569.393
654.333
-482.664
67.4898
368.31
-665.68
155.008
-252.552
97.5444
-850.293
897.904
-30.2417
-7.03361
808.491
-217.441
216.198
1.24263
-314.87
197.796
117.073
-229.348
-171.038
-58.2595
427.844
-369.585
555.452
-638.279
48.799
-232.929
184.13
177.468
-128.669
297.411
81.4933
-264.362
175.776
17.5474
-145.905
766.88
107.12
-454.941
186.707
-240.068
174.464
65.6033
198.612
-249.39
-3.83799
191.347
-187.509
-310.647
260.324
-221.734
-16.1345
237.868
-511.923
389.341
172.099
-196.293
-580.784
-64.7994
614.977
4.74908
-275.759
-225.917
193.769
-76.7312
-117.038
-118.697
-102.253
220.949
135.704
-211.141
75.4369
-76.6435
289.933
-213.289
-225.464
212.348
13.1161
-194.365
-31.0997
324.579
104.253
977.563
-716.106
-288.482
-317.729
246.942
191.52
33.0504
-224.57
-981.54
804.497
177.043
-395.757
168.871
226.886
-505.16
-122.653
627.813
-158.916
-806.184
13.1002
-299.026
-471.694
451.991
-100.029
-214.84
232.059
-14.4444
659.956
-102.533
-557.422
347.141
-450.158
-159.247
756.285
-597.039
-215.667
-224.533
440.2
-285.382
269.217
16.1644
5.94834
-77.8358
213.54
-100.387
-196.489
-526.002
12.7646
-16.1408
-90.5902
-744.836
41.0055
-432.214
-221.277
102.58
-290.457
188.731
698.963
255.774
-309.341
163.669
63.5292
-309.123
14.4565
294.666
-266.329
34.7071
-36.9596
-996.97
778.596
218.374
-18.4767
227.709
-115.898
273.817
493.136
-524.278
31.1419
-281.968
-192.425
-360.85
396.311
-36.4644
156.908
-120.443
963.014
-800.435
-162.579
20.0975
-532.893
512.796
-6.47566
-163.509
169.984
-179.289
-109.997
487.748
-63.5339
-237.274
502.695
-559.854
122.335
437.519
-183.06
273.56
508.046
-355.421
-152.626
294.841
8.28411
-303.125
-276.277
214.775
659.003
-86.3837
-572.619
437.024
-244.81
-433.574
389.859
43.7153
286.527
-5.81505
-250.18
-58.9429
-180.25
56.3398
199.948
-500.752
67.0544
433.698
-263.39
261.095
-350.128
351.334
-334.106
-67.4907
-417.752
-459.152
400.893
-530.618
1001.8
-471.18
-132.322
95.8577
-176.902
-218.856
488.457
-50.3038
-438.153
-17.3726
-298.76
316.132
-505.987
563.469
-57.4819
407.907
202.881
-100.128
-102.753
163.935
-240.579
197.296
-201.134
-305.325
125.94
423.378
-403.281
-11.4346
-273.947
82.6756
-904.032
904.032
130.338
3.04541
420.356
-423.402
-169.688
185.529
-15.8413
-524.983
313.916
-426.191
70.0133
356.178
43.3061
150.463
-487.541
369.116
118.425
-239.1
436.656
51.0914
308.482
42.0814
-350.563
342.45
-83.4906
-434.917
-24.2054
117.236
-361.723
287.342
330.23
-222.152
-108.078
-53.3198
145.564
-92.2444
-943.367
-298.958
-215.591
119.181
96.4105
-296.3
237.055
-432.714
-519.07
251.746
526.575
-778.321
-144.413
-531.958
676.371
-449.068
173.31
-17.9347
193.71
214.209
-16.9124
-657.341
640.515
16.8255
80.734
356.29
298.494
-69.0106
-229.483
-97.6791
-526.562
624.241
-577.148
812.121
-234.974
-572.332
59.4717
-787.569
186.365
601.204
-980.895
413.44
567.455
-288.783
-271.07
-123.995
483.528
-968.578
437.96
-675.531
814.369
-138.838
617.041
-714.72
-212.182
250.993
-228.327
124.31
-799.841
-164.184
-694.34
858.523
672.284
-13.281
501.307
326.836
-58.6327
275.557
-116.18
96.4617
-117.124
191.262
-543.252
254.44
-227.301
-27.1395
-136.938
321.441
-184.503
-187.092
-86.1232
523.673
-30.5367
-290.837
273.464
13.2304
623.455
-703.902
-650.554
-255.675
-245.078
41.8333
222.834
18.6909
440.406
-459.096
-369.338
351.564
17.7743
-141.576
156.939
561.643
440.155
-352.123
-192.916
545.039
193.173
-247.369
-82.2186
285.732
-72.5534
-353.638
195.875
-232.951
-236.876
317.61
202.849
-130.228
-460.739
-520.156
-296.135
-12.3951
308.53
-287.258
163.435
123.823
-174.083
178.519
-200.855
-86.4029
225.843
-219.551
249.41
-282.725
33.3156
271.994
-61.5058
-210.489
-805.195
646.278
-310.886
-303.535
52.9393
-296.808
304.651
273.001
-102.269
510.177
190.664
-52.6808
284.132
531.216
-815.348
-193.942
166.18
40.3429
-577.169
410.56
-954.856
289.825
304.032
-800.217
-473.123
-73.1321
546.255
-541.209
469.441
71.7684
281.635
-211.838
42.15
-638.827
401.552
-13.4622
168.47
-321.272
339.963
154.744
-510.165
-140.417
-37.7105
230.603
-7.71941
276.937
271.058
-86.5433
197.714
771.807
-2.03151
301.931
-288.458
-13.4736
-240.023
-107.609
-114.023
-34.8124
265.593
688.621
253.92
79.8203
193.997
336.175
-119.818
-81.0006
289.215
-208.215
-425.766
91.7854
495.066
-230.507
-264.559
287.409
-295.129
-16.3903
-674.26
690.651
225.697
-835.002
443.353
-241.243
40.5146
-323.065
-92.9489
-388.272
481.221
-125.292
135.328
260.658
-319.291
290.445
8.99691
-876.065
329.554
53.5595
-345.849
-725.888
-523.005
-458.535
237.167
79.1388
-353.785
250.488
-332.706
160.674
87.6093
126.305
-222.084
95.7784
-499.014
132.171
512.824
-924.827
-170.632
93.9011
458.402
26.8404
-574.8
-422.171
17.965
-598.749
-3.46971
298.31
-97.3809
375.665
-278.284
-125.747
-90.6264
129.217
-195.352
-83.8778
-343.377
377.079
-223.256
-55.3782
278.634
-64.4732
227.908
-297.926
-260.057
242.083
17.974
43.8134
-249.444
289.958
370.949
-39.7714
-329.567
-22.6823
235.03
204.085
-29.0776
-175.007
-106.737
-466.923
53.9566
412.967
-291.822
-135.976
427.798
157.354
-210.674
314.217
-262.108
96.468
-196.315
-124.956
321.271
790.433
329.627
-41.7004
-210.068
251.768
-18.9708
-522.238
-296.135
-742.808
369.493
373.316
2.10626
-296.314
-4.24668
275.546
-11.7486
227.947
254.96
-339.312
84.352
-475.159
-122.079
-551.166
209.466
341.699
210.05
27.8185
237.879
323.509
-621.85
298.341
218.139
-420.054
201.916
-362.319
387.549
-675.802
288.253
942.987
-915.404
-751.809
463.045
-407.323
-115.033
522.356
177.468
124.463
-333.15
562.556
-378.025
-184.531
390.758
-197.585
-825.111
247.964
250.777
244.289
-239.52
60.2308
378.873
-103.781
178.758
-180.269
1.51054
233.288
11.6458
588.447
-614.728
-511.9
203.45
308.45
73.5615
-339.676
-154.338
494.014
92.3407
378.489
-182.614
265.533
59.9885
-467.73
185.762
287.672
146.241
-433.913
122.63
-250.835
-162.401
-229.322
-206.275
-360.208
16.8318
-28.5513
-628.789
-37.8703
232.982
-195.112
-325.499
172.611
152.888
-365.809
-94.8878
460.697
-237.563
-88.3936
187.223
16.8617
-317.647
81.3646
168.396
113.16
-281.556
-275.049
-138.982
414.031
-363.241
-291.897
272.086
19.8105
149.354
-366.15
216.797
150.485
-254.908
104.423
-35.7247
-84.7286
-295.002
379.731
-390.708
221.161
211.728
-441.05
-281.644
136.947
144.698
-467.986
152.802
35.1598
-440.504
405.344
-196.936
-63.1218
161.095
388.903
-340.042
-48.8616
-212.941
203.42
9.52093
-258.766
139.811
118.955
-108.424
-131.644
-287.729
-116.311
920.808
-215.465
-34.9115
287.029
-486.459
294.035
137.85
-343.328
205.478
-380.445
-116.756
497.201
-471.956
-215.237
220.655
-29.1351
241.935
690.078
-706.468
-48.9554
-272.522
321.477
82.865
-711.661
628.795
216.223
98.9065
-315.13
314.856
-105.229
-218.483
231.584
-363.609
-49.3012
412.91
-710.523
39.2949
671.228
-460.287
-174.892
-64.9459
-285.182
522.715
-4.21696
-774.488
-19.7699
794.258
-169.723
523.482
-353.759
-193.179
477.311
178.009
-517.685
334.104
-108.445
86.5845
442.362
-425.928
428.973
-335.166
-140.322
475.488
-523.756
50.6325
326.814
15.1966
52.2126
-270.696
268.529
-58.9105
-209.619
-99.7513
-108.469
310.613
-86.3152
-275.408
72.3325
201.227
-301.571
-101.412
402.983
-290.56
355.329
-64.7691
-86.4008
285.013
-345.671
-131.902
477.573
-266.165
133.219
132.946
-143.038
-15.2186
41.6569
-652.721
611.064
-181.252
-252.322
-273.661
-255.858
-336.889
-97.7804
-217.304
-81.3746
298.679
415.325
639.69
177.63
-264.676
87.0456
147.43
506.903
239.008
29.521
202.895
-255.007
52.1127
-362.783
-149.14
-530.998
-77.5157
362.086
-179.738
316.781
-35.1461
626.494
-172.471
-4.50157
230.345
-241.442
279.783
-38.3409
713.655
0.238158
287.171
-602.051
492.384
109.666
230.341
68.1525
199.064
-45.7602
194.145
-328.704
104.813
-329.45
19.8442
-354.904
357.448
-2.54354
116.356
-219.992
175.759
24.8183
-320.447
318.506
1.94116
252.348
-307.726
249.252
-20.8672
-337.472
-116.391
-47.3647
239.418
11.8852
242.555
301.202
6.87991
-364.322
-138.36
502.682
-77.0841
-150.816
-198.415
-34.5139
88.8087
236.602
258.483
-293.295
300.617
-58.2994
-236.846
244.758
-7.91203
-1060.71
707.374
353.331
-423.913
132.091
295.229
-4.10502
-291.124
-69.5054
356.847
577.487
-182.76
-37.3537
220.114
-37.214
-224.746
-262.435
-64.7018
327.137
-285.587
-62.7943
348.382
-70.0076
-510.134
-91.9164
-797.93
785.557
12.3723
71.2282
223.782
-295.01
49.2408
286.536
-185.211
484.453
-299.243
-239.179
-78.5494
-433.081
111.277
-237.024
171.655
-261.773
-328.634
-110.439
439.073
-90.2257
421.784
-331.558
-384.013
-87.6808
-249.181
-70.1099
2.08811
-430.533
-92.2859
-199.232
683.48
10.4538
637.146
-647.6
-197.799
48.2557
230.271
-815.698
585.426
180.114
-409.462
278.887
-26.1745
117.269
-1020.34
-244.089
-88.6177
437.926
-4.33151
-475.333
-403.317
-110.28
-657.394
213.068
-422.993
209.925
25.5124
264.42
-326.339
-63.9186
390.258
13.5479
-294.042
280.494
830.086
-116.431
-492.062
479.149
-59.2743
-715.214
-60.4759
411.809
-846.735
783.355
295.664
-475.09
402.537
-95.8206
-115.79
199.041
169.246
-368.287
-438.223
-247.938
183.811
19.134
-202.945
-221.491
915.575
31.1302
-991.987
559.773
-225.635
-98.4441
324.079
728.807
30.8258
332.641
-86.6238
371.837
-355.005
-401.853
406.154
-4.30091
331.66
-325.733
-5.92722
341.146
-99.2112
-19.2452
-413.446
-119.447
-244.211
-115.456
-215.104
-107.876
-608.093
794.313
-186.22
-207.12
6.26426
-196.357
-391.285
-462.598
412.294
92.5477
-287.9
-132.623
-112.431
245.055
-42.9058
388.245
-345.34
311.926
-51.6022
219.697
-72.1514
-147.545
86.3985
-249.907
121.484
168.118
320.554
-104.331
-309.171
-113.467
217.402
529.416
-140.076
26.2402
-773.538
747.297
-299.455
122.144
-208.688
-30.2672
-42.736
305.048
35.1487
771.704
-699.277
856.407
-110.857
-745.551
376.201
-74.6125
-301.588
127.823
-248.12
-90.3239
507.28
-416.956
-233.481
-56.8798
22.3604
-734.021
414.384
-107.359
-290.535
284.372
6.16292
-196.66
-76.6093
273.27
201.904
27.5965
-229.5
-36.3984
-121.174
-452.063
-608.643
-427.438
202.147
-19.6813
-227.657
-23.6072
249.305
58.3636
-538.564
480.201
-292.18
247.423
-424.324
185.885
-377.953
697.031
-323.163
67.7723
-268.143
200.37
-112.136
302.869
561.825
-161.298
-234.301
-143.794
228.311
867.632
86.5682
-308.53
229.923
46.3189
725.385
-11.1864
189.944
-323.056
-93.2069
363.677
-53.212
-460.36
-529.166
156.785
372.381
-150.796
-509.69
660.486
-567.286
1012.82
-723.998
115.905
-485.993
-302.486
293.882
90.6764
-914.35
64.3053
850.045
-359.57
380.662
-62.6294
-11.0306
363.086
342.228
13.1006
232.516
-197.498
-35.0185
-323.551
102.06
-194.063
-18.8779
243.366
372.333
-77.6998
621.273
-108.478
300.911
75.1196
556.81
-103.236
520.324
-104.05
259.988
-40.7074
-219.28
400.577
-478.081
-321.31
799.391
530.651
-263.596
-303.121
-556.872
80.4743
476.398
319.379
-72.4369
-711.308
677.38
33.9275
527.454
-75.4628
-28.5813
634.946
-606.365
-326.508
265.002
291.341
51.9749
439.364
107.366
-387.886
221.105
-36.9752
319.277
-7.35106
-438.301
-129.219
-31.279
592.55
321.002
-315.38
-5.62185
-524.352
49.1925
-393.403
-333.592
298.445
53.4578
328.071
-303.705
297.223
-32.2213
-144.287
-255.138
-245.586
6.58093
239.005
-401.502
-112.408
-36.0585
547.443
-38.1578
-4.55001
472.983
548.955
-26.3642
-169.879
-273.619
334.528
-60.9095
-93.7123
246.953
32.0536
-743.362
-302.434
-214.674
359.46
-391.478
-67.674
451.55
622.894
221.304
-844.198
-141.748
542.3
-127.917
333.974
-253.018
-80.9552
-108.945
-597.956
-189.613
35.6842
209.824
132.404
-129.728
234.151
-264.281
-269.816
303.948
-34.132
242.883
315.587
-439.582
700.354
415.594
-265.235
333.295
-68.0597
-248.151
-479.583
-210.594
837.446
18.9613
363.965
-44.6877
-941.178
26.8278
356.066
-79.3204
-745.426
16.2826
-326.333
633.946
206.149
-86.187
-88.4042
12.5134
294.04
-361.767
4.02553
357.741
-209.094
-124.885
238.986
-110.782
-479.131
-98.0381
500.867
-90.3064
365.443
26.704
-321.325
-83.4075
-107.102
-518.505
374.092
-117.616
652.762
-630.401
-294.818
374.673
-79.8552
-225.875
38.7838
281.146
22.2178
-443.897
-480.93
-426.176
972.293
-469.877
-502.415
541.078
-79.5748
-532.604
-106.222
-61.2592
17.9768
517.035
-115.483
-15.9831
57.1028
175.879
-243.247
-211.694
41.0774
-69.7151
558.784
-124.736
-403.756
-361.439
309.529
262.975
2.61798
426.759
-61.3156
-51.0184
-148.213
-175.986
-305.528
31.5809
80.5688
-278.984
441.026
-652.282
588.274
-86.242
-502.032
758.779
-726.725
399.549
-40.0889
-274.371
-305.605
41.1926
550.871
-99.3211
-758.279
784.52
214.565
-0.814588
-213.75
-119.26
211.808
464.929
-64.0362
570.941
-125.55
-280.011
280.25
-106.412
-109.179
-199.222
233.335
-34.1133
-96.4161
273.884
301.451
-45.6773
-61.4705
249.989
-473.454
-277.78
271.984
-236.111
-35.8732
-385.232
396.987
-11.7548
-17.6137
-98.7008
287.492
310.225
-312.985
2.7599
-257.33
-119.978
-1.72425
158
-319.66
421.041
-42.9589
787.094
-744.135
-507.995
354.104
-38.5171
36.3032
343.927
13.8361
-357.763
7.17709
382.681
207.078
482.224
38.4528
473.033
37.1438
356.482
-48.0003
-43.0069
245.902
222.876
66.3393
-856.475
866.928
-303.575
282.784
20.7911
-548.774
247.262
2.72738
760.489
-563.905
-196.584
259.426
-181.988
-77.4387
433.376
227.681
31.2848
492.388
-197.608
617.203
-419.595
73.406
-51.5717
846.231
-794.66
-395.894
311.165
476.19
198.878
232.692
2.33813
225.474
-176.555
-490.804
667.358
41.7366
207.515
64.2355
-557.238
571.233
-508.64
794.586
-272.341
-522.245
-306.623
-178.278
34.4032
271.281
0.805632
-227.224
-260.317
-341.768
-485.937
2.55832
184.825
-187.384
292.146
264.343
184.883
-792.43
768.489
23.9413
-1.73439
408.242
-457.07
48.8278
290.278
48.6474
6.57409
758.075
-764.649
99.9163
234.612
26.5618
94.384
-291.059
304.015
-12.9562
-893.756
-49.6103
193.906
-128.449
-491.034
619.483
-291.847
818.422
-138.529
-408.185
-116.167
-560.539
134.213
359.801
31.0359
-253.185
-26.827
200.25
-143.147
15.55
855.512
48.5194
-14.366
301.537
472.399
-356.543
-115.856
-626.251
258.828
367.423
134.899
175.714
374.014
-347.804
239.726
147.525
291.548
229.722
235.346
9.4115
69.763
-483.787
414.024
808.655
-246.225
-562.43
188.655
203.128
-391.783
324.555
401.822
255.424
3.82091
-626.346
-306.026
251.084
-889.694
367.536
51.3947
-439.667
79.0554
-636.295
-97.7262
244.872
-357.549
370.471
556.103
-568.236
645.111
-76.8754
-10.4659
370.993
413.186
-312.526
-42.3883
174.667
-132.279
-303.178
294.307
-17.3703
649.41
-345.999
-22.6505
376.194
-353.543
68.0501
-181.041
229.512
-48.4709
-253.11
233.667
19.4424
281.913
512.674
164.102
-401.943
412.685
-1082.81
1089.39
108.851
-10.8093
448.504
180.802
-58.6579
415.628
357.349
214.13
21.1094
252.753
364.213
-25.9175
-338.295
-649.581
648.851
0.729911
228.923
194.757
-9.93178
501.709
-431.946
-210.677
766.779
272.669
82.3966
240.855
-360.673
-177.324
26.9515
245.032
744.527
-149.578
-594.949
-848.665
915.404
314.623
357.865
211.876
-215.981
554.155
-992.378
425.909
329.782
293.763
-37.216
473.977
291.252
59.5817
-416.835
357.254
-232.998
319.089
-13.3259
4.64965
-824.315
694.16
809.32
-192.279
333.461
250.046
94.4877
339.535
-20.1385
-319.396
269.138
274.995
300.848
-187.484
87.3563
-272.29
281.797
-9.50623
421.037
-526.147
-252.174
-2.34839
216.479
434.516
-572.876
-275.313
22.1281
458.585
-116.22
-249.852
366.072
-335.271
-193.895
634.53
106.233
426.347
-943.672
517.325
-459.612
417.853
41.7593
-2.97268
252.283
-249.311
349.423
-281.373
259.881
-236.986
-22.8955
277.653
15.697
-196.738
-850.293
62.8805
332.664
-395.544
-32.7579
723.8
-691.042
322.707
-295.557
-27.15
-445.657
451.494
277.862
-242.713
-400
978.681
-578.682
282.508
-13.8809
197.692
535.911
464.089
-202.871
206.358
13.054
-219.412
-27.8973
398.153
-593.596
33.6147
559.982
201.086
270.729
-340.839
-13.59
-371.642
-915.575
864.004
-497.585
1033.5
336.315
-59.4621
238.238
-1.85465
-236.383
488.844
-434.887
67.0484
-719.769
-459.428
-0.184836
-256.126
317.851
-469.467
-499.111
298.769
-18.9395
-279.829
-960.004
443.258
-797.93
155.938
32.1059
-188.044
29.6759
599.12
647.957
-633.845
-288.916
820.133
-95.6076
223.483
391.648
-531.288
139.641
-134.865
358.898
-224.034
-704.095
750.414
-385.814
244.578
-223.56
232.732
-9.17153
-275.665
702.013
313.617
609.692
27.6995
-785.979
-231.802
263.109
-351.727
-57.539
-229.102
240.968
-897.904
981.863
175.766
39.2753
-215.041
263.11
-273.698
-83.9057
24.1087
400.678
209.03
-609.709
502.771
-902.771
489.637
-66.2583
-221.57
-2.18672
223.757
-114.104
-191.424
-264.365
53.8762
-166.838
-135.385
302.568
291.924
-264.972
-117.778
-316.001
433.78
279.941
288.581
-17.7018
-293.201
310.902
-690.812
16.5517
857.733
-893.756
942.987
-975.83
960.798
964.399
-964.399
-848.665
-1020.34
241.924
-210.888
-242.971
-216.445
-186.28
-1.22918
737.109
-955.869
218.76
-866.928
9.98519
-280.22
190.532
-34.594
-763.451
791.15
228.027
-6.93684
-221.09
-259.934
273.481
-11.9807
-249.974
261.955
248.967
-14.3168
-234.65
201.657
-228.797
-23.7708
-253.684
277.455
-188
200.863
-12.8633
249.88
281.067
-347.041
406.623
103.418
-180.396
76.9783
-369.723
-583.845
-194.278
207.672
-13.3947
-419.73
-84.2024
503.932
193.819
-174.685
40.0759
201.881
-26.1154
-349.36
241.752
464.391
-93.9198
199.076
462.517
-54.2756
326.225
-400.132
73.9067
18.5229
-636.989
666.665
263.223
-460.831
-783.704
730.277
53.4272
480.789
497.892
45.4818
418.909
-240.481
265.994
-73.1091
-710.595
249.638
-348.083
719.638
-905.858
321.111
-725.247
404.136
126.218
264.571
-206.282
-58.2894
-54.5329
-387.131
-868.202
592.537
-1.68343
256.914
3.23798
-312.699
309.461
15.7726
-52.4273
235.42
282.246
-37.2133
185.772
-58.4079
-127.364
738.694
20.085
272.984
301.237
6.58549
178.805
-230.151
51.3461
252.672
-299.743
296.274
-303.735
-203.3
217.677
-14.3772
74.7556
-494.486
255.484
165.557
-87.8146
824.924
-594.668
410.137
550.641
-645.595
234.388
-342.833
313.475
-448.34
204.714
-320.17
218.257
-190.66
-337.732
232.503
-189.265
-7.16847
196.434
232.903
-340.779
368.769
-266.553
-102.216
-6.3448
486.546
-442.481
-560.378
1002.86
-739.519
653.136
-50.6643
-320.738
371.402
21.381
59.2724
-312.289
308.042
-267.525
-7.78817
204.799
63.2964
-268.095
-189.345
-233.648
-309.747
223.768
-209.243
-14.5248
-312.699
-413.597
413.597
185.803
-657.759
186.82
168.294
309.461
727.467
-235.083
-41.8764
-645.623
687.5
526.488
-88.9689
235.265
-364.381
315.426
397.482
242.777
4.37224
232.77
-172.568
-60.2018
-31.2021
-686.842
686.842
-177.564
-387.032
-98.3468
-138.677
207.155
20.2908
-157.468
228.386
-422.914
478.707
-179.757
-198.195
704.988
-489.586
-215.402
-136.03
-112.09
527.963
-147.002
-84.7342
-40.8813
-490.886
531.767
-500.581
-287.177
512.052
-19.664
-17.5925
-734.101
557.547
-457.976
-65.7794
767.816
19.2777
230.877
-112.968
773.707
-660.739
98.5909
828.78
683.176
830.867
147.031
-219.183
-386.157
-73.2709
-233.319
250.255
-226.548
49.4847
-199.416
-897.858
41.4228
856.436
28.4395
402.884
813.474
-261.176
246.204
14.9723
1066.48
-542.416
-524.06
-169.018
3.02267
476.127
203.175
-36.9952
290.277
254.762
428.248
-772.056
956.326
-184.27
-369.579
8.14059
231.261
17.4116
666.069
-87.8272
-215.748
-198.003
-228.172
218.673
92.3856
635.082
689.868
-731.745
91.3406
-795.436
22.7724
654.608
752.331
-849.652
97.3209
-627.508
535.74
91.7679
627.335
-563.601
-63.7341
-446.448
521.204
58.2128
-115.327
-113.74
229.067
155.183
305.818
-585.205
410.313
192.212
-192.212
-198.9
218.855
-879.221
436.74
-669.168
540.719
-556.872
856.475
-944.289
23.6891
-238.089
204.01
-197.543
-211.919
-251.511
20.2029
356.876
34.9779
341.223
-351.014
-365.405
39.6725
403.087
-666.684
-55.3393
-726.765
782.104
207.904
-284.513
55.2608
142.278
-254.709
-623.499
655.245
-179.557
-82.2155
8.27101
551.145
128.786
-308.256
-25.3355
-455.139
957.91
864.24
-864.24
332.834
43.3597
9.72797
463.255
-761.466
17.3311
651.316
15.3498
80.4616
417.659
-498.12
214.292
302.322
-4.0122
9.12187
673.284
17.3665
-830.174
640.561
195.498
303.197
-498.695
-810.235
537.894
210.741
-412.973
19.0231
-649.425
-194.208
-54.0812
248.289
-114.936
223.45
-108.514
15.3458
44.61
355.687
40.6243
-200.452
17.4863
-250.007
511.553
659.927
63.8726
12.483
134.464
-117.109
-177.901
196.209
387.341
-495.915
-707.851
-64.2048
-196.714
-466.914
-476.758
-274.128
-360.877
624.689
-515.023
6.69524
798.566
-805.261
318.57
50.199
392.239
-59.4054
621.089
-56.4654
-564.624
313.941
-19.679
-573.941
-101.948
675.89
-2.01539
-237.476
-585.856
413.385
-189.607
-38.3352
227.943
244.211
611.337
66.3108
-214.128
-114.576
24.4575
202.998
-546.134
638.52
194.04
3.65125
-199.627
395.861
-196.234
297.087
-856.819
559.732