/*--------------------------------*- C++ -*----------------------------------*\
  =========                 |
  \\      /  F ield         | OpenFOAM: The Open Source CFD Toolbox
   \\    /   O peration     | Website:  https://openfoam.org
    \\  /    A nd           | Version:  7
     \\/     M anipulation  |
\*---------------------------------------------------------------------------*/
FoamFile
{
    version     2.0;
    format      ascii;
    class       surfaceScalarField;
    location    "34";
    object      phi;
}
// * * * * * * * * * * * * * * * * * * * * * * * * * * * * * * * * * * * * * //

dimensions      [0 3 -1 0 0 0 0];

internalField   nonuniform List<scalar> 
31093
(
588.236
-435.57
-152.665
271.122
43.2314
-314.353
945.564
-1135.93
190.369
-395.181
994.315
-599.133
-632.319
670.918
-38.5991
-687.224
54.9055
222.06
-41.3748
-180.685
586.657
-453.315
-133.343
208.529
-290.116
81.5871
77.4314
509.226
-86.8013
262.396
-175.595
-245.999
273.475
-27.4767
-232.585
-20.6987
253.283
34.7055
553.53
621.111
-649.978
28.8667
-965.104
569.923
-290.622
352.66
-62.0386
-93.2947
-984.867
1078.16
-262.003
232.544
29.459
305.654
-34.5321
-306.988
295.913
11.0751
-0.544778
-245.454
-454.649
532.08
276.891
-331.558
54.6675
945.564
-358.47
91.4244
267.045
891.819
-975.854
84.0345
339.892
-146.744
-193.147
-174.043
-100.688
274.731
-115.129
-146.874
-592.236
740.814
-148.578
362.735
-310.848
-51.8869
347.754
-60.4601
-287.294
555.774
-293.703
-262.071
-717.112
780.437
-63.3252
-731.085
138.85
143.044
-352.93
209.886
932.364
-932.364
784.524
-345.129
-439.396
279.33
423.37
-702.7
2.52614
799.508
-802.034
-271.304
80.9081
190.396
-860.642
688.119
172.523
973.362
-81.5429
-134.358
-224.111
116.696
72.6098
-189.306
1085.97
-463.511
-622.458
319.478
-259.049
-60.429
842.896
-30.4242
-812.472
239.098
-228.633
-10.4653
-787.772
70.6606
47.6389
-752.957
705.318
-280.151
-148.514
428.665
762.958
-835.533
72.5757
156.741
-391.566
234.825
15.2216
-209.467
194.245
379.703
-109.433
-270.27
694.654
-751.321
56.6665
-59.4655
-294.449
353.915
-54.627
-235.994
-663.163
431.562
231.6
-50.4768
244.963
-194.486
480.117
-482.591
2.47415
-179.214
-349.133
528.347
-697.676
828.13
-130.455
-714.959
107.316
607.643
513.667
-573.744
60.0769
-650.512
-64.4472
-161.191
-370.5
531.691
-141.374
-71.6491
213.023
362.383
-554.031
191.648
329.746
-250.494
-79.2516
675.182
-54.0712
-271.089
-37.0277
308.117
1062.07
-554.782
-507.287
-75.0964
475.584
-400.488
331.887
-139.759
-192.129
-227.234
15.3494
211.884
903.142
-623.812
566.953
-832.642
265.689
632.708
-525.392
816.789
-194.429
-622.36
305.601
-96.6897
-208.911
298.222
-89.6928
134.139
-184.616
-591.191
-269.451
237.72
-282.405
44.6845
-62.2139
165.873
-103.659
-621.89
442.676
148.491
-305.877
157.386
-405.496
682.264
-276.768
738.981
148.784
-887.765
904.477
-130.169
-774.308
185.105
-302.039
116.934
215.357
104.12
424.291
55.8261
263.686
-78.5813
-779.263
789.669
-10.4065
-329.271
242.47
979.27
-885.294
-93.9757
280.133
-131.642
405.715
-416.673
10.958
181.852
104.131
-285.983
466.917
-200.948
-265.97
1216.89
-1216.89
480.369
29.7649
-510.134
-42.3173
253.224
-210.906
-482.312
232.307
250.005
265.532
8.93501
-274.467
-250.142
-81.2511
331.393
38.3465
-212.39
183.092
38.9687
395.035
-109.632
-285.404
-264.058
-401.983
666.041
-571.529
496.433
-568.675
-431.392
-366.752
-171.228
537.981
576.647
56.0608
-309.581
-11.003
320.584
-1030.03
259.86
770.167
-170.784
909.765
53.6908
259.321
-313.012
383.09
-603.219
220.129
233.847
-362.77
128.923
131.182
424.592
756.603
-849.897
39.0161
184.038
-223.054
183.615
156.276
271.211
91.5235
134.517
-501.269
-30.584
-150.426
181.01
21.9363
217.162
856.084
-853.558
291.088
493.436
139.399
-347.757
208.358
260.089
956.804
262.401
-37.7602
-224.64
-279.585
-27.4027
-406.196
35.6662
370.53
101.213
65.6194
-166.832
294.109
-240.418
31.349
-302.438
201.936
127.81
-295.884
215.956
79.9287
-548.356
66.3779
481.978
-96.5051
235.904
-270.649
92.5074
178.142
-94.6226
-223.109
317.732
-22.8604
297.231
-274.37
-764.488
-211.366
127.468
-222.091
190.513
971.735
-67.2584
-230.371
-52.1153
282.486
151.163
665.626
-237.944
-32.7047
-733.967
142.775
84.0328
192.858
68.6147
-159.527
90.9121
-10.3036
-222.281
-195.839
352.58
-243.337
201.962
-36.4311
-412.177
-136.178
-190.771
-661.946
852.717
-171.413
109.199
345.843
59.8718
285.533
20.0681
443.198
32.3861
-327.382
470.426
337.073
-74.6724
-199.631
-118.1
317.731
-6.15308
-187.591
193.744
399.021
-442.758
43.7362
105.151
111.107
-216.258
22.1116
325.643
-571.861
509.273
62.5876
-546.153
-26.4614
572.614
-445.924
-125.605
-29.3055
216.314
-187.008
29.6456
-200.153
170.507
735.576
196.788
331.383
70.6745
-402.057
-82.3838
201.489
-119.105
267.332
38.3219
227.573
-124.181
-103.392
586.145
-223.762
27.1168
952.153
157.337
251.456
104.045
-355.501
277.866
-238.85
268.193
-397.456
129.262
66.2841
-951.578
-593.318
432.127
217.257
-148.642
-10.9355
272.414
-261.478
65.5003
265.882
-21.2347
299.04
-277.805
325.477
-58.1451
15.1428
236.313
273.487
-384.226
110.739
-72.6573
326.843
-254.186
-481.098
186.019
-362.135
176.116
255.335
-400.972
145.637
-312.452
284.882
27.5702
-8.93695
-327.896
336.832
770.706
-723.067
197.562
-182.34
619.702
-634.981
15.2792
416.031
97.6363
-863.18
535.589
327.591
-39.1322
303.882
-264.75
-85.6737
-150.45
236.124
-279.447
573.932
488.138
513.884
-513.884
-517.212
-512.814
-253.09
-229.222
898.918
-607.83
-0.937753
266.005
-265.067
-182.533
-244.643
427.176
102.732
137.658
-240.39
505.209
-910.705
-326.061
244.81
-12.831
-393.365
352.513
-361.45
-1068.64
499.961
-485.222
485.222
-641.48
-6.32907
647.809
631.232
-248.142
307.093
126.682
-433.775
-316.253
273.935
-218.512
208.027
10.4854
-519.333
818.228
-298.895
307.001
-69.2808
569.52
-89.1507
-419.317
219.686
192.802
70.884
-635.01
452.477
215.608
-355.367
87.9757
-173.649
238.599
94.2955
-332.895
352.798
-118.951
-971.438
-245.455
622.216
-45.5689
-61.6225
279.344
-217.722
552.593
-456.151
-96.4421
-73.2303
766.262
-693.032
-53.2242
896.12
263.791
1.7418
-85.81
188.542
-62.0452
526.577
-464.532
-542.441
197.312
-165.478
10.8205
154.658
-123.326
430.419
-48.5915
233.986
-185.395
-59.684
-211.62
193.469
-92.2565
-77.5392
194.235
20.7159
-249.791
229.075
34.5811
456.214
-490.795
710.455
49.3834
-759.838
286.252
20.7495
-80.2126
-163.124
-114.032
11.3203
255.011
-266.331
34.2798
360.755
223.514
-742.847
326.01
-194.161
-88.2437
122.54
-820.643
698.102
67.8515
-376.01
-197.734
-295.172
226.968
68.2035
-354.869
-308.294
567.77
-999.162
236.677
-49.5792
-187.098
-32.8274
216.345
-183.518
-1037.46
330.921
706.541
-46.3272
379.97
-333.643
324.584
55.1189
-256.475
114.683
141.792
354.921
-82.5438
-272.377
382.042
-113.849
-192.492
296.622
290.064
-214.86
137.506
-170.333
-82.8406
590.248
-507.408
750.981
-184.028
-123.917
-332.293
456.209
854.013
-731.473
239.111
-227.79
-31.5137
-295.868
-537.156
73.702
88.8847
-162.587
343.185
-53.1526
-290.032
-84.003
189.376
-105.373
374.004
-100.518
-92.6473
-364.242
456.89
7.64958
843.936
-851.586
-776.561
803.955
-27.394
-242.63
76.704
165.926
-754.045
440.222
313.823
50.1803
-165.31
-1.05349
176.188
-175.134
-260.978
260.433
6.30594
-231.214
224.908
222.683
-6.36951
148.352
-526.463
378.111
231.291
-210.575
-40.2873
-186.946
-58.0195
528.446
323.359
-43.022
-280.337
-733.866
741.515
-474.927
341.665
133.263
440.916
-306.4
471.991
-861.742
389.751
-311.14
-80.4264
-726.598
28.9226
-165.638
-90.8377
-645.762
631.519
14.2438
-181.968
351.806
-169.838
312.424
321.95
262.999
-169.81
-93.1889
282.264
-270.495
-463.472
-208.995
-93.0439
270.022
-178.594
-91.4278
-525.408
-8.17211
533.58
201.104
-95.953
1006.22
-1006.22
433.603
-492.713
-544.749
148.684
208.053
-356.737
-453.185
421.671
-332.061
295.034
-326.487
429.339
139.351
-568.69
50.5806
712.377
543.558
-114.219
398.813
-570.041
95.8024
224.291
-320.094
-210.944
-228.209
439.153
267.32
80.0963
-347.417
-297.373
-544.663
842.035
491.659
-755.717
356.056
9.36402
-365.42
-984.867
417.734
96.1492
244.147
-250.3
301.476
-360.941
-37.9107
156.505
-118.594
14.5236
-262.241
-254.676
11.8619
242.814
227.454
42.5678
275.105
-357.488
227.421
-93.2816
-511.334
-170.336
-135.541
-391.154
-362.891
-942.478
-171.988
1114.47
-496.677
942.415
-445.738
-143.074
-19.752
162.826
-668.579
636.717
31.8628
-248.286
341.736
-93.4499
263.706
288.887
2.2734
-211.74
873.989
-912.543
38.5546
445.218
-106.062
186.97
-383.049
188.919
194.13
-231.311
43.8123
187.499
-489.28
-36.1279
135.127
-244.56
310.195
-71.5958
-1084.51
893.74
-520.537
458.491
-128.268
248.545
-120.276
-72.4691
385.933
-313.464
369.814
-317.73
-52.084
-391.189
46.2291
-211.707
-287.387
676.224
-388.838
-68.3171
-260.954
-68.3568
424.413
4.43505
192.27
-196.705
895.845
190.125
-337.934
-45.1147
186.935
182.879
-372.845
-456.185
829.03
-825.215
361.704
449.448
-951.72
502.273
83.7236
-414.598
330.874
-285.025
201.022
-12.1162
468.33
-170.078
-192.057
-460.349
149.502
616.013
6.20342
24.128
212.549
429.062
-101.259
-327.803
-110.384
-88.3601
198.744
123.596
202.353
-262.037
9.11414
-118.46
-59.8835
178.344
-386.575
-17.8376
404.413
-0.0708072
283.12
-283.049
-103.302
493.842
-390.54
-412.294
347.119
-79.7991
-895.064
821.834
356.45
-326.685
-89.1082
-308.348
-90.8564
-293.37
-655.448
-123.814
-512.749
265.942
246.807
-287.988
37.4934
-112.664
127.962
15.7034
189.524
415.659
-605.183
29.4374
-272.077
13.0288
-4.89095
303.931
150.832
-260.463
-51.6315
-246.017
297.648
-810.718
796.249
14.4697
231.575
-252.596
21.0204
362.497
536.421
292.219
-374.763
-20.1321
306.384
-724.604
694.18
289.327
-211.44
-77.8863
291.76
-19.3462
-189.223
-164.388
-315.547
479.936
-214.367
-98.0853
315.527
-368.68
450.563
-543.21
119.44
76.3893
-195.829
206.67
-128.833
-77.8372
277.971
-650.815
147.94
-518.44
247.171
-94.312
-152.859
47.7009
-812.189
-432.903
308.032
-351.054
-568.974
652.697
-479.955
67.7773
368.312
-665.684
155.879
-253.267
97.3881
-849.754
897.455
-30.2814
-7.46846
806.976
-218.335
216.511
1.82463
-313.964
198.173
115.791
-229.234
-171.739
-56.7563
426.643
-369.887
552.328
-635.169
46.6738
-231.323
184.649
175.987
-129.313
296.648
82.502
-264.47
174.659
18.8103
-144.81
766.87
107.119
-451.454
185.484
-240.8
174.661
66.1387
198.333
-246.925
-3.15116
191.645
-188.494
-310.308
258.676
-222.582
-15.2958
237.878
-511.297
387.38
171.858
-194.719
-580.838
-64.9243
614.957
4.7448
-274.082
-227.187
194.099
-76.6699
-117.429
-119.591
-99.9463
219.537
136.089
-210.068
73.9789
-75.3289
288.041
-212.712
-225.735
213.223
12.5119
-195.254
-30.4805
323.772
105.29
973.218
-713.129
-285.913
-315.068
246.751
191.495
33.0439
-224.539
-978.449
802.491
175.958
-395.806
168.844
226.962
-502.101
-122.703
624.804
-158.924
-806.18
13.6885
-299.671
-469.899
452.062
-98.5611
-215.403
232.126
-15.7811
658.845
-101.577
-557.268
347.229
-450.531
-159.253
756.303
-597.049
-213.971
-223.146
437.117
-285.84
269.849
15.9913
5.94602
-76.5444
212.634
-100.063
-195.108
-526.404
13.6543
-16.1436
-90.7252
-744.808
40.4166
-432.226
-219.937
100.346
-288.086
187.398
698.944
256.431
-308.547
163.847
63.7264
-309.448
15.7396
293.708
-266.812
35.5011
-37.0607
-996.832
778.533
218.298
-19.996
228.023
-116.875
274.261
493.634
-523.806
30.1714
-281.566
-193.362
-361.114
396.78
-36.4208
156.995
-120.574
961.806
-800.078
-161.728
21.4206
-531.037
509.617
-6.31956
-163.914
170.234
-177.949
-110.039
487.832
-63.541
-235.63
499.337
-559.346
121.325
438.021
-182.554
273.978
508.162
-354.339
-153.823
295.063
8.25789
-303.32
-274.764
213.141
655.47
-85.7838
-569.687
434.508
-244.984
-433.531
389.818
43.713
284.664
-5.32032
-249.029
-60.4184
-180.519
56.3378
200.707
-500.647
66.2031
434.444
-262.624
261.686
-348.797
348.726
-331.603
-67.4876
-417.734
-457.81
401.053
-530.612
1001.8
-471.19
-132.336
95.9147
-176.844
-218.962
488.459
-50.2974
-438.161
-17.2599
-299.196
316.456
-503.915
562.413
-58.4973
406.903
203.32
-100.194
-103.127
163.715
-239.044
198.211
-201.362
-305.617
127.023
422.124
-400.704
-11.1595
-274.681
82.6435
-901.636
901.636
130.949
3.45831
420.396
-423.854
-167.74
184.966
-17.2258
-524.7
313.755
-425.135
68.6639
356.472
43.1991
150.9
-487.373
368.016
119.357
-239.027
436.717
51.1151
308.443
42.0721
-350.515
340.867
-81.5454
-431.954
-24.1975
116.404
-360.263
287.794
330.488
-221.371
-109.117
-54.2042
145.893
-91.6892
-942.478
-299.429
-216.137
119.712
96.4245
-295.469
235.009
-432.504
-519.216
252.717
524.969
-777.685
-145.103
-531.424
676.526
-448.222
174.14
-19.0697
193.728
214.513
-16.3016
-657.392
640.545
16.8471
78.4305
356.077
295.64
-67.3571
-228.282
-98.7255
-524.429
623.154
-575.189
808.926
-233.737
-572.782
58.3488
-783.66
185.465
598.194
-981.028
413.777
567.251
-287.773
-271.573
-124.172
480.622
-968.582
437.971
-675.519
814.364
-138.845
614.463
-713.189
-211.628
251.224
-229.287
124.318
-799.837
-164.274
-694.288
858.562
668.866
-13.3955
501.299
326.832
-59.0408
274.398
-116.209
96.457
-117.561
191.685
-540.819
254.546
-227.431
-27.1152
-138.093
321.427
-183.334
-185.694
-86.3836
523.177
-29.5429
-291.172
273.912
13.1631
623.553
-703.916
-650.614
-254.971
-245.676
39.8554
222.541
20.1933
437.626
-457.819
-367.051
349.078
17.9728
-141.59
156.94
561.635
440.166
-351.324
-193.928
545.252
191.531
-246.158
-82.3045
284.24
-71.243
-353.892
194.219
-231.979
-237.081
315.512
202.824
-130.214
-460.336
-520.692
-296.071
-12.3882
308.459
-286.66
162.205
124.455
-174.057
178.492
-199.364
-87.2967
225.909
-219.603
250.154
-282.672
32.5179
271.162
-62.6311
-208.531
-805.198
646.274
-311.575
-301.809
53.5225
-294.75
304.114
273.722
-103.675
510.578
191.23
-53.5716
285.193
530.333
-815.526
-194.207
166.253
40.4173
-574.729
410.34
-950.52
288.575
303.526
-800.203
-473.162
-73.1321
546.295
-540.9
469.174
71.7255
282.526
-211.354
43.6142
-634.759
399.128
-13.0496
168.929
-319.377
339.57
155.69
-510.029
-139.402
-37.6993
230.502
-7.47732
277.326
270.904
-86.4962
197.603
768.971
-2.70889
301.096
-285.773
-15.3233
-239.061
-108.696
-115.104
-34.1677
265.743
687.834
254.581
80.6769
193.584
336.475
-120.867
-82.3633
289.28
-206.916
-425.305
93.0125
495.159
-230.556
-264.603
288.102
-295.58
-16.6972
-674.037
690.734
226.167
-834.847
443.658
-239.697
41.2861
-321.623
-93.5935
-385.508
479.102
-125.14
135.961
258.736
-317.777
289.243
7.98735
-875.855
329.702
54.0478
-344.08
-725.981
-521.685
-456.763
237.988
79.1572
-351.534
248.508
-330.813
161.457
85.7141
125.851
-222.47
96.6185
-496.005
131.763
512.47
-924.764
-170.911
94.2407
458.385
26.8367
-574.755
-422.077
18.1211
-598.959
-3.40927
298.472
-98.7302
375.254
-276.524
-125.678
-90.5795
129.131
-194.453
-84.9937
-343.548
377.828
-221.776
-56.7113
278.488
-65.5338
227.739
-295.903
-260.327
242.403
17.9238
43.7936
-247.521
288.807
370.139
-39.8843
-327.167
-22.0552
235.278
204.532
-28.7317
-175.8
-107.894
-466.985
53.975
413.01
-292.485
-134.133
426.617
156.702
-210.906
312.784
-262.803
97.1651
-197.351
-122.871
320.222
789.818
327.665
-40.3333
-210.844
251.177
-18.9821
-521.918
-296.071
-742.699
369.384
373.315
3.08204
-296.785
-4.2469
275.458
-12.2915
228.802
254.543
-339.814
85.2713
-472.643
-120.674
-551.401
210.257
341.143
210.753
27.125
237.869
322.998
-621.989
298.99
217.74
-420.55
202.81
-362.828
387.229
-675.82
288.591
940.478
-913.361
-747.943
460.557
-405.354
-116.326
521.68
175.517
125.58
-332.574
562.571
-376.837
-185.734
388.264
-196.733
-821.766
246.577
250.838
244.321
-238.44
60.4912
378.885
-104.95
179.144
-181.014
1.87003
233.297
11.6657
588.142
-614.604
-512.202
204.268
307.935
74.4669
-339.096
-155.294
494.39
90.6537
376.29
-182.071
265.494
59.9834
-468.135
186.569
287.288
147.125
-434.413
122.638
-250.907
-161.953
-229.311
-206.259
-361.021
17.4732
-28.5674
-628.825
-36.5544
232.354
-195.799
-326.114
172.582
153.532
-363.244
-95.8617
459.106
-236.433
-89.6278
188.038
16.4941
-316.257
82.2292
168.355
113.843
-282.199
-274.686
-136.729
411.414
-363.385
-291.857
272.048
19.8094
149.997
-366.764
216.767
150.481
-255.552
105.071
-36.437
-85.289
-292.607
377.896
-391.205
221.127
211.714
-441.025
-281.782
137.059
144.723
-466.675
151.128
35.1526
-440.467
405.315
-197.225
-63.1023
160.595
387.307
-337.665
-49.6413
-211.727
203.933
7.79428
-259.057
140.613
118.445
-109.062
-131.738
-287.31
-115.613
918.104
-216.164
-33.6279
285.366
-486.842
293.48
137.992
-343.541
205.548
-377.845
-117.65
495.495
-471.742
-215.482
220.624
-29.1292
240.792
689.935
-706.632
-48.9456
-272.641
321.586
82.3879
-711.376
628.988
215.711
96.7714
-312.483
312.138
-104.084
-218.312
232
-363.878
-47.89
411.768
-710.567
39.3131
671.254
-458.896
-176.114
-65.9366
-282.86
522.61
-5.30668
-774.471
-19.7202
794.191
-170.21
521.17
-350.96
-192.461
477.654
178.907
-518.003
331.099
-106.808
87.2185
439.358
-425.934
429.392
-333.527
-138.442
471.969
-523.809
50.6471
327.306
14.3582
52.9243
-271.236
266.523
-58.5255
-207.997
-98.5141
-106.716
307.738
-84.2852
-275.978
73.2279
200.751
-301.797
-99.4686
401.266
-288.982
351.932
-62.9506
-84.0851
282.418
-344.07
-130.053
474.123
-266.269
133.304
132.964
-142.182
-15.9839
41.7746
-652.614
610.84
-181.236
-252.295
-272.624
-253.839
-337.059
-95.8435
-216.932
-79.0707
296.002
415.327
639.681
177.733
-264.957
87.2242
146.217
506.48
237.188
29.3351
201.371
-253.849
52.4775
-360.886
-150.41
-531.304
-77.2729
359.536
-180.113
316.508
-33.9823
626.159
-173.682
-4.47959
230.388
-242.153
279.127
-36.9747
713.645
0.551739
287.55
-602.051
492.386
109.665
229.156
66.4838
199.269
-43.3027
193.641
-329.182
105.787
-329.899
19.2584
-354.972
358.206
-3.23389
116.529
-220.189
177.094
24.9358
-320.482
319.261
1.22157
250.657
-307.368
248.771
-19.6954
-335.544
-117.641
-48.5902
238.987
11.8699
242.676
302.006
6.11112
-363.55
-139.377
502.927
-77.7772
-150.855
-198.792
-32.5307
89.4482
236.562
259.302
-293.47
299.156
-59.6513
-234.992
244.172
-9.1797
-1060.73
707.647
353.084
-423.251
130.766
293.076
-2.61327
-290.463
-67.6229
355.417
577.364
-182.472
-35.0481
217.52
-37.9928
-222.985
-263.062
-62.9246
325.987
-286.272
-61.1085
347.381
-70.0217
-510.141
-91.9099
-797.896
785.532
12.3635
72.1015
223.593
-295.694
50.8546
285.433
-182.709
480.646
-297.937
-238.791
-76.2774
-431.601
111.231
-236.909
171.63
-262.468
-327.23
-108.344
435.574
-91.1672
420.214
-329.047
-384.092
-85.8073
-247.341
-70.4357
2.08259
-427.576
-92.9603
-200.03
683.606
10.2007
637.233
-647.434
-197.968
47.5421
229.548
-814.815
585.267
180.67
-409.904
278.51
-25.2863
118.18
-1017.25
-242.209
-88.6035
438.605
-5.00232
-473.707
-401.638
-108.496
-657.396
212.97
-422.78
209.81
24.51
263.531
-323.886
-64.8653
388.751
12.7727
-292.155
279.383
830.075
-116.43
-491.838
479.722
-59.3372
-715.134
-61.3831
410.109
-846.712
783.387
296.376
-473.919
402.676
-94.8119
-116.629
199.272
169.224
-368.496
-438.232
-247.398
183.99
19.2463
-203.236
-221.383
914.674
30.8898
-991.991
559.765
-224.383
-96.7092
321.093
725.659
30.9434
332.698
-87.8884
372.59
-355.116
-401.942
406.877
-4.93436
330.364
-326.087
-4.27764
341.154
-100.363
-18.4762
-410.697
-120.34
-242.272
-114.465
-213.624
-106.47
-604.805
790.448
-185.642
-206.74
7.37621
-195.615
-389.823
-462.572
412.275
93.5992
-288.053
-133.243
-112.379
245.622
-43.1791
388.764
-345.584
311.649
-52.9722
219.268
-70.695
-148.573
86.3414
-250.256
121.42
168.644
317.861
-102.15
-307.77
-112.45
216.57
528.665
-141.285
26.2664
-773.559
747.293
-299.041
122.077
-208.573
-30.2682
-43.4224
303.856
36.1702
771.757
-699.181
856.381
-110.847
-745.534
376.792
-74.9444
-301.848
127.796
-248.073
-91.3314
507.738
-416.406
-232.123
-57.9935
22.8756
-734.251
412.339
-108.285
-290.651
285.199
5.45265
-196.599
-77.3205
273.919
202.623
26.8387
-229.462
-35.7116
-122.074
-451.975
-608.757
-427.419
202.555
-18.6885
-228.402
-21.6326
247.8
57.3945
-538.094
480.7
-290.943
247.379
-424.223
186.277
-378.334
696.975
-321.461
68.0188
-268.613
200.594
-112.114
301.033
561.257
-162.444
-234.76
-143.789
229.169
865.178
86.9752
-308.459
229.878
46.436
725.321
-11.5276
190.672
-323.474
-93.1991
362.002
-53.9699
-456.853
-529.008
156.716
372.293
-151.315
-507.255
658.57
-567.496
1012.71
-720.598
115.792
-482.512
-302.505
291.484
90.5581
-914.248
64.9463
849.301
-356.339
378.56
-63.0328
-9.96604
362.479
339.986
11.9466
231.129
-198.007
-33.1221
-323.394
102.01
-194.548
-17.1791
243.271
369.704
-77.4849
618.866
-109.249
298.58
75.424
553.381
-102.818
517.714
-102.055
258.293
-38.7265
-219.566
398.972
-475.984
-320.416
796.4
530.66
-264.718
-300.798
-556.737
80.4582
476.279
316.914
-70.1628
-711.259
677.42
33.8392
525.825
-73.7629
-29.2825
635.074
-605.792
-325.627
262.995
289.029
52.7067
436.356
107.201
-386.082
219.639
-34.9905
317.32
-5.67158
-436.528
-129.21
-32.5508
592.044
321.841
-315.733
-6.10813
-520.919
48.2754
-390.181
-333.075
299.092
51.8253
328.145
-301.017
296.474
-33.4784
-144.268
-254.932
-243.874
5.37084
238.503
-401.483
-112.401
-35.4339
547.424
-38.1507
-5.25387
473.584
547.734
-26.3635
-171.069
-273.611
332.356
-58.7449
-94.4475
247.646
32.1515
-743.411
-301.945
-214.4
356.696
-391.692
-66.1176
448.656
622.541
221.817
-844.357
-141.708
541.395
-129.055
331.257
-252.429
-78.828
-109.616
-594.833
-188.827
33.9497
209.556
130.43
-129.742
234.812
-263.867
-267.791
303.218
-35.4271
243.731
312.526
-436.698
699.25
415.216
-263.522
332.86
-69.3376
-247.844
-476.236
-210.535
837.431
18.9501
363.337
-46.0168
-940.759
26.5116
355.771
-80.6666
-745.231
15.5129
-323.86
634.134
206.387
-86.9476
-89.6635
11.6153
294.768
-361.888
5.20421
356.684
-209.439
-123.456
239.168
-108.75
-478.603
-96.1262
498.851
-88.5109
362.576
25.6395
-319.009
-83.2788
-106.854
-518.662
373.559
-117.602
652.863
-629.988
-292.431
371.883
-79.4514
-224.855
39.1611
281.455
22.4268
-443.98
-480.784
-426.67
972.319
-469.728
-502.591
538.662
-80.1706
-529.184
-105.575
-62.0252
18.0895
513.687
-114.558
-16.7975
55.7388
176.615
-241.427
-210.027
42.4043
-70.0993
555.267
-123.14
-404.293
-361.249
309.362
263.795
1.94745
424.212
-61.6364
-51.6872
-148.342
-176.86
-306.126
31.4458
78.2394
-277.031
440.643
-652.008
585.106
-86.3541
-498.752
758.808
-726.657
397.535
-40.839
-274.952
-306.215
39.1115
548.628
-99.9722
-758.269
784.535
215.473
-1.41827
-214.055
-118.445
212.044
463.655
-62.6021
569.067
-126.391
-280.389
280.941
-106.47
-109.667
-199.714
232.762
-33.048
-97.9723
273.489
300.657
-44.2257
-61.7112
250.189
-473.454
-277.866
271.957
-236.09
-35.867
-383.912
394.753
-10.8404
-17.7405
-99.0589
285.994
310.07
-312.835
2.76505
-255.808
-120.234
-1.65169
158.156
-320.446
417.791
-43.0217
787.115
-744.093
-507.955
352.022
-39.4961
35.0134
344.695
13.5191
-358.214
7.17123
382.647
206.086
482.033
36.5811
472.409
38.1687
356.437
-47.994
-43.3883
244.759
221.666
67.6135
-856.542
866.743
-303.173
283.437
19.7359
-549.058
248.094
2.09462
758.246
-561.371
-196.875
259.768
-182.887
-76.8806
433.351
227.985
30.3568
492.82
-197.984
617.512
-419.528
73.4793
-51.3583
845.441
-794.082
-394.077
308.788
476.305
198.877
233.54
1.73767
225.762
-175.17
-488.647
663.816
40.8493
207.922
62.7652
-557.478
571.247
-508.66
794.396
-273.187
-521.208
-304.183
-176.916
34.9788
271.245
0.802735
-227.767
-259.606
-341.087
-484.128
3.15137
185.132
-188.283
292.492
264.878
186.136
-792.459
768.485
23.9749
-0.883054
408.412
-456
47.5877
289.26
49.3819
6.34954
754.79
-761.14
97.5291
234.827
27.3287
95.1763
-291.41
304.679
-13.2692
-893.255
-49.2234
194.797
-126.94
-490.16
617.1
-292.399
817.368
-138.584
-405.893
-115.025
-560.706
135.15
359.24
32.4708
-253.871
-26.5183
199.839
-144.1
14.0488
853.558
48.0784
-14.6328
302.183
472.608
-356.682
-115.927
-626.299
259.547
366.751
132.74
174.998
372.302
-347.998
238.881
145.023
290.55
229.748
233.553
10.6192
69.7782
-483.831
414.053
808.157
-247.053
-561.105
187.349
201.647
-388.996
324.243
401.874
254.98
3.78911
-626.342
-306.022
250.12
-889.734
367.655
52.2599
-437.768
77.3363
-635.871
-98.3799
245.499
-358.35
367.939
556.02
-568.243
645.114
-76.8713
-10.9476
371.703
413.044
-311.034
-40.5296
173.493
-132.963
-303.231
294.925
-17.5984
646.022
-346.303
-22.7391
376.502
-353.763
67.6998
-181.686
229.234
-47.5482
-252.266
232.058
20.2077
282.821
511.574
164.98
-402.481
410.847
-1078.16
1084.51
107.794
-10.469
446.771
180.708
-58.6314
415.765
354.579
214.449
21.6746
251.527
364.515
-25.9892
-338.526
-649.718
648.772
0.946011
229.81
195.626
-10.4941
501.801
-432.023
-210.703
766.723
270.667
83.5969
240.024
-360.892
-177.662
26.9514
245.006
741.317
-149.705
-591.612
-847.077
913.361
312.098
355.349
211.75
-214.363
554.148
-992.38
423.754
327.368
291.741
-38.2879
470.888
291.31
59.6494
-417.02
357.37
-231.352
316.659
-13.3236
3.49574
-824.324
694.155
807.189
-192.726
333.747
248.058
95.3663
339.752
-20.1781
-319.574
269.248
273.209
298.476
-188.016
87.8229
-272.676
282.348
-9.6724
419.861
-524.765
-252.92
-2.82689
217.276
433.677
-573.053
-275.728
21.8571
455.668
-115.008
-248.485
363.493
-335.198
-193.81
634.602
106.211
426.378
-943.588
517.21
-459.899
417.991
41.9088
-3.08788
252.714
-249.626
346.81
-279.11
259.864
-236.972
-22.8925
275.972
14.6732
-196.359
-849.754
63.9613
330.224
-394.186
-32.4608
723.178
-690.717
322.841
-295.67
-27.1707
-445.664
448.726
276.837
-240.667
-400.001
978.679
-578.678
283.392
-13.9527
197.943
536.098
463.902
-201.284
207.195
12.7313
-219.926
-28.0074
398.537
-593.575
33.6102
559.965
201.427
268.656
-339.092
-14.5703
-369.342
-914.674
863.316
-497.409
1033.51
336.508
-58.154
238.579
-1.93489
-236.645
488.959
-434.984
66.8381
-719.452
-459.62
-0.279368
-256.684
318.198
-469.478
-499.105
298.849
-18.9489
-279.9
-959.983
442.771
-797.896
156.223
32.4603
-188.683
30.1073
598.881
648.117
-633.873
-289.771
820.104
-94.6697
222.48
388.804
-528.137
139.333
-132.633
357.523
-224.89
-704.013
750.449
-386.235
242.622
-223.754
232.991
-9.23742
-275.547
701.925
313.762
606.931
27.7303
-785.999
-231.91
260.976
-349.58
-58.3068
-229.065
240.927
-897.455
981.489
175.889
39.3895
-215.279
263.682
-272.28
-85.2089
24.9977
400.444
208.992
-609.437
502.766
-902.767
487.118
-64.994
-221.932
-2.6301
224.562
-114.149
-191.978
-263.101
54.5701
-166.416
-136.022
302.663
291.938
-264.987
-117.306
-316.6
433.906
280.292
288.914
-17.7265
-293.336
311.062
-690.905
16.8683
856.084
-893.255
940.478
-971.438
956.804
961.094
-961.094
-847.077
-1017.25
242.141
-209.67
-242.594
-215.11
-186.738
-1.75613
737.13
-956.077
218.947
-866.743
10.7002
-280.97
191.14
-34.9167
-763.432
791.162
228.209
-6.9782
-221.231
-258.816
271.589
-11.9866
-250.011
261.998
248.958
-14.3159
-234.643
201.835
-228.95
-23.7743
-253.709
277.483
-188.108
201.013
-12.9053
250.042
281.122
-347.201
406.85
104.117
-181.063
76.9454
-368.502
-583.076
-194.369
207.799
-13.4295
-419.747
-84.1976
503.945
194.181
-174.934
40.655
202.061
-26.1714
-349.53
240.834
462.73
-94.7913
199.158
461.571
-53.1592
324.383
-397.015
72.6325
18.6497
-636.65
666.757
263.097
-461.081
-783.722
730.285
53.4369
480.793
497.886
46.4843
416.245
-239.676
264.186
-73.1167
-710.605
248.29
-345
715.993
-901.635
320.571
-722.83
402.258
127.011
264.531
-206.253
-58.2784
-53.3235
-387.415
-868.062
592.515
-1.90814
257.688
3.23834
-312.633
309.395
16.2139
-50.8586
235.635
282.211
-37.2052
185.741
-58.3982
-127.343
738.641
20.167
272.989
302.01
6.64434
179.546
-229.524
49.9776
250.689
-299.991
296.582
-301.459
-203.377
217.783
-14.4057
74.7655
-494.513
253.94
163.851
-87.9665
825.096
-594.678
408.944
549.968
-643.944
233.001
-339.809
313.645
-446.278
203.137
-317.602
218.331
-191.492
-334.893
230.809
-189.643
-7.44005
197.083
231.352
-337.822
368.731
-266.533
-102.198
-5.52074
486.221
-442.49
-560.373
1002.86
-735.797
650.013
-50.6542
-320.706
371.36
21.3817
57.8756
-312.127
307.88
-268.305
-7.42263
204.245
61.3386
-265.584
-189.24
-233.54
-309.597
223.74
-209.217
-14.5228
-312.633
-413.5
413.5
186.222
-657.964
185.278
167.302
309.395
727.458
-235.072
-41.8472
-645.683
687.53
525.852
-87.8306
235.492
-364.561
315.615
395.189
243.041
4.42112
232.774
-172.569
-60.2051
-32.4059
-686.834
686.834
-176.989
-387.3
-98.3
-138.609
207.135
20.2861
-157.374
228.258
-423.054
478.88
-180.158
-198.176
703.871
-489.478
-214.393
-136.02
-112.053
524.964
-146.853
-83.8827
-39.2946
-490.235
529.529
-500.546
-287.226
511.605
-18.7851
-18.8377
-730.349
555.18
-458.026
-65.7835
767.785
19.3299
231.056
-112.98
773.729
-660.75
97.7855
825.78
683.186
830.555
147.937
-218.632
-386.471
-73.149
-234.223
250.216
-224.937
49.5549
-199.652
-897.739
41.3886
856.351
28.6263
402.936
812.98
-261.711
246.544
15.1678
1066.46
-542.41
-524.053
-169.12
3.79435
475.928
203.291
-37.0381
291.288
253.963
428.63
-772.056
956.328
-184.272
-369.381
8.1324
231.547
17.6603
665.946
-86.4982
-216.675
-198.701
-227.969
216.772
92.3826
635.075
689.923
-731.771
91.4619
-795.475
22.8492
654.571
752.328
-849.65
97.3218
-627.531
535.833
91.698
627.335
-563.604
-63.7302
-446.511
521.276
56.7306
-115.881
-113.745
229.626
155.343
305.783
-585.132
409.018
192.179
-192.179
-199.189
218.971
-879.228
436.738
-666.619
539.679
-556.737
856.542
-944.509
23.7922
-238.141
204.368
-198.117
-211.788
-250.832
20.7617
357.066
35.2869
341.506
-351.357
-364.325
38.2383
401.98
-666.698
-55.3382
-726.771
782.109
207.798
-285.119
55.2903
142.78
-255.159
-623.52
655.383
-179.472
-82.9959
8.28868
548.142
128.082
-308.838
-24.237
-455.135
957.901
864.191
-864.191
333.012
43.4905
10.428
463.156
-761.49
17.3972
651.034
15.7226
80.4597
417.646
-498.105
214.646
302.51
-4.03791
9.17401
673.104
17.6303
-826.245
637.418
195.557
303.165
-498.721
-810.234
537.047
210.805
-412.447
19.5394
-649.527
-193.485
-52.4623
245.947
-115.376
223.899
-108.523
15.392
44.7743
355.927
40.8532
-201.17
17.4872
-248.211
511.984
659.655
63.5222
12.4963
132.482
-117.968
-177.727
196.454
387.614
-496.081
-707.856
-64.2003
-197.592
-466.955
-476.633
-274.12
-360.861
624.712
-515.047
6.71562
798.491
-805.207
318.539
50.1917
392.506
-59.4944
620.108
-55.699
-564.409
313.903
-18.8693
-573.255
-100.536
673.791
-3.14305
-235.707
-585.64
411.958
-188
-38.8904
226.891
241.818
611.328
66.2957
-213.675
-115.508
24.5971
203.403
-546.152
638.534
194.202
3.74123
-199.717
396.281
-196.564
295.252
-852.522