/*--------------------------------*- C++ -*----------------------------------*\
  =========                 |
  \\      /  F ield         | OpenFOAM: The Open Source CFD Toolbox
   \\    /   O peration     | Website:  https://openfoam.org
    \\  /    A nd           | Version:  7
     \\/     M anipulation  |
\*---------------------------------------------------------------------------*/
FoamFile
{
    version     2.0;
    format      ascii;
    class       volScalarField;
    location    "35";
    object      p;
}
// * * * * * * * * * * * * * * * * * * * * * * * * * * * * * * * * * * * * * //

dimensions      [0 2 -2 0 0 0 0];

internalField   nonuniform List<scalar> 
7807
(
0.216205
-0.0235348
0.328764
0.202255
-0.000665087
-4.47056e-06
0.32375
-0.00352197
-7.69247e-05
0.076322
-4.27992e-06
0.00115995
-0.00538401
0.034072
0.0799426
-0.0126333
0.228144
-0.00727113
-0.00184364
-0.0834749
0.046077
0.000682919
0.0235386
0.156605
-0.0095029
0.224787
-0.000622727
0.0436438
0.129949
-0.000984106
-0.0150737
0.450063
0.0229064
-0.000280049
-1.86321e-05
0.0609577
-0.000876411
0.313505
-0.00524738
-0.000112517
-0.00511795
-0.0118097
-0.0965921
-0.0853815
-4.75979e-05
-1.39219e-05
0.00066051
-0.0052854
-1.62983e-05
-0.0835464
0.00198608
0.0410441
-0.0119426
-0.0145204
0.060153
-0.00345583
-0.00167694
-0.00335663
-0.0219967
-0.000269373
7.63896e-09
0.00271938
0.0344183
0.00133575
-0.000385212
-0.0152938
-6.60488e-05
-8.92542e-07
0.0463772
-0.00499137
-1.25484e-05
-0.0548443
-0.00924498
-0.0158456
-0.00708345
-0.0314483
0.324909
0.0451479
0.0279645
-0.0497753
-0.0052206
0.276489
0.0711127
-0.0183843
-0.00141613
-0.0011811
-0.0040018
-0.0116902
-0.00059405
-0.00241159
0.132985
-0.0972497
-3.81365e-05
-0.00110125
-0.00217699
-0.0143226
-0.0521725
-0.0121244
-0.0014697
-0.000497497
-0.0289404
0.0355123
-0.00209278
-9.96991e-07
-0.0875853
0.136598
0.379803
-0.00360645
3.7462e-08
0.0178062
0.189322
-0.0684495
-4.19726e-07
0.0191705
0.136915
8.94357e-05
-0.0934996
0.106985
-0.0400761
-0.0172317
-0.0275011
0.26287
-0.0920179
0.00611631
-0.0266183
-0.000817338
-0.0130147
-0.000786739
-0.000408999
-0.0151686
-0.15296
0.0294168
-0.00038003
-0.000662207
-0.0188652
0.182335
0.31851
-6.32249e-07
0.0053525
-0.0378585
-0.0145206
-0.0545597
-0.03304
-0.0152302
0.378803
-0.032029
0.130727
-0.0237447
-0.0186143
0.262527
0.0578223
-0.0850047
-0.00135553
0.0258418
0.0708538
0.29163
-0.0376596
-0.00510991
0.389639
-1.40772e-05
-0.00172783
0.162435
-5.51855e-06
-0.00267527
-0.00242828
0.203953
0.204483
0.406446
-0.00277089
-0.00172919
-9.33189e-07
-0.0229554
8.94781e-05
-0.0170786
0.00593259
-0.0184921
-0.064829
0.108116
-4.42233e-05
-0.000363342
0.207319
-9.92963e-06
-1.97419e-05
0.328254
-0.0287697
-0.0541548
-0.0382838
-0.0160783
-0.0344695
-0.0388657
-5.22545e-06
-0.0499131
0.113757
-0.00222599
5.42192e-06
0.153329
-0.000649606
-0.0143026
-0.0317374
-4.73755e-07
0.000124074
0.187361
0.142764
0.289532
-0.0869545
-0.0640411
-0.153235
0.0481735
0.18457
-5.22676e-05
-2.32801e-08
0.355074
-0.0107453
-0.000369721
-0.0482554
-0.0136929
0.264701
0.269544
-0.0592138
0.437733
-0.000608025
-0.00692068
-0.0292445
0.0585813
-0.120408
0.18581
0.384806
-5.54069e-06
0.00673007
0.114996
-0.00446484
0.104279
-0.000569776
0.439458
0.28399
-0.00378974
-7.09829e-05
-0.000103205
0.104238
-1.48138e-05
-0.00810272
-0.0410634
-1.67834e-05
-0.00151492
-0.000497081
0.119627
-7.18271e-06
-0.00249119
-0.0491473
0.445576
0.0218643
0.411509
-5.01037e-06
-0.0335583
-0.000135396
0.305709
0.00255913
0.319478
-0.00176093
-1.41101e-06
-0.0122799
0.0507968
0.000194232
-7.09668e-05
0.000146383
-0.00475148
-0.0571402
-4.94883e-06
-0.036287
-0.00232232
-4.21327e-05
-0.000411324
0.312983
-0.00467929
-0.000297433
0.402462
-0.00154803
0.206194
-0.000137096
-0.00812115
-6.08187e-07
-0.0337369
0.0558716
-0.0563678
-0.0230157
-0.000319378
-0.0698783
-0.00965848
-3.77058e-05
0.000139544
-0.00235545
-0.00490794
0.00174963
-0.00119927
-0.0177044
-0.0522174
-0.0165016
-0.0719727
-0.0207334
0.287357
0.299843
-0.000936287
-0.0903732
-2.39342e-07
-0.00280007
-0.0140321
0.152245
0.0812346
1.0314e-05
-0.00260334
-0.0202206
0.128135
-0.000819393
0.00224531
0.000509127
0.0138643
-0.167656
0.280254
-0.000835517
-0.0278291
-4.2085e-05
0.00148484
-1.04995e-05
-0.0207818
-0.000122737
-0.0045007
-0.122508
-0.0311153
-0.00660736
0.00600617
-0.000284322
0.0124879
-0.0129292
0.0483589
0.122773
-0.196781
-0.0920242
-0.00984513
0.00318413
-0.0410517
0.413425
-0.0804578
0.0264532
0.42977
-0.000814213
-0.00116041
-0.0945333
-0.00116149
-0.0287296
0.00452911
-0.00156264
-0.00109426
0.12221
-5.31051e-05
0.00018153
5.33529e-06
-0.00192413
-0.0080762
-5.24122e-07
-0.000529186
-0.0210886
0.361267
-0.0066546
-0.0102745
0.35965
0.2335
0.0386041
-0.0774231
-0.0229527
0.00294218
0.197605
-0.00714733
0.239163
-0.0389136
-0.11232
0.145401
0.242087
-0.0323288
0.0749829
0.183934
0.216784
0.0464636
-0.00213513
-0.00319683
-2.28587e-05
-0.0092807
-0.00723355
0.00010535
-2.7538e-05
-0.0010075
-0.0678265
0.0497677
-0.0126878
-0.0062416
-0.00234572
-0.0289182
-0.0047188
-0.000634427
0.156366
-0.000993326
-1.37184e-05
-5.70796e-05
-9.56936e-06
-0.0157003
0.11823
-0.00250956
0.0246838
-0.133556
0.305006
0.000679585
0.00452446
-0.00386587
0.302119
-0.000480288
0.277245
0.133862
-2.91453e-05
-0.0408133
-0.00191376
-0.0536497
0.000194586
0.0468534
-0.00261032
0.00411349
-0.000398218
0.106549
0.131106
-0.0606653
-0.0227177
-0.00252583
-0.0314107
0.0241077
0.441321
-0.0877991
0.00166324
-2.53941e-07
-0.00993253
-0.00126713
0.0107419
-0.104275
-0.102063
0.323337
0.117052
-0.140853
0.162568
0.292906
0.0264859
0.000275495
0.208745
-0.00103639
-9.71122e-05
-0.00974349
9.7631e-06
-0.168415
-0.00663974
-0.0309727
0.000886589
0.157856
-0.000995164
-1.1702e-05
-0.117658
0.000798518
-0.00184405
-0.02858
-0.0329502
-0.0529696
0.116348
0.0936438
0.0965901
-6.78679e-05
0.0409209
0.0550865
-0.000395171
-0.0124099
0.000218864
-0.00252152
-0.0137912
0.00313235
-0.000728225
0.0980401
-6.65377e-06
3.96944e-05
0.001021
-0.0142525
0.0161806
-0.0274756
-0.0174288
-0.0515906
-0.139805
-0.00808119
0.201998
-0.106988
-0.00478436
0.439593
-0.0526012
-0.00848036
-0.0173901
-0.0113183
-0.0126848
-0.00760055
0.0225504
-0.0877273
-1.36641e-05
0.0192451
-2.42313e-05
0.285622
0.0559122
-0.00343336
-0.00822922
-6.10686e-05
0.276812
0.262735
0.0231671
0.106967
-0.0578995
0.324109
-4.69991e-05
0.00102849
-0.010359
0.114181
0.395803
0.010686
0.111896
-0.00540278
-7.53008e-05
0.0929136
-0.130879
0.290275
0.000999883
0.173433
-0.00501024
0.307896
0.248712
-0.0065359
-0.00560498
0.0695477
-0.0338212
-5.92581e-05
-0.00966367
-0.0376636
-0.0685149
0.00879664
0.00635675
-8.38696e-05
0.266619
-0.00421285
-3.6917e-05
-0.0479979
-0.000308509
-8.08383e-05
-0.000885609
0.174073
-0.10305
0.372362
4.55051e-06
0.172621
-0.0382474
-6.50131e-05
-7.00955e-07
0.127894
0.166712
-0.00306644
0.148735
-1.01439e-06
0.158119
-0.187778
-0.00677806
0.304519
-0.0454155
0.0987413
-0.0159661
0.156361
0.164096
-0.0128891
-0.0163557
-0.00737566
-0.00173291
-0.000107837
-0.00405848
0.224329
-1.14217e-05
0.151287
-0.104103
0.255346
0.142585
-0.0371558
0.37176
-0.00112579
-0.00667827
-0.0731304
-0.0129781
-0.00487127
-0.0409376
0.012557
0.416556
9.45243e-07
-0.00131505
-0.0641496
-8.30024e-07
0.293366
0.000831246
-1.37475e-06
3.46054e-05
0.000113775
-0.019274
0.0102763
-0.000993594
-1.60171e-05
-0.00506133
-0.00209767
-0.110189
-0.0303169
0.0170054
-1.20594e-06
-0.179715
-0.00893556
0.0762662
0.247264
-9.48674e-05
0.083955
2.22273e-05
-0.00863376
0.0681498
-0.00511016
0.189386
-0.00994502
0.00375092
0.0709693
0.114243
-0.0012241
-0.0073435
0.138484
-0.080306
0.312982
-0.00703957
0.217541
-0.00670045
-0.00064544
0.105555
-0.0119086
0.0642387
0.000879749
-1.17744e-06
-0.126595
0.150372
0.000181923
0.0722946
-0.00941336
-0.178588
-0.0211948
-0.0287955
-0.00109886
-0.00498191
-0.0645509
-0.0191767
-0.0069305
-0.000155084
0.332832
0.0794584
0.0239594
-9.28358e-05
0.245954
-4.55399e-06
-8.31842e-05
0.0896308
-0.00866773
0.125244
0.0425942
0.0112421
-0.0755836
-0.14304
-0.0549476
0.000539111
-0.0284075
-1.57763e-05
-0.000191951
0.182261
-0.0123176
-0.00188619
-0.0255504
-0.00126952
-0.000448246
0.39969
-0.00747603
-0.000404057
3.64962e-07
0.104782
-0.0286255
-0.000259055
-0.00163483
0.123095
0.0560699
-0.0304983
-2.96633e-06
0.137445
-0.0165497
0.148439
0.0134307
0.0172316
-0.0211473
-3.42581e-05
0.0690798
0.0480638
-0.0191121
-0.098093
0.223454
0.00400399
0.133936
-0.00674938
-0.0448873
-0.00016912
-0.0081249
-0.000132775
0.122665
0.201104
-0.00104918
0.0130047
-0.0117197
-0.0836552
-0.0902947
-0.00111106
-0.000247011
0.387965
-0.0362593
-5.16528e-05
0.0559683
-0.00536875
0.333094
-0.00893621
-0.0190295
-0.018835
-0.0210785
-0.0130972
-0.00540688
-0.00729603
-0.000533416
0.00568661
1.15909e-05
-0.181359
-0.0576336
0.282737
-0.029457
0.131119
0.000998675
-0.0753774
-0.026426
0.161362
-0.00546616
-2.622e-06
-0.0167755
-0.00668302
0.00302404
-0.0174966
-0.0168391
-0.0575076
-0.00912938
-0.0221628
-0.0755309
-1.08937e-06
0.018821
-0.0652666
0.10718
-0.0857071
0.0640451
-0.0972613
0.2566
-0.0145306
-0.0215562
-0.0340451
0.347968
-0.152141
-0.00918168
-0.127033
-0.0560067
-0.120399
-0.0763816
0.129891
-0.00197088
0.192493
0.00622544
-0.000289801
-0.00129128
0.047164
0.436352
-0.00101124
-0.0405408
0.129602
-5.57115e-07
-0.0157262
0.0219958
-0.0309894
0.00635076
-0.00146419
-0.0358875
-0.004734
-7.66307e-07
-0.043775
0.20002
-0.0124318
-0.0112647
0.000920108
0.129344
-0.000319668
-0.000744656
-0.000159126
-0.000983186
-0.00173575
-0.0166257
-0.00423095
-0.0131737
-2.59886e-06
-0.137678
-0.119521
-0.156377
-0.0252477
0.0101903
-8.25112e-05
-0.0122203
-0.0494907
-0.0187658
0.256145
-0.00161833
-0.0422531
-0.00361429
-0.0109177
0.107983
0.000131882
-9.95326e-05
0.0777064
-0.0311467
0.00774403
-0.00212914
-0.00109611
-0.0482574
-0.00014586
-0.0156426
-0.00750511
0.219027
0.199338
-0.0675209
-0.0647777
0.00486592
-0.00680013
-0.0422567
-0.0748049
-0.0308694
-1.34269e-06
-0.0441908
-0.014958
-0.0818368
-0.00943638
-0.0283612
-0.000214439
-0.00198202
0.144377
-0.0204829
-4.45789e-07
-0.00156092
-0.140412
-5.03062e-05
-0.0369642
-4.13457e-05
-0.00128219
-0.10696
-0.0653767
-3.39824e-05
-2.35785e-07
0.0894151
-0.0584211
0.277082
0.208257
-0.045396
-0.000846641
-0.0266456
4.4298e-05
-0.149361
-0.112601
-0.0582939
-0.0116666
0.200684
-0.00171412
1.02802e-05
-0.0045278
-0.149934
0.000955692
-0.0440057
-0.0485571
-0.00945129
0.0108935
0.0460359
-0.0035713
-0.0194569
-0.0985781
0.136168
-0.051623
-8.93407e-08
-0.129434
-0.0405735
-0.0606953
-0.00272548
0.000270158
-0.00585679
-0.113235
0.0172105
-0.0166457
0.0843024
-0.0702466
-0.000996429
0.00863871
-0.00586481
-0.0179911
-0.158971
-0.000120181
0.103686
0.150702
0.00365615
0.154746
-0.0902339
0.0271833
-0.0594015
0.144153
0.0678607
0.417485
-9.31441e-07
0.0634678
0.125534
0.0079325
-0.000697899
-0.00810398
-0.0586132
-4.03758e-06
-0.0102095
-0.0574606
-0.00865073
-0.0120314
1.73644e-05
-0.131996
-0.000253668
-0.000269448
0.1736
-9.08598e-05
0.0192745
0.00844576
0.148995
-4.47359e-05
-0.000384203
-0.142596
0.000278021
0.266074
0.000375327
-0.0584128
-0.000205447
-0.000203806
-0.00251959
-0.080419
-1.5776e-05
-0.00441608
0.0129161
-0.000613843
-1.18512e-06
-3.97174e-05
0.106901
-0.0710142
0.00131077
-0.000369656
0.00206183
0.00828621
0.00136109
-0.000219326
0.275145
-0.12961
0.159119
0.233594
-4.92044e-05
0.00984722
0.0685851
-0.000338012
-0.000149735
-0.000457868
-0.0444486
-0.00363362
-0.0236026
-0.0286245
-0.0647991
0.120306
-0.129195
-7.7699e-07
-0.011351
-0.0160407
-0.0175891
-0.0018109
0.00106007
0.000353711
0.015054
-0.000154133
-0.000225554
-0.0115817
-0.00224492
-0.0146314
-9.27061e-07
-0.0085875
0.018349
-0.0556965
-0.0593193
-0.00454463
-0.00630864
-0.00451376
-0.00250444
-0.00861231
-0.00434977
-3.43165e-05
-0.000279761
0.00982476
-0.00618054
-0.00253707
0.00242855
-0.00402778
-0.151363
-0.00634377
0.109666
-0.0059916
-0.041446
-0.0235904
-0.0135811
-0.0084745
-0.00174624
0.000150065
-0.00175008
-0.00655423
-0.00823248
0.137456
0.100808
0.0220323
0.247687
-1.34081e-05
-0.00341218
-0.00785735
-0.00456468
0.047951
-0.0111555
0.0170355
-0.00417922
0.151517
-0.00107746
-0.00099637
-0.00785887
-0.0287757
-0.000108457
-0.0257359
-0.00277037
-0.010889
-5.16383e-06
-0.00304985
0.000590102
-0.0104149
0.00973872
0.0219057
0.0105679
-0.00772413
-0.0184724
0.0793423
-0.000887969
-0.000862596
-0.000860511
0.361452
-0.000101845
0.0390956
-0.0104784
-0.0119545
-0.0126625
-0.0393357
-0.014704
-0.0196471
-0.0122093
-0.00252373
-3.02471e-05
-0.0019565
-0.0105545
0.0663664
0.000532364
0.101229
-0.0191641
-0.00780172
-0.000294086
-0.0172649
-2.80106e-05
0.103032
-0.0180165
-0.0153299
-0.0142725
-0.00435389
-0.0251001
-0.000597658
-0.0231679
0.0688769
-0.0142899
-0.081699
-0.000548348
-0.0148005
-0.0110127
0.008171
-0.00171742
0.0988726
-0.000969388
-0.00876261
-0.000400557
0.112303
-0.0224544
-0.0138328
-0.00134483
-0.00569118
-0.00148018
0.134548
-0.02369
0.147692
-0.00430741
-0.00052889
-0.000475032
-0.00126725
0.123023
-0.0400862
-0.00403931
5.62189e-05
-0.011596
-0.0270006
-0.000752844
-0.0241175
-0.00910317
0.0368194
-0.00240074
-0.00460336
0.332331
-0.0379804
-0.0128161
-0.0363848
-1.026e-06
0.049888
-0.0016651
-0.0132241
-0.0032004
-0.020194
-0.000205927
-0.000257855
-0.0012296
0.00123736
0.142361
-0.00256933
-0.000850997
-0.00242177
-0.0459308
-0.00431755
-0.0105838
0.000596827
-0.00421187
-0.00389809
-0.0016536
0.145162
-0.0265604
0.00113565
-0.00178371
-0.0141514
-0.00633551
-0.0276447
-0.000894099
0.0606218
0.0116287
-0.00437239
-0.000987799
-0.00828239
0.38045
0.143508
-0.00598547
-0.00018437
-0.00122984
-0.013127
-0.00220691
0.0106847
-0.000232726
-0.0242
-0.000813003
-0.00809668
-0.131922
-0.000786039
-0.0136741
-0.000553887
0.233351
-0.0043198
-0.00578735
-0.0661282
-0.000671617
-0.0147844
0.0122013
0.3336
-0.00606887
-0.00676093
-0.000789076
-0.00033748
-4.79946e-06
-7.51973e-07
-0.00568083
-0.000315471
0.0645344
-0.000468643
-0.000815086
0.00269722
-7.67141e-05
-0.0258806
-0.0704941
0.00938501
0.0244874
0.0153341
-0.00249665
-0.0655805
0.0598078
0.0459227
0.064796
0.084358
-0.00629054
-0.000408739
-0.00557195
-0.0788263
-0.00153073
-0.00800804
-0.0175952
0.255993
-0.0613189
-0.000171182
-3.05495e-05
-0.000505734
-2.99217e-06
-0.000909699
-0.00035551
-0.00458795
-0.027027
0.000113082
0.000749617
-7.55374e-05
0.0307358
-0.00764701
-0.0744416
-0.000948146
0.234258
0.214591
-0.00607491
-0.103618
-0.015218
-0.0116756
-0.00819353
-0.000957458
-0.0918088
-0.0466815
-0.0318105
-0.116517
-5.28133e-05
0.134738
-0.0325879
-0.00450444
-0.044535
0.00932284
-0.000229536
-0.00488497
-0.000520791
0.000317487
-0.00135956
0.114497
5.91412e-05
0.00487144
-0.000119481
-0.137652
0.00395867
-0.000773176
-0.013593
2.76208e-05
-0.0267557
0.0757778
-0.00549795
-0.000638101
-3.73343e-05
-0.000256004
-0.000197487
-0.0349224
0.0860408
-0.0331882
-6.83611e-05
0.000430998
-0.000232196
0.163714
-0.0369774
0.186639
-0.0254702
-0.000143017
-0.000198839
-0.0043378
-0.00267911
-0.000430048
-1.37066e-06
0.0123397
0.015703
-6.82987e-05
-0.000262867
-0.0105191
-1.26695e-06
0.118534
-0.000501902
-0.0302181
-0.0108044
-0.00293887
-0.033067
-0.0419619
0.106198
-0.0391465
-0.0101069
-9.35483e-05
-0.0312545
-0.0099423
-0.0356798
0.0521023
0.262266
-0.000409258
-0.0344625
-0.00124101
0.233261
0.022594
-3.00311e-05
-0.00344437
-0.00186771
-0.00271684
-0.0191376
0.0541673
-2.7743e-05
-0.00241195
-4.17991e-05
0.0392532
-0.00018944
-8.9027e-05
-0.127176
0.210703
-0.0308294
0.0995491
-0.00127731
-6.73637e-05
-2.23957e-07
-0.119806
-0.0166722
-0.000205166
0.0633282
0.00554857
-0.00286325
0.293202
-0.000349995
-0.0023364
-0.0387216
-0.0463975
-0.000930203
0.0938695
-0.0846813
-3.44259e-05
-0.00323382
-0.000114274
-3.60845e-05
0.0948668
-0.0165484
-0.000130603
-0.0251246
-0.0138756
-0.0013969
-0.0539939
0.000799645
-0.0107841
0.000322156
-0.00185786
-0.0388155
-0.0221117
-0.00440818
-0.000519839
0.108544
0.148872
-0.134144
0.00155284
0.00976088
-0.00238107
0.117808
0.0668407
-0.0133303
-5.50638e-05
0.00237514
-0.0235023
-0.00556054
-0.0197702
-0.00117366
0.0153723
-0.0168725
-2.86148e-05
-3.31239e-05
-0.063293
-0.0250216
-0.0128005
0.00288273
-0.0367059
-0.0287248
-9.16686e-05
-0.000977642
-0.000117268
-0.0342387
-4.26164e-06
-0.000928057
-0.0637442
-0.130589
0.063449
-0.0016054
0.00163316
-0.0145172
-0.0134256
-4.46225e-05
-0.0188554
0.0569983
0.110878
-9.74428e-07
-2.3158e-05
0.113212
-0.00137788
-0.11079
-0.0162226
0.00127525
-6.32391e-05
-0.0299977
-0.0585991
0.116332
-0.0236112
-0.000609104
-0.0138366
-0.0427112
-0.000284025
-6.22119e-05
-0.00047159
-0.0517428
-0.0262776
0.092391
-6.32328e-05
0.351339
-0.0676375
-1.17293e-05
-0.000823618
-5.72899e-06
-2.1726e-06
-5.00279e-06
-9.41272e-09
-0.0258627
-0.000439508
7.97419e-05
-5.15071e-05
0.098366
-0.00285624
-5.58814e-05
-2.88384e-05
0.281575
-0.0132012
-0.0790997
0.000104321
-0.000348297
0.0278099
-4.17502e-05
-0.0161231
-0.177174
0.000729592
-0.00647226
-2.45113e-05
-7.82919e-05
-0.0202978
-0.08377
0.00326452
-0.16004
-0.0945347
-3.46822e-06
0.0119961
0.0196051
0.0743785
-0.000706964
-4.55561e-05
-0.035283
-0.00304296
-0.000371037
-0.0257149
-4.22865e-05
0.0135603
-9.22878e-05
-0.000439858
-0.0505441
-0.00210839
-0.0316165
0.338639
-0.00109151
3.75101e-05
-0.0448968
-0.0614762
0.00307291
0.00193065
-3.27437e-05
-0.0173641
-3.25617e-05
0.14067
0.402356
0.0341019
0.00111044
0.00126945
-5.58932e-06
-0.0188961
-2.93231e-05
-0.0105564
-0.000883746
2.46917e-05
-0.0014631
-0.00896204
-2.66751e-05
0.000181411
-0.0104559
-0.000100596
-0.00878423
-0.0100708
-0.0234349
-0.00108148
0.364181
-0.000645466
0.000838466
2.98766e-05
0.00720599
-0.0239069
0.00432288
-6.19969e-05
-2.20185e-05
0.000407564
-4.05723e-05
-2.23324e-05
-0.0106175
0.000158332
-3.24928e-06
-0.0295919
-0.00233499
-0.024988
-0.000792877
-1.17402e-05
-0.00127786
-0.0208747
-0.0118472
-0.0289606
0.000790951
6.93761e-05
-0.000208224
-0.000661753
-3.71666e-05
0.205023
0.000472898
-3.62275e-06
-6.08991e-06
-0.00119171
-0.00028955
-0.0275304
-0.0259984
-9.89815e-05
-0.00388592
-3.13744e-06
-0.00295181
-1.55214e-05
0.0214657
-5.01568e-05
-0.000126857
-0.00368008
-1.22871e-05
0.00691093
-8.6291e-05
-0.000521982
0.0103805
-3.59215e-06
0.281905
-0.0322216
-0.0246156
-9.00572e-06
-2.72676e-06
0.000372294
-0.000449317
-0.0396833
-3.04296e-06
-2.31865e-06
0.000127295
-1.47042e-07
6.20185e-05
8.54709e-05
-0.000183619
0.0001861
-0.0268724
0.3616
-0.0361013
0.25676
0.00428147
-0.0151224
-4.08493e-06
-0.000281669
-0.00748217
2.78125e-06
4.05241e-05
1.38408e-05
0.0223612
-0.00140056
-0.000170922
0.330956
-0.000134968
2.83488e-05
9.95018e-05
-5.2331e-07
-0.0160566
-0.00129835
0.00030575
8.97091e-07
-0.000648427
-9.58501e-06
-0.00108956
-0.0270316
-0.000133769
-0.00181171
3.42007e-07
-0.00325252
-6.12981e-05
0.137639
-0.000158592
-0.000293901
-0.0268704
0.00144358
-7.5969e-05
-0.0005964
-8.41424e-06
0.124575
-0.0421486
-0.000382247
-0.000111296
-0.00234247
-0.000172597
0.0334089
0.0740061
-0.00722661
-1.50822e-05
-8.16315e-07
4.8837e-08
0.025281
3.27952e-05
-0.0229286
-0.0326295
-0.0114922
-0.0759112
0.376494
0.000627333
0.142028
-0.010879
-0.0185118
0.126889
-8.9027e-05
-0.0368348
-3.16764e-06
-0.00542427
-0.0197022
7.79192e-07
-0.0486375
-0.000331805
-0.0245608
-0.00578579
-0.0170589
-0.0235179
-0.00381395
-0.0454722
-0.0179086
-2.36737e-05
-0.00520867
-4.42321e-05
-0.0159669
-2.48505e-06
-3.13448e-05
-0.00671372
0.119933
-8.17672e-08
-0.0278441
0.00119617
3.26409e-07
-0.0181516
-2.51651e-06
-0.00568185
-0.000161865
-0.0160269
8.2745e-06
-2.76596e-05
-0.00167989
-7.7029e-05
0.116649
-0.0188908
0.0339878
-2.49642e-05
0.00013594
-0.0134356
-5.66626e-07
-0.0335872
-0.0347495
-0.0263218
0.356856
-0.00382751
-2.47368e-06
0.013903
-0.0180456
-0.00271986
-4.44392e-05
-2.27018e-05
-0.0251819
2.19024e-06
0.000211698
-2.734e-07
1.69795e-06
-0.0121054
0.0649383
-0.0960449
0.0626822
-0.00302375
1.41822e-07
0.00051888
-0.05131
-8.64745e-07
-2.77319e-06
4.9645e-05
1.74597e-06
7.27541e-05
0.174941
0.0201219
9.72347e-07
-2.73108e-06
-0.031397
0.149052
0.129537
-1.3606e-06
-0.0213745
-0.0171889
-0.0098642
-0.0237556
-0.00827795
-0.00143129
0.102316
-2.30333e-05
-0.0160984
0.123538
-0.0291538
-1.92676e-05
-0.0279458
-5.19895e-05
0.230416
0.0127008
-2.59087e-05
-1.05242e-05
0.136521
-9.21618e-07
-7.23097e-05
-0.00529256
-6.08782e-06
0.189546
-6.21128e-05
-0.00330844
-0.0276465
-0.00207066
-0.0845506
0.13559
-0.0220676
-0.0653076
0.000259657
-8.10818e-06
-0.000713111
-1.49074e-05
-9.5609e-06
0.00135702
0.133623
0.109374
-0.00021012
0.184636
-0.0154575
-3.01438e-06
-0.0192227
-1.72191e-05
-0.0176804
0.0137941
-0.0131736
0.001306
0.000571311
-0.00431394
-1.97526e-05
-0.000902371
0.00710994
-0.00104904
-3.22881e-05
-1.0843e-06
-1.11284e-05
0.0186425
-2.69005e-06
-0.0221848
0.194304
-0.00402722
7.03437e-07
-0.00155099
-1.0769e-05
0.0301038
-7.58147e-05
-1.45744e-05
-6.19457e-06
-4.1381e-06
0.156829
-8.3864e-05
0.180671
-0.0456437
9.12434e-07
-0.0394827
-0.000500779
0.114834
0.336214
-0.000465163
-2.78194e-07
-5.22698e-06
-6.57324e-06
0.0958862
-3.54093e-07
0.000197823
-0.0101101
0.168657
-2.09639e-06
-4.06665e-06
-2.45033e-07
-1.11642e-06
-0.0125323
-4.25496e-07
0.212064
-0.0140762
-1.31762e-05
-3.65732e-07
-0.000746806
-0.0132684
-2.45774e-07
-8.03827e-06
0.122045
-3.45928e-07
-0.0196984
-0.0779349
7.86316e-06
-3.68941e-07
-0.18306
-2.62785e-07
0.119402
-5.46779e-07
-0.000189655
-2.40051e-06
-2.06793e-05
0.0639329
-1.71395e-06
-0.000813107
-3.96576e-06
0.00153717
-0.00215199
-0.00267213
-0.00190142
0.112444
-0.000268317
-2.88653e-05
-0.00396349
-0.00405731
-3.77764e-05
-5.88412e-05
-0.000498574
-3.76436e-06
0.125607
-0.00885355
0.372866
-2.39309e-06
-0.00405608
-0.000157657
0.0928742
-1.93855e-06
-0.0190683
-1.13655e-06
-0.000724666
-0.0201333
-5.45532e-05
-0.00949867
-0.0309198
0.00107745
-1.3289e-05
-0.0589252
-5.43312e-05
-0.000348783
-0.00273024
-0.022492
0.000185184
-6.98002e-05
-0.000165185
-0.000998624
-0.000545665
-4.67311e-06
-0.000475713
0.332911
3.8436e-06
-0.00137893
-0.0208933
-0.0272142
-0.0358209
-0.0209705
-0.0137441
-0.000594182
-0.0222334
7.75792e-07
-2.43409e-05
0.350574
-1.89986e-05
0.129807
-8.42893e-05
3.62506e-05
-0.000410585
-0.102136
-0.000142702
-0.00144908
-8.31201e-06
-0.00011981
-2.32916e-05
-1.98047e-05
-0.00655996
-4.68378e-05
-4.01922e-05
-1.78926e-05
-4.40914e-05
-9.4451e-06
-0.0299693
0.180875
-2.7283e-06
-0.000125931
-8.25819e-05
-1.17018e-06
-0.000259301
-2.00204e-06
-0.000303832
6.96452e-06
-0.000100523
-0.0336547
-0.000254822
-0.0010796
-1.69995e-06
-0.00166801
4.94434e-05
-1.50418e-06
-3.69537e-06
-1.18742e-06
-0.00018341
7.53695e-05
-0.0301264
-0.021826
-0.0313935
-0.0005644
-0.00216076
-0.06098
-0.0290908
-9.98783e-06
0.00457637
0.00199148
-0.000251915
-0.00702997
-0.0216868
0.332286
-9.86317e-05
-3.81893e-06
4.37016e-05
-2.12061e-06
-1.45303e-06
0.050301
0.000391249
0.0593453
-0.0380833
0.312648
-0.000105556
-1.16117e-06
8.10143e-06
-6.94006e-06
-0.000361863
0.109562
0.163621
-4.75004e-06
-6.4754e-05
-1.22308e-05
0.15437
-0.000696814
-0.00932116
-1.0313e-06
-1.01057e-06
0.00294889
-0.000154049
-0.0481577
-0.0104859
-7.449e-06
0.001019
-0.0251754
-1.26493e-05
0.000392919
-3.69814e-05
-0.0248022
-0.000495226
0.103488
-1.37938e-06
0.000470286
-0.00195644
-2.02683e-06
9.81186e-06
-0.0144741
-1.78058e-06
-0.000221325
-4.37106e-06
-0.00800367
-0.0219716
-0.00350229
-0.00943073
-0.00382004
0.00399851
-0.00506854
-0.000771308
2.27338e-07
-4.76094e-06
-3.40221e-06
-2.62375e-06
-9.54655e-06
0.00319528
-0.0494007
8.26696e-05
-0.0514449
-0.000979793
-0.0521532
2.82019e-06
-1.02293e-05
0.00032515
-0.114464
-2.32193e-06
-0.0484982
-0.0111476
-0.0392173
-0.0545599
-2.13274e-06
-0.00113348
1.06732e-05
-0.186413
0.0952458
-7.981e-06
-0.0417699
-0.0180962
-0.00146817
-4.61714e-06
-3.02938e-06
0.00459464
-0.00659844
-5.66137e-06
-0.00317808
-1.7874e-05
1.09929e-05
0.0858837
-2.15117e-06
-1.36953e-05
-6.90256e-05
-3.54907e-06
0.000191859
3.27495e-06
-0.00186396
8.53659e-06
-0.00774732
0.000227725
-0.000105866
-0.0314636
-0.0279112
-0.00356006
-1.98292e-06
-2.92223e-06
-0.0675123
0.00213405
-0.0283057
-8.16173e-06
-0.00281153
-1.16733e-06
-3.73424e-06
0.0407656
-0.00248803
-0.000892883
-1.14968e-05
-0.0130522
-1.75947e-06
-0.039948
-4.7773e-06
-0.0462798
-1.32473e-05
-1.76832e-06
2.72747e-06
0.00024291
-0.125659
-0.00739122
-0.0514689
-6.79143e-06
-3.68596e-06
-0.0427062
-0.0308793
-0.00317443
-3.39449e-06
-0.0584808
-0.0413903
-0.0398642
-8.83966e-06
-3.90864e-06
-2.30432e-05
-0.11763
-0.0525266
0.000105265
-0.00410136
-2.61319e-05
0.171203
5.01356e-06
-8.86393e-06
8.53659e-06
-3.0605e-05
-4.68971e-06
-0.00191635
-7.36929e-06
-0.00140354
-0.0530727
-0.00509499
-0.0204208
-8.7535e-06
-6.81568e-06
0.0242288
-0.0737127
-0.00166122
0.0766012
-3.88935e-05
-6.19365e-06
-5.28127e-06
0.068121
1.07817e-05
-6.70031e-05
-8.29172e-06
-0.0617653
-0.00618983
-1.51985e-05
-6.31639e-05
-0.00558749
-0.0023134
2.1758e-05
0.165566
-0.052985
-0.000828546
0.440024
-5.2429e-05
-0.000589925
-0.00778499
-0.0353483
-6.78053e-06
-1.97983e-05
-1.61532e-06
0.00151985
-0.0337516
-0.000186139
-0.0343471
-0.00285732
-1.0901e-05
-1.27058e-06
-0.00384866
-0.0197296
-0.0476614
-0.112722
-0.0230805
-0.0233327
-0.0358316
-0.0200971
-1.60166e-05
2.92917e-05
-0.0167747
9.74217e-05
-0.000152636
9.37303e-05
-2.1238e-05
-0.000120237
-0.00460297
-2.19628e-06
-1.7909e-05
0.0128019
-0.0515633
-0.000261469
-9.05161e-05
-5.58364e-06
0.18093
-0.00394321
6.87754e-05
-0.0208151
2.57883e-05
1.31508e-05
1.40767e-05
-1.56033e-05
6.41991e-05
-0.0265497
0.00208068
-1.84691e-06
-0.000203786
-0.0327753
-0.029225
0.0301787
-9.23073e-05
0.000545893
0.00883273
-7.8299e-06
-6.53068e-06
-0.0498963
-1.79408e-06
0.117925
-2.53977e-05
0.00151973
1.36455e-05
1.46496e-05
-0.0348427
-0.00463182
-0.0111159
-0.00083015
-1.93001e-06
8.94637e-05
0.0389793
-0.008095
-5.21634e-05
0.0634663
0.114799
-2.56608e-06
-0.0319687
-2.59637e-05
-7.3741e-06
-7.58067e-06
-0.00011517
0.0101934
-3.36545e-05
1.48103e-05
-0.0111815
-0.0156819
-0.00838376
0.227974
-1.921e-05
-1.83182e-05
0.121728
-0.0179292
-0.00212375
-0.000135451
0.119693
-1.69653e-05
-0.000448515
-3.51783e-05
-3.17144e-05
-2.25194e-06
-2.93783e-06
2.60938e-06
-0.00773691
-1.04532e-05
-0.00217759
-0.0242815
0.179761
-0.000331704
-8.95466e-06
0.00170681
0.0561877
-0.0508514
-0.000170045
-0.0280896
0.228414
-1.79245e-06
0.29909
-2.72915e-06
0.000871177
0.0126414
6.42324e-05
0.316109
-5.75407e-05
-2.60127e-06
0.000157179
-2.75959e-06
-0.00018878
2.63486e-05
-1.16045e-05
-0.000747867
-4.28041e-05
-5.81085e-05
-0.00146629
0.177713
0.0275527
0.011428
-0.0208009
-1.98067e-06
-1.3921e-05
0.000760482
-0.0573806
-6.33548e-06
-0.0237151
-1.47234e-05
0.0701806
0.0390136
-0.0257597
-0.000618062
-0.00977619
-0.000231864
-0.00582261
-0.00240826
-0.00630252
0.039122
-9.04638e-07
0.190376
-0.00170467
-0.000763879
0.15443
-0.00823605
-1.79577e-06
-1.44875e-05
2.8452e-07
-2.6903e-05
-7.39374e-05
0.179439
-0.000352922
0.184942
-0.00129587
0.118207
0.164103
0.0728585
-0.00422876
-7.25447e-06
-5.87841e-05
-0.00391146
-0.168153
-0.0384201
0.000401981
-2.89257e-05
-0.0193999
-0.00057271
-7.31617e-05
0.000241454
-0.000348608
-0.000983658
0.0183182
2.09266e-06
-0.0212483
0.0339177
-2.02631e-07
1.20035e-05
-0.0124111
-0.0553351
-0.000229884
-0.000137272
-1.74578e-05
3.16895e-06
0.0427337
-0.0126341
-0.0393582
0.000314316
0.0566104
-0.0275809
-1.57514e-05
-9.93155e-06
-0.0097424
-0.000131214
0.0431939
-0.00604137
-0.00536966
-0.000188747
0.000337478
-0.0284096
-9.897e-05
7.0341e-05
-0.0169744
-0.0423704
0.106859
-0.0308618
-0.0179867
-0.000222517
-6.44531e-06
0.00285215
-6.69823e-06
-0.0381701
-0.0502998
9.60165e-05
0.000589306
0.0013819
-0.134063
0.000110479
-1.47395e-05
-2.30562e-05
-0.0291676
-6.17998e-06
9.81008e-05
0.0847015
0.129342
-0.154136
0.0304037
0.0284178
-0.00843258
-0.000285372
0.0011275
7.0084e-06
-4.88491e-07
-0.000166155
-9.13446e-07
-0.000137716
-0.000111808
-0.00447988
-0.0872988
-0.00597099
-0.0262909
0.0314116
0.0257779
0.00131243
-0.0513039
-2.72829e-05
0.000954168
0.00429514
-0.000150739
0.0470778
-0.00166799
-0.00786252
0.00376807
0.00222759
-0.000836177
-0.00228953
0.0225586
0.000126414
-0.0121216
-0.011055
0.379741
-0.0189956
0.0520762
-0.00990321
-0.035239
0.000578285
-4.36453e-05
-0.000843131
-3.80427e-05
-0.000777023
-0.0180671
-2.22276e-05
-0.000209533
0.214452
-0.0010379
-0.026473
-0.00735619
-7.12988e-05
-0.00215691
-1.06977e-05
-5.22278e-06
0.0183887
-6.23967e-06
-0.000953518
0.0470966
0.00175677
0.000285982
0.00767896
-0.0033465
0.0015216
-0.160149
0.000113153
-0.0024505
-0.0382734
-0.000629339
-0.00480112
-3.69086e-05
-0.00267473
0.000194524
0.0166612
-0.000487876
0.00199933
-0.0242069
-0.0138833
-0.000132945
-0.0214252
-0.00914291
-0.00684029
-0.00010275
0.00261186
-0.0724441
-0.000286854
-0.00321517
-0.0205494
-0.00362958
-0.000503578
0.163788
-0.0222527
-7.88782e-07
0.00351798
-0.0444706
-0.000385896
0.141657
-0.00277591
0.000212344
0.0383136
-0.000661244
0.00288346
0.0899976
-0.000295516
0.000279636
-7.49609e-07
-5.31638e-05
-0.00155533
-0.007003
-0.000360493
-0.0148953
0.0650472
-0.018106
-0.0777445
0.000281491
-0.00152859
-0.000833579
-0.0722534
-4.88374e-05
0.00357429
-8.87543e-05
-0.00647441
-0.000698327
-0.00173645
-0.0853691
0.079118
-0.0869258
-1.77218e-05
0.144953
-0.00177374
-0.0035402
-0.0322751
-0.0942363
-0.0104376
-8.58319e-06
-0.00141153
0.00284006
-0.00136331
-0.00264107
-0.000133888
0.0569088
-0.0413547
-0.00671878
-0.00237361
0.00260503
-0.0066425
-0.0050363
0.000469276
-0.000520502
-0.00129712
0.0773399
2.85489e-05
-0.176189
-0.000192402
-0.00268447
-0.00446342
-0.106199
-0.00759841
-0.136399
-1.95447e-05
-2.30273e-05
-0.00850419
0.00419525
-0.000125958
-0.167374
0.054202
-0.0362079
-6.02389e-06
-0.190342
-0.000258887
-0.204827
-0.0163626
-0.236867
-0.240452
-0.235017
-0.199703
-0.118701
-0.0860331
-0.0550369
-0.0239421
0.00772987
0.0992839
0.129339
0.156865
0.203574
-0.00301232
-0.00545187
0.0310657
-0.0230798
8.89861e-05
-0.00163764
-0.0274307
-0.000266299
-0.00107356
-9.29086e-07
-0.0101784
0.0086535
-4.88258e-06