/*--------------------------------*- C++ -*----------------------------------*\
  =========                 |
  \\      /  F ield         | OpenFOAM: The Open Source CFD Toolbox
   \\    /   O peration     | Website:  https://openfoam.org
    \\  /    A nd           | Version:  7
     \\/     M anipulation  |
\*---------------------------------------------------------------------------*/
FoamFile
{
    version     2.0;
    format      ascii;
    class       volScalarField;
    location    "2";
    object      p;
}
// * * * * * * * * * * * * * * * * * * * * * * * * * * * * * * * * * * * * * //

dimensions      [0 2 -2 0 0 0 0];

internalField   nonuniform List<scalar> 
20933
(
-0.022934
-0.125095
0.152933
0.000257707
0.00208702
-0.000729786
-0.131717
2.5296
-0.0591122
2.4886
-0.0501822
2.17376
-0.103436
-0.0215721
-0.0220851
0.000262122
0.987284
1.67653
-0.148702
-0.121218
-0.0256569
2.20106
2.51236
0.0476066
0.142868
3.53256
0.0508372
-0.068057
0.170524
-0.140915
-0.00660149
3.97053
2.54166
-0.0516111
0.000263656
-0.00623191
2.70744
-0.000577529
0.0802789
1.52145
0.253727
2.91094
3.05536
0.0452904
3.52891
-0.310613
2.21027
1.54867
-0.00132876
-0.152267
-0.000323314
0.54855
0.483995
0.0018939
0.506092
-0.259158
-0.118237
-0.00722368
0.0237657
1.02374
3.68876
-0.230379
-0.058861
2.37018
-0.00339768
-0.0245172
3.47455
-0.0274971
0.543217
3.4915
0.205194
0.811935
-0.0201096
-0.0974884
3.49277
0.278382
3.47393
-0.307664
1.49648
3.30984
-0.0198207
0.0117665
0.130997
-0.0473628
-0.231786
3.06818
-0.0853801
4.17089
2.36562
3.63939
2.11621
0.000874419
0.000156537
4.15678
1.48805
-0.0555457
4.18333
-0.0031735
-0.0154112
2.59733
3.66555
-0.125898
3.71906
0.533762
0.887339
0.420632
3.32817
0.616541
-0.180032
3.24274
0.166406
-0.146359
-0.117808
0.19276
0.314895
5.03663e-05
3.01656
-0.0173267
0.448485
3.27705
0.000779207
0.0189955
1.71204
0.015165
-0.0517358
1.69551
2.42867
-0.0662841
4.00241
3.0614
-0.096093
-0.152812
0.251774
0.0753942
3.34534
0.81822
1.7459
-0.0129746
-0.0983327
-0.124084
-0.006614
-0.106778
0.743555
3.74693
1.23944
3.36451
2.67727
-0.162244
2.31854
0.0573507
-0.165622
3.47174
0.000218042
-0.0432717
0.0114592
2.71689
3.10868
0.0433892
-0.278005
-0.110613
0.463174
-0.100921
-0.0074664
1.29132
1.26851
4.14862
-0.119055
0.100133
0.249695
2.67702
1.71391
3.5447
3.17637
-0.0647676
4.32237
2.51309
-0.019649
3.66549
0.354565
3.31002
3.41028
-0.000439455
3.74812
3.12041
-0.114661
-0.304283
0.209455
2.51919
0.492461
3.95914
2.40933
0.953323
2.6439
0.583354
-0.273669
1.98428
3.73959
1.30855
-0.111751
3.98865
1.60761
0.645398
0.527252
3.90952
3.79823
-0.180675
-0.0185804
0.556658
-0.255563
-0.01094
3.45805
3.62578
-0.163814
-0.226515
3.28218
3.4925
-0.0391444
3.27644
0.659025
0.0822635
-0.019594
3.16253
3.8167
2.13526
3.21747
-0.105124
-0.00693075
0.000117411
-0.0310435
0.00182281
1.68363
0.356033
3.30202
-0.108504
3.12201
-0.0763918
0.407927
3.52447
4.21901
3.13797
3.45097
-0.233224
2.86457
0.024265
0.96002
-0.0181399
0.557428
0.868416
0.583167
-0.00119022
-0.175988
3.84407
1.83794
0.0748812
-0.17156
0.359744
-0.0586349
2.93662
-0.114316
-0.304185
-0.0690237
-0.0448841
-0.0044105
-0.0788551
-0.0860743
3.74844
1.29019
-0.108772
3.14798
3.78561
-0.083557
0.0029286
-0.0522661
3.4678
0.377315
3.67865
3.79033e-05
-0.219997
3.2509
3.42435
0.0852678
-0.110145
3.92041
0.74186
0.93186
3.69324
3.9426
-0.0919996
3.27466
1.30535
3.28667
2.91869
0.00296637
1.28037
2.7121
-0.021394
-0.129065
1.38401
0.0813476
1.57173
1.04636
0.000263116
-0.00243276
3.64731
0.00355358
-0.130398
-0.0999942
2.19139
-0.205819
3.31165
1.43141
-0.0813169
-0.315834
2.61582
2.02917
0.000179677
3.63439
3.08251
3.62627
0.561537
-0.00363909
3.90912
-0.0165839
-0.0628064
1.97748
1.31928
-0.122949
0.678806
3.12118
4.1319
3.40797
1.58445
4.33422
0.000235364
-0.056298
3.42938
0.30208
2.69549
-0.0873228
3.50309
1.31173
0.000721387
1.2755
2.99709
0.206223
3.78761
3.08589
-0.00294852
0.207239
2.48159
1.7539
-0.0371071
3.15113
0.036214
4.23361
-0.0198202
-0.167061
-0.163878
3.40602
3.09853
-0.228623
2.59367
3.63634
0.00409851
2.85154
3.04693
4.31144
-0.0140227
2.19124
0.821655
-0.269473
-0.00178686
3.5189
2.92403
1.15691
3.58318
1.64617
-0.126151
2.81904
1.28585
1.84248
4.23641
0.020453
1.86701
3.6152
-0.178961
1.13816
0.00808563
2.43161
-0.217465
2.14284
1.20305
1.81641
0.00641685
2.23029
3.59741
2.90834
0.11476
-0.0376729
3.8861
3.94251
-0.015401
-0.211127
3.28946
-0.124758
0.36128
2.9217
-0.169154
4.39191
0.111719
2.30773
-0.0486821
3.61727
3.04867
0.59897
0.389159
0.988335
1.64465
-0.00230101
3.28325
0.836061
2.41513
4.21017
0.587458
0.275405
-0.000154926
1.5916
1.25022
-0.124232
2.97564
0.000160136
-0.143277
0.076634
0.77607
-0.0707791
-0.00126002
-0.0928718
1.94114
0.166939
0.177667
-0.189068
1.40047
1.07601
-0.147597
-0.310926
0.00467788
0.546836
-0.108042
0.0646778
0.110083
2.02886
2.88286
1.3488
-0.00318776
3.96456
0.0654662
-0.000195893
0.23436
-0.19387
-0.0509017
3.77811
0.0851299
1.31815
-0.0794099
-0.097784
2.87774
-0.0539968
-0.106268
-0.115963
-0.00165176
0.575541
4.02631
-0.0306022
-0.210152
2.95287
-0.115876
2.90061
2.33567
-0.0191837
-0.0102498
3.09182
4.16342
-0.0752375
2.60286
1.91183
-0.179445
-0.180959
3.28591
0.807621
0.16463
0.0417934
-0.244953
0.391926
3.91163
1.55377
0.000500881
3.72604
0.134568
-0.0475629
3.22087
0.0884716
-0.0522629
-0.00292246
0.707978
-0.178417
9.41642e-05
2.59497
0.416657
3.29892
-0.00414123
0.00105572
-0.123296
9.43147e-06
-0.0914649
0.2132
-0.00194496
-0.0252099
-0.296767
3.17889
3.59834
-0.0166581
0.0158938
-0.118783
3.61287
0.00961322
3.62277
-0.0940324
4.2597
2.91175
2.17314
4.09431
0.899682
-0.0526281
0.814772
0.0319226
3.56241
3.26644
-0.158511
0.584081
1.00068
0.242571
-0.0529283
0.511879
9.83837e-05
3.1878
-0.308985
-0.0862766
-0.0300634
-0.00713733
2.29452
1.40188
-0.0328884
0.104884
-0.000157787
4.26917
3.88426
-0.0284044
-0.142696
0.175402
3.2596
-0.294367
1.92726
-0.200437
3.43777
2.18328
-0.183076
4.38038
0.345857
3.38559
-0.0393165
-0.123367
3.78291
0.0536527
4.17654
3.20841
4.30114
-0.049435
-0.0818194
0.027903
0.930016
0.0803417
0.0465594
3.38883
3.46381
2.88692
3.58752
4.12937
2.53243
3.59352
2.90404
0.0249663
3.12595
-0.11269
-0.192207
-0.00651927
0.211347
0.147482
2.53796
0.669075
3.30914
0.0170878
1.15077
3.21781
0.0377441
0.357612
-0.000129649
0.00185795
2.5275
-0.0898931
-0.162858
0.00213311
0.000688448
0.941065
-0.00303396
1.44904
4.29597
2.64954
2.42101
-0.187097
3.2797
1.64687
0.0152914
-0.139198
-0.0140967
-0.00316093
0.00951934
-0.0278787
-0.0659511
2.65919
0.939963
-0.305525
-7.55166e-05
3.40702
1.04546
0.726248
0.0649952
1.75084
0.190283
-0.305329
3.22393
4.09633
3.1404
-0.219357
3.15884
-0.204968
-0.0978911
2.70401
0.00049626
-0.0638416
2.23076
2.49673
-0.176746
3.22499
3.79714
3.15688
-0.202927
-0.302918
0.20948
1.32473
3.04815
-0.025307
3.74777
-0.0645998
-0.105743
0.856411
3.99113
2.68222
3.2961
0.252042
4.24783
-0.169362
-0.0899118
4.35188
0.543164
-0.030075
3.35351
3.44134
-0.133919
3.0234
3.61545
3.4211
3.2584
3.38468
2.96537
-0.0751093
-0.163817
0.014507
-0.114564
3.59048
-0.108282
2.08313
1.95828
-0.164281
1.46337
2.26789
3.65225
1.43299
-0.00180403
0.425452
-0.104773
0.767898
0.759926
-0.114353
3.23321
3.69395
1.09026
3.62886
4.17752
-0.0290244
0.0179934
-0.0191625
-0.150732
2.78422
4.28158
1.59369
3.2901
-0.100871
3.04418
3.107
0.467036
-0.231439
-0.289048
2.08534
0.0416989
0.985647
-0.169887
-0.254952
3.31201
-0.0438475
0.0947732
3.44811
1.41799
3.9259
-0.0166025
2.86851
0.733301
-0.0656616
3.73671
4.06505
3.58437
-0.0448954
4.02776
-0.191638
3.67474
0.644022
3.55744
-0.116513
0.000155034
3.56835
3.68571
3.66391
3.57623
2.50849
1.17327
2.83314
-0.0319622
3.58121
3.20655
1.02724
0.691413
-0.0721482
0.921634
3.26845
-0.248455
-0.222092
3.67071
3.59949
-0.0889456
3.52559
-0.127128
1.70551
-0.105036
3.64346
3.69136
4.20033
3.64398
-0.0246211
-0.101359
-0.00741111
-0.0881017
3.91688
2.36853
3.22941
-0.252123
2.9147
0.192708
3.9228
0.281815
3.64314
-0.095919
3.85796
3.97764
-0.110334
1.68785
3.84881
-0.0253329
4.06616
0.169207
-0.0316084
-0.237404
3.39554
2.11647
-0.0884799
3.54497
4.01502
3.08617
0.370142
-0.0627833
0.749817
3.58943
4.00275
4.27051
2.29995
0.000396589
-0.238886
3.25717
0.00961688
-0.0845535
0.0148373
-0.0423966
0.0801899
0.302456
3.75869
0.0741697
-0.0055078
3.15471
2.34222
0.00753917
1.91569
0.00959116
2.0394
3.17136
3.54689
0.212377
1.77588
-0.0349757
0.406397
-0.0267125
3.6184
3.77076
0.31247
0.213757
0.128842
0.0631479
3.56543
0.0969591
0.186546
-0.0166402
0.442137
4.13158
0.0717591
1.26318
3.66141
-0.0554781
1.48351
0.130062
0.0263083
-0.0260097
-0.00147268
4.10481
2.84633
0.269688
1.09627
2.93602
3.49235
3.1939
0.650563
-0.118034
-0.0558198
-0.0965437
3.09338
-0.19677
-0.0418767
-0.00133212
-0.154729
-0.0128786
0.117081
3.4275
-0.00758122
3.60857
3.55583
-0.190528
-0.0835725
4.17034
2.98329
0.976912
-0.0909189
3.02212
-0.0609268
2.73737
4.1089
2.86443
-0.180881
-0.0982855
3.35133
-0.160452
-0.0649299
-0.050341
3.80779
-0.124582
0.9815
2.97623
2.6245
3.13929
0.086486
2.76983
0.0547187
3.6447
-0.0342342
2.23021
0.0176589
-0.0164031
-0.00620964
-0.014111
0.00570137
3.81727
-0.0296586
2.89018
1.66062
0.319734
0.0702439
2.42423
4.25162
3.87282
0.234414
2.32565
0.159602
1.51791
-0.21386
1.91024
-0.226935
0.00660139
3.0464
-0.104925
0.0870266
3.79187
3.32855
3.66732
0.381374
0.818858
-0.0581492
2.36082
0.471539
0.000770524
3.90358
1.84874
2.28145
1.13297
-0.00120469
-0.0265706
0.0101465
2.23822
0.00145302
-0.0597157
0.080057
-0.0876269
3.93796
-4.84252e-05
-0.0743873
-0.281755
4.09952
0.126966
-1.59637e-05
0.177568
1.62831
3.17522
-0.0930064
-0.0756028
0.0315218
3.21859
-0.0899353
2.23588
0.353447
0.254779
1.36479
3.19066
1.25768
2.33628
-0.0289549
3.32502
4.0047
-0.0917304
2.90376
-0.0975255
4.0639
3.96466
0.0886899
1.56226
1.47183
2.84969
7.68064e-05
3.57456
4.33625
-0.0469316
2.13808
2.6687
0.00433051
0.00433662
-0.114338
4.22899
-0.0115193
-0.0551343
3.58344
0.0194858
2.81371
3.65583
-0.116057
3.8524
-0.133321
-0.0827013
3.66426
2.29785
3.13965
-0.0313742
3.67291
2.27615
3.54808
-0.103556
-0.0109496
2.13549
3.88443
3.67288
3.89602
3.60854
0.844657
-0.2235
1.1396
2.9479
3.55784
4.03317
-0.161577
2.4689
4.16565
3.41834
0.0047604
-0.24424
-0.130761
1.97529
0.408865
3.8632
2.27374
3.54767
1.42199
0.449168
3.56616
0.869132
2.97897
0.187792
1.35456
-0.00174132
0.154577
-0.074216
4.06836
-0.0771024
-0.107861
0.749191
2.10729
1.51071
-0.11587
1.03556
0.273661
-0.0248632
3.07207
2.01386
3.25254
0.354941
3.71823
0.050483
0.00292442
-0.0225147
0.137932
0.172379
0.253277
0.0418414
2.68859
3.89542
2.13389
1.19517
0.0896088
-0.0692831
2.88114
0.124263
4.09732
2.72016
0.0789075
-0.127241
0.669739
0.229489
-0.0438059
0.0691687
0.483038
0.0178964
2.63595
3.96993
3.72721
2.52525
-0.0415172
-0.14348
-0.0183782
-0.0408815
3.10161
-0.101273
3.02371
0.0329338
-0.074957
3.90786
3.96229
0.0039388
3.5881
3.70913
1.91516
0.122287
2.04558
3.08792
3.95744
2.75935
0.133955
3.90201
1.22879
0.00766736
-0.0262501
0.141123
4.01246
0.1562
3.63108
2.73511
3.85704
0.340168
2.81272
2.97964
0.061791
3.67624
0.711042
3.82663
0.00387065
2.82702
2.99874
3.0502
0.00808277
1.04599
-0.0157522
-0.152042
2.63692
-0.0740596
2.8981
2.89762
4.20088
0.310876
3.83636
0.237296
0.210986
1.2829
3.57954
1.69363
0.84169
1.15468
3.26637
0.0184127
4.16491
0.0275411
0.661419
1.68323
-0.155544
3.62585
0.0110319
3.74306
3.20452
1.77955
0.923789
2.08398
0.00164834
0.825864
3.80044
-0.0932896
0.619153
2.78425
1.46544
0.565077
0.960334
-0.0966113
3.97322
-0.133786
1.24269
0.685538
-0.235173
3.53766
4.26161
-0.192513
-0.0737206
0.0562174
1.37978
0.00543445
1.86516
3.97242
3.86567
0.237907
1.98015
0.000640822
-0.197085
3.34683
0.107281
2.29355
-0.149046
4.1142
3.31332
-0.0638739
0.118467
-0.0169615
4.14743
-0.152188
-0.00851919
-0.157013
1.8682
0.0232317
-0.150209
1.79009
4.00719
-0.0623619
4.06766
4.2693
-0.0852829
0.573779
0.00340778
-0.0338249
0.303914
-0.0714969
4.13284
-0.123022
-0.0497893
3.02158
-0.0853455
3.22239
-0.0779733
1.077
3.24569
3.04109
-0.10081
-0.0260452
-0.0834076
3.43559
-0.151382
2.34495
-0.173741
-0.050821
-0.187774
0.00776715
-0.0213671
-0.0375434
-0.00245109
0.67284
0.0995378
1.6974
-0.0188911
-0.168626
-0.0416117
-0.118066
0.079797
3.93119
0.764007
-0.0649553
0.0705625
3.37865
-0.0191161
3.07594
0.585469
1.35996
-0.0927161
3.21526
2.34917
-0.215176
0.0397575
0.00584531
2.79971
0.000112618
3.02827
3.42615
0.0699346
0.363385
1.71415
1.47075
0.013436
2.04122
3.31052
-0.136839
2.92814
-0.207793
0.345914
2.85459
3.95719
0.731099
0.0332374
3.53367
3.02574
-0.152311
-0.104862
-0.0788266
0.31277
-0.151057
-0.0605834
3.35924
0.0949268
0.282632
3.36497
0.200136
-0.125634
2.59328
-0.0387951
1.96681
3.00654
0.751853
3.1101
-0.0676657
3.9137
0.103802
-0.000219463
-0.000804958
1.24255
0.00222054
-0.0846263
2.01171
0.275993
0.0179174
-0.0486329
-0.0927387
2.3189
3.63502
-0.00754892
-0.107211
0.185551
2.91433
-0.123205
-0.100854
-0.164927
1.12566
2.60384
-0.0217233
-0.0850392
0.603139
3.19862
3.38751
2.00987
3.05465
3.69253
0.0162985
2.91741
1.47924
0.760864
-0.140066
0.508849
4.36216
0.0912787
0.152699
-0.215963
3.20546
-0.103911
0.00165738
-0.185997
-0.213553
-0.0376071
3.64274
2.70256
3.02315
3.39709
3.06984
-0.150706
1.79123
2.63486
1.17103
3.56934
2.2747
2.79316
-0.000126712
2.72109
-0.0449839
2.233
2.79968
-0.0527908
1.28463
1.30306
-0.107391
-0.0700896
1.34909
2.18964
4.03817
2.35578
-2.66166e-05
2.46881
-0.113753
2.84744
2.37936
-0.112955
-0.125073
2.95473
3.59412
1.80163
-0.295029
-0.178179
2.05514
2.93616
-0.212638
3.32257
-0.161463
1.91509
0.639839
3.85373
-0.00618702
0.0142703
-0.0392511
-0.191312
0.5673
-0.170071
3.02635
3.38208
0.0733779
2.52267
0.0838846
-0.122001
-7.03834e-05
2.23333
-0.00557396
2.68045
-0.000389893
2.98009
-0.274365
3.27933
0.641527
3.46016
-0.229986
-0.0944477
-0.00868093
3.62853
-0.172506
1.53147
1.90199
0.103267
3.252
-0.097384
0.0934349
-0.203815
-0.042531
3.66047
-0.0423347
-0.18301
-0.128263
-0.000194174
-0.141784
3.30751
0.00647714
-0.26373
0.0164063
-0.01344
3.12562
0.7045
1.20435
0.0695041
0.00675732
-0.00403767
0.940636
-0.21552
0.0142411
-0.106533
2.27579
0.00103506
-0.195693
0.853622
1.89776
3.54441
-0.164259
0.0514544
-0.293604
-0.025513
3.11676
3.35268
3.70086
-0.000519544
2.13778
-0.196148
-0.196842
2.74247
-0.107028
-0.115326
-0.149814
-0.0374715
-0.15626
-0.142225
-0.133182
0.0185832
0.224588
2.95831
0.116623
2.43668
1.043
0.753454
2.10941
1.57075
2.69495
0.422682
3.0507
0.00348276
-0.0378232
2.90919
-0.218583
3.09634
2.99066
-0.116496
-0.258578
0.00163243
-0.226525
1.14505
-0.175655
-0.184087
-0.185637
-0.162215
-0.269047
-0.142524
-0.135097
-0.0680084
-0.275025
2.69897
-0.252664
-0.0325744
-0.278752
0.0254259
-0.285075
3.32955
3.2409
2.2552
3.77107
0.0720024
0.464744
-0.221694
0.0225075
-0.0249301
-0.00184248
-0.000195858
2.20772
1.84356
-0.00220632
0.219696
1.39394
2.07733
-0.100183
-0.191392
0.0823893
-0.02741
0.0155193
-9.84546e-05
-0.276708
-0.0259765
3.96924
0.0281211
-0.0166162
-0.169451
-0.159661
-0.144877
-0.224139
0.00554734
-0.143266
-0.108101
-0.260104
-0.0785956
1.66567
-0.148238
2.52969
-0.236339
-0.0342615
0.526524
3.08236
3.18256
2.61768
0.279332
0.2555
0.102437
0.395678
-0.143335
0.344193
-0.244797
0.296869
-0.088382
-0.00503332
-0.000388869
1.0221
-0.0731636
-0.00936415
0.0612634
4.03316
-0.164832
0.0309763
3.87494
3.97607
-0.205927
3.93903
3.78222
3.16103
0.00503318
0.405584
4.00087
-0.0120233
-0.00594464
0.03801
-0.194753
-0.0838599
0.209623
-0.181903
-0.243804
-0.256323
0.0190916
-0.00386159
-0.0969739
-0.0876982
4.21485
-0.221233
-0.163151
4.23302
-0.0538
4.13019
3.87013
2.97531
-0.176542
4.19231
1.38766
3.45492
0.249937
-7.96757e-05
0.0126966
0.0935149
0.801059
3.60899
-0.0291009
0.00349372
-0.206773
-0.00275036
0.245164
2.06074
-0.00247252
3.06813
-0.0840809
-0.0444958
-0.199348
-0.184997
2.04611
-0.0563002
3.90836
0.0151236
3.71316
0.0885848
-0.209846
-0.000800221
-0.315785
-0.0206358
-0.294995
3.40573
3.56727
-0.00068591
3.95015
-0.176867
0.00787778
-0.020498
3.72631
0.0550587
-0.0109695
-0.004991
0.0087851
0.00313955
-0.0027941
-0.00945041
4.03187
-0.00623444
-0.0331565
0.0809113
4.05983
4.28609
-0.073933
-0.204669
3.13
4.26385
-0.184126
-0.217813
-0.000546755
0.376024
3.70253
3.07868
0.00690015
-0.181906
-0.218976
3.77187
-0.0849667
-0.0926901
-0.106528
-0.107855
0.0264234
3.23023
-0.00229868
3.81784
-0.0347054
4.01844
-0.0113936
3.85754
-0.168212
1.05932
-0.0377712
-0.000434463
0.00835309
-0.0791121
-0.153646
-0.0344497
0.00443329
0.0229759
-0.037725
-0.202549
0.00433416
-0.145053
-0.137973
0.0151131
1.25351
-0.000174681
3.06454
-0.228108
0.00969539
0.0344678
0.0179933
4.1065
-0.126298
-0.0881963
-0.087092
-0.249801
-0.198692
2.99835
3.20353
0.0740779
-0.155392
0.316719
1.38379
3.80663
-0.270701
2.9476
3.30656
-0.000772015
-0.221849
-0.213436
0.0158364
-0.0118923
-0.0124219
0.0116904
-0.0843578
-0.0761079
0.116643
-0.0789741
0.262235
2.44336
0.127152
3.0697
1.81631
-0.0936687
-0.000568771
0.00736123
3.60256
-0.0111029
-0.234669
-0.0105667
-0.265535
-0.119889
2.5742
0.903462
4.00518
0.00275916
0.00627869
-0.253957
2.57702
0.0405616
3.85686
1.84572
-0.220139
-0.150703
-0.0476637
0.168578
2.98485
0.586172
3.65068
-0.276936
-0.00294427
-0.023152
-0.114152
0.00152714
-0.00690743
-0.0416805
-0.0987108
0.102295
-0.247326
-0.00178958
-0.249314
-0.0180388
-3.49803e-05
-0.00243032
0.0404755
0.00596598
-0.00418686
-0.0246338
0.444965
0.00972781
0.868712
-0.139016
3.11326
-0.217711
-0.0522607
-0.000477989
-0.0574033
-0.186052
0.0529439
-0.0707403
-0.000216988
-0.0632259
-0.00251664
0.00322623
1.20071
1.64586
-0.100251
0.00268493
0.755942
0.143813
3.28985
2.77063
3.20901
-0.0246432
-0.0501766
-0.00808492
-0.0764263
3.69274
3.0035
-0.0220543
-0.0185138
2.40354
2.99511
3.95039
0.00136024
-0.0393996
-0.0847192
-0.000669901
0.00114501
-0.00193823
0.0109739
-0.0220837
3.10699
0.0370378
0.000733726
0.0928343
0.00859138
1.18312
0.0580247
2.64598
0.0110538
1.71175
-0.198768
-0.286867
2.13233
1.88368
0.00215964
2.0693
3.80521
-0.234421
3.18569
-0.297924
-0.0691438
3.36277
-0.0131727
3.10965
-0.0305611
0.324283
0.0832041
-0.0808503
-0.153959
0.00691373
-0.00352841
0.413278
-9.73183e-05
-0.123814
-0.262606
3.84453
0.236427
0.0360122
3.06081
-0.000166924
0.0044129
0.163281
-0.00935253
3.77347
-0.0232602
0.00550831
-0.159474
1.52576
-0.0753961
0.0119721
-0.00424059
1.49097
0.096422
0.00351115
3.55164
4.04979
0.011821
0.757089
9.38685e-05
3.2281
-0.00578485
-0.0369296
-0.00173485
-8.23458e-05
0.0657816
0.0412565
0.0102002
0.0107721
-0.00803996
0.170074
-0.00348212
-0.00419547
0.107047
3.39208
3.51431
0.142837
3.04034
1.16383
-0.000748555
3.01581
-0.030841
0.0170947
0.0425741
0.83016
-0.00414207
0.446035
-0.0174903
0.00275596
2.22434
-0.164653
-0.12811
1.9512
2.61575
1.77035
0.000216155
-2.08039e-05
-0.170592
2.50879
-0.0434586
-0.145993
-0.00556603
2.99098
0.493607
3.38987
2.80148
-0.156059
1.85297
-0.0112281
3.09137
1.07185
-0.208615
-0.00308112
0.0106765
-0.148115
-0.171621
-0.127455
-0.198172
1.57201
-0.0975281
2.47375
0.00200583
0.0459384
-0.00956281
1.62489
0.392495
0.0420191
-0.000351336
0.346223
2.38273
-0.239413
0.304169
0.268297
1.18433
0.237008
-0.00500644
0.00607503
3.29686
3.46999
3.59391
0.00210908
3.48643
3.2515
3.49732
-0.0332659
-0.00510085
0.00276764
2.62024
2.83265
-0.0607753
-0.258811
-0.270247
-0.101245
1.31905
-0.153663
-0.0850214
2.92876
0.01468
-0.131999
-0.00153203
-0.177284
3.50878
-0.104135
0.000897218
-9.49087e-05
3.71645
3.24456
0.967969
2.42866
-0.142475
0.875297
-0.165765
0.782094
0.696272
0.626257
2.34322
-0.191788
1.69625
-0.000189572
3.43051
-0.00501944
-0.031956
3.19855
0.245307
-0.0936875
-0.300887
0.911955
1.78613
0.126254
-0.00315629
2.93934
0.00501182
-0.103191
1.06587
-0.00348508
-0.0566133
0.0135192
-0.279223
-0.247152
0.957954
-0.00674869
0.856871
-0.0662961
0.763811
0.677779
-0.10296
-0.172513
0.600568
-0.248747
-0.159258
-0.136986
2.62133
-0.184206
-0.0817099
-0.0019538
-0.191957
-0.251011
-0.00231695
2.71726
3.36919
-0.233139
-0.190741
-0.12395
-0.0938347
-0.00459769
0.00615132
-0.0356329
0.65696
-0.00293013
0.195386
-0.25826
-0.261607
0.00942228
-0.0024252
2.60538
-0.0403504
1.58718
2.74318
0.0468421
-0.263742
-0.254291
-0.00225753
1.48102
-0.280606
-0.278237
1.37276
2.08333
2.58106e-05
1.26682
2.10759
-0.00347866
1.65259
-0.114873
0.180982
2.92616
-0.0479117
0.0018519
0.000852488
2.88242
0.405443
-0.0934404
-0.28588
-0.138122
-0.089023
-0.0610278
-0.237533
1.52228
3.64081
3.9419
3.15178
-0.0024174
2.58352
1.40041
-0.140328
-0.29365
2.51675
-0.26335
0.356856
-0.00486268
-0.249752
3.09006
-0.00149501
-0.0576497
-0.0844792
0.458547
0.0062695
3.1956
-0.263433
3.15152
-0.174936
-0.225711
0.110429
-0.0102009
2.84957
-0.111263
-0.0857878
-0.000272086
0.222639
0.516077
1.97721
-0.0751579
0.000858169
1.98305
-0.00038959
2.4037
1.87069
0.00430901
2.39613
-0.0796953
-0.00198332
-0.10379
-0.00577786
0.00842374
0.0294434
2.80557
-0.124748
0.0105915
-0.0908854
-0.133864
2.76467
3.50185
0.00341943
-0.0847462
-0.0609055
-0.0885672
2.95804
0.269352
0.00537986
2.2887
2.01788
3.13087
-0.0525849
0.0080082
2.57448
0.0106708
-0.289654
0.283121
3.72136
-0.068607
-0.119181
0.00673288
-0.048429
3.69965
-0.231254
4.0322
1.80178
-0.0827696
-0.00837389
-0.0746469
0.108356
0.00188004
-0.0970957
3.65369
6.37195e-05
-0.0275417
3.67658
-0.00470203
-0.0917975
0.00218674
-0.0164439
0.00215135
0.622297
0.059901
-0.0168339
0.0420879
-0.0070966
0.00126989
0.00134823
-0.00143448
-0.0476288
0.00161457
-0.0115566
0.188399
-0.0522605
4.00512
0.68944
-0.0102566
-0.0490618
0.000102985
-0.116652
0.00110961
1.39494
3.09336
-0.0202397
0.00324768
-0.0247514
1.16646
0.0180646
4.16098
0.0193605
-0.0158147
2.34857
0.126022
0.00151925
-0.186817
3.04684
-0.0070074
3.0296
3.08467
-0.138783
-0.182493
3.43306
-0.116228
-0.020778
-0.235089
2.77278
1.41508
-0.140063
-0.00337276
3.55414
-0.00988911
0.2351
-0.0546544
-0.0275258
3.86258
0.00943436
0.000634364
-0.176601
2.24793
4.05955
3.02018
4.30131
-0.0445467
3.83658
-0.00460923
2.60316
-0.034925
-0.00897456
1.85663
-0.080605
1.33868
0.00078652
-0.268542
4.0847
-0.0995681
0.519115
0.0190902
-0.0135947
2.17859
0.0237373
-0.221853
0.00138938
-0.0446234
-0.00218222
4.19504
-0.146783
-0.210947
1.09918
0.258554
1.74335
3.0447
0.00253082
0.485513
2.03207
3.19413
4.20501
-0.000346176
0.393728
0.299099
-0.0182035
2.19641
2.3669
0.34243
3.73944
1.50714
2.08457
-0.116838
2.93038
-0.272715
0.00174734
0.000747419
0.00131327
-0.00518001
0.0137478
-0.198285
0.000661758
0.00920016
0.0888789
-0.00144948
2.46725
0.0542274
-0.000255438
4.02635
0.0042147
-0.00195851
3.51222
4.18478
-0.289472
-0.0249352
3.40958
-0.076722
3.86517
0.972581
-0.00379091
-0.112467
0.000872271
0.0283496
0.00716945
3.16768
8.38497e-05
0.00291926
3.69378
-0.0063428
0.0232667
-0.0735473
-0.189884
-0.246829
0.0016756
1.27672
-0.273529
0.00145074
-0.217912
-0.018584
2.4718
-0.00135119
-0.00133055
-0.0172524
3.67435
-0.0748852
-0.0462343
-0.0128411
0.0213331
3.54144
0.127181
1.71106
3.4209
-0.00862606
3.8728
3.33522
-0.0877132
-0.111152
0.00392448
-0.166719
3.85265
0.0344654
-0.0076861
0.000922553
-0.270368
-0.0575256
-0.00908878
0.00269234
3.8764
0.000704786
3.14453
-0.0363501
-0.12879
0.00109009
0.0847143
0.00656993
3.48212
3.53028
2.13137
-0.00610799
-0.239068
-0.0327405
1.73473
1.4053
2.41034
-0.140776
-0.0606852
-0.329608
-0.00408461
-0.00517612
-0.0106743
-0.00989576
-0.00704853
-0.00829875
-0.01858
-0.0517271
-0.296469
-0.01539
-0.0214574
-0.289388
-0.00269238
-0.0116119
0.000364791
4.36692
1.20602
-0.0144867
0.0419109
-0.0131876
0.000260622
-0.00316228
-0.0282453
-0.024513
-0.223175
0.000613962
-0.328226
-0.00455288
-0.0124711
0.00125678
-0.249233
-0.132516
-0.0319222
3.62411
-0.00929824
3.08903
-0.175502
3.74093
-0.325763
-0.322992
-0.318823
-0.313511
-0.306627
-0.300248
-0.291683
-0.0022768
-0.283
-0.27263
3.50764
-0.252824
0.367688
-0.215891
-0.00374112
0.0220822
-0.13541
0.000970507
-0.0177911
-0.000960913
-0.0169615
0.598564
-0.014643
2.40469
3.21019
-0.0658235
0.0178359
-0.281435
0.0502639
-0.0396688
-0.0559665
-0.220732
-0.00311827
4.07163
-0.13195
-0.126178
-0.0196371
-0.0169578
-0.035156
-0.0292858
-0.329426
-0.0446204
-0.019517
-0.117834
1.09463
0.000740461
-0.00189551
-0.0208966
0.283078
-0.0224825
-0.0332842
-0.0257112
0.00108799
0.00317829
0.00545527
0.00330264
-0.0168807
-0.037766
-0.0404784
3.46465
-0.00909349
-0.0299889
-0.0194473
0.0122711
0.00216611
0.00300551
2.83803
-0.0225977
3.36426
-0.0480388
-0.0106944
0.000990764
3.0258
0.110446
0.00309649
-0.00155013
-0.00155486
-0.0937877
-0.0426692
1.17632
-0.00174754
0.0138193
-0.00769538
-0.0220395
-0.0125449
-0.0539761
0.0225613
-0.0792557
3.41543
-0.240467
-0.109877
-0.00524995
-0.00120879
-0.251636
0.000451486
0.186111
-0.0495226
-0.0554759
0.00500839
-0.0371706
-0.0760146
-0.0773309
-0.00645287
0.000925469
-0.177349
-0.00535237
-0.0607734
-0.0682911
-0.0616704
-0.00108311
3.8857
-0.00442534
4.31088
-0.0683943
-0.0755987
0.0826635
0.000751787
0.000481841
0.664817
0.00336214
0.203566
-0.00250537
0.960314
-0.0680539
-0.00204161
-0.000970986
0.0338936
3.82349
-0.00213216
-0.125021
0.0692366
3.40062
-0.161496
-0.0387845
0.000597107
0.520255
-0.112993
-0.00158347
0.0569718
0.00253329
0.110485
4.06024
-0.0448438
0.0121228
-0.0976065
-0.00159284
3.11081
3.37893
-0.000735855
-0.0199206
2.94839
-0.00179772
-0.0498984
-0.00125004
-0.0029062
-0.0787151
-0.199542
0.104318
0.495767
-0.00477206
-0.00017134
-0.0014838
0.0567541
0.0421584
2.43709
-0.108823
-0.000940129
3.2979
0.0233786
-0.011759
-0.243488
-0.0834213
-0.00559165
-0.00118187
0.0975734
-0.0163943
-0.0737096
4.55059e-05
-0.00413553
2.3904
-0.0549813
2.97789
3.71617
0.062629
0.0325082
-0.14196
-0.0607034
4.01536
0.120998
-0.02274
0.000533404
3.22676
3.92232
2.53753
1.13831
-0.230114
-0.000654865
-0.26388
-0.00353955
0.00971876
-0.123421
2.95777
-0.14196
-0.00156338
0.0230399
-0.00642622
1.25743
3.07
0.00219705
-0.257962
-0.00765144
-0.0111794
-0.0144093
3.87951
0.0340586
-0.00929658
-0.00446324
-0.0436442
-0.143587
1.23482
-0.03374
0.0248309
-0.018977
-0.00185499
0.119426
3.10917
-0.322901
-0.0131678
0.145162
3.03253
-0.00920267
1.58661
3.45136
0.0083102
0.000312118
1.75572
2.95613
1.85187
2.65345
-0.19415
-0.0150298
0.0037824
2.95773
-0.211313
0.0189629
-0.147076
-0.0880915
0.0901852
-0.230246
-0.0106321
0.00399893
2.86715
0.0279898
-0.247147
3.52153
-0.129038
3.38167
-0.000163423
-0.242171
3.26348
4.06094
0.163634
-0.0287699
-0.0795511
-0.00814799
-0.0126878
3.37094
0.112863
-0.174993
-0.0118651
-0.00960672
-0.0156451
0.033965
-0.0057421
2.6629
-0.00474098
0.143965
-0.0192302
-0.0455011
-0.00761962
2.21766
3.215
-0.319253
-0.316181
-0.311497
-0.00687293
0.0431473
-0.00388961
-0.304779
-0.298855
2.20838
3.18104
-0.291472
2.16919
-0.127248
0.106593
-0.113506
-0.283111
2.74002
2.13394
-0.273791
-0.0777223
3.21421
2.74789
-0.0137832
0.00129498
-0.0144452
3.81321
-0.00228778
0.000996318
-0.0219195
-0.0178066
-0.0112805
0.0225013
-0.0205598
0.103902
1.52684
-0.0838441
0.00096616
-0.196734
-0.191019
-0.13045
-0.184236
-0.32287
-0.0153401
-0.0292345
-0.0250691
-0.0192268
3.28942
-0.0236348
-0.0286678
0.436288
0.000537158
3.76282
3.20958
-0.180037
-0.0268557
-0.00304859
-0.0305339
-0.000808385
3.12806
0.898592
-0.0091786
0.385727
-0.00219315
0.340609
-0.0103617
0.300527
0.265572
3.57485
-0.128238
-0.00230647
-0.015826
0.04122
2.15254
2.9088
-0.254262
2.88459
3.909
0.0127052
-0.0689144
2.79831
-0.0347049
1.03575
3.77243
2.78115
-0.096161
2.80499
-0.0319087
-0.0708714
-0.0123516
-0.0146457
-0.243699
-0.000410109
0.937768
0.845715
0.7582
0.676675
-0.125208
1.13974
0.00473845
-0.0168619
2.45822
-0.078456
-0.00110247
-0.0224796
-0.0392701
-0.242027
-0.00119962
-0.107656
0.272113
4.2699
1.02681
3.16858
1.37679
4.43733
0.924016
0.826533
3.64297
3.71825
-0.121138
2.3775
-0.00123898
0.596586
0.737168
-0.0442649
0.655626
0.112121
-0.167635
-0.0178083
-0.0353698
-0.049809
0.0155105
-0.0398092
3.14349
0.127125
0.0603556
0.0104824
-0.22517
0.0521978
3.4575
-0.00438008
2.98216
-0.0724893
-0.14341
1.64742
1.72441
-0.118672
-0.314725
0.0277839
3.10404
2.56239
2.56898
0.204127
0.00651246
1.54032
1.435
0.0244949
-0.00279303
-0.0132129
-0.0520433
1.32978
0.0235455
2.17689
-0.0559978
3.32544
3.16655
0.0106997
3.1535
-0.000986538
3.68747
3.56218
-0.0290198
1.59463
-0.257218
0.0498074
4.42299
0.0261438
-0.103241
1.39434
-0.000788523
-0.0578203
2.71228
3.15736
-0.048732
-0.177828
1.47097
-0.0145136
2.45418
2.79338
-0.06433
0.46675
-0.0072554
-0.0715059
0.00236041
0.00334494
-0.0170832
-0.0446128
0.309788
-0.0630197
1.72868
-0.00499551
-0.107129
0.232609
2.04795
-0.301478
0.0358213
2.74443
0.0223033
3.30242e-05
-0.0250004
-0.0192852
-0.243487
-0.11129
-0.0704225
0.0270448
2.34383
2.03035
1.0244
-0.0925554
3.2558
-0.0788331
-0.0668047
2.0627
4.41005
3.1683
0.0372994
-0.202333
0.0858511
-0.133598
-0.105248
1.9274
4.34623
-0.0895667
-0.128603
1.67073
-0.00104304
-0.0621069
0.00337231
-0.0374891
3.40565
2.2194
0.00165821
3.13015
-0.205846
-0.00550481
-0.137913
-0.0453002
-0.00284474
-0.0510919
-0.130335
-0.047628
2.28776
4.23975
3.3725
0.263513
0.499632
4.2807
3.52577
4.20587
0.00250596
-0.117821
-0.00692795
4.32453
4.16171
1.52854
2.83442
0.16289
4.11572
0.514515
0.0280416
1.11273
4.06733
-0.0631963
-0.0916979
2.41453
4.02335
3.20934
2.72164
0.693656
3.9743
-0.00495972
-0.272628
3.97166
0.0102182
-0.0685551
0.159631
3.92649
-0.0105666
3.23864
3.87814
-0.000111765
0.551443
-0.0409025
-0.00991697
0.0294043
3.12853
3.79696
0.78638
3.16705
2.17025
-0.231412
-0.000971086
-0.00139378
-0.133364
0.000319386
2.56332
0.0863007
-0.0354749
-0.11426
1.27804
0.132125
-0.15948
0.0130038
3.32465
-0.157893
0.296583
-0.142019
-0.134163
1.79003
-0.153134
2.98926
3.24266
3.38844
1.01
-0.0674528
3.43105
-0.144512
0.503949
1.53436
2.25192
3.1277
2.84018
3.44262
2.46783
2.0314
-0.121496
-0.115394
2.66129
3.45264
0.747203
-0.151577
-0.145486
-0.102041
-0.0417734
-0.0856435
0.053725
-0.130377
-0.0188989
0.0892642
-0.101759
0.836373
0.00164324
3.83165
1.62782
1.95372
-0.0369114
-0.00206835
3.11073
-0.0557455
-0.125933
-0.0599405
-2.25566e-05
-0.0856258
3.08625
3.78601
-0.0478002
0.0393726
-0.0730785
3.36677