/*--------------------------------*- C++ -*----------------------------------*\
  =========                 |
  \\      /  F ield         | OpenFOAM: The Open Source CFD Toolbox
   \\    /   O peration     | Website:  https://openfoam.org
    \\  /    A nd           | Version:  7
     \\/     M anipulation  |
\*---------------------------------------------------------------------------*/
FoamFile
{
    version     2.0;
    format      ascii;
    class       surfaceScalarField;
    location    "2";
    object      phi;
}
// * * * * * * * * * * * * * * * * * * * * * * * * * * * * * * * * * * * * * //

dimensions      [0 3 -1 0 0 0 0];

internalField   nonuniform List<scalar> 
31093
(
588.066
-435.54
-152.527
270.283
43.0529
-313.336
932.836
-1118.06
185.222
-395.217
994.31
-599.093
-635.321
669.853
-34.5325
-687.303
51.9822
201.446
-19.1474
-182.298
561.416
-417.879
-143.537
222.054
-288.725
66.6704
91.7005
469.715
-57.761
242.028
-184.267
-230.133
246.353
-16.2203
-241.246
-11.7059
252.952
34.6231
553.443
623.283
-651.48
28.1979
-965.095
569.878
-260.587
314.078
-53.491
-85.0714
-929.182
1014.25
-248.928
236.244
12.685
304.578
-34.2954
-288.916
293.152
-4.23595
-10.4748
-219.658
-417.969
509.669
265.153
-297.077
31.9241
932.836
-364.719
106.197
258.522
886.392
-971.297
84.9047
342.394
-155.452
-186.942
-165.572
-75.7029
241.275
-95.3304
-153.598
-592.061
741.308
-149.248
372.072
-320.705
-51.3671
330.536
-72.7104
-257.825
557.175
-288.244
-268.931
-717.741
780.351
-62.6104
-731.8
139.739
114.662
-327.375
212.712
932.242
-932.242
781.122
-350.038
-431.084
259.636
397.948
-657.584
5.95591
777.537
-783.493
-257.66
91.2175
166.442
-851.286
666.475
184.811
969.776
-83.3841
-151.876
-212.843
115.778
72.0519
-187.83
1033.32
-445.963
-587.358
289.276
-228.139
-61.1366
842.958
-30.4059
-812.552
239.014
-235.444
-3.56983
-787.84
70.0998
49.3148
-724.45
675.135
-236.695
-144.709
381.403
762.265
-836.61
74.3448
129.48
-344.045
214.566
18.0463
-216.936
198.89
387.78
-117.704
-270.077
694.565
-752.18
57.6141
-44.4634
-303.741
348.204
-50.8413
-209.746
-670.975
443.829
227.146
-50.6445
246.634
-195.99
482.878
-485.131
2.25297
-187.237
-310.449
497.686
-697.67
828.148
-130.478
-719.013
110.637
608.375
502.127
-578.996
76.8689
-651.784
-67.2288
-130.255
-361.432
491.687
-158.179
-58.0199
216.199
368.209
-542.661
174.451
291.915
-221.899
-70.0166
676.417
-53.134
-279.96
-28.039
307.999
1061.73
-559.132
-502.599
-48.5343
439.956
-391.422
333.991
-156.337
-177.654
-229.044
15.5306
213.513
846.392
-586.755
555.595
-833.69
278.095
635.627
-524.99
817.092
-196.482
-620.61
263.816
-66.1081
-197.708
294.166
-72.1123
134.315
-184.959
-570.617
-280.669
245.94
-281.948
36.0087
-74.0499
178.731
-104.681
-591.704
404.467
164.688
-310.385
145.698
-392.387
644.431
-252.043
738.952
148.728
-887.68
904.566
-130.331
-774.235
185.403
-303.284
117.881
189.719
99.5571
426.143
56.7355
263.519
-78.1156
-778.76
790.817
-12.0568
-303.052
245.291
938.472
-857.23
-81.2422
284.551
-119.863
412.483
-422.331
9.84828
194.108
89.1748
-283.283
421.595
-192.507
-229.088
1149.78
-1149.78
463.184
7.5906
-470.775
-60.9348
257.397
-196.462
-438.759
199.53
239.229
264.027
8.92854
-272.956
-230.792
-98.2916
329.084
20.5755
-186.147
184.664
16.782
402.943
-116.905
-286.038
-247.823
-402.484
650.306
-534.97
486.436
-568.562
-431.511
-337.414
-187.204
524.619
576.626
59.0012
-267.944
-23.315
291.259
-1031.31
268.509
762.796
-170.755
909.707
34.7311
265.113
-299.844
350.375
-560.116
209.741
246.306
-362.219
115.912
124.366
432.809
713.714
-798.785
22.3119
176.376
-198.687
176.138
166.256
280.444
91.6272
153.178
-490.592
-18.3309
-159.105
177.435
14.6943
224.319
837.724
-831.768
295.396
485.726
155.033
-345.716
190.684
240.018
909.761
243.324
-42.6609
-200.663
-282.555
-6.36158
-412.347
38.5458
373.801
114.676
55.554
-170.23
280.537
-245.806
24.2201
-304.18
179.881
112.034
-297
230.277
66.7232
-498.923
61.4818
437.441
-79.4664
234.499
-243.959
72.8647
171.094
-97.4649
-226.229
323.694
-7.27901
264.121
-256.842
-758.686
-212.611
128.682
-226.147
175.812
971.706
-67.1391
-238.826
-37.6724
276.498
152.748
664.343
-226.399
-17.5595
-726.529
155.912
97.276
167.877
73.4203
-165.828
92.4077
-18.3217
-222.924
-181.214
310.694
-221.165
202.018
-37.2347
-372.843
-126.08
-178.244
-623.054
801.298
-183.488
109.438
349.702
62.7802
261.975
1.84038
426.642
13.3139
-320.8
435.463
304.957
-61.6327
-217.767
-102.315
320.083
-25.746
-169.089
194.835
406.029
-442.642
36.6132
107.174
114.442
-221.617
34.6774
295.858
-572.351
509.669
62.6822
-547.283
-25.8025
573.085
-435.301
-99.6691
-47.4627
222.452
-174.989
12.2466
-187.504
175.257
735.478
196.764
328.798
85.7955
-414.594
-101.204
202.746
-101.542
266.423
38.155
234.214
-128.444
-105.77
573.426
-205.217
21.373
917.099
153.651
269.915
99.5455
-369.461
247.464
-225.152
241.04
-355.905
114.865
60.175
-917.405
-545.567
415.311
225.492
-152.071
-20.3342
253.079
-232.745
53.0153
275.783
-23.7835
270.799
-247.015
324.298
-57.8745
23.3477
246.567
242.236
-347.153
104.917
-59.1582
287.575
-228.416
-429.202
203.323
-376.282
172.96
251.466
-413.338
161.872
-321.629
289.443
32.1859
1.51963
-333.402
331.883
741.566
-692.251
204.844
-186.797
619.621
-634.917
15.2967
419.774
82.353
-866.536
544.742
321.794
-41.8417
310.801
-268.959
-93.2498
-151.752
245.002
-278.255
576.36
485.371
513.124
-513.124
-515.935
-515.37
-223.099
-215.66
893.333
-597.937
12.7833
256.602
-269.386
-200.477
-225.85
426.327
120.339
127.983
-248.322
471.065
-863.452
-322.828
224.536
-14.5967
-397.75
357.036
-355.516
-1068.6
500.041
-484.624
484.624
-643.29
-3.27592
646.566
587.206
-236.831
301.315
99.4666
-400.782
-314.536
253.601
-223.321
197.357
25.9643
-495.839
806.688
-310.849
305.969
-60.0287
527.92
-64.7363
-425.216
207.448
192.485
71.0335
-627.226
426.749
201.708
-358.045
86.9105
-180.16
208.799
104.169
-312.967
350.61
-104.304
-915.563
-234.216
624.607
-47.9811
-49.9231
243.883
-193.96
507.816
-413.012
-94.8039
-60.0475
724.378
-664.33
-53.2212
896.179
262.44
1.58747
-73.3765
193.715
-66.4984
488.327
-421.828
-539.155
189.118
-174.137
18.3923
155.745
-94.5521
395.867
-19.8311
204.06
-184.229
-71.4241
-186.235
195.373
-80.6972
-77.3349
193.113
8.1691
-244.276
236.106
27.0335
462.957
-489.991
710.436
49.3913
-759.827
294.185
11.7832
-60.0775
-161.088
-102.892
15.1501
226.011
-241.161
40.5957
362.347
236.988
-732.828
337.262
-200.819
-81.1296
122.623
-820.494
697.871
55.3406
-364.204
-214.791
-256.409
203.753
52.6562
-365.305
-305.669
567.687
-999.198
246.106
-56.1285
-189.977
-13.8362
195.205
-181.369
-1037.83
329.904
707.922
-27.9171
364.772
-336.855
324.9
62.8805
-267.794
128.087
139.707
314.428
-68.8168
-245.612
341.438
-100.398
-210.123
299.298
302.868
-212.525
144.787
-158.624
-75.9234
546.64
-470.716
751.231
-195.637
-139.881
-306.127
446.008
853.848
-731.225
216.985
-201.835
-51.9176
-268.883
-537.728
88.3646
76.8016
-165.166
311.313
-53.3393
-257.974
-52.3507
159.434
-107.084
339.948
-97.712
-80.6072
-334.995
415.602
7.51031
843.995
-851.505
-776.255
804.806
-28.551
-246.156
90.9485
155.207
-754.577
444.208
310.37
70.3848
-165.715
11.9462
169.785
-181.731
-241.57
231.095
6.40786
-232.544
226.136
215.582
6.86915
138.77
-480.819
342.049
226.583
-218.414
-40.6427
-188.401
-72.4241
507.887
299.397
-50.7083
-248.689
-733.945
741.455
-483.528
333.353
150.175
438.7
-285.522
468.701
-862.357
393.657
-280.183
-63.8617
-726.605
28.9347
-161.739
-106.055
-647.648
631.75
15.8974
-172.958
351.365
-178.407
279.063
287.53
265.333
-165.354
-99.9794
255.27
-279.691
-446.838
-209.276
-94.0081
273.525
-164.126
-109.399
-487.276
-2.2024
489.479
208.927
-101.753
1006.15
-1006.15
433.062
-497.401
-540.425
117.897
197.209
-315.106
-438.556
386.638
-330.508
302.469
-329.53
392.748
128.552
-521.3
49.3352
712.93
497.969
-105.221
371.708
-558.912
65.7706
218.272
-284.043
-211.373
-231.487
442.86
238.098
94.4679
-332.566
-297.508
-544.768
842.276
488.26
-736.083
318.019
26.3179
-344.337
-929.182
417.171
95.9531
219.74
-245.486
307.232
-351.696
-48.3979
170.933
-122.535
-2.01734
-268.071
-253.329
11.6869
241.643
218.117
55.4082
249.142
-350.346
227.338
-93.0236
-490.303
-158.385
-152
-387.321
-367.256
-922.705
-162.836
1085.54
-499.504
933.035
-433.531
-147.377
-25.2108
172.588
-670.139
636.762
33.3768
-216.81
315.5
-98.69
251.014
256.802
0.997752
-217.934
873.968
-912.52
38.5518
440.868
-86.8679
178.085
-343.097
167.802
175.296
-222.513
31.2817
191.231
-446.897
-40.3791
132.257
-249.96
295.456
-86.6573
-1019.82
841.58
-484.319
417.821
-139.421
262.675
-123.255
-52.6399
372.687
-320.047
333.248
-294.899
-38.3494
-397.835
40.9485
-215.085
-262.438
627.19
-364.752
-39.3461
-263.706
-79.0607
397.08
4.3747
191.583
-195.957
847.888
185.432
-305.895
-37.2019
162.413
170.835
-374.631
-454.71
829.342
-786.567
340.605
450.193
-951.115
500.923
66.9911
-399.221
332.229
-249.578
197.228
-3.71417
466.671
-185.838
-190.444
-471.496
150.791
616.085
8.52182
30.464
215.642
429.117
-117.122
-311.995
-89.3293
-97.4767
186.806
92.6196
176.855
-248.28
9.11009
-121.624
-66.2413
187.865
-387.544
2.38131
385.163
-13.9623
267.836
-253.874
-106.933
497.797
-390.864
-412.164
334.505
-96.4073
-849.053
789.006
320.318
-312.727
-79.519
-276.386
-77.2726
-269.881
-656.716
-122.044
-502.592
248.197
254.395
-255.778
33.8793
-121.988
130.333
7.39113
158.158
412.026
-570.185
26.5631
-247.047
18.9073
-0.0508037
270.85
149.358
-266.263
-66.6205
-221.599
288.22
-811.159
796.149
15.0096
239.108
-253.512
14.4037
364.679
528.654
265.209
-334.026
-10.2013
304.387
-724.681
694.276
295.923
-209.774
-86.1494
261.035
-7.95607
-183.808
-139.762
-321.593
461.355
-217.512
-104.117
281.821
-335.16
416.457
-497.064
114.265
85.0737
-199.338
210.137
-131
-79.1373
276.424
-651.055
122.543
-483.974
239.315
-107.963
-131.352
48.7546
-807.441
-415.461
274.007
-324.716
-558.715
625.706
-437.535
64.6926
368.376
-665.884
173.52
-264.513
90.9934
-843.523
892.278
-30.8079
-12.5729
790.11
-226.961
219.247
7.71436
-306.402
202.838
103.565
-225.105
-188.233
-40.8519
414.421
-373.569
515.456
-591.379
25.3088
-217.353
192.044
162.857
-137.548
281.024
92.5879
-265.546
164.271
31.1024
-134.956
766.844
107.124
-407.104
178.016
-254.679
175.073
79.6061
202.364
-222.195
3.50496
194.247
-197.752
-300.2
233.58
-230.7
-7.04509
237.745
-497.217
357.336
163.779
-171.058
-581.154
-66.4932
614.923
4.69774
-247.985
-242.607
203.435
-72.4454
-130.99
-135.392
-73.3246
208.717
136.557
-192.13
55.5733
-58.4254
257.137
-198.712
-227.988
221.519
6.46854
-203.653
-24.3344
309.191
119.926
919.269
-679.251
-249.916
-289.762
250.416
190.644
32.9149
-223.559
-943.606
779.88
163.726
-407.536
169.403
238.133
-463.667
-118.461
582.128
-158.988
-806.107
25.8441
-309.127
-451.748
454.129
-84.1901
-222.212
228.514
-33.3089
646.459
-91.0744
-555.385
347.672
-454.605
-159.427
756.567
-597.14
-185.674
-213.538
399.212
-291.046
277.213
13.8332
5.92239
-59.7074
196.264
-81.2852
-175.124
-529.453
26.8609
-16.1686
-92.325
-744.285
34.6334
-432.334
-210.156
74.7636
-255.183
179.48
698.492
263.618
-301.29
167.693
66.5205
-308.79
32.7915
275.999
-271.34
48.8273
-38.3884
-995.115
777.715
217.4
-34.7723
232.129
-132.776
278.473
498.563
-518.615
20.0515
-272.92
-210.607
-363.687
402.232
-33.3693
165.446
-132.076
937.598
-788.406
-149.192
35.0175
-500.18
465.163
1.6344
-180.473
178.838
-156.857
-98.9206
490.17
-64.0268
-206.429
457.443
-553.873
110.68
443.192
-171.583
277.78
506.12
-335.848
-170.273
299.715
7.8485
-307.563
-241.189
191.266
609.118
-73.3719
-535.746
408.34
-250.182
-432.947
389.29
43.657
252.979
-9.09587
-229.25
-79.5407
-185.556
57.1122
208.253
-499.058
57.1814
441.877
-255.113
267.896
-325.726
311.763
-298.765
-67.4529
-417.171
-444.12
403.268
-530.556
1001.86
-471.3
-137.746
104.376
-178.076
-229.46
489.274
-50.3411
-438.933
-15.6603
-305.207
320.867
-481.361
551.276
-69.9154
388.998
209.831
-101.764
-108.066
154.491
-212.916
206.785
-203.28
-306.944
142.818
399.518
-364.501
-7.8925
-283.154
87.3029
-874.567
874.567
138.651
8.28327
420.242
-428.525
-149.689
182.258
-32.5687
-525.199
313.826
-414.114
54.4568
359.657
38.1538
165.282
-480.46
348.707
131.752
-249.129
438.35
51.8198
307.904
41.9301
-349.834
326.409
-61.296
-397.775
-15.2369
107.304
-346.711
294.072
331.076
-206.955
-124.121
-67.548
149.179
-81.6311
-922.705
-304.359
-230.409
136.009
94.3996
-279.532
206.821
-428.717
-522.399
263.68
499.216
-762.896
-152.391
-525.408
677.799
-432.024
184.039
-30.0144
194.285
217.129
-10.3436
-658.091
640.856
17.235
51.6783
356.662
264.616
-42.1257
-222.49
-110.436
-492.094
602.53
-554.406
771.916
-217.51
-565.181
46.8697
-731.337
168.38
562.956
-981.163
406.468
574.695
-277.122
-276.751
-130.881
451.199
-968.637
438.081
-675.329
814.251
-138.922
575.851
-686.287
-206.468
253.051
-238.356
124.4
-799.729
-165.365
-693.498
858.864
628.095
-18.9766
501.322
326.826
-58.8663
248.585
-124.93
99.719
-119.265
192.719
-503.168
257.771
-230.831
-26.9397
-152.87
316.726
-163.856
-162.365
-84.6819
517.658
-19.0949
-295.115
279.454
12.2161
624.546
-704.194
-651.193
-247.463
-251.596
18.046
223.982
37.8752
396.96
-434.836
-330.412
317.289
13.1229
-141.436
156.966
561.584
440.271
-337.451
-209.021
546.472
170.041
-220.882
-70.9531
250.834
-57.3888
-356.725
170.521
-213.182
-242.164
293.843
201.137
-129.085
-462.628
-518.535
-294.466
-12.2799
306.746
-272.868
143.287
129.581
-172.908
177.283
-176.002
-96.8665
228.354
-221.946
257.313
-281.915
24.6024
255.063
-73.9845
-181.079
-805.19
646.202
-318.276
-275.195
58.385
-265.17
291.488
281.551
-123.178
512.176
198.202
-70.2194
300.23
513.122
-813.352
-196.497
168.654
41.4835
-549.63
409.868
-892.883
269.83
293.837
-793.342
-474.125
-73.3405
547.466
-543.847
473.892
69.9553
291.336
-210.332
60.6431
-580.732
374.303
-1.98517
175.505
-291.025
328.901
168.857
-504.705
-137.286
-37.4183
229.903
-4.5401
281.753
269.096
-87.2311
201.674
736.41
-12.032
297.219
-260.544
-36.6753
-221.677
-124.039
-131.132
-27.6522
266.76
671.904
261.132
94.8436
183.63
338.086
-136.378
-99.8344
285.118
-185.284
-414.216
108.088
498.022
-231.784
-266.238
295.707
-300.247
-20.148
-671.314
691.462
233.242
-835.84
438.005
-226.878
48.0995
-296.789
-97.0097
-348.074
445.084
-123.534
141.926
229.358
-288.224
267.448
-3.32691
-875.763
328.48
54.3103
-312.284
-726.92
-506.411
-437.195
245.907
66.9571
-312.569
222.401
-293.354
172.108
67.2069
115.321
-225.805
110.483
-452.086
117.091
511.902
-924.067
-181.466
109.021
457.877
26.7469
-574.113
-421.003
20.0349
-601.189
-2.38045
302.095
-113.928
364.387
-250.459
-130.028
-91.5886
123.539
-178.636
-99.6193
-344.613
385.208
-198.796
-72.2228
271.019
-77.4286
220.716
-262.5
-265.698
248.219
17.4798
44.0025
-219.174
267.274
361.689
-32.6271
-297.785
-15.7558
237.275
208.972
-25.3174
-183.655
-123.852
-468.877
54.5589
414.318
-300.231
-114.577
414.809
144.477
-212.025
283.668
-275.063
113.323
-208.962
-101.94
310.902
774.762
289.358
-26.8491
-218.894
245.743
-18.4393
-525.408
-294.466
-745.922
380.288
365.634
13.0715
-301.316
-3.07299
283.517
-17.8869
237.134
243.757
-346.593
102.837
-447.911
-97.6553
-556.597
225.909
330.688
217.465
20.2805
237.76
312.187
-627.055
314.868
208.013
-427.813
219.8
-368.509
377.174
-680.777
303.603
900.566
-879.193
-695.72
433.282
-374.907
-131.354
506.261
156.927
140.292
-334.918
558.546
-357.064
-201.483
346.908
-176.867
-783.304
228.898
252.563
245.46
-212.011
55.1542
374.254
-120.653
183.421
-189.066
5.64473
234.767
11.8674
587.832
-613.635
-518.274
220.364
297.91
83.3985
-328.307
-171.402
499.709
74.295
340.082
-169.561
264.503
59.7949
-475.695
202.775
277.638
165.813
-443.451
124.995
-264.416
-151.312
-229.398
-206.141
-368.956
24.3439
-28.9109
-629.18
-23.7243
226.641
-202.917
-339.969
168.777
171.192
-327.125
-104.793
431.918
-217.107
-105.721
196.174
12.7982
-295.035
92.0651
163.782
131.034
-294.816
-277.139
-108.172
385.311
-363.86
-290.959
271.178
19.7814
167.009
-380.141
213.132
146.762
-268.541
121.779
-44.0565
-86.1989
-261.702
347.901
-404.108
218.269
211.854
-441.252
-295.005
148.334
146.672
-454.811
133.217
35.0577
-440.168
405.11
-202.361
-63.3376
150.897
360.932
-304.55
-56.3818
-201.017
210.263
-9.2453
-260.498
152.097
108.4
-123.659
-131.02
-276.225
-107.365
887.245
-223.346
-20.9294
271.769
-493.014
282.407
149.39
-358.703
209.313
-341.588
-125.003
466.591
-469.193
-218.109
219.914
-29.2693
221.384
688.111
-708.259
-48.6388
-275.291
323.929
77.0862
-707.981
630.895
216.71
70.1665
-286.877
275.462
-78.253
-211.407
237.252
-367.041
-32.97
400.011
-711.172
39.6411
671.531
-435.368
-191.857
-75.1655
-250.56
521.294
-15.8355
-774.16
-19.1517
793.312
-170.644
484.823
-314.179
-179.685
479.915
195.104
-523.412
296.621
-78.3487
89.4291
398.898
-425.451
433.734
-322.389
-111.022
433.411
-525.183
51.0576
334.602
-1.24904
68.0597
-279.467
230.809
-39.1436
-191.666
-70.4357
-77.6773
274.905
-62.7514
-283.96
87.7105
190.069
-305.999
-78.6515
384.65
-279.062
315.036
-35.9748
-55.667
258.031
-331.899
-103.4
435.299
-279.64
144.51
135.131
-137.642
-18.3659
36.754
-652.375
615.621
-181.134
-251.813
-252.511
-228.307
-340.694
-74.7666
-219.56
-51.0453
270.605
415.934
639.44
181.854
-281.02
99.1665
129.353
496.353
214.059
16.7509
176.747
-226.49
49.7432
-331.506
-165.711
-535.606
-61.992
317.262
-183.676
313.552
-22.2164
615.727
-188.978
-4.25606
232.61
-249.649
272.98
-23.3313
713.623
4.24689
291.46
-602.598
492.757
109.841
222.535
42.0815
199.885
-15.2526
182.569
-334.569
121.79
-334.633
13.4757
-355.084
365.588
-10.5041
129.616
-234.297
193.112
17.8265
-320.325
326.54
-6.21493
224.853
-297.076
244.176
-8.06978
-306.978
-131.577
-61.7811
228.223
11.7604
246.011
309.731
-1.73236
-350.268
-154.094
504.361
-84.4089
-151.035
-205.427
-11.9262
104.652
232.61
267.109
-294.761
267.389
-75.3468
-208.251
231.536
-23.2854
-1061.54
706.742
354.8
-417.314
117.082
261.544
14.6758
-276.22
-47.7957
341.867
581.496
-184.706
-6.89868
191.605
-45.3739
-196.196
-270.747
-44.6124
315.359
-294.288
-44.0826
338.371
-70.316
-510.623
-91.9747
-797.438
785.187
12.2511
89.9103
215.019
-304.929
71.1013
262.81
-148.616
439.771
-291.154
-240.99
-48.7715
-406.186
113.561
-243.589
167.351
-273.405
-320.358
-79.5235
399.881
-99.4459
393.651
-294.205
-386.589
-65.159
-218.803
-69.4207
2.22307
-387.814
-96.5057
-207.881
684.835
6.15415
633.22
-639.374
-199.749
40.6444
221.717
-805.096
583.379
196.063
-421.169
269.192
-11.7949
133.239
-981.932
-215.774
-77.5799
445.246
-12.1832
-446.381
-388.287
-82.4876
-657.379
215.725
-429.168
213.443
13.4665
243.671
-289.646
-73.523
363.169
8.34894
-259.526
251.178
830.03
-116.407
-488.98
485.266
-60.0568
-714.103
-69.5447
381.308
-846.324
783.713
303.351
-461.649
404.26
-84.9343
-124.84
213.882
167.844
-381.727
-438.331
-242.618
187.994
20.6435
-208.638
-221.556
904.462
28.3737
-992.029
559.695
-218.944
-69.0959
288.04
682.98
30.7345
328.505
-103.968
379.923
-355.579
-402.201
413.929
-11.728
317.443
-330.276
12.8331
336.79
-115.407
-10.5942
-372.683
-127.497
-225.876
-89.2306
-205.026
-79.0168
-563.547
737.55
-174.004
-197.365
21.3629
-180.264
-364.811
-462.928
412.587
107.368
-286.004
-150.886
-108.237
259.124
-46.6306
394.314
-347.684
302.238
-68.658
215.785
-56.6994
-159.085
82.336
-262.809
117.202
185.666
292.036
-75.3253
-279.94
-96.2535
195.811
512.658
-155.322
26.6161
-773.792
747.176
-307.917
122.893
-210.124
-30.5273
-49.4407
280.536
46.8123
772.23
-697.886
856.001
-110.706
-745.294
383.264
-79.0473
-304.217
135.569
-258.823
-101.677
512.028
-410.351
-219.452
-69.273
28.4545
-736.436
381.304
-124.752
-291.329
293.107
-1.77807
-191.745
-93.4017
285.146
209.445
19.4044
-228.85
-28.5434
-138.58
-450.431
-611.111
-427.87
206.27
-7.35844
-244.41
-1.81453
235.056
47.103
-532.647
485.544
-268.615
255.77
-433.847
201.616
-392.06
702.082
-285.791
71.3612
-275.786
204.425
-102.684
270.486
547.915
-176.207
-249.881
-145.616
237.295
826.781
90.318
-306.746
228.63
47.7956
724.435
-15.241
198.662
-329.405
-92.9262
333.711
-59.7037
-416.941
-526.93
156.44
370.49
-154.785
-472.491
627.277
-571.283
1012.15
-672.753
109.207
-442.922
-315.143
262.91
78.5276
-904.938
72.654
832.283
-321.187
343.017
-61.1966
1.07649
355.96
321.083
-6.04631
219.01
-204.986
-14.0241
-323.89
102.334
-200.854
-0.163625
242.067
328.838
-63.6282
579.876
-114.714
266.305
73.6431
506.042
-89.5845
490.491
-78.464
243.423
-17.5646
-225.858
373.12
-447.086
-305.979
753.065
527.336
-279.139
-265.019
-554.689
80.3608
474.328
294.118
-43.7023
-710.543
677.805
32.7382
509.366
-55.2369
-36.7391
636.174
-599.435
-308.048
234.064
256.626
58.8743
401.17
96.7983
-368.75
206.801
-14.7561
287.596
14.6421
-419.346
-131.306
-46.5041
586.396
330.094
-318.712
-11.3818
-477.816
29.9046
-356.332
-327.724
305.508
34.7643
330.007
-275.227
281.111
-47.0467
-144.821
-248.781
-218.167
-8.32434
226.491
-400.844
-112.28
-29.1923
547.772
-38.1034
-12.7546
479.426
526.997
-26.4564
-185.793
-278.866
313.183
-34.3174
-111.28
260.085
33.3242
-743.867
-292.365
-206.29
317.876
-394.788
-49.3319
409.232
610.98
229.93
-840.91
-137.508
523.066
-141.761
304.7
-252.645
-52.0551
-126.039
-557.286
-174.051
16.614
214.538
106.545
-127.094
248.874
-255.331
-238.479
288.286
-49.8075
257.261
276.486
-407.367
678.753
406.788
-237.215
321.488
-84.2736
-240.677
-436.637
-208.045
837.193
18.8073
348.68
-61.0844
-927.058
22.12
346.242
-97.0999
-742.791
13.6424
-290.029
636.12
208.466
-94.2012
-103.665
2.56091
301.826
-358.59
20.2925
338.297
-209.229
-103.738
254.611
-83.749
-475.601
-74.0294
478.115
-68.2466
324.651
15.4068
-285.287
-71.1157
-95.894
-519.998
367.607
-119.907
653.714
-625.259
-266.846
330.334
-63.4882
-203.377
41.0125
285.596
25.2049
-446.465
-477.601
-437.014
972.949
-466.732
-506.217
500.308
-82.487
-490.805
-89.9276
-68.09
19.432
470.423
-96.1193
-33.3026
42.5695
184.072
-225.415
-181.689
56.9772
-68.8547
514.488
-99.1768
-410.317
-365.549
314.182
271.613
-4.85329
382.854
-58.2026
-58.3965
-149.484
-192.724
-312.944
29.79
54.7693
-260.196
436.29
-648.901
538.685
-81.1653
-457.519
759.053
-725.729
364.361
-46.4855
-288.394
-317.784
14.8898
512.982
-103.75
-758.077
784.693
224.103
-7.42324
-216.68
-104.665
212.033
450.467
-47.199
537.915
-133.448
-283.987
288.234
-106.249
-124.16
-202.892
220.49
-17.5987
-116.598
273.525
293.2
-29.5821
-72.0276
251.698
-473.287
-278.893
272.546
-236.802
-35.7436
-359.7
361.74
-2.03992
-19.6109
-98.6303
261.043
310.622
-313.092
2.46976
-244.345
-134.349
3.16856
167.764
-327.947
377.547
-43.8107
787.295
-743.484
-507.621
332.371
-55.8846
22.3966
352.678
9.70411
-362.382
7.05922
382.231
191.092
475.384
18.1564
459.303
52.8728
355.671
-47.7664
-41.4318
218.179
201.366
83.7521
-850.553
856.707
-299.163
290.055
9.10817
-552.242
256.016
-4.31763
722.343
-524.538
-197.804
262.691
-191.355
-71.3356
432.491
230.572
20.6183
497.04
-202.297
620.687
-418.389
60.9417
-49.0393
836.469
-787.429
-364.459
278.26
477.752
198.665
241.616
-4.34142
231.497
-154.344
-466.611
620.955
32.1339
212.042
47.3797
-559.289
572.055
-509.373
785.626
-282.534
-503.092
-279.415
-149.787
36.6527
270.504
0.673641
-233.453
-247.007
-328.667
-457.9
8.95676
187.858
-196.815
297.255
271.277
199.283
-792.789
768.369
24.42
12.3809
410.223
-444.661
34.4376
284.795
53.4107
5.57075
710.042
-715.612
72.2379
240.945
34.5288
105.336
-294.746
311.782
-17.0361
-878.827
-43.8779
203.204
-109.155
-482.025
591.18
-297.271
796.487
-136.426
-383.343
-94.4732
-562.147
151.362
348.347
49.4197
-261.017
-22.9706
196.129
-153.56
-6.09572
831.768
42.7996
-17.9323
309.392
475.935
-358.564
-117.371
-625.594
273.725
351.869
99.5295
175.376
360.247
-347.837
223.716
113.432
286.449
229.726
207.611
23.9257
70.3055
-485.458
415.152
794.975
-256.043
-538.932
179.835
175.874
-355.709
314.208
401.746
255.929
3.3603
-626.255
-305.987
225.961
-890.134
368.195
59.4352
-407.51
55.2317
-630.976
-105.46
252.051
-366.083
332.473
553.535
-568.548
645.467
-76.9189
-16.5174
378.864
412.956
-287.488
-22.5355
163.254
-140.718
-303.203
302.265
-20.5123
601.663
-349.14
-24.2205
380.649
-356.428
50.9191
-188.423
221.476
-33.0532
-234.348
206.668
27.6801
292.605
493.021
179.435
-407.934
382.204
-1014.25
1019.82
87.0799
-6.51128
432.001
181.376
-58.4829
417.497
327.97
217.491
27.5106
231.069
369.107
-27.3024
-341.805
-651.079
647.604
3.47471
238.286
203.921
-16.0624
503.702
-433.397
-212.278
765.812
241.782
97.2901
225.024
-361.402
-182.362
27.0085
245.537
694.042
-146.908
-547.134
-819.018
879.193
280.169
320.128
205.149
-190.473
554.115
-992.445
391.488
293.624
262.023
-52.7399
433.464
291.375
60.9715
-420.416
359.444
-204.509
282.618
-13.2679
-9.37804
-824.418
694.087
771.87
-196.02
336.161
219.243
102.875
343.824
-21.0493
-322.774
269.835
246.142
265.731
-195.138
93.3735
-277.596
289.472
-11.8757
400.802
-502.034
-260.862
-7.95941
225.451
418.988
-573.082
-279.712
18.6956
416.476
-93.3905
-239.059
332.449
-333.69
-193.24
635.462
105.846
426.674
-942.447
515.772
-463.214
419.25
43.964
-4.65426
258.893
-254.239
304.319
-253.4
260.668
-237.881
-22.7869
249.835
-0.687029
-187.736
-843.523
74.9318
296.031
-370.963
-29.2235
716.218
-686.994
326.254
-298.48
-27.7738
-445.752
410.418
257.933
-211.12
-400.06
978.746
-578.686
292.941
-14.7943
202.789
540.121
459.879
-180.247
216.045
9.2418
-225.287
-29.7517
403.553
-593.509
33.5817
559.927
204.035
238.641
-308.062
-23.2559
-336.445
-904.462
855.423
-493.783
1033.9
339.356
-44.1518
244.168
-3.03153
-241.136
491.164
-436.605
69.7622
-722.137
-461.483
-1.73167
-263.763
321.486
-469.596
-499.041
301.73
-19.2243
-282.506
-960.096
444.16
-797.438
159.976
36.4009
-196.377
34.821
596.074
649.815
-633.918
-300.819
813.94
-84.2559
196.29
355.288
-481.905
126.617
-109.02
345.256
-236.236
-702.95
750.745
-390.3
215.157
-227.817
237.96
-10.1433
-274.11
700.784
316.521
567.557
28.133
-786.21
-235.087
234.041
-311.621
-70.4285
-228.756
240.443
-892.278
977.182
179.154
40.9444
-220.098
269.869
-248.964
-101.382
38.0368
400.576
208.608
-609.183
502.771
-902.831
449.72
-50.2015
-225.265
-7.34326
232.609
-114.561
-198.383
-242.155
61.0757
-162.007
-142.173
305.205
293.77
-266.761
-111.988
-322.829
434.817
284.333
292.356
-18.3115
-296.494
314.806
-691.715
20.4006
837.724
-878.827
900.566
-915.563
909.761
912.504
-912.504
-819.018
-981.932
239.52
-190.1
-238.524
-194.587
-190.904
-6.84799
729.967
-954.2
224.233
-856.707
18.043
-288.12
198.67
-38.6942
-763.124
791.258
232.386
-7.48119
-224.904
-233.648
241.997
-12.0514
-252.198
264.249
249.933
-14.2123
-235.721
205.459
-232.399
-23.8663
-255.667
279.533
-191.228
204.559
-13.3303
251.163
283.419
-349.245
410.217
111.454
-188.29
76.8359
-349.352
-568.053
-197.261
211.064
-13.8028
-420.662
-84.3484
505.01
200.139
-179.496
46.823
206.023
-26.8689
-348.631
224.591
434.563
-102.09
196.974
451.456
-41.2327
310.678
-359.486
48.8079
20.4015
-632.683
667.504
261.323
-463.62
-783.97
730.367
53.6032
480.867
497.879
56.0104
378.552
-222.686
236.152
-73.2697
-710.7
241.392
-310.488
669.519
-843.522
309.31
-686.068
376.757
135.087
264.167
-206.21
-57.957
-40.4007
-390.461
-866.309
592.199
-4.51291
266.259
3.2812
-311.015
307.734
21.0307
-35.0316
237.299
282.587
-37.0501
184.802
-57.9122
-126.89
737.902
21.151
274.545
309.418
7.29794
187.277
-224.004
36.727
220.275
-304.083
301.703
-269.405
-206.099
220.81
-14.7105
75.1758
-495.838
242.908
134.639
-91.7699
821.737
-590.722
389.239
536.282
-617.524
225.786
-304.134
317.908
-426.928
192.391
-281.622
218.762
-199.357
-297.179
218.926
-194.183
-10.5095
204.692
221.838
-300.855
369.24
-267.151
-102.089
3.13995
482.404
-442.613
-560.328
1002.94
-687.017
613.645
-50.4988
-320.954
371.453
21.4137
43.2859
-316.651
313.578
-276.34
-3.37245
205.06
35.2232
-240.283
-190.637
-238.531
-309.811
223.623
-209.255
-14.3672
-311.015
-411.626
411.626
190.762
-659.955
172.465
138.229
307.734
727.913
-235.156
-41.3822
-646.432
687.814
518.875
-75.6827
239.513
-367.362
318.723
371.552
247.017
4.9644
233.353
-173.258
-60.0943
-44.7755
-686.661
686.661
-171.814
-391.582
-99.6843
-143.905
207.032
20.3062
-159.792
230.826
-425.102
481.838
-194.268
-197.792
683.123
-484.033
-199.09
-144.458
-114.366
479.432
-137.384
-69.2069
-21.0422
-484.389
505.431
-500.006
-287.834
506.573
-9.53322
-32.1509
-683.895
529.55
-459.105
-66.0773
767.316
19.9791
234.929
-113.2
774.034
-660.834
76.773
780.375
683.297
819.601
157.334
-214.033
-390.167
-71.3152
-243.152
249.955
-199.819
50.8325
-212.323
-896.312
41.0171
855.294
35.6759
408.153
807.245
-269.116
251.488
17.6284
1066.47
-542.424
-524.043
-171.643
11.9384
473.327
206.158
-37.5041
306.11
240.362
433.769
-772.102
956.419
-184.317
-373.815
8.26676
233.945
20.5195
664.315
-73.025
-226.138
-214.358
-222.656
196.806
92.4909
635.422
690.562
-731.944
92.8496
-795.8
23.789
654.016
752.481
-849.811
97.3296
-627.565
536.855
90.7104
627.598
-563.848
-63.7501
-447.741
522.917
41.2399
-132.03
-111.408
243.437
168.614
305.172
-579.643
387.785
191.212
-191.212
-201.699
222.242
-879.338
436.725
-638.364
529.209
-554.689
850.553
-942.323
25.0168
-240.438
208.086
-213.114
-208.055
-247.95
26.8615
358.347
39.0465
344.218
-356.402
-353.86
23.5833
383.637
-662.777
-55.3883
-726.9
782.288
202.05
-295.451
55.9611
159.5
-267.737
-623.497
656.874
-173.866
-99.5394
8.58252
513.411
113.779
-314.631
-13.0928
-455.166
957.937
863.527
-863.527
335.2
45.4485
17.8632
461.563
-761.691
18.2066
647.67
19.8336
80.6859
418.293
-498.979
218.108
306.629
-4.53351
10.1345
670.848
20.6143
-772.529
598.478
196.27
302.681
-498.952
-804.177
521.643
213.328
-406.858
25.1025
-650.362
-192.946
-29.1759
222.122
-130.428
237.239
-106.811
16.3256
47.1245
358.373
43.8596
-209.424
17.412
-221.103
510.321
656.602
59.6158
12.7721
104.713
-134.359
-170.57
201.137
388.088
-500.217
-707.954
-64.1482
-206.04
-467.272
-475.175
-274.173
-360.745
625.386
-515.545
6.92729
797.552
-804.479
318.959
50.2812
396.252
-61.0519
609.425
-47.3799
-562.045
313.081
-10.6113
-566.795
-84.265
651.06
-15.6266
-209.525
-577.8
388.822
-162.793
-43.0076
205.801
220.064
611.302
66.0895
-203.339
-131.23
26.3177
207.904
-546.592
639.083
198.03
4.759
-200.402
401.07
-200.667
267.779
-797.498
529.719
-778.51