/*--------------------------------*- C++ -*----------------------------------*\
  =========                 |
  \\      /  F ield         | OpenFOAM: The Open Source CFD Toolbox
   \\    /   O peration     | Website:  https://openfoam.org
    \\  /    A nd           | Version:  7
     \\/     M anipulation  |
\*---------------------------------------------------------------------------*/
FoamFile
{
    version     2.0;
    format      ascii;
    class       volVectorField;
    location    "2";
    object      U;
}
// * * * * * * * * * * * * * * * * * * * * * * * * * * * * * * * * * * * * * //

dimensions      [0 1 -1 0 0 0 0];

internalField   nonuniform List<vector> 
20933
(
(0.997331 -0.000406412 -3.69848e-22)
(0.987628 -0.000945288 8.58484e-21)
(1.0159 -0.00140608 -1.14638e-21)
(1.00021 -3.07549e-06 6.53976e-24)
(1.00053 -0.00514382 -1.47773e-23)
(1.00041 -0.00525146 1.49139e-23)
(1.02127 -0.0835329 -1.17509e-21)
(1.05112 0.0373959 -9.92658e-20)
(1.00519 -0.04237 -3.02008e-21)
(1.05406 0.0384463 7.08856e-20)
(1.02708 -0.0758043 -1.73658e-21)
(1.10996 0.0787697 -5.16597e-21)
(0.994803 -0.0282538 -1.23083e-21)
(0.997489 -0.000492924 2.81339e-22)
(0.997677 -0.00218175 1.03704e-21)
(1.0002 -4.52466e-06 7.81509e-24)
(1.15756 -0.0151813 1.53373e-20)
(1.05961 -0.000449147 -5.94198e-20)
(1.00493 -0.0627405 -3.84481e-21)
(0.989028 -0.000533716 -7.5358e-21)
(1.01194 -0.0485418 1.55132e-21)
(1.10669 0.0777925 -8.53692e-21)
(1.05436 0.0411396 -5.39283e-20)
(1.06807 -0.0998875 2.32959e-22)
(1.01359 0.000436584 5.34458e-23)
(0.996242 0.0389825 -1.36065e-19)
(1.00534 -0.00150496 -7.43913e-22)
(0.999217 -0.0300904 3.02926e-21)
(1.09576 -0.0981072 1.71707e-21)
(1.00617 -0.0635341 1.24464e-20)
(0.999448 -0.00134483 -1.39355e-23)
(0.968612 0.00992348 2.05871e-19)
(1.06941 0.0677669 4.53529e-20)
(0.997508 -0.0177435 2.64772e-22)
(1.00005 -0.00101554 1.80613e-24)
(0.999441 -0.00147626 -4.46085e-23)
(1.04578 0.0477738 -1.04615e-19)
(0.9998 -1.17979e-05 1.91967e-23)
(1.00821 -0.0102951 -1.06329e-21)
(1.06331 0.00335913 -2.17456e-20)
(1.02204 -0.0049264 1.79548e-22)
(1.0476 0.0779259 7.51719e-20)
(1.01801 0.0199844 -4.08696e-20)
(1.00489 -0.00212 6.20626e-22)
(0.996017 0.0376214 5.34047e-20)
(0.97159 -0.00193284 4.95924e-21)
(1.04831 0.000788598 -1.53205e-19)
(1.14567 0.0391265 -3.14048e-20)
(0.999728 -7.14616e-05 3.31502e-23)
(0.988546 -0.0253436 1.16478e-21)
(0.999993 -0.00101711 -6.07933e-24)
(1.0381 -0.00459685 2.26375e-20)
(1.10114 -0.0635294 -2.53109e-20)
(1.00027 -0.00222529 3.0693e-23)
(1.12421 -0.0670909 4.32391e-21)
(0.973761 -0.0126864 -2.08795e-21)
(0.990363 -0.0176183 2.70843e-22)
(0.999349 -0.00169208 3.01093e-23)
(1.00669 -0.0252778 1.37597e-21)
(1.15469 -0.012095 -1.13678e-20)
(0.986967 0.0143583 1.12827e-19)
(0.975659 -0.00440384 7.22373e-21)
(0.993677 -0.00257807 -1.8605e-21)
(1.06002 0.0397651 -4.80093e-21)
(0.999505 -0.000124532 -2.17891e-22)
(0.997669 -0.00469623 8.28999e-25)
(0.998503 0.0265697 3.43078e-21)
(0.997446 -0.00478992 4.30646e-22)
(1.06366 -0.0397961 3.21318e-20)
(0.998546 0.0402788 5.07074e-20)
(1.02159 -0.0216942 1.05302e-20)
(1.15914 -0.0343969 1.61399e-20)
(0.997932 -0.00220524 -1.8967e-22)
(0.993437 -0.0212775 5.55898e-21)
(0.999472 0.0130023 -5.15328e-20)
(1.04125 -0.0451525 -1.18195e-20)
(0.999036 0.0376867 2.37761e-20)
(0.96711 -0.00525978 1.87521e-21)
(1.0642 0.000177303 1.35032e-20)
(1.00236 0.0153625 7.6558e-20)
(0.998345 -0.00495636 9.66294e-22)
(1.00139 -0.00253862 1.82968e-22)
(1.0853 -0.097789 -1.2478e-21)
(1.00566 -0.0411129 2.47063e-21)
(0.975516 -0.00361578 -7.9835e-21)
(1.01598 0.0185551 1.97431e-19)
(0.996195 -0.0263777 -2.28914e-21)
(0.956108 0.0260654 1.88641e-20)
(1.05865 0.0350412 -4.44351e-20)
(0.98996 0.0393575 8.49943e-20)
(1.05462 0.0145281 -6.12961e-20)
(1.00025 -9.07491e-06 -1.34457e-23)
(1.00005 -0.00019073 -1.41407e-23)
(0.95913 0.00453377 -5.72331e-20)
(1.14938 0.0349199 1.60001e-20)
(0.994121 -0.0026929 -1.1943e-21)
(0.9624 0.00266973 8.76179e-20)
(0.999902 -0.00259878 4.0219e-23)
(1.02948 -0.0732813 -2.85188e-23)
(1.03636 0.0087743 -5.49637e-20)
(0.98864 0.0402857 -2.51426e-19)
(0.987556 -0.00719437 5.35419e-22)
(0.985469 0.0370332 -2.74299e-19)
(1.09443 -0.0562738 -4.24657e-20)
(1.05649 -0.000853749 -4.70363e-20)
(1.054 -0.0434252 -2.38157e-20)
(1.00916 0.0460786 9.84945e-20)
(1.08742 -0.0456122 -2.55643e-20)
(0.984831 -0.000782782 -9.8365e-21)
(1.01621 0.0530139 2.29404e-20)
(1.10004 -0.100728 6.511e-21)
(1.01885 -0.083137 -3.05991e-21)
(0.989646 -0.0142924 3.00307e-21)
(1.01776 -0.0121524 -7.4614e-21)
(1.04168 -0.0410208 -6.88419e-21)
(1.00007 -3.52188e-05 6.22608e-24)
(1.02353 0.0355989 9.7911e-20)
(0.998642 -0.00459144 -3.44959e-22)
(1.08978 -0.0631809 -6.72728e-21)
(1.00238 0.013424 -1.81543e-19)
(1.00024 6.89778e-06 -2.50687e-24)
(1.0176 -0.0504233 -1.14894e-21)
(1.0742 0.0148325 -2.91211e-20)
(1.00724 -0.028613 1.65591e-21)
(0.997312 -0.0167035 -5.9342e-22)
(1.05845 0.00052089 3.15496e-20)
(1.08653 0.0793464 -1.18171e-19)
(0.999043 -0.0290174 2.66861e-21)
(0.966451 0.0114883 -5.96061e-20)
(1.02099 0.0368965 5.18234e-20)
(0.997296 -0.0334976 -2.51483e-21)
(0.988361 -0.024508 -3.41891e-21)
(1.02204 -0.00249607 3.36399e-21)
(1.00815 -0.00922843 1.96359e-21)
(1.00716 0.0427802 -1.33222e-19)
(1.05392 -0.00369278 -1.43562e-20)
(1.12978 0.0489042 -3.65899e-20)
(1.01333 -0.0488993 -7.96849e-22)
(0.99036 -0.00699121 4.62215e-21)
(0.99872 -0.0437566 1.03141e-20)
(1.01569 -0.0520258 1.62988e-22)
(0.992653 -0.0219314 -5.4134e-21)
(1.15887 -0.0420122 1.36863e-20)
(0.98369 0.0396898 -8.57837e-20)
(1.11445 -0.00315944 2.11964e-20)
(1.00647 0.0441343 1.19972e-19)
(1.06925 0.0852389 -1.13121e-20)
(0.983726 -0.00801348 -4.8142e-21)
(1.09227 0.0747462 -8.34745e-20)
(1.00584 -0.00195449 1.62165e-21)
(0.983261 -0.00752147 9.80263e-21)
(0.999399 0.0395206 6.21215e-21)
(1.00007 -0.000151418 9.27743e-24)
(1.00486 -0.0382047 9.84746e-22)
(1.00133 -0.00222012 -3.53313e-22)
(1.06679 0.08615 6.35834e-20)
(1.01499 0.0203786 -2.1271e-20)
(1.06524 -0.0975053 -2.85203e-21)
(0.971992 -0.0144819 3.65233e-21)
(0.99441 -0.0289184 2.64327e-21)
(1.12674 -0.0722348 -6.67013e-21)
(1.02354 -0.0808666 1.51539e-21)
(0.99938 -0.00158879 -3.53951e-23)
(1.11199 -0.000133971 -3.20314e-20)
(1.05861 -0.0022714 -6.75681e-21)
(0.957727 0.0267841 4.46101e-20)
(0.988262 -0.00729033 3.78618e-21)
(1.0816 -0.100898 -4.08527e-22)
(1.03962 -0.0457922 1.36468e-20)
(1.04743 0.0457636 -6.15449e-20)
(1.13344 0.0487311 1.16839e-20)
(0.994414 0.0307927 5.32193e-20)
(1.02404 0.064055 1.56653e-19)
(0.99578 -0.015858 1.08177e-22)
(0.946141 0.0097955 -6.6498e-20)
(1.07237 0.0688085 5.67321e-20)
(0.997811 -0.000633306 4.1245e-22)
(0.992775 0.00521042 -1.34752e-19)
(1.0451 -0.0401793 -7.24736e-23)
(1.01249 0.0548 4.29037e-20)
(1.00462 0.0465834 -6.06441e-20)
(0.999755 -3.16643e-05 -2.40326e-23)
(0.983194 0.0285235 3.87703e-21)
(1.0242 0.055967 1.31929e-19)
(0.988957 -0.000679295 4.83522e-22)
(0.968489 -0.0115806 2.18642e-20)
(1.02093 -0.0203194 -7.18783e-21)
(1.03922 0.00447259 -1.3902e-20)
(1.09113 -0.0591702 1.30036e-20)
(0.969475 0.0230997 6.00796e-20)
(1.08588 0.0766885 -3.99887e-20)
(1.13632 -0.0226659 1.59613e-20)
(1.03469 0.0046903 1.11474e-19)
(1.06399 -0.0378424 2.48624e-20)
(0.972679 -0.0149847 8.81533e-21)
(1.11109 0.0580839 -5.73704e-20)
(0.983743 0.0299765 -4.22084e-21)
(1.14334 0.0129727 -5.31501e-20)
(0.99031 -0.000337999 8.63656e-23)
(0.967784 0.023208 -5.85473e-20)
(1.12596 0.0324088 -8.47994e-20)
(1.13348 -0.0535252 -1.14403e-20)
(1.10091 -0.0597305 3.10655e-20)
(0.973026 0.025635 -7.26955e-20)
(0.979999 0.0265348 1.7202e-19)
(0.983074 -0.0150859 -3.3325e-21)
(1.00174 -0.0217444 -1.10854e-22)
(1.0388 -0.00267923 -3.13485e-21)
(0.974398 -0.0134208 -9.12913e-21)
(0.998646 -0.0001798 -5.10845e-22)
(0.999549 0.0274911 -2.5497e-20)
(0.992619 0.0116606 -4.83128e-20)
(0.983927 -0.00960188 6.68581e-21)
(0.979325 -0.0203738 4.177e-21)
(1.01388 0.0535164 6.68625e-20)
(0.999295 0.0128454 7.79039e-20)
(0.997522 -0.000157919 1.6121e-21)
(1.00113 0.0132406 -1.2274e-19)
(1.09071 -0.0429134 -1.21559e-20)
(1.00895 -0.00834273 -4.5618e-21)
(1.00457 -0.0312256 1.37488e-22)
(1.01418 0.0334879 -1.03936e-20)
(0.979655 0.0436625 7.95915e-20)
(1.05459 0.0110395 8.101e-20)
(1.01717 0.0511913 -1.09678e-19)
(0.989608 -0.00694335 -7.81509e-21)
(1.0028 -0.0214293 -1.40588e-22)
(1.0001 -3.5843e-05 -2.95678e-25)
(0.998144 -6.84156e-05 -5.21837e-22)
(1.00059 -0.00428824 -4.65885e-23)
(1.07276 0.0133893 1.40096e-20)
(1.07071 -0.0620712 5.83599e-21)
(1.01048 0.0449237 -1.25851e-19)
(1.00309 -0.0504774 2.9201e-21)
(1.01205 0.0165512 7.54136e-20)
(0.996873 -0.0254882 -4.19303e-22)
(1.05123 -0.0412715 1.70247e-20)
(0.995308 0.0299567 9.49968e-20)
(0.958184 0.00335725 2.9459e-19)
(1.01547 0.0312133 1.78887e-19)
(1.00025 0.036611 -1.4636e-19)
(0.978503 -0.020099 -3.78995e-21)
(1.04694 0.0694787 -4.53772e-20)
(1.00778 -0.0278908 -1.93826e-21)
(1.0569 -0.0011053 9.32161e-20)
(0.998584 -0.00419074 -7.15967e-22)
(1.14851 -0.0637791 1.92641e-20)
(1.09475 -0.0287849 5.1824e-20)
(1.04465 -0.0151776 3.55912e-20)
(0.999733 -4.42528e-05 -4.02547e-23)
(0.983721 -0.00112077 1.13478e-20)
(0.978138 0.0445588 -1.22361e-19)
(1.08968 0.0273581 2.13716e-19)
(1.00754 -0.0114899 2.9295e-21)
(0.987142 -0.0275205 -5.63485e-21)
(1.06722 -0.0597055 -2.99114e-21)
(1.03872 -0.0900475 2.35484e-21)
(1.04547 0.0768662 -9.2342e-21)
(0.99926 -0.0432234 -2.74949e-21)
(0.969675 -0.00248452 -8.82172e-21)
(1.00054 -0.0340122 3.0074e-21)
(0.997432 -0.01517 -5.08294e-22)
(0.999358 -0.000119152 2.33e-23)
(0.996274 -0.0244299 2.08246e-21)
(1.02551 -0.0809887 -9.90367e-22)
(0.983633 0.0382384 1.63305e-19)
(1.15424 0.0159257 2.69983e-20)
(0.990472 -0.0134587 -6.10037e-21)
(1.01163 0.0174712 -1.16225e-19)
(0.980927 0.028334 -2.03364e-20)
(0.996619 -0.0273115 5.44437e-22)
(1.00041 -0.000163898 1.07123e-22)
(1.00448 -0.0396089 -1.89175e-21)
(0.997701 0.0253619 2.94903e-20)
(1.13467 -0.0842633 7.28178e-21)
(0.988063 0.013126 -1.70984e-19)
(1.00004 -2.93488e-05 -2.05195e-24)
(0.980441 -0.021905 6.59211e-21)
(1.01897 0.0629008 1.26761e-20)
(0.999514 0.0139263 1.59214e-19)
(1.01787 -0.037867 1.06506e-21)
(0.991003 -0.0167177 3.50132e-21)
(0.972784 0.0398846 1.28938e-19)
(1.12973 -0.0434731 -4.76996e-21)
(1.13114 -0.0249703 -1.2362e-20)
(0.98683 0.0377205 1.13282e-19)
(0.970803 0.0255791 -1.22331e-20)
(0.995943 -0.0282732 -1.38954e-21)
(1.01769 0.063931 -7.94699e-20)
(1.07696 -0.00508502 -4.58782e-20)
(1.00335 0.0155046 -2.09226e-19)
(1.03029 0.0397224 6.07409e-20)
(1.00043 -0.000138518 -1.42165e-22)
(1.15908 0.0170667 -2.39492e-20)
(1.04263 0.0438182 3.69814e-20)
(0.997621 -0.000578979 1.30211e-21)
(1.00233 -0.053313 -1.12433e-21)
(1.13403 0.0160021 -1.95439e-20)
(1.07386 -0.0963706 1.10909e-21)
(1.12409 0.0282967 4.75958e-20)
(1.09612 -0.0174898 -2.77714e-20)
(1.00009 -9.66122e-05 7.96511e-24)
(0.999937 -0.00188139 1.13472e-22)
(0.990366 0.044416 -2.02114e-19)
(1.00124 -0.0070601 -4.55619e-23)
(1.00789 -0.0633149 -2.5578e-21)
(0.997861 -0.0359474 3.93802e-22)
(1.10494 0.0744342 -4.66618e-20)
(0.978438 -0.00430216 -1.42541e-21)
(1.01287 0.0559627 7.59767e-20)
(1.10779 0.0093881 6.38541e-20)
(0.999302 -0.0343417 2.0861e-21)
(0.966233 -0.0059782 -5.33341e-21)
(1.05023 0.043024 6.67336e-21)
(1.10391 0.0559654 4.19247e-20)
(1.00005 -0.00010144 4.12902e-24)
(0.989749 0.0279937 1.69441e-19)
(1.02022 0.0375526 2.62893e-20)
(0.995012 0.00956926 -4.18807e-20)
(1.12628 -0.0615251 8.45178e-21)
(0.999472 -0.000112142 1.72194e-22)
(0.973473 0.0386094 -8.45578e-21)
(0.998573 -0.00293196 -9.15762e-22)
(0.998686 -0.0268263 7.65343e-22)
(1.10848 0.0549466 -1.74869e-20)
(1.13812 0.0117239 6.60635e-21)
(0.992811 -0.0284672 -4.45702e-21)
(1.12901 -0.0495654 -1.8625e-20)
(1.01365 0.018982 2.98478e-20)
(0.960628 0.00423019 1.07416e-19)
(1.00357 0.0420694 -1.56992e-19)
(1.09258 0.0129872 -6.69428e-20)
(0.945061 0.0121545 1.43203e-20)
(1.00024 -3.27339e-05 4.65773e-24)
(0.996322 -0.0151519 -7.20063e-22)
(1.0001 0.0133663 2.10621e-19)
(1.10133 -0.0838779 -1.63068e-21)
(1.04286 0.041533 -8.73074e-20)
(0.994578 -0.0213793 -2.01903e-21)
(0.997265 0.0371756 1.44767e-19)
(1.09914 -0.000193069 4.05405e-20)
(1.00034 -0.00210088 -3.39927e-23)
(1.09493 -0.00288832 -3.55657e-20)
(1.02383 0.0326344 -1.26177e-19)
(1.0803 -0.0857433 3.09924e-22)
(0.981911 0.00520162 -3.10371e-20)
(1.02801 0.058697 1.92459e-20)
(0.999596 -0.000247948 -2.78672e-23)
(1.01963 -0.0107825 -1.26662e-20)
(1.06571 0.0569851 4.84674e-20)
(1.06155 -0.0028242 1.12705e-19)
(0.996763 -0.000258211 -1.66872e-21)
(1.02508 0.0624911 -1.40579e-19)
(1.00796 -0.0250619 4.01202e-22)
(0.951897 0.0264047 -8.45686e-21)
(1.01378 -0.0512542 -7.93939e-22)
(0.98343 -0.00896582 3.05849e-21)
(0.984701 -0.00108142 -9.84918e-21)
(1.00425 0.0434477 1.75505e-19)
(1.02474 0.0545302 -2.11589e-19)
(0.976121 -0.00291717 3.76498e-21)
(1.04951 0.0405148 2.42432e-20)
(0.989969 0.0375635 -4.93437e-20)
(1.00127 -0.00775248 7.91262e-23)
(1.0257 0.00320655 3.14893e-20)
(1.01326 0.0074162 -8.53261e-20)
(0.946558 0.0168864 9.44948e-20)
(0.998804 -0.00245142 2.87252e-22)
(1.09159 0.0597472 -9.02292e-20)
(1.09069 -0.0303 -1.61397e-20)
(0.972623 -0.0125334 -3.2524e-21)
(0.999662 -4.88167e-05 3.95976e-23)
(1.00003 0.00978486 1.25823e-19)
(1.04795 0.0801279 4.40171e-20)
(1.1395 -0.0025519 -1.23642e-19)
(0.994221 0.0447759 -5.24756e-20)
(1.08792 0.0144463 3.429e-20)
(0.989558 -0.0175592 2.42826e-21)
(1.04869 0.0674857 -3.39006e-20)
(1.06048 -0.00157088 -2.17937e-20)
(1.0859 0.0254571 5.9634e-20)
(0.951136 0.0177903 -2.46388e-19)
(1.01466 -0.0447726 -5.35264e-22)
(1.11501 0.0495763 2.34804e-20)
(0.994245 0.0107548 -1.09552e-19)
(0.98653 -0.0279512 5.19523e-21)
(1.07333 -0.00903324 3.30428e-21)
(1.0327 -0.0734997 -3.00703e-23)
(1.06783 0.0544499 -2.13429e-20)
(0.990324 -0.000259253 -1.47604e-20)
(1.05592 0.00136511 -1.80786e-20)
(1.14038 0.0018387 5.23593e-20)
(1.11678 0.0465667 6.18718e-20)
(1.00071 -0.00269814 -4.67205e-22)
(1.04357 0.00229734 1.61693e-19)
(0.997685 0.00991507 -1.04997e-19)
(1.02524 0.0235228 2.28434e-19)
(1.07431 -0.0938482 5.72234e-21)
(0.997958 -0.014418 1.10272e-21)
(0.974496 0.0238125 -8.51244e-20)
(0.970471 0.0109001 -2.20694e-19)
(0.998827 -0.00390873 -1.74043e-22)
(0.981238 -0.0213699 3.15537e-21)
(1.00824 0.0321546 2.33064e-20)
(1.0103 -0.0662423 -1.97508e-21)
(1.0477 -0.043244 -1.45065e-20)
(1.04532 0.0741828 1.4088e-19)
(0.985803 -0.000818656 1.2279e-20)
(0.941105 0.0153124 1.59684e-19)
(1.01867 -0.0343041 4.99604e-22)
(1.08482 0.0630796 2.74364e-20)
(0.995538 -0.0059517 4.40363e-22)
(0.996004 0.00893435 -4.47579e-20)
(1.02967 0.0576125 -3.96994e-20)
(1.04527 -0.010821 -3.43918e-20)
(1.05474 -0.0477284 6.34228e-21)
(1.13784 -0.0190586 -2.69346e-20)
(1.1247 0.0350862 9.21089e-21)
(1.00005 -0.00287475 -2.2293e-23)
(1.00729 0.0269036 -4.32434e-20)
(1.164 -0.0311844 -3.54219e-20)
(1.05736 0.0346996 1.0866e-19)
(0.953539 0.0273916 2.45922e-19)
(1.13226 -0.0598843 -7.71225e-21)
(1.03695 -0.0392463 2.20434e-20)
(1.00048 -0.00462488 3.91327e-23)
(1.14615 0.0440962 6.4413e-20)
(1.14743 0.00897593 3.20855e-20)
(0.988967 -0.0140857 1.0861e-20)
(1.03794 0.0663967 -1.21885e-20)
(1.00006 -0.000796972 -7.74254e-25)
(0.989017 -0.0227692 -1.18261e-21)
(1.00846 -0.00680852 6.46699e-21)
(1.12508 -0.0400284 -2.53275e-21)
(0.996793 -0.0234741 1.82038e-21)
(0.999748 -0.000107405 -1.25819e-23)
(0.996527 -0.0298598 4.79879e-21)
(1.11553 0.0577497 -3.07635e-20)
(1.08023 -0.0907075 3.24936e-21)
(1.0255 -0.0359323 1.11597e-21)
(0.982316 -0.0155846 -6.5515e-21)
(1.12889 0.0153505 -6.35328e-20)
(1.09247 -0.014974 4.00294e-20)
(0.990169 -0.0286287 -2.45034e-21)
(0.966922 -0.00797635 1.67978e-20)
(1.00054 -0.00285379 7.20661e-23)
(1.0684 -0.0405131 -3.42972e-20)
(1.01536 -0.0710436 -2.40816e-22)
(1.00651 -0.00160226 -1.28383e-21)
(1.01968 -0.0362238 -6.123e-21)
(1.10102 0.0533817 -6.49041e-20)
(1.02832 0.0225199 -1.40384e-19)
(1.1152 0.00531497 1.45775e-20)
(0.999571 -0.000222882 -1.39616e-22)
(0.970182 0.0417318 -1.86027e-19)
(1.00664 -0.00103176 -4.79414e-21)
(1.00002 -0.000860474 1.63458e-24)
(1.02157 -0.00715064 1.0455e-20)
(0.983132 -0.0213415 -5.0046e-21)
(1.00772 -0.046412 1.7626e-22)
(0.981055 0.0249023 -1.018e-19)
(1.01353 -0.0281818 -5.8957e-22)
(1.07398 -0.00381668 -2.01601e-20)
(1.01322 -0.0620618 2.84336e-21)
(1.01172 -0.0631962 -4.68652e-21)
(1.04747 0.0723716 -9.76185e-20)
(0.999694 -0.0271379 -9.60177e-22)
(0.999124 -0.0412713 2.24203e-21)
(1.00318 -0.0524214 2.09918e-21)
(0.999675 -1.83494e-05 -8.11143e-23)
(1.09413 -0.0518407 2.68182e-20)
(0.96641 0.0398117 -1.80788e-20)
(1.04007 -0.0870617 2.64116e-22)
(0.982633 -0.0262017 -1.25892e-21)
(1.03816 0.0637422 -1.72662e-21)
(0.993084 -0.0269874 -4.7114e-22)
(1.03048 0.0375782 -5.06557e-20)
(1.09334 0.0771428 -1.01349e-20)
(0.998315 -0.00316708 1.38588e-21)
(0.998759 -0.000275004 4.12253e-22)
(1.01879 0.0349711 1.54454e-20)
(0.956866 0.0315688 8.03181e-20)
(1.03186 -0.0857493 2.00605e-22)
(1.07311 0.0812266 1.44531e-20)
(1.12247 0.0608552 -8.72629e-20)
(0.985232 -0.0233392 -1.96974e-21)
(0.985339 -0.0243607 -4.50249e-21)
(1.00887 0.0336962 -6.4737e-21)
(1.0525 -0.00554842 2.13772e-20)
(1.08532 -0.0933065 -6.04857e-21)
(1.03475 -0.0704677 1.69564e-21)
(0.975753 -0.00204839 2.59327e-22)
(1.03487 -0.0071129 1.85707e-20)
(0.972637 0.0148603 -3.80883e-20)
(1.07378 0.00549953 -1.15948e-19)
(1.00025 -3.34945e-05 -1.13433e-23)
(0.984818 0.0355821 1.76869e-19)
(1.01964 -0.0322186 9.15196e-21)
(1.00826 -0.0471406 1.97794e-21)
(1.02067 0.0624949 -7.31386e-20)
(1.01013 -0.0122939 5.98322e-21)
(0.995166 -0.0057602 -1.26669e-21)
(0.999638 -0.000322817 -6.28074e-23)
(1.08437 -0.0378183 1.93877e-20)
(0.982809 -0.0123806 -5.69762e-21)
(1.00023 -5.26152e-05 -9.65719e-24)
(1.07477 0.0828221 -3.55113e-20)
(1.13649 -0.0797051 5.67077e-21)
(1.00616 0.0253918 -7.44584e-20)
(0.999419 -0.00016822 5.952e-23)
(1.00024 -0.00240696 3.08495e-23)
(0.992608 -0.027609 -2.07177e-21)
(1.00002 -3.19101e-05 -6.04631e-25)
(1.03222 -0.0882678 -1.14119e-21)
(1.09558 -0.0923237 3.52877e-21)
(0.999886 -0.00241646 3.12454e-23)
(1.00655 -0.0376498 -3.70059e-22)
(0.96926 -0.0113554 5.04899e-21)
(1.0215 0.0563202 -7.37162e-21)
(0.993343 0.0440605 4.26544e-20)
(0.998557 -0.00264228 2.90766e-22)
(1.00202 -0.000630905 -3.52656e-22)
(1.00159 -0.0496905 -6.32811e-21)
(0.991674 0.0402436 1.3483e-19)
(1.00362 -0.0173591 -6.00375e-22)
(0.98995 0.0264464 -4.93169e-21)
(0.991031 -0.00743093 -4.97125e-22)
(0.949914 0.0224157 -6.73053e-20)
(1.0214 0.00741678 -1.7033e-20)
(1.07071 0.0353852 -1.18601e-19)
(0.961317 0.0267596 -7.35186e-20)
(1.16316 -0.0238836 -1.69349e-21)
(0.994412 -0.0022543 -7.07918e-22)
(1.08542 -0.0306941 1.47697e-20)
(1.00606 -0.017828 2.57643e-23)
(0.994625 0.0401921 3.45736e-20)
(1.00856 0.0290716 1.01463e-19)
(0.983756 -0.00613409 3.84163e-21)
(1.14421 -0.0604442 -2.56747e-20)
(1.06705 -0.0144621 -3.50608e-21)
(1.03489 -0.0422402 7.4786e-21)
(0.994565 -0.000364096 -1.59822e-21)
(1.14781 -0.0698421 -1.89916e-20)
(1.00023 5.28301e-05 -1.01952e-23)
(1.02 0.0545204 4.57296e-20)
(0.967708 -0.0109969 -2.01581e-20)
(0.998335 -0.0333482 -7.0078e-22)
(0.999168 -0.0163697 6.625e-22)
(1.00555 -0.0306414 2.33655e-22)
(1.08325 0.0604097 8.49521e-21)
(1.1132 0.00864862 -5.60988e-20)
(0.997146 -0.000115382 1.90269e-21)
(1.01515 -0.0270239 6.37037e-21)
(0.999936 -7.17599e-05 6.05399e-24)
(0.949416 0.0213275 5.09709e-20)
(0.974463 0.0134848 7.88829e-20)
(0.996921 -0.000931825 -8.61985e-22)
(0.985957 -0.00855031 -3.53093e-21)
(1.02002 -0.0208697 8.09777e-21)
(1.0093 0.0305623 4.35662e-20)
(0.97027 -0.0151602 -9.20959e-21)
(1.12402 0.0636242 -1.91e-20)
(0.983765 -0.0266074 1.20996e-21)
(1.00175 0.0415561 -3.16469e-21)
(1.0723 0.0370838 -1.34696e-20)
(0.982456 -0.0133155 -3.68223e-21)
(0.942117 0.0130015 -1.02356e-19)
(1.02871 -0.00121356 -1.79902e-20)
(1.00564 0.0445559 -9.4048e-20)
(0.996758 -0.00803453 1.74729e-22)
(1.01635 -0.0752854 7.35288e-21)
(0.982269 0.00329147 -2.62009e-19)
(1.00926 -0.0226611 -2.91059e-21)
(0.955975 0.0331317 -3.6149e-20)
(1.01367 0.0357316 5.57485e-21)
(0.947161 0.0142734 -2.48702e-20)
(0.994779 -0.00228593 3.97638e-22)
(0.99147 -0.000766669 3.98285e-21)
(1.0172 -0.048148 5.63126e-23)
(1.09303 -0.0250099 -6.972e-20)
(1.00981 -0.0123298 -6.57353e-21)
(1.01668 -0.0434599 8.61762e-23)
(1.0042 0.0392188 8.58708e-21)
(1.00117 0.0449898 2.88071e-20)
(1.02229 6.0616e-05 1.82016e-23)
(0.993037 0.0394031 -9.62519e-20)
(0.959329 0.0354058 1.99137e-20)
(1.06825 0.0658279 8.85844e-20)
(0.998569 0.00917546 -1.79501e-19)
(1.02355 0.0175823 -4.36847e-20)
(1.0033 -0.00968625 1.96995e-21)
(1.01785 0.0361066 -5.00514e-21)
(0.998384 -0.0410066 -1.91727e-21)
(0.98452 -0.0259646 3.17033e-21)
(0.999298 -0.000837561 4.3195e-23)
(1.03124 -0.0416988 -1.85467e-20)
(1.06054 -0.0802019 5.63263e-22)
(1.04208 0.0213613 3.84355e-20)
(1.04287 -0.00269595 4.15894e-20)
(1.00212 0.0147808 1.49661e-20)
(1.00641 -0.0262451 -1.26126e-21)
(1.06893 -0.00774395 1.97456e-20)
(1.00299 0.0119052 -1.75869e-20)
(1.0068 -0.0189166 -3.06037e-21)
(1.05382 -0.0494316 -1.40886e-20)
(0.99996 -7.89542e-05 -1.99513e-24)
(1.00033 -0.000177476 -2.0625e-23)
(1.04191 0.0211407 1.55444e-23)
(0.998897 -0.0356791 -2.07673e-21)
(0.98727 -0.0241907 4.77367e-21)
(1.00034 -0.000140119 3.18494e-23)
(1.00022 -0.00172685 -3.53099e-23)
(1.06899 -0.0169603 -6.33733e-21)
(0.999523 -6.84924e-05 -1.03272e-22)
(1.14757 0.0293781 -2.9232e-21)
(0.947695 0.018203 1.29413e-19)
(1.06963 0.0823226 5.34039e-21)
(1.06017 0.0432549 -2.9996e-21)
(0.980734 -0.00630216 -6.3385e-21)
(1.01256 0.0483121 3.47188e-20)
(1.14154 0.0474552 -3.19098e-20)
(1.00365 -0.0163002 3.20033e-23)
(0.986441 -0.00927487 -3.29021e-21)
(0.998873 -0.00221964 2.20215e-24)
(0.999593 -0.000303353 3.75189e-23)
(1.00108 -0.00283954 1.83808e-22)
(0.999724 -0.0175448 6.48006e-22)
(1.02416 -0.0750404 1.84083e-21)
(1.05145 0.0508339 1.2373e-19)
(1.10869 -0.0257437 1.4784e-20)
(0.967547 -0.00420694 1.30475e-21)
(0.999938 -2.9529e-05 -2.15712e-24)
(1.00098 0.0254863 9.90384e-20)
(1.14959 -0.0114566 -5.01582e-20)
(1.15206 -0.0450648 -9.62261e-21)
(1.01051 -0.0233527 3.32454e-21)
(1.1268 0.0474352 4.21946e-20)
(1.03037 -0.043133 3.7939e-21)
(0.976502 -0.00111508 -1.01178e-21)
(1.00281 0.012021 8.88162e-20)
(0.975156 0.00111965 -3.32143e-19)
(1.02878 0.0701927 -9.86747e-20)
(0.98458 -0.000548909 -8.3306e-21)
(1.02755 0.0695096 7.61231e-20)
(0.978596 -0.00510432 2.60317e-21)
(0.994524 -0.0252943 -2.49959e-21)
(1.06174 0.0756526 -9.77964e-20)
(1.0002 -4.35491e-05 -2.07201e-23)
(0.996134 -0.0167564 -5.08857e-22)
(1.09121 0.0630056 3.06112e-20)
(1.06665 0.0588049 1.03916e-19)
(0.983324 -0.0140929 -1.01253e-21)
(1.01057 0.0306907 6.65073e-21)
(0.981115 0.0449045 -8.28538e-21)
(1.00819 0.0148552 -2.05416e-19)
(0.982255 -0.0219053 7.63841e-21)
(0.9678 -0.00771333 -7.72715e-21)
(1.02807 -0.0337893 4.17221e-21)
(1.0653 0.00211561 3.16957e-21)
(1.0114 0.00643206 -5.09075e-20)
(0.99727 -0.00117255 -2.66798e-22)
(0.984534 0.00582128 -9.76562e-20)
(0.998163 -0.0255845 3.88721e-21)
(1.01862 -0.0751911 -4.6575e-21)
(1.08485 -0.0281621 1.49729e-20)
(0.96867 0.042534 2.64629e-19)
(1.05112 0.0531005 -1.022e-19)
(1.00719 0.0290174 -1.06578e-19)
(1.10106 -0.0895619 -2.0118e-21)
(0.962038 0.00203047 -1.45688e-19)
(0.983801 -0.0121985 5.77238e-21)
(0.995121 -0.02445 1.78996e-21)
(0.945278 0.00800866 4.97782e-20)
(1.04471 -0.0174331 -1.16767e-20)
(1.02446 -0.0696398 -3.61162e-22)
(1.00657 0.0411164 -2.17117e-20)
(1.00128 0.0399415 -6.56697e-20)
(0.989841 -0.0220318 -4.29954e-21)
(1.01557 0.0090245 -1.1524e-19)
(0.99188 0.0418178 -1.78939e-20)
(1.00204 0.0371413 8.59515e-20)
(1.01645 0.0571693 2.8943e-20)
(1.00473 0.0410571 1.3914e-19)
(1.02845 0.0411217 -7.85465e-20)
(0.992013 -0.00285238 2.65076e-21)
(0.984565 -0.0129219 6.57159e-21)
(1.00194 -0.00434977 1.31768e-22)
(1.00884 -0.062132 5.50786e-21)
(0.995614 0.0119908 -2.53594e-20)
(1.01192 -0.0655652 3.14742e-21)
(1.10291 0.0603371 -2.73778e-21)
(1.08524 0.0334604 -7.5558e-20)
(0.987978 -0.0276938 3.09917e-21)
(1.14279 0.0281299 -2.37897e-23)
(1.09486 0.0717587 -3.14192e-20)
(0.993894 0.0059814 -7.57014e-21)
(1.13608 0.0215499 2.44699e-20)
(1.00003 -0.00208299 -5.27224e-24)
(1.03675 -0.00869377 6.89715e-22)
(0.994263 -0.0271361 1.24261e-21)
(1.13575 -0.041008 2.14496e-22)
(1.14702 -0.0415423 2.29584e-20)
(1.01351 -0.0692495 1.17005e-21)
(1.0173 0.0546939 1.63524e-20)
(0.987503 0.0445683 1.41426e-19)
(1.10046 -0.0147472 2.98296e-20)
(0.997166 0.00715689 7.95987e-20)
(0.955928 0.0302699 -8.91878e-20)
(0.99741 -0.000154776 -4.367e-22)
(1.00216 -0.000743418 5.29065e-23)
(0.998374 -0.00348763 -6.23138e-22)
(0.984665 -0.00634675 1.46838e-21)
(1.04046 0.0466773 -6.29293e-20)
(0.948875 0.00894193 -1.08226e-19)
(1.07628 0.0102726 9.98223e-20)
(1.01286 0.0516215 2.06177e-20)
(0.991487 -0.0138526 -2.81039e-21)
(1.03318 0.0659444 1.30294e-19)
(1.03056 0.0691821 4.15588e-20)
(1.13283 -0.0732251 -2.59959e-21)
(0.97633 -0.00907079 6.8445e-21)
(0.970795 -0.0144789 5.5654e-21)
(1.10555 0.0631186 8.15867e-21)
(1.0081 -0.023315 -7.09982e-22)
(1.10794 -0.022177 2.03499e-20)
(0.986113 -0.0227045 1.02636e-21)
(0.976632 -0.023087 -1.1927e-20)
(1.00916 0.0428932 1.55329e-19)
(0.99534 -0.00195834 1.45631e-21)
(1.01549 -0.0310511 1.24423e-21)
(1.00199 0.0443151 7.18286e-20)
(1.1412 0.0225778 1.1354e-19)
(0.97248 0.0370334 3.05781e-20)
(1.01085 -0.0450441 -1.01071e-22)
(1.02399 0.00581823 5.60912e-20)
(1.14074 -0.0447332 -2.14079e-20)
(1.00226 -0.0374786 5.88343e-22)
(0.985438 0.00472398 -3.61038e-20)
(0.985599 0.000566118 2.15858e-19)
(0.994068 0.0141783 -3.93242e-20)
(0.998399 -0.0188726 -2.03656e-21)
(0.964594 0.0108442 1.20369e-19)
(0.983101 -0.0202643 3.97828e-21)
(0.987671 0.0338874 4.20392e-21)
(1.06759 -0.034341 -1.02634e-20)
(0.993723 0.0218425 -2.23281e-20)
(0.992741 -0.0260434 1.6322e-21)
(1.00007 -0.00012355 2.5754e-24)
(0.993255 0.0192993 7.39178e-20)
(0.986231 0.03042 8.47829e-20)
(0.988191 0.0364623 -1.35637e-19)
(0.993568 0.0168262 -8.6236e-20)
(1.0395 0.00447842 -2.07607e-19)
(1.07359 -0.00929725 -2.09312e-21)
(1.03566 0.0397413 -1.55245e-19)
(1.02274 -0.0673909 3.92254e-22)
(0.996872 0.0115817 2.59766e-19)
(1.01116 0.0278214 -1.32841e-19)
(1.14603 -0.0138938 6.11269e-20)
(1.04647 -0.00139645 -4.37175e-20)
(0.992239 -0.00270576 1.5195e-21)
(1.16763 -0.0206354 6.61833e-21)
(1.01238 0.0445174 -2.67204e-20)
(0.97637 -0.0188143 3.65465e-22)
(0.976628 -0.00458889 -8.29322e-21)
(0.992652 0.00392465 -5.17359e-20)
(0.991523 0.0234951 -1.57625e-19)
(0.996617 -0.0290766 -1.86145e-21)
(0.99524 0.0253524 1.15779e-19)
(1.01475 -0.0734102 1.84269e-21)
(1.12733 0.0432381 -6.98681e-20)
(0.990734 -0.000514473 -3.73198e-21)
(0.988966 0.0252196 -8.8254e-20)
(0.986548 0.0273103 2.23577e-19)
(0.953717 0.0193424 2.00183e-19)
(0.990337 0.0428038 1.8515e-19)
(0.997238 -0.000413512 -4.47172e-22)
(0.991703 -0.014937 1.8427e-21)
(0.999218 -0.000848827 -3.75135e-22)
(1.00049 -0.0392579 -6.17702e-21)
(0.972726 0.0296429 -4.3555e-20)
(1.0679 0.0471868 -1.50091e-19)
(1.01599 0.0495352 -1.53346e-21)
(0.976794 -0.0222957 7.93058e-21)
(1.0229 0.0191216 1.37506e-19)
(1.021 -0.0201875 -9.14619e-21)
(0.972517 0.0335473 6.30895e-20)
(1.04724 -0.0520784 4.84988e-21)
(0.995371 0.00551991 8.81853e-20)
(0.991276 -0.000534824 -2.17861e-21)
(0.976377 0.0280432 -1.47783e-19)
(0.969149 0.0352692 -1.75061e-19)
(0.990889 -0.015678 -4.64136e-21)
(1.10246 0.0258415 4.07769e-20)
(0.976869 0.024255 -1.4776e-19)
(0.997202 -0.000618626 2.16673e-21)
(0.962565 0.0192032 -2.29338e-20)
(1.02626 -0.0375729 -2.03204e-21)
(0.996496 -0.000541098 -7.09835e-22)
(0.975754 -0.00982312 -4.77628e-21)
(1.00546 0.0462992 -9.14004e-20)
(1.08349 0.0435502 -9.45874e-20)
(1.00658 -0.0524824 2.47618e-21)
(0.996064 0.0435878 7.23778e-21)
(0.966886 0.0385756 1.15213e-20)
(1.03096 0.0668676 -1.41058e-19)
(1.03045 -0.0049365 -8.86004e-21)
(1.00159 -0.0350205 1.0055e-21)
(1.08311 -0.0343675 -2.055e-20)
(0.991785 0.0263516 1.29686e-19)
(0.966791 0.0190314 -1.32501e-20)
(0.949561 0.0188871 1.29917e-20)
(1.0675 0.0409386 2.32551e-20)
(1.00094 -0.00577099 -4.94936e-23)
(0.975401 -0.00248409 1.24987e-21)
(1.01329 0.0461358 -9.46721e-20)
(1.00139 -0.00444755 -8.88766e-23)
(0.991345 -0.00416477 -2.67875e-23)
(1.00248 -0.00700283 1.01759e-22)
(0.997781 -0.0160863 -1.06762e-21)
(1.04624 -0.076828 -2.69912e-21)
(1.09538 -0.0815829 3.51961e-21)
(0.982897 0.0358276 -1.97089e-19)
(1.01188 -0.0257574 -3.82513e-23)
(0.99939 -0.000693599 2.56289e-22)
(1.01463 0.0291051 -2.00556e-21)
(1.07902 0.060415 7.56041e-20)
(1.00157 -0.0072586 7.00251e-23)
(1.10993 0.0500458 -5.11822e-20)
(1.00113 -0.000757147 -3.55346e-23)
(1.07759 0.0336963 8.01125e-21)
(1.00717 0.0156399 1.43702e-19)
(0.994168 0.0244361 -2.24524e-19)
(1.0762 -0.0827122 -3.41549e-21)
(1.09234 0.0251862 -5.34585e-20)
(0.997273 -0.00818947 -2.52593e-22)
(1.06449 -0.0531151 -2.80748e-21)
(0.997144 -0.00138645 -1.2315e-22)
(0.990783 0.0296763 -2.29603e-19)
(0.982064 0.0349946 6.12323e-20)
(1.11335 -0.0869333 -4.10755e-21)
(1.09057 -0.090069 -2.57489e-21)
(1.07015 -0.0900807 -3.94062e-21)
(1.01874 -0.044552 -1.53906e-21)
(0.994768 0.0417573 1.54327e-20)
(1.02048 -0.0406978 -1.79336e-21)
(1.058 -0.0729141 -2.06707e-21)
(1.03835 -0.0835207 -1.94653e-22)
(1.06154 -0.0472253 1.40646e-20)
(0.958283 0.0192761 1.10677e-19)
(1.07092 -0.0990697 4.45553e-21)
(1.13598 0.00566632 -7.73241e-21)
(0.991696 0.00861381 4.50294e-20)
(0.994128 -0.000483664 2.11871e-21)
(1.10664 0.0123689 2.57209e-20)
(1.02166 -0.0366776 4.37585e-21)
(1.03872 -0.076971 -8.5372e-23)
(0.997163 -0.000992111 8.04759e-23)
(0.999904 -0.00173036 -4.05628e-23)
(0.960397 0.0230618 -1.88844e-19)
(1.03028 0.0222241 1.06561e-19)
(1.11098 -0.0912861 -1.07308e-20)
(1.1669 -0.00181026 1.32168e-20)
(1.02786 0.0358061 -5.70878e-20)
(0.99681 0.0248031 -1.83683e-20)
(1.01243 0.0299514 4.07244e-20)
(1.12273 -0.0518691 2.10464e-20)
(0.993435 -0.0289946 4.8589e-21)
(0.998705 -0.0246073 -9.92e-22)
(0.994937 -0.026261 -3.01819e-22)
(1.01819 0.0301612 -1.36689e-19)
(0.97953 -0.00534886 7.34388e-21)
(1.004 -0.03558 1.08656e-21)
(0.999705 -3.0215e-05 2.36762e-23)