/*--------------------------------*- C++ -*----------------------------------*\
  =========                 |
  \\      /  F ield         | OpenFOAM: The Open Source CFD Toolbox
   \\    /   O peration     | Website:  https://openfoam.org
    \\  /    A nd           | Version:  7
     \\/     M anipulation  |
\*---------------------------------------------------------------------------*/
FoamFile
{
    version     2.0;
    format      ascii;
    class       volScalarField;
    location    "33";
    object      p;
}
// * * * * * * * * * * * * * * * * * * * * * * * * * * * * * * * * * * * * * //

dimensions      [0 2 -2 0 0 0 0];

internalField   nonuniform List<scalar> 
20933
(
0.00114807
-0.000191115
0.00247444
-6.50177e-05
-0.00275233
-0.00301261
-0.0879898
0.329897
-0.0376756
0.320221
-0.0843141
0.182381
-0.0237386
0.00101885
-0.000650673
-6.74367e-05
-0.0634534
0.186135
-0.0526448
0.00033383
-0.0350206
0.193706
0.321306
-0.106312
0.00080201
0.561565
-0.0012324
-0.0219993
-0.139714
-0.0548113
-0.000208163
0.646695
0.299661
-0.0109717
-0.000516522
-0.00034043
0.369175
8.82381e-05
-0.004062
0.153591
0.00592717
0.384101
0.453729
-0.00123849
0.561976
0.000520205
0.283074
0.0555627
0.000110968
-0.0198165
-0.000536387
0.027388
-0.0888612
-0.00114812
-0.110401
-0.0100281
-0.0136043
-0.000476284
-0.0166883
-0.0540267
0.592879
-0.00175198
-0.000764798
0.29457
0.000295433
-0.00246613
0.546382
-0.00254341
-0.0120089
0.557808
-0.00713405
-0.0852398
-0.000576785
-0.0156085
0.548609
-0.0242692
0.548889
-0.00925254
0.151786
0.511082
-0.00211888
-0.00146433
-0.138803
-0.0353641
-0.00081531
0.457953
-0.0195684
0.706915
0.293786
0.588336
0.259614
-0.000127138
-9.59752e-05
0.68067
0.0378578
-0.000354416
0.686692
-0.00110543
-0.073225
0.360944
0.594257
-0.00515375
0.603711
-0.0563199
0.0675342
-0.0191001
0.514547
-0.0308607
0.00224852
0.487425
-0.147869
-0.0882339
-0.0101361
-0.00111092
-0.0181839
-1.83244e-05
0.443469
-0.00208752
-0.0763904
0.503508
-0.000124169
-0.0399853
0.174127
-0.0212217
-0.0110062
0.18733
0.259052
-0.0212225
0.654912
0.454607
-0.0274316
-0.018216
0.00613548
-0.00313266
0.518636
0.0582403
0.101249
-0.0383861
-0.00407492
-0.0461388
-0.0427401
-0.0171441
-0.106788
0.613146
0.0404093
0.52526
0.315029
-0.00465662
0.23725
-0.00143146
-0.00370192
0.550399
-8.69953e-05
-0.0300753
-0.00140529
0.320922
0.466842
-0.110256
-0.0102803
-0.0251603
-0.116181
-0.0806368
-0.000306444
0.0525109
0.118632
0.700566
-0.0043356
-0.126853
-0.0242714
0.361671
0.0874371
0.564954
0.469969
-0.00990487
0.726559
0.288189
0.000670501
0.579041
-0.0149802
0.507697
0.533626
8.51768e-05
0.609477
0.466152
0.000374591
-0.011691
-0.00601203
0.343828
-0.061397
0.658954
0.257248
-0.0249201
0.369765
-0.00541153
-0.0116317
0.163662
0.605969
0.0189181
-0.000225677
0.666108
0.0941562
-0.0909627
-0.0783514
0.646972
0.621022
-0.0128545
-0.0136324
0.0288167
-0.0102468
0.000653917
0.541497
0.576174
-0.00654235
-0.0184579
0.498386
0.548261
0.00176242
0.503577
-0.0228801
-0.00216957
-0.0213371
0.480546
0.632315
0.262281
0.483947
-0.00502528
-0.0127011
-2.01227e-05
0.00143853
-0.0020868
0.170386
-0.0527884
0.506589
-0.0440185
0.470857
-0.0185805
-0.0135368
0.561294
0.692925
0.472961
0.543926
-0.0174193
0.380526
-0.0200161
0.0762146
-0.00168907
-0.130607
0.00865191
0.0279528
0.000104644
0.00225301
0.637611
0.17176
-0.00499378
-0.0253786
-0.0514595
-0.10862
0.390782
-0.0431537
0.00154602
-0.0259092
-0.00945084
0.000352773
-0.0177454
-0.0764126
0.610847
0.00496781
-0.00924956
0.476061
0.617962
-0.0192008
-0.00034176
-0.0313166
0.546588
-0.150339
0.589212
-2.71994e-05
-0.0205738
0.484861
0.534925
-0.024605
-0.0122012
0.658267
-0.0660838
-0.0277195
0.600237
0.654809
-0.0213957
0.49459
0.100077
0.506094
0.419709
-0.000338926
-0.00534035
0.373032
0.000706106
-0.0553765
0.0426217
-0.157151
0.0884928
0.0337088
-6.38709e-05
-0.000759478
0.588224
-0.00360002
-0.0695926
-0.0294288
0.200669
-0.0023781
0.505338
0.0854406
-0.027657
-0.0107912
0.34388
0.179577
-5.94629e-05
0.58361
0.459335
0.57378
-0.0975675
0.000308982
0.652356
-0.00100276
-0.0178603
0.166077
0.0276791
-0.0195909
-0.0786394
0.46985
0.679985
0.534395
0.128666
0.734942
-4.25855e-05
-0.00951988
0.535179
-0.121347
0.368755
-0.0144007
0.556074
0.0788855
-0.0008418
0.0765391
0.44016
-0.113261
0.601311
0.443216
0.000158901
0.00131345
0.302019
0.199234
0.00237139
0.463754
-0.0146011
0.723811
-0.041811
-0.00559541
0.00148571
0.530374
0.457451
-0.00354274
0.343224
0.586573
-0.00376043
0.412854
0.455117
0.727263
-0.000698211
0.223793
0.00616829
-0.013183
0.00015482
0.554186
0.389513
0.00268093
0.568514
0.14354
-0.0129694
0.37451
0.121687
0.178253
0.725306
-0.0341726
0.139079
0.573441
-0.0255266
0.0785758
-0.0741536
0.29092
0.00243234
0.267925
0.0043156
0.132722
-0.00143851
0.288573
0.568801
0.424265
-0.141622
-0.00879248
0.639952
0.641673
-0.00166389
-0.0191926
0.506376
-0.0652952
-0.0203151
0.391996
0.000919446
0.75395
-0.0195318
0.245069
-0.00243908
0.572949
0.438258
0.032259
-0.0285435
-0.0264694
0.0949571
-0.00119931
0.504926
-0.0847068
0.304148
0.715818
-0.0991982
-0.0173484
-0.00219805
0.0646984
0.00573786
-0.00955604
0.410374
-0.000409693
-0.017424
-0.00214795
-0.0532051
-0.0167156
9.33491e-05
-0.0259007
0.151716
-0.125668
-0.0200419
-0.0138198
0.0535519
0.0444376
-0.0220276
-0.00564753
-0.00149805
-0.0115281
-0.0719712
-0.00128989
-0.0210462
0.184783
0.416259
0.0614732
0.000193356
0.672409
-0.00117181
-0.000409665
0.00512197
-0.0181239
-0.029533
0.616021
-0.0152502
0.106463
-0.0607801
-0.0660912
0.381085
-0.0181067
-0.029743
-0.0518329
0.000126108
-0.0501787
0.682536
-0.1041
-0.0247775
0.408784
-0.0225041
0.41659
0.242584
-0.00108111
0.000645015
0.462085
0.707305
-0.106735
0.301533
0.140007
-0.019028
-0.0200499
0.505106
0.0551031
-0.135288
-0.0713785
0.000553327
0.0164837
0.637751
0.14691
-7.99471e-05
0.606262
-0.0175818
-0.033583
0.476068
-0.00316834
-0.00232207
0.000101724
-0.0110725
-0.00970739
-3.04876e-05
0.295198
-0.147705
0.508765
0.000351606
-0.00117533
-0.0229513
-7.76531e-06
-0.109727
-0.131528
-0.00115068
-0.0279442
-0.0135088
0.466993
0.57482
-0.000773457
-0.000867012
-0.042359
0.581414
-0.0096144
0.581752
-0.00381909
0.716309
0.426732
0.250425
0.692415
-0.0744878
-7.16898e-05
0.0067195
-0.00883766
0.569138
0.501593
-0.00439793
-0.120325
0.0653928
-0.0259426
0.00117186
-0.133992
-3.9721e-05
0.474293
-0.00937534
-0.0261929
-0.0096458
-0.0217375
0.248359
0.0715621
0.0013196
-0.0130745
-5.88054e-06
0.715669
0.631484
0.00066089
-0.00599995
-0.00364568
0.499591
-0.0150176
0.14206
-0.0222139
0.541131
0.248385
-0.0107947
0.74661
0.0123973
0.526609
-0.00399654
-0.0762184
0.599098
-0.0115926
0.716688
0.485052
0.727413
-0.000187801
0.000889789
-0.037442
0.0174464
-0.00262568
-0.0324536
0.528299
0.549346
0.42145
0.575727
0.710784
0.306634
0.569555
0.424482
-0.00456968
0.468738
-0.0279035
-0.0222937
-3.68395e-05
-0.0266225
-0.0902063
0.343662
0.0387031
0.510389
-0.0184347
0.0890993
0.491713
-0.00847391
-0.0273831
-1.77321e-05
-0.000231175
0.342608
-0.0293189
-0.0200779
-0.00026976
-0.000694704
0.056615
0.000213852
0.0359133
0.717797
0.314748
0.302734
-0.00436271
0.500802
0.0757142
-0.0089535
-0.00622505
-0.00044236
0.000128148
-0.00158242
-0.00963899
-0.0774762
0.349456
-0.00501916
-0.00322333
1.93733e-06
0.533095
-0.0331014
-0.0987742
-0.0116481
0.114117
-0.0313076
-0.00101795
0.491978
0.659064
0.443283
0.00115968
0.450307
-0.00315897
-0.0184595
0.336629
-8.5454e-05
-0.0103982
0.231515
0.300726
-0.0105381
0.492581
0.626246
0.479888
-0.018567
-0.00890607
-0.0136722
0.126375
0.455944
0.00044563
0.597359
-0.0185847
-0.0776346
0.0158988
0.680738
0.352736
0.507174
-0.135136
0.698269
-0.00940337
-0.0180623
0.733534
0.0240267
-0.0649232
0.518974
0.54099
-0.0167323
0.449742
0.581571
0.536243
0.490895
0.527697
0.429929
-0.00133276
-0.00976149
-0.0020086
-0.0672734
0.568139
-0.0623723
0.188997
0.19667
-0.0219176
0.0448294
0.224997
0.578021
0.0493675
-0.000862268
0.0199033
-0.0216402
-0.0683621
-0.085347
-0.0699274
0.485272
0.600422
0.0356443
0.573944
0.711534
0.00162286
-0.00095485
-0.00133211
-0.00341424
0.384654
0.718232
0.153111
0.501335
-0.00917478
0.4306
0.443065
-0.116576
-0.00864383
-0.0171151
0.184997
-0.013389
0.00593429
-0.0182846
-0.0201391
0.510463
7.62863e-05
-0.0188926
0.541963
0.0393024
0.656061
-0.0390335
0.417175
-0.0827247
-0.0300642
0.594718
0.654789
0.567828
-0.0114987
0.660063
-0.0168493
0.593243
0.00453833
0.565289
-0.0201337
-5.59236e-05
0.567015
0.59864
0.594143
0.567151
0.342492
0.0850248
0.398304
-0.0637132
0.56665
0.488313
-0.0290604
0.0412172
-0.00167402
-0.0704633
0.497414
-0.0163843
-0.00344237
0.578387
0.574811
-0.025609
0.559156
-0.0804601
0.0987654
0.00262534
0.585559
0.595818
0.71133
0.587797
0.000806828
-0.0101481
1.42757e-06
-0.0322615
0.65115
0.2814
0.487254
-0.018617
0.426835
-0.00222792
0.65384
-0.0380643
0.576754
0.002204
0.635979
0.667852
-0.0103334
0.132375
0.631235
0.00105287
0.678166
-0.0215465
0.00130532
-0.00853703
0.532163
0.222594
-0.0481418
0.566855
0.68267
0.439583
0.0134917
-0.0268831
-0.00160899
0.573711
0.663389
0.738603
0.272098
-0.00255004
0.00160251
0.495362
-0.00220188
-0.000991013
-0.0028119
-0.0105265
-0.0777504
-0.112264
0.610068
-0.0137027
-1.14571e-05
0.475908
0.261288
-0.00351865
0.154998
-0.000828792
0.220247
0.484275
0.563625
-0.100083
0.158193
-0.00401725
-0.0373683
0.000294787
0.578182
0.614805
-0.136922
-0.128136
-0.113225
-0.0340707
0.570023
-0.0262789
-0.075499
-0.0895142
-0.0247237
0.693339
-0.107209
0.0193652
0.580606
0.00102088
0.0929609
-0.0212816
-0.0825242
0.00064542
-0.000822568
0.69033
0.408068
-0.138864
-0.0298181
0.42538
0.551573
0.485186
-0.0764458
-0.019856
-0.0177628
-0.0198006
0.461721
-0.00327298
-0.0273275
0.000123854
-0.00941742
0.00047577
-0.0901657
0.535531
-0.0701736
0.580628
0.567789
-0.021146
-0.0111358
0.706317
0.436239
0.0222079
-0.0125544
0.427307
-0.0244405
0.378134
0.690919
0.374856
-0.00373546
-0.0142862
0.520625
-0.0240655
-0.0609398
-0.028743
0.624401
-0.0169061
-0.0429047
0.416688
0.31734
0.473434
-0.0198788
0.35471
-0.0300349
0.57934
-0.0939726
0.211429
-0.0313732
-0.0322899
1.88097e-05
0.000505678
-0.00053568
0.627048
-0.0402636
0.412756
0.0869357
-0.0482352
-0.07054
0.292766
0.712086
0.644103
-0.0580997
0.267365
-0.0167714
0.0572245
-0.00260281
0.193618
-0.0186236
-0.0018781
0.455799
-0.0306111
-0.00137013
0.617633
0.510967
0.594479
0.0151104
-0.0724834
-0.00875795
0.282865
-0.0136388
-0.000113289
0.627222
0.122677
0.251765
-0.027585
0.000121444
-0.00816128
-0.000864929
0.23514
-0.000460478
-0.0160655
-0.0101336
-0.0224247
0.646038
1.36931e-05
-0.0312031
-0.0105586
0.667668
0.000540355
-8.51303e-06
-0.0954067
0.174817
0.473571
-0.0100633
-0.0094788
-0.0200334
0.48618
-0.0137039
0.264411
-0.109064
-0.106921
0.122048
0.462917
0.100705
0.262594
0.000831911
0.509101
0.673272
-0.00482274
0.399076
-0.0391304
0.686908
0.660631
-0.0749889
0.0643417
0.0321114
0.405164
-0.000252479
0.565415
0.725089
2.29114e-05
0.18679
0.323899
-0.0010161
-0.000447667
-0.00601752
0.712951
-0.0104487
-0.0337133
0.574183
-0.00357009
0.396266
0.588848
-0.0152588
0.635763
-0.0193134
-0.0118409
0.592318
0.276004
0.472725
0.000944847
0.595296
0.231674
0.562836
-0.0558763
-0.00786833
0.192844
0.628194
0.591806
0.640399
0.573094
-0.0749672
-0.010824
0.00200923
0.429272
0.563812
0.670064
-0.0184708
0.332956
0.681264
0.535731
-0.00100644
-0.0159446
-0.00537385
0.175349
-0.0445227
0.610905
0.288567
0.561185
0.128388
-0.0291375
0.564867
-0.0407379
0.440915
-0.0807044
0.0481042
-0.0118401
-0.0740122
-0.0526585
0.66459
-0.0482798
-0.0181455
-0.0500558
0.236507
0.0734752
-0.0163983
0.0427509
-0.0140114
-0.0601675
0.457185
0.247403
0.49947
-0.119052
0.584081
-0.0657104
-0.000683096
-0.00918648
-0.0147671
-0.102934
-0.117318
-0.00408192
0.332648
0.644945
0.206769
0.0605523
-0.0299623
-0.0562724
0.39352
-0.0223499
0.68545
0.341669
-0.00272611
-0.012168
0.00163714
-0.0663209
-0.0159085
-0.0235046
-0.0167337
-0.0857052
0.323059
0.654945
0.605373
0.284265
0.00132863
-0.0180761
0.000695874
-0.00790052
0.46618
0.00264653
0.446308
-0.0599422
-0.0103189
0.650802
0.664405
-0.000845193
0.571651
0.603023
0.162496
-0.0134004
0.222168
0.463673
0.662178
0.384597
-0.0647744
0.647711
0.102162
-0.0327719
-0.036407
-0.0742289
0.677319
-0.0189786
0.582012
0.352468
0.64317
-0.0371297
0.40492
0.420704
-0.0766454
0.592945
-0.0131356
0.625551
-0.000396102
0.377752
0.444421
0.442601
-0.00218153
-0.0127589
-0.00136531
-0.0207393
0.354593
-0.0155953
0.410069
0.386849
0.716642
-0.0140544
0.629847
-0.0129687
-0.0124009
0.0349907
0.570765
0.112164
-0.0404644
0.058413
0.496343
-0.00489039
0.702471
-0.00312595
-0.057838
0.0847997
-0.00679459
0.574915
-0.0380752
0.607766
0.48726
0.168045
0.0300143
0.197718
-0.000825354
0.0188453
0.620655
-0.0306609
-0.0415199
0.363517
0.066835
-0.000376588
0.0311077
-0.00469335
0.645152
-0.01595
0.0300964
-0.0623366
-0.0179828
0.561137
0.719933
-0.0124546
-0.0601784
-0.00180871
0.10063
-0.000840233
0.152867
0.665354
0.638564
-0.0167502
0.212115
-0.000265589
-0.0201749
0.516976
-0.0117778
0.280288
-0.0095281
0.705539
0.498655
-0.0717352
-0.0143331
-0.0265832
0.703444
-0.0178944
-0.000642713
0.000111637
0.163589
-0.067114
-0.00595224
0.13219
0.645521
-0.0836923
0.681164
0.739542
-0.0160051
-0.0421744
-0.000595246
0.000861341
-0.0452706
-0.028345
0.69665
-0.00919307
0.00151134
0.445926
-0.0502419
0.490866
0.00154174
-0.0293275
0.487121
0.453741
-0.0687256
-0.0188626
-0.0552282
0.539545
-0.0168377
0.305065
-0.0198784
-0.00820206
-0.0193114
-0.00822112
-0.00282077
-0.0881574
-0.0848116
-0.0949423
-0.000561052
0.137354
-0.000277336
-0.0173659
-0.0586332
-0.0108382
-0.026133
0.647732
0.0361324
-0.0215606
-0.0148327
0.526878
0.000531934
0.461396
-0.0609207
0.0254183
0.00244811
0.485884
0.311569
-0.0212766
-0.0288596
-0.0298495
0.391029
-0.000321945
0.450255
0.534035
-0.00926833
-0.0428018
0.154135
0.151524
-0.0582008
0.172831
0.505916
-0.00839779
0.430221
-0.0224264
0.00336674
0.412608
0.667259
0.0109455
-0.00466621
0.560806
0.424749
-0.0105879
-0.0332603
-0.102161
0.0101901
-0.00833512
-0.000833462
0.521644
-0.117085
-0.0487268
0.523236
-0.0614707
-0.0199656
0.308276
0.000299402
0.203179
0.446043
-0.0155485
0.448611
-0.00904311
0.636416
-0.0658914
-0.000315532
0.000102628
-0.00107952
-0.000602141
-0.00963615
0.205685
-0.0426088
-0.00398666
-0.0257936
-0.0113028
0.269259
0.575353
0.00036539
-0.00758514
-0.0131625
0.417993
-0.0539174
-0.0120391
-0.00826512
0.0823256
0.313267
-0.0109633
-0.00248502
-0.0679539
0.4848
0.523192
0.158869
0.456764
0.600467
-0.00987963
0.42229
0.152408
0.00894918
-0.00902022
-0.00680508
0.727155
-0.0117216
-0.0732917
-0.0167809
0.482771
-0.00296208
-0.00173086
-0.0182104
-0.0208165
0.000109576
0.576755
0.342961
0.430558
0.530818
0.459831
-0.000116349
0.191143
0.368016
0.0109223
0.56436
0.254417
0.358832
1.28422e-05
0.375702
-0.0363643
0.239393
0.370729
-0.081738
0.107768
0.0841963
-0.0143758
-0.00117819
0.0181437
0.223253
0.654519
0.244908
-8.13866e-05
0.329832
-0.007934
0.372861
0.277703
-0.00248167
-0.0152733
0.413947
0.576173
0.135758
-0.0153893
-0.00820361
0.253234
0.430967
-0.0141949
0.514386
-0.0108965
0.19787
-0.0128711
0.612607
-0.000364768
-0.000939414
-0.00170166
-0.00769992
-0.0847355
-0.000439834
0.435516
0.525748
-0.00106076
0.315179
-0.00133313
-0.00200211
2.1942e-05
0.266438
-0.00860631
0.321888
3.77138e-05
0.441233
-0.00921226
0.503774
-0.108512
0.542218
-0.0169193
-0.00323408
0.00056473
0.58222
-0.0207008
0.0643358
0.174791
-0.000214562
0.497733
-0.00269532
-0.0104697
-0.00757422
-0.000138009
0.580167
-0.00176348
-0.00904263
-0.00825965
-2.80196e-05
-0.0019275
0.510325
-0.000587085
-0.0154047
-0.00297803
-0.00109912
0.472076
-0.122036
0.0504152
-0.0393387
-0.000999227
-0.0101726
-0.0570596
-0.00639397
-0.00112927
-0.00243617
0.290307
-0.000332085
-0.00429311
-0.0600277
0.183139
0.563486
0.000633265
-0.00127815
-0.00873426
-0.0253305
0.458859
0.516813
0.583223
4.69964e-05
0.23425
-0.0153856
-0.0126781
0.34319
-0.0159592
-0.00198549
-0.00114041
-0.00584923
-0.00817673
-0.00806974
-0.00258406
-0.00225121
0.00510077
0.436605
0.000137699
0.327123
0.0871961
0.050622
0.263619
0.167974
0.38045
0.0190193
0.42889
-0.000849901
-0.0117545
0.400085
-0.0269707
0.46469
0.443173
-0.0133837
-0.0131278
-0.000336655
-0.00602796
-0.0144009
-0.00223977
-0.00170847
-0.00487369
-0.001375
-0.00705051
-0.016139
-0.00186068
-0.00138896
-0.0191227
0.381333
-0.00620527
0.000690688
-0.0110329
-0.00399141
-0.0079215
0.514659
0.496289
0.257717
0.620275
-0.00857283
-0.046953
-0.00699494
-0.00268182
-0.00282277
1.04606e-05
2.94632e-05
0.245603
0.130133
3.33006e-05
-0.0876308
0.129902
0.255468
-0.0355409
8.04886e-05
-0.00920281
-0.00233928
-0.00099678
-0.00178345
-0.00807111
-0.0305682
0.633089
-0.00297159
-0.0298598
-0.00784468
-0.0168612
0.000111474
0.00177571
-0.000822197
-0.00121306
-0.0132684
-0.00685084
-0.0331722
0.0860546
-0.00397756
0.312838
-0.00482683
0.000445678
-0.0471747
0.462312
0.483328
0.366121
0.00794051
-0.093282
-0.0303136
-0.102802
-0.0217379
-0.103415
-0.0140831
-0.0984356
0.00145584
-0.00781204
-2.55657e-06
0.0719803
0.00117066
0.000562553
-0.0131936
0.658628
-0.0123474
-0.0958983
0.623094
0.639738
-0.00103145
0.627902
0.595754
0.470072
-0.00322832
-0.131641
0.641154
0.000583152
-0.000166305
-0.00868478
-0.00703365
-0.00156152
-0.022374
-0.00721484
-0.0056799
-0.00244735
-0.0176743
0.000397365
-0.0349705
-0.00231033
0.704544
-0.00091026
-0.000270497
0.701818
-0.000527611
0.669557
0.634252
0.434453
-0.00112363
0.704706
0.0819408
0.546833
-0.00391192
-0.000466461
-0.00775952
-0.017482
0.0428755
0.57161
0.000386246
-0.00058582
-0.00676144
2.63307e-05
-0.134949
0.250716
6.41908e-05
0.45911
-0.0370279
-0.00194935
-0.0172824
-0.000930444
0.168751
-0.00103
0.64028
-0.000958183
0.596592
-0.000746022
-0.0102606
0.000101856
-0.00516562
-0.00783724
-0.00618616
0.534375
0.568666
4.63711e-05
0.641544
-0.0176192
-0.00184424
-0.0206053
0.603618
-0.128025
0.000436521
-0.000223909
-0.00115627
-0.000704125
0.00017669
-0.000619939
0.647332
0.000330706
0.000254357
-0.0170185
0.687766
0.740302
0.0017528
-0.019639
0.471695
0.695972
-0.0229741
-0.00541193
-4.30738e-06
0.00700064
0.581758
0.461361
-0.000978924
-0.00274201
-0.0148277
0.612617
-0.0762586
-0.00893476
-0.00573003
-0.00375087
-0.0206864
0.494027
0.000147173
0.627268
3.86792e-05
0.674797
-0.00085962
0.639364
-0.00189784
0.0670135
-0.0167802
5.47728e-05
-0.00067209
-0.00235318
-0.00542592
-0.00744458
-0.000685921
-0.00250573
0.000742232
-0.01503
-0.000700846
-0.00323868
-0.00312661
-0.00193361
0.108424
-0.000616338
0.45905
-0.00509987
-0.0114714
-0.00326869
-0.104374
0.696248
-0.00245286
-0.00318134
-0.00392645
-0.0159796
-0.000930762
0.440235
0.487898
-0.00130338
-0.00155061
-0.0542437
0.137499
0.628356
-0.0107689
0.429552
0.509929
4.98826e-05
-0.0222072
-0.000132634
-0.00104641
0.000618909
0.000391964
-0.000845086
0.000645366
-0.00163403
-0.00211365
-0.0143402
0.000892071
0.266747
-0.0696458
0.458085
0.120737
-0.078729
5.42279e-05
-0.000627389
0.578022
-0.00108685
-0.0156084
0.000374638
-0.00876111
-0.0060089
0.355694
0.057705
0.651058
-0.000485637
-0.00117874
-0.00521914
0.298146
-0.00114585
0.622517
0.126044
-0.00205975
0.00206877
-0.0532102
0.00312799
0.432944
0.0317701
0.583192
-0.0137504
-7.48258e-05
-0.000661264
-0.00365816
-0.000213252
-0.000154437
0.000332657
-0.00782437
-0.00255205
-0.0123342
7.97275e-05
-0.0136394
-0.0677316
-1.61191e-05
0.000171083
-0.00133181
-0.000585183
-8.06319e-05
-0.00451268
0.0150447
-0.000802739
0.0509783
-0.000235784
0.469563
-0.0105421
-0.0484931
2.70928e-05
-0.0454239
-0.0247259
-0.016763
-0.00184422
3.82522e-05
-0.0013189
0.000117479
-0.0543266
-0.000294263
0.13354
-0.100704
-0.000489546
0.0497456
-0.0970918
0.505863
0.383146
0.473439
0.000860757
-0.000694632
0.000327375
0.000830722
0.601182
0.443164
-0.00135724
-0.00265183
0.31625
0.444181
0.659216
-0.000406064
-0.00015642
-0.00476105
1.11707e-05
-0.000398872
0.000103732
-0.00293557
-0.00173724
0.468017
-0.020729
-0.000690411
-0.000611834
-0.000939197
-0.0166785
-0.00116373
0.309342
-0.00107065
0.174563
-0.0211269
-0.00688167
0.200584
0.14089
-0.000402692
0.211164
0.623936
-0.0163707
0.483193
-0.00489852
0.000953276
0.52231
-0.00134292
0.44839
0.000177438
-0.0290082
-0.060768
0.000470845
-0.00236901
-0.000793699
-0.000114343
0.010085
4.68438e-05
-0.00293374
-0.00501952
0.632539
-0.0242041
-0.00147075
0.45779
2.26072e-05
-0.000578519
-0.0120924
-0.000888296
0.620783
0.000345093
-0.00068111
-0.00291253
0.115543
-0.0202358
-0.000827374
0.000434317
0.0608861
-0.00242428
-0.000486081
0.566474
0.683628
-0.00170742
-0.00837849
-0.0014498
0.492698
-0.000100538
0.000512394
3.6646e-05
2.94492e-05
-0.0556986
-0.00173685
-0.000774095
-0.11186
-0.000688933
-0.0585093
0.000371578
-0.000161004
-0.000287585
0.527859
0.556214
-0.0112229
0.421998
0.0498575
8.16461e-05
0.448673
-0.0062802
-0.000963537
-0.00184659
-0.0568663
-0.000251177
-0.00833802
0.000450763
-0.0275537
0.212475
-0.00456248
-0.00349949
0.150384
0.357524
0.155301
-5.19835e-05
3.83027e-06
0.00062381
0.285125
-0.00255583
-0.0592419
0.000289843
0.444049
-0.123769
0.528368
0.363972
0.0014702
0.197693
0.000308042
0.463393
0.00262838
-0.0174772
6.05511e-05
-0.00077765
0.00252615
0.00258011
0.0020462
0.00161611
0.151533
0.00249889
0.304897
-0.000635389
-0.00120548
0.000330876
0.0825157
-0.00986632
-0.00374815
-2.05793e-05
-0.0103391
0.275841
0.00223788
-0.0104496
-0.00969108
0.0668378
-0.00931892
-0.000334456
-0.000612544
0.509284
0.547907
0.571594
-0.000409201
0.549959
0.498273
0.554391
0.000905613
0.000322925
-0.000407261
0.324096
0.402729
-0.0747952
-0.016508
0.00133364
-0.00587258
0.0688294
0.00290709
0.00239665
0.42656
-0.000998967
0.00178876
0.000166364
0.00325552
0.553437
-0.0249347
-0.000637936
3.63506e-05
0.605429
0.494
-0.019371
0.267087
0.00263306
-0.0293256
0.00237026
-0.0388027
-0.0479074
-0.0528373
0.24713
0.00142695
0.119216
-0.000247897
0.536297
-0.0168554
-0.00512513
0.474211
0.0014257
-0.00569499
0.0025401
-0.0584952
0.17379
-0.00988808
0.000331779
0.432795
-0.000490403
-0.00680081
0.0512758
-0.000184858
0.00141625
-0.000906544
-0.00640008
0.00201091
0.0385764
0.000308202
0.027112
-0.0150663
0.0186754
0.0114629
-0.00201496
-0.00290591
0.0066682
-0.00486849
0.00251857
0.00275235
0.353375
0.00302223
0.00235824
6.01255e-05
-0.00975255
-0.0239184
-2.58055e-06
0.351236
0.523903
-0.00686555
-0.00206553
-0.00139989
0.00259385
0.000256138
-0.00718501
0.00114593
0.0385169
-0.000137062
-0.000789584
-0.00772764
0.00210357
-0.0007206
-9.7668e-05
0.338621
0.000884118
0.0932336
0.382747
-0.0192404
-0.0182499
0.00227859
0.000194408
0.0754758
-0.00517184
0.00101889
0.0570829
0.201397
-2.64967e-05
0.0396909
0.241095
-4.1758e-05
0.151004
-0.0029221
-0.019222
0.42963
-0.000400524
-0.000219993
-0.000328291
0.396702
-0.119342
-0.0181314
0.00145897
-0.000984001
0.00268913
-0.00758935
-0.00341744
0.125173
0.580176
0.645322
0.474189
-4.66392e-05
0.336366
0.107728
-0.00406976
0.00164967
0.33047
-0.00969225
-0.141318
-5.68814e-05
0.000467882
0.443895
5.82163e-05
-0.0593776
-0.00324661
-0.0380894
-0.000569444
0.482059
-0.0135161
0.469399
-0.00543141
0.00315908
-0.00908767
0.000473709
0.412694
-0.00691807
0.00211597
-2.34525e-06
-0.0789619
0.0135023
0.180125
-0.00564025
-0.00076705
0.216778
1.56947e-05
0.306345
0.158917
-0.000565383
0.315382
-0.0439415
-6.87948e-05
-0.00444775
0.000517387
-0.00088548
-0.00802148
0.37745
-0.0168568
-0.00114035
-0.0436975
-0.000347569
0.395042
0.554631
-0.000475064
-0.00865388
0.0018244
-0.0014494
0.418095
-0.00114874
-0.000660395
0.282487
0.161225
0.471015
-0.00726641
-0.000671947
0.330296
-0.00485624
-0.00254615
0.0029607
0.587443
-0.0313537
-0.00536302
-0.000784778
-0.00245143
0.583277
-0.0122551
0.666413
0.195797
-0.004037
0.000661726
-0.0209004
-0.0310924
-0.000227877
-0.00687246
0.575382
-2.28301e-05
-0.0190213
0.583526
0.000475072
-0.00777707
-0.000262255
0.000521452
-0.000266642
0.026353
-0.0090261
0.000663363
-0.0843591
-0.000203943
-0.000210848
-0.000177813
1.75354e-05
-0.023917
-0.00020415
0.000870093
-0.0248049
-0.0154039
0.663653
0.0419123
-0.0071532
0.00174304
-3.91202e-05
-0.00668942
-0.000141815
0.137931
0.455226
0.000420543
-0.0219186
-0.0069696
0.0812736
-0.00235317
0.69607
-0.00129371
0.000985521
0.30716
-0.00111222
-0.000217479
-0.0149194
0.454756
0.000586633
0.439826
0.46346
-0.00701478
-0.016282
0.538546
-0.00621217
0.0011785
-0.0136992
0.345545
0.138553
-0.0240785
9.07724e-06
0.56082
0.000757824
-4.93567e-05
0.00204985
0.0013851
0.638297
-0.0014834
-0.000116565
-0.0061747
0.259336
0.66869
0.449444
0.706452
-0.000410932
0.625872
1.87681e-05
0.356075
0.00168759
0.000389368
0.202027
-0.0131324
0.123417
-0.000265586
-0.0203709
0.674216
-0.0125741
-0.0399612
-0.00175055
0.000925835
0.203659
-0.00146017
-0.0110664
-0.000207131
-0.019709
0.000166962
0.682256
-0.00229431
-0.00470407
0.0843537
-0.0844353
0.189651
0.434073
-0.000299063
-0.0849025
0.249653
0.485805
0.697211
2.78599e-05
-0.0961982
-0.0876649
0.00108177
0.281923
0.31381
-0.0937196
0.588134
0.143314
0.228108
-0.00288033
0.431873
-0.00497128
-0.00048401
-0.000118476
-0.000221107
0.000510274
-0.00135441
-0.00225964
-0.000107425
-0.000730508
-0.00119783
8.88741e-05
0.30696
-0.0366239
1.06596e-05
0.679506
-0.000452593
-2.74044e-05
0.554207
0.697426
-0.0098237
-0.01081
0.533109
-0.000593067
0.6177
0.0683384
4.33534e-05
-0.0517703
-0.0246464
-0.00224895
-0.000634679
0.456877
-3.53434e-05
-0.000331842
0.596027
0.000550752
-0.00200731
-0.0357893
-0.0027908
-0.00476879
-0.000330943
0.0663344
-0.00352269
-0.000215578
-0.00729424
0.000875626
0.331748
7.12246e-05
3.88647e-05
0.000801946
0.577441
-0.000697364
0.000752658
-5.61479e-05
-0.00152845
0.559711
-0.000413605
0.148543
0.535376
0.000477055
0.642233
0.515921
0.00198656
-0.0521488
-0.000436038
-0.00262118
0.617878
-0.00257452
0.000654307
-0.000145697
-0.00585673
0.00210763
0.00071385
-0.000395427
0.633181
-0.000129565
0.474749
-0.0153764
-0.0577003
-0.000150236
-0.043527
-0.0015148
0.548006
0.558005
0.176247
-0.000747479
-0.0250685
-0.0542401
0.18579
0.122196
0.293561
-0.0691378
-0.0428934
-0.00373116
-1.58246e-05
-0.000579786
0.000836806
-0.00132643
-0.000900996
-0.00110926
-0.000532654
0.00174625
0.000471748
-0.00289199
-0.000854872
-0.00502896
-0.000217766
-0.00164343
-0.000166848
0.74488
0.110604
-0.0025665
-0.00284135
-0.00204725
-0.000129661
-0.000280788
-0.00127418
-0.00101778
-0.0207426
-0.000103976
-0.00408984
-0.000477139
0.00089952
-0.000274224
-0.00709265
-0.024623
-0.00165564
0.583222
-0.0112989
0.46239
-0.0256588
0.605594
-0.0131539
-0.0148795
-0.0167544
-0.018341
-0.0186721
-0.0205103
-0.0211123
-0.000168378
-0.021994
-0.021762
0.554386
-0.0246144
-0.0342398
-0.0249216
-0.000323301
-0.056024
-0.00352671
-0.000148089
-0.00335663
-4.83066e-05
-0.000391605
0.0204847
0.000998181
0.244139
0.488566
-0.00390519
-0.0011152
-0.00328413
-0.00322511
-0.00252203
-0.00536693
-0.00433513
0.000203608
0.688592
-0.000904483
-0.00886552
-0.00431128
0.00105787
-0.0022004
1.79758e-05
-0.0135452
-0.00309217
0.000324293
0.00166594
0.0197237
-0.000173558
-0.000126995
-0.00494497
0.00800558
0.00027406
-0.000128136
0.000137575
-0.000168599
-0.000398211
-0.00156434
-0.000363361
0.000341036
-0.000308652
0.000828001
0.544402
0.000253934
0.000582431
0.00122688
-0.00168716
-0.000337148
-0.000382453
0.366023
-0.00583942
0.516736
-0.000818318
0.000238638
-0.000173804
0.447907
-0.0598536
-0.000363385
-9.32977e-05
-1.20107e-05
-0.00215299
-0.000541954
-0.0291908
0.000110046
-0.0284088
0.000258679
0.000473246
0.000215825
-0.00113848
-0.00131212
-0.0355889
0.532802
-0.0241643
-0.000829833
4.84119e-05
-1.4086e-06
-0.00964793
-0.000164714
-0.0112812
0.000800064
0.0011472
-0.000564399
-0.00668989
-0.00259966
-0.0904661
0.000250615
-0.000163074
-0.00460038
0.000236745
-0.00151115
0.000556738
0.000562825
1.84987e-05
0.622189
0.000217756
0.711271
-0.00545273
0.000256894
-0.000854052
-0.000167246
-0.000211835
-0.00821831
-0.000385557
-0.0574829
-0.000296908
-0.0825134
-0.0020653
0.000194194
-0.000165831
-0.00353587
0.630636
-0.000237136
-0.0141437
-0.00145233
0.530733
-0.0254732
-0.0500221
-0.000211369
-0.0921166
0.000594624
-0.101338
-0.0186366
-0.000300679
-0.00316354
0.66159
-0.0461795
-0.00263214
0.000569425
-4.57823e-05
0.467229
0.526821
-6.34909e-05
0.000892884
0.398748
-0.000185458
-0.00385844
-2.87815e-05
-0.000397093
-0.0224742
-0.0143218
-0.106878
-0.0029861
-0.000718585
-0.000196444
-0.000143561
-0.0425452
-0.0153129
0.322867
-0.00506664
-8.00755e-05
0.507028
-0.0054038
-0.000164099
-0.0244237
0.000413546
-0.00091597
-0.000205374
-0.00796712
-0.000642775
-0.011551
-0.000200122
-0.000601777
0.31843
-0.00377813
0.402143
0.606101
-0.00381431
-0.00479184
-0.0603086
-0.00392271
0.673722
-0.00204054
0.000600963
-0.000122044
0.477992
0.630131
0.294748
0.0116063
-0.0142463
-0.000176925
-0.00393042
-0.000427992
-0.000861603
-4.35328e-05
0.436356
-0.0148797
-0.000308944
-0.00192357
-0.00110801
0.0809849
0.453513
-0.0169158
-0.00112737
-0.00129385
-0.000344548
5.50203e-05
0.611953
-0.00172848
0.000459516
0.000153629
0.00177161
-0.00710131
0.0868684
-0.00515248
-0.0068763
-0.0172221
0.00013148
-0.00117821
0.437426
-0.00511942
0.000308434
-0.00332545
0.452138
-0.00161939
0.126146
0.543362
-0.000726107
-0.000126615
0.130544
0.403801
0.187805
0.333141
-0.0267452
0.000452164
-0.000454914
0.433142
0.00197095
-0.00171517
-0.0245931
-0.0057859
-0.0552369
-0.0124021
-0.002005
-0.000477539
0.410742
-0.00215764
-0.00784143
0.555873
-0.0114284
0.526472
5.30692e-05
-0.00653196
0.501157
0.672182
-0.0110724
-0.00468724
-0.00487693
0.000201612
-0.0029687
0.516014
-0.00360379
-0.0161856
-0.00238188
0.000186048
-0.000392842
-0.00242481
0.000204712
0.362869
0.000192029
-0.0094099
-0.000839115
0.000572781
0.000142924
0.244066
0.474009
-0.0117323
-0.0148295
-0.0171497
0.000207428
-0.00159691
0.000187656
-0.0167527
-0.018295
0.277014
0.479317
-0.0197377
0.254695
-0.000756361
-0.0428468
-0.00116315
-0.0198786
0.330826
0.214247
-0.0218534
0.00269746
0.490452
0.359615
-0.00303136
-0.000269563
0.000620893
0.620082
-0.00066117
-0.000214032
-0.00105543
0.000232748
0.000156936