/*--------------------------------*- C++ -*----------------------------------*\
  =========                 |
  \\      /  F ield         | OpenFOAM: The Open Source CFD Toolbox
   \\    /   O peration     | Website:  https://openfoam.org
    \\  /    A nd           | Version:  7
     \\/     M anipulation  |
\*---------------------------------------------------------------------------*/
FoamFile
{
    version     2.0;
    format      ascii;
    class       volVectorField;
    location    "1.5";
    object      U;
}
// * * * * * * * * * * * * * * * * * * * * * * * * * * * * * * * * * * * * * //

dimensions      [0 1 -1 0 0 0 0];

internalField   nonuniform List<vector> 
7807
(
(1.03132 0.0736366 3.49331e-20)
(1.02936 -0.0235204 1.13687e-20)
(0.993354 0.0521622 -6.13567e-20)
(1.01693 0.0368256 9.07241e-20)
(0.999476 -0.000495666 -1.75741e-22)
(0.999979 -7.43767e-06 -1.69356e-23)
(0.990269 0.0454154 -1.17319e-19)
(0.997271 -0.000973803 -3.95379e-23)
(0.999924 -0.000101426 -3.10786e-23)
(1.0136 -0.00153162 -4.35672e-21)
(0.999981 -8.41849e-06 1.86685e-23)
(1.0012 -0.000782441 -6.6748e-22)
(0.995711 -0.00145455 1.83974e-21)
(1.00849 -0.00106203 -2.83727e-20)
(1.01255 -0.000109894 1.84091e-20)
(0.994854 -0.00776982 -3.94259e-21)
(1.03154 0.0794391 -7.35604e-20)
(0.994312 -0.0018476 -6.51112e-22)
(1.00135 -0.0047552 -1.57295e-22)
(0.99055 -0.0537186 -3.41203e-21)
(1.0181 -0.000266382 -9.98022e-21)
(1.00077 -0.000316648 1.23096e-21)
(1.00941 -0.00220531 2.45522e-21)
(1.00619 0.0156274 -4.6113e-20)
(0.99238 -0.00223946 -3.00052e-21)
(1.02925 0.0722443 -3.43999e-20)
(0.999464 -0.000473718 -1.26583e-22)
(1.01327 5.76867e-05 1.12338e-20)
(1.00359 0.00838744 -6.03503e-21)
(1.00155 -0.00542032 1.11549e-22)
(0.993778 -0.00848126 -7.33759e-21)
(0.941237 0.0127712 1.57374e-20)
(1.00808 -0.00238119 1.52415e-20)
(0.999746 -0.000210059 2.11613e-22)
(0.999947 1.34856e-07 3.58967e-25)
(1.01183 0.000413234 6.43294e-21)
(1.00253 -0.00574093 1.70928e-22)
(0.990673 0.0417982 -1.88612e-20)
(0.998633 -0.00446575 3.29046e-21)
(0.999816 -2.28909e-05 1.88781e-22)
(0.998374 -0.004408 -3.79941e-22)
(0.995256 -0.00676111 -1.47909e-21)
(1.00511 -0.0601926 1.3781e-20)
(1.08631 -0.0281648 -1.8738e-21)
(0.999899 -1.09882e-06 5.99309e-23)
(0.999958 -1.10248e-05 -1.69591e-23)
(1.00064 -0.000296418 -7.52912e-22)
(0.997615 -0.00340026 -1.93579e-21)
(0.999966 -1.69372e-05 -1.398e-23)
(0.993026 -0.0541064 4.91196e-21)
(1.00172 -0.000682892 7.35987e-22)
(1.01314 0.000652013 -1.16563e-20)
(0.990116 -0.00265069 -1.02378e-20)
(1.00636 -0.017704 4.25406e-22)
(1.01064 -0.00118576 -3.87288e-21)
(0.997562 -0.00142424 -3.42003e-22)
(1.0006 -0.00510452 4.03475e-22)
(0.997463 -0.000761241 2.46579e-21)
(0.98762 -0.0101375 -1.30383e-20)
(0.99976 -0.000192198 -2.70162e-22)
(1.00002 -1.30869e-05 -2.48647e-23)
(1.00228 -0.00049694 8.3033e-22)
(1.00952 -0.000824941 -6.65128e-21)
(1.00129 -0.000720013 6.75471e-22)
(0.999525 -0.000120113 3.76214e-22)
(0.993483 -0.00903811 1.29705e-21)
(0.999952 -0.000107685 2.44931e-23)
(1.00001 -1.18851e-06 1.69776e-24)
(1.08503 0.0472256 2.10624e-20)
(0.997584 -0.00354188 -5.73732e-22)
(0.999963 -1.09802e-05 1.51432e-23)
(0.983296 -0.0322597 -2.44189e-20)
(0.992601 -0.00236159 1.47995e-21)
(0.986387 -0.00251925 2.02282e-21)
(0.994432 -0.00194405 2.04881e-21)
(0.980821 -0.0146914 -2.94863e-21)
(0.994953 0.0535703 9.84725e-20)
(1.01693 -0.000691729 1.26558e-20)
(1.04766 0.000517198 -2.85758e-20)
(0.974375 -0.025874 -3.13292e-20)
(0.995871 -0.00154796 -2.82611e-21)
(0.998422 0.0240723 1.15924e-19)
(1.0187 0.00437873 2.95869e-20)
(0.985569 -0.00536703 9.61881e-21)
(0.999274 -0.00134767 -3.05474e-22)
(0.998758 -0.000142928 2.7755e-22)
(0.997117 -0.00128316 3.48112e-21)
(0.990391 -0.0029018 6.57052e-21)
(0.999636 -0.000637975 1.93399e-22)
(0.997674 -0.000385368 1.03375e-21)
(1.00355 0.00959242 4.43068e-20)
(1.1059 -0.0172532 3.73701e-21)
(0.999935 -2.99649e-05 -3.69557e-23)
(1.00101 -0.00423235 1.57053e-22)
(0.998121 -0.000532276 9.45531e-22)
(0.985642 -0.00177681 -1.60754e-20)
(0.985028 -0.0317046 1.50848e-21)
(1.00688 -0.0165405 4.04864e-22)
(0.999361 -0.00136158 9.99049e-23)
(0.999455 -6.36499e-05 1.27183e-22)
(0.972355 -0.00850534 7.58981e-21)
(1.04912 0.00462089 2.29989e-20)
(0.998289 -0.000658377 -2.35025e-21)
(0.999986 -1.84519e-08 -1.38821e-24)
(1.1091 -0.0093593 2.53774e-21)
(1.01563 0.0146848 -4.27511e-20)
(0.96605 0.0118358 1.85329e-20)
(0.997335 -0.00133921 -1.39347e-21)
(0.999995 -1.09055e-06 3.72768e-25)
(1.0135 -0.00635938 -5.34774e-21)
(1.02137 0.0348372 -1.05375e-19)
(1.01519 -0.0454669 -1.43947e-20)
(0.999994 -9.63862e-07 -5.43883e-25)
(1.01535 -0.00569216 -1.17046e-21)
(1.01325 0.0147737 4.49272e-20)
(1.00019 -0.000287969 -5.5958e-23)
(1.03745 -0.0518133 -1.21693e-22)
(1.01626 0.00843407 -1.04398e-20)
(0.990135 -0.024844 1.05755e-20)
(0.98588 -0.00318586 -2.15089e-21)
(0.97064 -0.00526399 -1.80494e-20)
(1.00019 0.0218775 -7.512e-20)
(1.00841 -0.0581901 -1.89388e-20)
(1.00452 -0.00397055 4.29911e-22)
(0.97171 -0.00622242 7.0423e-21)
(0.999503 -0.000695345 4.35873e-22)
(0.993049 -0.00617988 2.36197e-21)
(1.00168 -0.00494909 -2.69501e-22)
(0.999484 -0.000123213 -8.39994e-22)
(0.992348 -0.00745118 1.30157e-22)
(1.13192 -0.0300976 4.24192e-22)
(1.04336 -0.000378519 4.79926e-21)
(0.99969 -0.000261283 2.32155e-23)
(0.999585 -0.00065108 -3.79945e-22)
(0.984866 -0.00489695 2.79997e-21)
(1.01967 0.026748 3.92351e-20)
(0.995014 0.0167304 1.28072e-19)
(0.999987 -2.2321e-06 -1.62368e-24)
(1.0045 -0.00148971 3.56822e-22)
(0.959512 -0.00541657 -2.28635e-20)
(0.986986 -0.00143816 -8.29101e-21)
(0.993305 -0.0350321 -1.51536e-20)
(0.981043 -0.0159203 3.99856e-21)
(0.986866 -0.00231225 -1.86683e-22)
(0.965282 0.0104436 7.05095e-20)
(1.00686 -0.0256662 -5.20396e-22)
(1.00715 0.00889343 -2.26988e-20)
(0.988642 -0.0129454 -6.73001e-21)
(0.980729 -0.00289355 2.27558e-21)
(0.999323 0.022883 -3.75624e-20)
(1.01273 0.00229716 1.63051e-20)
(1.09787 -0.0178188 3.03584e-21)
(0.999108 -0.00105571 -1.02557e-21)
(1.09003 0.0394053 4.37663e-21)
(1.01884 0.00322874 -3.05988e-20)
(0.999566 0.0442219 -9.79294e-20)
(0.976982 -0.01714 1.22794e-20)
(0.995755 -0.000859912 6.17804e-22)
(0.970121 0.0292479 1.66146e-19)
(0.999967 -1.20539e-05 -1.31153e-23)
(1.00063 -0.00425532 -4.32815e-24)
(1.00682 0.0178099 3.3008e-20)
(0.999989 -1.01725e-05 8.54942e-24)
(0.999038 -0.00280273 -1.5628e-21)
(0.997965 -0.000546419 -4.51356e-22)
(1.00245 0.0183222 -1.0642e-20)
(1.00166 0.0200764 3.90987e-20)
(0.96415 0.0352256 5.54112e-20)
(0.999174 -0.00282379 -9.54926e-22)
(0.998288 -0.000139996 -4.86019e-22)
(1.00001 -4.03959e-08 -1.56998e-24)
(0.969448 -0.00330355 -3.06648e-20)
(1.00017 -0.000261708 7.69935e-23)
(1.03313 -0.0216169 -1.32627e-20)
(1.00473 -0.00168811 2.38694e-21)
(0.980844 -0.00349711 4.79957e-21)
(1.10302 -0.00149009 7.9451e-21)
(1.0547 0.0434389 1.68183e-21)
(0.99993 -3.04163e-05 2.02591e-23)
(0.999705 -0.000348424 -2.4821e-22)
(1.01387 0.0379643 -1.59949e-20)
(0.999968 -1.14243e-05 -6.31951e-24)
(0.999941 -5.2129e-06 9.45326e-24)
(0.989561 0.0456512 -9.78224e-20)
(1.02802 -0.0250125 4.16922e-21)
(1.00791 -0.0365257 -8.50802e-21)
(0.991446 -0.0241949 -1.50109e-20)
(0.987129 -0.00379513 6.13368e-21)
(1.00506 -0.0270366 9.17226e-22)
(0.960657 -0.00408675 1.20138e-20)
(0.999989 -1.01397e-05 -2.99646e-24)
(0.985019 -0.0297032 -5.8622e-21)
(1.0583 0.0492266 -3.78787e-20)
(0.998232 -0.000765337 3.36474e-22)
(1.00004 -1.84292e-06 -1.91154e-23)
(1.03843 0.0437023 3.63386e-21)
(0.999357 -0.000187052 9.052e-22)
(0.992838 -0.00785032 3.77409e-21)
(1.00425 -0.0258772 3.07586e-21)
(1.00001 -1.81486e-06 -6.98799e-25)
(1.00038 -0.00112738 -3.05836e-22)
(1.01734 0.0274197 4.77175e-20)
(1.04313 0.0495504 -4.67856e-20)
(0.996872 0.0383597 -1.31008e-20)
(1.03544 -0.0494799 4.01087e-21)
(1.01584 -0.0429811 3.39809e-21)
(1.06525 -0.0738369 -1.11492e-21)
(1.01222 -0.00285137 3.33398e-20)
(1.01513 0.0296869 -1.54659e-20)
(0.999886 -9.28255e-06 -7.0212e-23)
(1.00002 -9.96195e-06 6.55423e-24)
(0.975925 0.0048812 -7.06778e-20)
(0.996053 -0.00694676 -1.39292e-21)
(0.999689 -0.000242528 -2.29622e-22)
(0.986427 -0.0290379 1.21877e-20)
(0.99264 -0.00647598 -2.7426e-21)
(1.00526 0.0391765 -1.11722e-19)
(1.00177 0.0390202 -2.35365e-20)
(0.990566 -0.0363302 4.15688e-21)
(0.94991 0.0221398 -6.06392e-20)
(0.999415 -0.000234538 -6.67514e-22)
(0.994524 -0.00122199 2.28335e-21)
(0.971272 -0.0075996 9.89859e-21)
(1.01858 0.00224038 -7.06338e-21)
(1.00744 -0.0743354 -1.83988e-21)
(1.04449 0.0766311 -7.73069e-20)
(0.970882 0.0258621 -1.42006e-19)
(1.00004 -5.84014e-05 2.08032e-23)
(1.00459 -0.00408905 1.18354e-21)
(1.01485 0.0105038 5.62999e-20)
(0.997888 -0.00310999 -2.43855e-21)
(1.01738 0.00930356 -7.18338e-21)
(0.99971 -0.000666697 -6.87578e-23)
(0.954795 0.0377672 1.11124e-19)
(0.999891 0.0403467 2.10716e-20)
(0.997202 -0.00102065 2.18834e-21)
(1.00228 -0.00439405 -4.62115e-23)
(0.999822 -5.42157e-05 -3.51545e-22)
(1.06763 0.062754 2.03726e-20)
(0.999947 -1.1569e-05 2.76895e-23)
(0.996846 -0.00592312 1.11674e-21)
(0.964506 -0.0159481 1.39242e-20)
(0.999961 -1.28124e-05 -6.28887e-24)
(0.999385 -0.00152414 -2.65951e-22)
(0.999778 -0.000678317 1.16707e-22)
(1.03317 0.0241853 4.41165e-20)
(0.99999 -1.27441e-05 1.03944e-23)
(0.997596 -0.000317138 6.75456e-25)
(0.975497 -0.0256088 3.63497e-20)
(0.941959 0.00746228 -3.45091e-20)
(1.04372 -0.00334635 -6.36871e-21)
(0.95943 0.0252641 8.35252e-20)
(0.999976 -6.76077e-06 -1.55013e-23)
(1.00377 -0.0269544 -1.24487e-22)
(0.999901 -0.000160095 -8.78095e-23)
(0.99686 0.0463362 -9.72581e-20)
(1.00179 -0.000298282 -1.07385e-21)
(0.993533 0.0145086 4.24032e-20)
(1.00185 -0.00595272 -7.16076e-22)
(1.0003 -0.00104281 3.16255e-22)
(1.01603 -0.0195911 -2.72704e-21)
(1.01209 -0.00170524 -3.08765e-20)
(1.00029 -0.000177672 1.64331e-22)
(0.99988 -3.12623e-05 1.85682e-24)
(1.00024 -0.000242438 3.67835e-22)
(0.997826 -0.00333596 -2.17019e-21)
(1.01063 -0.0399284 9.32569e-21)
(0.999977 -8.43815e-06 1.04776e-23)
(0.978011 -0.0166851 8.56863e-21)
(0.998045 -0.000674703 -9.09192e-23)
(0.999918 -3.39135e-05 3.90463e-23)
(0.999694 -0.000300732 7.51557e-23)
(0.989025 0.0270284 1.03185e-19)
(0.995684 -0.000433431 8.70861e-22)
(0.999613 -0.000100914 -7.46982e-23)
(0.956122 0.00402441 1.30938e-19)
(0.999351 -0.00154196 -5.88278e-22)
(1.02879 0.0547225 -3.99502e-20)
(0.999892 -0.000160838 1.55455e-22)
(1.00494 -0.0141465 6.36383e-23)
(1.00001 -4.02498e-07 -5.73277e-25)
(0.989433 -0.0204958 -6.00113e-21)
(1.01858 0.00262504 1.08704e-20)
(1.10584 0.00397226 -2.03202e-20)
(0.987546 -0.0107497 1.1022e-20)
(0.9998 -0.000367253 2.90182e-22)
(0.989328 -0.0452383 7.982e-21)
(0.994038 -7.17169e-05 4.07151e-21)
(0.999899 -1.97627e-05 3.56013e-24)
(1.00022 -0.000204062 -3.25629e-22)
(0.998826 -0.00186567 8.14346e-22)
(0.995607 -0.000682855 -2.64396e-21)
(1.00184 -0.000446156 -1.25505e-21)
(0.999347 -0.00114883 3.65118e-22)
(0.986367 -0.00493852 1.51708e-21)
(1.01396 -0.0361858 -6.90523e-21)
(0.986563 -0.00406666 6.60964e-21)
(1.08095 -0.0241978 6.99382e-22)
(0.981921 -0.00438333 -8.57829e-21)
(1.00508 0.0540569 1.12736e-20)
(1.00255 0.056594 -8.34628e-20)
(0.999253 -0.00042483 -5.90078e-22)
(1.12049 -0.00018525 2.28601e-20)
(0.999991 -2.14088e-06 -9.29681e-25)
(0.998737 -0.00217419 -9.94755e-22)
(0.986164 -0.00101267 1.64607e-20)
(1.00455 0.0125537 2.74924e-20)
(1.02234 0.00495818 -2.85838e-20)
(1.00005 -2.38827e-05 4.3398e-23)
(0.998735 -0.00227362 -6.97428e-23)
(0.982701 -0.00494337 6.46368e-21)
(1.02711 0.0215747 -1.69722e-20)
(0.999494 -0.000688916 3.18848e-22)
(1.00182 -0.000575316 7.10858e-22)
(1.00067 -0.000508571 -5.99893e-23)
(1.06962 0.0123172 3.06928e-20)
(1.13259 -0.0384006 3.29417e-22)
(1.01107 0.0669972 5.62993e-20)
(0.999172 -4.63868e-05 -5.61475e-22)
(1.03656 -0.0249989 -1.13075e-20)
(0.999939 -4.00786e-05 -3.24472e-23)
(1.00277 -0.00400616 -2.40911e-21)
(0.99997 -6.34474e-06 -4.46e-24)
(0.991287 -0.0120379 1.87822e-21)
(0.99982 -3.9865e-05 -6.76194e-23)
(1.00692 -0.0121613 6.03811e-22)
(1.13563 0.00017544 -1.86641e-20)
(0.984278 -0.015801 1.34511e-20)
(1.0051 -0.0130391 -2.317e-22)
(1.00459 -0.00342017 -1.54971e-21)
(0.999617 -0.000109399 3.35364e-22)
(1.01523 -0.0103786 3.84424e-21)
(0.997489 -0.0106999 1.83522e-21)
(1.04492 0.00828849 -1.29245e-20)
(1.03056 0.0238897 1.97443e-20)
(1.09893 -0.082929 -3.48057e-22)
(1.08648 -0.0315682 2.85901e-21)
(0.991795 -0.00025333 -4.41751e-21)
(1.00271 -0.00201077 2.2956e-21)
(0.965813 -0.0150539 -5.3554e-21)
(0.962425 0.034483 -1.70595e-19)
(1.06929 -0.0337473 -7.28616e-21)
(1.01421 -0.00563682 -1.47461e-20)
(0.952129 0.0239051 -8.35465e-20)
(0.999161 4.57887e-06 2.76589e-22)
(0.999059 -0.00054395 -1.842e-22)
(1.0965 -0.0243276 4.10563e-21)
(0.999403 -0.00111131 -2.11897e-22)
(1.00673 -0.0241134 7.06533e-22)
(1.00327 -0.00124756 7.93656e-22)
(0.99838 -0.000342213 -4.24554e-22)
(0.99876 -0.000316651 -6.86741e-22)
(1.01561 0.0151871 3.29185e-20)
(0.999963 -8.83807e-05 -2.9203e-24)
(1.00026 -0.00012915 -1.46256e-22)
(1.00005 -1.15179e-05 3.25837e-23)
(0.998196 -0.000621674 2.38821e-21)
(0.99609 -0.00495053 3.05067e-21)
(0.99999 -2.59142e-06 7.59606e-25)
(0.999429 -0.00014143 7.2558e-23)
(0.988031 -0.00959284 3.86423e-21)
(0.977893 0.00513166 4.40801e-20)
(1.00631 -0.0137893 -4.58749e-23)
(0.996114 -0.00576445 4.97311e-21)
(0.979837 0.0278874 1.97536e-20)
(1.00013 0.0221217 6.85697e-20)
(1.0379 -0.0013065 -1.03882e-20)
(1.11379 0.00358586 -8.98917e-21)
(0.970924 -0.00211867 1.6652e-20)
(1.00283 -0.00214055 -1.13389e-21)
(1.00384 0.0214467 -3.76249e-21)
(0.99377 -0.00147968 -5.4402e-21)
(1.01659 0.0527695 1.92571e-21)
(1.00489 -0.0298312 1.06829e-22)
(1.01952 -0.0672742 -6.03016e-21)
(1.0421 0.0491996 2.85452e-20)
(1.01738 0.0562931 -4.97683e-20)
(0.979352 -0.0143806 1.91206e-20)
(1.02552 0.00412633 -1.87094e-20)
(1.0462 0.07913 7.29055e-20)
(1.02616 0.0549773 7.36758e-20)
(1.01207 -0.0017304 1.05306e-20)
(0.998398 -0.000849053 5.39521e-22)
(0.997685 -0.00125049 4.81733e-22)
(0.99995 -8.90962e-06 -1.49396e-23)
(1.00962 -0.0159606 6.07188e-22)
(0.99384 -0.00125757 1.31214e-21)
(1.00053 -0.0014878 -2.68374e-22)
(0.999941 -1.27804e-05 -2.7822e-23)
(0.999068 -0.00043317 2.29701e-22)
(0.988011 -0.0446594 -1.30702e-20)
(1.06121 0.0202454 1.26059e-20)
(0.990206 -0.00334216 -7.53395e-21)
(0.999481 -0.00763548 2.04091e-21)
(0.998034 -0.000310214 -1.2752e-21)
(1.03782 -0.0244833 3.75351e-22)
(0.995956 -0.000953277 -4.27495e-21)
(1.00122 -0.00397052 8.47419e-22)
(1.05724 0.0787326 1.1674e-20)
(0.998932 -0.00020836 -1.61252e-21)
(0.999989 -2.41762e-05 -7.47071e-24)
(0.999969 -0.000106126 -4.45223e-24)
(1.00002 -6.24655e-05 2.6297e-23)
(0.98776 -0.00439851 3.49495e-21)
(1.01522 0.0118505 -3.92839e-20)
(0.997785 -0.00022788 5.07423e-23)
(1.01204 -0.00507956 9.47491e-21)
(1.00981 -0.0781869 1.21609e-20)
(0.993428 0.0379019 -1.71335e-21)
(1.00224 -0.00456893 7.85082e-22)
(1.00406 -0.00224294 -3.90834e-22)
(0.997304 -0.00149169 -1.75128e-21)
(0.99575 0.0269542 -1.01239e-19)
(0.999431 1.24713e-05 2.29696e-22)
(1.01341 0.06922 -2.88982e-20)
(1.00659 0.00879583 -4.35815e-20)
(0.999938 -1.66126e-05 3.27922e-23)
(1.00469 -0.0312393 -5.39055e-21)
(0.998299 -0.000537225 -1.16871e-21)
(0.995114 -0.0346811 1.85626e-20)
(1.00028 -5.58998e-05 1.47465e-22)
(1.034 0.00124665 1.4458e-20)
(1.00418 -0.0091209 -2.75389e-23)
(1.0035 -0.00195169 1.85422e-22)
(0.999522 -7.56222e-05 -4.5144e-22)
(1.04133 0.0214141 2.19555e-20)
(1.02396 0.0211791 6.77359e-21)
(1.00503 -0.0389272 8.57878e-21)
(0.988432 -0.0113403 -7.46411e-22)
(0.998794 -0.00201835 -6.97582e-22)
(0.999287 -0.0229493 -1.00602e-20)
(1.08574 0.0329145 -2.82122e-20)
(0.944124 0.0168768 -7.6757e-20)
(1.04658 -0.0482552 -2.41277e-21)
(1.00272 -0.00454957 -3.48597e-22)
(0.999996 -5.62309e-07 -2.98501e-25)
(0.992532 -0.00273418 -5.94522e-21)
(0.998748 -0.00016905 1.48392e-21)
(1.0158 -0.00868783 5.60716e-21)
(1.00165 -0.0633089 -5.71689e-21)
(1.1181 -0.00898813 -6.94921e-21)
(0.989321 0.0367633 -1.27033e-19)
(1.02961 0.0191995 2.84227e-20)
(1.06725 -0.0661258 5.42673e-21)
(1.03808 0.0483925 1.19892e-20)
(0.998726 0.0210071 1.1966e-19)
(1.01138 -0.00189832 7.82276e-21)
(1.00062 -0.00131 6.25458e-22)
(1.01125 0.0291121 2.36213e-20)
(0.999506 -0.00118162 4.65026e-22)
(0.999902 -8.55158e-05 3.37768e-23)
(0.990045 -0.00139949 2.01366e-21)
(1.00006 -2.05433e-05 8.05007e-24)
(1.07091 -0.0792802 4.00229e-21)
(1.0022 -0.0105005 -4.806e-22)
(0.991838 -0.0199445 1.01978e-20)
(1.00101 -0.000980137 3.37639e-22)
(1.03504 0.0411293 6.13641e-20)
(0.99897 -0.000148003 -1.30845e-22)
(0.999987 -1.90991e-05 -6.93275e-25)
(1.01544 -0.0701308 6.75104e-21)
(1.00091 -0.000684087 -1.95661e-22)
(1.06219 -0.00182202 -3.16413e-21)
(0.973758 -0.00798522 3.53921e-21)
(0.961215 -0.00959876 1.73016e-21)
(1.12645 0.0347858 -2.63319e-21)
(1.0137 0.00872376 -1.47029e-20)
(1.01213 0.00206967 9.05681e-21)
(1.0111 0.00199762 -3.66822e-21)
(0.999888 -2.45044e-05 1.11915e-23)
(1.06686 0.0212056 1.02641e-20)
(1.04651 0.0102079 1.5028e-20)
(0.999726 -0.00033967 1.14886e-22)
(0.99074 -0.0036418 8.72576e-21)
(1.00035 -0.00010769 -1.6414e-22)
(1.0066 -0.011178 -3.81562e-21)
(1.0062 -0.0151403 -2.65711e-22)
(1.00267 -0.000840876 1.21844e-23)
(0.999599 -0.000734417 -5.3006e-22)
(1.06885 0.058746 -6.22709e-20)
(0.999989 -1.28292e-05 -1.19502e-23)
(1.00012 -5.17877e-05 -4.25604e-23)
(1.00123 -0.000505369 -1.38096e-23)
(0.987001 -0.00144152 5.7818e-21)
(1.01046 -0.00604878 6.67272e-21)
(0.990633 -0.0163055 -1.43791e-20)
(0.984462 -0.00228341 -3.34468e-21)
(1.01005 -0.0365125 4.79393e-21)
(1.02189 -0.0837879 -1.27986e-20)
(1.0152 -0.0167106 1.79521e-21)
(1.01575 0.0297177 -1.36506e-19)
(1.13114 0.00483368 1.10108e-20)
(0.996446 -0.00143255 -2.47488e-22)
(0.95373 0.0350408 1.3087e-19)
(0.98595 -0.0321424 2.13797e-20)
(0.996224 -0.00500387 9.71381e-22)
(0.984298 -0.00186532 5.55696e-21)
(0.998987 -0.0108064 -5.1056e-22)
(0.987968 -0.00137876 8.70746e-21)
(0.994399 -0.00227081 -1.69583e-21)
(1.01498 -0.00900471 -1.03274e-20)
(1.07266 -0.0342956 2.01297e-21)
(0.999986 -2.45107e-05 -1.02089e-24)
(1.01214 -0.00766995 -1.1297e-21)
(0.999945 -1.69677e-05 -1.59325e-23)
(1.00188 0.0452668 2.63361e-20)
(1.0844 0.0524763 4.84707e-20)
(0.997283 -0.00111282 5.49618e-22)
(0.992098 -0.00118721 -7.59283e-21)
(0.999895 -3.18901e-05 -8.12462e-23)
(0.996338 0.0238923 7.63956e-20)
(1.01058 0.0537563 6.49626e-20)
(1.06839 0.0131884 -1.67344e-20)
(1.07397 0.0750208 -5.34318e-20)
(0.985591 -0.0347712 -9.01694e-21)
(0.999673 0.0114852 -1.08818e-19)
(0.999965 -7.07424e-05 1.61303e-23)
(1.02889 -0.0138112 1.45538e-20)
(0.990238 -0.000901738 -3.3099e-22)
(1.0506 0.040298 -1.36176e-20)
(0.965855 0.0256039 -1.01863e-19)
(1.08861 0.0282898 3.84817e-20)
(1.02799 0.0171404 4.84305e-21)
(1.00012 -0.00743552 -4.00771e-22)
(0.999896 -4.62278e-05 -7.59588e-23)
(1.07265 0.0637018 2.21078e-20)
(1.12036 -0.0240457 -1.68096e-21)
(0.996587 0.0270322 -2.62592e-21)
(1.05588 -0.0047668 2.88853e-20)
(1.01811 0.0256072 4.00783e-20)
(0.996027 -0.00120408 -7.81437e-22)
(0.99352 0.0364124 3.50651e-20)
(1.01356 0.0514522 2.31172e-20)
(0.99519 -0.0019087 -4.73378e-21)
(0.995844 -0.00177445 -1.76429e-21)
(1.08366 0.0616069 1.21088e-21)
(0.960004 -0.00867907 -2.42761e-20)
(0.999951 -8.29662e-05 -2.51669e-23)
(0.992984 -0.00298187 7.69133e-21)
(0.962946 -0.0127732 1.79612e-20)
(0.994087 -0.043532 -2.7821e-21)
(1.00527 -0.00183364 -6.69861e-21)
(1.00378 -0.0031642 4.3593e-22)
(0.999926 -9.90323e-05 -4.7847e-23)
(1.01048 0.0579165 -9.79716e-20)
(1.00042 -0.00575885 7.28902e-23)
(0.999943 -3.06139e-05 1.44079e-23)
(1.01265 -0.0347636 4.5511e-21)
(0.999731 -0.00023374 9.67968e-23)
(0.999878 -4.36257e-05 5.81158e-24)
(1.00303 -0.00712804 -4.04919e-22)
(1.02975 0.0387505 8.15877e-20)
(1.01035 -0.0620669 9.54634e-21)
(0.973789 0.0260738 6.07341e-20)
(1.00004 -9.82641e-06 -2.23156e-23)
(1.03089 0.0434145 -8.57286e-20)
(1.00835 -0.0292975 4.05984e-21)
(0.999961 -9.87022e-05 -7.27171e-24)
(1.00001 -2.6487e-06 -6.73904e-24)
(1.00222 0.00562586 -7.30388e-21)
(1.02686 0.034354 2.99969e-20)
(0.99791 -0.00136363 4.8524e-22)
(1.02564 0.0261392 -3.82031e-20)
(1.00002 -1.02882e-05 4.78135e-24)
(1.02548 0.0290292 -5.37532e-20)
(1.08608 -0.082246 7.43763e-21)
(0.994822 -0.00159646 5.14899e-21)
(0.999887 0.0173612 -1.52147e-19)
(0.986519 -0.0271854 1.41785e-20)
(1.07647 0.0721118 5.31252e-20)
(0.985029 -0.0024551 3.27603e-21)
(1.02787 0.0309241 6.994e-20)
(1.03024 0.0366435 -2.16308e-20)
(0.991129 -0.00445094 1.27541e-20)
(0.988339 -0.00549745 -9.44919e-21)
(0.997281 -0.0051418 2.86489e-21)
(0.998435 -0.000363465 -3.85475e-22)
(0.9999 -0.000103926 9.13328e-23)
(1.00047 -0.00538561 -1.28118e-22)
(1.01968 0.0495835 -1.16217e-20)
(0.999985 -1.91685e-05 3.03342e-24)
(1.02281 0.0252045 5.06099e-20)
(1.01891 -0.0625891 1.39522e-20)
(1.00141 0.0246581 3.08585e-20)
(1.02303 0.0231597 -5.70818e-20)
(0.961483 -0.0118792 -2.28802e-21)
(0.973972 0.0332055 -1.29508e-19)
(0.999154 -0.00060119 3.10564e-23)
(1.00904 -0.0149024 1.74686e-21)
(1.03041 -0.0449243 2.71581e-21)
(0.988611 -0.000984773 -5.37436e-22)
(0.996683 -0.00182055 2.35107e-21)
(1.0074 -0.0314451 -3.65408e-21)
(1.02998 -0.010393 -1.56262e-21)
(0.95682 0.0200529 1.57816e-19)
(1.00002 -1.27616e-05 2.37746e-23)
(0.999006 -0.0006483 4.50487e-22)
(1.01255 -0.0433915 1.77274e-22)
(1.00001 -2.43281e-06 8.30427e-25)
(1.00039 0.0502802 1.29785e-20)
(1.0008 -0.000645537 0)
(1.00001 -2.43299e-06 6.24014e-25)
(1.00009 -4.54474e-05 9.93814e-23)
(1.00023 -4.55382e-05 2.05013e-24)
(0.991814 -0.0107096 9.70388e-21)
(1.01067 -0.00972281 -4.04454e-21)
(0.999194 -0.000425469 7.01105e-22)
(0.999961 -6.41522e-06 2.96141e-23)
(0.996335 -0.00169497 1.28725e-21)
(1.00202 -0.00754521 -2.80104e-22)
(0.994619 -0.0655538 -1.5466e-20)
(0.965541 -0.00300052 1.70018e-21)
(1.00976 -0.00541846 1.15998e-20)
(0.999985 -1.44055e-06 8.79235e-24)
(1.05795 -0.0922855 1.46841e-20)
(0.993039 -0.00186886 -3.02434e-21)
(1.07439 0.0528355 -3.97514e-21)
(1.00047 0.0190991 -2.26e-20)
(1.00055 -0.00210133 1.46113e-22)
(1.06695 0.0453049 -5.84888e-20)
(1.00007 -5.23801e-05 6.51582e-27)
(0.99352 -0.0023181 7.10778e-23)
(1.01213 0.000403615 -1.86532e-20)
(0.996595 -0.00199339 -9.64317e-22)
(1.03062 0.0457849 -4.74852e-21)
(0.993349 -0.00359283 -5.84623e-21)
(1.02893 -0.0161764 -1.23215e-20)
(1.01367 0.00266969 -2.0048e-20)
(1.03285 0.0226286 -1.24868e-20)
(1.00412 -0.00862833 -1.65999e-21)
(0.994787 -0.0024293 1.399e-22)
(1.0417 0.0416633 3.99868e-20)
(0.988061 -0.0485918 -1.44467e-20)
(0.995192 0.0473302 1.07307e-19)
(0.995312 -0.00259133 -5.59426e-21)
(1.02991 0.0636748 -2.37732e-22)
(0.995416 -0.00236044 1.49815e-21)
(0.999397 -0.000269204 -4.59574e-23)
(1.02696 0.0179359 1.32653e-20)
(1.00843 -0.0173416 -3.04348e-22)
(1.01847 0.00242012 2.8879e-20)
(1.00078 -0.00051477 2.20646e-22)
(1.00001 -1.734e-06 2.87918e-25)
(1.00362 -0.0760911 5.59153e-21)
(1.0547 0.0736484 -6.67356e-20)
(1.00078 -0.00202839 -1.94351e-22)
(1.07216 0.0468258 6.01928e-21)
(0.993635 -0.00331071 -3.81387e-21)
(1.05288 -0.0950719 -4.15067e-21)
(1.02557 -0.02284 3.69403e-22)
(0.990713 -0.017489 8.11715e-21)
(0.999117 -0.000545405 -2.98324e-22)
(0.99548 -0.000531134 -1.04785e-21)
(0.98676 -0.0408178 -9.04538e-21)
(0.984295 -0.00522531 1.31231e-20)
(0.995021 -0.00219363 3.89765e-21)
(0.999924 -0.000233476 4.43305e-23)
(0.990984 0.0502156 -1.28848e-20)
(1.06505 0.0403842 3.61469e-20)
(1.01407 -0.0058822 -3.58166e-21)
(0.9999 -7.94476e-05 5.986e-23)
(1.01286 0.0483954 -4.37631e-20)
(1 -1.24629e-05 1.12037e-24)
(0.999904 -6.58476e-05 1.17346e-22)
(1.05929 0.0390356 3.00419e-20)
(1.00689 -0.0137627 9.16597e-22)
(1.06383 0.0686076 5.65895e-20)
(1.01262 -0.00279195 7.95429e-21)
(1.00978 -0.00711816 -8.0755e-22)
(1.05391 -0.0388963 -3.3028e-22)
(1.03019 -0.0788914 1.22468e-20)
(1.12551 0.0303969 -1.14923e-20)
(1.00063 -0.000496352 -4.76511e-22)
(0.974838 -0.00881983 -1.37103e-21)
(0.999991 -2.99764e-05 -2.21217e-24)
(1.00311 -0.00666525 2.84702e-22)
(1.03219 0.049154 3.10081e-20)
(0.99148 -0.00414595 8.85969e-21)
(0.99861 -0.000805526 6.2754e-22)
(1.00864 -0.0227823 -2.03373e-21)
(0.999027 -0.000581299 3.87135e-23)
(0.999796 -0.000573074 1.42811e-22)
(0.959122 0.0033297 2.73915e-20)
(0.995099 -0.00284231 -3.18246e-21)
(0.999776 -0.000419248 -3.95095e-22)
(0.99999 -7.70474e-07 -1.86514e-24)
(1.00979 0.00297881 3.93328e-20)
(0.985381 -0.0142047 -2.10333e-21)
(0.999833 -0.00031349 1.15585e-22)
(0.998612 -0.000475791 7.87703e-22)
(1.01312 0.0107227 1.59381e-20)
(1.03831 0.00550133 3.18013e-21)
(0.97932 -0.0129694 -1.18718e-20)
(1 -7.73009e-06 2.89887e-25)
(1.00158 0.00949028 1.04231e-19)
(0.993226 -0.00961324 -6.66918e-21)
(1.0357 0.0376787 -6.16127e-20)
(1.00687 -0.00107625 -1.02168e-20)
(1.00784 -0.000722823 2.33003e-20)
(0.983326 -0.00642584 1.81268e-20)
(0.999951 -3.69187e-05 -9.44338e-24)
(1.0128 -0.000217629 -3.63766e-21)
(1.03944 0.00436671 -4.8819e-21)
(1.10761 0.0352444 2.89024e-20)
(1.02277 -0.0590132 2.5965e-21)
(1.01764 0.0468166 3.5339e-20)
(1.00343 -0.000789699 -1.52218e-22)
(1.0465 0.0459755 -5.50174e-20)
(1.00036 -0.00824059 -6.50042e-22)
(1.01078 -0.0330852 -9.41127e-21)
(0.999801 -8.68521e-05 -1.16119e-22)
(1.00179 -0.0107075 9.34998e-22)
(0.999945 -0.000240081 1.88922e-23)
(1.02365 0.0176929 -3.85042e-20)
(1.03669 0.0708062 -1.12725e-19)
(0.999246 -0.00066344 2.37622e-22)
(1.00973 -0.0068219 2.37033e-22)
(0.990742 -0.00243664 3.01417e-21)
(1.02577 -0.0512993 8.10283e-22)
(1.02201 -0.0544641 -6.99905e-21)
(0.999148 -0.000459063 4.63938e-22)
(1.02485 -0.0143929 -5.08666e-21)
(0.977229 0.000426403 -4.55922e-20)
(1.10513 0.0194868 2.24975e-20)
(0.999971 -8.5492e-05 3.5518e-23)
(1.03492 0.00496263 -1.17078e-20)
(0.998449 -0.00486825 -1.42115e-21)
(0.994754 0.00125777 1.01076e-19)
(0.99376 -0.00295719 5.27182e-21)
(0.998276 -0.015598 -1.71573e-21)
(1.00993 -0.0202085 -2.08648e-22)
(0.996385 -0.0160329 -2.24714e-22)
(0.99903 -0.0124556 -3.92064e-21)
(0.996165 -0.0019086 8.82729e-22)
(1.00004 -0.0082628 2.20278e-21)
(1.00103 -0.00364651 -2.2485e-22)
(1.0308 -0.0135239 3.45206e-21)
(1.00006 -2.22372e-05 -6.33962e-23)
(1.113 -0.061572 3.54996e-22)
(1.09232 -0.00595494 6.09774e-21)
(1.00637 0.0548585 7.85495e-20)
(0.980286 -0.0122149 1.79175e-20)
(1.05787 0.0634773 -2.85909e-20)
(1.00102 -0.000417156 7.86798e-22)
(1.04092 -0.0442145 -2.47614e-22)
(1.00316 -0.021889 -3.81971e-21)
(1.0115 0.0184833 4.46337e-20)
(0.996426 -0.00220984 2.25989e-21)
(1.00006 -9.78397e-05 4.07523e-23)
(0.993451 -0.00983685 8.70692e-21)
(0.997702 -0.00530039 -1.08562e-21)
(1.02309 -0.0150497 1.01161e-20)
(0.984717 -0.00381566 -1.0891e-20)
(0.987605 -0.0051587 3.14619e-21)
(1.07426 -0.0211961 3.91997e-21)
(0.99247 -0.0013335 -4.96708e-21)
(1.00837 -0.0214612 1.19539e-21)
(0.993925 -0.04655 1.01716e-20)
(1.00001 -4.60198e-06 5.00173e-25)
(1.03031 -0.00864673 1.87164e-20)
(0.996063 -0.0420878 -2.75905e-20)
(1.06368 0.0543877 2.78091e-20)
(1.05427 -0.0445061 -3.62763e-22)
(1.01673 0.0019805 2.45612e-21)
(1.01515 -0.0599554 -1.9112e-20)
(1.01674 0.0618384 2.21487e-20)
(1.01979 -0.0202175 3.75204e-21)
(0.982483 -0.00595523 -1.07002e-20)
(1.00843 -0.0271082 -4.50764e-21)
(0.982218 0.00182993 4.45705e-20)
(1.08868 -0.0619596 -2.5559e-22)
(0.993301 -0.00271019 -1.6137e-21)
(1.01533 -0.0757156 -1.44564e-21)
(1.01473 -0.0378091 5.69664e-21)
(1.02389 -0.0699431 -2.68544e-21)
(1.0242 -0.0476813 -6.23263e-21)
(1.04225 0.0383059 5.01206e-20)
(0.998581 -0.000877534 4.05742e-23)
(1.00218 0.0209026 1.64087e-20)
(1.00426 -0.000760658 1.18629e-21)
(0.999789 -0.000298022 -1.64263e-22)
(0.999308 -0.00133205 1.27634e-21)
(1.0321 0.00182716 -4.55695e-21)
(0.974167 0.000673217 1.25116e-21)
(1.00082 -0.00367199 8.13175e-23)
(1.01063 -0.0308235 1.3795e-21)
(1.0126 0.0112833 -2.64895e-20)
(1.00001 -4.58025e-06 -1.21279e-24)
(0.988791 -0.00513795 7.5033e-21)
(1.01211 -0.00510932 8.37818e-21)
(1.04265 -0.0236961 8.58183e-21)
(1.00423 -0.000696801 6.69193e-21)
(0.999103 -0.000977925 2.28911e-22)
(0.991378 -0.0231213 3.02833e-22)
(0.998772 -0.00481361 -4.29961e-22)
(1.00001 -2.27106e-06 1.29939e-23)
(0.987851 -0.0267022 -2.3879e-20)
(1.02394 0.0455208 -1.25832e-20)
(1.01114 -0.0178665 7.02698e-22)
(0.991295 -0.00286311 -5.54352e-21)
(1.00095 -0.000152446 -2.82661e-22)
(1.01491 0.0137726 3.49842e-20)
(0.999809 -0.000335533 -7.67191e-23)
(0.999345 -0.000347956 -2.55016e-23)
(0.999821 -0.000102494 -1.06858e-22)
(0.999593 -0.00118891 -3.30712e-22)
(1.09814 0.0354642 2.18192e-20)
(1.01672 -0.0226415 4.65929e-21)
(1.00481 -0.0105458 4.67375e-22)
(0.990573 -0.00411459 -2.61768e-21)
(1.00002 -2.91282e-05 1.23969e-23)
(1.04164 -0.074505 1.4666e-20)
(1.12392 -0.0141864 5.64205e-22)
(1.04538 -0.0821578 -7.05532e-21)
(0.998488 -0.0191992 -3.22538e-21)
(1.00724 -0.0048762 7.63949e-21)
(0.999893 -5.24202e-05 4.81855e-23)
(0.993814 -0.00661236 -3.34354e-21)
(0.97687 -0.0269643 -1.42941e-20)
(1.0965 0.0222198 8.00455e-22)
(1.00019 0.024495 -1.08431e-21)
(0.99939 -0.00179346 2.70758e-22)
(0.969175 -0.0182893 8.21603e-21)
(0.997545 -0.0015852 -2.1189e-21)
(1.01857 -0.0190988 -8.05422e-22)
(1.04975 0.036839 5.79579e-21)
(1.00025 -7.72704e-05 -2.27534e-22)
(0.999924 -0.00010501 -1.94338e-23)
(1.08286 0.0650875 6.50958e-21)
(1.09168 0.00933808 -4.14386e-21)
(1.01162 -0.00903431 2.80809e-21)
(0.998528 -0.00100194 1.09122e-21)
(0.998995 -0.000151127 -1.02536e-22)
(0.980729 -0.0273238 3.49387e-21)
(0.999913 -0.000195274 -6.5025e-23)
(1.00961 -0.0192105 1.00998e-21)
(0.993185 -0.000780597 1.02458e-20)
(1.00043 0.0201369 -1.86324e-20)
(1.02627 0.0459915 -6.37024e-21)
(1.03672 -0.0406649 7.02571e-22)
(0.998055 -0.0420234 1.03416e-20)
(1.00315 -0.000917307 3.27593e-21)
(1.00806 -0.0140748 -2.40811e-21)
(1.08863 -0.0018879 1.95706e-20)
(0.997178 -0.046997 -6.28979e-21)
(1.01022 -0.0256489 2.4965e-21)
(0.999999 -4.00366e-06 2.6842e-25)
(1.07932 -0.0115236 1.29339e-20)
(0.98567 -0.00144683 9.8874e-22)
(0.997009 -0.0522253 1.27783e-20)
(1.01048 -0.0168181 -4.03047e-21)
(0.975918 -0.00833142 -2.45841e-21)
(0.99981 -0.00018174 -5.42151e-23)
(0.998446 -0.000741738 -4.81154e-22)
(1.02042 0.0217219 4.40276e-20)
(0.984114 -0.0060403 -3.99525e-21)
(0.999992 -9.29961e-07 1.96804e-24)