/*--------------------------------*- C++ -*----------------------------------*\
  =========                 |
  \\      /  F ield         | OpenFOAM: The Open Source CFD Toolbox
   \\    /   O peration     | Website:  https://openfoam.org
    \\  /    A nd           | Version:  7
     \\/     M anipulation  |
\*---------------------------------------------------------------------------*/
FoamFile
{
    version     2.0;
    format      ascii;
    class       volScalarField;
    location    "2";
    object      p;
}
// * * * * * * * * * * * * * * * * * * * * * * * * * * * * * * * * * * * * * //

dimensions      [0 2 -2 0 0 0 0];

internalField   nonuniform List<scalar> 
7807
(
1.85301
0.200445
2.27158
1.60462
-0.0105234
-0.000463182
2.23632
-0.0656802
-0.00147058
0.753409
-0.000431745
0.0286742
-0.097929
0.404188
0.780183
-0.119701
1.88346
-0.129328
0.016642
-0.495828
0.56307
0.0187622
0.310715
1.30065
-0.168584
1.88027
-0.00960183
0.492675
1.1326
0.0349042
-0.173779
3.04903
0.306875
-0.00599077
-0.00127788
0.629922
0.0380452
2.18214
-0.0537822
-0.00416991
-0.0482801
-0.117114
-0.410462
0.286119
-0.00248231
-0.000995321
0.0185161
-0.0541375
-0.000827887
-0.476946
0.0433473
0.468237
-0.213532
0.0124599
0.626601
-0.0582068
0.018731
-0.0662001
-0.270193
-0.00629116
0.000493852
0.055395
0.405113
0.0316325
-0.0121093
-0.168555
-0.00119411
5.48142e-05
1.06453
-0.0500196
-0.000919232
-0.42229
-0.162643
-0.282634
-0.124377
-0.392579
2.24738
0.549458
0.65471
-0.505665
-0.0939674
2.00867
0.766465
-0.291356
-0.0180381
-0.0278764
-0.0702405
-0.2069
-0.00805191
-0.0548238
1.15445
0.355431
-0.00165988
0.0166999
-0.043702
-0.286436
-0.405536
0.0355865
-0.0198943
-0.0144744
-0.496616
0.700226
-0.0415429
-0.00024653
0.423413
1.19443
2.68925
-0.0617378
-9.98783e-06
0.30453
1.54078
-0.199065
-1.95394e-05
0.32383
1.18991
0.00559189
-0.118518
0.995126
-0.29791
-0.285847
-0.516795
1.93715
-0.37881
0.125193
-0.504266
-0.0119288
-0.153164
0.0273215
-0.012758
-0.170035
0.211984
0.639123
-0.00751993
-0.00953955
-0.301774
1.49857
2.25719
-0.000211777
0.0958235
-0.653775
-0.268081
-0.327527
-0.39269
-0.26961
2.7186
-0.0843828
1.14092
-0.254645
-0.374198
1.93302
0.604183
0.353902
-0.0182692
0.989935
0.761562
2.08009
-0.44227
-0.0974667
2.61513
-0.000747985
0.00953809
1.33905
-0.000236978
-0.0245338
-0.0493841
1.5865
1.59313
2.6848
-0.0284606
-0.0376539
6.20552e-05
-0.539072
0.00562033
0.239322
0.104195
-0.367857
0.501516
1.25677
-0.00164411
-0.00619595
1.6371
-0.000747871
-0.00138534
2.2558
0.180178
-0.200423
-0.278272
-0.262063
-0.112776
-0.640464
-0.000258226
-0.389579
1.30217
-0.0418446
0.000926593
1.44098
-0.0155447
-0.159108
-0.117307
6.94766e-05
0.011414
1.52033
1.42977
2.06803
-0.0881698
-0.159587
-0.195115
0.534152
1.48914
-0.00267179
0.000433256
2.58829
-0.103478
-0.00782224
-0.371375
-0.160275
1.9439
1.96463
-0.352581
2.91941
-0.0144391
-0.128191
-0.509937
0.646464
-0.50135
1.71436
2.61214
0.000815207
0.130552
1.04543
-0.0506066
0.980914
-0.00680389
2.84624
2.03802
-0.0700871
0.0379611
-0.00385973
1.35431
-0.00116755
-0.0731977
-0.603439
-0.000915562
-0.0169262
-0.00536445
1.19543
-0.000235122
-0.0570048
-0.488094
3.03888
0.589405
2.7488
-0.000566987
-0.137804
-0.00236921
2.14423
0.0535618
2.27273
0.0213364
0.00967853
0.138087
0.55339
0.00759385
-0.00291022
0.0067517
-0.0533022
-0.175398
-0.000529857
-0.427413
-0.0469591
-0.00180149
-0.00816395
2.21234
-0.0969034
-0.00989969
2.87165
-0.0187974
1.71557
-0.00264165
0.0279029
9.84639e-05
-0.271342
0.621324
0.558733
-0.26973
-0.00528697
-0.449302
-0.191843
-0.00229038
0.0066517
-0.0273716
-0.0933731
0.0387683
-0.0157882
-0.278057
-0.139383
-0.274949
0.34206
-0.350377
2.07965
2.1294
-0.0193306
0.49796
-9.62156e-05
-0.0293071
-0.292168
1.27442
0.844551
0.0012816
-0.0266588
-0.340815
1.19614
-0.0128988
0.0471838
0.0160728
0.783091
0.14162
2.07214
-0.020705
0.222781
-0.00146819
0.0564299
-0.000667506
-0.201582
-0.00447549
0.0787582
0.451092
-0.330373
0.0445935
0.11763
-0.00954614
0.281011
-0.0787131
0.753655
1.19456
-0.21985
0.224915
-0.198599
0.0679918
-0.585362
2.74104
0.219951
0.387165
2.86895
-0.0199002
-0.022594
0.292345
-0.0140658
-0.060457
0.0823428
-0.035736
-0.0265762
1.09776
-0.000861961
0.00734798
0.00105377
-0.0439668
-0.0864156
-0.000113355
-0.0143375
-0.258298
2.58678
0.056135
-0.102152
2.47356
1.75808
0.65649
0.549443
-0.548399
0.0660318
1.54368
-0.138356
1.84714
-0.134961
-0.364718
1.42588
1.86982
-0.409248
0.805782
1.72161
1.75692
0.523444
-0.0394336
-0.0544506
-0.00113219
0.0791708
-0.141436
0.0127275
-0.00138387
-0.020709
-0.460529
0.927795
-0.209429
-0.0263194
-0.0491419
0.190059
-0.0895151
0.0257018
1.59995
-0.0242315
-0.000279931
-0.000701324
0.000653198
-0.252894
1.07482
-0.0515513
0.349374
-0.498463
2.14555
0.045871
0.0894394
-0.0661471
2.15477
-0.0138473
2.07028
1.16164
-0.00151509
-0.151828
-0.0426779
-0.308264
0.00758586
0.693366
0.0537416
0.0833264
-0.0111276
1.13427
1.20118
-0.222901
-0.254185
-0.0290358
-0.138497
0.947122
3.0093
0.00420669
0.0627718
-1.37512e-05
-0.16431
-0.0292534
0.257596
-0.446552
0.424034
2.2467
1.13612
-0.128371
1.49933
2.10601
0.338573
0.0156471
1.62969
-0.0116004
-0.00239806
-0.213966
0.00115063
-0.227004
0.00848834
-0.251318
0.0249808
1.4457
-0.0229383
-0.00030752
-0.411811
0.0223901
0.570004
-0.476274
-0.631946
0.751763
1.05205
0.881952
0.903567
-0.0026812
0.899413
0.800502
-0.00692836
-0.201963
0.00805633
0.0916471
-0.00204115
0.0617525
-0.010168
1.30318
-0.00025698
0.00263844
0.0254688
-0.260567
0.264794
-0.240732
-0.310855
-0.176787
-0.477114
0.151137
1.59826
0.509969
-0.0843899
2.87098
-0.394226
-0.0913048
-0.304333
-0.0638887
-0.245394
-0.126012
0.360476
0.198342
-0.000329794
0.315433
-0.00124522
2.05183
1.10809
-0.0616564
-0.170215
-0.00245603
2.00979
1.9607
0.819221
1.44348
-0.406668
2.31344
-0.000802337
0.315488
-0.217853
1.27529
2.67808
0.885859
1.08083
-0.0187045
-0.00266296
1.33461
0.278012
2.09
0.566729
1.42923
-0.0884837
2.17148
1.89
-0.112321
-0.0950069
1.20739
-0.649469
-0.00109239
-0.157733
-0.617891
-0.392702
0.143567
0.121014
-0.0016511
1.98383
-0.0101205
-0.00133459
-0.107499
-0.00642168
-0.00291312
0.048339
1.51171
-0.380504
2.54258
0.000821746
1.51076
-0.0999543
-0.000984718
0.000235346
1.12449
1.44314
-0.0510138
1.31818
0.000327019
1.37986
-0.233697
-0.117102
2.17951
-0.358318
1.38161
-0.291959
1.38209
1.44514
-0.194635
-0.246602
-0.0705766
-0.0356286
-0.00260898
-0.0123564
1.77262
-0.000346171
1.31966
-0.326629
1.88287
1.26295
-0.634033
2.49504
-0.0202035
0.0941928
-0.0824257
-0.234834
-0.0803666
-0.126328
0.43689
2.79907
0.000554482
-0.0238382
-0.215531
8.12147e-05
2.08411
0.0228222
7.94002e-05
0.00255107
0.00496598
-0.19534
0.251769
-0.0191953
-0.00110508
-0.0849915
0.0394769
-0.519205
-0.583803
0.2661
-0.000280911
-0.377745
-0.153465
1.21692
1.8425
0.0156941
1.19957
0.0020115
-0.147554
0.685907
-0.0802702
1.61995
-0.150846
0.348722
0.710531
1.1314
0.0645989
-0.120605
1.36886
-0.46058
2.18344
-0.108134
1.78868
-0.107933
-0.0143752
1.03352
0.0518387
0.707138
0.0240184
6.93692e-05
-0.535925
1.56573
0.01816
1.17074
-0.14292
-0.421752
0.178691
-0.249508
-0.0206427
-0.101285
-0.449638
-0.315646
-0.113518
-0.00183064
2.26594
1.14991
0.350476
-0.00249473
1.86534
5.41924e-05
-0.00229302
1.17552
0.0401738
1.44037
0.486272
0.213051
0.112184
-0.379392
0.711015
0.0163389
-0.462903
-0.000228244
0.0493874
1.56589
-0.185035
-0.0343775
-0.0268408
-0.0242047
-0.00502503
2.82295
-0.114476
-0.00695266
-7.72787e-05
0.960511
-0.319767
-0.00405613
-0.0339039
1.09406
0.777096
-0.407202
1.87574e-05
1.18778
-0.178045
1.38481
0.197742
0.239924
-0.334014
-0.00118311
0.693657
0.738191
0.822824
-0.276224
1.75335
0.0743159
1.36027
-0.0250503
-0.11685
-0.00487752
-0.00507855
-0.00128457
1.14292
1.73578
-0.0182857
0.236684
-0.196138
-0.187966
-0.240779
-0.023056
0.293242
2.76827
0.720563
-0.000663767
0.754648
-0.0429377
2.40591
-0.142355
-0.112402
0.0279241
-0.128896
-0.064713
-0.0905693
-0.0348269
0.0206553
0.39673
0.00137454
-0.0454072
0.496477
2.05642
-0.389851
1.45453
0.0252827
-0.0214075
-0.0944846
1.33718
-0.0852483
0.00137062
-0.17267
-0.0607966
0.307557
-0.29899
-0.256163
0.342939
-0.167475
-0.00549752
-0.403184
7.09819e-05
0.496072
-0.357442
1.32491
0.0611794
0.699514
-0.336401
1.96546
0.152148
-0.344824
-0.0753676
2.53704
-0.0587351
-0.14899
-0.450387
-0.128726
-0.353123
-0.154874
1.31091
-0.0341261
1.51217
0.107463
-0.00483767
-0.0149968
0.674577
3.04816
0.0150945
-0.0909041
1.13911
0.000280842
-0.235259
0.320382
0.25471
0.109016
-0.0200747
-0.270575
-0.0342027
0.000366013
-0.339639
1.63298
0.0790359
-0.189405
0.0230486
1.13959
-0.00472327
-0.0153462
-0.00445323
-0.00955097
0.875775
0.10613
0.0494986
-0.203346
0.000558058
-0.297291
0.362091
-0.335403
-0.134225
0.180382
-0.00263988
-0.141647
-0.477644
0.769614
1.8875
-0.0152928
-0.549733
-0.0579772
0.165166
1.22236
0.0054745
-0.00196915
1.26324
0.658565
0.188999
-0.0365377
-0.0257565
-0.430386
-0.0021716
0.0469982
-0.152005
1.67819
1.6548
0.00333062
-0.334843
0.0884879
0.078618
0.559289
-0.377251
-0.0406024
-7.54882e-06
0.472899
-0.27704
-0.422041
0.0950264
-0.444782
-0.00498839
-0.0367693
1.2647
-0.318945
-5.06779e-05
-0.0348199
0.021242
-0.00206864
-0.0553421
-0.000607484
0.0562043
-0.500186
-0.0250597
-0.000255806
0.000379247
0.848319
-0.245734
2.0155
1.73029
0.400274
-0.00718571
-0.0660298
0.00273272
0.124692
-0.297488
0.618385
-0.183972
1.73626
0.120009
0.00345287
0.0924409
-0.237298
0.0237793
-0.0691151
-0.460096
0.0513959
0.197249
0.522765
0.123771
-0.248301
-0.0432399
1.1792
-0.0833231
-4.80905e-06
-0.318061
-0.53243
-0.0954486
0.0618452
0.00931268
0.127532
-0.459362
0.287621
-0.305761
1.12561
-0.103827
0.0812723
0.175907
0.203887
-0.310001
0.0560164
-0.00124387
0.951675
1.26933
0.0703041
1.5789
-0.298577
0.382935
-0.239756
1.23097
0.712568
2.77179
5.3872e-05
0.790498
1.15092
0.131266
-0.0140594
-0.158946
0.416923
0.000527552
-0.15847
-0.293575
-0.174083
-0.191661
0.00164591
0.199541
-0.00351469
-0.00849298
1.4067
0.0661637
1.03028
0.189037
1.25583
0.117047
-0.0037317
-0.0827202
0.0818396
1.95233
0.0119769
-0.31733
-0.00209989
-0.00522749
0.0802414
-0.111422
-0.000293714
-0.0938368
0.264797
-0.0183047
0.000375883
-0.000433968
0.974577
0.176152
0.0649682
-0.010525
0.0819777
0.138824
0.0828861
-0.00273751
2.03483
-0.0125486
1.32157
1.82957
-0.00199505
0.97257
0.872687
-0.00732398
-0.00251428
-0.00403862
0.340479
0.189996
-0.0438623
-0.116736
-0.441264
1.08665
-0.2334
0.000121215
-0.167573
-0.149596
-0.310273
-0.0393228
0.0569839
0.0116473
0.242183
-0.00487154
-0.0021859
-0.147523
-0.0393386
-0.214916
-0.000147057
-0.128101
0.290613
0.182368
0.0601973
-0.0753638
-0.101738
-0.0794759
-0.0474414
0.129938
-0.0821352
-0.000979251
-0.00375247
0.211211
-0.105673
-0.0450024
0.0791332
0.0367801
-0.524618
-0.0959392
0.995689
-0.108496
-0.424766
-0.18938
-0.195124
-0.134717
-0.0342106
0.0212017
-0.032107
-0.119012
-0.139238
1.26007
1.06367
0.474329
1.83851
-0.000668244
-0.0282379
-0.141612
-0.0704655
0.883195
-0.174916
0.497083
-0.0370954
1.38637
-0.0176548
-0.0147862
0.22214
-0.0931154
-0.002059
-0.151025
-0.0534319
-0.180093
-0.000191408
-0.0599886
0.0179297
-0.150816
0.35017
0.289022
0.162467
-0.12101
-0.270917
0.773603
-0.0115794
-0.017886
-0.0192444
2.46046
-0.00078593
0.62177
-0.182934
-0.176352
-0.228565
-0.310899
-0.247739
-0.294545
-0.155109
-0.0417002
-0.000896516
-0.0387019
-0.185208
0.695199
0.0152097
1.27512
-0.283485
-0.114108
-0.00848914
-0.248115
-0.00094724
0.95183
-0.259938
-0.225502
-0.205022
-0.0330645
-0.269217
-0.015484
-0.352357
0.697014
-0.222649
-0.44414
-0.013367
-0.233131
-0.158883
0.133272
-0.029362
0.917265
-0.0219136
-0.164329
-0.00618265
1.0151
-0.336984
-0.228046
-0.0294508
-0.0846508
-0.0250197
1.31886
0.299315
1.52495
-0.0419605
-0.00747239
-0.0115017
-0.021115
1.40016
-0.513052
-0.0614561
0.00311545
-0.05085
-0.0163228
-0.00815078
-0.0742984
-0.13533
0.430239
-0.0449332
0.057295
2.36257
-0.531658
-0.250271
-0.494349
0.000318266
0.550902
-0.0321529
-0.232011
-0.0506261
-0.30792
0.0426539
-0.00488961
-0.0262629
0.0290135
1.21605
-0.0529534
-0.0162058
-0.0420768
-0.419442
-0.0751848
-0.192126
0.0411165
-0.0787216
-0.0807402
-0.0297575
1.239
-0.399843
0.0285116
-0.0381017
-0.238664
-0.123502
-0.430823
-0.0127562
0.652855
0.199946
-0.0708093
-0.0157058
-0.120671
2.53491
1.22708
-0.10102
-0.0052753
-0.0216863
0.0950613
-0.0360036
0.181483
-0.00376314
-0.0989041
-0.0179609
-0.150709
0.369722
-0.00961122
-0.0840052
-0.0123233
1.75961
-0.0576771
-0.104297
0.283628
-0.0174478
-0.259063
0.946846
2.29353
-0.0961843
-0.101682
-0.0191918
-0.00422035
1.77728e-05
-3.82554e-05
-0.0906467
-0.00609286
1.00197
-0.00606897
-0.0164791
0.0757215
-0.00235716
-0.383574
-0.343465
0.147947
0.315814
0.218694
0.845272
-0.139942
0.639498
0.509148
0.657995
0.811358
-0.115285
-0.00797997
-0.0495466
-0.386574
-0.0317502
-0.133523
0.736623
1.94039
-0.300697
-0.00437679
-0.000258222
-0.0133638
-2.40129e-06
0.0920265
-0.00505387
-0.0392987
-0.413709
0.00495534
0.0235995
-0.00200537
0.606315
-0.137293
0.0175299
-0.0108747
1.76228
1.79326
-0.0897899
-0.261877
-0.241582
-0.21163
-0.128047
-0.0169851
-0.431747
-0.167184
-0.348119
0.2768
-0.000449461
1.25902
-0.0295278
-0.0867542
-0.14727
0.163173
-0.00483872
-0.0749509
-0.0124052
0.131827
-0.0136806
1.2387
0.00320302
0.0884483
-0.00376239
0.0779278
0.0775728
-0.00683495
0.179495
0.00385473
0.631309
0.878224
0.0247955
-0.0130813
-0.00113234
-0.00522602
-0.00458376
-0.526073
0.825033
0.545306
-0.00244835
0.0915381
-0.00417057
1.34949
-0.512013
1.56655
-0.370125
-0.00409105
-0.00257522
-0.0654411
-0.0506445
-0.00568476
-0.000164901
0.217701
0.243187
-0.00215602
-0.00302663
-0.173299
-0.000201276
1.0584
-0.00844321
-0.452225
-0.167154
-0.0572818
-0.473606
-0.511807
0.969619
-0.0435143
-0.177414
-0.00287723
-0.486452
-0.179887
0.463807
1.04655
1.92055
-0.010639
-0.509406
0.13652
1.799
0.319383
-0.0010782
-0.0540546
-0.0366222
-0.0444792
-0.411815
0.713192
0.00168707
0.215798
0.0286377
0.682485
-0.0047302
-0.00110359
0.0398647
1.68619
-0.467444
1.07273
-0.0111926
-0.00184229
-2.26984e-05
-0.279982
-0.35686
-0.0030759
0.857373
0.0981835
-0.0478222
2.10643
-0.00353834
-0.0330528
-0.49488
-0.0554637
-0.0205694
0.880429
-0.252278
-0.0015049
0.141065
-0.00157411
-0.0009038
0.97646
0.075063
-0.00411183
-0.444621
-0.213859
-0.0313337
-0.0671023
0.0209495
-0.196864
0.0145423
-0.0314315
-0.549159
-0.325032
0.233296
-0.00822323
1.04495
1.26173
-0.204006
0.0914875
0.164069
-0.0384604
1.05565
0.839346
-0.243816
-0.00147217
0.0911532
-0.476642
0.145976
-0.233013
-0.0189564
0.433436
-0.237268
-0.00123995
-0.000653111
-0.0753396
-0.196654
-0.224774
0.0882865
0.399811
-0.37373
-0.00140035
-0.0124247
-0.00189024
-0.250481
-0.000216097
-0.0174271
-0.209587
-0.390442
1.07421
-0.0268202
0.0373168
-0.181224
-0.220303
-0.00116054
-0.39788
1.09594
1.00337
0.000214854
-0.001005
1.02091
-0.0226408
-0.420385
-0.345245
0.0297473
0.00430754
-0.60137
0.0971438
1.04369
-0.489197
-0.0132768
-0.063588
-0.41718
-0.00524974
-0.00219619
-0.0081654
0.236238
-0.439265
1.14832
-0.00191721
2.4742
0.427239
0.00107587
-0.00865869
0.00230895
0.00263702
-0.000130608
0.00126719
-0.455889
-0.00649006
0.00388922
-0.00180383
0.913064
-0.0509938
-0.00175592
-0.000390325
2.04809
-0.185386
0.166582
0.0100574
-0.00655855
0.523678
-0.000876806
-0.0929347
-0.0222879
0.0190914
-0.0537074
-0.000864158
-0.0018881
-0.259054
-0.303732
0.0634575
-0.115004
-0.0959936
-0.000252571
0.179981
0.264381
0.735218
-0.0154881
-0.00141483
-0.475592
-0.0544255
-0.00448526
-0.42216
-0.00123918
0.38675
-0.000776689
-0.0114951
0.614042
-0.0183837
-0.501354
2.3384
-0.0146222
0.00250327
-0.42915
-0.348213
0.0840774
0.0417744
-0.00136078
-0.2683
-0.000750382
1.20196
2.9098
0.811005
0.0267233
0.031924
-0.000169521
-0.234989
-0.000506442
-0.0505733
-0.0152811
0.00338815
-0.0300174
-0.0788969
-0.00110653
0.00768563
-0.0615031
-0.00281889
-0.0808841
-0.142372
0.0202337
-0.0101458
2.64818
-0.00618748
0.0214014
0.00220751
0.120563
-0.426979
0.0849417
-0.00160218
-0.000893876
0.0242883
-0.000980766
-0.00025205
-0.0944995
0.00621515
-0.000218273
-0.434412
-0.019288
-0.487409
-0.0147333
-0.000603794
-0.0278752
-0.0148752
-0.125279
-0.157039
0.020124
0.0047701
-0.00417444
-0.0177505
-0.000701419
1.60206
0.0137143
-0.000180721
0.00524318
-0.0181037
-0.00319808
-0.549675
-0.47072
-0.00115568
-0.0620551
0.000123369
-0.0219371
-0.00065127
0.28536
-0.00126168
-0.00165732
-0.0295686
-0.000204781
0.117624
-0.00205824
-0.0113066
0.160482
0.000111257
2.0247
-0.4551
-0.354796
-0.000223722
-0.000188516
0.0165645
-0.0106216
-0.412363
-0.00015366
-2.12753e-05
0.00656639
-2.54973e-05
0.00341828
0.00399175
-0.0040833
0.00704148
-0.451462
2.41596
-0.240946
1.89547
0.0793181
-0.135782
-0.000169882
-0.00787783
-0.106948
0.00132284
0.00257033
0.00157751
0.704451
-0.0117365
-0.00191987
2.38887
-0.0048444
0.00524731
0.00448741
-4.29504e-05
0.85147
-0.0194208
0.0100766
0.00114753
-0.00468058
-0.000606017
-0.00810709
-0.372121
-0.00371492
-0.0135169
-1.31868e-05
0.00146755
-0.00228843
1.18459
-0.00393121
-0.00241942
-0.60128
0.0332744
-0.000751153
-0.0119107
-0.000540644
1.10201
-0.621573
-0.00261307
-0.00345074
-0.0155601
-0.00136686
0.469794
0.855041
0.506742
0.00454194
-6.02855e-05
-1.03704e-05
0.533036
0.00231008
-0.524901
-0.146251
-0.134694
0.631521
2.63796
0.0171742
1.32565
-0.124298
-0.248643
1.11219
-0.00317132
-0.563112
-0.000115224
-0.0787357
-0.426007
0.000493107
-0.359087
-0.00847145
0.0314615
-0.0443826
-0.369541
-0.364605
-0.0253772
-0.493507
-0.382872
-0.00166404
-0.105053
-0.000448063
-0.322055
-0.000248423
-0.00165452
0.249529
1.07183
-1.18409e-06
-0.387931
0.0315087
0.000670462
-0.171167
5.39722e-05
-0.119235
-0.00228554
-0.332479
0.00118305
-0.000764468
-0.0177878
-0.000395046
1.04437
-0.260845
0.775077
-0.00025665
0.00560879
-0.279323
7.87659e-06
-0.489693
-0.573701
-0.482847
2.50179
-0.0567176
-0.000157917
0.22126
-0.356958
-0.0212246
-0.000209131
-0.000750558
-0.409634
0.00117972
0.00785884
-5.97741e-06
0.00146178
-0.241465
1.18287
-0.20617
0.768342
-0.0467759
-1.17374e-05
0.0604317
-0.370516
-0.000182697
-0.00012419
0.00288647
0.000576339
0.00360623
1.65477
0.292665
0.000502827
9.99075e-05
-0.579272
1.25671
1.15488
-0.000405326
-0.31068
-0.156017
-0.0832763
-0.416413
-0.0685017
-0.0255505
0.941456
-0.000354756
-0.226237
1.09483
-0.419561
-0.000143732
-0.537741
-0.00154909
1.86097
0.250085
-0.000113543
-0.000239886
1.21266
3.50348e-05
-0.00161759
-0.101671
0.000115974
1.56218
0.0319858
-0.0639677
-0.572477
-0.0329145
-0.489125
1.17301
-0.0490208
0.126572
0.00885548
-0.00016985
-0.00895152
-6.2019e-05
-0.000137041
0.275472
1.16323
0.993079
-0.00386766
1.46135
-0.0793495
7.03388e-05
-0.396286
-0.00014905
-0.237502
0.257519
-0.116294
0.0397767
0.0160516
-0.0810866
0.00225507
-0.0146201
0.181164
-0.0252103
-0.000408516
0.00026269
-0.000534445
0.258425
0.000486893
-0.171127
1.52813
-0.0518883
0.00045007
-0.0301212
-8.29452e-05
0.920819
-0.00313811
-0.000568752
-0.00074457
-0.000117145
1.30782
-0.00134711
1.50754
-0.513737
0.00103309
-0.420092
-0.00421229
1.03288
2.45242
-0.012321
2.18494e-05
0.00014454
-0.000186072
1.04133
7.17067e-06
0.00918415
-0.20689
1.4339
6.12876e-05
0.000136718
2.55152e-05
0.000221295
-0.176307
1.70967e-05
1.78504
-0.129507
-0.00107314
0.00026483
-0.0179592
-0.251387
1.23758e-05
-0.000489191
1.08987
0.000295932
-0.27303
-0.217688
0.00120475
8.84388e-06
-0.291341
1.1699e-05
1.10532
0.000130673
-0.00386886
0.000105767
-0.00152768
0.661314
2.85116e-05
-0.0142644
7.46868e-05
0.12733
-0.0293617
-0.0554744
0.00998451
1.0155
-0.00233515
-0.000693537
-0.0768162
-0.0742707
-0.00211507
-0.000449081
-0.0077395
0.000356802
1.37436
-0.0846464
2.48524
-6.3473e-06
-0.0661775
-0.00133965
0.976788
0.000502269
-0.219271
0.000209716
-0.0137423
-0.285317
-0.00202099
-0.134955
-0.422359
0.0461269
-7.22893e-05
-0.401117
-0.00291179
-0.00254937
-0.0479393
-0.0772795
0.0112448
-0.000416037
-0.00378341
-0.00774846
-0.0110984
0.000117362
-0.0105059
2.3792
0.000861381
-0.0281816
-0.298728
-0.643856
-0.546053
-0.411451
-0.184848
-0.00451206
-0.0988296
0.000674627
-0.000702001
2.42234
-0.000812311
1.26323
-0.00393254
0.0036144
-0.00985903
-0.185579
-0.00362754
0.00754879
-0.0001304
-0.00341304
-0.000127211
-0.000685574
-0.12822
-0.000946953
-0.000227991
-0.000716893
0.00133055
-8.5001e-05
-0.357221
1.65937
-8.86508e-05
-0.00523799
0.000304409
0.000271498
-0.00727605
8.35379e-05
-0.00786675
0.0025654
-0.00317166
-0.55781
-0.00601207
-0.0158127
4.44249e-05
-0.0129066
0.00297682
-0.000133273
-8.68852e-05
0.000121526
-0.00690325
0.00491497
-0.374294
-0.216722
-0.566076
0.00546579
-0.0150207
0.230734
-0.570776
-0.000818645
0.143003
0.0614763
-0.00908679
-0.101026
-0.489417
2.28676
-0.00368726
-0.000133391
0.00776625
0.000433459
0.000158827
0.545328
0.0333864
0.616969
-0.262223
2.20592
-0.00454434
1.84726e-05
0.00136983
-0.000157791
-0.011796
1.08087
1.34299
-4.66169e-05
-0.00148615
-0.000145379
1.29075
0.202243
-0.0361875
0.00010755
0.000172674
0.0624118
-0.00603202
-0.600507
-0.141475
0.000214684
0.0304404
-0.249444
-0.000516551
0.0156156
-0.000571463
-0.393105
-0.0152036
1.01994
0.000150493
0.0144259
0.00148051
0.000134386
0.00155117
-0.194496
0.000133087
-0.00790401
0.000200263
-0.165255
-0.392998
-0.024152
-0.0491906
-0.0736836
0.0772792
-0.0741522
-0.0213286
0.000588874
0.000956542
0.000181863
0.000159277
-0.000482599
0.079849
-0.449569
0.00442918
-0.279606
-0.0265185
-0.355861
0.000766813
-1.74094e-05
0.0113264
0.21393
0.000162772
-0.291419
-0.120146
0.748171
-0.263324
0.000234131
-0.0293806
0.00174115
-0.0170854
0.891179
0.000103602
-0.493256
-0.179338
-0.0361099
0.000334709
-7.63464e-05
0.283698
-0.14017
0.000212342
-0.0577638
-3.2087e-05
0.00192974
0.854381
-7.49899e-05
3.37264e-05
-0.000733773
0.000304626
0.00780078
0.000782508
-0.0440314
0.00209763
-0.105923
0.00960536
-0.00181213
-0.24126
-0.358014
-0.0532383
-0.00013333
0.000191236
-0.409902
0.0497751
-0.402679
0.000257033
-0.0438585
-0.00031948
0.000217152
0.610299
-0.0593924
-0.0238079
-4.11336e-06
-0.145498
0.000438312
-0.567662
0.000238727
-0.642799
0.000172451
-5.41834e-05
0.00074906
0.00883829
-0.0987767
-0.15267
-0.570665
0.00014378
0.000864965
-0.660193
-0.159712
-0.0716102
-4.22985e-05
-0.000441851
-0.397928
-0.674664
3.51326e-05
-6.75303e-05
4.67631e-05
-0.197403
-0.54193
0.00626048
-0.0925384
-0.000475869
1.60421
0.000829033
0.000131301
0.00136231
-6.71971e-05
-7.32883e-05
-0.0307976
0.00102653
-0.0218265
-0.512928
-0.109361
-0.50706
0.000357077
-0.000438375
0.470872
-0.227372
-0.0398663
0.782992
5.12125e-05
-0.000114979
-0.00010612
1.05016
0.00156312
1.77331e-05
-3.56942e-05
-0.429645
-0.129363
5.85451e-05
0.000736991
-0.0775856
-0.0540328
0.00375391
1.3596
-0.450323
0.00193564
2.9314
-0.000145154
-0.00587968
-0.0654526
-0.692195
5.94512e-05
-1.17812e-05
0.000191584
0.0419116
-0.234771
-0.00288502
-0.409552
-0.0654178
0.000245616
-4.1998e-05
-0.0852869
0.0408372
0.194408
0.0122021
-0.388727
-0.327162
0.34332
-0.215809
-0.000537804
0.00316485
0.194986
0.00475095
-0.000657383
0.00665242
0.000277286
-0.000755452
-0.100709
-0.000105464
-0.000236455
0.355736
0.0814327
-0.00137409
-0.00031273
-4.59864e-05
1.45587
-0.0554931
0.00684974
-0.226707
0.00205293
0.00177917
0.00153866
-0.000412395
0.00431955
-0.31171
0.166888
-8.131e-05
-0.00138874
-0.332704
-0.240566
0.370701
-0.00422272
0.0156262
0.149084
1.96336e-05
0.00054194
-0.331771
0.000196157
1.05956
8.47861e-05
0.0358025
0.00149684
0.00199692
-0.609772
-0.0613991
-0.148966
-0.020493
0.000233314
0.0602516
0.455987
-0.102201
-0.00115031
0.665048
1.03338
3.20453e-05
-0.439912
-0.00056473
-8.46704e-05
-0.000381767
-0.00486696
0.163553
-3.69841e-05
0.00221088
-0.204044
-0.215522
-0.184516
1.72754
0.000165251
-0.000588302
1.08071
0.00510094
-0.0320047
-0.00560529
1.0637
0.000397905
-0.00265657
0.0004186
0.000250302
0.000275856
0.000317003
0.000644981
-0.149829
7.74278e-05
-0.0277827
-0.380501
1.49619
-0.00119449
-0.000423556
0.0403086
0.603648
-0.315839
-0.00644045
-0.60693
1.72983
0.000377296
2.12202
-3.94653e-05
0.0288623
0.200701
0.00388577
2.23366
-0.000102016
-5.36797e-05
0.0100163
0.000271098
-0.00738538
0.00232526
0.000104448
-0.0167049
0.000107805
-0.00124898
-0.0280384
1.43418
0.430884
0.181462
-0.37548
-4.5902e-05
-0.000147975
0.0297904
-0.390029
-8.21031e-05
-0.39975
-0.000455318
0.72135
0.461068
-0.266644
-0.0114993
-0.0932878
-0.00848282
-0.124029
0.0418684
-0.0585113
0.493013
1.92148e-05
1.67288
0.502016
-0.00492791
1.31909
-0.112147
-0.000108348
0.000214961
0.000582864
-0.00180488
-0.00103816
1.43901
-0.00838078
1.46872
-0.00875504
1.05642
1.3846
1.02678
-0.0590822
-4.10569e-05
0.0005917
-0.0892664
-0.389694
-0.394083
0.0127631
0.000184689
-0.325699
-0.00264142
9.52394e-05
0.00871931
-0.00917208
-0.00527828
0.266677
0.000655349
-0.419835
0.468052
0.000506217
0.00240574
-0.111221
-0.440867
-0.00628098
-0.00445693
0.000120026
0.00223122
0.946502
-0.137097
-0.386343
0.0112106
0.911663
-0.324711
0.000318168
0.000202826
0.348236
-0.000738125
0.80855
0.0301834
-0.114051
-0.00327041
0.0139337
-0.293923
-0.000262115
0.00439598
0.0838786
-0.641197
1.14171
-0.545543
-0.224849
-0.00139642
-0.000390214
0.0566097
0.000411549
-0.656778
-0.547501
0.00501891
0.0302428
0.0320422
-0.438794
0.00570117
0.00171905
0.000343869
-0.341794
0.000253123
0.00497611
0.823003
1.13099
-0.418626
0.374717
0.379268
0.313156
-0.00133638
0.11356
0.00108528
7.68358e-05
-0.000602876
-6.6994e-06
0.000238517
-0.00306347
-0.0644315
-0.171682
-0.0823804
-0.223931
0.416175
0.345889
0.0349981
-0.520323
0.00145164
0.0415222
0.0977352
-0.00332514
0.591638
-0.00978449
-0.0904512
0.106658
0.0465108
0.0100713
-0.0341787
0.366983
0.00713844
-0.166637
-0.137467
2.55869
-0.202252
0.622583
0.39517
-0.282706
0.0185386
0.000936463
-0.0221576
0.000520226
-0.0225112
-0.210024
-0.000589635
-0.000365994
1.73009
-0.0279663
-0.357682
-0.159654
0.00177944
-0.0108041
-0.000194309
7.16583e-05
0.337741
0.000354217
-0.0251069
0.604431
0.0554326
0.00962425
0.159561
-0.048801
0.0361803
-0.299451
0.00753583
-0.0376747
-0.476301
-0.00729461
-0.0685331
0.00654879
0.0133134
0.00850696
0.334708
-0.00266607
0.0486526
-0.472628
-0.172249
0.00274882
-0.473444
-0.126875
-0.146425
0.000938489
0.0562823
-0.500216
-0.00721622
-0.040778
-0.441328
0.00695955
-0.0100229
1.37923
-0.158404
-0.00036209
0.0695337
-0.399406
-0.00901811
1.20977
-0.0169195
0.008744
0.438911
-0.0122853
0.0723475
0.853454
0.000587421
0.0100285
0.00158783
0.000349422
-0.0378878
-0.0559218
-0.00108928
-0.205183
0.730591
-0.32333
-0.518282
0.0100082
-0.0278124
-0.0050738
-0.169983
0.000256228
0.160885
0.000427907
-0.134413
-0.0167106
-0.0419309
0.587652
0.881166
-0.540517
-0.000447245
1.32614
-0.0160791
-0.0189564
-0.522058
-0.552443
-0.130579
-0.000255911
-0.0090655
0.0617316
-0.0262728
-0.0401892
0.00379523
0.645767
-0.329456
-0.0942699
-0.0567703
0.254217
-0.0114867
-0.00148104
0.0144753
-0.000183757
-0.0263842
0.854323
0.00685807
-0.330229
-0.00047403
-0.0625073
-0.0271233
-0.569086
-0.0966414
-0.593822
-0.000542676
-0.000524341
-0.0219735
0.0922407
0.0163527
-0.583129
0.696131
-0.406616
0.00167721
-0.571196
0.000117832
-0.541474
-0.215217
-0.3684
-0.283057
-0.170818
0.094242
0.527536
0.675427
0.810403
0.947993
1.08018
1.44435
1.55506
1.66376
1.84555
-0.0684778
-0.0614237
0.58257
-0.116392
0.00778663
0.179843
-0.342686
0.00458701
-0.00534527
-2.64331e-05
-0.117916
0.148491
0.000390221
-0.00260268
-0.0887889
-0.00426119
-0.448297
-0.0815783
-0.475692
-5.72193e-06
0.00498552
-0.000455315
-0.316442
-0.0726589
-0.301065
-0.0646021
0.0147626
0.00199011
0.0402316
-0.000280839
0.00694467
-0.000103255
0.00330424
-0.0345936
-0.0966993
-0.00193962
0.00289288
0.373369
-0.0858135
0.561697
-0.503885
-0.0483734
1.3275
-0.158382
0.0321748
-0.180166
-0.0274899
-0.104983
-0.0987242
1.85156
-0.0101464
0.000622722
-0.0486542
-0.0728919
2.7706e-05
0.584137
-0.0328429
1.76567
0.376633
-0.392129
-0.22596
0.429845
-0.0370811
-0.000415937
-6.61123e-05
-0.0352508
-0.407149
0.000509264
1.99375
-0.0234524
-0.0410155
-0.000660764
-0.00323365
-0.0482947
1.20627
0.151709
0.82862
0.00567727
-0.120012
-5.65693e-05
0.221131
-0.0609506
0.160818
-0.014224
-0.0457997
-0.0054079
0.0111411
0.101762
-0.000105259
-0.0752704
0.00477526
-0.00333689
0.00406615
-0.0261743
0.00196514
0.961729
-0.0889057
0.0331871
-0.136687
0.518354
-0.219453
-0.0910488
0.386959
-0.154387
1.136
0.15212
-0.0287781
-0.426347
-0.00559787
-0.000405565
0.00386817
0.000799946
-0.0175852
0.0377244
0.000778296
-0.108164
0.179883
-0.0260967
0.000380535
-0.0279054
-0.35841
0.98241
-0.269353
-0.388736
0.068949
0.645669
-0.0106093
0.685867
-0.0983784
0.0445904
0.291037
-0.481984
0.760775
-0.000446317
-0.242403
0.00988095
-0.0127475
-8.28416e-05
-0.05047
0.79987
0.00760185
1.41443
-0.174359
0.289523
-0.132522
0.00122385
-0.011592
0.501252
-0.194489
1.43767
0.322663
0.19998
1.09972
-0.350442
-0.0359479
-0.537163
0.00649999
-0.28561
1.01477
-0.0241952
1.94436
-0.0110964
0.648339
0.000877932
0.703749
0.961453
0.034739
-0.165755
-0.00314532
-5.03617e-05
0.0446888
0.0184044
-0.329022
-0.299761
-0.0473948
-0.341875
1.04987
0.430469
-0.268459
-0.127022
9.41466e-05
0.0357678
1.66505
0.0391445
1.05888
-0.490684
0.0451412
0.000748551
0.00334288
-0.169376
-0.00951366
-0.0216566
-0.257744
-0.00521041
0.0299277
-0.239399
-0.327223
1.53609
-2.78565e-05
-0.147397
0.00160923
-0.212418
-0.0029823
-0.461235
0.842728
-0.272574
-0.192401
-0.0118066
-0.125657
-0.00553197
-0.0433869
0.592115
-0.219783
-0.000155717
-0.0558876
-0.0308898
-0.00304929
-0.0194778
0.102761
-0.0884566
-0.282993
-0.00033056
0.990021
-0.207069
0.0590086
-0.00311147
-0.0654773
-0.00308843
0.0518905
0.00252653
-0.196949
-0.000846708
-0.313657
0.0241017
0.000184109
-0.0857693
0.00263263
-0.0768425
0.011602
1.07948
0.0103416
-0.0785743
-0.0749245
0.0336843
0.841277
-0.121046
-0.0318072
-0.1228
0.00285293
0.82042
0.375284
0.0109207
0.00103847
0.41202
-0.366291
0.0228993
-0.2166
0.015789
0.00320357
0.304608
-0.22955
-0.10799
-0.0928966
2.00349
0.21773
0.0803903
0.264573
-0.00364977
0.000225388
0.015796
0.0271918
1.09977
-0.0281341
0.178117
0.000887472