/*--------------------------------*- C++ -*----------------------------------*\
  =========                 |
  \\      /  F ield         | OpenFOAM: The Open Source CFD Toolbox
   \\    /   O peration     | Website:  https://openfoam.org
    \\  /    A nd           | Version:  7
     \\/     M anipulation  |
\*---------------------------------------------------------------------------*/
FoamFile
{
    version     2.0;
    format      ascii;
    class       volVectorField;
    location    "2";
    object      U;
}
// * * * * * * * * * * * * * * * * * * * * * * * * * * * * * * * * * * * * * //

dimensions      [0 1 -1 0 0 0 0];

internalField   nonuniform List<vector> 
7807
(
(1.03441 0.0773158 3.87491e-20)
(1.03134 -0.0244634 1.73219e-20)
(0.993867 0.0556944 -6.91794e-20)
(1.01825 0.0387881 1.0345e-19)
(0.999441 -0.000549214 -2.27367e-22)
(0.999977 -8.30186e-06 -2.57247e-23)
(0.990652 0.0480653 -1.33488e-19)
(0.997042 -0.00110839 -4.95248e-23)
(0.999918 -0.000111525 -4.26759e-23)
(1.01445 -0.00148991 -5.12155e-21)
(0.999979 -9.32365e-06 2.83398e-23)
(1.00131 -0.000843117 -9.08087e-22)
(0.995358 -0.00162673 2.35827e-21)
(1.00919 -0.00112491 -3.43998e-20)
(1.01339 -7.33408e-05 2.16275e-20)
(0.994663 -0.00853269 -4.49049e-21)
(1.03464 0.0826892 -8.1628e-20)
(0.993834 -0.00206632 -8.29064e-22)
(1.00151 -0.00516608 -3.48895e-22)
(0.991056 -0.0572151 -3.37053e-21)
(1.01934 -0.000421516 -1.20467e-20)
(1.00084 -0.000347019 1.70279e-21)
(1.0101 -0.00231295 3.04823e-21)
(1.0066 0.0166236 -5.32799e-20)
(0.991755 -0.00254695 -3.8079e-21)
(1.0321 0.0758964 -3.82704e-20)
(0.999428 -0.000522339 -1.63194e-22)
(1.01414 6.03933e-06 1.34983e-20)
(1.0038 0.00889459 -7.00072e-21)
(1.00177 -0.00582046 2.88454e-22)
(0.993254 -0.00935467 -8.44798e-21)
(0.93742 0.0177395 1.84003e-20)
(1.00877 -0.00250179 1.87776e-20)
(0.999724 -0.000233103 2.87495e-22)
(0.999938 -1.10908e-07 5.69409e-25)
(1.01267 0.000454221 7.58536e-21)
(1.00278 -0.00619874 3.34856e-22)
(0.991412 0.0446978 -2.14897e-20)
(0.998508 -0.00484861 3.75956e-21)
(0.999799 -2.75652e-05 2.73627e-22)
(0.998301 -0.00481503 -4.38171e-22)
(0.995053 -0.0075168 -1.71694e-21)
(1.00646 -0.0632006 1.26955e-20)
(1.09057 -0.0284126 -2.93202e-21)
(0.99988 -1.65309e-06 8.84948e-23)
(0.999954 -1.22396e-05 -2.52005e-23)
(1.0007 -0.000322286 -1.04096e-21)
(0.99752 -0.00377724 -2.21956e-21)
(0.999962 -1.88037e-05 -2.04551e-23)
(0.993649 -0.0575378 4.82676e-21)
(1.00187 -0.000734742 9.87666e-22)
(1.01403 0.000664938 -1.40323e-20)
(0.989296 -0.00304912 -1.28366e-20)
(1.00701 -0.0186999 8.574e-22)
(1.01149 -0.00118987 -4.6338e-21)
(0.99736 -0.00158146 -4.31435e-22)
(1.00076 -0.00545587 7.30282e-22)
(0.997198 -0.000893561 3.22316e-21)
(0.986901 -0.0112838 -1.51457e-20)
(0.999737 -0.000212592 -3.68826e-22)
(1.00002 -1.43889e-05 -3.78214e-23)
(1.00247 -0.000541285 1.10606e-21)
(1.01023 -0.000850685 -8.0489e-21)
(1.0014 -0.000772118 9.18871e-22)
(0.999478 -0.000137538 5.25254e-22)
(0.993095 -0.00991207 1.54373e-21)
(0.999948 -0.000118087 3.295e-23)
(1.00001 -1.31171e-06 2.60931e-24)
(1.08872 0.0485848 2.42155e-20)
(0.997473 -0.0038665 -6.43509e-22)
(0.999959 -1.23679e-05 2.23862e-23)
(0.983063 -0.034627 -2.618e-20)
(0.992012 -0.00270207 1.84878e-21)
(0.985244 -0.00320291 2.55209e-21)
(0.993987 -0.00219581 2.59438e-21)
(0.97974 -0.016428 -3.3611e-21)
(0.995558 0.0570172 1.11003e-19)
(1.0181 -0.000796316 1.52443e-20)
(1.05014 0.000783153 -3.49266e-20)
(0.973425 -0.0284 -3.48581e-20)
(0.995535 -0.00173317 -3.62097e-21)
(0.998605 0.0261758 1.33325e-19)
(1.02019 0.00455049 3.49601e-20)
(0.984539 -0.00616392 1.16964e-20)
(0.999227 -0.00148071 -3.71203e-22)
(0.99865 -0.000177004 3.8183e-22)
(0.996876 -0.00144826 4.445e-21)
(0.989622 -0.00333629 8.2591e-21)
(0.99961 -0.000698671 2.4629e-22)
(0.997465 -0.000446413 1.37476e-21)
(1.00377 0.0101723 5.13985e-20)
(1.11086 -0.0172279 5.4799e-21)
(0.999928 -3.37687e-05 -5.37039e-23)
(1.00113 -0.0045483 2.88399e-22)
(0.997966 -0.000611167 1.24676e-21)
(0.984438 -0.00224118 -2.03562e-20)
(0.984764 -0.0341151 1.77214e-21)
(1.00758 -0.017563 -1.68004e-22)
(0.999302 -0.00148562 1.22573e-22)
(0.999397 -8.00734e-05 1.74831e-22)
(0.97049 -0.0101297 9.02459e-21)
(1.05151 0.0048056 2.79207e-20)
(0.998137 -0.000738135 -3.10969e-21)
(0.999984 -5.86593e-08 -2.18533e-24)
(1.11396 -0.00926408 3.6855e-21)
(1.01671 0.0156648 -4.94824e-20)
(0.963697 0.0141244 2.15463e-20)
(0.997124 -0.0014959 -1.79041e-21)
(0.999995 -1.20146e-06 5.52108e-25)
(1.01451 -0.00676228 -6.8462e-21)
(1.02263 0.0367518 -1.20151e-19)
(1.0166 -0.0475545 -1.18555e-20)
(0.999993 -1.08563e-06 -8.1078e-25)
(1.01637 -0.00621711 -1.50044e-21)
(1.01421 0.0157171 5.19783e-20)
(1.00021 -0.000315049 -8.20543e-23)
(1.04093 -0.0541102 2.1676e-22)
(1.01732 0.00903219 -1.21506e-20)
(0.99011 -0.0268252 1.1073e-20)
(0.98481 -0.00390074 -2.64572e-21)
(0.968478 -0.00670671 -2.18655e-20)
(1.00031 0.0236975 -8.66525e-20)
(1.00998 -0.061424 -1.75014e-20)
(1.00495 -0.00423616 5.96874e-22)
(0.969648 -0.00768613 8.62047e-21)
(0.999467 -0.000767971 5.4866e-22)
(0.992667 -0.00685081 2.75806e-21)
(1.00184 -0.00530256 -5.05476e-22)
(0.999434 -0.000136 -1.1708e-21)
(0.992033 -0.00827773 1.33366e-22)
(1.13724 -0.0302901 9.73883e-22)
(1.04587 -0.000327514 5.85668e-21)
(0.999663 -0.00029085 3.1211e-23)
(0.999555 -0.000715909 -4.77724e-22)
(0.98378 -0.00567869 3.47399e-21)
(1.02097 0.0286943 4.49004e-20)
(0.994882 0.0184148 1.48603e-19)
(0.999985 -2.46902e-06 -2.5388e-24)
(1.00484 -0.00160502 4.61964e-22)
(0.956717 -0.00759268 -2.76616e-20)
(0.985923 -0.00207389 -1.04423e-20)
(0.993584 -0.0373858 -1.52359e-20)
(0.980035 -0.01771 4.55232e-21)
(0.985843 -0.00291194 -2.29319e-22)
(0.962144 0.0122947 8.28215e-20)
(1.00769 -0.0272674 -4.55467e-22)
(1.00759 0.00949916 -2.63457e-20)
(0.988111 -0.0140801 -7.68171e-21)
(0.979041 -0.0036687 2.90578e-21)
(0.99945 0.0248026 -4.32747e-20)
(1.01362 0.00234979 1.93764e-20)
(1.10247 -0.0182279 3.78646e-21)
(0.999046 -0.00115653 -1.28222e-21)
(1.0936 0.0413612 5.08313e-21)
(1.02019 0.00347441 -3.61714e-20)
(1.00031 0.0472099 -1.11036e-19)
(0.976026 -0.0191879 1.40078e-20)
(0.995389 -0.00102924 7.96238e-22)
(0.96929 0.0330987 1.90592e-19)
(0.999964 -1.35851e-05 -1.91974e-23)
(1.00074 -0.00459372 -2.34522e-22)
(1.00729 0.018905 3.80994e-20)
(0.999988 -1.13352e-05 1.25353e-23)
(0.998999 -0.00305664 -1.74572e-21)
(0.997787 -0.000623864 -5.97088e-22)
(1.00267 0.0197485 -1.22755e-20)
(1.00179 0.0215447 4.51034e-20)
(0.963388 0.0389425 6.31469e-20)
(0.999105 -0.00305967 -1.11055e-21)
(0.998145 -0.000187833 -6.67472e-22)
(1.00001 -1.09753e-07 -2.43712e-24)
(0.966454 -0.00457264 -3.78215e-20)
(1.00019 -0.000285586 1.12715e-22)
(1.03476 -0.0224324 -2.02109e-20)
(1.00506 -0.00182148 3.10823e-21)
(0.979333 -0.004276 6.02235e-21)
(1.10754 -0.00148232 1.01516e-20)
(1.05797 0.0451795 1.93943e-21)
(0.999923 -3.43463e-05 2.94283e-23)
(0.999682 -0.000382294 -3.2646e-22)
(1.01576 0.0399878 -1.8174e-20)
(0.999965 -1.26776e-05 -9.33871e-24)
(0.999935 -6.08841e-06 1.40153e-23)
(0.990316 0.0489224 -1.11001e-19)
(1.03059 -0.0260583 7.07533e-21)
(1.00872 -0.0387119 -7.64246e-21)
(0.991421 -0.0260901 -1.56925e-20)
(0.986196 -0.00444159 7.60364e-21)
(1.00585 -0.0286298 7.14647e-22)
(0.957781 -0.00625936 1.45004e-20)
(0.999988 -1.12042e-05 -4.45282e-24)
(0.984819 -0.0319731 -6.21882e-21)
(1.06125 0.0509239 -4.3048e-20)
(0.998087 -0.000860451 4.46799e-22)
(1.00005 -2.14602e-06 -2.88131e-23)
(1.0409 0.045868 4.06262e-21)
(0.999299 -0.000213386 1.23762e-21)
(0.992477 -0.0085392 4.41418e-21)
(1.00483 -0.0274127 2.47324e-21)
(1.00001 -1.96851e-06 -1.07351e-24)
(1.00042 -0.00121825 -4.52141e-22)
(1.01859 0.0292768 5.45331e-20)
(1.04702 0.0519331 -5.28282e-20)
(0.997439 0.0410771 -1.48498e-20)
(1.03858 -0.0513144 2.24502e-21)
(1.01759 -0.0450637 2.93159e-21)
(1.06979 -0.0760775 -5.73945e-22)
(1.01309 -0.00293541 3.98692e-20)
(1.01632 0.0312524 -1.78183e-20)
(0.999874 -1.09973e-05 -1.04159e-22)
(1.00003 -1.10113e-05 9.9989e-24)
(0.973579 0.00579349 -8.33969e-20)
(0.995884 -0.00759159 -1.60272e-21)
(0.999661 -0.000269736 -3.09753e-22)
(0.986249 -0.0312997 1.28563e-20)
(0.992246 -0.00720218 -3.20111e-21)
(1.00618 0.0422209 -1.26763e-19)
(1.00275 0.0417162 -2.68386e-20)
(0.991121 -0.0386437 4.27912e-21)
(0.94721 0.0262771 -7.02276e-20)
(0.99936 -0.000263297 -9.08838e-22)
(0.993983 -0.00149973 2.94682e-21)
(0.969301 -0.00922329 1.19209e-20)
(1.01971 0.00222567 -8.45326e-21)
(1.00924 -0.0780983 -1.78043e-21)
(1.04792 0.0796616 -8.61426e-20)
(0.969705 0.0293911 -1.63287e-19)
(1.00004 -6.41433e-05 3.21944e-23)
(1.00499 -0.00435619 1.52639e-21)
(1.01584 0.0111521 6.54285e-20)
(0.997772 -0.0034199 -2.8717e-21)
(1.01852 0.00988582 -8.36219e-21)
(0.99969 -0.00073238 -7.80483e-23)
(0.953469 0.0425684 1.26668e-19)
(1.00065 0.0431225 2.38993e-20)
(0.996946 -0.00117769 2.82766e-21)
(1.00249 -0.0047464 -7.00177e-23)
(0.999806 -5.90336e-05 -5.09435e-22)
(1.07176 0.0651606 2.30912e-20)
(0.999942 -1.25749e-05 4.1191e-23)
(0.996711 -0.00646593 1.27974e-21)
(0.962542 -0.0184075 1.61539e-20)
(0.999957 -1.44533e-05 -9.30905e-24)
(0.999346 -0.00167405 -3.16982e-22)
(0.999763 -0.000740771 1.4332e-22)
(1.0356 0.0256656 5.06331e-20)
(0.999989 -1.41834e-05 1.49784e-23)
(0.997364 -0.000366604 1.47735e-24)
(0.974686 -0.0280778 4.03974e-20)
(0.937277 0.0124502 -4.04572e-20)
(1.04602 -0.00328541 -7.84046e-21)
(0.95801 0.028865 9.62992e-20)
(0.999974 -7.55456e-06 -2.35368e-23)
(1.00411 -0.0282912 -2.30087e-22)
(0.999893 -0.000177341 -1.15763e-22)
(0.997419 0.0491758 -1.10179e-19)
(1.00196 -0.000326678 -1.42449e-21)
(0.993343 0.0162233 4.90495e-20)
(1.00202 -0.00636566 -1.38719e-21)
(1.00035 -0.00113479 4.82399e-22)
(1.01734 -0.0206349 -4.72759e-21)
(1.01295 -0.00174251 -3.69356e-20)
(1.00032 -0.000193818 2.34273e-22)
(0.999868 -3.54195e-05 2.67752e-24)
(1.00027 -0.000264581 5.29078e-22)
(0.997693 -0.00365808 -2.53798e-21)
(1.01193 -0.0417511 7.57466e-21)
(0.999975 -9.39566e-06 1.59376e-23)
(0.977031 -0.018544 9.76923e-21)
(0.997875 -0.000757848 -1.10725e-22)
(0.999911 -3.69011e-05 5.68816e-23)
(0.999667 -0.000333289 1.00533e-22)
(0.989028 0.0292465 1.1898e-19)
(0.995283 -0.000536942 1.15223e-21)
(0.999577 -0.000112138 -1.05246e-22)
(0.947922 0.00638597 1.5522e-19)
(0.999301 -0.00168577 -7.16022e-22)
(1.03105 0.0576186 -4.48946e-20)
(0.999882 -0.000176759 2.08907e-22)
(1.00536 -0.0148621 8.75556e-22)
(1.00001 -4.41e-07 -8.81327e-25)
(0.989357 -0.0220464 -6.51319e-21)
(1.01972 0.00264794 1.29523e-20)
(1.10995 0.00427646 -2.54699e-20)
(0.986901 -0.0119681 1.27759e-20)
(0.999783 -0.000401762 3.78139e-22)
(0.989684 -0.0484582 8.05164e-21)
(0.990012 -0.00017638 5.38171e-21)
(0.999888 -2.16842e-05 5.26748e-24)
(1.00024 -0.000222773 -4.68407e-22)
(0.998756 -0.00205203 9.65653e-22)
(0.995289 -0.000826308 -3.4489e-21)
(1.00199 -0.000486457 -1.69296e-21)
(0.999296 -0.00125364 4.59698e-22)
(0.985384 -0.00568938 1.83237e-21)
(1.01521 -0.0383608 -5.79411e-21)
(0.985544 -0.00474629 8.16313e-21)
(1.08516 -0.0240345 1.01071e-21)
(0.980566 -0.0052828 -1.0522e-20)
(1.00603 0.0573396 1.26615e-20)
(1.00345 0.0596328 -9.37772e-20)
(0.999182 -0.000475726 -7.89727e-22)
(1.12545 0.000748474 2.9381e-20)
(0.99999 -2.41204e-06 -1.47237e-24)
(0.998682 -0.00240713 -1.16197e-21)
(0.984368 -0.00151654 2.09456e-20)
(1.00488 0.0134839 3.17511e-20)
(1.02375 0.00534946 -3.35737e-20)
(1.00006 -2.6052e-05 6.50212e-23)
(0.99867 -0.00247677 -7.64075e-23)
(0.981393 -0.00585838 7.92848e-21)
(1.02889 0.0228459 -1.96156e-20)
(0.999451 -0.000755505 4.09985e-22)
(1.00197 -0.000613874 9.48454e-22)
(1.00074 -0.000554655 -8.44693e-23)
(1.07361 0.0136118 3.64692e-20)
(1.13756 -0.0388599 3.59331e-21)
(1.0132 0.0705605 6.25969e-20)
(0.999096 -7.15098e-05 -7.74179e-22)
(1.03888 -0.0258532 -1.75825e-20)
(0.999934 -4.43644e-05 -4.66024e-23)
(1.00301 -0.00431416 -3.40539e-21)
(0.999967 -7.21939e-06 -6.63738e-24)
(0.990999 -0.0131446 2.13939e-21)
(0.999802 -4.57331e-05 -9.78675e-23)
(1.00753 -0.0129742 8.20294e-22)
(1.14149 0.00141563 -2.41296e-20)
(0.983706 -0.0173807 1.51485e-20)
(1.00561 -0.0138617 -5.2584e-22)
(1.00496 -0.003666 -2.03161e-21)
(0.999579 -0.00012281 4.70487e-22)
(1.01631 -0.0109602 4.90424e-21)
(0.997579 -0.0115084 1.82882e-21)
(1.04735 0.00857443 -1.54958e-20)
(1.03275 0.0252759 2.2852e-20)
(1.10384 -0.0854602 -4.6476e-22)
(1.09004 -0.0325821 5.49674e-21)
(0.989898 -0.000504512 -5.76647e-21)
(1.00294 -0.00215948 3.05689e-21)
(0.963926 -0.0173894 -6.26553e-21)
(0.960997 0.0385526 -1.9547e-19)
(1.07345 -0.0342361 -1.1812e-20)
(1.01525 -0.00597986 -1.8204e-20)
(0.949902 0.0279218 -9.61459e-20)
(0.999086 -1.63711e-05 3.81512e-22)
(0.998981 -0.00060604 -2.44108e-22)
(1.10086 -0.0249198 6.83683e-21)
(0.999363 -0.0012235 -2.49292e-22)
(1.0076 -0.025556 3.76002e-22)
(1.00353 -0.00132785 1.04213e-21)
(0.998245 -0.000374072 -5.91636e-22)
(0.998661 -0.000341479 -9.44352e-22)
(1.01681 0.0159101 3.81689e-20)
(0.99996 -9.70282e-05 -3.14232e-24)
(1.00028 -0.000141262 -2.08367e-22)
(1.00005 -1.24672e-05 4.91094e-23)
(0.998011 -0.000649377 3.22477e-21)
(0.99593 -0.0054318 3.54813e-21)
(0.999989 -2.86164e-06 1.13938e-24)
(0.999376 -0.000161035 9.94164e-23)
(0.987379 -0.0106757 4.52268e-21)
(0.975685 0.00738568 5.1837e-20)
(1.0069 -0.0145764 -6.85242e-22)
(0.995934 -0.00648 5.65411e-21)
(0.979047 0.030875 2.27421e-20)
(1.00026 0.0237898 7.90542e-20)
(1.04009 -0.00113227 -1.25936e-20)
(1.11877 0.00480765 -1.14825e-20)
(0.965914 -0.00338116 2.06365e-20)
(1.00307 -0.00231577 -1.51994e-21)
(1.00425 0.022945 -4.326e-21)
(0.993235 -0.00168996 -7.0373e-21)
(1.01851 0.0556493 2.1412e-21)
(1.00574 -0.0314457 3.78762e-23)
(1.02196 -0.0704215 -5.30582e-21)
(1.04535 0.0511429 3.22591e-20)
(1.01941 0.0593455 -5.57888e-20)
(0.978216 -0.016075 2.20402e-20)
(1.02682 0.00447524 -2.20846e-20)
(1.05 0.0823983 8.11952e-20)
(1.02801 0.0578426 8.28095e-20)
(1.01297 -0.00175258 1.26091e-20)
(0.998258 -0.000944698 7.02376e-22)
(0.997503 -0.00139891 6.14067e-22)
(0.999945 -1.03432e-05 -2.21047e-23)
(1.01044 -0.0169502 1.21191e-21)
(0.993247 -0.00143728 1.6642e-21)
(1.00058 -0.00159975 -3.95442e-22)
(0.999935 -1.47983e-05 -4.12891e-23)
(0.998989 -0.000478852 3.07176e-22)
(0.988202 -0.0478661 -1.31664e-20)
(1.06452 0.0216198 1.48635e-20)
(0.989462 -0.00385332 -9.28175e-21)
(0.99955 -0.00813736 1.9145e-21)
(0.997845 -0.000376893 -1.71245e-21)
(1.03948 -0.0257689 6.65036e-22)
(0.995628 -0.00106476 -5.57387e-21)
(1.00138 -0.00429882 1.33068e-21)
(1.06061 0.0814419 1.29882e-20)
(0.998842 -0.000238672 -2.20913e-21)
(0.999988 -2.68292e-05 -1.01428e-23)
(0.999967 -0.000116315 -5.65855e-24)
(1.00003 -6.83862e-05 4.19229e-23)
(0.986863 -0.00504814 4.26019e-21)
(1.0163 0.0125964 -4.561e-20)
(0.9976 -0.000280267 6.58069e-23)
(1.01298 -0.00537966 1.17079e-20)
(1.01245 -0.0818242 1.1273e-20)
(0.993956 0.0407803 -2.08519e-21)
(1.00246 -0.00487901 1.13695e-21)
(1.00437 -0.00243968 -5.06687e-22)
(0.997073 -0.00165929 -2.24706e-21)
(0.995625 0.0292439 -1.16706e-19)
(0.99938 2.17797e-07 3.18285e-22)
(1.01547 0.0729606 -3.21172e-20)
(1.00693 0.009448 -5.05308e-20)
(0.999931 -1.88435e-05 4.83761e-23)
(1.00522 -0.0325685 -4.95344e-21)
(0.998136 -0.000610626 -1.58596e-21)
(0.995621 -0.0372284 1.85913e-20)
(1.00031 -6.19025e-05 2.0937e-22)
(1.03607 0.00146647 1.74607e-20)
(1.00457 -0.00976904 -5.32855e-23)
(1.00379 -0.00211266 2.73145e-22)
(0.99948 -8.81753e-05 -6.30513e-22)
(1.04332 0.0231285 2.53076e-20)
(1.02566 0.0223944 7.79147e-21)
(1.0062 -0.0409384 7.77473e-21)
(0.98785 -0.0125393 -8.73219e-22)
(0.998716 -0.00221477 -8.34093e-22)
(0.99991 -0.0244584 -9.30765e-21)
(1.08954 0.034485 -3.26826e-20)
(0.940556 0.0216298 -8.90328e-20)
(1.05018 -0.0496157 -5.95164e-22)
(1.00299 -0.00486795 -5.37915e-22)
(0.999996 -6.68744e-07 -4.36571e-25)
(0.991958 -0.00312916 -7.39586e-21)
(0.998637 -0.000209308 2.04272e-21)
(1.01677 -0.00932615 7.20105e-21)
(1.00339 -0.0663599 -5.47904e-21)
(1.12327 -0.00830168 -9.382e-21)
(0.989374 0.0395242 -1.45041e-19)
(1.03154 0.0204434 3.30172e-20)
(1.07169 -0.0682612 3.42638e-21)
(1.04066 0.0505323 1.34545e-20)
(0.99881 0.022888 1.38316e-19)
(1.01218 -0.00199776 9.58868e-21)
(1.00068 -0.00142049 9.09274e-22)
(1.01232 0.0310943 2.70632e-20)
(0.999475 -0.0012868 5.55267e-22)
(0.999893 -9.53726e-05 4.65256e-23)
(0.989096 -0.00169943 2.597e-21)
(1.00007 -2.24822e-05 1.2093e-23)
(1.07557 -0.0816356 3.30564e-21)
(1.0025 -0.0111974 -9.05803e-23)
(0.991568 -0.0215085 1.08485e-20)
(1.0011 -0.00105424 4.67072e-22)
(1.03732 0.0432726 6.9552e-20)
(0.998882 -0.000177663 -1.82242e-22)
(0.999986 -2.12395e-05 -9.87336e-25)
(1.01779 -0.0733705 6.05554e-21)
(1.00099 -0.000746438 -2.71044e-22)
(1.06536 -0.00190026 -3.79813e-21)
(0.971983 -0.00950234 4.17904e-21)
(0.958701 -0.0116925 2.16668e-21)
(1.13081 0.0363881 -3.13891e-21)
(1.01461 0.00936742 -1.70669e-20)
(1.01291 0.00226442 1.05638e-20)
(1.01184 0.00217861 -4.30783e-21)
(0.999877 -2.85029e-05 1.61397e-23)
(1.07008 0.0221801 1.20287e-20)
(1.04852 0.0104466 1.80732e-20)
(0.999705 -0.000377325 1.48502e-22)
(0.990019 -0.00415896 1.07797e-20)
(1.00038 -0.000117767 -2.32996e-22)
(1.00723 -0.0119028 -5.94167e-21)
(1.0067 -0.0163444 3.41431e-23)
(1.00288 -0.000902273 1.36171e-23)
(0.999568 -0.00080429 -6.65313e-22)
(1.07244 0.060649 -7.04278e-20)
(0.999987 -1.4182e-05 -1.74356e-23)
(1.00013 -5.71012e-05 -6.23773e-23)
(1.00133 -0.000553413 -1.8531e-23)
(0.986038 -0.00196237 7.28122e-21)
(1.01125 -0.00643019 8.49248e-21)
(0.990383 -0.0177855 -1.57223e-20)
(0.983166 -0.00302405 -4.21385e-21)
(1.01096 -0.0386742 4.29655e-21)
(1.02465 -0.0875877 -1.16307e-20)
(1.01643 -0.0177153 2.88718e-21)
(1.01684 0.031662 -1.56104e-19)
(1.13605 0.00626349 1.42727e-20)
(0.996142 -0.00161375 -2.95707e-22)
(0.952048 0.0397774 1.49553e-19)
(0.985966 -0.0347829 2.26118e-20)
(0.996051 -0.00555303 1.12187e-21)
(0.983174 -0.00247169 6.98275e-21)
(0.999038 -0.0115661 -5.4018e-22)
(0.986963 -0.00175012 1.10848e-20)
(0.993961 -0.00256004 -2.13716e-21)
(1.01605 -0.00932686 -1.29112e-20)
(1.07762 -0.0353519 3.01924e-21)
(0.999985 -2.70476e-05 -1.38587e-24)
(1.0131 -0.00804107 -1.36149e-21)
(0.99994 -1.90821e-05 -2.34226e-23)
(1.00283 0.0484239 2.98619e-20)
(1.08855 0.0535251 5.55816e-20)
(0.997066 -0.00124914 7.01516e-22)
(0.991411 -0.00141083 -9.79926e-21)
(0.999885 -3.5852e-05 -1.18512e-22)
(0.996421 0.0259735 8.8072e-20)
(1.01227 0.0569089 7.28043e-20)
(1.07173 0.0145878 -1.98723e-20)
(1.0773 0.0779666 -6.00748e-20)
(0.98575 -0.0373592 -9.39613e-21)
(0.9996 0.0123798 -1.26794e-19)
(0.999962 -7.83186e-05 2.1552e-23)
(1.03055 -0.0147751 1.95455e-20)
(0.989045 -0.00126708 -4.12933e-22)
(1.05363 0.0423726 -1.55564e-20)
(0.964281 0.0287712 -1.17663e-19)
(1.09244 0.0298549 4.49482e-20)
(1.02967 0.0181185 5.6103e-21)
(1.00019 -0.00794785 -2.84058e-22)
(0.999885 -5.18131e-05 -1.09131e-22)
(1.07706 0.0665177 2.4988e-20)
(1.12634 -0.0239572 -2.6612e-21)
(0.99672 0.0293471 -3.00299e-21)
(1.05912 -0.00456887 3.61308e-20)
(1.0192 0.0271885 4.60283e-20)
(0.995728 -0.00138721 -9.90163e-22)
(0.993741 0.0392834 3.98941e-20)
(1.01523 0.0544786 2.60154e-20)
(0.994786 -0.00214577 -5.9858e-21)
(0.995519 -0.00199574 -2.2195e-21)
(1.08736 0.0632697 1.40383e-21)
(0.957255 -0.0108113 -2.90394e-20)
(0.999947 -9.18992e-05 -3.37428e-23)
(0.992425 -0.00337982 9.51667e-21)
(0.960695 -0.0150672 2.11393e-20)
(0.9946 -0.0465463 -2.81342e-21)
(1.00567 -0.00193565 -8.55306e-21)
(1.00415 -0.00337838 5.82336e-22)
(0.99992 -0.000110219 -6.48017e-23)
(1.0124 0.0610725 -1.09585e-19)
(1.00051 -0.00628704 5.12113e-23)
(0.999937 -3.43317e-05 2.07417e-23)
(1.0141 -0.0365032 2.89198e-21)
(0.999707 -0.00025869 1.30686e-22)
(0.999867 -4.91301e-05 8.34407e-24)
(1.00331 -0.00758025 -6.479e-22)
(1.03176 0.0410428 9.24819e-20)
(1.01247 -0.0651298 8.62204e-21)
(0.972887 0.0288851 6.9978e-20)
(1.00004 -1.05633e-05 -3.36802e-23)
(1.03317 0.0455391 -9.71577e-20)
(1.00941 -0.0310366 3.10853e-21)
(0.999958 -0.00010913 -9.74003e-24)
(1.00002 -2.95196e-06 -1.03343e-23)
(1.00236 0.00607399 -8.47414e-21)
(1.02872 0.0362575 3.41392e-20)
(0.997736 -0.00150992 6.09978e-22)
(1.02731 0.0276717 -4.39076e-20)
(1.00002 -1.13527e-05 7.33683e-24)
(1.0273 0.0306949 -6.15131e-20)
(1.09166 -0.0850331 5.27869e-21)
(0.994408 -0.00183936 6.5788e-21)
(0.999845 0.0184764 -1.76249e-19)
(0.986331 -0.0293602 1.50837e-20)
(1.08006 0.0746427 5.98133e-20)
(0.983951 -0.00297549 4.1683e-21)
(1.02968 0.0326689 7.99621e-20)
(1.03215 0.0385055 -2.46289e-20)
(0.99048 -0.0050311 1.54699e-20)
(0.987504 -0.00622843 -1.14528e-20)
(0.997158 -0.00565739 3.25051e-21)
(0.998309 -0.000422594 -5.17665e-22)
(0.99989 -0.00011482 1.25665e-22)
(1.00055 -0.00588226 -8.8279e-23)
(1.02153 0.0523916 -1.31046e-20)
(0.999984 -2.11818e-05 4.33054e-24)
(1.02435 0.0266844 5.81284e-20)
(1.02127 -0.0654286 1.19357e-20)
(1.00192 0.0268251 3.52864e-20)
(1.02455 0.0244714 -6.57532e-20)
(0.959057 -0.0141909 -2.60188e-21)
(0.973881 0.0364109 -1.48209e-19)
(0.999084 -0.000669974 4.37756e-23)
(1.00988 -0.015778 2.73656e-21)
(1.03297 -0.046924 1.79209e-21)
(0.98764 -0.00138804 -6.4452e-22)
(0.996406 -0.00203366 2.95187e-21)
(1.0083 -0.0329824 -2.9706e-21)
(1.032 -0.0108162 -2.04502e-21)
(0.954816 0.0238433 1.83065e-19)
(1.00003 -1.3906e-05 3.61305e-23)
(0.998925 -0.000723485 5.93003e-22)
(1.01382 -0.0459519 1.02679e-22)
(1.00001 -2.69317e-06 1.29108e-24)
(1.00152 0.0532121 1.46797e-20)
(1.00088 -0.000696439 0)
(1.00001 -2.73487e-06 9.81355e-25)
(1.0001 -4.98205e-05 1.46153e-22)
(1.00026 -5.07449e-05 2.9416e-24)
(0.99147 -0.0118297 1.09257e-20)
(1.0117 -0.0102017 -5.20802e-21)
(0.999126 -0.000480899 9.31225e-22)
(0.999957 -7.50767e-06 4.36938e-23)
(0.996051 -0.00190641 1.64112e-21)
(1.00232 -0.00800265 -5.19896e-22)
(0.99632 -0.0693596 -1.49777e-20)
(0.962402 -0.00462128 2.09746e-21)
(1.01053 -0.00574972 1.45296e-20)
(0.999984 -1.64124e-06 1.3674e-23)
(1.06214 -0.0956291 1.25301e-20)
(0.992499 -0.00220648 -3.80852e-21)
(1.07804 0.0549699 -4.533e-21)
(1.00047 0.0198963 -2.60549e-20)
(1.00063 -0.00225129 2.25298e-22)
(1.07045 0.0472636 -6.67617e-20)
(1.00008 -5.7343e-05 -1.22537e-25)
(0.99298 -0.00264015 1.09386e-22)
(1.01302 0.000456014 -2.209e-20)
(0.996337 -0.00223341 -1.20945e-21)
(1.03248 0.0486557 -5.43866e-21)
(0.992847 -0.0040384 -7.16908e-21)
(1.03071 -0.0165126 -1.6263e-20)
(1.01457 0.00272115 -2.36681e-20)
(1.03483 0.0237808 -1.43378e-20)
(1.00452 -0.00919698 -2.55094e-21)
(0.994361 -0.00272625 1.77578e-22)
(1.04452 0.0437066 4.53399e-20)
(0.989052 -0.0517313 -1.44181e-20)
(0.996035 0.0505739 1.2152e-19)
(0.994964 -0.00290965 -6.92064e-21)
(1.032 0.0664565 -2.83499e-22)
(0.995044 -0.00264307 1.84892e-21)
(0.999344 -0.000302754 -6.04316e-23)
(1.02861 0.0186016 1.54333e-20)
(1.00927 -0.0183327 -9.27158e-22)
(1.01974 0.00255096 3.42224e-20)
(1.00087 -0.000553666 3.03343e-22)
(1.00001 -1.93666e-06 4.51833e-25)
(1.0053 -0.0799124 5.28178e-21)
(1.05863 0.0763521 -7.46859e-20)
(1.00086 -0.00217478 -2.92071e-22)
(1.07588 0.0487327 6.90475e-21)
(0.993176 -0.00372972 -4.67664e-21)
(1.05678 -0.0988376 -3.20243e-21)
(1.0275 -0.0239862 8.54795e-22)
(0.99043 -0.0190186 8.80168e-21)
(0.999043 -0.000606829 -3.92545e-22)
(0.995075 -0.000656193 -1.38428e-21)
(0.986742 -0.0439244 -9.25982e-21)
(0.983117 -0.00606125 1.60004e-20)
(0.994637 -0.00247136 4.9004e-21)
(0.999918 -0.000257305 5.41864e-23)
(0.991752 0.0534119 -1.45773e-20)
(1.06841 0.0420779 4.13474e-20)
(1.01501 -0.00618724 -4.39359e-21)
(0.99989 -8.8096e-05 8.37959e-23)
(1.01447 0.0512529 -4.93219e-20)
(1 -1.37898e-05 1.97598e-24)
(0.999895 -7.36086e-05 1.65865e-22)
(1.0625 0.0407919 3.44851e-20)
(1.00745 -0.0147017 1.93761e-21)
(1.06715 0.0707303 6.36304e-20)
(1.01351 -0.00286958 9.57947e-21)
(1.01049 -0.00755882 -1.08927e-21)
(1.05733 -0.0401181 -2.07918e-21)
(1.03354 -0.0817512 1.04477e-20)
(1.13014 0.0315 -1.38247e-20)
(1.0007 -0.000535478 -6.62858e-22)
(0.973159 -0.0103425 -1.67334e-21)
(0.99999 -3.31994e-05 -2.94404e-24)
(1.00335 -0.00711884 4.44944e-22)
(1.03423 0.0508354 3.49451e-20)
(0.990886 -0.00469087 1.07835e-20)
(0.998489 -0.000896523 8.2201e-22)
(1.00958 -0.0242227 -9.1971e-22)
(0.99894 -0.000649303 5.57558e-23)
(0.999783 -0.000630133 1.69809e-22)
(0.950664 0.00480779 3.21919e-20)
(0.994717 -0.00317995 -3.92537e-21)
(0.999754 -0.000458796 -5.12604e-22)
(0.999989 -8.29066e-07 -3.01068e-24)
(1.01042 0.00320577 4.58563e-20)
(0.984658 -0.0158211 -2.42333e-21)
(0.999819 -0.000343408 1.4983e-22)
(0.998485 -0.000536059 1.05695e-21)
(1.01395 0.0114146 1.84909e-20)
(1.0404 0.00602685 3.761e-21)
(0.978112 -0.0146096 -1.36462e-20)
(1 -8.56689e-06 7.14771e-25)
(1.00167 0.0101152 1.20819e-19)
(0.992817 -0.0105562 -7.54488e-21)
(1.03795 0.0395854 -7.00387e-20)
(1.00738 -0.0011263 -1.27947e-20)
(1.00841 -0.000759922 2.89927e-20)
(0.982119 -0.00741623 2.18709e-20)
(0.999946 -4.08323e-05 -1.3545e-23)
(1.01367 -0.000212685 -4.22907e-21)
(1.04182 0.00469334 -5.90022e-21)
(1.11229 0.036162 3.38712e-20)
(1.02521 -0.0618367 1.89604e-21)
(1.01952 0.0494164 3.99167e-20)
(1.00369 -0.000859504 -1.96117e-22)
(1.04907 0.0477871 -6.23602e-20)
(1.00047 -0.00887931 -5.04974e-22)
(1.01197 -0.034965 -7.45569e-21)
(0.999782 -9.75349e-05 -1.64088e-22)
(1.0021 -0.0114923 1.42568e-22)
(0.999941 -0.000262719 1.93971e-23)
(1.02525 0.018742 -4.45968e-20)
(1.03984 0.0735367 -1.25691e-19)
(0.999182 -0.000731536 3.13373e-22)
(1.01048 -0.0072348 4.0761e-22)
(0.99005 -0.00286992 3.70845e-21)
(1.02807 -0.0537983 3.4736e-22)
(1.02433 -0.0570921 -5.98424e-21)
(0.999059 -0.00051581 6.21772e-22)
(1.02663 -0.01515 -6.97906e-21)
(0.959941 0.000508858 -5.45837e-20)
(1.1097 0.0208867 2.68141e-20)
(0.999969 -9.45195e-05 4.59931e-23)
(1.03697 0.00518415 -1.39309e-20)
(0.998405 -0.00531163 -1.54889e-21)
(0.993724 0.00144646 1.18932e-19)
(0.993268 -0.00333365 6.52106e-21)
(0.998351 -0.0166526 -1.71919e-21)
(1.0109 -0.0214537 -2.87884e-22)
(0.996602 -0.0171481 -2.95267e-22)
(0.999211 -0.0133583 -3.68788e-21)
(0.995847 -0.00213129 1.12969e-21)
(1.0001 -0.00888005 2.06486e-21)
(1.00115 -0.00391829 -3.54324e-22)
(1.03297 -0.0139638 4.43667e-21)
(1.00006 -2.39493e-05 -9.49681e-23)
(1.11946 -0.0636025 1.69004e-21)
(1.09706 -0.00556673 7.80393e-21)
(1.00769 0.0581378 8.79573e-20)
(0.979148 -0.0137597 2.08026e-20)
(1.06132 0.0659381 -3.21283e-20)
(1.00111 -0.000448826 1.07237e-21)
(1.04349 -0.0460169 -3.27647e-22)
(1.00369 -0.0233544 -3.36429e-21)
(1.01227 0.0197024 5.14542e-20)
(0.996142 -0.00246362 2.79696e-21)
(1.00007 -0.000107414 6.23988e-23)
(0.993106 -0.0108197 9.83742e-21)
(0.997605 -0.00576186 -1.22978e-21)
(1.02473 -0.0156211 1.32875e-20)
(0.983661 -0.00452827 -1.34759e-20)
(0.986743 -0.00586535 3.77555e-21)
(1.07805 -0.0217683 5.22918e-21)
(0.991799 -0.0016986 -6.37088e-21)
(1.0093 -0.022729 2.13372e-22)
(0.994778 -0.0495644 9.8829e-21)
(1.00001 -5.05975e-06 7.95164e-25)
(1.03248 -0.00884884 2.31958e-20)
(0.996618 -0.0447993 -2.69175e-20)
(1.06708 0.0567093 3.1586e-20)
(1.05773 -0.0455953 2.46937e-21)
(1.01805 0.00209145 2.95622e-21)
(1.01715 -0.0629241 -1.67859e-20)
(1.01857 0.0652694 2.4779e-20)
(1.02127 -0.0213122 6.0519e-21)
(0.981223 -0.00691643 -1.2937e-20)
(1.00945 -0.028714 -3.04413e-21)
(0.976715 0.00208916 5.2921e-20)
(1.09418 -0.0640733 -1.39776e-21)
(0.992795 -0.00308274 -1.98057e-21)
(1.01787 -0.0791055 -1.30282e-21)
(1.01645 -0.0399501 4.03282e-21)
(1.0267 -0.0729658 -2.6473e-21)
(1.02644 -0.0499145 -4.56069e-21)
(1.04485 0.0400684 5.70953e-20)
(0.998467 -0.00098122 5.45186e-23)
(1.00259 0.0223664 1.89248e-20)
(1.00459 -0.000819233 1.53614e-21)
(0.999772 -0.000329044 -2.15924e-22)
(0.999265 -0.00145478 1.53562e-21)
(1.03404 0.00186141 -5.57068e-21)
(0.936958 0.00155699 1.53492e-21)
(1.00093 -0.0039752 2.08786e-22)
(1.01182 -0.0324991 1.12777e-21)
(1.01346 0.0120928 -3.06977e-20)
(1.00002 -5.02605e-06 -1.84478e-24)
(0.988028 -0.00582787 9.12776e-21)
(1.01297 -0.00542516 1.043e-20)
(1.04534 -0.0246186 1.26798e-20)
(1.00456 -0.000730653 8.63513e-21)
(0.999047 -0.00109224 2.8418e-22)
(0.991288 -0.0248108 3.8664e-22)
(0.998749 -0.00522514 -4.13954e-22)
(1.00002 -2.5352e-06 1.98185e-23)
(0.987689 -0.028802 -2.53198e-20)
(1.02592 0.0476261 -1.43251e-20)
(1.01209 -0.018961 5.54151e-22)
(0.990605 -0.00329262 -6.96275e-21)
(1.00104 -0.000169538 -3.85986e-22)
(1.01582 0.0146175 4.05497e-20)
(0.999794 -0.00037068 -1.00066e-22)
(0.999291 -0.000390417 -3.1172e-23)
(0.999804 -0.000113876 -1.49337e-22)
(0.999571 -0.00130318 -3.79873e-22)
(1.10258 0.0365652 2.52442e-20)
(1.01791 -0.0234883 9.43951e-21)
(1.00524 -0.0112721 1.01803e-21)
(0.989896 -0.00469632 -3.18424e-21)
(1.00002 -3.19875e-05 1.90158e-23)
(1.04537 -0.0774901 1.17911e-20)
(1.12952 -0.0138135 6.54429e-22)
(1.04914 -0.0848659 -5.74996e-21)
(0.998781 -0.0206054 -3.17407e-21)
(1.00781 -0.00522248 9.85342e-21)
(0.999883 -5.89518e-05 6.89201e-23)
(0.993446 -0.00727085 -3.92117e-21)
(0.97619 -0.0295433 -1.57829e-20)
(1.10113 0.0233506 8.04553e-22)
(1.00062 0.0266586 -1.26898e-21)
(0.99936 -0.00196544 3.03278e-22)
(0.96767 -0.0207591 9.42534e-21)
(0.997357 -0.00176271 -2.66008e-21)
(1.01997 -0.0200606 -1.66529e-21)
(1.05262 0.038397 6.59031e-21)
(1.00027 -8.43354e-05 -3.27086e-22)
(0.999918 -0.000117453 -2.56145e-23)
(1.08631 0.0671226 7.40247e-21)
(1.09648 0.0101373 -5.14109e-21)
(1.01236 -0.00957258 3.68863e-21)
(0.998402 -0.00111142 1.40189e-21)
(0.998893 -0.000198079 -1.39154e-22)
(0.980303 -0.0298131 3.82731e-21)
(0.999906 -0.000215622 -8.36732e-23)
(1.01055 -0.0202907 3.15047e-21)
(0.992561 -0.000963147 1.32941e-20)
(1.00047 0.0209548 -2.14783e-20)
(1.02832 0.0486717 -7.24543e-21)
(1.03956 -0.0424017 -8.06057e-22)
(0.998793 -0.0447718 1.01746e-20)
(1.00343 -0.000987492 4.26945e-21)
(1.00877 -0.014962 -4.16851e-21)
(1.09263 -0.0011444 2.43533e-20)
(0.998135 -0.0499149 -6.14295e-21)
(1.01129 -0.0272385 1.58106e-21)
(0.999999 -4.40888e-06 3.62869e-25)
(1.0833 -0.0111783 1.68905e-20)
(0.984632 -0.00194256 1.25011e-21)
(0.997989 -0.0555148 1.24171e-20)
(1.01144 -0.0177644 -7.25263e-21)
(0.974344 -0.00976022 -2.95092e-21)
(0.999792 -0.000201516 -7.35666e-23)
(0.998319 -0.000832593 -6.24862e-22)
(1.02186 0.0230173 5.06953e-20)
(0.982984 -0.00696127 -4.9091e-21)
(0.999991 -1.0519e-06 3.00626e-24)