/*--------------------------------*- C++ -*----------------------------------*\
  =========                 |
  \\      /  F ield         | OpenFOAM: The Open Source CFD Toolbox
   \\    /   O peration     | Website:  https://openfoam.org
    \\  /    A nd           | Version:  7
     \\/     M anipulation  |
\*---------------------------------------------------------------------------*/
FoamFile
{
    version     2.0;
    format      ascii;
    class       volScalarField;
    location    "39";
    object      p;
}
// * * * * * * * * * * * * * * * * * * * * * * * * * * * * * * * * * * * * * //

dimensions      [0 2 -2 0 0 0 0];

internalField   nonuniform List<scalar> 
7639
(
0.162633
-0.00849711
0.368291
0.216597
-0.00101402
-4.40894e-05
0.378181
-0.00597916
-0.000143719
0.088811
-4.11625e-05
0.00273297
-0.00891608
0.0428924
0.092864
-0.0120536
0.176924
-0.0115086
0.00100468
-0.0545864
0.0559937
0.00179389
0.031614
0.180397
-0.0148981
0.177896
-0.000940647
0.0536319
0.149646
0.0025319
-0.0158501
0.614467
0.0309031
-0.000564596
-0.00012306
0.0719236
0.0029525
0.364238
-0.00513148
-0.00039621
-0.00472725
-0.0114901
-0.058919
-0.0771608
-0.000236474
-9.59306e-05
0.00174739
-0.00537784
-7.93544e-05
-0.054555
0.00413142
0.0508351
-0.018642
-0.00503885
0.0711573
-0.00535765
0.0010634
-0.00594231
-0.0241555
-0.000584983
4.59544e-05
0.005307
0.0432794
0.0030199
-0.00112126
-0.0156205
-0.000113898
4.43176e-06
-0.0249564
-0.00508294
-8.80708e-05
-0.0432018
-0.0144502
-0.023728
-0.0111878
-0.0336559
0.361574
0.0551307
0.0270458
-0.0454002
-0.00856549
0.336263
0.0808925
-0.0250589
-0.00167252
-0.00263684
-0.00639502
-0.0181264
-0.000767587
-0.00507835
0.152545
-0.104854
-0.000156208
0.00123314
-0.00404399
-0.0247758
-0.0408876
-0.00262406
-0.00183768
-0.00133374
-0.0398413
0.0331204
-0.00383359
-2.36125e-05
-0.106333
0.152289
0.527888
-0.00570048
-5.83165e-07
0.0271504
0.201559
-0.0415331
-1.82818e-06
0.028737
0.153634
0.000521007
-0.0603543
0.120576
-0.0314944
-0.0244878
-0.0412537
0.320101
-0.056764
0.0114628
-0.0402311
-0.00112543
-0.0145041
0.00209211
-0.00118792
-0.0162114
-0.148583
0.0304121
-0.00070708
-0.000902994
-0.0258867
0.195358
0.412051
-2.02602e-05
0.00933685
-0.0508062
-0.0225126
-0.0384635
-0.0341215
-0.0229272
0.533207
-0.0183092
0.149775
-0.0239111
-0.0307617
0.319344
0.0687429
-0.0894906
-0.00177545
-0.047623
0.0806666
0.329902
-0.0387477
-0.00886807
0.489484
-7.20222e-05
0.000497711
0.186769
-2.22801e-05
-0.00243768
-0.00454237
0.239233
0.239687
0.511516
-0.00273257
-0.00356629
5.20605e-06
-0.0424457
0.000514703
-0.00277891
0.0101602
-0.0304742
-0.0870948
0.0664018
-0.000155585
-0.000596597
0.219183
-7.18963e-05
-0.000132346
0.378554
-0.0136567
-0.0331285
-0.0297995
-0.0227607
-0.0206599
-0.0496871
-2.42605e-05
-0.0397143
0.0659393
-0.00387567
8.54829e-05
0.131175
-0.0014471
-0.0152878
-0.0192759
6.30261e-06
0.00104454
0.203353
0.0982217
0.335109
-0.0556533
-0.0385461
-0.0988501
0.0586086
0.203502
-0.000253454
4.08e-05
0.496287
-0.0102168
-0.000732149
-0.0380864
-0.0151727
0.2938
0.303777
-0.0423271
0.581231
-0.00134215
-0.0111985
-0.0407722
0.0691935
-0.0714984
0.114923
0.491318
7.47124e-05
0.0120652
0.129681
-0.00485848
0.117106
-0.00065116
0.548344
0.323438
-0.00633214
0.00315119
-0.000367771
0.0125651
-0.00011257
-0.0075951
-0.0488113
-8.77268e-05
-0.00159073
-0.000515797
0.112293
-2.23646e-05
-0.00526457
-0.0445121
0.614371
0.0248274
0.535794
-5.42262e-05
-0.0210868
-0.000224308
0.34876
0.00506279
0.412574
0.00139318
0.000874323
0.000379058
0.0612727
0.00071297
-0.000275541
0.000629513
-0.00512621
-0.0348056
-5.06582e-05
-0.03755
-0.00433293
-0.000172366
-0.000755253
0.39183
-0.00890092
-0.000923911
0.587337
-0.00174174
0.186986
-0.000249885
-0.000977782
8.97915e-06
-0.0282507
0.0665782
-0.0855526
-0.0244908
-0.000499113
-0.0482452
-0.017044
-0.00021786
0.000610162
-0.00263962
-0.00862687
0.00372252
-0.00150643
-0.0240029
-0.0310837
-0.0236344
-0.0691145
-0.0293484
0.307212
0.324346
-0.00179132
-0.129975
-8.76917e-06
-0.00289866
-0.0246739
0.175187
0.0911485
0.000118141
-0.00268929
-0.0285553
0.131882
-0.0012083
0.00451776
0.0015182
-0.0196007
-0.133077
0.27229
-0.00191739
-0.0127218
-0.000139605
0.00503576
-6.43247e-05
-0.0197042
-0.000420855
0.00357505
-0.174811
-0.0304951
0.000674554
0.010961
-0.000894344
0.0223494
-0.00947817
0.0470606
0.119046
-0.123985
-0.0735072
-0.017364
0.00641169
-0.0477228
0.521084
-0.0675344
0.0360406
0.570104
-0.0018525
-0.00210303
-0.087728
-0.00133501
-0.0157925
0.00798437
-0.00336662
-0.00251727
0.135983
-8.41847e-05
0.000681626
9.50843e-05
-0.00406011
-0.00842209
-1.06365e-05
-0.00132665
-0.0232544
0.486475
0.00127839
-0.00999245
0.454945
0.27819
0.0421805
-0.122716
-0.0426527
0.00620199
0.229258
-0.0124603
0.238603
-0.0239261
-0.0677007
0.108179
0.237062
-0.0351252
0.084614
0.102147
0.203815
0.0566488
-0.00364431
-0.00502115
-0.000108001
0.000808153
-0.012687
0.00116526
-0.000131753
-0.00195554
-0.0472343
0.0210211
-0.0183379
-0.00369581
-0.0045064
-0.0120176
-0.00820837
0.00201482
0.0685093
-0.00227831
-2.7086e-05
-6.88977e-05
5.91897e-05
-0.0219453
0.131822
-0.00477938
0.0337459
-0.0792629
0.356327
0.00395493
0.00851713
-0.00604918
0.376087
-0.00128692
0.264219
0.153544
-0.00014377
-0.0254944
-0.00391529
-0.0372053
0.000702249
0.0506942
0.0032014
0.00788156
-0.00104098
0.0970297
0.137364
-0.0389262
-0.0235589
-0.00280381
-0.0208104
-0.0348826
0.60314
-0.0580103
0.00551106
-9.89541e-07
-0.0145735
-0.00274344
0.0205356
-0.0650115
-0.127415
0.388758
0.118699
-0.0923892
0.137262
0.367005
0.0348953
0.0014448
0.231688
-0.00111303
-0.000226916
-0.0185258
0.000107951
-0.105997
-0.00133325
-0.0255055
0.00234254
0.141354
-0.00215955
-2.96258e-05
-0.0704049
0.0021248
-0.00781975
-0.0386082
-0.0501402
-0.140688
0.131649
0.107754
0.111166
-0.000254066
0.0105033
0.0524193
-0.000649228
-0.0176881
0.000755983
0.0052468
-0.00501666
0.00593646
-0.000957536
0.0215465
-2.42052e-05
0.000247165
0.00245265
-0.0227791
0.024553
-0.0240109
-0.0260201
-0.0312827
-0.0803363
0.00370368
0.221102
-0.150037
-0.00765265
0.555628
-0.0402995
-0.00878222
-0.0263396
-0.00774123
-0.0214892
-0.0113486
0.0321943
-0.0746627
-3.19223e-05
0.0283081
-0.00011886
0.317533
-0.0263691
-0.00570341
-0.0150902
-0.000233445
0.338737
0.270069
-0.00581158
-0.0064073
-0.0434053
0.426316
-7.80274e-05
0.0125186
-0.01887
0.0771148
0.51669
-0.0454368
0.117556
-0.00267166
-0.000251041
-0.0137097
-0.139185
0.355694
-0.00378019
0.190858
-0.008083
0.36559
0.253973
-0.0101075
-0.00864097
-0.021223
-0.0506904
-0.000105239
-0.013975
-0.0492713
-0.0463979
0.0139083
0.0112708
-0.000157435
0.26995
-0.00158081
-0.000127695
-0.0282485
-0.00060396
-0.000275859
0.00358785
0.166515
-0.0629639
0.477975
7.64205e-05
0.160414
-0.0223546
-9.38975e-05
2.18809e-05
0.147058
0.16611
-0.00470389
0.153847
3.09452e-05
0.16228
-0.123041
-0.0105754
0.387814
-0.0364594
-0.0101545
-0.0252671
0.157108
0.159091
-0.0171821
-0.0215038
-0.0070383
-0.00332794
-0.00024588
-0.00166672
0.221986
-3.34129e-05
0.159395
-0.0632012
0.299712
0.151456
-0.0501033
0.461259
-0.0018892
0.00290424
-0.0452937
-0.0205581
-0.00729715
-0.0246298
0.0216554
0.549824
5.16345e-05
-0.002221
-0.0391161
7.3084e-06
0.323637
0.00215567
6.85757e-06
0.000234133
0.000469542
-0.0186272
0.0195584
-0.00179375
-0.000103764
-0.00773132
0.00226164
-0.0687887
-0.0462242
0.0251644
-2.68822e-05
-0.1027
-0.0136775
-0.00482581
0.298275
0.0012918
0.0234633
0.000186013
-0.0131091
0.0800182
-0.00733564
0.174751
-0.0134802
0.0146332
0.0829929
0.113471
0.00445911
-0.0108214
0.112136
-0.0543418
0.353829
-0.00981179
0.191643
-0.00973026
-0.00134187
0.112343
-0.00181397
0.0742634
0.00222596
5.9299e-06
-0.0736446
0.0656844
0.00166257
0.00455473
-0.0128373
-0.0997201
-0.00645559
-0.0248061
-0.00193558
-0.00925681
-0.046247
-0.026822
-0.0102423
-0.000176539
0.378177
0.0289448
0.0332384
-0.000236205
0.255572
4.60921e-06
-0.000217942
0.0453266
-0.000422288
0.0458706
0.0524466
0.0191343
-0.0520551
-0.0846588
-0.126073
0.00154544
-0.0377313
-2.26491e-05
0.00399724
0.168749
-0.0164488
-0.00318414
-0.012719
-0.00224501
-0.000480254
0.575511
-0.0103378
-0.000641352
-7.04274e-06
0.120385
-0.0286876
-0.000386965
-0.00314683
0.139635
0.0570868
-0.034497
1.50183e-06
0.157855
-0.0165276
0.135197
0.0196149
0.0241217
-0.0282407
-0.00011287
0.080965
0.0481467
-0.0989785
-0.0598562
0.226252
0.00722459
0.102597
-0.00344239
-0.026427
-0.000460118
-0.00276767
-0.000125938
0.129777
0.15346
-0.00171089
0.0212267
-0.0173378
-0.0509956
-0.05535
-0.00211696
0.0113219
0.541969
-0.0939269
-6.56229e-05
0.058841
-0.00445351
0.456611
-0.0127028
-0.0135326
-0.00687654
-0.0155899
-0.00849474
-0.0082046
-0.0043143
0.0016767
0.0153661
0.000125905
-0.140222
-0.0786058
0.297873
-0.0333203
0.0576565
0.00239485
-0.0466825
-0.0158356
0.183489
-0.00776306
0.000126902
-0.0162676
-0.00612843
0.0142273
-0.0257958
-0.0224017
-0.0543303
-0.0146582
-0.0100723
-0.0502057
6.60514e-06
0.0263076
-0.0437536
0.0381069
-0.058736
0.0743424
-0.0591548
0.247224
-0.00102662
-0.0291325
-0.0191974
0.486497
-0.114212
-0.0132817
-0.0755188
-0.0335431
-0.0724454
-0.0465445
0.108197
-0.00317313
0.223926
0.0104197
-0.000461067
-0.00144287
0.0525792
0.622257
0.00112563
-0.0233755
0.14657
2.61687e-05
-0.0206584
0.0308153
-0.0173821
0.010561
-0.00191003
-0.028539
-0.00365547
3.32951e-05
-0.0348257
0.197346
-0.00120329
-0.0166543
0.0022095
0.145731
-0.000448551
-0.00143523
-0.000419343
-0.000926759
-0.0763922
-0.00338215
0.00222676
-0.0178909
5.1706e-05
-0.0839854
-0.141618
-0.0918012
-0.0173234
0.0169237
-0.000249421
-0.013327
-0.0436339
-0.0760798
0.302766
-0.00149092
-0.0457352
-0.00535512
0.00182199
0.0783701
0.000518828
-0.000185136
-0.019316
-0.0734326
0.0160085
-0.00338213
-0.00236646
-0.0407741
-0.000206063
-0.00431234
-0.0135511
0.259392
0.189909
-0.0422962
-0.0429399
0.00849939
0.00223172
-0.0620356
-0.0491951
-0.0162767
-6.95824e-07
-0.0526483
-0.0244842
-0.0528504
0.00116791
-0.0367013
-0.000465599
-0.00341804
0.155566
-0.0272302
-4.73715e-06
-0.00320096
-0.104855
-0.000194918
-0.0202959
-5.96836e-05
0.00393616
-0.0675987
-0.0396439
-2.64872e-05
3.51847e-05
0.103417
-0.0372254
0.34284
0.184368
-0.0438546
-0.000704089
-0.0147848
0.000255188
-0.137291
-0.0682495
-0.115313
-0.0162612
0.158396
0.00701338
0.000318292
0.00411069
-0.0930941
0.00227062
-0.0249809
-0.0424301
-0.00052785
0.0181923
0.0562213
0.00601738
-0.0222735
-0.0645073
0.154618
-0.0300142
-2.96006e-07
-0.0776416
-0.0440683
-0.0359827
0.00357146
0.000877111
0.00465082
-0.0675157
0.0260183
-0.0252027
0.0482819
-0.0425291
0.00555217
0.0157493
0.00636505
-0.0257548
-0.123424
-0.000120996
0.119259
0.171687
0.00673411
0.0780676
-0.0551732
0.0366217
-0.0375146
0.163429
0.07892
0.534092
5.08786e-06
0.0673179
0.134583
0.0127221
-0.0013111
-0.0140562
-0.0650845
4.90166e-05
-0.0141208
-0.0384746
-0.0153301
-0.0169498
0.000152024
-0.119706
-0.000337127
-0.000774082
0.201429
0.00504028
-0.0775625
0.0161589
0.171689
0.00791055
-0.000359221
-0.098789
0.00621859
0.32032
0.00112581
-0.039788
-0.000202011
-0.000495699
0.00472513
-0.049876
-2.8693e-05
-0.00862651
0.0221396
-0.00172802
3.50648e-05
-4.32208e-05
0.122939
-0.0542434
0.00554318
-0.000980765
0.00701482
0.0133356
0.00678422
-0.000262648
0.272265
-0.0904264
0.181444
0.223393
-0.00018953
-0.079795
0.0650035
-0.000686986
-0.000237931
-0.000388724
-0.0365802
0.0078701
-0.01231
-0.0181942
-0.0459958
0.134866
-0.0790813
1.10208e-05
-0.0149766
-0.0147564
-0.0261828
-0.00370598
0.00494679
0.00108359
0.0228894
-0.000458522
-0.000211301
-0.0135827
-0.00364833
-0.0189751
-1.39703e-05
-0.0115653
0.0270214
-0.0376584
-0.0363011
-0.00688102
-0.00922964
-0.00725911
-0.00438909
0.00298218
-0.00749164
-9.39251e-05
-0.000359492
0.0182908
-0.00958101
-0.00416296
0.00694685
0.00150298
-0.0848899
-0.00874672
0.125893
-0.0098474
-0.0383271
-0.0196521
-0.0173857
-0.0120927
-0.00318282
0.00189718
-0.00298883
-0.0109244
-0.0124644
0.139715
0.0978064
0.0310438
0.296916
-6.42049e-05
-0.00287755
-0.0126892
-0.00647592
0.0262734
-0.015543
0.0244282
-0.00371906
0.142807
-0.00166126
-0.00139639
0.00476486
-0.0170436
-0.000193582
-0.0182792
-0.00492641
-0.0159489
-1.82475e-05
-0.00554594
0.00169534
-0.0135744
0.0206424
0.0295473
0.0160229
-0.0109015
-0.0236157
0.0922848
-0.00110154
-0.00167278
-0.0018014
0.449974
-7.85902e-05
0.0456443
-0.0162105
-0.0156833
-0.0198798
-0.0315986
-0.0215508
-0.0254966
-0.0142154
-0.00386873
-8.62979e-05
-0.00359883
-0.016643
0.0775835
0.00144282
0.0437003
-0.024543
-0.010372
-0.000785175
-0.0217756
-9.07677e-05
0.118275
-0.0226673
-0.0198119
-0.0181644
-0.00344814
-0.0252203
-0.001426
-0.029724
0.0806357
-0.0195407
-0.0530744
-0.00124558
-0.0203385
-0.0142387
0.0129863
-0.00273723
0.113905
-0.00203271
-0.0147054
-0.000582837
0.128976
-0.0286512
-0.0199472
-0.00274145
-0.00775883
-0.00233832
0.117681
-0.0113146
0.0798846
-0.00415446
-0.000702383
-0.00107437
-0.00197993
0.05808
-0.042911
-0.00566719
0.000292516
-0.00705023
-0.0133228
-0.000779327
-0.0139039
-0.012163
0.0461456
-0.00414159
0.00239723
0.44512
-0.0435263
-0.0215061
-0.0409719
2.97623e-05
0.0605108
-0.00298334
-0.0202104
-0.0046904
-0.0264258
0.00332989
-0.000461548
-0.00245411
0.0027925
0.163765
-0.00486368
-0.00152164
-0.00388659
-0.0394514
-0.00683272
-0.0167673
0.00358835
-0.00714988
-0.00738538
-0.00276222
0.163946
-0.0333467
0.00273305
-0.00355724
-0.0207066
-0.011252
-0.0355245
-0.00120068
0.0715895
0.0187376
-0.0064718
-0.0014747
-0.0109157
0.461503
0.165138
-0.0091441
-0.00049567
-0.00202204
-0.00128751
-0.00334736
0.0172372
-0.000358389
-0.0151542
-0.00167084
-0.0132555
-0.159375
-0.000914638
-0.00994248
-0.00115226
0.270197
-0.00537449
-0.00944747
-0.0537761
-0.00164669
-0.0224932
-0.0700207
0.399631
-0.0087093
-0.00922981
-0.00179691
-0.000402034
1.12967e-06
-3.46835e-06
-0.00824611
-0.000575146
0.0353899
-0.000576406
-0.00154046
0.00683177
-0.000222286
-0.032293
-0.0460649
0.0145232
0.0325711
0.0218841
-0.0655126
-0.0394164
0.0707664
0.0560831
0.0762513
0.0978425
-0.0103642
-0.000725539
-0.00497894
-0.0506548
-0.00296513
-0.0119557
-0.064686
0.253106
-0.040264
-0.00041462
-2.62701e-05
-0.0012463
-4.89442e-07
0.00611694
-0.000483483
-0.00400241
-0.0344102
0.000464894
0.00217242
-0.000189569
0.0356583
-0.0121812
-0.049201
-0.00104318
0.278992
0.180364
-0.00819319
-0.063367
-0.0210986
-0.018289
-0.0114761
-0.00159265
-0.0581983
-0.0291729
-0.0316248
-0.122306
-4.43101e-05
0.133953
-0.0170675
-0.00780101
-0.027229
0.0154889
-0.000457112
-0.00685421
-0.00115472
0.00870599
-0.00132639
0.0896685
0.000300113
0.00849989
-0.000356992
-0.111882
0.00742013
-0.000663755
-0.000288474
0.000350181
-0.0543131
0.0779735
0.000136638
-0.00122365
-0.000108592
-0.000494762
-0.000433695
-0.0426011
0.0996066
-0.0500376
-0.000232223
0.00680976
-0.000394241
0.188924
-0.0421682
0.18428
-0.0312793
-0.000386866
-0.000247242
-0.00601222
-0.00468023
-0.000543479
-1.57313e-05
0.0200098
0.0233361
-0.000204405
-0.000288724
-0.0153114
-1.89199e-05
0.135764
-0.000789657
-0.037303
-0.014826
-0.00522418
-0.0390674
-0.0430925
0.122189
-0.0215451
-0.0156398
-0.000271901
-0.0396653
-0.0160072
-0.041383
-0.00373344
0.298584
-0.000994845
-0.0414393
0.00792969
0.241439
0.0312024
-0.000103265
-0.00498831
-0.00339063
-0.00411347
-0.0338437
0.0601012
0.000152898
0.00914346
0.002433
0.0409073
-0.000446949
-0.000106378
-0.0962138
0.212608
-0.0385046
0.0920264
-0.0010935
-0.000174868
-2.01634e-06
-0.0732355
-0.0299819
-0.000293075
0.0582778
0.00945323
-0.00443634
0.366534
-0.000339744
-0.00309761
-0.0415801
-0.0264501
-0.00191973
0.108378
-0.0517954
-0.000143139
0.00677846
-0.000150733
-8.71059e-05
0.098888
-0.00425384
-0.000389296
-0.036046
-0.0187335
-0.00291957
-0.0316344
0.00201725
-0.0174905
0.00137786
-0.00291945
-0.0448584
-0.0277572
0.00764351
-0.000756725
0.11733
0.171201
-0.0853014
0.00736394
0.0157682
-0.00356267
0.135418
0.0671035
-0.0208091
-0.000140374
0.00770612
-0.03824
0.00533822
-0.0213939
-0.00177799
0.0245734
-0.0208943
-0.000118401
-6.34814e-05
-0.0380288
-0.020539
-0.0195742
0.00775947
-0.0350251
-0.0319508
-0.000132656
-0.00118581
-0.000178949
-0.0269122
-2.09489e-05
-0.0016287
-0.0401926
-0.0775616
0.0128276
-0.00249572
0.00352487
-0.0165021
-0.0192256
-0.000111157
-0.0325988
-0.0104508
0.127462
1.95737e-05
-9.59171e-05
0.130121
-0.00211677
-0.0666673
-0.0290017
0.00285155
0.000401261
-0.045453
-0.0378595
0.133714
-0.0388522
-0.00123754
-0.00863796
-0.0383399
-0.000494831
-0.000207216
-0.000764262
-0.0383307
-0.0359876
0.0607405
-0.000181302
0.467361
-0.0762633
9.82276e-05
-0.000830102
0.000213233
0.000242584
-1.25717e-05
0.000117394
-0.0368043
-0.000615118
0.000366445
-0.000170874
0.11337
-0.00473126
-0.000166642
-3.86804e-05
0.288247
-0.0165652
-0.0606201
0.000935985
-0.000619339
0.0357418
-8.47552e-05
-0.0112602
-0.136017
0.0018273
-0.00554228
-8.30705e-05
-0.000178657
-0.0231233
-0.0515964
0.00609962
-0.106242
-0.060378
-2.41692e-05
0.0177986
0.026846
0.0868656
-0.00144192
-0.000134839
-0.0396965
-0.00500656
-0.000427725
-0.0348724
-0.000118289
0.0237216
-7.6667e-05
-0.00106934
-0.0911885
-0.00181136
-0.0407125
0.418619
-0.00139576
0.00023207
-0.0396488
-0.0420201
0.00753203
0.00399352
-0.000129776
-0.0232581
-7.2527e-05
0.161751
0.579684
0.0141186
0.00255502
0.00302343
-1.62479e-05
-0.0211943
-4.95923e-05
-0.00650651
-0.00142837
0.00031385
-0.00279255
-0.00800658
-0.00010536
0.000729701
-0.00727644
-0.000267448
-0.00843394
-0.0128461
-0.0100292
-0.000991206
0.513605
-0.000594018
0.00204284
0.000206361
0.0117094
-0.0350114
0.0080381
-0.000152319
-8.55582e-05
0.00219695
-9.41908e-05
-2.53081e-05
-0.00962604
0.000585921
-2.06807e-05
-0.0361501
-0.00195947
-0.0388206
-0.00138004
-5.82106e-05
-0.00260042
-0.0095703
-0.0120987
-0.0200048
0.00194717
0.000443574
-0.000395153
-0.00162787
-6.81263e-05
0.229759
0.00130823
-1.70353e-05
0.000486329
-0.00170507
-0.000305586
-0.0436402
-0.0380154
-0.000112224
-0.00569251
1.09771e-05
-0.00226631
-6.28286e-05
0.0291063
-0.000120366
-0.000159079
-0.00303724
-2.02794e-05
0.0113863
-0.00019268
-0.00105537
0.0158267
9.97698e-06
0.328542
-0.037855
-0.0302024
-2.16328e-05
-1.7939e-05
0.00154409
-0.000989464
-0.0372663
-1.46565e-05
-2.1167e-06
0.000619163
-2.3984e-06
0.000318797
0.000377497
-0.000387073
0.000661121
-0.036958
0.430678
-0.0270113
0.283631
0.00763928
-0.0136258
-1.59555e-05
-0.000737276
-0.0097325
0.000121452
0.000239217
0.000142864
0.00988923
-0.00116085
-0.000185484
0.449529
-0.000458388
0.00048908
0.000422239
-3.88055e-06
-0.112023
-0.00182763
0.000951965
0.000105943
-0.000460313
-5.82202e-05
-0.000805851
-0.0318014
-0.000350142
-0.00137648
-1.08859e-06
-0.000699308
-0.000220464
0.158258
-0.000371293
-0.000234187
-0.0473578
0.0031671
-7.33775e-05
-0.00111164
-5.24129e-05
0.142861
-0.0502021
-0.000255808
-0.000325374
-0.00163508
-0.000133801
0.043348
0.0775064
-0.00703171
0.000425302
-5.75505e-06
-7.00593e-07
0.0326928
0.000213496
-0.0423116
-0.0213009
-0.0126609
-0.16437
0.523308
0.00163246
0.135789
-0.011725
-0.0219773
0.145809
-0.000300182
-0.0454525
-1.10349e-05
-0.0072253
-0.0346474
4.59092e-05
-0.0375046
-0.000790359
-0.0103677
-0.00468495
-0.0306175
-0.0306447
-0.0027483
-0.0439465
-0.03132
-0.000158041
-0.00965167
-4.49434e-05
-0.0274469
-2.37904e-05
-0.000157323
0.00567868
0.137808
-2.9588e-09
-0.0328094
0.00297213
6.3082e-05
-0.0166974
4.68116e-06
-0.0107556
-0.000218054
-0.0278763
0.000107953
-7.36705e-05
-0.00170143
-4.10901e-05
0.133981
-0.0229001
0.0196565
-2.60318e-05
0.000527147
-0.0241696
5.37948e-07
-0.0402304
-0.0458218
-0.0389643
0.472116
-0.00523892
-1.4914e-05
0.0211926
-0.0302245
-0.00214949
-2.21123e-05
-7.21618e-05
-0.0337802
0.000107466
0.000733451
-3.6138e-07
0.000134194
-0.0210967
-0.0262506
-0.058709
0.0680953
-0.00432667
-8.23447e-07
0.00484734
-0.0389122
-1.75754e-05
-1.18509e-05
0.000269446
5.36856e-05
0.000339848
0.109336
0.0284406
4.67484e-05
8.94351e-06
-0.0452969
0.170228
0.143617
-3.82682e-05
-0.0267645
-0.0155044
-0.00867025
-0.0341172
-0.00711794
-0.00237317
0.117818
-3.51233e-05
-0.0200267
0.140531
-0.0350754
-1.5135e-05
-0.0424896
-0.000147224
0.197133
0.0215949
-1.26394e-05
-2.3386e-05
0.148047
2.77818e-06
-0.000154117
-0.00931133
1.02834e-05
0.193248
0.00265442
-0.00591822
-0.0437733
-0.00306052
-0.0569395
0.154398
-0.0116807
-0.0454699
0.000837869
-1.66319e-05
-0.000852615
-7.27033e-06
-1.37934e-05
0.0129196
0.153689
0.125797
-0.000366667
0.215311
-0.0101927
6.05441e-06
-0.0325866
-1.53016e-05
-0.0211045
0.0225366
-0.011803
0.00367654
0.00154013
-0.00737992
0.000209875
-0.00137544
0.0149274
-0.00232754
-4.07234e-05
2.43705e-05
-5.14571e-05
0.0259698
4.54513e-05
-0.0180987
0.227484
-0.00485322
4.19819e-05
-0.00281019
-8.91124e-06
-0.0146243
-0.000297048
-5.48116e-05
-7.11571e-05
-1.11722e-05
0.180997
-0.000128604
0.184973
-0.0433875
9.47419e-05
-0.0381383
-0.000406832
0.132001
0.463419
-0.00114766
1.94877e-06
1.28247e-05
-1.78704e-05
0.0900804
4.14495e-07
0.000867334
-0.0184386
0.176008
5.34431e-06
1.21616e-05
2.26786e-06
2.05504e-05
-0.0158267
1.39657e-06
0.165168
-0.0129226
-0.000102003
2.47074e-05
-0.0016729
-0.0212798
9.50966e-07
-4.71769e-05
0.140324
2.79438e-05
-0.0238013
-0.047739
0.000111247
5.07212e-07
-0.109834
8.75754e-07
0.129561
1.20879e-05
-0.000368603
9.36994e-06
-0.000145365
0.0753644
2.38839e-06
-0.00133979
6.42896e-06
0.00923049
-0.00275559
-0.00511377
0.00049682
0.129286
-0.000224812
-6.71592e-05
-0.00702473
-0.00678433
-0.000200674
-4.52852e-05
-0.000733753
3.27418e-05
0.0780958
-0.00832248
0.451466
-7.39949e-07
-0.00607315
-0.000130425
0.0951701
4.65389e-05
-0.0202301
1.92288e-05
-0.0012866
-0.0247966
-0.00019078
-0.0122202
-0.0356145
0.00408241
-7.92113e-06
-0.0426305
-0.000275467
-0.000246587
-0.00442861
-0.0131857
0.00104477
-4.18479e-05
-0.000358322
-0.00076482
-0.0010386
1.05076e-05
-0.000983136
0.445206
8.04625e-05
-0.00263229
-0.0257363
-0.0493096
-0.0440554
-0.0341863
-0.0166507
-0.000439372
-0.014117
6.29572e-05
-6.77996e-05
0.445302
-7.81517e-05
0.120604
-0.00037052
0.000331988
-0.000921594
-0.0637138
-0.000343626
0.000407012
-1.29764e-05
-0.000322565
-1.34739e-05
-6.6113e-05
-0.0114552
-9.1342e-05
-2.32789e-05
-6.88714e-05
0.000121266
-8.84701e-06
-0.0313697
0.124555
-8.40507e-06
-0.000494325
2.44971e-05
2.53907e-05
-0.000680222
7.44075e-06
-0.000737201
0.000235386
-0.000301428
-0.0443333
-0.00056587
-0.00148636
3.84948e-06
-0.00130601
0.00028019
-1.26602e-05
-8.34951e-06
1.1003e-05
-0.000648969
0.000450878
-0.0323376
-0.0209874
-0.0445139
0.000444659
-0.00155836
-0.0455702
-0.0447581
-7.81978e-05
0.0117915
0.00552511
-0.000855308
-0.00923191
-0.0388389
0.392235
-0.000342914
-1.27044e-05
0.000720038
4.04029e-05
1.45665e-05
0.0607017
0.00290609
0.0703687
-0.0288712
0.383109
-0.00043011
1.66895e-06
0.000126366
-1.5302e-05
-0.00111401
0.112837
0.189258
-4.69408e-06
-0.000142036
-1.47388e-05
0.177774
0.010238
-0.00522234
9.65223e-06
1.59215e-05
0.00590265
-0.00056963
-0.0495833
-0.0128868
1.94621e-05
0.00285078
-0.0238155
-4.99083e-05
0.00146612
-5.6057e-05
-0.0327808
-0.00140652
0.110346
1.35942e-05
0.00136738
-0.000201819
1.22457e-05
0.000143678
-0.0174135
1.19995e-05
-0.00074459
1.83185e-05
-0.014966
-0.0322558
-0.00257767
-0.00615887
-0.006702
0.00737751
-0.00682725
-0.00197737
5.5332e-05
8.71234e-05
1.66342e-05
1.45742e-05
-4.66504e-05
0.00728201
-0.0420057
0.000409686
-0.0352751
-0.00246387
-0.0387297
7.18175e-05
-2.58195e-06
0.00106961
-0.10658
1.47264e-05
-0.034506
-0.011542
-0.10942
-0.0362256
2.17679e-05
-0.00275681
0.000161372
-0.141189
0.109796
8.95027e-06
-0.042251
-0.0171938
-0.00337271
3.09463e-05
-7.3041e-06
0.0156354
-0.0125614
1.9385e-05
-0.00532628
-4.39758e-06
0.000179463
0.0974861
-7.06585e-06
1.96952e-06
-7.16331e-05
2.82046e-05
0.000736683
7.21711e-05
-0.00415451
0.000194588
-0.00970905
0.000903108
-0.000170255
-0.0251562
-0.0310801
-0.00493487
-1.26605e-05
1.73842e-05
-0.0461322
0.00467897
-0.0339312
2.30309e-05
-0.00407287
-3.03606e-05
1.97234e-05
0.0479703
-0.00546321
-0.00222021
-1.61716e-06
-0.013555
4.04428e-05
-0.0463873
2.16538e-05
-0.0522395
1.50371e-05
-5.02978e-06
6.97219e-05
0.000839229
-0.0844152
-0.0135893
-0.0485352
1.26049e-05
7.82494e-05
-0.0530265
-0.0210548
-0.00652453
-4.16696e-06
-0.0351264
-0.0368351
-0.0522251
2.28823e-06
-6.55341e-06
3.02326e-06
-0.0733133
-0.0476008
0.000592441
-0.00847586
-4.65541e-05
0.119479
7.81046e-05
1.12406e-05
0.000124843
-8.07354e-06
-7.22996e-06
-0.00287331
9.3773e-05
-0.00204911
-0.0459233
-0.00995836
-0.0397582
3.25187e-05
-4.2313e-05
0.0334148
-0.0452951
-0.00372706
0.0879392
3.07107e-06
-1.12667e-05
-1.03139e-05
0.0311419
0.000143489
-1.62196e-06
-4.23916e-06
-0.0451333
-0.011715
3.92935e-06
6.40794e-05
-0.00715977
-0.0050156
0.000353695
0.190046
-0.0430418
9.855e-05
0.588798
-1.59257e-05
-0.000562289
-0.00683042
-0.0511115
4.77251e-06
-2.81177e-06
1.75096e-05
0.00388913
-0.0257299
-0.000275044
-0.0353068
-0.00597799
2.16841e-05
-3.9074e-06
-0.00778631
-0.0071733
-0.0312964
-0.0806092
-0.032177
-0.0281398
-0.0284605
-0.0204934
-5.20516e-05
0.000293379
-0.00299522
0.000437334
-6.60117e-05
0.00062587
2.47714e-05
-7.55898e-05
-0.00924365
-1.00159e-05
-2.36951e-05
0.0232504
-0.0309412
-0.000134543
-3.34558e-05
-4.81575e-06
0.209911
-0.00516779
0.000641329
-0.0211295
0.000188736
0.000163928
0.00014242
-4.01937e-05
0.000400163
-0.0278005
0.0112897
-7.61124e-06
-0.000135359
-0.0307763
-0.0244178
0.0387692
-0.000399068
0.00148669
0.0143447
1.11808e-06
4.98726e-05
-0.0366686
1.81004e-05
0.135643
5.99537e-06
0.00341209
0.000138063
0.000184269
-0.0476809
-0.00570143
-0.0135402
-0.00190369
2.1443e-05
0.00485368
0.0485864
-0.00945507
-0.000110548
0.0747926
0.131518
2.64962e-06
-0.0368914
-5.49542e-05
-8.66939e-06
-3.67387e-05
-0.000460102
0.01593
-5.69093e-06
0.000204022
-0.0184445
-0.0191426
-0.0164292
0.268143
1.37322e-05
-5.67869e-05
0.139875
-0.00721168
-0.00299302
-0.000528834
0.137303
3.55408e-05
-0.000260298
3.71852e-05
2.1003e-05
2.54994e-05
2.9152e-05
6.02854e-05
-0.0132787
6.30039e-06
-0.00263691
-0.0317419
0.186524
-0.000119927
-4.07444e-05
0.00382093
0.0669252
-0.0365849
-0.000607793
-0.0481318
0.265501
3.5108e-05
0.357235
-3.79206e-06
0.00270214
0.0193947
0.000360229
0.391276
-1.27694e-05
-5.13049e-06
0.000938488
2.51266e-05
-0.000695439
0.00021664
8.48523e-06
-0.00155724
7.33022e-06
-0.000119175
-0.0026043
0.203956
0.0374549
0.0176593
-0.0311239
-4.29413e-06
-1.52332e-05
0.00274302
-0.0421892
-8.19814e-06
-0.0331685
-4.41095e-05
0.0817646
0.0486833
-0.0248109
-0.00108095
-0.00946308
-0.000788447
-0.0112191
0.00255316
-0.0058819
0.04908
1.67219e-06
0.152407
-0.000157666
-0.000490068
0.168275
-0.0102281
-1.0241e-05
1.86119e-05
5.42206e-05
-0.00017135
-0.0001008
0.208359
-0.000786328
0.212417
-0.000891763
0.135793
0.175764
0.0467792
-0.00547903
-4.51095e-06
5.2062e-05
-0.00812311
-0.0954123
-0.0357606
0.00121294
1.58002e-05
-0.0275455
-0.00026811
4.19431e-06
0.000824139
-0.000855139
-0.000546512
0.0261319
6.15839e-05
-0.034234
0.0437204
4.73007e-05
0.000220917
-0.0113192
-0.0435283
-0.000588486
-0.000420503
1.00835e-05
0.00020632
0.00167947
-0.0131925
-0.0355977
0.00106542
0.0372466
-0.0286716
2.88529e-05
1.81189e-05
0.00101503
-7.4676e-05
0.0306079
0.000117223
-0.0103131
-0.000310556
0.0013149
-0.0272225
-3.00106e-05
0.00040456
-0.00398334
-0.0515994
0.0949182
-0.0433525
-0.0203275
-0.00013732
-3.74323e-05
0.00545844
3.74977e-05
-0.0513686
-0.0471941
0.000464992
0.00272986
0.0030688
-0.0781964
0.000527544
0.000156576
3.03758e-05
-0.0306208
2.28836e-05
0.000460135
0.0976253
0.147475
-0.0938018
0.0390986
0.0376128
0.00336451
-0.000133936
0.00835856
0.000101297
6.93562e-06
-6.24686e-05
-5.31032e-07
1.92972e-05
-0.000289143
-0.00595987
-0.0535862
-0.00756958
-0.0226512
0.0409747
0.0345429
0.00329758
-0.0456871
0.000132831
0.00371499
0.00901875
-0.000314085
0.0566397
-0.00103655
-0.00857887
0.00934191
0.00446634
0.000768295
-0.00318373
0.032449
0.000669228
-0.0149942
-0.0126836
0.472332
-0.0190638
0.0618524
-0.0015595
-0.0293364
0.00177271
8.32212e-05
-0.00202955
4.55305e-05
-0.00208761
-0.0193502
-5.71404e-05
-4.12438e-05
0.206866
-0.00261489
-0.0306458
-0.0142573
0.000165763
-0.00121473
-1.91162e-05
6.02884e-06
0.0282238
3.26087e-05
-0.00232692
0.0563514
0.00501525
0.000914279
0.0144166
-0.00452411
0.00337376
-0.0993308
0.000702915
-0.00350591
-0.0404908
-0.000697254
-0.00631431
0.000605832
0.000452257
0.000804913
0.0267859
-0.000265249
0.00457011
-0.0386036
-0.0158692
0.000249813
-0.0380927
-0.0115125
-0.0130369
8.38048e-05
0.00534304
-0.0521331
-0.000675991
-0.00384962
-0.0353094
-0.000230652
-0.000934268
0.177499
-0.0174878
-3.40336e-05
0.00665487
-0.0378996
-0.000841529
0.161853
-0.00183933
0.000822726
0.0475875
-0.00114019
0.00667755
0.104021
4.4648e-05
0.000952217
0.000145824
2.88015e-05
-0.00355085
-0.00587985
-0.000114299
-0.0182955
0.0743824
-0.0272112
-0.0542152
0.000943427
-0.00259238
-0.000512037
-0.0437514
2.14756e-05
0.0120498
3.4916e-05
-0.0121446
-0.00155105
-0.00391038
-0.139463
0.0837926
-0.058513
-4.35199e-05
0.142581
-0.00159064
-0.00217083
-0.0418607
-0.0619815
-0.0120845
-2.45512e-05
-0.000938804
0.00583763
-0.00245298
-0.00372866
0.000348629
0.0670548
-0.0335032
-0.00862932
-0.00522018
0.0138367
-0.00256743
-0.00131847
0.00138044
-4.20114e-05
-0.00244585
0.0835601
0.000639886
-0.107899
-4.83621e-05
-0.00572142
-0.00306212
-0.0672948
-0.0089629
-0.0796162
-5.2655e-05
-5.10759e-05
-0.00399426
0.00855498
0.00144307
-0.0927373
0.0610993
-0.0357227
0.000153552
-0.104234
1.79701e-06
-0.11167
-0.0192923
-0.14137
-0.15512
-0.167851
-0.182415
-0.198689
-0.196727
-0.187122
-0.163762
-0.147379
-0.0408307
-0.000814142
0.0444321
0.122293
-0.00627208
-0.00582134
0.0370687
-0.015373
0.000724851
0.00911282
-0.0299807
0.000405333
-0.000570542
-2.41072e-06
-0.0110967
0.014297
3.5775e-05
-0.000271426
-0.00810449
-0.00729699
-0.133561
-0.0117368
-0.0405636
-5.74236e-06
0.000459329
-4.28544e-05
-0.0450275
-0.0069203
-0.0275288
-0.00937026
0.00138835
0.00017501
0.00381169
-2.69147e-05
-0.0137935
-1.35888e-05
0.000303692
-0.00564907
-0.00886474
-0.000256651
0.000267839
0.0391164
-0.0081168
0.0425588
-0.121671
-0.00740648