/*--------------------------------*- C++ -*----------------------------------*\
  =========                 |
  \\      /  F ield         | OpenFOAM: The Open Source CFD Toolbox
   \\    /   O peration     | Website:  https://openfoam.org
    \\  /    A nd           | Version:  7
     \\/     M anipulation  |
\*---------------------------------------------------------------------------*/
FoamFile
{
    version     2.0;
    format      ascii;
    class       surfaceScalarField;
    location    "40";
    object      phi;
}
// * * * * * * * * * * * * * * * * * * * * * * * * * * * * * * * * * * * * * //

dimensions      [0 3 -1 0 0 0 0];

internalField   nonuniform List<scalar> 
11512
(
138.234
-509.179
370.946
-780.631
5.61874
775.012
423.217
-371.416
-51.8003
661.251
251.772
-913.023
1510.13
-1069.39
-440.748
1216.25
-1527.09
310.841
-33.1878
468.589
-435.401
169.296
-840.227
670.931
961.9
-1610.7
648.8
-1772.67
1681.32
91.3479
-542.947
1759.2
-1142.76
1936.47
-793.708
604.459
181.446
-785.905
-25.9222
-1324.15
1350.07
224.02
-1996.69
1021.74
-387.405
-634.339
-196.302
334.536
481.61
190.636
-672.246
1154.04
-1316.54
162.497
-336.687
380.144
-43.4566
1015.7
-1330.68
314.983
1221.76
800.438
-2022.2
75.7906
-1652.75
1576.95
-500.018
-1154.03
1654.05
471.353
181.964
-653.317
-181.47
-327.71
497.369
1012.76
1660.38
-1819.92
159.538
-98.8632
-1687.95
1786.82
-1561.52
659.036
902.485
-313.644
652.302
-338.658
-191.975
-124.748
316.724
1294.95
-1219.16
355.396
-1407.15
1051.76
-1754.22
1754.22
100.007
1544.83
-1644.84
-1086.49
-475.034
649.419
-682.607
-389.329
942.288
-552.959
1331.68
-1317.09
-14.5843
-1100.34
711.011
620.609
401.135
-421.128
-11.5103
432.638
-462.935
809.835
-346.899
-1618.31
1618.31
1253.52
-1437.83
184.308
-489.476
1711.24
1252.18
-309.889
1660.7
-1161.19
-499.507
53.4875
-390.175
2068.43
-1137.55
-930.885
1827.74
-167.361
448.959
156.1
-605.058
-477.023
982.818
-505.796
-1180.88
1280.88
-565.828
968.815
-402.987
395.579
758.463
660.053
-490.757
-438.435
587.193
-148.758
1190.5
-835.109
2308.25
-1080.71
-1227.54
1165.09
-2012.73
847.643
-1614.8
1588.87
440.442
-1583.21
-758.613
1250.14
-491.53
-670.324
356.68
1661.4
-699.503
-1106.93
-870.904
1977.84
704.778
-391.841
-312.938
691.016
561.162
-258.22
1511.74
92.771
-307.564
214.793
-284.673
756.026
-332.299
557.408
-225.109
-324.312
805.921
-320.841
-136.248
457.088
317.752
105.464
1475.44
-459.743
-1006.46
500.899
505.564
258.259
101.517
-359.776
945.835
-341.376
-1705.14
629.612
1075.53
22.9114
-869.471
846.559
-273.168
586.876
-313.708
159.017
-1093.92
934.9
1050.28
-1065.94
15.6566
373.173
516.11
-889.282
-245.243
694.202
-1102.62
-482.861
1585.48
-676.303
948.924
-272.621
1351.54
-1450.41
-663.919
296.591
367.329
-470.214
-1011.45
1481.66
-535.154
-798.49
1333.64
574.719
-994.568
419.849
-260.376
-313.133
573.509
398.712
-305.941
-1049.95
572.928
955.643
-796.625
-110.43
943.521
-833.091
-197.765
405.144
-207.379
-639.444
-367.019
-386.735
961.453
1856.35
-1856.35
-483.366
-180.554
-944.364
1571.37
-627.003
462.493
-898.785
436.292
-921.419
355.591
-941.901
-1058.08
-1503.68
342.377
1161.3
-265.475
926.725
-340.568
635.59
-295.022
-1941.89
999.992
-1153.93
-349.75
572.515
-1516.88
1728.5
-1726.14
-2.35672
199.47
-623.112
423.642
-1474.29
975.872
498.417
272.68
226.535
-499.214
302.812
-635.111
229.73
-402.558
172.827
2017.61
-872.677
-1144.93
-559.742
138.614
613.874
842.871
-1456.74
-182.396
412.127
431.944
875.682
-1307.63
-901.347
386
515.347
-1052.9
1448.48
-1068.14
309.527
744.599
-92.2965
576.841
-294.479
-282.362
1031.37
-530.469
593.509
-1403.53
810.025
-1341.98
239.356
-537.855
264.687
-1192.53
927.054
1945.6
-986.651
-958.952
276.796
1579.55
-2101.56
899.819
1201.74
349.341
-34.8929
-314.448
-222.441
476.362
-253.921
-89.0316
-397.325
486.356
-456.678
135.837
334.967
-132.262
594.755
436.344
373.596
-809.94
-2044.02
1129.14
914.879
462.172
-523.033
60.8614
215.011
-354.974
139.963
1004.52
1013.08
1798.8
-253.969
758.066
-461.475
794.93
-1388.56
593.631
368.989
335.789
1067.31
-1044.4
-485.443
-259.454
744.897
464.322
-123.906
-340.416
794.38
-612.933
544.694
-735.602
190.908
503.333
1157.36
-1240.5
705.341
1030.16
-1530.18
-3.11085
-1439.42
1442.53
328.415
821.669
-1150.08
621.451
269.885
-891.336
-2270.39
1152.9
1117.5
-1098.31
-1172.08
174.285
370.409
959.278
-630.863
877.673
-897.502
19.8288
-2099.39
992.463
-214.454
-184.626
399.08
-42.1892
1770.69
-848.093
67.4624
-1033.2
-1068.37
-226.801
441.812
-701.344
217.978
-292.77
-425.052
717.823
1103.91
-1574.13
782.374
-1374.08
591.71
698.58
-446.807
1947.81
-1444.48
-378.28
-1375.94
60.063
408.526
-540.665
546.283
35.2064
-594.7
559.493
568.052
-295.372
-596.334
273.197
323.137
790.252
-353.908
35.4203
313.92
1188.47
-1191.58
159.19
239.522
396.227
-688.998
617.879
-1004.61
-2026.79
2026.79
-276.566
-445.072
721.638
698.592
405.829
-1104.42
579.978
164.621
422.557
367.695
-2199.77
1328.86
-925.459
-680.871
1606.33
-473.444
-719.084
-248.775
559.135
-310.361
839.361
-222.308
-617.053
-467.192
666.662
361.407
-701.975
-385.415
-133.073
518.488
-1340.67
-479.241
655.446
-1128.89
-374.133
-1244.18
844.367
1463.88
305.568
-915.384
609.816
966.072
-345.462
1391.1
-797.588
438.646
-279.455
-321.369
-881.929
587.626
294.303
-353.918
-528.011
321.417
-410.448
-185.993
-159.78
345.773
-392.835
1091.43
433.051
-242.415
-380.161
1368.19
-173.73
-1194.46
-487.564
312.143
175.42
220.405
276.575
-496.98
-5.40034
-730.202
592.223
-1729.11
1136.88
1487.25
-873.38
-1048.07
-426.223
-1055.27
574.925
480.346
1395.66
-419.787
928.262
-1411.12
-175.935
-180.839
356.774
-467.054
577.315
-1630.22
427.828
903.847
304.559
297.693
-602.253
568.025
1186.2
1101.98
-708.145
-393.837
388.197
-200.317
-187.88
-1419.41
447.267
736.048
-1183.31
1473.16
-544.899
-484.091
945.057
-460.967
426.167
1186.13
-1612.3
47.443
-723.746
-155.684
413.943
193.553
-385.528
543.078
488.29
-591.425
37.4403
553.985
1024.5
-1307.63
283.13
674.133
-251.576
468.456
-1447.18
978.727
389.965
1689.61
-524.524
894.274
1051.33
-657.502
-1684.99
759.528
563.521
414.786
-978.306
458.125
79.1537
1750.24
-1829.39
1443.58
-379.491
-1064.09
1699.25
-1741.44
-364.255
-546.697
732.675
-185.978
-502.59
169.524
294.798
-373.117
-1225.9
214.447
-764.778
-638.756
-625.983
995.712
-369.729
-650.429
640.193
10.2361
654.699
-923.28
268.581
-705.592
348.532
357.06
-646.651
-703.547
344.991
358.556
-932.042
1400.5
-428.513
894.89
-466.377
-2205.32
5.55592
166.249
-528.512
362.263
144.876
1223.32
-108.341
-593.003
150.546
-588.981
1486.9
-704.524
395.908
-466.323
70.4145
-559.68
559.68
1222.93
395.378
1778.4
-1227.54
590.364
637.176
845.813
-51.4337
1292.92
775.516
-541.31
1336.24
293.523
293.353
265.842
-812.538
251.865
-714.8
223.576
-434.955
211.379
-258.046
590.767
-332.721
110.877
-368.923
-590.956
-564.724
1155.68
-380.209
561.293
-181.084
-1192.14
2032.03
-839.883
1287.72
-328.439
-395.037
134.662
-1982.14
828.107
1551.74
-852.013
-699.724
1987.07
-877.505
-1109.56
714.674
573.043
-239.521
463.097
-673.132
1160.94
-487.81
-768.933
1200.88
552.063
924.504
-1726.12
801.614
-555.608
-86.2372
641.846
314.286
262.555
411.272
-85.4807
-325.792
896.142
-83.5877
-812.555
942.611
-581.665
-360.946
1576.12
-472.21
896.172
-1631.18
735.009
1068.43
879.375
745.84
-433.473
-312.367
-1058.78
-258.316
575.451
573.502
-1148.95
-471.132
531
-59.8685
571.222
-332.592
-238.63
-990.932
562.418
593.643
893.611
-441.741
1096.44
1429.89
-791.784
-638.103
387.057
-922.035
534.978
-1052.15
412.706
577.659
-1061.75
482.906
-558.668
75.7625
493.943
315.891
-510.825
-48.8546
-793.696
-882.681
1676.38
178.235
209.962
-238.451
412.736
-29.823
-577.08
606.903
502.818
873.305
-1376.12
-499.457
313.465
984.953
-88.8109
835.067
-1064.03
228.962
411.167
844.587
-1385.9
-465.682
839.278
1983.4
-1289.09
-694.314
269.357
608.316
255.38
794.901
101.433
-985.061
883.628
1673.7
-1088.89
-584.813
-138.115
1888.35
-1866.15
-160.641
482.128
-620.269
138.141
-1010.67
528.724
481.947
-1730.46
538.315
-955.308
844.879
393.104
194.089
577.85
-272.282
-415.481
706.201
259.871
44.8651
723.203
-768.068
-1127.32
-901.688
2029.01
-546.423
1127.17
-580.743
-488.55
-319.57
105.116
-1658.72
865.02
-842.257
-621.721
1463.98
-328.38
-294.176
622.556
349.649
-661.222
311.574
261.808
-615.716
346.988
194.459
-541.447
372.189
-620.964
631.715
-282.066
315.566
-451.814
682.266
419.848
-199.444
-411.777
-291.77
1230.52
-2.12973
-1228.39
1038.2
-420.32
557.894
410.921
-1782.28
869.801
912.481
487.192
564.819
-1052.01
-531.252
202.872
-265.06
1182.45
-917.392
-1590.79
1212.51
504.579
-1095.53
386.185
9.72291
432.728
321.064
-753.792
366.18
-611.423
-40.0916
760.902
-720.811
-524.5
794.386
401.946
320.234
525.579
649.991
108.938
-424.722
315.784
1057.82
-644.376
-413.448
494.059
-1664.27
1170.21
-1140.24
1753.21
-612.971
1715.9
-1123.68
-333.526
606.723
-1182.46
1283.9
424.424
-801.618
1617.8
-816.185
-287.753
-199.811
-904.914
1473.49
1817.56
-610.453
-1207.11
-405.309
679.883
-1305.87
-124.619
-63.325
474.597
-692.479
-354.185
-1236.61
-212.114
473.922
901.977
-561.613
164.288
-1674.97
-71.3561
1746.33
-1088.15
541.728
564.185
-1188.18
623.995
901.047
916.515
630.352
619.792
707.673
237.385
-1154.37
481.235
-395.058
430.264
612.718
-512.866
231.814
-730.597
498.784
716.958
-347.969
-307.845
183.096
-625.644
257.049
368.595
-885.498
-745.682
1087.66
-2145.74
394.175
-678.848
-342.752
-723.186
839.019
590.868
-340.955
329.444
380.739
245.155
629.827
-874.982
524.77
636.173
-562.768
177.353
356.387
-632.953
-1041.05
-855.07
1896.12
-1810.35
157.601
1106.49
-1371.55
1169.15
-709.471
-459.675
-504.879
1349.47
-1495.4
627.944
867.456
-283.015
-208.721
491.736
1428.45
558.614
366.676
-499.748
-477.822
-577.057
1054.88
-428.602
594.851
1583.62
-1131.67
-451.95
-796.154
351.082
654.348
403.476
-1623.42
416.196
1207.22
-180.987
527.976
797.487
786.135
208.676
-710.063
501.387
195.41
209.734
-271.959
-110.688
382.647
510.046
-7.04667
-502.999
-1650.81
602.742
-1613.45
1684.89
-71.4407
14.7767
-1628.22
1069.44
788.397
-355.67
-826.155
-225.994
-1134.57
-239.51
-312.057
678.237
-1813.09
-641.835
1215.34
224.276
758.543
-1333.77
-678.958
-466.295
634.798
-330.239
-1013.25
1350.82
-1933.08
582.259
647.75
1288.72
478.434
-2.07163
718.534
715.479
-1434.01
-634.631
324.755
309.876
433.585
-100.878
-332.707
137.975
331.913
149.756
-481.669
-600.958
1164.48
450.062
-652.216
-458.944
-401.831
860.775
-326.189
150.254
-454.335
148.394
-299.921
-710.75
538.242
-104.656
-580.132
967.189
570.865
-266.817
-304.048
451.466
-775.777
-651.11
464.12
-1129.36
-849.702
1192.08
-569.771
443.848
301.049
-471.244
79.4028
1026.52
-312.949
587.891
-274.941
-509.039
1578.48
-700.614
260.639
364.676
-625.315
232.789
506.148
-37.7824
-468.366
-269.505
-184.83
1013.35
1108.8
564.9
-893.689
958.167
-64.4773
-450.167
167.153
-753.315
328.263
-596.825
328.047
388.911
850.152
-1254.11
403.961
775.327
-815.418
-948.794
-550.399
1499.19
-181.636
479.33
-569.443
274.964
1309.5
800.346
-591.67
1332.04
-676.592
486.891
-659.76
-400.583
-419.858
-378.444
798.302
499.283
-840.659
-478.096
105.904
372.192
-306.852
572.513
724.321
-330.146
-225.752
-174.967
400.718
-492.817
125.826
366.99
1463.47
83.6281
-1547.1
-757.207
1350.85
-1144.79
-465.914
551.734
-187.058
1154.38
-379.05
1083.4
492.726
707.863
-442.021
-884.617
-522.534
-1328.28
-18.6383
986.026
-967.388
594.456
354.109
-948.565
-358.317
-201.425
-685.336
405.55
1621.24
-201.698
389.936
338.15
-728.086
-1839.75
-2106.71
1519.15
587.556
-2037.06
349.106
386.682
531.763
-918.445
-460.645
1018.54
-418.546
-668.79
1087.34
-2030.57
1391.21
639.354
594.758
-1013.3
43.9577
438.948
386.064
182.142
256.504
324.512
981.441
885.872
674.417
-319.728
-354.689
-286.546
614.537
-327.991
568.239
533.743
564.144
514.434
-1078.58
-796.012
-699.388
750.423
403.954
-406.395
717.968
-1193.37
1609.57
443.444
-1112.23
-360.69
555.148
-1384.97
894.019
490.948
-710.924
-336.439
-774.881
336.63
438.251
447.423
717.148
-1164.57
1081
-593.809
-430.306
680.136
-249.83
249.713
321.152
-465.158
-432.436
897.594
-225.78
574.72
-973.585
398.864
-462.017
600.598
-1681.31
424.059
669.801
-1093.86
524.846
110.744
113.414
-2212.81
551.855
-108.007
1445.24
1777.1
-217.546
-1559.55
-438.578
1789.4
-1987.38
1194.63
792.747
394.274
351.566
-45.4109
884.43
-1282.49
717.766
-866.989
-821.77
803.132
295.768
84.6106
-380.379
220.121
172.031
-392.152
1565.89
-847.353
-1530.92
-325.432
521.948
-233.559
-288.39
390.337
365.689
269.458
365.34
-12.0131
1004.04
-992.028
379.777
301.46
-681.237
-734.215
1817.47
-1083.25
-342.624
732.96
-1229.42
-415.415
-912.768
480.333
596.712
-794.996
198.284
757.105
-375.445
-381.66
-440.332
-453.357
451.9
1102.43
1243.22
-679.035
797.412
-345.947
381.126
340.512
-230.643
-235.68
-229.448
619.413
408.288
-844.115
435.828
240.945
349.808
-590.753
-418.968
827.256
753.864
-1146.7
899.168
-49.0154
-485.132
283.481
783.832
-96.8555
1385.58
1890.51
-42.8451
354.989
-318.147
427.085
-1089.03
1077.02
649.235
376.554
380.551
88.6032
433.345
261.03
513.983
-379.551
-255.081
-560.707
-89.7222
-375.187
361.942
13.2447
-257.394
-280.461
1010.68
-1540.67
529.982
-179.078
-192.338
-388.459
689.919
-1651.32
1590.9
-962.959
283.783
-684.366
584.34
1224.41
-1808.75
607.45
983.453
329.364
-1129.75
714.274
-286.091
-316.162
1390.06
-1457.78
839.712
618.066
446.088
-653.196
207.108
-403.624
497.072
-93.4481
388.665
121.381
1724.94
446.609
-251.199
557.677
-1704.79
1147.11
-100.461
395.014
343.091
331.326
-448.805
-614.099
1062.9
409.569
-875.251
-639.97
902.089
571.071
-477.554
-228.038
-434.57
-409.545
-307.78
-826.795
1821.09
-1821.09
-100.179
-1601.62
1701.8
299.032
272.189
-916.73
-555.707
1472.44
-408.156
972.3
-613.988
-1036.82
698.506
405.739
-1104.24
466.213
-150.647
573.079
1220.34
-1793.42
-1039.33
2114.04
-1074.7
-381.1
-289.224
-486.857
837.939
-1762.33
1609.43
152.904
1762.33
-1616.36
-145.974
-237.127
515.406
-278.279
-537.319
1620.72
1578
-1993.42
1111.21
-295.252
-276.193
571.445
226.979
-587.668
-715.758
309.363
1344.19
639.209
589.48
476.916
-1066.4
267.85
440.013
875.151
500.113
-1375.26
543.254
-1021.08
1574.93
-564.25
-772.878
-360.548
-144.962
505.51
-490.443
1207.59
-742.299
328.175
366.027
393.18
244.893
-638.073
620.159
831.456
-602.494
262.214
695.953
-477.554
-332.47
-249.399
581.869
1168.4
-682.412
605.423
470.134
-1075.56
-1289.25
1289.25
-381.697
758.251
-272.755
-488
760.755
506.628
439.167
-945.795
398.817
-671.573
602.754
-871.506
268.752
-367.706
-487.501
1076.98
-658.367
-714.863
1373.23
-382.426
957.146
-1552.8
675.294
38.4037
-440.98
402.576
-526.878
744.857
275.257
315.51
158.961
307.252
-540.275
254.185
1870.91
-1967.76
263.858
-731.05
466.181
-827.915
361.733
-904.093
1428.68
-524.591
-430.444
-482.324
600.923
1124.14
-1725.07
-713.273
332.172
-465.014
1033.25
-799.864
1062.08
-370.424
-620.072
-507.246
759.111
536.531
-354.567
916.197
-325.294
-167.523
1599.04
-1816.58
-353.235
-620.35
-355.838
481.664
285.009
-615.249
-179.556
1077.13
-793.653
196.831
-310.184
-269.668
579.851
391.491
-895.658
504.168
-476.648
-471.789
-915.384
-368.628
610.509
-241.881
-468.74
-451.131
-363.359
-178.088
-415.915
660.808
-445.66
786.173
-1071.38
622.572
-1405.26
563.003
-29.0695
-1841.67
1870.74
570.169
-450.997
1243.53
-701.799
292.405
-292.405
675.277
-460.237
1036.17
-1650.16
-1158.74
-947.969
285.754
328.783
899.646
718.157
-514.925
-307.785
822.709
1663.12
-1692.19
-432.919
332.562
235.49
1134.79
-529.368
-943.343
1550.5
-607.158
440.601
-258.459
368.798
411.586
-780.384
548.877
466.518
-1015.4
-331.079
659.254
-38.2399
1909.15
1608.69
992.242
-1696.77
726.316
-1176.43
450.119
-492.522
1367.67
836.113
-1340.99
-584.396
289.144
815.853
-401.068
546.467
-1195.41
648.941
-631.785
-1215.52
-695.718
1911.24
-191.524
574.644
-383.121
-188.703
335.493
-527.016
340.156
360.552
-700.709
-1493.61
756.918
736.695
883.928
-1434.33
820.502
-434.503
200.866
-356.55
-617.191
284.722
-667.594
-717.373
696.621
507.997
-1204.62
379.031
-206.498
-172.533
553.344
-956.331
-586.816
-426.935
755.199
-831.366
-1156.01
-1437.93
499.767
938.163
1.23361
-663.177
361.904
301.274
-1328.78
1051.28
277.506
-614.791
-456.586
-665.409
920.789
395.497
-186.619
-208.878
508.475
980.346
-1488.82
988.044
-558.398
164.794
393.603
-426.198
695.31
-431.452
-510.615
154.777
234.063
-1523.15
524.174
556.827
-787.006
260.128
135.12
-460.414
359.856
-831.646
1954.16
-1195.38
-758.779
431.419
-703.687
272.269
319.588
349.715
100.249
-449.964
-585.493
183.799
262.81
-691.844
1374.12
-682.274
424.1
488.002
-1198.93
258.012
1866.77
-1013.59
-853.178
783.791
-560.128
191.5
1402.28
-975.08
-427.204
324.704
-784.941
-616.615
1725.42
606.399
636.821
333.166
-37.3984
265.003
-1138.31
1725.72
-587.406
-1763.56
820.213
1769.4
-1697.6
-71.797
-673.38
278.322
585.936
-744.217
236.971
1402.52
-566.403
379.058
460.22
-1858.83
1420.25
581.497
-450.762
-130.735
198.086
-561.445
-290.139
-198.411
-347.158
690.249
-597.912
237.364
624.779
546.91
-1171.69
1113.42
-1947.72
834.297
157.241
361.247
-1700.74
1662.5
306.137
-748.158
-175.446
376.312
765.811
679.064
-1444.88
1087.82
-1089.95
522.346
-1116.16
-623.051
244.983
378.069
551.807
-294.758
-625.391
-1024.77
286.313
-737.443
-912.323
171.02
149.942
229.089
415.621
285.768
-701.389
-641.713
-834.487
-978.598
486.706
-1072.2
-326.551
501.971
534.366
657.713
-275.654
-119.384
-413.144
742.508
264.222
-1206.31
564.599
1317.29
-551.477
442.302
-1029.12
-380.31
167.387
414.11
1023.07
551.866
-1721.82
1621.64
1642.73
-588.233
-1054.5
1907.6
-1897.18
-10.4196
230.542
-548.689
-372.882
569.713
-778.016
-338.868
-334.512
1017.34
711.474
-1521.17
809.698
315.534
-26.1813
1625.22
-1108.22
425.804
-1258.79
485.908
-61.8716
1525.34
1196.86
-470.54
-485.157
-73.241
-283.381
736.092
-1951.61
-705.591
369.961
-536.912
166.951
190.05
-502.999
1139.96
671.637
-1811.6
-642.292
191.531
941.523
-1497.23
-210.543
678.713
-468.17
872.379
1127.62
-747.815
1354.21
638.123
-500.712
-137.411
-340.825
1180.54
1049.09
-1979.54
930.445
-1181.66
539.829
1488.68
-586.592
-408.05
-154.718
-1248.25
569.214
1165.22
-89.6971
946.311
776.155
-1722.47
-191.652
578.911
-1541.7
962.793
487.034
916.333
-1403.37
632.99
582.347
416.832
-1106.59
588.759
1115.89
1214.98
-452.058
-762.919
-1186.2
-1754.93
-4.45717
-1717.36
-208.568
-444.628
1613.23
-636.466
-976.765
-490.799
1121.15
-1323.61
633.215
690.4
-1366.1
1449.73
-1336.72
588.902
1520.43
-395.664
-601.52
193.47
-1492.33
219.937
176.388
248.607
389.516
439.449
416.274
-855.724
506.48
-938.708
899.869
-1444.77
-725.526
241.62
483.906
-1058.81
457.848
-491.67
870.729
697.995
10.9987
-551.767
168.646
-886.569
-1318.76
-710.288
344.309
365.979
395.048
-721.189
326.141
-471.302
-189.355
-708.147
727.733
1540.28
-593.972
826.81
739.077
1344.56
-844.446
-970.769
-570.935
-792.21
429.23
362.98
-1035.11
-636.264
297.681
338.583
-1433.68
-296.776
-786.56
393.552
393.008
-674.905
423.771
251.134
-700.277
268.826
412.894
484.7
389.886
437.369
476.389
384.387
594.824
-967.941
700.089
464.389
451.262
355.863
-807.125
1630.71
-1079.79
-550.917
-504.988
-293.675
-1035.11
450.773
347.529
409.79
592.226
-1002.02
-1386.29
749.828
-527.167
1151.16
372.63
-40.7162
412.662
-862.266
449.605
-1899.58
297.96
438.376
-722.846
284.47
-194.745
397.797
-203.052
-659.093
297.117
361.976
-668.426
313.737
370.742
387.509
611.441
-1019.6
751.324
665.562
-1416.89
438.89
624.013
336.782
391.553
-728.335
405.035
327.925
599.526
677.475
424.953
609.502
-1042.58
433.083
-1675.71
1180.18
495.532
1696.55
-539.186
617.639
-1146.82
529.181
-638.497
344.321
437.787
-932.703
494.915
776.689
-455.625
350.637
339.612
585.45
-938.685
654.555
-1252.32
597.762
399.015
733.568
-1224.01
768.349
510.148
-1278.5
501.775
405.455
-907.23
-501.843
-936.087
-291.477
631.633
352.453
540.079
-892.532
328.211
331.043
-502.196
1944.73
435.275
-844.926
409.651
-917.506
-808.613
-743.994
362.335
-1240.92
441.059
-1746.48
1616.36
130.118
1754.06
-1609.43
-144.634
-780.517
-585.004
258.285
326.719
-1769.4
1993.42
539.277
790.313
-1329.59
440.182
715.498
689.532
385.608
-1075.14
-51.6784
1617.14
-594.071
395.099
848.428
-643.72
322.274
321.446
-378.962
-295.542
545.255
-208.137
434.671
275.186
-658.104
382.918
256.795
-570.503
-276.863
442.884
-1031.92
589.039
538.079
1092.63
365.956
595.497
308.062
349.759
-657.821
1641.71
-930.238
1692.78
-1521.53
-171.245
-328.209
-819.609
410.064
857.131
-1067.67
-599.971
271.981
-1090.51
1628.59
-1598.47
-73.576
1672.05
-341.686
-350.51
-370.744
541.305
593.486
-501.256
-21.7779
-549.479
497.537
-283.462
-214.075
1763.52
-1311.62
-618.514
293.202
325.311
403.203
357.327
734.1
-289.731
-399.685
-1754.06
1692.19
459.871
-1099.81
639.941
-41.3359
1662.98
570.561
476.242
-1046.8
102.734
1144.17
-1451.95
-9.19547
-1890.38
219.258
-592.178
306.066
286.112
-954.321
611.569
-895.457
465.013
-1127.61
672.12
455.493
392.279
272.552
-787.477
-309.733
1215.72
885.927
699.556
-1182.47
456.16
726.309
494.771
699.531
-1194.3
-361.064
-249.886
399.828
-958.56
439.152
519.408
21.2058
-1880.03
1081.73
-478.98
-515.394
559.052
-1377.96
818.911
-441.16
802.893
-406.009
503.59
-710.754
1724.1
399.008
-169.92
211.617
-156.77
-247.668
404.437
1895.35
-504.137
-1707.63
1050.33
-594.534
298.992
-1011.91
551.268
-312.491
544.505
904.865
-1449.37
-1102.67
437.259
-21.2112
-1946.55
1712.73
-663.633
-538.884
460.937
-1189.86
728.923
200.242
195.255
-277.694
775.595
697.892
835.649
815.619
-459.756
1083.88
-499.542
468.331
-183.677
-284.655
-1925.38
-712.622
-316.992
-639.785
-6.2935
646.078
455.642
-271.843
572.299
1069.41
-814.548
922.487
1243.72
-426.057
-172.499
-245.624
418.123
960.666
-888.23
-315.306
-1066.54
609.959
1566.32
-809.404
537.917
934.519
-405.954
738.215
-332.26
1129.71
-272.808
342.297
1349.36
-709.668
-212.367
448.369
-1198.13
749.761
-976.998
-143.372
1120.37
438.855
-953.8
514.945
182.031
732.048
482.929
742.899
-113.073
850.031
-426.439
1181.74
-796.131
552.594
-1465.34
912.742
-1216.64
1800.98
-431.705
-1510.19
879.201
-1401.74
-331.03
-422.762
1457
-1528.85
783.165
1491.38
192.404
275.927
-375.495
-1746.48
-286.354
-1019.12
1591.42
-1782.16
1782.16
1578
-1004.29
-630.206
-360.165
368.304
603.996
-378.456
-382.135
-1389.62
897.101
1125.06
600.665
1202.21
1789.49
-1216.41
-623.964
271.966
1659.29
-1916.88
257.593
816.223
-1268.17
1545.15
-561.693
802.494
324.672
-362.455
555.768
793.698
662.626
1366.38
-248.104
-445.852
-389.582
492.633
-336.534
472.094
735.498
-321.779
-128.185
-352.208
576.928
-224.72
37.0321
-369.624
1107.31
-1720.28
-462.223
-506.942
-577.988
864.384
701.938
-1596.26
904.416
-452.37
-634.754
-515.6
1251.65
359.237
1723.89
-1702.69
-1663.12
1897.18
-1560.59
840.08
720.508
-392.741
-1800.87
918.184
584.265
818.251
-393.883
1794.6
-681.176
-425.102
687.97
448.866
-1136.84
-1104.22
444.266
752.589
-1617.11
473.29
900.828
163.718
-388.476
224.759
-1605.96
-390.734
-443.56
990.154
-683.651
1442.78
-981.127
1853.51
242.239
-536.979
487.733
-295.328
474.345
893.328
543.437
976.997
-463.645
-427.862
574.441
882.557
-1392.69
-40.9939
1584.45
-845.377
519.978
971.4
-1475.76
-1115.89
1779.48
-1240.61
-538.871
1205.98
-319.414
-886.57
-180.432
443.084
-262.652
-457.256
-251.301
419.572
-168.272
132.683
-382.568
1738.94
-1743.39
-478.804
-530.89
-903.436
431.631
-193.947
-237.685
629.508
-471.948
-362.322
-336.298
698.62
-943.255
415.245
-1166.83
676.035
405.956
-649.342
-431.975
1589.18
-871.02
530.204
-458.569
-568.847
-463.076
355.227
-344.227
-11.0004
-1125.14
423.345
-665.111
-1033.46
1698.57
-616.504
-1425.59
710.723
562.379
-1596.24
1033.86
-410.02
-471.021
167.136
540.537
-1258.29
742.691
539.277
1005.87
-2133.17
999.98
1133.19
-390.425
403.813
-378.368
-25.4451
1477.96
-386.706
449.692
1195.5
582.779
905.901
565.777
528.222
-1094
152.16
-461.845
-1697.6
247.277
1127.48
-629.45
518.711
1013.5
-1532.21
1092.76
-1643.68
182.893
716.275
564.414
-879.72
-1086.24
-163.729
417.096
-253.367
-586.017
-451.676
-636.623
-621.586
343.892
-1620
939.132
-477.24
215.401
-385.321
526.572
-307.314
-623.662
1196.93
-1298.64
929.448
369.193
-1018.87
-394.526
-767.503
-832.991
1697.37
-477.506
1794.48
-1586.05
-208.437
-1556.56
1018.6
537.962
-734.713
-249.082
429.546
-180.464
-607.809
385.316
265.895
-651.211
-524.48
1008.37
623.931
-351.951
-1620.2
1050.43
571.83
1103.45
-1675.28
-437.168
-281.64
-377.453
-753.079
-488.555
-332.486
491.448
1557.97
-995.595
-773.822
1497.44
657.988
-325.427
725.884
1152.34
-1878.23
318.984
327.597
-487.671
-1935.14
1721.95
213.194
733.41
-475.874
-257.537
531.883
1060.72
-1592.6
355.227
-1726.56
-233.216
1752.37
-1580.64
1073.71
506.928
-1729.77
3.21496
-522.182
403.813
1700.74
-1721.95
939.183
625.51
-1564.69
365.883
-214.254
-151.629
-431.854
-268.424
64.7116
94.2256
-343.307
-422.764
-448.742
-401.035
206.29
1510.13
379.189
-221.31
-453.596
450.839
-188.029
342.054
1510.68
993.612
-170.723
-822.89
-1104.02
1704.94
-1728.99
1063.88
-707.585
-1021.41
-1265.06
1844.98
-579.92
1155.04
-1771.28
616.241
265.817
-877.511
1676
43.3997
-1719.4
-491.198
-1082.93
-1738.94
-980.186
552.324
1019.48
590.299
1132.95
-1723.25
273.864
-460.922
698.772
-385.035
398.334
924.179
682.152
-388.939
-653.645
582.958
1072.45
-1655.41
-410.777
-360.155
770.932
452.514
-1662.5
1521.53
140.966
578.307
-1043.32
544.767
1083.82
-1555.58
993.891
-229.947
221.414
348.299
1907.6
455.79
-71.3047
995.841
722.75
-1718.59
-696.58
1085.23
-1557.44
153.137
-569.265
188.308
262.531
-672.889
-568.034
582.736
1034.4
-710.675
-291.729
-1368.31
673.119
695.186
-401.326
748.861
91.299
-840.16
562.418
-137.207
1557.46
-200.793
290.012
-779.02
-1935.14
1664.59
1020.25
348.532
317.616
459.073
-929.778
-995.601
-1767.26
630.299
1693.75
501.602
-474.782
1210.28
1087.01
-424.939
1028.94
-976.722
486.41
490.312
700.942
1047.87
-1748.81
477.928
489.261
-1493.85
-744.928
36.7825
776.155
-413.821
-896.776
381.381
-540.341
-800.651
609.816
-578.314
1397.23
1055.18
186.075
231.021
-550.691
1618.47
-776.019
1527.34
-1727.83
575.318
1152.52
536.425
-881.888
-1733.24
1916.88
-183.637
1721.73
171.241
-546.636
356.716
-262.49
-481.714
1210.64
568.274
1128.28
-491.099
424.527
855.019
-453.884
-774.18
439.206
334.974
1419.67
1089.51
-518.392
1422.81
-510.453
-532.895
1043.35
-602.834
506.078
-1215.55
1692.78
1839.56
-687.223
1586.15
-646.97
-1240.56
716.078
-563.014
191.284
-375.91
441.396
-231.662
-517.179
-1246.7
1870.96
-624.257
1173.36
-555.72
1120.23
-1659.42
1707.07
-574.005
-549.058
-549.857
1720.07
-316.326
-688.128
-473.459
1223.22
-1691.73
-1860.12
613.42
331.169
-948.222
156.92
204.27
-1719.02
1204.12
514.899
1162.84
558.89
-513.517
-465.465
1191.77
185.872
211.925
588.449
1251.11
-539.19
-1238.57
1777.76
-1025.2
999.985
866.781
-204.037
-1659.29
1702.69
-510.219
1411.05
-1733.24
-344.167
-0.88161
345.048
-249.869
584.631
-334.762
101.535
486.091
779.24
-384.192
1257.51
1270.51
-413.379
848.929
-438.865
1817.58
-662.532
1586.69
-1723.89
-412.837
-769.392
310.339
459.053
-561.669
-563.669
79.7502
-1138.53
-985.114
-670.563
1655.68
-943.696
-1189.47
158.928
-435.121
-646.927
705.795
1167.43
650.146
1410.26
-592.006
1636.71
1317.96
-575.268
-482.589
187.261
-503.34
1396.67
1239.95
-566.826
-999.979
890.149
60.6858
-950.834
603.404
-506.231
1403.33
1495.04
-589.136
-349.786
349.786
-589.635
1623.49
1239.03
-486.445
1134.12
-62.3571
1849.18
-375.284
1489.46
-589.586
-507.708
1347.79
-649.557
1218.57
-569.013
1554.8
-592.01
763.25
579.731
-1342.98
-659.35
290.183
510.163
601.039
-1957.28
-1009.29
1586.69
355.453
-355.453
-56.4644
381.723
438.779
407.199
-18.534
-320.935
918.232
-519.217
-429.114
810.838
-235.903
613.972
-423.216
1552.36
-444.352
-883.933
173.075
223.853
-396.928
601.176
1250.76
-1851.93
924.6
-459.587
-344.227
126.146
-1943.06
1816.91
-447.266
167.81
1180.92
-440.52
-740.405
-295.887
-600.889
-497.25
-378.368
-470.767
256.692
1157.97
-564.479
233.318
-367.331
134.013
-23.1405
-107.686
1375.94
-1268.26
34.6655
-595.372
-586.53
-443.942
443.942
-1262.33
1985.08
-1344.29
-211.277
-1823.72
237.676
-1025.75
-974.246
-175.337
-1640.05
710.27
1229.32
-1925.04
360.544
318.999
-679.543
-1850.02
1234.27
615.758
-558.503
558.503
-958.839
-40.1291
-1866.15
-558.19
1650.82
-675.318
1636.19
-601.788
-185.35
-1705.03
-577.589
-451.776
-594.883
-459.22
459.22
-1537.81
194.532
1343.28
160.697
221.448
-382.145
503.37
490.243
995.214
-475.806
1751.28
769.905
-414.066
388.621
523.802
1702.07
-594.763
-552.996
1636.82
460.274
1812.84
-645.413
-1804.6
-1938.07
-647.141
-472.688
472.688
-610.824
221.242
-699.34
1017.89
-466.622
-1077.23
-298.871
1579.55
1852.29
1635.38
-1635.38
-272.114
741.824
1761.53
595.807
1275.15
162.003
203.879
599.558
586.306
1603.48
-1603.48
214.081
-360.645
-440.296
448.607
950.122
-463.712
-638.368
-1130.94
1706.25
273.421
-1663.46
626.642
-288.75
459.991
1744.65
-592.135
-211.274
-429.573
378.261
737.629
1738.58
-613.526
-511.799
-770.785
1960.55
-870.464
-1090.08
1642.69
-702.655
1223.95
-1824.96
601.009
363.627
-900.605
-184.873
-99.4494
1097.12
-487.164
149.501
635.385
-1660.15
429.569
630.879
-1804.6
-583.302
1787.42
883.069
-1162.87
1760.5
-597.629
1783.83
-575.561
-1208.27
438.415
925.295
-1743.39
924.39
-1486.52
252.365
1234.15
-833.541
-1254.22
-369.205
71.9607
297.244
581.782
262.021
1035.97
-436.129
844.616
-408.488
820.073
742.405
-1562.48
644.693
1066.55
-23.8895
-661.085
684.974
-1744.52
723.113
710.454
150.525
-1122.58
1936.78
-674.569
-1262.21
-537.189
1665.46
838.507
968.455
-1806.96
1227.86
683.383
-411.513
708.631
827.919
1026.68
-587.826
1761.53
625.392
1773.56
-1185.58
-587.983
-383.405
-350.651
734.056
121.456
-1185.54
1660.52
-540.289
-1437.77
1437.77
1250.55
594.428
1351.35
206.622
-554.819
280.267
-178.75
699.182
1113.66
473.779
-287.906
-869.172
-575.596
1740.18
-1740.18
998.473
-998.473
987.34
1025.17
-2012.51
1837.96
-614.008
-581.128
844.612
-947.857
-1052.16
998.124
691.561
-1689.69
-510.825
-371.907
-641.398
-808.442
2042.71
-1246.41
-613.711
1002.98
974.861
1289.78
647.005
319.81
1012.69
225.983
343.111
1186.2
1756.9
-1756.9
671.287
79.3873
-383.435
-997.062
-539.997
1674.11
991.087
1008.91
-1833.31
-215.521
-362.068