/*--------------------------------*- C++ -*----------------------------------*\
  =========                 |
  \\      /  F ield         | OpenFOAM: The Open Source CFD Toolbox
   \\    /   O peration     | Website:  https://openfoam.org
    \\  /    A nd           | Version:  7
     \\/     M anipulation  |
\*---------------------------------------------------------------------------*/
FoamFile
{
    version     2.0;
    format      ascii;
    class       volScalarField;
    location    "1";
    object      p;
}
// * * * * * * * * * * * * * * * * * * * * * * * * * * * * * * * * * * * * * //

dimensions      [0 2 -2 0 0 0 0];

internalField   nonuniform List<scalar> 
117990
(
0.213988
-0.000233605
-0.195548
-0.0544994
0.0407102
-0.0145281
2.874
0.00423674
-0.00538381
-0.000244136
-0.00555314
0.0038101
-0.0166086
-0.800875
-0.00534033
-0.738483
-0.00225307
-0.00723717
3.14341
0.0419268
0.0388529
-0.0895817
-0.00811252
-0.0813842
3.72424
1.51301
1.68758
0.383778
-0.000408129
3.24121
-0.00295849
1.26118
0.137571
-0.207141
3.77726
-0.0323543
2.90279
-0.0021981
0.618347
2.20303
1.27371
-0.00727979
-0.245555
-0.0323619
-0.524928
-0.797743
0.108147
0.117321
0.0127899
0.00361351
1.84335e-05
-0.0580334
1.3174
-0.000127998
-0.0202509
1.32721
1.08922
-0.520081
1.64249
-0.151661
-0.00124658
-0.0819622
-0.0150299
-0.253409
-0.0014604
0.0207497
-0.0137614
0.91837
1.88355
1.02148
2.5538
2.0264
2.1859
-0.540786
8.74547e-05
-0.383365
1.07508
-0.00961893
2.97356
1.17797
1.19677
-0.00132851
-0.789578
0.372574
-0.0571979
0.00366398
-0.255211
-0.000252456
-0.412691
-0.000154479
0.985862
-0.165887
-0.000425943
-0.0244412
-0.00864931
0.00773506
-0.00807667
-0.778572
0.57785
-0.411719
-0.00125782
0.471173
0.0512121
0.0554224
2.54416
-0.290259
2.3088
-0.525469
-0.12024
-0.000239811
1.30549
-0.00799255
1.09639
-0.0739448
4.3299
0.00242238
-0.00558877
2.47176
0.000706746
2.0056
2.49273
-0.745935
-0.189216
1.45107
-5.26103e-05
3.22944
-0.0808546
3.91058
-0.0317517
0.68605
0.260862
0.00541937
2.46046
0.0036504
0.00069948
3.19982
3.64682
0.136051
-0.0181867
-0.0810558
2.84933
0.00803115
0.00145222
1.39123
0.279131
2.49373e-05
0.199403
-0.0819201
0.924245
0.0192952
-0.294187
-0.531203
-0.165313
-4.21664e-05
-0.0572091
0.159703
-0.000227693
0.93178
-0.385979
-0.470109
-0.37922
0.197066
-0.0147756
-0.23975
-0.0993629
-0.0163032
0.553943
-0.205014
0.934133
-0.112022
-0.138583
0.109585
0.958859
-0.784084
-0.199425
0.849559
-0.782156
-0.0344846
0.142316
0.0118973
0.266561
0.00963617
3.23731
1.39042
2.31026
-0.00552641
-0.0625338
1.57169
0.430229
0.965578
-0.033331
0.0103902
3.21921
-0.311045
1.51487
-0.505139
-0.786564
-0.157975
-0.346002
-0.0218381
1.44837
2.79967
0.309475
-0.000248481
-0.0604513
-0.415704
-0.0111478
-0.0013916
0.680386
-0.102258
-0.784427
2.28332
3.70699
-0.000130481
-0.0545654
-0.314147
0.821952
0.116779
-0.801503
-0.00279289
-0.346273
-0.275174
0.0114294
-0.399262
-0.000132968
3.47521
0.0726051
-0.362998
-0.493562
3.46994
0.435633
-0.452328
2.84587
-0.26196
0.26513
1.45629
0.00894158
0.0247683
-0.247081
-0.0592151
0.956537
0.12272
-0.471236
0.561051
-0.0327446
0.0197013
1.10153
-0.422598
-0.200576
-0.717938
3.26408
-0.0215093
1.2718
0.00501068
3.91875
0.273165
1.14027
0.390889
0.00612418
-0.00547358
0.277549
-0.797474
1.40167
0.493746
-0.124981
-0.0531186
1.4445
-0.0312646
1.20931
0.975418
-0.00153179
0.438952
0.0137711
0.12555
-0.0168424
-0.266453
-0.504159
-0.191487
-0.0221158
-0.518169
-0.236963
-0.0322498
0.00334821
-0.411709
0.0019301
0.219855
3.45528
1.21234
-0.781433
0.632776
-0.508681
-0.000220933
1.54416
2.26335
-0.00117546
0.341399
-0.0218162
1.24448
0.0108101
0.985636
-0.789867
-0.234418
1.3141
-0.0855768
-0.386683
1.14915
0.100997
-0.361587
-0.0830425
0.14551
-0.0441874
2.70275
2.77532
-0.242715
-0.0183932
0.0525794
3.21679
0.0191102
-0.0790618
1.46257
0.632623
-0.00273211
0.303849
4.30986
1.2683
-0.379543
0.163718
1.18749
-0.794952
1.5665
-0.0439857
-0.000219641
-0.00493381
-0.0214218
4.14084
-0.048349
1.01753
-0.00142989
-0.0149346
-0.0630105
-0.172878
1.12433
1.68256
-0.24776
-0.11838
0.0385817
-0.0235567
3.98624
-0.399854
-0.0139673
2.4602
1.63734
0.275612
-0.0417642
-0.0295852
0.0665058
0.215414
2.24437e-05
-0.00898503
0.38442
1.85557
-0.417866
2.91268
4.17334
0.955088
2.57586e-05
-0.205732
-0.221856
0.0135368
1.5899e-05
0.0848278
2.4494
-0.417991
-0.011206
1.29457
0.0868077
0.0497189
0.0035482
-0.0201333
0.414561
-0.45595
-0.10316
-0.0822284
0.380383
0.22138
-0.00278776
2.82426
-0.731892
0.0414874
0.00968522
1.23302
2.00069
-0.258915
0.384889
-0.271494
-0.0284797
-0.0921558
0.0130561
0.0131224
-0.25525
-0.368957
-0.029008
3.19611
2.14938
0.221361
0.55115
0.000709655
-0.0661605
0.763805
-0.106919
-0.0674505
-0.0449623
0.040454
-0.0506865
-0.0577652
-0.0226055
0.0150329
-0.368803
0.00119306
0.215965
-4.28943e-06
-0.788971
0.00524196
3.08261
2.76818
1.75807
0.553482
1.85866
1.07745
-0.0246042
0.0353652
-0.00274097
-0.0720678
-0.355929
-0.0841804
-0.0690866
0.247576
0.005125
-0.003395
0.00330677
-0.0103701
0.696567
0.216199
-0.258412
0.00178706
0.183388
0.0190184
-0.00294667
1.98466
0.844343
2.40892
0.00125561
0.00217493
0.0375944
-0.200624
-0.0703844
-0.210943
-0.420146
1.63619
-0.125153
3.18352
0.0195024
0.0403544
2.64634
2.6815
0.0305044
0.0560136
-0.779734
-0.126301
0.00125425
0.215243
-0.72767
-0.248992
-0.543535
0.240855
1.25556
-1.40393e-05
0.0571899
0.466334
0.642795
3.21565
-5.43412e-06
-0.00140888
0.0363759
-0.246405
-0.0098024
-0.00115581
0.94699
3.87719
1.00876
2.29212
-0.282828
3.32577
1.38188
-0.0496592
0.0659777
-0.698352
-0.0691892
0.0239031
-0.0414957
-0.0234538
2.99859
-0.254992
2.9508
0.103968
1.74264
-0.260927
-0.169797
0.965355
1.47278
-0.0405884
0.00474783
0.00421116
-0.000519774
0.191291
-0.519383
0.00530213
0.706918
-0.00430328
-0.00427893
0.0426046
0.119492
0.014414
0.0330074
-0.318539
-0.0565457
-0.071794
3.10954
0.58063
0.170076
-0.139588
-0.401831
0.0140964
0.000650294
3.49867e-06
-0.491766
-0.69604
-0.373453
0.00062
-0.206936
1.12945
1.87903
0.935972
-0.00130137
-0.354528
-0.0182016
0.00246142
-0.00118943
-0.418341
0.0353858
0.0202219
-0.2772
0.00919502
-0.622134
-0.319631
-0.281617
-0.244399
0.0361144
-0.466916
0.00610101
0.00066246
0.101442
2.81211
3.46227
1.95279
0.206322
-0.146577
2.09004
0.262636
0.00532855
0.581435
-0.191626
1.20023
-0.041019
0.82591
0.0207186
1.94001
0.0115369
-0.0698732
-0.257562
2.22653
0.00594723
-0.243544
-0.201364
1.63443
-0.165231
-0.072633
0.66946
0.00169233
0.239333
-0.0591545
0.347228
-0.196664
0.0567228
2.42463
2.16705
3.45096
1.86141
2.19276
0.947744
2.85288
0.267972
2.36004
2.42387
0.0186425
-0.0186467
3.44285
0.000847652
0.513004
1.96347
-0.242247
0.022313
0.644889
-0.0217537
0.0365013
3.11658
3.75753
-0.00328509
0.00626541
0.687215
0.00604088
1.32949
2.66824
1.6369
-0.0010988
-0.288127
-0.219998
0.0123251
0.15459
1.08903
3.71351
0.00547667
-5.12226e-06
2.34113
0.15168
-0.00329683
0.620288
0.123281
-0.0488319
-0.0387531
0.7171
-0.230877
-0.0214338
-0.364913
0.00647657
-0.0027144
0.00520631
1.22953
-0.00487019
-0.316527
0.0162999
-0.15799
2.2445
-0.00139453
4.27394
0.329008
3.32885
1.21489
-0.0099947
-0.000444058
-0.00800331
-0.069123
1.3349
0.00051162
-0.207619
3.18117
-0.691012
-0.694196
0.429247
0.655203
3.12177
-0.00940042
-0.23981
-0.246448
0.0047801
0.136046
0.0165181
0.195471
-0.497337
3.99136
-0.639304
-0.0329977
-0.264482
0.0705548
1.09877
1.03255
0.0124496
8.7852e-05
2.27056
-0.186922
-0.792749
-0.00572277
0.351683
-0.343692
0.103087
1.45314
-0.01666
2.85468
-0.0106481
1.1279
-0.521202
0.458636
-0.000258584
-0.340797
-0.317333
-0.248723
0.610597
-0.293928
0.00667536
-0.703436
-0.0239525
-0.000134483
0.0015251
0.00570397
3.73323
0.00489011
3.06717
-0.269816
0.440383
0.062583
1.45821
0.0848932
1.64917
2.02067e-05
0.0297269
-0.0134247
0.0402142
-0.334873
0.000771905
1.42056
3.73268
1.96499
0.0053503
0.355308
1.33141
3.2186
0.00963059
-0.00594027
0.684182
0.00398803
3.49429
-0.010817
2.49246
1.85641
0.00382994
-0.778226
1.81331
-0.00270253
0.822921
3.4075
-0.0391489
0.0484762
0.00850664
0.115149
-0.25658
-0.0983011
2.91261
-0.0687111
4.07054
4.44273
-0.0478804
0.00169104
2.93863
-0.0500634
-0.239271
0.00588711
1.69341
-0.518706
3.90062
-0.0139075
0.00148104
-0.186094
1.75853
-0.282051
0.992274
0.534925
1.36147
-0.00407895
1.1564
0.000550966
0.0332885
-1.69459e-05
0.24352
0.0405424
1.96938
-0.000535513
3.4425
-0.00830796
0.144591
-0.0115263
-0.733022
-0.136642
1.41915
-0.00327429
-0.0926452
0.167608
-0.147936
-0.000230783
0.000990082
-0.00508324
-0.415057
0.0380024
-0.0197124
-0.424773
0.00238041
0.00687261
0.0771123
-0.00984723
2.0811
1.0134
1.54011
-0.352716
-0.248701
-4.4548e-05
0.674619
-0.503349
0.00797398
-0.371165
-0.0166267
-0.425266
0.0756837
0.0111897
0.123883
-0.000122477
-0.0745142
-0.00785868
2.26304
-0.118352
0.0034957
-0.00377794
0.473758
-0.524813
-0.0492292
0.00209918
2.9315
2.77894
0.0412655
2.22206
0.160523
-0.71852
0.00179457
-6.83255e-05
2.79131
-0.416693
0.00250253
1.83223
-0.0163373
-0.000165855
1.09868
-0.536668
-0.632916
-0.750726
-0.203245
-0.103276
-0.236707
0.0268094
1.92913
-0.00294541
-0.257722
1.06054
-0.00122537
0.161782
0.104684
1.65902
0.0455203
-0.0809496
3.42435
0.691545
-0.0144506
-0.238673
2.45196
1.27799
-0.179651
-0.25171
2.65062
-0.0219748
-0.00696578
-0.657336
-0.117629
-0.145783
4.13353
-0.0994133
-0.000159418
0.596844
0.0603083
0.130881
1.64565
-0.733262
1.48404
-0.0329398
1.69882
-0.244524
1.08668
-0.007747
1.37501
1.13595
-0.33837
1.26717
2.40157
-0.00784825
1.21631
3.72838
-0.644665
0.00931446
-0.0327904
1.52971
0.230514
0.465692
2.42722
-0.040399
-0.0254471
-0.0847754
-0.0613839
1.9852
1.10701
0.00681633
3.11113
3.98045
-0.421553
-0.0329531
1.63531
-0.542632
-0.260551
2.17533
3.0539
-0.0334261
-0.411119
-0.539841
-0.0108036
1.56521
-0.740808
-0.046006
1.34249
0.00552155
1.65673
0.862717
1.50474
1.98305
0.261875
2.95055
-0.0230495
0.000155524
0.149118
-0.00373153
-0.307631
0.169988
-0.427143
0.0319263
-0.058431
-0.190874
0.903701
-0.722991
-0.00705505
-0.103024
-0.797467
2.18242
-0.575685
-0.629016
-0.138743
0.0333519
1.95453
0.315562
-0.000343631
-0.0387021
0.0826382
-0.177836
-0.224656
-0.0309171
1.25454
0.386467
0.577425
-0.488276
2.0501
0.622962
0.0322784
0.0641853
-0.0621635
4.24357
-0.245087
3.11651e-05
-0.0454041
-0.00740006
3.06716
-0.179627
-2.80488e-05
-0.064123
0.0192878
0.138787
1.39787
1.56873
0.664712
-0.198036
0.0227383
3.35365
-0.318642
1.17664
-0.0740692
-0.716871
0.195797
0.0662256
-0.00330519
-0.172426
-0.00394809
0.121412
-0.0195344
-0.389597
0.00160466
2.22023
0.000702361
-0.0398986
0.00189373
1.44348
-0.304854
2.99084
0.628055
1.46898
0.959196
0.0537485
2.98489
-0.444737
-0.237263
4.47447
-0.0097769
-0.109483
0.706074
0.531286
0.000722323
0.218352
0.117068
-0.266958
-0.341605
3.41016
0.0602173
0.659475
1.39382
-0.382975
0.0824248
0.0346935
-3.63235e-05
-0.00293459
-0.0297302
0.704357
-0.00875299
-0.0425299
0.0109822
3.16375
3.2362
0.561533
0.00134626
0.120203
0.701844
1.75253
0.0011668
0.646817
-0.449087
0.00104171
-0.0641318
0.644851
-0.423962
0.025448
-0.68565
4.13606
0.0579226
0.00525304
-0.749727
0.539686
0.00986176
0.00136084
0.678134
-0.0323269
-0.450998
-0.000255077
-0.135277
-0.454671
3.96563
-0.06715
0.137287
-0.286828
-0.00419513
1.49461
-0.00769732
0.399764
1.51203
-0.00118203
0.529459
0.0391969
3.86456
4.48832
0.23131
3.6353
3.42613
1.14277
1.62186
0.00368949
-0.191892
-0.578533
-0.0317324
-0.0032723
0.2122
-0.0133016
-0.000937842
-0.142154
-0.0110889
-0.220732
-0.527339
0.00357483
-0.00448501
0.972363
0.00359234
-0.000566054
1.41225
1.01475
-0.0304976
-0.0185435
-0.742039
0.23652
2.315
-0.0114585
0.0868203
1.63867
1.15976
-0.450313
0.0926402
0.0129227
-0.00136392
-0.378604
2.85349
0.519079
-0.000383223
0.749429
0.00136748
-0.00131507
1.49953
0.0121414
3.92283
-0.0296955
2.39148
0.0458161
0.0849646
0.0594455
-0.00393217
1.61007
-0.0153819
0.0312649
3.74539
3.432
4.25619
-0.0351201
-0.084445
2.04959
0.000214804
-0.47079
-0.0624779
2.38433
3.02664
0.0799926
1.67842
0.0011757
1.19623
0.0570538
-0.0783015
0.12692
0.0199262
-0.0621907
0.139707
-0.0546766
2.4265
1.42722
0.0525461
1.60615
-0.399003
0.612125
-0.102273
0.634517
-0.301664
4.26274
3.17234
0.764653
-0.25243
0.000579808
0.0142646
-0.338522
-0.480643
-0.0372287
1.12749
2.29994
1.44654
1.87756
-0.00520904
0.197133
-0.0783889
2.03433
-0.776659
-0.00114829
1.76387
-0.00220728
0.00528544
-0.000555512
-3.67344e-07
-1.97971e-06
2.01735
0.0678744
-0.190927
0.0401525
-0.231573
-0.524662
3.21889
0.0544469
-0.00987632
-0.0467561
-0.000554944
-0.00892857
-0.756959
0.564994
1.56794
-0.0885083
1.40017
-0.231343
0.181473
0.458596
0.0120553
3.72859
0.000909948
-0.0446228
-0.00822535
-0.256289
-0.135989
2.3854
-0.0498196
0.000454757
0.166784
-0.0608825
2.17421
-0.00109912
0.00478858
0.00421564
-0.350127
0.169096
-0.288144
-0.739975
1.18066
3.12148
-0.0323364
0.00562768
0.0969613
-0.0221633
1.45467
-0.486823
-0.0555202
0.529683
0.364834
0.0128538
0.18939
-0.0432077
0.0632859
-0.520767
0.0143166
0.691264
2.31671
3.01424
2.0125
-0.00401409
-0.0800395
0.000859841
-0.4149
-0.406367
1.91309
-0.0937402
-0.669608
-0.42645
-0.266035
0.111305
-0.0921795
-0.386652
-0.635669
0.000674729
1.11353
-0.0116561
2.87579
0.75477
0.671479
0.00125511
0.0149802
0.292124
0.00033428
1.45276
-0.108682
-0.731991
-0.711943
0.748373
3.06613
-0.0483353
-0.425288
1.47668
0.342875
-0.0201423
0.589389
4.28948
0.0346628
0.942146
0.975765
0.15075
-0.375588
-0.0230912
3.00628
0.0021486
1.4972
3.24144
-0.000261186
-0.184134
0.00128386
1.24412
-0.15808
0.180559
-0.082262
0.154176
-0.396149
0.00962359
0.0873453
-0.181715
0.175979
-0.0140939
-0.000149397
-0.0334826
-0.377317
-0.728758
-0.0022444
-0.000986065
0.301248
-0.020032
0.0189122
0.466841
1.94506
-0.24146
0.0186653
1.909
0.0176138
0.0185859
-0.382688
0.0134986
0.0155722
0.011498
2.40474
0.0866478
-0.102673
-0.0365768
0.341947
0.00151079
-0.00799271
0.00125883
1.1774
-0.0209027
-0.0497329
0.340684
-4.862e-05
0.0128441
-0.00243606
2.00172
-0.0194691
-0.0730783
-0.00147713
1.70663
2.03037
-0.0116072
-0.649041
-0.00125365
-0.000254106
0.207089
0.0107989
-0.00332583
3.02599
0.13369
-0.0362195
-0.760131
0.00725315
0.0124498
-0.0836594
0.0134789
-0.0173786
3.67007
-0.00467815
0.175104
2.63035
-0.00333904
-0.370273
-0.00955153
-0.187745
-0.494557
0.467647
-0.107726
-0.00759527
-0.0587697
0.934262
-0.00851731
0.144508
0.0182104
-0.0144924
-0.00147352
-0.00461193
0.441203
-0.286779
1.20132
0.0632963
-0.183818
4.21961
1.37943
-0.575532
-0.00442547
-0.250845
-0.388687
0.655262
-0.519843
0.138008
1.24984
1.24617
-0.155159
-0.513319
3.1848
-0.0270165
0.00329951
-0.752475
-0.791439
0.268088
0.124386
-0.299258
-0.0178498
0.689458
-0.309773
2.82577
-0.257685
2.87115
-0.53326
-0.0121758
0.0803453
0.00846429
0.000783455
-0.00115101
2.17572
-0.000808438
-0.37906
0.0458169
0.211633
-0.490707
-0.00754764
0.0544764
-0.390455
-0.00294306
1.99565
0.139697
-0.0172404
-0.383036
1.45566
-1.63181e-05
0.69526
0.013032
2.79989
1.14819
-0.508398
-0.413494
-0.0171147
-0.0130491
1.52639
1.98717
1.98255
-0.0637835
-0.374284
2.81324
1.43298
0.168421
-4.96053e-05
1.3749
0.314017
0.0315442
0.713653
3.28477
-0.229719
0.0141655
4.05556
-0.00281769
0.0324545
1.15126
2.11187
1.44542
1.39703
3.38725
3.07867
-0.00469694
-0.0113202
-0.0186591
-0.0172877
1.33588
-0.40104
3.11274
0.248966
-0.103267
-0.153454
0.16447
0.0107154
0.0194311
-0.0111198
-0.504724
0.0152466
0.577254
0.000229667
0.000696909
0.005056
-0.00135608
0.0133143
1.37879
0.274756
1.36964
0.633812
4.11135
-0.534949
0.0033526
-0.0333999
0.0738709
-0.0171467
-0.00301055
-0.179697
0.0118521
-0.00850037
-0.0824034
0.545045
-0.00042492
0.603019
0.191412
0.0295645
-0.00608065
0.0657593
0.590771
-0.391036
1.31727
1.44623
-0.170858
0.373701
-0.415293
-0.0209127
0.000242081
0.0020215
-0.0426111
1.62385
1.52042
-0.0763274
-0.113879
0.187069
-0.0087671
3.12834
-0.159632
1.54397
0.0128987
-0.0111517
0.00139036
0.418021
-0.771303
3.17009
3.35034
1.38331
-0.190642
-0.343171
-0.000802215
0.000377698
-0.117365
0.63379
1.91066
-0.808649
-0.475063
-0.311329
2.05406
1.84795
-0.717228
2.71141e-05
2.3201
1.70658
0.347741
-0.000423804
-0.118731
-0.0594071
1.9702
1.82725
0.184201
0.380247
4.16853
-0.158018
-0.000397805
-0.000159813
0.588892
-0.177783
1.04337
0.000223819
-0.704102
0.0567847
0.00140083
3.50124
0.0276975
1.05472
-0.128144
0.0130562
0.692966
-0.682344
2.96373
-0.251205
-0.164142
3.67089
0.0132706
0.390402
1.86308
3.09365
-0.0204189
1.47709
5.05933e-07
0.00875625
1.61638
-0.100735
0.650047
0.682908
0.00801021
1.9232
-0.634869
-0.000127952
-0.688001
-0.0184697
-0.081719
-0.00489625
-0.00130135
-0.502003
1.45562
0.0147634
0.000756334
0.0410347
1.46231
3.04639
0.00259994
-0.0345592
-0.00858525
-0.398447
-0.00546171
0.000872174
-0.000577892
3.2361
0.108008
0.0188079
0.00323145
-0.383867
-0.688198
3.10697
2.87181
2.07531
-9.64279e-05
0.66496
-0.449602
-0.068418
-0.492482
-0.0212322
1.69252
-0.223316
0.170961
-0.00972938
0.646831
-0.684571
0.563069
3.57013e-05
1.08238
-0.0011766
-0.0052692
2.26995
-0.0258211
-0.349242
4.11961
-0.0782818
0.0244426
-0.0410759
1.49922
2.13119
3.04654
2.289
-0.713331
-0.0350009
-0.0141971
0.348973
-0.292087
0.0569006
-0.00170385
0.796128
0.0388569
-0.271577
-0.113173
-0.000189988
1.664
0.334273
3.28761
1.37955
-0.000230804
1.31636
0.0139379
-0.649518
-0.694112
-0.114116
2.99941
-0.00975374
-0.476253
0.998128
-0.00845872
0.00214752
-0.387281
1.30641
-0.322734
-0.405743
1.18268
0.3339
-6.27223e-05
0.000351686
1.0719
0.205683
-0.348541
-0.0142093
2.77906
-0.00300957
-3.14786e-05
-0.01468
0.0584703
-0.0981963
-0.000350398
-0.340302
1.35552
1.482
-0.0345427
3.05169
-0.228632
1.49875
-0.134963
0.182842
0.00133435
0.611766
1.03901
0.754436
3.85899
1.78407
-0.0838341
0.10338
2.10556
-0.127324
2.64995
3.25013e-05
2.077
2.66539
3.36934
0.00341098
-0.000237173
3.03161
3.32349
1.34222
0.000732086
-0.101075
1.02558
-0.044
-0.0222769
0.698792
0.377364
0.17894
2.89349
-0.033979
-0.441941
-0.00872178
0.907207
-0.0218145
3.20334
1.25337
1.35007
-0.0147214
1.54644
-0.138897
0.323618
-0.421727
0.00410314
-0.347347
0.340608
0.0693571
-0.0412461
-0.498041
-0.0680344
-0.000248618
-0.368089
-0.0515769
0.00919343
0.181186
-0.0291081
-0.0460123
0.50378
-0.00140451
1.20654
-0.574371
2.83315
-0.00450424
4.064
-0.000483096
-0.103997
0.126667
-0.00101652
-0.0580165
-0.0132389
-0.697676
1.79048
-0.192273
0.77527
-0.465418
2.50184
-0.000467935
-0.653337
0.560513
0.993255
-0.000203949
4.15148
0.133745
0.404768
-0.0592131
0.00767977
-0.00127471
2.85274
-0.0875352
1.46298
0.00353667
-0.576536
-0.0205837
-0.000136489
2.62487
-0.00150681
1.66823
3.71062
2.94733
-0.117665
1.54364
2.0498
2.34657
2.86396
1.97888
3.43051
-0.000251375
-0.315832
1.74858
-0.00757149
2.94409
-0.463654
-0.0002074
-0.00452202
-0.415126
4.10382
1.00068
0.124594
1.15231
-0.00499164
0.001685
0.16368
-0.315057
0.166819
2.23761
3.91293
-0.173509
2.91156
-0.444361
0.51352
3.09398
0.00868006
2.42897
-0.0552797
0.589223
0.0323248
-0.403806
-0.104051
0.065829
-0.000231319
-0.107593
-0.000340079
1.65512
4.04599
1.04696
0.0161151
0.0679418
-0.395346
-0.00135288
0.114054
-0.346884
0.119119
-0.159992
-0.280317
-0.0119267
0.0380251
0.638284
0.00305764
-0.39704
-0.000866462
1.30678
-0.0176526
-0.388923
0.00297187
-0.0856464
-0.343319
-0.138137
1.23059
0.0151063
0.822778
-0.343608
-0.754192
-0.00340946
0.58961
0.639402
0.311754
2.87334
-0.09956
-0.762434
0.176176
-0.0313424
0.179075
0.00128566
-0.406097
-0.247494
-0.0583645
-0.00327866
-0.0155605
1.21631
-8.14321e-06
-0.00806213
0.00163323
-0.000598901
-0.0344571
3.12489
4.30991
-0.00798938
0.163915
-0.000600065
-0.518929
0.0844989
-0.139436
0.519939
-0.028836
1.38283
0.0808908
-0.0142267
0.0198912
-0.0872295
0.195193
-0.00609443
2.51487
-0.0184985
4.01145
-0.218375
-0.000265561
1.20639
-0.015129
-0.295621
1.6191
-0.0467308
-0.196745
3.83717
-0.473407
0.105191
0.292237
0.676817
-0.096707
1.62968
-0.00109102
-0.309993
0.0149687
3.19005
0.131245
-0.38705
0.529901
-0.102399
1.34107
0.334744
0.277009
1.51232
0.0277915
-0.807005
-0.101789
-0.0298701
-0.0092165
0.175452
-0.464397
-0.0221248
0.275264
0.135985
0.0168542
-0.316528
-0.00683873
-0.00710882
-0.0292098
-0.00149828
-0.724246
0.023295
1.39197
0.00039765
-0.0107806
0.00134403
3.80332
-0.00151993
-0.58204
1.87443
1.52734
0.00667811
-0.0111897
0.0678523
0.0405419
-0.20258
-0.456359
-0.353831
-0.213766
-0.0692958
-0.0084334
1.39163
0.460717
-0.0846101
-0.0197758
-0.208274
-0.449909
-0.00356736
-0.061091
0.665463
3.8363
3.22601
-0.0558984
1.47111
-0.107702
-0.00949101
-0.00418602
-0.236579
-2.62368e-05
-0.0196331
-0.268332
-0.00021795
0.000731032
-0.454301
0.236629
-0.241269
0.634091
0.000945446
-0.457049
0.303834
-0.171374
0.00295269
-0.440889
-0.00941235
2.12349
-0.0117828
-0.485937
-0.000140916
0.00950783
-0.410545
-0.322015
0.0714466
-0.287276
0.00240303
2.01568
-0.152008
-0.354204
-0.536832
0.102704
1.29526
4.11252
0.197704
1.28202
0.00816957
0.000988842
-0.00417536
-0.246425
-0.000890587
-0.0149168
2.50386
3.63837
3.9044
-0.0141429
2.96595
-0.0615337
0.0153326
0.204628
1.61159
0.190462
0.000700229
1.10134
0.302926
-0.824806
-0.766095
-0.78681
-0.271473
-0.000113636
0.0204016
-0.104838
2.19607
-0.400092
0.910786
-0.369993
3.89823
0.155926
1.48002
-0.00117696
-0.358501
-0.0301658
0.00048028
0.0205682
1.00886
-0.0493691
-0.767956
0.214026
0.586795
3.02949
-0.102486
1.16032e-05
-0.00117725
-0.264378
0.586148
-0.240732
-0.136358
0.028585
0.0110274
1.38365
-0.00111499
0.315155
-0.0144893
-0.0652824
-0.0210267
-0.0520755
2.24479
0.189925
0.114968
0.433947
4.45669
-0.524467
2.06762
2.05502
-0.520441
-0.358002
0.10397
-0.526161
0.269479
1.40848
-0.111351
0.00130103
-0.0906454
-2.22282e-05
-0.686289
-0.039542
-0.0285969
-0.0959147
2.92994
-0.00501783
-0.000511482
2.28777
-0.649143
0.000135762
0.000218519
0.0239075
-0.106733
-0.00157022
-0.445733
0.0151885
-0.342041
-0.384273
1.95027
0.0155975
2.709
-0.331774
0.00352669
-0.0130384
2.43415
-0.0993769
0.248539
0.00128038
-0.219372
-0.221425
0.00161448
0.349066
-0.327716
0.0850037
3.07305
-0.00121594
-0.634936
-0.0151933
0.0170745
-0.00814925
-0.0614487
1.8644
0.0818341
-4.5441e-05
2.07903
-0.157931
-0.00922652
0.6043
-0.0153091
0.57655
-0.360777
-0.00411947
-0.0279834
1.18724
-0.331117
0.00105886
-0.755085
-0.317547
0.440661
-0.0996046
0.223469
3.12981
-0.0580344
1.09202
1.39449
-0.00957201
0.0314632
2.31251
9.41482e-05
4.43945
0.0409898
-1.22589e-05
1.51257
1.83534
-0.30882
0.964277
-0.476958
0.573866
-0.0753878
0.186447
-1.86415e-05
-0.100189
1.11783
-0.278839
-0.107656
-0.0397415
-0.530411
-0.0602152
-0.0415522
-0.00352275
0.661316
3.77339
-0.382447
-1.29827e-05
-0.00141987
0.0340903
-0.0260045
-0.766418
1.51244
-0.576062
-0.286801
-0.00416982
0.922487
3.76187
0.000820145
0.654534
0.120756
-0.527452
0.0337108
0.8585
-0.0392747
-0.015157
-0.104138
-0.00206562
-0.000983756
1.04654
-0.0257007
2.78558
-0.00106248
0.672878
-0.134292
-0.153416
-0.264746
0.336698
-0.771335
0.230969
-0.000257727
1.37435
-0.420584
0.175057
1.15768
-0.578645
-0.0994896
-0.263071
0.375969
1.25007
-0.619088
1.4202
0.0558188
-0.192241
0.00248318
1.48531
0.299535
-0.00494629
-0.000267413
1.3762
-0.0164188
0.781195
2.77687
-0.495544
-0.000927197
-0.29819
3.17258
1.17681
-0.0781015
1.49814
2.24356
0.616765
0.00547285
-0.0296884
0.353874
1.83334
-0.269098
0.0485792
-0.0156212
0.00122767
-0.392414
1.17809
0.6745
1.8681
-0.250377
0.606732
-0.244477
-0.150362
0.164957
3.14733
0.456115
-0.69223
-0.0120396
-0.000236337
0.184248
-0.409161
0.0364844
-0.00474208
1.34657
1.892
-0.420677
1.21183
0.135805
3.28895
-0.0208851
1.65382
0.6918
0.0189321
-0.000388159
0.504535
-0.37935
-0.0156052
-0.160407
2.09625
2.38376
-0.232464
3.06877
1.88667
-0.3829
-0.294619
-0.24579
-0.0552882
1.46028
-0.399772
-0.00603618
-6.20173e-05
-0.0126744
-0.234987
-0.0732557
-0.293069
0.416139
1.42462
-0.0179885
3.33888
0.0574238
2.1547
4.07802
1.65827
0.661049
-0.000207078
-0.382375
0.0303318
-0.10884
3.23048
1.29036
1.35989
3.81339
0.122404
0.548388
-0.260338
0.000502912
3.09336
-0.0665949
-0.00428526
-0.267286
0.173459
0.000209263
0.330883
1.31046
2.44588e-05
4.04816
0.896597
-0.00724533
-0.00476859
-0.0193512
2.61902
1.38171
-3.25278e-05
-0.0202085
0.00115782
-0.00399474
0.0305286
-0.0198773
-0.100888
-0.0503976
-0.0290479
-0.109328
-0.00831269
-0.00714604
0.443945
-0.000195164
-0.000156554
0.679614
0.0119197
0.223118
2.67237
0.329972
-0.00580719
-0.101578
-6.75726e-06
0.0738123
-0.360827
0.355474
-0.438311
-0.00646567
2.19995
1.28455
1.62109
0.235761
0.307897
-0.201195
0.0413127
0.000643222
0.17976
-0.154921
0.00380272
-0.0838925
0.1601
-0.000381548
4.15925
1.31674
-0.0166255
-0.523181
2.60749
-0.300197
-0.0831979
-0.000448827
-0.38909
-0.153001
-4.04807e-05
0.871481
-0.000442358
-0.0176895
-0.424735
-0.769163
-0.072371
-0.0545329
-0.000150834
-0.480339
0.033665
1.65632
-0.382992
-0.00153524
-0.0775316
-0.00949742
-0.604009
0.535274
0.706909
-0.111341
-0.676846
1.31099
0.0202901
-0.000759937
-0.0403837
-0.145271
1.38764
3.47343
0.185155
4.33535
0.0115237
-0.450994
-0.758627
2.98907
2.99262
-0.140884
-0.0211768
-0.181209
-0.000388969
3.62653
2.63741
1.01591
-0.487638
1.26664
1.20424
3.60694
1.90629
2.38493
-0.509044
0.915658
2.27863
-0.727298
-0.0219563
1.6724
0.375934
0.0124594
-0.187385
-0.00424569
0.120451
0.0595325
0.0388664
-0.0519603
0.00073731
-0.377764
0.302553
-0.506923
-0.000308899
-0.0598584
-0.00129817
0.000301574
1.4749
-0.578728
-0.145232
-0.00746626
0.219129
-0.000228043
-0.00165036
-0.00660851
-0.00569336
0.871775
-0.556082
0.0264064
1.36348
-0.0283572
-0.487132
0.624519
-0.0337668
-0.0133565
0.002251
0.29625
-0.468506
-0.0284137
0.000346138
0.0740369
0.0234166
-0.254655
0.581364
0.0147943
-0.380933
4.05876
0.0160005
0.0209073
1.09157
-0.00674933
-0.0161453
-0.000713178
-4.4062e-05
-0.00259115
0.388476
-0.572578
3.24534
4.17765
-0.00612931
-0.00133992
-0.00613944
-0.257917
4.46828
2.01088
-0.737751
-0.445035
-0.00125962
0.0142874
-0.0236797
0.0124301
0.157196
0.189732
1.40636
0.695756
0.0346876
3.87693
0.569878
0.00757754
-0.0156613
0.734369
-0.250681
-0.490464
-0.742307
-0.0858611
2.5393
3.14299
1.37154
2.34222
1.59836
-0.602925
-0.109966
0.0840644
2.07753
-0.408204
0.00601558
-0.000258836
-0.137099
-0.710185
-0.0123315
-0.0500796
-0.506524
-0.585539
3.06012
-0.027815
-0.375736
0.0437625
-0.181814
2.2444
0.364104
0.0957116
0.201152
-0.147888
0.134279
-0.146956
-0.386892
-0.0659639
-0.583726
2.10185
-0.374547
-0.189439
-0.0606702
2.20188
1.44503
-0.263691
0.179878
-0.00021992
2.34413
1.17976
0.311297
0.0336081
-0.295695
-0.127643
-0.0275933
-0.578
-0.0406394
-0.423179
-0.0518775
0.0402457
0.00115049
-0.00441503
0.522775
-0.000316171
-0.0957312
-0.399021
-0.299248
-0.00432518
0.00280212
0.0029673
0.0394627
1.3464
0.254949
-0.504719
-0.276881
0.918461
-0.141058
-0.0323037
3.65447
-0.145062
-0.0596994
3.0623
-0.204709
2.79882
3.43991
-0.134925
1.45185
-0.16976
0.173783
-0.0418841
-0.0318234
0.104563
-0.46115
-0.00523854
-0.397659
0.0438575
1.85987
1.91307
-0.462319
-0.00603614
-0.00633621
2.1991
1.76539
-0.0614583
2.35555
-0.125223
3.14774
-0.0297123
-0.0396993
1.13255
0.729844
-0.00323035
-0.0197294
1.91896
-0.319998
-0.00103524
3.82623
1.324
0.0385006
-0.644028
2.11333
3.75965
-0.0484257
-0.343164
0.00558172
0.0921155
0.0287842
0.738341
-0.518569
0.00294327
-0.192486
-0.681047
0.598956
1.41876
0.762693
1.88637
-0.465775
-0.0325463
-0.476879
0.459624
0.00395911
3.69288
-0.0644348
-0.155181
3.58306
-0.363041
-0.512549
-0.0111066
1.07768
0.17238
-0.000317345
-0.107563
-0.00319191
-0.204369
2.01557
1.44632
3.14108
-0.609111
-0.372443
-0.00481865
-0.0205841
-0.0206837
2.38185
0.915154
-0.262394
-0.00294354
1.7594
0.764515
0.00168092
-0.0016896
1.23183
-0.0169088
-0.51459
-0.0139539
-0.0884453
0.221343
3.29719
3.22093
3.8978
-0.134625
0.136324
-0.149133
0.194443
-0.00590328
0.0165278
0.000701434
0.315685
0.00202105
2.16909
-0.182108
-0.150318
-0.48739
-0.00144547
2.25528
-0.0294687
1.91218
-0.00279066
3.71734
0.0533055
0.392861
0.328409
4.31361
1.45411
3.49994
2.1066
-0.764336
0.775786
-0.201719
-0.255027
0.00428024
-0.458326
3.08808
-0.00579046
1.39797
1.1158
-0.004023
1.63824
0.67294
-0.409287
-0.124441
-0.134391
0.218697
-0.358744
0.446434
0.615439
-0.0139512
0.627929
0.438087
0.676313
0.670943
0.396802
0.0797389
-0.00622614
-0.480868
0.591835
-0.389645
-7.96355e-06
-0.145008
3.46146
1.57622
0.0731624
-0.349582
-0.462783
-0.00288023
0.649903
0.835522
1.49965
1.26835
0.184916
2.9486
0.00330704
0.73955
1.89985
-0.0155969
0.0240322
0.594783
-0.00582145
-0.00174958
-0.189857
0.000423974
-0.0351347
-0.00514979
-0.486351
-0.407713
-0.392755
-0.00201211
2.91639
-0.0947412
-0.0776562
2.87426
-0.148243
1.00893
0.174319
2.09229
0.00433502
-0.00201026
-0.0156067
3.00578
2.78795
-0.816188
0.730286
3.04121
-0.192071
0.494415
-0.513028
1.52354
0.511037
0.140836
0.0454459
-0.108488
4.14041
-0.179889
-0.00263957
0.523546
1.13326
3.87356
1.27959
0.657377
1.60254
3.85686
-0.00104079
-0.252704
0.561345
1.12948
0.00068233
2.29803
0.616088
2.40922
-0.156475
3.1795
1.21463
-0.028666
-0.17086
0.244874
3.05488
0.391789
-0.16729
0.133295
4.20671
-0.513258
0.675347
0.678281
-0.0112996
-0.00994915
-0.017657
-0.51717
0.00434724
0.10857
-0.384515
-0.73844
-0.251162
0.0140358
-0.0785279
-0.0381083
1.38183
0.0541759
1.36493
0.00116293
-0.346105
-0.18198
0.00667225
-0.001488
0.838676
0.000726746
-0.135939
1.08321
0.391029
-0.10415
3.21884
-0.0851817
3.01265
-0.0179894
-0.345533
2.22591
-0.0180355
3.22146
1.0242
0.00581163
0.00204096
0.0160746
0.718764
3.02386
-0.803495
-0.00859896
-0.00514808
0.0246032
0.0569463
-0.000103844
-0.00596229
0.17512
0.139375
-0.260469
-0.70318
-0.137387
1.88152
-0.194624
-0.0631172
0.169991
-0.00252435
1.41703
0.291584
-0.681102
-0.513959
-0.0965924
2.63474
0.495983
-0.416736
-0.0326899
1.29584
-0.232747
-0.0108746
3.09465
0.0124353
-0.244521
-0.0214248
2.44997
0.689936
3.16501
-0.266778
-0.0801405
-0.104796
1.64839
2.11676
0.0794114
-0.000357454
-0.00410724
0.128421
-0.588296
-0.0472529
0.11286
0.145345
-0.000210892
2.87007
-0.0639228
-0.0188434
1.21895
-0.46117
-0.00908162
1.32434
0.000839888
-0.37525
1.38138
-0.444745
-0.233949
0.804315
0.0509975
2.89559
0.00113513