/*--------------------------------*- C++ -*----------------------------------*\
  =========                 |
  \\      /  F ield         | OpenFOAM: The Open Source CFD Toolbox
   \\    /   O peration     | Website:  https://openfoam.org
    \\  /    A nd           | Version:  7
     \\/     M anipulation  |
\*---------------------------------------------------------------------------*/
FoamFile
{
    version     2.0;
    format      ascii;
    class       surfaceScalarField;
    location    "37";
    object      phi;
}
// * * * * * * * * * * * * * * * * * * * * * * * * * * * * * * * * * * * * * //

dimensions      [0 3 -1 0 0 0 0];

internalField   nonuniform List<scalar> 
11380
(
158.653
-588.174
429.521
-799.581
26.3885
773.193
478.422
-373.132
-105.29
723.084
231.888
-954.972
1509.76
-1069.35
-440.409
1216.24
-1527.08
310.841
44.7123
453.132
-497.844
169.456
-839.313
669.857
961.809
-1610.65
648.836
-1791.1
1698.82
92.2766
-542.947
1759.18
-1143.89
1937.51
-793.613
603.037
181.476
-784.513
-28.1594
-1332.5
1360.66
226.567
-2017.66
1019.95
-388.712
-631.24
-233.105
391.758
480.134
190.545
-670.68
1152.71
-1317.51
164.805
-335.204
373.772
-38.5682
1018.85
-1346.87
328.024
1221.86
801.015
-2022.88
79.687
-1663.95
1584.26
-548.149
-1130.59
1678.74
469.549
181.812
-651.361
-199.785
-388.389
497.032
1012.72
1672.32
-1836.18
163.865
-119.486
-1682.04
1801.53
-1561.84
662.627
899.216
-314.967
651.039
-336.072
-181.219
-71.2585
252.478
1303.87
-1224.18
355.481
-1407.02
1051.54
-1754.18
1754.18
103.008
1558.57
-1661.58
-1090.04
-471.806
689.167
-644.454
-391.204
942.252
-551.047
1331.57
-1317
-14.5706
-1099.86
708.66
617.757
402.195
-421.045
-2.64187
423.687
-506.216
819.4
-313.185
-1618.24
1618.24
1253.49
-1437.8
184.308
-489.92
1711.78
1250.47
-308.217
1660.67
-1161.16
-499.512
47.1374
-382.341
2070.04
-1138.9
-931.138
1842.37
-170.048
446.878
155.911
-602.789
-487.056
985.128
-498.072
-1192.17
1295.18
-564.775
967.856
-403.081
392.452
760.254
659.447
-489.991
-437.431
584.195
-146.764
1190.42
-834.94
2308.27
-1080.73
-1227.54
1165.78
-2014.84
849.061
-1627.32
1599.17
440.29
-1584.18
-758.397
1249.88
-491.485
-668.57
353.604
1661.37
-699.565
-1106.93
-870.909
1977.84
748.674
-375.953
-372.721
691.326
559.143
-258.224
1511.71
88.9026
-303.273
214.371
-284.409
753.958
-331.207
554.917
-223.71
-324.083
804.217
-319.713
-134.126
453.839
308.146
170.276
1491.62
-472.766
-1031.69
493.465
538.227
254.606
101.58
-356.186
944.295
-341.258
-1714.3
570.965
1143.34
17.6824
-883.328
865.646
-271.246
584.054
-312.808
159.847
-1093.88
934.035
1049.72
-1065.42
15.6941
373.157
515.018
-888.176
-244.914
691.792
-1102.11
-483.179
1585.29
-675.532
948.029
-272.497
1345.56
-1465.05
-664.669
257.128
407.541
-470.222
-1011.4
1481.62
-532.982
-800.836
1333.82
574.063
-993.764
419.701
-258.996
-311.87
570.866
394.129
-305.226
-1051.98
564.919
955.698
-795.851
-110.471
943.312
-832.841
-196.001
402.239
-206.238
-673.581
-358.111
-386.71
960.773
1856.34
-1856.34
-525.935
-138.735
-947.316
1606.97
-659.653
393.826
-822.281
428.455
-920.379
355.604
-941.897
-1058.08
-1508.72
334.467
1174.25
-253.313
976.397
-350.84
632.73
-281.889
-1941.89
999.991
-1165.72
-343
602.145
-1549.46
1728.48
-1726.38
-2.09799
172.01
-606.178
434.167
-1502.14
988.947
513.195
267.528
227.892
-495.42
300.891
-632.098
227.849
-399.624
171.775
2025.02
-852.47
-1172.55
-548.492
127.447
610.819
847.721
-1458.54
-181.366
409.215
432.236
875.161
-1307.4
-898.409
383.344
515.065
-1056.1
1448.55
-1067.88
309.48
741.513
-90.4739
579.333
-340.809
-238.524
1054.53
-561.068
593.585
-1403.37
809.783
-1341.81
239.704
-535.124
263.878
-1236.56
983.242
1934.67
-1007.16
-927.507
276.793
1579.55
-2105.49
902.667
1202.83
346.688
-34.6907
-311.997
-221.785
474.399
-252.614
-83.1298
-397.633
480.763
-453.25
133.537
333.132
-135.58
529.406
443.46
363.654
-807.113
-2059.84
1152.8
907.035
461.177
-519.625
58.4485
213.503
-352.843
139.339
953.703
1071.32
1815.66
-257.088
758.425
-501.297
794.079
-1387.96
593.885
353.783
394.89
1082.9
-1065.22
-455.705
-341.314
797.019
460.431
-122.045
-338.386
793.133
-611.657
479.074
-738.462
259.388
503.333
1157.34
-1240.25
707.27
1015.07
-1563.22
-3.10183
-1439.42
1442.52
329.646
820.199
-1149.85
620.709
269.834
-890.543
-2274.79
1191.95
1082.84
-1119.97
-1154.81
91.4881
387.586
959.412
-629.765
877.045
-896.911
19.8663
-2099.4
992.467
-212.801
-183.396
396.197
-42.3997
1770.88
-851.428
51.8473
-1036.35
-1069.14
-225.767
439.27
-700.549
174.614
-291.463
-480.923
772.386
1103.86
-1574.08
782.087
-1373.9
591.815
730.664
-498.776
1947.78
-1444.45
-378.278
-1375.9
11.0657
442.066
-533.414
559.802
45.0827
-598.196
553.114
564.253
-296.725
-593.647
271.439
322.208
787.956
-344.497
35.1957
311.492
1188.47
-1191.57
154.927
239.202
455.434
-746.897
617.131
-1003.84
-2026.83
2026.83
-299.56
-482.923
782.482
698.313
405.807
-1104.12
579.394
162.119
428.953
359.004
-2199.78
1328.87
-924.876
-681.769
1606.65
-462.7
-773.855
-290.954
623.372
-332.418
881.205
-301.8
-579.406
-482.942
654.952
346.366
-697.207
-402.082
-103.188
505.271
-1354.67
-481.518
710.496
-1173.2
-374.126
-1244.11
844.383
1463.89
310.698
-873.15
562.452
965.008
-347.251
1390.95
-797.362
434.308
-279.381
-319.015
-923.888
651.676
272.212
-425.501
-498.387
320.837
-403.967
-117.486
-172.484
289.97
-392.862
1091.17
432.222
-241.677
-377.367
1381.45
-169.604
-1211.85
-475.191
311.796
163.394
276.364
299.819
-576.183
-77.9091
-660.553
592.278
-1729.15
1136.87
1489.59
-878.773
-1056.61
-445.537
-1054.21
575.37
478.844
1423.18
-434.237
927.79
-1410.97
-209.309
-113.973
323.282
-466.155
575.03
-1631.13
427.776
903.792
293.13
374
-667.129
568.007
1186.17
1100.52
-705.218
-395.306
384.947
-198.48
-186.468
-1419.39
448.111
735.032
-1183.14
1473.05
-545.261
-513.556
998.039
-484.483
426.176
1186.12
-1612.29
47.4665
-722.998
-155.454
410.06
144.849
-326.068
573.112
481.421
-507.626
-19.2357
526.862
1024.49
-1307.62
283.129
673.573
-244.62
468.539
-1447.15
978.612
347.853
1691.16
-525.375
848.581
1086.09
-654.885
-1685.13
760.254
553.447
428.433
-981.88
460.989
79.3285
1750.36
-1829.69
1443.51
-379.491
-1064.02
1699.29
-1741.69
-362.888
-552.695
726.768
-174.073
-502.589
166.998
293.433
-373.056
-1225.85
214.45
-764.851
-638.517
-552.245
980.03
-427.784
-649.323
639.016
10.3065
654.553
-923.104
268.551
-615.481
295.884
319.597
-645.77
-779.483
373.004
406.48
-931.918
1400.46
-435.71
897.806
-462.096
-2205.33
5.55522
162.099
-524.123
362.024
141.589
1239.86
-73.9956
-626.553
148.306
-585.737
1486.77
-704.682
393.377
-459.222
65.8448
-557.841
557.841
1222.88
395.353
1778.62
-1226.87
590.781
636.086
844.322
-51.1893
1293.56
776.473
-541.792
1335.87
292.755
291.299
253.598
-806.293
217.93
-724.145
221.921
-432.461
210.54
-325.13
648.288
-323.158
78.2269
-403.357
-590.544
-564.768
1155.31
-422.571
563.78
-141.21
-1192.14
2032.02
-839.881
1286.69
-327.279
-393.121
134.125
-1990.75
860.167
1583.4
-870.837
-712.563
1987.12
-877.539
-1109.58
715.039
571.651
-238.689
460.611
-695.171
1210.49
-515.32
-768.432
1200.67
552.26
924.417
-1726.62
802.2
-613.502
-50.64
664.142
294.802
284.532
445.685
-61.7859
-383.899
895.853
-83.6296
-812.223
952.077
-606.892
-345.185
1576.09
-472.227
899.731
-1633.04
733.307
1068.41
879.368
743.26
-429.896
-313.364
-1058.67
-258.327
583.38
567.172
-1150.55
-523.209
526.784
-3.57511
567.971
-329.218
-238.753
-992.324
556.614
591.642
897.95
-441.702
1096.25
1439.42
-805.884
-633.534
382.523
-919.156
536.632
-1078.1
404.514
602.731
-1116.29
451.542
-556.597
105.055
472.892
346.508
-509.002
-48.8394
-793.085
-885.155
1678.24
176.469
208.478
-286.408
377.897
10.2003
-608.363
598.162
516.154
871.395
-1387.55
-426.071
308.585
984.603
-88.7505
834.525
-1063.64
229.115
445.241
843.815
-1385.61
-472.736
836.39
1986.37
-1291.81
-694.566
269.085
607.96
255.176
794.547
117.092
-1016.39
899.299
1673.69
-1088.82
-584.867
-138.246
1888.6
-1866.19
-160.634
481.597
-619.714
138.117
-1008.78
529.185
479.6
-1730.45
538.314
-955.073
844.603
392.389
191.807
549.84
-239.141
-408.944
703.88
261.128
-29.1723
746.641
-717.469
-1147.53
-880.025
2027.56
-576.73
1155.09
-578.355
-496.566
-317.214
104.413
-1660.61
867.526
-800.434
-676.676
1477.11
-327.313
-293.735
621.048
356.802
-725.725
368.923
269.227
-613.724
350.301
178.507
-528.808
391.913
-682.866
699.311
-342.509
314.237
-448.363
700.072
490.25
-213.885
-477.633
-301.85
1240.22
1.77389
-1242
1037.5
-420.371
556.911
410.945
-1782.25
869.791
912.454
479.478
573.954
-1053.43
-529.864
202.55
-266.079
1183.18
-917.101
-1590.75
1212.47
504.529
-1095.07
380.669
12.7073
484.335
311.476
-795.811
364.252
-609.166
-43.8848
762.491
-718.606
-523.914
793.749
418.663
319.434
524.888
647.712
91.5082
-470.144
378.636
1057.37
-644.041
-413.331
494.077
-1664.27
1170.19
-1140.16
1753.2
-613.038
1715.93
-1123.66
-332.696
604.135
-1196.63
1313.72
424.114
-799.688
1627.58
-827.89
-290.296
-184.895
-946.254
1474.76
1819.98
-609.616
-1210.36
-405.36
758.716
-1310.96
-124.565
-108.485
554.17
-714.276
-354.189
-1236.56
-205.296
474.523
901.298
-555.28
157.647
-1675.14
-71.4292
1746.57
-1114.55
537.815
560.001
-1189.44
629.442
900.685
919.295
630.182
619.701
739.345
258.694
-1201.18
506.005
-385.556
430.639
609.483
-511.828
223.866
-724.495
500.629
757.516
-403.733
-246.684
175.426
-624.793
282.034
342.759
-883.558
-749.479
1087.66
-2145.74
392.455
-676.864
-342.675
-722.743
837.647
601.771
-329.33
326.688
425.046
328.501
571.208
-899.709
549.254
661.236
-549.59
147.508
394.138
-693.698
-1072.49
-827.452
1899.95
-1821.19
157.244
1106.13
-1372.2
1213.63
-696.582
-517.052
-505.411
1349.23
-1495.34
627.97
867.371
-281.819
-208.109
489.928
1428.48
558.638
377.829
-481.018
-473.28
-581.633
1054.91
-429.14
591.239
1584.21
-1132.84
-451.369
-861.822
378.9
654.126
403.246
-1623.41
416.21
1207.2
-166.096
516.397
797.303
786.906
181.265
-717.74
536.474
193.609
208.63
-269.765
-109.924
379.688
498.541
40.2291
-538.77
-1678.34
621.732
-1627.78
1703.52
-75.7378
17.9539
-1645.74
1069.38
826.838
-342.503
-862.25
-215.845
-1134.57
-239.328
-311.667
675.919
-1813.39
-649.684
1216.86
230.233
754.895
-1335.76
-679.083
-466.652
687.279
-394.15
-1013.24
1350.85
-1933.18
582.336
648.481
1289.03
476.308
-1.90931
715.905
725.178
-1441.08
-631.116
320.581
310.536
431.622
-100.758
-330.864
128.572
332.59
133.966
-466.556
-613.94
1167.39
439.779
-664.418
-457.836
-401.7
859.536
-300.051
90.7424
-449.304
144.078
-297.909
-710.875
535.58
-103.958
-583.07
965.593
568.558
-265.888
-302.67
449.907
-773.989
-649.564
483.092
-1129.34
-862.592
1197.06
-569.771
429.682
367.337
-503.218
127.265
1025.46
-311.88
586.149
-274.27
-509.038
1578.42
-760.599
322.351
365.104
-687.455
213.336
545.156
-1.16068
-543.995
-269.176
-180.128
992.838
1108.75
564.94
-908.083
959.725
-51.6424
-448.45
166.631
-816.237
335.314
-585.535
381.289
376.228
879.121
-1298.37
419.251
773.698
-817.583
-948.723
-550.407
1499.13
-160.903
534.902
-569.47
228.661
1329.68
813.462
-632.196
1384.31
-673.814
486.458
-617.752
-403.374
-418.544
-378.216
796.76
497.936
-839.194
-492.764
70.2524
422.512
-304.455
572.556
722.385
-329.93
-223.821
-173.679
397.5
-485.447
119.537
365.91
1466.56
85.6145
-1552.18
-761.054
1352.7
-1144.8
-465.848
612.389
-247.285
1155.38
-381.68
1083.35
492.734
703.792
-450.194
-884.41
-522.614
-1328.21
-14.0793
985.582
-971.503
633.443
390.236
-1023.68
-361.9
-186.593
-689.725
405.562
1621.27
-228.379
397.05
327.68
-724.73
-1839.73
-2106.72
1519.16
587.562
-2041.09
359.047
421.457
557.237
-978.694
-460.734
1017.64
-451.847
-688.048
1139.89
-2030.58
1391.22
639.367
617.019
-1068.87
8.13703
443.405
385.673
177.891
256.417
384.253
1038.48
947.473
672.164
-317.843
-354.321
-284.541
611.942
-327.401
565.821
534.703
563.631
514.229
-1077.86
-795.92
-699.422
748.966
406.412
-416.495
785.418
-1193.35
1609.56
475.153
-1163.2
-366.274
544.781
-1398.58
950.854
447.727
-726.023
-333.744
-735.744
263.14
472.604
447.554
716.627
-1164.18
1082.66
-603.178
-442.942
672.433
-229.491
248.517
320.041
-463.944
-432.428
896.372
-216.674
599.174
-986.057
386.882
-445.307
600.597
-1681.33
424.166
669.257
-1093.42
515.293
117.437
113.416
-2212.82
603.657
-173.975
1445.78
1777.1
-217.544
-1559.56
-438.64
1789.49
-1987.57
1194.7
792.863
390.987
352.272
-56.3249
893.972
-1282.08
717.311
-865.644
-820.114
806.035
285.312
87.7289
-373.041
218.557
170.637
-389.194
1573.11
-857.2
-1530.91
-325.432
516.816
-249.188
-267.628
388.81
365.148
254.314
432.966
-13.496
1005.12
-991.622
443.17
293.867
-737.037
-734.284
1817.54
-1083.25
-342.302
731.112
-1241.54
-420.037
-911.452
479.024
657.01
-865.246
208.236
755.146
-373.667
-381.479
-460.234
-447.849
457.281
1151.99
1244.8
-684.795
795.77
-345.864
424.324
358.158
-223.352
-235.87
-302.848
650.7
408.182
-842.468
434.286
284.117
388.145
-672.262
-417.554
825.737
753.549
-1146.41
929.487
-50.3655
-478.022
281.594
801.308
-97.3613
1386.39
1890.52
-34.8973
346.694
-385.151
476.659
-1090.4
1076.9
697.484
376.325
378.821
105.417
411.399
246.502
526.691
-379.987
-251.129
-559.585
-89.738
-372.992
356.774
16.2177
-256.643
-278.481
1010.52
-1540.64
530.116
-139.219
-233.913
-444.905
738.771
-1662.28
1590.84
-962.871
341.547
-744.921
584.351
1224.4
-1808.75
607.467
983.375
327.482
-1130.55
721.608
-346.808
-320.321
1404.09
-1463.83
849.254
614.574
471.991
-650.75
178.758
-408.603
482.362
-73.7594
414.628
83.913
1725.43
443.492
-249.883
557.699
-1704.79
1147.09
-104.455
428.631
342.712
329.452
-448.878
-613.416
1062.29
400.238
-872.974
-639.475
901.702
571.348
-426.872
-188.609
-432.962
-409.506
-308.006
-826.568
1821.08
-1821.08
-96.3545
-1618.68
1715.03
298.907
269.065
-916.491
-555.863
1472.35
-408.104
971.734
-638.614
-1039.72
734.909
401.882
-1136.79
462.936
-148.699
573.086
1220.33
-1793.42
-1046.18
2114.04
-1067.87
-382.164
-286.407
-519.536
898.436
-1769.35
1614.69
154.653
1769.35
-1624.17
-145.175
-235.213
512.621
-277.408
-537.333
1620.69
1593.47
-2013.51
1139.42
-346.883
-241.251
588.134
209.768
-576.043
-778.138
361.643
1345.56
640.81
593.164
473.138
-1066.3
256.775
447.017
875.03
500.114
-1375.14
547.117
-1020.4
1574.92
-564.397
-792.367
-412.926
-163.662
576.588
-490.613
1207.24
-738.651
326.59
365.202
400.447
227.655
-628.101
610.215
831.23
-602.115
247.514
712.211
-426.872
-384.462
-219.042
603.504
1168.33
-712.663
603.163
471.699
-1074.86
-1281.68
1281.68
-380.083
756.408
-267.581
-491.017
758.598
514.637
430.145
-944.782
400.765
-668.346
597.913
-870.634
272.72
-367.708
-483.95
1077.11
-656.546
-717.134
1373.68
-370.363
969.537
-1552.84
675.304
-7.05574
-405.748
412.803
-577.141
751.755
341.059
307.229
156.865
306.072
-603.268
256.46
1871.56
-1968.92
241.105
-724.047
470.933
-825.005
354.072
-894.797
1462.48
-567.68
-430.507
-480.946
601.012
1124.12
-1725.13
-711.273
329.109
-466.438
1032.26
-820.14
1067.65
-368.22
-617.237
-543.441
761.37
535.135
-353.322
914.875
-325.346
-160.101
1599.04
-1816.59
-338.946
-647.11
-356.245
475.782
281.603
-675.752
-152.802
1091.2
-809.608
182.881
-377.717
-269.88
647.597
380.58
-897.896
517.316
-473.902
-479.433
-873.15
-392.256
594.031
-201.775
-456.392
-459.927
-368.872
-159.936
-425.628
653.283
-484.844
843.003
-1070.73
621.849
-1406.6
606.162
-29.7878
-1844.97
1874.76
570.278
-451.573
1267.23
-729.419
238.419
-238.419
677.271
-467.955
1040.02
-1678.63
-1158.75
-947.978
283.797
328.145
911.086
716.491
-538.954
-288.275
827.229
1666.17
-1695.96
-432.265
327.044
237.209
1134.22
-531.059
-943.347
1550.51
-607.165
436.904
-259.013
381.679
463.758
-845.437
558.078
457.768
-1015.85
-330.548
657.139
-38.4237
1909.98
1642.16
991.973
-1696.65
725.964
-1176.12
450.159
-492.544
1367.57
835.377
-1340.79
-606.641
259.758
821.924
-393.491
541.49
-1196.38
654.888
-629.51
-1215.51
-695.747
1911.26
-166.056
558.63
-392.574
-144.424
346.148
-512.204
342.994
354.885
-697.879
-1499.07
755.274
743.796
883.856
-1434.26
818.232
-434.888
197.576
-353.029
-641.047
256.585
-725.569
-673.012
695.623
508.757
-1204.38
375.735
-205.082
-170.653
552.226
-955.307
-601.3
-472.372
807.686
-831.396
-1156.17
-1437.91
499.819
938.091
42.1381
-687.078
333.018
354.06
-1337.06
1051.67
285.385
-614.008
-456.719
-665.199
920.375
391.887
-183.315
-208.572
508.591
980.204
-1488.8
988.223
-556.813
164.163
392.65
-483.568
688.869
-447.764
-503.406
147.161
233.789
-1525.59
517.024
565.633
-805.267
228.126
127.412
-452.758
349.399
-828.832
1954.16
-1195.38
-758.782
473.687
-715.3
241.613
318.252
348.833
92.6645
-441.498
-595.663
182.034
261.458
-691.895
1374.01
-682.113
424.086
518.618
-1244.64
255.978
1866.76
-1013.59
-853.174
783.314
-548.656
156.4
1402.24
-975.032
-427.211
313.404
-781.359
-616.662
1725.41
602.422
642.373
327.467
-42.1554
245.927
-1138.26
1725.72
-587.459
-1763.57
820.223
1786.94
-1713.23
-73.7145
-667.165
281.609
657.121
-752.06
208.619
1402.38
-567.007
370.389
466.001
-1858.94
1420.3
570.609
-484.829
-85.78
179.344
-548.216
-331.01
-165.556
-345.371
688.083
-682.134
269.207
633.529
540.622
-1174.15
1113.31
-1947.83
834.513
130.208
375.063
-1701.58
1663.15
293.598
-743.792
-175.251
372.827
773.706
676.662
-1450.37
1099.92
-1098.15
515.313
-1118.49
-620.126
242.684
377.442
555.448
-273.414
-656.038
-1022.59
272.362
-732.289
-912.324
150.028
148.083
227.652
425.517
270.201
-695.718
-647.952
-834.718
-978.67
478.66
-1074.32
-329.804
493.199
529.997
667.061
-274.435
-118.686
-463.443
790.925
246.805
-1208.13
560.176
1321.3
-547.591
431.628
-1032.93
-378.393
127.485
443.124
1022.93
551.987
-1733.58
1637.22
1671.47
-625.819
-1045.66
1909.76
-1899.96
-9.80069
237.78
-622.93
-377.888
560.769
-790.885
-341.219
-325.946
1015.44
717.343
-1542.16
824.812
240.453
-26.1779
1625.22
-1137.77
425.102
-1301.52
509.154
-62.8551
1529.42
1196.59
-470.626
-483.9
-72.9131
-250.459
736.124
-1951.64
-703.597
370.876
-530.476
159.599
189.57
-501.45
1139.98
671.673
-1811.66
-636.202
151.373
941.298
-1497.16
-210.558
678.629
-468.071
882.794
1117.21
-753.026
1355.45
655.794
-558.037
-97.7569
-334.459
1183.71
1070.92
-1981.39
910.471
-1184.17
534.491
1488.62
-586.914
-428.44
-121.151
-1250.25
565.451
1177.28
-33.9426
946.419
776.437
-1722.86
-184.403
579.09
-1541.68
962.587
487.049
916.19
-1403.24
639.764
577.092
425.461
-1106.57
587.827
1117.93
1214.59
-451.936
-762.654
-1186.2
-1754.92
-1.5632
-1732.01
-176.002
-474.748
1615.47
-640.758
-974.711
-490.769
1120.95
-1325.79
630.565
695.221
-1368.22
1453.84
-1338.78
585.754
1520.39
-439.502
-591.107
162.667
-1520.62
221.678
176.393
211.751
444.043
473.265
415.702
-888.967
506.537
-938.559
899.448
-1444.71
-731.662
216.032
515.629
-1062.56
448.624
-498.361
868.75
694.799
7.67778
-537.52
144.945
-886.571
-1318.76
-708.136
342.438
365.698
391.564
-719.207
327.644
-468.978
-189.334
-707.577
731.91
1540.59
-594.167
835.793
737.312
1344.45
-844.337
-970.521
-571.155
-789.923
429.185
360.738
-1034.38
-633.804
295.697
338.107
-1433.68
-296.774
-784.733
391.855
392.878
-675.127
447.581
227.546
-696.719
248.955
412.85
483.523
389.738
435.999
475.326
384.21
594.04
-967.096
712.232
455.155
450.329
355.564
-805.893
1630.69
-1079.75
-550.939
-505.188
-301.374
-1035.68
449.456
347.304
409.801
591.404
-1001.2
-1388.53
747.77
-522.637
1152.08
361.775
-29.1846
412.655
-860.767
448.112
-1910.63
291.95
437.209
-721.413
284.204
-194.518
394.566
-200.048
-656.061
293.069
362.992
-666.048
311.727
370.46
385.948
610.86
-1018.96
750.283
667.335
-1417.62
438.908
623.386
335.74
390.962
-726.702
403.529
327.583
624.575
715.503
436.483
632.005
-1056.32
424.313
-1695.1
1149.48
545.626
1696.53
-539.191
616.025
-1146.29
530.268
-636.832
343.097
437.848
-931.516
493.669
812.709
-501.233
350.184
337.899
609.837
-948.783
655.677
-1251.54
595.86
427.937
733.025
-1223.64
767.793
510.386
-1278.18
516.219
393.351
-909.57
-501.924
-935.986
-286.521
629.515
352.352
539.318
-891.669
326.681
330.458
-502.203
1944.72
434.536
-843.944
409.408
-917.324
-809.293
-741.944
360.465
-1251.71
431.566
-1756.41
1624.17
132.238
1758.81
-1614.69
-144.122
-778.826
-582.189
256.251
325.939
-1786.94
2013.51
539.604
789.732
-1329.34
440.203
715.109
689.175
385.589
-1074.76
10.897
1617.13
-594.2
388.497
878.737
-641.616
320.903
320.713
-378.684
-294.682
543.199
-204.058
431.95
273.602
-655.34
381.738
254.764
-567.572
-274.858
442.975
-1031.15
588.177
538.093
1092.6
365.896
594.878
306.879
348.796
-655.676
1661.31
-943.967
1693.2
-1522.01
-171.184
-327.425
-817.904
408.398
856.957
-1067.52
-597.292
269.891
-1090.47
1628.57
-1619.1
-69.2936
1688.4
-341.041
-350.007
-370.351
542.877
591.345
-499.349
-20.2756
-549.267
494.681
-282.521
-212.16
1782.81
-1325.53
-616.067
291.403
324.663
395.971
357.338
733.836
-287.922
-399.506
-1758.81
1695.96
459.973
-1099.24
639.27
-39.7133
1676.93
570.235
476.157
-1046.39
102.249
1143.85
-1451.86
-2.71634
-1907.91
217.273
-589.815
305.312
284.503
-953.814
611.139
-894.083
463.576
-1127.13
671.49
455.637
413.591
256.05
-795.004
-365.489
1214.82
885.528
699.76
-1182.23
456.156
726.074
494.924
698.943
-1193.87
-419.292
-248.334
396.417
-957.508
439.297
518.211
21.1847
-1880.13
1080.44
-482.523
-523.575
559.441
-1377.8
818.361
-446.518
800.59
-405.912
509.864
-718.318
1711.16
395.731
-168.079
210.42
-154.909
-246.288
401.197
1895.36
-504.147
-1723.52
1049.77
-592.158
297.476
-1010.98
550.245
-311.594
544.596
904.666
-1449.26
-1102.14
436.94
-21.4246
-1947.5
1719.91
-648.997
-538.191
461.014
-1189.53
728.516
199.994
191.893
-276.414
778.568
696.193
834.539
814.487
-458.923
1083.36
-534.024
465.323
-181.856
-283.466
-1926.45
-711.964
-316.213
-638.434
-6.18197
644.616
452.587
-270.553
575.647
1085.66
-822.408
921.37
1243.41
-426.049
-107.299
-296.998
404.297
953.825
-888.095
-303.615
-1065.87
609.151
1571.45
-816.179
538.032
934.322
-410.363
735.79
-325.426
1129.38
-271.684
382.36
1349.17
-710.138
-209.018
448.394
-1197.87
749.48
-952.357
-213.421
1165.78
437.556
-952.786
515.23
153.008
731.831
482.759
749.107
-177.899
848.654
-426.481
1181.36
-795.773
552.801
-1465.26
912.454
-1216.63
1800.98
-431.702
-1510.19
878.984
-1401.6
-325.619
-470.192
1456.88
-1531.1
781.624
1491.32
190.48
274.842
-375.994
-1756.41
-271.69
-1033.12
1608.77
-1797.37
1797.37
1593.47
-1004.18
-628.165
-360.093
368.236
603.499
-430.493
-383.315
-1389.52
896.974
1125.02
600.706
1201.94
1789.49
-1216.4
-631.037
270.73
1659.42
-1917.07
257.651
817.063
-1268.43
1545.1
-561.724
807.771
347.315
-381.288
556.173
793.053
623.785
1403.77
-293.988
-445.971
-396.698
491
-335.09
472.218
735.022
-321.756
-119.742
-358.915
574.217
-215.302
38.3312
-367.549
1107.24
-1720.28
-491.712
-515.428
-575.589
863.414
708.039
-1596.14
904.245
-452.492
-643.553
-516.338
1251.37
370.63
1723.99
-1702.8
-1666.17
1899.96
-1560.48
839.992
720.486
-421.171
-1803.35
918.197
584.749
817.635
-381.678
1794.72
-681.413
-472.249
721.089
450.651
-1171.74
-1104.27
444.326
752.264
-1617.08
473.328
900.68
161.992
-385.405
223.413
-1621.17
-396.489
-487.174
990.092
-690.069
1442.7
-972.437
1855.23
240.823
-559.921
484.746
-294.265
474.354
893.22
543.581
976.807
-463.839
-427.778
574.655
882.221
-1392.68
-40.9957
1591.22
-853.913
519.988
971.335
-1475.71
-1115.89
1795.7
-1242.24
-553.463
1205.9
-319.587
-886.31
-178.582
439.938
-261.356
-457.134
-249.996
416.408
-166.411
130.782
-379.116
1752.94
-1754.5
-487.761
-530.907
-903.356
428.465
-192.062
-236.403
627.592
-510.447
-419.262
-324.763
744.025
-990.141
491.753
-1166.61
675.843
402.815
-658.837
-436.59
1598.02
-881.533
530.212
-458.754
-567.934
-463.218
353.083
-342.051
-11.0317
-1150.28
420.859
-665.278
-1033.36
1698.64
-630.936
-1426.28
709.146
562.463
-1596.22
1033.76
-434.707
-483.794
164.279
575.066
-1258.13
741.787
539.298
1005.8
-2133.16
999.976
1133.18
-398.188
401.614
-376.199
-25.4148
1477.9
-388.985
449.711
1139.35
583.034
905.582
564.868
528.484
-1093.35
150.129
-471.43
-1713.23
232.327
1127.43
-639.832
518.811
1013.38
-1532.19
1092.72
-1643.66
194.995
734.492
573.388
-877.004
-1086.12
-162.38
414.36
-251.98
-585.578
-462.088
-636.491
-619.322
342.908
-1620.55
938.785
-477.394
214.014
-382.093
523.697
-306.423
-639.577
1196.79
-1338.55
956.256
382.293
-1027.56
-407.312
-773.329
-838.814
1702.23
-477.693
1799.17
-1594.51
-204.662
-1556.52
1018.54
537.984
-740.032
-247.172
426.65
-179.478
-619.168
384.877
263.304
-648.181
-524.695
1018.89
621.353
-351.462
-1620.17
1050.4
571.857
1103.41
-1675.27
-448.913
-277.428
-378.633
-757.963
-523.042
-331.359
488.224
1557.96
-995.499
-773.163
1497.42
653.915
-326.871
725.885
1152.33
-1878.22
322.426
319.509
-487.858
-1936.65
1723
213.643
730.934
-475.548
-255.386
531.905
1060.67
-1592.57
353.083
-1734.73
-233.219
1752.38
-1580.61
1073.68
506.931
-1741.54
6.81556
-522.377
401.614
1701.58
-1723
938.923
625.962
-1564.89
363.099
-212.737
-150.362
-451.667
-245.052
57.6229
93.7457
-340.918
-418.116
-452.518
-397.573
203.055
1510.08
379.329
-193.889
-481.238
447.845
-186.387
344.243
1510.63
966.471
-200.992
-765.479
-1103.98
1704.99
-1729.08
1063.81
-707.78
-1021.3
-1265.05
1844.98
-579.927
1155.03
-1771.34
616.315
264.27
-877.204
1676.13
43.3776
-1719.51
-491.213
-1082.87
-1752.94
-979.272
551.494
1019.42
590.331
1132.91
-1723.24
267.346
-514.631
696.505
-384.778
422.161
923.804
682.842
-378.974
-677.345
582.987
1072.4
-1655.39
-414.055
-355.613
769.668
436.068
-1663.15
1522.01
141.143
575.865
-1042.3
544.775
1083.79
-1555.54
993.813
-227.737
209.549
351.22
1909.76
472.881
-50.7298
995.833
722.749
-1718.58
-696.252
1085.18
-1557.4
151.2
-568.327
186.617
261.228
-693.052
-558.654
582.84
1034.29
-710.456
-272.493
-1367.98
671.863
696.119
-398.3
699.348
161.822
-861.17
562.708
-137.231
1557.53
-197.579
291.379
-783.334
-1936.65
1664.57
1005.64
295.884
306.446
506.263
-929.562
-996.891
-1767.25
627.561
1693.74
497.366
-474.98
1210
1086.94
-424.916
1028.41
-975.111
483.456
491.655
701.28
1047.83
-1749.11
474.136
491.457
-1493.78
-743.624
38.4057
774.227
-413.762
-894.969
371.394
-540.991
-799.798
562.452
-578.769
1397.13
1055.2
184.546
229.814
-550.722
1618.45
-777.7
1527.98
-1727.83
575.346
1152.49
533.121
-880.373
-1733.47
1917.07
-183.607
1721.72
169.385
-547.783
354.357
-260.611
-481.837
1210.35
568.275
1128.26
-491
416.514
853.053
-450.857
-769.99
441.484
328.506
1420.06
1089.47
-518.477
1422.72
-510.369
-532.667
1043.04
-602.87
563.757
-1260.34
1693.2
1839.56
-687.227
1586.36
-647.436
-1240.17
715.47
-563.255
189.72
-373.116
438.367
-229.737
-516.01
-1246.69
1870.96
-624.267
1173.09
-557.061
1120.21
-1659.4
1716.5
-574.036
-550.433
-549.875
1720.06
-315.55
-688.166
-473.517
1223
-1696.3
-1860.13
613.431
407.782
-987.187
155.052
202.225
-1719.02
1204.11
514.909
1162.83
558.89
-514.428
-465.496
1191.57
185.706
208.859
588.451
1251.11
-539.195
-1238.57
1777.76
-1025.1
999.982
866.777
-204
-1659.42
1702.8
-510.28
1410.96
-1733.47
-301.119
-55.3494
356.468
-244.51
580.969
-336.459
158.416
493.26
777.249
-385.686
1257.5
1270.34
-413.387
847.359
-438.961
1817.63
-662.6
1586.75
-1723.99
-412.858
-799.031
351.935
447.096
-562.503
-563.834
79.7571
-1138.43
-984.924
-670.954
1655.88
-943.692
-1189.47
206.838
-448.089
-646.281
705.868
1167.42
650.21
1410.19
-592.557
1636.69
1317.83
-576.041
-479.447
185.182
-503.366
1396.59
1239.73
-567.867
-999.975
888.074
63.5193
-951.593
603.387
-506.272
1403.25
1495.01
-589.428
-347.154
347.154
-589.729
1623.49
1238.8
-486.536
1134.1
-50.6477
1852.18
-372.159
1489.43
-589.981
-507.72
1347.71
-648.054
1218.34
-570.287
1554.79
-592.208
778.981
575.764
-1354.75
-687.114
269.711
543.751
601.435
-1957.28
-1026.08
1586.75
352.911
-352.911
-50.9223
379.249
438.983
376.969
37.6589
-272.441
974.701
-546.764
-429.702
808.951
-233.816
611.258
-412.238
1565.04
-444.356
-883.859
171.391
222.359
-393.75
601.179
1250.75
-1851.93
923.356
-459.78
-342.051
126.143
-1943.07
1816.93
-442.684
163.303
1180.77
-440.545
-740.221
-285.11
-609.859
-498.997
-376.199
-467.922
255.762
1157.42
-566.079
231.963
-363.588
131.625
-23.1159
-107.689
1375.9
-1268.21
34.6845
-594.269
-586.59
-441.669
441.669
-1262.32
1985.07
-1344.25
-197.359
-1826.37
231.864
-1025.75
-974.247
-173.375
-1641.16
711.593
1229.32
-1925.07
357.101
320.285
-677.386
-1850.03
1234.26
615.765
-557.321
557.321
-958.679
-40.0548
-1866.19
-558.21
1650.81
-674.386
1636.2
-601.903
-197.705
-1710.21
-574.857
-492.585
-594.92
-457.108
457.108
-1537.82
194.534
1343.28
159.234
219.944
-379.179
527.386
439.085
994.266
-476.055
1751.28
768.817
-411.766
386.351
525.032
1702.07
-594.836
-553.01
1636.8
457.348
1812.89
-645.466
-1804.9
-1938.07
-647.225
-470.781
470.781
-599.338
202.64
-725.176
1017.09
-466.847
-1079.17
-298.606
1579.55
1852.29
1635.4
-1635.4
-323.112
740.825
1761.54
595.815
1275.15
160.62
202.479
633.082
590.578
1603.47
-1603.47
212.103
-362.107
-441.99
445.774
948.837
-465.381
-637.786
-1130.9
1706.25
271.346
-1687.25
647.526
-287.456
456.842
1744.65
-592.167
-209.904
-493.773
372.963
744.964
1738.59
-613.571
-511.813
-782.903
1960.55
-870.468
-1090.08
1642.65
-701.395
1223.95
-1824.97
601.025
411.638
-971.558
-184.496
-98.6569
1096.53
-487.383
150.42
661.314
-1683.91
422.232
626.34
-1804.9
-583.313
1787.42
882.521
-1162.84
1760.5
-597.656
1783.83
-575.576
-1208.25
428.077
932.132
-1754.5
924.221
-1465.19
214.643
1250.55
-832.171
-1254.21
-366.862
71.32
295.542
581.808
259.796
1040.02
-432.74
842.779
-410.04
819.375
744.296
-1563.67
645.115
1066.67
-23.7732
-660.196
683.969
-1744.6
723.301
717.212
150.506
-1122.54
1936.79
-674.578
-1262.22
-537.194
1665.45
845.178
970.436
-1815.61
1227.85
683.409
-412.807
705.876
845.186
1025.77
-588.211
1761.54
624.852
1773.56
-1185.56
-588.002
-442.312
-340.292
782.604
121.459
-1185.48
1660.51
-540.298
-1437.75
1437.75
1250.54
594.433
1351.26
206.706
-567.056
278.021
-176.441
699.23
1113.66
470.201
-284.495
-868.682
-576.026
1747.69
-1747.69
976.527
-976.527
987.343
1025.17
-2012.52
1837.97
-614.024
-581.137
879.782
-947.861
-1052.16
998
692.021
-1690.02
-509.002
-409.341
-659.525
-808.449
2042.71
-1246.4
-613.724
1002.98
974.864
1289.78
647.014
317.821
1012.69
265.859
344.51
1186.17
1756.91
-1756.91
670.993
79.1776
-381.848
-997.066
-539.999
1674.1
989.654
1010.35
-1833.32
-213.532
-361.325
613.921