/*--------------------------------*- C++ -*----------------------------------*\
  =========                 |
  \\      /  F ield         | OpenFOAM: The Open Source CFD Toolbox
   \\    /   O peration     | Website:  https://openfoam.org
    \\  /    A nd           | Version:  7
     \\/     M anipulation  |
\*---------------------------------------------------------------------------*/
FoamFile
{
    version     2.0;
    format      ascii;
    class       surfaceScalarField;
    location    "21";
    object      phi;
}
// * * * * * * * * * * * * * * * * * * * * * * * * * * * * * * * * * * * * * //

dimensions      [0 3 -1 0 0 0 0];

internalField   nonuniform List<scalar> 
11265
(
144.325
-527.818
383.493
-757.385
4.45609
752.928
426.661
-372.938
-53.723
656.581
263.025
-919.607
1510.89
-1069.44
-441.446
1216.28
-1527.13
310.842
-33.0273
469.772
-436.745
168.836
-842.228
673.392
962.087
-1610.81
648.725
-1765.06
1671.33
93.7301
-542.947
1759.23
-1140.67
1934.49
-793.823
607.959
181.221
-789.18
-25.3793
-1314.78
1340.16
220.94
-1986
1023.61
-382.286
-641.326
-204.704
349.029
485.494
190.646
-676.14
1155.39
-1313.32
157.939
-305.035
375.082
-70.0472
1000.13
-1315.81
315.682
1221.55
799.322
-2020.88
73.5203
-1640.73
1567.21
-488.938
-1163.62
1652.56
476.507
182.026
-658.533
-188.951
-338.868
498.063
1012.83
1648.03
-1806.66
158.623
-95.3339
-1689.75
1785.09
-1558.87
651.849
907.019
-307.382
653.524
-346.142
-190.926
-123.513
314.44
1284.97
-1211.45
355.221
-1407.4
1052.18
-1754.31
1754.31
101.55
1533.13
-1634.68
-1079.04
-479.829
652.119
-685.147
-384.581
941.651
-557.07
1331.9
-1317.28
-14.6127
-1100.43
715.848
626.927
396.685
-380.974
-41.2001
422.174
-468.679
759.994
-291.316
-1618.46
1618.46
1253.58
-1437.88
184.308
-488.626
1710.18
1255.35
-313.698
1660.74
-1161.25
-499.497
80.6509
-385.686
2065.41
-1135.09
-930.317
1814.2
-166.168
455.503
156.152
-611.655
-458.042
969.809
-511.767
-1171.54
1273.09
-568.237
970.867
-402.629
400.937
754.448
661.361
-492.525
-437.848
594.999
-157.151
1190.67
-835.452
2308.2
-1080.67
-1227.53
1163.72
-2008.85
845.124
-1603.18
1577.8
440.686
-1581.35
-759.062
1250.69
-491.623
-672.653
365.27
1661.46
-699.374
-1106.93
-870.894
1977.82
713.333
-360.794
-352.539
689.827
565.522
-258.21
1511.79
115.327
-318.904
203.577
-284.86
761.367
-334.805
565.352
-230.546
-324.556
810.05
-318.367
-148.99
467.358
318.945
107.715
1459.19
-459.058
-983.902
472.964
510.937
279.06
89.9125
-368.973
949.401
-341.443
-1704.91
630.217
1074.7
12.2269
-856.281
844.054
-280.862
595.793
-314.931
157.238
-1093.89
936.651
1051.46
-1067.04
15.5723
373.058
518.664
-891.722
-245.451
700.955
-1103.66
-482.2
1585.86
-678.028
950.893
-272.865
1355.35
-1450.68
-616.539
234.142
382.398
-470.196
-1011.55
1481.75
-538.862
-793.68
1332.54
576.163
-996.302
420.14
-265.397
-316.875
582.272
407.155
-291.827
-1036.37
578.328
955.456
-798.218
-110.343
943.954
-833.611
-210.206
418.834
-208.628
-642.856
-341.045
-386.741
962.904
1856.37
-1856.37
-496.457
-120.082
-954.742
1570.52
-615.779
459.68
-893.794
434.113
-923.681
355.444
-941.909
-1058.08
-1488.4
342.474
1145.93
-276.266
932.847
-308.405
608.169
-299.763
-1941.9
999.994
-1140.25
-348.156
559.679
-1514.42
1728.52
-1725.66
-2.85708
195.374
-583.345
387.971
-1467.46
980.265
487.197
287.852
213.021
-500.872
310.101
-644.906
242.31
-418.541
176.231
2019.16
-860.787
-1158.38
-536.93
155.956
616.682
835.255
-1451.94
-184.272
426.582
431.319
876.745
-1308.06
-907.897
393.371
514.526
-1046.34
1447.28
-1068.68
309.623
751.896
-98.3716
529.198
-324.086
-205.112
1008.28
-535.315
593.351
-1403.87
810.518
-1342.29
238.629
-546.926
266.064
-1200.85
924.588
1940.69
-995.214
-945.478
276.802
1579.57
-2094.68
895.149
1199.53
365.417
-31.2494
-334.168
-223.879
482.402
-258.523
-111.708
-376.731
488.439
-466.978
148.61
341.473
-131.553
591.234
413.728
382.916
-796.644
-2043.14
1122.12
921.026
461.172
-532.199
71.0277
222.053
-363.723
141.67
996.887
1022.27
1786.17
-253.033
703.083
-468.942
796.705
-1389.75
593.044
335.2
378.133
1054.65
-1042.42
-488.93
-260.427
749.356
478.342
-136.614
-341.728
797.275
-616.054
541.778
-733.461
191.683
503.331
1157.41
-1239.98
701.12
1039.08
-1528.02
-3.12976
-1439.43
1442.56
325.638
824.584
-1150.22
623.103
269.96
-893.064
-2272.3
1156.95
1115.35
-1111.17
-1161.14
171.888
369.889
958.725
-633.087
879.029
-898.77
19.7402
-2099.38
992.454
-225.476
-189.748
415.224
-41.7843
1770.31
-822.416
65.032
-1028.24
-1066.43
-229.65
451.703
-654.042
157.584
-270.954
-454.879
725.833
1104.02
-1574.22
782.962
-1374.45
591.489
707.684
-444.659
1947.86
-1444.53
-378.286
-1376.02
59.3128
410.459
-522.24
526.696
11.0281
-563.963
552.935
569.69
-281.838
-604.717
279.642
325.075
778.14
-364.412
33.9334
331.484
1188.47
-1191.6
178.352
228.803
426.408
-697.362
619.52
-1006.26
-2026.72
2026.72
-266.946
-464.802
731.748
699.172
405.872
-1105.04
579.615
172.281
399.579
378.561
-2199.75
1328.86
-926.548
-679.096
1605.64
-485.236
-715.618
-276.914
582.113
-305.199
842.58
-221.516
-621.064
-435.579
630.953
365.485
-673.891
-351.385
-114.859
466.244
-1331.71
-474.949
645.811
-1131.05
-374.147
-1244.32
844.334
1463.86
303.992
-910.321
606.329
966.537
-339.61
1391.4
-798.05
444.765
-266.413
-328.282
-887.199
589.511
297.689
-353.651
-533.549
306.426
-418.134
-184.05
-159.278
343.328
-392.772
1091.94
435.024
-244.378
-394.478
1352.04
-166.259
-1185.78
-457.799
265.929
191.87
239.342
280.137
-519.479
-6.4807
-726.98
592.109
-1729.02
1136.91
1482.27
-865.587
-1053.59
-413.873
-1057.15
573.544
483.61
1387.08
-406.811
929.209
-1411.41
-176.124
-178.488
354.612
-469.17
580.681
-1627.02
427.936
903.961
285.12
342.26
-627.379
568.062
1186.25
1103.99
-714.456
-389.538
406.299
-218.984
-187.314
-1419.46
445.425
738.11
-1183.53
1473.36
-544.15
-506.716
952.222
-445.506
426.149
1186.16
-1612.3
47.3756
-725.404
-145.002
424.062
192.095
-383.022
543.771
464.508
-587.807
36.3662
551.441
1024.53
-1307.67
283.132
661.878
-262.3
468.287
-1447.25
978.959
391.693
1686.73
-523.008
886.788
1053.9
-661.476
-1684.61
758.063
560.326
398.439
-958.765
454.458
78.8228
1749.99
-1828.81
1443.72
-379.491
-1064.23
1699.14
-1740.92
-367.327
-514.721
714.259
-199.538
-502.592
184.448
293.895
-373.199
-1225.99
214.439
-764.624
-639.244
-625.377
994.67
-369.293
-653.05
643.02
10.0303
655
-923.643
268.644
-701.304
346.302
355.002
-648.464
-717.868
358.352
359.517
-932.292
1400.58
-415.113
885.198
-470.084
-2205.31
5.55804
180.805
-536.471
355.666
139.401
1212.64
-62.1595
-591.882
159.488
-597.336
1487.16
-704.195
373.174
-462.74
89.5658
-564.868
564.868
1223.03
395.433
1777.96
-1228.77
589.331
639.435
849.352
-52.0764
1291.66
773.75
-540.247
1336.95
294.617
301.176
273.671
-788.392
207.731
-676.41
231.034
-444.323
213.289
-261.349
597.221
-335.872
110.984
-372.333
-591.825
-564.611
1156.44
-404.7
525.349
-120.648
-1192.16
2032.04
-839.886
1289.65
-330.925
-401.648
136.251
-1984.81
821.19
1540.25
-855.6
-684.651
1986.97
-877.438
-1109.53
713.706
575.945
-240.76
471.794
-687.646
1161.18
-473.534
-769.965
1201.28
551.635
924.648
-1725.13
800.48
-581.848
-45.4088
627.257
265.201
263.997
418.248
-85.8541
-332.394
896.742
-83.4939
-813.248
909.615
-565.582
-344.033
1576.2
-472.176
889.565
-1626.69
737.12
1068.47
879.39
749.335
-443.426
-305.91
-1058.99
-258.293
561.244
577.701
-1138.95
-507.277
488.49
18.7867
577.507
-345.325
-232.182
-982.781
567.667
595.462
886.807
-441.822
1096.82
1411.75
-779.256
-632.49
396.279
-924.79
528.51
-1028.08
385.222
558.892
-1065.61
413.088
-495.61
82.5226
443.637
316.357
-516.145
-48.7231
-794.292
-878.475
1672.77
194.66
211.639
-238.668
410.557
-0.512603
-562.01
562.522
496.006
865.166
-1361.17
-496.127
312.078
985.683
-88.9407
836.204
-1064.82
228.62
411.768
846.16
-1386.41
-446.302
829.218
1978.21
-1284.56
-693.649
269.955
609.074
255.819
795.644
85.8016
-975.132
889.33
1673.74
-1089.03
-584.704
-137.871
1887.86
-1866.06
-160.654
483.303
-621.482
138.179
-1014.08
526.708
487.375
-1730.47
538.319
-955.795
845.452
392.286
202.713
574.715
-270.723
-421.537
710.892
255.645
44.1491
721.703
-765.852
-1139.21
-888.834
2028.05
-552.924
1108.35
-555.429
-466.86
-333.717
108.241
-1654.9
860.609
-850.729
-617.097
1467.83
-331.285
-295.1
626.385
357.97
-670.563
312.592
238.959
-603.372
304.152
203.702
-507.854
358.769
-635.683
643.419
-285.449
315.066
-464.056
683.97
445.169
-205.827
-415.911
-301.957
1220.89
-1.11818
-1219.77
1039.67
-420.146
560.11
410.757
-1782.36
869.823
912.537
490.535
548.219
-1038.75
-534.86
203.575
-263.11
1180.98
-917.872
-1590.88
1212.59
504.667
-1096.49
385.892
-12.7185
460.418
292.196
-752.615
372.334
-617.785
-32.1072
756.203
-724.096
-525.804
795.764
387.375
322.212
527.14
653.6
99.841
-442.688
342.847
1058.77
-645.085
-413.687
494.021
-1664.27
1170.25
-1140.4
1753.24
-612.833
1715.83
-1123.72
-334.82
614.462
-1189.52
1275.32
425.089
-795.991
1603.33
-807.337
-243.069
-214.73
-906.663
1470.25
1812.84
-611.154
-1201.68
-405.018
679.06
-1304.44
-124.731
-67.3452
485.593
-687.792
-354.177
-1236.7
-221.482
460.441
903.443
-558.64
181.909
-1674.62
-71.2167
1745.84
-1071.19
518.266
568.55
-1181.89
613.342
901.055
911.784
630.705
619.98
697.76
254.461
-1153.19
465.549
-399.101
410.13
620.66
-515.06
246.66
-731.62
484.96
719.082
-383.882
-305.597
182.083
-586.083
240.964
345.118
-887.603
-739.083
1087.67
-2145.75
399.128
-683.988
-342.903
-724.133
832.026
579.72
-343.484
302.284
405.267
244.643
630.466
-875.109
541.131
620.049
-506.645
155.259
375.632
-642.577
-1054.52
-841.625
1896.15
-1797.77
157.036
1107.08
-1370.19
1175.3
-720.584
-454.717
-503.736
1349.9
-1495.52
627.891
867.629
-286.744
-210.308
497.053
1428.4
558.565
326.584
-441.442
-484.118
-566.933
1051.05
-418.061
598.867
1582.45
-1129.44
-453.011
-804.559
339.757
654.808
403.964
-1623.43
416.167
1207.26
-193.594
497.746
797.795
784.654
174.594
-679.746
505.152
207.202
211.632
-292.006
-109.524
401.53
472.354
51.9822
-524.337
-1645.77
592.178
-1610.04
1676.54
-66.4913
11.3338
-1621.38
1069.58
781.961
-321.542
-824.639
-203.439
-1134.57
-239.879
-312.192
684.527
-1812.49
-629.017
1206.72
212.138
757.672
-1330.28
-678.569
-465.544
650.546
-365.426
-1013.28
1350.77
-1932.88
582.105
646.37
1288.12
485.282
-2.88045
716.236
705.569
-1421.8
-639.183
336.884
302.299
439.857
-100.234
-339.623
150.295
280.785
161.458
-442.243
-584.799
1145.13
459.684
-627.925
-461.643
-401.932
863.576
-324.383
148.259
-458.169
166.342
-304.914
-709.169
547.421
-107.564
-571.064
967.344
577.962
-269.408
-308.554
455.577
-780.133
-644.241
443.124
-1129.4
-838.887
1181.36
-569.77
447.309
302.047
-480.312
119.518
1028.84
-315.981
592.603
-276.621
-509.042
1578.62
-708.028
262.511
370.631
-633.142
200.113
526.065
-19.8517
-506.214
-253.754
-204.415
1004.79
1108.92
564.818
-874.2
935.798
-61.5988
-455.315
168.571
-764.406
309.527
-594.287
364.95
354.131
833.489
-1252.16
418.67
777.424
-809.532
-948.939
-550.384
1499.32
-165.812
508.071
-525.464
201.378
1309.28
772.256
-597.662
1333.7
-687.885
487.758
-662.02
-408.052
-423.27
-378.679
801.95
502.603
-844.045
-477.045
73.7695
403.275
-323.255
572.427
729.172
-330.044
-244.853
-175.587
420.44
-488.678
144.616
344.062
1458.3
81.1718
-1539.47
-751.518
1346.98
-1144.76
-466.049
560.652
-190.021
1150.72
-373.294
1083.49
492.708
690.356
-416.685
-885.037
-522.367
-1328.43
-26.0356
985.018
-958.982
612.133
345.131
-957.265
-318.273
-218.657
-682.831
405.523
1621.2
-192.426
366.772
346.766
-713.538
-1839.78
-2106.68
1519.14
587.542
-2038.93
349.179
376.26
547.051
-923.311
-460.316
1020.43
-406.744
-682.245
1088.99
-2030.53
1391.21
639.325
609.181
-1015.92
25.137
387.951
386.78
198.818
245.947
360.254
985.441
892.182
680.272
-325.735
-354.537
-293.835
621.96
-328.125
573.435
530.559
565.26
514.855
-1080.12
-796.201
-699.319
752.438
398.281
-416.588
729.18
-1193.41
1609.58
430.168
-1112.41
-322.24
525.942
-1388.55
892.33
496.223
-723.027
-354.377
-772.934
334.726
438.209
447.124
718.236
-1165.36
1069.49
-578.952
-402.342
648.433
-246.091
253.658
324.304
-468.092
-432.19
900.282
-236.599
567.797
-951.695
383.898
-459.761
600.599
-1681.27
423.805
670.947
-1094.75
516.903
91.2656
113.408
-2212.79
556.522
-109.213
1444.16
1777.09
-217.552
-1559.54
-438.45
1789.22
-1987.01
1194.49
792.517
403.233
346.102
-39.5094
871.535
-1283.33
718.717
-870.024
-822.716
796.68
307.315
53.0723
-360.388
228.165
183.046
-411.211
1553.8
-837.562
-1530.94
-325.432
456.327
-200.518
-255.809
394.629
366.738
244.003
406.543
-9.22986
1001.85
-992.619
416.346
277.045
-693.392
-734.073
1817.32
-1083.25
-342.967
737.596
-1220.44
-414.24
-915.639
483.449
600.803
-809.403
208.6
761.827
-380.516
-381.312
-433.874
-440.325
450.888
1100.02
1237.3
-668.75
801.29
-345.713
405.636
326.111
-250.755
-211.984
-231.541
623.233
408.129
-847.864
439.735
241.389
362.852
-604.241
-422.611
830.74
754.516
-1147.29
898.128
-64.6396
-488.151
272.736
781.911
-95.9071
1384.03
1890.5
-69.7024
335.631
-345.809
445.65
-1086.3
1077.07
660.35
376.516
385.312
65.4836
390.843
256.549
496.38
-371.232
-267.951
-563.449
-89.6013
-355.812
366.598
-10.7866
-258.158
-288.767
1011.01
-1540.71
529.707
-178.919
-194.019
-420.101
697.147
-1634.88
1591.03
-963.138
283.537
-691.589
584.317
1224.42
-1808.74
607.418
983.611
305.731
-1119.53
697.997
-315.912
-311.467
1379.51
-1445.87
827.944
617.931
426.419
-613.114
186.695
-355.04
461.354
-106.314
401.621
70.7335
1723.97
460.218
-253.016
557.633
-1704.79
1147.16
-94.0213
408.377
343.235
337.037
-448.591
-615.579
1064.17
415.691
-861.993
-641.019
902.864
570.495
-474.776
-226.528
-438.762
-409.102
-307.319
-827.253
1821.11
-1821.11
-103.477
-1595.53
1699.01
293.288
284.219
-917.211
-555.387
1472.6
-408.236
973.496
-603.277
-1042.49
705.523
383.49
-1089.01
477.665
-162.598
573.063
1220.35
-1793.41
-1044.27
2114.86
-1070.59
-375.045
-297.608
-505.028
844.785
-1752.62
1601.67
150.944
1752.62
-1606.44
-146.178
-245.811
524.792
-278.981
-537.289
1620.78
1567.92
-1982.16
1090.74
-335.804
-224.661
560.465
232.124
-554.364
-723.779
307.19
1341.67
636.535
580.274
483.48
-1063.75
276.792
413.564
875.397
500.111
-1375.51
533.544
-1017.66
1574.96
-563.951
-786.61
-378.489
-144.981
523.471
-490.062
1208.3
-740.306
333.093
367.862
358.674
246.4
-605.074
590.798
831.913
-603.293
256.47
679.328
-474.776
-369.918
-201.508
571.426
1168.53
-687.701
609.928
466.036
-1075.96
-1286.03
1286.03
-386.205
762.721
-284.167
-476.249
760.416
488.41
443.297
-931.707
389.62
-673.787
610.664
-868.639
257.975
-367.422
-494.046
1074.32
-661.399
-710.391
1371.79
-366.615
934.412
-1552.71
675.272
-4.87494
-363.504
368.379
-544.411
701.995
278.372
318.849
170.565
307.099
-559.864
243.951
1869.62
-1965.53
253.418
-688.997
448.159
-819.956
371.797
-913.446
1426.93
-513.488
-429.959
-485.68
600.745
1124.19
-1724.94
-715.556
340.512
-460.998
1034.43
-784.424
1040.89
-378.842
-628.655
-505.957
713.689
540.12
-358.094
904.101
-299.89
-188.788
1599.02
-1816.57
-334.752
-616.944
-331.911
476.527
266.984
-632.41
-159.664
1065.54
-792.803
207.669
-316.45
-275.203
591.653
388.605
-875.52
486.915
-486.571
-449.878
-910.321
-350.582
541.388
-190.806
-436.663
-422.906
-321.704
-186.15
-385.06
631.46
-466.544
792.655
-1072.72
624.128
-1408.93
558.203
-28.0808
-1835.94
1864.02
569.946
-449.756
1221.7
-703.436
290.389
-290.389
671.142
-436.746
1043.72
-1646.99
-1158.73
-947.95
292.514
329.447
888.963
714.365
-502.673
-287.667
790.34
1657.99
-1686.07
-434.293
347.732
221.958
1135.09
-525.158
-943.334
1550.48
-607.143
444.436
-245.618
382.179
406.889
-789.069
531.643
469.263
-1000.91
-331.869
664.962
-37.9081
1907.53
1603.39
992.787
-1696.98
727.045
-1177.07
450.028
-492.476
1367.87
837.582
-1341.32
-578.986
243.182
796.686
-398.247
551.442
-1188.21
636.764
-637.928
-1215.54
-695.659
1911.19
-186.058
527.527
-341.469
-120.197
288.321
-474.379
327.868
370.415
-698.284
-1483.92
756.423
727.498
884.073
-1434.46
825.195
-431.824
219.098
-364.1
-608.132
238.215
-665.375
-723.179
698.617
506.323
-1204.94
393.136
-204.574
-188.562
555.878
-958.507
-570.161
-450.873
760.4
-831.301
-1155.71
-1437.97
499.66
938.31
31.0266
-648.71
309.244
339.467
-1314.53
1045.36
269.164
-616.496
-456.223
-665.838
921.657
401.506
-203.198
-198.308
508.239
980.63
-1488.87
974.94
-562.63
166.594
396.035
-427.223
661.484
-408.066
-504.598
172.687
234.319
-1518.87
528.281
541.206
-756.826
212.415
154.724
-454.613
366.354
-816.232
1954.16
-1195.39
-758.771
443.356
-671.636
228.279
323.749
320.121
122.278
-442.399
-569.49
194.577
265.642
-691.739
1374.34
-682.602
424.087
474.366
-1197.39
266.634
1866.78
-1013.59
-853.186
784.811
-502.166
151.584
1402.37
-975.179
-427.19
330.683
-767.429
-616.52
1725.44
610.892
626.408
317.947
-10.6321
259.142
-1138.42
1725.72
-587.3
-1763.53
820.193
1761.22
-1691.46
-69.765
-653.817
254.715
599.74
-707.152
201.195
1402.72
-565.134
387.823
441.394
-1858.59
1420.14
518.807
-446.617
-72.1899
201.493
-523.197
-319.01
-147.849
-352.657
695.892
-615.857
237.367
610.664
549.482
-1160.15
1113.63
-1947.49
833.864
145.423
320.82
-1699.14
1661.24
311.345
-728.03
-164.574
383.671
755.87
678.715
-1434.59
1079.29
-1080.41
524.263
-1103.22
-630.706
253.205
377.501
513.352
-272.388
-614.992
-1032
290.394
-713.301
-912.32
172.487
165.216
227.919
386.06
287.383
-673.442
-630.45
-834.042
-978.45
488.121
-1057.61
-279.088
470.959
532.841
648.52
-279.521
-122.127
-440.426
746.157
263.372
-1198.72
568.273
1308.87
-552.996
438.577
-1008.74
-387.085
118.75
400.057
1023.34
551.62
-1719.35
1615.88
1641.21
-577.927
-1063.28
1903.7
-1892.31
-11.3936
225.84
-571.649
-337.7
545.368
-769.713
-317.365
-336.451
1026.22
700.176
-1509.37
809.194
312.772
-26.1888
1625.21
-1093.98
406.283
-1255.56
468.947
-60.6151
1518.91
1197.39
-470.35
-488.413
-74.2168
-233.054
736.028
-1951.56
-710.56
347.926
-531.318
183.392
191.276
-507.258
1139.92
671.564
-1811.48
-583.775
137.158
941.977
-1497.36
-210.511
678.884
-468.372
879.965
1120.03
-738.506
1349.4
631.995
-536.423
-95.5728
-344.646
1172.59
1050.18
-1980.97
930.781
-1171.61
542.589
1488.79
-585.929
-381.562
-125.083
-1241.36
572.613
1166.35
-91.6553
946.104
775.604
-1721.71
-210.714
578.545
-1541.75
963.205
487.002
916.625
-1403.63
620.539
586.179
384.862
-1106.64
590.943
1106.42
1215.78
-452.308
-763.472
-1186.2
-1754.94
-6.40759
-1712.95
-178.882
-434.232
1607.61
-629.139
-978.468
-490.86
1121.56
-1317.91
635.835
682.073
-1361.94
1443.11
-1330.39
591.885
1520.52
-402.304
-544.886
163.325
-1491.37
227.508
176.38
200.853
431.142
457.469
393.012
-850.481
506.363
-939.006
900.707
-1444.86
-690.142
212.218
477.924
-1040.69
455.89
-473.817
861.64
694.819
30.0807
-503.975
162.506
-886.566
-1318.74
-715.63
349.776
365.854
403.765
-723.255
319.49
-479.076
-189.386
-709.383
720.004
1539.68
-593.579
816.655
737.143
1344.78
-844.669
-971.263
-570.487
-797.3
428.141
369.159
-1036.64
-642.917
304.2
338.717
-1433.69
-296.78
-790.808
398.06
392.748
-639.822
409.017
230.805
-665.906
257.84
412.799
487.483
389.939
440.8
478.923
384.653
596.566
-969.765
680.182
464.944
453.498
356.472
-809.97
1630.76
-1079.89
-550.873
-504.577
-286.689
-1027.84
454.106
347.844
409.696
594.041
-1003.74
-1380.96
751.824
-532.65
1145.99
345.096
-64.312
412.302
-865.585
453.283
-1898.55
303.014
441.336
-726.302
284.966
-186.473
405.181
-218.708
-661.883
307.548
354.334
-674.564
320.027
370.995
391.726
612.696
-1020.93
753.08
662.1
-1415.18
438.812
625.358
339.523
392.879
-732.402
409.138
328.458
615.455
692.563
407.459
603.113
-1022.43
419.317
-1678.45
1182.65
495.799
1696.59
-539.177
620.849
-1147.36
526.513
-642.782
347.683
437.418
-935.235
497.817
769.807
-477.611
351.186
344.706
579.275
-914.026
651.569
-1253.21
601.639
387.155
734.69
-1224.75
769.489
509.626
-1279.11
487.005
399.83
-886.835
-501.679
-936.291
-301.628
629.496
352.623
541.792
-894.415
332.801
332.161
-502.181
1944.74
436.979
-847.119
410.141
-917.812
-807.317
-748.886
367.574
-1216.57
432.148
-1734.84
1606.44
128.396
1746.68
-1601.67
-145.011
-784.475
-593.494
266.015
327.479
-1761.22
1982.16
538.576
791.493
-1330.07
440.127
716.31
690.277
385.639
-1075.92
-51.2314
1617.15
-593.809
378.055
843.648
-649.547
326.372
323.175
-378.592
-297.68
551.337
-222.2
435.221
280.722
-666.548
385.826
264.952
-579.883
-282.774
442.601
-1033.52
590.923
538.049
1092.71
366.059
596.845
311.54
352.285
-663.825
1627.73
-927.556
1691.95
-1520.6
-171.356
-328.542
-823.447
414.345
857.487
-1068
-607.582
279.457
-1090.59
1628.64
-1590.84
-77.6321
1668.47
-341.567
-350.404
-370.363
537.36
597.726
-503.19
-29.0098
-549.924
507.265
-283.913
-223.352
1752.57
-1301.68
-625.484
299.211
326.273
400.772
357.3
734.644
-296.037
-399.11
-1746.68
1686.07
459.605
-1100.98
641.371
-43.019
1658.9
571.249
476.412
-1047.66
104.19
1144.81
-1452.13
-13.0153
-1885.53
228.284
-599.147
307.635
291.512
-955.393
612.49
-898.419
468.46
-1128.6
673.449
455.146
378.241
256.421
-759.094
-334.023
1217.09
886.738
699.122
-1182.96
456.164
726.793
494.413
700.762
-1195.18
-388.459
-248.091
413.307
-960.756
438.624
522.133
21.2474
-1879.84
1079.9
-469.237
-495.639
558.229
-1378.24
820.011
-424.972
796.769
-405.496
499.419
-713.972
1718.76
413.614
-185.694
215.874
-171.321
-246.29
417.61
1895.32
-504.115
-1694.72
1051.51
-601.7
304.02
-1013.86
553.545
-313.249
544.32
905.266
-1449.59
-1103.78
437.94
-20.809
-1944.72
1714.36
-664.175
-540.441
460.763
-1190.53
729.768
190.819
210.687
-281.685
769.947
700.299
838.151
818.208
-461.737
1084.96
-488.202
479.455
-193.971
-285.484
-1923.26
-714.057
-318.425
-643.122
-6.63021
649.753
467.856
-273.279
564.254
1063.48
-805.205
924.901
1244.32
-425.388
-170.744
-246.518
417.262
955.731
-888.507
-320.724
-1067.92
611.7
1557.36
-800.936
537.683
934.915
-391.236
734.646
-343.41
1130.4
-276.044
368.293
1349.72
-704.961
-219.829
448.313
-1198.65
750.338
-985.86
-135.824
1121.68
441.779
-955.793
514.013
151.679
732.497
483.283
743.898
-113.432
853.102
-425.85
1182.52
-796.881
552.171
-1465.49
913.318
-1216.65
1800.97
-431.711
-1510.19
879.64
-1402.01
-304.664
-447.951
1457.23
-1523.74
784.656
1491.49
202.413
277.042
-349.875
-1734.84
-287.831
-1014.11
1578.37
-1769.35
1769.35
1567.92
-1004.5
-634.393
-332.336
368.43
605.067
-410.496
-358.631
-1389.84
897.361
1125.14
600.581
1202.75
1789.48
-1216.42
-612.544
273.885
1659.02
-1916.49
257.476
814.597
-1267.61
1545.24
-561.629
778.554
329.8
-343.878
554.897
794.999
656.174
1371.87
-253.005
-445.136
-352.871
497.181
-341.029
471.813
736.485
-291.123
-151.276
-327.26
565.251
-237.991
27.3773
-372.702
1107.44
-1720.28
-450.152
-485.549
-563.859
863.545
693.814
-1596.5
904.764
-451.787
-622.124
-514.008
1252.12
341.783
1723.71
-1702.46
-1657.99
1892.31
-1560.81
840.261
720.552
-383.416
-1796.2
917.729
583.241
819.474
-388.515
1794.33
-680.702
-447.582
696
425.695
-1121.69
-1099.58
444.135
753.26
-1617.18
473.213
901.128
177.622
-403.545
225.923
-1600.46
-385.536
-459.221
990.28
-673.09
1442.95
-974.765
1854.73
242.293
-550.375
498.014
-295.601
474.326
893.548
543.143
977.379
-462.939
-427.972
574
883.233
-1392.7
-40.9901
1573.4
-836.261
519.957
971.534
-1475.84
-1115.9
1776.56
-1243.33
-533.229
1206.15
-319.054
-887.094
-192.625
455.847
-263.222
-457.436
-250.869
432.514
-181.645
147.161
-395.251
1734.48
-1740.88
-456.083
-530.857
-903.6
445.641
-207.371
-238.27
634.715
-478.873
-396.776
-307.811
704.587
-946.163
412.614
-1167.29
676.432
419.915
-635.884
-440.241
1576.21
-861.847
530.187
-457.983
-570.873
-462.651
364.292
-353.976
-10.3157
-1109.41
405.975
-664.779
-1033.65
1698.43
-602.112
-1423.55
713.156
562.211
-1596.27
1034.06
-393.302
-481.878
145.428
552.332
-1258.49
744.482
539.234
1006.01
-2133.18
999.988
1133.19
-350.71
412.174
-387.028
-25.1459
1478.06
-367.171
449.553
1188.12
582.256
906.537
567.713
527.553
-1095.27
167.018
-437.636
-1691.46
253.098
1127.57
-615.094
518.507
1013.74
-1532.25
1092.85
-1643.72
199.364
698.764
546.123
-866.846
-1086.49
-171.825
429.226
-257.401
-586.963
-425.918
-636.848
-628.167
346.481
-1618.85
939.75
-476.847
215.85
-401.544
535.826
-307.542
-608.908
1197.18
-1290.06
935.936
354.124
-1025.23
-358.552
-757.778
-825.316
1688.86
-477
1795.32
-1585.29
-210.027
-1556.63
1018.72
537.917
-726.024
-260.379
443.243
-182.864
-592.668
383.853
274.643
-658.496
-523.989
987.011
630.872
-351.415
-1620.28
1050.51
571.774
1103.54
-1675.31
-410.07
-293.196
-368.687
-745.128
-488.947
-331.031
501.596
1558
-995.787
-775.172
1497.47
660.624
-312.893
725.882
1152.36
-1878.25
275.205
300.371
-487.225
-1932.33
1719.95
212.375
739.038
-474.727
-264.311
531.837
1060.82
-1592.66
364.292
-1725.96
-233.21
1752.35
-1580.69
1073.77
506.92
-1727.3
1.33702
-521.726
412.174
1699.14
-1719.95
939.676
624.603
-1564.28
383.351
-219.467
-163.884
-414.071
-251.834
68.0173
95.0146
-355.394
-430.776
-437.863
-407.985
221.512
1510.24
378.896
-195.371
-444.451
463.59
-197.949
319.974
1510.77
989.07
-170.147
-818.922
-1104.1
1704.84
-1728.8
1064.02
-707.198
-1021.6
-1265.08
1844.99
-579.904
1155.07
-1771.16
616.092
271.418
-878.13
1675.73
43.4445
-1719.17
-491.17
-1083.05
-1734.48
-982.157
554.184
1019.6
590.232
1133.03
-1723.26
277.322
-467.342
704.36
-384.334
383.64
924.861
680.783
-372.563
-649.867
582.899
1072.55
-1655.45
-400.126
-369.163
769.289
395.182
-1661.24
1520.6
140.636
583.275
-1044.27
544.749
1083.89
-1555.68
994.051
-238.42
230.356
315.012
1903.7
416.305
-69.993
995.86
722.753
-1718.61
-697.26
1085.34
-1557.51
166.742
-571.4
197.881
265.71
-663.436
-553.136
582.524
1034.62
-711.128
-252.416
-1368.64
675.624
693.02
-415.999
748.012
90.7166
-838.729
561.78
-137.16
1557.3
-217.166
265.813
-771.915
-1932.33
1664.62
1026.57
346.302
288.961
480.846
-930.079
-993.181
-1767.26
637.058
1693.77
508.836
-474.351
1210.84
1087.13
-424.958
1030.02
-978.626
492.852
485.774
700.274
1047.95
-1748.22
485.021
482.323
-1493.99
-746.913
32.4565
780.586
-413.012
-881.224
385.585
-538.956
-802.362
606.329
-577.366
1397.38
1055.15
194.594
234.632
-550.628
1618.52
-772.802
1525.88
-1727.84
575.259
1152.58
543.754
-883.364
-1732.8
1916.49
-183.694
1721.74
182.567
-544.06
367.807
-272.792
-481.445
1211.21
568.272
1128.32
-491.288
430.284
858.438
-461.753
-772.187
425.312
346.875
1418.9
1089.6
-518.217
1422.98
-510.621
-533.375
1044
-602.762
497.74
-1218.32
1691.95
1839.58
-687.213
1585.72
-646.042
-1241.32
717.335
-562.522
202.752
-392.5
455.35
-243.719
-519.884
-1246.71
1870.94
-624.235
1173.46
-552.614
1120.28
-1659.46
1695.61
-573.944
-545.724
-549.821
1720.07
-317.025
-688.051
-473.332
1223.67
-1684.48
-1860.1
613.397
328.869
-949.933
169.292
214.101
-1719.03
1204.15
514.876
1162.85
558.889
-511.764
-465.396
1192.19
178.479
226.703
588.445
1251.13
-539.177
-1238.58
1777.76
-1025.39
999.99
866.788
-204.111
-1659.02
1702.46
-510.093
1411.22
-1732.8
-343.358
-2.19357
345.551
-264.196
585.071
-320.875
98.2831
491.228
781.567
-377.802
1257.53
1270.85
-413.363
852.355
-438.01
1817.46
-662.394
1586.55
-1723.71
-412.793
-757.869
333.393
424.476
-559.873
-563.334
79.7363
-1138.73
-985.473
-669.785
1655.26
-943.706
-1189.47
206.28
-430.941
-648.28
705.641
1167.45
650.017
1410.33
-590.86
1636.74
1318.11
-573.629
-493.415
197.815
-503.288
1396.84
1240.16
-564.535
-999.987
893.213
54.9814
-948.194
603.439
-506.144
1403.51
1495.08
-588.54
-366.934
366.934
-589.446
1623.5
1239.51
-486.247
1134.15
-66.7875
1851.87
-394.572
1489.49
-588.779
-507.682
1347.94
-652.502
1218.67
-566.164
1554.81
-591.608
754.638
570.463
-1325.1
-668.289
261.39
510.867
600.246
-1957.3
-989.506
1586.55
369.623
-369.623
-69.7415
388.277
436.918
346.084
55.5367
-319.079
922.444
-535.289
-426.209
814.486
-243.706
621.207
-429.036
1551.15
-444.343
-884.086
187.696
226.651
-414.347
601.169
1250.77
-1851.94
927.219
-458.759
-353.976
126.152
-1943.02
1816.87
-451.047
184.634
1181.25
-440.468
-740.782
-300.523
-580.701
-492.688
-387.028
-481.116
257.764
1158.36
-560.637
230.521
-382.485
151.964
-22.7362
-107.679
1376.02
-1268.34
34.5791
-598.028
-586.407
-452.146
452.146
-1262.36
1985.11
-1344.38
-207.507
-1824.69
239.406
-1025.75
-974.243
-186.316
-1637.89
707.806
1229.32
-1924.98
369.525
312.323
-681.849
-1850.01
1234.27
615.743
-561.44
561.44
-959.161
-39.9719
-1866.06
-558.149
1650.86
-677.212
1636.18
-601.557
-179.509
-1706.02
-585.273
-468.908
-594.807
-466.27
466.27
-1537.81
194.526
1343.28
173.75
226.045
-399.796
501.23
487.84
997.157
-475.024
1751.3
768.199
-422.884
397.738
520.961
1702.06
-594.613
-552.968
1636.86
471.766
1812.75
-645.304
-1804.02
-1938.07
-646.97
-478.585
478.585
-573.084
220.212
-703.129
1019.52
-465.98
-1072.49
-284.706
1579.57
1852.3
1635.34
-1635.34
-291.512
738.65
1761.49
595.788
1275.15
173.897
209.454
589.277
595.39
1603.51
-1603.51
222.577
-353.73
-434.872
460.303
951.586
-458.734
-639.607
-1131
1706.26
280.468
-1659.7
617.206
-289.233
471.8
1744.65
-592.069
-215.789
-441.955
378.475
727.943
1738.57
-613.434
-511.769
-781.191
1960.54
-870.455
-1090.08
1642.78
-705.655
1223.97
-1824.95
600.975
354.064
-904.439
-185.759
-105.552
1098.31
-486.614
124.327
625.846
-1657.85
436.668
595.713
-1804.02
-583.278
1787.43
884.178
-1162.92
1760.49
-597.573
1783.83
-575.531
-1208.3
431.987
929.409
-1740.88
924.732
-1487.23
251.983
1235.25
-830.902
-1254.23
-379.606
75.6564
303.95
581.729
269.792
1027
-444.217
846.69
-402.474
821.051
738.891
-1559.94
643.875
1066.31
-24.187
-663.115
687.302
-1744.34
722.734
700.718
150.56
-1122.68
1936.76
-674.551
-1262.21
-537.178
1665.5
831.04
964.16
-1795.2
1227.86
683.33
-403.232
710.78
838.865
1028.42
-586.644
1761.49
626.549
1773.56
-1185.62
-587.944
-420.322
-320.705
741.028
121.448
-1185.68
1660.55
-540.271
-1437.81
1437.81
1250.57
594.416
1351.54
206.453
-569.247
282.353
-192.44
699.084
1113.67
482.701
-304.222
-870.147
-574.709
1739.55
-1739.55
993.608
-993.608
987.332
1025.17
-2012.5
1837.95
-613.974
-581.109
837.991
-947.85
-1052.16
998.346
690.654
-1689
-516.145
-363.6
-652.325
-808.425
2042.7
-1246.42
-613.684
1002.97
974.852
1289.77
646.988
325.768
1012.69
238.512
337.35
1186.25
1756.88
-1756.88
671.899
79.8319
-388.386
-997.053
-539.992
1674.14
989.852
1010.15
-1833.28
-223.528
-361.745
596.727
-343.629
1849.5
-1077.86