/*--------------------------------*- C++ -*----------------------------------*\
  =========                 |
  \\      /  F ield         | OpenFOAM: The Open Source CFD Toolbox
   \\    /   O peration     | Website:  https://openfoam.org
    \\  /    A nd           | Version:  7
     \\/     M anipulation  |
\*---------------------------------------------------------------------------*/
FoamFile
{
    version     2.0;
    format      ascii;
    class       volScalarField;
    location    "5.5";
    object      p;
}
// * * * * * * * * * * * * * * * * * * * * * * * * * * * * * * * * * * * * * //

dimensions      [0 2 -2 0 0 0 0];

internalField   nonuniform List<scalar> 
7807
(
0.594407
0.0234822
0.739254
0.503019
-0.00272519
-0.000130565
0.722149
-0.0156596
-0.000436651
0.218683
-0.000126698
0.00572361
-0.0236655
0.110216
0.226698
-0.0372957
0.609729
-0.0317245
-0.000137948
-0.190268
0.153129
0.00354217
0.0804713
0.394392
-0.0419846
0.604189
-0.00252632
0.135665
0.336018
0.00408625
-0.0510593
0.95986
0.0795962
-0.00143263
-0.000307001
0.179687
0.00471323
0.702965
-0.0165222
-0.000870063
-0.0153813
-0.0360574
-0.178376
0.0101455
-0.000531359
-0.000255549
0.00352612
-0.0162657
-0.000229891
-0.186093
0.00894051
0.128616
-0.0536463
-0.0136914
0.178644
-0.0144879
0.000448863
-0.0155514
-0.0777759
-0.001466
-4.14636e-06
0.0118047
0.110316
0.00639707
-0.00255161
-0.0503158
-0.000390503
-4.0259e-06
0.29943
-0.0150683
-0.000239998
-0.145468
-0.0408524
-0.0711431
-0.0308512
-0.113856
0.731946
0.149325
0.168881
-0.158405
-0.0229609
0.634514
0.22024
-0.0766512
-0.0049939
-0.00605884
-0.0172282
-0.0523726
-0.0022923
-0.0122
0.343507
0.0257119
-0.000400018
0.000651484
-0.0100173
-0.0695619
-0.139855
-0.00691617
-0.00535223
-0.00308329
-0.131564
0.18432
-0.00966023
-7.38836e-05
0.0506928
0.361075
0.834516
-0.0151751
-4.50494e-06
0.0751153
0.47986
-0.105665
-8.43915e-06
0.0802797
0.359492
0.00075231
-0.102655
0.294398
-0.103694
-0.073227
-0.132921
0.609246
-0.168219
0.0272703
-0.130155
-0.00320811
-0.0439282
0.00280107
-0.00267009
-0.0497067
-0.0403963
0.165428
-0.00181188
-0.00260632
-0.0786963
0.463835
0.713248
-6.5415e-05
0.0214368
-0.170997
-0.0661808
-0.124686
-0.115566
-0.0678279
0.837654
-0.0501141
0.339608
-0.076729
-0.093833
0.608251
0.170988
0.0305748
-0.00482303
0.267661
0.218794
0.668322
-0.130596
-0.0231052
0.839972
-0.000210442
-0.00136469
0.405749
-8.98203e-05
-0.00790525
-0.0112696
0.48889
0.490083
0.867742
-0.00867652
-0.00825074
-5.69517e-06
-0.131078
0.000741376
0.0366176
0.0233299
-0.0924254
0.0837146
0.376119
-0.000407096
-0.00158173
0.51483
-0.000203371
-0.000323024
0.730463
0.0145627
-0.094352
-0.0976322
-0.0676003
-0.0582301
-0.167606
-9.24448e-05
-0.13349
0.392739
-0.00994682
3.50259e-05
0.443957
-0.00346959
-0.0465446
-0.0571616
-3.71092e-06
0.00175915
0.469812
0.439996
0.661728
-0.0901205
-0.0927543
-0.158953
0.147838
0.459077
-0.000557462
-7.61353e-06
0.788301
-0.0322653
-0.00185587
-0.127943
-0.0459959
0.620997
0.627269
-0.133706
0.929152
-0.00324616
-0.0309654
-0.133911
0.181712
-0.220082
0.546176
0.833394
-2.24607e-05
0.0291088
0.311207
-0.0149162
0.28945
-0.00209511
0.926462
0.65262
-0.0168999
0.00528249
-0.000818842
0.409334
-0.000289681
-0.0232625
-0.169282
-0.00024594
-0.00507534
-0.00178218
0.358156
-9.85465e-05
-0.0126436
-0.153631
0.94913
0.148567
0.878266
-0.000154364
-0.0630523
-0.000701517
0.691365
0.0113768
0.716987
0.000748422
0.00132917
0.0151685
0.153977
0.00118645
-0.00063205
0.00100503
-0.01568
-0.0914009
-0.000147808
-0.12574
-0.0108395
-0.000428102
-0.00200206
0.699692
-0.0223305
-0.00203025
0.875422
-0.00540271
0.543642
-0.000740009
-0.00445172
-5.72754e-06
-0.0910593
0.174333
0.105382
-0.0788445
-0.00141165
-0.167807
-0.0461568
-0.000507015
0.000964608
-0.00792249
-0.0219863
0.00791682
-0.00428258
-0.0729267
-0.0796515
-0.0710836
0.0327318
-0.0904508
0.671806
0.690795
-0.00448738
0.0720643
-3.15311e-05
-0.00872901
-0.071103
0.384704
0.244764
7.32732e-05
-0.00799158
-0.0885733
0.359603
-0.00335461
0.00993213
0.00288197
0.199457
-0.0686949
0.674793
-0.00452895
0.0257108
-0.000378574
0.0100452
-0.000184446
-0.0628803
-0.000938546
0.00823267
0.0428106
-0.100237
-0.000179731
0.0255142
-0.00198621
0.0654146
-0.0300523
0.204464
0.358656
-0.188797
-0.010464
-0.0473456
0.0144622
-0.163619
0.884243
-0.00613353
0.100116
0.915546
-0.00432428
-0.00530782
0.00780149
-0.00398922
-0.0419128
0.0187191
-0.00784843
-0.00583522
0.329853
-0.00032295
0.00112526
4.50118e-05
-0.00973853
-0.0257852
-3.63854e-05
-0.00309689
-0.0741931
0.796662
0.00182684
-0.0314569
0.787505
0.54641
0.174061
0.0923063
-0.13413
0.0135871
0.476106
-0.03343
0.590764
-0.0667784
-0.178161
0.438842
0.599747
-0.117649
0.232016
0.549289
0.558698
0.14563
-0.00948519
-0.0134803
-0.000289242
0.00444571
-0.0339609
0.00199201
-0.000334319
-0.00475383
-0.169209
0.256129
-0.0537976
-0.0125456
-0.01103
0.0166788
-0.0211367
0.00275069
0.503793
-0.00535969
-0.000137127
-0.000313392
-4.59319e-05
-0.0658251
0.320812
-0.0115667
0.090778
-0.22714
0.688455
0.00741613
0.0191436
-0.0163769
0.68103
-0.00290936
0.674262
0.345802
-0.000361976
-0.0722768
-0.00955664
-0.120195
0.00117842
0.187615
0.00519678
0.0177402
-0.00235703
0.33546
0.362141
-0.106382
-0.0754381
-0.00838447
-0.0606628
0.253221
0.948509
-0.0667932
0.0113754
-7.83592e-06
-0.0418962
-0.00636552
0.0588293
-0.193029
0.0442034
0.720337
0.338332
-0.133408
0.464647
0.666189
0.0881421
0.00269149
0.508022
-0.00349957
-0.000613703
-0.0511495
6.02428e-05
-0.176076
-0.00711832
-0.0847911
0.00485326
0.446438
-0.00509722
-0.000131397
-0.193748
0.00430979
0.131956
-0.125965
-0.167134
0.168171
0.312941
0.258741
0.265321
-0.000585128
0.244796
0.22054
-0.00177785
-0.0522895
0.00127876
0.0127579
-0.0162694
0.0134822
-0.0028174
0.390398
-9.98443e-05
0.000271176
0.00505738
-0.0643462
0.0651045
-0.0784242
-0.0781695
-0.0876958
-0.227268
0.0210473
0.497431
0.067171
-0.0207924
0.930008
-0.138234
-0.0271428
-0.0764137
-0.0257875
-0.0594711
-0.0318016
0.0909157
-0.0164806
-0.000142854
0.0791914
-0.000312331
0.659645
0.318067
-0.0148543
-0.0404591
-0.000553366
0.63448
0.63076
0.213678
0.439201
-0.14518
0.726915
-0.000302386
0.0658527
-0.0525796
0.382539
0.852705
0.228912
0.320406
-0.0101806
-0.000612353
0.400571
-0.0123132
0.661031
0.132069
0.43893
-0.021531
0.694896
0.605302
-0.0280181
-0.0237093
0.354067
-0.171002
-0.000363901
-0.0405547
-0.168357
-0.152602
0.033586
0.0265666
-0.000479218
0.640205
-0.00718852
-0.000348712
-0.0681377
-0.00154013
-0.000651925
0.00660292
0.469787
-0.175165
0.808599
2.80067e-05
0.470408
-0.0585537
-0.000365258
-9.55172e-06
0.332563
0.446134
-0.0127962
0.401933
-1.47614e-05
0.423446
-0.189052
-0.0289156
0.688035
-0.122213
0.41768
-0.0732192
0.424445
0.446682
-0.0515866
-0.0656916
-0.022118
-0.00803269
-0.000671836
-0.00734815
0.563567
-0.000135393
0.402706
-0.162389
0.594626
0.38378
-0.17135
0.803414
-0.00490002
0.00981486
-0.079934
-0.0581979
-0.0203829
-0.0664953
0.103295
0.889649
3.69067e-06
-0.00575501
-0.107442
-8.01356e-06
0.673347
0.00444577
-1.17061e-05
0.000260381
0.000673479
-0.0601641
0.0574147
-0.00453501
-0.000278476
-0.0213304
0.00359813
-0.215918
-0.14991
0.0660285
-8.25479e-05
-0.223792
-0.0383315
0.355875
0.575676
0.00199211
0.351688
0.000166515
-0.037185
0.198364
-0.0207247
0.508246
-0.0397544
0.0754583
0.206
0.336658
0.0086597
-0.0307322
0.417824
-0.176883
0.706237
-0.0281837
0.571533
-0.0276678
-0.0032937
0.305242
-0.00339322
0.201006
0.00468671
-9.20642e-06
-0.231995
0.490141
0.00273467
0.339569
-0.0375302
-0.235961
0.019392
-0.0818766
-0.00490863
-0.0235046
-0.163019
-0.0824903
-0.0288048
-0.000677529
0.738015
0.33465
0.0903607
-0.000619991
0.596192
-4.7199e-05
-0.000570445
0.345184
-0.00323681
0.442404
0.134012
0.0495325
-0.0311774
-0.201324
0.154583
0.00297338
-0.123663
-0.000139347
0.00756879
0.490452
-0.048911
-0.00831358
-0.0319761
-0.00573962
-0.00165182
0.873349
-0.0299593
-0.00183217
-2.28662e-05
0.282734
-0.0957688
-0.00114937
-0.00775447
0.326732
0.213935
-0.115295
-3.41478e-05
0.352472
-0.0538311
0.42489
0.0483855
0.0602192
-0.0886403
-0.000322452
0.201022
0.199975
0.201513
-0.145742
0.556684
0.0166262
0.414706
-0.0135485
-0.0679514
-0.00109822
-0.0111923
-0.000565357
0.342325
0.554238
-0.00450149
0.0562184
-0.049536
-0.11376
-0.131295
-0.00531439
0.0599607
0.851868
0.161795
-0.000295248
0.208164
-0.014645
0.745038
-0.0367974
-0.0435892
-0.0142114
-0.0487051
-0.0277116
-0.0228437
-0.0159056
0.0019179
0.089091
8.45973e-05
-0.132
0.0846111
0.664415
-0.110182
0.446877
0.00498457
-0.0657727
-0.0473538
0.407435
-0.0221179
3.42633e-05
-0.0530364
-0.0195827
0.0654308
-0.0769913
-0.0676914
0.0404842
-0.0410655
-0.0244329
-0.159804
-1.32163e-05
0.123024
-0.141367
0.398833
-0.0505884
0.199023
-0.160435
0.633885
0.0167867
-0.0907742
-0.0495895
0.775077
-0.121204
-0.0381504
-0.210563
-0.079652
-0.180255
-0.100337
0.397329
-0.00841618
0.465291
0.0243824
-0.00129725
-0.00429234
0.182801
0.938544
0.000448106
-0.0582652
0.34183
-8.74507e-06
-0.0625224
0.0821431
0.0319568
0.0247093
-0.00529061
-0.0936311
-0.0122231
-5.64974e-06
-0.116561
0.514071
0.00204819
-0.0482214
0.00453465
0.342611
-0.00134123
-0.00359705
-0.00102687
-0.00312636
0.222876
0.00498306
0.00290955
-0.0534124
-1.44081e-05
-0.177214
0.0184191
-0.197669
-0.0543053
0.0414579
-0.000623305
-0.0410841
-0.152511
0.182725
0.595714
-0.00497023
-0.159084
-0.0147496
0.0223375
0.364264
0.000770659
-0.000565598
0.374219
0.144415
0.0419417
-0.00907137
-0.00571767
-0.141054
-0.000703652
-0.00737622
-0.0362464
0.519568
0.521157
-0.0546711
-0.135917
0.0199745
0.00631807
0.109736
-0.153529
-0.0393721
-1.87798e-05
0.0838797
-0.0690493
-0.170728
0.00788111
-0.118818
-0.00119496
-0.00879335
0.384841
-0.0844769
-1.77473e-05
-0.00768579
-0.0922232
-0.000484592
-0.0476014
-0.000265554
0.00707708
-0.208056
-0.0605462
-0.000204495
-5.19549e-06
0.247639
-0.11159
0.635382
0.550238
0.0629482
-0.0025857
-0.0415275
0.000296683
-0.0675012
-0.161048
0.122596
-0.0479295
0.552135
0.0193583
0.000287632
0.01111
-0.16791
0.0047083
-0.0562667
-0.147607
-0.00145122
0.0457399
0.145003
0.0186761
-0.0700524
-0.085734
0.35463
-0.0654837
-3.48117e-06
-0.177597
-0.153123
-0.074878
0.0066735
0.00152555
0.0177454
-0.203232
0.0713512
-0.0753877
0.327937
-0.0835215
0.0120461
0.039285
0.0348818
-0.0783535
-0.0917469
-0.000535124
0.279647
0.384304
0.0154774
0.493461
-0.145582
0.0998287
-0.111054
0.372201
0.204057
0.890872
-1.21946e-05
0.22138
0.346177
0.0304152
-0.00334693
-0.0376499
0.0610466
-2.62632e-05
-0.0413728
-0.120122
-0.0417983
-0.0495134
0.000118092
-0.0364208
-0.0010724
-0.0017834
0.427561
0.0103113
0.280666
0.0424321
0.376804
0.0203153
-0.00136274
-0.122359
0.0133673
0.615356
0.00207172
-0.125985
-0.000808578
-0.00120172
0.0103637
-0.0921458
-0.000147182
-0.0216621
0.0627891
-0.00379888
-1.36911e-05
-0.000240635
0.286659
-0.0121613
0.0116603
-0.00226885
0.0155008
0.0322742
0.0148707
-0.000914695
0.661046
-0.0954712
0.401547
0.586513
-0.000470758
0.25848
0.245588
-0.00172831
-0.000753199
-0.00153513
0.0471266
0.0331983
-0.0339429
-0.0535561
-0.16163
0.324872
-0.154439
-7.0624e-06
-0.0445581
-0.0474446
-0.0791335
-0.00862834
0.00982765
0.00201234
0.0590271
-0.00106276
-0.000853784
-0.0413581
-0.00966398
-0.0574441
-4.71952e-05
-0.0338464
0.0725599
-0.00106618
-0.0348806
-0.0190044
-0.0259736
-0.0195168
-0.0111978
0.0159116
-0.0196125
-0.000294476
-0.00114617
0.0481224
-0.0262361
-0.0109861
0.0151802
0.000687388
-0.245615
-0.0251564
0.293711
-0.0262342
-0.132093
-0.0638619
-0.05249
-0.0347046
-0.00797679
0.00292151
-0.00771525
-0.0288015
-0.0349461
0.381813
0.312052
0.117656
0.57631
-0.000195849
-0.00960478
-0.034732
-0.0182949
0.24247
-0.0454433
0.12251
-0.0119752
0.425694
-0.00444848
-0.00390581
0.038383
-0.049034
-0.000603349
-0.0582985
-0.0125339
-0.0457443
-7.83234e-05
-0.0139921
0.00331066
-0.0403587
0.0797744
0.0744498
0.0388835
-0.0313542
-0.0727708
0.224756
-0.00328579
-0.00415561
-0.00434786
0.78783
-0.000440103
0.165076
-0.045567
-0.0470418
-0.05649
-0.105975
-0.0628358
-0.0786054
-0.0436021
-0.0105013
-0.000272718
-0.00896217
-0.0457829
0.199094
0.00282229
0.380779
-0.0763213
-0.0303452
-0.00182701
-0.0670531
-0.000274794
0.280585
-0.0704413
-0.0604465
-0.0553076
-0.0116271
-0.0810909
-0.00340203
-0.0949365
0.201403
-0.0582032
-0.175761
-0.00297938
-0.0610715
-0.0426607
0.0308998
-0.00725831
0.26905
-0.0049106
-0.0397056
-0.0016989
0.299321
-0.0906099
-0.0583373
-0.00651992
-0.0223339
-0.00619392
0.400715
0.0477992
0.47381
-0.0129846
-0.00211793
-0.00258737
-0.00525477
0.426655
-0.149064
-0.016038
0.000362268
-0.0235003
-0.0306117
-0.00259548
-0.0407447
-0.0358879
0.117968
-0.0107458
0.0040126
0.740945
-0.150343
-0.0617613
-0.140648
-1.27522e-05
0.153824
-0.00758151
-0.0581202
-0.0129655
-0.0823123
0.00617378
-0.00124813
-0.00590693
0.0057949
0.363518
-0.0121976
-0.00387967
-0.0103952
-0.136044
-0.0186201
-0.0477606
0.00661001
-0.0189907
-0.018956
-0.00722173
0.375685
-0.108672
0.00566219
-0.00862496
-0.0611158
-0.0291398
-0.116152
-0.00346382
0.185607
0.0469053
-0.0180444
-0.00403103
-0.0322118
0.821924
0.366241
-0.0253332
-0.00118419
-0.00529198
0.00494416
-0.0091075
0.0422065
-0.00106272
-0.0458286
-0.00410154
-0.036972
0.0141559
-0.00284933
-0.0318954
-0.00284977
0.550463
-0.0158949
-0.0254285
0.0195435
-0.00386751
-0.0659001
0.250688
0.73772
-0.0248056
-0.0267733
-0.00426641
-0.0013246
-5.07587e-05
-1.65943e-05
-0.0232771
-0.00149877
0.283648
-0.00182684
-0.00387405
0.0146068
-0.000570388
-0.10408
-0.14197
0.0349399
0.0822597
0.0542124
0.212504
-0.0892086
0.182272
0.140769
0.190039
0.236213
-0.0280169
-0.00199493
-0.016161
-0.159101
-0.00723197
-0.0338294
0.173257
0.625341
-0.124951
-0.00103655
-0.000195255
-0.0029149
-3.53738e-05
0.0143683
-0.00145201
-0.0129388
-0.111353
0.000693889
0.00449249
-0.000514123
0.157363
-0.0338778
-0.0556402
-0.00328441
0.548791
0.573126
-0.0237919
-0.145727
-0.0627544
-0.0524175
-0.0333067
-0.00415711
-0.179426
-0.0810548
-0.104896
-0.00574051
-0.000276693
0.381337
-0.0380889
-0.0206796
-0.0747449
0.0373646
-0.0011945
-0.0195556
-0.00280566
0.0237082
-0.00429711
0.370689
0.000384211
0.0197198
-0.000839543
-0.075047
0.017175
-0.00243545
0.0241276
0.000378613
0.138447
0.249803
-0.00296343
-0.00310673
-0.000321569
-0.00128754
-0.00110704
-0.144373
0.240567
0.109889
-0.000562431
0.0153701
-0.00111271
0.407471
-0.144262
0.489416
-0.101384
-0.000940998
-0.000854052
-0.0171751
-0.0120212
-0.00169788
-5.38258e-05
0.0513841
0.0599117
-0.000522004
-0.00102683
-0.0443835
-6.37525e-05
0.313742
-0.00225395
-0.123972
-0.0438056
-0.0134704
-0.132155
-0.151028
0.285051
-0.0464553
-0.0444607
-0.000680401
-0.132344
-0.0441729
0.0856696
0.293925
0.611195
-0.00233893
-0.141172
0.0234364
0.572516
0.0824405
-0.000297663
-0.0139186
-0.00857925
-0.0112529
-0.0999735
0.196437
7.59497e-06
0.0400521
0.00380871
0.181488
-0.00111481
-0.000440973
-0.0804261
0.532192
-0.126933
0.315123
-0.00383792
-0.000476636
-8.67652e-06
-0.161088
-0.0864041
-0.000929186
0.239667
0.0220524
-0.0119507
0.666623
-0.0012703
-0.00887473
-0.143205
-0.0547789
-0.00464879
0.257577
-0.130598
-0.000368656
0.0228262
-0.000558209
-0.000288326
0.285217
-0.0020459
-0.000914884
-0.114349
-0.0563624
-0.00699241
-0.0632111
0.00405858
-0.0487684
0.00248672
-0.00782414
-0.153994
-0.0882023
0.0432248
-0.00224401
0.309417
0.377484
-0.150107
0.0165901
0.0382467
-0.00979358
0.310439
0.235503
-0.0607273
-0.000404269
0.0175574
-0.12008
0.0220075
-0.0676114
-0.00479356
0.103494
-0.0647154
-0.000318147
-0.00024866
-0.0716091
-0.0668848
-0.0567153
0.0173628
0.067182
-0.106614
-0.000480236
-0.00354986
-0.000602775
-0.0875746
-7.64124e-05
-0.00418119
-0.104872
-0.196892
0.305914
-0.00668596
0.00758161
-0.0513092
-0.056813
-0.000341815
-0.0967487
0.311318
0.295491
-8.81355e-06
-0.000271955
0.300477
-0.00565801
-0.191146
-0.0833306
0.00597833
0.00027918
-0.154027
-0.0251897
0.307242
-0.122753
-0.00308612
-0.028313
-0.131816
-0.00133625
-0.000517473
-0.00214912
0.0151406
-0.115658
0.336869
-0.000480002
0.773977
0.0596796
-1.56027e-05
-0.00278369
0.000122975
0.000170465
-6.78066e-05
3.12092e-05
-0.116928
-0.0018224
0.000496775
-0.00044162
0.267621
-0.0123405
-0.000443575
-0.000204562
0.66457
-0.0503487
-0.0195887
0.00144671
-0.00160932
0.134062
-0.000298892
-0.0365162
-0.124053
0.00370272
-0.017946
-0.000253833
-0.000498221
-0.0733118
-0.142942
0.0138459
-0.139953
-0.0982764
-8.24372e-05
0.0434967
0.0674028
0.213407
-0.00356419
-0.000377449
-0.134864
-0.0132058
-0.0014287
-0.111017
-0.000347302
0.0907694
-0.000416456
-0.00253451
0.123353
-0.00613074
-0.135123
0.746967
-0.00401026
0.000259092
-0.136886
-0.13605
0.0165398
0.00862384
-0.000345174
-0.0710238
-0.000259559
0.359513
0.881889
0.216002
0.00533886
0.00630586
-7.76731e-05
-0.0669999
-0.000219817
-0.0225294
-0.00379953
0.000310309
-0.00690882
-0.0254684
-0.000295536
0.00117591
-0.0243919
-0.000683261
-0.0252531
-0.0384858
-0.0195641
-0.00335311
0.806325
-0.00214386
0.00420117
0.000203914
0.0276199
-0.109765
0.0186759
-0.000434786
-0.000252782
0.00377415
-0.000309667
-0.000167537
-0.030333
0.000928209
-7.44126e-05
-0.118867
-0.00658184
-0.121725
-0.00357908
-0.000179013
-0.00627151
-0.0254803
-0.03765
-0.0628195
0.00392811
0.00055706
-0.00107089
-0.00386346
-0.000265917
0.497527
0.00249655
-6.79947e-05
0.000504018
-0.0046824
-0.00110312
-0.139913
-0.122497
-0.000473288
-0.0158801
-3.06083e-05
-0.00799731
-0.000197851
0.0734683
-0.00036726
-0.000598666
-0.0101437
-0.000120397
0.0268875
-0.000541666
-0.00266006
0.0381605
-3.63125e-05
0.646265
-0.12666
-0.0969496
-0.000106446
-6.47225e-05
0.00292114
-0.0024295
-0.127204
-5.79956e-05
-3.03343e-05
0.000936841
-9.14242e-06
0.000407298
0.000527892
-0.00101797
0.0010824
-0.117907
0.78496
-0.0876603
0.605457
0.0175667
-0.0436592
-6.87069e-05
-0.00171655
-0.0287411
4.6207e-05
0.000271269
0.000109674
0.180345
-0.00411347
-0.000719154
0.74042
-0.000996935
0.000561542
0.000613944
-1.63765e-05
0.212685
-0.00501039
0.00169339
2.37778e-05
-0.00192548
-0.000174067
-0.00308946
-0.10345
-0.000876593
-0.00497149
-4.51966e-06
-0.00374053
-0.000523192
0.35245
-0.00095376
-0.00101785
-0.147875
0.00669241
-0.000369252
-0.00287919
-0.000157314
0.326097
-0.173054
-0.00120806
-0.000794027
-0.00612969
-0.000652377
0.122617
0.24311
0.111798
0.000385763
-2.18974e-05
-4.10946e-06
0.135964
0.000226911
-0.127258
-0.0639867
-0.0389072
0.121058
0.822047
0.00326528
0.40443
-0.0363743
-0.0690378
0.330939
-0.000711562
-0.153826
-5.09827e-05
-0.0209981
-0.103594
1.32117e-06
-0.125953
-0.00190021
-0.0178559
-0.0153646
-0.0896251
-0.0973451
-0.00964173
-0.150294
-0.0929821
-0.000379082
-0.0244501
-0.000253104
-0.0785001
-7.87128e-05
-0.000387249
0.0457547
0.315183
-2.57481e-06
-0.108038
0.00612851
2.99489e-06
-0.0542464
-2.68854e-05
-0.0273455
-0.000748835
-0.0806095
5.64651e-05
-0.000248339
-0.00545281
-0.000336321
0.308321
-0.07167
0.205497
-0.000176932
0.000814818
-0.0667121
-5.91526e-06
-0.135367
-0.15268
-0.124725
0.784263
-0.0149692
-5.64606e-05
0.0535488
-0.0884643
-0.0075709
-0.000228409
-0.00023304
-0.108694
3.32761e-05
0.00123393
-6.26833e-06
5.62579e-05
-0.0580292
0.343137
-0.126483
0.215163
-0.0121234
-4.29837e-06
0.0102533
-0.131295
-5.71504e-05
-5.01105e-05
0.00032832
8.76308e-06
0.000458228
0.523012
0.0745679
4.30055e-06
-2.81176e-05
-0.150307
0.379861
0.347855
-0.00011018
-0.0841663
-0.0500534
-0.0272969
-0.107906
-0.0227704
-0.00621519
0.276388
-0.000181374
-0.061514
0.326557
-0.115952
-0.000144367
-0.137327
-0.000408706
0.59996
0.0590895
-0.000165109
-0.000116056
0.367753
-6.90904e-06
-0.000450555
-0.0240216
-5.63668e-05
0.48823
0.00442414
-0.0149557
-0.142522
-0.00840774
-0.18731
0.352126
-0.033658
-0.0214682
0.00142381
-9.3796e-05
-0.00262618
-0.000118024
-9.82144e-05
0.0569562
0.345019
0.29208
-0.00103232
0.446067
-0.0332269
-3.07004e-05
-0.0983292
-0.000137264
-0.0657386
0.0617554
-0.0375728
0.00728788
0.00299638
-0.0186848
7.94591e-05
-0.00373223
0.0401053
-0.00550403
-0.000216909
-1.24518e-05
-0.000165603
0.0654972
-1.99536e-05
-0.0586466
0.468525
-0.0145108
2.03747e-06
-0.00706672
-9.93514e-05
0.246884
-0.000666534
-0.000181852
-0.000192633
-5.95108e-05
0.39373
-0.000447996
0.469048
-0.157473
1.532e-05
-0.127939
-0.00162943
0.303779
0.751847
-0.00266534
-2.53859e-06
-4.76907e-05
-8.68443e-05
0.304504
-2.11732e-06
0.00139139
-0.0491584
0.442342
-2.17964e-05
-3.86078e-05
-1.70118e-06
-1.3216e-05
-0.0477355
-3.48404e-06
0.57412
-0.0411804
-0.00026702
-7.49607e-06
-0.00396899
-0.061549
-8.48161e-07
-0.000147986
0.319686
-9.14512e-06
-0.0752114
-0.117115
5.88382e-05
-1.65306e-06
-0.201786
-1.1805e-06
0.330923
-5.91413e-06
-0.000997965
-2.3515e-05
-0.000351311
0.189824
-1.88693e-05
-0.00353032
-4.01175e-05
0.0239185
-0.00800172
-0.0126563
-0.00141526
0.29875
-0.000955595
-0.000241774
-0.0179906
-0.0178171
-0.000473618
-0.000291405
-0.00212626
-2.97006e-05
0.418012
-0.0263691
0.805651
-2.98538e-05
-0.0167405
-0.000621032
0.284185
-1.32602e-05
-0.0642854
-1.14556e-05
-0.00333771
-0.0778324
-0.000478749
-0.0363495
-0.11843
0.0079261
-0.000112047
-0.146758
-0.000599998
-0.00114199
-0.0117452
-0.03998
0.00171371
-0.000320101
-0.000944766
-0.00288995
-0.00267796
-4.55984e-05
-0.00245866
0.743972
2.85764e-05
-0.00645337
-0.0816402
-0.156478
-0.150448
-0.102304
-0.0509334
-0.00181973
-0.0440886
8.26622e-06
-0.000230227
0.769407
-0.000232847
0.382268
-0.000797056
0.000359918
-0.00224436
-0.125096
-0.000880368
-0.0013211
-9.02551e-05
-0.000805392
-0.000158208
-0.000215128
-0.0303268
-0.000319722
-0.000219604
-0.000215247
-7.30686e-05
-9.25318e-05
-0.104742
0.524991
-4.35137e-05
-0.00104045
-0.000271846
-1.4619e-05
-0.00157383
-2.05784e-05
-0.00175219
0.000180863
-0.000733479
-0.149611
-0.0013878
-0.00418102
-1.80597e-05
-0.00466616
0.000329683
-4.56349e-05
-5.12989e-05
-1.16106e-05
-0.00138376
0.000584484
-0.108306
-0.0670272
-0.147684
-0.000206955
-0.00575642
0.00826856
-0.144919
-0.000215424
0.0294304
0.011464
-0.00176141
-0.0270384
-0.119119
0.737338
-0.000800634
-5.9581e-05
0.000962313
-1.86838e-05
-1.54038e-05
0.152146
0.00506394
0.176677
-0.0942237
0.701712
-0.000909046
-1.43076e-05
6.58438e-05
-8.51692e-05
-0.0023728
0.319721
0.4061
-5.60169e-05
-0.000422699
-0.000113581
0.389029
0.0382472
-0.0184258
-9.65017e-06
-1.1323e-05
0.0133583
-0.00120405
-0.17682
-0.0388484
-5.99117e-05
0.00561877
-0.0775027
-0.000166684
0.00271502
-0.000249501
-0.104252
-0.00322195
0.300656
-1.29768e-05
0.00258821
-0.0029723
-2.10533e-05
8.61523e-05
-0.0537345
-1.74531e-05
-0.00156697
-4.05886e-05
-0.0385199
-0.100603
-0.00903282
-0.0209389
-0.017419
0.0172849
-0.0196834
-0.00457873
-2.57832e-07
-6.88534e-06
-3.32529e-05
-2.67741e-05
-0.000151054
0.0158295
-0.146516
0.00054828
-0.111196
-0.0055438
-0.128954
2.01924e-05
-9.12008e-05
0.00191384
-0.0245226
-2.24419e-05
-0.110855
-0.035899
0.169102
-0.110394
-2.26085e-05
-0.00614503
0.000105783
-0.125735
0.26111
-6.93255e-05
-0.147125
-0.0557835
-0.00767274
-3.74681e-05
-4.38745e-05
0.0608488
-0.0326125
-4.91817e-05
-0.0138259
-0.000128274
0.000123384
0.248821
-3.61462e-05
-0.000104481
-0.000348026
-3.18737e-05
0.0012161
2.47089e-05
-0.00939312
0.000132594
-0.0289368
0.00150884
-0.0005664
-0.0831671
-0.101995
-0.0139753
-4.78343e-05
-2.77992e-05
-0.15592
0.0101575
-0.111064
-5.99194e-05
-0.0113119
-9.14988e-05
-3.38487e-05
0.162956
-0.0128994
-0.00504295
-9.62931e-05
-0.0430175
-1.43555e-05
-0.159948
-4.07906e-05
-0.182822
-9.18391e-05
-2.94479e-05
2.03537e-05
0.00143099
-0.117313
-0.0357523
-0.174495
-5.84638e-05
-1.06623e-05
-0.183053
-0.065128
-0.0159132
-4.31698e-05
-0.0498056
-0.126459
-0.181718
-7.83135e-05
-5.06573e-05
-0.00014058
-0.138079
-0.169629
0.000847117
-0.0207642
-0.00020611
0.503965
2.8875e-05
-7.16998e-05
6.94151e-05
-0.000175335
-5.77494e-05
-0.00780525
-8.38164e-06
-0.00553839
-0.164168
-0.0249842
-0.121332
-5.90476e-05
-0.000134017
0.117931
-0.116873
-0.00854619
0.226282
-0.000188228
-7.44657e-05
-6.65433e-05
0.299349
9.29677e-05
-0.000268751
-8.05334e-05
-0.155484
-0.0299587
-0.000108134
-0.000179412
-0.0210459
-0.0117352
0.000354501
0.412965
-0.150765
-0.00116816
0.92871
-0.000245187
-0.00200941
-0.0215823
-0.180689
-6.34009e-05
-0.000133467
-1.59983e-05
0.00798767
-0.0840779
-0.000868197
-0.121005
-0.0143568
-7.46319e-05
-2.18728e-05
-0.0191454
-0.0118943
0.00663552
-0.0800528
-0.101695
-0.0899871
0.0525078
-0.0647008
-0.00018099
0.00029206
0.0262906
0.000643262
-0.000523989
0.000865719
-0.000113151
-0.00047539
-0.0227961
-4.24035e-05
-0.000148942
0.0830989
-0.0247507
-0.000824834
-0.000360755
-6.23912e-05
0.443468
-0.0149224
0.000852283
-0.067991
0.000182905
0.000119009
9.84624e-05
-0.000160804
0.000495812
-0.0914217
0.0326495
-3.51938e-05
-0.0007117
-0.103171
-0.0805437
0.0986242
-0.000852559
0.00291387
0.0346764
-7.39764e-05
-4.15186e-05
-0.121399
-1.90164e-05
0.310818
-0.000143345
0.0071987
9.73139e-05
0.000142816
-0.16067
-0.0170152
-0.0410597
-0.00453095
-1.9036e-05
0.00948715
0.124501
-0.028855
-0.000356115
0.190261
0.305777
-2.82734e-05
-0.123675
-0.000216689
-7.90514e-05
-0.000125357
-0.000969149
0.0387522
-0.000180705
0.000162486
-0.0504827
-0.0591467
-0.0435436
0.538924
-0.00011541
-0.000196355
0.318861
-0.0183945
-0.00833793
-0.00111457
0.31512
-8.75894e-05
-0.0013246
-0.000142416
-0.000147074
-2.17776e-05
-2.58404e-05
1.41556e-05
-0.0359238
-8.51654e-05
-0.00778198
-0.101813
0.464365
-0.00092807
-0.000138496
0.00810941
0.171495
-0.11862
-0.00128934
-0.15079
0.540242
-1.81318e-05
0.677479
-3.66952e-05
0.00512751
0.0481474
0.000445612
0.707852
-0.00025445
-3.69733e-05
0.00146564
-2.6806e-05
-0.00148282
0.000202686
-8.79933e-05
-0.00379813
-0.000192475
-0.000380446
-0.00663926
0.438112
0.110065
0.0433133
-0.0960841
-3.01229e-05
-0.000121767
0.00503091
-0.141846
-7.19408e-05
-0.10382
-0.000164211
0.207819
0.125762
-0.0818894
-0.00284413
-0.0288289
-0.00165519
-0.0285424
0.00332324
-0.0186782
0.132863
-1.05392e-05
0.528927
0.113288
-0.00212289
0.4029
-0.0307558
-4.08676e-05
-9.38077e-05
1.44916e-06
-0.000407515
-0.000388858
0.437808
-0.00192322
0.451449
-0.00350067
0.311525
0.425205
0.293588
-0.0159771
-7.4596e-05
-0.000187742
-0.0202401
-0.219236
-0.122208
0.00224192
-0.000146447
-0.08442
-0.00150328
-0.000273679
0.00141408
-0.00203139
-0.00249565
0.067432
1.11259e-05
-0.105634
0.122784
-5.13078e-06
0.000175038
-0.0355528
-0.151579
-0.00138869
-0.000966737
-0.000114267
0.000133283
0.259431
-0.0406777
-0.121707
0.00187068
0.253788
-0.0956652
-9.26135e-05
-7.38125e-05
0.0682601
-0.000494078
0.218452
-0.00226378
-0.0261012
-0.000921041
0.00234819
-0.0903358
-0.000371444
0.000518965
-0.000551813
-0.179173
0.338682
-0.14234
-0.0638359
-0.000748682
-0.000123753
0.0121968
-4.388e-05
-0.178093
-0.168713
0.000640835
0.00481544
0.00648864
-0.212209
0.00074406
3.97241e-05
-0.00011279
-0.100163
-4.90974e-05
0.000641232
0.240687
0.338311
-0.219649
0.100201
0.10021
0.0601242
-0.000862496
0.0205006
4.86383e-05
-3.6539e-06
-0.000539148
-1.38275e-05
-0.000380589
-0.000742502
-0.0172117
-0.111961
-0.0224476
-0.0736873
0.110714
0.0907665
0.00671055
-0.163963
-2.05336e-05
0.00700658
0.0200083
-0.000857735
0.160092
-0.00422416
-0.0263756
0.0218109
0.00979714
-0.000174551
-0.00897684
0.0921425
0.00100025
-0.0455726
-0.0389626
0.823482
-0.0611146
0.171101
0.0805537
-0.0951819
0.0034034
-0.000112785
-0.00480779
-0.000139612
-0.00481213
-0.061238
-0.000208521
-0.000596811
0.54875
-0.00586149
-0.100338
-0.0370998
-6.29979e-05
-0.00516759
-0.000111298
-5.09014e-05
0.082584
-4.57722e-05
-0.00528103
0.163665
0.0101708
0.00159755
0.034969
-0.0129562
0.00731401
-0.191566
0.00102566
-0.00977778
-0.139281
-0.0022617
-0.0184012
0.000668339
-0.00154617
0.00130087
0.0805097
-0.00138712
0.00972565
-0.118217
-0.0487084
-4.9362e-05
-0.115101
-0.0345333
-0.0340806
-0.000224186
0.0118982
-0.180461
-0.00162758
-0.0113823
-0.107438
-0.00396963
-0.00246629
0.422625
-0.056074
-0.000101661
0.0152878
-0.130301
-0.00208246
0.364033
-0.00697149
0.00137293
0.120653
-0.00303588
0.014208
0.249348
-0.00061697
0.00165394
6.21579e-05
-0.000197552
-0.00809275
-0.0189304
-0.000957974
-0.0561332
0.207559
-0.0827443
-0.189934
0.00165639
-0.00670428
-0.00224168
-0.101538
-0.00019677
0.0325444
-0.000268443
-0.0312523
-0.00374368
-0.0089516
0.102775
0.252094
-0.202617
-0.000173966
0.404838
-0.00530104
-0.00819954
-0.140931
-0.212202
-0.0368732
-0.000109073
-0.0037166
0.0130175
-0.0061781
-0.010494
0.000103955
0.180301
-0.111818
-0.0255094
-0.012317
0.0524607
-0.0109365
-0.00716497
0.00258378
-0.00102733
-0.00609987
0.244576
0.000798981
-0.209152
-0.000579232
-0.0136675
-0.0105801
-0.225385
-0.0271781
-0.255884
-0.000193286
-0.000202106
-0.0148496
0.0188783
0.00185683
-0.27295
0.19203
-0.122152
5.68518e-05
-0.282721
-0.000621362
-0.283328
-0.0599202
-0.252864
-0.230103
-0.194705
-0.0979218
0.0702968
0.131122
0.186361
0.24139
0.29448
0.439393
0.483765
0.525293
0.592525
-0.0151328
-0.0180357
0.151278
-0.0484789
0.00102653
0.0325211
-0.0985779
0.000101978
-0.0026317
-1.58143e-05
-0.0342698
0.0343259
-3.48842e-05
-0.00155897
-0.0198426
-0.0196452
-0.274179
-0.0372062
-0.141061
-0.000382817
0.00039158
-0.00012145
-0.134993
-0.0212642
-0.0910913
-0.0305807
0.00255178
-0.000280665
0.0081711
-8.5826e-05
-0.0270895
-0.000380577
0.000327026
-0.0194331
-0.0217987
-0.00187204
0.000264365
0.0991962
-0.0249391
0.147229
-0.281643
-0.0244771
0.393528
-0.0431808
0.00573994
-0.0516434
-0.00741067
-0.0238978
-0.032163
0.579982
-0.0045354
-9.86171e-05
-0.0135041
-0.0220566
-1.00318e-05
0.165006
-0.0105674
0.552617
0.00784033
-0.0986735
-0.0631428
0.105164
-0.0136618
-0.000150633
-2.19295e-05
-0.00952529
-0.15212
-0.000106167
0.641391
-0.00598478
-0.0117876
-0.00103049
-0.000807371
-0.017193
0.344796
-0.0458728
0.240912
0.000747878
-0.0325446
-1.71304e-05
0.0539435
-0.0212126
0.0380853
-0.0415569
-0.012096
-0.00426518
0.00130731
0.0211642
-3.61519e-05
-0.0257054
-0.000209285
-0.00089556
0.000514634
-0.0552382
-0.000495043
0.2836
-0.0239523
0.00567091
-0.125713
0.107153
-0.140438
-0.0306776
0.0888206
-0.0375933
0.335623
-0.0054068
-0.00757089
-0.123031
-0.00317207
-0.000138792
0.000433471
-3.77675e-06
-0.00737437