/*--------------------------------*- C++ -*----------------------------------*\
  =========                 |
  \\      /  F ield         | OpenFOAM: The Open Source CFD Toolbox
   \\    /   O peration     | Website:  https://openfoam.org
    \\  /    A nd           | Version:  7
     \\/     M anipulation  |
\*---------------------------------------------------------------------------*/
FoamFile
{
    version     2.0;
    format      ascii;
    class       volVectorField;
    location    "34.5";
    object      U;
}
// * * * * * * * * * * * * * * * * * * * * * * * * * * * * * * * * * * * * * //

dimensions      [0 1 -1 0 0 0 0];

internalField   nonuniform List<vector> 
20933
(
(0.997724 -0.000225313 1.55902e-23)
(0.990643 -0.00072452 -4.35638e-23)
(1.03005 -0.00405907 -4.40034e-24)
(1.00028 -5.45736e-05 -2.11413e-24)
(1.00064 -0.0101048 6.30621e-23)
(1.00024 -0.0107373 -6.19104e-23)
(1.05559 -0.193697 -8.4704e-22)
(1.11116 0.0771376 -1.25599e-20)
(1.00858 -0.0959613 -2.02636e-21)
(1.11713 0.078232 9.01862e-21)
(1.06766 -0.172511 -2.5222e-21)
(1.2196 0.135208 -3.43967e-22)
(0.983704 -0.0615228 -2.94285e-22)
(0.997553 -0.000269468 -1.38499e-23)
(0.995327 -0.00351779 2.54405e-23)
(1.00027 -6.6692e-05 -1.87128e-24)
(1.30014 -0.00774981 -9.57577e-22)
(1.1269 0.00214598 -6.46213e-21)
(1.00909 -0.146602 -1.39219e-21)
(0.99277 -0.000345517 3.89414e-23)
(1.02373 -0.110229 2.73284e-21)
(1.21525 0.134591 -6.56449e-22)
(1.11964 0.0848881 -6.77372e-21)
(1.17035 -0.208515 -1.73483e-21)
(1.02793 -0.00188098 3.71411e-24)
(0.990637 0.0917993 -2.1259e-20)
(1.01024 -0.00301597 2.21629e-23)
(0.993758 -0.0664638 9.91611e-22)
(1.22535 -0.186142 -1.65324e-21)
(1.0124 -0.148027 4.93248e-21)
(0.998558 -0.00234436 -5.4387e-25)
(0.945826 0.0147159 3.29725e-20)
(1.15423 0.129412 5.29787e-21)
(0.990819 -0.0379682 1.03535e-22)
(1.00002 -0.00177804 6.33371e-24)
(0.998615 -0.00254008 -1.35964e-24)
(1.10288 0.0973908 -1.37616e-20)
(0.99994 -3.90302e-06 -3.50787e-24)
(1.01691 -0.0221802 8.97165e-23)
(1.13847 0.00443524 -2.14741e-21)
(1.04711 -0.00929758 3.35558e-23)
(1.11834 0.157336 9.6488e-21)
(1.03581 0.0479804 -6.00121e-21)
(1.00911 -0.0034976 -1.84421e-23)
(0.990433 0.0881383 8.42526e-21)
(0.979425 -0.00150475 -3.90546e-23)
(1.10624 0.0117679 -1.91553e-20)
(1.27184 0.0736212 -8.82058e-22)
(0.999622 -0.000100593 -3.03321e-24)
(0.969168 -0.0536918 1.21292e-22)
(0.999909 -0.00189067 -1.55379e-23)
(1.08669 -0.00980867 1.04476e-21)
(1.22304 -0.114263 4.75359e-21)
(1.00031 -0.00427544 -2.31066e-23)
(1.26448 -0.111119 -1.18971e-21)
(0.945411 -0.0192705 -5.50398e-23)
(0.975298 -0.0352302 3.69743e-23)
(0.998394 -0.00306837 1.31077e-25)
(1.01187 -0.0551901 -1.25462e-21)
(1.29576 -0.0035648 7.99127e-22)
(0.973435 0.0308664 1.78304e-20)
(0.969568 -0.00434905 5.12008e-23)
(0.988685 -0.0033382 -1.69558e-23)
(1.13159 0.0775816 -5.73785e-22)
(0.999474 -7.8057e-05 1.96312e-23)
(0.99486 -0.00892645 3.32788e-24)
(0.99403 0.0633965 5.41842e-22)
(0.994252 -0.00931251 3.23397e-23)
(1.14251 -0.0816731 -8.17249e-22)
(0.99696 0.0934869 7.94017e-21)
(1.04744 -0.0484042 -3.95533e-22)
(1.30854 -0.0399318 -1.8358e-21)
(0.995755 -0.00353991 -8.52193e-24)
(0.981459 -0.0445393 8.4403e-22)
(0.999763 0.00856703 -7.94962e-21)
(1.09087 -0.0960029 1.18297e-21)
(0.997414 0.0873504 3.67469e-21)
(0.96081 -0.00503828 3.86648e-23)
(1.13613 0.00296357 1.37652e-21)
(1.00294 0.0331203 1.15884e-20)
(0.995854 -0.00932481 1.0825e-22)
(1.0024 -0.00508891 -2.51071e-23)
(1.2054 -0.191672 1.325e-21)
(1.00956 -0.0927647 1.68855e-21)
(0.97292 -0.00343438 -5.5179e-23)
(1.03328 0.0452346 2.89162e-20)
(0.986954 -0.0572366 -5.30512e-22)
(0.896663 0.0530151 3.11609e-21)
(1.12748 0.0725768 -5.43449e-21)
(0.975322 0.0925074 1.35379e-20)
(1.12107 0.0298439 -7.28752e-21)
(1.00035 -8.2632e-05 2.00209e-24)
(1.00003 -0.000348576 7.24264e-24)
(0.955483 0.00463155 -9.20539e-21)
(1.27745 0.067929 4.44882e-22)
(0.989033 -0.00353304 1.22222e-24)
(0.964142 0.00298343 1.41136e-20)
(0.999287 -0.0050824 1.68454e-23)
(1.07212 -0.166046 -1.10794e-21)
(1.07671 0.0166757 -7.5898e-21)
(0.971826 0.0949505 -4.00988e-20)
(0.973549 -0.0110936 1.71633e-23)
(0.962598 0.0865158 -4.38618e-20)
(1.20626 -0.105173 4.9629e-21)
(1.11487 -0.0032617 -3.38146e-21)
(1.12063 -0.0905558 1.08093e-21)
(1.02329 0.104907 1.48909e-20)
(1.18959 -0.0873876 1.29895e-21)
(0.990466 -0.000415322 1.86789e-22)
(1.04124 0.119731 3.34492e-21)
(1.23397 -0.188383 -5.57656e-21)
(1.04939 -0.1937 -1.90199e-21)
(0.974513 -0.0272905 2.68314e-22)
(1.03883 -0.0250251 8.1158e-23)
(1.09241 -0.0883505 4.19719e-22)
(1.00007 -0.000124017 -2.05553e-24)
(1.05233 0.077705 1.41237e-20)
(0.996495 -0.00872783 -4.25053e-23)
(1.19967 -0.11933 1.08967e-21)
(1.00252 0.0243638 -2.7311e-20)
(1.00034 -6.17844e-05 3.82706e-25)
(1.03826 -0.114076 1.80083e-21)
(1.15644 0.0245084 -2.89057e-21)
(1.01313 -0.0633187 -1.74023e-21)
(0.990686 -0.0359666 -7.95383e-23)
(1.12804 0.00440422 3.31063e-21)
(1.18606 0.142362 -1.18089e-20)
(0.993408 -0.0639091 7.97392e-22)
(0.939264 0.0175165 -9.62209e-21)
(1.04775 0.0800323 7.57684e-21)
(0.989144 -0.0740916 -8.04896e-22)
(0.968746 -0.0515347 -4.09383e-22)
(1.04723 -0.0048195 7.99744e-23)
(1.0159 -0.0204206 -5.31634e-23)
(1.0181 0.0983365 -2.02766e-20)
(1.11108 -0.00609067 -8.2052e-22)
(1.24884 0.0887703 -1.83698e-21)
(1.0276 -0.110692 -1.14704e-21)
(0.978743 -0.011408 1.86621e-22)
(0.992544 -0.098927 3.6568e-21)
(1.03387 -0.118022 3.00514e-22)
(0.979622 -0.0460877 -8.34814e-22)
(1.30989 -0.0520241 -1.77479e-21)
(0.958732 0.09463 -1.38679e-20)
(1.22705 0.00173099 6.48402e-22)
(1.01696 0.101245 1.83439e-20)
(1.15945 0.158386 -1.35273e-21)
(0.966666 -0.0116261 -1.03051e-22)
(1.19375 0.133074 -8.25969e-21)
(1.01158 -0.00403211 -4.6037e-23)
(0.966818 -0.0105413 1.95817e-22)
(0.998711 0.0917588 9.23842e-22)
(1.00005 -0.000303557 -4.64731e-24)
(1.00732 -0.0857381 6.36651e-22)
(1.00234 -0.00457432 4.39246e-23)
(1.15563 0.161673 7.29353e-21)
(1.02893 0.0471518 -3.07881e-21)
(1.16462 -0.205242 8.08718e-21)
(0.939974 -0.0227554 1.49193e-22)
(0.982703 -0.0630921 6.15307e-22)
(1.27168 -0.119975 1.70831e-21)
(1.06016 -0.186498 1.30785e-21)
(0.998349 -0.00282355 -2.05028e-24)
(1.22382 0.0072017 -1.21654e-21)
(1.13006 -0.00269026 -5.74479e-22)
(0.898781 0.0553767 7.42891e-21)
(0.974706 -0.0113102 9.99048e-23)
(1.1983 -0.200768 5.08263e-22)
(1.08577 -0.0985908 -1.35971e-21)
(1.10382 0.0932682 -8.12522e-21)
(1.2536 0.0885919 6.1855e-22)
(0.986091 0.0699935 8.31091e-21)
(1.06376 0.140391 2.25519e-20)
(0.987594 -0.0329399 1.60965e-23)
(0.921026 0.0142261 -1.10475e-20)
(1.15911 0.130716 6.29904e-21)
(0.996861 -0.000609003 -1.68753e-23)
(0.991526 0.00640305 -2.09441e-20)
(1.09939 -0.0859142 -7.63822e-23)
(1.03377 0.124232 6.45334e-21)
(1.01197 0.107301 -9.3005e-21)
(0.999907 -2.71983e-06 4.29401e-24)
(0.957853 0.0652038 5.87786e-22)
(1.06163 0.122207 1.92895e-20)
(0.992191 -0.000581959 -1.58607e-24)
(0.941391 -0.0156797 6.73173e-22)
(1.04679 -0.0451477 3.04642e-22)
(1.08342 0.0128865 -1.95113e-21)
(1.20011 -0.112029 -1.76734e-21)
(0.928079 0.0476433 9.81628e-21)
(1.18405 0.138136 -4.09107e-21)
(1.27049 -0.0290224 -3.79558e-22)
(1.07185 0.012531 1.52159e-20)
(1.14044 -0.0745649 -6.76951e-23)
(0.940157 -0.0239859 4.03117e-22)
(1.22046 0.103463 -4.69311e-21)
(0.958585 0.0688696 -6.5116e-22)
(1.27295 0.0329624 -4.74248e-22)
(0.994037 -0.000223897 -8.08136e-24)
(0.924341 0.0469148 -9.59787e-21)
(1.24312 0.0614873 -4.42013e-21)
(1.27597 -0.0819877 1.48818e-21)
(1.22052 -0.106885 -4.23537e-21)
(0.93417 0.0554129 -1.18425e-20)
(0.950581 0.0593722 2.76874e-20)
(0.959582 -0.0277257 -2.04352e-22)
(1.0004 -0.0467202 -9.57155e-23)
(1.08658 -0.00580364 -1.39804e-22)
(0.944986 -0.0210168 -3.75232e-22)
(0.998893 -0.000104281 3.32775e-23)
(0.995547 0.0651283 -3.95259e-21)
(0.988641 0.0221974 -7.54556e-21)
(0.96488 -0.0150857 2.54581e-22)
(0.948944 -0.0388772 3.14659e-22)
(1.03588 0.12075 9.91376e-21)
(0.999202 0.0156334 1.20408e-20)
(0.998922 -5.25106e-05 -9.43893e-23)
(1.00141 0.0184554 -1.85272e-20)
(1.19391 -0.0810143 5.84785e-22)
(1.01709 -0.0179549 1.6741e-22)
(1.00615 -0.0685634 1.05993e-22)
(1.03278 0.0737816 -1.54381e-21)
(0.948693 0.104658 1.29692e-20)
(1.11773 0.026842 9.63507e-21)
(1.04268 0.114829 -1.61842e-20)
(0.977514 -0.0113169 -3.19766e-22)
(1.00289 -0.0460789 -4.65189e-22)
(1.0001 -0.000130514 1.03473e-25)
(0.999262 -3.63205e-05 2.32067e-23)
(1.00049 -0.00842664 1.22084e-22)
(1.15433 0.0213535 1.34742e-21)
(1.16165 -0.127392 -1.0433e-21)
(1.02548 0.101982 -1.89724e-20)
(1.00338 -0.115963 9.57609e-22)
(1.0229 0.0384461 1.11704e-20)
(0.988613 -0.0551256 -9.28164e-23)
(1.11317 -0.0871083 -8.09951e-22)
(0.988631 0.0687165 1.48467e-20)
(0.958015 0.0036632 4.76671e-20)
(1.03396 0.0699799 2.64481e-20)
(1.00008 0.0848113 -2.26454e-20)
(0.947154 -0.0379564 -2.74321e-22)
(1.11206 0.141178 -5.88282e-21)
(1.0142 -0.0612552 1.90436e-21)
(1.11877 -0.00512526 7.1176e-21)
(0.99632 -0.00783806 -7.08163e-23)
(1.30192 -0.0932369 -4.9493e-21)
(1.19675 -0.0507594 4.54284e-22)
(1.09599 -0.0286291 1.55585e-21)
(0.999659 -7.68049e-05 3.65612e-24)
(0.98878 -0.00057729 -1.99439e-22)
(0.944405 0.106663 -1.99427e-20)
(1.18247 0.053433 1.92867e-20)
(1.01624 -0.0238848 -1.91292e-22)
(0.96542 -0.058403 -8.3659e-22)
(1.15476 -0.122953 3.71215e-22)
(1.10056 -0.201097 3.47795e-21)
(1.11339 0.156405 -1.22846e-21)
(0.993863 -0.0976831 -1.04497e-21)
(0.975471 -0.00183413 3.51217e-23)
(0.996824 -0.0757956 1.18029e-21)
(0.991681 -0.0317597 -1.05124e-22)
(0.999442 -5.79918e-05 -1.18781e-24)
(0.987458 -0.0525163 4.8252e-22)
(1.06491 -0.186006 -6.04591e-22)
(0.958057 0.0906795 2.61625e-20)
(1.28813 0.0389635 -6.09321e-23)
(0.97649 -0.0260219 -4.75766e-22)
(1.02034 0.0402664 -1.72459e-20)
(0.952066 0.0640804 -3.29506e-21)
(0.987758 -0.0595826 9.87884e-23)
(1.00068 -0.000296286 -1.28602e-23)
(1.00651 -0.0892601 -1.14444e-21)
(0.994515 0.0598316 4.57167e-21)
(1.28601 -0.137376 -2.92179e-21)
(0.975833 0.0285335 -2.68825e-20)
(1.00003 -0.000138942 9.65545e-25)
(0.950866 -0.0430718 5.98208e-22)
(1.05083 0.140395 1.80988e-21)
(0.999424 0.0147357 2.44629e-20)
(1.03747 -0.0844893 -3.37177e-22)
(0.976937 -0.0335943 3.42393e-22)
(0.93064 0.0949879 2.13047e-20)
(1.26697 -0.0660963 3.43122e-22)
(1.26388 -0.0339653 4.16156e-22)
(0.966723 0.0879692 1.80837e-20)
(0.929373 0.0543847 -2.00583e-21)
(0.986225 -0.0616787 -3.19074e-22)
(1.04905 0.143368 -1.18122e-20)
(1.16338 -0.005627 -3.22752e-21)
(1.00442 0.0347679 -3.1654e-20)
(1.06826 0.0854334 8.5537e-21)
(1.0007 -0.000217074 1.63257e-23)
(1.29439 0.0417972 2.39858e-22)
(1.0967 0.0898081 4.9328e-21)
(0.996818 -0.000520175 -4.60111e-23)
(1.00204 -0.122614 -3.99136e-22)
(1.25864 0.0365068 -5.7464e-22)
(1.18247 -0.194536 -1.45419e-21)
(1.2414 0.0551081 2.58528e-21)
(1.20001 -0.0285581 -5.79966e-22)
(1.0001 -0.000205864 -1.70319e-24)
(0.999433 -0.00355978 4.3833e-23)
(0.976404 0.105409 -3.20003e-20)
(1.0012 -0.0153313 -2.4718e-23)
(1.01743 -0.146591 -1.19629e-21)
(0.990297 -0.0801696 1.14322e-22)
(1.21236 0.129383 -4.18547e-21)
(0.971948 -0.00419964 -9.56875e-24)
(1.03511 0.127441 1.14056e-20)
(1.21472 0.0221457 3.3912e-21)
(0.993973 -0.0764834 6.82142e-22)
(0.957879 -0.00615959 -9.57097e-23)
(1.10894 0.0892659 8.8703e-22)
(1.2094 0.100747 3.49629e-21)
(1.00006 -0.000210221 -1.53301e-24)
(0.974114 0.0648633 2.66799e-20)
(1.04693 0.0840804 3.80127e-21)
(0.993373 0.0138411 -6.51081e-21)
(1.26643 -0.100164 -1.64929e-21)
(0.999523 -5.51537e-05 -1.56343e-23)
(0.9322 0.0911907 -1.40021e-21)
(0.996594 -0.00533399 -4.67006e-23)
(0.992482 -0.0582711 2.11335e-22)
(1.21626 0.0987901 -1.48155e-21)
(1.26531 0.0301911 6.38503e-23)
(0.978647 -0.0619948 -7.10284e-22)
(1.26739 -0.0770193 2.15172e-21)
(1.02631 0.0448995 4.46121e-21)
(0.957095 0.00449413 1.73273e-20)
(1.00942 0.0971091 -2.41069e-20)
(1.18652 0.0275739 -5.39303e-21)
(0.910925 0.0192455 2.38413e-21)
(1.00029 -1.07363e-05 -1.338e-24)
(0.989241 -0.0311941 -1.08914e-22)
(0.999887 0.00816874 3.23229e-20)
(1.23046 -0.155464 5.92989e-22)
(1.09592 0.0856617 -1.165e-20)
(0.983902 -0.0451167 -3.48527e-22)
(0.993345 0.0860339 2.26016e-20)
(1.19993 0.00212776 2.24805e-21)
(1.00005 -0.00390049 2.97617e-23)
(1.19511 -0.00316489 -1.94732e-21)
(1.05253 0.0722628 -1.82001e-20)
(1.19091 -0.170658 -2.43595e-23)
(0.974544 0.00672853 -4.87561e-21)
(1.06824 0.127694 2.68562e-21)
(0.999313 -0.00030327 2.58504e-25)
(1.04103 -0.0226099 -4.92752e-23)
(1.14393 0.109164 5.70942e-21)
(1.12498 0.00126906 1.24759e-20)
(0.998393 -8.2685e-05 1.00375e-22)
(1.06466 0.136526 -2.01171e-20)
(1.01452 -0.0542796 -1.57927e-22)
(0.88837 0.053548 -1.23947e-21)
(1.02918 -0.116498 -2.2515e-21)
(0.964767 -0.0135596 8.90617e-23)
(0.989408 -0.000679994 1.18771e-22)
(1.01058 0.100676 2.68619e-20)
(1.06154 0.119096 -3.0574e-20)
(0.976345 -0.00261625 6.31517e-24)
(1.10692 0.0823953 3.09544e-21)
(0.975102 0.0880033 -7.80849e-21)
(1.00128 -0.0164605 -4.05553e-23)
(1.04918 0.00685179 4.47244e-21)
(1.02463 0.0192133 -1.25669e-20)
(0.89832 0.0295039 1.57587e-20)
(0.997064 -0.00444489 1.31954e-23)
(1.18967 0.108518 -8.84222e-21)
(1.19152 -0.0568594 2.14906e-23)
(0.944237 -0.018763 -1.31171e-22)
(0.99968 -5.51945e-05 -3.17466e-24)
(0.999809 0.0045095 1.95134e-20)
(1.12033 0.161086 5.64051e-21)
(1.26983 0.00621603 6.48605e-22)
(0.985762 0.105699 -8.18422e-21)
(1.18105 0.0309551 2.60539e-21)
(0.973288 -0.0347173 2.48573e-22)
(1.11547 0.136384 -4.38671e-21)
(1.12885 -0.00151313 -1.93774e-21)
(1.17604 0.0495265 5.66674e-21)
(0.901765 0.031832 -4.12558e-20)
(1.03091 -0.101538 8.09998e-22)
(1.22544 0.0900344 1.82983e-21)
(0.991731 0.0189293 -1.70632e-20)
(0.963802 -0.0594104 7.52105e-22)
(1.15778 -0.017637 2.80323e-22)
(1.08038 -0.165572 2.59476e-21)
(1.14669 0.104243 -2.54216e-21)
(0.995119 -0.000171421 2.11499e-22)
(1.11073 0.0129718 -2.10754e-21)
(1.27003 0.0144022 -1.24106e-22)
(1.22822 0.084402 4.23197e-21)
(1.00126 -0.00501666 9.70669e-23)
(1.10364 0.00871195 2.03173e-20)
(0.997797 0.0100531 -1.63265e-20)
(1.05467 0.0509595 3.25526e-20)
(1.18191 -0.189381 -5.93109e-21)
(0.993111 -0.0299282 2.34183e-22)
(0.938226 0.0509769 -1.37742e-20)
(0.945866 0.0170553 -3.53808e-20)
(0.996904 -0.00733573 -1.45474e-23)
(0.952887 -0.0420779 2.63197e-22)
(1.0174 0.0739778 3.54043e-21)
(1.02338 -0.153561 -9.86329e-22)
(1.1063 -0.0910955 7.80988e-22)
(1.11161 0.151168 1.83398e-20)
(0.991088 -0.000447192 -1.47805e-22)
(0.895179 0.0266439 2.69039e-20)
(1.03901 -0.0752549 -9.50177e-23)
(1.17895 0.116646 3.04253e-21)
(0.989438 -0.0104827 1.38903e-23)
(0.996404 0.0102529 -6.96459e-21)
(1.07213 0.124523 -5.58489e-21)
(1.096 -0.0224504 -1.76485e-21)
(1.12225 -0.0975839 -5.25209e-22)
(1.27095 -0.0217679 8.78834e-22)
(1.24037 0.0664493 4.31384e-22)
(0.999453 -0.00553071 1.01466e-24)
(1.01418 0.0611919 -6.51947e-21)
(1.31402 -0.0327153 3.92518e-21)
(1.12143 0.0723386 1.33447e-20)
(0.889808 0.056575 4.13145e-20)
(1.27623 -0.0938398 1.23155e-21)
(1.08071 -0.0849153 -1.4249e-21)
(1.00011 -0.00916154 -1.2283e-22)
(1.27178 0.0809803 2.21244e-21)
(1.27973 0.0271523 5.7462e-23)
(0.972871 -0.0265318 7.86234e-22)
(1.09353 0.139421 -1.82882e-21)
(1.00001 -0.00143815 -2.45134e-23)
(0.970693 -0.0474022 -1.43045e-22)
(1.01606 -0.0163171 -2.31072e-22)
(1.2582 -0.0616602 8.48772e-23)
(0.988859 -0.0503441 3.99689e-22)
(0.999615 -0.00013219 9.00577e-25)
(0.987767 -0.0657678 1.26883e-21)
(1.22694 0.102451 -2.37118e-21)
(1.1929 -0.180291 -2.20303e-21)
(1.05547 -0.0788935 -1.48676e-22)
(0.957846 -0.0284299 -4.35853e-22)
(1.25087 0.0345292 -2.1643e-21)
(1.1929 -0.0256619 1.6004e-21)
(0.97237 -0.0616733 -3.79126e-22)
(0.950834 -0.00889214 2.81559e-22)
(1.0009 -0.00524019 -1.56938e-23)
(1.14936 -0.0849583 9.21851e-22)
(1.03757 -0.164701 -1.62358e-22)
(1.01309 -0.00338011 3.32332e-23)
(1.04109 -0.0804553 1.14606e-21)
(1.20457 0.0965253 -5.57939e-21)
(1.05623 0.0471802 -1.98304e-20)
(1.22775 0.0166637 7.24882e-22)
(0.99929 -0.000252509 8.64178e-24)
(0.923574 0.100367 -3.11806e-20)
(1.01326 -0.00172485 1.03293e-22)
(0.999928 -0.00155693 2.93333e-23)
(1.04432 -0.0111658 1.90655e-22)
(0.957317 -0.0425028 -4.33132e-22)
(1.01379 -0.105943 1.25044e-22)
(0.953985 0.055246 -1.63179e-20)
(1.0277 -0.061921 9.95016e-23)
(1.15824 -0.00501981 -1.57498e-21)
(1.03023 -0.142533 2.31394e-21)
(1.0268 -0.145256 -2.9795e-21)
(1.11481 0.146841 -1.27568e-20)
(0.994832 -0.0589304 -3.58688e-22)
(0.992989 -0.0931238 5.64263e-22)
(1.00411 -0.120457 9.40063e-22)
(0.999731 -3.93249e-05 7.00537e-24)
(1.20373 -0.096352 -2.68226e-21)
(0.913651 0.0950655 -2.95693e-21)
(1.10274 -0.19375 8.97315e-22)
(0.95473 -0.0542486 -9.19123e-23)
(1.09282 0.133607 -2.38072e-22)
(0.979828 -0.0583217 -7.51585e-23)
(1.06806 0.0804132 -7.11368e-21)
(1.19624 0.136514 -8.37308e-22)
(0.996083 -0.00570658 7.86804e-23)
(0.998755 -0.000151798 -2.72602e-23)
(1.04253 0.0764883 2.24369e-21)
(0.892685 0.0704593 1.34656e-20)
(1.08334 -0.19423 2.27745e-22)
(1.16535 0.150392 1.6052e-21)
(1.23755 0.106456 -6.11289e-21)
(0.961614 -0.047932 -1.99332e-22)
(0.961578 -0.0504657 -4.78932e-22)
(1.01894 0.0772386 -9.68526e-22)
(1.11154 -0.0112904 1.26808e-21)
(1.20412 -0.182522 4.5966e-21)
(1.08422 -0.157567 -2.1362e-21)
(0.980531 -0.00152736 3.34575e-23)
(1.06922 -0.0162645 6.25694e-22)
(0.942348 0.0266311 -6.13541e-21)
(1.15597 0.0115043 -1.06112e-20)
(1.00028 -9.79697e-05 1.96454e-24)
(0.961313 0.0830033 2.82694e-20)
(1.04214 -0.0714909 -1.12963e-21)
(1.01549 -0.107818 1.66665e-21)
(1.05466 0.138892 -1.06159e-20)
(1.01915 -0.0264901 -2.38231e-22)
(0.988609 -0.00997008 -5.28807e-23)
(0.999317 -0.000455822 2.64721e-24)
(1.18215 -0.0714251 -3.52043e-22)
(0.960538 -0.0213484 -2.89405e-22)
(1.00028 -1.79484e-05 2.28445e-24)
(1.16842 0.152638 -3.946e-21)
(1.28803 -0.128067 -1.99713e-21)
(1.01205 0.0597446 -1.12765e-20)
(0.99938 -8.36292e-05 -5.2103e-24)
(1.00015 -0.00467816 -1.37142e-23)
(0.978554 -0.0599167 -3.74222e-22)
(0.999996 -0.000122573 2.07936e-25)
(1.08514 -0.200232 -1.15662e-21)
(1.22344 -0.174882 -2.15406e-21)
(0.99953 -0.00467538 8.8305e-24)
(1.01104 -0.0843914 -4.98064e-22)
(0.942734 -0.0154826 1.82461e-22)
(1.0539 0.125826 -1.1961e-21)
(0.983676 0.104286 6.64221e-21)
(0.996567 -0.004841 1.49503e-23)
(1.00339 -0.00122336 1.9288e-23)
(0.999609 -0.114155 -2.3856e-21)
(0.979618 0.0945181 2.13064e-20)
(1.00513 -0.0379269 4.54038e-22)
(0.975913 0.0608563 -7.32401e-22)
(0.979515 -0.0126385 -2.41222e-23)
(0.889643 0.0434451 -1.12122e-20)
(1.04276 0.0153704 -2.44242e-21)
(1.14888 0.068375 -1.30969e-20)
(0.906743 0.0557747 -1.22556e-20)
(1.31054 -0.0208059 1.12857e-22)
(0.990032 -0.00284011 3.19955e-24)
(1.18316 -0.0565414 1.6935e-23)
(1.01009 -0.039216 -4.878e-23)
(0.986838 0.0942503 5.37462e-21)
(1.01783 0.0670146 1.53062e-20)
(0.970149 -0.00803978 8.21626e-23)
(1.29453 -0.0894088 5.26358e-21)
(1.14167 -0.0246987 -2.0925e-22)
(1.07778 -0.0900852 -9.54335e-22)
(0.996229 -0.000265157 4.11558e-23)
(1.30239 -0.104045 4.8907e-21)
(1.00026 -4.52417e-05 3.21009e-24)
(1.05081 0.12193 6.64263e-21)
(0.942066 -0.0145131 -5.94375e-22)
(0.991658 -0.0738761 -2.29429e-22)
(0.995329 -0.0346776 2.49663e-22)
(1.00868 -0.0673478 1.81263e-21)
(1.17564 0.111481 9.27773e-22)
(1.22392 0.02244 -2.65559e-21)
(0.998641 -4.73639e-05 -9.71267e-23)
(1.03096 -0.0593658 -7.97234e-22)
(0.999879 -0.000162557 2.80183e-25)
(0.892164 0.0402539 8.36337e-21)
(0.947324 0.0240086 1.26028e-20)
(0.995261 -0.000981505 2.22449e-23)
(0.969544 -0.013512 -1.33379e-22)
(1.03996 -0.0432781 -1.8858e-22)
(1.01975 0.0703833 6.58176e-21)
(0.936408 -0.0241939 -4.43808e-22)
(1.23985 0.110492 -1.34436e-21)
(0.957195 -0.0555806 1.33066e-22)
(1.00475 0.0964835 -4.80998e-22)
(1.15284 0.0731753 -1.4761e-21)
(0.959264 -0.0234097 -2.19748e-22)
(0.904246 0.0212868 -1.72511e-20)
(1.06086 -0.00282207 -5.3076e-22)
(1.01389 0.10228 -1.4334e-20)
(0.991515 -0.0153926 8.77484e-24)
(1.04084 -0.175048 4.75341e-21)
(0.979819 0.00403874 -4.08304e-20)
(1.01732 -0.0493189 5.86819e-22)
(0.889879 0.0755479 -6.11337e-21)
(1.02952 0.0820821 8.41095e-22)
(0.906538 0.0238762 -4.11832e-21)
(0.99043 -0.00295752 1.19614e-24)
(0.993128 -0.000500006 -8.37277e-23)
(1.03724 -0.108675 -5.10844e-22)
(1.19466 -0.0425075 -8.29474e-22)
(1.01764 -0.0262842 2.56121e-22)
(1.03546 -0.097944 -1.73296e-22)
(1.00974 0.090333 1.29903e-21)
(1.00336 0.104418 4.46685e-21)
(1.04464 0.00294207 4.09286e-24)
(0.982939 0.0923195 -1.52318e-20)
(0.896985 0.0815405 3.34716e-21)
(1.15124 0.124792 1.04289e-20)
(0.999246 0.00493912 -2.79672e-20)
(1.05068 0.0397363 -6.28519e-21)
(1.00586 -0.0199066 -3.36338e-22)
(1.03904 0.0785737 -7.4067e-22)
(0.991049 -0.0925331 -4.86146e-22)
(0.959223 -0.0542146 3.48898e-22)
(0.998593 -0.00128689 4.52321e-26)
(1.07013 -0.0906197 2.26492e-21)
(1.14583 -0.16877 -6.40336e-22)
(1.09257 0.0467615 5.13686e-21)
(1.09865 -0.0105565 2.24912e-21)
(1.00217 0.0282527 2.28023e-21)
(1.0112 -0.0576407 1.15548e-21)
(1.14422 -0.0144782 1.38908e-21)
(1.00319 0.0218581 -2.65227e-21)
(1.01153 -0.0411067 6.93871e-22)
(1.11847 -0.102762 1.2194e-21)
(0.99991 -0.000190543 4.68017e-26)
(1.00048 -0.00024663 2.70922e-24)
(1.09125 0.0421608 -3.76302e-23)
(0.992917 -0.0796062 -6.64324e-22)
(0.966279 -0.0505162 5.61941e-22)
(1.00053 -0.000235339 -4.07346e-24)
(1.00001 -0.00322794 1.85617e-23)
(1.14099 -0.0294115 -3.49686e-22)
(0.999533 -5.67616e-05 9.15609e-24)
(1.27605 0.0592818 -1.61799e-22)
(0.895706 0.0321867 2.17066e-20)
(1.15962 0.153272 6.13412e-22)
(1.13005 0.0833631 -4.32659e-22)
(0.966725 -0.00777805 -1.11761e-22)
(1.03132 0.10905 5.19367e-21)
(1.26503 0.0860717 -1.3493e-21)
(1.0057 -0.0353149 -2.74098e-23)
(0.969821 -0.0152436 -1.38732e-22)
(0.997069 -0.00410054 -2.05961e-26)
(0.999266 -0.000399002 -2.43927e-24)
(1.00195 -0.00535306 -3.72254e-23)
(0.996095 -0.0368862 2.11927e-22)
(1.06014 -0.172266 2.70442e-21)
(1.11269 0.102828 1.57798e-20)
(1.2238 -0.0394748 -1.25833e-22)
(0.966382 -0.00351465 3.49023e-23)
(0.99989 -0.000128077 2.92866e-25)
(1.00041 0.0597804 1.52357e-20)
(1.28836 -0.00443057 1.70962e-21)
(1.30142 -0.0595458 1.24855e-21)
(1.02019 -0.050687 -6.5753e-22)
(1.24443 0.0857631 2.44256e-21)
(1.0681 -0.0942623 -6.22752e-22)
(0.985147 -0.000835992 -2.7895e-23)
(1.00183 0.0166279 1.3312e-20)
(0.981055 0.000735008 -5.27508e-20)
(1.07578 0.152292 -1.37152e-20)
(0.991107 -0.000371797 1.07649e-22)
(1.07261 0.151433 1.06721e-20)
(0.968928 -0.00546425 3.05253e-23)
(0.983167 -0.0543748 -4.79341e-22)
(1.14295 0.145577 -1.18586e-20)
(1.00026 -0.00012022 3.57808e-24)
(0.988021 -0.0349882 -5.3525e-23)
(1.18877 0.113709 3.06301e-21)
(1.14659 0.113964 1.19323e-20)
(0.960413 -0.0255128 -4.54035e-23)
(1.02406 0.0705881 1.00734e-21)
(0.952644 0.107649 -1.34849e-21)
(1.01571 0.0343152 -3.06181e-20)
(0.955093 -0.0436067 6.85754e-22)
(0.951947 -0.00881267 -1.6109e-22)
(1.05948 -0.0744568 -2.77312e-22)
(1.13275 -0.00193531 3.19253e-22)
(1.02304 0.0158776 -7.43715e-21)
(0.995184 -0.00138291 4.68294e-24)
(0.976286 0.00967836 -1.52982e-20)
(0.991631 -0.0555566 1.14731e-21)
(1.04679 -0.17422 -3.2448e-21)
(1.17831 -0.0504094 2.55145e-22)
(0.919804 0.10221 4.43225e-20)
(1.11448 0.108879 -1.30287e-20)
(1.01441 0.0672273 -1.60911e-20)
(1.23264 -0.166096 1.07405e-21)
(0.965624 0.0021905 -2.35242e-20)
(0.962575 -0.0210997 2.876e-22)
(0.984804 -0.0522538 3.48364e-22)
(0.927476 0.0109333 8.24909e-21)
(1.09238 -0.0316056 -4.77283e-22)
(1.0592 -0.15932 -4.61592e-22)
(1.01573 0.0945583 -3.29581e-21)
(1.00312 0.0926126 -1.0158e-20)
(0.972775 -0.0457499 -5.07601e-22)
(1.02857 0.0207991 -1.68126e-20)
(0.979966 0.0986051 -2.82824e-21)
(1.00425 0.0858189 1.32651e-20)
(1.04317 0.128587 4.28375e-21)
(1.01156 0.0944803 2.13517e-20)
(1.06368 0.0881906 -1.11525e-20)
(0.986261 -0.0036088 1.14828e-23)
(0.963595 -0.0230663 3.69963e-22)
(1.00304 -0.0086716 -2.04716e-23)
(1.01979 -0.143605 3.31684e-21)
(0.994071 0.0198529 -3.93984e-21)
(1.02738 -0.15163 1.94333e-21)
(1.20774 0.107624 -2.81383e-22)
(1.17537 0.0634374 -7.34742e-21)
(0.967226 -0.0589493 4.07953e-22)
(1.26925 0.0568016 2.70305e-23)
(1.19658 0.12781 -2.86658e-21)
(0.993579 0.00758667 -1.20599e-21)
(1.26047 0.0453805 8.18494e-22)
(0.999567 -0.00390055 -4.93197e-24)
(1.07321 -0.0157701 5.2883e-23)
(0.982525 -0.0588242 2.32101e-22)
(1.27557 -0.0595809 1.13558e-22)
(1.29287 -0.0557263 -2.64432e-21)
(1.03264 -0.160964 6.2592e-22)
(1.04449 0.123426 2.42713e-21)
(0.969324 0.106112 2.26041e-20)
(1.20707 -0.0229616 9.52553e-22)
(0.9976 0.00610125 1.23843e-20)
(0.892023 0.065768 -1.50286e-20)
(0.998738 -9.28711e-05 2.49855e-23)
(1.00376 -0.00124936 -7.75539e-25)
(0.996104 -0.00632281 -3.48326e-23)
(0.970757 -0.00854045 1.95021e-23)
(1.09267 0.0976444 -8.57419e-21)
(0.92716 0.0124493 -1.79002e-20)
(1.15811 0.0155913 9.15637e-21)
(1.03302 0.116887 3.13014e-21)
(0.978559 -0.0271281 -2.55165e-22)
(1.08365 0.140356 1.80769e-20)
(1.07965 0.148534 5.77956e-21)
(1.28145 -0.119165 7.42099e-22)
(0.955353 -0.0126299 2.1361e-22)
(0.938156 -0.0227273 2.86836e-22)
(1.21216 0.111946 7.06424e-22)
(1.01491 -0.0505671 2.44022e-22)
(1.22172 -0.0339738 8.82359e-23)
(0.963865 -0.0465854 1.07964e-22)
(0.941478 -0.0452015 -9.07373e-22)
(1.02266 0.0979375 2.35269e-20)
(0.991587 -0.00249931 -7.62898e-24)
(1.03234 -0.0680461 -1.92021e-22)
(1.00503 0.102846 1.10599e-20)
(1.26799 0.0479517 2.42463e-21)
(0.929691 0.0862884 5.02661e-21)
(1.02193 -0.101596 -8.90966e-22)
(1.04775 0.0135994 7.9969e-21)
(1.28452 -0.063569 2.88867e-21)
(1.00109 -0.0840809 2.74921e-22)
(0.9798 0.00717526 -5.60879e-21)
(0.990559 0.000459532 3.41627e-20)
(0.990373 0.0287132 -6.12217e-21)
(0.992533 -0.0392306 -4.74463e-22)
(0.939111 0.0157224 1.94128e-20)
(0.957569 -0.0399179 3.41863e-22)
(0.968422 0.0781292 7.21673e-22)
(1.1456 -0.0682162 1.41437e-22)
(0.985361 0.049774 -3.47143e-21)
(0.978977 -0.0559677 2.9354e-22)
(1.00003 -0.000261081 -2.96651e-25)
(0.985804 0.0433445 1.15301e-20)
(0.966627 0.069875 1.34723e-20)
(0.9707 0.0854427 -2.16478e-20)
(0.987541 0.0366206 -1.34152e-20)
(1.08364 0.00670361 -2.76481e-20)
(1.15377 -0.0147554 -6.08021e-23)
(1.07882 0.0852219 -2.14137e-20)
(1.05503 -0.154637 1.19289e-21)
(0.99685 0.0149025 4.03742e-20)
(1.0237 0.0632413 -1.99238e-20)
(1.28226 -0.0102385 -2.03726e-21)
(1.10212 -0.0136923 -2.39448e-21)
(0.986704 -0.00340733 4.72576e-24)
(1.3154 -0.0143088 -4.88164e-22)
(1.02971 0.101319 -3.95835e-21)
(0.94334 -0.034387 1.88549e-23)
(0.969401 -0.00462809 -5.71758e-23)
(0.993009 0.00404324 -8.02191e-21)
(0.979656 0.0532721 -2.47728e-20)
(0.988017 -0.0640291 -5.22362e-22)
(0.988038 0.0586398 1.80852e-20)
(1.03668 -0.170779 1.12105e-21)
(1.24356 0.079347 -4.04086e-21)
(0.994407 -0.000280058 1.18435e-22)
(0.973454 0.0570377 -1.39456e-20)
(0.966271 0.0616195 3.55269e-20)
(0.902052 0.0358243 3.35495e-20)
(0.976113 0.101206 2.94241e-20)
(0.997202 -0.000333501 1.73071e-23)
(0.978722 -0.0295441 1.68203e-22)
(0.998408 -0.00132154 2.38813e-25)
(0.996785 -0.0883875 -2.17115e-21)
(0.93191 0.0661729 -7.16093e-21)
(1.14536 0.0926245 -1.73722e-20)
(1.03935 0.111343 -2.34806e-22)
(0.942174 -0.0431904 5.70558e-22)
(1.05111 0.0433258 1.97198e-20)
(1.04263 -0.0421432 1.71376e-22)
(0.930325 0.0765715 1.03645e-20)
(1.10792 -0.112236 -6.30102e-22)
(0.9962 0.00539528 1.37033e-20)
(0.994562 -0.00027927 6.46112e-23)
(0.941214 0.0626169 -2.39122e-20)
(0.921352 0.0809556 -2.89315e-20)
(0.976602 -0.0309541 -4.50252e-22)
(1.20675 0.0498525 3.21423e-21)
(0.943624 0.0525858 -2.38456e-20)
(0.99657 -0.000517278 -9.36188e-23)
(0.917458 0.0361726 -3.76459e-21)
(1.05671 -0.0837068 2.45628e-22)
(0.996762 -0.000338928 3.73477e-23)
(0.953168 -0.0140548 -1.53137e-22)
(1.01392 0.10618 -1.40279e-20)
(1.17259 0.0824186 -9.74606e-21)
(1.0123 -0.120254 1.48477e-21)
(0.990858 0.102457 1.15884e-21)
(0.915537 0.0911197 1.92585e-21)
(1.07918 0.143404 -1.96221e-20)
(1.06527 -0.0122829 -3.60577e-22)
(0.999348 -0.0781331 4.29219e-22)
(1.17856 -0.0648892 1.37073e-22)
(0.980176 0.0603535 2.0414e-20)
(0.925636 0.0366075 -2.17389e-21)
(0.898001 0.0344833 2.16822e-21)
(1.14371 0.0807634 2.68533e-21)
(1.00041 -0.0116468 2.81753e-23)
(0.97836 -0.00169923 -5.85043e-23)
(1.03251 0.104651 -1.40667e-20)
(1.00207 -0.00901635 2.1851e-23)
(0.983163 -0.00539205 4.29913e-25)
(1.00334 -0.0142764 -1.63456e-23)
(0.99246 -0.0341539 -2.32221e-22)
(1.11257 -0.168065 2.34142e-21)
(1.21873 -0.153983 -1.50073e-21)
(0.955799 0.0835149 -3.15367e-20)
(1.02369 -0.0561691 2.13046e-23)
(0.998803 -0.00106241 -1.60227e-24)
(1.03073 0.0661905 -3.15467e-22)
(1.16844 0.112525 8.23757e-21)
(1.00199 -0.0144418 -3.25329e-23)
(1.21855 0.0910865 -3.78824e-21)
(1.00202 -0.00149487 3.57118e-24)
(1.16277 0.0636316 9.09228e-22)
(1.01592 0.0361861 2.14752e-20)
(0.98572 0.0559711 -3.50723e-20)
(1.18091 -0.166744 1.71602e-21)
(1.18839 0.0499198 -4.71004e-21)
(0.99253 -0.0158011 -3.42431e-23)
(1.14529 -0.109121 2.05863e-22)
(0.994726 -0.00174903 2.56048e-24)
(0.975787 0.0679804 -3.61505e-20)
(0.95421 0.0810712 9.73337e-21)
(1.25317 -0.153967 1.38052e-21)
(1.21333 -0.172862 1.40622e-21)
(1.17122 -0.184857 4.85291e-21)
(1.04077 -0.10009 8.02209e-22)
(0.987111 0.0980304 2.43354e-21)
(1.04364 -0.0909892 5.17478e-22)
(1.13708 -0.154036 7.9961e-22)
(1.09698 -0.186677 -1.083e-21)
(1.13617 -0.0961091 -9.27381e-22)
(0.909696 0.0360529 1.83418e-20)
(1.17582 -0.203799 -8.87492e-21)
(1.26325 0.020156 -8.53355e-23)
(0.985871 0.0165572 7.01933e-21)
(0.99547 -0.000398194 -6.25728e-23)
(1.21225 0.0277785 1.57654e-21)
(1.04617 -0.0815026 -7.96969e-22)
(1.09556 -0.171205 1.86368e-21)
(0.995453 -0.00102296 -6.22234e-24)
(0.999593 -0.00329193 -1.37658e-23)
(0.90798 0.0461842 -3.12585e-20)
(1.05957 0.0457985 1.50252e-20)
(1.24948 -0.164197 5.40936e-21)
(1.30902 0.0143045 -4.17506e-22)
(1.06242 0.0777605 -8.12032e-21)
(0.991728 0.0576046 -2.83099e-21)
(1.02637 0.0670147 6.05228e-21)
(1.25759 -0.0835735 -2.63599e-21)
(0.980009 -0.063154 7.65538e-22)
(0.993112 -0.0531312 -3.05875e-22)
(0.984057 -0.0568274 -8.27984e-23)
(1.03905 0.0683653 -2.0086e-20)
(0.968761 -0.00591196 7.94678e-23)
(1.00509 -0.0795425 6.57136e-22)
(0.999722 -4.1896e-05 -2.36778e-24)
(0.965639 -0.0226771 -6.0349e-22)
(0.997654 -0.000605471 -1.28069e-24)
(1.13828 -0.17314 1.80137e-21)
(1.00811 0.103277 -1.31414e-20)
(1.06697 -0.158114 7.00819e-22)