/*--------------------------------*- C++ -*----------------------------------*\
  =========                 |
  \\      /  F ield         | OpenFOAM: The Open Source CFD Toolbox
   \\    /   O peration     | Website:  https://openfoam.org
    \\  /    A nd           | Version:  7
     \\/     M anipulation  |
\*---------------------------------------------------------------------------*/
FoamFile
{
    version     2.0;
    format      ascii;
    class       volVectorField;
    location    "28";
    object      U;
}
// * * * * * * * * * * * * * * * * * * * * * * * * * * * * * * * * * * * * * //

dimensions      [0 1 -1 0 0 0 0];

internalField   nonuniform List<vector> 
19930
(
(0.997383 -0.000257469 2.36761e-23)
(0.989542 -0.000794395 -1.53421e-22)
(1.03197 -0.00439901 1.63436e-23)
(1.00031 -5.43494e-05 -2.40889e-24)
(1.00071 -0.010599 7.21984e-23)
(1.00029 -0.0112561 -7.07102e-23)
(1.03246 -0.197567 -8.4474e-22)
(1.21521 0.0828075 -1.23041e-20)
(1.00334 -0.0975937 -2.09338e-21)
(1.22351 0.0782234 8.86062e-21)
(1.04722 -0.180297 -2.56695e-21)
(1.3496 0.00672288 -9.4917e-24)
(0.981998 -0.0619483 -2.93516e-22)
(0.997196 -0.000307997 -2.02548e-23)
(0.995115 -0.00377083 1.35578e-23)
(1.0003 -6.67921e-05 -2.234e-24)
(1.31133 -0.123044 -1.99003e-21)
(1.17808 -0.00162582 -6.45272e-21)
(0.997224 -0.145829 -1.38299e-21)
(0.991898 -0.00037932 1.35477e-22)
(1.01637 -0.113451 2.84772e-21)
(1.34975 0.0111575 -3.47669e-23)
(1.23327 0.0841268 -6.35328e-21)
(1.13225 -0.238794 -1.98158e-21)
(1.02969 -0.00203666 3.02436e-24)
(1.00163 0.202373 -2.98063e-20)
(1.01083 -0.00319018 3.87307e-23)
(0.991577 -0.0674072 1.01835e-21)
(1.18549 -0.236323 -1.76874e-21)
(0.999936 -0.14776 4.93614e-21)
(0.9985 -0.00250915 -3.64856e-25)
(0.874431 0.0343695 5.07795e-20)
(1.32243 0.085297 3.27118e-21)
(0.990155 -0.0389392 1.10967e-22)
(1.00004 -0.00189387 7.35106e-24)
(0.998565 -0.00271305 -1.03168e-24)
(1.22494 0.117611 -1.34344e-20)
(0.999923 -3.99537e-06 -4.32718e-24)
(1.01757 -0.0235018 1.16284e-22)
(1.18635 -0.0122458 -1.96983e-21)
(1.05067 -0.0104168 3.35875e-23)
(1.32885 0.170801 6.44471e-21)
(1.07714 0.0866943 -7.85795e-21)
(1.00964 -0.00369107 -3.2253e-23)
(0.999408 0.193561 1.20789e-20)
(0.977333 -0.00161966 -7.29082e-23)
(1.16885 0.0105253 -2.10073e-20)
(1.33316 -0.0570418 1.52654e-21)
(0.999569 -0.000113204 -4.09218e-24)
(0.968182 -0.0537006 1.17522e-22)
(0.999928 -0.00201518 -1.81054e-23)
(1.09741 -0.0124784 7.04347e-22)
(1.20574 -0.172897 6.09642e-21)
(1.00037 -0.00451681 -2.75971e-23)
(1.24255 -0.186442 -1.49012e-21)
(0.943642 -0.0196614 -4.00355e-23)
(0.974674 -0.0357608 3.66254e-23)
(0.99834 -0.00326876 -1.80746e-25)
(1.01057 -0.0574779 -1.37348e-21)
(1.31058 -0.117546 1.56857e-21)
(0.941422 0.0691978 2.65863e-20)
(0.967016 -0.00464828 -1.78701e-23)
(0.98779 -0.00363959 7.79527e-24)
(1.23892 0.0634321 -5.0718e-22)
(0.999385 -9.05328e-05 2.64184e-23)
(0.994711 -0.00938172 3.46238e-24)
(0.996221 0.135292 7.88144e-22)
(0.994085 -0.00978621 3.07254e-23)
(1.14276 -0.111766 -1.87776e-21)
(1.01783 0.202668 1.10906e-20)
(1.04839 -0.0534247 -6.34096e-22)
(1.30398 -0.149603 -3.05166e-21)
(0.995567 -0.00378897 -6.5867e-24)
(0.980545 -0.0451533 8.35546e-22)
(0.999565 0.0198457 -1.14002e-20)
(1.08581 -0.111378 1.49421e-21)
(1.01509 0.187925 5.06813e-21)
(0.957845 -0.00550001 2.62707e-23)
(1.18256 -0.0112466 1.2703e-21)
(1.00769 0.0702142 1.60326e-20)
(0.995741 -0.00978793 1.09982e-22)
(1.00257 -0.0053641 -3.20798e-23)
(1.16626 -0.23466 1.41187e-21)
(1.0047 -0.0946554 1.74561e-21)
(0.970513 -0.00368734 1.94673e-23)
(1.07163 0.0824859 3.77581e-20)
(0.985421 -0.0579213 -5.38869e-22)
(0.757603 0.125173 4.92538e-21)
(1.22979 0.0614054 -5.12615e-21)
(0.964564 0.211474 1.96229e-20)
(1.19052 0.0213525 -7.47662e-21)
(1.00039 -8.66894e-05 2.54951e-24)
(1.00004 -0.000370201 8.81264e-24)
(0.897013 0.0106096 -1.44342e-20)
(1.33321 -0.0637148 -7.43927e-22)
(0.988213 -0.00384702 1.76762e-23)
(0.917292 0.0068327 2.20999e-20)
(0.9993 -0.00536901 1.91074e-23)
(1.05274 -0.175136 -1.15118e-21)
(1.13447 0.0228388 -9.22753e-21)
(0.956889 0.21912 -5.82836e-20)
(0.972406 -0.0116457 1.23354e-23)
(0.930566 0.201325 -6.47481e-20)
(1.19482 -0.157775 6.82339e-21)
(1.13703 -0.00544744 -2.83389e-21)
(1.11789 -0.113548 1.77096e-21)
(1.08683 0.211311 1.91683e-20)
(1.18674 -0.13443 2.26946e-21)
(0.989433 -0.000449199 3.14376e-22)
(1.14084 0.226603 3.94682e-21)
(1.19275 -0.241285 -6.06676e-21)
(1.02694 -0.196339 -1.89493e-21)
(0.973986 -0.0278693 2.53292e-22)
(1.04092 -0.0274564 2.26673e-22)
(1.08932 -0.103774 6.01026e-22)
(1.00008 -0.000123542 -2.4558e-24)
(1.12434 0.132476 1.74269e-20)
(0.996402 -0.00916651 -4.36241e-23)
(1.18391 -0.168391 1.3695e-21)
(1.00607 0.0527297 -3.75437e-20)
(1.00038 -6.49008e-05 4.80325e-25)
(1.02994 -0.11934 1.93254e-21)
(1.2191 -0.00923823 -2.4291e-21)
(1.01116 -0.0657399 -1.8912e-21)
(0.990074 -0.0369068 -8.02004e-23)
(1.18001 -0.00192832 3.21889e-21)
(1.35143 0.0481414 -3.43865e-21)
(0.991376 -0.0648767 8.19528e-22)
(0.85905 0.0409916 -1.49636e-20)
(1.11767 0.139759 9.3944e-21)
(0.9865 -0.0745645 -8.05616e-22)
(0.96783 -0.0515885 -3.97124e-22)
(1.0509 -0.00539602 2.52865e-23)
(1.01656 -0.021619 -9.62607e-23)
(1.06921 0.200411 -2.66781e-20)
(1.13097 -0.00922561 -6.2777e-22)
(1.33194 -0.0344299 7.78277e-22)
(1.01997 -0.114452 -1.18905e-21)
(0.977971 -0.0119654 1.44317e-22)
(0.987356 -0.0988563 3.63632e-21)
(1.02505 -0.122518 3.20934e-22)
(0.97867 -0.0466137 -8.27843e-22)
(1.30077 -0.159167 -2.6625e-21)
(0.923322 0.223129 -2.05882e-20)
(1.26333 -0.076651 -2.94506e-22)
(1.06903 0.208158 2.42568e-20)
(1.36044 0.09409 -7.42138e-22)
(0.965089 -0.0121545 -5.95249e-23)
(1.34438 0.0345134 -2.73458e-21)
(1.01225 -0.00427316 -8.1389e-23)
(0.965065 -0.0110414 1.04444e-22)
(1.0205 0.197513 1.20625e-21)
(1.00006 -0.000321386 -5.65397e-24)
(1.00322 -0.0875394 6.62355e-22)
(1.00251 -0.00482396 5.67025e-23)
(1.36181 0.102455 3.2952e-21)
(1.06374 0.0876913 -3.94813e-21)
(1.12753 -0.233775 8.766e-21)
(0.938451 -0.0229833 1.23143e-22)
(0.980923 -0.0634011 6.1397e-22)
(1.24525 -0.196557 2.09831e-21)
(1.03789 -0.191735 1.31546e-21)
(0.998287 -0.00301335 -1.95454e-24)
(1.26415 -0.0696827 1.90049e-22)
(1.16688 -0.00961136 -5.07295e-22)
(0.763035 0.131217 1.18093e-20)
(0.973657 -0.0118643 6.3901e-23)
(1.15817 -0.240767 5.55585e-22)
(1.08019 -0.112917 -1.71198e-21)
(1.22102 0.111776 -8.19515e-21)
(1.33318 -0.0379996 -1.74846e-22)
(0.980795 0.153168 1.19773e-20)
(1.2144 0.241514 2.35626e-20)
(0.987037 -0.0337598 1.62202e-23)
(0.817102 0.0323467 -1.77364e-20)
(1.3262 0.0791926 3.54862e-21)
(0.996481 -0.000687712 -2.56466e-23)
(0.979825 0.0150559 -3.08253e-20)
(1.09722 -0.102989 -8.11738e-23)
(1.12926 0.244234 8.0603e-21)
(1.06265 0.225599 -1.23545e-20)
(0.999881 -2.39327e-06 5.30766e-24)
(0.912608 0.150838 7.99527e-22)
(1.18639 0.208251 2.15984e-20)
(0.991244 -0.000642095 -7.65077e-24)
(0.939077 -0.0159996 5.2262e-22)
(1.04804 -0.0499211 4.71918e-22)
(1.14298 0.0165638 -2.40255e-21)
(1.18696 -0.161394 -2.29036e-21)
(0.836098 0.11287 1.52525e-20)
(1.34632 0.0488097 -1.54086e-21)
(1.28125 -0.12301 -1.3447e-21)
(1.12713 0.0178989 1.82978e-20)
(1.14362 -0.10384 -7.20304e-22)
(0.938805 -0.0242017 3.41297e-22)
(1.33041 -0.0054651 -8.93363e-22)
(0.915318 0.159361 -9.54126e-22)
(1.31351 -0.0815734 3.11292e-21)
(0.9933 -0.0002464 -1.01799e-23)
(0.826708 0.111197 -1.49963e-20)
(1.31262 -0.0450477 6.90581e-22)
(1.2628 -0.167327 2.17727e-21)
(1.20691 -0.165004 -5.65218e-21)
(0.852443 0.131172 -1.8262e-20)
(0.893621 0.138371 4.19287e-20)
(0.958928 -0.0281417 -1.80909e-22)
(0.999437 -0.048165 -1.01653e-22)
(1.09754 -0.00736074 -9.23227e-23)
(0.943432 -0.0213813 -3.08398e-22)
(0.998715 -0.00011943 4.66517e-23)
(1.00037 0.138381 -5.57163e-21)
(0.974445 0.0503909 -1.10727e-20)
(0.963639 -0.0156428 1.98553e-22)
(0.948462 -0.0388226 2.8829e-22)
(1.12977 0.234341 1.19493e-20)
(0.998378 0.0362039 1.73392e-20)
(0.998765 -5.81671e-05 -1.31164e-22)
(1.00346 0.0405393 -2.55689e-20)
(1.19291 -0.130404 1.05233e-21)
(1.01787 -0.0190483 2.70509e-22)
(1.00368 -0.0704462 1.11702e-22)
(1.08447 0.137957 -1.99658e-21)
(0.899876 0.252486 1.9447e-20)
(1.1858 0.0201696 9.8857e-21)
(1.13873 0.214362 -1.93516e-20)
(0.976662 -0.0118736 -2.48072e-22)
(1.002 -0.0476495 -5.05542e-22)
(1.00012 -0.000131298 1.06384e-25)
(0.999148 -4.10909e-05 3.43046e-23)
(1.00056 -0.00885183 1.41971e-22)
(1.21418 -0.0103817 1.04914e-21)
(1.14659 -0.162348 -1.32327e-21)
(1.08872 0.203066 -2.43941e-20)
(0.996021 -0.116393 9.65726e-22)
(1.04939 0.072552 1.49054e-20)
(0.987172 -0.0559283 -9.42442e-23)
(1.11115 -0.107891 -1.29672e-21)
(0.985962 0.149261 2.11772e-20)
(0.903114 0.00838526 7.51552e-20)
(1.08417 0.129667 3.41404e-20)
(1.01981 0.180664 -3.13557e-20)
(0.946661 -0.0378914 -2.49932e-22)
(1.29613 0.163571 -4.68557e-21)
(1.01246 -0.0637637 2.07261e-21)
(1.14357 -0.00899982 6.06692e-21)
(0.996216 -0.00824377 -7.14523e-23)
(1.27926 -0.187517 -6.22296e-21)
(1.20907 -0.104769 -1.43642e-21)
(1.10679 -0.0373223 1.00824e-21)
(0.999605 -8.70629e-05 4.93418e-24)
(0.987568 -0.000622185 -3.44898e-22)
(0.88887 0.25905 -2.99843e-20)
(1.2646 -0.00444699 1.20231e-20)
(1.01681 -0.0252633 -2.62564e-22)
(0.964401 -0.0581229 -8.06109e-22)
(1.14113 -0.156159 5.06756e-22)
(1.07152 -0.213669 3.45655e-21)
(1.32195 0.180249 -9.06736e-22)
(0.988835 -0.0978241 -1.02983e-21)
(0.973085 -0.00201157 9.22697e-23)
(0.993852 -0.0767896 1.21194e-21)
(0.991198 -0.0326786 -1.08635e-22)
(0.999344 -6.71451e-05 -1.81549e-24)
(0.986159 -0.0532916 4.90157e-22)
(1.0422 -0.192265 -5.85573e-22)
(0.920372 0.213349 3.86872e-20)
(1.32535 -0.0862917 -1.99621e-21)
(0.975979 -0.0266305 -4.41814e-22)
(1.04468 0.0767115 -2.30881e-20)
(0.89821 0.149412 -5.05323e-21)
(0.986087 -0.0602782 9.83708e-23)
(1.00074 -0.000314579 -1.6921e-23)
(1.00206 -0.0909033 -1.18774e-21)
(0.996132 0.127051 6.50449e-21)
(1.2523 -0.21719 -3.39614e-21)
(0.946509 0.0638426 -3.98544e-20)
(1.00004 -0.000140185 1.13767e-24)
(0.950394 -0.0429273 5.57558e-22)
(1.18597 0.259335 1.92935e-21)
(0.998938 0.03366 3.47394e-20)
(1.03354 -0.0898352 -3.80467e-22)
(0.976337 -0.0341752 3.28373e-22)
(0.849667 0.230847 3.27846e-20)
(1.26199 -0.15026 6.26175e-22)
(1.27346 -0.123382 1.16296e-21)
(0.941435 0.203567 2.64876e-20)
(0.840286 0.129085 -3.13054e-21)
(0.984455 -0.0622479 -3.22762e-22)
(1.18657 0.267633 -1.33698e-20)
(1.20314 -0.0419961 -2.18549e-21)
(1.01105 0.0724397 -4.37575e-20)
(1.15913 0.133349 9.87115e-21)
(1.00076 -0.000230226 2.16492e-23)
(1.32997 -0.0878023 2.04806e-21)
(1.2073 0.113301 5.04738e-21)
(0.996412 -0.000589095 -7.2554e-23)
(0.993898 -0.122495 -3.98112e-22)
(1.30677 -0.0707771 6.67126e-22)
(1.14522 -0.229918 -1.58988e-21)
(1.30717 -0.0474287 -2.22081e-22)
(1.2241 -0.0865693 4.90188e-22)
(1.00012 -0.000214759 -2.14365e-24)
(0.999442 -0.00377285 4.96507e-23)
(0.973311 0.243674 -4.55576e-20)
(1.00126 -0.0160342 -2.7552e-23)
(1.0048 -0.147093 -1.19362e-21)
(0.987097 -0.0805209 1.1584e-22)
(1.3469 0.0129865 -8.67749e-22)
(0.969532 -0.00448801 4.69919e-24)
(1.13536 0.250509 1.37108e-20)
(1.26648 -0.052404 6.3996e-22)
(0.991004 -0.0772217 6.90965e-22)
(0.954883 -0.00667079 -6.56466e-23)
(1.2244 0.101437 8.59459e-22)
(1.32323 0.00351207 1.01306e-21)
(1.00007 -0.000219402 -1.87198e-24)
(0.951088 0.14546 3.89448e-20)
(1.11969 0.148064 4.53174e-21)
(0.984638 0.032443 -9.60055e-21)
(1.24779 -0.177932 -2.11036e-21)
(0.999438 -6.42505e-05 -2.10259e-23)
(0.853248 0.22067 -2.19085e-21)
(0.996478 -0.00564535 -4.1577e-23)
(0.99084 -0.0592642 2.14804e-22)
(1.32488 -0.00381781 -4.33357e-22)
(1.30734 -0.0788222 -3.51147e-22)
(0.977055 -0.0621226 -7.07434e-22)
(1.25773 -0.15925 3.19979e-21)
(1.05794 0.0841649 6.00469e-21)
(0.900721 0.0103236 2.70898e-20)
(1.04875 0.203674 -3.24128e-20)
(1.24732 -0.0289608 -3.31488e-21)
(0.793298 0.0435179 3.835e-21)
(1.00033 -1.04421e-05 -1.4987e-24)
(0.988742 -0.0320402 -1.09874e-22)
(0.999883 0.0185983 4.5922e-20)
(1.19875 -0.211291 6.87372e-22)
(1.20158 0.10805 -1.22532e-20)
(0.982949 -0.0458106 -3.50717e-22)
(1.00498 0.186984 3.17605e-20)
(1.24196 -0.0593472 7.93326e-22)
(1.0001 -0.00412369 3.54461e-23)
(1.23435 -0.0607814 -6.87796e-22)
(1.12084 0.122413 -2.24468e-20)
(1.15995 -0.211167 -4.12272e-23)
(0.940952 0.0153387 -7.28737e-21)
(1.20518 0.210059 2.995e-21)
(0.999252 -0.000336632 6.8302e-25)
(1.04345 -0.024907 1.76998e-22)
(1.28699 0.080846 4.27333e-21)
(1.17859 -0.000203866 1.26091e-20)
(0.998154 -9.2622e-05 1.38827e-22)
(1.21003 0.232531 -2.11816e-20)
(1.01335 -0.056717 -1.76396e-22)
(0.73695 0.125365 -1.78107e-21)
(1.02071 -0.120343 -2.36766e-21)
(0.963337 -0.0141043 6.21874e-23)
(0.988238 -0.000735237 2.41579e-22)
(1.05388 0.211378 3.57975e-20)
(1.18104 0.201448 -3.40843e-20)
(0.974138 -0.00281949 -3.06395e-23)
(1.21451 0.0938441 3.0313e-21)
(0.962096 0.20037 -1.12617e-20)
(1.00133 -0.0172058 -4.70029e-23)
(1.09142 0.0112634 5.66509e-21)
(1.04936 0.0354759 -1.66683e-20)
(0.762339 0.067223 2.53536e-20)
(0.996959 -0.00471761 1.14781e-23)
(1.31892 0.0277723 -3.92222e-21)
(1.20133 -0.107751 6.35013e-22)
(0.942368 -0.0191313 -1.07618e-22)
(0.999621 -6.42098e-05 -4.33721e-24)
(0.999586 0.0104314 2.8244e-20)
(1.33645 0.171592 3.58778e-21)
(1.29779 -0.0975527 8.24651e-21)
(0.997505 0.239062 -1.14371e-20)
(1.2456 -0.0218719 1.53191e-21)
(0.972679 -0.0352146 2.37339e-22)
(1.29327 0.151784 -3.57506e-21)
(1.16629 -0.00547061 -1.74836e-21)
(1.25592 -0.00207832 3.99796e-21)
(0.769916 0.0736224 -6.61684e-20)
(1.02456 -0.10596 8.71634e-22)
(1.32211 -0.0162046 3.82096e-22)
(0.981207 0.0436507 -2.50218e-20)
(0.962805 -0.0590321 7.24323e-22)
(1.18882 -0.0511638 2.16709e-22)
(1.0605 -0.176427 2.70547e-21)
(1.28321 0.0738403 -1.9274e-21)
(0.994604 -0.000187698 3.79852e-22)
(1.17361 0.0103983 -2.17158e-21)
(1.30175 -0.0922014 -3.31715e-21)
(1.31981 -0.0214092 4.38397e-22)
(1.00137 -0.00529104 1.19892e-22)
(1.16526 0.00798067 2.23646e-20)
(0.994911 0.0239262 -2.38375e-20)
(1.11224 0.0835798 4.04323e-20)
(1.14682 -0.225176 -6.31212e-21)
(0.992699 -0.0308566 2.4261e-22)
(0.861829 0.120068 -2.11446e-20)
(0.87482 0.0398396 -5.45419e-20)
(0.996821 -0.00772062 -1.45746e-23)
(0.952399 -0.042015 2.44024e-22)
(1.0525 0.147415 4.77974e-21)
(1.00918 -0.154641 -9.7646e-22)
(1.10308 -0.110163 1.17003e-21)
(1.31121 0.177517 1.39605e-20)
(0.990102 -0.000483283 -3.00981e-22)
(0.757001 0.0593055 4.39104e-20)
(1.03627 -0.0806227 -1.11941e-22)
(1.32216 0.0439173 1.6794e-21)
(0.989122 -0.0110081 9.62687e-24)
(0.991596 0.0244628 -1.02147e-20)
(1.20893 0.199058 -5.9335e-21)
(1.10794 -0.0294501 -1.27413e-21)
(1.1174 -0.121011 -7.16445e-22)
(1.28485 -0.117965 2.44129e-21)
(1.3141 -0.0401737 -1.17596e-22)
(0.999476 -0.00583599 1.56225e-24)
(1.03942 0.121881 -8.81659e-21)
(1.31079 -0.147273 6.5288e-21)
(1.22324 0.0672293 1.26968e-20)
(0.740494 0.133072 6.62758e-20)
(1.25842 -0.177235 1.7129e-21)
(1.07801 -0.0974443 -1.97936e-21)
(1.00017 -0.00961629 -1.42483e-22)
(1.33633 -0.0536347 -2.61013e-21)
(1.31455 -0.089162 -2.10092e-21)
(0.972334 -0.0270963 7.2043e-22)
(1.26772 0.192388 -1.99299e-21)
(1.00003 -0.00153365 -2.8888e-23)
(0.969848 -0.0476187 -1.38862e-22)
(1.01681 -0.0172941 -3.75709e-22)
(1.25674 -0.14271 2.1668e-22)
(0.98766 -0.0512141 4.06323e-22)
(0.99957 -0.000146767 1.2272e-24)
(0.985746 -0.0663248 1.28653e-21)
(1.33192 -0.0116214 -3.21342e-22)
(1.15896 -0.220204 -2.41174e-21)
(1.05277 -0.0867633 -1.85665e-22)
(0.957187 -0.0288085 -3.91506e-22)
(1.30049 -0.0673582 1.56962e-21)
(1.21913 -0.0798564 2.30998e-22)
(0.970987 -0.0615225 -3.70321e-22)
(0.948061 -0.00938973 1.69315e-22)
(1.001 -0.00552646 -1.93432e-23)
(1.14876 -0.11724 2.08888e-21)
(1.02083 -0.167472 -1.59382e-22)
(1.01385 -0.0035886 6.08599e-23)
(1.03773 -0.0862266 1.33737e-21)
(1.31671 0.00567634 -1.87882e-21)
(1.11299 0.0767518 -2.45841e-20)
(1.27263 -0.065278 9.02436e-23)
(0.999216 -0.000282087 1.21024e-23)
(0.831242 0.246035 -4.87505e-20)
(1.01404 -0.00183121 2.0442e-22)
(0.999943 -0.0016606 3.45436e-23)
(1.04751 -0.0124205 1.89571e-23)
(0.956778 -0.0425229 -4.03813e-22)
(1.00722 -0.107933 1.41314e-22)
(0.901052 0.127876 -2.46194e-20)
(1.02619 -0.0656628 1.18107e-22)
(1.19855 -0.0382531 -1.18757e-21)
(1.01761 -0.145219 2.34537e-21)
(1.01392 -0.147265 -2.977e-21)
(1.30835 0.165795 -9.69444e-21)
(0.993119 -0.0600521 -3.71791e-22)
(0.988428 -0.0933281 5.6539e-22)
(0.996191 -0.120744 9.48432e-22)
(0.999677 -4.61859e-05 9.49172e-24)
(1.19591 -0.148575 -3.83255e-21)
(0.803757 0.232686 -4.52794e-21)
(1.07509 -0.207409 9.21333e-22)
(0.954077 -0.0538144 -8.54508e-23)
(1.25781 0.184082 -1.97826e-22)
(0.978373 -0.0586221 -7.42839e-23)
(1.15428 0.125014 -8.28787e-21)
(1.34883 0.0335036 -6.24633e-23)
(0.99595 -0.00603595 7.17137e-23)
(0.998563 -0.00017383 -3.80936e-23)
(1.1052 0.137075 2.81303e-21)
(0.747833 0.168156 2.14948e-20)
(1.05739 -0.203813 2.30522e-22)
(1.35418 0.0805602 5.7101e-22)
(1.33806 -0.0182659 1.44383e-22)
(0.960933 -0.047894 -1.89561e-22)
(0.960848 -0.0503482 -4.56759e-22)
(1.05756 0.153577 -1.29076e-21)
(1.13086 -0.0170914 9.83791e-22)
(1.16777 -0.225832 4.98639e-21)
(1.06579 -0.169718 -2.27375e-21)
(0.978638 -0.00166963 3.4363e-23)
(1.07571 -0.0192431 3.39135e-22)
(0.867795 0.0623018 -9.41723e-21)
(1.20826 -0.0201155 -8.64394e-21)
(1.00032 -0.00010072 2.45651e-24)
(0.926215 0.193075 4.17399e-20)
(1.04002 -0.0771499 -1.38879e-21)
(1.00866 -0.110051 1.73222e-21)
(1.19297 0.251162 -1.1579e-20)
(1.01976 -0.028128 -3.70466e-22)
(0.988257 -0.0104857 -4.25105e-23)
(0.999269 -0.000499852 3.99302e-24)
(1.18582 -0.116705 -1.07135e-21)
(0.959612 -0.0218596 -2.45819e-22)
(1.00032 -1.72846e-05 2.6292e-24)
(1.35686 0.0771871 -1.48561e-21)
(1.25662 -0.209825 -2.36934e-21)
(1.03429 0.11978 -1.53971e-20)
(0.999278 -9.6856e-05 -7.03211e-24)
(1.00021 -0.00494134 -1.65494e-23)
(0.977056 -0.060099 -3.7155e-22)
(1 -0.00012162 2.39575e-25)
(1.05788 -0.209502 -1.17893e-21)
(1.1867 -0.225755 -2.38153e-21)
(0.999555 -0.00494162 9.85692e-24)
(1.00705 -0.0866053 -5.24669e-22)
(0.940422 -0.0158362 1.45172e-22)
(1.1739 0.22525 -1.50099e-21)
(0.991283 0.236959 9.23004e-21)
(0.996443 -0.00513444 1.32725e-23)
(1.00361 -0.00129041 2.90656e-23)
(0.9926 -0.114224 -2.41133e-21)
(0.976146 0.21458 3.04682e-20)
(1.00471 -0.0394302 5.10818e-22)
(0.954154 0.135657 -9.39696e-22)
(0.978861 -0.0132145 -2.03842e-23)
(0.740355 0.100493 -1.80026e-20)
(1.0813 0.0262829 -3.1048e-21)
(1.24772 0.0376542 -1.08433e-20)
(0.783283 0.132768 -1.9421e-20)
(1.31293 -0.137369 2.57375e-22)
(0.989198 -0.00310731 1.38665e-23)
(1.19356 -0.103524 -5.01941e-22)
(1.00975 -0.0409913 -5.4811e-23)
(0.993655 0.210379 7.46986e-21)
(1.04989 0.132362 2.06679e-20)
(0.96824 -0.00849636 4.45217e-23)
(1.27488 -0.181043 6.99336e-21)
(1.16648 -0.0489863 -1.33793e-22)
(1.07381 -0.102285 -1.17345e-21)
(0.995708 -0.000297517 6.9282e-23)
(1.27617 -0.196857 6.14784e-21)
(1.0003 -4.53123e-05 3.66564e-24)
(1.16353 0.220636 7.53905e-21)
(0.939635 -0.0148068 -4.56879e-22)
(0.988965 -0.0745015 -2.33157e-22)
(0.994825 -0.0357453 2.65296e-22)
(1.00633 -0.0694265 1.93617e-21)
(1.31422 0.0445974 5.73598e-22)
(1.27336 -0.0583843 -1.39518e-22)
(0.998435 -5.35187e-05 -1.39166e-22)
(1.02982 -0.0633458 -9.76288e-22)
(0.99987 -0.000167754 2.84953e-25)
(0.746591 0.0927716 1.33077e-20)
(0.879346 0.0559283 1.9221e-20)
(0.994734 -0.00109392 3.81369e-23)
(0.968399 -0.0140835 -1.02183e-22)
(1.04087 -0.0472597 -3.40384e-22)
(1.05571 0.138516 8.87217e-21)
(0.934937 -0.0243212 -3.72463e-22)
(1.34126 -0.018556 1.01638e-22)
(0.956462 -0.0551606 1.26951e-22)
(1.03742 0.205223 -6.4698e-22)
(1.25642 0.0386076 -1.13753e-21)
(0.958416 -0.0238898 -1.92259e-22)
(0.778336 0.0476503 -2.78686e-20)
(1.06644 -0.00327943 -2.48631e-22)
(1.06265 0.212738 -1.89787e-20)
(0.991274 -0.016031 7.91083e-24)
(1.02228 -0.177604 4.7816e-21)
(0.953121 0.00918684 -6.10151e-20)
(1.01659 -0.0518169 6.8701e-22)
(0.740629 0.180604 -9.82209e-21)
(1.08252 0.157034 1.09724e-21)
(0.782112 0.0543348 -6.59824e-21)
(0.989668 -0.00323089 -3.68336e-24)
(0.992256 -0.000552052 -1.46872e-22)
(1.02975 -0.113894 -5.41734e-22)
(1.21134 -0.0962983 1.74579e-21)
(1.01819 -0.0278421 4.01034e-22)
(1.02961 -0.103095 -1.86116e-22)
(1.04487 0.187859 1.75579e-21)
(1.03964 0.224954 6.04991e-21)
(1.08363 0.00498616 7.39304e-24)
(0.983226 0.207561 -2.18292e-20)
(0.758975 0.196647 5.31396e-21)
(1.31361 0.0850395 7.08054e-21)
(0.998254 0.0117138 -4.09856e-20)
(1.10069 0.0659904 -7.91194e-21)
(1.00604 -0.0208422 -4.10174e-22)
(1.09988 0.143337 -9.17922e-22)
(0.986649 -0.092545 -4.88299e-22)
(0.958469 -0.0539041 3.33263e-22)
(0.998516 -0.00139434 -5.61477e-25)
(1.06588 -0.101394 2.76157e-21)
(1.12006 -0.19598 -6.86819e-22)
(1.16813 0.0571367 5.84107e-21)
(1.11301 -0.0144402 1.6324e-21)
(1.00562 0.061089 3.19108e-21)
(1.00968 -0.0598989 1.26418e-21)
(1.17639 -0.0384668 1.04727e-21)
(1.00745 0.0464155 -3.64277e-21)
(1.01115 -0.0430208 8.14595e-22)
(1.1122 -0.12519 1.63345e-21)
(0.999906 -0.000198346 7.77313e-26)
(1.00052 -0.00026121 3.52921e-24)
(1.16332 0.0516857 -3.93631e-23)
(0.989696 -0.0801712 -6.70716e-22)
(0.965449 -0.0505276 5.40526e-22)
(1.00058 -0.000249375 -5.32082e-24)
(1.00005 -0.00341897 2.25069e-23)
(1.16313 -0.0542248 -2.28249e-22)
(0.999452 -6.59104e-05 1.23633e-23)
(1.32855 -0.067766 1.60008e-24)
(0.75564 0.0734413 3.4955e-20)
(1.35547 0.0914162 2.88639e-22)
(1.24307 0.0710288 -4.97801e-22)
(0.964468 -0.00821298 -4.91523e-23)
(1.10843 0.213418 6.49229e-21)
(1.33603 -0.0470533 1.01949e-21)
(1.0054 -0.0367761 -3.05054e-23)
(0.968848 -0.0158245 -1.10627e-22)
(0.996958 -0.00436036 -3.79769e-26)
(0.999209 -0.000439958 -3.31051e-24)
(1.0021 -0.00564142 -4.58984e-23)
(0.995532 -0.0380137 2.23756e-22)
(1.04038 -0.178518 2.76213e-21)
(1.24382 0.113366 1.47479e-20)
(1.23838 -0.108113 -7.79659e-22)
(0.96352 -0.00389697 3.46445e-23)
(0.999881 -0.000129094 3.05434e-25)
(1.00908 0.124517 2.13724e-20)
(1.30531 -0.115078 5.00119e-21)
(1.29166 -0.161099 1.89935e-21)
(1.01945 -0.0534273 -7.70676e-22)
(1.32803 -0.0333759 -2.10176e-22)
(1.06301 -0.104762 -7.40512e-22)
(0.983602 -0.000881383 -2.23223e-23)
(1.00431 0.0360116 1.8182e-20)
(0.956486 0.00164892 -8.17764e-20)
(1.25587 0.244717 -1.26775e-20)
(0.990175 -0.000406084 2.00724e-22)
(1.24817 0.249767 1.04463e-20)
(0.966454 -0.00581091 5.47566e-24)
(0.981829 -0.0549188 -4.81549e-22)
(1.33496 0.115939 -7.30193e-21)
(1.00029 -0.000123797 4.50818e-24)
(0.987414 -0.035833 -5.11853e-23)
(1.32358 0.031081 1.42988e-21)
(1.2964 0.0823274 7.86183e-21)
(0.959697 -0.0259745 -3.78201e-23)
(1.06493 0.136514 1.40193e-21)
(0.911465 0.25935 -2.02627e-21)
(1.0342 0.0662005 -4.11815e-20)
(0.954573 -0.0435443 6.42146e-22)
(0.949138 -0.00929199 -1.06361e-22)
(1.0577 -0.0827261 -3.79264e-22)
(1.17212 -0.0113563 3.03029e-22)
(1.04606 0.0293757 -9.78462e-21)
(0.994751 -0.00152989 9.31519e-24)
(0.945021 0.0219924 -2.2823e-20)
(0.990147 -0.0565213 1.17976e-21)
(1.02789 -0.177765 -3.27169e-21)
(1.19218 -0.0952649 -1.94577e-22)
(0.821116 0.251226 6.92559e-20)
(1.25411 0.118846 -1.13823e-20)
(1.04261 0.134524 -2.17335e-20)
(1.19737 -0.221446 1.25676e-21)
(0.92088 0.00502494 -3.70514e-20)
(0.96171 -0.0216291 2.43182e-22)
(0.983542 -0.0529017 3.49454e-22)
(0.832711 0.0249769 1.32264e-20)
(1.10188 -0.0403665 -2.98897e-22)
(1.0421 -0.166302 -4.82539e-22)
(1.06124 0.193613 -4.39612e-21)
(1.03116 0.197062 -1.39548e-20)
(0.971936 -0.0460617 -4.91715e-22)
(1.05683 0.0378483 -2.2018e-20)
(0.979019 0.224704 -4.01581e-21)
(1.02983 0.180733 1.82649e-20)
(1.15483 0.2439 5.12985e-21)
(1.05162 0.196174 2.87678e-20)
(1.15373 0.142237 -1.30114e-20)
(0.985119 -0.00391823 -2.32145e-23)
(0.962859 -0.023585 3.22043e-22)
(1.00324 -0.00911252 -2.5997e-23)
(1.00759 -0.144713 3.33954e-21)
(0.98666 0.0458841 -5.73463e-21)
(1.01324 -0.153398 1.93713e-21)
(1.32841 0.00867331 -9.4407e-23)
(1.26715 0.0096217 -4.86502e-21)
(0.96613 -0.058698 3.94583e-22)
(1.32394 -0.0650454 -1.90653e-23)
(1.34084 0.0296045 -8.18399e-22)
(0.984743 0.0180085 -1.76162e-21)
(1.31304 -0.0663855 -6.9979e-22)
(0.999586 -0.00412818 -5.70625e-24)
(1.08045 -0.0189092 4.52173e-23)
(0.980991 -0.0592513 2.33692e-22)
(1.27178 -0.149117 1.1703e-22)
(1.28666 -0.15431 -4.11779e-21)
(1.01674 -0.163175 6.36081e-22)
(1.15174 0.23121 2.89268e-21)
(0.955292 0.249008 3.26707e-20)
(1.23375 -0.0855261 -2.37153e-22)
(0.994311 0.0146883 1.81779e-20)
(0.746132 0.156288 -2.41187e-20)
(0.998542 -0.000105471 3.51844e-23)
(1.004 -0.00131683 -2.29302e-24)
(0.995979 -0.00667381 -3.15682e-23)
(0.968983 -0.00902205 3.86375e-24)
(1.21098 0.129405 -8.98345e-21)
(0.831056 0.0284295 -2.85848e-20)
(1.21339 -0.0179299 7.46457e-21)
(1.11955 0.228683 3.9266e-21)
(0.97805 -0.0277599 -2.42462e-22)
(1.25246 0.209938 1.70787e-20)
(1.2579 0.230815 5.38139e-21)
(1.2541 -0.199656 9.36031e-22)
(0.953105 -0.0131129 1.56114e-22)
(0.93659 -0.0229281 2.42801e-22)
(1.33409 0.00632645 1.9658e-22)
(1.01402 -0.0529419 2.77013e-22)
(1.23954 -0.10204 -8.23823e-22)
(0.963168 -0.0466426 1.02883e-22)
(0.941098 -0.0447344 -8.396e-22)
(1.07905 0.196199 3.0752e-20)
(0.990885 -0.00273628 -2.95893e-23)
(1.03032 -0.0724482 -2.27323e-22)
(1.04237 0.220262 1.48949e-20)
(1.31872 -0.0694122 -5.26432e-21)
(0.845823 0.208415 7.72955e-21)
(1.01575 -0.104794 -9.34417e-22)
(1.08963 0.0226971 1.01352e-20)
(1.27711 -0.156389 4.26123e-21)
(0.997255 -0.085281 2.82823e-22)
(0.952929 0.0163055 -8.27388e-21)
(0.97839 0.00104321 5.26867e-20)
(0.979057 0.0643455 -8.91302e-21)
(0.99183 -0.0402723 -4.89998e-22)
(0.85853 0.0367249 3.01719e-20)
(0.957043 -0.0400167 3.18366e-22)
(0.941992 0.178893 1.18605e-21)
(1.15131 -0.0991165 4.07387e-22)
(0.972292 0.108097 -4.97652e-21)
(0.97765 -0.0562892 2.90333e-22)
(1.00004 -0.000275178 -3.91787e-25)
(0.971517 0.0944036 1.6709e-20)
(0.934954 0.159505 1.97904e-20)
(0.950289 0.195823 -3.16968e-20)
(0.97386 0.0804426 -1.94561e-20)
(1.14236 0.008459 -3.2491e-20)
(1.1869 -0.0453805 1.0204e-23)
(1.17648 0.12357 -2.37994e-20)
(1.03898 -0.161082 1.24722e-21)
(0.992844 0.0350962 5.88595e-20)
(1.06008 0.121782 -2.66298e-20)
(1.29768 -0.115911 -6.00216e-21)
(1.11733 -0.0190563 -1.74523e-21)
(0.985587 -0.00370984 -1.59682e-23)
(1.31852 -0.1352 -9.94273e-22)
(1.0978 0.19813 -4.9339e-21)
(0.942743 -0.0343604 1.67061e-23)
(0.966866 -0.00493682 2.21202e-23)
(0.983232 0.00951507 -1.18039e-20)
(0.96049 0.117344 -3.6217e-20)
(0.986078 -0.0646636 -5.32227e-22)
(0.981118 0.126706 2.60989e-20)
(1.01906 -0.172995 1.1273e-21)
(1.3231 -0.0354329 6.09814e-22)
(0.993708 -0.000309455 1.79931e-22)
(0.947342 0.127591 -2.04781e-20)
(0.931726 0.140195 5.26783e-20)
(0.770463 0.0834933 5.38097e-20)
(0.970462 0.233134 4.23112e-20)
(0.996799 -0.000376681 2.61207e-23)
(0.978186 -0.0301738 1.59905e-22)
(0.99832 -0.0014338 5.69107e-24)
(0.992611 -0.0890646 -2.20397e-21)
(0.8484 0.157637 -1.11536e-20)
(1.26871 0.0648272 -1.35909e-20)
(1.12804 0.210453 -3.31066e-22)
(0.941767 -0.0428118 5.24206e-22)
(1.10299 0.0720676 2.48393e-20)
(1.04378 -0.0462569 3.41676e-22)
(0.845934 0.183648 1.60302e-20)
(1.09918 -0.131991 -8.07657e-22)
(0.990893 0.0130186 2.01467e-20)
(0.993872 -0.000307665 1.00554e-22)
(0.871152 0.147751 -3.63986e-20)
(0.823208 0.195626 -4.50192e-20)
(0.976041 -0.0315436 -4.30476e-22)
(1.27981 -0.0260734 1.36709e-21)
(0.875384 0.123242 -3.6334e-20)
(0.996113 -0.000581525 -1.39237e-22)
(0.808149 0.0853762 -5.95819e-21)
(1.05325 -0.0918953 3.06926e-22)
(0.996299 -0.000381352 5.31787e-23)
(0.950998 -0.0145294 -1.12863e-22)
(1.06609 0.221772 -1.87098e-20)
(1.28221 0.0274217 -6.23207e-21)
(1.00404 -0.121507 1.50844e-21)
(1.00824 0.227923 1.65501e-21)
(0.808672 0.222283 3.02502e-21)
(1.24918 0.222885 -1.86684e-20)
(1.07128 -0.0143925 -2.30051e-22)
(0.996115 -0.0792934 4.39738e-22)
(1.18534 -0.109134 8.59372e-22)
(0.963823 0.133195 2.97535e-20)
(0.828458 0.0865056 -3.41827e-21)
(0.76092 0.0793644 3.48095e-21)
(1.25513 0.0548629 2.24883e-21)
(1.00047 -0.0122012 3.30368e-23)
(0.976299 -0.00185157 -7.37573e-23)
(1.10681 0.202721 -1.74786e-20)
(1.00222 -0.00947006 2.67391e-23)
(0.982038 -0.00579683 8.78518e-25)
(1.0035 -0.014957 -2.02746e-23)
(0.991923 -0.0351275 -2.39873e-22)
(1.08982 -0.186104 2.51524e-21)
(1.18906 -0.205807 -1.70453e-21)
(0.912334 0.196023 -4.69015e-20)
(1.02259 -0.0593642 2.37319e-23)
(0.998735 -0.00115297 -5.59721e-24)
(1.07584 0.12413 -4.51321e-22)
(1.31059 0.0539132 4.99265e-21)
(1.0021 -0.0151152 -3.82846e-23)
(1.3198 -0.0098774 -6.61671e-22)
(1.00216 -0.00158003 4.86142e-24)
(1.25611 0.0210555 8.47189e-22)
(1.03513 0.0699317 2.8937e-20)
(0.974998 0.121544 -5.0635e-20)
(1.15211 -0.204665 1.91767e-21)
(1.26627 -0.0125178 -2.84859e-21)
(0.992313 -0.0164542 -3.4684e-23)
(1.13659 -0.139905 3.0159e-22)
(0.994303 -0.00192192 4.71045e-24)
(0.95604 0.152053 -5.27582e-20)
(0.907583 0.190425 1.43529e-20)
(1.21869 -0.218273 1.7388e-21)
(1.17856 -0.220389 1.58653e-21)
(1.13864 -0.218046 5.11761e-21)
(1.03461 -0.10602 8.81475e-22)
(0.99644 0.219428 3.46444e-21)
(1.03888 -0.0972734 5.84508e-22)
(1.11583 -0.179763 9.06578e-22)
(1.07138 -0.199685 -1.11718e-21)
(1.13151 -0.123896 -1.37135e-21)
(0.789055 0.0847386 2.91548e-20)
(1.13752 -0.23676 -9.33247e-21)
(1.30045 -0.0843467 4.03584e-22)
(0.967501 0.0377676 1.03471e-20)
(0.994856 -0.000445333 -1.01202e-22)
(1.26787 -0.0463344 4.66669e-22)
(1.04277 -0.0879806 -9.33482e-22)
(1.07343 -0.184904 1.94222e-21)
(0.994971 -0.00114024 -8.22335e-24)
(0.999609 -0.00349091 -1.54312e-23)
(0.785591 0.109329 -4.94875e-20)
(1.11824 0.07302 1.8615e-20)
(1.21288 -0.225715 6.06511e-21)
(1.32643 -0.112986 -1.46675e-21)
(1.14236 0.125078 -9.73965e-21)
(0.989046 0.123145 -3.99186e-21)
(1.06742 0.128008 7.97726e-21)
(1.247 -0.160154 -3.82587e-21)
(0.978301 -0.063323 7.62574e-22)
(0.991758 -0.0542019 -3.14377e-22)
(0.982593 -0.0573724 -8.20565e-23)
(1.09329 0.123738 -2.57789e-20)
(0.966341 -0.00628066 6.10605e-24)
(1.00165 -0.0812232 6.83031e-22)
(0.999667 -4.84313e-05 -3.13331e-24)
(0.964941 -0.0232145 -5.21835e-22)
(0.9974 -0.000679493 -2.08449e-24)
(1.11214 -0.197859 1.95566e-21)
(1.0499 0.21929 -1.76727e-20)
(1.04953 -0.166651 7.22693e-22)
(0.97045 0.193634 2.01145e-21)
(0.988451 0.190643 -4.68182e-20)
(0.958584 -0.0515118 -6.62449e-23)
(0.982787 -0.0344465 5.00436e-23)