/*--------------------------------*- C++ -*----------------------------------*\
  =========                 |
  \\      /  F ield         | OpenFOAM: The Open Source CFD Toolbox
   \\    /   O peration     | Website:  https://openfoam.org
    \\  /    A nd           | Version:  7
     \\/     M anipulation  |
\*---------------------------------------------------------------------------*/
FoamFile
{
    version     2.0;
    format      ascii;
    class       surfaceScalarField;
    location    "39.5";
    object      phi;
}
// * * * * * * * * * * * * * * * * * * * * * * * * * * * * * * * * * * * * * //

dimensions      [0 3 -1 0 0 0 0];

internalField   nonuniform List<scalar> 
11512
(
153.172
-517.42
364.248
-773.584
-17.7117
791.295
442.554
-400.368
-42.1859
676.019
257.467
-933.486
1571.1
-1112.78
-458.324
1136.82
-1385.33
248.51
-39.7173
507.793
-468.075
164.233
-846.842
682.609
996.033
-1671.81
675.774
-1790.65
1703.93
86.7215
-566.075
1702.89
-1184.22
2008.88
-824.655
585.613
162.487
-748.1
-22.4389
-1355.28
1377.72
230.34
-2020.99
1065.09
-395.14
-669.945
-183.115
336.287
458.434
162.283
-620.717
1202.23
-1363.9
161.677
-323.34
393.717
-70.3776
1046.75
-1352.22
305.467
1268.42
830.062
-2098.48
70.6221
-1689.97
1619.35
-531.584
-1137.48
1669.07
433.439
143.334
-576.773
-197.091
-320.329
516.987
1054.12
1696.22
-1852.51
156.298
-114.672
-1683.21
1797.88
-1619.32
673.564
945.76
-316.594
679.464
-362.87
-86.3283
-83.556
169.884
1323.54
-1252.92
371.527
-1462.2
1090.68
-897.313
897.313
94.2219
1573.59
-1667.81
-1117.27
-502.05
690.5
-730.217
-397.52
978.758
-581.238
1126.83
-1120.94
-5.8977
-1144.14
746.618
654.752
410.333
-405.59
-41.6805
447.271
-443.216
798.062
-354.846
-775.571
775.571
1118.33
-1229.97
111.644
-507.269
1775.68
1306.63
-327.875
1709.15
-1186.71
-522.439
82.5519
-405.892
2143.72
-1177.56
-966.158
1863.84
-167.623
388.72
113.508
-502.229
-466.862
1006.54
-539.678
-1202.88
1297.1
-588.889
1007.84
-418.949
420.163
782.065
623.598
-459.365
-453.303
618.875
-165.572
1237.08
-865.551
2391.35
-1120.22
-1271.13
1208.3
-2084.97
876.667
-1648.13
1625.69
458.07
-1642.29
-563.206
1026.31
-463.106
-699.946
383.351
1724.2
-728.164
-1145.58
-901.524
2047.11
693.726
-384.346
-309.38
716.741
589.891
-264.491
1382.82
120.868
-332.735
211.867
-272.983
706.421
-256.2
407.233
-151.033
-319.763
778.197
-328.276
-154.602
482.878
345.143
97.411
1499.79
-453.044
-1011.18
513.531
497.648
290.019
92.1205
-382.14
930.475
-344.863
-1755.68
595.734
1159.95
37.5657
-886.452
848.886
-262.063
564.539
-302.476
162.957
-1137
974.042
756.223
-766.109
9.88602
381.096
535.184
-916.28
-224.762
613.483
-1146.47
-501.924
1648.39
-410.544
626.46
-215.916
1346.49
-1461.16
-653.848
303.206
350.642
-490.624
-1015.59
1506.22
-562.54
-821.979
1384.52
569.439
-961.689
392.249
-100.413
-168.568
268.981
424.955
-304.087
-1076.53
609.663
993.064
-830.107
-82.0052
652.487
-570.482
-165.751
343.306
-177.555
-634.937
-376.242
-393.873
963.312
1025.16
-1025.16
-467.636
-186.211
-940.246
1586.16
-645.914
294.911
-674.526
379.614
-955.944
367.055
-969.968
-1095.91
-1544.56
368.152
1176.4
-267.398
943.417
-318.318
640.34
-322.022
-2008.37
1038.4
-1171.95
-372.607
593.167
-1533.41
1793.62
-1791.69
-1.92872
229.783
-634.673
404.89
-1490.73
975.927
514.802
302.075
220.644
-522.719
270.06
-526.26
153.297
-246.922
93.6249
2038.64
-850.795
-1187.84
-572.026
166.435
644.317
862.464
-1506.78
-132.774
286.071
448.884
911.237
-1360.12
-946.514
412.492
534.023
-1083.26
1503.42
-707.555
144.349
784.588
-105.124
561.68
-276.342
-285.338
1036.87
-523.337
619.469
-1459.65
840.178
-1395.59
249.126
-490.944
228.881
-1213.04
945.642
2025.07
-1150.82
-874.251
236.29
788.866
-2171.91
926.726
1245.18
171.567
-12.6023
-158.965
-144.343
280.172
-135.828
-117.899
-393.225
511.125
-483.621
155.344
262.889
-46.1951
341.106
425.899
406.815
-832.714
-2054.65
1146.88
907.77
478.323
-555.053
76.73
124.297
-185.428
61.1316
961.96
1076.68
1829.01
-255.414
748.626
-445.42
828.486
-1444.86
616.374
364.476
329.249
1085.14
-1047.58
-513.914
-268.021
781.935
493.111
-140.842
-352.269
647.039
-484.552
611.843
-815.069
203.227
522.18
1186.97
-1289.03
726.494
1020.02
-1551.61
0.970173
-1491.95
1490.98
337.304
858.354
-1195.66
589.181
227.933
-817.114
-2275.35
1180.62
1094.73
-1116.55
-1158.8
211.204
400.638
996.375
-659.071
576.083
-585.169
9.08618
-2173.61
1028.03
-71.5454
-83.689
155.234
-44.3578
1837.98
-859.811
86.2271
-1064.65
-1107.26
-151.524
275.821
-692.538
224.902
-286.739
-427.481
714.22
1140.59
-1631.22
811.596
-1428.47
616.879
713.992
-456.525
1865.09
-1342.91
-296.682
-600.631
72.7118
435.081
-556.425
538.713
6.88367
-588.128
581.244
594.27
-292.195
-539.661
261.145
278.516
812.287
-386.388
14.204
157.363
1231.83
-1230.86
186.958
237.997
397.164
-683.902
638.918
-1032.79
-2101.08
2101.08
-271.996
-452.772
724.768
712.957
388.93
-1101.89
601.966
182.622
411.564
400.723
-2277.65
1376.13
-962.429
-705.041
1667.47
-474.256
-738.785
-256.908
560.657
-303.749
886.213
-241.968
-644.244
-447.543
677.326
393.036
-711.353
-362.79
-152.649
515.44
-1359.78
-492.731
676.855
-1151.11
-281.88
-493.691
874.903
1516.45
198.099
-350.652
152.553
1005.19
-350.436
1446.3
-826.826
464.206
-277.249
-344.549
-920.67
610.217
310.453
-372.298
-548.371
319.927
-437.826
-174.194
-110.839
285.033
-404.581
1117.54
357.397
-195.114
-298.525
1397.43
-189.603
-1207.82
-492.424
289.913
202.511
232.298
261.367
-493.665
-1.87597
-813.193
615.777
-1793.77
1177.99
1537.45
-893.132
-1047.02
-443.71
-1100.18
595.826
504.352
1412.01
-436.08
965.189
-1467.11
-163.508
-211.811
375.318
-465.746
606.123
-1689.38
392.532
734.302
294.32
298.952
-593.272
419.724
477.588
1148.84
-745.963
-402.876
369.302
-195.397
-173.905
-1451.2
462.259
767.888
-1230.15
1531.31
-566.121
-484.755
950.216
-465.461
445.075
1226.01
-1671.09
15.1284
-425.672
-149.951
439.971
64.0455
-150.374
534.764
502.105
-623.006
48.9725
574.034
882.857
-1065.94
183.086
689.392
-277.827
488.408
-1503.29
1014.89
422.479
1750.47
-542.171
813.048
1212.03
-690.34
-1749.8
787.37
595.415
401.639
-997.054
469.223
83.1481
1815.46
-1898.61
1269.89
-371.769
-898.116
1762.99
-1807.35
-383.436
-535.597
750.982
-215.385
-502.469
191.555
301.556
-372.508
-1225.65
210.058
-797.049
-662.599
-586.843
1070.21
-483.362
-356.134
351.441
4.69313
471.385
-601.412
130.027
-210.094
60.8294
149.265
-674.741
-713.683
359.468
354.215
-966.337
1454.74
-424.059
917.14
-493.081
-2283.83
6.18046
190.775
-560.012
369.237
158.727
1238.7
-112.341
-580.197
168.305
-621.608
1544.93
-733.337
391.85
-485.029
93.1791
-98.1803
98.1803
487.695
287.876
1846.14
-1277.67
612.198
665.468
677.248
-30.2091
1341.07
802.656
-561.367
1389.85
269.601
294.937
294.655
-830.252
263.915
-707.13
190.203
-348.152
157.949
-257.12
612.642
-355.522
127.983
-385.103
-613.985
-586.632
1200.62
-367.069
550.801
-183.731
-1148.74
2017.02
-868.282
1341.27
-344.895
-131.424
31.0105
-1987.47
849.991
1567.38
-850.317
-717.059
2060.77
-910.718
-1150.05
741.479
599.791
-209.853
400.056
-674.378
1171.94
-497.565
-800.666
1249.55
572.91
960.308
-1791.46
831.153
-546.332
-91.112
637.444
312.358
249.321
430.974
-103.437
-327.537
615.829
-58.7188
-557.11
945.949
-566.205
-379.744
1633.94
-493.343
920.274
-1688.17
767.897
1074.29
790.794
779.985
-464.048
-315.938
-873.051
-247.886
575.296
607.647
-1182.94
-453.169
519.559
-66.3898
600.532
-360.379
-240.154
-1020.47
596.409
621.206
916.244
-398.978
870.363
1459.12
-793.431
-665.685
416.507
-963.649
547.142
-1060.49
425.549
586.579
-1071.33
484.933
-541.282
56.3493
499.124
298.938
-82.5744
-15.6059
-825.985
-909.806
1735.79
181.458
187.844
-235.627
446.831
-49.3422
-559.33
608.672
496.921
906.041
-1402.96
-461.036
286.842
644.984
-29.1553
870.218
-1106.24
236.026
393.78
879.688
-1441.05
-459.185
866
2052.24
-1331.64
-720.603
201.36
374.723
206.6
549.623
118.194
-1003.14
884.942
1736.78
-1127.64
-609.146
-144.392
1959.85
-1935.02
-166.06
394.633
-488.686
94.0526
-1056.13
546.678
509.453
-1569.48
420.739
-883.356
801.351
405.441
213.434
410.797
-212.697
-445.172
741.411
263.777
39.9094
820.504
-860.413
-1149.21
-883.453
2032.66
-537.843
1133.09
-595.25
-479.411
-90.7779
19.2324
-1717.34
891.359
-817.134
-658.372
1475.51
-231.907
-239.968
471.874
368.986
-677.364
308.378
244.295
-630.683
326.135
221.662
-547.796
366.279
-623.187
644.971
-275.984
321.423
-476.025
680.924
417.46
-185.162
-407.178
-306.505
1256.12
-10.8987
-1245.22
1074.37
-435.447
581.391
426.447
-1739.97
810.248
929.727
518.681
561.361
-1080.04
-345.092
113.185
-272.643
1226.34
-953.693
-1454.87
1158.19
516.022
-1130.01
403.743
-11.893
427.015
323.783
-750.798
362.901
-587.664
-28.9536
783.811
-754.858
-384.675
612.608
389.524
276.607
400.641
681.443
96.3247
-412.361
316.037
827.664
-472.502
-355.163
515.776
-1726.26
1210.48
-1181.25
1819.3
-638.048
1780.06
-1164.29
-322.109
583.255
-1182.63
1300.83
241.785
-832.495
1655.49
-822.994
-264.574
-227.85
-972.185
1526.4
1880.74
-635.762
-1244.98
-420.76
796.381
-1383.22
-55.0679
-46.3947
477.369
-708.166
-354.728
-1100.14
-235.206
479.502
786.883
-585.33
192.105
-1737.71
-74.5728
1812.28
-1097.49
559.65
595.578
-1227.07
631.492
936.44
944.303
562.647
463.665
713.241
236.975
-1168.31
493.936
-422.119
429.003
646.628
-536.187
262.525
-765.682
503.157
706.769
-342.292
-205.579
122.023
-623.189
232.135
391.054
-924.478
-763.692
1123.66
-2219.58
400.807
-673.79
-283.915
-482.194
868.808
590.308
-363.849
322.168
364.59
278.259
682.062
-960.321
524.306
647.637
-559.364
196.574
364.247
-636.243
-1125.75
-812.156
1937.91
-1854.02
164.047
1150.19
-1422.83
1194.98
-714.959
-480.025
-523.461
1403.15
-1552.58
654.297
898.281
-120.655
-116.212
236.866
1481.05
579.719
345.101
-497.75
-507.977
-584.304
1092.28
-433.661
624.436
1643.27
-1171.9
-471.374
-802.646
349.874
477.265
350.4
-1683.78
435.516
1248.27
-208.091
534.226
828.954
814.316
220.631
-711.79
491.16
176.033
167.273
-188.038
-77.2927
265.33
500.02
-9.94631
-490.074
-1666.94
619.925
-1624.25
1703.87
-79.6159
20.4918
-1644.74
988.005
783.315
-356.3
-826.447
-234.039
-1180.43
-248.049
-310.923
673.824
-1882.1
-645.425
1253.07
215.102
791.438
-1380.2
-704.769
-484.354
625.544
-331.223
-1046.87
1400.81
-2005.82
605.005
670.968
1337.91
281.309
-1.13675
749.044
721.112
-1470.16
-666.116
353.269
312.847
265.508
-64.7997
-200.708
162.854
308.511
175.182
-483.693
-595.533
1190.95
456.2
-636.9
-462.202
-412.599
874.801
-331.135
167.628
-478.389
174.302
-319.514
-736.617
319.601
-54.0931
-590.118
1006.62
270.354
-142.257
-128.098
464.347
-784.11
-675.029
449.782
-1168.01
-855.412
1223.56
-581.784
472.621
309.314
-463.34
78.9939
1049.66
-147.543
315.786
-168.243
-513.144
1501.15
-793.721
256.363
387.905
-644.268
236.983
493.825
-30.3033
-463.522
-264.841
-213.548
849.177
1148.23
588.552
-898.584
978.885
-80.3009
-160.336
39.6812
-752.935
325.454
-624.882
320.518
386.251
865.591
-1266.05
400.461
809.712
-838.666
-957.959
-571.988
1529.95
-172.839
471.791
-557.769
281.427
1392.12
801.964
-581.334
1353.65
-676.795
468.273
-693.926
-421.001
-419.185
-382.233
801.418
516.589
-861.452
-467.062
100.914
366.148
-200.64
596.561
736.243
-335.436
-191.92
-147.652
339.572
-513.032
151.836
361.196
1511.58
82.1274
-1593.71
-776.443
1397.65
-1189.74
-482.071
565.76
-177.855
1194.67
-384.962
1120.85
513.088
724.694
-430.039
-917.217
-544.988
-1329.73
-32.3064
1024.03
-991.724
605.996
355.061
-961.057
-338.561
-233.465
-773.284
420.487
1680.59
-196.65
377.784
369.523
-747.307
-1909.42
-2182.33
1573
609.335
-2040.27
357.062
391.503
540.109
-931.611
-478.979
1060.37
-427.108
-673.18
1100.29
-2103.56
1440.34
663.222
601.316
-1028.42
65.6011
419.332
359.012
208.572
255.635
320.986
992.819
895.17
698.245
-334.748
-363.498
-297.083
628.321
-331.238
598.824
550.015
549.275
453.687
-1002.96
-824.765
-727.814
783.56
411.114
-423.453
731.831
-1233.48
1669
455.367
-1128.55
-341.162
562.823
-1426.1
940.22
485.88
-712.947
-269.213
-871.241
384.454
486.787
464.478
747.654
-1212.13
1111.18
-592.504
-413.99
689.989
-275.999
140.2
130.155
-484.638
-449.27
933.909
-252.899
564.427
-984.76
420.333
-412.064
622.418
-1742.64
439.444
698.599
-1138.04
547.19
93.1494
117.814
-2291.43
574.299
-101.678
1499.92
1840.13
-224.494
-1615.63
-455.092
1855.9
-2062.82
1239.71
823.116
422.309
357.676
-26.7991
895.608
-1334.7
748.064
-897.237
-856.822
824.515
322.411
61.179
-383.59
71.5446
80.1818
-151.726
1606.64
-857.598
-749.459
-275.698
503.35
-208.14
-295.21
378.702
327.719
263.118
362.426
-7.70678
1039.56
-1031.85
378.079
296.724
-674.803
-761.101
1884.66
-1123.56
-341.303
720.005
-1250.3
-417.519
-952.871
503.6
599.624
-807.582
207.958
788.806
-394.654
-394.152
-429.137
-469.447
453.632
1110.89
1284.16
-688.579
819.313
-354.966
386.656
338.112
-261.224
-223.805
-234.037
656.516
421.638
-880.62
458.982
229.533
363.758
-593.291
-437.08
858.718
784.255
-1188.84
905.418
-39.8277
-515.165
301.303
783.838
-99.0859
1437
1957.94
-68.9195
358.833
-323.382
419.706
-1126.93
1119.23
641.197
387.32
401.486
64.2844
439.066
284.416
506.88
-384.825
-281.29
-294.505
-61.6289
-372.678
382.984
-10.3069
-237.605
-253.338
1048.19
-1600.2
552.01
-201.043
-199.325
-387.52
684.243
-1687.91
1651.38
-997.078
283.267
-704.268
606.959
1267.02
-1873.98
633.147
1018.23
326.7
-1163.63
718.458
-289.609
-303.664
1412.42
-1496.45
849.123
647.329
424.909
-653.405
228.496
-381.317
502.534
-121.216
377.875
122.145
1790.37
404.466
-228.433
581.087
-1768.02
1186.94
-93.2441
402.974
348.022
350.223
-465.165
-637.993
1103.16
441.165
-900.35
-666.8
937.434
593.876
-106.358
-103.737
-456.43
-424.19
-321.161
-859.264
983.829
-983.829
-94.9969
-1616.92
1711.92
303.128
297.405
-950.964
-578.813
1529.78
-409.557
958.832
-632.72
-1034.22
693.038
419.44
-1112.48
487.105
-165.682
594.967
1262.75
-1857.72
-1045.04
2113.92
-1068.88
-387.375
-312.57
-493.479
843.353
-1812.2
1657.56
154.639
1812.2
-1659.37
-152.831
-230.003
497.414
-267.41
-560.214
1681.06
1601.94
-2019.46
1118.59
-287.385
-272.935
560.32
254.501
-595.663
-732.206
308.753
1392.49
659.75
598.737
506.659
-1105.4
296.977
427.717
903.427
513.139
-1416.57
550.437
-1058.41
1635.47
-587.28
-772.116
-373.522
-129.205
502.727
-509.469
1257.12
-775.339
307.352
306.131
375.803
271.35
-647.153
630.304
859.718
-623.692
286.83
692.056
-106.358
-322.696
-248.251
570.947
1210.16
-678.054
636.445
482.495
-1118.94
-965.968
965.968
-394.94
782.26
-299.973
-491.925
791.898
501.566
470.321
-971.887
402.86
-702.833
639.393
-903.331
263.938
-380.647
-517.306
1116.04
-689.273
-735.685
1424.96
-401.481
965.909
-1610.59
699.872
55.8888
-441.379
385.49
-511.346
736.248
273.355
339.287
176.267
310.838
-534.44
244.831
1940.94
-2040.02
288.579
-736.123
462.677
-855.725
393.048
-897.231
1446.88
-549.652
-447.127
-505.744
624.657
1165.39
-1790.05
-744.651
357.276
-477.311
1076.13
-795.283
1082.11
-297.378
-619.192
-491.774
755.689
402.528
-259.194
942.731
-315.681
-197.351
1656.82
-1881.31
-373.312
-611.448
-347.969
499.805
277.64
-608.863
-198.28
1094.79
-793.49
224.262
-304.406
-289.776
594.182
417.671
-912.839
495.168
-439.857
-463.191
-350.652
-348.541
604.235
-255.694
-472.665
-437.216
-342.745
-205.051
-399.364
670.714
-450.053
788.165
-1114.08
648.912
-1407.89
590.754
-28.337
-1903.46
1931.8
593.969
-467.013
1256.8
-697.153
38.9507
-38.9507
695.245
-450.33
1033.17
-1665.89
-1199.78
-982.555
301.261
327.06
909.053
746.436
-501.891
-325.875
827.766
1719.06
-1747.4
-451.796
364.86
229.411
1180.32
-543.879
-977.372
1606.43
-629.062
463.73
-255.158
382.256
412.063
-794.319
544.69
497.704
-1042.39
-318.305
625.657
-39.4014
1980.34
1626.34
1029.78
-1763.11
755.772
-1224.07
468.294
-513.144
1416.57
870.715
-1394.18
-574.156
286.771
825.04
-423.401
578.587
-1234.17
655.582
-645.671
-1258.85
-722.116
1980.96
-216.326
577.549
-361.223
-193.179
308.149
-524.475
338.46
389.69
-728.15
-1535.78
788.347
747.437
914.129
-1486.12
860.022
-447.531
228.456
-378.408
-607.289
284.593
-721.81
-704.29
726.857
525.573
-1252.43
390.108
-204.206
-185.902
578.079
-997.028
-579.384
-428.899
754.353
-862.458
-1200.36
-1493.55
520.643
972.909
4.72834
-653.463
363.702
289.761
-1357.56
1086.96
270.604
-640.267
-473.81
-626.517
833.116
418.267
-212.189
-206.078
529.961
1016.57
-1546.53
1015.01
-269.426
93.782
175.644
-425.326
703.746
-415.167
-530.465
182.497
243.455
-1575.1
557.218
553.966
-777.822
266.476
162.972
-478.653
390.74
-853.931
2022.27
-1236.41
-785.858
416.303
-697.861
281.558
133.153
338.604
128.013
-466.618
-582.338
177.602
226.864
-720.362
1427.36
-706.996
436.372
503.036
-1215.98
259.808
1934.15
-1052.43
-881.722
655.047
-554.223
205.682
1398.32
-958.673
-439.65
354.296
-804.627
-641.842
1790.07
639.358
644.798
336.821
-14.4097
289.756
-1178.94
1790.33
-611.395
-1827.31
849.937
1789.12
-1713.44
-75.6858
-688.214
266.095
589.001
-740.79
249.015
1457.82
-587.102
410.997
455.003
-1928.22
1473.13
572.417
-430.491
-141.926
224.133
-566.879
-280.511
-198.899
-355.52
703.542
-599.309
225.787
625.725
578.75
-1204.47
1154.96
-2021.74
866.776
179.026
336.414
-1764.66
1725.26
335.248
-765.287
-170.7
399.157
776.021
708.788
-1484.81
1103.08
-1113.98
553.486
-1145.99
-655.271
265.962
389.309
542.718
-310.583
-645.994
-1019.9
314.772
-751.988
-944.64
196.231
166.027
224.081
399.008
313.459
-712.467
-648.483
-866.388
-1015.71
517.163
-1099.5
-300.761
503.272
561.103
662.46
-106.628
-24.7952
-412.504
739.204
290.625
-1244.21
595.725
1355.76
-579.744
470.296
-1049.68
-160.722
180.265
392.153
1060.87
574.6
-1731.68
1636.68
1658.69
-611.967
-1046.72
1974.81
-1962.52
-12.2938
219.004
-542.386
-355.748
580.01
-781.866
-331.805
-356.409
1012.69
732.679
-1541.42
808.743
338.407
-26.1016
1682.92
-1118.82
440.767
-1273.99
501.87
-61.5463
1573.13
1246.16
-490.386
-247.067
-22.3588
-290.827
764.102
-2022.95
-730.09
363.566
-557.745
194.179
52.9622
-200.505
1182.24
697.072
-1879.31
-632.069
201.578
976.908
-1555.72
-200.005
600.157
-400.153
880.507
1119.49
-761.491
1400.85
625.324
-491.253
-134.071
-366.338
1215.46
1064.56
-1980.77
916.205
-1215.88
570.458
1547.04
-609.608
-387.278
-172.086
-1288.1
599.525
1206.42
-46.4728
982.8
805.364
-1788.16
-221.764
602.547
-1601.58
999.037
507.79
949.346
-1457.14
637.759
615.312
401.327
-1145.17
321.232
1149.6
448.73
-248.231
-200.499
-1228.66
-1820.78
-1.20214
-1730.47
-227.642
-425.764
1668.1
-648.917
-1019.18
-488.801
1051.45
-1367.11
663.807
703.303
-1412.22
1494.35
-1380.27
618.777
1579.46
-407.843
-596.853
209.575
-1509.2
237.792
172.671
244.907
380.418
432.649
427.419
-860.069
529.079
-973.333
935.476
-1501.6
-724.332
256.042
468.291
-1081.75
486.217
-487.506
898.503
725.203
31.0651
-552.935
191.712
-917.635
-1366.2
-740.835
365.429
375.406
423.302
-752.9
329.597
-362.178
-142.844
-442.326
743.622
1598.65
-615.853
837.48
769.163
1345.75
-832.614
-1007.62
-593.963
-831.08
444.065
387.015
-1075.71
-659.493
316.541
342.952
-1343.7
-225.776
-821.907
415.638
406.269
-676.909
406.69
270.218
-706.409
291.242
427.891
506.017
400.05
458.668
488.389
386.412
608.767
-981.274
696.385
494.564
428.743
316.137
-744.88
1691.95
-1117.74
-574.209
-525.945
-288.363
-1069.2
461.402
340.016
424.025
615.685
-1039.71
-1432.63
783.717
-558.466
1189.96
374.549
-66.0385
427.724
-901.062
473.339
-1907.64
290.714
408.084
-648.872
240.788
-193.265
421.371
-228.106
-689.762
323.071
366.69
-698.012
334.514
377.133
405.127
631.205
-1040.76
783.689
686.088
-1469.78
452.94
650.219
289.86
289.276
-579.135
406.977
313.028
602.724
677.473
433.413
601.876
-1056.07
454.195
-1709.09
1171.97
537.116
1752.87
-565.901
646.97
-1193.1
546.129
-547.657
307.689
455.303
-973.675
518.373
774.216
-450.434
348.859
354.684
577.707
-951.019
675.953
-1303.29
627.341
401.691
764.367
-1273.84
800.209
529.861
-1330.07
493.356
432.018
-925.375
-523.022
-970.53
-317.393
655.852
342.867
540.513
-883.381
324.931
300.726
-522.45
2013.43
420.267
-789.434
369.167
-953.02
-838.441
-778.669
384.517
-1260.52
465.234
-1789.74
1659.37
130.366
1808.95
-1657.56
-151.385
-811.396
-597.776
273.521
324.255
-1789.12
2019.46
559.913
822.809
-1382.72
456.462
744.155
705.905
382.632
-1088.54
-50.7371
1678.93
-618.063
412.563
844.24
-511.235
276.047
235.188
-390.612
-198.16
338.36
-233.07
453.714
243.999
-541.405
297.407
266.806
-569.282
-297.058
460.03
-1074.11
614.084
560.867
1131.09
358.923
604.39
192.25
159.564
-351.813
1667.04
-934.361
1756.58
-1578.82
-177.757
-330.97
-857.184
432.995
853.545
-1053.55
-621.92
290.682
-1128.59
1689.46
-1616.5
-67.1739
1683.67
-348.399
-358.232
-381.471
556.677
623.648
-522.982
-32.0704
-494.426
495.972
-279.238
-216.734
1787.31
-1333.68
-617.511
302.719
314.792
421.156
361.743
755.795
-290.451
-413.24
-1808.95
1747.4
476.624
-1143.92
667.299
-38.6109
1675.29
572.515
446.384
-1018.9
68.7193
1188.2
-1509.36
-2.73961
-1904.9
228.561
-536.802
263.93
272.872
-859.612
575.697
-935.897
488.77
-1173.14
700.806
472.336
393.3
289.773
-791.664
-315.436
1265.84
920.601
727.788
-1224
474.81
749.194
513.532
729.245
-1242.78
-364.031
-251.19
417.217
-1000.03
456.468
543.557
21.8184
-1950.04
1123.29
-483.893
-509.61
580.3
-1432.56
852.258
-437.702
830.75
-420.421
508.558
-1034.03
1883.21
403.199
-179.118
139.052
-169.708
-246.907
416.615
1963.19
-522.854
-1737.95
1084.15
-436.459
238.298
-1054.59
575.61
-309.474
567.469
938.569
-1506.04
-1064.68
438.165
-20.9297
-2019.09
1717.32
-652.762
-474.246
479.911
-1238.95
759.04
198.031
220.236
-205.104
796.879
729.517
815.155
669.898
-353.76
1126.84
-520.718
465.351
-186.258
-279.093
-1996.55
-644.039
-292.803
-330.775
-1.44441
332.219
435.835
-258.234
590.248
1076.79
-826.996
961.32
1294.23
-441.547
-204.262
-261.735
465.997
954.957
-908.775
-346.009
-1109.83
636.02
1612.15
-823.8
560.405
969.372
-403.194
765.826
-362.631
1162.37
-219.937
326.379
1403.11
-731.799
-231.85
468.209
-1247.29
779.08
-979.969
-175.718
1155.69
460.522
-994.913
534.391
196.359
187.764
260.966
808.92
-126.859
886.392
-442.08
1120.7
-738.065
574.914
-1522.89
947.98
-1258.74
1865.7
-443.803
-1564.57
912.069
-1457.06
-331.072
-419.726
1514.48
-1580.95
817.261
1547.28
201.199
264.152
-367.494
-1789.74
-312.345
-1026.35
1616.6
-1815.75
1815.75
1601.94
-1045.1
-661.644
-350.639
351.567
607.264
-368.87
-375.249
-1442.97
929.83
1165.13
625.197
1163.09
1853.31
-1258.34
-628.897
249.577
1721.19
-1988.59
267.404
845.497
-1316.87
1604
-585.768
816.97
316.123
-345.069
576.69
826.46
632.408
1400.25
-235.551
-462.558
-371.53
335.657
-222.148
490.887
766.236
-309.033
-157.585
-337.672
591.446
-253.774
26.9229
-387.302
1147.46
-1785.51
-468.611
-499.634
-590.571
898.809
713.338
-1658.15
937.785
-470.075
-637.133
-533.62
1301.51
359.265
1788.27
-1766.46
-1719.06
1962.52
-1590.03
864.131
725.898
-373.958
-1863.17
953.36
606.098
851.719
-419.483
1862.57
-707.603
-414.119
685.059
463.38
-1148.44
-1142.77
463.033
783.125
-1677.96
493.629
933.729
166.458
-368.824
202.366
-1620.1
-400.893
-431.385
1016.8
-692.379
1498.97
-974.19
1854.7
233.491
-548.994
496.901
-295.702
492.163
924.408
565.985
1013.47
-481.653
-440.761
597.576
916.901
-1308.63
-35.0744
1627.2
-858.038
541.956
1005.32
-1533.57
-1072.33
1791.36
-1240.45
-550.914
1254.88
-332.991
-921.885
-181.784
437.412
-255.628
-463.113
-248.237
424.454
-176.217
151.142
-402.333
1752.05
-1753.25
-469.379
-553.998
-932.119
410.216
-186.485
-223.732
427.437
-459.232
-358.864
-331.818
690.681
-987.552
439.181
-1174.8
685.996
399.949
-650.989
-448.939
1627.88
-881.447
552.474
-476.511
-592.897
-481.216
43.4088
-41.2424
-2.16645
-1136.89
439.741
-691.198
-1071.99
1763.19
-611.453
-1478.32
742.637
585.232
-1657.15
1071.92
-391.171
-485.566
172.627
540.614
-1307.99
774.367
562.473
1041.52
-2208.59
1025.08
1183.52
-370.647
54.6737
-48.9141
-5.75955
1535.36
-393.798
467.472
1144.18
605.993
941.049
590.668
548.11
-1138.78
170.311
-450.515
-1713.44
274.557
1151.49
-628.826
540.415
1050.76
-1591.17
1131.32
-1705.53
175.271
730.147
560.749
-906.757
-1097.87
-108.493
290.747
-182.253
-508.045
-438.529
-661.481
-409.774
204.67
-1681.12
976.08
-495.011
200.569
-379.686
537.319
-308.758
-617.662
1244.78
-1314.87
931.66
383.211
-1025.81
-373.909
-780.742
-850.299
1749.11
-495.747
1798.29
-1593.07
-205.221
-1615.75
1054.81
560.936
-748.332
-134.508
247.633
-113.125
-604.937
397.184
288.53
-685.714
-544.592
1022.21
651.794
-361.112
-1664.58
1082.79
595.699
1142.44
-1738.14
-421.842
-308.046
-381.715
-768.828
-475.317
-340.254
516.521
1617.51
-1032.28
-806.032
1555.3
689.013
-324.154
753.199
1189.68
-1942.88
297.483
325.38
-505.842
-2005.55
1785.59
219.958
770.22
-492.287
-277.932
554.68
1098.26
-1652.94
43.4088
-1733.21
-241.877
1814.87
-1635.27
1113.79
521.478
-1739.8
6.58506
-541.972
54.6737
1764.66
-1785.59
975.656
649.19
-1624.85
222.243
-136.107
-86.1363
-416.291
-290.118
58.4923
36.4169
-170.925
-452.119
-451.212
-424.729
231.464
1558.76
395.612
-238.886
-438.023
384.829
-157.966
341.849
1567.79
1099.63
-238.361
-861.27
-1144.51
1769.16
-1794.74
1103.54
-735.044
-1059.7
-1308.02
1910.67
-602.656
1197.18
-1837.6
640.421
139.14
-911.784
1738.62
45.2669
-1783.89
-512.108
-1119.11
-1752.05
-1013
572.237
1055.68
614.628
1173
-1787.62
296.485
-474.34
731.974
-397.459
381.03
960.441
707.029
-408.351
-647.72
607.27
1110.49
-1717.76
-412.471
-387.877
800.348
448.041
-1725.26
1578.82
146.44
608.963
-1086.27
566.811
1122.64
-1615
1029.23
-249.831
247.098
332.912
1974.81
432.149
-91.9547
1024.76
741.75
-1766.51
-720.542
1123.28
-1616.62
168.378
-586.551
172.689
212.141
-667.445
-593.072
606.393
1072.54
-699.988
-290.436
-1422.59
703.313
719.273
-364.04
825.66
122.526
-948.187
583.821
-142.595
1615.72
-226.697
278.041
-797.235
-2005.55
1727.02
1009.16
60.8294
322.731
451.485
-966.685
-1029.87
-1830.47
663.146
1757.07
533.168
-493.562
1259.8
1127.52
-434.507
1041.77
-1018.53
515.605
502.926
727.391
1087.62
-1815.01
508.057
498.567
-1551.08
-777.574
31.611
812.913
-428.396
-920.748
411.138
-559.682
-834.495
152.553
-600.146
1452.4
1094.8
142.298
148.449
-574.226
1680.6
-801.044
1584.73
-1792.17
599.035
1193.13
568.906
-919.341
-1798.42
1988.59
-190.171
1777.96
179.178
-564.232
121.646
-85.2294
-501.364
1260.4
586.752
1166.12
-488.984
455.225
893.983
-483.65
-806.073
440.494
365.579
1473.07
1130.38
-540.3
1478.08
-460.634
-396.754
857.387
-627.646
529.522
-1244.48
1756.58
1903.51
-713.833
1646.98
-671.323
-1290.84
746.249
-585.586
108.904
-192.593
340.219
-172.946
-540.56
-1290.23
1937.97
-647.737
1219.9
-572.93
1156.89
-1722.79
1749.72
-598.124
-565.758
-572.64
1783.12
-330.33
-716.714
-494.718
1273.8
-1745.1
-1927.01
636.78
361.014
-1005.26
168.826
217.664
-1781.78
1245.05
536.729
1204.25
573.706
-530.932
-487.986
1237.18
184.658
236.713
609.653
1293.86
-559.917
-1280.94
1840.86
-1064.3
1057.91
876.235
-211.413
-1721.19
1766.46
-531.885
1465.61
-1798.42
-385.649
9.02357
376.626
-277.895
610.515
-332.62
103.831
506.386
813.683
-390.38
1299.6
1281.06
-427.519
887.817
-454.822
1885.26
-688.078
1645.68
-1788.27
-428.35
-767.802
300.24
467.562
-581.129
-586.729
50.8011
-923.852
-1023
-695.864
1718.87
-973.82
-1234.77
153.152
-426.087
-674.467
732.265
1209.73
675.526
1465.69
-613.971
1661.05
1369.86
-595.488
-498.777
203.075
-524.88
1449.29
1289.03
-585.719
-924.284
930.689
54.0628
-984.752
542.476
-527.708
1457.54
1553.39
-612.341
-43.8289
43.8289
-613.448
1685.37
1290.3
-507.179
1158.58
-52.811
1850.69
-343.049
1547.76
-612.283
-528.309
1392.44
-679.747
1266.8
-587.053
1614.89
-615.85
764.538
605.167
-1369.71
-655.44
303.239
498.725
623.974
-2026.25
-1019.8
1645.68
43.828
-43.828
-76.2905
406.941
453.081
401.585
-23.7105
-263.729
925.899
-524.209
-441.557
848.499
-254.936
644.245
-413.987
1560.87
-460.321
-869.407
168.256
190.517
-358.773
624.278
1293.06
-1917.34
965.756
-476.986
-41.2424
130.693
-2013.95
1883.26
-471.042
193.793
1218.93
-460.917
-758.008
-323.203
-597.545
-509.977
-48.9141
-454.024
237.29
1204.57
-580.922
236.665
-394.432
157.767
-5.5053
-83.9542
600.631
-516.677
12.8225
-307.327
-610.623
-62.9409
62.9409
-1221.41
1963.16
-1184.1
-233.319
-1825.96
232.888
-1060.55
-1008.9
-187.939
-1700.59
733.903
1273.32
-1995.43
387.51
322.342
-709.851
-1916.17
1277.37
638.806
-99.4732
99.4732
-994.522
-8.26727
-1935.02
-581.696
1712.78
-704.573
1698.52
-625.981
-196.259
-1708.64
-603.335
-445.071
-619.173
-69.1563
69.1563
-1592.83
202.436
1390.39
137.024
160.843
-297.867
595.701
503.931
1037.61
-494.049
1813.91
800.205
-157.147
151.387
540.153
1766.35
-618.888
-576.391
1699.04
422.266
1879.99
-670.258
-1872.99
-2005.19
-672.208
-73.0744
73.0744
-617.356
245.826
-696.128
1060.26
-484.647
-1112.43
-296.74
788.866
1918.13
1695.06
-1695.06
-281.019
770.285
1825.75
618.354
1319.61
109.832
112.411
622.344
583.024
785.592
-785.592
227.846
-365.39
-449.626
354.439
990.195
-474.59
-665.707
-1170.76
1769.79
293.562
-1678.06
643.836
-287.854
467.032
1809.34
-616.211
-138.018
-432.642
401.242
748.362
1803.39
-638.259
-533.516
-770.951
2029.24
-901.58
-1127.66
1705
-546.181
1266.76
-1891.23
624.472
367.525
-916.519
-165.837
-19.2333
1141.45
-505.425
132.494
654.34
-1674.24
460.801
635.187
-1872.99
-606.735
1851.79
918.754
-1203.66
1825.37
-621.703
1848.39
-598.789
-1249.6
464.451
931.121
-1753.25
958.673
-1472.58
227.265
1245.32
-864.59
-1297.82
-132.514
30.9933
101.521
605.68
283.134
1063.7
-465.403
881.396
-415.993
853.766
765.698
-1619.46
668.182
1107.5
-2.71173
-375.088
377.8
-1811.14
751.437
720.622
77.1217
-1162.43
2006.36
-699.699
-1306.66
-560.601
1726.72
854.857
1000.04
-1854.89
1271.51
709.453
-417.4
740.471
841.197
1070.08
-609.558
1825.75
649.638
1838.16
-1226.56
-611.6
-377.212
-348.389
725.601
90.3196
-988.435
1721.55
-564.659
-629.144
629.144
1292.93
617.742
1400.68
216.827
-564.087
290.931
-198.81
725.892
1154.1
500.955
-316.297
-904.046
-597.551
1746.66
-1746.66
496.808
-496.808
1022.74
1061.65
-2084.39
1904.41
-637.651
-604.456
850.099
-980.966
-1089.59
1036.4
717.442
-1753.85
-82.5744
-379.331
-649.094
-837.719
2115.09
-1289.92
-637.087
1037.93
1009.18
1335.5
670.856
341.361
1048.28
235.042
348.28
477.588
1820.57
-1820.57
660.063
20.1413
-148.239
-1032.64
-564.642
1723.22
989.686
1010.31
-1899.48
-232.124
-371.212
632.926
-358.369