/*--------------------------------*- C++ -*----------------------------------*\
  =========                 |
  \\      /  F ield         | OpenFOAM: The Open Source CFD Toolbox
   \\    /   O peration     | Website:  https://openfoam.org
    \\  /    A nd           | Version:  7
     \\/     M anipulation  |
\*---------------------------------------------------------------------------*/
FoamFile
{
    version     2.0;
    format      ascii;
    class       surfaceScalarField;
    location    "28.5";
    object      phi;
}
// * * * * * * * * * * * * * * * * * * * * * * * * * * * * * * * * * * * * * //

dimensions      [0 3 -1 0 0 0 0];

internalField   nonuniform List<scalar> 
11512
(
154.27
-514.008
359.738
-767.386
-16.8523
784.238
434.508
-395.766
-38.7425
664.038
263.337
-927.375
1560.98
-1105.96
-455.027
1177.54
-1456.15
278.611
-47.7045
502.87
-455.165
169.879
-859.841
689.962
988.89
-1660.57
671.683
-1784.87
1696.73
88.1313
-569.434
1746.97
-1177.03
1996.52
-819.491
606.133
173.145
-779.278
-22.7632
-1347.65
1370.41
228.264
-2013.13
1059.02
-392.947
-666.076
-179.617
333.887
478.668
174.334
-653.002
1194.95
-1355.75
160.802
-318.768
391.573
-72.8049
1037.81
-1343.74
305.929
1260.37
825.02
-2085.39
70.6093
-1680.5
1609.89
-519.038
-1145.79
1664.83
458.409
156.877
-615.286
-197.964
-316.043
513.377
1047.61
1686.82
-1843.02
156.203
-111.28
-1684.54
1795.82
-1609.49
669.644
939.849
-315.054
675.833
-360.779
-98.0985
-94.2221
192.321
1316
-1245.39
369.867
-1453.22
1083.36
-1025.12
1025.12
95.33
1565.21
-1660.54
-1110.64
-498.854
679.394
-727.099
-395.444
973.045
-577.601
1205.72
-1199.34
-6.38855
-1137.37
741.93
650.894
408.13
-399.224
-44.688
443.912
-441.132
788.667
-347.535
-891.655
891.655
1181.38
-1308.58
127.206
-504.221
1764.59
1298.71
-325.668
1708.39
-1190.13
-518.255
84.9066
-403.675
2130.49
-1170.38
-960.108
1853.81
-166.992
417.579
125.607
-543.186
-463.428
999.957
-536.528
-1196.39
1291.72
-586.835
1003.81
-416.973
417.507
777.44
650.526
-480.647
-451.678
616.744
-165.066
1230.03
-860.165
2375.42
-1112.77
-1262.65
1200.74
-2072.16
871.417
-1639.33
1616.57
455.171
-1632.2
-621.07
1109.24
-488.168
-696.168
381.115
1712.64
-723.747
-1138.08
-895.654
2033.74
687.115
-377.386
-309.729
712.608
586.105
-267.485
1448.86
121.691
-331.963
210.272
-283.413
741.822
-280.718
449.522
-168.804
-327.863
806.531
-328.192
-155.487
483.679
342.2
92.3085
1490.54
-452.734
-1001.79
506.053
495.74
290.648
91.9238
-382.571
956.551
-350.418
-1749.03
608.831
1140.2
33.0429
-879.057
846.014
-275.285
588.465
-313.18
162.57
-1130.28
967.706
833.981
-846.17
12.189
384.19
535.052
-919.241
-236.773
654.352
-1138.75
-499.171
1637.92
-463.499
700.41
-236.911
1349.32
-1460.6
-646.038
296.105
349.933
-488.099
-1026.2
1514.3
-558.992
-817.166
1376.16
582.548
-993.254
410.706
-115.588
-191.465
307.054
423.434
-301.743
-1069.36
605.931
987.307
-824.737
-93.0344
729.102
-636.067
-180.875
371.756
-190.881
-631.899
-369.893
-396.91
979.458
1160.71
-1160.71
-465.476
-180.562
-944.45
1580.18
-635.73
328.141
-734.93
406.79
-954.442
367.607
-964.264
-1087.97
-1534.24
364.919
1169.32
-272.528
936.566
-313.647
634.127
-320.48
-1994.57
1030.3
-1164.94
-369.295
582.721
-1527.17
1781.91
-1780.31
-1.59832
227.477
-626.559
399.082
-1483.84
976.328
507.513
301.315
218.733
-520.048
289.007
-569.725
172.001
-278.49
106.489
2038.53
-845.034
-1193.5
-566.534
167.31
640.25
857.37
-1497.62
-146.937
318.938
446.551
905.069
-1351.62
-941.173
409.92
531.253
-1076.76
1494.27
-791.799
170.729
780.159
-104.326
556.997
-277.731
-279.266
1027.71
-521.656
615.824
-1450.46
834.636
-1386.83
248.082
-520.308
245.024
-1207.37
934.84
2013.69
-1143.46
-870.225
254.459
906.249
-2158.69
921.118
1237.57
196.157
-14.5833
-181.573
-161.783
315.94
-154.157
-118.985
-389.609
508.595
-483.716
155.524
287.739
-52.5038
380.644
421.97
404.814
-826.784
-2052.69
1140.25
912.439
476.085
-552.561
76.4755
140.901
-211.003
70.1012
966.334
1072.2
1819.99
-254.782
739.266
-443.161
822.816
-1435.88
613.067
357.931
329.184
1077.69
-1044.65
-514.074
-256.95
771.025
495.057
-142.064
-352.992
701.695
-528.55
615.501
-812.046
196.545
522.665
1185.72
-1281.25
722.26
1027.11
-1546.15
1.68805
-1482.69
1481
335.567
852.918
-1188.48
613.718
245.473
-859.191
-2275.96
1178.78
1097.19
-1122.87
-1153.09
216.323
399.178
990.5
-654.933
644.158
-654.756
10.5977
-2159.33
1021.24
-82.7681
-95.9456
178.714
-44.3608
1826.27
-852.054
84.6687
-1058.32
-1100.37
-169.075
309.976
-683.893
218.417
-279.753
-427.649
707.401
1133.66
-1621.76
806.116
-1419.42
613.306
710.745
-447.409
1922.09
-1399.42
-327.016
-698.099
75.6558
427.214
-550.924
534.071
4.88473
-582.232
577.347
591.162
-289.847
-572.859
273.959
298.9
806.688
-384.718
16.3237
179.833
1224.54
-1222.86
187.183
236.251
396.673
-676.426
638.493
-1035.4
-2087.37
2087.37
-265.374
-452.955
718.329
720.009
402.76
-1122.77
598.776
181.383
407.762
398.926
-2262.68
1367.03
-956.127
-700.921
1657.05
-479.845
-727.523
-259.515
557.547
-298.033
874.048
-228.062
-645.986
-442.025
669.502
390.86
-704.507
-358.223
-149.098
507.32
-1353.6
-489.419
663.341
-1143.19
-314.823
-576.832
868.927
1506.5
216.214
-390.09
173.876
999.427
-348.533
1437.39
-821.568
462.246
-275.062
-342.397
-911.028
599.104
311.924
-359.974
-551.054
317.223
-436.209
-189.737
-121.482
311.219
-405.387
1125.4
386.737
-212.403
-327.812
1387.82
-185.667
-1202.15
-486.61
283.221
203.389
233.416
255.972
-489.387
4.12149
-816.168
611.837
-1781.97
1170.13
1528.15
-887.905
-1048.66
-435.185
-1093.57
592.429
501.137
1404.55
-428.223
958.726
-1457.9
-168.171
-218.121
386.292
-475.651
602.36
-1679.12
411.164
794.56
287.903
299.898
-587.801
466.944
558.171
1142.06
-741.405
-400.654
390.641
-208.088
-182.553
-1457.62
459.916
762.842
-1222.76
1521.67
-562.942
-487.355
944.218
-456.863
442.432
1217.98
-1660.41
17.4691
-480.968
-149.224
439.872
73.4934
-171.592
532.317
495.393
-645.726
53.7703
591.956
941.16
-1150.92
209.764
684.63
-276.867
485.82
-1493.72
1007.89
422.444
1739.67
-538.932
827.243
1186.44
-686.105
-1738.83
782.704
590.908
398.633
-989.541
466.386
82.8802
1803.6
-1886.48
1344.11
-383.832
-960.274
1751.48
-1795.84
-380.958
-529.804
745.022
-215.217
-514.991
192.298
302.759
-379.536
-1243.24
217.039
-792.272
-658.188
-603.611
1057.74
-454.127
-404.119
398.617
5.50193
521.475
-673.839
152.364
-238.95
69.8829
169.067
-670.36
-707.227
359.521
347.706
-959.602
1445.42
-421.281
911.4
-490.119
-2268.74
6.05673
190.434
-557.425
366.991
155.554
1232.26
-108.228
-575.666
167.58
-619.259
1535.16
-729.044
388.122
-482.555
94.4336
-114.377
114.377
572.438
319.217
1834.36
-1269.9
608.711
661.188
735.545
-33.8499
1332.82
797.671
-558.408
1381.22
283.852
304.613
293.368
-823.173
257.83
-698.962
206.245
-379.981
173.736
-250.586
605
-354.414
129.268
-379.854
-611.627
-583.929
1195.56
-366.245
544.915
-178.669
-1178.14
2047.69
-869.551
1333.05
-342.552
-151.567
35.9784
-1988.17
842.386
1558.79
-849.784
-709.008
2047.28
-904.819
-1142.46
737.171
595.88
-223.795
430.04
-675.85
1164.12
-488.271
-795.151
1241.7
569.288
954.098
-1780.16
826.061
-544.618
-86.2694
630.888
307.636
249.362
428.087
-104.957
-323.13
684.513
-65.5973
-618.915
937.194
-562.013
-375.181
1623.63
-489.97
914.865
-1677.94
763.074
1090.87
831.217
775.881
-461.713
-314.168
-940.494
-258.842
571.553
603.819
-1175.37
-453.109
514.829
-61.7202
598.212
-359.382
-238.829
-1014.05
592.772
617.291
910.864
-424.515
945.99
1449.61
-789.049
-660.566
414.174
-958.076
543.902
-1049.87
417.973
576.489
-1063.84
476.712
-535.339
58.6268
491.153
297.513
-96.2887
-18.0887
-820.837
-904.325
1725.16
190.842
199.799
-238.452
454.775
-45.8146
-554.67
600.485
495.043
899.194
-1394.24
-493.908
304.171
719.195
-34.6819
864.419
-1100.65
236.231
391.731
873.837
-1432.24
-455.335
860.149
2039.84
-1323.62
-716.22
221.989
422.169
223.25
610.731
108.946
-994.02
885.074
1725.12
-1119.7
-605.417
-143.619
1947.22
-1922.37
-164.997
427.759
-533.171
105.412
-1049.91
543.664
506.246
-1644.54
466.399
-927.881
834.846
404.306
212.438
447.588
-231.374
-442.5
737.03
262.397
48.9284
801.31
-850.239
-1154.97
-877.129
2032.09
-537.023
1124.32
-587.298
-474.473
-105.159
22.3905
-1706.84
886.006
-827.734
-646.977
1474.71
-257.414
-260.777
518.191
369.055
-670.34
301.285
241.359
-626.077
319.713
221.269
-540.982
358.607
-618.121
638.929
-269.873
323.672
-479.159
679.736
414.709
-181.293
-399.785
-307.442
1249.17
-9.69738
-1239.47
1072.37
-433.877
578.317
425.491
-1778.91
841.639
937.268
515.317
557.418
-1072.73
-386.585
129.171
-271.21
1218.86
-947.65
-1520.54
1193.52
518.799
-1130.43
401.926
-13.804
426.704
317.349
-744.053
374.782
-611.555
-28.8715
779.197
-750.326
-425.262
670.735
386.27
296.018
439.527
677.105
92.3084
-407.347
315.038
900.758
-520.534
-380.224
512.204
-1714.83
1202.63
-1173.04
1807.2
-634.156
1768.33
-1156.5
-333.571
607.53
-1183.86
1292.8
275.148
-826.441
1645.35
-818.91
-258.205
-228.405
-955.161
1517.22
1869.25
-631.715
-1237.54
-419.39
766.754
-1370.36
-62.697
-43.6456
471.733
-703.37
-361.06
-1159.48
-234.461
475.82
838.464
-582.003
192.393
-1726.6
-74.1665
1800.77
-1088.74
551.715
591.918
-1219.54
627.623
930.623
938.631
597.005
512.233
705.243
238.975
-1160.13
484.283
-420.046
424.931
643.665
-532.728
261.801
-761.272
499.472
700.137
-342.206
-229.639
135.417
-615.475
229.635
385.839
-918.71
-759.229
1116.63
-2204.6
408.711
-692.124
-307.782
-538.388
862.779
586.835
-362.374
317.686
364.353
261.244
679.26
-940.504
525.973
638.148
-550.782
192.56
364.569
-629.943
-1129.77
-806.502
1936.28
-1843.4
162.898
1142.83
-1414.04
1187.74
-720.147
-467.594
-520.663
1394.5
-1542.24
650.66
891.584
-138.423
-131.728
270.151
1471.46
575.822
340.571
-489.668
-504.999
-580.674
1085.67
-430.809
621.242
1633.09
-1164.67
-468.415
-794.996
342.041
526.071
374.687
-1672.79
432.565
1240.23
-208.297
528.01
823.744
809.345
215.013
-703.488
488.475
189.357
182.4
-210.743
-85.6019
296.345
494.441
-6.89625
-487.545
-1660.84
612.189
-1621.14
1697.56
-76.4156
18.2079
-1639.35
1029.28
775.966
-349.262
-821.243
-228.63
-1173.13
-246.287
-317.099
691.882
-1870.22
-641.359
1245.18
213.398
786.559
-1371.86
-700.297
-481.763
619.321
-331.419
-1040.25
1391.65
-1992.83
601.174
666.849
1329.67
317.143
-1.20297
743.958
717.147
-1461.11
-662.735
351.798
310.937
298.602
-72.4699
-226.132
162.79
301.358
175.345
-476.703
-591.45
1182.36
460.218
-631.778
-470.213
-415.156
885.368
-344.595
176.424
-476.364
174.622
-317.442
-732.469
360.27
-61.668
-586.528
1000.7
308.738
-161.654
-147.084
469.152
-797.015
-669.9
445.339
-1160.59
-850.925
1215.84
-585.384
470.939
300.086
-458.76
81.3737
1057.57
-168.867
358.457
-189.59
-521.661
1550.94
-782.698
249.593
387.276
-636.87
231.348
488.573
-27.4616
-461.111
-262.462
-213.902
856.537
1140.27
584.843
-891.873
970.609
-78.7357
-184.775
46.3527
-746.142
318.493
-641.605
320.44
379.697
855.044
-1258.4
403.36
804.831
-833.702
-964.647
-571.352
1536
-168.494
468.392
-552.012
274.281
1375.58
793.617
-578.604
1344.71
-681.37
486.338
-693.917
-420.747
-430.034
-387.268
817.302
518.589
-869.007
-461.002
96.6508
364.351
-225.327
592.938
747.43
-338.72
-209.915
-159.035
368.951
-510.157
152.716
357.441
1502.5
81.7556
-1584.26
-771.893
1389.18
-1182.15
-478.42
559.827
-172.551
1187.58
-382.753
1113.29
510.336
718.924
-425.556
-911.28
-541.944
-1348.48
-32.0579
1017.78
-985.72
605.086
346.754
-951.84
-332.478
-234.056
-767.24
417.693
1669.68
-189.911
373.968
367.746
-741.715
-1896.79
-2167.93
1562.64
605.29
-2041.43
356.891
382.667
540.535
-923.202
-476.439
1054.76
-417.717
-674.413
1092.13
-2089.52
1430.69
658.834
602.112
-1019.83
62.1671
414.545
376.497
208.473
253.772
320.079
984.779
887.289
702.095
-337.395
-364.7
-302.437
637.671
-335.234
595.113
546.946
566.905
482.687
-1049.59
-818.632
-723.613
778.812
408.771
-423.736
725.021
-1225.74
1658.3
445.391
-1119.8
-335.254
556.523
-1420.01
925.008
495.005
-714.742
-295.517
-859.305
384.324
474.98
462.335
742.346
-1204.68
1103.91
-588.595
-409.049
682.646
-273.597
159.004
149.734
-483.832
-447.676
931.508
-252.109
561.576
-976.625
415.05
-440.138
618.308
-1731.08
437.81
693.655
-1131.47
543.257
90.8704
116.939
-2276.27
566.243
-95.3043
1490.59
1827.9
-222.986
-1604.91
-452.14
1843.79
-2049.51
1231.64
817.876
420.071
355.811
-27.2635
890.043
-1326.75
742.825
-898.987
-851.613
819.555
322.333
57.3289
-379.662
82.773
92.0509
-174.824
1596.82
-852.864
-860.864
-299.844
495.216
-205.001
-290.215
393.056
348.766
257.212
362.109
-7.84148
1033.29
-1025.45
377.909
290.335
-668.244
-756.096
1872.24
-1116.15
-348.959
742.015
-1243.98
-416.552
-948.267
500.591
591.838
-801.258
209.42
788.729
-395.18
-393.55
-427.13
-464.743
452.749
1102.46
1276.33
-684.41
825.254
-356.102
387.535
330.795
-262.001
-220.555
-225.578
648.022
421.298
-877.929
456.631
223.688
362.996
-586.685
-437.986
859.283
780.239
-1185.63
900.585
-45.5409
-511.941
296
781.69
-98.524
1428.19
1944.83
-71.8076
355.029
-323.242
415.55
-1120.12
1112.28
635.121
388.352
400.378
63.034
432.182
281.539
502.699
-382.414
-280.32
-335.55
-68.5689
-369.445
381.621
-12.1761
-249.627
-270.681
1041.04
-1589.98
548.944
-201.636
-194.129
-387.498
677.834
-1677.37
1640.27
-989.612
275.563
-696.31
602.973
1258.64
-1861.61
629.698
1010.57
319.903
-1156.16
713.656
-289.916
-297.885
1405.38
-1487.19
844.199
642.996
420.829
-645.375
224.546
-374.214
495.677
-121.463
376.154
118.288
1779.12
431.134
-241.777
577.108
-1756.27
1179.16
-92.861
401.927
351.456
350.639
-463.15
-635.559
1098.71
438.649
-893.985
-662.839
931.161
590.507
-121.372
-117.578
-455.295
-422.634
-319.489
-853.646
1120.42
-1120.42
-97.3357
-1611.94
1709.27
301.77
296.441
-944.536
-575.599
1520.14
-415.599
982.503
-623.973
-1036.87
690.982
412.358
-1103.34
491.847
-168.176
591.01
1254.44
-1845.45
-1048.03
2114.29
-1066.26
-385.341
-310.827
-493.868
835.91
-1801.5
1647.75
153.754
1801.5
-1649.72
-151.776
-241.651
518.585
-276.934
-556.269
1669.56
1594.72
-2011.27
1108.95
-287.504
-267.304
554.808
253.361
-588.615
-724.578
300.842
1384.08
655.758
595.209
503.59
-1098.8
295.715
423.209
899.966
515.963
-1415.93
547.006
-1052
1624.95
-583.907
-774.121
-373.085
-124.776
497.861
-506.825
1249.17
-770.048
323.919
330.433
370.237
269.64
-639.876
623.598
859.113
-622.882
283.439
687.169
-121.372
-322.62
-242.938
565.559
1201.78
-676.38
632.47
479.824
-1112.29
-979.85
979.85
-398.471
786.823
-298.615
-488.7
787.315
497.63
467.393
-965.022
400.273
-698.888
635.74
-897.95
262.21
-380.398
-514.227
1109.44
-684.922
-731.422
1416.34
-396.502
958.078
-1600.06
695.24
51.0775
-434.062
382.985
-509.068
727.485
266.664
338.336
177.595
314.252
-529.347
239.431
1928.86
-2027.39
285.33
-727.355
458.974
-850.166
391.191
-903.43
1440.4
-536.966
-445.005
-503.263
620.76
1157.6
-1778.36
-740.632
355.291
-474.655
1069.77
-790.28
1073.72
-324.701
-636.008
-488.646
746.476
443.317
-286.44
936.279
-311.749
-198.408
1645.92
-1868.91
-367.738
-608.887
-344.102
496.818
271.571
-602.989
-194.645
1087.93
-791.928
224.045
-298.855
-289.954
588.809
414.251
-905.6
491.35
-465.446
-459.037
-390.09
-345.908
595.031
-249.122
-466.502
-432.313
-336.462
-204.519
-394.175
663.814
-450.326
781.12
-1108.02
644.865
-1409.56
581.821
-28.2229
-1891.91
1920.13
590.624
-464.539
1246.76
-695.042
44.919
-44.919
691.236
-446
1036.32
-1660.3
-1191.81
-976.123
303.606
334.064
904.108
741.244
-498.207
-321.278
819.485
1708.67
-1736.89
-448.576
363.674
227.488
1173.28
-540.81
-970.938
1595.89
-624.947
461.561
-253.088
383.679
402.954
-786.633
540.678
494.399
-1035.08
-329.769
653.688
-39.2536
1968.12
1619.04
1022.86
-1751.91
750.905
-1217.28
466.374
-511.009
1410.97
864.955
-1385.62
-568.21
280.705
818.857
-420.224
575.044
-1226.51
651.467
-654.494
-1250.46
-717.358
1967.81
-213.816
569.042
-355.226
-187.66
302.253
-516.07
335.948
387.866
-723.814
-1526.46
783.36
743.1
907.669
-1479.02
855.092
-445.172
228.611
-377.835
-601.145
278.524
-705.267
-714.746
722.149
522.716
-1244.86
399.945
-208.355
-191.59
574.549
-991.522
-575.291
-428.978
747.471
-856.703
-1192.81
-1483.88
517.699
966.186
7.38996
-646.852
356.465
290.387
-1349.22
1080.04
269.182
-636.657
-471.358
-653.644
876.895
416.799
-212.173
-204.626
527.099
1009.59
-1536.69
1008.07
-307.923
105.881
202.041
-417.579
696.063
-410.732
-527.161
183.059
241.916
-1565.53
553.686
550.226
-769.265
260.198
163.941
-475.691
388.563
-847.6
2008.67
-1228.25
-780.414
414.638
-689.939
275.301
152.896
334.056
129.553
-463.609
-578.335
187.863
243.271
-716.443
1418.27
-701.825
436.811
492.806
-1207.55
268.959
1927.59
-1046.56
-881.034
704.676
-546.209
200.301
1421.16
-979.98
-441.179
352.336
-798.336
-637.732
1778.01
635.397
640.931
333.723
-11.3906
287.014
-1170.86
1778.36
-607.497
-1815.29
844.357
1783
-1708.66
-74.3425
-682.601
262.554
583.21
-732.219
243.573
1448.79
-583.831
408.909
451.24
-1915.7
1463.56
564.916
-428.557
-136.358
222.92
-559.382
-280.28
-194.193
-362.112
713.568
-593.544
220.458
621.686
574.974
-1196.66
1147.25
-2008.65
861.401
176.056
331.264
-1753.77
1714.51
333.374
-758.93
-169.579
398.19
771.567
704.19
-1475.76
1097.58
-1107.28
549.747
-1138.34
-653.542
264.76
388.781
535.712
-306.076
-636.238
-1024.06
312.943
-745.256
-938.052
194.828
169.684
230.261
394.083
311.419
-705.502
-644.497
-861.028
-1009.19
513.574
-1091.91
-293.954
497.343
556.997
658.846
-122.62
-28.9471
-412.495
732.398
288.471
-1236.49
591.99
1347.47
-575.903
466.345
-1041.64
-184.288
174.596
390.319
1053.62
571.33
-1729.44
1632.1
1653.58
-600.83
-1052.75
1962.81
-1950.59
-12.2201
213.962
-537.204
-350.204
574.249
-778.172
-328.04
-354.561
1017.34
725.919
-1533.47
807.551
353.504
-25.974
1671.9
-1110.08
433.698
-1265.8
491.676
-61.2194
1563.72
1238.57
-487.668
-282.116
-25.8062
-284.324
759.034
-2009.49
-733.899
359.857
-554.282
194.425
61.6325
-230.499
1174.47
692.559
-1867.03
-624.214
195.657
970.324
-1545.92
-210.207
638.58
-428.373
884.707
1115.29
-756.91
1392.31
618.457
-488.558
-129.899
-363.727
1207.93
1064.08
-1981.47
917.39
-1208.13
566.775
1537.26
-606.103
-383.253
-167.529
-1280.18
595.771
1199.96
-59.7537
976.568
800.336
-1776.9
-222.146
599.112
-1591.42
992.307
505.583
943.345
-1448.93
633.738
611.44
395.904
-1137.72
364.767
1142.06
517.412
-282.822
-234.59
-1220.6
-1808.59
-2.65997
-1726.78
-222.842
-422.533
1657.99
-645.102
-1012.88
-500.772
1097.78
-1358.79
659.632
699.157
-1403.52
1485.27
-1371.8
614.89
1569.44
-403.812
-588.143
204.89
-1504.26
239.143
177.92
239.025
379.432
433.809
419.932
-853.741
526.112
-966.616
929.245
-1492.19
-716.121
251.043
465.078
-1073.86
482.406
-483.674
892.583
720.775
32.4812
-544.637
189.411
-911.514
-1357.23
-740.849
364.356
376.493
420.938
-748.736
327.798
-397.171
-157.406
-497.35
739.276
1588.53
-611.958
832.761
764.061
1366.2
-850.233
-1000.85
-590.566
-826.442
441.865
384.578
-1070.53
-663.532
316.879
346.653
-1392.31
-252.225
-819.241
413.607
405.634
-669.181
403.171
266.01
-698.643
287.911
427.651
503.857
401.96
457.324
491.59
393.778
612.1
-991.636
691.358
491
445.883
336.474
-782.356
1680.27
-1110.02
-570.252
-523.062
-286.991
-1062.23
467.048
350.255
423.303
612.909
-1036.21
-1423.94
778.84
-555.104
1182.73
369.569
-68.2114
426.337
-896.717
470.381
-1906.29
294.357
429.023
-688.295
259.272
-192.185
420.285
-228.1
-686.05
321.601
364.449
-698.311
333.61
381.06
405.763
632.137
-1047.74
778.763
682.105
-1460.87
452.257
646.452
311.798
319.049
-630.847
415.955
326.06
603.86
676.609
425.853
599.013
-1047.79
448.777
-1705.97
1178.02
527.95
1746.1
-560.375
642.892
-1185.95
543.056
-587.719
326.942
453.035
-968.164
515.129
767.268
-449.919
356.162
357.406
574.537
-942.275
672.099
-1295.48
623.381
393.421
759.06
-1265.88
794.764
527.019
-1321.78
489.825
428.062
-917.887
-520.128
-963.757
-316.06
652.009
355.231
549.208
-904.439
335.962
317.727
-519.365
2000.36
434.65
-826.55
391.899
-946.763
-833.395
-776.187
382.637
-1250.83
460.547
-1779.46
1649.72
129.741
1798.11
-1647.75
-150.368
-811.397
-607.572
276.177
331.395
-1783
2011.27
556.857
817.273
-1374.13
455.565
739.991
709.742
391.305
-1101.05
-57.9943
1668.04
-614.427
406.58
840.177
-557.216
297.559
259.657
-390.21
-221.141
380.144
-232.633
451.366
260.745
-586.64
325.895
272.331
-585.511
-295.189
457.625
-1067.94
610.32
556.819
1123.45
368.534
610.924
216.373
182.929
-399.302
1657.95
-932.03
1745.56
-1568.95
-176.612
-335.241
-853.08
430.447
867.72
-1077.93
-626.565
291.331
-1121.04
1677.86
-1610.28
-69.9201
1680.2
-350.388
-359.925
-381.432
553.55
619.729
-520.536
-32.025
-525.121
510.988
-286.172
-224.816
1779.6
-1326.85
-633.443
307.841
325.602
418.963
368.175
757.221
-299.379
-411.831
-1798.11
1736.89
474.536
-1137.37
662.83
-39.761
1671.86
582.249
465.015
-1047.26
76.3401
1180.3
-1499.79
-5.7071
-1900.58
234.054
-568.896
282.943
285.953
-907.991
600.209
-930.605
485.601
-1166.17
695.954
470.221
385.584
285.723
-783.93
-315.386
1258.2
914.387
723.534
-1223.87
476.979
746.889
511.026
724.145
-1235.17
-363.558
-254.418
424.102
-994.106
454.02
540.086
21.5383
-1937.23
1116.6
-480.865
-505.422
577.066
-1423.67
846.599
-434.29
825.481
-418.864
506.164
-1020.15
1876.69
416.443
-186.182
155.489
-174.491
-251.353
425.845
1950.15
-519.459
-1728.89
1084.39
-481.384
260.243
-1048.42
571.979
-316.552
564.409
932.213
-1496.62
-1099.24
445.593
-20.8233
-2006.56
1717.77
-653.689
-503.96
477.288
-1231.13
753.843
196.764
220.035
-226.782
792.286
724.939
839.661
723.464
-386.99
1120.99
-509.828
480.858
-193.94
-286.918
-1984.16
-681.058
-308.151
-377.469
-1.73047
379.199
456.989
-269.127
585.151
1072.8
-822.27
956.892
1286.08
-439.473
-205.031
-255.264
460.295
951.969
-910.346
-343.72
-1103.34
631.984
1602.37
-819.012
557.341
962.795
-400.113
761.146
-361.034
1165.31
-238.953
327.169
1394.34
-727.464
-230.612
466.647
-1240.96
774.314
-986.897
-158.256
1145.15
457.527
-988.9
531.373
191.806
220.146
297.266
796.016
-116.756
883.66
-440.086
1165.41
-774.105
571.601
-1513.28
941.683
-1250.41
1853.39
-441.026
-1553.54
905.998
-1447.94
-324.472
-419.581
1504.89
-1571.38
812.154
1537.37
206.685
274.173
-363.22
-1779.46
-310.424
-1022.81
1607.96
-1806.32
1806.32
1594.72
-1038.56
-657.549
-346.138
365.578
616.926
-368.328
-371.222
-1434.39
923.378
1157.24
621.12
1203.02
1841.02
-1250.01
-625.047
263.049
1710.09
-1975.81
265.713
840.336
-1308.75
1593
-582.422
808.513
315.809
-341.516
573.537
820.963
633.77
1398.32
-230.547
-460.225
-365.696
374.023
-248.416
488.305
760.866
-304.327
-159.282
-333.89
587.154
-253.263
26.5184
-385.901
1139.58
-1773.74
-459.984
-495.264
-585.999
893.192
709.18
-1647.77
931.322
-467.573
-633.16
-530.723
1293.57
352.142
1776.55
-1755.02
-1708.67
1950.59
-1599.37
862.313
737.06
-371.613
-1851.74
947.415
602.703
846.084
-415.775
1850.59
-703.342
-412.8
683.407
454.988
-1138.4
-1135.78
460.721
777.851
-1666.29
491.042
927.226
174.668
-389.447
214.779
-1615.73
-397.4
-429.741
1014.34
-688.191
1489.55
-970.502
1855.21
241.952
-548.886
507.374
-300.688
492.019
918.956
562.841
1006.6
-478.976
-442.428
594.092
910.803
-1354.58
-37.7355
1617.31
-853.25
539.527
997.84
-1523.92
-1100.12
1788.21
-1242.12
-546.082
1247.06
-331.21
-915.845
-190.165
454.041
-263.876
-469.789
-254.28
436.872
-182.592
152.803
-407.221
1748.42
-1751.08
-464.962
-551.539
-927.482
431.942
-197.915
-234.028
476.03
-456.918
-358.891
-325.392
684.283
-975.313
424.259
-1191.83
691.06
416.62
-646.913
-449.015
1618.02
-876.772
548.522
-473.869
-589.386
-478.559
50.5678
-48.058
-2.50982
-1128.31
433.27
-687.004
-1064.77
1751.78
-607.511
-1469.39
737.97
581.779
-1646.35
1064.57
-387.842
-485.791
166.179
539.064
-1300.04
769.314
559.157
1033.84
-2191.49
1019.44
1172.05
-364.554
63.6651
-56.9475
-6.71763
1525.64
-387.434
465.37
1153.58
602.481
934.783
586.854
545.057
-1131.91
172.749
-445.986
-1708.66
273.394
1153.24
-624.768
537.398
1043.53
-1580.92
1123.57
-1693.82
179.422
721.163
556.452
-900.172
-1107.35
-121.882
323.678
-201.797
-542.413
-433.838
-657.198
-457.813
231.031
-1670.65
969.725
-492.5
210.514
-396.695
547.338
-313.284
-613.574
1236.91
-1305.46
930.212
375.245
-1029.5
-368.581
-776.029
-845.325
1738.52
-493.022
1798.77
-1592.26
-206.516
-1604.59
1047.22
557.374
-743.9
-153.069
280.337
-127.268
-600.909
395.63
287.002
-682.632
-541.74
1014.06
652.8
-361.468
-1663.57
1078.19
591.667
1134.69
-1726.36
-417.031
-306.776
-379.273
-764.309
-472.547
-340.801
518.396
1606.94
-1025.16
-800.593
1545.29
685.391
-321.717
748.949
1181.27
-1930.22
291.157
318.943
-503.344
-1993.16
1774.59
218.571
766.104
-489.891
-276.213
550.958
1090.57
-1641.53
50.5678
-1732.49
-240.301
1802.94
-1626.71
1106.36
520.349
-1737.57
5.08112
-539.218
63.6651
1753.77
-1774.59
969.25
645.384
-1614.63
251.032
-152.979
-98.0525
-412.442
-286.201
61.2053
42.0609
-195.13
-449.644
-448.306
-423.386
231.202
1553.87
393.409
-234.35
-434.831
415.544
-172.273
334.977
1557
1103.94
-226.643
-877.3
-1136.82
1757.58
-1783.17
1096.16
-730.558
-1052.61
-1299.22
1898.05
-598.828
1189.17
-1825.54
636.375
158.455
-905.701
1727.28
44.923
-1772.2
-509.072
-1112.69
-1748.42
-1013.27
570.842
1047.93
610.522
1165.08
-1775.6
296.078
-468.629
729.915
-396.305
377.643
954.154
702.894
-402.721
-645.068
603.247
1102.83
-1706.08
-409.805
-385.861
795.666
441.397
-1714.51
1568.95
145.562
605.185
-1079.84
562.833
1115.03
-1604.11
1021.69
-249.236
246.529
327.72
1962.81
427.501
-90.8473
1018.8
743.825
-1762.63
-719.252
1115.33
-1605.3
171.564
-587.78
184.953
230.591
-663.895
-586.932
602.826
1065.22
-714.853
-285.279
-1413.97
698.812
715.16
-388.796
816.39
107.141
-923.53
580.632
-141.639
1605.2
-226.622
274.672
-792.543
-1993.16
1715.24
1014.4
69.8829
316.594
450.673
-960.705
-1023.46
-1818.59
660.39
1745.21
530.076
-490.928
1251.79
1120.04
-436.974
1053.9
-1012.57
512.442
500.129
722.921
1080.55
-1803.47
505.093
495.609
-1541.15
-773.006
31.6011
809.06
-426.422
-913.992
408.57
-556.592
-829.026
173.876
-596.752
1443.35
1087.7
157.287
166.391
-570.755
1669.2
-796.281
1575.04
-1780.16
595.002
1185.16
565.498
-914.031
-1786.94
1975.81
-188.869
1767.75
184.914
-561.054
140.583
-98.5218
-498.553
1252.4
585.622
1160.47
-499.028
452.605
888.841
-480.712
-801.324
437.25
364.073
1463.9
1122.92
-537.446
1468.77
-488.696
-436.373
925.069
-623.524
515.533
-1235.68
1745.56
1890.97
-709.706
1636.59
-667.34
-1282.89
741.151
-582.233
123.735
-219.68
374.069
-191.67
-537.502
-1281.69
1925.16
-643.469
1212.58
-569.687
1150.58
-1710.96
1739.64
-594.312
-562.567
-568.787
1771.41
-328.191
-712.523
-491.848
1266.16
-1734.62
-1914.27
632.58
344.939
-990.925
172.997
221.201
-1770.2
1236.92
533.277
1195.06
572.691
-527.815
-485.324
1232.21
183.796
236.489
606.602
1284.37
-556.155
-1272.42
1828.57
-1057.39
1055.94
871.648
-209.955
-1710.09
1755.02
-529.117
1456.34
-1786.94
-382.504
12.4589
370.045
-277.194
607.18
-329.986
94.8506
504.254
809.101
-388.162
1290.66
1296.03
-428.313
882.956
-452.509
1872.83
-683.664
1634.92
-1776.55
-425.59
-760.91
301.054
459.856
-577.889
-583.388
58.8064
-999.301
-1016.29
-691.648
1707.94
-966.027
-1225.46
154.661
-421.965
-669.824
727.497
1201.65
671.184
1456.57
-610.49
1676.49
1361.45
-592.139
-505.965
205.277
-522.41
1441.37
1281.24
-582.425
-950.088
925.021
53.8735
-978.895
570.964
-525.051
1448.43
1543.57
-608.792
-51.0368
51.0368
-609.778
1674.35
1282.12
-504.271
1161.5
-56.5325
1852.35
-367.123
1538.01
-608.766
-527.132
1389.45
-675.449
1259.16
-583.713
1604.59
-612.283
760.811
599.44
-1360.25
-655.089
297.617
496
620.301
-2012.58
-1011.61
1634.92
51.0417
-51.0417
-76.6429
404.403
450.688
395.814
-19.6601
-287.343
918.215
-524.794
-439.176
843.579
-254.706
643.487
-418.743
1559
-461.963
-886.515
178.934
205.311
-384.244
620.46
1284.09
-1904.55
960.018
-474.418
-48.058
129.829
-2000.68
1870.86
-468.924
193.862
1217.08
-458.844
-758.239
-321.223
-592.769
-507.109
-56.9475
-474.071
249.255
1197.34
-577.613
237.666
-396.373
158.707
-6.37961
-94.4617
698.099
-603.638
14.7224
-350.272
-606.813
-73.3365
73.3365
-1247.82
1991.64
-1253.94
-230.717
-1826.56
234.307
-1053.7
-1001.97
-191.713
-1690.17
729.463
1264.83
-1982.19
385.44
320.562
-706.001
-1903.54
1268.99
634.543
-116.325
116.325
-987.748
-9.67142
-1922.37
-577.599
1701.05
-700.042
1687.46
-622.239
-191.488
-1709.1
-605.095
-444.315
-615.083
-80.3678
80.3678
-1582.48
201.04
1381.44
149.725
178.147
-327.871
583.314
520.629
1031.37
-491.283
1801.66
795.041
-180.909
174.191
537.13
1754.65
-615.069
-572.18
1687.21
448.002
1867.57
-665.924
-1861.1
-1991.75
-667.941
-84.9774
84.9774
-609.668
243.972
-694.614
1053.93
-481.953
-1105.74
-294.303
906.249
1904.83
1684.02
-1684.02
-281.232
765.152
1813.85
614.297
1310.86
123.402
127.63
612.073
586.16
903.485
-903.485
230.786
-363.297
-447.073
387.878
984.359
-471.917
-661.245
-1162.93
1757.93
292.875
-1673.1
636.227
-293.717
478.631
1797.27
-612.113
-154.755
-428.512
398.193
743.863
1791.35
-634.109
-529.971
-772.992
2015.8
-895.585
-1120.22
1693.37
-597.119
1258.38
-1878.73
620.354
357.13
-906.016
-176.024
-22.3856
1134.7
-502.715
129.572
645.783
-1669.84
458.293
627.717
-1861.1
-602.77
1839.69
912.576
-1195.68
1813.25
-617.565
1836.27
-594.823
-1241.44
460.146
933.74
-1751.08
952.108
-1474.63
230.778
1243.85
-859.449
-1289.24
-152.924
35.7369
117.187
601.591
282.019
1057.04
-462.727
876.358
-413.631
848.393
761.179
-1609.57
664.109
1100.48
-3.79246
-424.991
428.783
-1799.43
746.823
716.309
90.1968
-1154.48
1993.07
-695.145
-1297.92
-556.659
1717.13
850.006
993.941
-1843.95
1263.05
704.768
-414.802
736.403
846.908
1063.6
-606.073
1813.85
647.419
1826.05
-1218.52
-607.528
-377.606
-342.077
719.683
101.956
-1062.23
1710.7
-560.119
-734.817
734.817
1284.16
613.892
1390.98
215.966
-566.072
291.913
-199.989
721.138
1146.44
500.272
-316.476
-898.03
-594.157
1746
-1746
528.764
-528.764
1015.95
1054.54
-2070.49
1891.82
-633.446
-600.61
842.788
-974.507
-1082.38
1029.65
713.11
-1742.76
-96.2887
-370.495
-649.335
-832.164
2101.16
-1281.38
-632.89
1031.18
1002.55
1326.66
666.404
339.705
1041.3
234.962
346.373
558.171
1808.67
-1808.67
676.714
23.3623
-170.446
-1025.68
-562.077
1723.58
988.871
1011.13
-1886.96
-233.176
-371.918
626.785
-353.39
1905.09
-1109.79
-795.295
389.807