/*--------------------------------*- C++ -*----------------------------------*\
  =========                 |
  \\      /  F ield         | OpenFOAM: The Open Source CFD Toolbox
   \\    /   O peration     | Website:  https://openfoam.org
    \\  /    A nd           | Version:  7
     \\/     M anipulation  |
\*---------------------------------------------------------------------------*/
FoamFile
{
    version     2.0;
    format      ascii;
    class       volVectorField;
    location    "3.5";
    object      U;
}
// * * * * * * * * * * * * * * * * * * * * * * * * * * * * * * * * * * * * * //

dimensions      [0 1 -1 0 0 0 0];

internalField   nonuniform List<vector> 
19930
(
(0.996617 -0.000448675 -2.75896e-22)
(0.985174 -0.001103 6.56041e-21)
(1.02129 -0.00228946 -8.71766e-22)
(1.00028 -8.72896e-06 4.23443e-24)
(1.00074 -0.00688697 2.0013e-23)
(1.00056 -0.00717553 -1.88586e-23)
(1.01575 -0.112721 -1.2663e-21)
(1.13601 0.0495732 -8.62006e-20)
(1.00335 -0.0571834 -3.23668e-21)
(1.14096 0.0466889 6.16495e-20)
(1.02468 -0.104446 -2.48347e-21)
(1.23688 0.00981176 -3.57124e-21)
(0.991381 -0.0374175 -1.06826e-21)
(0.996737 -0.000542809 2.09183e-22)
(0.996935 -0.00284896 8.0996e-22)
(1.00027 -1.31466e-05 4.84021e-24)
(1.20015 -0.094426 9.50298e-21)
(1.11071 -0.00328654 -5.04595e-20)
(0.999355 -0.0833734 -3.59564e-21)
(0.987346 -0.000594885 -5.75857e-21)
(1.01088 -0.0662931 2.56728e-21)
(1.23498 0.0125595 -5.97377e-21)
(1.14662 0.0497347 -4.64222e-20)
(1.06735 -0.144937 -8.76812e-22)
(1.01873 -5.25212e-05 4.12382e-23)
(1.00933 0.125813 -1.36529e-19)
(1.00717 -0.0020455 -5.54389e-22)
(0.996969 -0.0403263 2.80309e-21)
(1.09916 -0.151602 3.44967e-22)
(1.00074 -0.084584 1.17415e-20)
(0.999188 -0.00180423 -1.08517e-23)
(0.892189 0.0342277 2.16689e-19)
(1.20185 0.0557086 3.61595e-20)
(0.995744 -0.0239564 2.71547e-22)
(1.00008 -0.00133828 5.27991e-24)
(0.999226 -0.00195371 -3.57358e-23)
(1.14098 0.071186 -9.14701e-20)
(0.99977 -1.12225e-05 1.28227e-23)
(1.01114 -0.0143042 -7.59057e-22)
(1.11466 -0.0080981 -1.80937e-20)
(1.03111 -0.00700401 1.50709e-22)
(1.20288 0.105064 6.17969e-20)
(1.05365 0.0508686 -3.92832e-20)
(1.00653 -0.00267641 4.62309e-22)
(1.00731 0.120745 5.41029e-20)
(0.96806 -0.00209338 3.79256e-21)
(1.10451 -0.000220345 -1.35554e-19)
(1.22359 -0.0431371 -2.04717e-20)
(0.99964 -9.7969e-05 2.3876e-23)
(0.983462 -0.0330426 9.50977e-22)
(1.00001 -0.00137858 -1.45942e-23)
(1.05756 -0.0077594 1.77938e-20)
(1.11889 -0.115209 -1.51188e-20)
(1.00039 -0.00298629 8.63283e-24)
(1.14212 -0.128739 2.2656e-21)
(0.96509 -0.0156379 -1.62563e-21)
(0.986501 -0.0229463 2.23047e-22)
(0.999082 -0.0022843 2.37938e-23)
(1.00769 -0.0346282 3.9394e-22)
(1.19957 -0.0900915 -7.00233e-21)
(0.960212 0.0489267 1.16048e-19)
(0.968416 -0.00510695 5.55348e-21)
(0.991596 -0.00329644 -1.44967e-21)
(1.14913 0.0388483 -4.04596e-21)
(0.999347 -0.000142848 -1.57484e-22)
(0.996939 -0.00625693 2.56097e-24)
(1.00288 0.084095 3.46718e-21)
(0.996623 -0.00648597 3.48751e-22)
(1.08384 -0.0702702 2.31742e-20)
(1.01886 0.125585 5.06452e-20)
(1.02933 -0.0319071 7.78362e-21)
(1.19123 -0.112552 9.28653e-21)
(0.997243 -0.00285275 -1.50107e-22)
(0.990221 -0.0280444 4.6492e-21)
(0.99889 0.0369906 -5.18564e-20)
(1.05077 -0.067822 -8.18624e-21)
(1.01658 0.116735 2.35989e-20)
(0.958147 -0.00605604 1.45287e-21)
(1.11403 -0.00946501 1.12775e-20)
(1.00814 0.0458192 7.54149e-20)
(0.997708 -0.00655418 7.93443e-22)
(1.00185 -0.00344781 1.25665e-22)
(1.0875 -0.147814 -1.92065e-22)
(1.00418 -0.0556171 2.66285e-21)
(0.968805 -0.00413646 -6.12997e-21)
(1.04919 0.0480279 1.89496e-19)
(0.993348 -0.0350737 -2.00984e-21)
(0.842214 0.099401 2.02261e-20)
(1.14411 0.0357118 -3.81101e-20)
(0.987522 0.133851 8.6677e-20)
(1.11757 0.0118181 -5.32296e-20)
(1.00033 -2.82163e-05 -8.88963e-24)
(1.00007 -0.000253836 -5.51799e-24)
(0.8707 0.0138268 -6.12153e-20)
(1.22384 -0.0489073 1.05169e-20)
(0.992122 -0.00342214 -9.25153e-22)
(0.88727 0.00860309 9.35428e-20)
(0.999821 -0.00353925 4.1103e-23)
(1.02821 -0.101844 -5.70412e-22)
(1.08634 0.0148564 -5.08908e-20)
(0.98357 0.138927 -2.56799e-19)
(0.983251 -0.00914717 4.19041e-22)
(0.96723 0.130245 -2.82434e-19)
(1.1139 -0.10351 -2.74562e-20)
(1.0872 -0.00217017 -3.79962e-20)
(1.0692 -0.0704145 -1.71187e-20)
(1.06043 0.12814 9.51908e-20)
(1.11066 -0.0875575 -1.77199e-20)
(0.983129 -0.0007886 -7.43978e-21)
(1.09292 0.135209 2.1484e-20)
(1.10316 -0.155874 1.5449e-21)
(1.0129 -0.111689 -3.17182e-21)
(0.985753 -0.0184731 2.42117e-21)
(1.02488 -0.0170538 -5.62641e-21)
(1.05283 -0.0630247 -4.9269e-21)
(1.0001 -4.74075e-05 3.4123e-24)
(1.08124 0.0804538 9.21989e-20)
(0.998129 -0.00611464 -2.85291e-22)
(1.10596 -0.109584 -4.21968e-21)
(1.00722 0.0402114 -1.78099e-19)
(1.00032 -6.57743e-06 -1.69713e-24)
(1.01812 -0.06991 5.92992e-23)
(1.13714 -0.00570621 -2.38698e-20)
(1.00805 -0.0392816 3.74755e-22)
(0.995591 -0.0226527 -4.94814e-22)
(1.11106 -0.0035895 2.66402e-20)
(1.22773 0.0374236 -8.7016e-20)
(0.99684 -0.038916 2.43514e-21)
(0.883728 0.0402788 -6.32255e-20)
(1.07689 0.0852097 4.90267e-20)
(0.994089 -0.0444877 -2.26181e-21)
(0.983255 -0.0319082 -2.80268e-21)
(1.0311 -0.00350004 2.60615e-21)
(1.01085 -0.0129387 1.45509e-21)
(1.0493 0.121816 -1.29769e-19)
(1.08241 -0.0064508 -1.15157e-20)
(1.2208 -0.0253159 -2.4924e-20)
(1.0127 -0.0669676 -1.19765e-21)
(0.986982 -0.00897607 3.62822e-21)
(0.994597 -0.0579493 9.38618e-21)
(1.0153 -0.0716 2.81036e-22)
(0.989148 -0.0288734 -4.53473e-21)
(1.18793 -0.119264 8.04606e-21)
(0.964087 0.143069 -8.86989e-20)
(1.1674 -0.0556497 1.52645e-20)
(1.04944 0.126725 1.17154e-19)
(1.22967 0.0665626 -8.97246e-21)
(0.978186 -0.0100063 -3.74421e-21)
(1.22345 0.0275212 -6.17909e-20)
(1.0079 -0.00268559 1.21134e-21)
(0.977573 -0.00934517 7.61437e-21)
(1.02019 0.122188 6.04747e-21)
(1.00009 -0.000206552 3.7152e-24)
(1.00348 -0.0516268 1.05881e-21)
(1.00179 -0.003063 -2.45233e-22)
(1.23047 0.0713886 4.91397e-20)
(1.04553 0.0526591 -2.02546e-20)
(1.06468 -0.14136 2.51966e-21)
(0.962731 -0.0178033 2.85692e-21)
(0.990783 -0.0382397 2.28919e-21)
(1.14235 -0.13555 -3.63547e-21)
(1.01907 -0.109897 1.78196e-21)
(0.999089 -0.00212601 -2.89157e-23)
(1.16763 -0.0509616 -2.33154e-20)
(1.10109 -0.0073226 -5.52883e-21)
(0.848881 0.102664 4.80865e-20)
(0.984152 -0.00923023 2.95644e-21)
(1.08234 -0.150179 1.43302e-23)
(1.04796 -0.0683039 9.45593e-21)
(1.13939 0.0676706 -5.411e-20)
(1.22279 -0.0280921 8.09269e-21)
(0.993521 0.0979388 5.38727e-20)
(1.1356 0.142637 1.42474e-19)
(0.993665 -0.0211179 9.0855e-23)
(0.81126 0.0341313 -7.24648e-20)
(1.20516 0.0524358 4.45386e-20)
(0.997072 -0.000794951 3.08335e-22)
(0.976883 0.0158317 -1.37608e-19)
(1.05767 -0.0628577 -1.03511e-22)
(1.08654 0.146052 4.11801e-20)
(1.0472 0.137553 -5.9478e-20)
(0.999705 -2.7217e-05 -1.6056e-23)
(0.952155 0.100965 3.82868e-21)
(1.11806 0.123944 1.21419e-19)
(0.986951 -0.000829993 3.70165e-22)
(0.958465 -0.0139419 1.70269e-20)
(1.02888 -0.0298606 -5.2957e-21)
(1.09161 0.00762525 -1.29442e-20)
(1.10881 -0.105028 8.35139e-21)
(0.897865 0.0854958 6.35264e-20)
(1.22305 0.0370945 -2.99294e-20)
(1.17603 -0.0893191 1.05095e-20)
(1.08339 0.00932708 1.02709e-19)
(1.08542 -0.0662697 1.84352e-20)
(0.963577 -0.01848 6.91207e-21)
(1.21667 -0.00269957 -4.1336e-20)
(0.954741 0.105855 -4.32178e-21)
(1.20447 -0.0620421 -3.51363e-20)
(0.98901 -0.000370271 6.13438e-23)
(0.891076 0.0855548 -6.21782e-20)
(1.2043 -0.0332361 -5.96261e-20)
(1.15792 -0.118997 -6.88399e-21)
(1.1207 -0.110187 1.96745e-20)
(0.912054 0.0947466 -7.65195e-20)
(0.939154 0.0952007 1.79049e-19)
(0.977038 -0.0192634 -2.63959e-21)
(1.00124 -0.0293506 -1.33493e-22)
(1.05811 -0.00455114 -2.45796e-21)
(0.965831 -0.0166076 -7.14425e-21)
(0.998286 -0.000203512 -3.76141e-22)
(1.00611 0.0859876 -2.55011e-20)
(0.978221 0.0374718 -4.92362e-20)
(0.978361 -0.0120787 5.23525e-21)
(0.971848 -0.0257929 3.32507e-21)
(1.08669 0.140401 6.33524e-20)
(0.998323 0.0410808 7.8542e-20)
(0.99736 -0.000131828 1.19374e-21)
(1.00409 0.0392146 -1.20605e-19)
(1.11531 -0.0856006 -8.3887e-21)
(1.01186 -0.011498 -3.36001e-21)
(1.00397 -0.0422037 1.6278e-22)
(1.05668 0.0843244 -9.84238e-21)
(0.951986 0.162329 8.28795e-20)
(1.11652 0.00932185 7.03148e-20)
(1.09133 0.12832 -1.03511e-19)
(0.98605 -0.00895377 -6.13633e-21)
(1.00272 -0.0290105 -3.54027e-22)
(1.00013 -5.25e-05 -1.47929e-25)
(0.998047 -7.67949e-05 -3.88727e-22)
(1.00073 -0.00578093 2.95282e-23)
(1.13339 -0.00607658 1.1322e-20)
(1.08322 -0.101124 3.63023e-21)
(1.06139 0.123166 -1.21552e-19)
(0.999261 -0.0674983 2.67784e-21)
(1.03605 0.0436112 7.29479e-20)
(0.994335 -0.0339431 -3.67166e-22)
(1.06567 -0.0664079 1.22252e-20)
(0.996217 0.0947908 9.55699e-20)
(0.871779 0.01042 3.16466e-19)
(1.0568 0.0787483 1.71605e-19)
(1.01913 0.112054 -1.45519e-19)
(0.970782 -0.0253791 -3.01254e-21)
(1.18283 0.0996723 -3.82592e-20)
(1.00885 -0.0382513 -4.99957e-22)
(1.0893 -0.00443749 7.55097e-20)
(0.99801 -0.00557752 -5.82859e-22)
(1.16802 -0.135734 1.00315e-20)
(1.12804 -0.070762 3.76405e-20)
(1.06532 -0.0244945 2.79087e-20)
(0.999648 -6.69653e-05 -2.90175e-23)
(0.981352 -0.00111301 8.59078e-21)
(0.946087 0.167255 -1.27672e-19)
(1.16867 -0.00493311 1.67326e-19)
(1.01056 -0.0156562 2.11848e-21)
(0.981477 -0.0356928 -4.64559e-21)
(1.08004 -0.097107 -1.95232e-21)
(1.03544 -0.124721 3.3645e-21)
(1.19861 0.109954 -7.74503e-21)
(0.995416 -0.0573664 -2.49729e-21)
(0.964728 -0.00264926 -6.75892e-21)
(0.998268 -0.0455835 2.86779e-21)
(0.995993 -0.0202944 -4.45898e-22)
(0.999176 -0.000131633 1.70914e-23)
(0.993674 -0.0324763 1.82914e-21)
(1.0214 -0.110488 -1.0349e-21)
(0.961919 0.137646 1.68371e-19)
(1.21503 -0.0665829 1.74077e-20)
(0.986858 -0.0175553 -4.89553e-21)
(1.03407 0.0461782 -1.12659e-19)
(0.943221 0.101466 -2.13121e-20)
(0.993793 -0.0363725 4.63704e-22)
(1.00056 -0.000217454 7.29764e-23)
(1.00278 -0.0534636 -1.9943e-21)
(1.00125 0.0792402 2.95799e-20)
(1.14582 -0.150696 3.32176e-21)
(0.963131 0.044946 -1.75285e-19)
(1.00006 -4.70844e-05 -9.81095e-25)
(0.9732 -0.0278791 5.28268e-21)
(1.1202 0.15344 1.16084e-20)
(0.99937 0.0426234 1.59168e-19)
(1.0209 -0.0531934 6.23802e-22)
(0.987397 -0.021897 2.84124e-21)
(0.920144 0.153145 1.36063e-19)
(1.15895 -0.106894 -3.03664e-21)
(1.16981 -0.0890129 -8.06287e-21)
(0.973566 0.13095 1.15982e-19)
(0.903555 0.0948471 -1.29659e-20)
(0.992843 -0.0375591 -1.21691e-21)
(1.1207 0.157993 -7.41074e-20)
(1.12588 -0.0302424 -3.61598e-20)
(1.01087 0.0456568 -2.06009e-19)
(1.10214 0.0803526 5.58873e-20)
(1.00058 -0.000173269 -9.69676e-23)
(1.21968 -0.0684414 -1.50922e-20)
(1.12985 0.0686527 3.2659e-20)
(0.996804 -0.000744274 9.77432e-22)
(0.997906 -0.0709241 -1.03462e-21)
(1.19905 -0.053335 -1.3351e-20)
(1.07519 -0.142477 -9.65617e-24)
(1.19959 -0.0353237 3.37371e-20)
(1.1382 -0.0599753 -2.03026e-20)
(1.00012 -0.000130577 4.94085e-24)
(0.999856 -0.0025468 1.15921e-22)
(0.994874 0.152591 -2.05017e-19)
(1.00145 -0.00983036 -4.6925e-23)
(1.00316 -0.0845377 -2.46898e-21)
(0.994491 -0.0477465 3.566e-22)
(1.23028 0.0132227 -3.35753e-20)
(0.971761 -0.00504023 -1.09579e-21)
(1.09027 0.149268 7.21599e-20)
(1.17009 -0.0383718 4.71979e-20)
(0.996624 -0.0458544 1.90934e-21)
(0.956802 -0.00695824 -4.12643e-21)
(1.14205 0.0606697 5.82036e-21)
(1.20978 0.0032243 3.07938e-20)
(1.00008 -0.000135315 2.20481e-24)
(0.975139 0.0943575 1.72801e-19)
(1.07847 0.0889594 2.4679e-20)
(0.984495 0.0300456 -4.28156e-20)
(1.14644 -0.123779 4.89234e-21)
(0.999313 -0.000124805 1.2439e-22)
(0.921765 0.147125 -9.00879e-21)
(0.998022 -0.00391843 -7.25786e-22)
(0.996561 -0.0358314 6.86666e-22)
(1.21187 -0.00196331 -1.28443e-20)
(1.19943 -0.0595098 4.44206e-21)
(0.98867 -0.0375177 -3.76115e-21)
(1.15515 -0.112652 -1.15499e-20)
(1.04172 0.050183 2.90317e-20)
(0.875523 0.0132836 1.14497e-19)
(1.03728 0.124719 -1.5437e-19)
(1.15747 -0.0218202 -5.23192e-20)
(0.803031 0.0434646 1.56544e-20)
(1.00032 -3.50775e-05 2.93971e-24)
(0.994526 -0.0201201 -6.07302e-22)
(1.00048 0.0370537 2.10791e-19)
(1.11048 -0.137915 -8.11771e-22)
(1.1268 0.0654191 -7.76432e-20)
(0.99167 -0.0283109 -1.71562e-21)
(1.01027 0.11686 1.45055e-19)
(1.15278 -0.0415624 3.05731e-20)
(1.00035 -0.00280122 -6.9227e-24)
(1.14655 -0.0422288 -2.68519e-20)
(1.07911 0.0736755 -1.18802e-19)
(1.08644 -0.132488 1.99594e-22)
(0.940094 0.0162759 -3.20688e-20)
(1.13029 0.124694 1.75378e-20)
(0.999462 -0.000315821 -2.16387e-23)
(1.02695 -0.0153107 -9.64572e-21)
(1.17969 0.0515389 3.96748e-20)
(1.11579 -0.003597 9.60911e-20)
(0.996386 -0.000240455 -1.2334e-21)
(1.13298 0.137646 -1.27712e-19)
(1.00938 -0.0342761 2.18813e-22)
(0.824412 0.10058 -8.70634e-21)
(1.01293 -0.0702443 -1.72364e-21)
(0.977723 -0.0112202 2.38466e-21)
(0.982346 -0.0011375 -7.48692e-21)
(1.04112 0.129035 1.72193e-19)
(1.11512 0.11997 -1.94465e-19)
(0.970208 -0.00331353 2.88195e-21)
(1.13608 0.0568787 2.11008e-20)
(0.98541 0.127333 -5.01205e-20)
(1.00149 -0.0106682 3.8882e-23)
(1.06368 0.00670521 2.96769e-20)
(1.03601 0.019786 -8.21587e-20)
(0.803376 0.0616353 1.0304e-19)
(0.998318 -0.00327413 2.2792e-22)
(1.20443 0.0199346 -6.82338e-20)
(1.12206 -0.071377 -1.15862e-20)
(0.96371 -0.0153986 -2.54417e-21)
(0.999556 -6.71669e-05 2.86544e-23)
(0.999746 0.0244947 1.27246e-19)
(1.20795 0.106171 3.59022e-20)
(1.19097 -0.072519 -8.21807e-20)
(1.00931 0.14847 -5.2837e-20)
(1.1551 -0.0173676 2.66555e-20)
(0.985394 -0.0227679 1.97339e-21)
(1.18077 0.0928186 -2.86541e-20)
(1.10316 -0.00444657 -1.79441e-20)
(1.16253 -0.00326698 4.75637e-20)
(0.822482 0.0663261 -2.67168e-19)
(1.01533 -0.0620423 6.49278e-24)
(1.211 -0.0113353 1.70628e-20)
(0.982809 0.0345809 -1.11638e-19)
(0.980638 -0.036222 4.27951e-21)
(1.1156 -0.0340223 2.65638e-21)
(1.03226 -0.103026 1.25485e-21)
(1.1779 0.0471327 -1.75266e-20)
(0.990106 -0.000276393 -1.12191e-20)
(1.11395 -0.000254904 -1.56271e-20)
(1.19458 -0.0692242 3.48522e-20)
(1.20932 -0.0150671 4.42697e-20)
(1.001 -0.00358569 -3.00809e-22)
(1.09857 0.00217657 1.43319e-19)
(0.993182 0.0308621 -1.06755e-19)
(1.07397 0.0507941 2.14638e-19)
(1.07699 -0.139684 1.17856e-21)
(0.996783 -0.0192741 9.71506e-22)
(0.916865 0.0871874 -8.93174e-20)
(0.899272 0.0381078 -2.32455e-19)
(0.998354 -0.00521734 -1.40475e-22)
(0.974267 -0.0272646 2.52418e-21)
(1.03839 0.0901917 2.28625e-20)
(1.00544 -0.0887059 -1.94427e-21)
(1.06067 -0.0676215 -1.04206e-20)
(1.1918 0.10798 1.18136e-19)
(0.984146 -0.000827226 9.33419e-21)
(0.784746 0.0554153 1.76661e-19)
(1.02262 -0.0481908 3.29909e-22)
(1.20541 0.0302325 2.14073e-20)
(0.993853 -0.00776117 3.47167e-22)
(0.988774 0.0280419 -4.56211e-20)
(1.13189 0.118331 -3.60502e-20)
(1.06675 -0.018558 -2.72011e-20)
(1.06875 -0.0754552 4.41826e-21)
(1.17961 -0.0864155 -1.76127e-20)
(1.20578 -0.0298435 6.41231e-21)
(0.999993 -0.00388813 -1.63945e-23)
(1.02947 0.075108 -4.23209e-20)
(1.19736 -0.112159 -2.05765e-20)
(1.14158 0.0394255 9.33845e-20)
(0.831222 0.104944 2.67076e-19)
(1.15371 -0.125109 -4.51019e-21)
(1.04662 -0.0588864 1.57753e-20)
(1.00051 -0.00624851 -3.48611e-23)
(1.22729 -0.0403599 4.2576e-20)
(1.20506 -0.0679738 2.10836e-20)
(0.98481 -0.0181452 8.69677e-21)
(1.16586 0.114695 -1.12121e-20)
(1.00008 -0.00106963 -1.71977e-23)
(0.984256 -0.0296584 -9.70389e-22)
(1.01121 -0.00995654 4.78155e-21)
(1.15602 -0.101027 -1.69974e-21)
(0.994482 -0.0312701 1.5896e-21)
(0.999662 -0.000137126 -9.28254e-24)
(0.993516 -0.0397646 4.25365e-21)
(1.21878 -0.00704279 -2.20018e-20)
(1.08474 -0.137977 1.14752e-21)
(1.03186 -0.051884 7.58586e-22)
(0.976044 -0.019801 -5.19883e-21)
(1.19409 -0.0503952 -4.4226e-20)
(1.13518 -0.0547547 2.99881e-20)
(0.985248 -0.0374056 -2.04248e-21)
(0.956902 -0.00937742 1.30168e-20)
(1.0008 -0.00376478 4.62239e-23)
(1.08819 -0.0733019 -2.46502e-20)
(1.01106 -0.0959546 -2.47609e-22)
(1.00888 -0.00223176 -9.60628e-22)
(1.02351 -0.0511982 -3.99848e-21)
(1.20456 0.00440003 -4.80595e-20)
(1.0762 0.0475319 -1.31621e-19)
(1.17417 -0.0481067 1.07125e-20)
(0.999422 -0.000276364 -1.03458e-22)
(0.909857 0.163324 -1.98031e-19)
(1.00903 -0.00132293 -3.59383e-21)
(1.00002 -0.00115732 2.10596e-23)
(1.02986 -0.00910862 8.0578e-21)
(0.976729 -0.0273532 -4.01312e-21)
(1.00573 -0.0628795 2.19615e-22)
(0.942573 0.0882868 -1.0565e-19)
(1.01668 -0.0393399 -3.9392e-22)
(1.12242 -0.0272736 -1.61095e-20)
(1.01025 -0.0839265 3.20902e-21)
(1.00814 -0.0850206 -4.84166e-21)
(1.19008 0.101256 -8.19182e-20)
(0.997877 -0.0363127 -9.14202e-22)
(0.995365 -0.0548293 1.99245e-21)
(0.999179 -0.0699678 2.0142e-21)
(0.999577 -3.469e-05 -5.84651e-23)
(1.11558 -0.0978605 1.76035e-20)
(0.891707 0.157715 -1.91195e-20)
(1.03791 -0.1215 6.32944e-22)
(0.975717 -0.033641 -1.00935e-21)
(1.15991 0.109955 -1.5123e-21)
(0.989253 -0.0355889 -3.96192e-22)
(1.09918 0.0755947 -4.66785e-20)
(1.22785 0.0274902 -7.16126e-21)
(0.997681 -0.00421741 1.09965e-21)
(0.998367 -0.000299562 3.03491e-22)
(1.06936 0.0836188 1.46328e-20)
(0.846612 0.12437 8.68476e-20)
(1.02837 -0.11804 2.53898e-22)
(1.22498 0.0570531 1.09192e-20)
(1.22564 -0.0114628 -6.09945e-20)
(0.97929 -0.0301136 -1.59486e-21)
(0.979339 -0.0314617 -3.65175e-21)
(1.04177 0.0939767 -6.28715e-21)
(1.08106 -0.0111438 1.71151e-20)
(1.08932 -0.142636 -1.93354e-21)
(1.03565 -0.0997033 1.81295e-22)
(0.971472 -0.00221153 2.1328e-22)
(1.04861 -0.0115595 1.44068e-20)
(0.907472 0.0527999 -3.99515e-20)
(1.12949 -0.0146417 -9.41681e-20)
(1.00031 -4.85061e-05 -7.29913e-24)
(0.963829 0.12556 1.82055e-19)
(1.02455 -0.0459559 6.309e-21)
(1.0064 -0.0640474 2.31334e-21)
(1.12401 0.148508 -6.73839e-20)
(1.01323 -0.0171211 4.37184e-21)
(0.993314 -0.00748899 -1.00536e-21)
(0.999509 -0.000420644 -4.73437e-23)
(1.11104 -0.0767277 1.37836e-20)
(0.976811 -0.0157102 -4.48666e-21)
(1.0003 -5.31076e-05 -6.22106e-24)
(1.22817 0.0557185 -2.68887e-20)
(1.14937 -0.146574 2.71928e-21)
(1.02601 0.07302 -7.31806e-20)
(0.99923 -0.000183637 4.32111e-23)
(1.00033 -0.00326518 1.51007e-23)
(0.988548 -0.0363876 -1.75359e-21)
(1.00003 -4.24862e-05 -3.7881e-25)
(1.02818 -0.121096 -1.39723e-21)
(1.10097 -0.145237 1.34432e-21)
(0.999875 -0.00326162 2.94485e-23)
(1.00573 -0.0511211 -5.29913e-22)
(0.959466 -0.0137264 3.93545e-21)
(1.11227 0.133423 -7.17095e-21)
(1.0053 0.14749 4.28016e-20)
(0.997981 -0.00355656 2.3013e-22)
(1.00265 -0.000854768 -2.5472e-22)
(0.99742 -0.0662481 -5.91583e-21)
(0.994661 0.135068 1.36512e-19)
(1.00409 -0.0238339 -2.11168e-22)
(0.975728 0.0882348 -4.70552e-21)
(0.987766 -0.00962824 -3.92882e-22)
(0.815443 0.084573 -7.34639e-20)
(1.05535 0.0166786 -1.60838e-20)
(1.15637 0.0226823 -9.79382e-20)
(0.864817 0.102001 -7.88348e-20)
(1.20022 -0.105269 -9.80487e-22)
(0.992499 -0.00286112 -5.45151e-22)
(1.11672 -0.0688817 1.072e-20)
(1.00722 -0.0246688 -7.25597e-24)
(1.00493 0.131467 3.45443e-20)
(1.03616 0.0809583 9.92724e-20)
(0.978338 -0.00763359 2.98145e-21)
(1.1654 -0.130408 -1.41975e-20)
(1.10292 -0.0338244 -2.74867e-21)
(1.04366 -0.0621411 5.08529e-21)
(0.99346 -0.000425196 -1.21433e-21)
(1.16488 -0.141689 -9.88483e-21)
(1.0003 4.42807e-05 -6.61829e-24)
(1.10569 0.131068 4.25418e-20)
(0.957493 -0.0131618 -1.56948e-20)
(0.995476 -0.0444052 -6.42741e-22)
(0.998219 -0.0220077 6.47858e-22)
(1.00542 -0.0415908 1.13727e-21)
(1.19963 0.0304831 6.69898e-21)
(1.17495 -0.0433071 -4.1013e-20)
(0.996856 -0.000122755 1.41303e-21)
(1.01894 -0.0379732 4.40136e-21)
(0.999915 -9.48906e-05 5.0255e-24)
(0.813375 0.0798341 5.52888e-20)
(0.914166 0.0476601 8.23855e-20)
(0.995847 -0.00118183 -6.52246e-22)
(0.98111 -0.0108573 -2.7638e-21)
(1.02607 -0.0291665 6.0352e-21)
(1.03994 0.0845037 4.2629e-20)
(0.960536 -0.0186548 -7.21042e-21)
(1.22951 -0.0114061 -1.32126e-20)
(0.97711 -0.0342672 9.8156e-22)
(1.0307 0.126013 -3.11346e-21)
(1.16213 0.022573 -1.10068e-20)
(0.976311 -0.0169222 -2.9076e-21)
(0.791031 0.0465681 -1.12091e-19)
(1.04104 -0.00204402 -1.39845e-20)
(1.04644 0.129863 -9.20752e-20)
(0.995417 -0.0106435 1.40507e-22)
(1.01144 -0.101436 7.7361e-21)
(0.943416 0.0105467 -2.70161e-19)
(1.01131 -0.031296 -1.90804e-21)
(0.843451 0.131631 -3.93492e-20)
(1.05748 0.0951035 5.40911e-21)
(0.80809 0.0521297 -2.7002e-20)
(0.99299 -0.00290946 3.09644e-22)
(0.98948 -0.000873474 3.02627e-21)
(1.01811 -0.0668278 -2.15032e-22)
(1.12935 -0.0658761 -5.0756e-20)
(1.0125 -0.0170223 -4.80199e-21)
(1.01829 -0.0606055 -2.40485e-23)
(1.03462 0.115342 8.4145e-21)
(1.03339 0.138109 2.84759e-20)
(1.05719 0.00122854 2.18181e-23)
(0.998461 0.130408 -9.75746e-20)
(0.858634 0.140219 2.13916e-20)
(1.19611 0.055476 7.12688e-20)
(0.996404 0.0260686 -1.82898e-19)
(1.06553 0.0389657 -4.12355e-20)
(1.00434 -0.0131057 1.3034e-21)
(1.06709 0.0879162 -4.8112e-21)
(0.994424 -0.0543811 -1.71258e-21)
(0.978149 -0.0334946 2.57373e-21)
(0.999054 -0.00109248 3.34083e-23)
(1.03896 -0.0610081 -1.27693e-20)
(1.06472 -0.119141 8.07158e-23)
(1.10633 0.0328652 3.47885e-20)
(1.06594 -0.00648926 3.30918e-20)
(1.00683 0.0440763 1.48463e-20)
(1.00719 -0.0359696 -3.6081e-22)
(1.10997 -0.025725 1.57518e-20)
(1.00895 0.0346038 -1.72235e-20)
(1.00812 -0.0260414 -1.94512e-21)
(1.06614 -0.0772872 -9.77533e-21)
(0.999946 -0.000111634 -1.53561e-24)
(1.00042 -0.000214578 -1.38812e-23)
(1.10312 0.0317959 -3.018e-23)
(0.995909 -0.047523 -1.8913e-21)
(0.981876 -0.0314024 3.89612e-21)
(1.00045 -0.00018359 2.13812e-23)
(1.00023 -0.00231625 -1.43365e-23)
(1.10237 -0.0369634 -4.97327e-21)
(0.999377 -9.03744e-05 -7.44046e-23)
(1.21873 -0.051998 -2.1e-21)
(0.806966 0.0665733 1.41258e-19)
(1.22501 0.0639055 4.12595e-21)
(1.15285 0.0442584 -2.78686e-21)
(0.974357 -0.00771193 -4.8991e-21)
(1.07349 0.128894 3.3225e-20)
(1.22661 -0.0349917 -2.13213e-20)
(1.00433 -0.0223147 1.14326e-23)
(0.981714 -0.0118117 -2.58387e-21)
(0.998337 -0.00301593 1.70936e-24)
(0.999455 -0.000389016 2.79408e-23)
(1.00149 -0.00377521 1.19384e-22)
(0.998779 -0.0234915 6.1771e-22)
(1.02114 -0.102869 2.64829e-21)
(1.15354 0.0687959 1.06558e-19)
(1.14717 -0.0760182 1.03914e-20)
(0.959769 -0.00471027 1.02354e-21)
(0.999918 -4.65251e-05 -1.6789e-24)
(1.01018 0.0770694 9.86561e-20)
(1.19523 -0.0873443 -3.20614e-20)
(1.18021 -0.119144 -5.58483e-21)
(1.01296 -0.032279 2.18539e-21)
(1.21681 -0.0243312 2.96044e-20)
(1.03722 -0.0628765 2.49743e-21)
(0.974716 -0.00115794 -7.89542e-22)
(1.00739 0.0346314 8.67287e-20)
(0.933148 0.00277661 -3.52229e-19)
(1.16071 0.143885 -8.72947e-20)
(0.983533 -0.000585929 -6.33328e-21)
(1.15634 0.146919 6.81328e-20)
(0.971757 -0.00608597 2.00638e-21)
(0.99124 -0.0334578 -2.14163e-21)
(1.2082 0.0753311 -7.83676e-20)
(1.00027 -6.02338e-05 -1.32512e-23)
(0.994019 -0.0223324 -4.11377e-22)
(1.20785 0.0228449 2.31681e-20)
(1.18551 0.0519707 8.37641e-20)
(0.977364 -0.0179989 -7.97475e-22)
(1.04489 0.082832 6.55273e-21)
(0.959395 0.16572 -8.64206e-21)
(1.0251 0.039753 -1.99329e-19)
(0.975554 -0.0280154 6.1348e-21)
(0.957982 -0.00912032 -5.98728e-21)
(1.03524 -0.0494352 2.98956e-21)
(1.10983 -0.00507749 2.65532e-21)
(1.03257 0.0169491 -4.88019e-20)
(0.996328 -0.0014938 -2.03226e-22)
(0.949936 0.0200701 -1.00485e-19)
(0.996046 -0.0342095 3.54246e-21)
(1.01434 -0.101777 -5.01506e-21)
(1.11738 -0.0637512 1.11364e-20)
(0.903953 0.16735 2.81609e-19)
(1.15914 0.0713645 -8.72219e-20)
(1.03192 0.0824888 -1.04343e-19)
(1.10819 -0.14426 -7.71952e-22)
(0.889029 0.00624484 -1.56417e-19)
(0.978111 -0.015501 4.54415e-21)
(0.992153 -0.032347 1.5339e-21)
(0.813992 0.0271663 5.41926e-20)
(1.06345 -0.026859 -9.13845e-21)
(1.02283 -0.0962236 -5.02503e-22)
(1.04463 0.118115 -2.12338e-20)
(1.02666 0.121382 -6.51311e-20)
(0.985386 -0.0287435 -3.52365e-21)
(1.04166 0.0224394 -1.10294e-19)
(0.997154 0.14095 -1.81101e-20)
(1.02531 0.111647 8.52466e-20)
(1.10155 0.145201 2.73821e-20)
(1.03881 0.120108 1.36835e-19)
(1.09942 0.0860967 -7.2651e-20)
(0.989377 -0.00367248 2.05381e-21)
(0.979047 -0.0165147 5.19572e-21)
(1.00251 -0.00586793 8.90479e-23)
(1.0047 -0.0833084 5.62252e-21)
(0.987129 0.0380816 -2.57381e-20)
(1.00765 -0.0881539 3.25085e-21)
(1.21364 0.00754366 -2.01669e-21)
(1.17003 0.00494791 -5.9801e-20)
(0.982503 -0.0359704 2.55057e-21)
(1.21428 -0.0495028 -1.20225e-22)
(1.22148 0.0236757 -2.2969e-20)
(0.981509 0.0189635 -7.6836e-21)
(1.20451 -0.0500417 1.68489e-20)
(0.999986 -0.00279433 -7.76793e-24)
(1.05122 -0.0127453 5.30949e-22)
(0.990779 -0.0358974 1.06339e-21)
(1.16628 -0.10731 2.38427e-22)
(1.17701 -0.113345 1.37739e-20)
(1.00901 -0.093395 1.17369e-21)
(1.09927 0.137477 1.54554e-20)
(0.984477 0.156854 1.44523e-19)
(1.14507 -0.0596771 2.18838e-20)
(0.99157 0.0219127 8.11641e-20)
(0.842353 0.117996 -9.68311e-20)
(0.997102 -0.000181683 -3.21255e-22)
(1.00283 -0.000946672 3.8349e-23)
(0.997755 -0.00462841 -4.94074e-22)
(0.979458 -0.00792565 1.13534e-21)
(1.13259 0.077913 -5.62559e-20)
(0.822572 0.0307963 -1.17324e-19)
(1.13383 -0.0112157 8.10848e-20)
(1.08055 0.137284 1.99164e-20)
(0.988143 -0.0181218 -2.27112e-21)
(1.15709 0.12443 1.15123e-19)
(1.16098 0.136192 3.69157e-20)
(1.14827 -0.138851 -1.31826e-21)
(0.968562 -0.0111608 5.3234e-21)
(0.96125 -0.0178092 4.35873e-21)
(1.21862 0.00631028 5.96889e-21)
(1.00975 -0.0320251 -4.1162e-22)
(1.14827 -0.0716197 1.43979e-20)
(0.980485 -0.0293472 8.31865e-22)
(0.968158 -0.029206 -9.494e-21)
(1.05509 0.119088 1.50809e-19)
(0.99374 -0.00249338 1.12209e-21)
(1.01905 -0.0433897 8.41364e-22)
(1.03482 0.135094 7.08249e-20)
(1.20936 -0.0528086 7.58692e-20)
(0.916163 0.140918 3.22462e-20)
(1.01037 -0.0614871 -5.11397e-22)
(1.06154 0.0132974 5.28815e-20)
(1.16945 -0.113416 -1.26449e-20)
(1.00012 -0.0503263 5.79453e-22)
(0.953377 0.0158911 -3.69301e-20)
(0.964079 0.00159074 2.28001e-19)
(0.983137 0.0452539 -3.99031e-20)
(0.996824 -0.0250904 -1.8185e-21)
(0.877415 0.0374135 1.27632e-19)
(0.976753 -0.0259614 3.18897e-21)
(0.972205 0.116196 4.5721e-21)
(1.09088 -0.0634428 -7.55405e-21)
(0.984644 0.0700104 -2.24887e-20)
(0.988851 -0.0342985 1.37911e-21)
(1.00008 -0.000169849 1.76304e-24)
(0.982353 0.0616395 7.48371e-20)
(0.965772 0.104551 8.6755e-20)
(0.97798 0.125345 -1.38868e-19)
(0.982 0.0535049 -8.73349e-20)
(1.09127 0.00638003 -1.89362e-19)
(1.1164 -0.0314074 -1.57471e-21)
(1.11291 0.0741012 -1.40945e-19)
(1.02119 -0.0930996 8.83715e-22)
(0.991344 0.0362644 2.63883e-19)
(1.042 0.0745681 -1.29299e-19)
(1.18964 -0.0867146 3.92166e-20)
(1.07072 -0.00748977 -3.48361e-20)
(0.989682 -0.00349179 1.17424e-21)
(1.20557 -0.104627 3.94979e-21)
(1.0668 0.119668 -2.54716e-20)
(0.968133 -0.0236381 2.8765e-22)
(0.969489 -0.00537143 -6.3752e-21)
(0.976897 0.0113353 -5.28189e-20)
(0.978309 0.0769094 -1.60531e-19)
(0.993701 -0.038799 -1.66103e-21)
(0.991996 0.0806687 1.17092e-19)
(1.00982 -0.0988168 1.89405e-21)
(1.21335 -0.0259429 -4.86911e-20)
(0.989527 -0.000540208 -2.80492e-21)
(0.970977 0.0842574 -9.01515e-20)
(0.962938 0.0933257 2.29852e-19)
(0.832004 0.0726621 2.1704e-19)
(0.99257 0.146519 1.88402e-19)
(0.996346 -0.000515263 -3.35665e-22)
(0.988345 -0.0195362 1.48958e-21)
(0.998934 -0.00111723 -2.89644e-22)
(0.997536 -0.0524288 -5.71678e-21)
(0.912613 0.110841 -4.61536e-20)
(1.16958 0.0401035 -1.23527e-19)
(1.08503 0.126353 -1.5232e-21)
(0.968411 -0.0281745 6.30325e-21)
(1.06672 0.042739 1.29759e-19)
(1.02759 -0.0284785 -6.83911e-21)
(0.913828 0.126517 6.66667e-20)
(1.05727 -0.0800314 3.2408e-21)
(0.986504 0.0172241 8.99828e-20)
(0.989991 -0.000534786 -1.64573e-21)
(0.926029 0.10284 -1.54433e-19)
(0.900866 0.135382 -1.85882e-19)
(0.987207 -0.0204467 -3.76315e-21)
(1.17908 -0.0194905 3.07948e-20)
(0.926107 0.0878887 -1.54339e-19)
(0.99624 -0.000738842 1.62257e-21)
(0.868234 0.0714538 -2.46122e-20)
(1.03219 -0.0545895 -1.40289e-21)
(0.995435 -0.000611727 -5.25909e-22)
(0.967778 -0.0121055 -3.7148e-21)
(1.04893 0.13529 -8.95704e-20)
(1.18012 0.01682 -7.48232e-20)
(1.00354 -0.0705193 2.54962e-21)
(1.01473 0.141131 7.3253e-21)
(0.893801 0.151496 1.23037e-20)
(1.15566 0.131781 -1.24905e-19)
(1.04377 -0.00813042 -6.89317e-21)
(0.999536 -0.0470001 9.71788e-22)
(1.11137 -0.0718469 -1.48305e-20)
(0.981559 0.0861785 1.31948e-19)
(0.885523 0.0705153 -1.41388e-20)
(0.816429 0.0705914 1.41123e-20)
(1.1612 0.033392 1.93539e-20)
(1.00095 -0.00782558 -2.32433e-23)
(0.970293 -0.00262394 9.36977e-22)
(1.07216 0.122189 -9.02688e-20)
(1.00183 -0.00605449 -5.52451e-23)
(0.9883 -0.00519327 -2.13253e-23)
(1.003 -0.00944937 6.78111e-23)
(0.996468 -0.0216337 -9.41406e-22)
(1.0481 -0.110653 -7.61543e-22)
(1.10484 -0.133143 1.67437e-21)
(0.955922 0.128427 -2.03821e-19)
(1.01468 -0.0357247 -1.57894e-23)
(0.999182 -0.000907371 1.9733e-22)
(1.05226 0.0754467 -2.02883e-21)
(1.19644 0.0360291 5.95783e-20)
(1.00197 -0.00965056 3.55311e-23)
(1.20815 -0.00689864 -3.6954e-20)
(1.00152 -0.00103077 -2.46335e-23)
(1.16172 0.0124361 6.82686e-21)
(1.0248 0.0419365 1.39586e-19)
(0.987679 0.078203 -2.27114e-19)
(1.08258 -0.127629 -1.53152e-21)
(1.16956 -0.010689 -4.1693e-20)
(0.996081 -0.0108632 -2.1295e-22)
(1.07904 -0.0871244 -1.94534e-21)
(0.996162 -0.00177079 -9.37197e-23)
(0.979041 0.0985521 -2.34122e-19)
(0.952314 0.125614 6.30926e-20)
(1.1224 -0.145647 -1.94449e-21)
(1.09645 -0.140841 -1.0168e-21)
(1.07321 -0.134154 -4.59196e-22)
(1.02099 -0.0624387 -7.47526e-22)
(1.00728 0.136794 1.55819e-20)
(1.02387 -0.0574894 -1.07542e-21)
(1.06376 -0.109243 -1.08156e-21)
(1.03664 -0.116814 -6.74972e-22)
(1.07728 -0.0775364 9.86716e-21)
(0.850739 0.0724 1.1922e-19)
(1.07062 -0.144955 -1.59305e-21)
(1.19359 -0.063343 -5.19716e-21)
(0.973371 0.0288251 4.60188e-20)
(0.992744 -0.000572521 1.60111e-21)
(1.17142 -0.0343013 1.91821e-20)
(1.02624 -0.0522518 2.86413e-21)
(1.03887 -0.108759 8.57189e-22)
(0.996191 -0.00123845 5.97969e-23)
(0.999877 -0.00234841 -4.00147e-23)
(0.859664 0.0876638 -2.0273e-19)
(1.08007 0.0457131 9.98732e-20)
(1.11822 -0.149264 -4.50256e-21)
(1.21492 -0.0883078 8.08815e-21)
(1.09188 0.0754037 -5.31448e-20)
(0.996752 0.0777783 -1.83449e-20)
(1.04677 0.0785098 3.93805e-20)
(1.14754 -0.111889 1.29288e-20)
(0.989414 -0.038228 4.09679e-21)
(0.996917 -0.0329255 -9.07289e-22)
(0.991709 -0.0348025 -2.64052e-22)
(1.06273 0.0746008 -1.30769e-19)
(0.972898 -0.00643282 5.65767e-21)
(1.00267 -0.0480697 1.1492e-21)
(0.999612 -4.15161e-05 1.68805e-23)
(0.980255 -0.0162035 -8.76998e-21)
(0.998055 -0.00071681 2.70496e-23)
(1.06 -0.119453 -1.21319e-21)
(1.03919 0.134223 -8.41873e-20)
(1.02682 -0.097023 3.97407e-22)