/*--------------------------------*- C++ -*----------------------------------*\
  =========                 |
  \\      /  F ield         | OpenFOAM: The Open Source CFD Toolbox
   \\    /   O peration     | Website:  https://openfoam.org
    \\  /    A nd           | Version:  7
     \\/     M anipulation  |
\*---------------------------------------------------------------------------*/
FoamFile
{
    version     2.0;
    format      ascii;
    class       surfaceScalarField;
    location    "0.5";
    object      phi;
}
// * * * * * * * * * * * * * * * * * * * * * * * * * * * * * * * * * * * * * //

dimensions      [0 3 -1 0 0 0 0];

internalField   nonuniform List<scalar> 
29574
(
588.003
-435.51
-152.492
270.109
42.9289
-313.037
932.904
-1118.29
185.391
-395.217
994.338
-599.12
-635.436
669.937
-34.501
-687.413
51.9772
198.83
-18.325
-180.505
586.78
-436.957
-149.823
222.148
-287.954
65.8063
98.149
488.631
-56.8283
239.486
-182.658
-254.253
256.019
-1.76592
-241.414
-11.3109
252.725
34.5603
553.442
623.282
-651.531
28.249
-965.123
569.905
-269.509
310.735
-41.2259
-82.6864
-949.991
1032.68
-247.049
235.28
11.7694
304.216
-34.1077
-287.482
292.11
-4.62809
-27.2265
-227.026
-437.921
536.07
259.032
-291.022
31.9902
932.904
-364.449
93.6179
270.831
886.436
-971.355
84.9188
342.149
-155.586
-186.562
-159.101
-76.8879
235.989
-93.9975
-153.052
-592.07
741.301
-149.231
356.53
-301.641
-54.8897
359.175
-86.941
-272.234
557.058
-288.033
-269.026
-717.747
780.385
-62.6376
-731.767
139.697
120.532
-345.324
224.792
932.207
-932.207
780.943
-349.56
-431.383
256.528
410.985
-667.513
5.9207
777.54
-783.461
-281.552
101.334
180.218
-863.267
685.305
177.962
969.828
-83.3915
-137.664
-226.784
115.493
71.8184
-187.311
1060.26
-458.226
-602.029
297.803
-217.61
-80.1932
842.958
-30.4186
-812.54
238.728
-235.552
-3.17507
-787.855
70.108
48.0419
-725.613
677.571
-240.745
-136.067
376.812
762.307
-836.617
74.3095
134.623
-340.679
206.056
18.4069
-217.529
199.122
388.005
-118.077
-269.927
694.588
-752.163
57.5745
-43.9167
-304.008
347.925
-66.5221
-202.987
-663.614
429.405
234.209
-50.6696
246.995
-196.326
482.994
-485.261
2.26692
-201.885
-319.246
521.13
-697.653
828.132
-130.479
-719.135
110.661
608.474
516.006
-577.931
61.9251
-651.811
-67.3246
-135.721
-355.325
491.046
-145.618
-71.5212
217.139
367.367
-542.28
174.913
288.674
-207.243
-81.4313
676.466
-53.1844
-280.209
-27.5693
307.778
1061.98
-574.64
-487.336
-50.6603
438.818
-388.158
337.178
-143.744
-193.434
-229.683
15.6104
214.073
857.627
-601.1
567.342
-834.828
267.487
635.702
-525.041
817.154
-196.515
-620.639
258.725
-67.4245
-191.3
293.518
-71.3704
134.497
-185.167
-588.256
-275.012
246.122
-281.722
35.5996
-57.7044
164.249
-106.545
-618.991
417.106
150.758
-310.709
159.951
-406.478
664.049
-257.57
738.955
148.738
-887.693
904.572
-130.326
-774.246
170.328
-282.878
112.55
179.935
117.868
426.241
56.7535
244.184
-73.8558
-778.76
790.813
-12.053
-299.927
243.099
963.655
-877.113
-86.5421
285.262
-134.504
413.014
-422.832
9.81776
183.949
106.97
-290.919
416.913
-184.654
-232.258
1156.11
-1156.11
458.642
11.8665
-470.509
-48.4092
260.263
-211.854
-435.886
203.417
232.469
263.377
8.90618
-272.283
-251.013
-90.4198
341.433
22.7833
-181.884
183.048
15.782
403.143
-117.259
-285.884
-247.763
-402.521
650.284
-533.69
483.029
-568.561
-431.518
-359.155
-183.176
542.331
576.68
59.0216
-268.972
-17.967
286.939
-1031.82
257.666
774.155
-170.772
909.727
34.3455
264.012
-298.358
347.714
-571.96
224.246
246.601
-361.938
115.337
124.148
432.911
731.612
-814.299
9.28251
198.473
-207.756
175.671
166.478
261.898
94.6323
146.362
-505.518
-17.7378
-159.271
177.009
14.2483
224.479
838.049
-832.128
294.961
485.982
145.595
-353.309
207.714
240.791
915.321
263.831
-63.3309
-200.5
-281.462
-6.02013
-412.666
38.6916
373.974
115.038
54.9337
-169.972
279.151
-244.806
23.823
-304.032
167.974
120.7
-301.139
219.076
82.063
-509.593
74.9139
434.679
-94.7481
240.343
-262.973
71.2376
191.735
-97.6438
-226.336
323.98
9.57339
270.527
-280.1
-758.664
-212.691
128.72
-226.364
191.56
971.716
-67.1438
-238.621
-37.2298
275.851
152.752
664.402
-251.505
-11.4679
-736.868
148.612
94.2132
164.819
73.8374
-166.287
92.4495
-18.6965
-222.718
-169.601
304.223
-218.477
200.152
-37.1791
-366.801
-142.792
-183.114
-629.5
812.614
-170.491
112.787
349.981
63.0328
255.423
3.3013
424.534
14.2845
-337.844
458.376
313.09
-49.2592
-202.632
-118.822
321.453
-17.7309
-186.77
204.501
406.131
-442.468
36.3367
102.826
101.097
-203.923
46.6508
312.524
-572.326
509.684
62.642
-538.156
-31.3141
569.47
-431.681
-102.008
-36.2457
225.536
-189.291
26.8386
-202.201
175.362
735.45
196.757
336.278
68.9076
-405.186
-95.9899
210.427
-114.437
266.188
38.0284
234.87
-128.908
-105.962
573.019
-205.652
23.4237
940.231
147.94
248.56
108.306
-356.866
256.514
-247.232
228.239
-350.959
122.72
63.4569
-940.57
-546.745
411.023
226.058
-152.221
-39.1939
273.125
-233.931
68.1499
268.128
-41.8139
280.554
-238.74
323.814
-57.626
10.5917
237.968
232.775
-351.985
119.21
-68.264
286.405
-218.141
-425.399
183.808
-364.661
180.852
259.861
-403.916
144.054
-322.089
289.628
32.4607
1.76924
-333.323
331.554
743.635
-695.593
205.395
-186.988
619.576
-634.881
15.3059
418.982
97.024
-860.16
530.871
329.289
-42.06
311.224
-269.164
-93.717
-151.679
245.396
-287.259
566.055
495.921
512.703
-512.703
-527.408
-504.413
-227
-208.886
893.116
-598.155
13.1184
256.021
-269.14
-190.966
-243.002
433.968
102.917
141.546
-244.463
481.136
-887.614
-334.403
243.983
-14.7194
-397.946
356.856
-355.087
-1068.61
500.053
-484.267
484.267
-643.366
-3.23034
646.597
600.037
-252.323
294.242
101.652
-395.894
-321.957
273.548
-222.762
196.22
26.5418
-512.356
818.081
-305.725
305.734
-59.6113
526.83
-68.1877
-423.597
220.965
176.037
68.1466
-639.494
448.528
216.884
-360.628
86.7177
-180.435
224.913
113.123
-338.036
350.766
-104.165
-923.946
-232.165
624.668
-47.9882
-57.9523
242.092
-184.14
504.752
-420.062
-84.6893
-62.7599
726.607
-663.847
-53.2098
896.168
261.906
1.47056
-89.5112
192.428
-82.2668
507.86
-425.593
-538.845
189.286
-174.428
18.8189
155.609
-98.4119
392.654
-19.4363
200.975
-181.539
-77.9098
-203.643
195.01
-79.9715
-77.4638
192.957
7.56
-243.7
236.14
26.8203
463.025
-489.845
710.409
49.3939
-759.803
294.32
11.414
-59.1369
-159.34
-117.19
33.156
216.579
-249.735
40.8841
362.259
231.363
-743.72
328.769
-200.885
-80.8372
122.617
-820.507
697.89
54.8966
-377.573
-200.358
-252.575
195.871
56.704
-352.743
-310.871
567.688
-999.205
246.541
-56.5637
-189.978
-25.5205
215.982
-190.462
-1039.99
342.011
697.975
-27.9752
363.715
-335.74
324.729
63.2757
-260.349
114.62
145.729
313.651
-79.3488
-234.302
340.809
-112.57
-194.693
301.663
292.114
-212.196
147.514
-173.035
-89.2177
560.224
-471.006
753.323
-185.981
-137.919
-325.597
463.516
853.865
-731.247
227.208
-194.052
-52.6758
-285.169
-537.765
88.6409
76.0162
-164.657
321.503
-72.5083
-248.995
-53.7321
157.165
-103.433
349.446
-116.671
-93.1575
-328.617
421.775
7.50845
844.003
-851.511
-776.297
804.833
-28.536
-247.305
78.2066
169.098
-754.661
444.332
310.329
70.8063
-164.804
12.5343
169.202
-181.737
-261.352
234.126
6.3862
-232.828
226.441
227.891
-2.35467
154.277
-489.184
334.907
226.016
-218.456
-40.7793
-188.904
-75.6032
533.979
319.501
-70.3484
-249.152
-733.951
741.46
-478.841
345.578
133.263
449.828
-303.466
475.489
-857.118
381.629
-269.194
-71.4846
-726.594
28.941
-170.472
-89.8766
-647.668
631.792
15.8766
-172.564
351.076
-178.512
280.307
279.689
265.153
-164.939
-100.215
245.387
-274.71
-462.158
-197.35
-85.5283
275.772
-179.255
-96.5169
-505.203
10.7507
494.453
191.064
-88.2387
1006.15
-1006.15
432.952
-512.664
-527.322
119.485
189.688
-309.173
-458.385
405.71
-330.176
302.607
-331.098
385.313
143.697
-529.01
49.3666
712.941
505.858
-120.545
391.49
-574.666
67.4319
212.082
-279.514
-210.366
-220.753
431.119
260.28
93.3067
-353.587
-297.496
-544.767
842.263
488.576
-736.339
329.672
36.8695
-366.541
-949.991
416.786
95.9178
241.088
-258.819
307.27
-351.186
-33.0697
153.567
-120.497
-2.31076
-268.396
-252.768
11.5949
241.173
230.199
45.5735
270.239
-366.229
227.524
-93.0265
-512.56
-173.167
-137.542
-387.313
-367.348
-939.901
-168.59
1108.49
-500.627
945.348
-444.721
-141.864
-14.4213
156.285
-670.14
636.786
33.3541
-215.963
334.422
-118.459
241.872
262.88
0.80917
-218.338
873.962
-912.502
38.5401
425.36
-94.4027
195.737
-337.847
154.437
183.41
-235.437
43.9802
191.457
-449.023
-56.1804
132.033
-250.11
318.817
-93.904
-1034.55
851.435
-503.11
420.844
-121.939
243.291
-121.352
-52.3449
371.328
-318.983
338.361
-316.052
-22.3091
-384.671
40.597
-215.025
-274.365
633.771
-359.406
-39.0285
-260.899
-91.0196
420.691
4.26784
190.592
-194.86
869.787
190.468
-316.693
-21.1537
152.366
185.995
-374.618
-454.757
829.375
-807.06
348.834
438.648
-948.352
509.704
75.3459
-411.99
336.645
-245.452
191.72
-3.48446
466.509
-167.776
-196.885
-454.102
152.462
616.15
8.51825
30.8907
215.651
434.426
-106.586
-327.84
-88.1336
-97.238
185.372
95.1486
191.969
-269.879
9.13806
-116.326
-53.9836
170.309
-386.455
2.04571
384.41
-28.551
291.973
-263.422
-107.126
497.852
-390.726
-418.47
354.725
-94.445
-851.569
788.809
321.047
-309.18
-69.1067
-281.853
-66.8999
-285.085
-656.732
-122.028
-514.516
264.812
249.705
-254.222
46.9796
-130.36
131.179
17.2107
158.912
409.798
-568.71
26.5708
-256.267
38.6571
17.4222
263.132
149.208
-266.467
-67.8463
-241.713
309.559
-811.174
796.175
14.9983
239.311
-253.346
14.035
364.599
528.517
254.785
-334.134
-9.77115
304.091
-724.677
694.258
295.874
-209.496
-86.3777
263.055
10.0699
-178.02
-140.332
-320.104
460.436
-217.634
-104.455
272.807
-345.316
410.305
-503.463
113.83
85.4453
-199.275
210.682
-131.341
-79.3407
276.458
-651.075
126.947
-482.271
237.403
-107.565
-129.838
48.7941
-807.458
-414.43
273.899
-344.248
-572.174
647.52
-447.098
80.2973
368.376
-665.872
156.344
-257.362
101.017
-843.495
892.289
-30.7891
-12.693
790.233
-227.334
219.24
8.09425
-305.233
202.324
102.909
-233.322
-170.594
-40.9376
413.792
-372.855
515.914
-605.132
24.5726
-215.813
191.241
161.531
-136.958
305.092
92.7697
-265.334
163.429
31.5809
-134.121
766.827
107.136
-404.175
171.916
-243.848
179.121
64.7267
199.743
-219.179
3.9626
194.176
-198.139
-320.489
252.643
-230.856
-6.66221
237.518
-515.191
377.272
183.802
-174.229
-581.219
-66.4498
614.914
4.66127
-268.112
-237.406
196.381
-80.4658
-115.915
-133.984
-72.1277
206.112
157.229
-207.651
50.4217
-40.1026
257.912
-217.81
-227.901
221.816
6.08557
-203.973
-23.9283
324.39
110.036
924.485
-683.694
-245.445
-287.06
248.032
190.531
32.9487
-223.48
-944.776
779.875
164.901
-393.616
172.677
220.939
-463.957
-132.064
596.021
-158.992
-806.131
12.5056
-303.425
-451.095
453.141
-83.5414
-221.691
241.426
-25.4438
645.701
-90.6698
-555.031
347.641
-454.767
-159.419
756.558
-597.139
-191.913
-206.484
398.397
-291.304
277.55
13.7539
5.91894
-56.2439
213.473
-85.6375
-166.938
-531.114
16.5974
-16.1849
-92.2952
-744.321
34.2977
-432.337
-207.271
73.287
-249.574
172.686
698.518
263.403
-300.633
168.073
66.7968
-320.768
24.6199
296.148
-271.99
36.5535
-38.3483
-995.137
777.735
217.402
-35.4055
231.625
-119.114
279.065
498.543
-518.398
19.8549
-284.741
-194.1
-363.718
402.409
-40.2883
156.873
-116.585
957.085
-800.514
-156.571
47.6207
-523.4
475.779
-10.6266
-160.956
171.583
-143.967
-110.256
490.263
-64.0219
-215.862
457.734
-553.579
110.48
443.099
-185.11
278.727
512.773
-352.525
-160.248
300.017
7.77381
-307.791
-240.283
182.331
617.106
-81.2947
-535.811
407.011
-248.099
-432.818
389.14
43.6779
243.076
-0.984132
-249.222
-71.5455
-186.09
57.1824
208.278
-498.84
56.9344
441.906
-254.592
267.711
-348.105
319.554
-292.821
-67.4818
-416.786
-443.601
402.664
-530.555
1001.85
-471.299
-132.263
91.9747
-179.587
-214.029
489.247
-50.2956
-438.952
-15.6362
-305.507
321.143
-481.08
550.914
-69.8339
406.187
210.255
-101.786
-108.469
173.642
-213.745
207.122
-203.159
-310.885
131.629
422.536
-374.915
-7.70729
-283.596
74.7389
-875.075
875.075
135.45
8.55553
420.124
-428.679
-148.013
180.787
-32.7743
-513.689
303.323
-413.437
53.8755
359.561
45.9618
150.419
-491.655
366.645
125.01
-230.102
438.45
51.8126
307.798
41.8358
-349.634
325.003
-60.9905
-392.674
-27.3879
106.856
-345.571
293.226
335.915
-222.544
-113.371
-57.3631
149.572
-92.2092
-939.901
-304.223
-218.018
118.238
99.7795
-301.489
214.548
-416.646
-531.706
262.747
516.932
-779.679
-152.481
-525.292
677.772
-449.346
181.234
-30.5144
193.943
217.07
-9.94781
-658.098
640.876
17.2226
51.8261
355.185
261.326
-43.4757
-217.85
-112.779
-509.903
622.682
-555.862
775.59
-219.728
-577.163
46.7573
-741.72
177.593
564.127
-985.384
417.252
568.132
-276.919
-276.661
-127.895
448.942
-968.639
438.083
-675.345
814.269
-138.924
594.216
-706.995
-205.922
252.94
-238.692
124.401
-799.746
-165.349
-693.526
858.875
630.549
-13.4429
501.312
326.82
-76.7769
256.712
-111.028
96.6062
-136.413
206.702
-525.948
258.081
-231.106
-26.9757
-145.848
328.163
-182.314
-152.827
-103.44
517.472
-18.9291
-295.299
279.662
12.2483
624.538
-704.185
-651.272
-247.266
-251.575
17.38
222.106
42.0255
417.732
-459.757
-336.717
313.997
22.7201
-141.606
157.216
561.58
440.274
-352.395
-197.403
549.799
158.413
-224.935
-81.168
249.142
-57.1158
-356.321
162.474
-225.805
-240.986
292.812
199.86
-128.041
-454.575
-530.809
-279.902
-9.92709
289.829
-295.637
159.341
136.296
-172.182
176.45
-196.847
-98.7896
228.618
-222.232
257.418
-281.663
24.2442
277.985
-86.0592
-191.926
-805.206
646.214
-318.32
-289.191
73.2275
-278.186
315.055
281.921
-110.922
517.109
194.825
-53.2786
292.316
527.72
-820.036
-196.443
169.054
41.6276
-548.849
408.517
-906.007
276.506
301.623
-802.25
-474.161
-73.2911
547.452
-536.567
461.779
74.788
291.465
-208.536
60.5229
-584.354
368.492
-15.6318
171.976
-308.62
350.645
160.192
-512.717
-130.089
-35.2119
211.249
-4.38863
281.938
268.832
-82.538
183.635
736.836
-10.2286
294.916
-258.179
-36.7367
-239.398
-113.911
-119.325
-27.3126
266.624
686.658
258.69
82.154
196.911
341.868
-124.984
-92.2109
298.365
-206.154
-430.481
104.885
498.152
-231.875
-266.277
296.08
-300.468
-20.1998
-671.303
691.503
232.337
-831.072
446.401
-225.092
66.5842
-315.736
-113.01
-350.991
464.001
-123.292
142.111
220.687
-297.464
287.535
-17.0083
-870.356
332.2
72.7005
-321.696
-726.93
-505.603
-439.173
246.063
77.5532
-311.855
211.086
-292.254
171.323
66.0805
128.691
-226.805
98.1143
-458.471
129.854
502.761
-921.232
-171.447
90.9815
457.544
26.7238
-574.086
-421.051
20.0141
-601.233
-2.31067
302.328
-116.191
382.75
-266.559
-115.887
-88.0353
136.08
-195.309
-91.9492
-344.574
385.458
-218.192
-71.815
290.007
-78.0184
237.36
-255.238
-266.106
248.659
17.4475
43.9681
-220.274
286.858
361.145
-44.0984
-292.619
-15.3828
237.198
209.039
-25.0139
-184.025
-114.243
-468.906
54.5298
414.376
-299.534
-114.582
414.116
157.861
-215.224
293.387
-266.096
95.6232
-208.569
-101.211
309.78
788.496
288.639
-26.314
-218.822
245.136
-22.6183
-513.948
-279.902
-740.437
366.353
374.084
13.3528
-301.385
-7.73437
269.632
-18.252
237.492
258.418
-343.46
85.0426
-443.154
-103.591
-553.444
210.819
342.625
217.576
19.9422
237.764
323.706
-622.762
299.056
220.979
-424.15
203.171
-367.86
387.51
-675.185
287.675
924.504
-901.081
-707.169
432.805
-396.691
-131.166
527.857
155.495
139.42
-321.368
567.091
-374.84
-192.251
342.542
-184.129
-787.915
232.053
252.593
245.559
-209.237
65.2704
385.699
-112.151
183.556
-189.523
5.96736
235.143
11.8524
578.694
-610.009
-514.787
204.601
310.187
83.6784
-341.161
-156.813
497.975
73.2222
346.672
-184.198
264.149
59.6648
-470.993
186.252
290.887
146.517
-437.403
125.329
-247.268
-165.151
-229.414
-206.096
-369.24
24.6662
-28.897
-629.201
-23.142
225.936
-202.794
-329.174
177.314
151.861
-338.055
-117.822
455.876
-236.214
-98.1895
196.589
12.4501
-309.427
91.9387
173.169
112.054
-285.223
-273.381
-109.786
383.167
-367.595
-290.709
270.892
19.8173
148.322
-369.934
221.612
155.341
-258.417
103.077
-44.5108
-104.73
-256.756
361.486
-393.655
225.879
211.825
-441.239
-279.709
131.586
148.123
-453.549
133.445
35.0258
-440.083
405.057
-202.781
-63.325
162.289
379.868
-310.612
-69.2552
-199.92
209.713
-9.79259
-263.9
144.105
119.795
-108.222
-135.626
-296.21
-108.039
887.914
-223.282
-20.418
265.822
-489.884
295.784
132.804
-341.913
209.109
-351.868
-138.296
490.164
-469.309
-218.104
219.934
-29.4036
239.85
688.125
-708.325
-48.741
-275.348
324.089
77.0864
-708.042
630.956
213.588
69.8654
-283.453
271.036
-81.3477
-222.665
235.171
-366.506
-32.8667
399.373
-711.175
39.6254
671.55
-456.169
-183.324
-90.9418
-257.163
521.418
-35.7457
-774.164
-19.1699
793.334
-188.386
503.954
-315.568
-189.809
482.125
179.698
-520.859
292.099
-80.0173
108.229
399.631
-425.322
433.878
-316.273
-114.543
430.816
-525.175
51.0135
330.237
15.3402
51.6817
-274.347
227.131
-43.8506
-183.28
-72.7587
-78.5327
270.253
-62.6058
-282.966
75.0793
203.648
-304.768
-78.544
383.312
-274.043
312.062
-38.0191
-54.9936
254.736
-326.679
-107.2
433.88
-263.535
127.626
135.909
-133.857
-37.0034
45.5136
-652.04
606.526
-181.17
-251.648
-267.186
-221.998
-339.509
-74.9219
-216.855
-50.8746
267.73
415.956
639.483
181.117
-263.505
82.3877
138.979
508.541
207.613
19.5174
161.504
-224.142
62.6378
-351.674
-163.517
-534.387
-71.1666
316.553
-183.635
313.173
-21.7076
630.803
-182.275
-4.26764
232.885
-249.537
272.381
-22.8439
713.617
4.50531
291.574
-602.588
492.774
109.814
218.732
42.5933
203.434
-15.0801
196.364
-333.906
107.859
-334.644
13.097
-354.954
365.79
-10.8358
111.752
-218.297
190.657
29.1003
-320.137
326.686
-6.54966
244.76
-316.575
243.708
-7.56738
-324.784
-133.601
-69.3563
249.575
11.773
246.308
309.89
-2.1111
-364.062
-143.057
507.119
-84.6622
-150.89
-204.38
-11.4331
87.5441
241.225
267.313
-294.626
273.435
-75.7292
-220.364
253.447
-33.083
-1063.66
713.528
350.133
-416.48
116.946
279.421
20.3845
-299.805
-47.5715
340.798
576.385
-182.609
-6.83108
189.44
-63.3156
-198.037
-270.116
-44.3356
314.452
-293.616
-43.7388
337.355
-70.2999
-510.644
-91.9441
-797.462
785.211
12.251
71.238
228.767
-300.005
66.8243
279.772
-150.696
436.542
-285.846
-238.151
-48.909
-429.074
110.318
-226.206
176.045
-265.921
-315.195
-80.9475
396.142
-113.657
416.736
-303.079
-385.514
-65.5816
-210.576
-86.8874
2.31518
-390.944
-112.166
-208.243
684.895
8.42564
639.655
-648.081
-199.517
40.2458
221.767
-805.188
583.421
178.806
-412.129
282.729
-22.4656
120.112
-983.114
-204.159
-88.0949
445.435
-12.4833
-469.689
-383.846
-86.6631
-657.393
213.644
-413.981
200.337
-4.47517
262.388
-297.582
-88.2451
385.827
-7.41127
-250.615
258.026
830.016
-116.399
-488.764
485.28
-60.0361
-714.128
-85.686
405.24
-846.355
783.718
303.401
-461.015
403.899
-84.5064
-124.99
194.07
173.993
-368.064
-438.331
-241.964
188.374
20.8323
-209.206
-207.277
904.332
28.5717
-992.029
559.692
-213.567
-70.4685
284.035
697.299
34.3132
341.531
-97.5482
380.149
-355.483
-402.126
414.141
-12.0148
316.823
-329.895
13.0716
348.076
-108.226
-10.2471
-382.834
-140.566
-216.551
-92.6223
-198.277
-81.2369
-564.593
749.699
-185.106
-213.404
16.5568
-191.255
-388.524
-462.893
412.597
100.126
-295.436
-131.17
-116.837
248.007
-46.7597
394.461
-347.701
323.005
-70.362
215.065
-55.9259
-159.139
90.519
-251.475
125.673
166.441
289.026
-75.4379
-290.77
-83.1206
200.988
532.074
-154.802
26.6085
-773.796
747.187
-294.036
109.772
-192.31
-30.456
-67.6211
301.747
57.6214
772.249
-697.939
856.014
-110.698
-745.316
383.473
-79.2193
-304.254
119.784
-241.136
-101.837
511.897
-410.061
-218.488
-69.4657
28.499
-736.541
400.908
-109.442
-291.136
293.312
-2.17575
-201.246
-75.7671
277.013
209.578
18.963
-228.541
-28.2676
-122.482
-445.922
-617.739
-427.867
206.897
2.78223
-229.738
-1.10082
233.438
46.8585
-532.355
485.497
-287.895
240.458
-420.045
182.872
-379.757
695.642
-285.59
71.6255
-276.201
204.576
-117.724
272.161
565.088
-173.598
-235.252
-146.905
237.557
849.886
90.3455
-289.829
215.973
47.7782
724.47
-15.565
199.121
-329.781
-93.0511
351.517
-77.617
-414.685
-509.091
152.282
356.808
-162.219
-486.566
648.785
-583.354
1008.71
-686.477
121.883
-441.222
-301.101
251.903
88.9058
-916.221
68.4891
847.732
-317.518
351.15
-78.343
1.35068
355.506
316.88
-4.81814
217.705
-204.308
-13.397
-306.465
99.1885
-200.263
0.342612
241.82
328.433
-73.6478
604.03
-128.251
258.725
90.7206
511.419
-101.114
489.794
-79.9964
241.708
-17.2647
-224.444
393.397
-456.515
-314.93
771.445
535.088
-270.276
-260.401
-546.07
81.5726
464.497
291.779
-43.7478
-710.575
677.812
32.7631
508.687
-55.5464
-36.7906
636.235
-599.445
-334.069
248.01
258.098
76.3241
394.627
111.231
-367.373
205.409
-14.1683
309.085
13.9199
-418.053
-131.949
-54.6484
586.366
330.395
-318.671
-11.7238
-479.952
36.7985
-353.214
-327.189
305.481
34.5603
329.155
-271.849
305.317
-57.3067
-147.843
-258.669
-230.582
-19.4245
250.006
-400.369
-112.334
-28.8672
547.744
-38.0607
-13.0222
479.531
543.371
-26.5597
-181.268
-276.699
311.006
-34.3071
-92.9265
250.964
33.3096
-743.885
-303.969
-218.382
315.771
-394.106
-49.4954
415.645
621.149
227.176
-848.325
-146.363
543.647
-142.739
301.988
-249.156
-52.8316
-107.909
-558.444
-183.276
16.1644
210.762
106.118
-134.196
237.273
-266.392
-254.748
311.228
-56.4808
247.283
276.924
-404.819
693.62
414.871
-257.28
341.137
-83.8567
-251.151
-433.484
-214.849
837.207
18.8072
373.628
-64.5426
-941.278
25.0571
364.121
-93.8826
-742.826
-0.778727
-281.074
636.164
208.351
-94.5213
-106.85
2.16941
301.922
-372.857
15.9925
356.865
-224.803
-113.233
237.081
-85.6805
-473.637
-75.2117
477.567
-69.0507
314.147
-1.92138
-283.164
-82.2305
-108.836
-519.945
367.465
-119.642
653.728
-625.229
-257.266
329.472
-72.2058
-209.351
56.5243
285.802
25.4218
-452.938
-468.294
-429.263
974.823
-458.093
-516.73
518.401
-97.5578
-484.031
-100.324
-86.1495
19.4145
473.435
-104.943
-15.6957
41.8681
184.068
-217.789
-186.386
64.0696
-86.5905
514.952
-103.928
-410.477
-351.835
296.945
271.864
-5.24003
387.673
-73.5264
-58.8843
-149.358
-178.234
-313.254
29.6578
53.7692
-258.15
436.283
-648.975
549.947
-94.983
-454.964
759.069
-725.759
379.817
-64.0462
-277.533
-309.156
16.157
533.243
-117.599
-758.09
784.698
224.444
-7.82188
-216.622
-118.281
218.407
449.839
-47.1752
561.422
-144.316
-284.077
288.582
-109.972
-108.045
-208.674
237.506
-28.8316
-116.054
271.549
292.566
-29.163
-58.6608
251.592
-473.305
-278.857
272.707
-236.981
-35.7261
-382.061
372.191
9.86994
-19.7048
-118.535
270.901
292.661
-298.541
5.88052
-241.795
-115.382
-4.6163
158.183
-328.007
375.334
-43.7964
787.301
-743.504
-507.564
330.123
-53.1989
21.8537
352.974
9.43349
-362.408
6.9789
382.161
202.1
483.205
17.4429
474.291
42.8183
355.442
-47.6436
-55.0393
216.543
221.092
77.2726
-859.201
867.627
-298.712
289.895
8.81691
-552.753
256.293
-4.70057
744.677
-539.636
-205.041
262.62
-191.673
-70.9469
432.413
230.53
20.4579
497.014
-202.422
620.779
-418.356
70.4978
-49.0018
836.384
-787.382
-380.07
275.34
477.76
198.706
241.91
-4.71175
230.275
-159.937
-463.598
623.535
31.8143
211.894
47.2861
-561.465
572.039
-509.397
796.558
-278.747
-517.811
-269.994
-155.405
54.6472
270.293
0.598839
-231.289
-260.366
-336.294
-470.766
9.34904
187.852
-197.201
296.462
270.713
203.073
-792.799
768.386
24.4128
1.23356
410.125
-444.144
34.019
280.12
69.3785
1.87206
725.204
-727.076
71.6237
239.383
52.9278
100.414
-294.786
312.101
-17.3151
-892.684
-47.2176
203.525
-110.587
-480.718
591.305
-299.324
816.256
-142.742
-378.44
-101.512
-562.082
136.303
361.672
48.2939
-261.307
-22.7693
195.593
-153.725
-6.29553
832.128
42.9469
-18.1705
309.745
476.023
-358.658
-117.365
-628.13
263.367
364.763
99.0459
171.207
355.594
-352.854
239.483
113.832
282.31
229.52
218.401
35.0459
70.2808
-485.466
415.185
809.942
-253.161
-556.781
170.605
181.435
-352.039
334.395
401.658
253.079
3.37647
-626.224
-305.983
234.002
-890.152
368.134
75.1961
-426.187
56.7423
-630.948
-105.593
251.963
-366.319
342.22
547.062
-568.549
645.452
-76.9028
-16.8272
379.087
411.986
-306.033
-21.7616
162.2
-140.439
-303.043
302.659
-20.7207
610.398
-349.102
-24.2142
380.747
-356.532
59.4781
-188.314
233.923
-45.6082
-254.115
207.74
46.3752
288.421
508.137
167.159
-407.918
401.571
-1032.68
1034.55
94.9945
-6.20418
428.289
164.248
-54.4764
416.972
324.594
217.471
27.9248
249.886
369.262
-27.3084
-341.953
-651.125
647.599
3.526
238.624
204.265
-16.4135
503.716
-433.435
-216.036
763.097
256.58
97.4448
240.576
-365.56
-181.101
26.9973
245.71
713.453
-159.256
-554.196
-837.624
901.081
269.949
328.491
225.66
-205.276
554.109
-992.44
410.046
300.141
279.724
-52.3548
429.402
291.201
61.0035
-420.548
359.544
-195.088
286.78
-13.8047
-23.5858
-824.423
694.098
795.824
-201.608
336.147
235.736
117.612
344.004
-21.0378
-322.966
269.688
265.408
261.282
-195.602
93.8166
-277.871
289.885
-12.0141
413.272
-519.459
-260.22
-8.38201
225.853
433.303
-576.36
-279.855
18.5473
421.077
-98.8671
-233.281
332.149
-324.088
-185.003
635.44
105.861
426.669
-942.462
515.793
-463.31
419.273
44.0367
-4.74675
259.219
-254.473
304.547
-245.069
260.855
-238.093
-22.7625
269.677
11.351
-199.665
-843.495
84.6863
307.961
-392.648
-29.1859
716.231
-687.045
326.422
-298.656
-27.7661
-445.75
420.856
281.527
-223.906
-400.054
978.735
-578.681
290.482
-14.9059
203.28
551.952
448.048
-169.785
216.535
8.89609
-225.431
-29.7576
403.732
-593.475
33.5604
559.915
205.652
230.975
-317.862
-38.4078
-343.654
-904.332
855.33
-483.27
1035.22
339.504
-44.0427
244.502
-3.09081
-241.411
491.198
-436.668
61.7892
-713.829
-461.564
-1.74564
-264.117
321.535
-469.59
-499.049
301.926
-19.2067
-282.72
-960.428
433.02
-797.462
160.072
36.7428
-196.815
34.868
596.088
649.849
-633.972
-295.816
823.536
-72.7305
193.431
347.24
-489.328
142.088
-108.68
343.956
-235.276
-702.994
750.772
-390.206
200.479
-228.094
238.295
-10.2011
-274.11
700.779
316.695
582.458
28.1276
-786.217
-235.373
222.949
-311.044
-60.2522
-228.817
240.412
-892.289
977.208
179.548
41.1333
-220.681
269.722
-269.986
-96.2428
28.489
391.372
210.711
-602.083
502.763
-902.818
465.986
-43.4506
-225.323
-7.6509
232.974
-114.533
-198.721
-262.623
70.6974
-161.71
-142.322
305.384
293.983
-266.986
-111.907
-323
434.906
284.489
292.43
-18.3116
-296.69
315.001
-691.741
20.4378
838.049
-892.684
924.504
-923.946
915.321
937.044
-937.044
-837.624
-983.114
256.965
-208.671
-238.222
-210.883
-190.937
-7.20134
738.945
-961.362
222.417
-867.627
18.3919
-288.319
199.142
-39.0697
-763.135
791.263
232.724
-7.50882
-225.215
-241.978
234.567
-12.0422
-252.473
264.515
250.135
-14.1556
-235.979
205.653
-232.629
-23.8741
-255.903
279.777
-191.621
204.995
-13.3739
251.053
283.615
-349.322
410.325
111.919
-188.641
76.7223
-359.967
-580.602
-197.615
211.448
-13.8337
-420.674
-84.3197
504.993
200.654
-179.822
46.8245
206.527
-26.9789
-354.796
240.885
457.468
-115.249
203.381
451.199
-41.0746
304.127
-357.895
53.7685
20.5652
-632.651
667.519
261.304
-463.727
-783.965
730.371
53.5938
480.863
497.872
68.9931
388.475
-240.746
236.27
-73.2577
-710.707
236.042
-306.51
672.453
-857.56
319.792
-704.268
384.476
135.094
264.265
-206.41
-57.8544
-40.2446
-390.506
-866.337
592.227
-4.52882
265.984
4.66404
-298.37
293.706
21.0776
-34.6484
237.21
282.726
-37.0165
184.612
-57.7043
-126.908
737.925
21.1443
274.776
309.593
7.37997
187.068
-223.187
36.1197
209.65
-304.275
301.965
-281.855
-206.441
221.142
-14.701
75.1448
-495.819
236.52
138.813
-90.2375
829.182
-599.257
407.006
549.82
-636.362
219.857
-299.874
316.279
-424.959
184.931
-277.553
218.535
-199.572
-293.026
211.679
-194.331
-10.8036
205.134
215.23
-296.467
369.359
-267.264
-102.095
3.2596
482.237
-442.609
-560.332
1002.94
-695.413
614.118
-50.4379
-321.016
371.454
21.4393
43.0522
-302.826
295.091
-276.709
-3.14553
201.983
35.1762
-237.16
-188.148
-225.833
-293.877
223.763
-209.459
-14.3035
-298.37
-401.135
401.135
190.829
-660.138
163.418
140.805
293.706
727.896
-235.122
-41.3984
-646.435
687.834
518.62
-75.5203
239.755
-367.488
318.746
371.342
247.205
5.00692
233.683
-173.607
-60.0754
-45.1145
-686.588
686.588
-171.213
-391.702
-96.6477
-129.558
207.144
20.3796
-145.287
213.433
-425.172
481.926
-177.164
-202.593
702.426
-492.583
-209.843
-128.736
-112.4
488.423
-153.516
-83.5944
-21.8882
-483.64
505.528
-500.032
-287.823
506.414
-9.39994
-32.0709
-687.751
527.814
-459.133
-66.0417
767.332
19.9685
235.204
-113.191
774.031
-660.84
77.5244
800.927
683.3
831.793
157.381
-213.307
-390.246
-71.3181
-243.575
250.109
-201.187
50.8508
-195.386
-896.377
41.047
855.33
25.6738
403.732
807.198
-269.569
251.746
17.8232
1066.45
-542.42
-524.034
-172.12
12.1131
473.167
206.692
-37.6382
295.808
253.991
432.087
-772.099
956.408
-184.309
-356.868
5.03338
233.912
20.5759
664.319
-72.4766
-226.235
-197.855
-231.407
193.259
92.4623
635.434
690.557
-731.955
92.8443
-795.838
23.7786
654.034
752.466
-849.799
97.3331
-627.587
536.862
90.7256
627.581
-563.85
-63.7313
-447.774
522.919
41.2612
-113.811
-117.97
231.781
152.257
305.004
-589.629
406.305
180.761
-180.761
-201.621
222.523
-879.335
436.726
-638.621
528.034
-546.07
859.201
-949.438
25.0128
-240.7
208.153
-196.797
-215.332
-245.892
27.1094
358.348
39.1615
344.312
-356.673
-353.1
23.2048
400.457
-670.733
-55.3755
-726.9
782.275
212.178
-287.945
55.9419
140.415
-257.253
-623.534
656.889
-184.087
-81.8344
8.61264
510.571
123.2
-314.498
-12.691
-455.162
957.925
863.544
-863.544
335.258
45.4886
18.0679
461.463
-761.703
18.1987
647.65
19.8682
80.6335
418.331
-498.965
218.202
306.856
-4.52798
10.1658
670.841
20.6619
-784.524
601.247
196.278
302.676
-498.954
-813.976
535.229
213.634
-406.567
25.1507
-650.38
-189.369
-29.4838
218.853
-112.965
225.887
-112.922
16.3459
47.1993
358.444
43.9656
-209.896
17.3524
-239.824
520.248
656.705
59.5259
12.7909
106.808
-117.98
-182.025
201.463
392.999
-512.38
-707.945
-64.1533
-206.391
-467.234
-475.228
-274.187
-360.695
625.372
-515.558
6.91221
797.583
-804.495
319.07
50.2896
396.357
-61.099
609.523
-47.4511
-562.072
312.845
-10.2384
-566.066
-84.9892
651.055
-28.5847
-218.647
-589.932
407.657
-151.582
-61.8874
213.469
217.532
611.292
66.0819
-216.571
-117.334
26.3145
208.017
-546.603
639.065
198.374
4.9061
-200.332
401.079