/*--------------------------------*- C++ -*----------------------------------*\
  =========                 |
  \\      /  F ield         | OpenFOAM: The Open Source CFD Toolbox
   \\    /   O peration     | Website:  https://openfoam.org
    \\  /    A nd           | Version:  7
     \\/     M anipulation  |
\*---------------------------------------------------------------------------*/
FoamFile
{
    version     2.0;
    format      ascii;
    class       volScalarField;
    location    "18";
    object      p;
}
// * * * * * * * * * * * * * * * * * * * * * * * * * * * * * * * * * * * * * //

dimensions      [0 2 -2 0 0 0 0];

internalField   nonuniform List<scalar> 
117990
(
33.701
-0.0613752
12.2567
3.59517
11.7078
0.0669718
60.6816
25.9039
-0.389563
-0.0640581
-0.668212
0.559428
7.85235
102.941
-0.378467
96.7344
-0.107673
-0.707367
59.0779
11.8392
25.957
-6.45238
-0.740957
5.09457
60.6562
52.39
26.974
31.6952
-0.117243
57.1591
-0.443134
51.3967
22.7678
6.81059
59.2722
-2.11054
60.4145
-0.0967111
-8.40394
60.827
51.5501
-0.708203
19.844
-2.18106
34.1923
103.297
22.7664
16.1216
12.4692
0.506123
-0.000114985
-4.70676
52.4924
-0.0332253
12.2112
52.6375
49.5837
50.3536
42.8025
14.2816
-0.135192
5.38976
-1.38793
14.685
-0.269317
5.06596
7.54733
46.3411
28.0216
48.1598
59.4723
52.2598
60.7344
82.554
29.2333
36.8732
40.0772
4.2153
60.5091
47.3879
47.5899
-0.260758
32.01
30.9071
-4.02015
0.536879
17.5261
-0.085221
48.2242
-0.081933
4.52257
5.39358
-0.121728
-1.69438
-0.802489
1.2114
-0.871456
31.4136
18.8157
48.2289
-0.13695
35.2841
19.0693
10.363
59.6215
25.8658
61.2572
23.9882
24.4621
-0.0963211
48.3039
-0.863708
40.3385
21.1174
52.8284
17.2619
-0.673554
59.3669
0.0394654
52.1659
59.2717
96.7957
12.5657
43.4433
-0.0112789
57.3796
5.58191
45.7189
-2.65741
40.1931
33.449
0.805849
57.9487
0.533494
0.040923
58.3726
59.5777
22.8673
12.3906
5.34233
45.7038
17.0401
0.1525
53.0197
33.8902
-0.000221968
28.5426
5.64405
46.4247
7.43317
25.6955
35.3708
5.2288
-0.0111807
-4.64241
22.8161
-0.0927583
44.071
44.3306
26.7328
35.4406
28.3635
-1.36771
24.9799
18.7317
-1.32888
38.5027
25.3333
43.8795
18.5523
15.7599
22.6688
-1.06245
99.5355
25.6633
44.7239
99.9081
2.62005
25.9956
12.3037
28.9945
29.388
58.6374
53.2076
61.2486
-0.0567649
1.93406
56.6797
36.6726
4.80799
2.69952
16.6218
59.9994
22.9178
52.588
25.1245
100.093
-1.5036
24.8364
28.5554
54.3773
60.9753
30.718
-0.0977149
1.06543
38.7562
-0.581507
-0.262256
40.9108
27.2356
100.51
61.1821
60.5881
-0.0794235
26.1366
23.2194
44.5019
22.8656
103.237
-0.28397
24.3201
20.2582
14.3073
49.2354
-0.0351872
58.1081
24.9867
27.0877
24.9504
60.0083
33.599
29.3182
47.9651
24.615
33.1691
54.5095
1.45966
16.2344
25.0951
-4.78561
15.6613
31.6063
26.6546
17.7708
-2.7378
7.87713
49.4143
55.3045
25.3328
78.6316
59.9301
-0.541007
52.5793
7.00295
47.698
29.1914
36.969
31.5959
0.921443
25.6679
29.2332
103.634
53.3175
-9.05908
24.5275
3.75563
43.77
-2.61024
44.865
36.133
-0.281094
36.8187
12.2806
31.6539
5.89044
18.2377
32.3475
25.8452
15.0767
23.2998
25.0525
-2.69782
3.77555
38.3608
0.732435
25.9169
58.2656
51.7643
31.1834
-6.68551
33.5894
-0.0884054
39.1033
61.1101
0.0809054
31.8108
0.0333132
51.1591
9.71252
35.6955
101.85
24.6567
0.761978
8.42554
21.8084
48.0458
31.1543
26.8796
-0.36943
26.0214
-0.820459
56.7295
52.9609
25.1357
7.74002
18.809
59.9957
7.86769
5.18392
35.767
40.7909
-0.268904
30.5111
53.1811
49.3957
39.9558
23.0692
50.5228
101.974
39.5897
-0.565734
-0.0888641
0.0851277
-0.026162
57.4562
5.3135
44.9202
-0.269903
-0.0646436
1.77933
12.6388
49.2945
25.7113
13.8018
9.5301
10.621
15.1604
45.3898
31.5623
15.0368
58.0844
56.7148
29.0534
2.6179
28.423
26.6412
33.7271
-0.00115564
1.3379
36.3997
57.8403
20.9566
60.3865
56.3041
40.1531
-0.00101382
5.0278
20.4637
14.3485
-0.00499773
21.8946
48.6729
54.217
-1.10592
46.4258
16.0342
18.8423
0.496681
0.0119299
37.0925
30.2438
24.7108
20.6602
36.3409
25.8769
-0.423424
48.6858
83.6858
11.6435
28.0907
51.0712
59.5886
17.7183
31.7808
20.0653
1.14945
0.201472
4.64911
12.1469
15.7388
27.8406
1.65219
50.4988
60.5157
-3.84707
35.0393
0.0415674
14.0308
43.6817
-6.46396
22.7513
-0.927292
10.7539
4.10736
-4.12693
14.8808
12.1213
17.8573
0.104887
25.4602
-0.00127004
100.73
0.819852
59.297
53.3003
57.3859
35.5038
58.419
49.337
5.31357
8.77641
0.0340427
-0.291752
26.0517
8.36652
13.9866
34.1874
0.8008
-0.456769
0.478939
4.02815
40.4971
33.7307
15.8852
0.689116
22.2672
7.73525
-0.41825
59.4636
44.6252
61.1891
0.115746
0.566219
9.1531
25.298
7.06667
24.9508
55.6636
55.7368
-5.61395
50.504
7.73344
11.5184
61.1471
56.9281
25.7739
11.3209
99.3673
-5.48234
0.116766
25.5358
81.9864
25.0705
83.3959
34.0689
49.2815
-0.00429016
11.4038
35.1794
41.4811
57.5408
-0.00295264
-0.267198
7.99281
25.072
-0.44708
0.112084
43.376
61.0963
36.0646
60.9598
14.9963
59.8064
53.8085
4.28044
21.8971
94.1593
21.0337
16.0821
10.2202
-1.62803
60.5514
24.6638
59.0591
31.2408
57.1789
15.0015
12.6865
14.483
54.8567
2.73424
6.84855
6.96922
-0.121615
33.2076
27.5454
0.984726
42.8177
-0.0414205
-0.0240477
8.88833
31.579
3.17
14.8516
23.2737
6.5751
-0.0747957
60.1438
30.3679
26.4249
16.0322
27.5055
11.975
0.0257279
-0.00289379
74.4801
94.3862
28.2132
0.0235551
7.05226
49.3966
26.6646
39.6234
-0.255908
25.8076
28.4472
0.314355
-0.0939166
55.326
7.82118
11.3272
26.1461
1.51503
55.4162
23.6984
14.8145
13.602
15.0108
46.0692
1.11506
0.0370442
16.676
56.1807
59.9639
59.3499
33.5774
13.3713
60.2638
28.242
0.93073
37.3425
12.8155
44.3568
10.1056
43.6501
5.06955
59.2431
2.18441
8.01714
14.7598
60.9614
0.893926
25.1093
24.9639
55.6981
25.5019
6.8163
22.1115
0.188626
-3.77527
6.58377
32.082
25.2836
10.5185
48.8696
60.6256
59.3752
58.4241
59.3631
35.6883
44.9941
28.4442
61.2371
61.2018
11.2929
5.30103
59.8754
0.0586749
-8.77948
31.1097
16.9686
7.83034
41.5254
-0.225359
8.92631
59.2104
59.2737
-0.482363
1.15812
41.8287
6.74429
0.291752
57.2137
55.9074
-0.0810409
23.5683
25.0097
2.42883
31.6827
49.2339
59.5228
6.86821
-0.00375834
61.2531
31.5745
-0.487925
40.4754
22.7193
4.99055
-3.21989
-8.79787
7.9961
-0.28147
27.3046
1.18122
-0.390662
17.2582
41.0354
-0.607294
23.1698
5.10159
25.5601
61.0437
0.0604202
54.7766
31.6011
59.8067
41.3295
-0.930782
-0.1221
-0.734766
7.02716
53.468
15.2768
5.18321
58.4602
90.9067
91.6438
37.322
41.8772
59.8661
-0.846801
25.1322
17.1345
0.750717
31.8839
5.06311
33.3241
22.7489
56.0499
57.7571
2.04911
17.9022
26.5709
46.6219
48.4138
29.3311
0.0011639
60.8898
7.18765
102.371
14.4214
35.7854
22.5415
16.698
17.6325
-1.50938
60.8098
20.5717
49.7421
80.6072
34.0224
-0.0875708
24.3563
23.5584
24.9367
40.2771
26.2237
1.22894
21.4011
-1.64027
-0.0780066
15.1588
1.04729
59.5225
0.766292
59.4441
18.5278
33.3943
11.8936
52.9181
15.9599
56.8391
-0.00477706
29.652
8.5857
11.417
23.759
0.0492025
33.7392
51.4985
32.1193
0.930842
18.6992
53.4045
58.666
9.65963
-0.703347
41.8998
0.585935
60.0201
28.5392
48.4034
57.8261
0.562546
31.2169
58.4488
-0.394963
44.47
59.7766
-3.24913
19.0968
1.37085
22.901
14.8838
-6.62557
58.3906
20.8065
49.6712
53.4164
-3.92123
0.408929
59.316
4.48685
7.51373
1.09079
56.5364
79.9226
58.2982
7.66448
2.09455
7.39026
21.3173
23.8286
43.8941
39.6127
53.4559
-0.495164
19.3307
0.0167444
8.23528
-0.00546955
-3.07539
25.7813
59.3762
-0.125107
59.5022
-0.864526
32.0694
-1.03678
82.9544
16.3852
51.7979
-0.471084
27.4047
31.9352
14.3565
-0.0923297
1.94758
-0.632344
23.23
10.6478
-1.55652
56.6242
0.385074
1.26036
25.2121
-0.915398
60.2372
48.3992
9.78874
31.6058
26.2086
-0.0134329
21.4641
23.2884
1.25773
28.0783
7.6885
39.6556
8.28933
2.07791
31.673
-0.0763749
6.15341
-0.824094
61.1357
-1.63518
0.564012
-0.491875
36.0947
50.352
4.64865
2.39564
58.1644
61.0285
11.4395
51.4404
18.5772
77.9896
0.423026
-0.0191352
56.4635
41.4918
0.404099
49.3488
-1.3427
-0.0474209
48.5615
23.9863
57.0876
85.8611
25.2496
-6.56144
7.28553
15.9911
58.591
0.018362
24.1474
47.5837
0.18328
19.1699
31.2449
56.1144
19.2968
18.4213
52.2226
41.0764
27.8985
19.946
60.5226
46.4705
2.12703
24.5209
57.389
-1.86331
-0.783587
23.2923
9.33974
14.1526
54.1135
-6.6476
-0.0455135
-9.00599
13.356
22.7318
56.8479
20.21
36.4
1.75363
56.5687
20.0034
48.4914
20.5157
53.0014
49.866
24.0814
52.5133
58.9675
-0.818272
48.8677
60.6846
23.3634
3.30701
25.8356
56.3389
32.8385
34.1109
60.6308
9.77432
5.11078
-2.82738
1.10217
45.1319
46.594
1.2347
60.1638
56.4491
38.414
-2.68634
41.8303
82.4084
24.2923
60.4551
53.4656
1.59086
42.5317
81.6881
4.42053
52.3471
87.2322
-1.73565
49.4553
1.02941
56.9669
14.0294
54.3551
44.3183
-2.99197
60.5623
-1.57714
27.9013
21.045
-0.483871
19.885
20.9169
15.4142
25.6001
6.46558
3.03314
43.9177
18.2169
-0.79077
24.592
102.364
59.0515
36.3354
56.1193
-4.06217
8.38964
59.2541
31.1123
-0.0856847
2.7366
25.2379
1.97449
20.6786
-2.57695
49.4672
-6.58677
40.3678
74.0301
52.7324
39.8901
8.24085
12.0058
-5.02446
50.438
24.4805
0.000587778
-1.75704
-0.779357
53.0617
6.40622
-0.00916681
20.7571
17.3622
26.5161
53.8615
52.4639
19.7102
25.2783
7.81408
55.667
22.968
50.4362
6.53467
26.0433
26.8986
12.2043
-0.468221
1.1213
-0.0900248
26.1522
-1.5744
17.9042
2.25117
51.7952
0.0310425
2.6539
0.220366
53.9413
19.2201
60.5775
40.5743
53.1149
1.71385
21.1673
60.5626
35.5748
20.0979
52.0503
-0.472586
9.3248
-7.93777
37.8686
0.0328736
32.5718
16.8953
25.2459
24.3197
59.7811
13.2979
-8.61833
53.7771
14.868
14.0333
8.07625
-0.00854597
-0.438049
-1.63922
42.8518
-0.922581
5.30237
16.8035
59.5161
57.226
29.5854
0.546166
21.885
41.5064
19.8936
0.513336
18.6508
35.9828
0.0888698
6.79822
41.0306
56.1091
15.8338
97.0472
56.3634
22.2209
0.779211
86.6297
38.1068
3.4583
0.13754
-7.81935
-2.70109
15.3855
-0.0968603
-3.99142
41.1991
46.1477
22.5552
23.91
15.7918
-0.118629
54.2134
-0.803918
31.9185
55.3829
-0.232326
35.9287
9.22482
61.1006
52.2053
24.619
59.7107
52.6372
19.9632
42.8511
0.543874
3.01952
95.1825
-2.65628
-0.475938
33.0874
-1.26098
-0.200192
14.2443
-0.599713
25.0234
23.6874
4.51808
-0.583761
0.351367
4.45249
-0.132122
53.4794
42.1203
28.0455
-1.42323
86.5157
24.9165
48.907
14.8319
15.891
56.6891
48.0674
40.1686
25.4906
4.701
0.0919653
41.6571
60.7041
39.3076
-0.11453
-8.94064
0.529943
0.138787
54.4607
2.37385
46.7945
-1.53297
61.3032
28.4388
15.6972
29.6129
-0.0130462
57.0213
-1.41346
7.06855
52.237
59.873
55.0571
2.20011
4.32359
53.0598
-0.0300948
47.1615
7.01302
61.2555
51.0813
17.1279
17.622
0.102737
48.6089
21.1335
20.7552
22.4756
17.5632
1.64509
32.0136
-3.97649
48.8257
53.7644
13.0107
56.9713
48.4316
-7.32749
-6.40431
40.8034
18.5683
51.2763
57.491
43.6292
16.0554
0.0189898
11.4166
23.9999
21.7051
27.8901
47.8193
61.1871
6.86153
57.0688
-0.00427688
26.8192
4.87204
59.8001
98.9176
-0.228325
57.3813
-0.05629
6.71905
-0.13212
-0.00329002
-0.0026884
59.8345
12.3259
25.2855
18.8949
2.99975
66.5049
57.473
13.1723
4.61581
-0.911311
-0.132225
2.71746
31.6143
40.1868
56.6501
-6.39842
53.7945
20.0816
26.5583
36.7062
2.7076
52.0607
0.0644926
5.34084
2.76942
16.2762
-3.74511
58.8299
4.83441
0.00534592
20.3827
6.47777
60.4446
-0.0707364
4.83336
4.71747
24.9182
32.0128
22.5304
107.247
50.5023
59.2495
-2.69964
5.16037
25.7009
-1.5133
53.0137
22.1759
-4.51353
35.9295
-7.29175
3.08373
20.2225
-0.461635
13.4498
65.4784
11.6286
42.9326
61.1969
59.7664
59.3403
-0.0350262
4.88922
0.0592726
44.29
38.2364
57.1617
15.1182
23.0583
56.7916
24.2118
30.427
15.3638
37.7858
23.617
0.037718
49.5364
-1.05237
55.777
43.543
41.4922
0.505597
5.10175
34.1135
-0.0100146
53.2593
9.17332
26.1057
32.7641
41.793
60.4086
26.3487
56.0872
55.4691
30.335
-1.58105
40.5955
51.1203
8.09382
43.448
3.09555
32.3033
34.5731
12.8925
51.8236
0.581765
54.4249
58.6575
-0.0975989
5.1319
0.127247
51.2906
6.67403
26.9544
5.14936
32.4139
47.3308
8.31559
27.2865
6.54602
22.9335
14.8645
-0.0799067
1.88822
29.5217
81.2509
20.6863
-0.0559552
30.5717
-1.55941
7.59207
35.9515
58.7287
13.2398
29.4717
57.189
13.8704
11.3846
29.2708
11.4972
11.4649
29.447
49.0931
25.4522
-6.25743
-2.40029
30.2187
0.523427
-0.745428
0.123989
50.3993
-1.76633
3.17734
31.6583
-0.017054
8.72676
-0.385865
59.7092
0.115824
6.39957
-0.27286
18.7875
58.7777
14.6599
23.5384
-0.115052
-0.0667977
28.8471
8.41714
-0.477062
60.2027
25.1693
-2.43229
89.387
6.91915
2.80564
20.4468
14.1602
-1.55997
52.6872
-0.58448
27.0045
57.9685
-0.455944
28.2624
-0.879712
25.2961
56.9775
36.8898
-6.50674
0.551803
13.6764
17.5465
14.6445
32.0945
5.53704
-1.33684
-0.272794
-0.571041
27.4571
22.5849
51.5899
13.382
5.3158
50.786
52.9537
35.7827
-0.554586
24.9733
29.7841
40.0854
33.6749
21.8943
51.3694
51.2145
24.3055
32.459
57.4844
25.7333
0.475587
92.2358
101.42
34.447
16.7148
18.0039
5.67621
42.9867
23.1621
60.9026
25.4614
60.6649
80.1565
-1.17733
17.064
8.13702
0.0498546
-0.102103
59.1517
-0.177081
36.8452
18.1677
28.9607
55.5037
-0.793321
30.1895
38.522
-0.422225
59.158
23.9132
-1.41111
38.8237
52.4866
-0.00659333
41.4482
2.65256
48.7878
37.8277
78.4479
52.2651
-1.4076
-1.24085
54.7533
59.4909
59.5737
6.4557
28.985
60.9587
50.2392
24.8139
-0.0118933
52.8192
28.6686
15.3173
21.1402
55.6128
20.2639
5.68426
46.3576
-0.428437
28.271
50.0693
60.2775
53.0732
52.9102
55.8281
46.8158
-0.580726
-1.04139
-1.44752
-1.55647
52.4896
49.9786
56.4605
33.1951
-6.47953
24.1764
22.2562
3.60942
7.59181
-1.02469
73.3217
14.1849
40.3558
-0.0307983
0.0389052
5.03314
0.10232
5.30345
16.3931
34.5362
15.0616
11.3996
54.6561
80.5683
7.73272
-2.72799
7.50899
-1.5405
-0.450164
6.07646
17.2191
1.50021
7.61644
38.2613
-0.103403
40.8176
31.3996
15.3199
-0.66455
13.4787
40.5966
21.8996
49.1164
34.4595
1.19026
35.5175
21.0436
-1.75897
-0.0280632
0.537047
9.66308
57.1547
9.45363
4.9607
9.41466
19.6662
-0.811578
60.1145
-1.28867
53.1329
3.06226
-1.10057
0.499119
26.7176
93.9862
58.757
55.9826
53.026
2.75448
26.0799
-0.176743
-0.00505415
-1.16379
12.243
59.0486
28.7725
67.1497
23.1218
58.7987
49.1871
21.2311
0.000309637
49.1536
56.7567
35.7499
-0.122917
-1.35704
4.23637
59.4664
56.5786
31.2413
35.5502
56.9647
5.95343
-0.120706
-0.0815443
40.6093
5.90697
48.6255
-0.0314641
31.9897
13.261
0.146087
56.9892
28.1488
48.8638
-2.03827
2.66062
42.5076
30.7613
45.8746
16.0989
5.57865
51.9843
5.20718
32.3332
57.1708
56.3615
-1.64187
52.8643
-0.00250607
1.42334
55.5343
18.1421
41.1624
41.0214
6.94263
59.1407
36.212
-0.0794917
96.6623
7.27388
7.44842
-0.610795
-0.253534
72.663
21.1519
5.76153
20.6474
10.7234
53.1901
59.0546
0.402857
-2.7933
-0.908879
27.6348
-0.660421
0.144913
-0.135219
56.9271
31.3185
7.4399
28.1358
40.8899
88.2287
59.4018
55.6569
60.0297
-0.0768908
-6.88906
41.5567
17.462
23.6752
-1.796
56.5762
7.11732
24.8618
4.33253
41.9356
87.391
40.1124
-0.00156744
47.3238
-0.237583
0.0240452
46.5924
-2.19793
25.6163
56.8813
20.9909
5.83166
-2.34383
55.3294
60.4066
60.4568
61.1266
76.3358
-2.82662
-1.31941
34.9551
24.7415
13.1922
-0.31071
30.4705
10.8709
23.0266
9.26057
-0.0507749
27.279
34.4082
59.8791
53.7321
-0.0608408
48.5551
4.32743
104.094
92.6613
18.7429
60.4665
-0.898379
71.4331
41.4296
-0.781455
0.261378
41.9691
52.5159
22.7029
31.8782
46.085
18.1046
-0.0181167
-0.00877104
45.3459
31.8051
25.0612
-1.32169
53.8894
-0.312783
-0.00700124
-1.16496
11.4443
18.544
-0.0880043
27.2889
49.477
55.5424
2.34698
53.9731
7.93815
55.7927
-3.68419
27.1942
0.133872
41.2603
45.1611
41.932
53.3008
58.2762
18.0665
25.7982
60.1865
-1.87669
57.8031
0.000166237
53.7354
44.0616
56.0803
0.496197
-0.0981612
46.4817
55.9403
52.568
0.0425988
6.12645
48.544
5.23203
-1.8938
42.2105
31.0788
26.1951
60.2691
-2.76168
35.9379
14.4605
43.7921
-0.473681
57.7825
51.2692
45.3555
-1.18015
53.3687
24.3152
35.1827
47.4287
0.603695
26.3346
34.5598
30.4838
-2.47795
22.0653
17.295
-0.0722037
22.2751
-4.21184
7.1074
23.9729
-2.42694
5.27793
38.2446
0.162975
46.4443
93.423
56.0375
-0.564155
47.7536
-0.130633
1.22983
17.7796
-0.21077
13.4703
8.797
93.3053
58.3095
25.2042
29.7487
45.0075
61.6292
-0.128639
23.1034
36.7673
40.3361
-0.0947158
56.8503
22.4467
36.8908
0.464996
16.85
-0.247177
55.7908
-2.68496
53.8299
0.514978
93.9908
-1.72881
-0.0365307
61.1419
-0.277093
56.6022
54.6543
48.053
-0.901774
56.5469
58.8265
61.3077
60.4772
59.4322
58.2324
-0.0947025
22.6584
57.1944
1.11272
45.944
46.0949
-0.0556741
0.121631
53.2452
47.4774
44.5407
21.5363
50.0721
-0.611517
0.742128
23.8591
22.3909
24.1534
60.808
58.3544
25.3658
60.2876
55.1168
36.6406
59.2443
8.07968
58.9894
13.5055
40.4842
8.08436
22.4851
18.764
27.7225
-0.0918301
26.362
-0.109549
56.4439
50.0594
-6.07069
4.92558
27.547
30.8357
-0.265081
15.8468
24.8639
16.2587
26.3964
22.4688
-1.15846
14.9846
40.274
0.432954
37.0825
-0.112783
51.9434
5.51557
29.7567
0.424596
-3.04351
22.5958
16.6007
35.9749
5.07061
43.5232
25.4762
91.5789
-0.448606
37.5771
40.3727
23.9429
60.298
1.39704
96.0372
23.0682
13.5521
29.6116
0.125527
14.9481
15.9004
-4.72289
-0.438459
-1.36074
50.9272
-0.00187249
0.492596
0.180847
-0.140311
-2.79805
58.8844
54.3649
-0.836937
32.4718
-0.140235
30.1398
17.254
-3.85905
38.921
-2.39513
54.0776
17.6605
5.92665
16.6915
-2.42259
32.5474
-0.67087
61.6495
7.88299
45.7656
24.8755
-0.101464
50.7444
-1.3938
22.6482
57.0991
5.39328
25.2228
60.0591
70.7091
25.6744
24.4069
39.9199
3.47125
43.8178
-0.222625
22.0656
4.63606
59.6206
31.8296
44.491
39.1235
-6.59889
44.7161
34.6568
33.3703
55.423
8.86729
27.0406
-6.14361
1.62799
-0.424138
29.4155
45.1861
-1.90043
24.2522
22.3772
5.25756
22.8546
-0.717659
1.29268
-2.42902
-0.277046
79.5792
6.25856
54.2186
-0.00359323
-1.07426
0.131719
48.5804
-0.27973
48.2339
52.3593
56.2883
1.04504
19.049
13.6554
9.3613
3.47349
43.6179
24.8227
24.9172
8.29958
-0.874452
52.7674
33.9481
27.4461
-1.57262
2.54013
42.6682
-0.474255
16.9713
40.241
61.0389
56.9083
-4.54573
7.87772
18.564
-0.463005
0.187845
25.0746
-0.0055159
21.751
20.0507
-0.0578419
0.0467886
30.4796
29.9331
24.5138
40.0518
0.0771931
44.1061
30.8109
26.3282
0.416022
53.5863
-0.839837
59.2003
-1.14647
27.87
-0.0382207
17.4314
52.9703
16.4662
30.5226
24.7437
0.307004
46.9701
7.04573
32.1822
24.5625
16.4318
49.4655
48.002
31.6369
47.9224
2.99383
0.0824734
-0.536602
24.9035
-0.119818
7.33014
47.9782
60.35
46.7245
-1.3205
52.5876
13.6415
4.77498
32.7084
43.9198
29.9951
0.0442566
46.2572
33.8549
31.5756
96.8975
101.198
22.8746
-0.0736812
7.55292
4.33096
59.2557
26.9995
35.7167
27.8459
45.5599
32.2948
55.5359
-0.240006
26.9944
13.4602
0.00736945
5.53574
44.3763
5.14633
96.5221
33.2075
40.3738
59.2293
0.969325
-0.00263739
0.0715417
24.6652
39.5728
25.0674
-4.03971
8.96333
3.77936
53.1001
-0.223348
34.0702
-1.33902
13.8088
13.0695
3.71436
52.1441
26.6962
16.7827
33.6001
51.2595
24.3825
60.0117
57.2937
51.3747
24.9808
16.4443
67.6091
33.413
53.8805
25.278
0.128978
-6.45889
-0.00541719
98.2837
-0.79563
1.51168
-6.58083
48.0793
-0.438254
-0.120193
46.5381
20.7228
0.00231072
-0.0337491
6.34511
5.49963
0.0813529
36.284
13.9872
24.4868
43.4168
33.5187
29.4269
42.7927
21.858
0.567883
-0.761965
61.3609
3.70697
25.5493
0.120202
24.4369
24.5343
0.703702
35.0087
23.5809
17.2078
59.8782
-0.237404
20.9736
-1.23491
14.026
-0.856053
-4.96995
58.7974
13.058
-0.0135999
57.5278
4.09701
-0.942288
12.8823
5.84147
39.3217
24.7682
-0.50124
-2.32535
39.4908
23.3771
0.0908009
20.3732
22.6615
37.5173
27.2342
29.4442
58.7198
17.0494
46.2446
53.0885
-0.867088
14.8718
61.1977
0.00132109
53.2803
29.9093
-0.0048377
55.5067
58.2402
4.9933
43.6788
67.5753
39.0059
4.88722
21.6451
-0.00537871
4.01723
48.0408
22.5777
25.2531
-2.39648
68.6825
4.03218
-0.456378
-0.466738
40.1025
60.8362
29.1404
-0.00377083
0.174407
10.6207
-2.2144
20.919
55.5525
94.0366
20.3858
21.8706
18.4246
53.7257
0.0543906
41.7911
18.1181
53.7995
7.55028
44.5161
-2.42898
-1.22085
4.46993
-0.0570507
-0.0939694
47.3668
1.75825
53.505
-0.221386
40.5331
-0.294549
26.7141
19.8894
34.5007
97.2738
29.785
-0.100556
50.5859
24.822
32.6801
50.1654
95.1712
25.4357
24.1766
-5.88216
51.235
15.6586
50.4226
18.2812
25.1314
0.384179
55.0416
33.6886
-0.421531
-0.0749915
53.0326
-1.4315
44.7633
49.3898
15.4505
-0.198782
17.1297
58.7897
50.3962
5.1187
55.2796
51.8331
38.2435
0.855619
-2.49921
34.7912
58.2386
24.0709
18.1269
-1.41334
0.112543
20.633
38.6844
40.6362
52.5487
14.3413
12.1863
24.9721
24.4154
29.317
48.8125
33.8945
31.5153
8.06943
-0.0982703
32.8502
25.0924
8.99385
-0.592977
52.9633
57.1426
55.7478
51.3802
25.1528
55.6312
-0.47492
56.9764
23.1097
16.5188
-0.119969
36.9776
36.4589
-1.40931
5.88017
60.1705
60.6827
7.93595
59.4274
58.1647
40.9299
22.6942
26.3084
-4.06199
55.2741
20.5899
-0.710385
-0.0170558
-0.738374
24.671
2.10563
16.7892
26.1171
16.7037
-1.47591
55.6741
30.2573
60.3728
48.9965
56.1142
30.508
-0.0556729
43.0771
6.91483
1.65116
57.2445
51.9821
52.2658
48.5546
18.2393
37.5395
24.2779
0.0235965
46.7408
-0.806504
25.9606
18.165
26.6781
-0.0321798
24.5222
49.8048
0.000369988
46.9879
45.4499
-0.73653
-0.604057
-1.56492
57.7714
51.1022
-0.00979555
-1.70316
0.108243
-0.545177
8.80333
-1.67307
3.0146
2.98716
1.26817
1.47724
-0.762239
-0.730151
33.5308
-0.0527588
-0.0455833
31.3207
28.2944
33.426
61.1314
31.8335
3.90948
4.06441
-0.00202078
13.3328
22.3986
19.2254
22.9677
-0.69444
60.552
45.885
55.6346
24.8383
34.1263
23.2942
28.4171
0.0394905
26.6357
18.3631
0.537813
27.4024
29.0563
-0.118241
54.4062
52.6183
0.271147
53.3701
44.9825
17.4172
17.8986
-0.123153
45.4758
21.7848
-0.0098929
44.8316
-0.119138
-1.44551
48.7008
94.5475
2.00064
13.3077
-0.0438004
27.011
8.15732
56.1084
38.3712
0.116591
0.300257
6.39479
30.0584
3.35994
21.8344
1.88434
83.9608
51.9835
6.39238
-0.162869
-0.90634
26.8909
44.0922
59.9691
29.733
54.0987
8.59275
64.5534
90.1387
51.9379
60.6271
-3.39829
1.30972
26.5751
-0.118424
60.2955
57.6305
48.0177
69.5789
49.5514
51.2544
55.5296
59.0434
58.136
39.0187
16.066
61.1674
77.3619
-1.89511
28.7854
34.4615
2.8832
25.112
-0.545687
22.4333
26.4742
9.27115
28.5419
0.115319
40.4847
17.9896
32.2729
-0.10489
0.790113
-0.253741
-0.0233016
53.997
47.2964
13.1398
-0.671957
29.3165
-0.0947435
0.147002
1.34505
-0.629583
12.9232
86.8623
15.7068
52.395
-2.35894
44.9001
39.9817
21.4021
8.01156
2.55955
34.2714
69.5881
-1.49549
-0.01849
13.2785
24.2266
24.4157
39.2085
9.22899
41.6324
48.4245
5.16835
6.45626
47.3203
0.739463
-1.42625
-0.155399
-0.00897838
-0.254573
35.7809
46.28
59.9611
55.8897
-0.359337
-0.14531
-0.719527
26.291
53.4278
46.1283
80.5688
47.5225
-0.24504
4.4856
27.7319
17.4071
26.6151
23.211
30.7243
32.6248
10.6046
45.3416
13.3375
1.18345
5.98121
42.8591
14.1583
15.7817
107.221
11.2307
61.5898
59.7563
53.551
61.316
52.9257
30.3172
1.86795
14.203
53.4291
50.9745
0.940263
-0.074625
18.3882
20.778
-1.19028
28.5737
22.5685
30.5376
60.461
-1.41839
40.5292
29.9924
26.0823
50.0277
30.5925
17.8465
32.9254
21.7591
31.943
4.18697
37.3711
-0.657329
29.9849
60.3743
28.4506
8.39462
0.86045
57.9089
19.6803
26.076
21.8718
-0.0920529
61.1536
48.3009
31.4888
8.09497
17.3427
20.5167
1.24726
94.6194
26.718
23.0993
13.3452
10.5039
0.109185
-0.378189
37.6678
-0.0801765
25.4119
30.8546
22.8956
-0.515905
2.71973
0.411011
10.844
43.6373
25.8804
38.3269
26.0305
33.3212
4.18873
3.41183
54.3939
4.24297
-4.82832
53.6408
3.54455
58.8407
59.7606
-2.99558
53.9124
5.04093
25.3448
-3.45048
-2.65548
30.2281
67.5493
8.58723
30.8044
9.04483
57.0531
29.4863
16.4622
-0.711636
0.878814
60.5565
58.1514
26.0451
61.2075
-1.95428
58.9736
21.4733
10.5399
45.3033
43.0563
-0.308461
-1.5057
59.1277
22.3959
-0.0985464
61.0069
52.126
29.4674
36.8343
60.4186
60.7828
13.1915
24.4995
0.869775
13.9329
15.7343
12.3564
27.7795
0.40543
4.43348
21.2283
40.9427
54.3524
31.8633
58.9242
68.7196
3.12001
16.2613
33.9469
3.84408
53.8693
6.08931
-1.64203
57.7815
27.0974
78.9862
-1.08946
45.754
26.3842
-0.0801636
15.3817
-0.305924
12.6846
59.6663
53.8743
58.9183
16.0112
35.5805
-0.608538
-0.169872
1.512
58.2341
-8.35782
15.0194
-0.298898
58.1165
43.7657
0.192849
14.2384
49.1688
-1.52895
23.3508
-1.30674
11.0672
33.3373
55.1114
57.4402
48.5674
-0.460546
28.3821
6.46961
23.6671
-0.335668
17.5886
0.0887652
31.7963
0.554542
59.3544
25.0367
24.6583
54.2326
-0.269631
60.805
-2.45948
59.06
0.0204885
60.6398
18.3183
35.6017
35.6214
54.2643
55.1811
57.1224
57.6438
95.5816
43.0001
12.6336
26.368
0.641337
66.4967
60.2053
-0.629782
43.7903
36.1549
-0.549645
55.9153
40.9306
39.0898
-1.79638
-3.29165
33.2196
26.6576
33.5611
39.5303
9.42991
41.5769
37.668
42.2189
42.157
35.7227
12.8765
-0.684156
72.4329
39.7624
22.2168
-0.00233721
13.6387
59.9176
56.7146
22.1722
25.2351
45.6065
-0.296602
41.6523
42.9799
55.2059
43.5308
26.3942
58.162
3.88884
43.5994
59.006
-1.43092
6.31675
39.8259
-0.694437
-0.315917
25.9065
0.00420789
-2.82156
-0.639371
54.0354
41.3942
30.2092
-0.0453586
60.7281
12.6437
0.0816001
60.5109
24.5512
41.1163
23.6045
60.3052
0.648698
-0.0297306
-0.807038
60.6079
56.1376
23.1842
43.404
50.7709
3.26393
38.0967
79.5646
54.7093
39.0088
28.6631
19.4642
24.7233
54.938
26.1404
-0.40453
37.6894
50.4473
58.517
28.145
40.2026
53.0976
49.6022
-0.21506
24.6069
38.6864
48.2522
0.109198
61.1686
41.2894
60.5952
-1.5651
57.5275
50.8483
-2.34729
26.3646
25.4126
47.5455
3.49014
5.06493
21.6292
51.3275
75.2315
9.21174
42.6106
3.40326
4.75754
12.0668
79.1579
3.71896
19.3389
29.3963
18.78
11.3683
3.03594
0.602405
2.38187
49.7966
18.0505
53.5356
0.101443
26.4056
2.03761
20.8303
-0.272732
42.7926
0.116754
-0.0771356
47.7913
32.4589
15.4888
50.6886
24.7438
59.8811
-0.0371622
16.5056
50.1957
11.9006
51.0965
7.36468
7.92686
6.71625
13.6766
43.1643
53.3002
28.7556
28.2496
28.3614
6.39888
11.333
-0.0729994
-0.652117
20.8397
23.568
17.6851
26.3027
-0.0765545
58.9032
12.4445
-4.08559
25.0543
-0.392252
54.2818
34.852
84.7946
26.5011
27.3801
60.9967
36.7937
40.7914
2.85973
52.3045
24.9802
-1.08275
59.2948
2.90857
8.40857
-1.58002
48.7797
10.5853
58.6273
18.8838
18.2393
9.30825
53.3609
60.4504
21.6199
9.29819
-0.499083
22.982
49.2442
-3.86991
25.7858
31.8967
-0.0573616
60.6086
-4.13493
-1.67384
40.2621
44.5525
-0.930999
27.9939
0.135685
40.3452
46.0372
41.8645
6.96398
44.3766
29.4298
60.6243
0.0947975
73.0937
21.6051
10.6252
10.1806
39.7275
23.8615
10.2678
-0.00857307
46.8971
-0.00773672
33.0756
7.13454
40.6825
54.0751
45.2853
1.21458
47.5218
56.6175
3.79253
14.2358
13.6827
28.0649
-0.00106611
42.2395
58.5544
17.2534
0.0470313
31.5341
5.21119
27.7826
30.462
40.9563
52.5712
31.2634
75.3358
45.7685
0.81942
9.8397
-2.54349
-0.748972
55.4379
34.415
0.952871
89.1824
-3.78003
20.8028
0.565848
23.0619
48.7707
0.0433999
0.196402
12.3724
-2.86018
-0.733828
21.0251
31.8467
4.28655
52.0813
-1.26553
7.69392
43.6653
24.9788
-1.10294
8.51072
14.7552
20.478
43.9487
7.6111
20.4372
60.62
27.1777
105.115
24.1704
-0.414241
2.29984
26.2278
60.1285
81.7847
13.7496
-2.42823
35.8001
49.8638
7.34792
0.403297
0.0894817
55.3357
0.562041
41.1637
1.39581
85.6598
0.922074
56.6443
-0.501734
-1.38215
-0.221064
21.0611
7.71319
20.839
4.40952
55.2364
36.5781
53.1878
58.1301
52.6058
9.81142
54.863
9.68866
20.621
22.922
15.7732
0.683465
-0.0685675
58.1376
51.7724
-0.590664
32.2164
47.3742
-0.0465025
31.8915
-1.17378
42.5344
54.7826
51.5041
33.8376
28.0344
18.4479
18.6608
13.1033
1.38614
19.4346
18.2519
1.30819
9.96287
29.3739
-3.63684
89.9893
22.8604
-1.55191
52.9372
34.7765
58.9346
58.3425
14.8402
34.8934
7.34197
0.093727
59.5801
34.1921
45.6375
18.012
50.396
68.8629
-0.122072
19.6488
23.318
32.4562
-0.257976
54.5268
23.5977
44.9447
-0.0064975
37.7137
-0.504012
20.1928
29.1101
43.9374
12.3777
1.02647
2.7364
50.5396
42.1207
-4.30313
-0.325368
25.0468
54.2566
46.7906
39.3748
46.6837
57.9343
24.4782
15.5571
31.193
17.6145
35.1585
60.9291
2.59086
96.1938
53.7946
0.96777
22.422
57.3499
16.183
12.9526
2.19338
30.5487
10.3958
26.3077
12.3161
26.0256
28.9959
39.6415
52.4994
51.2072
-0.356863
54.0915
50.4993
45.0105
14.7227
-1.55289
42.2469
56.7512
54.2102
-0.0361949
29.8074
46.696
47.6537
-3.59461
0.541341
26.3185
19.0743
-0.411765
-2.48797
17.4884
4.67409
17.4072
2.46857
-1.1932
34.5138
2.24481
52.9675
-0.700511
-1.08261
30.7286
21.4843
23.2084
34.1224
2.79235
7.12759
24.5129
50.3177
25.7497
38.5914
58.538
27.9958
4.29723
5.57768
44.4675
-0.871471
53.1409
31.2365
4.50344
25.584
21.8654
33.8901
43.2915
59.7769
56.9498
-6.01363
40.2604
21.9178
8.06222
6.75543
0.0832465
32.2356
-3.41445
33.6844
0.272214
93.6099
29.6757
39.9976
54.1086
97.446
0.156932
58.8494
-1.62454
0.251796
29.8509
21.1709
-0.7187
55.0191
95.1611
43.8207
8.30941
16.4505
57.993
15.1021
97.8291
-0.0427313
-0.399264
43.1054
55.7156
17.4994
33.4001
57.7648
4.18049
-0.614582
94.2927
24.3018
-1.06591
-0.854078
56.9132
-1.49054
49.7299
-0.429844
29.5246
-1.39256
42.7792
8.80405
13.0838
11.0041
43.5505
3.05312
24.8485
39.6277
-0.306833
18.6856
51.9522
35.9141
40.7821
-0.111319
50.5357
6.74656
33.6872
58.7886
55.0697
-0.68879
57.7731
4.21342
-1.74267
-0.169837
18.4241
77.6571
56.5245
-2.36339
11.0113
40.9703
29.3923
60.5909
54.1263
55.0788
-0.114307
47.5893
22.2544
29.7487
3.78333
-2.01956
58.9187
2.48009
103.265
59.8283
-0.021136
50.6521
59.692
24.8566
-6.55845
22.0579
34.9692
58.0567
24.0448
8.94759
60.2707
-0.501766
42.6591
53.7616
22.2485
13.7631
35.7301
36.5059
41.7159
43.9509
31.7941
43.3904
22.3942
-1.75204
45.804
-0.148422
49.8655
7.67261
43.3189
34.11
58.0621
0.543797
28.5982
23.842
3.0228
76.1365
49.55
0.221764
54.4065
30.4949
4.84199
6.18493
35.9907
1.74366
13.8552
27.33
-0.42992
4.79268
28.4685
-6.00528
51.509
0.00402366
37.5077
-0.34088
26.2939
53.2923
4.9385
57.9541
-0.696547
-0.000589402
24.658
-0.753279
-0.482132
40.3422
59.8169
26.6749
7.21781
18.3039
23.4517
0.0143561
36.0197
-0.0553249
31.3121
28.3505
7.40137
-0.250791
-0.752142
-0.215421
59.5005
36.1557
26.5161
52.5238
-0.00979396
-1.36324
-0.0194184
52.9215
32.0093
17.2043
25.4231
-2.4987
0.0955036
5.38402
6.22738
-0.0799355
53.3187
48.306
50.9853
-5.00323
-0.809469
26.107
58.8141
62.4565
0.170827
51.1978
52.8384
42.3395
2.91286
-4.2546
18.2726
60.0159
34.1672
20.5887
24.0152
10.7287
47.7481
48.4883
30.0447
20.7413
49.4995
48.3774
22.3973
9.45988
21.8168
47.104
7.87905
0.926505
57.4899
61.0365
-0.510581
51.6718
75.512
60.2577
52.8796
17.5588
48.8537
4.65497
2.95721
24.9871
35.9434
0.0249659
58.3305
54.181
-1.14491
28.5325
11.0507
13.7957
-1.32355
45.8417
98.1886
59.9587
-0.508508
59.9015
29.2441
0.102861
4.89451
55.9975
21.8483
57.0611
60.9043
16.441
26.0129
32.217
10.3507
91.045
60.9824
42.0999
25.7747
16.2576
3.85279
15.1692
-1.85838
98.3532