/*--------------------------------*- C++ -*----------------------------------*\
  =========                 |
  \\      /  F ield         | OpenFOAM: The Open Source CFD Toolbox
   \\    /   O peration     | Website:  https://openfoam.org
    \\  /    A nd           | Version:  7
     \\/     M anipulation  |
\*---------------------------------------------------------------------------*/
FoamFile
{
    version     2.0;
    format      ascii;
    class       volVectorField;
    location    "35";
    object      U;
}
// * * * * * * * * * * * * * * * * * * * * * * * * * * * * * * * * * * * * * //

dimensions      [0 1 -1 0 0 0 0];

internalField   nonuniform List<vector> 
29659
(
(1.01462 -0.0186095 1.45182e-22)
(1.01233 0.0062203 7.81976e-22)
(0.987189 -0.00469808 -8.81386e-22)
(0.958952 -0.071582 2.86906e-22)
(0.996629 -7.25131e-05 1.27056e-22)
(0.939031 -0.0445439 -4.05685e-22)
(1.08161 -0.1029 1.03685e-21)
(1.0193 -0.0280355 -1.3785e-23)
(1.00276 -0.00267376 2.21179e-23)
(1.00025 -6.787e-05 6.78511e-24)
(1.02177 -0.0374303 -8.67209e-24)
(0.997289 -0.022919 -3.54622e-22)
(0.99934 -0.000268777 1.65033e-23)
(0.999958 -1.50085e-05 2.78915e-25)
(1.23443 0.080046 5.24168e-22)
(0.991623 -0.00271292 1.3658e-22)
(0.999784 -0.00117594 -6.30664e-24)
(1.17599 -0.0170966 -3.37346e-23)
(0.997063 -0.00248639 -4.32242e-23)
(0.984828 -0.00113052 -1.94424e-22)
(0.998814 -0.000380353 -5.78668e-23)
(1.0026 -0.0026677 7.75866e-23)
(0.987068 -0.00496915 9.69246e-22)
(0.997043 -0.000238151 5.54609e-23)
(0.794336 0.224275 3.68879e-22)
(1.01366 0.00493957 4.20759e-21)
(0.999288 -8.1122e-05 3.78434e-23)
(0.907724 0.184026 -2.65314e-20)
(1.23902 0.0767005 -1.64555e-21)
(0.998945 -0.0125157 -6.41105e-23)
(1.02097 -0.0150096 1.06726e-22)
(1.05112 -0.00950232 -8.22567e-22)
(0.981043 -0.165642 3.23467e-21)
(0.997778 -0.0317099 1.88186e-22)
(0.902873 0.17547 2.17887e-20)
(1.00561 -0.0448889 5.98593e-22)
(1.10509 0.0606521 -1.13262e-21)
(0.96106 -0.0400458 1.15971e-21)
(1.00726 -0.00112776 -2.99385e-22)
(1.00701 -0.00081427 5.70919e-22)
(1.00059 -0.000223661 -1.9477e-23)
(0.985126 -0.0425701 -1.24065e-21)
(0.999809 -0.00114312 -1.54904e-25)
(1.03917 -0.0964224 -2.67676e-21)
(1.00005 -7.80908e-06 -1.7379e-24)
(0.999229 -0.0126897 4.68584e-23)
(0.996707 -0.0170278 -1.01971e-22)
(1.0001 -0.000116431 4.08175e-24)
(1.00458 -0.004993 -3.09539e-22)
(1.10406 0.056819 -4.66617e-22)
(1.15424 -0.10966 7.12067e-22)
(0.963416 -0.0627665 -1.36501e-21)
(1.05101 -0.00829124 2.91229e-22)
(0.941021 -0.0440997 -6.74976e-22)
(0.991831 -0.00278148 -1.20247e-22)
(1.23664 0.0639894 -1.06758e-21)
(0.995361 -0.00311209 4.37231e-23)
(0.998781 -0.000418897 7.32568e-23)
(1.00032 -0.0298391 -2.73219e-22)
(1.01683 -0.0797604 -1.09387e-21)
(0.99991 -9.60348e-06 8.19105e-25)
(0.997167 -0.00254796 -8.90786e-24)
(1.27335 -0.0202389 -9.85779e-22)
(1.00609 -0.0438471 -3.40573e-22)
(1.12729 0.157936 9.2735e-21)
(0.844795 0.060471 5.76365e-20)
(0.999219 -0.0376163 -5.21483e-22)
(0.990097 -0.0191965 4.2893e-22)
(0.887028 0.0382013 2.3203e-20)
(1.00062 -0.000210936 1.26334e-23)
(1.016 0.00591792 -5.73144e-21)
(0.986242 0.143961 1.509e-20)
(1.00448 -0.0123675 -1.09597e-22)
(0.83856 0.262875 1.37996e-20)
(0.988881 -0.000878569 6.31347e-22)
(1.15093 -0.0638904 -3.0652e-22)
(1.30506 0.0755603 -8.96331e-22)
(0.962267 -0.0227094 2.71798e-22)
(0.999932 -3.07006e-05 -2.13573e-24)
(1.00677 -0.0663027 -1.02508e-21)
(0.940669 -0.00103235 -4.39126e-22)
(1.03331 0.0625416 3.37674e-21)
(1.01489 -0.0194119 -4.36646e-22)
(1 -8.61404e-05 -1.56986e-24)
(1.08448 -0.10007 -1.62452e-21)
(1.25608 -0.149274 -3.86997e-21)
(1.07722 0.15038 -1.9917e-20)
(0.999314 -0.000264817 -1.50559e-23)
(0.99936 -0.000239615 -4.43747e-24)
(0.908625 -0.0580958 -1.60338e-21)
(0.993148 -0.0732519 1.76613e-21)
(0.962145 -0.0237891 3.07129e-22)
(1.0043 -0.00516161 5.2313e-23)
(1.08052 -0.0152962 -4.31765e-22)
(0.899061 -0.0249524 -1.35456e-21)
(1.10375 0.17756 9.00485e-21)
(0.9974 -0.0947355 2.83318e-21)
(1.00065 -0.000529921 3.10683e-23)
(0.961102 -0.0898534 -2.64734e-21)
(1.2428 0.110533 3.73626e-21)
(0.999928 -3.00507e-05 3.09906e-24)
(0.963989 -0.0147719 -1.64389e-21)
(0.999912 -1.1789e-05 -4.29845e-25)
(1.0633 -0.0268365 -2.07758e-21)
(0.961459 -0.0626232 8.80031e-22)
(1.05178 0.0183974 5.59316e-21)
(1.01156 0.130569 2.18689e-20)
(0.999386 -0.000242442 -3.69205e-23)
(0.999994 -9.55435e-05 8.95756e-26)
(1.00247 -0.156112 -1.71122e-22)
(0.977674 -0.164146 -2.91893e-21)
(1.0583 -0.0551282 1.52513e-23)
(1.00002 -3.05613e-06 3.58472e-25)
(0.99847 -0.00847122 -1.65491e-22)
(0.999848 -0.00301921 3.40052e-24)
(0.991669 0.146643 1.4868e-22)
(1.07079 0.0865004 -7.03168e-21)
(0.983827 -0.0101106 -6.68487e-22)
(1.00003 -9.38927e-05 6.31349e-25)
(1.00491 -0.0122488 -8.61201e-23)
(1.27873 -0.0695672 1.08135e-20)
(1.0078 0.0180951 9.29366e-21)
(1.20876 -0.0787145 -5.36793e-21)
(0.841221 0.0740558 -5.32671e-20)
(1.0015 -0.000491604 -7.51642e-23)
(1.20041 -0.0571186 8.55416e-22)
(1.17488 -0.0123067 -2.44758e-22)
(1.02273 -0.0765608 8.61621e-22)
(1.00547 -0.00472946 -2.78318e-22)
(1.00004 -0.000603991 1.77202e-24)
(1.03847 -0.0937915 9.55593e-22)
(1.30424 0.0686946 -8.0521e-22)
(1.0457 0.255305 2.01214e-20)
(1.21413 -0.0958075 -1.54988e-21)
(1.06125 -0.0263541 1.74513e-21)
(1.02036 -0.0144839 2.05115e-21)
(1.2071 0.267264 1.05598e-21)
(0.962285 -0.00110008 2.26729e-21)
(1.17339 -0.230254 1.12291e-20)
(1.24083 0.103581 -2.94386e-21)
(1.19967 -0.0519918 -8.31039e-22)
(0.91744 -0.00730347 -1.74723e-21)
(0.933209 -0.0622179 5.43777e-22)
(1.00002 -2.79457e-06 -1.53567e-25)
(0.999985 -5.37995e-06 4.02292e-26)
(0.996541 -0.000120646 -9.91108e-23)
(0.996964 -0.0166793 2.08171e-22)
(0.981365 -0.125438 -2.2062e-21)
(1.17163 -0.179011 5.35416e-21)
(1.29297 0.00634298 -3.3192e-21)
(1.04188 -0.0260503 9.78612e-22)
(1.02456 -0.0269051 3.02349e-22)
(1.00059 -0.00086005 4.8629e-23)
(0.99982 -0.000304935 3.49225e-24)
(1.00226 0.0301678 -2.09427e-20)
(1.00073 -0.00210176 5.25827e-24)
(0.990906 -0.0156148 -1.18417e-25)
(1.23145 0.254578 -2.76085e-21)
(1.00728 0.0661857 -2.3128e-20)
(1.1573 -0.105381 -1.61539e-21)
(0.943463 -0.00392468 7.47091e-22)
(0.960284 -0.0700648 2.09985e-21)
(1.24005 0.0684752 2.80145e-22)
(0.999932 -6.30453e-05 6.45573e-25)
(0.999984 -5.19088e-06 -1.55247e-26)
(0.983755 -0.0106241 2.40593e-22)
(0.934866 -0.0609073 -2.95811e-21)
(1.00007 -0.000309692 -4.96459e-24)
(1 -9.14302e-05 -8.95746e-25)
(0.990734 -0.00705934 -8.14078e-23)
(1.00005 -0.000586196 -1.44484e-24)
(1.00786 -0.00813545 -1.51971e-22)
(1.22742 0.264407 3.11561e-21)
(0.962837 -0.000585585 -1.91896e-21)
(1.0631 -0.150552 -1.19449e-21)
(0.993064 -0.000136067 4.08601e-22)
(1.00289 -0.00369344 1.64108e-23)
(0.963011 -0.0145334 2.71352e-21)
(0.998878 -0.00844943 -1.52507e-23)
(1.21368 -0.0689808 3.40598e-21)
(0.99997 -1.41015e-05 7.23187e-25)
(1.01817 -0.0526591 -5.63059e-22)
(1.08183 0.152533 6.99442e-21)
(0.990497 -0.0178374 -2.3662e-23)
(1.16673 -0.227694 -1.07734e-20)
(1.05274 0.0756877 -6.31778e-21)
(0.991378 -0.00388852 -5.98577e-22)
(0.975241 -0.0213039 7.44348e-22)
(1.00517 -0.00475498 4.2262e-22)
(0.999052 -0.0116676 -1.03896e-22)
(0.999621 -1.00465e-05 4.0932e-24)
(1.00838 -0.0244806 2.7055e-23)
(0.831829 0.0369735 2.24476e-20)
(1.00135 0.0242397 1.61505e-20)
(0.980363 -0.00857088 1.79826e-23)
(0.991313 -0.0153797 -2.71426e-22)
(0.967769 0.0759662 -2.13878e-20)
(1.01952 0.0488047 2.92166e-21)
(0.901219 -0.0246648 1.66304e-21)
(1.00157 -0.000655583 -5.85897e-23)
(1.09917 -0.126692 1.90658e-21)
(0.961477 -0.119336 2.83901e-21)
(0.997666 -0.0233777 1.67652e-22)
(1.00115 -0.00144543 -9.62644e-23)
(1.21541 0.271102 1.31044e-21)
(0.991029 -0.00707228 -5.42426e-23)
(1.00915 -0.00728061 -1.72931e-22)
(0.978889 -0.124878 2.87765e-21)
(1.00317 -0.159881 4.20954e-22)
(0.99995 -7.1556e-06 2.51311e-25)
(0.977929 0.213285 -2.2917e-20)
(0.998597 -3.15868e-05 -9.8722e-25)
(1 -7.33793e-05 -3.76301e-25)
(0.999261 -0.000282475 6.43888e-24)
(0.997153 -0.0735023 -6.56735e-22)
(1.27227 -0.00265617 2.73212e-21)
(1.01949 -0.0515795 3.42313e-23)
(1.00887 -0.00680132 -1.1849e-22)
(0.997076 -0.000327061 1.38207e-22)
(0.903115 -0.0274787 -3.35463e-22)
(1.00004 -0.000641873 -1.37632e-24)
(1.00065 -0.0021425 3.68903e-25)
(0.99685 -0.000277907 -9.13633e-23)
(1.03822 0.00186746 5.24274e-21)
(0.996434 -0.0053738 -3.05326e-23)
(0.998498 -0.00786896 4.88499e-23)
(1.0375 -0.00186319 2.49878e-21)
(1.00017 -0.000523688 5.97844e-24)
(1.00005 -6.80762e-06 4.61806e-25)
(1.00669 -0.00081335 5.98726e-23)
(0.966864 -0.0455185 -1.03552e-21)
(0.96695 -0.000556887 -9.42974e-22)
(0.993486 -0.000517199 -4.32048e-22)
(1.01747 0.00466025 4.73215e-21)
(0.978534 -0.00157158 4.56814e-22)
(1.02486 -0.0259892 -3.04945e-22)
(0.999957 -1.67253e-05 7.65356e-25)
(0.996014 -0.00355055 -1.6847e-22)
(1.00107 -0.00143492 1.04057e-22)
(1.09815 -0.122152 1.91636e-21)
(1.08507 -0.240449 7.35343e-21)
(0.998128 -0.000169333 7.13816e-23)
(1.00063 -0.000764606 -3.6985e-23)
(0.998362 -0.00768411 -1.64237e-23)
(1.00476 -0.0109423 -2.15562e-22)
(0.98513 -0.000833935 -8.29263e-22)
(0.999935 -6.01797e-05 -6.7248e-26)
(1.25232 -0.146845 -8.50062e-21)
(1.00006 -0.000656089 2.27306e-24)
(1.03775 0.00175939 -3.69348e-21)
(0.995508 -0.00311447 -8.80807e-23)
(1.0002 -0.000508256 2.35733e-24)
(1.05035 0.0190788 -3.55347e-21)
(0.953969 -0.114613 -2.80832e-21)
(1.00034 -5.75052e-05 2.14565e-23)
(1 -1.76434e-05 -1.57374e-25)
(0.917203 -0.00522648 -1.98288e-21)
(1.06303 -0.226155 -1.13485e-21)
(0.988303 -0.0112524 -6.50941e-23)
(1.02154 -0.0783095 -2.24504e-22)
(1.04303 -0.027007 -1.59952e-22)
(1.08951 0.144671 8.65682e-22)
(1.00011 -0.000109924 1.10232e-24)
(0.967486 -0.0445483 1.04404e-21)
(1.25459 -0.0751549 5.75567e-21)
(0.935751 0.115983 4.93176e-22)
(0.99037 -0.0174416 1.9602e-22)
(1.05047 0.0732683 7.77604e-21)
(1.15125 -0.0593139 -1.75453e-22)
(0.999851 -0.00332207 -6.92128e-24)
(0.66706 0.0999468 3.01196e-20)
(0.999264 -0.000594992 -4.30994e-23)
(1.06247 -0.154984 -1.49369e-21)
(0.904765 -0.0274351 2.09318e-21)
(1.00306 -0.00348954 -9.04428e-23)
(1.23988 -0.027836 -2.11846e-21)
(0.988309 -0.00127403 -4.97962e-22)
(1.05769 0.2764 1.41812e-20)
(0.995274 -0.000358987 4.02587e-23)
(0.975982 -0.0229698 -3.92008e-23)
(0.999728 -0.00301813 -3.50272e-23)
(1.2471 0.163757 9.11581e-22)
(1.00024 -0.0236697 4.66505e-23)
(1.09853 0.181041 5.90977e-22)
(0.999307 -6.29398e-05 -1.66683e-23)
(0.992046 -0.00257356 -1.91018e-22)
(0.951332 0.270799 -9.69418e-21)
(1.04486 0.000407997 -4.23014e-21)
(1.03722 -0.00134388 2.91198e-21)
(0.960429 -0.0580384 2.47866e-21)
(0.999793 -4.453e-05 3.80959e-24)
(1.00462 -0.0105747 -2.41071e-23)
(0.999778 -0.0012839 -1.09526e-23)
(1 -6.95271e-05 -2.42092e-25)
(1.08118 0.00548347 1.04411e-21)
(1.00006 -7.25863e-06 2.69249e-26)
(0.972677 -0.0203966 1.74419e-21)
(1.25154 -0.0771485 -5.42073e-21)
(0.788977 0.234874 -2.68883e-20)
(1.05261 0.254142 -3.20667e-20)
(0.958149 -0.0987001 8.57322e-22)
(0.981406 -0.0414869 6.67217e-22)
(0.968563 -0.00215262 4.49084e-22)
(1.04699 -0.0509608 1.94044e-22)
(1.00914 -0.0241413 -8.52975e-23)
(0.975091 -0.0223256 -1.02747e-21)
(0.95969 -0.108314 3.86551e-22)
(1.08784 0.149597 -1.2964e-20)
(0.999321 0.0247771 3.40092e-20)
(0.998251 -0.000206618 3.91855e-23)
(1.01441 0.131702 -2.98468e-20)
(1.07972 0.00357436 3.33692e-22)
(1.21365 -0.0756903 1.52306e-21)
(1.01872 -0.0215632 1.52158e-22)
(1.00167 -0.0217694 -2.5202e-22)
(1.03196 -0.0713376 -6.64228e-22)
(0.992621 -0.00248837 -4.51954e-22)
(0.996351 -0.000902309 -2.90943e-23)
(0.999917 -9.2501e-06 4.22914e-24)
(0.998836 -0.011958 1.51957e-22)
(1.12746 -0.0613965 2.97664e-23)
(1.25313 0.169264 -1.4835e-21)
(1.00222 -0.00190163 4.27888e-23)
(0.962526 -0.0374882 -1.37643e-21)
(1.02137 -0.0220077 -4.76634e-22)
(0.999947 -2.28589e-05 -3.2475e-25)
(0.958849 -0.103325 -1.37323e-21)
(0.737759 0.179258 -1.39493e-20)
(0.991495 -0.00664519 6.75818e-22)
(0.998523 -0.00629241 4.52208e-23)
(1.01953 -0.0212926 -9.53655e-23)
(1.00627 -0.0643945 1.29603e-21)
(1.13006 0.0357998 1.1393e-21)
(0.999363 -0.0135633 -2.34564e-23)
(0.999956 -7.30862e-05 1.35301e-24)
(1.00002 -4.31143e-06 1.89587e-25)
(0.9963 -0.000822122 -3.2299e-23)
(0.946243 0.269435 1.40246e-20)
(1.06861 -0.0406193 3.33099e-22)
(1.09125 -0.237123 -1.87806e-21)
(1 -1.76631e-05 -4.36159e-26)
(1.06005 -0.231933 7.19367e-22)
(1.11367 -0.00812221 -1.12467e-21)
(0.992894 -0.000227796 -2.02043e-22)
(0.908235 -0.00998195 -2.47287e-21)
(0.998637 -0.00618111 -4.56432e-23)
(0.999402 -0.000271751 -2.68491e-24)
(0.968351 -0.0402334 -3.07165e-22)
(1.00127 -0.00158635 -4.6143e-23)
(1.21817 -0.0661778 -3.04495e-21)
(1.01267 -0.00144911 -1.26584e-21)
(1.28644 0.0555078 3.21609e-22)
(0.999903 -0.00327821 8.90557e-24)
(1.00608 -0.0192745 3.10656e-23)
(1.00754 0.0159871 -1.25633e-20)
(1.27648 -0.0686544 -4.44448e-21)
(1.00058 -0.000809768 -2.85544e-23)
(1.00061 -0.000717254 2.80316e-24)
(1.00118 0.172978 1.42052e-21)
(0.994782 -0.0745677 -3.46795e-22)
(0.99912 -0.0133598 2.87854e-23)
(1.01791 0.0542285 1.54478e-21)
(0.952679 0.0393605 4.2233e-20)
(1.15516 -0.114727 -2.41684e-21)
(0.999197 -0.0363103 -1.51993e-22)
(1.27024 0.000123661 -2.73987e-21)
(0.998942 -0.000102249 -2.88362e-23)
(0.987929 -0.00588104 1.74734e-22)
(0.995373 -0.000377916 -1.11277e-22)
(1.02197 0.046507 -3.53241e-24)
(0.999984 -0.00105527 -7.88893e-25)
(1.01224 -0.00176995 1.29323e-21)
(1.19582 -0.163648 1.4863e-22)
(1.03673 0.24091 3.22938e-20)
(0.846214 0.271892 -6.0564e-21)
(0.991642 -0.00388022 2.51082e-23)
(0.987951 -0.0109869 1.94483e-22)
(1.12444 0.164211 -7.34076e-21)
(1.01752 -0.0822187 1.57955e-21)
(0.99992 -1.1125e-05 -4.1326e-24)
(1.29902 0.030821 -3.45856e-21)
(1.03726 0.00259357 -1.57929e-21)
(1.03659 0.00254049 -1.07768e-21)
(0.992126 -0.0189409 -2.98089e-22)
(1.02589 -0.00265268 -2.00809e-21)
(0.923012 0.241422 5.74947e-21)
(1.16683 -0.19099 -1.4987e-21)
(0.985873 0.229015 5.59614e-21)
(1.01431 0.220581 -9.50969e-21)
(0.999996 -9.1596e-05 -2.85601e-25)
(1.1236 -0.0600255 1.92128e-22)
(1.16683 -0.184775 9.99941e-22)
(0.996267 -0.00542336 7.89606e-23)
(1.00227 -0.00203809 -7.06554e-23)
(0.94323 0.0466936 1.01263e-20)
(1.07089 -0.0417735 -4.1285e-22)
(1.0004 -0.000105964 4.84873e-24)
(0.97577 -0.0862326 -3.30154e-21)
(0.960537 -0.12256 -1.33587e-21)
(0.992221 -0.00264386 2.68546e-22)
(0.999833 -0.00029605 -4.38566e-24)
(1.13223 0.209121 -9.40777e-22)
(1.06944 0.083204 1.17708e-20)
(1.00007 -0.000719228 -4.81961e-26)
(1.00568 -0.00510619 5.44793e-23)
(1.00732 -0.00511719 2.94939e-22)
(1.2321 -0.1209 6.69128e-21)
(0.960456 -0.0564739 -2.2404e-21)
(1.00009 -0.000853989 -3.8872e-24)
(0.99998 -3.51634e-06 -4.94886e-26)
(1.00069 -0.000232075 7.38307e-24)
(1.12837 0.0382093 -1.09351e-22)
(0.961023 -0.0386437 -1.10704e-21)
(1.00459 0.0683312 6.87487e-21)
(0.923367 -0.0690616 1.29523e-21)
(0.982549 -0.0412814 -6.97154e-22)
(0.965977 -0.00167249 -1.78567e-21)
(1.0204 0.0524993 -7.61098e-21)
(1.26895 -0.0185658 -2.64485e-22)
(0.998306 -0.000219667 7.15337e-23)
(1.011 -0.00830935 -3.13104e-22)
(1.00118 -0.00156975 5.23433e-23)
(0.988344 0.254287 -1.39001e-20)
(0.963887 -0.0349716 5.90124e-22)
(1.00152 -0.000399559 -2.4685e-23)
(0.989382 -0.00523906 -2.41146e-22)
(1.20463 -0.0472022 -1.10539e-21)
(0.999513 -0.0145737 -6.62398e-23)
(0.98376 -0.0181688 -1.36889e-22)
(1.00033 -0.000201849 -1.50023e-23)
(1.00034 -7.73749e-05 -6.71776e-25)
(0.729664 0.1915 2.09831e-20)
(0.9884 -0.00189856 -3.09791e-22)
(0.993259 -0.00683954 2.80081e-22)
(0.999476 -0.00267795 -3.29895e-23)
(0.998969 -7.82454e-05 -3.95731e-24)
(1.0998 0.137711 -4.28962e-21)
(1.20193 -0.163716 3.88528e-22)
(0.979931 -0.062156 4.30314e-22)
(1.00002 -3.26409e-06 -1.76715e-25)
(1 -5.59679e-05 -2.17361e-25)
(0.962461 -0.0362511 1.55901e-21)
(0.990421 -0.00278748 6.35469e-23)
(0.992685 -0.00317734 -3.67547e-23)
(1.02036 -0.00759363 6.10715e-22)
(1.0082 -0.00348029 1.05878e-22)
(1.00064 -0.0242314 -8.52755e-23)
(1.17089 -0.0345776 -4.20205e-22)
(0.973544 -0.00649069 -3.82047e-22)
(0.988784 0.223476 -4.75207e-21)
(1.02055 -0.0374875 -6.75799e-23)
(1.00035 -0.000202591 1.66355e-23)
(0.956807 -0.0969191 1.24844e-22)
(0.977195 -0.0551599 -1.45826e-21)
(1.23217 -0.0213393 -9.57442e-22)
(0.995958 -0.00893404 -8.50945e-23)
(0.985674 -0.0727784 -5.12349e-22)
(0.99997 -8.32032e-06 4.40415e-25)
(0.871521 0.19299 -2.10741e-20)
(1.02166 -0.00318146 1.12531e-21)
(1.00012 -0.000345081 -6.47729e-24)
(0.831567 0.0505601 -2.90926e-20)
(0.978421 -0.0624912 9.50466e-22)
(0.999969 -9.6848e-06 7.55799e-26)
(1.00206 -0.00185774 2.09098e-23)
(0.957269 -0.101346 -7.47809e-22)
(1.05613 -0.0533626 5.83062e-23)
(1.07017 -0.0188055 1.24162e-21)
(0.999988 -5.84065e-06 -4.55865e-27)
(0.988333 -0.000971097 2.46717e-22)
(1.03314 -0.069775 1.25766e-21)
(0.992436 -0.00242566 3.70825e-22)
(0.999336 -7.22133e-05 -8.94819e-23)
(0.988169 -0.00607216 4.29698e-24)
(0.961621 0.0810115 2.47302e-21)
(0.989907 -0.0186555 -3.54938e-22)
(0.984452 -0.0177886 9.96205e-23)
(1.00252 0.0357731 -6.51712e-21)
(0.996084 -0.00335408 8.71262e-23)
(0.97706 0.260519 -1.73697e-21)
(0.999967 -9.73842e-06 -2.29131e-25)
(0.985581 -0.0415109 2.87064e-22)
(0.977922 -0.118761 3.43622e-21)
(0.987158 -0.0732021 8.80239e-22)
(1.24778 -0.0880939 1.514e-21)
(0.998329 -0.00823198 1.10863e-22)
(1.01378 -0.0352674 -2.40728e-23)
(0.999876 -0.00353198 1.0177e-24)
(0.975785 -0.0324451 -7.87101e-22)
(1.05814 -0.0578181 -3.93774e-23)
(0.999949 -2.18967e-05 1.57171e-24)
(1.00003 -1.85046e-06 -3.03811e-25)
(0.990885 -0.000626374 1.67357e-22)
(0.974006 0.155903 1.51377e-20)
(1.01862 -0.0290538 4.67723e-22)
(1.00371 -0.00521527 -8.59039e-23)
(0.902189 -0.0514992 1.71144e-21)
(1 -1.59261e-05 -1.33706e-25)
(1.0014 -0.00173226 -8.3125e-23)
(0.99995 -0.00100604 -9.91875e-25)
(1.02057 -0.0278202 5.6744e-22)
(0.975887 -0.0239849 1.37463e-22)
(0.99945 -0.000422992 1.10144e-23)
(0.990574 -0.0166404 1.37209e-22)
(0.982191 -0.010554 -1.41217e-22)
(1.00146 -0.000239962 -6.76367e-24)
(0.999966 -1.12454e-05 -1.48322e-25)
(1.25864 -0.0537818 -5.11375e-21)
(0.999531 -0.00263279 3.55243e-23)
(1.10978 -0.0142155 8.34662e-22)
(1.06472 0.225532 3.23147e-20)
(1.1155 0.165237 -6.94504e-21)
(1.00114 -0.0305695 -3.27135e-22)
(1.00804 -0.00315927 -3.4974e-23)
(1.0264 -0.00210968 1.23043e-21)
(0.999949 -0.00360976 -1.13212e-24)
(0.996909 -0.015536 1.46129e-22)
(1 -2.59934e-05 -3.38966e-25)
(1.00872 0.222463 -6.65713e-22)
(0.982511 -0.0239434 1.94762e-22)
(1.01997 -0.00701435 -4.36809e-22)
(0.974142 -0.00673421 7.93959e-22)
(1.00539 -0.0189672 4.37968e-24)
(0.9962 -0.00878389 1.85231e-22)
(0.999849 -0.000303455 9.73261e-25)
(1.00003 -1.76328e-06 -1.59264e-24)
(0.993488 -0.00681169 -2.03981e-22)
(1.08067 -0.0176442 -6.48451e-22)
(1.00771 0.0696847 1.05039e-21)
(1.00176 -0.000706853 -9.94026e-23)
(0.963592 -0.0898803 -6.9459e-22)
(0.963767 -0.0339275 -2.59581e-22)
(0.988622 -0.000759311 -9.23148e-22)
(1.29135 0.00747702 2.08148e-21)
(0.998126 -0.00144213 -4.28755e-23)
(1.00552 -0.0214391 -5.51988e-23)
(0.992113 -0.00418057 1.87738e-22)
(0.999862 -0.000292589 8.23558e-25)
(0.957882 -0.106088 8.65634e-22)
(1.00359 0.0571865 -1.07262e-20)
(1.05062 0.0661423 -7.9177e-21)
(0.967201 -0.0226378 -1.25645e-22)
(1.00268 0.0537491 -4.40366e-22)
(1.00012 -0.000324197 1.28924e-23)
(1.00002 -2.38691e-06 5.02893e-25)
(1.29687 0.0310632 1.1679e-21)
(1.23841 -0.0228837 1.7076e-21)
(0.838208 0.197895 -9.82168e-22)
(1.00378 -0.122595 2.71636e-21)
(0.966351 -0.00230982 -5.84739e-22)
(1.20349 -0.0413054 1.63449e-21)
(1.00167 -0.000735581 1.12686e-22)
(0.99183 -0.00563156 1.07444e-22)
(1.00066 -0.000246128 -6.97026e-24)
(0.984507 -0.00106876 -1.97176e-22)
(0.98304 -0.0195701 -2.84096e-22)
(0.999994 -5.02382e-05 7.2814e-25)
(0.99872 -4.91214e-05 1.66313e-23)
(1.03433 0.234849 -3.16472e-20)
(0.999815 -0.00104503 9.33638e-24)
(0.887452 0.1766 2.63656e-20)
(1 -2.47717e-05 2.55689e-25)
(1.28202 -0.0382352 -4.78437e-21)
(1.10965 -0.0170342 -1.83089e-21)
(1.17089 -0.0305217 4.48268e-22)
(1.0015 -0.00069621 6.76501e-24)
(1.00027 -6.21351e-05 1.35572e-23)
(0.980844 0.146107 -2.30613e-20)
(1.11369 -0.0113074 3.77805e-21)
(0.977255 -0.121222 -3.12553e-21)
(1.03486 0.0656184 3.67661e-21)
(0.997069 -0.0311273 1.29006e-22)
(0.980552 -0.00807635 -2.05605e-22)
(0.994128 -0.000323081 -1.10955e-22)
(1.285 0.19237 -4.52962e-21)
(0.96548 -0.0405306 9.8475e-22)
(1.0476 -0.04878 -1.72657e-22)
(0.990953 -0.0164806 -7.90226e-23)
(1 -1.58491e-05 -4.31362e-27)
(0.998145 -0.00136221 -3.63416e-23)
(1.00864 -0.0087868 1.80228e-22)
(0.973219 -0.0120242 1.01167e-21)
(0.968067 -0.0228125 1.89223e-22)
(0.937229 -0.0619907 -2.89262e-22)
(0.97294 -0.0127509 -7.67538e-22)
(1.02659 0.00426046 6.34834e-22)
(0.996927 -0.000210234 2.29143e-24)
(0.910877 -0.0587735 8.92332e-22)
(0.979508 -0.00137857 -2.81862e-22)
(1.00006 -0.000312993 2.82468e-24)
(0.982139 -0.00110254 -1.94336e-22)
(1.04858 -0.052761 -1.34293e-22)
(1.02547 0.00455755 -3.51405e-21)
(0.962474 -0.0408287 -2.42707e-22)
(0.999976 -1.14895e-06 -1.93991e-27)
(0.974754 -0.0245308 2.07675e-22)
(1.00331 -0.0219471 3.52541e-23)
(1.00201 -0.00172389 2.70322e-23)
(1.19129 -0.186143 -4.62445e-21)
(1.00318 0.053187 -2.51754e-20)
(1.00131 -0.00171079 7.72604e-23)
(0.982448 -0.000832616 2.43404e-24)
(1.14466 -0.115489 1.09702e-22)
(1.03907 0.000481662 5.21206e-21)
(0.984898 0.0514261 -2.66963e-21)
(1.00268 -0.00363831 2.36756e-23)
(1.00091 -0.031847 1.01277e-22)
(1.20752 0.16663 -1.55003e-21)
(1.02316 0.0411692 -1.87003e-20)
(0.987121 -0.0413374 7.66937e-22)
(1.00689 -0.005119 -3.29703e-23)
(0.930609 -0.0737378 1.33383e-21)
(0.999996 -8.50539e-06 -1.36546e-25)
(0.92779 -0.00312942 -8.95886e-22)
(1.00012 -0.000102663 2.16436e-24)
(1.14124 -0.117189 -5.61271e-21)
(0.999952 -5.25878e-06 -1.73545e-25)
(1.00004 -9.17815e-05 1.8717e-24)
(1.00046 -0.0356435 -1.2407e-22)
(1.27636 -0.0165557 2.34217e-21)
(1.12095 0.281917 1.18678e-20)
(1.05335 -0.0541786 -1.31529e-22)
(1.02038 -0.0222389 3.16919e-22)
(0.999999 -6.88741e-06 5.13451e-26)
(0.991185 -0.00669432 -3.64692e-22)
(1.00013 -3.14653e-05 -1.55433e-24)
(0.995467 -0.00357003 1.25459e-22)
(1.00004 -8.55006e-05 -1.46502e-24)
(1.07034 -0.0160848 -3.86491e-21)
(0.99932 -0.000700059 -4.37561e-23)
(1.09569 0.082265 7.21151e-21)
(0.999818 -0.000323197 -6.6891e-24)
(0.981266 -0.0078873 -3.47124e-22)
(0.939349 -0.00167733 2.1082e-21)
(0.993824 -0.000446747 -1.4339e-22)
(0.974637 0.078465 2.56036e-20)
(0.974794 -0.00107853 5.26536e-22)
(1.04473 -0.15123 2.55244e-22)
(0.992046 -0.00590624 5.57907e-22)
(1.03657 -0.00374462 -1.04601e-21)
(0.959841 -0.0914174 3.03434e-21)
(1.02805 -0.00198009 -3.45377e-21)
(1.06109 -0.101807 -1.1816e-22)
(0.99998 -2.92713e-06 9.61731e-27)
(0.999262 -0.0301252 1.10875e-22)
(0.994223 -0.000426587 1.74926e-23)
(1.00036 -0.000136173 9.94494e-24)
(1.00013 -2.64988e-05 2.65581e-24)
(1.29099 0.18821 4.87749e-21)
(0.992929 -0.00318676 3.1028e-22)
(1.03872 0.00165658 5.98604e-21)
(1.00186 -0.0326008 1.2648e-22)
(1.00125 -0.000449093 2.65129e-23)
(1.03418 -0.0120155 -3.71749e-21)
(1.00024 -5.89941e-05 -3.04253e-23)
(0.999965 -5.15021e-06 -2.12764e-26)
(0.928683 -0.0041684 6.90516e-22)
(0.994944 -0.00181573 1.39079e-22)
(1.00004 -8.3262e-05 1.99889e-24)
(1.13396 0.155554 4.76892e-21)
(0.764106 0.156476 -3.87746e-20)
(0.999695 -0.0003419 1.89807e-23)
(0.942092 -0.00337872 -5.80534e-22)
(1.00002 -2.38379e-06 3.55124e-25)
(0.914719 0.236524 -2.36603e-20)
(1.28367 -0.0386987 -5.98812e-21)
(0.959165 -0.073261 -2.36248e-21)
(1.00007 -0.000825708 -4.83967e-24)
(1.04594 -0.0471084 5.02463e-22)
(1.04449 -0.00385864 -1.44847e-21)
(1.04591 0.000366142 4.37045e-22)
(1.07182 -0.0197937 -4.66279e-22)
(0.999478 -0.00282182 -4.85539e-24)
(0.999812 -0.00125137 8.62881e-24)
(0.979817 -0.0238508 -6.15184e-22)
(1.00001 -1.40729e-05 -5.36599e-25)
(1.00002 -2.16455e-06 -9.08263e-26)
(0.964191 -0.0398375 -5.76275e-22)
(0.999458 -0.0934117 -1.43296e-21)
(0.939076 -0.0607741 -7.27861e-23)
(0.807749 0.225602 -9.29803e-22)
(1.00029 -3.79552e-05 -1.24229e-23)
(1.0292 -0.11469 -3.34162e-21)
(1.01065 -0.00780258 -3.21997e-22)
(0.999967 -5.47799e-06 2.45389e-25)
(0.998552 -0.00585873 -9.75021e-23)
(1.00005 -0.000699508 -3.5345e-24)
(0.993692 -0.0191897 2.25017e-22)
(1.00007 -1.5417e-05 1.76494e-24)
(1.06352 -0.0998198 -2.9041e-22)
(1.02751 -0.00242141 3.34769e-21)
(0.979617 0.25454 4.87145e-21)
(1.03585 -0.00354829 3.93551e-21)
(0.999598 -0.000335387 1.54988e-23)
(1.00066 -0.000578021 -2.71102e-23)
(1.23177 -0.126986 -6.73428e-21)
(1.03868 0.00127014 -4.81557e-21)
(0.995526 -0.000586132 1.2567e-22)
(1.00003 -2.40013e-06 7.47318e-25)
(1.15018 0.124284 -7.43032e-21)
(1.15179 -0.23243 -1.87457e-21)
(1.0037 -0.119836 -1.22062e-21)
(0.978939 -0.00117439 -1.48099e-22)
(0.999969 -3.35699e-05 3.49953e-25)
(0.999602 -0.000316363 -9.04766e-24)
(1.15924 -0.234554 5.22176e-21)
(0.998935 -0.0746986 -3.89691e-22)
(1.05937 0.0456152 1.11924e-21)
(0.986021 0.215463 2.06729e-20)
(1.04251 -0.147522 1.85481e-21)
(0.998172 -0.000126118 -2.24948e-23)
(0.99997 -1.58276e-05 -4.75489e-25)
(0.947286 -0.078695 2.30396e-21)
(0.973149 -0.156799 -3.43685e-21)
(0.999707 -0.000354191 9.94044e-24)
(1.01466 -0.0342611 1.11424e-22)
(0.987554 -0.0402175 -1.37758e-22)
(0.993297 -0.00341674 1.22496e-22)
(0.997878 0.0476001 -1.96752e-20)
(0.998143 -0.000812027 8.00198e-23)
(1.07746 -0.0742916 -3.33985e-22)
(1.30721 0.0773808 7.54989e-22)
(0.988793 -0.00494275 -3.51975e-22)
(0.833297 0.18619 -3.71838e-21)
(0.848954 0.0863037 1.21521e-20)
(0.999956 -7.72739e-05 -1.31644e-24)
(0.999963 -0.00110015 2.19664e-25)
(0.975099 -0.00143384 -3.37095e-22)
(1.01895 -0.00685487 -7.91972e-22)
(0.944562 -0.00311094 1.21845e-21)
(1.0075 -0.00634787 -3.3746e-22)
(0.989198 -0.00495742 3.2899e-22)
(0.999181 -0.000744752 -3.37861e-23)
(0.934962 0.23539 -4.14747e-21)
(1.09571 0.0782021 -1.11997e-20)
(1.00329 -0.00352449 6.06334e-23)
(0.681505 0.0952851 -7.67268e-21)
(1.00002 -2.06701e-06 -5.15677e-25)
(1.03629 0.00974377 -8.53079e-21)
(0.997156 -0.149238 2.56975e-21)
(1.03271 -0.114393 1.31021e-21)
(1.00014 -0.000314975 -6.83877e-25)
(0.941852 -0.0017046 1.0005e-21)
(1.03264 0.00886168 4.83759e-21)
(1.01845 -0.0073307 6.54262e-22)
(1.0437 -0.00228038 2.03277e-21)
(0.999354 -5.67604e-05 6.2926e-23)
(0.999311 -0.000745503 3.96712e-23)
(1.03757 -0.0677697 3.95914e-22)
(0.995029 -0.00195558 -4.00641e-22)
(0.981739 -0.0178057 -6.69886e-22)
(0.998727 -0.00530929 5.78114e-24)
(1.12809 0.0481613 4.77502e-21)
(0.998901 -0.0313975 -7.45813e-23)
(0.992867 -0.00724261 7.2865e-24)
(0.89677 -0.0437314 -2.48993e-21)
(1.0058 0.172032 2.34126e-21)
(1.15575 -0.0553077 9.72557e-22)
(1.03343 -0.0115292 2.98955e-21)
(0.999426 -0.000272734 1.18771e-23)
(0.999266 -0.000487834 5.41076e-24)
(0.974666 -0.0320779 1.57643e-21)
(1.00144 -0.00186366 -6.149e-23)
(0.996255 -0.0010338 -2.26365e-23)
(0.99997 -3.22469e-05 -1.32454e-25)
(0.999534 -0.00287466 9.06812e-25)
(1.03172 0.00815499 -1.88582e-21)
(0.980046 0.152991 -2.20954e-20)
(0.999816 -2.32622e-05 2.23771e-24)
(1.29664 0.140828 -2.17854e-21)
(0.999994 -6.25503e-05 -2.87759e-25)
(0.995326 -0.00422879 1.709e-22)
(0.999988 -0.000143281 -1.09591e-25)
(1.00755 -0.00549685 -1.502e-22)
(1.25954 -0.0580324 3.86406e-21)
(0.999943 -6.5063e-05 1.89217e-25)
(0.999941 -6.96051e-05 1.17804e-24)
(0.921778 -0.0699444 -1.23787e-21)
(1.00001 -1.39317e-05 -2.5978e-26)
(1.07638 -0.0197893 3.8413e-21)
(0.983442 -0.0635241 1.38977e-21)
(0.999967 -0.000966931 6.03182e-25)
(1.13721 0.0936922 -5.9156e-21)
(1 -4.48235e-05 4.18953e-25)
(0.999426 -5.86753e-05 5.4402e-23)
(0.999872 -5.35243e-05 8.99695e-26)
(0.993124 -0.00725356 -1.05147e-22)
(0.999521 -0.00229247 -1.62178e-23)
(0.991061 -0.000476008 -1.12577e-22)
(1.01687 -0.177893 -2.9826e-22)
(0.999575 -0.00223207 1.09044e-23)
(1.00605 -0.0051275 -1.16896e-22)
(0.999965 -3.74391e-06 -9.61538e-26)
(1.12234 0.273885 -2.31702e-20)
(1.07517 -0.0759265 -9.1183e-22)
(1.15973 -0.056332 3.68654e-22)
(0.94855 -0.00927613 1.3096e-21)
(0.967041 -0.00651899 -2.43286e-22)
(0.998681 -0.00572912 1.61171e-22)
(1.0042 -0.00392547 1.63863e-22)
(1.08346 0.105207 3.192e-21)
(0.976276 -0.0568036 1.97866e-22)
(1.21877 0.124264 1.9476e-21)
(0.935766 -0.0212285 -2.36114e-21)
(0.995158 -0.00408357 -1.60854e-22)
(0.999987 -6.9106e-06 -3.97878e-27)
(0.991841 -0.004196 -2.26249e-22)
(1.06594 0.277799 6.39476e-21)
(1.129 0.112527 -1.41811e-21)
(0.978059 -0.0854811 1.14034e-21)
(0.912178 -0.0092839 5.40577e-22)
(1.12475 0.254244 6.33825e-21)
(0.987747 -0.000867619 2.90534e-22)
(0.988297 -0.137243 2.04056e-22)
(0.999988 -0.000137171 -7.84148e-25)
(0.981785 -0.0638975 1.71951e-21)
(0.998805 -0.000337363 -8.25077e-23)
(0.702094 0.165365 -2.19243e-20)
(0.975795 -0.112963 -2.54727e-21)
(0.999875 -4.80485e-05 3.81139e-24)
(0.906717 -0.0302329 -1.37102e-22)
(0.97623 -0.0602816 8.61295e-23)
(1.0637 0.121776 1.19079e-20)
(0.996308 -0.00112834 -2.12552e-22)
(0.973281 -0.0582722 -5.91344e-22)
(0.996646 -0.0159313 -2.04818e-22)
(1.00054 -0.0344385 -2.55382e-22)
(0.998192 -0.000826582 -5.46873e-23)
(1.06104 0.11941 -1.44924e-20)
(1.07679 -0.236204 3.2213e-21)
(0.974687 -0.0255402 -4.59549e-22)
(0.980595 -0.0221634 9.95835e-24)
(0.981418 -0.00745123 -1.40321e-22)
(1.00753 -0.00298264 -1.38465e-22)
(1.12466 0.245103 2.46381e-20)
(0.974518 -0.0207127 2.0606e-22)
(1.02272 0.0625884 8.12054e-21)
(1.00387 -0.00314933 1.25004e-22)
(1.25186 -0.0850541 -9.11097e-23)
(0.882325 0.19002 4.02478e-21)
(0.987503 -0.000675785 -1.00756e-21)
(0.999673 -6.15754e-05 1.01385e-23)
(1.09786 0.142842 3.30639e-21)
(1.02547 0.225962 -2.61879e-20)
(1.03635 -0.0653984 -5.14423e-22)
(1.11572 -0.0625995 -1.27191e-22)
(0.993382 -0.0199007 -2.54125e-22)
(0.949348 -0.00838298 -7.77696e-22)
(1.20107 0.164313 6.26774e-21)
(0.945228 -0.079088 3.67351e-22)
(0.999966 -3.22284e-05 4.98335e-25)
(0.989375 -0.00016805 -5.18845e-22)
(1.00005 -8.31557e-06 1.85484e-24)
(0.993612 -0.000401452 3.8981e-22)
(0.999965 -3.3777e-05 -7.88878e-25)
(0.997333 -0.0222196 3.47194e-22)
(0.998635 -5.43832e-05 2.94675e-23)
(0.996139 -0.00833041 2.13406e-23)
(1.23808 -0.109295 -1.1645e-21)
(0.999156 -0.000570886 2.91034e-23)
(0.99929 -0.000292245 1.96958e-23)
(0.999044 -0.00871671 2.50557e-23)