/*--------------------------------*- C++ -*----------------------------------*\
  =========                 |
  \\      /  F ield         | OpenFOAM: The Open Source CFD Toolbox
   \\    /   O peration     | Website:  https://openfoam.org
    \\  /    A nd           | Version:  7
     \\/     M anipulation  |
\*---------------------------------------------------------------------------*/
FoamFile
{
    version     2.0;
    format      ascii;
    class       volScalarField;
    location    "36";
    object      p;
}
// * * * * * * * * * * * * * * * * * * * * * * * * * * * * * * * * * * * * * //

dimensions      [0 2 -2 0 0 0 0];

internalField   nonuniform List<scalar> 
19930
(
0.0023716
0.00531956
-0.0043488
-8.60314e-05
-0.00316102
-0.00333895
-0.091368
0.264548
-0.0391706
0.246164
-0.0917817
-0.0459337
-0.0212927
0.00216588
0.000299294
-8.93273e-05
-0.16641
0.140513
-0.0507231
0.0057373
-0.0371525
-0.0388957
0.236041
-0.128931
-0.00580342
0.701
-0.00367467
-0.0211743
-0.171582
-0.0533754
0.000105947
0.900497
0.110902
-0.00972741
-0.000567192
-6.01726e-05
0.300259
0.000133204
-0.0082355
0.0989456
-0.00551398
0.181087
0.514836
-0.0034053
0.705946
0.0125959
0.255268
-0.109067
0.00019647
-0.0148981
-0.000562572
0.00281002
-0.138992
-0.00133689
-0.165825
0.000131832
-0.00965729
-0.000171682
-0.0195732
-0.16467
0.793905
0.00776362
0.00188091
0.205508
0.000509209
-0.00162631
0.689505
-0.00156963
-0.0495633
0.695098
-0.0185747
-0.179501
0.000289593
-0.0126737
0.704611
-0.0430154
0.679092
0.0023583
0.0996509
0.630954
-0.00143202
-0.00213479
-0.165454
-0.0368596
0.00884688
0.524116
-0.0176051
1.02265
0.210177
0.761804
0.211403
-0.000179637
-0.000106315
0.964405
-0.118753
0.00220241
0.975788
-0.00105213
-0.0810765
0.368489
0.772706
-0.000132661
0.798494
-0.10433
0.0323572
-0.0474926
0.584591
-0.078868
0.0102405
0.497936
-0.181895
-0.0902251
-0.00586707
-0.010619
-0.0383832
-2.24437e-05
0.471419
-0.00153217
-0.117665
0.61686
-0.000172722
-0.0458042
0.0983981
-0.0243993
-0.00981236
0.139987
0.020824
-0.0204163
0.91693
0.491178
-0.0253531
-0.0130667
-0.0053576
-0.00696718
0.602529
0.024961
-0.0802072
-0.0418225
-8.96952e-05
-0.044774
-0.0474942
-0.0140525
-0.191116
0.814663
-0.0542888
0.613873
0.0734826
0.00201161
0.0126001
-0.00421823
0.00320341
0.679993
-0.000100233
-0.0312267
-0.00206485
0.0698196
0.54097
-0.134532
0.000767147
-0.0226018
-0.17599
-0.0841783
3.4327e-05
-0.0464375
0.0722793
1.00875
0.000558656
-0.150022
-0.0402805
0.297779
-0.0853818
0.726588
0.416612
-0.00795331
1.05592
0.0927817
0.00168564
0.765269
-0.0373926
0.536331
0.627313
0.000121491
0.819969
0.445747
0.00550632
3.97171e-05
-0.0174772
0.34236
-0.103305
0.928395
0.0322924
-0.118878
0.382965
-0.0420171
-0.000961275
-0.0267461
0.810495
-0.113577
0.00473146
0.943536
-0.053028
-0.161402
-0.128127
0.902037
0.846644
-0.00622895
-0.0141405
0.00442361
-0.000350997
0.00127216
0.677956
0.760058
-3.53827e-05
-0.010254
0.525156
0.70396
0.00381029
0.61727
-0.0730254
-0.00617789
-0.0224327
0.548224
0.853154
0.217922
0.501592
-0.00089719
-0.0136466
-2.69132e-05
0.00307191
-0.00239871
0.0978729
-0.0874196
0.573162
-0.0434508
0.553046
-0.0168723
-0.0396378
0.719828
0.98739
0.537188
0.671084
-0.00880734
0.231532
-0.0233653
0.0381394
-0.00105223
-0.198741
-0.05302
0.00182649
0.000181212
0.010074
0.863343
0.059549
-0.00901401
-0.019944
-0.0853685
-0.116991
0.205637
-0.0419395
0.0136397
-0.0252044
-0.0083454
0.000629297
-0.0158808
-0.0805254
0.8101
-0.133461
-0.00532336
0.562441
0.838823
-0.0172372
-0.000506518
-0.0322521
0.692258
-0.196791
0.786358
-3.0921e-05
-0.0128997
0.459397
0.677739
-0.0318995
-0.00848591
0.916517
-0.142303
-0.119497
0.79092
0.918946
-0.019162
0.46673
0.0329909
0.621086
0.414072
-0.00050708
-0.146691
0.319949
0.00180105
-0.0546324
-0.0905196
-0.180347
-0.0558714
-0.0404361
-7.86609e-05
-0.000699757
0.750364
-0.00415839
-0.0702578
-0.0273815
-0.0231137
0.00614732
0.52097
-0.0190977
-0.0265727
0.000700792
0.26971
-0.0022717
-6.97858e-05
0.766449
0.492069
0.754861
-0.157682
0.000538422
0.903969
-0.000354888
-0.0166305
-0.0155728
-0.100713
-0.0158242
-0.149127
0.547468
0.964476
0.638661
0.0324693
1.07295
-5.91309e-05
-0.00789986
0.678068
-0.160114
0.320168
-0.0118037
0.69669
-0.00832242
-0.000932364
-0.00726211
0.470001
-0.143577
0.808704
0.393357
0.000334684
-0.00842508
0.160142
0.15558
0.00438007
0.41751
-0.0177687
1.05648
-0.0456999
0.00116042
0.00875354
0.622866
0.436996
0.00571715
0.279896
0.760401
-0.00433427
0.455041
0.528074
1.05903
-0.000117934
0.0417157
-0.0532595
-0.00290244
0.0002679
0.715812
0.173481
-0.107894
0.702838
0.0471988
-0.00853078
0.227892
0.0765332
0.0717529
1.06227
-0.0393775
-0.0310854
0.754621
-0.0198868
0.019057
-0.0843624
0.156472
0.0119607
0.234922
-0.111063
-0.0298473
-0.00186614
0.263214
0.744993
0.458915
-0.16591
-0.00793787
0.888188
0.890876
-0.00115237
-0.0117766
0.600583
-0.0646946
-0.0438272
0.221797
0.00834612
1.10959
-0.0273247
0.0545678
-0.000434574
0.753507
0.388742
0.00619596
-0.0562133
-0.120438
-0.0534105
-0.00119422
0.607612
-0.184685
0.230409
1.04011
-0.16646
-0.0342178
-0.00243168
-0.108408
-0.122747
-0.00488897
0.288943
-0.000447002
-0.0126675
-0.00591806
-0.129494
-0.0150875
0.000173789
-0.024508
-0.0381819
-0.154349
-0.0319217
-0.00687912
-0.0762744
-0.027878
-0.0172483
0.00631663
-0.00184813
-0.0505841
-0.0744392
-0.00440382
-0.0290111
0.011007
0.448515
-0.0448685
0.000384167
0.94825
-0.00431232
-0.000428483
-0.00542058
-0.0113015
-0.0304283
0.837636
-0.0211727
0.0417375
-0.0630606
-0.0676292
0.215206
-0.0172676
-0.0272888
-0.0516935
0.00022848
-0.0990858
0.969799
-0.11495
-0.0178099
0.300895
-0.0193743
0.415455
0.00203152
-0.000327798
0.00122637
0.509424
1.02387
-0.116525
0.0519683
-0.0596107
-0.0128562
-0.0138815
0.595251
0.021426
-0.164353
-0.0829103
0.0107846
-0.00050872
0.883545
0.0783502
-0.000111749
0.805268
-0.0265142
-0.0351553
0.437814
-0.00748511
-0.000141147
0.000267475
-0.0630686
-0.00292305
-4.00391e-05
0.0387258
-0.198948
0.615557
0.000612397
-0.00132399
-0.0196447
-8.05595e-06
-0.119353
-0.166374
-0.00116362
-0.0297508
-0.00227626
0.441374
0.718879
-9.23273e-05
-0.00168391
-0.0409176
0.744266
-0.0110574
0.764606
9.19809e-06
1.03725
0.478222
0.151013
0.995892
-0.178724
0.00236465
-0.0512105
-0.0112453
0.717061
0.596319
0.00208474
-0.189253
0.0175101
-0.0424431
0.00376299
-0.198123
-5.04808e-05
0.465105
0.00253367
-0.0246066
-0.00921595
-0.0235009
0.0737906
-0.0365409
0.0030301
-0.0196576
4.43427e-06
1.03446
0.871347
0.00206961
-0.000340057
-0.0121442
0.589764
-0.0041141
-0.0659711
-0.015392
0.654609
0.138059
-0.00385479
1.09626
-0.00299508
0.6167
-0.0025692
-0.0780557
0.804044
-0.0153129
1.0458
0.548613
1.06087
0.00209031
0.00470536
-0.0432652
-0.0481353
-0.00638187
-0.0386861
0.631596
0.665337
0.46988
0.734076
1.03464
0.130433
0.746695
0.465955
-0.00614874
0.522152
-0.0248733
-0.0158698
0.000281776
-0.0409957
-0.112831
0.322464
0.00915785
0.629801
-0.0213292
0.0372766
0.595285
-0.0110652
-0.0520615
-9.49294e-06
-0.000335544
0.32613
-0.027909
-0.0146945
-0.000391819
-0.000757444
0.0114184
0.000401731
-0.116754
1.03333
0.0704964
0.211567
0.00321818
0.548736
-0.100928
-0.0105711
-0.000744343
0.000178685
0.000308997
-0.00216868
-0.00925928
-0.0833172
0.260249
-0.0794197
0.00844833
8.14542e-06
0.665003
-0.148571
-0.18241
-0.016002
-0.0672613
-0.0452086
0.0109405
0.59563
0.919012
0.324393
0.0105962
0.351447
0.00525789
-0.0158039
0.133257
-0.000117291
-0.00852661
0.0463016
0.140943
-0.00387699
0.574448
0.836877
0.571971
-0.0113775
0.00273962
-0.0260092
0.0796416
0.530144
0.00169037
0.802069
-0.0175036
-0.0813744
-0.0395091
0.967287
0.245711
0.607664
-0.174578
0.997316
-0.00293057
-0.0156857
1.0687
-8.17267e-05
-0.0714379
0.607018
0.657191
-0.0123143
0.518022
0.740991
0.653057
0.4952
0.627967
0.431591
0.0019339
-0.00357284
-0.0028593
-0.0690979
0.743663
-0.0629792
3.90896e-05
0.0791115
-0.0164008
-0.103701
0.0146005
0.763388
-0.0898839
-0.000845838
0.00160655
-0.0189738
-0.148528
-0.168412
-0.0725056
0.487865
0.777754
-0.0432747
0.755244
1.03138
0.00318007
-0.00187949
-0.000612344
0.00285878
0.3264
1.03967
0.0818008
0.534914
-0.00557915
0.328822
0.332671
-0.180811
0.000296385
-0.00658613
-0.0131533
-0.0167653
-0.0716865
-0.0124476
-0.0112243
0.584811
0.00212872
-0.0257812
0.64985
-0.103992
0.913577
-0.0423703
0.46153
-0.162739
-0.0300194
0.796897
0.911589
0.742764
-0.0104159
0.926951
-0.0100303
0.780575
-0.034929
0.734415
-0.0167751
-6.29004e-05
0.739632
0.797249
0.779344
0.740795
0.341971
0.0276739
0.374103
-0.0709992
0.740908
0.572664
-0.128221
0.0111894
0.00142049
-0.180618
0.551069
-0.00715706
0.00559375
0.76363
0.752632
-0.0243805
0.718647
-0.0829961
-0.0576267
0.00758017
0.773722
0.793196
1.03194
0.752495
0.00206981
-0.00661228
0.000365793
-0.0314558
0.909132
0.160782
0.513704
-0.00961869
0.467964
-0.0115706
0.911991
-0.0614124
0.761034
0.00675146
0.877606
0.940646
-0.00638585
0.0041486
0.869231
0.0023882
0.965625
-0.0336498
0.00294166
0.000613902
0.628035
0.0880279
-0.0487705
0.704336
0.974041
0.341586
-0.00310088
-0.0266011
-0.053712
0.748102
0.93632
1.09075
0.164961
-0.00283511
0.0117094
0.541747
-0.00286635
0.00273847
-0.00373287
-0.00963922
-0.0929925
-0.151297
0.811944
-0.0188094
0.000261677
0.545389
0.0911274
-0.00422261
-0.0184381
-0.00134994
0.112051
0.579859
0.729014
-0.130096
0.042393
-0.00278938
-0.0696567
0.00158728
0.753324
0.824511
-0.181725
-0.161752
-0.137948
-0.0415135
0.716314
-0.0344503
-0.0976869
-0.100418
-0.0556253
0.995694
-0.127347
-0.102194
0.768452
0.00370415
-0.0126612
-0.0304188
-0.0949044
0.0019524
-0.000813257
0.990905
0.434259
-0.175942
-0.160494
0.435826
0.703678
0.564341
-0.142201
-0.0161841
-0.016908
-0.0173134
0.51545
0.00481137
-0.0282128
0.000209946
-0.00354334
0.00115702
-0.110034
0.633339
-0.0783516
0.749483
0.72106
-0.0146913
-0.00848245
1.02222
0.453325
-0.0484854
-0.00968607
0.336674
-0.0240312
0.339849
0.991401
0.181697
0.003672
-0.0112285
0.640594
-0.0192881
-0.0645315
-0.0293674
0.851193
-0.0129417
-0.136478
0.32287
0.111721
0.5621
-0.0267349
0.172042
-0.0364021
0.766569
-0.102693
-0.0113384
-0.0358504
-0.0352286
0.000329484
0.00124447
-0.000853089
0.84354
-0.043696
0.397485
-0.065325
-0.075465
-0.0840898
0.167067
1.02909
0.885801
-0.0819299
0.130049
-0.0270285
-0.0949443
0.00621252
0.0894378
-0.010435
-0.00235938
0.530647
-0.0289143
-0.00549669
0.841474
0.568466
0.769948
-0.00163837
-0.160394
-0.00699758
0.171147
-0.0449269
-0.000160082
0.860452
-0.062371
0.0995561
-0.146206
0.000199699
-0.00772
-0.00141241
0.0699841
-0.000553922
-0.0148844
-0.0150251
-0.0202148
0.89991
1.98421e-05
-0.0309345
0.000274755
0.938803
-0.00525489
-6.79003e-06
-0.121464
0.12633
0.480545
-0.00688667
-0.00702216
-0.0235634
0.523735
-0.0109751
0.171181
-0.154259
-0.141286
0.0648722
0.37761
0.0421734
0.102765
0.00229322
0.550381
0.955694
-0.00119804
0.289728
-0.0385728
0.98514
0.929747
-0.0903862
-0.0967069
-0.132106
0.398065
-0.000270046
0.738195
1.05255
0.00219911
-0.0252584
0.113435
-0.00129633
-0.00069187
-0.00151409
1.0334
-0.010989
-0.0346053
0.733359
-0.00483623
0.378503
0.768815
-0.0115232
0.872936
-0.015088
-0.00927343
0.781712
0.178756
0.560739
0.00252405
0.763848
0.0382521
0.730343
-0.0573188
-0.00807011
-0.0119111
0.863716
0.783106
0.889096
0.753668
-0.168439
-0.00227723
-0.110044
0.451885
0.733528
0.949871
-0.0130225
0.325131
0.964542
0.64903
-0.0013104
-0.00691163
-0.00018977
0.0110555
-0.0779596
0.82586
0.246873
0.7299
0.0668427
-0.0616102
0.736701
-0.125852
0.503302
-0.104004
-0.0742014
-0.0129588
-0.0929713
-0.0547858
0.934182
-0.0497779
-0.0149401
-0.12202
0.142085
-0.0652731
-0.0127675
-0.0245286
-0.03071
-0.0666038
0.503521
0.210883
0.597201
-0.167159
0.77391
-0.0773753
-0.000853518
-0.00903025
-0.023571
-0.129101
-0.152141
-0.00641058
0.139991
0.897346
0.0267602
-0.0199626
-0.0381424
-0.0589034
0.274757
-0.0313719
0.980489
0.163043
-0.00669296
-0.00775083
-0.0417876
-0.0913184
-0.0153874
-0.0296523
-0.0493352
-0.0980079
0.138181
0.919246
0.814019
0.06296
0.00344251
-0.0133487
0.00165208
-0.0068187
0.543145
0.00744484
0.484642
-0.0700593
-0.00796342
0.904339
0.932104
-0.00108892
0.747085
0.802139
-0.00230174
-0.0210399
0.121151
0.544261
0.930547
0.362392
-0.0820611
0.900591
0.048978
-0.0367484
-0.0391267
-0.0951108
0.962565
-0.0293032
0.767407
0.196454
0.883753
-0.0614798
0.441498
0.349989
-0.0902878
0.788994
-0.0664629
0.858497
-0.00061141
0.252786
0.509593
0.411331
-0.00276093
-0.114317
-0.000796746
-0.0156924
0.301976
-0.0137333
0.375936
0.239863
1.04539
-0.0333493
0.865897
-0.0272829
-0.0248405
-0.0839305
0.743202
-0.0420513
-0.120944
-0.0168671
0.533714
-0.00616295
1.01463
-0.00468286
-0.121289
-0.0998807
-0.000659255
0.757354
-0.0431099
0.819819
0.587043
0.0676808
-0.0287222
0.0253539
-0.000954307
-0.033879
0.826022
-0.0291429
-0.0934141
0.202606
-0.0652094
-0.0350889
-0.0332733
-0.000845256
0.896619
-0.0114901
-0.0808477
-0.129438
-0.0093612
0.724998
1.04601
-0.00539283
-0.0629193
-0.0046046
0.0199254
-0.00115523
-0.00204117
0.938127
0.880105
-0.0316495
0.117736
-0.00030945
-0.0133852
0.564381
-0.0183601
0.201365
-0.0038817
1.02509
0.487839
-0.0772677
-0.0217605
-0.028629
1.01711
-0.0127982
-0.00030735
0.00695609
0.031341
-0.0771008
1.41962e-05
-0.0328994
0.894677
-0.0921001
0.972109
1.09292
-0.0136981
-0.0898258
-0.000794273
0.00255051
-0.0685507
-0.0277644
1.00349
-0.00469024
0.00399829
0.501359
-0.0511824
0.567267
0.00525743
-0.157632
0.475885
0.52691
-0.0709715
-0.0195385
-0.0571687
0.679402
-0.0117037
0.275538
-0.0139694
-0.00671212
-0.0128364
-0.00938302
-0.00212037
-0.0968322
-0.0954741
-0.168966
-0.00522218
0.0131305
0.000564517
-0.0115315
-0.0633568
-0.00659706
-0.0332238
0.904546
-0.00236932
-0.0206096
-0.0198535
0.653911
0.00150124
0.537074
-0.114229
-0.113035
0.00688348
0.550177
0.296581
-0.0137645
-0.0340974
-0.0334821
0.355186
-0.000348084
0.520123
0.62723
-0.013537
-0.0718205
0.0518297
0.102682
-0.0658645
-0.0248254
0.560011
-0.00316992
0.485155
-0.0153447
-0.0139769
0.446654
0.936762
-0.0352391
-0.00665589
0.720408
0.310274
-0.00491111
-0.0313968
-0.108281
-0.00376882
-0.00252629
0.00188522
0.64908
-0.136973
-0.073221
0.62461
-0.0817579
-0.01615
0.0913245
0.0021489
0.0930384
0.506099
-0.0768975
0.385109
-0.00689329
0.881036
-0.0806984
-0.000324398
0.000161065
-0.133835
-0.000748872
-0.00679465
0.0823338
-0.0669227
-0.0052066
-0.0261178
-0.00826123
0.14123
0.758049
0.000781562
-0.00353431
-0.0240819
0.397478
-0.0530244
-0.00870451
-0.00187528
0.0286776
0.1198
-0.0110322
0.00107526
-0.127698
0.555174
0.578233
-0.0448531
0.527747
0.788214
-0.0116688
0.435817
0.105765
-0.0403844
-0.00367856
-0.0383023
1.05469
-0.0174009
-0.0934585
-0.00897185
0.512145
0.00135829
-0.00199584
-0.0117308
-0.0133939
0.0018786
0.760868
0.175233
0.363721
0.644656
0.537371
0.00645811
0.125933
0.38142
-0.0955071
0.736154
0.111662
0.156724
2.30893e-05
0.343145
-0.0377374
0.0820728
0.231543
-0.0885328
0.0512433
0.00375168
-0.0109043
0.00190781
-0.124827
0.0523148
0.913357
0.0293503
-8.12357e-05
0.310213
-0.00363065
0.19615
0.134707
0.00226844
-0.0111247
0.330732
0.726388
-0.0196943
-0.00423029
-0.001287
0.216812
0.478776
-0.00626596
0.629574
-0.00488745
0.100037
-0.0596087
0.830221
-9.74786e-05
-0.00166849
-6.57507e-05
-0.000227805
-0.142263
0.00687232
0.390933
0.591466
-0.00456018
0.193354
-0.0053738
0.0031819
3.06372e-05
0.180147
-0.0091974
0.102584
6.47684e-05
0.496227
0.0013498
0.61782
-0.183475
0.692102
-0.00862748
0.000652023
0.00106077
0.733926
-0.0149911
-0.08156
0.0447753
-0.00497434
0.606392
0.00138964
-0.0161693
0.000375618
0.00182456
0.767595
7.37768e-06
-0.00199271
-0.00339822
-1.68578e-05
0.00408555
0.630175
-0.000946039
-0.00550113
-0.00402292
-0.000596286
0.557206
-0.208546
-0.0375927
-0.0479248
-0.00139478
-0.0110156
-0.160567
0.00217353
-0.00189487
0.00205928
0.253532
-0.000401545
0.00364529
-0.145862
0.0642391
0.699158
0.00783131
-0.0037671
0.00286774
-0.0267541
0.445992
0.590834
0.772863
8.18572e-05
0.119821
-0.00827331
-0.00547989
0.140101
-0.0126502
0.00293271
0.00528464
-0.00465927
-0.00212542
-0.00259025
0.00301003
-0.00332346
-0.0051078
0.496426
-0.00521612
0.31973
0.0471325
0.0196096
0.232891
0.122118
0.401402
0.000717333
0.30094
-0.00106854
-0.0110142
0.268443
-0.0199552
0.546352
0.507948
-0.00942519
-0.00326753
-0.000433036
0.00295974
-0.13408
0.00511877
0.00604337
0.00259973
0.0055369
0.00345675
-0.0113128
0.00389985
0.0015731
-0.00898924
0.401769
0.00375919
0.00229265
-0.000322806
-0.00556355
0.00314956
0.602523
0.589037
0.136086
0.829037
-0.0129171
-0.086792
0.00181725
-0.00396015
-0.00194542
0.000111113
4.51012e-05
0.119967
-0.0523746
0.000154908
-0.114656
0.0757567
0.214991
-0.0342995
0.00829326
-0.0141467
-0.00130166
-0.00180502
-0.00196455
0.0026874
-0.0325811
0.868578
-0.00455597
-0.0323242
-0.00121576
-0.0113617
0.00646006
0.0114405
-0.00114489
0.00494549
-0.00968239
0.00335202
-0.0326456
-0.0841713
0.00209551
0.179651
0.00464681
0.00210336
-0.0908822
0.542176
0.565745
0.374688
-0.00467633
-0.124212
-0.0393325
-0.148606
-0.0172799
-0.143412
-0.00491856
-0.13378
0.00559928
-0.00832408
2.07058e-05
0.0251642
0.00463009
0.00109219
-0.0174715
0.923074
-0.00631043
-0.110238
0.852965
0.883914
0.00764523
0.859056
0.796547
0.468751
-0.00381283
-0.181264
0.884999
0.00123889
0.000112653
-0.0113272
0.000648028
0.00203344
-0.0364143
-3.77251e-05
0.00400301
0.00792297
-0.0202397
0.000651736
-0.0339489
0.00139162
1.01445
0.00833917
0.006795
1.00643
0.00191097
0.940592
0.877455
0.480422
0.00638616
1.01723
-0.0192303
0.666414
-0.0168814
-0.000486877
-0.00911566
-0.0237888
0.00417251
0.750683
0.00179559
-0.000791328
0.00141262
0.000174072
-0.178612
0.207758
0.000202321
0.530328
-0.036805
-7.97082e-05
-0.0102034
0.00693519
-0.0367198
0.00146373
0.88964
-0.00175989
0.80119
-0.00489202
-0.00223364
0.000157537
0.00708748
-0.00767474
0.00528002
0.666544
0.735752
8.96926e-05
0.890513
-0.0114723
-0.00238019
-0.0216793
0.812385
-0.148108
0.00102502
6.4625e-06
-0.00166558
-0.000898294
0.000343845
-0.000229805
0.896828
0.000683212
0.00183538
-0.0228842
0.985709
1.09191
0.00531206
-0.0124613
0.541152
0.990244
-0.0169563
0.00332916
2.63957e-05
-0.0111566
0.769637
0.540644
-0.00138238
0.00480712
-0.00666492
0.83206
-0.0809145
-0.00567977
-0.00155131
0.000658031
-0.0241432
0.58834
0.000287586
0.853941
0.00167011
0.958602
-0.000413925
0.877671
0.00522056
0.0118979
-0.0167393
8.59792e-05
-0.00112474
0.000984408
0.00073849
-0.00663143
-0.000943446
-0.00380121
0.00259723
-0.00762735
-0.00095123
0.00278039
0.00263514
-0.00280984
0.0569715
-0.000641435
0.533857
0.0040277
-0.0131384
-0.00517604
-0.120419
1.00366
0.00288194
0.00044725
-0.000415073
-0.00671403
0.00747169
0.455835
0.588335
-0.00485342
0.00507256
-0.0832061
0.092052
0.851928
-0.000328415
0.471115
0.629339
9.86336e-05
-0.0146311
0.0088947
-0.00185501
0.00127467
0.0010389
-0.0014696
0.00455369
0.00165739
-0.0078281
-0.0121537
-0.0120618
0.0457982
-0.0870952
0.513341
-0.076784
-0.0826607
9.31599e-05
-0.00102994
0.745775
-0.000686691
-0.00695021
0.000932998
0.00155125
-0.0013562
0.362289
0.0166937
0.908003
-0.000648404
-0.00157437
0.00484293
0.0703763
-0.00308521
0.852762
-0.0761006
0.00706437
0.00886154
-0.0568387
-0.0044584
0.428785
0.00637123
0.773792
-0.00335993
7.09998e-05
0.000345639
0.00102759
-0.000302283
0.000168645
0.0023134
-0.00419208
-0.00757501
-0.00292321
0.000185905
-0.00422613
-0.0744574
-1.26342e-05
0.000321465
-0.00331452
-0.000917935
0.000122663
-0.00384815
-0.00512105
-0.00132937
0.00863021
0.0058451
0.55351
-0.00217859
-0.0512956
5.70616e-05
-0.0477598
-0.0188181
-0.0212199
0.00118046
5.60165e-05
0.00145082
0.000264783
-0.0613519
-0.122285
0.0251342
-0.105099
-0.000646112
0.0185629
-0.119758
0.580067
0.331597
0.421848
0.00213137
0.0015591
0.000764857
0.00440819
0.783292
0.483554
-0.000510289
-0.00208843
0.287825
0.504608
0.926832
-0.00049632
0.00166708
-0.00143779
5.11255e-05
-0.0004754
0.000220375
-0.00373945
-0.000938377
0.548984
-0.0247672
-0.000769272
-0.00494985
-0.00141332
-0.144675
-0.00395058
0.0811736
-0.00166612
0.106403
-0.0143314
0.0042289
0.0121332
-0.0394815
-0.000530919
0.0735366
0.844981
-0.00782617
0.579692
0.00657729
0.00423103
0.651162
-0.000887011
0.367453
0.00163355
-0.0531845
-0.0733348
0.00419777
0.00410972
-0.00117448
5.55874e-05
-0.00983171
5.84444e-05
0.00222919
0.00538126
0.868909
-0.0409547
-0.00328329
0.534227
3.61607e-05
-0.000825452
-0.0215798
-0.00054031
0.837081
0.00148597
-0.000987604
0.00376032
0.0119918
-0.0186686
-0.00146351
0.000713496
-0.0811757
-0.00719389
-0.00068331
0.720417
0.978278
-0.00239983
-0.0669163
-0.00159193
0.597161
0.000177079
0.00229438
0.000135201
3.99297e-05
-0.066486
-0.0037975
-0.00131918
-0.128103
-0.000377957
-0.0766572
0.000602502
3.7019e-05
-0.00527086
0.662682
0.709674
-0.019527
0.280753
-0.0327186
0.000133604
0.517858
-0.00551783
-0.00186095
-0.00398409
-0.141139
-6.57598e-05
-0.0354933
0.00133841
-0.030654
-0.000220412
0.00209686
0.00180706
-0.0480519
0.336928
0.0312424
-6.55943e-05
7.0119e-06
0.00807041
0.072004
-0.000820764
-0.0593139
0.000607198
0.50845
-0.187122
0.663438
0.191268
0.00843204
0.122219
0.000889674
0.544174
-0.0959391
-0.0100219
0.000228182
-0.00134866
0.00928007
0.0102965
0.00787447
0.0102963
0.0856448
0.00716411
0.186748
-0.000771331
-0.00342101
0.000838011
-0.0869816
-0.0332785
-0.0060758
-1.07814e-06
-0.0306529
0.125886
0.0125552
-0.0280118
-0.0248763
-0.00622075
-0.0225412
-0.000114435
-0.000950226
0.618817
0.690845
0.748542
-0.000533079
0.701626
0.607536
0.703373
0.00257242
0.000624459
-0.000563617
0.150484
0.400026
-0.0809248
-0.0069013
0.0125754
-0.00194321
-0.0297086
0.00993047
0.00650141
0.451973
-0.001784
0.00779458
0.000265304
0.0112638
0.714161
-0.0223785
-0.000724168
4.80286e-05
0.811257
0.550926
-0.106971
0.0554944
0.00916274
-0.108898
0.00983319
-0.110735
-0.111412
-0.108026
0.0410476
0.00983328
-0.0266105
-0.000251267
0.678226
-0.0182579
-0.00412604
0.444398
-0.0102944
-0.00207542
0.0146392
-0.161581
0.0788963
-0.017087
0.000540602
0.489108
-0.000771718
-0.00287799
-0.014678
-2.47145e-05
0.00420552
-0.00162724
0.00447521
0.0125892
-0.0200057
0.000681924
-0.0251257
-0.013523
-0.0271784
-0.028621
0.00235047
0.00429586
-0.028319
0.0050063
0.00973565
0.0090642
0.30773
0.0112776
0.00633007
0.000171991
-0.00246434
-0.0151359
0.000119878
0.205378
0.628885
0.00229643
0.00591277
0.00394289
0.00711285
0.000523929
-0.0081418
0.0029415
0.0103867
7.54153e-07
-0.0103573
0.00235043
0.013182
-0.00122674
2.00083e-05
0.248408
0.00287254
-0.0436856
0.365636
-0.023565
-0.00847986
0.0131137
0.000338625
-0.0523106
0.0057426
0.0124732
-0.0623838
0.0374177
-2.61331e-05
-0.0696614
0.15322
0.000132238
0.0602986
0.00198193
-0.0310806
0.478467
0.00177579
-0.000325152
-0.000386639
0.29824
-0.170143
-0.0156659
0.0131045
0.00497063
0.00701743
-0.00558326
0.00620222
0.0395008
0.76785
0.899457
0.53169
7.69129e-05
0.251456
0.0295768
0.00170525
0.0135199
0.273064
0.000479074
-0.193741
0.000181708
0.0109074
0.366624
0.000146477
-0.0638755
0.000216234
-0.0750222
-0.000914149
0.522485
-0.0034953
0.480576
0.00153888
0.0129949
-0.0154108
0.00102637
0.448924
-0.00264808
0.00624815
1.41706e-05
-0.105115
-0.0132311
0.0223054
-0.00281964
-0.000852512
0.128687
3.98469e-05
0.240986
0.00793204
-0.000809393
0.283185
-0.0445697
3.05082e-05
-0.000228064
0.000879802
-0.00134756
-0.0101492
0.26569
-0.0128303
-0.00173449
-0.0441651
0.00550463
0.419371
0.695391
-0.000669591
-0.00571365
0.00483602
0.00242166
0.355511
-0.014758
-0.000962586
0.210527
-0.0523855
0.557745
-0.00559723
-0.0011068
0.219607
-0.00586322
0.00874656
-0.0105955
0.781347
-0.0312634
-0.000572998
-0.0011616
-0.000477931
0.772964
-0.00352311
0.941261
0.13408
-0.000725706
0.00115988
-0.0195345
-0.0406707
-0.000336538
-0.00322374
0.757853
-2.88571e-05
-0.0194639
0.77468
0.000782696
-0.00444343
-0.000389474
0.0013674
-0.000390904
-0.00353731
-0.0128379
0.00154956
-0.0984146
0.000124536
-0.000283157
-0.000256848
9.83827e-05
-0.0241451
-0.000297993
0.00154759
-0.0380886
-0.0145334
0.935938
0.0127208
-0.00733163
0.00423637
-5.0432e-05
-0.00214903
-0.000205692
0.0904368
0.448254
0.00143217
-0.0244663
-0.00651478
0.0190338
-0.0034015
0.999797
-0.00231094
0.00186858
0.281527
-0.00713045
-0.000301347
-0.00812013
0.521393
0.00101309
0.415188
0.542458
-0.00160216
-0.00980758
0.678453
-0.00179963
0.00232251
-0.00486363
0.133113
0.0891143
-0.0198922
0.000184593
0.728861
0.00134013
-0.0114359
0.00481531
0.00284804
0.864239
-0.00203992
-0.000153963
0.000850325
0.145535
0.944281
0.51498
1.01102
0.0016194
0.859163
0.000252981
0.33951
0.0035309
0.000874826
0.132335
-0.0107526
0.0709813
-0.000318015
-0.0104955
0.955245
-0.00930426
-0.0824859
-0.00277896
0.00170079
-0.00055592
-0.00267376
-0.00256681
-0.000286223
-0.0197066
0.000302966
0.964487
0.00390216
0.00380142
0.0360174
-0.114775
0.134106
0.35575
-0.0004447
-0.140109
0.214253
0.572211
0.998617
5.1371e-05
-0.140345
-0.122075
0.00208783
0.256234
0.299916
-0.133229
0.781901
0.0816123
0.116761
0.00200989
0.486486
0.00574392
-0.000597735
-0.00016162
-0.000295081
0.000844369
-0.00210009
0.00599676
-0.000148227
-0.00122716
-0.00544503
0.000178562
0.195465
-0.0439608
2.7526e-05
0.967325
-0.000683957
7.56909e-05
0.683606
1.00107
0.00129978
-0.0106714
0.672568
0.00288557
0.841422
0.0250008
0.000242375
-0.0510052
-0.0273264
-0.00375819
-0.001029
0.377792
-3.95959e-05
-0.000500702
0.796329
0.000942752
-0.00325861
-0.0358256
0.00507774
0.00507503
-0.000430993
-0.0245601
0.00727913
-0.00030279
0.00128705
0.00186838
0.316042
0.000153567
0.000117007
0.00172675
0.761475
0.00268875
0.00300498
0.000549382
-0.00263847
0.726284
-0.006442
0.0405804
0.665165
0.000956158
0.885144
0.607879
0.00617261
-0.0516651
-0.000653624
0.00437694
0.842396
-0.00439726
0.00111817
-0.000201898
0.00473412
0.00500196
0.0012519
-0.000549258
0.874702
-0.00016988
0.549047
-0.0152113
-0.0560624
-0.000212273
-0.0532257
-0.0019423
0.701414
0.721947
-0.0429272
-0.000528379
-0.0170708
-0.0591031
0.126789
0.0578096
0.187638
-0.0702209
-0.0443735
0.00779628
0.000190477
-0.000377928
0.0014666
-0.0010112
-0.000656881
-0.000835508
0.000267216
0.00435657
0.0122038
-0.00249192
3.6144e-05
0.00621094
-9.67848e-05
-0.0012939
-0.000190372
1.09431
0.0667856
-0.00218662
-0.00502776
-0.00167428
-0.000146239
-0.000141361
-0.000135748
-1.32776e-05
-0.0127708
-0.000141394
0.00762065
-0.000290636
0.00162223
-0.000348596
0.00273945
-0.0208737
-0.000385372
0.759011
-0.011981
0.523609
-0.0201025
0.817109
-0.000129695
-0.00305659
-0.00452394
-0.006583
-0.00734445
-0.00956253
-0.01035
-6.36535e-05
-0.0119924
-0.0119513
0.711634
-0.0157501
-0.0630686
-0.0176841
-0.000156281
-0.0642773
0.00207958
-0.00020407
-0.00288286
3.79705e-06
0.000348513
-0.00948812
0.00182753
0.00376643
0.586662
-0.00132372
-0.00204877
0.00779666
-0.0058492
-0.000947732
-0.00335502
0.00457477
0.000389675
0.986889
0.00481956
-0.00414519
-0.00385987
0.00200111
-0.000816998
0.00139719
0.00123521
-0.001351
0.00128843
0.00704446
-0.0672032
-0.000216553
-3.68775e-05
-0.00446101
-0.00455415
0.00136732
0.00141911
0.0013626
-0.000230698
-0.000574443
-0.00193865
-0.00054538
0.00118408
0.0014242
0.00280978
0.693737
0.000728679
0.00205929
0.00230783
-0.00240509
-0.000459985
-0.000550646
0.163382
-0.00537173
0.546099
0.00132839
0.000785697
-0.00022974
0.494978
-0.0745384
-0.000535108
-1.65717e-05
7.27808e-05
0.00183003
0.00139001
-0.160097
0.000217382
-0.0322934
0.000668587
0.0015717
0.000844249
0.00124155
-0.00245645
-0.035162
0.672737
-0.0160461
0.00395404
0.000316669
6.6827e-05
0.00017276
-0.000193689
-0.0220688
0.00319355
0.00383797
-0.000840896
-0.00566892
0.000567057
-0.0960867
0.000601863
-0.000216783
0.00263794
0.000535084
0.00112346
0.00374615
0.00346347
8.12758e-05
0.850124
0.000469484
1.0222
-0.0029086
0.00372472
-0.0047513
-0.000211755
-0.00024413
-0.0542657
-0.00057056
-0.0783303
-0.000193394
-0.191743
0.000814088
0.000324396
-0.000124068
-0.00543797
0.857953
-0.000146798
-0.00991983
-0.00480292
0.654794
-0.0205673
-0.0537964
-0.000250628
-0.144137
0.00566778
-0.114415
-0.0234233
-0.000447939
-0.0086774
0.928088
-0.0494503
-0.00346016
0.00499454
3.68839e-05
0.551064
0.655112
-2.4975e-05
0.00195088
0.236298
-0.000106801
-0.00196451
3.8574e-05
-0.000283297
-0.0208237
-0.00703168
-0.128565
-0.0329556
-0.000554312
-0.000195989
-7.59759e-05
-0.0514122
-0.0188708
0.291213
-0.000794698
-3.24735e-05
0.585585
-0.0069769
0.000379766
-0.0160335
0.00424089
-0.00074266
-0.000157018
-0.0134855
4.39303e-05
-0.00935219
-0.000211593
-0.000450246
0.304688
-0.00165403
0.217233
0.795596
-0.00699752
-0.0067181
-0.0597723
-0.00155977
0.945428
-0.00790164
0.00175397
-0.000153482
0.432244
0.865673
0.0872973
-0.0908235
-0.0056917
-0.000152493
0.00655419
-0.000283246
-0.00137929
0.00540372
0.491282
-0.00997831
-0.000248199
-0.00316348
-0.000919373
0.00604939
0.475432
-0.018772
0.00941395
-0.00107523
0.000155361
0.000745407
0.827139
-0.00344873
0.000970144
0.000399217
0.00403025
-0.00148962
0.0224069
-0.00412333
-0.00866433
-0.018084
0.000246842
-0.0069398
0.292578
0.00641173
0.000978811
-0.0106196
0.521598
-0.00137797
0.0233654
0.672056
-0.00117799
-0.000147084
-0.0181742
0.2661
0.0957566
0.170424
-0.0206702
0.00122794
-0.000666147
0.466424
0.0111999
-0.00273971
-0.0201484
-0.00241961
-0.0677703
-0.00369104
-0.00174795
-0.000699294
0.417558
-0.00365387
0.00185893
0.718154
-0.00678539
0.65788
7.12171e-05
0.00304414
0.610917
0.952461
-0.0205614
-0.00381761
-0.00179191
0.000625965
-0.00272549
0.559802
-0.00926148
-0.0100013
-0.00211029
0.000676174
0.000297282
-0.00422907
0.000517237
0.326583
0.00045612
-0.0176033
-5.46878e-05
0.00275543
0.000535565
0.108431
0.390177
0.000503273
-0.00255724
-0.00581105
0.000572995
-0.00372798
0.000410612
-0.00522743
-0.00720133
0.239404
0.538801
-0.00901762
0.172554
0.00476977
-0.0542428
0.00374935
-0.00953155
0.0851376
0.0525943
-0.0118791
0.00652084
0.591011
0.22684
-0.00271003
-0.000347054
0.00139525
0.848027
-0.000595647
-0.000273167
-0.000176126
0.00110455
0.000720232
-0.00243609
0.00124498
-0.00692265
0.0895278
-0.0285878
-0.000278152
-0.00323407
-0.00688716
0.00406019
-0.00724016
0.000440818
0.00104493
0.00292168