/*--------------------------------*- C++ -*----------------------------------*\
  =========                 |
  \\      /  F ield         | OpenFOAM: The Open Source CFD Toolbox
   \\    /   O peration     | Website:  https://openfoam.org
    \\  /    A nd           | Version:  7
     \\/     M anipulation  |
\*---------------------------------------------------------------------------*/
FoamFile
{
    version     2.0;
    format      ascii;
    class       volScalarField;
    location    "27";
    object      p;
}
// * * * * * * * * * * * * * * * * * * * * * * * * * * * * * * * * * * * * * //

dimensions      [0 2 -2 0 0 0 0];

internalField   nonuniform List<scalar> 
29540
(
0.0114933
0.153113
-0.0116396
-0.045412
-0.00331881
-0.0474298
-0.0310779
0.0104771
0.00272812
0.000237668
0.00581076
-0.00646816
-0.000679914
-3.94707e-05
0.111642
-0.00796057
-0.000263124
0.0247834
-0.00293433
-0.0136931
-0.00119364
0.0025632
-0.0118109
-0.00289305
0.621631
0.1521
-0.000730241
0.517497
0.098874
-0.00229413
0.0211877
0.0664706
-0.072245
-0.00930797
0.525287
-0.0109742
0.16296
-0.0348219
0.00772724
0.00742233
0.000577306
-0.0224439
-0.000236101
-0.0321053
3.78946e-05
-0.0020811
-0.00573461
8.96997e-05
0.0044694
0.158551
-0.0517667
-0.0400159
0.0688658
-0.0457811
-0.00779518
0.095957
-0.00465765
-0.00123002
-0.00671978
-0.0258517
-9.49506e-05
-0.00285195
-0.070932
-0.0097574
0.265668
0.58572
-0.01119
-0.0113189
0.557683
0.000604934
0.150506
0.429312
0.00299281
0.580827
-0.0102687
-0.0144159
0.0684404
-0.0308315
-7.11935e-05
-0.0221096
-0.042158
0.207357
0.0114618
-4.24865e-06
-0.0288221
-0.166843
0.299274
-0.000706585
-0.000656979
-0.0604806
-0.0305768
-0.0312192
0.00410448
0.0608296
-0.0621606
0.302577
-0.0399738
0.000625537
-0.0509737
0.145923
-7.51197e-05
-0.0291299
-9.17623e-05
0.0432552
-0.0408292
0.125988
0.364645
-0.000632053
-1.62882e-05
-0.0715006
-0.0712691
0.00796569
3.11413e-06
-0.00211472
-0.000237104
0.417972
0.22235
-0.0148762
2.38988e-05
0.00352404
-0.157883
0.163858
-0.0590639
0.581821
0.00148441
-0.0369192
0.030102
-0.0218368
0.00546539
3.56795e-06
-0.0300516
0.0533635
0.40732
-0.0793834
0.0428796
0.0205891
0.319397
-0.02967
-0.132078
0.137711
-0.0300396
-0.052719
-0.0538482
2.27705e-06
-3.29884e-06
-0.00339234
-0.00536987
-0.0564143
-0.106255
-0.0561756
0.0332052
0.0160463
0.000564252
-0.000199049
0.220113
0.000665724
-0.0102576
0.295326
0.267038
-0.051182
-0.0405151
-0.0441893
0.102936
-7.4814e-05
-3.61839e-06
-0.014981
-0.0521103
5.58701e-05
-6.12645e-06
-0.00914362
2.11866e-05
0.00760017
0.301312
-0.0291037
-0.0647114
-0.00662315
0.00279026
-0.0302286
-0.00172716
-0.0536622
-2.3822e-05
-0.00738551
0.295731
-0.0105388
-0.131175
0.218161
-0.00824602
-0.02266
0.00514105
-0.00223857
-0.000395848
0.00209668
0.592428
0.216412
-0.0174158
-0.00983113
0.491905
0.193436
-0.0615606
0.00155141
-0.0517687
-0.0612262
-0.00624075
0.00112204
0.314614
-0.00879268
0.00923431
-0.0559617
-0.0733963
-4.82537e-05
0.456018
-0.00141621
-6.86335e-06
-0.000761245
-0.02933
-0.0546696
-0.00592669
0.00899642
-0.00287081
-0.0619599
2.17166e-05
0.000585802
-0.00309559
0.103704
-0.00379957
-0.00200516
0.0690071
0.000149695
3.52097e-05
0.00709239
-0.0350248
-0.0267934
-0.00620087
0.1488
-0.0185416
0.0170736
-4.12474e-05
-0.00399552
0.00104614
-0.0485933
-0.107467
-0.00187492
0.000603757
-0.00209078
0.00371698
-0.0132845
-7.13946e-05
-0.162667
4.11549e-05
0.105443
-0.00449831
0.000174342
0.128144
-0.0609651
0.000324876
-1.91435e-06
-0.0527779
-0.103432
-0.0114406
-0.0236336
0.0329302
0.282943
9.45575e-05
-0.0332816
-0.0928271
0.504863
-0.0105625
0.214748
-0.00935627
-0.000352988
0.70998
-0.000756937
-0.0672256
-0.0612628
0.00300056
-0.041357
-0.0106564
0.411837
-0.00461289
-0.0224891
-0.000393301
0.206916
-0.00423242
0.309469
-0.000709239
-0.00761605
0.48751
0.0891502
0.0689327
-0.0397615
-0.000218891
0.00362183
-0.000277182
-5.07916e-06
0.0929407
4.52168e-05
-0.0243224
-0.0953154
0.629611
0.403172
-0.0540674
-0.0243676
-0.025537
0.00832793
0.00314412
-0.023016
-0.0573484
0.28998
0.43408
-0.00174507
0.358054
0.0902435
-0.061094
0.0145827
-0.00266121
-0.0153027
-0.00707031
-0.00354444
-8.61202e-05
-0.00259672
-0.000959115
0.212322
0.00218437
-0.0333864
0.0169356
-5.40092e-05
-0.0556359
0.662364
-0.00832954
-0.00196271
0.0155885
-0.020763
0.111657
-0.00205276
-4.99493e-05
2.77605e-06
-0.00357264
0.490876
0.0262738
-0.110317
-1.03345e-06
-0.109268
0.0638493
-0.00674154
-0.0573948
-0.00179673
-0.000618599
-0.0310555
0.00124272
-0.0548536
0.0143479
0.0452518
-0.000280041
0.00251037
0.162517
-0.155036
0.000553042
0.000588609
0.412556
-0.030751
-0.0022137
0.203069
0.514439
-0.0625596
-0.0103877
-0.0471536
-0.00106974
-0.0110666
-0.00451378
0.189051
-5.27024e-05
0.0137951
-0.111323
0.414255
0.571033
-0.00800987
-0.011728
0.276408
-0.0268855
-8.34381e-05
-0.00743949
0.109707
0.111717
-0.0098687
0.0349506
0.50913
-0.117805
0.457455
0.421691
-1.34515e-05
0.000367224
-0.106717
-0.00400796
0.00223007
0.519428
0.0260162
0.000377345
-0.0437476
-0.0623053
-0.0074679
-0.000184651
0.312449
0.217782
4.61421e-05
0.0056572
0.00749283
-0.116976
-0.039687
6.68448e-05
-3.74782e-06
0.000676175
0.117792
-0.0345472
0.32639
-0.0592508
-0.0236696
-0.0267514
0.198483
-0.0594363
-0.00169416
0.0111882
0.00115749
0.460673
-0.0320049
0.00150766
-0.00994206
-0.0272718
-0.00222318
-0.0161671
0.00031278
0.000320472
0.672001
-0.0107383
-0.00685986
-0.000674572
-0.00104472
0.266133
-0.113355
-0.0329191
5.73297e-06
-5.12798e-06
-0.0330252
-0.00902918
-0.00702521
0.0237988
0.00859755
-0.00406095
0.00625938
-0.0224752
0.448844
0.00525447
0.000332663
-0.0536296
-0.0311137
-0.0230745
-0.00472137
-0.0327699
-2.26434e-05
0.557615
0.0271654
0.000101036
0.592587
-0.0338251
-2.41309e-05
0.00203017
-0.0551895
0.00959375
0.0556377
-2.5934e-06
-0.0106043
-0.0135146
-0.00725431
-0.00068174
-0.0109534
0.497617
-0.0112669
-0.0156586
0.231349
-0.00387224
0.477771
-2.66342e-05
-0.0217953
-0.0590039
-0.0322528
-0.105566
-0.00220452
0.00106846
-0.000246786
-0.0247196
0.00529292
-5.08239e-05
7.80987e-06
-0.00847523
0.448577
0.00906907
0.00349792
-0.0616724
-5.17996e-07
0.00137286
-8.45228e-05
0.012102
-0.0227116
-0.00056764
-0.0109639
-0.016274
0.0014471
-2.82039e-05
-0.0984458
-0.000605198
0.0567125
0.379475
0.282848
-0.00641885
0.00845201
0.0359528
-0.000165242
-0.0050418
-3.74572e-06
0.426192
-0.0181179
0.0234704
-0.0218184
0.00200089
-0.00438777
-0.000166177
9.5001e-06
-0.006641
0.0566408
0.271182
0.00175187
-0.0488926
-0.0315584
-0.0105496
-0.0517954
-0.0018784
0.001082
-0.00759436
-0.000154165
-0.0566892
0.304035
0.203443
-0.0285586
0.297723
0.000102554
4.77127e-06
-0.00172211
-0.0333732
0.57971
-0.0551519
-0.026903
-0.019702
0.00166798
-0.00792713
0.000644338
-0.0139875
-0.0169788
-1.12194e-05
-0.00128486
0.410056
-0.00022448
0.537933
-2.73815e-06
-0.128168
0.0526549
0.0108073
0.00148318
0.000252471
0.43893
0.0595268
-0.0601937
0.2118
-0.00942766
-0.017152
-0.00562246
0.213114
-0.0326273
0.0108493
-0.0105009
2.63942e-07
-0.00185895
0.00824717
-0.0227004
-0.0279463
-0.0512824
-0.0229314
0.13666
-0.00302214
-0.060773
-0.0177358
3.74821e-05
-0.0156497
0.00733952
0.139111
-0.0342577
-6.45957e-06
-0.0235878
-0.00106536
0.00198461
-0.120711
0.325389
0.00127861
-0.0154584
-0.050045
0.0915917
0.486649
0.0025734
-0.0071293
0.228799
0.180599
-0.0205422
0.00700275
-0.0557952
-1.7777e-06
-0.0476338
0.000110161
-0.0486498
-4.55847e-05
2.89745e-05
-0.00925802
-0.0702987
0.3745
0.00767777
0.0158426
-8.18652e-07
-0.00861255
0.000116628
-0.00452496
2.94261e-05
0.0600281
-0.000701519
0.197895
-0.000197244
-0.0165133
-0.0424418
-0.00588208
0.482951
-0.0210216
-0.0647215
-0.00775729
0.0608747
-0.052752
0.0393487
-0.0300814
-2.64302e-06
-0.00770179
-0.0055058
0.000343033
0.000111464
0.209214
-0.0068131
0.100057
-0.00676181
0.00122921
0.0432474
0.000223919
-2.84799e-05
-0.0469672
-0.00487867
3.39253e-05
0.257769
0.636135
-0.000319202
-0.0409838
6.96465e-06
0.518765
-0.138723
-0.0448245
4.62286e-05
0.011766
0.0756219
0.0888949
0.0541032
-0.000595252
-0.00023871
-0.0200011
5.92342e-07
2.62881e-06
-0.0331328
-0.0391886
-0.0504517
0.607853
0.000274649
-0.0434851
0.0109006
-2.58186e-05
-0.00180361
3.13949e-05
-0.00851106
5.44126e-05
-0.0283565
0.03805
0.471135
0.0590978
-0.000418012
0.000639452
-0.120672
0.0979447
-0.00436432
1.05706e-05
0.213949
-0.125063
-0.0535896
-0.018054
-3.14852e-05
-0.00041342
-0.128231
-0.029211
0.165927
0.446375
-0.0632754
-0.00182043
-2.5039e-05
-0.0522841
-0.0713378
-0.00030734
0.00252673
-0.019877
-0.00649652
0.434343
-0.00187216
-0.0067652
0.081083
-0.0104022
0.582707
0.582187
-4.98532e-05
-7.35935e-05
-0.0207004
0.0220916
-0.0398688
0.00751405
-0.0100718
-0.00084281
0.501195
0.19286
0.00322281
0.701579
5.39662e-06
0.125768
-0.0667512
-0.0431301
0.00012008
-0.0412125
0.130705
0.0211156
0.0801768
-0.000663782
-0.000712937
-0.00978516
-0.00483087
-0.017576
-0.00156414
0.132426
-0.00848749
-0.0072946
-0.0622003
0.404518
-0.00529236
0.0424837
-0.00059392
-0.000754269
-0.0254109
0.00140686
-0.0036367
-3.00773e-05
-0.000517065
0.13117
0.44073
-0.000194523
0.150481
-1.28065e-05
-0.00467058
-2.3091e-05
0.00771016
-0.105566
-6.24705e-05
-6.47054e-05
-0.0607734
1.23347e-06
0.0549033
-0.0312863
-6.76187e-05
0.191224
-5.60948e-06
-0.000590073
-0.000136069
-0.00700216
-0.000571168
-0.00835158
-0.0764498
-0.000509355
0.00605587
-2.89022e-05
0.367349
-0.0079305
-0.00794763
-0.0375456
-0.0273542
-0.0016671
0.00415608
0.238227
-0.0321797
0.174788
-0.0454334
-0.0048236
-3.88772e-06
-0.0078284
0.404396
0.211965
-0.043063
-0.0554275
0.352395
-0.0112
-0.0623005
-2.27725e-05
-0.0324845
-0.00120068
0.680949
-0.0554202
-0.00013291
-0.0600431
-0.0331169
0.277188
-0.00359283
-0.0342857
-0.00538972
-0.0086495
-0.00182137
0.276571
-0.105481
-0.0239757
-0.0190487
-0.0163593
0.00796295
0.345503
-0.0230619
0.21357
0.00386897
-0.108505
0.548511
-0.0113725
-0.000341322
0.274202
0.415347
-0.00834809
0.00057876
-0.0091447
-0.0371553
0.230889
-0.0521127
-3.42326e-05
-0.0098038
4.26758e-05
-0.00609863
-3.63658e-05
-0.0066159
-0.00137314
-0.00437964
-0.113286
-0.000865235
-0.000727928
-0.00160884
0.229511
-0.00287287
-0.00446225
-0.00416269
0.186395
0.00732983
-0.000546811
0.400774
0.573976
-0.0237858
0.500757
-0.0210097
0.377575
0.00757841
-0.0193917
0.00355755
-0.000656505
1.85301e-05
0.00351177
-0.0148141
-0.0236783
0.207851
-0.0271625
-0.0240368
-0.00128282
-0.111036
-0.0298777
0.00897045
-5.2289e-06
0.00875032
0.0535877
0.419295
0.0034785
-0.0162391
0.162528
-0.000500087
0.0471689
-0.0214401
0.000808441
-0.0594089
0.00363798
0.378891
-0.00276422
-0.000744225
-0.000187763
-0.0590258
-0.00174773
0.685894
0.708806
0.0159172
-5.12364e-05
0.0109927
-2.49376e-05
0.0630324
-0.000734887
0.0281603
0.622043
-0.0162296
1.98603e-05
-0.0100125
-1.71813e-05
-0.104329
-0.0392847
0.505071
0.000289112
0.0153154
0.00304489
0.000362589
-0.00292862
-0.000409256
-0.00742479
-0.043304
-0.0269096
0.00711757
0.185969
-0.0158398
0.008091
-0.0238643
-0.00238534
-0.0317727
1.2281e-05
5.09025e-05
-0.00277615
0.0348092
-0.0376844
-0.0192431
-0.00452729
0.00340769
-0.0325655
0.232137
-0.0150531
-4.20419e-06
-0.0564384
0.463241
-0.0750311
-0.0142634
0.0551213
-1.03477e-05
-0.00086714
-0.0326608
-4.11781e-05
-0.000574068
-2.54458e-05
0.702783
0.0110706
0.0044832
2.81409e-07
2.07527e-06
-1.42945e-05
-1.60388e-06
-0.0259101
0.416721
-0.0393203
-0.000614121
-0.000209288
-0.00677021
0.503492
-0.0581222
0.454325
0.00698391
0.157756
-0.000162635
0.497505
-0.00269842
-0.0110586
-0.0013964
0.00843527
0.00995481
0.206792
-0.0447656
0.490246
0.307892
-0.0098081
-0.032951
-0.00727814
-0.033052
-6.72088e-06
-0.00114139
0.00330316
0.0800087
-0.00773413
-0.0260402
-0.00393659
0.602576
-0.0759092
-4.30888e-05
-3.65487e-05
0.511952
-0.00580229
0.00191357
-0.0150902
-0.00267869
-0.0175879
-0.0112903
-0.0747568
0.0504269
0.0122285
-0.0116076
-0.016404
8.24737e-05
-0.00670191
-0.00167707
-0.00914627
-3.49365e-05
5.48235e-05
-0.0239575
-0.023054
0.485207
-0.0352082
-0.000251335
-0.00179929
-0.000378334
0.39844
-0.0682713
-4.3913e-05
-0.0325349
-0.00522136
-0.00415266
-0.0314317
-0.0354908
0.00768941
0.0615215
-0.0682667
6.94554e-05
0.00680158
-0.014937
-1.31774e-05
-7.76434e-05
0.126648
0.0928255
-0.0459062
-0.050872
-0.0568702
0.000585801
0.528843
6.90988e-05
-0.0201268
0.432166
-0.0189604
-0.0399953
3.54114e-06
0.000159739
-0.039965
-0.0104683
0.00155817
-0.0346651
0.253964
0.271991
0.000757075
0.000266461
0.21724
-0.0139256
-1.37137e-05
-0.00169079
-0.0303552
-0.0243125
-0.0121717
-0.00279056
0.160029
1.33295e-05
0.0825452
0.298637
3.02993e-05
0.00865967
-0.000513458
-0.0848919
-0.0149006
-0.000760424
0.0298648
0.000201493
0.244338
0.00154864
0.0232889
4.31178e-05
0.629178
0.400908
-0.0545955
-0.00768323
3.39505e-06
-0.0840889
-0.0138302
0.157562
0.341437
-0.0346129
-0.0270654
-0.016425
-0.00636021
0.154491
-0.000212016
0.492156
0.0250122
4.6276e-05
3.16841e-05
9.69364e-05
-0.0125121
-0.0171621
0.000696677
0.0140426
0.103008
-0.0505213
0.000453688
6.23142e-05
-0.0224546
-4.26821e-05
-0.00277726
-0.0108788
-0.000728911
-0.0233062
0.0040845
-0.00132619
-0.00362745
-0.0151953
0.401424
0.412509
0.0363026
-1.206e-05
-0.000536134
0.269078
-0.000448767
-0.114798
-0.000202917
-0.0187661
-0.0719209
-0.000212678
-0.000228942
-0.0308206
0.00127612
-7.51993e-05
-0.00126649
0.205333
-0.0317905
-4.2129e-05
0.0951446
0.378824
0.392315
0.00057634
-0.101175
-0.00861444
0.459959
-0.0597946
-0.0612527
-0.0129594
-0.0117978
0.0265911
-0.0232009
0.392675
0.0670397
-0.000175132
-0.0476639
-0.0610771
-0.00355197
-1.69301e-06
-0.00170492
0.226639
-0.0001939
-0.00852838
-0.00372035
-0.00110946
0.0082427
0.0274573
-0.000180597
-0.000122676
-0.00737602
-0.0853432
-0.0323057
-0.0662377
0.261816
-0.00228932
-0.000267655
-0.0334277
-0.0217654
0.00867483
0.0123967
4.94289e-05
0.0702616
0.147057
0.0176061
0.0224188
-0.000597283
-0.0120454
-0.073002
0.00119622
-7.01944e-05
-0.00856541
-0.00367766
-0.000693453
-0.0102647
-0.000795548
0.225136
-0.00819575
-0.113352
-0.0216677
-0.00967506
0.0108172
0.516307
-0.0378661
-0.000125346
0.494778
0.168677
0.00709272
-0.00531262
0.00688274
-0.0464553
0.165758
0.000309007
-0.00304616
0.622162
0.313797
0.335327
-0.0394931
-0.00129298
-0.00113708
-4.13853e-05
-0.00120563
0.289904
0.0806633
-0.0115154
-0.00601502
-0.000347869
-0.0670244
0.590372
0.434972
0.0771122
-0.00258753
-0.0535937
-0.00502009
-0.000677335
-0.0210426
0.00990746
-0.0240414
-0.00321367
0.000794835
-0.0788393
-0.0851817
0.0281721
-0.0221408
-0.00515891
-0.0227177
-0.000192999
-0.00627402
-0.000644498
0.36209
3.51156e-05
1.67337e-06
-0.0298832
-0.0174232
-0.0250884
0.0359494
2.21593e-05
-0.0753163
0.0565326
0.20564
0.669399
-0.00418405
-0.107288
0.0273574
-0.00189993
0.0104282
-0.000559309
0.00940148
-0.00018471
0.252335
-0.118418
0.00965992
0.105904
0.11781
0.0013018
0.00226923
2.70453e-06
0.456217
-3.09874e-06
-0.038851
0.000294331
0.00147293
0.182711
0.0993638
-0.0669438
-0.0336722
-0.00371275
0.708214
-0.0666742
3.34188e-06
-0.0137672
-4.99981e-05
-0.0163261
0.101541
0.208691
0.000795822
-0.0304347
-0.00837684
0.153837
-0.0603728
-0.0281426
0.606566
-0.00880452
5.50994e-05
-0.135891
0.631423
0.00134985
0.091902
-0.0384411
0.134604
0.00170114
0.0246507
-0.0625728
0.00444602
0.0513324
-0.029725
0.163489
-0.0228465
-0.0171282
-0.000736603
-0.000740878
0.54511
-1.01402e-05
-0.00528968
-3.28929e-05
-0.00719237
0.000309423
-0.0065075
0.242594
-2.541e-06
-0.00093265
-0.0359121
-0.122434
-0.0221345
0.00100568
0.444725
-0.050089
0.178843
-0.0104845
0.16066
0.00576244
-0.000688881
-0.114603
0.000685039
0.559019
-0.0242629
-0.000117935
0.00203621
0.147106
-0.00993768
-0.000645417
-0.000128475
-0.0808303
-0.00233854
-0.00877335
-0.0650164
1.53374e-06
-0.0575385
0.000349896
0.382104
-0.00917377
0.153753
0.00386682
-0.00332096
0.280366
-0.0579994
-0.13962
-0.00391691
-0.0843341
0.290267
0.307081
-0.0123965
-2.32036e-05
-0.0136613
0.0041588
3.20405e-06
0.0255924
0.418272
0.0113741
0.00142857
0.00501864
-0.058473
-0.000161234
0.0699197
0.0422876
0.0647175
0.0119467
0.0249793
-0.000360874
0.185339
-0.117699
-0.126337
-0.00091678
0.0141883
0.146295
0.000718011
-0.0599118
0.230462
-0.0391283
-0.0609269
-0.0615387
-0.0997867
-0.0992522
0.0492848
0.235024
-0.0989794
-6.41345e-06
0.000717465
-0.0640474
-0.00162112
0.00148446
-9.88155e-06
-0.00512061
0.00357795
-6.96799e-05
0.0545915
-0.000478681
0.123213
-0.0296861
-0.00654319
-0.00614753
-0.00759291
-0.0597636
-0.00522634
-0.000965939
0.0194183
0.0746274
0.00385671
-0.0287109
-0.00266888
0.0261703
-0.00840349
-0.0169551
-0.0612796
-0.0139951
-3.79408e-05
-0.0134404
0.492449
2.21308e-05
0.025912
-0.0537075
0.594359
0.0453536
-0.0398642
-1.03059e-06
0.00151159
-0.0758614
-1.95549e-05
-0.00244751
-4.35521e-06
-0.0656903
0.00406527
-0.0778649
-0.0201315
-0.000122235
0.293876
0.284721
-0.0312191
0.000401388
-0.00016688
-6.75269e-06
-5.79784e-05
0.531262
-0.0012075
0.00205857
0.0199464
0.000850439
-0.000551133
-0.0620941
-0.000253305
0.0401804
0.000745111
-0.00190235
-0.000687338
-0.0224285
-0.0359269
0.183271
0.0666474
-0.000157311
-0.0117315
0.000478768
-0.0820769
-0.000600919
0.127005
-0.00977169
0.703765
-0.0171317
-0.0013307
0.0719655
-0.0168151
0.376575
-0.0364542
-0.0100336
-0.0115575
0.0168667
-0.00329687
2.39317e-06
-0.00748552
0.3293
-0.0377054
-0.00295146
-0.0360849
-0.0236711
0.158042
-0.0004761
0.294714
-0.00489252
-0.0582655
-0.000497772
0.0120543
0.0420916
-0.00931508
0.353636
-0.000443986
0.0308292
0.0862865
0.000420738
-0.000136121
0.580105
0.0520232
-0.00136125
0.0271636
0.0124897
0.000105026
-0.0847845
-0.0198223
-0.111229
-0.00963071
0.36395
0.00364681
0.102458
-0.000375725
0.435093
-0.059254
-0.00480779
0.00565637
0.0291747
-0.0617047
-0.117557
-0.00773344
3.57103e-05
0.643668
-0.0199572
0.000730847
-0.0507317
-0.0344095
0.363551
0.00271953
-0.0145563
-5.58019e-05
0.0395814
0.00730778
-0.0334413
0.000724666
-0.00319247
-0.024657
2.94045e-05
-0.0450467
-0.00145404
-0.0132913
-0.0552501
0.313462
-0.00925962
-0.0056735
-0.0483096
-0.0288726
-4.01081e-05
0.00012079
-0.00349788
3.07017e-05
-0.0100964
-0.0935327
-0.00191133
-6.47434e-06
0.569262
0.00456541
0.000286626
-4.47457e-05
-0.00198098
0.34758
-0.0451854
0.645163
0.197772
0.0202737
0.305469
-1.13997e-05
-0.0133616
-0.000795008
-0.00229728
0.207843
-0.00929423
0.644398
0.274637
-0.0495738
0.291043
0.00767139
-0.0128992
0.00203544
-0.0527773
-0.00366221
-0.0450758
-0.0480028
-0.00280219
0.285265
-0.00904464
0.000119716
-0.00397851
-0.000633033
-0.0298918
-0.000164265
-0.00118387
-2.7473e-05
0.167669
-0.119143
0.294885
0.0251285
-0.0025583
-0.0312433
-0.0183309
0.0718329
-0.00284607
-0.00100356
-0.0558623
-0.0402329
0.00593184
-0.037265
-0.0041609
0.00136983
0.00139927
2.28286e-05
0.140223
-4.59625e-05
0.0550765
-0.00076806
2.56608e-06
0.00182032
-0.000642605
-0.00115141
-0.0146606
0.168659
0.156548
-0.0180693
-0.0115375
0.00264981
-0.00473273
-0.00934109
-0.000109051
-0.000473943
0.000618993
0.116685
-0.00815453
-0.05055
-0.0483928
-0.00232606
-0.0236687
-0.0164667
-0.00161362
0.00485569
-0.0113557
0.259673
-0.0625108
0.00483126
0.000909745
-0.0342754
0.632779
-0.00919902
-0.00559168
0.00713093
0.0814557
0.00368129
-0.00779365
0.286695
-0.000355766
0.0413827
-0.0223611
-0.0540784
0.00585492
-0.00349399
-0.00512383
0.0390826
-0.00337704
-0.00060141
-0.00330999
0.00228753
-0.000232444
0.0238178
-0.00863254
-0.00191957
-1.08405e-05
0.169739
-4.58891e-05
-0.0300627
0.0784645
-0.0233338
0.000109999
0.115564
-0.0424852
0.184754
-6.31749e-05
-0.00370656
0.0402566
0.000151875
0.00453879
-0.00421325
0.00969205
-0.0188766
-0.0287747
-0.00866498
-0.0025178
0.0091502
0.0194759
-0.0530156
-0.000184632
0.12091
-0.0355119
-0.00310889
-0.00643109
0.000360067
-0.060293
6.28373e-05
0.497789
0.218874
-0.000472521
-0.0195325
2.31193e-05
-0.00204427
-0.00550009
-0.0183126
0.170288
0.116562
-0.000241652
0.0094113
-0.0620009
0.0319654
-0.00469771
-0.00736506
-0.0444969
0.0120259
0.217847
-0.00878786
0.420605
-0.000879837
-0.00999291
-0.0457677
-9.81569e-05
-0.000719339
-4.04968e-05
0.417316
-0.0094716
0.000231043
-0.0141592
-0.00554173
-0.000315082
-0.0119922
0.292953
0.000867666
0.0100384
-0.028646
-0.00048513
-0.00425247
-0.000764359
0.654103
0.000182807
2.19998e-05
-0.00185829
-0.0133337
0.00133232
0.000479225
0.00447701
0.0753947
-0.000161577
0.00184195
-0.0616572
-0.0423574
-0.0500709
6.72155e-07
0.00029462
-0.0203637
0.02931
0.338334
0.0939441
-0.0300746
8.42943e-07
-0.0519778
-0.00243086
-0.011415
-0.0110483
0.188783
0.475718
-0.000106787
0.156292
0.254843
-0.00881688
-0.0303201
-0.0220678
-0.015771
9.14879e-05
-0.0350276
-0.00791001
-0.000128885
-0.000519097
-0.00146885
-0.0017579
-0.000634646
0.328963
0.346462
0.173747
-4.19095e-06
-0.0205852
-0.0262646
0.107098
0.50464
-0.000460737
-0.018019
-0.0163771
0.307646
-0.0170296
-0.00875318
-0.0239035
0.161053
0.000258656
-0.000478519
-0.0233311
-0.043756
0.122374
0.0175942
-0.0392254
-0.0221504
-0.0293909
0.0179146
-0.0435312
0.00637249
-0.0850308
0.0940412
-0.000332893
-0.000588596
0.0729199
0.000176217
0.00338285
0.0295933
-1.23486e-05
0.263438
-0.00967187
-0.00404903
0.673282
-0.0319318
-0.0101505
-0.0337762
-0.00257528
0.471228
0.00103066
0.635175
-0.000133922
-0.0294484
0.647429
0.00625522
0.468124
-0.00520611
-1.17577e-05
-0.0266452
0.47575
-0.00145771
-0.00600779
-0.00732034
-0.000928284
-0.0190929
0.480403
0.101409
1.08639e-06
0.0178464
-0.00340184
0.0274191
-0.0008264
0.0215064
-0.00239253
-0.000448628
0.454736
0.490456
0.460447
-0.0438034
-0.072359
0.000120326
-0.047639
0.303382
0.012897
0.000204454
-0.0663561
0.000523261
-0.000102399
0.488104
0.000105009
0.00381051
-0.00176873
-0.00831071
0.465681
0.48001
0.496593
0.0107849
0.000419848
0.219471
0.00692219
0.0184613
-0.00816388
5.84556e-05
-0.00268902
-2.15905e-05
-0.00412324
-0.000690999
-0.00526526
-7.23839e-05
0.150774
0.00192042
-0.0667181
-0.00830615
-0.0585949
-0.014374
-0.000716665
0.369893
-0.00959854
-1.76871e-05
-3.1081e-05
0.624614
2.33517e-05
0.0103893
0.0487099
-0.0157809
0.314517
-0.00472579
-0.0366241
-0.0316534
-0.000492772
0.000105565
0.273292
0.492561
-0.00141078
-0.0204295
-0.00022083
0.485023
0.599868
-0.00131719
-0.00592074
0.0177531
0.00272221
-0.0213546
4.93106e-05
0.00924236
-0.0324552
0.0490312
0.369639
-0.00137817
0.0264567
0.0575998
-0.0132336
-0.0375232
0.0258724
0.580958
0.17795
-0.0442979
0.491483
-0.000547344
0.503651
-0.0069126
0.406326
0.0657452
-0.00456282
0.0278193
0.00218566
0.0161703
-0.0595724
-0.000616761
-0.0202576
0.401344
-0.0231176
0.0173681
-0.00135164
-0.0677523
0.169258
-0.00820513
-0.161554
0.000627622
-0.0032872
-0.0207224
-0.0019527
0.00176556
-0.00784091
-0.000462444
0.00219776
0.401917
0.00191361
-0.0138866
-0.0498741
-0.0251321
-0.051995
-0.0748526
0.00378024
-2.5317e-06
-1.78297e-05
0.263382
-0.0534185
4.96887e-05
-0.0768632
0.177325
-0.0507041
-0.013083
9.83529e-05
-0.00171731
-0.0386049
0.126047
-0.0081327
-0.000441966
-0.0385128
-0.0173005
0.650131
0.106896
0.0608009
-0.0450327
-1.79854e-06
-0.00594913
0.0602901
-0.000345592
1.51737e-05
0.162888
0.0908432
0.000544847
-0.000783127
0.00536521
-0.0362161
0.00917417
0.00691046
-0.0130922
4.37614e-05
0.269453
0.00051118
-0.0005883
-0.000219154
-0.000203275
-0.000146957
0.0765574
0.000812959
-0.00249467
-0.00833788
-0.00435061
0.0256818
-0.00475784
-0.0348033
-0.00904738
0.439452
0.355139
-0.000447729
-0.00131825
0.0876981
-0.000739179
-0.0192239
0.0308899
-0.0120533
-0.000869613
0.0185781
0.0364711
0.00112793
0.0620958
-9.86869e-05
0.00661701
-0.0279417
0.012253
-0.0125849
0.0447937
5.9662e-05
-0.000373992
0.000229127
-4.84944e-05
-0.00142064
-0.00836913
-0.010974
-0.024735
0.0250549
0.0319428
0.00815287
-0.0571487
0.00887973
0.00438589
0.0114926
4.79658e-05
0.481324
-0.00712249
-0.00285205
-0.0472249
0.659108
4.80298e-06
0.0109159
-5.10258e-06
-0.0566934
-0.00552999
-0.0186352
0.162082
-0.00344634
-4.50925e-05
0.10814
0.0661748
-0.000493082
0.0463293
-1.0429e-05
0.155514
0.00503432
-0.0237561
-0.000133503
0.225909
0.0253055
-0.0170195
2.75963e-05
0.16082
0.315105
-0.000978825
-3.82373e-05
-0.0301175
-0.00762511
0.000241901
0.0160483
0.506146
0.273838
0.000402882
0.335999
0.231307
-0.00243729
-0.0443849
-0.0330826
-0.0141492
-0.049655
0.0387939
0.000689398
0.52801
0.131608
0.0107116
7.18197e-05
0.000531393
6.964e-06
-0.000492922
-0.00237801
0.569157
1.60816e-06
0.0718614
0.0237506
-0.000202218
0.52305
0.600499
0.186772
0.22356
-0.0973299
0.00210168
-0.000253086
-0.00921241
-1.14393e-05
-0.000944107
-0.118036
-3.18136e-05
-0.00171483
0.537834
-0.00965503
-1.77228e-05
0.562967
0.000380437
-0.0284832
-0.0563973
-0.00112462
-0.0722698
-0.000205607
0.088652
0.00282126
-0.0149634
0.00163668
-0.000568785
-0.000340591
-0.000195638
-0.114944
-0.048663
0.145176
0.00231939
-0.00828253
0.217855
5.80691e-05
0.629868
-0.000481538
-0.0652701
0.00189298
0.00137618
0.0449573
0.0470334
-2.90382e-06
-0.00348777
8.32828e-05
-0.000576203
0.000701102
0.0747991
0.0429557
0.321657
-0.0421516
-8.80827e-05
0.00013531
0.0892648
0.345234
-0.00371376
-0.00522514
0.630288
-0.00233371
-0.0167571
0.000666667
0.0361882
-0.0425959
-0.00705505
0.148818
0.00110922
-0.000217703
0.00138987
-0.06469
0.618335
0.480369
-0.0195237
-0.0347397
-0.0053712
0.00131056
1.8544e-05
0.0669035
0.178431
6.19654e-07
-0.00602855
-1.66144e-05
0.000104482
0.448855
-2.28584e-07
-0.0665273
-0.0516256
-0.0862678
0.061051
1.7352e-06
0.00832903
-0.00515251
0.410305
-0.0211068
0.00419094
-0.0246383
0.000518447
0.34939
0.201175
0.00877632
0.0383084
0.544623
-0.0517041
-0.0484861
-0.00160179
-0.0057936
-0.000330831
0.0143344
-6.48629e-05
0.156043
0.00242175
0.164372
-0.028658
-1.2503e-06
0.0449768
-0.000146998
-6.88569e-06
-0.000643682
0.614185
0.58805
0.291329
4.50865e-05
0.124363
0.502164
-0.000820527
0.000849267
-0.0069439
0.0382607
0.479003
-0.0222452
0.110566
-0.00216326
-0.0506015
-0.0566851
0.683345
-0.000507129
0.478168
0.0780174
0.181332
8.32681e-05
0.000168888
0.00445777
-0.0073598
0.0717308
-4.91318e-05
5.13893e-05
0.468967
-0.0945604
0.000234183
0.493442
-0.00193339
0.000119847
0.385667
-0.0061143
-0.0013044
-0.0850202
0.0925283
0.000256521
-0.000115505
0.00281485
-0.00334796
0.464574
0.610326
0.261264
0.666224
0.0208576
-0.0364441
0.550714
-7.08119e-05
-0.00269293
0.0479841
-0.0028694
-0.00054909
-8.6715e-05
0.491279
0.0055199
-0.000545935
0.593123
0.0662549
0.17948
0.0368557
-0.00225473
-0.0168079
0.119011
0.0594422
0.488887
-0.0204461
-0.000657047
0.446277
0.401881
0.0105864
0.332087
-0.0322823
-0.00638044
-0.00778565
-0.000536808
-0.000120966
0.452207
-0.049817
-0.0315359
0.00060846
0.141187
-0.0250428
-0.0176373
-0.000850118
-0.00335224
0.511156
-0.000670529
-0.0141597
-0.00247909
0.501602
-0.0158689
0.0166849
-0.0061247
0.0011425
0.139136
-0.0176338
0.524604
-0.00186008
0.663598
0.241656
-0.046581
0.02625
-0.00148369
-0.00394436
-0.0997588
0.472313
0.507088
0.573642
0.294847
0.45766
-0.000318493
0.539953
-2.83288e-05
5.27991e-05
-0.0377036
0.5871
0.0429263
0.218508
-9.66781e-06
-0.00178963
-0.109489
-0.0298907
0.463654
-0.000569677
-0.00626595
0.290461
0.000846109
-0.00349158
0.641686
0.0397284
-0.0377634
-0.169242
-0.000455515
-0.00102671
-0.0260027
0.672525
-0.0155768
-0.0110761
0.00337427
-0.000200506
-0.0111772
0.174776
0.00389678
0.000102295
-0.102127
0.229624
-0.00122736
0.478029
-0.0604112
0.484336
-0.0309318
-0.0184364
0.547499
-0.00435995
-0.0344366
-0.000342511
-0.00109518
-0.0489806
-0.0179307
-0.0285017
-0.00790687
-0.0076449
-0.104586
-0.0542093
0.481057
0.000202723
0.000607591
-0.0165449
0.0983521
-0.105153
-0.0456439
-2.9763e-07
-0.108151
0.0382026
-9.15469e-05
-0.0703965
-0.155931
0.489266
-0.0893785
0.475333
-0.0110078
0.0713891
0.234869
-0.0273193
0.269521
-0.00148119
0.0533842
0.000329619
0.0725213
0.171975
0.156057
-0.0225505
0.00492046
-0.000568647
0.160476
-7.08734e-05
-0.000111523
-0.000857107
-0.0163473
0.0112575
0.0119746
0.398286
0.121913
0.622567
0.364743
-0.00125743
-0.0254021
-0.000144813
-0.037756
-0.00105516
0.00464796
0.000507193
-0.0275874
0.31504
0.477229
-0.000243181
1.63898e-05
-0.0193064
-1.35333e-05
-0.00732233
-0.000155946
0.100573
-0.0276223
0.168728
-0.0753988
2.62788e-05
-0.0109867
-0.0307759
-0.0211346
-0.0129535
-0.0400679
0.0223011
-0.000138083
-3.04451e-05
0.00165675
-0.000119136
0.0525858
-0.0094362
0.0307924
0.574845
0.0355819
-0.110704
-0.0642011
-0.000365179
0.0418428
-0.000107045
0.445432
0.0829423
0.531965
0.000105757
-0.0254377
-0.00542126
0.0383194
0.0907344
0.399846
-0.00603577
0.019404
-0.0015456
-0.0156953
-0.0063583
-0.00485202
0.0896885
0.00125381
-0.00733482
-0.0159244
0.170381
0.0425034
2.28882e-06
-0.000722859
-0.00493599
-0.000496885
0.0823516
-0.000545952
-0.0283956
0.111224
5.89619e-05
0.223621
6.67371e-05
-2.62818e-06
-0.0722095
-0.0174523
0.000125389
-0.0175987
0.00012155
0.557372
0.00989362
-0.0187828
0.516394
0.107636
-0.0242115
0.39111
-0.00221255
-0.00150922
-0.00167465
0.0630891
0.707504
-0.001209
-0.000502039
-4.56471e-06
0.00622052
-0.00101384
0.020435
0.0048688
-0.0162688
-0.0449354
0.0145937
0.0081787
-0.014708
-0.000442172
-0.0486046
0.377795
-0.00146093
-0.0107754
-0.000192552
0.401138
0.0410558
0.373676
0.000335248
-0.000691938
-0.0186982
0.576943
0.122942
-0.0219121
-0.00011097
0.0247711
0.0430029
-0.0292973
0.167611
-0.0360915
0.0145502
-0.11444
0.400681
-0.0134757
0.2194
-0.00253128
0.668751
-0.0314229
-0.00863284
0.522362
-0.0327216
0.140707
-0.1223
0.159798
0.00510093
0.0393072
0.298464
0.0398806
-0.0363624
-0.00760398
-0.00604042
-0.0144334
-0.0237295
-0.00125556
-0.0436765
-0.0217427
0.00152512
-0.0493862
-0.0611839
-3.33113e-05
0.0284381
-0.00716693
0.0095766
0.525965
0.341486
-0.0403087
-0.0533581
0.00034967
-0.068592
-0.00364691
0.646872
-0.0270073
-0.0232412
0.337228
0.0384615
-0.0310884
0.161898
-0.0281623
-0.000534111
-0.00917218
0.00790815
0.000495406
0.358055
-0.00216266
0.120183
0.281607
-0.00450513
0.214261
-0.0867085
-0.000306116
0.00524984
0.0377803
0.30764
-0.00201911
0.0551955
-0.0533918
0.0459381
-0.0178462
0.348582
-0.00738834
-0.082222
-0.00269562
0.000139607
0.473139
-0.00196357
-0.0282478
-9.22049e-05
0.184297
-5.45192e-05
-0.0384137
-0.00310331