/*--------------------------------*- C++ -*----------------------------------*\
  =========                 |
  \\      /  F ield         | OpenFOAM: The Open Source CFD Toolbox
   \\    /   O peration     | Website:  https://openfoam.org
    \\  /    A nd           | Version:  7
     \\/     M anipulation  |
\*---------------------------------------------------------------------------*/
FoamFile
{
    version     2.0;
    format      ascii;
    class       volScalarField;
    location    "15.5";
    object      p;
}
// * * * * * * * * * * * * * * * * * * * * * * * * * * * * * * * * * * * * * //

dimensions      [0 2 -2 0 0 0 0];

internalField   nonuniform List<scalar> 
7807
(
0.344002
-0.00460407
0.462363
0.301722
-0.00137634
-4.31344e-05
0.452941
-0.00780201
-0.000196902
0.124294
-4.20663e-05
0.00282072
-0.0118503
0.0604923
0.129248
-0.0212541
0.356384
-0.0158791
-0.0011552
-0.11725
0.0832216
0.00173731
0.0431914
0.234765
-0.0209178
0.352533
-0.00127861
0.0751068
0.19752
0.000916038
-0.027646
0.613386
0.042469
-0.000682538
-0.00011104
0.10147
0.00123014
0.439695
-0.00917021
-0.000371458
-0.00869705
-0.0202637
-0.119695
-0.0443307
-0.000206624
-9.21008e-05
0.00172143
-0.00911433
-8.47756e-05
-0.115827
0.00450498
0.0709404
-0.0266587
-0.0132769
0.100567
-0.00730912
-0.000806879
-0.0076569
-0.0413477
-0.000686393
2.91294e-06
0.00597873
0.0607574
0.00317847
-0.00113485
-0.0274924
-0.000174314
-1.49871e-06
0.137499
-0.00851431
-8.61121e-05
-0.0849509
-0.0203521
-0.035141
-0.0154496
-0.0600399
0.457343
0.0811991
0.0791668
-0.086875
-0.0114744
0.393293
0.121665
-0.0387779
-0.00267594
-0.00291717
-0.00861558
-0.0260257
-0.00118186
-0.00588019
0.202502
-0.0454744
-0.000158537
-0.000392903
-0.00496311
-0.0336576
-0.0814524
-0.00929056
-0.00284045
-0.00138586
-0.0649314
0.0895979
-0.00477524
-2.28088e-05
-0.0306546
0.211282
0.525096
-0.00766272
-1.32809e-06
0.0380249
0.285747
-0.0773455
-2.7042e-06
0.0407301
0.210821
0.000345613
-0.0900864
0.169749
-0.0613168
-0.0368506
-0.0647501
0.375573
-0.113618
0.0138504
-0.0629392
-0.00165084
-0.0237281
0.000565004
-0.00119211
-0.0272135
-0.100925
0.0784149
-0.000881834
-0.00133759
-0.039765
0.276081
0.446369
-2.02575e-05
0.0110559
-0.08502
-0.032529
-0.0771784
-0.0615604
-0.0337455
0.525959
-0.0365885
0.199664
-0.0420127
-0.0451242
0.374962
0.0964355
-0.0365424
-0.00257546
0.113853
0.120939
0.414482
-0.0697074
-0.0114981
0.534039
-7.63638e-05
-0.0014896
0.243083
-3.05235e-05
-0.00452495
-0.00557844
0.29764
0.298245
0.554514
-0.00486126
-0.00409068
-1.94017e-06
-0.0611012
0.000339868
0.00416744
0.0121172
-0.0443903
-0.00567152
0.201138
-0.000164484
-0.000791125
0.309165
-7.13488e-05
-0.00011711
0.45876
-0.0109169
-0.0656727
-0.0580464
-0.034095
-0.0410638
-0.0845523
-3.13514e-05
-0.077821
0.210645
-0.00493787
2.11394e-05
0.251529
-0.00162738
-0.0255659
-0.0392937
-1.11035e-06
0.0007346
0.281548
0.244465
0.410548
-0.0817953
-0.070023
-0.143827
0.0821055
0.276036
-0.000219292
1.29914e-06
0.495083
-0.0182569
-0.000888722
-0.074843
-0.0249484
0.381331
0.386432
-0.0830468
0.595305
-0.00152699
-0.015372
-0.0660606
0.100692
-0.147988
0.308833
0.528562
-4.07248e-06
0.0148318
0.180486
-0.00806066
0.166417
-0.00109508
0.59548
0.404114
-0.00839275
0.00191771
-0.000348554
0.211464
-0.000104075
-0.0133796
-0.0859815
-9.05785e-05
-0.00276005
-0.00093851
0.20089
-3.41131e-05
-0.00610671
-0.0847474
0.607169
0.0678001
0.560982
-5.15832e-05
-0.0426864
-0.000329423
0.431122
0.00573541
0.448205
-0.000767144
0.000502502
-0.000916683
0.0859898
0.00056385
-0.000260277
0.000467931
-0.00852915
-0.0658548
-4.9561e-05
-0.0671134
-0.00536136
-0.000169707
-0.000964486
0.438066
-0.0109947
-0.000901653
0.554565
-0.0029015
0.318964
-0.000343756
-0.00627158
-1.71037e-06
-0.0530027
0.0963424
0.00738796
-0.0423445
-0.000703549
-0.101728
-0.0225001
-0.000193881
0.000447662
-0.00429316
-0.0109565
0.00397367
-0.00228403
-0.0369788
-0.0587549
-0.0356524
-0.0285196
-0.0452448
0.413177
0.427444
-0.00219058
-0.0246727
-9.64378e-06
-0.0048904
-0.0340466
0.228527
0.136652
3.94942e-05
-0.00450686
-0.0441549
0.206523
-0.00170472
0.00503756
0.0013836
0.081938
-0.120099
0.410156
-0.00210772
-0.00592719
-0.000153599
0.00460884
-6.49504e-05
-0.0352056
-0.000403643
0.000828547
-0.0547963
-0.0548298
-0.00366519
0.0131083
-0.000874847
0.0316121
-0.018681
0.104481
0.202935
-0.178602
-0.0556533
-0.0231003
0.00725645
-0.0836753
0.56453
-0.0479468
0.0522224
0.585388
-0.00202416
-0.00262586
-0.0504602
-0.00214941
-0.0316711
0.00961124
-0.00384301
-0.0027849
0.191531
-0.00014213
0.000533613
2.44111e-05
-0.00478661
-0.0141997
-1.13036e-05
-0.00142115
-0.0394894
0.501803
-0.00282099
-0.0176508
0.497264
0.336168
0.0869837
-0.0101954
-0.0622076
0.00679153
0.289424
-0.0164402
0.355371
-0.0468186
-0.128112
0.24538
0.360401
-0.0618623
0.128343
0.308921
0.330713
0.0802526
-0.00471054
-0.00678845
-0.000108833
-0.00337691
-0.016736
0.000811238
-0.000127408
-0.00233085
-0.101162
0.123562
-0.0270521
-0.00842261
-0.00544601
-0.0100248
-0.0105428
0.000654982
0.276231
-0.00250185
-5.12688e-05
-0.000141522
-1.48137e-05
-0.0332496
0.185808
-0.00577325
0.0476956
-0.157853
0.429199
0.00315338
0.00974739
-0.00824146
0.425101
-0.00130859
0.408306
0.203715
-0.000138407
-0.0500702
-0.0046712
-0.0750936
0.000558298
0.0966779
0.000604836
0.00897725
-0.00107912
0.185486
0.209027
-0.0737028
-0.0409563
-0.00457556
-0.0406958
0.107503
0.603499
-0.0737048
0.0052116
-2.32846e-06
-0.0210467
-0.00308336
0.0281495
-0.129444
-0.0417428
0.451499
0.1925
-0.127476
0.264507
0.413888
0.0475542
0.00116288
0.307904
-0.00189598
-0.000272039
-0.0242675
3.39539e-05
-0.15818
-0.00641621
-0.049164
0.00234727
0.25496
-0.00242148
-4.79314e-05
-0.136825
0.00210732
0.0484678
-0.0627393
-0.0802659
0.0326545
0.181849
0.148843
0.152869
-0.000241391
0.114247
0.114357
-0.000874161
-0.0263537
0.000610971
0.00360336
-0.0138554
0.0068537
-0.00145397
0.200763
-3.43359e-05
0.000131059
0.00249471
-0.0317955
0.0334773
-0.0448192
-0.0386949
-0.0616868
-0.160783
0.00360953
0.300084
-0.037093
-0.0103593
0.596761
-0.0811548
-0.0149934
-0.038039
-0.016133
-0.0290505
-0.0160132
0.0467058
-0.0558181
-5.31753e-05
0.0402316
-0.000118219
0.407649
0.150025
-0.00747363
-0.0194881
-0.000226032
0.39317
0.383579
0.0925828
0.224216
-0.0865667
0.454312
-0.000130513
0.0254308
-0.0252149
0.206935
0.542283
0.0907331
0.182834
-0.00702331
-0.000256445
0.201811
-0.078808
0.410677
0.0501094
0.261864
-0.0107647
0.433229
0.36619
-0.014042
-0.011897
0.171026
-0.082363
-0.000160475
-0.0204127
-0.0835695
-0.0952206
0.0175271
0.0136718
-0.000215572
0.389346
-0.0053487
-0.000139684
-0.0521319
-0.000738896
-0.00027318
0.00201255
0.273146
-0.122057
0.512334
1.80398e-05
0.272336
-0.043236
-0.00016457
-1.61886e-06
0.19486
0.260207
-0.00645334
0.233807
-1.82071e-06
0.247013
-0.173669
-0.0145215
0.428666
-0.0711514
0.211365
-0.0361753
0.246264
0.258845
-0.0263493
-0.0335664
-0.0124861
-0.00397646
-0.000299525
-0.00535924
0.336923
-4.91767e-05
0.235562
-0.117848
0.366066
0.223536
-0.084635
0.510436
-0.00245374
0.000140352
-0.0703256
-0.0289071
-0.0102319
-0.0477857
0.0458211
0.568155
6.48698e-06
-0.00287637
-0.0758065
-2.44587e-06
0.417163
0.00217553
-3.58543e-06
0.0001241
0.000323434
-0.033304
0.0272533
-0.00224245
-0.000100588
-0.0106874
0.000151742
-0.141161
-0.0726223
0.0343111
-2.56158e-05
-0.180815
-0.0191829
0.175511
0.354522
0.00067975
0.178257
8.27922e-05
-0.0185995
0.112215
-0.0104839
0.296244
-0.0202591
0.0308375
0.116603
0.190254
0.00270512
-0.0154624
0.233495
-0.11055
0.440874
-0.0143212
0.335982
-0.0139537
-0.00156607
0.173428
-0.00785476
0.110934
0.00227207
-2.84496e-06
-0.155427
0.26774
0.0011434
0.167128
-0.0191184
-0.184859
-0.00492485
-0.0468638
-0.00244419
-0.0115938
-0.0969834
-0.0413802
-0.0145029
-0.000334249
0.464137
0.169358
0.0471295
-0.00027117
0.361238
-1.51616e-05
-0.000247437
0.179047
-0.00590649
0.235557
0.0739485
0.0250372
-0.0537286
-0.153456
0.0262082
0.0014394
-0.0617409
-5.3471e-05
0.00269066
0.285384
-0.0250006
-0.00413518
-0.0262375
-0.00284588
-0.000863158
0.551755
-0.0152288
-0.000895866
-6.19423e-06
0.16393
-0.0517739
-0.000571309
-0.00381112
0.190733
0.112115
-0.0599864
-1.05216e-05
0.207986
-0.0293924
0.241623
0.0256356
0.0322273
-0.0447722
-0.000128717
0.113679
0.102277
0.0638328
-0.108339
0.333855
0.00850836
0.229938
-0.00892493
-0.0504275
-0.000488405
-0.00880555
-0.000279834
0.196876
0.320115
-0.00226261
0.0284509
-0.0249449
-0.0885344
-0.0987783
-0.00259963
0.022367
0.537204
0.0392673
-0.000131541
0.109661
-0.00861848
0.465711
-0.0185953
-0.0271666
-0.0158854
-0.0303071
-0.017915
-0.0114506
-0.0101402
0.000415552
0.0368131
4.41561e-05
-0.150198
-0.00126333
0.407589
-0.0574486
0.240615
0.00245163
-0.0661888
-0.032703
0.242571
-0.0111995
1.86693e-05
-0.0292309
-0.0111501
0.0263316
-0.0383317
-0.0345291
-0.0173326
-0.0202968
-0.021505
-0.101588
-3.72463e-06
0.0560828
-0.0892201
0.209132
-0.066623
0.11004
-0.113365
0.381533
-0.0015924
-0.0457613
-0.0375127
0.4857
-0.129606
-0.0192178
-0.148057
-0.0608049
-0.133357
-0.0796358
0.221002
-0.00421675
0.281996
0.0126503
-0.000643757
-0.00234087
0.0949505
0.597699
-0.000413635
-0.0443481
0.20001
-7.35736e-07
-0.0319838
0.0430295
-0.00530279
0.0128753
-0.00280795
-0.0552099
-0.00737617
9.85301e-07
-0.0681437
0.304757
-0.00610024
-0.0241793
0.0022475
0.200198
-0.000676335
-0.00173934
-0.000457658
-0.001725
0.0814541
-0.00724163
-0.00120402
-0.0271588
-8.35809e-07
-0.141796
-0.060925
-0.159068
-0.0346962
0.0215062
-0.000264858
-0.0222398
-0.0845851
0.0568437
0.366954
-0.00278894
-0.0829234
-0.00747718
0.00254487
0.196526
0.000371179
-0.000257084
0.183262
0.035759
0.0201836
-0.00454506
-0.00271367
-0.0796857
-0.000337716
-0.0115052
-0.0176311
0.31757
0.306874
-0.0578465
-0.0869813
0.0102732
-0.00122252
0.0167039
-0.0989254
-0.0319839
-5.57804e-06
0.00624135
-0.0340035
-0.10914
-0.00217543
-0.0599273
-0.000558051
-0.00436899
0.224803
-0.0428191
-5.72556e-06
-0.00374491
-0.112569
-0.000194644
-0.0383918
-0.000113795
0.00204493
-0.13653
-0.0587912
-8.70591e-05
1.70255e-06
0.142327
-0.074526
0.393486
0.322533
-0.00202831
-0.00144252
-0.030414
0.000143599
-0.109119
-0.121898
0.0123808
-0.0242938
0.319151
0.00652793
0.000119879
0.00188618
-0.144965
0.00232883
-0.0454874
-0.0822463
-0.00564736
0.0234677
0.079694
0.00517499
-0.036978
-0.0867031
0.208468
-0.0530781
-9.90535e-07
-0.137097
-0.0796137
-0.0615056
0.00110615
0.000737512
0.00351049
-0.137874
0.0363378
-0.0373627
0.169634
-0.0699656
0.00412449
0.0198754
0.0100162
-0.0393133
-0.123307
-0.000261152
0.162171
0.227803
0.0078736
0.271479
-0.104055
0.0525014
-0.0748783
0.219575
0.114191
0.569269
-3.36972e-06
0.118703
0.199644
0.0158908
-0.00161926
-0.018486
-0.010411
-5.96843e-06
-0.0209937
-0.077158
-0.0203286
-0.0250499
5.98572e-05
-0.0879679
-0.000540318
-0.00079284
0.257092
0.00392064
0.11517
0.0208407
0.223899
0.00778513
-0.000718539
-0.12478
0.00532267
0.380223
0.000999526
-0.0798094
-0.000412623
-0.00054816
0.00268827
-0.0788094
-5.61278e-05
-0.0105682
0.0308682
-0.00170083
-1.41641e-06
-0.000103748
0.166545
-0.0445726
0.00515107
-0.00102846
0.0070506
0.0167501
0.00644556
-0.000460108
0.402114
-0.107589
0.239148
0.350617
-0.000187585
0.101267
0.131075
-0.000822919
-0.000357574
-0.000823666
-0.00735291
0.0106346
-0.0258845
-0.0363569
-0.0966307
0.188454
-0.128485
-2.03981e-06
-0.0228341
-0.0268344
-0.0392779
-0.00428154
0.00430498
0.000966725
0.0306761
-0.000467751
-0.000440525
-0.0218528
-0.00482852
-0.0294887
-1.48862e-05
-0.0172908
0.0374874
-0.0314197
-0.0459201
-0.00954673
-0.0131033
-0.00972025
-0.00556584
0.00133401
-0.00968806
-0.000119253
-0.000582354
0.0236585
-0.0131709
-0.00548439
0.00712732
-0.00190184
-0.173665
-0.0128158
0.17067
-0.0131368
-0.0724937
-0.037222
-0.027075
-0.0175449
-0.00394095
0.00118591
-0.00383886
-0.0144461
-0.0175339
0.219866
0.173714
0.05662
0.3546
-7.12822e-05
-0.00558602
-0.0173154
-0.0092943
0.117735
-0.0230359
0.0548378
-0.00692975
0.243747
-0.00225949
-0.00201476
0.00999533
-0.0345305
-0.000276263
-0.036467
-0.00621222
-0.0230133
-2.65154e-05
-0.00692802
0.0015949
-0.0207484
0.0355496
0.0400987
0.0205286
-0.0158793
-0.0373418
0.128181
-0.00172333
-0.0020187
-0.00208035
0.498386
-0.00021543
0.0837258
-0.0228193
-0.0241233
-0.0279978
-0.0617471
-0.0315589
-0.040154
-0.0230664
-0.00529192
-0.000108958
-0.00443282
-0.0230179
0.111403
0.00137844
0.198979
-0.039102
-0.015557
-0.000821987
-0.0345511
-0.000108145
0.162094
-0.0362709
-0.0310313
-0.0285289
-0.00691229
-0.0443863
-0.00157183
-0.0482611
0.113772
-0.02955
-0.110888
-0.00139099
-0.0309685
-0.0219591
0.0162127
-0.00365313
0.155529
-0.00234802
-0.0196382
-0.00084981
0.174183
-0.0461891
-0.0293683
-0.00319134
-0.0114118
-0.0031333
0.224883
0.00483876
0.26001
-0.00736157
-0.00108005
-0.00120549
-0.00266802
0.228464
-0.0779711
-0.00817692
0.000175999
-0.0154452
-0.0265979
-0.00138818
-0.0288355
-0.0183447
0.06476
-0.00533269
-0.000902481
0.464646
-0.0772353
-0.0300557
-0.0727382
-1.29991e-06
0.0851389
-0.00374724
-0.0290159
-0.00658329
-0.0419131
0.00216504
-0.00060348
-0.00287297
0.00289563
0.215226
-0.00598665
-0.00191336
-0.00519752
-0.0765206
-0.00929479
-0.0235984
0.00280308
-0.00938433
-0.00916186
-0.00360367
0.221499
-0.0552553
0.00278587
-0.00424693
-0.0305937
-0.0144405
-0.0585979
-0.00179152
0.103067
0.0243148
-0.00910204
-0.00205358
-0.0165223
0.522628
0.216535
-0.0127227
-0.000530672
-0.00265953
-0.00535815
-0.00460267
0.0220458
-0.000521829
-0.030818
-0.00196706
-0.0182007
-0.0705466
-0.00150145
-0.0198484
-0.00134938
0.337513
-0.00829821
-0.0127132
-0.0300045
-0.00176189
-0.0326792
0.0998955
0.464071
-0.0125345
-0.0136507
-0.00201092
-0.000678423
-1.64601e-05
-5.25078e-06
-0.0117473
-0.000728927
0.142131
-0.000939973
-0.0018884
0.00705655
-0.000243097
-0.0531029
-0.0922453
0.0183992
0.0443689
0.0288818
0.0772268
-0.0695848
0.101391
0.0782435
0.107304
0.13523
-0.0139487
-0.000958785
-0.00925553
-0.103107
-0.00354996
-0.0170068
0.0541676
0.37786
-0.0809825
-0.000468952
-8.16643e-05
-0.0013467
-1.09957e-05
0.00506275
-0.000736732
-0.00751977
-0.0564155
0.000332378
0.00213574
-0.000222919
0.0760776
-0.0168475
-0.0621602
-0.0017642
0.337857
0.334894
-0.0121664
-0.11141
-0.0317914
-0.0259705
-0.0168738
-0.0020819
-0.117614
-0.0567225
-0.0569745
-0.0676018
-0.000125305
0.21803
-0.0324708
-0.0101815
-0.0530637
0.0194787
-0.000566163
-0.00993563
-0.00131344
0.00926918
-0.00238216
0.202525
0.000185864
0.0101833
-0.000363899
-0.105025
0.00872515
-0.00134277
0.00150336
0.000160638
0.0363377
0.136598
-0.00416225
-0.00149424
-0.00013054
-0.000616395
-0.000513899
-0.073093
0.13779
0.0220945
-0.000233684
0.0061921
-0.000539053
0.243763
-0.0742525
0.287887
-0.0519594
-0.000416255
-0.000425453
-0.0087608
-0.00597929
-0.000869221
-1.72929e-05
0.0263391
0.0313593
-0.000220524
-0.000526551
-0.022324
-2.01962e-05
0.183185
-0.00110295
-0.0629942
-0.0222529
-0.0066699
-0.0676829
-0.0796854
0.16555
-0.0391611
-0.0221203
-0.000292362
-0.066669
-0.0219132
0.0119191
0.138676
0.376298
-0.0010744
-0.0717552
0.00827014
0.345274
0.0435052
-0.000117201
-0.0070703
-0.00423717
-0.00567998
-0.0476507
0.103951
-6.24714e-06
0.0138766
0.00140737
0.0901436
-0.000509522
-0.000207098
-0.10097
0.317601
-0.0643264
0.174097
-0.00216405
-0.000204365
-2.74235e-06
-0.126007
-0.0412874
-0.000456487
0.125861
0.0114292
-0.00602512
0.413989
-0.000664851
-0.00459908
-0.0749317
-0.0462408
-0.00224054
0.14852
-0.0954609
-0.000144309
0.00689092
-0.000265225
-0.000118299
0.160161
-0.0100557
-0.000399713
-0.0563123
-0.0286739
-0.00340137
-0.0535304
0.00200267
-0.0242526
0.00112123
-0.00393909
-0.0788896
-0.0451724
0.0137966
-0.00111452
0.176371
0.223817
-0.130016
0.00723202
0.02
-0.00495229
0.181279
0.126369
-0.0298365
-0.000171117
0.00801213
-0.0573577
0.00529034
-0.0363211
-0.00244482
0.047679
-0.0335036
-0.000122849
-0.000102501
-0.0617477
-0.0391658
-0.0281526
0.00823847
0.004487
-0.0558027
-0.000222331
-0.00187904
-0.000282569
-0.0520024
-2.58444e-05
-0.00207325
-0.074655
-0.14489
0.149588
-0.00338389
0.00377328
-0.027351
-0.0285815
-0.00014255
-0.0463632
0.147905
0.171982
-1.86049e-06
-0.00010371
0.175084
-0.00288195
-0.132046
-0.0399262
0.00298731
7.80284e-05
-0.0735955
-0.0420251
0.179289
-0.0585472
-0.00146979
-0.0185486
-0.073109
-0.000653413
-0.00021487
-0.00104864
-0.023364
-0.0575286
0.177515
-0.000202756
0.487162
-0.0161933
-4.91508e-06
-0.00150012
4.92739e-05
7.03088e-05
-2.27975e-05
1.91034e-05
-0.0580239
-0.000918585
0.000241159
-0.000181578
0.154762
-0.00618147
-0.000185089
-8.41639e-05
0.406881
-0.0260891
-0.0519687
0.000611273
-0.000789354
0.0657649
-0.000125744
-0.0229192
-0.145641
0.00182567
-0.0104779
-9.85529e-05
-0.000219327
-0.0386892
-0.0996516
0.00705344
-0.140527
-0.0891398
-2.73735e-05
0.0230534
0.0362133
0.121201
-0.00170372
-0.000155503
-0.0698661
-0.0066145
-0.000735579
-0.0555755
-0.000142857
0.0418896
-0.000200845
-0.0011652
0.016982
-0.0035322
-0.0678568
0.470164
-0.00211769
0.000125399
-0.0762267
-0.0852263
0.0080036
0.00432667
-0.000135699
-0.036134
-0.000105983
0.212612
0.5564
0.100124
0.00265438
0.00310683
-2.63745e-05
-0.0355594
-8.99001e-05
-0.0144828
-0.00190574
0.000136843
-0.00339027
-0.0147647
-0.000114169
0.000555888
-0.0151014
-0.000298187
-0.014554
-0.0198716
-0.0205969
-0.00186643
0.50661
-0.00115841
0.00207165
0.000101302
0.0144414
-0.0541175
0.00943494
-0.000186356
-9.64864e-05
0.00166135
-0.000128756
-6.71641e-05
-0.0175191
0.000449324
-2.47407e-05
-0.06066
-0.00383326
-0.0592263
-0.00176665
-6.44324e-05
-0.00305299
-0.0211938
-0.0208102
-0.0399906
0.0019462
0.000252308
-0.000509138
-0.00176995
-0.000111176
0.301968
0.00121947
-2.27522e-05
0.000195002
-0.00241595
-0.000569479
-0.0672243
-0.0598644
-0.000225264
-0.0080394
-9.21055e-06
-0.0047079
-7.33526e-05
0.0394756
-0.00015511
-0.000288036
-0.005955
-4.45255e-05
0.0140024
-0.000239964
-0.00126171
0.0201704
-1.1139e-05
0.400333
-0.0650546
-0.0497727
-3.76551e-05
-2.15362e-05
0.00131477
-0.0011343
-0.0696657
-1.9443e-05
-9.4406e-06
0.000436238
-2.96429e-06
0.00019593
0.000256236
-0.000473434
0.000522058
-0.0588873
0.498191
-0.0531366
0.371044
0.00901945
-0.0249278
-2.29824e-05
-0.000780491
-0.0147925
2.62747e-05
0.000131783
5.45067e-05
0.0804604
-0.00234111
-0.000359143
0.462621
-0.000434655
0.000235974
0.000296709
-5.22974e-06
0.0696368
-0.00260137
0.000821792
1.6728e-05
-0.00108055
-6.1437e-05
-0.001776
-0.0535623
-0.000387937
-0.00292579
-1.35631e-06
-0.00345253
-0.000215141
0.208436
-0.00043173
-0.000539045
-0.069863
0.00334705
-0.00017325
-0.00138465
-5.49242e-05
0.190868
-0.0879055
-0.000659094
-0.000344011
-0.00365582
-0.000335482
0.0648041
0.132728
0.0377426
0.000145148
-7.14632e-06
-1.15822e-06
0.0646491
0.000110239
-0.0599358
-0.042653
-0.0209559
0.00187682
0.519847
0.00159953
0.230447
-0.0196768
-0.0360513
0.194193
-0.000301596
-0.0776775
-1.70306e-05
-0.0107778
-0.0492728
5.02301e-06
-0.07436
-0.000875223
-0.0205895
-0.00915025
-0.0426413
-0.0492778
-0.00585383
-0.0813993
-0.0444101
-0.000138818
-0.0120963
-0.000111124
-0.0379997
-2.56627e-05
-0.000147916
0.0133228
0.184198
-5.75746e-07
-0.0557861
0.0029957
7.38606e-06
-0.0305066
-8.08204e-06
-0.0134055
-0.000364148
-0.0388294
2.99526e-05
-9.88605e-05
-0.00299976
-0.000162389
0.179932
-0.0372041
0.0964047
-7.19348e-05
0.000391702
-0.0322241
-1.68552e-06
-0.0690344
-0.0761054
-0.0610731
0.494436
-0.00767135
-1.87169e-05
0.0280095
-0.0428519
-0.00441282
-0.000102367
-9.02614e-05
-0.0543999
2.07572e-05
0.000589004
-1.73634e-06
2.93794e-05
-0.0282727
0.164401
-0.100038
0.115812
-0.00617373
-1.24614e-06
0.00414981
-0.0778248
-1.79979e-05
-1.6724e-05
0.000158738
8.90549e-06
0.00022247
0.293821
0.039221
6.27438e-06
-8.35944e-06
-0.0734587
0.22517
0.202437
-3.36121e-05
-0.0432019
-0.0284402
-0.0159493
-0.0531581
-0.0133458
-0.00311114
0.1602
-7.25403e-05
-0.0318533
0.190892
-0.0594399
-5.71666e-05
-0.0662439
-0.000170619
0.353943
0.0294526
-6.79315e-05
-4.18e-05
0.213844
-2.2057e-06
-0.000197991
-0.011981
-1.90683e-05
0.289121
0.00161683
-0.00742147
-0.068451
-0.0042748
-0.116712
0.207184
-0.0250035
-0.0444436
0.000685508
-3.28036e-05
-0.00137498
-4.55252e-05
-3.51858e-05
0.0221944
0.203029
0.169888
-0.000496406
0.270252
-0.021298
-9.35482e-06
-0.0470214
-5.36343e-05
-0.0343371
0.0310003
-0.0216312
0.00348571
0.00147983
-0.00936438
2.73026e-05
-0.00189225
0.019081
-0.00261316
-9.06084e-05
-2.19926e-06
-5.95928e-05
0.034959
-3.32822e-06
-0.0345362
0.28444
-0.00764343
5.00546e-06
-0.00349031
-3.64655e-05
0.108646
-0.000275455
-6.73162e-05
-6.41992e-05
-1.98251e-05
0.234536
-0.000205845
0.276714
-0.0843155
1.30789e-05
-0.0697885
-0.000883198
0.177193
0.469723
-0.00122354
-6.93443e-07
-1.56328e-05
-2.97944e-05
0.168146
-6.74525e-07
0.000645495
-0.0239353
0.26003
-6.44361e-06
-1.20399e-05
-4.4303e-07
-2.85146e-06
-0.0247174
-1.02062e-06
0.333828
-0.0234609
-9.55086e-05
-7.02713e-07
-0.0018654
-0.0302287
-1.86947e-07
-5.16776e-05
0.186815
-4.68252e-07
-0.0390018
-0.0868363
3.29252e-05
-5.87713e-07
-0.175653
-3.79338e-07
0.190465
-1.4189e-06
-0.000470694
-6.93877e-06
-0.000127252
0.106605
-5.53056e-06
-0.00176278
-1.2573e-05
0.0100157
-0.00418293
-0.00621921
-0.00162959
0.174044
-0.00050187
-9.7365e-05
-0.00886514
-0.00885187
-0.000182662
-0.000134388
-0.00105771
-8.14842e-06
0.226832
-0.0150502
0.512257
-9.16707e-06
-0.00845626
-0.00031521
0.158925
-6.69158e-07
-0.034704
-2.55525e-06
-0.00163349
-0.0401697
-0.000196406
-0.0187442
-0.0612999
0.00359804
-4.25441e-05
-0.0878529
-0.000235899
-0.000615694
-0.00588114
-0.0276456
0.000757472
-0.000151873
-0.000433455
-0.00164614
-0.00128058
-1.46368e-05
-0.00116113
0.465808
1.89706e-05
-0.00316603
-0.0420546
-0.0734035
-0.0759572
-0.0496377
-0.0266403
-0.00100905
-0.0290949
9.42206e-06
-9.03891e-05
0.485196
-8.76079e-05
0.215336
-0.000326011
0.000161524
-0.00104413
-0.103036
-0.000395251
-0.00132751
-3.16835e-05
-0.000353725
-6.40735e-05
-8.21575e-05
-0.014983
-0.000136374
-9.64671e-05
-8.09031e-05
-4.59429e-05
-3.32307e-05
-0.0558355
0.297892
-1.43307e-05
-0.000444332
-0.000142222
-2.64887e-06
-0.000713449
-6.01892e-06
-0.000804754
7.80109e-05
-0.000315297
-0.0741745
-0.000650925
-0.00217107
-5.26155e-06
-0.00272186
0.00015888
-1.47522e-05
-1.69133e-05
-3.31305e-06
-0.00060487
0.000263446
-0.0572057
-0.0373594
-0.0720686
-0.000419497
-0.00341414
-0.0312143
-0.0698761
-7.50567e-05
0.0138357
0.00545858
-0.000780402
-0.0139037
-0.0560954
0.463424
-0.000337607
-1.9961e-05
0.000394267
-3.13454e-06
-4.16676e-06
0.08503
0.00213051
0.0992514
-0.0567014
0.438803
-0.000381835
-4.01054e-06
3.62616e-05
-2.93118e-05
-0.00105401
0.181385
0.243451
-1.83727e-05
-0.000183657
-4.22371e-05
0.231598
0.0141137
-0.0122145
-2.91071e-06
-2.77737e-06
0.00670306
-0.00051997
-0.0927135
-0.0202567
-2.08766e-05
0.00270914
-0.0430997
-6.08618e-05
0.00124784
-0.000105249
-0.0525408
-0.00140785
0.170313
-3.64751e-06
0.00126238
-0.00223779
-5.97731e-06
4.51827e-05
-0.0281035
-5.00749e-06
-0.000694424
-1.27029e-05
-0.0188256
-0.04947
-0.00543716
-0.0132006
-0.00856905
0.00880773
-0.010092
-0.00209364
5.56469e-06
2.36102e-06
-9.88522e-06
-7.65153e-06
-5.3662e-05
0.00780945
-0.0823521
0.000257472
-0.0704956
-0.00259234
-0.0774726
1.48699e-05
-3.34324e-05
0.000917708
-0.073588
-6.34181e-06
-0.0687027
-0.0196802
0.0399094
-0.0719582
-5.71188e-06
-0.00294397
5.30767e-05
-0.15079
0.150584
-2.46248e-05
-0.0782433
-0.0309974
-0.00370879
-1.12974e-05
-1.43801e-05
0.0255261
-0.0158265
-1.62952e-05
-0.0069269
-5.05179e-05
5.96737e-05
0.140779
-1.18139e-05
-3.99839e-05
-0.000161156
-9.0459e-06
0.000576361
1.64287e-05
-0.00462536
6.12414e-05
-0.0150188
0.000707831
-0.000262027
-0.0488308
-0.0535836
-0.00715563
-1.56926e-05
-7.96822e-06
-0.0958545
0.00503393
-0.0570734
-2.10868e-05
-0.00575392
-2.82184e-05
-1.0143e-05
0.0838706
-0.0062188
-0.00234292
-3.59947e-05
-0.0235854
-1.55852e-06
-0.0818709
-1.29354e-05
-0.0937248
-3.48391e-05
-9.46444e-06
1.46273e-05
0.000686143
-0.113427
-0.0174177
-0.0936639
-2.02125e-05
9.3832e-07
-0.0920928
-0.0419895
-0.00768428
-1.38451e-05
-0.0510559
-0.0704061
-0.0899243
-2.82107e-05
-1.6551e-05
-5.7137e-05
-0.116399
-0.0925159
0.000388315
-0.0100543
-8.31457e-05
0.284447
1.91887e-05
-2.59271e-05
3.76362e-05
-7.42759e-05
-1.90519e-05
-0.00396777
3.71965e-07
-0.00285941
-0.0908688
-0.0122249
-0.0561158
-2.05974e-05
-4.6103e-05
0.0579679
-0.0845178
-0.00417466
0.127282
-8.43309e-05
-2.52916e-05
-2.22796e-05
0.149883
4.81991e-05
-0.000131772
-2.84702e-05
-0.0926417
-0.0146492
-4.19204e-05
-9.67078e-05
-0.0108953
-0.00569181
0.000152781
0.247176
-0.0859557
-0.000928282
0.596316
-0.000113623
-0.00107549
-0.0125983
-0.0870543
-2.18234e-05
-5.32033e-05
-4.14056e-06
0.00387249
-0.0504654
-0.000422325
-0.0643751
-0.00694991
-2.75191e-05
-6.99385e-06
-0.0092677
-0.0156149
-0.0240863
-0.0926464
-0.0505751
-0.04648
-0.000469252
-0.0354593
-6.79388e-05
0.000131755
0.000164317
0.000303401
-0.000276146
0.000387719
-4.58051e-05
-0.000239451
-0.0111262
-1.39971e-05
-5.8143e-05
0.0384563
-0.0380027
-0.000448267
-0.000179743
-2.07862e-05
0.267072
-0.00772784
0.000368327
-0.0371271
8.94942e-05
5.95405e-05
5.1276e-05
-6.07015e-05
0.000226161
-0.0489486
0.0135269
-1.14892e-05
-0.000374906
-0.0569152
-0.0466179
0.0537527
-0.000352203
0.00143231
0.0180523
-2.60094e-05
-1.26027e-05
-0.0733981
-4.9085e-06
0.181301
-5.93194e-05
0.00358345
5.02984e-05
6.93845e-05
-0.0792396
-0.00888386
-0.0214548
-0.00212078
-4.64758e-06
0.00368038
0.0683276
-0.0152135
-0.00015254
0.106369
0.1781
-8.54397e-06
-0.0639095
-8.6767e-05
-2.7369e-05
-4.3755e-05
-0.000410793
0.0203254
-7.80864e-05
7.63491e-05
-0.0249909
-0.0307753
-0.0206887
0.330054
-4.57891e-05
-7.47454e-05
0.186609
-0.016941
-0.00428259
-0.000477222
0.184254
-3.391e-05
-0.000740149
-6.55836e-05
-6.48036e-05
-5.21277e-06
-6.6902e-06
1.18979e-05
-0.0176194
-3.14773e-05
-0.00412235
-0.0514018
0.274474
-0.000525719
-4.90059e-05
0.00402679
0.095459
-0.0729151
-0.00056109
-0.071518
0.330854
-3.2319e-06
0.421582
-1.16387e-05
0.00243506
0.0252973
0.000209058
0.442965
-0.000120307
-1.18986e-05
0.000647188
-7.11763e-06
-0.000642917
9.80419e-05
-3.30064e-05
-0.00181106
-8.84196e-05
-0.000165152
-0.00328598
0.263449
0.0568497
0.022778
-0.0473109
-9.60338e-06
-4.62425e-05
0.00233284
-0.0851338
-2.4372e-05
-0.0518326
-6.13201e-05
0.116728
0.0688149
-0.04507
-0.00138625
-0.0164515
-0.000729342
-0.0138985
-3.28965e-05
-0.0105819
0.0716152
-2.91829e-06
0.304511
0.0413896
-0.00122352
0.237317
-0.0159676
-1.34016e-05
-3.59478e-05
5.95287e-06
-0.00015063
-0.000178477
0.2641
-0.000897392
0.272978
-0.00205654
0.181983
0.251205
0.150566
-0.00827503
-2.57915e-05
-9.72134e-05
-0.00970782
-0.17332
-0.067136
0.00108529
-6.27717e-05
-0.0422417
-0.000880948
-0.000137412
0.000678109
-0.000928647
-0.00149752
0.0355761
1.08204e-05
-0.0507328
0.0650102
2.76812e-06
7.88954e-05
-0.0204851
-0.0876134
-0.000631442
-0.000421743
-4.4731e-05
5.80893e-05
0.120559
-0.0223965
-0.0674933
0.000894552
0.126898
-0.051154
-3.53526e-05
-2.69293e-05
0.0203936
-0.000252726
0.106533
-0.00424603
-0.0127775
-0.000442611
0.00108055
-0.0496948
-0.000188706
0.000239572
-0.0097167
-0.0903392
0.18664
-0.0701044
-0.0338508
-0.000398887
-4.25895e-05
0.00620745
-1.4078e-05
-0.0874826
-0.0909606
0.000298811
0.00214977
0.00324102
-0.152405
0.00034344
1.29538e-05
-4.67893e-05
-0.0536522
-1.64574e-05
0.000301789
0.137064
0.198531
-0.166555
0.0545676
0.0533391
0.0180767
-0.000475509
0.00849451
2.87758e-05
-1.08274e-06
-0.000289109
-3.98535e-06
-0.00021343
-0.000326569
-0.00886017
-0.0899173
-0.0116258
-0.0423948
0.0588904
0.0483809
0.00327959
-0.0898104
-1.67604e-05
0.00318067
0.010063
-0.000393724
0.0866429
-0.0025569
-0.0142268
0.0103859
0.00496158
-0.000540605
-0.00460835
0.0472503
0.000457936
-0.0237035
-0.0206886
0.522607
-0.0334847
0.0933767
0.0246562
-0.0554074
0.00162892
-6.04378e-05
-0.00221349
-6.64696e-05
-0.00217819
-0.032969
-8.15369e-05
-0.000333726
0.325762
-0.00275803
-0.0521718
-0.0178367
-5.73067e-05
-0.00318238
-4.03104e-05
-1.66907e-05
0.0413309
-1.48032e-05
-0.00247231
0.0879717
0.00483164
0.000773288
0.0176872
-0.00666786
0.0036134
-0.15967
0.000459171
-0.00498773
-0.0733486
-0.00119164
-0.00947805
0.000237727
-0.0021674
0.000609873
0.0396801
-0.000786402
0.00479464
-0.0573942
-0.026019
-8.45652e-05
-0.0545129
-0.017877
-0.0164844
-0.000135199
0.0059568
-0.107652
-0.00075231
-0.00605932
-0.0512158
-0.00359242
-0.00118175
0.250084
-0.0337227
-3.08868e-05
0.00774781
-0.073588
-0.000974142
0.215038
-0.00422322
0.000648065
0.0667888
-0.00148507
0.00701688
0.14326
-0.000389408
0.000792138
3.00975e-05
-9.71894e-05
-0.00392637
-0.0111715
-0.000553385
-0.0291959
0.113791
-0.0407679
-0.114098
0.000793851
-0.00334358
-0.00130981
-0.0778644
-9.41259e-05
0.0143317
-0.000144423
-0.0152913
-0.00176072
-0.00437144
-0.0102768
0.138946
-0.123628
-6.66552e-05
0.232412
-0.00301338
-0.00515688
-0.0703259
-0.131256
-0.0195343
-3.83478e-05
-0.00220847
0.00650795
-0.00305857
-0.00535872
-2.80858e-05
0.0993161
-0.065029
-0.0131707
-0.00593502
0.0212972
-0.00785618
-0.00556562
0.00125813
-0.000676423
-0.00299207
0.134923
0.000325024
-0.17473
-0.000318004
-0.00660211
-0.00664559
-0.142431
-0.014304
-0.169744
-7.451e-05
-7.98362e-05
-0.0104029
0.00950446
0.000622892
-0.192389
0.102253
-0.0658008
2.46644e-05
-0.208298
-0.000369805
-0.216501
-0.0314574
-0.224486
-0.219078
-0.203976
-0.149227
-0.0424728
-0.00096255
0.0370562
0.0757462
0.113745
0.220074
0.253716
0.284893
0.336359
-0.00731093
-0.00982871
0.0737511
-0.031258
0.000445835
0.0114315
-0.0520951
-0.000110259
-0.00160453
-4.95058e-06
-0.0184864
0.0178746
-1.02385e-05
-0.000931588
-0.00951881
-0.017116
-0.230623
-0.0246283
-0.0747866
-0.000205746
0.000122115
-3.76488e-05
-0.0890373
-0.0115109
-0.0496618
-0.0203781
0.00119658
-0.000216536
0.00407002
-2.80383e-05
-0.0263922
-0.000199916
0.000149308
-0.0133793
-0.0105897
-0.00124398
0.000122024
0.0540562
-0.0133817
0.0745011
-0.224679
-0.0166363
0.186215
-0.0224444
0.00272076
-0.0276972
-0.00388264
-0.0116856
-0.0186481
0.356723
-0.00276082
-4.44742e-05
-0.00713088
-0.0121252
-2.74838e-06
0.0914286
-0.00601419
0.338811
-0.085255