/*--------------------------------*- C++ -*----------------------------------*\
  =========                 |
  \\      /  F ield         | OpenFOAM: The Open Source CFD Toolbox
   \\    /   O peration     | Website:  https://openfoam.org
    \\  /    A nd           | Version:  7
     \\/     M anipulation  |
\*---------------------------------------------------------------------------*/
FoamFile
{
    version     2.0;
    format      ascii;
    class       volScalarField;
    location    "10";
    object      p;
}
// * * * * * * * * * * * * * * * * * * * * * * * * * * * * * * * * * * * * * //

dimensions      [0 2 -2 0 0 0 0];

internalField   nonuniform List<scalar> 
29659
(
0.0304158
0.343174
-0.0303367
-0.11494
-0.00838069
-0.126276
-0.031362
0.0300422
0.00687326
0.000576652
0.0211141
-0.0155743
-0.00172971
-0.000121738
0.302198
-0.0204352
-0.000657867
0.14273
-0.00749314
-0.0355214
-0.00303152
0.00645003
-0.0306543
-0.00734072
1.35593
0.341002
-0.00185588
1.12493
0.286519
-0.00570923
0.0537127
0.163804
-0.172118
-0.0214231
1.14004
-0.0211216
0.376194
-0.0912815
0.0193024
0.018647
0.00141639
-0.0545379
-0.000593534
-0.0519384
8.09859e-05
-0.00506092
-0.0136424
0.000206543
0.0113154
0.367014
-0.0322975
-0.101919
0.168819
-0.122477
-0.0199844
0.275152
-0.0117837
-0.00311709
-0.0147298
-0.0492099
-0.000265187
-0.00726819
0.0762081
-0.0183621
0.568218
1.27643
-0.0245464
-0.0286189
1.21415
0.00147643
0.338004
0.92784
0.00804656
1.26418
-0.0265104
0.0509248
0.244634
-0.0818995
-0.000206465
-0.0449751
-0.114065
0.458907
0.0302819
-3.48833e-05
-0.0251995
-0.159558
0.641592
-0.00179361
-0.00167364
-0.167756
-0.0702554
-0.0825691
0.0104283
0.163619
-0.172756
0.640605
-0.0891434
0.00155207
-0.126629
0.348747
-0.000216272
-0.0771423
-0.000258432
0.118341
-0.104464
0.291346
0.789277
-0.00161116
-6.5333e-05
-0.155649
-0.172386
0.0420397
5.67541e-06
-0.00532236
-0.000671177
0.90332
0.490514
-0.0386686
3.78215e-05
0.00931292
-0.0390733
0.365209
0.00728074
1.27199
0.00366029
0.0484862
0.152681
-0.0378322
0.013794
7.05559e-06
-0.0478797
0.232175
0.852371
-0.0272547
0.117164
0.0521679
0.605061
-0.0787552
-0.211569
0.339062
0.0598774
-0.146213
-0.142527
3.95109e-06
-1.17213e-05
-0.00858385
-0.0127362
-0.134689
-0.143989
0.116239
0.0881965
0.0444288
0.00140156
-0.000519772
0.483246
0.00167036
-0.0256642
0.566264
0.580988
-0.0262085
-0.10965
-0.111872
0.284683
-0.000215853
-1.27979e-05
-0.0388977
-0.138641
0.000117493
-4.04321e-05
-0.0232847
5.26515e-05
0.0193681
0.581668
-0.0775592
-0.114496
-0.0169247
0.00701204
-0.0794485
-0.00430982
0.0230105
-7.76528e-05
-0.00882452
0.633948
-0.0269409
-0.210659
0.48132
-0.0211423
-0.0590575
0.0129129
-0.00522881
-0.00101792
0.00804823
1.29443
0.475446
-0.0454396
-0.0246376
1.06855
0.429273
-0.170339
0.00385769
-0.0657909
-0.149936
-0.0148685
0.00278663
0.590217
-0.0224827
0.0233421
-0.135341
-0.159525
-0.000145104
0.975986
-0.00357363
-4.10413e-05
-0.00192593
-0.0656259
0.105759
-0.00515193
0.0227544
-0.00727581
-0.169861
3.28021e-05
0.00147557
-0.00782904
0.240749
-0.00956859
-0.00507718
0.164188
0.000365458
7.49053e-05
0.0178956
-0.0878977
-0.0705861
-0.0158758
0.334793
-0.0484583
0.046775
-0.000127063
-0.0101767
0.00259581
-0.0590464
-0.217049
-0.00472174
0.00151503
-0.00537317
0.00969017
-0.034655
-0.000206586
-0.149376
8.2058e-05
0.244271
-0.0113977
0.000426257
0.295639
-0.152653
0.000796759
-1.43542e-05
-0.146507
-0.209376
-0.0295492
-0.0420979
0.0880147
0.607084
0.000218005
-0.0845494
-0.00864216
1.09433
-0.0271528
0.474875
0.0605877
-0.000808105
1.55522
-0.00192019
-0.121211
-0.167651
0.00752603
0.0831612
-0.0277077
0.849065
-0.0116751
-0.0583479
-0.00100717
0.430526
-0.00951206
0.655177
-0.00180623
-0.0194827
1.04521
0.210552
0.163847
-0.102504
-0.000579052
0.00939521
-0.000693505
-3.59099e-05
0.229518
9.75195e-05
-0.0634418
-0.0136476
1.37154
0.840114
-0.135602
-0.060172
-0.0674999
0.0374588
0.0103299
-0.059809
-0.142184
0.621188
0.944633
-0.00440678
0.775202
0.223541
0.0104269
0.0384351
-0.00510969
-0.0197014
-0.0180964
-0.00904058
-0.000243893
-0.00606262
0.060771
0.430642
0.00549009
-0.0875876
0.0447326
-0.000160787
-0.13876
1.44874
-0.0213192
-0.00479222
0.0409807
-0.0427191
0.286908
-0.00502234
-0.00015309
4.44953e-06
-0.00912985
1.05354
0.0854675
-0.216156
-1.20896e-05
-0.220279
0.183784
-0.0172903
-0.159094
-0.00439522
-0.00157769
-0.0801483
0.00308607
0.0268254
0.0357845
0.218917
-0.00060624
0.00763775
0.361806
-0.0341674
0.00138062
0.00147371
0.887043
-0.0696916
-0.00550529
0.448908
1.12084
-0.0460188
-0.0230265
0.115395
-0.00271662
-0.028855
-0.0114142
0.420297
-0.000140127
0.0344952
-0.128352
0.865683
1.24515
-0.0205192
-0.0302555
0.586412
-0.0514657
-0.000237442
0.16171
0.253716
0.257808
-0.0245691
0.0859115
1.09735
-0.168687
0.9721
0.895645
-5.8024e-05
0.0623142
-0.154362
-0.0100565
0.00559756
1.13081
0.0852253
0.000912823
-0.10568
-0.153181
-0.0190966
-0.000483741
0.643168
0.481469
9.38398e-05
0.0142452
0.0188722
-0.0869044
-0.101949
0.000143424
-1.3037e-05
0.0016524
0.296737
-0.0906416
0.708286
-0.15806
-0.0580487
-0.0715465
0.439827
0.0848752
-0.00427582
0.0281839
0.00287144
0.976481
-0.0841926
0.00371728
-0.0257298
0.068243
-0.00525825
-0.0415372
0.000763099
0.00078519
1.46906
-0.0277157
-0.0173932
-0.00165621
-0.002654
0.574029
-0.128697
-0.079195
1.0693e-05
-3.45486e-05
-0.0869713
-0.0232108
-0.0180275
0.0593646
0.0217278
-0.00892289
0.106556
-0.0587465
0.955002
0.0188757
0.000811595
-0.135484
-0.0767645
0.103609
-0.0117687
-0.0787761
-7.30062e-05
1.21039
0.0670723
0.000234363
1.29442
-0.0818668
-7.77167e-05
0.00505949
-0.1385
0.0440532
0.148585
-9.97203e-06
-0.027596
-0.0153676
-0.0185352
-0.00173478
-0.0284751
1.07891
-0.0286391
-0.040094
0.506475
-0.00994033
1.01224
-8.54668e-05
-0.0528707
-0.136877
-0.0769877
-0.0356432
-0.0055928
0.00775521
-0.000683717
-0.0633804
0.0360819
-0.000152362
1.52384e-05
-0.0219049
0.969396
0.0268758
0.00886014
-0.172612
-9.72098e-06
0.00340972
-0.000226685
0.0337728
-0.0588636
-0.00145073
-0.0272142
-0.0422729
0.00356387
-9.02243e-05
0.0148008
-0.00148328
0.168665
0.789494
0.601327
-0.013714
0.0213806
0.0881846
-0.000477415
-0.0121412
-2.21706e-05
0.907663
-0.0464837
0.058538
-0.0573151
0.00615324
-0.0110073
-0.000438897
1.85441e-05
-0.0168488
0.15564
0.594757
0.00436593
-0.122126
-0.0836014
-0.0272009
0.11915
-0.00477344
0.00437933
-0.0194656
-0.000408887
-0.141769
0.661201
0.451751
-0.0744237
0.646447
0.000236593
9.07771e-06
0.163527
0.0944405
1.26385
-0.1179
-0.071417
0.0804181
0.00414709
-0.0203404
0.00157861
-0.0362994
-0.0435441
-4.99528e-05
-0.00325403
0.861612
-0.00057751
1.16897
-1.92836e-05
0.0237497
0.161037
0.11494
0.00368806
0.000613952
0.948007
0.175453
-0.140072
0.467738
-0.0221257
-0.0448749
-0.0143673
0.414814
-0.0848077
0.0430235
-0.0260701
-7.84631e-06
-0.0047199
0.021105
-0.0597906
-0.0727615
-0.136188
-0.0604365
0.310192
-0.00764271
-0.166678
-0.0464338
7.6216e-05
-0.0409828
0.0359257
0.315117
-0.0895545
-2.15467e-05
-0.0611849
-0.00115586
0.00496151
-0.162728
0.706162
0.00316928
-0.0404084
-0.036513
0.214016
1.06002
0.00646359
-0.0153812
0.473485
0.402776
-0.0497246
0.0176084
-0.149711
-8.65748e-06
-0.131651
0.000255362
-0.0387985
-0.000138683
5.06095e-05
-0.0200293
0.0818749
0.752792
0.0387974
0.0418992
-4.98809e-06
-0.022035
0.000269541
-0.0115281
5.18269e-05
0.157434
-0.00178603
0.443598
-0.000522267
-0.0433193
-0.115593
-0.0150642
1.05002
-0.0555079
-0.123191
-0.0198878
0.146072
-0.130405
0.0957885
-0.040727
-9.38834e-06
-0.0171675
-0.0140974
0.000834111
0.000257934
0.402806
-0.017464
0.232485
-0.0140974
0.00302412
0.106848
0.00054529
-9.08694e-05
-0.130082
-0.0124887
6.31325e-05
0.550763
1.39295
-0.000826285
-0.111362
1.34218e-05
1.11943
0.0177878
-0.114416
8.61232e-05
0.0442854
0.180779
0.210324
0.146192
-0.00157436
-0.000594524
-0.0514489
-6.02481e-06
5.12485e-06
-0.0864002
-0.0861971
-0.133505
1.32572
0.000669535
-0.0839973
0.0274393
-8.28316e-05
-0.00450248
5.217e-05
-0.0210679
0.000118661
-0.0358369
0.0929116
0.998756
0.141995
-0.00107384
0.00159088
-0.0972883
0.227541
-0.0110523
2.02211e-05
0.470027
-0.21206
-0.114458
-0.047419
-0.000100616
-0.00106454
-0.217163
-0.0646469
0.376495
0.95396
-0.120402
-0.0046001
-8.11359e-05
-0.13451
-0.171427
-0.000797302
0.011092
-0.0480803
-0.0166239
0.942702
-0.00470875
0.0186932
0.246539
-0.0269304
1.27114
1.26816
-0.000153671
-0.000195442
-0.0547769
0.054865
-0.107867
0.0189302
-0.0260719
-0.00213649
1.07724
0.433261
0.00810331
1.53436
1.01917e-05
0.287858
-0.149365
-0.0812142
0.000281089
-0.111824
0.297411
0.0525638
0.190628
-0.00169256
-0.00181413
-0.00596252
-0.0123293
-0.0453189
-0.00393468
0.322717
-0.0190945
-0.0184839
-0.17588
0.869966
0.0711116
0.10498
-0.00151558
-0.00191813
-0.0652254
0.00349042
-0.00927151
-9.6386e-05
-0.0013821
0.29832
0.95099
-0.000519606
0.332068
-5.59792e-05
-0.0119342
-8.22538e-05
0.0194166
0.00381973
-0.000185691
-0.000190739
-0.161459
-4.38764e-06
0.148879
-0.0749488
-0.000182188
0.428496
-3.37899e-05
-0.00150901
-0.000372127
-0.017788
-0.00143518
-0.0215399
-0.166741
-0.00128205
0.0152438
-9.19744e-05
0.74119
0.0146081
0.0689527
-0.101582
-0.0715811
-0.00415472
0.0104515
0.52204
-0.0794632
0.393909
-0.12329
-0.0123228
-1.44475e-05
-0.0200858
0.835197
0.471906
-0.10281
-0.153627
0.713586
-0.0290097
-0.143083
-8.19657e-05
-0.0779782
-0.00305358
1.49393
-0.131127
-0.000364132
-0.164975
-0.0818543
0.600492
-0.00916235
-0.0852463
-0.0129892
-0.018686
-0.00459146
0.599633
-0.214177
-0.0619017
-0.0491406
-0.0429603
0.0199649
0.703599
-0.0601693
0.471108
0.00973957
-0.0322173
1.18826
-0.0295059
-0.000885322
0.589015
0.877657
-0.00329348
0.0568016
-0.0224228
-0.100353
0.478117
-0.135995
-0.000108555
-0.0253658
9.16436e-05
-0.015594
-0.000114083
-0.0153839
-0.00347117
-0.0110306
-0.0684743
-0.00219329
-0.00184935
-0.0040003
0.505976
-0.00732789
-0.0112926
-0.0104519
0.419753
0.0184547
-0.00136707
0.81291
1.24866
-0.0624757
1.06841
-0.0550739
0.786305
0.0190278
-0.0331548
0.00893513
-0.00167105
3.68308e-05
0.00888973
-0.0382057
-0.0624339
0.460011
-0.07176
-0.0633332
-0.0032503
-0.0531194
-0.0741423
0.0226946
-1.76758e-05
0.0405307
0.22569
0.898935
0.0735136
-0.0421693
0.365684
-0.00125167
0.116084
-0.0562411
0.00208592
-0.162803
0.0113723
0.797878
-0.00698082
-0.00188996
-0.00051099
-0.138551
-0.00431541
1.50327
1.55211
0.0395406
-0.000152938
0.0276165
-8.04872e-05
0.186694
-0.00186763
0.0711455
1.3718
0.11405
3.94002e-05
-0.0258942
-6.49609e-05
-0.21718
-0.10623
1.09106
0.00070282
0.0381547
0.0108996
0.000879987
-0.00742512
-0.00105385
-0.0190658
-0.106005
-0.0703609
0.0243846
0.419276
-0.0411951
0.0205315
-0.0623174
-0.0058113
-0.0821446
2.35946e-05
0.00011065
-0.00707719
0.0892779
-0.0805797
-0.0489916
-0.0115821
0.0085678
-0.0384282
0.44765
-0.0395829
-1.53684e-05
-0.15675
0.998669
-0.0279017
-0.0370355
0.199522
-4.83683e-05
-0.00220558
-0.0858859
-0.000127111
-0.00147074
-8.17801e-05
1.53511
0.0278371
0.0113008
4.96822e-07
3.30061e-06
-6.07718e-05
-6.6976e-06
-0.068724
0.883429
-0.105741
-0.00153295
-0.000557638
-0.0157082
1.09154
-0.13846
0.973531
0.0851458
0.351261
-0.000470767
1.08283
-0.00681632
-0.0284698
0.0550257
0.027908
0.0314472
0.458703
-0.121092
1.06984
0.63309
-0.0245616
-0.081763
0.0149562
-0.0870384
-3.94761e-05
-0.00289743
0.00828622
0.191277
-0.019837
-0.0690061
-0.00989941
1.31459
-0.162334
-0.000135088
-0.000113926
1.10245
-0.0148395
0.00819624
-0.0394325
-0.00680001
-0.0449947
-0.0290121
-0.0169488
0.208798
0.0938314
-0.0298784
-0.0419667
0.000189927
-0.0171704
-0.00284285
-0.0236408
-0.00010973
0.000115941
-0.04455
-0.0590023
1.05629
-0.0432441
-0.000647166
-0.00452201
-0.000978965
0.812494
-0.0199331
-0.000136906
-0.0746609
-0.0133456
-0.0104516
-0.0807927
-0.0945827
0.0195983
0.159769
-0.152973
0.000152591
0.0171203
-0.0393557
-4.96881e-05
-0.000222973
0.289924
0.220807
0.0441042
-0.141125
-0.134434
0.00144765
1.1374
0.000159759
-0.0423661
0.920038
-0.049553
-0.104421
6.06742e-06
0.000382984
-0.103711
-0.0271572
0.00386398
-0.0939678
0.55504
0.520261
0.00185517
0.00064893
0.475008
-0.0361545
-5.08482e-05
-0.00426068
-0.0803115
-0.0607944
-0.0271753
-0.00467081
0.346204
2.53082e-05
0.196593
0.631022
5.33031e-05
0.0337149
-0.00131425
-0.164463
-0.038895
-0.00193505
0.0735854
0.000491818
0.534404
0.0038211
0.0593986
0.0649432
1.37585
0.872825
-0.151483
-0.019726
6.52437e-06
0.0379233
-0.0359872
0.365322
0.681528
-0.0933778
-0.00226917
-0.0426956
-0.0162901
0.348179
-0.000562852
1.05834
0.0655906
9.97836e-05
5.73872e-05
0.000221082
-0.0324646
-0.0446282
0.00174717
0.14447
0.275899
-0.139575
0.00134863
0.000133203
-0.0572356
-0.000130786
-0.00701276
-0.0273946
-0.00176771
0.0871835
0.0111222
-0.00335413
-0.00925399
-0.0388208
0.873333
0.899287
0.0928361
-5.44644e-05
-0.00137159
0.585379
-0.00115109
-0.151518
-0.000540641
-0.0479609
-0.170943
-0.000545322
-0.000603678
-0.0766448
0.00328143
-0.000217172
-0.00320516
0.460271
-0.0830328
-0.000130107
0.225942
0.79972
0.820304
0.00143322
-0.152248
-0.0222286
0.993934
-0.149445
-0.152804
-0.00194977
-0.0307528
0.0690052
-0.0607559
0.823179
0.194696
-0.000467302
-0.127345
-0.172373
-0.00898774
-7.60025e-06
-0.00428666
0.496986
-0.000500496
0.0105509
-0.00941343
-0.00282751
0.0210735
0.0678284
-0.000482374
-0.000338225
-0.0141681
-0.16128
-0.0833546
-0.162409
0.571034
-0.00341182
-0.000695028
-0.0828235
-0.0562057
0.0232171
0.0311798
0.000103877
0.168819
0.338371
0.0437163
0.0574784
-0.00152437
-0.0312768
0.0579125
0.00295321
-0.000185894
-0.0213809
-0.00937814
-0.00175795
-0.0257411
-0.00201633
0.433622
-0.0210542
-0.216019
-0.0551918
-0.0250013
0.0272066
1.10864
-0.102267
-0.000336769
1.07643
0.38152
0.0178437
-0.0135981
0.0173571
0.0407157
0.368778
0.000754245
-0.00603134
1.36794
0.68281
0.669714
-0.102839
-0.00328638
-0.00288901
-0.000130216
-0.0030467
0.569708
0.191516
0.000607932
-0.00876148
-0.000888035
-0.00651393
1.28589
0.933745
0.184253
-0.00654011
-0.148434
-0.00947723
-0.00172676
-0.0445422
0.0353277
-0.0632952
-0.00813301
0.00198467
-0.182247
-0.164394
0.0693952
-0.0567837
-0.00641146
-0.0600408
-0.000515931
-0.015957
-0.00164455
0.736784
6.66655e-05
1.97142e-06
-0.0486252
-0.0456285
-0.0663164
0.0892901
4.45216e-05
-0.182188
0.152277
0.456373
1.47678
-0.0106389
-0.162581
0.0702826
-0.00485686
0.139509
-0.00143082
0.0239687
-0.000494208
0.520955
-0.0797058
0.0243915
0.281094
0.270703
0.00328784
0.00714614
4.54914e-06
0.966973
-1.95975e-05
-0.104573
0.000716717
0.00378578
0.412744
0.234828
-0.155422
-0.0899536
-0.00936703
1.54634
-0.161801
6.46128e-06
-0.0355976
-0.000148889
-0.0296171
0.239437
0.460806
0.00197482
-0.0804806
-0.0215163
0.344679
0.0787738
-0.0742577
1.32864
-0.0226082
0.000120056
-0.190558
1.3862
0.00490096
0.214713
-0.0985847
0.325239
0.00421948
0.0796038
-0.176994
0.0132995
0.125686
-0.0458498
0.378735
-0.0597906
-0.0442482
-0.00187318
-0.00188414
1.18555
-4.7541e-05
-0.0120762
-0.00010304
-0.0184438
0.000753522
-0.0165173
0.509416
-1.74291e-05
-0.00237615
0.135635
-0.216031
-0.0512469
0.00251145
0.967905
-0.109802
0.399611
-0.0271839
0.361861
0.0161999
-0.00175277
-0.0499606
0.00170533
1.21788
-0.0609177
-0.000319964
0.00506137
0.331386
-0.0256218
-0.00164205
-0.000346601
-0.162995
-0.00592782
-0.02216
-0.159261
2.10359e-06
-0.157856
0.000874038
0.821773
-0.0231692
0.347438
0.0103429
-0.00843552
0.597167
-0.112776
-0.187388
-0.00989855
-0.167334
0.61568
0.636589
-0.0320365
-7.45541e-05
-0.0353267
0.0104772
-1.51506e-05
0.138319
0.901548
0.0285932
0.00351639
0.0238364
-0.160524
-0.000436143
0.185026
0.11306
0.172079
0.0300988
0.0631368
-0.000933972
0.41195
-0.0653055
-0.221672
-0.0023316
0.0496383
0.336275
0.00176079
-0.165702
0.507294
-0.0845756
-0.167528
-0.17484
-0.148912
-0.152482
0.121113
0.515019
-0.177787
-3.76839e-05
0.00184451
-0.0208314
-0.00410297
0.0233324
-4.54546e-05
-0.0130945
0.00898823
-0.000203158
0.131574
-0.00122647
0.281832
-0.0741503
-0.011885
-0.0157342
-0.0196142
-0.148335
-0.0133957
-0.00245011
0.0484359
0.181502
0.0105775
-0.0758867
-0.00674829
0.0676638
-0.0216655
-0.0441102
-0.171967
-0.0364323
-0.000121398
-0.0349291
1.07486
3.36321e-05
0.202655
-0.0789215
1.29527
0.112058
-0.107926
-6.51171e-06
0.00375455
-0.182179
-6.32194e-05
-0.00620777
-1.48572e-05
-0.158353
0.0102276
-0.155342
-0.0528072
-0.000337202
0.637419
0.619554
-0.0813278
0.00096928
-0.000448239
-3.71988e-05
-0.000171006
1.14665
-0.00306788
0.00511378
0.0496794
0.00210554
-0.00141031
-0.175568
-0.000691813
0.10794
0.00698575
-0.00486098
-0.0017476
-0.0591769
-0.094625
0.41317
0.212778
-0.000426261
-0.0302732
0.00118736
-0.0929572
-0.00142474
0.305535
-0.0185305
1.54751
-0.0300038
-0.00338232
0.172716
-0.0437075
0.80956
-0.0961072
-0.0260837
-0.0299641
0.0419361
-0.00838433
-1.28075e-05
-0.0191786
0.704721
-0.101627
-0.00748386
-0.0966377
-0.0625315
0.351597
-0.00122148
0.633005
-0.00232105
-0.145003
-0.00127609
0.0303337
0.105987
-0.00649034
0.734509
-0.00114147
0.0758581
0.20416
0.00105188
-0.000364404
1.26116
0.154927
-0.00167713
0.0689609
0.0505329
0.000242693
-0.0966384
-0.0511219
-0.208253
-0.0238533
0.787652
0.00992064
0.289158
-0.000972418
0.933168
-0.163631
-0.0122833
0.0142713
0.0722428
-0.143611
-0.161688
-0.0199369
6.92258e-05
1.40855
-0.052379
0.00181754
-0.0373178
-0.0920204
0.76021
0.00681452
-0.037923
-0.000165774
0.174976
0.0184519
-0.0891963
0.00180632
-0.00808357
-0.0652144
6.2128e-05
-0.120798
-0.00366676
-0.0344966
-0.149483
0.680298
-0.0238783
0.100311
-0.0787035
-0.0719322
-0.000120991
0.000282205
-0.00884729
6.53357e-05
-0.0262768
0.0260325
-0.00488407
-4.0915e-05
1.23969
0.0115146
0.000703902
-0.00013839
-0.00499046
0.723367
-0.123732
1.41117
0.439096
0.0518395
0.662532
-5.24934e-05
-0.0331366
-0.00201838
-0.00581822
0.459027
-0.0233762
1.41766
0.595899
-0.131064
0.632494
0.0207888
-0.0332094
0.00510529
-0.0773596
-0.00932496
-0.121037
-0.131848
-0.00707045
0.620733
-0.0232466
0.000279483
-0.0101265
-0.00161772
-0.0808491
-0.000442216
-0.0029993
-8.80608e-05
0.376391
-0.154998
0.639942
0.0658337
-0.00651085
-0.0741157
-0.0467722
0.170386
-0.00720568
-0.00254892
-0.153231
-0.105049
0.0257777
-0.100608
-0.0105586
0.0290323
0.00653374
3.45621e-05
0.323308
-0.000141956
0.132594
-0.00195338
4.51391e-06
0.0045097
-0.00163742
-0.00292601
-0.0373935
0.389862
0.349401
-0.0473085
-0.0297439
0.00664848
-0.0121142
-0.0241316
-0.000195577
-0.00121614
0.0015359
0.268811
-0.020186
-0.130958
-0.107451
-0.00531175
-0.0489958
-0.0264583
-0.00408784
0.0122839
-0.02948
0.56624
-0.152554
0.014086
0.00488579
-0.0884212
1.3846
-0.0236035
-0.0107332
0.0179996
0.192553
0.00926872
-0.00364036
0.622961
-0.000921487
0.104547
-0.0530752
-0.114001
0.0147358
-0.00887484
-0.0130975
0.096759
-0.00856161
-0.00153191
0.00169769
0.00584126
-0.000608315
0.0789905
-0.0221667
-0.0048536
-5.02355e-05
0.380554
-0.000138521
-0.0708633
0.186059
-0.0545435
0.00026193
0.266108
-0.0833747
0.411892
-0.00017735
-0.00937854
0.195791
0.000360068
0.0114496
-0.0107299
0.0244371
-0.0490089
-0.0762998
-0.0203724
-0.00636896
0.0231138
0.0482867
0.121316
-0.000494923
0.277171
-0.0944692
-0.00789557
-0.0164615
0.000879371
-0.118848
0.000137885
1.08468
0.481323
-0.00121668
-0.0500712
0.000185461
-0.00521552
-0.012662
-0.0325093
0.379126
0.307001
0.0505543
0.0237775
-0.171559
0.0875895
0.106332
0.122981
-0.120011
0.0403686
0.480234
-0.022605
0.902304
-0.00223019
-0.0258856
-0.111205
-0.000274085
-0.00182863
-0.00012481
0.896573
-0.0244274
0.00056468
-0.036576
-0.0110456
-0.000820816
-0.0310544
0.603129
0.00223395
0.0255234
-0.0663814
-0.00124189
-0.0107869
-0.00194019
1.43923
0.00043887
4.45794e-05
-0.00463627
-0.0332534
0.163387
0.00117848
0.0353937
0.182653
-0.000424405
0.00473858
-0.16977
0.104535
-0.0815235
9.54755e-07
0.000723571
0.00812649
0.0749131
0.727934
0.219027
-0.0810281
1.3494e-06
-0.11213
-0.00616747
-0.0292641
-0.028295
0.420195
1.03722
-0.000296673
0.352199
0.557424
-0.022741
-0.0255987
-0.0520176
-0.0266778
0.000208149
-0.0932698
-0.0200224
-0.000333835
-0.00132231
-0.00369908
-0.00446711
-0.00161644
0.704298
0.708865
0.394383
-1.42239e-05
-0.0540048
0.0791273
0.249354
1.09954
-0.00118998
-0.0470984
-0.0428292
0.5991
-0.0442227
-0.0219401
0.00468842
0.361514
0.000632787
-0.00121566
-0.0570151
-0.086153
0.308218
0.104773
-0.0893332
-0.0536213
0.138673
0.0471752
-0.110954
0.0160381
0.0442764
0.27594
-0.000859785
-0.00149358
0.221602
0.00042349
0.0762111
0.073138
-5.58546e-05
0.485393
-0.0243672
-0.0102742
1.47494
-0.0846895
-0.0201913
-0.0878173
-0.00603291
1.02505
0.00259294
1.38909
-0.000363533
-0.021159
1.41922
0.0157521
1.01357
-0.0133086
-4.93893e-05
-0.0495238
1.01598
-0.00367811
-0.0153728
-0.0188029
-0.00235909
-0.0487622
1.04094
0.253638
-1.95315e-05
0.0467239
-0.00863114
0.0691737
-0.00209448
0.0532312
-0.0060809
-0.00114265
0.985504
1.05505
0.998989
-0.117915
0.0645742
0.000282486
-0.130613
0.658102
0.0387734
0.000499412
-0.122577
0.00129263
-0.000286516
1.05185
0.000243643
0.00963578
-0.00445291
-0.0207861
1.01212
1.03222
1.07477
0.0272758
0.00103529
0.485847
0.0174218
0.0599346
-0.0210018
0.00012777
-0.00685004
-6.92832e-05
-0.0104938
-0.00175829
-0.0132616
-0.000201697
0.34412
0.00476338
-0.146286
-0.021036
-0.162204
-0.037434
-0.00182042
0.774682
-0.0248054
-6.42342e-05
-0.000103568
1.3628
4.73307e-05
0.0261498
0.132139
-0.0412246
0.664691
-0.0120725
-0.0987743
-0.083676
-0.00125248
0.00024259
0.5963
1.06475
-0.00357711
-0.04777
-0.000584837
1.0373
1.30892
-0.00333745
-0.0148849
0.0442879
0.00697275
-0.0556968
0.000101177
0.0232437
-0.0851996
0.133495
0.747619
-0.00349174
0.0657616
0.214502
0.0880222
-0.101014
0.065174
1.26608
0.406611
-0.122576
1.04715
-0.00138928
1.09655
-0.0163097
0.88639
0.177457
-0.0116609
0.0862286
0.00543838
0.040419
-0.16668
-0.00157869
-0.0529728
0.850942
-0.0591114
0.0620803
-0.00340444
0.0178363
0.390906
-0.0210188
-0.0345587
0.00156845
-0.00834158
-0.0541526
-0.00496253
0.00444731
-0.0201833
-0.00118816
0.00546152
0.866189
0.00496164
-0.03638
-0.130198
-0.0653781
-0.144265
-0.166799
0.00950038
-1.08967e-05
-6.40916e-05
0.568921
-0.114945
0.000107889
-0.0769442
0.398781
-0.132467
-0.0338874
0.000223587
-0.00433014
-0.104337
0.311676
-0.0189118
-0.00113626
-0.104119
-0.0437299
1.42393
0.24907
0.156535
-0.108814
-6.99892e-06
-0.015225
0.146262
-0.000881591
2.94442e-05
0.372267
0.224218
0.00133598
-0.00198279
0.0195097
-0.0774556
0.0234372
0.0188575
-0.0340356
9.42625e-05
0.519443
0.00127107
-0.00151506
-0.000576234
-0.000541495
-0.000396612
0.182876
0.00209819
-0.00632119
-0.0214855
-0.0105388
0.0650435
-0.0121659
-0.092813
-0.0233275
0.937876
0.763322
-0.00114612
-0.00330699
0.217138
-0.00188148
-0.0444684
0.142458
0.140203
-0.00220962
0.0461066
0.0900334
0.00283436
0.211143
-0.000276188
0.0166411
-0.00763668
0.031044
-0.0322177
0.108628
0.000129049
0.00137497
0.000563254
-0.000148631
-0.00346205
-0.0215513
-0.0284752
-0.0642381
0.130809
0.0873804
0.0202449
-0.132586
0.0264886
0.0174337
0.0289764
0.000104084
1.0446
-0.018233
-0.00721202
-0.0081321
1.44445
9.06202e-06
0.144549
-3.65028e-05
-0.0467025
-0.0141317
-0.0473244
0.37093
-0.00873549
-0.000120742
0.299376
0.157626
-0.00126325
0.113498
-4.44706e-05
0.351413
0.0160201
-0.0609869
-0.000361772
0.496462
0.0628985
-0.0445591
4.70228e-05
0.364231
0.674161
-0.00248894
-0.000120096
-0.0781043
-0.0196375
0.0210765
0.05463
1.10546
0.596588
0.000998498
0.677637
0.500935
-0.00616154
-0.121953
-0.071214
-0.032901
-0.110402
0.213564
0.00172679
1.14627
0.315134
0.0270533
0.000157387
0.0013173
1.29567e-05
-0.0012565
-0.00604966
1.23557
-1.96803e-05
0.170391
0.0586796
-0.000537085
1.12643
1.30922
0.419995
0.493618
0.00585615
0.00526158
-0.000660582
-0.0237085
-4.67495e-05
-0.00239731
-0.216398
-9.65288e-05
-0.00382124
1.16283
-0.0249084
-6.12821e-05
1.22518
0.000946395
-0.0761584
-0.148734
-0.00284692
-0.155465
-0.000547055
0.267025
0.00707993
-0.0352983
0.00404512
-0.00143847
-0.000876783
-0.000520369
-0.224151
-0.128293
0.327623
0.00592628
-0.00590281
0.481199
0.000125903
1.38351
-0.00123365
-0.184964
0.00474043
0.00338462
0.108864
0.114932
-3.16886e-05
-0.00886079
0.000188142
-0.00147451
0.00174302
0.17836
0.104066
0.68791
-0.0817346
-0.000251014
0.000318765
0.208769
0.69499
-0.0094643
-0.0133547
1.37848
-0.00589603
-0.0438401
0.00181913
0.150777
-0.0761743
-0.0180958
0.334707
0.00277022
-0.000568682
0.00342207
0.015041
1.35917
1.04406
-0.0511816
-0.0756465
-0.0135825
0.00322735
2.46495e-05
0.159516
0.40719
-2.18612e-05
-0.0154327
-5.767e-05
0.000240868
0.970648
-1.25614e-06
-0.153164
-0.113216
-0.167861
0.147784
-1.51401e-05
0.0210486
-0.0129058
0.886446
0.0247391
0.0105201
-0.0638447
0.00128758
0.705758
0.445567
0.0233836
0.120829
1.17648
-0.134065
-0.119958
-0.00404406
-0.0148089
-0.000845671
0.0556256
-0.000182486
0.351308
0.0060968
0.382848
-0.0719056
-6.20067e-06
0.12163
-0.000396385
-4.07258e-05
-0.00162995
1.34338
1.28334
0.569604
9.43956e-05
0.320681
1.09647
-0.00208964
0.00407204
-0.0178495
0.162319
1.02469
-0.0581009
0.256431
-0.00536683
-0.137922
-0.155798
1.49831
-0.00130543
1.03582
0.185311
0.404124
0.000192876
0.000403773
0.0112987
-0.0188711
0.175457
-0.000150667
0.000109731
1.0202
-0.168982
0.000569335
1.07254
-0.00486095
0.000280215
0.816775
-0.0139163
-0.00331417
0.0264783
0.270332
0.000626006
-0.000316427
0.00722613
-0.00849681
1.00697
1.33481
0.539503
1.45744
0.18687
-0.0975943
1.19133
-0.000204784
-0.00683725
0.21945
-0.00729436
-0.00140772
-0.000247226
1.06473
0.0660766
-0.00139722
1.29348
0.157776
0.377194
0.0915332
-0.00570072
-0.0432488
0.304142
0.154274
1.05222
-0.0484133
-0.00167694
0.96635
0.837384
0.0280589
0.714782
-0.0792924
-0.0163552
-0.0194271
-0.00137634
-0.000332937
0.980529
-0.129696
0.0496447
0.00180463
0.325709
-0.0663058
-0.0310363
-0.00214804
-0.00773035
1.10666
-0.00170869
-0.0363465
-0.00630571
1.07804
-0.0400337
0.0416413
-0.0156793
0.00284212
0.318132
-0.0461943
1.14397
0.172196
1.45335
0.528721
-0.127605
0.0648443
-0.00375734
0.0328416
-0.0267222
1.02458
1.09826
1.24995
0.582491
0.994055
-0.000809105
1.17314
-9.61472e-05
0.000112278
-0.100203
1.27867
0.104076
0.482922
-4.53249e-05
-0.00457045
-0.0737284
-0.0698881
1.00725
-0.00145673
-0.0160391
0.557332
0.00207738
-0.00891664
1.40448
0.097788
-0.0755674
-0.170444
-0.00116044
0.132486
0.144293
1.47409
0.147864
0.0991996
0.00893819
-0.000534629
-0.00486121
0.393777
0.0133062
0.000233677
-0.117874
0.504265
-0.00309908
1.02938
-0.13764
1.04551
-0.0323851
-0.047185
1.18538
-0.0110972
0.0816215
-0.000882616
-0.00275734
-0.135909
-0.0467188
-0.0758985
-0.0202424
0.0250869
-0.128478
-0.14854
1.0333
0.000496361
0.00151153
-0.0417939
0.240258
-0.145887
-0.122498
-2.36652e-05
-0.121873
0.0965675
-0.000257191
-0.149765
-0.0223706
1.05808
-0.157998
1.01601
-0.0283109
0.217098
0.515088
-0.0725627
0.502033
-0.00370757
0.192806
0.00253279
0.173024
0.391781
0.352078
-0.0580666
0.0124714
-0.00147076
0.361063
-0.000204782
-0.000308475
-0.00218049
0.0163407
0.0349588
0.0304862
0.857451
0.301167
1.36077
0.785541
-0.00317276
-0.0678344
-0.000387567
-0.0974947
-0.00255189
0.0117284
0.00125094
-0.0638009
0.674389
1.04014
-0.00064276
3.1844e-05
0.0863812
-5.93931e-05
-0.0188186
-0.00041568
0.259032
-0.0729565
0.374875
-0.159011
4.3172e-05
-0.0285447
-0.0811384
-0.0489295
-0.0335128
-0.108642
0.112866
-0.000377714
-0.000101879
0.00412541
-0.000325211
0.156637
0.144738
0.0802515
1.25325
0.0908368
-0.201813
-0.180208
-0.000939127
0.102647
-0.000296372
0.953948
0.19699
1.1474
0.000243934
-0.0663541
-0.0138606
0.100803
0.26124
0.843131
-0.0154157
0.0673527
-0.00398669
-0.0371768
-0.0162645
-0.0123851
0.2111
0.00312856
-0.0153833
-0.0412108
0.369499
0.131424
4.67309e-07
-0.00183792
-0.0125959
-0.00127709
0.222124
-0.00139712
-0.0501022
0.280535
0.000128865
0.492458
0.000147267
-9.47507e-06
-0.171132
-0.0317522
0.000294334
-0.0457278
0.0002972
1.2087
0.0249486
-0.0496006
1.12602
0.250047
-0.0639884
0.842103
-0.00562519
-0.0038009
-0.00425262
0.166738
1.56123
-0.0030876
-0.00128103
-3.51672e-05
0.0156318
-0.00256841
0.0506384
0.012249
-0.0425977
-0.120265
0.0370399
0.0215271
-0.0378
-0.00113351
-0.00968351
0.771638
-0.00369892
-0.0279289
-0.000513064
0.866253
0.109221
0.768707
0.000819446
-0.00175832
-0.0478047
1.25807
0.284893
-0.0572691
-0.000307535
0.0630489
0.178062
-0.0287152
0.386453
-0.0972668
0.0404006
-0.207277
0.845767
-0.0311322
0.48521
-0.00644784
1.47149
-0.0836549
-0.0222558
1.13254
-0.0871224
0.321784
-0.223097
0.359141
0.012845
0.0990291
0.642009
0.0987146
-0.0981172
-0.0195539
-0.0152597
-0.0214316
0.0174146
-0.00309046
-0.112675
-0.0575663
0.00384756
-0.133877
-0.167119
-0.000109773
0.192546
-0.0183918
0.179611
1.13592
0.705479
-0.109286
-0.143272
0.000858703
-0.126618
-0.00853336
1.41835
-0.0712743
-0.0614459
0.701559
0.0946375
-0.0790844
0.373714
-0.0746256
-0.00136121
-0.0236799
0.0200215
0.00127468
0.737084
-0.00549767
0.276078
0.537251
-0.0115336
0.472598
-0.169464
-0.000798526
0.0132668
0.157949
0.605492
-0.0051264
0.161219
-0.139251
0.137765
-0.046305
0.727868
0.0214985
-0.0860129
-0.00607295
0.000329
1.01463
-0.00492633
-0.0527508
-0.000260032
0.409572
-0.000164563
-0.0873051
-0.00280907
-0.181755
0.00125912
-0.0203656
0.32304
-0.00792881
0.00177541
0.00121444
-0.00835477
0.108018
-0.000198179
-7.91354e-05
-0.0171322
-0.0212866
-0.0453696
0.01618
-0.00388538
0.1468
0.155295
-0.00263171
0.0019615
-0.000445688
0.996286
-0.00848371
-0.0139403
0.831465
-0.0369986
0.746762
0.100237
1.05555
0.447591
0.218049
-0.0030379
-0.000741264
0.15781
0.0463879
-0.00880019
0.000334033
0.0167118
-0.102208
-0.00196097
-0.0167241
-0.0161426
-0.018371
-9.0204e-05
-0.00664069
9.67952e-05
-0.000185562
0.00166074
0.663834
0.383633
-0.0223218
-0.00566101
-0.101464
-0.0421583
0.37442
0.912558
-0.113801
0.00392632
0.393489
-0.0192326
0.00112444
-0.146929
-3.47784e-06
0.236893
0.322972
-0.00137123
-0.0714864
0.000371265
-0.0162428
-0.0155913
-0.00406845
0.0415521
-0.105394
-0.000122219
0.0215017
0.00339472
-0.0680506
0.0110688
1.086
0.000488066
-0.00786632
-0.0638876
0.562278
0.694353
0.665869
0.0686514
8.09141e-05
0.0131831
-0.00134283
-0.00307049
-0.00197783
0.189383
0.414084
-0.0244031
-0.140796
0.669762
-0.00833901