/*--------------------------------*- C++ -*----------------------------------*\
  =========                 |
  \\      /  F ield         | OpenFOAM: The Open Source CFD Toolbox
   \\    /   O peration     | Website:  https://openfoam.org
    \\  /    A nd           | Version:  7
     \\/     M anipulation  |
\*---------------------------------------------------------------------------*/
FoamFile
{
    version     2.0;
    format      ascii;
    class       surfaceScalarField;
    location    "6";
    object      phi;
}
// * * * * * * * * * * * * * * * * * * * * * * * * * * * * * * * * * * * * * //

dimensions      [0 3 -1 0 0 0 0];

internalField   nonuniform List<scalar> 
172499
(
201.478
54.1916
-255.67
-473.776
102.001
371.775
-111.207
-78.0991
189.306
113.176
-278.586
165.411
-435.603
323.652
111.951
138.216
-337.159
198.943
-153.224
285.641
-132.416
-83.0794
192.289
-109.209
-363.399
351.953
11.4455
-465.119
-8.65671
-229.992
354.504
-124.511
494.979
-360.233
-134.746
-169.835
341.186
-171.351
91.0694
-92.2366
1.16718
-43.9829
-319.416
-108.063
62.6499
45.413
-456.097
86.4697
369.628
-411.598
77.0114
334.586
-125.902
286.382
-160.48
-331.942
-103.661
-74.844
180.264
-105.42
199.331
-197.262
-2.06834
392.839
-290.298
-102.541
160.221
-313.591
153.37
-236.387
205.542
30.8453
-116.357
221.743
-105.387
65.7407
69.7654
-135.506
-207.196
460.501
-253.305
-263.261
-175.893
439.155
-55.5726
100.076
-44.5038
427.831
-342.039
-85.7921
-243.047
-68.0423
311.089
-267.736
405.25
-137.513
-101.198
-76.5096
177.707
-82.1018
-95.8918
177.994
182.209
95.5073
-277.717
-221.227
86.6247
134.602
-99.6635
-356.434
110.838
-141.9
31.062
110.572
203.857
-314.429
156.922
-399.969
-57.5862
-354.011
-130.797
-36.6525
167.449
-119.103
301.312
-40.8259
103.382
-62.5562
-2.49649
93.5659
264.669
64.6437
-329.313
543.001
-303.108
-239.893
397.688
-147.938
-249.75
414.121
-534.061
119.94
-390.72
478.199
-87.4798
280.031
-101.785
-178.246
-469.589
327.225
142.364
-504.401
451.004
53.3966
-118.691
-166.521
285.213
-314.075
-155.514
551.483
-363.652
-187.831
-133.655
81.6271
52.0281
83.1224
73.2585
-156.381
128.795
-230.448
101.653
-515.361
327.471
187.89
-186.314
331.387
-145.074
346.052
-129.416
-216.637
-105.484
186.475
-80.9907
295.892
87.1772
-383.07
9.41629
-401.16
391.744
-351.766
197.099
154.667
-217.334
395.823
-178.489
76.7644
-140.227
63.4622
-532.684
253.152
279.532
-111.132
199.211
-88.0788
192.183
-147.864
-44.319
365.33
-254.758
-136.191
68.6153
67.5753
-92.0754
-92.5306
184.606
81.3095
-165.581
84.2718
-201.403
48.1499
153.253
202.401
-403.041
200.64
-250.472
-136.4
386.872
-287.443
213.949
73.4944
-76.0468
-211.397
429.79
-432.786
2.9967
42.9907
-84.9168
41.9262
-304.879
555.541
-250.663
-137.423
240.989
-103.566
342.474
152.505
-109.962
178.51
-68.5479
-324.474
472.879
-148.405
106.198
-118.819
12.6213
-86.6932
441.522
-354.829
130.207
-5.19829
-125.009
202.849
-20.1578
-182.691
206.534
-469.795
221.407
50.1401
-271.547
-420.603
315.238
105.365
-574.921
416.855
158.066
261.994
-321.839
59.845
95.7202
-52.7295
83.1429
-157.868
74.7247
0.129969
106.068
-314.48
-200.881
198.267
-432.422
234.156
327.817
-178.701
-149.116
-485.177
499.057
-13.8798
98.8397
-209.972
168.151
-90.3167
-77.8345
-503.867
311.841
192.026
-36.4793
101.38
-64.901
-143.383
225.377
-81.9944
-311.337
-71.1376
382.474
-120.513
227.745
-107.232
-54.6637
316.657
-171.073
-30.3296
135.153
106.079
-241.232
-113.279
46.8084
66.4705
205.246
-345.623
140.376
-307.598
77.6059
-87.4557
214.152
-126.696
363.997
-541.562
177.565
47.2865
144.896
-206.101
118.645
-68.0193
-40.0436
-223.613
115.034
108.578
44.333
-165.565
121.232
-230.664
532.611
-301.946
-111.276
55.7034
-265.194
78.8806
-117.247
72.3194
44.9277
-181.143
-41.7062
222.849
-504.068
506.764
-2.69602
-104.562
232.608
-128.046
567.143
-287.744
-279.399
-171.323
180.532
-9.20834
538.938
-196.464
-329.438
480.843
-151.405
-124.348
227.769
-103.421
-261.332
183.25
78.0815
61.8197
-329.556
148.458
-267.149
182.766
148.621
83.5709
47.8795
-131.45
-190.651
341.05
-150.398
502.975
-504.535
1.55968
377.199
-196.758
-180.442
-263.638
159.076
141.959
-532.679
437.46
-330.401
-107.058
-115.853
-149.342
-448.69
231.356
-226.836
-167.362
394.198
108.917
59.2347
54.3558
-95.1817
7.56905
195.28
-567.956
273.279
294.677
133.222
146.81
-358.884
426.658
-67.7738
-412.193
100.856
-66.4355
216.098
-149.663
133.726
-133.884
0.158129
-152.156
109.224
42.9321
151.482
-70.1729
138.302
299.158
158.379
187.674
-188.116
147.999
40.1177
264.065
-144.614
-119.451
139.923
173.455
-313.378
442.091
-256.911
-185.18
-58.9093
-107.272
166.182
-186.177
119.741
-241.887
124.946
116.941
-241.953
156.96
84.9931
-100.867
365.536
-93.8644
-27.3504
121.215
26.6375
62.6572
-89.2948
-70.125
-84.163
154.288
217.931
-433.634
215.703
-73.8619
100.499
193.954
85.6281
-279.582
115.435
-333.162
217.727
277.474
120.214
-287.363
-131.818
419.181
-190.79
98.7143
141.031
-256.814
115.783
-204.733
412.018
-207.285
-267.399
-236.468
-162.491
384.881
-222.39
95.2899
-262.017
166.727
311.999
188.001
-134.384
322.814
-188.431
122.291
7.91649
-105.942
299.896
-338.783
189.576
149.207
450.545
-162.035
-288.51
-203.916
116.469
87.4473
-228.418
112.061
72.6839
-130.65
57.9658
21.2098
-95.0717
-173.179
164.035
9.14453
56.8707
-147.913
91.0419
81.2801
138.833
-220.113
-566.033
386.206
179.827
-196.269
361.73
-165.46
361.25
57.362
-418.612
481.283
-479.317
-1.9666
-338.741
169.066
169.675
136.52
-91.7052
-44.8146
369.999
-271.439
-98.5595
-87.297
383.189
-211.462
-195.663
407.125
99.4445
-208.318
108.874
-70.3012
91.511
40.8622
270.978
14.5484
-250.936
-384.203
297.51
-161.591
-65.5318
227.123
-86.3089
-117.607
-99.0109
249.314
-150.303
-184.005
-136.004
320.009
81.028
-83.5245
-123.589
-261.45
385.04
132.485
7.1325
-139.617
136.165
-1.2303
-134.934
135.89
-329.717
193.826
-76.0427
139.939
-63.8964
-73.5444
-430.856
-184.282
22.9897
161.293
-198.495
-82.2259
280.721
185.748
-68.536
-117.212
137.807
-65.1234
-348.869
96.4808
252.388
-0.293588
-410.916
411.209
67.6505
-118.391
50.7403
44.552
-124.767
80.2146
85.3987
-176.959
91.5604
-234.363
122.43
111.932
-225.641
-340.392
-641.81
285.468
356.342
392.39
-205.258
-187.132
-53.5673
159.785
-106.218
239.935
-166.443
-73.4924
-43.2837
145.057
-101.773
-292.139
163.97
128.168
-115.104
-37.0524
148.674
-65.5309
278.337
-217.338
-60.9995
-234.854
407.607
-172.753
443.218
-218.606
-224.613
135.64
-87.0633
-48.5769
-162.502
103.593
-63.65
-34.2849
97.9349
197.388
287.786
-485.174
-370.629
241.076
129.553
225.509
-527.902
302.393
387.365
-236.889
-150.476
120.447
-79.8077
-40.6395
-5.40196
-281.961
-71.9482
172.694
-100.746
-559.532
298.201
261.331
503.663
-503.663
-184.808
101.728
369.471
-374.873
-3.96552
84.9935
-475.75
271.017
-123.627
120.241
3.38589
39.4924
-182.875
258.183
-145.008
-102.341
146.674
179.641
-280.049
100.408
101.635
94.1463
-195.781
-98.4202
202.294
-103.874
415.219
-131.53
-283.69
-324.843
190.46
427.911
-150.436
-220.365
-71.774
141.601
177.725
-319.326
-189.126
104.209
84.9174
43.3083
-99.8405
56.5321
-170.065
99.9403
-248.701
297.863
-49.1618
77.7572
-114.237
-122.527
-65.5893
97.1944
184.577
-404.792
220.215
69.4537
67.0661
456.561
-254.349
-202.212
172.838
205.338
-378.176
59.3126
-243.595
494.884
-504.798
9.91397
117.414
-68.9411
-48.473
96.5975
-145.289
48.6919
109.281
-65.9729
-500.323
66.1262
434.197
-162.546
28.1583
134.387
363.311
-322.449
-258.637
409.615
-150.978
-478.802
302.243
176.56
364.363
-244.496
-119.867
-137.433
-212.269
349.702
-161.849
345.174
-183.325
-224.958
126.538
-70.6335
-22.9444
93.5779
108.39
-192.55
84.1602
-58.8861
128.555
-69.6686
309.313
-193.185
-116.128
84.0134
40.5534
-124.567
-126.517
276.592
-150.076
-251.198
163.497
87.7014
112.881
72.8664
97.4672
-123.668
26.2012
-171.418
286.852
-91.9301
-187.682
279.612
117.341
19.9083
-137.249
-97.6041
157.57
-59.9655
-152.045
98.4776
-330.422
160.587
-180.659
346.284
-165.625
341.833
108.713
177.575
-412.43
273.09
-112.869
-173.565
119.351
54.2133
-5.70461
-175.412
181.116
262.779
-386.368
-58.3879
419.638
-34.1303
-79.1486
179.051
70.6849
-249.736
-143.814
60.1503
83.664
-367.279
8.39537
193.731
-408.544
214.813
29.667
-100.3
-147.367
-15.1783
194.29
-286.22
-432.877
-67.4462
141.618
229.515
-371.133
219.117
145.246
130.144
-60.0054
-70.1385
172.588
101.833
-274.421
-251.189
163.829
87.36
80.3379
-357.615
277.277
353.023
-214.807
243.46
-148.17
84.5044
107.747
-192.252
-130.692
264.809
-134.117
123.989
-58.2487
92.1522
-182.494
90.3418
266.328
-88.9782
-177.35
-170.07
-213.019
383.089
-174.746
-73.955
-74.8926
-29.6396
104.532
79.9068
48.9437
-128.85
320.587
-173.689
-146.898
-208.604
37.2803
-506.969
346.567
160.402
363.509
5.96145
170.523
-290.531
120.008
184.435
-103.155
182.685
88.7897
-271.475
-48.1502
249.628
-105.321
-299.559
404.881
-171.173
388.667
-217.494
-113.905
260.554
-146.649
-171.655
277.929
-106.274
145.72
-97.0067
-48.7132
-149.424
-71.803
-143.773
84.264
59.5094
267.502
-153.034
-114.468
-438.079
332.758
-161.3
164.055
-2.75545
-186.364
111.23
75.1344
303.984
-168.094
-168.961
473.04
-304.079
195.418
-88.5251
-106.893
61.6407
84.9153
-146.556
73.366
62.2741
25.6781
229.922
-255.6
92.2325
103.053
-195.285
62.6991
305.917
-368.616
147.158
510.415
-96.2934
225.956
95.716
-321.672
-138.922
296.2
-157.278
136.585
-68.9344
213.525
-119.446
-94.079
-79.7166
202.646
-122.929
136.847
-250.752
395.203
-222.365
-371.342
369.35
1.99146
135.163
-90.6106
-57.9856
-38.9956
96.9812
488.696
-165.044
-65.0255
183.486
-118.46
-226.904
423.494
-196.589
269.92
177.21
-447.13
68.1387
-178.101
-452.888
245.692
-21.5318
157.696
-324.897
187.591
137.306
3.84088
93.6263
-316.527
-131.966
448.494
267.786
160.124
-76.0223
-84.1869
160.209
97.9799
1.7493
-99.7292
-242.326
354.742
-112.416
119.105
-116.052
-3.05357
-157.684
386.989
-229.305
-121.758
127.31
-5.55253
56.3093
119.442
-175.751
142.045
-471.483
-170.406
261.642
-91.2358
-96.851
245.676
-148.825
-133.595
198.007
-64.4119
254.577
-161.48
-93.0973
-274.752
87.0698
237.491
-407.561
-39.2154
214.098
-174.883
-225.981
88.5579
196.702
101.16
381.659
-113.873
77.5434
-131.915
54.3712
353.318
69.9313
-423.25
-196.733
405.774
-209.041
-232.839
-267.157
22.8085
-93.1097
601.485
-379.279
-222.206
-44.1521
130.384
-86.2324
-155.667
58.0627
299.13
-388.129
88.9996
-133.147
189.456
-393.188
376.802
16.3865
328.203
223.28
147.764
157.274
-305.039
-504.529
382.493
122.036
-352.566
426.181
-73.6153
-99.3685
252.916
-153.547
180.752
-67.8705
129.321
179.993
125.404
-295.81
-125.757
268.5
-142.743
382.795
218.69
336.288
-330.418
-5.86978
325.153
-529.535
204.381
341.536
-139.135
-102.272
-401.796
62.0687
-214.307
152.239
80.539
-156.561
357.432
99.1282
178.054
-81.5807
-96.4736
238.141
169.467
134.614
233.672
-368.285
-104.806
374.726
410.87
-192.939
-409.473
18.155
391.318
-291.196
-180.975
472.171
421.564
-291.824
-129.74
489.557
-249.318
-240.239
-68.6583
-93.8438
-60.1248
272.757
-212.632
60.0269
80.1872
-140.214
84.3754
-142.115
57.7394
157.846
152.275
-310.121
-185.31
31.3629
153.947
30.035
89.0702
412.055
-173.914
374.958
113.738
-264.561
-150.51
415.071
-34.0718
151.413
-172.702
97.8576
-160.892
-219.961
380.853
-25.3064
87.9637
-38.0184
-147.291
166.337
-457.533
198.47
-34.7588
-56.7415
91.5003
218.171
-58.386
-91.2807
-44.9098
-258.588
132.831
-101.868
280.918
-324.717
499.955
-175.238
261.341
-422.233
395.571
-197.305
104.528
193.281
-297.809
-141.172
69.2403
71.9316
-367.321
488.641
-121.32
307.412
-227.074
554.458
-227.438
-327.02
114.725
103.446
358.806
-116.88
-241.926
-271.781
434.526
-162.745
137.204
-240.803
103.599
-164.512
32.2107
132.301
-149.256
-75.7016
152.136
-394.966
242.83
11.066
-119.926
108.86
453.432
-190.694
-262.738
302.899
-474.821
171.922
-227.676
188.461
90.7726
104.645
102.84
-5.2868
-97.5535
253.959
-118.806
250.088
142.302
322.894
-180.696
-142.199
-326.943
217.429
109.514
-486.793
398.287
88.5058
184.671
-99.2724
-112.139
187.207
-75.0681
-178.71
-72.4885
345.891
-46.7609
119.524
10.6011
-130.125
-117.546
202.051
-126.666
83.3826
-526.962
360.006
166.956
311.616
-141.093
226.557
160.807
161.152
-398.041
-474.622
238.101
236.52
-246.994
161.803
85.1911
112.503
-41.0356
-71.4676
-219.017
-203.119
422.136
100.89
144.622
-245.511
-407.097
282.56
124.537
-272.212
-134.885
-561.395
373.358
188.038
-281.948
103.238
585.886
-299.747
-286.139
-148.236
-177.301
325.537
-132.995
138.13
-5.13563
-165.781
274.959
-109.178
-254.635
155.266
-413.263
309.293
103.969
102.538
91.1802
-193.718
-369.67
194.595
175.075
-111.917
-130.036
142.884
-104.253
-38.6316
276.422
105.237
573.967
-316.411
-257.556
253.318
-519.76
266.442
56.6717
-118.578
61.9059
96.7884
6.05195
-61.8923
146.296
-84.4037
272.97
300.996
72.7946
-173.992
-285.473
154.781
115.12
-38.3554
112.652
154.851
347.274
82.5159
108.893
71.8585
40.8562
-187.621
146.765
365.261
-514.237
148.976
-60.9136
326.106
-265.192
-34.2145
118.59
174.64
379.819
-147.22
359.026
-211.806
63.094
-162.891
99.7971
-340.966
-300.844
-65.4701
-34.6712
100.141
6.79119
-139.786
-107.699
118.765
177.594
-85.4417
179.643
-327.879
-139.481
80.0177
59.4629
-351.819
-87.7354
439.554
-338.278
521.843
-183.565
108.85
-370.482
261.633
49.2217
-138.736
89.5138
-108.497
-240.372
286.941
113.507
-400.448
175.448
-113.379
250.525
-141.506
-109.018
552.68
-186.693
-365.987
-368.532
51.7013
316.831
331.659
90.7213
-422.38
-476.715
496.605
-19.8899
-146.145
-77.4681
-91.8156
193.45
142.502
180.392
248.315
-532.787
284.472
376.889
-367.472
460.143
-173.202
552.918
-298.786
-254.131
-224.012
245.501
-21.4885
-51.8389
171.363
-87.6574
-259.185
346.843
56.7779
446.885
-65.3157
-86.7292
141.398
-81.3707
316.944
-159.098
131.668
56.6979
-188.366
166.803
-226.928
-67.2293
-96.972
164.201
552.657
-552.657
-2.6314
-119.126
281.335
-168.888
-112.446
-307.684
-171.118
-162.192
93.5336
-366.203
-118.974
-74.7813
136.422
207.646
-295.439
181.545
113.894
8.06285
-401.251
130.532
100.397
-230.929
86.9313
115.363
128.425
-44.8539
-66.1751
-302.357
68.8798
-243.481
174.601
-18.2482
-391.225
-298.364
151.144
-132.129
-184.089
316.218
109.147
239.061
-348.209
-328.356
500.844
-172.488
-88.348
-35.2785
-70.0259
100.706
-30.6802
-100.42
182.086
-81.6665
227.931
169.305
-397.236
314.629
-210.101
405.921
-186.804
-304.334
-200.194
146.042
-271.944
-167.318
85.2158
-412.93
308.102
104.827
83.9805
-435.799
90.1823
147.017
-237.199
-222.161
-153.132
375.294
39.2851
-98.1712
124.397
-158.468
-112.635
-224.853
337.488
-301.835
240.922
-98.842
-53.9853
152.827
-188.271
107.732
80.5393
358.188
-517.206
159.018
318.38
-210.94
-107.44
155.383
287.835
85.8634
80.4198
-166.283
387.226
-160.669
146.879
-514.2
251.987
-183.107
155.61
162.769
-64.6924
-348.237
215.244
-374.557
159.313
407.786
-236.244
-171.542
75.1495
-260.473
185.324
-228.941
-10.1185
239.059
63.9584
-152.405
88.4461
84.31
-161.925
77.6151
193.544
212.377
-48.3635
146.343
-334.246
418.226
135.776
234.111
-369.887
-104.345
309.592
75.5803
103.862
-179.442
41.7798
-314.688
272.908
-139.881
146.672
278.667
-457.976
179.309
-91.2206
222.888
275.654
-455.242
196.605
-100.222
-0.868949
101.091
35.5653
121.189
-156.754
216.831
236.601
-111.404
186.984
339.939
-28.4647
-311.475
-124.025
444.717
-320.692
101.935
290.904
44.8971
227.86
315.735
133.708
-449.443
328.227
-267.999
-60.2278
-32.4205
-128.879
-208.414
84.0667
-78.7206
-30.5431
109.264
13.1466
-91.8672
-312.237
173.314
-75.431
-173.102
248.533
197.734
119.689
-317.423
-222.595
-47.5979
270.193
-153.077
87.7617
81.534
-181.954
-83.9974
-318.659
402.657
-76.8711
-143.493
517.543
-238.876
-71.5461
72.154
54.8641
-127.018
-173.814
80.6358
93.1786
73.7714
-92.5928
18.8213
105.942
173.022
-278.964
-187.687
106.958
80.7294
-135.742
318.428
-96.7607
-123.805
220.565
-325.338
-207.347
-243.056
128.944
114.111
-229.281
527.003
-297.722
442.031
-289.895
-72.4133
-94.8038
167.217
-76.0466
105.714
-184.076
323.407
-139.331
-119.006
267.888
-148.882
163.051
-67.4273
-95.6232
-250.607
359.456
138.731
-83.2709
-55.4601
-274.16
280.072
-5.91228
-275.376
122.152
196.967
9.3968
-206.364
-196.263
384.556
-188.293
126.438
-61.6486
-64.7895
226.705
-466.743
240.038
-497.838
173.364
165.17
-32.6849
-140.813
0.931841
-190.465
89.4869
100.978
-149.184
364.429
143.804
-80.7104
80.9087
-415.154
-44.8927
-64.6078
109.501
-105.537
-509.236
357.37
151.866
248.733
79.4942
-305.685
-160.794
466.479
-81.4542
298.797
96.7186
-140.871
-55.5707
-133.555
-232.253
-242.235
474.488
-197.979
-242.961
440.94
-282.465
269.295
13.17
313.146
-250.447
-298.577
-208.392
340.838
-509.799
97.2939
97.2865
-194.58
-383.315
212.062
171.253
157.634
217.324
-78.699
143.617
-64.9182
-330.357
526.163
-195.806
-181.399
130.493
50.9062
-132.71
48.1602
84.5503
50.9515
-120.977
-63.8784
395.538
90.2906
63.8136
-154.104
501.277
-185.543
-121.945
262.976
-318.705
156.856
-287.048
287.048
-146.673
236.855
-548.822
281.565
267.257
-243.809
-92.2313
336.041
187.312
-146.456
-120.564
127.047
-6.48286
-247.45
75.7952
123.346
-483.579
43.3353
74.0787
-133.368
-314.602
447.97
-232.474
368.25
-245.476
146.465
499.395
-241.806
-257.589
-191.423
-37.5175
149.243
-327.945
-568.418
398.463
169.955
-284.872
-157.323
-203.785
37.893
165.892
-44.7828
-115.639
160.422
134.738
119.22
-72.6792
114.354
-41.675
-1.40684
67.6579
-66.2511
223.107
-222.152
-0.95498
212.876
-337.854
124.977
62.8772
-175.016
-72.6463
-155.03
105.548
-200.045
94.4969
-393.421
-263.533
331
-67.4673
84.6696
41.7685
-15.2674
-123.71
138.978
-150.245
-201.522
155.755
-386.663
230.908
-174.224
101.811
85.3735
46.0723
-131.446
39.2788
-138.121
-153.507
234.52
-81.0132
152.419
108.097
-260.516
-153.812
-286.872
440.684
171.138
-421.708
250.57
104.125
-152.433
48.3079
-540.726
308.916
231.809
465.113
-323.414
-141.7
-501.515
176.798
-121.153
118.521
-69.7414
-102.96
305.593
-410.399
-344.524
-130.097
-164.129
-131.309
-380.743
155.947
224.796
-211.872
135.001
-46.3147
307.309
-260.995
-92.7444
-241.751
129.834
171.476
100.326
-271.802
258.816
-454.488
195.672
195.682
-96.2375
-316.152
105.212
224.311
-95.5159
-327.572
-112.145
439.717
383.569
-227.814
-331.871
336.493
-4.62203
-70.4904
123.758
-53.2676
-380.243
167.224
-312.489
126.476
186.013
133.642
-133.642
-194.909
-256.093
451.003
471.547
-390.638
65.5888
-264.084
3.98889
335.95
335.888
216.792
-238.352
-47.2374
285.589
122.722
6.03499
-128.757
-73.6135
140.127
-66.5131
-181.2
110.568
70.6319
-323.009
-244.947
-160.151
92.9221
116.912
-44.7579
-272.618
-302.304
-145.693
83.8007
132.467
208.719
74.4754
34.0466
-108.522
-45.3277
133.653
-88.3257
379.743
173.175
-167.667
-114.281
-336.293
-172.943
-156.243
-100.719
256.962
-69.3739
-272.69
342.064
-345.435
183.161
162.274
-91.7307
-104.143
195.874
337.82
-505.052
167.232
209.183
-354.639
145.456
233.016
-411.759
178.743
-81.0099
-52.6453
-238.017
165.371
166.764
-395.116
228.352
-145.807
101.024
-379.75
183.48
-205.394
363.028
-74.3943
138.295
-63.9011
90.0696
-138.708
48.6387
28.6525
-92.3025
-153.987
366.863
483.501
-465.549
-17.9518
-97.9872
147.209
-78.4236
136.444
-58.0206
260.899
-455.808
-55.0049
159.203
-104.198
-149.339
289.262
390.878
-507.239
116.36
227.928
75.2443
-303.172
52.0996
-102.312
50.2126
-34.9238
108.695
58.9605
34.4802
-93.4407
-40.4279
141.847
-101.42
-10.7961
161.04
-150.243
177.279
-71.7311
386.973
-136.886
-67.6068
271.433
-203.826
-303.722
-48.8435
182.45
-101.986
-80.4638
193.949
-299.067
105.118
-239.862
-147.172
387.034
-81.3064
171.376
-273.057
159.901
113.155
230.04
-352.892
122.852
-324.267
203.232
121.034
252.38
-134.447
-117.933
-133.675
66.216
67.4593
183.105
-394.567
-105.966
-75.0796
181.045
-45.7828
-134.948
180.731
91.5361
-239.969
148.433
-110.167
202.4
186.514
-98.8157
-87.6983
-59.7119
-109.059
168.771
-42.1494
166.546
-163.836
-117.521
281.357
-304.81
-8.65173
313.462
52.5537
-109.288
56.7339
169.625
96.7028
117.609
106.702
-91.6582
100.64
-8.98128
-203.785
-55.6411
446.519
-2.89669
113.734
377.412
13.0315
-390.443
387.865
-326.045
-475.156
176.579
53.7089
51.4241
-105.133
-141.545
-32.0201
83.0029
-259.951
176.948
114.97
-378.503
-176.579
-34.2437
262.172
-67.7808
264.748
256.42
155.598
-407.45
211.187
-144.585
65.8857
387.622
-162.113
236.182
-99.9869
-136.195
259.064
-328.438
299.239
-181.497
-117.742
184.547
-172.225
-12.3221
115.622
-63.0682
-215.243
-235.577
450.819
-192.478
34.7733
157.704
492.491
-485.67
-6.82092
237.319
-66.741
-170.578
243.515
245.513
-489.027
266.538
-175.002
-164.978
301.137
-136.158
-159.731
307.496
-135.121
220.494
-85.3731
-189.742
-148.999
69.242
-147.103
77.8614
103.389
-200.15
352.095
119.451
-247.555
-165.708
-60.8984
-112.916
117.419
-42.9437
-172.513
275.658
-103.145
-63.2001
146.322
118.201
-44.3876
-73.8129
-137.559
77.8468
-581.328
375.11
206.218
61.8233
-134.715
72.8918
-178.914
261.916
-67.2577
132.515
-65.2574
72.5809
45.6196
-142.728
363.78
-221.053
-122.362
-98.1585
220.521
-57.6702
-39.1209
96.7911
338
-145.304
-192.696
237.62
-81.9842
-155.635
-379.811
-311.963
-163.193
-54.2164
-93.5665
147.783
118.707
-307.796
189.089
138.047
-68.8052
-118.371
-2.78172
169.264
-419.736
312.378
-94.9487
-162.426
97.4006
-167.491
82.6384
84.8526
338.877
-129.694
160.518
-128.708
-31.8098
-79.6717
-87.8193
60.331
-127.295
66.9638
96.9734
-166.715
115.554
-64.2703
-104.471
168.742
-89.1325
220.461
-131.329
115.882
-35.1302
-80.7523
-269.34
-35.4704
123.109
90.4159
-86.8308
10.7841
-99.988
209.755
-109.767
-96.8676
100.402
-3.53416
-100.394
-78.1455
-96.1255
174.271
483.639
-385.826
-97.8126
420.403
-114.81
136.731
-101.166
-425.697
463.89
-38.1926
-178.84
305.534
-126.695
-235.537
301.126
99.6757
86.8383
-71.5207
-114.843
-93.0421
272.683
-144.062
292.199
-148.138
39.146
56.377
-95.5229
-292.759
156.5
136.259
117.978
-61.3067
-81.4518
-66.4118
-218.129
-186.969
405.098
139.357
344.282
-455.994
258.015
239.966
-239.966
-74.849
83.6467
-8.79767
185.18
-104.936
-80.244
246
-540.001
294.001
183.137
154.863
-252.719
356.49
-103.771
121.524
-59.7011
-204.343
130.267
74.0758
156.959
330.237
-487.196
254.346
-119.607
-317.456
161.316
156.14
88.5945
-180.681
92.0865
281.4
154.675
-436.075
-223.55
101.187
88.1603
-157.47
69.3102
138.825
-179.253
-169.874
397.805
-182.311
105.672
76.6395
174.574
-105.876
-68.6977
-93.1588
367.448
-274.289
332.848
-166.045
-38.2771
106.359
-68.0823
180.62
177.85
-358.469
-207.164
-248.83
-90.7771
349.593
98.4549
-184.634
86.1788
-204.949
399.422
-194.473
154.62
-66.0256
318.767
-219.407
-99.3602
135.993
-58.4493
-219.899
-153.846
79.4517
-620.247
303.836
132.777
493.626
-501.543
7.9172
207.499
189.563
-397.062
114.938
45.58
-375.827
-110.965
146.342
-152.046
13.2225
-295.688
-24.1424
-118.365
142.507
159.653
-296.081
136.427
123.421
274.866
-133.211
88.1498
45.0609
48.5545
-183.503
40.222
-75.8997
35.6777
263.426
95.3805
262.742
-174.087
-88.6548
140.975
-77.017
-392.548
273.686
118.862
-260.075
-360.172
185.175
52.144
144.445
-455.284
310.839
-61.4958
-80.2221
141.718
34.1115
-125.912
91.8006
286.956
212.438
-2.51381
379.926
-75.1322
-66.7675
426.219
-144.819
74.0777
-127.503
53.425
-463.67
260.06
203.61
-201.797
-245.398
447.194
-366.489
566.49
-200.001
280.981
146.849
-173.818
249.835
-76.0177
-159.493
260.382
352.008
-277.101
-74.9073
-179.89
290.863
-110.973
-185.493
-153.289
-101.39
-178.613
280.003
81.9975
36.0912
-118.089
184.066
-81.5286
440.437
-378.75
-61.6874
-180.146
109.746
70.3995
83.4605
266.854
-350.315
117.641
-32.2673
347.495
92.9428
-65.7755
153.936
-101.592
-31.6182
-225.966
514.171
-288.205
4.43721
191.658
-196.095
222.762
-390.335
167.574
-81.6376
-41.6198
123.257
289.178
97.7948
-84.3956
-21.7581
106.154
-134.824
118.518
16.306
-183.355
122.046
61.3091
182.845
384.298
99.1725
-40.212
-268.764
-123.784
228.574
-443.816
413.728
-509.857
96.1287
65.8432
223.196
-31.8266
-191.37
125.43
-65.0993
80.9042
-408.476
-77.7206
-88.8066
166.527
101.753
-9.26893
-92.4843
-114.507
39.6139
121.459
133.119
153.184
-328.842
175.658
-92.2312
162.477
-70.2459
152.403
-357.352
354.548
-235.84
341.882
-82.8179
-359.681
-199.851
-288.739
470.526
-181.787
429.265
-324.298
-104.967
-9.173
-340.473
349.646
-336.182
-176.444
512.626
-156.359
-8.15333
71.421
-31.199
-504.037
262.1
241.937
-168.071
-93.261
-76.1491
-57.5262
-46.2606
150.386
-92.7669
166.025
-554.669
382.754
171.915
97.8159
-162.086
-24.2107
90.4023
-66.1916
181.49
-146.386
194.373
-316.316
121.943
322.502
-255.519
-66.9821
87.4113
-397.458
310.047
215.829
-98.22
114.52
255.479
-91.9289
-96.3425
109.402
-57.302
474.842
-299.257
-175.585
-267.315
364.019
-96.7038
-118.007
192.082
282.761
-417.838
31.8696
385.968
-287.626
-188.124
139.175
-216.269
77.0938
-131.462
-77.695
209.157
107.615
210.984
-318.599
41.5023
-265.393
-238.644
-89.477
-31.6038
121.081
-204.092
326.214
-122.122
480.682
-174.766
411.058
-64.4913
-296.24
169.723
95.0847
6.66853
-271.902
-34.2318
306.134
57.1746
-373.702
-408.89
137.109
129.81
-16.9311
-112.879
172.34
-274.49
102.15
-109.011
261.43
-458.715
334.69
-74.4726
-77.9319
497.265
-149.77
-240.53
406.761
-166.231
218.212
-342.106
123.893
470.051
-111.862
53.4361
67.0112
-309.291
135.473
351.476
-196.674
-154.801
-173.132
296.526
-123.394
133.264
347.419
166.954
-268.98
102.026
389.868
-107.308
363.538
126.848
-490.386
329.162
-226.158
-103.004
473.622
-502.547
28.9249
124.443
-81.9756
-42.4678
338.503
-229.356
-10.6935
-89.529
-80.5368
-182.438
262.975
40.9649
-119.474
78.5092
-144.292
62.8399
-307.19
474.402
-167.212
-87.2871
-52.1935
-194.635
199.072
107.995
41.5429
-123.256
81.7131
288.703
3.22374
-291.926
-140.767
88.8889
51.8784
-100.811
454.129
179.079
120.16
-144.594
304.248
-236.847
157.131
335.38
52.4841
-159.232
-158.224
16.7234
226.737
-248.646
80.9787
-141.294
241.2
-99.9061
55.6663
-130.448
412.215
-204.716
-370.461
376.678
-6.21785
-131.158
494.696
67.8268
-139.295
71.4678
127.659
-68.5067
-141.976
210.482
-151.795
186.553
-71.6149
75.7615
19.5693
-95.3309
65.3944
-125.913
60.5184
-251.713
154.862
-99.2253
-69.0411
168.266
-267.755
-293.945
127.394
166.551
118.585
-84.4732
51.5739
-113.3
61.7264
54.2104
-185.672
141.294
135.298
-109.053
263.346
-154.292
-137.159
85.5425
51.6168
-75.9525
195.959
-120.007
-375.364
212.873
-181.207
361.827
152.343
-271.429
119.086
245.431
170.331
-415.762
-55.0921
-32.2061
87.2982
331.458
97.8071
332.798
-148.297
-184.502
-157.653
406.19
-248.537
165.065
-70.9644
325.729
-254.764
327.681
121.68
-449.361
474.561
330.4
139.946
-470.346
249.314
-456.478
191.083
-28.7304
-162.353
-338.323
184.373
153.949
-121.708
14.6163
107.091
91.6377
18.4554
-110.093
-64.5839
-76.5879
12.9878
-383.448
-356.35
213.622
61.2792
192.854
-254.133
-377.995
307.031
222.488
123.196
-345.684
-57.8624
108.123
-50.2604
-100.9
-147.326
248.226
568.768
-256.77
63.2622
136.069
-137.51
-280.089
417.599
-122.358
170.912
-222.356
383.845
-161.489
-356.303
42.8133
313.49
-178.017
-279.159
457.176
-63.7633
-68.9472
-564.247
366.717
197.53
300.826
-182.407
-118.419
-123.947
346.435
-168.117
68.8913
111.466
-189.187
146.012
90.1697
-162.867
-490.523
250.995
239.528
-166.857
87.1854
-266.453
97.5646
-300.069
-281.259
-58.1885
-243.647
95.7347
-332.189
236.454
-203.523
-174.177
65.9269
108.25
-245.076
-71.0763
-113.748
-39.6342
153.382
-51.0599
-44.3002
95.3602
-316.036
222.877
16.6968
-88.1611
71.4643
158.256
-190.082
153.671
-365.5
211.829
5.1905
-277.092
-191.741
316.529
-124.788
-237.876
251.099
106.438
-133.016
-89.5406
222.557
400.309
-409.482
109.193
-70.0466
285.355
189.659
-475.014
-80.6824
-86.1747
-78.4078
272.697
364.794
-367.308
95.968
-4.33032
409.73
-125.554
-284.176
105.706
163.502
-269.208
142.933
-45.7164
-124.206
169.923
272.275
-123.564
-148.711
347.803
42.0648
124.856
-83.8909
-501.725
173.368
67.8798
-135.137
-132.138
69.9616
62.1763
-53.4168
162.096
-108.679
-141.136
-77.5651
218.701
28.9276
-97.5531
68.6256
-125.031
43.3935
175.896
-186.742
10.8467
228.916
-280.815
51.8989
-218.828
77.6917
-88.0335
-77.5478
-55.7289
-64.3483
120.077
142.565
185.415
199.141
-225.554
179.239
174.083
-130.379
-43.7044
-375.329
267.659
107.671
231.147
-84.13
336.184
161.081
335.125
102.98
-438.105
-130.378
-133.26
-537.842
251.047
286.795
222.326
-305.092
82.7655
142.76
119.982
-95.5255
57.2485
-36.8407
97.1643
-60.3237
-270.274
-218.905
489.179
-410.024
442.277
-32.2537
-267.08
105.488
-128.683
-456.719
-21.4732
478.192
209.569
242.688
-452.257
-123.823
-188.666
-148.025
-144.734
100.51
-24.7485
-337.275
135.479
-31.2739
168.478
-123.563
-273.027
171.607
101.42
83.7547
67.7277
-130.744
-144.542
275.287
134.256
-92.7135
416.387
-294.505
-121.882
-133.794
352.006
-211.965
-44.8495
457.157
24.126
-114.512
-75.7785
190.291
454.65
-0.197413
-454.452
-89.7641
322.926
-233.162
117.403
82.3102
-199.714
-374.068
221.655
152.413
-130.825
-108.652
-164.375
142.051
-74.2239
-107.798
290.205
-182.407
139.199
140.637
-279.836
-150.739
-53.6042
-246.304
-176.703
423.007
116.495
476.436
-332.691
-143.745
-154.009
148.799
-93.6058
-55.1933
35.644
-92.3854
203.867
-271.648
294.424
-352.612
-403.509
345.121
193.649
-317.472
230.9
181.155
437.253
-204.237
-230.759
163.152
95.175
82.4189
-93.4958
107.336
-160.753
-271.077
289.675
-18.5982
-277.051
-21.3137
77.1096
-141.485
64.3759
115.785
286.351
-158.957
246.907
-136.816
-110.091
-78.328
133.994
-269.769
120.671
-189.178
311.221
-62.5088
-248.712
-258.884
468.453
484.786
-148.602
-370.125
267.237
102.888
-22.2817
476.931
-220.449
414.18
-86.0415
-203.24
289.282
104.864
-263.297
158.433
12.1053
290.137
-334.611
-247.387
581.998
147.451
-348.06
200.609
-292.79
392.83
-100.039
-119.419
449.819
352.433
-126.477
176.605
-89.5758
369.593
-280.017
-77.5585
-63.2088
-239.815
154.701
85.1141
176.956
149.258
59.893
-59.7032
-279.835
339.538
-386.132
-78.9865
-132.435
-197.967
-337.936
230.138
-412.898
412.898
164.01
-336.062
172.052
180.355
-340.159
159.804
231.827
79.3937
53.6243
39.6204
-93.2447
218.324
-371.456
287.7
-465.717
241.802
-39.1566
145.425
158.559
72.7625
197.966
-270.729
125.351
-78.0176
-47.333
-71.8598
-293.459
365.319
110.742
-182.058
71.3157
-65.7833
180.284
-114.501
331.93
4.35763
-78.6708
80.4201
-276.336
321.644
-45.3085
43.926
147.157
93.7782
17.6484