/*--------------------------------*- C++ -*----------------------------------*\
  =========                 |
  \\      /  F ield         | OpenFOAM: The Open Source CFD Toolbox
   \\    /   O peration     | Website:  https://openfoam.org
    \\  /    A nd           | Version:  7
     \\/     M anipulation  |
\*---------------------------------------------------------------------------*/
FoamFile
{
    version     2.0;
    format      ascii;
    class       volVectorField;
    location    "16";
    object      U;
}
// * * * * * * * * * * * * * * * * * * * * * * * * * * * * * * * * * * * * * //

dimensions      [0 1 -1 0 0 0 0];

internalField   nonuniform List<vector> 
30084
(
(1.0095 -0.0115155 5.68668e-23)
(1.00803 0.00327721 2.12404e-22)
(0.99174 -0.00306313 -3.41526e-22)
(0.974251 -0.0488482 1.12768e-22)
(0.997842 -4.62886e-05 4.76635e-23)
(0.959784 -0.0305879 -1.72137e-22)
(1.06234 -0.061023 6.3536e-23)
(1.01283 -0.0172941 -6.02702e-24)
(1.00177 -0.00169581 7.63479e-24)
(1.00016 -4.33371e-05 1.99291e-24)
(1.01496 -0.0231533 2.02115e-24)
(0.998575 -0.0147687 -1.10773e-22)
(0.999578 -0.000172554 6.48555e-24)
(0.999973 -9.37039e-06 1.79361e-25)
(1.09405 0.0847485 7.53444e-22)
(0.994611 -0.00176321 5.18194e-23)
(0.99986 -0.00074925 -2.86476e-24)
(1.10508 0.0185631 -6.91681e-23)
(0.998123 -0.00159986 -1.62379e-23)
(0.990167 -0.000744797 -7.63307e-23)
(0.999243 -0.000241745 -2.21909e-23)
(1.00167 -0.0016944 2.67579e-23)
(0.991659 -0.00324205 3.77385e-22)
(0.99811 -0.000151357 2.10028e-23)
(0.919566 0.0807227 8.16298e-23)
(1.00873 0.00259403 1.14136e-21)
(0.999544 -5.1684e-05 1.47823e-23)
(0.958141 0.0674411 -5.61528e-21)
(1.09708 0.0858 -1.96749e-21)
(0.999439 -0.00803304 -2.1455e-23)
(1.01334 -0.00904164 3.86847e-23)
(1.03074 -0.00406185 -2.80077e-22)
(0.993504 -0.115182 1.09574e-21)
(0.999168 -0.0205079 5.37785e-23)
(0.956637 0.0642684 4.50825e-21)
(1.00482 -0.0288438 1.30651e-22)
(1.04816 0.0397388 -3.85805e-22)
(0.974819 -0.0270843 4.54831e-22)
(1.00463 -0.000705789 -1.03084e-22)
(1.00446 -0.000488742 1.95566e-22)
(1.00038 -0.000146026 -6.14394e-24)
(0.991127 -0.0281296 -4.09041e-22)
(0.999877 -0.000727935 -3.89283e-26)
(1.03137 -0.0613686 -4.53613e-22)
(1.00003 -4.80686e-06 -3.92569e-25)
(0.999613 -0.00814274 1.64722e-23)
(0.998043 -0.0109683 -3.1772e-23)
(1.00007 -7.4614e-05 1.01287e-24)
(1.00292 -0.00316322 -1.09065e-22)
(1.0484 0.0377749 -1.58881e-22)
(1.11799 -0.0521466 2.8999e-23)
(0.977062 -0.0425904 -5.16585e-22)
(1.03048 -0.00335668 9.79599e-23)
(0.961157 -0.0302541 -2.81653e-22)
(0.994745 -0.00181006 -4.55408e-23)
(1.10165 0.0807155 -1.22735e-21)
(0.997024 -0.00200484 1.60569e-23)
(0.999221 -0.000266805 2.81076e-23)
(1.00075 -0.0192054 -7.11937e-23)
(1.01452 -0.0515693 -2.35914e-22)
(0.999942 -6.45109e-06 4.1983e-25)
(0.998189 -0.0016377 -3.34365e-24)
(1.1657 0.0690588 4.32184e-22)
(1.00507 -0.0281226 -6.95949e-23)
(1.03777 0.0811467 2.96068e-21)
(0.93631 0.0222923 1.10226e-20)
(1.00029 -0.0243464 -1.41211e-22)
(0.993813 -0.0125192 1.51995e-22)
(0.951857 0.0142118 4.43743e-21)
(1.0004 -0.00013844 3.97545e-24)
(1.00993 0.00316856 -1.5564e-21)
(0.988944 0.0564832 3.17094e-21)
(1.00295 -0.00786589 -4.5293e-23)
(0.934217 0.0928796 3.06724e-21)
(0.99283 -0.000577185 2.40548e-22)
(1.10354 -0.0191313 1.26747e-22)
(1.11712 0.124178 2.77803e-21)
(0.975319 -0.0152946 1.09639e-22)
(0.999957 -1.96763e-05 -1.19424e-24)
(1.00676 -0.0430931 -2.44474e-22)
(0.960473 -0.000710826 -1.88693e-22)
(1.01599 0.0310423 8.92927e-22)
(1.00973 -0.0120157 -1.71123e-22)
(1 -5.47095e-05 9.26822e-26)
(1.06406 -0.0586329 -8.13354e-23)
(1.23262 -0.0530276 -4.6192e-22)
(1.02178 0.0699504 -5.39923e-21)
(0.999561 -0.000170067 -5.86986e-24)
(0.999591 -0.000153704 -1.71995e-24)
(0.938862 -0.0405517 -7.62744e-22)
(0.997916 -0.0485869 5.22523e-22)
(0.975246 -0.0160272 1.22985e-22)
(1.00274 -0.00327401 1.87525e-23)
(1.04848 -0.00378693 -1.73649e-22)
(0.931763 -0.0174266 -6.35463e-22)
(1.02662 0.0836698 2.72674e-21)
(1.00208 -0.0632242 8.41944e-22)
(1.00041 -0.000337535 9.97251e-24)
(0.976413 -0.06153 -9.94024e-22)
(1.08615 0.0971256 3.22383e-21)
(0.999954 -1.93172e-05 1.74737e-24)
(0.976394 -0.00993163 -6.56083e-22)
(0.999944 -7.93772e-06 -2.16627e-25)
(1.03983 -0.0128229 -8.88547e-22)
(0.975707 -0.0425536 3.46807e-22)
(1.02839 0.0114104 1.65798e-21)
(1.00093 0.0543043 4.92154e-21)
(0.999608 -0.000155588 -1.45599e-23)
(0.999996 -6.07731e-05 -2.42369e-26)
(1.00904 -0.10722 -4.88922e-23)
(0.99096 -0.114197 -9.86233e-22)
(1.04001 -0.0312967 1.04891e-22)
(1.00001 -1.62958e-06 6.99924e-26)
(0.999066 -0.0054316 -5.80285e-23)
(0.99991 -0.00193109 2.27513e-24)
(0.990964 0.0578751 1.22961e-23)
(1.02897 0.0452519 -1.93403e-21)
(0.989561 -0.00663554 -2.59446e-22)
(1.00002 -5.99395e-05 9.4362e-26)
(1.00323 -0.00777125 -3.41313e-23)
(1.21531 0.042964 -8.00393e-22)
(1.00548 0.0100575 2.48037e-21)
(1.15093 -0.0108737 5.77449e-22)
(0.935061 0.0272686 -1.04584e-20)
(1.00095 -0.000312064 -2.52167e-23)
(1.13595 0.00201372 -2.53186e-22)
(1.10272 0.0207526 -3.7721e-22)
(1.0183 -0.0489885 1.58073e-22)
(1.00349 -0.00299829 -9.68049e-23)
(1.00002 -0.00038538 1.86599e-25)
(1.03062 -0.059551 1.59948e-22)
(1.11977 0.122291 1.55902e-21)
(0.998574 0.0999685 6.1206e-21)
(1.16191 -0.0221267 7.7053e-23)
(1.0385 -0.0127815 7.50916e-22)
(1.01296 -0.00868854 7.31025e-22)
(1.03932 0.127386 4.57082e-22)
(0.975171 -0.000731025 9.69528e-22)
(1.16472 -0.154673 2.24464e-21)
(1.08794 0.0943263 -2.43356e-21)
(1.13335 0.00502133 2.87289e-22)
(0.944486 -0.0050517 -8.1573e-22)
(0.95604 -0.0430172 2.30465e-22)
(1.00001 -1.44303e-06 -2.96498e-26)
(0.99999 -2.82293e-06 9.43309e-26)
(0.997786 -7.63974e-05 -3.77416e-23)
(0.9982 -0.0107393 6.50256e-23)
(0.99225 -0.0858968 -7.40566e-22)
(1.14936 -0.106736 7.82048e-22)
(1.15793 0.104157 1.92902e-21)
(1.02671 -0.0145743 3.8895e-22)
(1.01603 -0.0162993 1.31683e-22)
(1.00038 -0.000545872 1.53919e-23)
(0.999885 -0.000194527 1.66667e-24)
(1.00151 0.0239196 -5.27225e-21)
(1.00047 -0.00134357 1.79642e-24)
(0.994254 -0.0101631 1.75426e-25)
(1.04734 0.129403 -1.37707e-21)
(1.00378 0.0384371 -5.5579e-21)
(1.11953 -0.048021 2.54637e-23)
(0.962395 -0.00268414 3.27427e-22)
(0.975128 -0.0477509 7.91846e-22)
(1.10072 0.0839388 3.21012e-22)
(0.999956 -4.02769e-05 3.77372e-25)
(0.999989 -2.7072e-06 -3.54758e-26)
(0.989521 -0.00697738 9.19911e-23)
(0.957179 -0.0420533 -1.24443e-21)
(1.00005 -0.000197905 -9.87686e-25)
(1 -5.80577e-05 2.91892e-26)
(0.994044 -0.00459037 -3.01159e-23)
(1.00003 -0.000373857 -1.5328e-25)
(1.00501 -0.00510183 -5.45939e-23)
(1.04483 0.131186 1.62781e-21)
(0.975545 -0.000379523 -7.9867e-22)
(1.05435 -0.0988056 -2.24786e-22)
(0.995545 -8.75589e-05 1.54168e-22)
(1.00185 -0.00234759 5.69852e-24)
(0.975725 -0.00977625 1.10993e-21)
(0.999327 -0.00541532 -5.18515e-24)
(1.15072 -0.00116678 -5.74413e-22)
(0.999981 -8.71933e-06 5.85371e-25)
(1.01359 -0.0332682 -4.58019e-23)
(1.02319 0.0714681 1.93467e-21)
(0.994056 -0.0116122 -9.1079e-24)
(1.15695 -0.152866 -2.07909e-21)
(1.02288 0.0384362 -1.6953e-21)
(0.994454 -0.00252809 -2.23242e-22)
(0.984026 -0.0141711 2.83466e-22)
(1.00331 -0.00301414 1.47579e-22)
(0.999466 -0.00748169 -3.09631e-23)
(0.999757 -6.57423e-06 1.68108e-24)
(1.00575 -0.0154885 3.43683e-23)
(0.931495 0.0136413 4.35561e-21)
(1.0011 0.020503 4.05777e-21)
(0.987262 -0.00564815 7.42595e-24)
(0.994518 -0.0100019 -9.49765e-23)
(0.982765 0.0311339 -4.20917e-21)
(1.01071 0.0244566 7.66241e-22)
(0.933268 -0.0172071 7.74336e-22)
(1.001 -0.000423512 -1.97497e-23)
(1.07904 -0.0760945 2.21745e-22)
(0.977727 -0.0822721 1.01167e-21)
(0.998834 -0.0150626 5.3242e-23)
(1.00073 -0.000922726 -3.14624e-23)
(1.04084 0.12994 6.71101e-22)
(0.99424 -0.00459927 -2.03267e-23)
(1.00583 -0.00456132 -6.07253e-23)
(0.990424 -0.0856036 9.81811e-22)
(1.00972 -0.110034 1.24798e-22)
(0.999968 -4.51165e-06 1.4227e-25)
(0.980821 0.0807427 -5.28312e-21)
(0.999102 -2.06387e-05 -3.64975e-25)
(1 -4.67903e-05 2.7238e-26)
(0.999527 -0.000180874 2.50191e-24)
(1.00067 -0.0485332 -1.89271e-22)
(1.15226 0.0764736 -1.58815e-21)
(1.01437 -0.0324889 1.48031e-23)
(1.00565 -0.00426201 -4.16887e-23)
(0.998131 -0.000209419 5.20804e-23)
(0.934612 -0.0191696 -1.39628e-22)
(1.00003 -0.00041018 -2.32492e-25)
(1.00042 -0.00137137 1.89545e-25)
(0.997985 -0.000177184 -3.43827e-23)
(1.02221 0.00106897 1.53348e-21)
(0.997726 -0.00345767 -1.07032e-23)
(0.99908 -0.00504858 1.72608e-23)
(1.02238 -0.000962539 7.75936e-22)
(1.00011 -0.00033579 1.5436e-24)
(1.00003 -4.05483e-06 1.02089e-25)
(1.00426 -0.000506854 2.12509e-23)
(0.978878 -0.0306749 -4.05115e-22)
(0.978305 -0.000377493 -3.83442e-22)
(0.995821 -0.00033259 -1.64242e-22)
(1.0107 0.00248192 1.28986e-21)
(0.986028 -0.00103724 1.80878e-22)
(1.01618 -0.0157393 -1.2509e-22)
(0.999972 -1.04691e-05 5.06338e-25)
(0.997448 -0.00228285 -6.19397e-23)
(1.00069 -0.00091492 3.40282e-23)
(1.07754 -0.0728049 2.10413e-22)
(1.08115 -0.17119 1.86018e-21)
(0.998803 -0.000108127 2.70608e-23)
(1.0004 -0.000485994 -1.1866e-23)
(0.998995 -0.00492706 -5.93072e-24)
(1.00312 -0.00693142 -8.34517e-23)
(0.99037 -0.000549278 -3.2362e-22)
(0.999958 -3.82471e-05 -2.42856e-26)
(1.22523 -0.0523801 -8.64637e-22)
(1.00004 -0.000419815 2.69221e-25)
(1.0219 0.000965231 -1.07976e-21)
(0.99712 -0.00200868 -3.23677e-23)
(1.00013 -0.000324968 6.50686e-25)
(1.02755 0.0116268 -1.05436e-21)
(0.972237 -0.0791663 -1.07603e-21)
(1.00022 -3.6898e-05 6.54718e-24)
(1 -1.06479e-05 1.68555e-26)
(0.944316 -0.00361761 -9.30317e-22)
(1.06069 -0.159674 -2.78377e-22)
(0.992513 -0.00735157 -2.41029e-23)
(1.01762 -0.0502503 -4.35318e-23)
(1.02748 -0.0150666 -6.38655e-23)
(1.02724 0.0701188 2.35702e-22)
(1.00007 -7.04564e-05 2.79929e-25)
(0.97929 -0.0299866 3.84036e-22)
(1.18784 0.0163758 -5.64171e-22)
(0.969845 0.043533 1.04754e-22)
(0.993974 -0.011354 7.14683e-23)
(1.0222 0.0371803 2.0566e-21)
(1.10264 -0.0161376 9.64187e-23)
(0.999901 -0.00212509 -2.21823e-24)
(0.870383 0.0395595 6.41242e-21)
(0.99953 -0.000380253 -1.68815e-23)
(1.05435 -0.102296 -3.15473e-22)
(0.935764 -0.0191252 9.41793e-22)
(1.00196 -0.00221797 -3.12603e-23)
(1.14884 0.0406891 1.05854e-21)
(0.992458 -0.00083767 -1.91949e-22)
(0.999927 0.107426 4.22861e-21)
(0.996971 -0.000233023 1.48932e-23)
(0.984546 -0.0152637 -1.47877e-23)
(0.999829 -0.00193111 -1.39967e-23)
(1.07093 0.112112 7.15118e-22)
(1.00052 -0.0151731 1.26227e-23)
(1.0244 0.0838741 1.6434e-22)
(0.999557 -3.94774e-05 -6.47877e-24)
(0.994886 -0.00167558 -7.16734e-23)
(0.969026 0.0978452 -2.68438e-21)
(1.02621 0.00102874 -1.29951e-21)
(1.02222 -0.000634612 8.99975e-22)
(0.974849 -0.0393939 9.70112e-22)
(0.999868 -2.86212e-05 1.70491e-24)
(1.00303 -0.00668405 -9.64885e-24)
(0.999859 -0.000819303 -5.11385e-24)
(1 -4.43065e-05 2.30338e-26)
(1.04575 0.0082277 3.86902e-22)
(1.00004 -4.61563e-06 1.03842e-26)
(0.982294 -0.0136098 6.72793e-22)
(1.18645 0.0122292 4.80806e-22)
(0.917961 0.084413 -6.39316e-21)
(1.00071 0.100353 -9.41996e-21)
(0.974699 -0.0678199 3.30561e-22)
(0.988609 -0.0275448 2.30176e-22)
(0.979395 -0.00144288 1.82588e-22)
(1.03222 -0.0298321 3.12719e-22)
(1.00624 -0.0152464 -5.50564e-23)
(0.983939 -0.0148521 -3.91483e-22)
(0.976105 -0.0745048 1.44506e-22)
(1.02585 0.0716364 -3.66483e-21)
(0.999501 0.0178045 6.89772e-21)
(0.998882 -0.000131694 1.49269e-23)
(1.00198 0.0549582 -6.79413e-21)
(1.04522 0.00694065 1.39261e-22)
(1.15346 -0.00634255 -1.58651e-22)
(1.01223 -0.0132462 5.87551e-23)
(1.00136 -0.0139167 -5.24776e-23)
(1.0242 -0.0447593 -7.30697e-23)
(0.99526 -0.00161754 -1.69069e-22)
(0.997666 -0.000580496 -1.10084e-23)
(0.999947 -6.32362e-06 2.21929e-24)
(0.999327 -0.00767008 4.58539e-23)
(1.08666 -0.0235424 5.69866e-23)
(1.07067 0.115094 -1.16921e-21)
(1.00141 -0.00119761 1.47353e-23)
(0.975757 -0.0253061 -5.41744e-22)
(1.01387 -0.0134266 -1.86864e-22)
(0.999966 -1.4521e-05 -1.93764e-25)
(0.975343 -0.0710242 -5.23649e-22)
(0.899105 0.0665778 -2.85589e-21)
(0.994541 -0.00431592 2.50443e-22)
(0.999068 -0.00403243 1.55884e-23)
(1.01272 -0.0130583 -3.6341e-23)
(1.00633 -0.0418065 3.10498e-22)
(1.06499 0.0333389 5.0282e-22)
(0.999721 -0.00869068 -7.82035e-24)
(0.999972 -4.6517e-05 1.25082e-24)
(1.00001 -2.27216e-06 3.48574e-26)
(0.997635 -0.000528594 -1.22341e-23)
(0.967604 0.0971425 3.88139e-21)
(1.0448 -0.02068 2.0931e-22)
(1.08625 -0.167965 -4.90072e-22)
(1 -1.0684e-05 8.83315e-28)
(1.0587 -0.164656 1.91999e-22)
(1.06646 0.00635014 -6.33583e-22)
(0.995437 -0.000146286 -7.7627e-23)
(0.9381 -0.00693304 -1.14634e-21)
(0.999141 -0.00396094 -1.55338e-23)
(0.999617 -0.000174047 -1.06282e-24)
(0.979786 -0.0270517 -1.15705e-22)
(1.00081 -0.00101089 -1.52168e-23)
(1.15278 0.00304871 5.59983e-22)
(1.00798 -0.000947187 -4.30546e-22)
(1.12158 0.104818 -1.32021e-21)
(0.999929 -0.00209678 2.88197e-24)
(1.00413 -0.0121926 1.75788e-23)
(1.00531 0.00890706 -3.36359e-21)
(1.20998 0.0406401 4.08074e-22)
(1.00037 -0.000513468 -9.0536e-24)
(1.00039 -0.000455564 8.90448e-25)
(0.992312 0.0686799 3.32298e-22)
(0.999102 -0.0493839 -1.05548e-22)
(0.999566 -0.00856525 9.48603e-24)
(1.00976 0.0270975 4.01345e-22)
(0.976828 0.0156588 8.20507e-21)
(1.11989 -0.0557493 -7.93593e-23)
(1.00023 -0.0234741 -4.45329e-23)
(1.14862 0.0755456 1.57953e-21)
(0.999324 -6.44211e-05 -1.11981e-23)
(0.992228 -0.00384444 6.81253e-23)
(0.997034 -0.000243939 -4.21002e-23)
(1.01184 0.0233283 5.43578e-24)
(0.99999 -0.000673068 2.81348e-25)
(1.00773 -0.0011461 4.39994e-22)
(1.16838 -0.0871953 2.73152e-23)
(0.997208 0.0946555 9.42373e-21)
(0.936637 0.095766 -1.42332e-21)
(0.994625 -0.00251908 8.68716e-24)
(0.992282 -0.00718771 7.25014e-23)
(1.03568 0.0828889 -2.36706e-21)
(1.01517 -0.0532149 3.3832e-22)
(0.999949 -7.44841e-06 -2.16483e-24)
(1.141 0.114104 3.03494e-21)
(1.02162 0.0014897 -4.57794e-22)
(1.02118 0.00147136 -3.0806e-22)
(0.995122 -0.0123167 -1.01366e-22)
(1.01598 -0.00166803 -6.62991e-22)
(0.961465 0.087165 1.30521e-21)
(1.1475 -0.118362 -2.58819e-22)
(0.982302 0.0865398 1.41481e-21)
(0.992222 0.0860793 -2.44003e-21)
(0.999997 -5.81479e-05 7.62469e-26)
(1.08379 -0.0233943 -1.79006e-22)
(1.14607 -0.112881 1.63498e-22)
(0.997617 -0.00348949 2.82022e-23)
(1.00145 -0.00128971 -2.42941e-23)
(0.973083 0.0180576 1.96003e-21)
(1.04642 -0.0211033 -2.74479e-22)
(1.00026 -6.72896e-05 1.48581e-24)
(0.986528 -0.0584016 -1.12615e-21)
(0.97717 -0.0846189 -4.77087e-22)
(0.994999 -0.00172217 1.00739e-22)
(0.999893 -0.000188856 -2.09485e-24)
(1.02982 0.0980449 -4.12733e-22)
(1.02902 0.0437241 3.26926e-21)
(1.00004 -0.000458763 -8.51279e-26)
(1.00363 -0.00322854 1.90296e-23)
(1.00466 -0.00320991 1.02865e-22)
(1.18883 -0.0369649 3.7899e-22)
(0.974823 -0.038318 -8.60889e-22)
(1.00006 -0.000543709 -6.86009e-25)
(0.999987 -1.7345e-06 -5.41029e-26)
(1.00044 -0.000151065 2.34325e-24)
(1.06354 0.0339174 -4.99742e-23)
(0.974753 -0.0261211 -4.35779e-22)
(1.00167 0.0417801 1.57125e-21)
(0.949248 -0.047968 5.76445e-22)
(0.989354 -0.0273626 -2.41019e-22)
(0.977662 -0.00113082 -7.69636e-22)
(1.01096 0.0261527 -1.97436e-21)
(1.16161 0.0658914 8.46017e-23)
(0.998917 -0.000140055 2.73412e-23)
(1.007 -0.00517319 -1.10023e-22)
(1.00076 -0.00100162 1.72515e-23)
(0.981311 0.0946848 -3.66864e-21)
(0.976637 -0.0235787 2.32753e-22)
(1.00097 -0.000253916 -8.24404e-24)
(0.993171 -0.00341142 -9.13132e-23)
(1.13493 0.0105552 5.61658e-22)
(0.999825 -0.00933407 -1.96841e-23)
(0.989616 -0.0119629 -5.00347e-23)
(1.00021 -0.000129062 -4.53914e-24)
(1.00022 -4.845e-05 -2.00623e-25)
(0.89653 0.0713137 4.48474e-21)
(0.992511 -0.00124723 -1.19545e-22)
(0.995687 -0.00443645 1.0173e-22)
(0.999666 -0.00170974 -1.23035e-23)
(0.999341 -4.8919e-05 -1.53379e-24)
(1.03203 0.0691988 -1.24758e-21)
(1.17412 -0.0855783 4.36713e-23)
(0.988344 -0.0415966 1.41848e-22)
(1.00002 -1.86015e-06 -3.53975e-26)
(1 -3.55452e-05 2.10154e-26)
(0.975691 -0.0244701 6.13661e-22)
(0.993828 -0.00181424 2.42444e-23)
(0.9953 -0.0020588 -1.38182e-23)
(1.01271 -0.00451767 2.09161e-22)
(1.00518 -0.00215426 3.68878e-23)
(1.00078 -0.0155271 -2.18625e-23)
(1.10776 0.00613293 9.09934e-22)
(0.982726 -0.00433224 -1.53236e-22)
(0.98369 0.0849373 -1.15108e-21)
(1.0142 -0.0232486 -6.22122e-23)
(1.00023 -0.000129566 5.04645e-24)
(0.973687 -0.0666425 4.98777e-23)
(0.986227 -0.0369016 -5.03548e-22)
(1.14022 0.0401685 6.71205e-22)
(0.997441 -0.00576058 -2.98103e-23)
(0.992771 -0.0486216 -1.69779e-22)
(0.99998 -5.12231e-06 3.2263e-25)
(0.945392 0.0698594 -4.44963e-21)
(1.01348 -0.00186618 3.75607e-22)
(1.00008 -0.000220569 -1.5763e-24)
(0.931458 0.018684 -5.61297e-21)
(0.987345 -0.0418944 3.32346e-22)
(0.99998 -5.9682e-06 5.13431e-26)
(1.00131 -0.0011737 7.16648e-24)
(0.974174 -0.0696913 -2.9323e-22)
(1.03841 -0.0303646 1.03554e-22)
(1.04279 -0.00714438 4.96344e-22)
(0.999992 -2.96869e-06 7.61014e-26)
(0.992476 -0.000634461 9.53405e-23)
(1.02482 -0.0436093 9.31089e-23)
(0.995138 -0.00157907 1.39552e-22)
(0.999575 -4.55043e-05 -3.50847e-23)
(0.992384 -0.00396864 2.0549e-24)
(0.980175 0.0320025 4.89865e-22)
(0.993676 -0.0121595 -1.27568e-22)
(0.990063 -0.0117005 3.68444e-23)
(1.0019 0.0268885 -1.62148e-21)
(0.997498 -0.00215557 3.24817e-23)
(0.977411 0.0959007 -4.71048e-22)
(0.999979 -5.99283e-06 -1.64281e-25)
(0.991392 -0.0273996 9.53755e-23)
(0.989428 -0.0812552 1.10254e-21)
(0.993823 -0.0488398 2.84699e-22)
(1.18898 0.000332909 -6.36636e-23)
(0.998976 -0.00527906 3.89224e-23)
(1.00967 -0.0221411 3.37766e-23)
(0.999936 -0.00225749 6.48668e-25)
(0.984599 -0.0216236 -2.92681e-22)
(1.04026 -0.0330931 4.34873e-23)
(0.999967 -1.38843e-05 9.81086e-25)
(1.00002 -1.0637e-06 -6.1591e-26)
(0.994137 -0.000404153 6.45479e-23)
(0.983288 0.0600701 3.25634e-21)
(1.01243 -0.0179514 2.37068e-22)
(1.00238 -0.00330422 -3.04047e-23)
(0.934266 -0.0359977 8.22517e-22)
(1 -9.55161e-06 1.94294e-27)
(1.0009 -0.00110257 -2.76292e-23)
(0.999968 -0.000641899 -3.95957e-25)
(1.01364 -0.0170789 2.5573e-22)
(0.984499 -0.0159433 5.19119e-23)
(0.999649 -0.000270406 4.42128e-24)
(0.994051 -0.0108363 4.72306e-23)
(0.988485 -0.00694262 -5.45015e-23)
(1.00093 -0.000151799 -2.26972e-24)
(0.999978 -6.96e-06 -1.02657e-25)
(1.17826 0.0349169 7.2489e-22)
(0.9997 -0.00168186 1.31686e-23)
(1.06537 0.00190227 4.89257e-22)
(1.00761 0.0931329 9.24125e-21)
(1.03259 0.081541 -2.15539e-21)
(1.0013 -0.0196549 -8.27923e-23)
(1.00506 -0.00194391 -1.22215e-23)
(1.01624 -0.00132023 4.05848e-22)
(0.999981 -0.00230823 -7.34193e-25)
(0.998151 -0.00999374 4.65553e-23)
(1 -1.61144e-05 3.08258e-26)
(0.990309 0.0862667 -1.84524e-22)
(0.988901 -0.0157985 7.07875e-23)
(1.01243 -0.00415139 -1.492e-22)
(0.983133 -0.0044933 3.13551e-22)
(1.00369 -0.0120085 1.60016e-24)
(0.997599 -0.00566503 6.46823e-23)
(0.999904 -0.000193455 4.88232e-25)
(1.00002 -9.50647e-07 -3.27065e-25)
(0.995837 -0.00441611 -7.40081e-23)
(1.04891 -0.00510645 -2.80909e-22)
(1.00403 0.0398964 2.51714e-22)
(1.00112 -0.000451798 -3.35505e-23)
(0.97817 -0.0614476 -2.56758e-22)
(0.976538 -0.0228755 -1.05383e-22)
(0.992661 -0.000500134 -3.57356e-22)
(1.15553 0.101086 -1.22282e-21)
(0.998805 -0.000923414 -1.62634e-23)
(1.00383 -0.0136012 -5.22917e-23)
(0.994932 -0.00271162 6.99916e-23)
(0.999912 -0.000186478 4.13816e-25)
(0.97476 -0.073001 3.29395e-22)
(1.0019 0.0380228 -2.46456e-21)
(1.02311 0.0341287 -2.13342e-21)
(0.97864 -0.0151969 -5.07233e-23)
(1.00138 0.0366691 -1.12731e-22)
(1.00008 -0.000207009 3.04545e-24)
(1.00002 -1.39586e-06 1.01766e-25)
(1.13989 0.111405 -1.13793e-21)
(1.14511 0.0425565 -6.91587e-22)
(0.934077 0.0713425 -2.21452e-22)
(1.00822 -0.082685 7.62273e-22)
(0.977909 -0.00155888 -2.37307e-22)
(1.1316 0.0140417 -7.83423e-22)
(1.00107 -0.000473517 3.79907e-23)
(0.994755 -0.00365658 4.01479e-23)
(1.00042 -0.000161137 -2.23794e-24)
(0.989958 -0.00070667 -7.88271e-23)
(0.989165 -0.0128956 -1.04157e-22)
(0.999996 -3.18111e-05 -2.10623e-25)
(0.999182 -3.19509e-05 6.39592e-24)
(0.997006 0.0926205 -8.57661e-21)
(0.999881 -0.000666906 4.67917e-24)
(0.951211 0.0643672 5.36553e-21)
(1 -1.53021e-05 -2.32024e-26)
(1.18993 0.070255 1.03328e-21)
(1.06579 0.000357864 -1.03982e-21)
(1.10659 0.00831088 -1.0078e-21)
(1.00096 -0.000452068 2.27888e-24)
(1.00017 -3.98356e-05 4.02481e-24)
(0.986526 0.0568016 -4.86453e-21)
(1.06717 0.00449859 2.06388e-21)
(0.989053 -0.0830573 -1.01715e-21)
(1.01649 0.032556 9.60837e-22)
(0.998687 -0.0201408 3.82422e-23)
(0.987386 -0.0053168 -8.0368e-23)
(0.996235 -0.000211343 -4.25225e-23)
(1.07223 0.131666 -5.42671e-21)
(0.977849 -0.0273261 3.74206e-22)
(1.0324 -0.0283547 -2.02984e-22)
(0.994296 -0.0107316 -2.69456e-23)
(1 -9.49395e-06 -7.73446e-28)
(0.998816 -0.000871113 -1.38172e-23)
(1.00551 -0.00549756 6.5204e-23)
(0.98256 -0.00801481 4.04246e-22)
(0.979225 -0.0153036 7.52454e-23)
(0.958855 -0.0427689 -1.2079e-22)
(0.982383 -0.00850534 -3.05853e-22)
(1.01567 0.00232793 1.76373e-22)
(0.998035 -0.000133237 8.62124e-25)
(0.94043 -0.0409828 4.2599e-22)
(0.986674 -0.000906933 -1.11896e-22)
(1.00004 -0.000200136 4.33747e-25)
(0.988407 -0.000721506 -7.77415e-23)
(1.03344 -0.0308402 -3.49968e-22)
(1.01503 0.00249344 -9.75006e-22)
(0.975804 -0.0275967 -9.42568e-23)
(0.999984 -6.86059e-07 -1.52385e-27)
(0.983752 -0.016328 7.80197e-23)
(1.00242 -0.0139767 2.48267e-24)
(1.00128 -0.00109236 9.18897e-24)
(1.17039 -0.109055 -6.9981e-22)
(1.00134 0.0366626 -5.69451e-21)
(1.00084 -0.00109002 2.56475e-23)
(0.988608 -0.000542274 1.11394e-24)
(1.112 -0.0586908 -1.84383e-23)
(1.02289 0.000519051 1.55122e-21)
(0.990877 0.0252083 -5.22696e-22)
(1.00171 -0.00231368 8.21624e-24)
(1.0012 -0.0204956 2.60835e-23)
(1.06001 0.101527 -7.81379e-22)
(1.01271 0.0208916 -4.94947e-21)
(0.992417 -0.0272299 2.50993e-22)
(1.00439 -0.0032235 -1.15176e-23)
(0.954419 -0.0511878 5.76114e-22)
(0.999997 -4.59912e-06 3.82852e-26)
(0.951631 -0.00216828 -4.27148e-22)
(1.00008 -6.57141e-05 5.66522e-25)
(1.10973 -0.0609701 -2.71573e-22)
(0.999969 -3.24762e-06 -1.09037e-25)
(1.00003 -5.86457e-05 3.27116e-25)
(1.00103 -0.02298 -3.11759e-23)
(1.16496 0.0739565 -9.66749e-22)
(1.01618 0.116342 4.09645e-21)
(1.03669 -0.0312459 -5.54133e-22)
(1.01327 -0.0136178 1.24321e-22)
(0.999999 -3.42448e-06 -9.77581e-27)
(0.994338 -0.00434961 -1.35552e-22)
(1.00008 -1.97582e-05 -4.20442e-25)
(0.997097 -0.00230102 4.6434e-23)
(1.00003 -5.46009e-05 -2.54055e-25)
(1.04258 -0.00558085 -1.54912e-21)
(0.999566 -0.000447578 -1.73382e-23)
(1.04021 0.0473861 2.21115e-21)
(0.999884 -0.000206815 -3.25967e-24)
(0.98786 -0.00518737 -1.35456e-22)
(0.959575 -0.00114875 9.39368e-22)
(0.99604 -0.000284587 -5.46281e-23)
(0.985792 0.0332683 5.03283e-21)
(0.983555 -0.000723595 2.20184e-22)
(1.04043 -0.100864 5.53e-23)
(0.994896 -0.00383267 2.07485e-22)
(1.02211 -0.00192901 -3.3313e-22)
(0.97559 -0.0626704 1.19004e-21)
(1.01726 -0.00119382 -1.12791e-21)
(1.04753 -0.0628453 -1.51043e-23)
(0.999986 -1.31099e-06 1.43545e-26)
(1.00006 -0.01943 2.96462e-23)
(0.996297 -0.000278677 6.66293e-24)
(1.00023 -8.74708e-05 3.03122e-24)
(1.00008 -1.65547e-05 7.05636e-25)
(1.07482 0.133568 5.94597e-21)
(0.995457 -0.00206435 1.16451e-22)
(1.02263 0.00122865 1.76244e-21)
(1.00183 -0.0209405 3.11136e-23)
(1.00079 -0.000286954 8.78238e-24)
(1.0211 -0.00667313 -1.25744e-21)
(1.00015 -3.68104e-05 -8.93233e-24)
(0.999977 -3.22891e-06 -1.47746e-26)
(0.95225 -0.0028853 3.28554e-22)
(0.996761 -0.00116901 5.26846e-23)
(1.00003 -5.31837e-05 3.81429e-25)
(1.04037 0.081769 1.63328e-21)
(0.907885 0.0577802 -7.93298e-21)
(0.999806 -0.000219196 8.1147e-24)
(0.961456 -0.00231183 -2.53211e-22)
(1.00002 -1.35253e-06 7.27775e-26)
(0.95895 0.0853119 -5.21817e-21)
(1.19367 0.0739033 1.20894e-21)
(0.974454 -0.05 -9.73064e-22)
(1.00005 -0.000526251 -7.82274e-25)
(1.03116 -0.0274463 4.6203e-22)
(1.02635 -0.00128466 -4.58491e-22)
(1.02681 0.00109835 1.3273e-22)
(1.04389 -0.00754558 -1.96696e-22)
(0.999677 -0.00180323 -2.12058e-24)
(0.99988 -0.000798969 4.01752e-24)
(0.987117 -0.015784 -2.28142e-22)
(1 -8.33274e-06 -1.65228e-26)
(1.00001 -1.02437e-06 -1.85501e-26)
(0.976953 -0.0268858 -2.21897e-22)
(1.00343 -0.0622027 -4.04213e-22)
(0.960119 -0.0418771 -3.12222e-23)
(0.924012 0.08095 -1.5809e-22)
(1.00019 -2.39406e-05 -3.71948e-24)
(1.02602 -0.0752247 -7.48299e-22)
(1.00678 -0.00486202 -1.13153e-22)
(0.999979 -3.40667e-06 1.68252e-25)
(0.999089 -0.00375214 -3.40128e-23)
(1.00003 -0.000446799 -4.71865e-25)
(0.996139 -0.012444 7.61962e-23)
(1.00004 -9.85984e-06 4.20834e-25)
(1.0491 -0.0611818 -3.01827e-23)
(1.01697 -0.00146872 1.09582e-21)
(0.978561 0.0942035 1.24929e-21)
(1.02166 -0.00183977 1.2479e-21)
(0.999744 -0.00021412 6.43356e-24)
(1.00042 -0.000369403 -8.68143e-24)
(1.19101 -0.0422804 -4.11381e-22)
(1.02257 0.00101308 -1.41668e-21)
(0.997133 -0.00037803 4.7595e-23)
(1.00002 -1.33102e-06 1.53771e-25)
(1.05253 0.0748179 -2.7406e-21)
(1.14255 -0.159143 -3.80319e-22)
(1.008 -0.0806835 -3.2777e-22)
(0.986299 -0.000772749 -5.91959e-23)
(0.99998 -2.10315e-05 3.23145e-25)
(0.999746 -0.000201977 -3.77116e-24)
(1.15086 -0.160461 1.08446e-21)
(1.00195 -0.049253 -1.09009e-22)
(1.02938 0.0256796 3.05394e-22)
(0.983353 0.082042 4.79367e-21)
(1.03845 -0.0982401 4.28254e-22)
(0.998832 -8.00517e-05 -8.5064e-24)
(0.999981 -9.79938e-06 -3.81644e-25)
(0.966357 -0.0542232 9.71114e-22)
(0.987417 -0.108905 -1.19959e-21)
(0.999814 -0.000226643 4.34635e-24)
(1.0102 -0.0214792 1.28057e-22)
(0.992671 -0.0264655 -4.34515e-23)
(0.995697 -0.00221061 4.58254e-23)
(0.998157 0.0297622 -4.02677e-21)
(0.998812 -0.00052402 3.04398e-23)
(1.05539 -0.0415608 8.69029e-23)
(1.11648 0.127176 -2.91016e-21)
(0.992785 -0.00322365 -1.34264e-22)
(0.93241 0.0673446 -7.92959e-22)
(0.937816 0.0318561 2.3961e-21)
(0.999972 -4.94045e-05 -1.25681e-24)
(0.999977 -0.00070135 -3.12029e-25)
(0.98376 -0.000959936 -1.40243e-22)
(1.01186 -0.00421577 -2.69909e-22)
(0.963145 -0.00212436 5.31616e-22)
(1.00478 -0.00399041 -1.18617e-22)
(0.99305 -0.00323142 1.25215e-22)
(0.999477 -0.000477893 -1.32085e-23)
(0.965498 0.0856174 -9.38095e-22)
(1.0409 0.045635 -3.43181e-21)
(1.0021 -0.00223853 2.10415e-23)
(0.87586 0.0372379 -1.60068e-21)
(1.00002 -1.19913e-06 -1.04555e-25)
(1.02074 0.00564732 -2.43957e-21)
(1.00482 -0.102405 7.76952e-22)
(1.02851 -0.0747201 2.89292e-22)
(1.00009 -0.000200936 -1.56448e-25)
(0.961287 -0.00117217 4.33686e-22)
(1.01863 0.00490347 1.36359e-21)
(1.01159 -0.00454514 2.23868e-22)
(1.02577 -0.000541178 6.3087e-22)
(0.999587 -3.54629e-05 2.47604e-23)
(0.99956 -0.000477194 1.57023e-23)
(1.02765 -0.0418362 2.51339e-24)
(0.996815 -0.00126057 -1.49991e-22)
(0.988278 -0.011761 -2.47096e-22)
(0.9992 -0.00339965 2.01272e-24)
(1.06128 0.0386656 1.85655e-21)
(0.999884 -0.0202752 -2.07587e-23)
(0.995435 -0.00469819 2.35293e-24)
(0.930309 -0.0306108 -1.24127e-21)
(0.994057 0.0687101 5.46822e-22)
(1.10443 -0.0118214 -7.76742e-22)
(1.0206 -0.00640462 1.00748e-21)
(0.999633 -0.000174718 4.70058e-24)
(0.999531 -0.000311932 2.12309e-24)
(0.983842 -0.0214051 5.93876e-22)
(1.00092 -0.00118671 -2.05878e-23)
(0.997604 -0.000664543 -8.51705e-24)
(0.999981 -2.01461e-05 -1.212e-25)
(0.999711 -0.00183672 4.53833e-25)
(1.01816 0.00452127 -5.29314e-22)
(0.985811 0.0592634 -4.67805e-21)
(0.999882 -1.49608e-05 1.01174e-24)
(1.08939 0.126778 -5.34153e-21)
(0.999996 -3.98214e-05 9.08085e-26)
(0.997011 -0.00272536 6.32658e-23)
(0.999992 -9.12238e-05 1.32364e-25)
(1.00481 -0.00345041 -5.24244e-23)
(1.18208 0.0332185 -5.43318e-22)
(0.999963 -4.11925e-05 1.06108e-25)
(0.999963 -4.43399e-05 7.47387e-25)
(0.948146 -0.048605 -5.69892e-22)
(1 -8.25146e-06 -3.11842e-27)
(1.04665 -0.00688644 1.6696e-21)
(0.990805 -0.0423903 4.47083e-22)
(0.999979 -0.000616697 3.86561e-25)
(1.05446 0.0604064 -2.14205e-21)
(1 -2.83903e-05 -5.22905e-26)
(0.999633 -3.6922e-05 2.16642e-23)
(0.999918 -3.41543e-05 3.60595e-26)
(0.995604 -0.00470804 -3.80929e-23)
(0.999695 -0.00146413 -6.39263e-24)
(0.994249 -0.000304728 -4.34977e-23)
(1.02104 -0.12297 -9.01652e-23)
(0.99973 -0.00142587 4.23802e-24)
(1.00386 -0.00323699 -4.0842e-23)
(0.999977 -2.34821e-06 -6.31065e-26)
(1.01764 0.114407 -7.78275e-21)
(1.05403 -0.0430051 2.15179e-22)
(1.10713 -0.011543 -9.29548e-23)
(0.965898 -0.0063198 5.76693e-22)
(0.978371 -0.00437522 -1.03519e-22)
(0.999171 -0.00366817 5.60545e-23)
(1.00269 -0.002482 5.71023e-23)
(1.03147 0.0545371 9.02775e-22)
(0.985663 -0.0380517 6.85861e-23)
(1.07481 0.092964 1.11684e-21)
(0.957222 -0.0145941 -1.06131e-21)
(0.996902 -0.00263256 -5.97988e-23)
(0.999991 -3.74352e-06 -1.368e-25)
(0.994756 -0.00272307 -8.43377e-23)
(1.00215 0.108741 1.96908e-21)
(1.04749 0.0655061 -4.89951e-22)
(0.98808 -0.0577776 3.76312e-22)
(0.940838 -0.00643496 2.52028e-22)
(1.02111 0.10951 2.08523e-21)
(0.992089 -0.000570625 1.12937e-22)
(0.997773 -0.0940697 6.15639e-23)
(0.999992 -8.69304e-05 2.29768e-25)
(0.989696 -0.0427164 5.64035e-22)
(0.999236 -0.00021588 -3.15882e-23)
(0.885789 0.0628611 -4.64776e-21)
(0.987687 -0.0771933 -8.56213e-22)
(0.99992 -3.05623e-05 1.86782e-24)
(0.937153 -0.0210656 -6.72284e-23)
(0.985767 -0.0404245 3.2222e-23)
(1.02127 0.057841 3.17639e-21)
(0.997638 -0.000725141 -8.05128e-23)
(0.983676 -0.039162 -2.07137e-22)
(0.997988 -0.0102546 -6.48137e-23)
(1.00103 -0.0221817 -6.52454e-23)
(0.998844 -0.000532644 -2.0707e-23)
(1.02052 0.0566577 -3.84371e-21)
(1.07341 -0.167845 8.24086e-22)
(0.983719 -0.0170013 -1.73918e-22)
(0.987601 -0.0146476 3.6001e-24)
(0.98796 -0.00489655 -5.49756e-23)
(1.00477 -0.00189895 -4.78345e-23)
(1.02242 0.107005 8.18802e-21)
(0.983533 -0.0137933 7.92806e-23)
(1.01149 0.0306686 2.08086e-21)
(1.00247 -0.00199947 4.34069e-23)
(1.19118 0.00547728 -2.9967e-23)
(0.949128 0.0689555 7.91543e-22)
(0.991931 -0.00044647 -3.90908e-22)
(0.999791 -3.91791e-05 4.22164e-24)
(1.03044 0.0708021 9.73039e-22)
(0.995182 0.0888837 -7.14275e-21)
(1.02662 -0.0403483 1.59958e-23)
(1.07915 -0.0268349 8.96826e-23)
(0.995945 -0.0129297 -8.43751e-23)
(0.966436 -0.00570532 -3.41581e-22)
(1.05855 0.0994813 3.15816e-21)
(0.964944 -0.0545751 1.68617e-22)
(0.999978 -2.01951e-05 4.24642e-25)
(0.993155 -0.000108857 -1.99367e-22)
(1.00004 -5.48241e-06 4.26694e-25)
(0.995901 -0.000255607 1.48819e-22)
(0.999977 -2.13316e-05 -6.63714e-25)
(0.998562 -0.0143151 1.08179e-22)
(0.999127 -3.55836e-05 1.12691e-23)
(0.997554 -0.00536962 7.55821e-24)
(1.1899 -0.0236041 -4.3724e-23)