/*--------------------------------*- C++ -*----------------------------------*\
  =========                 |
  \\      /  F ield         | OpenFOAM: The Open Source CFD Toolbox
   \\    /   O peration     | Website:  https://openfoam.org
    \\  /    A nd           | Version:  7
     \\/     M anipulation  |
\*---------------------------------------------------------------------------*/
FoamFile
{
    version     2.0;
    format      ascii;
    class       volScalarField;
    location    "13";
    object      p;
}
// * * * * * * * * * * * * * * * * * * * * * * * * * * * * * * * * * * * * * //

dimensions      [0 2 -2 0 0 0 0];

internalField   nonuniform List<scalar> 
30084
(
0.0256892
0.260141
-0.0247038
-0.0941435
-0.00672892
-0.104932
-0.0105796
0.026223
0.00587363
0.000601524
0.019837
-0.0120351
-0.00125321
-4.12382e-05
0.329734
-0.0166103
-0.000359929
0.163892
-0.00594507
-0.0290163
-0.00230879
0.00552291
-0.0249677
-0.00586797
0.81492
0.258552
-0.00135697
0.706174
0.322933
-0.00427308
0.044408
0.132999
-0.139311
-0.016478
0.712771
-0.0151847
0.304838
-0.0751229
0.0160227
0.0154673
0.00132956
-0.0438055
-0.000306562
-0.0342283
0.000125859
-0.00373242
-0.0106689
0.000279593
0.00956122
0.297888
0.00485426
-0.0833585
0.136754
-0.101703
-0.0162407
0.308492
-0.00948201
-0.00237839
-0.0109729
-0.0354698
-0.000127456
-0.00575628
0.179386
-0.012964
0.448858
0.773412
-0.0187094
-0.0230366
0.741824
0.00138524
0.256344
0.605106
0.00704589
0.77714
-0.0215816
0.0765291
0.35133
-0.0676002
-8.62698e-05
-0.0334813
-0.0950296
0.338739
0.0256509
6.07443e-05
-0.00505296
-0.0769794
0.472165
-0.00130525
-0.00120875
-0.140367
-0.0551847
-0.0681564
0.00884288
0.141123
-0.145297
0.485599
-0.0698861
0.00144967
-0.103809
0.368321
-9.30022e-05
-0.0637563
-0.000122709
0.10247
-0.0855773
0.226911
0.532601
-0.00115827
4.05421e-05
-0.124291
-0.139951
0.0432074
1.26192e-05
-0.00402889
-0.000312019
0.59364
0.369482
-0.0315679
0.000125034
0.00808895
0.0760189
0.275246
0.0637844
0.771959
0.00323369
0.0959906
0.171566
-0.025927
0.0115823
0.000163617
-0.0311571
0.341975
0.599179
0.0341649
0.101127
0.0430778
0.532449
-0.0652071
-0.153115
0.359167
0.106207
-0.122364
-0.118702
9.37206e-06
-9.69419e-07
-0.0068982
-0.0099358
-0.108369
-0.0906538
0.248772
0.0745883
0.0380963
0.00133296
-0.000284585
0.351817
0.00158979
-0.0206916
0.515208
0.411407
0.0118822
-0.0912606
-0.091682
0.317041
-8.44497e-05
-1.35236e-06
-0.031759
-0.11524
0.000234597
5.84092e-05
-0.0189069
0.000200845
0.0162106
0.52191
-0.0641815
-0.0831637
-0.0137407
0.00602271
-0.065725
-0.00319977
0.0804325
-2.12695e-05
-0.00377475
0.470124
-0.0216797
-0.153702
0.357668
-0.0171826
-0.0484074
0.0108608
-0.0038924
-0.000690989
0.00763215
0.782329
0.346801
-0.0372342
-0.0198446
0.670546
0.317819
-0.143261
0.00338823
-0.0354215
-0.122573
-0.0114267
0.00249702
0.532162
-0.0182457
0.0194175
-0.109018
-0.127116
-5.47189e-05
0.640822
-0.00275232
4.91233e-05
-0.0014125
-0.0510037
0.208317
-0.000727967
0.0189232
-0.00581334
-0.14293
0.000186093
0.0014263
-0.00627103
0.186961
-0.00760392
-0.00384304
0.130132
0.000454375
0.000118312
0.0148128
-0.0720841
-0.0583384
-0.0128821
0.254011
-0.0397732
0.0398944
-4.33871e-05
-0.00813896
0.00233553
-0.0300299
-0.173756
-0.00369917
0.00141925
-0.00409106
0.00837077
-0.0282973
-7.83647e-05
-0.0661395
0.000228634
0.189548
-0.00916094
0.000504752
0.229739
-0.125054
0.000794095
1.59772e-05
-0.122622
-0.168573
-0.0239922
-0.0292426
0.0746918
0.454006
0.000288993
-0.069257
0.0753745
0.685825
-0.0218684
0.352936
0.0840842
-0.000427817
0.914376
-0.00140366
-0.0893929
-0.141056
0.00643963
0.152909
-0.0225622
0.605808
-0.00944538
-0.047766
-0.000592161
0.43071
-0.00696546
0.492947
-0.00131691
-0.0158309
0.681943
0.166112
0.129808
-0.0839696
-0.000351773
0.00811784
-0.000387195
5.10785e-05
0.190407
0.00014701
-0.0521334
0.0699672
0.822792
0.594311
-0.11097
-0.0486848
-0.0557276
0.0372673
0.00950303
-0.0490186
-0.116346
0.462529
0.608146
-0.00343957
0.52566
0.185549
0.0694646
0.0324538
-0.00341167
-0.0102427
-0.0146936
-0.00726385
-0.000113222
-0.00457006
0.0780158
0.438812
0.00474375
-0.0720337
0.0377462
-6.01349e-05
-0.113593
0.858808
-0.0172928
-0.00364308
0.0345542
-0.0317308
0.252704
-0.00366261
-3.61826e-05
1.24263e-05
-0.00734015
0.68577
0.0790609
-0.171747
1.75003e-05
-0.178168
0.167777
-0.01404
-0.13351
-0.00331656
-0.00113064
-0.0656451
0.00275129
0.0872672
0.0293776
0.315029
-0.000258985
0.00701363
0.272924
0.0789198
0.0013131
0.00138543
0.590628
-0.0544474
-0.00407144
0.330504
0.695614
-0.00478212
-0.0175012
0.213286
-0.00205128
-0.023485
-0.00923018
0.312108
6.26929e-05
0.0283175
-0.0676434
0.601543
0.769298
-0.0166712
-0.0245865
0.459296
-0.0371032
-0.000109052
0.298376
0.196345
0.199292
-0.0196701
0.069345
0.700571
-0.115207
0.642242
0.606301
4.45487e-05
0.0778141
-0.104688
-0.00800704
0.00483106
0.700745
0.0795014
0.000900559
-0.0853923
-0.125462
-0.015513
-0.000256444
0.506296
0.362796
0.00024395
0.011964
0.0157392
-0.0167161
-0.0835745
0.000292873
-2.44813e-06
0.00153738
0.258803
-0.0745927
0.484674
-0.13209
-0.0468658
-0.0591099
0.32479
0.182163
-0.00333127
0.0234374
0.0025714
0.649563
-0.0692287
0.00328148
-0.020927
0.116686
-0.00381458
-0.0338191
0.000771431
0.000785124
0.868499
-0.0225707
-0.0140553
-0.0011386
-0.00199986
0.437252
-0.0661974
-0.0638535
2.23888e-05
4.30597e-05
-0.0715301
-0.0188806
-0.0146298
0.0485348
0.0180201
-0.00644316
0.13066
-0.0483881
0.634018
0.0178947
0.000814023
-0.111021
-0.0620877
0.166541
-0.00934786
-0.0626989
-2.18107e-05
0.746457
0.0545387
0.000335257
0.782271
-0.0662334
-2.33531e-05
0.00439316
-0.113343
0.0443436
0.127206
3.28165e-07
-0.022471
-0.0065293
-0.0150547
-0.00125896
-0.0231715
0.676161
-0.0230621
-0.0326266
0.366063
-0.00794541
0.665437
-2.66695e-05
-0.0424325
-0.110992
-0.0610531
0.0446693
-0.00425679
0.00832254
-0.000323363
-0.0517253
0.0384522
-5.5648e-05
2.97618e-05
-0.0178052
0.627506
0.0237256
0.00755947
-0.144599
1.71786e-05
0.00302382
-7.96825e-06
0.0293349
-0.0481829
-0.00102587
-0.0219621
-0.0345724
0.00315395
-2.81675e-05
0.10365
-0.000997024
0.154504
0.565822
0.464623
-0.010074
0.0177426
0.0711873
-0.000147914
-0.00947316
2.17583e-05
0.611762
-0.037797
0.0478677
-0.047179
0.00577566
-0.00872219
-0.00021964
3.58975e-05
-0.0136047
0.135246
0.419756
0.00380586
-0.099615
-0.0687156
-0.02215
0.248783
-0.00372845
0.00443466
-0.0158023
-0.00019596
-0.116118
0.458248
0.337687
-0.0613826
0.449236
0.000335856
1.90367e-05
0.295682
0.162841
0.772184
-0.0925371
-0.0590144
0.126524
0.00362305
-0.0165034
0.00147141
-0.0296608
-0.0354556
2.664e-05
-0.00249016
0.597292
-0.000293194
0.726556
2.22038e-05
0.145313
0.148583
0.137213
0.00324271
0.000634812
0.615858
0.161304
-0.113431
0.344683
-0.0170991
-0.0367605
-0.0116481
0.459577
-0.0696117
0.0416288
-0.0210234
1.86047e-05
-0.00368649
0.017643
-0.0491914
-0.0599806
-0.113071
-0.049728
0.236671
-0.00611659
-0.139722
-0.0380811
0.00020006
-0.0335394
0.0363677
0.240154
-0.0736383
-5.7345e-06
-0.0501116
-0.000111154
0.00430515
-0.105147
0.483304
0.00282377
-0.0330629
0.000875959
0.167445
0.66543
0.00557029
-0.0113902
0.437916
0.300471
-0.0397793
0.0147176
-0.12443
4.23618e-06
-0.109904
0.000321555
-0.00261131
-5.18291e-05
0.000135248
-0.0150249
0.188136
0.573826
0.0395151
0.0354205
3.92625e-06
-0.0178818
0.000326101
-0.00926129
0.000134247
0.133658
-0.0012934
0.347626
-0.000285033
-0.0354622
-0.0962804
-0.0122186
0.661337
-0.0456497
-0.0921968
-0.0161261
0.116407
-0.106877
0.0772972
-0.0224287
-1.67012e-06
-0.012992
-0.0114268
0.000831417
0.000314586
0.457957
-0.0141667
0.181023
-0.0102492
0.00270058
0.0868011
0.000572946
-3.02269e-05
-0.108525
-0.0100891
0.000143311
0.442738
0.833036
-0.000528287
-0.09269
2.7418e-05
0.709206
0.144053
-0.0934677
0.000244375
0.0422773
0.1441
0.166176
0.125942
-0.00106939
-0.000307407
-0.0419635
1.767e-05
1.10998e-05
-0.0710113
-0.0674076
-0.110824
0.801882
0.000682834
-0.0619984
0.0228108
-2.67227e-05
-0.00340381
0.000207938
-0.016753
0.000172411
-0.0179469
0.0749809
0.658905
0.113233
-0.00072594
0.00148342
-0.0280529
0.177456
-0.00892958
3.98966e-05
0.395509
-0.158999
-0.0900246
-0.0388991
-2.15782e-05
-0.00071933
-0.163815
-0.0500039
0.288827
0.631719
-0.0903221
-0.0035989
-2.18597e-05
-0.11108
-0.139245
-0.000503776
0.0109737
-0.0384403
-0.0134733
0.607435
-0.0036871
0.0290745
0.363063
-0.0219146
0.775382
0.769475
-3.49968e-05
1.86698e-05
-0.0450324
0.0449399
-0.0897446
0.0158371
-0.0212112
-0.00157826
0.690837
0.340448
0.00691453
0.9037
2.12054e-05
0.221402
-0.119311
-0.0591843
0.000371812
-0.0930997
0.228058
0.043114
0.151103
-0.00122474
-0.00131472
0.00173919
-0.00995436
-0.037001
-0.00294206
0.277361
-0.014541
-0.0149491
-0.147567
0.582245
0.0982502
0.0852769
-0.00108047
-0.00140271
-0.0533065
0.00309434
-0.00745057
-1.97046e-05
-0.000908907
0.228677
0.618392
-0.000307833
0.413906
3.09448e-05
-0.0095842
4.17751e-05
0.0161922
0.0918617
-6.26197e-05
-6.46749e-05
-0.134998
1.8871e-05
0.129268
-0.0600729
2.80285e-05
0.35665
3.44932e-05
-0.00107809
-0.000197839
-0.0143747
-0.000961684
-0.0175066
-0.132765
-0.000837523
0.012786
-3.1069e-05
0.566629
0.0250907
0.0982545
-0.0843847
-0.0591721
-0.00311866
0.00884919
0.394939
-0.0643291
0.385676
-0.102764
-0.00990854
-4.53479e-07
-0.0163118
0.599604
0.383646
-0.0828875
-0.12878
0.549846
-0.0236363
-0.114854
4.0609e-05
-0.0626855
-0.00232599
0.882946
-0.106081
-0.00019258
-0.138602
-0.066024
0.439134
-0.00735834
-0.0691753
-0.0101618
-0.0139633
-0.00358948
0.437512
-0.172192
-0.0506951
-0.0400696
-0.0351617
0.0166027
0.542048
-0.0493652
0.345214
0.00824171
0.0512176
0.736012
-0.0240454
-0.000586473
0.446204
0.600438
0.00368498
0.0705157
-0.0178599
-0.0833529
0.43707
-0.112311
-2.59102e-05
-0.0206394
0.000139599
-0.0126516
-2.87568e-05
-0.0118956
-0.00266791
-0.00874819
0.0059252
-0.00162599
-0.00135023
-0.00293711
0.37255
-0.00580135
-0.00912821
-0.008272
0.324421
0.0154422
-0.000903852
0.594643
0.759971
-0.0513911
0.691607
-0.0453037
0.562678
0.015842
-0.0217595
0.00760671
-0.00120243
6.7066e-05
0.00758696
-0.0311935
-0.051373
0.33891
-0.0593183
-0.0521453
-0.00248706
0.0245059
-0.060009
0.0189249
-4.95132e-06
0.0405653
0.310937
0.59807
0.0889366
-0.0345204
0.276116
-0.000791691
0.0939774
-0.0462803
0.00203495
-0.136772
0.0103037
0.562994
-0.00556952
-0.00138391
-0.000160721
-0.111205
-0.00317603
0.887563
0.914631
0.0324571
-5.88017e-05
0.0227893
-2.31867e-05
0.174374
-0.00136016
0.0585975
0.825486
0.173
7.14705e-05
-0.0210739
5.72592e-05
-0.176111
-0.0883607
0.689097
0.000713349
0.0313044
0.0103666
0.000872502
-0.00593438
-0.000719321
-0.0154757
-0.0856283
-0.0581506
0.0224737
0.349798
-0.0337042
0.0171386
-0.0511599
-0.00428046
-0.0674032
4.58184e-05
0.000163426
-0.00559243
0.0741295
-0.0621895
-0.0398131
-0.00930283
0.00724885
-0.0181455
0.472118
-0.0323469
-9.36462e-07
-0.131446
0.641779
0.0313719
-0.0302417
0.212307
7.03226e-05
-0.00163581
-0.0712798
-4.26971e-05
-0.00104738
-2.59504e-05
0.903649
0.0230738
0.00953385
1.79429e-06
9.29581e-06
3.58867e-05
1.21627e-06
-0.0567496
0.603306
-0.0877261
-0.00103917
-0.000335967
-0.0120556
0.684195
-0.111291
0.638392
0.101108
0.266216
-0.000144398
0.67707
-0.0054294
-0.0231918
0.0702606
0.0255063
0.02834
0.342781
-0.100899
0.669635
0.505032
-0.0196378
-0.065822
0.0246292
-0.072247
4.15185e-05
-0.00219769
0.00707273
0.152145
-0.0160346
-0.0569919
-0.00782502
0.798621
-0.128973
-3.47614e-05
-3.76092e-05
0.695539
-0.012035
0.00818434
-0.0322436
-0.00542015
-0.0366831
-0.0235333
0.0440418
0.243132
0.107104
-0.0242542
-0.0341567
0.000298853
-0.0139227
-0.00155226
-0.0192315
-3.46441e-05
0.000206413
-0.0316148
-0.0481484
0.663358
-0.0219269
-0.000349405
-0.00349288
-0.000660278
0.591157
0.035443
-3.73249e-05
-0.0591386
-0.0107709
-0.00827795
-0.0661375
-0.0783372
0.0164073
0.134842
-0.122156
0.000265416
0.0143023
-0.0321578
1.69337e-06
-9.96976e-05
0.223003
0.175882
0.103354
-0.117989
-0.108755
0.00136029
0.723594
0.000309229
-0.031839
0.61567
-0.0406861
-0.0859372
1.42448e-05
0.000495167
-0.0851396
-0.0221083
0.00340042
-0.0779382
0.406613
0.499336
0.00170979
0.000725383
0.401076
-0.0295093
6.99465e-08
-0.00327616
-0.0665325
-0.0492063
-0.0209109
-0.00289175
0.417577
4.97929e-05
0.15598
0.479626
0.000147919
0.0322417
-0.000920508
-0.126862
-0.0317971
-0.00142052
0.059712
0.000594004
0.402615
0.00336552
0.0492172
0.0811403
0.823805
0.571963
-0.126907
-0.0159495
1.35243e-05
0.128733
-0.0293876
0.295254
0.545581
-0.0774573
0.0210946
-0.0349201
-0.0132009
0.263964
-0.00034061
0.683375
0.0548997
0.000152163
0.000149265
0.000289491
-0.0264825
-0.0365234
0.00170381
0.183962
0.259607
-0.116693
0.00147918
0.000221579
-0.046643
-4.79323e-05
-0.00559306
-0.0220183
-0.00108741
0.143703
0.00961852
-0.00257229
-0.00742792
-0.0315501
0.572127
0.586204
0.0770453
3.87931e-05
-0.000966286
0.424964
-0.000786531
-0.0952317
-0.000323645
-0.0390582
-0.139052
-0.000296034
-0.000370588
-0.0620718
0.00301567
-9.61971e-05
-0.00244433
0.376202
-0.0684018
-1.76873e-05
0.17987
0.561122
0.580608
0.00144138
-0.106365
-0.018072
0.638448
-0.122421
-0.125165
0.00938044
-0.025066
0.0574843
-0.0499589
0.580092
0.180407
-0.000234167
-0.105736
-0.144778
-0.00712674
2.09233e-06
-0.00322933
0.360392
-0.000259425
0.0205669
-0.00747877
-0.00214085
0.0176342
0.0550851
-0.000247769
-0.000176931
-0.00972077
-0.122839
-0.0682623
-0.133176
0.40551
-0.00188719
-0.000423305
-0.0672204
-0.045875
0.0198302
0.025896
0.000262842
0.134943
0.264395
0.0358345
0.0477506
-0.00107793
-0.0255028
0.150373
0.00263887
2.90787e-05
-0.0170437
-0.00753257
-0.00126594
-0.0206653
-0.00148224
0.469057
-0.0170887
-0.169895
-0.0449491
-0.0203433
0.0224564
0.706468
-0.085002
-0.000138782
0.673599
0.291556
0.0148662
-0.0110199
0.0144752
0.0999613
0.277747
0.0007577
-0.00414351
0.822933
0.470045
0.538421
-0.0844174
-0.00251302
-0.00219255
-1.97454e-05
-0.0023154
0.503604
0.151583
0.0110836
-0.00450496
-0.00054844
0.0511229
0.777495
0.61472
0.146875
-0.00519888
-0.124298
-0.00638834
-0.00124288
-0.0335633
0.0332509
-0.0520904
-0.00652374
0.00190829
-0.14865
-0.127154
0.0564193
-0.0463306
-0.00246956
-0.0494534
-0.000304758
-0.0128743
-0.00118137
0.558985
0.00016216
9.23279e-06
-0.0314697
-0.0374087
-0.0547311
0.0727506
0.00021368
-0.149194
0.131086
0.339734
0.875652
-0.00852231
-0.115071
0.0582832
-0.00374592
0.183605
-0.00101039
0.0200492
-0.000261622
0.454044
-0.0054271
0.0203304
0.26072
0.208574
0.00298737
0.00665311
1.22814e-05
0.64419
1.8964e-05
-0.0867362
0.000735952
0.0034328
0.321126
0.186071
-0.125248
-0.0745072
-0.00739517
0.910259
-0.133236
1.40697e-05
-0.02899
6.54736e-06
-0.0204747
0.189634
0.338497
0.00180705
-0.0665556
-0.017488
0.261294
0.17253
-0.0613393
0.80571
-0.0183807
0.000173702
-0.127374
0.83113
0.00483416
0.167859
-0.0808727
0.276994
0.00369368
0.0733366
-0.148657
0.0118775
0.101557
-0.0288353
0.379741
-0.0491307
-0.03608
-0.00135895
-0.00137489
0.733381
3.07875e-05
-0.00909082
-3.18484e-05
-0.014965
0.000766166
-0.0133375
0.44454
1.88085e-05
-0.00177594
0.270384
-0.165238
-0.0402563
0.00234005
0.619684
-0.0862384
0.2986
-0.0221247
0.273812
0.0141775
-0.00126176
0.0307113
0.00158048
0.750582
-0.0492302
-0.000127844
0.00438783
0.251524
-0.0208522
-0.00117179
-0.000148152
-0.126915
-0.00468836
-0.017835
-0.130884
7.90536e-06
-0.132404
0.000943677
0.557058
-0.0186632
0.264393
0.00894979
-0.0066758
0.45965
-0.0848609
-0.119215
-0.00783018
-0.130701
0.472172
0.498283
-0.0261328
-2.29021e-05
-0.0287715
0.00884472
7.41272e-05
0.158378
0.593938
0.0237161
0.00311589
0.0240218
-0.1347
-0.000243451
0.15923
0.0962816
0.148516
0.0250313
0.0520579
-0.000624663
0.306463
0.0127591
-0.170421
-0.00174003
0.0464321
0.262251
0.00162767
-0.139293
0.372363
-0.0656837
-0.140975
-0.146717
-0.0974155
-0.102539
0.0980141
0.371647
-0.134908
3.83367e-05
0.00184161
0.0327028
-0.00318837
0.0265688
2.79386e-05
-0.0105604
0.00759013
-8.35097e-05
0.105232
-0.000846395
0.21663
-0.0600732
-0.00778674
-0.0127432
-0.0159327
-0.121199
-0.010855
-0.00171694
0.0397934
0.14649
0.00919362
-0.0627064
-0.00537165
0.0562999
-0.0176125
-0.0360961
-0.144013
-0.0297552
-1.45882e-05
-0.0284766
0.671623
0.000106311
0.304816
-0.0488763
0.79058
0.090839
-0.0897946
5.44679e-06
0.00331416
-0.149404
-1.88247e-05
-0.00491524
-3.57186e-06
-0.129922
0.00865575
-0.120193
-0.043406
-0.000176172
0.453126
0.436693
-0.066998
0.00094964
-0.000244841
3.40662e-05
-6.87868e-05
0.726283
-0.00233867
0.00443113
0.0407887
0.00191671
-0.000995326
-0.147188
-0.00031347
0.0921372
0.00780957
-0.00375915
-0.0012557
-0.0487285
-0.0785694
0.318926
0.215496
-0.000236773
-0.0246176
0.0011398
-0.0452217
-0.000795184
0.253647
-0.0128282
0.911535
-0.0203893
-0.00259304
0.138046
-0.0357436
0.55128
-0.0798137
-0.0212277
-0.0244201
0.0343865
-0.00660908
5.04159e-05
-0.0155439
0.500526
-0.0842548
-0.00598431
-0.0800443
-0.0515483
0.266534
-0.000847179
0.464636
0.00186121
-0.11857
-0.000890703
0.0251856
0.0872929
0.000670576
0.543548
-0.000779381
0.0615266
0.161231
0.00109304
-0.000160022
0.774218
0.143166
-0.000504228
0.056948
0.0493176
0.000335305
-0.0473297
-0.0417004
-0.162763
-0.0190507
0.530859
0.00861691
0.346235
-0.000655144
0.615924
-0.137527
-0.00994454
0.0119209
0.0587987
-0.115491
-0.105956
-0.0161971
0.000162467
0.839637
-0.0430436
0.00167691
-0.00362745
-0.0762455
0.552077
0.00584951
-0.0309908
-6.56317e-05
0.196932
0.0154648
-0.0738465
0.00166317
-0.00648166
-0.0538028
0.000102008
-0.100246
-0.00282692
-0.0281147
-0.124146
0.468994
-0.019423
0.139842
-0.052941
-0.0582547
5.37898e-05
0.000367093
-0.00697605
0.000105626
-0.021386
0.118389
-0.00378227
5.35358e-05
0.754378
0.00971352
0.000764732
-1.70292e-05
-0.0039197
0.536096
-0.103103
0.840778
0.323635
0.043008
0.464645
3.59647e-05
-0.0265742
-0.00148178
-0.00459954
0.337105
-0.0188218
0.846388
0.431987
-0.108641
0.443855
0.0178844
-0.0270195
0.00441236
-0.0488674
-0.0074804
-0.100521
-0.109947
-0.00564249
0.440618
-0.0189031
0.000343327
-0.00811721
-0.00116482
-0.0668093
-0.000241389
-0.00227732
-2.64105e-05
0.283829
-0.0973532
0.453249
0.0552223
-0.00512114
-0.0592005
-0.0380056
0.134709
-0.00575657
-0.00191547
-0.128348
-0.0864217
0.0252961
-0.0835975
-0.00852719
0.0336262
0.00665252
0.000124542
0.252459
-2.11017e-05
0.105975
-0.00143119
1.06744e-05
0.00393392
-0.00116857
-0.00222304
-0.0303737
0.331042
0.264726
-0.0386049
-0.0241697
0.00570585
-0.00980669
-0.0196277
0.000205166
-0.000838392
0.00144475
0.207795
-0.0160687
-0.107893
-0.0847558
-0.00382375
-0.0369872
-0.0166092
-0.0031764
0.0103462
-0.0240189
0.414213
-0.124534
0.0124604
0.00524668
-0.0722277
0.827862
-0.0191614
-0.00735452
0.015095
0.152013
0.00786322
0.00277122
0.442776
-0.000614918
0.0860451
-0.0420385
-0.088312
0.0123098
-0.00703758
-0.0105797
0.0787165
-0.00687159
-0.00108316
0.00515246
0.00510785
-0.000353828
0.0733896
-0.0180213
-0.00380609
3.32904e-05
0.286886
-2.31797e-05
-0.056395
0.147237
-0.0430442
0.000394455
0.205279
-0.0626724
0.306946
4.699e-06
-0.00741041
0.233917
0.000417235
0.00966781
-0.00861146
0.0202061
-0.0399636
-0.0630108
-0.0158184
-0.00505847
0.0191772
0.0395248
0.256795
-0.000289028
0.213271
-0.0782977
-0.00620719
-0.0133611
0.000868988
-0.0900011
0.000193495
0.677011
0.398919
-0.000846726
-0.0407981
0.000526187
-0.00404276
-0.00961061
-0.022286
0.284425
0.32526
0.0629233
0.0197286
-0.14395
0.0753156
0.147995
0.175909
-0.0999617
0.0372177
0.384091
-0.0183838
0.59756
-0.00165652
-0.0210671
-0.0906455
-0.000105165
-0.00133023
-4.54641e-05
0.593434
-0.0198725
0.000623302
-0.0297774
-0.00774446
-0.00053652
-0.0253224
0.486037
0.00206533
0.021336
-0.0524211
-0.000737169
-0.00871242
-0.00142467
0.856445
0.000481
7.83503e-05
-0.00344963
-0.0266974
0.246554
0.00116512
0.0385133
0.147006
-0.000168534
0.00421168
-0.142899
0.193745
-0.0549279
3.59233e-06
0.000780081
0.0286377
0.0619921
0.509145
0.171239
-0.0669615
3.97838e-06
-0.0873158
-0.00489706
-0.023733
-0.0229237
0.312267
0.653868
-0.000145044
0.266857
0.406782
-0.0184921
-0.00417398
-0.0413939
-0.0171579
0.000278726
-0.0772382
-0.0160801
-9.32369e-05
-0.000902722
-0.00285542
-0.00348014
-0.00115365
0.501913
0.541843
0.378933
-3.25728e-06
-0.0444074
0.132822
0.194509
0.684703
-0.000825366
-0.0384111
-0.035077
0.521537
-0.0361677
-0.0175689
0.0269666
0.272745
0.00068407
-0.000786919
-0.045925
-0.0644382
0.280929
0.116541
-0.0701374
-0.0425431
0.257099
0.0396492
-0.0909215
0.0134172
0.139182
0.304742
-0.000539666
-0.00104867
0.220024
0.000467701
0.0930097
0.0594777
4.1871e-05
0.500441
-0.0196357
-0.00829231
0.873581
-0.0699473
-0.0142844
-0.071716
-0.00443032
0.648542
0.0023267
0.82954
-0.000166303
0.000190108
0.845889
0.013146
0.647086
-0.0107563
9.37875e-05
-0.0351623
0.664196
-0.00283815
-0.0124527
-0.0151959
-0.00176145
-0.039646
0.66168
0.21494
6.16359e-05
0.03917
-0.00692252
0.0569405
-0.00154579
0.0435035
-0.00482595
-0.000732147
0.632083
0.677506
0.637505
-0.0981946
0.16108
0.000371162
-0.108898
0.463031
0.0343795
0.000567883
-0.091308
0.00122667
-0.000137413
0.671974
0.000311815
0.00819322
-0.00347623
-0.016626
0.642948
0.664991
0.679116
0.0227519
0.00104414
0.368318
0.0144408
0.0548339
-0.0170716
0.00018251
-0.00539922
-2.1037e-05
-0.00842135
-0.00127316
-0.0105696
-1.6849e-05
0.265245
0.00414239
-0.116318
-0.0169256
-0.13623
-0.030585
-0.001328
0.558896
-0.0201794
0.000118664
-4.60684e-06
0.817993
8.29145e-05
0.0216927
0.114413
-0.033735
0.495827
-0.00969426
-0.0820518
-0.0690631
-0.000737342
0.000309323
0.420394
0.676138
-0.00275257
-0.037615
-0.000357225
0.672023
0.792437
-0.00255351
-0.011909
0.0364018
0.00607942
-0.0457281
0.000239355
0.0192353
-0.0704111
0.115861
0.566693
-0.00265793
0.0536067
0.243371
0.130348
-0.083728
0.0535896
0.771507
0.337867
-0.102117
0.681657
-0.000962611
0.683857
-0.0125785
0.57987
0.153987
-0.00935085
0.0782358
0.0046964
0.0332591
-0.139299
-0.00113347
-0.0435227
0.584308
-0.0482844
0.0587844
-0.00261323
0.085409
0.32934
-0.0169936
0.0842176
0.00146345
-0.00656788
-0.0445116
-0.00387861
0.00393258
-0.0164007
-0.000821234
0.00471761
0.575722
0.00438791
-0.0297237
-0.10741
-0.0537649
-0.120692
-0.132836
0.0080605
3.85075e-06
8.28402e-05
0.432356
-0.0893749
0.000161199
-0.0308128
0.302218
-0.109498
-0.0275844
0.000282773
-0.00337438
-0.0867568
0.270726
-0.0145933
-0.000780022
-0.086566
-0.0354019
0.848031
0.194537
0.131277
-0.0885784
3.16565e-07
-0.0123482
0.117624
-0.000573037
5.59141e-05
0.292811
0.185333
0.00126589
-0.00145862
0.018194
-0.0596318
0.0195939
0.0162716
-0.027785
0.000145214
0.493434
0.00121047
-0.000956521
-0.000327165
-0.000324563
-0.000194746
0.145425
0.00195451
-0.00501049
-0.0174663
-0.00815038
0.0536538
-0.00978311
-0.0768921
-0.0189717
0.623104
0.527769
-0.000778001
-0.00253279
0.179572
-0.00136464
-0.0348568
0.155138
0.227173
-0.00164158
0.0377603
0.0731013
0.00261188
0.2205
-0.000108385
0.01379
0.0156656
0.025823
-0.0262007
0.0873977
0.000196045
0.00219224
0.000647927
-2.15478e-05
-0.00247144
-0.0175199
-0.0231644
-0.0526223
0.145334
0.0748886
0.0168228
-0.106635
0.0235318
0.016635
0.0241499
0.00015527
0.66111
-0.014771
-0.00575684
0.0335011
0.858374
1.95167e-05
0.188474
6.62391e-05
-0.0108255
-0.0114275
-0.0384026
0.290966
-0.00701154
8.1153e-05
0.350843
0.12503
-0.000873771
0.0917534
1.47912e-05
0.267389
0.0145808
-0.0497806
-0.000163166
0.401292
0.0513205
-0.0365178
0.000136664
0.278079
0.490367
-0.00186637
3.02751e-05
-0.0642702
-0.015955
0.0251033
0.0507652
0.687394
0.420359
0.000979988
0.538416
0.410677
-0.00488669
-0.101632
-0.0547218
-0.025717
-0.0870543
0.296845
0.00159447
0.713825
0.259953
0.0225308
0.000285413
0.00125868
2.72036e-05
-0.000852998
-0.0047507
0.762329
7.25974e-05
0.134691
0.0478641
-0.000307671
0.714618
0.793591
0.322209
0.365385
0.0933226
0.004543
-0.000394612
-0.0192783
1.20204e-05
-0.00179264
-0.167822
9.3671e-05
-0.00264403
0.728433
-0.0202562
-4.64338e-06
0.751429
0.000936333
-0.0629657
-0.123702
-0.0021531
-0.122726
-0.000324888
0.294331
0.00605318
-0.0275964
0.00355029
-0.00099691
-0.00055628
-0.000297271
-0.179309
-0.106303
0.248822
0.00517554
0.00059189
0.387875
0.000191174
0.828924
-0.000739226
-0.155606
0.00411254
0.00300441
0.087586
0.092787
6.79696e-05
-0.0069931
0.000262871
-0.00104703
0.00161131
0.141715
0.0838423
0.497172
-0.0605819
-0.000114298
0.000379313
0.163436
0.550823
-0.00759786
-0.0107892
0.825281
-0.00466972
-0.0359185
0.00187085
0.159979
-0.0541407
-0.0146812
0.253925
0.00247694
-0.000310009
0.00303247
0.0797147
0.819978
0.658008
-0.0420448
-0.0585142
-0.0108837
0.00287303
9.92282e-05
0.126585
0.335877
6.64988e-05
-0.0124973
-3.74148e-06
0.000335692
0.626292
4.86477e-07
-0.123563
-0.089076
-0.130406
0.118613
5.09928e-05
0.0175483
-0.0102792
0.584368
0.0494438
0.00885696
-0.0523121
0.00123171
0.549185
0.327877
0.0199114
0.111597
0.736816
-0.110933
-0.0978428
-0.00313923
-0.0120064
-0.000512727
0.0538503
3.80813e-06
0.265942
0.00522964
0.335178
-0.0583055
2.9018e-06
0.104105
-0.00019299
4.50293e-05
-0.00115757
0.808825
0.7787
0.50924
0.000156193
0.331796
0.681895
-0.00154534
0.00437595
-0.0144874
0.177105
0.670334
-0.0477226
0.199213
-0.0040901
-0.115035
-0.13054
0.886084
-0.000916523
0.658166
0.14684
0.301682
0.000336456
0.000459084
0.00958767
-0.0152953
0.142071
-2.46639e-05
0.000173321
0.645845
-0.127455
0.000629706
0.673928
-0.00381446
0.000363525
0.56812
-0.0105728
-0.00243167
0.112425
0.292517
0.000644194
-0.000132761
0.00629837
-0.00681623
0.642998
0.804831
0.461256
0.864451
0.265248
-0.0809202
0.74296
-5.75905e-05
-0.00533479
0.29633
-0.00570988
-0.00099746
-0.000112535
0.673428
0.0769611
-0.000982097
0.784249
0.12514
0.430146
0.0746147
-0.00450795
-0.0352901
0.280659
0.130077
0.675016
-0.0382852
-0.00120819
0.623255
0.59459
0.0237355
0.502903
-0.0640888
-0.0132747
-0.0154938
-0.000968859
-0.000157788
0.628877
-0.107174
0.0919386
0.00184155
0.254762
-0.0547195
-0.0210302
-0.00147066
-0.00575595
0.695575
-0.00123337
-0.0295553
-0.00496347
0.688934
-0.0323893
0.0342738
-0.0127029
0.00253538
0.245419
-0.0378809
0.706808
0.281244
0.862255
0.380116
-0.106366
0.05274
-0.00287303
0.0436704
0.0508345
0.651052
0.690628
0.763105
0.505924
0.634429
-0.000483768
0.726587
-5.83918e-07
0.000177775
-0.0831774
0.781423
0.0838398
0.393548
0.000139983
-0.00352777
-0.0039456
-0.0554158
0.640114
-0.00103522
-0.0130144
0.508805
0.00189865
-0.00706044
0.83784
0.0792548
-0.0564827
-0.0897715
-0.000774462
0.182565
0.278271
0.872439
0.235511
0.144936
0.00775795
-0.00031601
0.00420981
0.299617
0.0123991
0.00029314
-0.0623516
0.366534
-0.0023628
0.662353
-0.110071
0.668082
-0.0116704
-0.038559
0.73906
-0.00891669
0.147913
-0.000562337
-0.00208437
-0.113508
-0.0383042
-0.0627511
-0.0163481
0.0377206
-0.073973
-0.124156
0.668687
0.000563638
0.00141659
-0.0338418
0.197991
-0.0949292
-0.101758
6.06393e-05
-0.064376
0.0795718
-9.48633e-05
-0.11787
0.0992691
0.67185
-0.117882
0.663006
-0.022978
0.214198
0.373268
-0.059979
0.503236
-0.00274175
0.205324
0.00291892
0.137569
0.306125
0.267251
-0.0474826
0.0105637
-0.000929481
0.272818
-8.86313e-05
-0.000141239
-0.001618
0.0348144
0.0313468
0.0253739
0.57425
0.260003
0.818107
0.536912
-0.00242359
-0.0559631
-0.000181098
-0.0799293
-0.00175427
0.00984361
0.00119454
-0.050327
0.486753
0.655023
-0.000400226
6.02843e-05
0.135261
4.70614e-05
-0.0152151
-0.000202729
0.227463
-0.0602446
0.282005
-0.125306
0.000135687
-0.0232508
-0.0672455
-0.0384164
-0.0273461
-0.0903409
0.121753
-0.000204252
-1.0409e-06
0.00362561
-0.000133659
0.145434
0.224231
0.0670545
0.766014
0.0750415
-0.155203
-0.151562
-0.000604774
0.0830562
-0.000119603
0.628217
0.156055
0.722057
0.000330197
-0.054568
-0.0112062
0.0849189
0.358729
0.587118
-0.0124424
0.0633949
-0.00305508
-0.0292496
-0.0131919
-0.00999476
0.166066
0.00277683
-0.0112505
-0.0336931
0.415589
0.121461
1.71124e-05
-0.00133691
-0.0101716
-0.000894399
0.198288
-0.000987458
-0.0345072
0.247214
0.000183555
0.389546
0.000203594
-8.72146e-07
-0.138892
-0.0220197
0.000357264
-0.0374184
0.00039537
0.751792
0.0207423
-0.0407134
0.697977
0.194482
-0.0527726
0.565453
-0.00441756
-0.00293937
-0.00329826
0.142796
0.915624
-0.00231773
-0.000843387
5.60318e-05
0.0131239
-0.00192507
0.041419
0.0102632
-0.0348823
-0.0996925
0.0307003
0.0182414
-0.0307527
-0.00076892
0.0330927
0.573706
-0.00282846
-0.0227359
-0.000292845
0.57466
0.0924291
0.566849
0.000815542
-0.00126333
-0.038952
0.766696
0.222185
-0.0470376
-0.000141722
0.0521414
0.197782
-0.00944826
0.310963
-0.08078
0.0347795
-0.160053
0.586209
-0.0242123
0.363777
-0.00507302
0.872554
-0.0691914
-0.018097
0.708048
-0.0721064
0.248358
-0.174009
0.271235
0.0107618
0.0813489
0.467684
0.0803793
-0.081467
-0.0158873
-0.0121694
-0.0123596
0.0425951
-0.00218736
-0.0924909
-0.0473721
0.00344551
-0.111459
-0.140025
-5.53825e-06
0.26425
-0.0149271
0.281326
0.719322
0.533918
-0.0909075
-0.119326
0.000891606
-0.0938689
-0.006439
0.845271
-0.0588331
-0.0506324
0.526486
0.0767197
-0.064628
0.374226
-0.0617254
-0.000904311
-0.019257
0.0167299
0.00125781
0.550964
-0.00430862
0.213085
0.507887
-0.00931317
0.346526
-0.13055
-0.000519464
0.0112116
0.170036
0.516743
-0.0040146
0.14659
-0.115401
0.125611
-0.0378928
0.535943
0.0330576
-0.038848
-0.00439195
0.00038008
0.65906
-0.00386792
-0.0377075
-9.84455e-05
0.304614
-4.56933e-05
-0.0686666
-0.00031059
-0.114569
0.0012335
-0.0162379
0.328987
-0.00626299
0.0016454
0.00119573
-0.00661344
0.128385
-8.44507e-05
1.0679e-05
-0.0139035
-0.0173043
-0.036792
0.0135082
-0.00299573
0.11928
0.124135
-0.00194408
0.00179903
-0.000220101
0.651489
-0.00678803
-0.0111773
0.578225
-0.0300587
0.541961
0.091466
0.665923
0.333649
0.179522
-0.00231204
0.00909264
0.12787
0.0406053
-0.00705026
0.000393908
0.0140117
-0.0835491
-0.00144167
-0.0135698
-0.0130999
-0.0146322
-2.33216e-06
-0.00523847
0.000160545
-7.69454e-05
0.00154864
0.479381
0.332932
-0.0181476
-0.00447445
-0.0815067
-0.0343665
0.411855
0.599656
-0.0889433
0.00350596
0.304876
-0.0016862
0.0011122
-0.122769
3.53188e-06
0.184981
0.248471
-0.000959159
-0.0590479
0.00043061
-0.012987
-0.0126471
0.123314
0.0379278
-0.0876073
-1.73231e-05
0.017881
0.003011
-0.0561463
0.0093582
0.676922
0.000714419
-0.00628999
-0.0526885