/*--------------------------------*- C++ -*----------------------------------*\
  =========                 |
  \\      /  F ield         | OpenFOAM: The Open Source CFD Toolbox
   \\    /   O peration     | Website:  https://openfoam.org
    \\  /    A nd           | Version:  7
     \\/     M anipulation  |
\*---------------------------------------------------------------------------*/
FoamFile
{
    version     2.0;
    format      ascii;
    class       volScalarField;
    location    "22";
    object      p;
}
// * * * * * * * * * * * * * * * * * * * * * * * * * * * * * * * * * * * * * //

dimensions      [0 2 -2 0 0 0 0];

internalField   nonuniform List<scalar> 
7807
(
0.283526
-0.0128188
0.397993
0.254179
-0.00101108
-1.36938e-05
0.390572
-0.00578022
-0.000117052
0.101587
-1.34257e-05
0.00209228
-0.008818
0.0481633
0.105894
-0.0171795
0.295538
-0.0118549
-0.00141551
-0.100624
0.0659085
0.00128962
0.0340257
0.197438
-0.0155968
0.292006
-0.000938315
0.0603508
0.165348
9.81711e-05
-0.0217586
0.53409
0.0333477
-0.000465755
-4.88574e-05
0.0824135
0.000312771
0.378776
-0.00730523
-0.000225455
-0.00698829
-0.0162721
-0.107541
-0.0615374
-0.000109285
-3.84738e-05
0.00127068
-0.00729268
-3.65781e-05
-0.0999205
0.00338747
0.0569126
-0.0198158
-0.0136277
0.0815397
-0.00548055
-0.00114475
-0.0056239
-0.0323016
-0.000463136
1.53295e-05
0.00451478
0.048473
0.00236762
-0.000755147
-0.0217709
-0.000100112
9.89106e-07
0.0956686
-0.00683329
-3.52048e-05
-0.0705413
-0.0151691
-0.0261578
-0.0115346
-0.0467133
0.393546
0.0643909
0.0556882
-0.0694266
-0.00854003
0.336992
0.0978147
-0.0292846
-0.00205937
-0.00207833
-0.00643197
-0.0193501
-0.000872802
-0.0042325
0.169401
-0.0675254
-8.15254e-05
-0.000662261
-0.00363543
-0.0246754
-0.0674833
-0.0103809
-0.00217331
-0.00094071
-0.0482593
0.0647405
-0.00349642
-5.32739e-06
-0.0551442
0.175728
0.454503
-0.00574021
-8.52518e-08
0.0286975
0.239743
-0.0722045
-6.43265e-07
0.0307838
0.175618
0.000261537
-0.0900764
0.139992
-0.0511735
-0.0277375
-0.0475562
0.321098
-0.102315
0.010356
-0.0461386
-0.00122789
-0.0186894
1.80331e-06
-0.000798516
-0.0215524
-0.122228
0.0559014
-0.000618144
-0.000988422
-0.0300472
0.231404
0.384468
-4.65483e-06
0.00846062
-0.0633434
-0.0241515
-0.066153
-0.0482339
-0.0251494
0.454511
-0.0340576
0.166849
-0.033434
-0.0328387
0.320604
0.0782888
-0.0571425
-0.00197703
0.0736494
0.0973083
0.355342
-0.0547225
-0.00849571
0.464022
-3.18227e-05
-0.00153585
0.204773
-9.93108e-06
-0.0036261
-0.00408413
0.252767
0.253308
0.482799
-0.00385416
-0.00296369
1.13624e-06
-0.0435403
0.000258489
-0.00513901
0.0093068
-0.0323726
-0.031541
0.157648
-8.72059e-05
-0.00056165
0.26049
-2.7569e-05
-5.20336e-05
0.395739
-0.0184599
-0.0596124
-0.0485919
-0.0257108
-0.0375789
-0.0635455
-1.0163e-05
-0.064506
0.165344
-0.00364061
3.16316e-05
0.205125
-0.00113891
-0.0202693
-0.0354315
1.86274e-06
0.000488441
0.236667
0.196608
0.352214
-0.0827048
-0.0662731
-0.145367
0.0661619
0.232428
-0.000117968
1.35003e-05
0.427251
-0.014709
-0.000616811
-0.0621499
-0.0196613
0.325273
0.33021
-0.0713788
0.518866
-0.00106738
-0.0114049
-0.0490485
0.0809085
-0.133252
0.250875
0.458823
1.67995e-05
0.0111594
0.149388
-0.00633829
0.136986
-0.000813824
0.51984
0.346256
-0.00621946
0.00106423
-0.000209435
0.161636
-4.41826e-05
-0.0108691
-0.0651524
-3.93358e-05
-0.00214498
-0.000696024
0.162588
-1.17405e-05
-0.00439342
-0.067985
0.52877
0.0467733
0.488474
-1.70302e-05
-0.0380892
-0.000210318
0.370654
0.00431268
0.385857
-0.00116739
0.000305303
-0.00581352
0.0694629
0.000426675
-0.000148233
0.000352748
-0.00672555
-0.0610145
-1.6362e-05
-0.0526909
-0.00391855
-8.88152e-05
-0.000675292
0.377546
-0.00803323
-0.000591636
0.48077
-0.00223788
0.265359
-0.000219182
-0.00698858
2.57822e-06
-0.0438323
0.077326
-0.0206048
-0.0332923
-0.000493772
-0.0863466
-0.016512
-9.83594e-05
0.000338858
-0.00335264
-0.00811295
0.00298682
-0.00174741
-0.028007
-0.0549984
-0.0267391
-0.0471123
-0.0338851
0.352766
0.366103
-0.0015746
-0.0532234
-1.94475e-06
-0.00388235
-0.0247464
0.192055
0.110507
4.67924e-05
-0.00358462
-0.0330261
0.169449
-0.00125842
0.00379454
0.00101838
0.0509553
-0.1395
0.347954
-0.00148128
-0.0153422
-8.08541e-05
0.00323336
-2.53518e-05
-0.0284022
-0.000247026
-0.0014627
-0.0842152
-0.0436927
-0.0048692
0.00991207
-0.000569941
0.0228779
-0.0158999
0.0785398
0.165098
-0.183393
-0.0706165
-0.0169275
0.0054235
-0.0638791
0.491317
-0.0614461
0.0402743
0.509842
-0.00142699
-0.00191152
-0.0689728
-0.00165669
-0.0299155
0.00729587
-0.0027551
-0.00196872
0.158564
-7.8114e-05
0.000404555
3.43652e-05
-0.00343287
-0.0112985
-2.51104e-06
-0.000975468
-0.0308785
0.433711
-0.00441604
-0.0141662
0.430595
0.28686
0.0646428
-0.0397591
-0.0441389
0.00507042
0.245448
-0.0120906
0.299819
-0.0426687
-0.118955
0.198268
0.303878
-0.0480762
0.103194
0.25008
0.276474
0.0643632
-0.00347758
-0.00507988
-5.04458e-05
-0.00587614
-0.0122984
0.000518831
-6.12829e-05
-0.00168247
-0.0851794
0.0895308
-0.0203596
-0.00735292
-0.00397287
-0.0180452
-0.00781336
0.000118604
0.220051
-0.0017637
-2.00255e-05
-7.83171e-05
8.72427e-06
-0.025074
0.153702
-0.00422957
0.0369978
-0.144413
0.369229
0.00207741
0.00739323
-0.00617134
0.365709
-0.00089173
0.345655
0.17044
-6.72278e-05
-0.0452769
-0.00335822
-0.0646422
0.000422995
0.0735768
-0.000763549
0.00678767
-0.000733193
0.148441
0.172105
-0.0668589
-0.0324044
-0.00358504
-0.0360727
0.0694366
0.524718
-0.0786255
0.00364174
-3.55181e-07
-0.0158499
-0.0022057
0.0202088
-0.116248
-0.0677691
0.389525
0.156914
-0.131036
0.216311
0.355316
0.037702
0.000786103
0.260497
-0.00145985
-0.000165509
-0.0174989
4.25983e-05
-0.15978
-0.00640703
-0.0405357
0.00171215
0.208994
-0.00172478
-1.8532e-05
-0.12604
0.00154455
0.0257885
-0.0469334
-0.0584488
-0.00544336
0.150738
0.122663
0.126155
-0.000137256
0.080549
0.0869111
-0.00061957
-0.0198568
0.000463045
0.000924535
-0.0136401
0.00517181
-0.00108086
0.153026
-1.17066e-05
0.000115555
0.0018515
-0.0236368
0.0255063
-0.0366161
-0.0288191
-0.0563392
-0.148458
-0.0014997
0.253241
-0.0678007
-0.00773199
0.520511
-0.0675292
-0.0119169
-0.0284471
-0.0137948
-0.0214388
-0.0120656
0.0355567
-0.0689108
-2.12693e-05
0.0305216
-5.54417e-05
0.348927
0.106749
-0.00556551
-0.0142284
-0.000126141
0.336965
0.325657
0.0608725
0.169852
-0.0727589
0.391138
-6.98648e-05
0.014465
-0.0182937
0.163497
0.471288
0.054342
0.149359
-0.00621338
-0.000148159
0.151361
-0.100632
0.352537
0.0279343
0.219723
-0.00804972
0.372704
0.309966
-0.0105199
-0.00893214
0.124187
-0.0600092
-9.03789e-05
-0.0153915
-0.0623254
-0.0821243
0.013528
0.0103723
-0.000129475
0.330543
-0.0047829
-7.16724e-05
-0.0495183
-0.000508857
-0.000159351
0.000747365
0.226111
-0.111679
0.44449
2.85792e-05
0.225007
-0.04041
-9.38356e-05
6.83951e-06
0.1629
0.215782
-0.00483949
0.193442
9.94243e-06
0.20479
-0.17664
-0.0108871
0.368543
-0.0588967
0.159148
-0.0267962
0.203598
0.213885
-0.0200669
-0.0255512
-0.010057
-0.00290318
-0.000184291
-0.004725
0.283192
-1.92308e-05
0.195519
-0.109831
0.312741
0.18509
-0.0627463
0.443249
-0.00180275
-0.0027996
-0.0704044
-0.0214973
-0.0076995
-0.044076
0.0306829
0.494632
1.81581e-05
-0.00211656
-0.0695296
1.74658e-06
0.357579
0.00159603
1.27739e-06
0.000108873
0.000256892
-0.0267003
0.0195082
-0.00162841
-4.3053e-05
-0.0080289
-0.000808859
-0.125208
-0.0531425
0.0263275
-6.14e-06
-0.176605
-0.0143912
0.129614
0.30283
0.000365428
0.134499
8.00291e-05
-0.0139391
0.0913826
-0.0079414
0.245511
-0.0154308
0.0186475
0.0950158
0.154436
0.00100095
-0.011656
0.18872
-0.0956004
0.379207
-0.0108921
0.279711
-0.010544
-0.00110454
0.141388
-0.00949681
0.0889584
0.00166676
1.16532e-06
-0.13988
0.212739
0.000743238
0.12327
-0.0145645
-0.178455
-0.0119472
-0.0383191
-0.00178565
-0.00849339
-0.0813859
-0.0310562
-0.0109405
-0.000219719
0.400711
0.127645
0.0363765
-0.000163378
0.306022
-1.80656e-06
-0.000146895
0.137425
-0.00700499
0.184051
0.0592568
0.0187415
-0.0623616
-0.146137
-0.00982519
0.00106247
-0.0462715
-2.08733e-05
0.00141248
0.236412
-0.0190658
-0.0030538
-0.0255478
-0.00207976
-0.000633651
0.477939
-0.0115852
-0.000634096
-5.09637e-07
0.135849
-0.0409329
-0.000394818
-0.00276783
0.158565
0.0860978
-0.0462594
-1.4606e-06
0.17436
-0.023361
0.19755
0.0200021
0.0252877
-0.0337895
-6.50627e-05
0.0925831
0.0771855
0.0265553
-0.102007
0.281114
0.00645836
0.184772
-0.0078357
-0.0472372
-0.000311767
-0.00837729
-0.000180353
0.161747
0.263719
-0.00166464
0.0213728
-0.0187814
-0.0849115
-0.0934286
-0.00187549
0.0122154
0.464845
0.00553169
-7.13873e-05
0.0846895
-0.00706069
0.401273
-0.014073
-0.0232344
-0.0169403
-0.0258538
-0.0155599
-0.00860403
-0.00874474
3.7123e-05
0.0227435
5.02445e-05
-0.161369
-0.0259355
0.347636
-0.0443909
0.189418
0.00181831
-0.0690528
-0.0295051
0.20381
-0.00849153
3.4949e-05
-0.0233719
-0.00901951
0.0158312
-0.028627
-0.0262767
-0.0346039
-0.0150723
-0.0214681
-0.0886057
1.31492e-06
0.0389903
-0.0773992
0.161633
-0.0738413
0.0883768
-0.104394
0.321894
-0.00717168
-0.0345213
-0.0354375
0.418841
-0.137116
-0.0145131
-0.136177
-0.0577658
-0.125353
-0.0769064
0.1781
-0.00313518
0.239042
0.00972106
-0.000448178
-0.0018202
0.0727685
0.519407
-0.000631927
-0.0420109
0.166495
8.49661e-06
-0.0243925
0.0332741
-0.0163968
0.00990513
-0.00215272
-0.0459954
-0.00610346
1.09783e-05
-0.0565287
0.254858
-0.00875653
-0.0181485
0.00167367
0.166472
-0.000478299
-0.00124296
-0.000290838
-0.00134228
0.0437873
-0.0111923
-0.0024772
-0.0206263
1.53432e-05
-0.137469
-0.0858053
-0.154883
-0.0300899
0.0163621
-0.000155607
-0.0175293
-0.0680549
0.0228219
0.313564
-0.00220588
-0.064018
-0.00564018
-0.00331979
0.155067
0.000291723
-0.000157464
0.134498
0.00585811
0.0145131
-0.00338386
-0.00192579
-0.0648266
-0.000218406
-0.0131351
-0.0128995
0.270226
0.255718
-0.0611175
-0.0759758
0.00781495
-0.00360211
-0.00939727
-0.0868535
-0.0310163
-9.17638e-07
-0.0159195
-0.0251517
-0.095498
-0.0052865
-0.0452858
-0.000369169
-0.00322299
0.186548
-0.0324314
-1.45503e-06
-0.00269658
-0.122855
-0.000104965
-0.0371821
-5.87886e-05
0.00060818
-0.121315
-0.0606814
-4.12154e-05
1.19786e-05
0.11724
-0.066421
0.337214
0.268211
-0.0209364
-0.00112677
-0.0283275
0.000124007
-0.125017
-0.115668
-0.0187876
-0.0183994
0.263052
0.00288248
0.000102997
-0.000891496
-0.144482
0.0017329
-0.0441323
-0.0663633
-0.00719884
0.0177339
0.0638689
0.00132319
-0.028781
-0.0904018
0.174027
-0.051603
-1.21669e-07
-0.131204
-0.061429
-0.0601487
-0.000536025
0.000556978
-0.000595095
-0.12465
0.027507
-0.0277577
0.129929
-0.0689268
0.00188092
0.0147842
0.00299147
-0.0294236
-0.13711
-0.000165196
0.134408
0.191013
0.00596296
0.216743
-0.0962807
0.0407376
-0.067052
0.183612
0.0923457
0.495644
9.39713e-07
0.0929219
0.164482
0.0122583
-0.0011568
-0.0136395
-0.0313201
1.24415e-05
-0.0159424
-0.0674149
-0.0148789
-0.0189642
6.28168e-05
-0.106019
-0.000375032
-0.000519915
0.217208
0.00215939
0.0715619
0.0152057
0.188168
0.00429795
-0.00052653
-0.130426
0.00310023
0.325276
0.000747145
-0.0692702
-0.000283393
-0.000359379
0.000424239
-0.0781928
-2.2608e-05
-0.00767968
0.0226486
-0.00116172
1.10601e-05
-5.22943e-05
0.138218
-0.055419
0.00344439
-0.000691317
0.00481985
0.0128752
0.0041826
-0.000315805
0.341319
-0.115372
0.20096
0.294756
-0.000100569
0.0596787
0.101976
-0.000567094
-0.000231288
-0.000615825
-0.0234214
0.00430316
-0.0245102
-0.0324651
-0.0813223
0.156063
-0.126431
3.15053e-06
-0.0174549
-0.0217373
-0.0292146
-0.00310324
0.0028716
0.000719475
0.0234965
-0.000294749
-0.000307151
-0.0170273
-0.00358886
-0.0225447
-3.59212e-06
-0.0132018
0.0286508
-0.0414807
-0.0509895
-0.0071793
-0.00990139
-0.00725952
-0.00410748
-0.00298509
-0.00717278
-6.03332e-05
-0.000409304
0.0173444
-0.00988254
-0.00407557
0.00502948
-0.00276882
-0.160508
-0.00976253
0.141677
-0.00978705
-0.0579141
-0.030748
-0.0207629
-0.0132868
-0.00288536
0.000760156
-0.00283192
-0.0107561
-0.0131769
0.180834
0.139487
0.0407676
0.302968
-2.9485e-05
-0.00452954
-0.0128986
-0.00705115
0.0855608
-0.0174738
0.0375178
-0.00561256
0.20007
-0.00167551
-0.00150608
0.00208264
-0.03152
-0.000170968
-0.0312756
-0.00457676
-0.0173471
-8.41088e-06
-0.00509495
0.00116933
-0.0159021
0.0238372
0.031637
0.0159548
-0.012047
-0.0285372
0.105048
-0.0012981
-0.00144712
-0.00147966
0.432015
-0.000132496
0.0630783
-0.0170689
-0.0184344
-0.0208568
-0.0510903
-0.0237208
-0.0305931
-0.0179701
-0.00396483
-5.36992e-05
-0.00324797
-0.0172122
0.0901544
0.0010244
0.153445
-0.0298206
-0.0119075
-0.000546779
-0.0264793
-5.24568e-05
0.134045
-0.0277659
-0.0237098
-0.0218719
-0.00567825
-0.0353284
-0.00108512
-0.0365991
0.0925618
-0.0224241
-0.0963718
-0.000966721
-0.0234369
-0.016833
0.0125415
-0.00271733
0.128638
-0.00167331
-0.0145624
-0.000607685
0.144766
-0.0351391
-0.0221292
-0.00230209
-0.00870727
-0.00233052
0.182275
-0.00764065
0.207323
-0.00590217
-0.000788323
-0.000833295
-0.0019831
0.179185
-0.0603447
-0.00620932
0.000147882
-0.0135417
-0.026374
-0.0010545
-0.0263664
-0.0140098
0.0516809
-0.00393516
-0.00246484
0.400533
-0.0590152
-0.022039
-0.0558498
9.67477e-06
0.0685418
-0.00274536
-0.0216745
-0.00496882
-0.0318102
0.001135
-0.00041261
-0.00207458
0.00217097
0.180503
-0.00436402
-0.00138545
-0.00386848
-0.0620786
-0.00694489
-0.0175164
0.00184524
-0.00694592
-0.00667283
-0.00266193
0.185096
-0.0419235
0.00206251
-0.00307326
-0.0229286
-0.0106481
-0.0442233
-0.00133841
0.0830656
0.0185244
-0.00686213
-0.0015234
-0.0126496
0.45378
0.181659
-0.00955585
-0.000341629
-0.00196144
-0.00863493
-0.00344989
0.0168713
-0.000356374
-0.0274934
-0.0013975
-0.0134707
-0.0969194
-0.00113138
-0.0168737
-0.000946226
0.287527
-0.00640186
-0.00946107
-0.0452869
-0.00122035
-0.0243356
0.0600503
0.400964
-0.0094883
-0.0104054
-0.00141038
-0.000485774
-3.02198e-06
-1.2581e-06
-0.00888405
-0.000506539
0.10619
-0.000685113
-0.00135573
0.00511909
-0.000141845
-0.0404376
-0.0813101
0.0142689
0.0350868
0.0226151
0.0411823
-0.0667147
0.0817833
0.0630764
0.087244
0.11112
-0.0103534
-0.000670436
-0.00749392
-0.090856
-0.00257838
-0.0127935
0.0219213
0.319569
-0.0711639
-0.00030196
-3.7632e-05
-0.000925163
-2.01637e-06
0.00243306
-0.000526391
-0.00611375
-0.0427626
0.000260854
0.00153484
-0.000130741
0.0552071
-0.0125377
-0.0665152
-0.00134709
0.288135
0.277819
-0.00929037
-0.106105
-0.0240672
-0.0193079
-0.0128023
-0.00152533
-0.104384
-0.0514908
-0.0451813
-0.0879102
-6.70339e-05
0.17862
-0.0320294
-0.00750449
-0.0485452
0.0148634
-0.000380083
-0.00754387
-0.000912707
0.00527333
-0.00187004
0.16122
0.000154366
0.00777617
-0.000223911
-0.117587
0.0065666
-0.00103893
-0.00507597
0.000132063
0.00819913
0.10817
-0.0046629
-0.00106206
-6.72448e-05
-0.000419114
-0.000337784
-0.0553811
0.113263
-0.00241556
-0.000133224
0.00364821
-0.000365953
0.20555
-0.0569091
0.23974
-0.0396436
-0.000261894
-0.000288303
-0.00666057
-0.00441168
-0.000629723
-4.50876e-06
0.0199371
0.0241492
-0.000126512
-0.000370713
-0.0168079
-5.05116e-06
0.152438
-0.000787028
-0.0477782
-0.0169011
-0.00490292
-0.0516129
-0.0620761
0.137353
-0.0385508
-0.0164998
-0.000174824
-0.0502462
-0.01632
-0.0090448
0.0988175
0.321446
-0.00073329
-0.054443
0.00404084
0.291697
0.0337986
-5.76644e-05
-0.0053427
-0.00310285
-0.00426219
-0.0344684
0.0807664
1.51912e-05
0.00661584
0.000799428
0.066652
-0.000331924
-0.000124505
-0.110728
0.26661
-0.048777
0.139129
-0.00171314
-0.000117609
-6.37936e-07
-0.121094
-0.0298884
-0.000308425
0.0968042
0.0087579
-0.00451524
0.355483
-0.000482623
-0.00350631
-0.0580512
-0.0455827
-0.00159927
0.122598
-0.089168
-7.26378e-05
0.0024099
-0.000165981
-6.04047e-05
0.12943
-0.0127252
-0.000248248
-0.0418612
-0.0217733
-0.00243748
-0.0528845
0.0014859
-0.0179847
0.000787557
-0.00293511
-0.0602677
-0.034444
0.00568205
-0.000802419
0.1443
0.188014
-0.129545
0.00470567
0.0153274
-0.00371717
0.151102
0.0986477
-0.0221389
-9.51192e-05
0.00548667
-0.0417067
0.000518335
-0.0285633
-0.00181987
0.0329492
-0.0257457
-5.96218e-05
-5.08656e-05
-0.0614227
-0.0324418
-0.0209848
0.00583967
-0.0135578
-0.04319
-0.000134473
-0.00142318
-0.000177135
-0.0435094
-8.10592e-06
-0.00150725
-0.0687353
-0.135987
0.109784
-0.00252246
0.00282406
-0.021342
-0.0215114
-7.61212e-05
-0.0336413
0.106023
0.142947
5.94386e-06
-4.82626e-05
0.145689
-0.00214944
-0.12041
-0.0289464
0.00223724
5.08513e-05
-0.0535174
-0.048576
0.149354
-0.0424152
-0.00103624
-0.0162339
-0.0588009
-0.000451511
-0.000120922
-0.000744805
-0.0353757
-0.0430193
0.137803
-0.000115083
0.421241
-0.0384917
1.76431e-05
-0.00114695
5.5444e-05
6.93356e-05
-6.92859e-06
3.48119e-05
-0.0431649
-0.000661382
0.000195592
-9.91403e-05
0.128
-0.00459712
-0.000102792
-3.93268e-05
0.346722
-0.0200624
-0.0629968
0.000414914
-0.000554358
0.0482716
-6.59961e-05
-0.0196343
-0.157346
0.00135736
-0.00856652
-4.64841e-05
-0.000129903
-0.0300961
-0.0910839
0.00534472
-0.146595
-0.0899964
-8.25877e-06
0.0179724
0.0285066
0.0990323
-0.0012071
-8.32906e-05
-0.0537632
-0.00491894
-0.000530964
-0.0417379
-7.54375e-05
0.0289888
-0.000121116
-0.000796532
-0.0129333
-0.00283195
-0.0510769
0.406494
-0.00160537
0.000110322
-0.061466
-0.0735755
0.0058024
0.00325815
-6.78153e-05
-0.0273999
-5.27314e-05
0.178269
0.481632
0.069834
0.00198035
0.00230098
-8.41092e-06
-0.0277644
-4.29158e-05
-0.0125579
-0.00139669
0.000117743
-0.00246211
-0.0120167
-5.47166e-05
0.000417922
-0.0128501
-0.000180926
-0.0118174
-0.0152743
-0.021529
-0.00146386
0.437614
-0.000881481
0.00153977
9.37708e-05
0.0111422
-0.0401375
0.00711708
-0.000105844
-4.4452e-05
0.00113485
-6.73482e-05
-2.85535e-05
-0.0142531
0.000347019
-7.32499e-06
-0.046214
-0.00309631
-0.0434407
-0.00127987
-2.59071e-05
-0.00219571
-0.0207431
-0.0165849
-0.0346219
0.00145081
0.000200845
-0.000339586
-0.00121991
-5.6592e-05
0.255628
0.000910496
-6.74801e-06
0.000140009
-0.00181267
-0.000405272
-0.0489206
-0.044179
-0.000137812
-0.00606715
1.36494e-06
-0.00384485
-3.13342e-05
0.0310973
-8.47045e-05
-0.000183154
-0.00485374
-1.64225e-05
0.0107731
-0.000143935
-0.000884346
0.0156858
6.49123e-07
0.343233
-0.0497765
-0.038055
-1.34273e-05
-6.26189e-06
0.000914493
-0.000783575
-0.0555864
-5.6835e-06
-1.96906e-06
0.0003286
-7.63494e-07
0.000162155
0.000206051
-0.000309652
0.000399868
-0.0440812
0.432072
-0.0449464
0.316152
0.00687058
-0.0202892
-6.8884e-06
-0.000519622
-0.01135
3.93804e-05
0.000115189
5.78365e-05
0.0539185
-0.00186398
-0.000239844
0.398634
-0.000269515
0.000177064
0.00023518
-1.27305e-06
0.0310158
-0.00196318
0.000619009
3.23754e-05
-0.000840581
-2.36472e-05
-0.00141778
-0.0411932
-0.000242696
-0.00236718
-1.50782e-07
-0.0033195
-0.000120672
0.174761
-0.000276512
-0.000389455
-0.0501395
0.00251089
-0.000100796
-0.000983769
-2.04808e-05
0.159313
-0.0667108
-0.000492706
-0.000209818
-0.00299864
-0.000226929
0.0502683
0.105248
0.0175594
0.000108537
-1.9209e-06
-1.2608e-07
0.0465228
9.91831e-05
-0.0429055
-0.0376838
-0.0165021
-0.0321729
0.450345
0.00118764
0.188608
-0.0155317
-0.0278633
0.162142
-0.000177975
-0.058748
-4.89969e-06
-0.00824385
-0.035608
1.59847e-05
-0.0620642
-0.000592194
-0.0220095
-0.00753943
-0.0307957
-0.0373063
-0.00485779
-0.0645406
-0.032147
-6.41818e-05
-0.00886866
-5.7386e-05
-0.0277816
-7.23984e-06
-7.27336e-05
0.00440943
0.153633
-1.62714e-08
-0.0427892
0.00220785
2.15769e-05
-0.0246778
-1.93667e-07
-0.00979121
-0.000239352
-0.0282621
3.95847e-05
-4.76615e-05
-0.00234832
-9.38962e-05
0.149835
-0.0286507
0.0677639
-3.15049e-05
0.000304197
-0.0235028
-1.87797e-07
-0.0525658
-0.0569859
-0.0450205
0.427746
-0.00584075
-5.26955e-06
0.0215344
-0.0313571
-0.00358089
-5.13276e-05
-4.18045e-05
-0.0408272
3.46203e-05
0.000447509
-2.18265e-07
4.21448e-05
-0.020757
0.118563
-0.0965605
0.0909912
-0.00466757
-1.63402e-07
0.00253706
-0.0651226
-4.37205e-06
-4.75971e-06
0.000134588
1.95181e-05
0.000181229
0.237842
0.030372
1.66657e-05
9.764e-07
-0.0540761
0.18887
0.167774
-8.10108e-06
-0.033023
-0.0231224
-0.0130613
-0.0395063
-0.0109359
-0.00229602
0.132716
-3.20685e-05
-0.0244898
0.158857
-0.0453644
-2.22988e-05
-0.0485501
-9.3679e-05
0.295208
0.0217773
-2.86176e-05
-1.54415e-05
0.177071
2.64429e-07
-0.000115932
-0.00884572
-1.41196e-06
0.241692
0.00090281
-0.00547418
-0.0497
-0.00321234
-0.100799
0.173084
-0.0233682
-0.0528353
0.000522184
-1.11142e-05
-0.00103034
-1.54525e-05
-1.17897e-05
0.0128171
0.169935
0.141115
-0.000333282
0.229337
-0.0184544
-1.22641e-07
-0.0341469
-2.0325e-05
-0.0265509
0.0230992
-0.0176275
0.00253412
0.00110045
-0.00698619
3.88933e-05
-0.00139739
0.0136268
-0.00185353
-4.3567e-05
7.50631e-06
-2.36833e-05
0.027401
1.30794e-05
-0.0286601
0.241325
-0.00591659
1.49737e-05
-0.00255355
-1.16314e-05
0.072701
-0.0001584
-2.8315e-05
-2.22334e-05
-5.79427e-06
0.197411
-0.000123157
0.230975
-0.066258
2.89777e-05
-0.055563
-0.000667208
0.147527
0.4048
-0.000839602
5.03955e-07
2.33587e-07
-9.85871e-06
0.134262
-6.35266e-08
0.000476236
-0.0174997
0.216563
2.90848e-07
1.01468e-06
7.17652e-07
6.1184e-06
-0.019011
1.84169e-07
0.27607
-0.0190266
-3.95377e-05
7.93935e-06
-0.00131185
-0.0223437
3.27929e-07
-1.9114e-05
0.155967
9.25661e-06
-0.0300021
-0.0815408
4.22517e-05
-3.76788e-08
-0.17572
2.07575e-07
0.156763
3.79225e-06
-0.000310597
1.37005e-06
-5.72513e-05
0.0864615
-2.83944e-07
-0.0012873
-7.42703e-07
0.00621813
-0.00319935
-0.00453962
-0.00169622
0.144736
-0.000358533
-4.7183e-05
-0.00655252
-0.0065851
-9.28083e-05
-7.36298e-05
-0.000761619
8.02827e-06
0.179434
-0.0121283
0.444753
-1.64985e-06
-0.00636942
-0.000209701
0.127903
1.43287e-05
-0.0273737
5.71672e-06
-0.00117649
-0.0308181
-0.0001079
-0.0144015
-0.047143
0.00250147
-1.40479e-05
-0.0739358
-0.000127588
-0.000454509
-0.00437892
-0.0250097
0.00053171
-8.59137e-05
-0.00028009
-0.00130643
-0.000904432
-7.6437e-08
-0.000809383
0.401317
3.02086e-05
-0.00230035
-0.0322009
-0.0522728
-0.0573424
-0.0363766
-0.0206021
-0.000777347
-0.0256958
2.23497e-05
-4.23984e-05
0.419952
-3.91098e-05
0.174955
-0.000188275
0.000135919
-0.000717576
-0.100892
-0.00025028
-0.00132588
-1.03275e-05
-0.000218516
-2.6189e-05
-3.69612e-05
-0.0110411
-7.32582e-05
-4.72152e-05
-3.56262e-05
-1.32031e-05
-1.03249e-05
-0.0437492
0.242678
-3.89229e-06
-0.000270284
-8.27157e-05
7.80048e-06
-0.000472891
1.00866e-06
-0.000541821
7.6329e-05
-0.000189917
-0.0553839
-0.000437739
-0.00162935
1.23072e-07
-0.00219127
0.000135811
-3.85425e-06
-4.68333e-06
2.78008e-06
-0.000380979
0.000209021
-0.0445615
-0.0300436
-0.0532598
-0.000447427
-0.00278726
-0.0436959
-0.0510866
-2.8954e-05
0.00966418
0.00392985
-0.00050776
-0.0106625
-0.0402349
0.400042
-0.000200755
-5.89056e-06
0.000270632
1.19362e-05
3.75176e-06
0.0687239
0.00139041
0.0804446
-0.0477725
0.377896
-0.000227911
-1.25112e-07
4.61004e-05
-9.58438e-06
-0.00070435
0.147542
0.205422
-4.64362e-06
-0.00010531
-1.48247e-05
0.194748
0.00749325
-0.0107659
2.38523e-06
4.60036e-06
0.00501168
-0.00032255
-0.0719348
-0.0156678
1.17553e-07
0.00197698
-0.0346612
-2.48411e-05
0.000889705
-5.30378e-05
-0.0396636
-0.000949094
0.13876
3.51386e-06
0.000936135
-0.00204864
2.55355e-06
5.31825e-05
-0.0217291
2.66284e-06
-0.000446706
2.69177e-06
-0.0137804
-0.0367085
-0.00449077
-0.0113539
-0.00632232
0.0066302
-0.0077111
-0.0014438
1.91051e-05
2.16186e-05
2.97624e-06
2.91179e-06
-2.06237e-05
0.00575628
-0.0667925
0.000207403
-0.0611386
-0.00181135
-0.0652996
2.66394e-05
-9.32702e-06
0.000680967
-0.0903281
3.22547e-06
-0.058878
-0.0156526
0.00443426
-0.063289
5.77039e-06
-0.00207381
5.94198e-05
-0.163964
0.12433
-3.63232e-06
-0.0612355
-0.0249194
-0.00263774
6.50893e-06
-3.86667e-06
0.0160649
-0.0115157
1.84363e-06
-0.00514725
-1.77307e-05
6.46658e-05
0.114824
-3.11552e-06
-1.15218e-05
-9.21747e-05
6.62421e-06
0.000433271
2.69554e-05
-0.00331509
6.58585e-05
-0.0115913
0.000523283
-0.000161756
-0.0405678
-0.0415982
-0.00544054
-4.29854e-06
3.67475e-06
-0.0820161
0.00374129
-0.0436788
6.29509e-07
-0.0043444
-6.74019e-06
3.78281e-06
0.0638816
-0.00445479
-0.00163691
-1.02654e-05
-0.0186424
1.2358e-05
-0.0624064
3.49022e-06
-0.071683
-7.26936e-06
-2.34324e-06
2.58801e-05
0.000516335
-0.11681
-0.012738
-0.0738633
-1.26606e-06
1.98649e-05
-0.0692734
-0.0365532
-0.00555427
-3.33375e-06
-0.0534666
-0.0567443
-0.0668523
-6.42855e-06
-4.39474e-06
-2.1129e-05
-0.114903
-0.0737016
0.000293121
-0.0072593
-3.86186e-05
0.23104
2.98836e-05
-3.70761e-06
4.65411e-05
-3.24212e-05
-5.24224e-06
-0.00297726
2.0904e-05
-0.00215042
-0.0730527
-0.00888419
-0.0396832
2.41994e-06
-1.63658e-05
0.0424729
-0.0784423
-0.00297718
0.10335
-3.85797e-05
-7.74324e-06
-6.60219e-06
0.112001
5.47106e-05
-7.23535e-05
-7.81838e-06
-0.0778033
-0.0106946
-1.23649e-05
-4.96395e-05
-0.00838101
-0.00409359
0.000126287
0.208232
-0.0703287
-0.000840667
0.520478
-5.89504e-05
-0.000811669
-0.0103066
-0.0633423
-3.69135e-06
-1.92074e-05
4.71e-06
0.00283828
-0.0424614
-0.000281756
-0.0503754
-0.00501704
-2.71748e-06
-1.70841e-06
-0.00671792
-0.0171796
-0.0339707
-0.0998376
-0.0377962
-0.0356845
-0.0158797
-0.0282364
-2.91007e-05
0.000115703
-0.00721409
0.000238009
-0.00018545
0.000288879
-1.28589e-05
-0.000152443
-0.00806843
-3.85716e-06
-2.34062e-05
0.0267642
-0.043299
-0.000325256
-0.000107651
-5.41711e-06
0.225847
-0.00592356
0.000267809
-0.029472
8.40111e-05
6.34879e-05
5.68182e-05
-2.54823e-05
0.000183263
-0.0384677
0.00838249
-3.02393e-06
-0.00026137
-0.0455737
-0.0383732
0.0427515
-0.000205844
0.00106242
0.0138411
-5.85401e-06
9.08398e-06
-0.0620741
4.75056e-06
0.151119
-2.2518e-05
0.00267371
5.55309e-05
7.10548e-05
-0.0587768
-0.00685959
-0.0166039
-0.00148785
5.88226e-06
0.00209759
0.0545975
-0.0118537
-8.39465e-05
0.086114
0.148007
-8.22263e-07
-0.0490564
-4.07423e-05
-8.18519e-06
-1.58666e-05
-0.000247625
0.0156839
-3.48722e-05
7.63707e-05
-0.0185488
-0.0237254
-0.0149428
0.281028
-1.37257e-05
-3.29401e-05
0.155736
-0.0171257
-0.00324059
-0.000291663
0.153531
-4.96096e-06
-0.000566014
-2.52137e-05
-2.52924e-05
7.04817e-06
7.57512e-06
2.24943e-05
-0.0129982
-6.91546e-06
-0.00317765
-0.0387998
0.229348
-0.000397494
-1.84847e-05
0.00300044
0.0769619
-0.0622225
-0.000351602
-0.0515654
0.281698
1.04299e-05
0.362421
-2.72477e-06
0.00176213
0.0194979
0.000172578
0.381653
-6.38249e-05
-2.97653e-06
0.000458949
6.36749e-06
-0.000403396
9.21002e-05
-7.31534e-06
-0.00128269
-4.14985e-05
-9.27722e-05
-0.002406
0.222457
0.0433277
0.0175764
-0.035029
-2.3163e-06
-1.67144e-05
0.00166046
-0.0717648
-7.07406e-06
-0.0388083
-2.56334e-05
0.0947344
0.0548784
-0.0360038
-0.000994291
-0.0132947
-0.00047052
-0.0101194
-0.00103376
-0.00853776
0.0564686
2.445e-09
0.250468
0.0219743
-0.000970898
0.197853
-0.0123267
-3.62502e-06
-7.55983e-06
1.87713e-05
-7.13751e-05
-0.000104377
0.223619
-0.000613186
0.230934
-0.00166249
0.151664
0.209732
0.114467
-0.00634878
-6.92662e-06
-4.87049e-05
-0.00698027
-0.167741
-0.0536538
0.000806518
-2.39857e-05
-0.031646
-0.000698663
-7.72989e-05
0.000510911
-0.000627898
-0.00121934
0.0275891
2.26455e-05
-0.0370675
0.0506006
1.58219e-05
7.78592e-05
-0.0166657
-0.0722675
-0.000415722
-0.000262885
-1.3224e-05
6.30531e-05
0.0847794
-0.0177985
-0.0542586
0.000663788
0.0943832
-0.0401448
-6.11759e-06
-2.8431e-06
0.00698332
-0.000164042
0.0773587
-0.00494894
-0.00930824
-0.000294374
0.000774587
-0.0397011
-0.000115602
0.000193158
-0.0127232
-0.0681114
0.149182
-0.0519856
-0.0264244
-0.000282227
-1.49129e-05
0.00470008
6.39129e-06
-0.0647208
-0.0718962
0.000236808
0.00148681
0.00242364
-0.141578
0.000268524
3.022e-05
-1.32237e-05
-0.0421886
2.56929e-06
0.000239264
0.112245
0.1656
-0.158164
0.0433085
0.041734
0.00627925
-0.000350245
0.00521332
3.88029e-05
2.12392e-06
-0.000198084
-5.9767e-07
-0.000143919
-0.000200619
-0.00677821
-0.0872685
-0.00895061
-0.0347666
0.0460841
0.0378632
0.00241885
-0.07171
8.96527e-06
0.002217
0.00748362
-0.000252404
0.0682486
-0.00210032
-0.0112166
0.00740362
0.00374209
-0.000620693
-0.00349068
0.0358641
0.000341235
-0.0182789
-0.0161607
0.453444
-0.026676
0.0741059
0.00923007
-0.0458122
0.00118236
-2.23892e-05
-0.00154128
-2.5952e-05
-0.00149195
-0.0259795
-3.72937e-05
-0.000239933
0.272719
-0.00192759
-0.0402083
-0.0129437
-2.92807e-05
-0.00265563
-1.44516e-05
-1.89544e-06
0.0307895
5.32708e-06
-0.00173447
0.068968
0.00348084
0.000583469
0.0131668
-0.00508099
0.00268687
-0.157065
0.000336895
-0.0037675
-0.0570212
-0.000892968
-0.0072583
0.000148972
-0.00234473
0.00045435
0.0291399
-0.00060871
0.00355274
-0.0420724
-0.0203293
-6.88366e-05
-0.0392556
-0.0137725
-0.0119823
-8.59623e-05
0.00445386
-0.0906531
-0.000506353
-0.00469649
-0.0370568
-0.00354151
-0.000831823
0.208988
-0.0282465
-7.10499e-06
0.00583256
-0.0598325
-0.000669112
0.180069
-0.00350049
0.000482776
0.0534912
-0.00106753
0.00518275
0.118002
-0.000307005
0.000591542
4.30085e-05
-4.78753e-05
-0.00279457
-0.00918282
-0.000425232
-0.0225069
0.0908759
-0.0302328
-0.0964841
0.000593168
-0.00246483
-0.00104962
-0.07414
-4.5237e-05
0.00947341
-8.60552e-05
-0.0111725
-0.00123369
-0.00311873
-0.0430595
0.110909
-0.105593
-2.87417e-05
0.190976
-0.00239789
-0.00435779
-0.0526828
-0.112971
-0.015254
-1.38006e-05
-0.00179669
0.00485852
-0.00223603
-0.00405395
-3.85412e-05
0.0794467
-0.0537705
-0.0101257
-0.00425083
0.0128852
-0.00719899
-0.00524083
0.000933074
-0.000565529
-0.00217088
0.107903
0.000226287
-0.17224
-0.000224352
-0.00475092
-0.00558835
-0.124153
-0.0111364
-0.15199
-3.31447e-05
-3.64981e-05
-0.00941534
0.00712921
0.000326479
-0.177635
0.0798475
-0.0519448
3.91486e-05
-0.196312
-0.000280314
-0.207175
-0.0243957
-0.226044
-0.224954
-0.214656
-0.169386
-0.0757412
-0.0384023
-0.0040096
0.0309459
0.0657445
0.164273
0.195898
0.2251
0.273825
-0.00528077
-0.00775211
0.0540641
-0.0272538
0.000319246
0.0056081
-0.040587
-0.000144924
-0.00131782
-1.11107e-06
-0.014571
0.0136689
7.91452e-06
-0.000749029
-0.00683861
-0.0169531
-0.228288
-0.0217682
-0.0584123
-0.000133593
7.64577e-05
-9.7045e-06
-0.0790428
-0.00907642
-0.039459
-0.018032
0.000866315
-0.000176244
0.00303723
-8.06233e-06
-0.0271015
-0.0001268
0.000128163
-0.0119958
-0.00765934
-0.00105854
0.000109358
0.043042
-0.0105291
0.0560094
-0.218426
-0.0148148
0.132802
-0.0173137
0.00196545
-0.0216727
-0.00296817
-0.00848719
-0.0152265
0.304607