/*--------------------------------*- C++ -*----------------------------------*\
  =========                 |
  \\      /  F ield         | OpenFOAM: The Open Source CFD Toolbox
   \\    /   O peration     | Website:  https://openfoam.org
    \\  /    A nd           | Version:  7
     \\/     M anipulation  |
\*---------------------------------------------------------------------------*/
FoamFile
{
    version     2.0;
    format      ascii;
    class       volScalarField;
    location    "10";
    object      p;
}
// * * * * * * * * * * * * * * * * * * * * * * * * * * * * * * * * * * * * * //

dimensions      [0 2 -2 0 0 0 0];

internalField   nonuniform List<scalar> 
7807
(
0.556025
0.0483611
0.738683
0.507007
-0.00306322
-0.000133873
0.735392
-0.0191395
-0.000420894
0.232464
-0.000126332
0.00853513
-0.0286618
0.123103
0.240483
-0.0358172
0.568741
-0.0377133
0.00478036
-0.152403
0.169307
0.00559938
0.0924819
0.409069
-0.0491021
0.567749
-0.00281745
0.1493
0.350301
0.0100673
-0.0508547
1.05119
0.0914631
-0.00173454
-0.000377981
0.193768
0.0112366
0.71509
-0.0157327
-0.00120838
-0.014211
-0.0347998
-0.134602
0.0402432
-0.000724106
-0.000295755
0.00553423
-0.0159457
-0.000245096
-0.147091
0.0127281
0.141957
-0.0621869
0.00158364
0.192662
-0.0170101
0.00521962
-0.019232
-0.0789278
-0.00181855
0.000143538
0.0162891
0.123332
0.00939918
-0.00351544
-0.0494602
-0.000343656
1.57038e-05
0.288784
-0.0148222
-0.000271552
-0.128429
-0.0473764
-0.0816852
-0.0363365
-0.113554
0.729009
0.165182
0.186049
-0.1492
-0.0274814
0.663177
0.233916
-0.0845607
-0.00513092
-0.00818294
-0.0204844
-0.0602361
-0.0023415
-0.0160399
0.358294
0.0517473
-0.000482736
0.00480285
-0.01277
-0.0833604
-0.122428
0.00870861
-0.00567243
-0.00420523
-0.142103
0.201059
-0.0121385
-7.21944e-05
0.0727123
0.373031
0.919713
-0.0180469
-2.4712e-06
0.0902541
0.484183
-0.0704816
-5.38489e-06
0.0959319
0.371977
0.00165898
-0.058598
0.30764
-0.0898785
-0.0830254
-0.14793
0.637775
-0.123702
0.0365239
-0.14425
-0.00346238
-0.0451831
0.00779463
-0.00370416
-0.0503337
-0.00760048
0.182616
-0.00217007
-0.00276337
-0.0876499
0.470442
0.764334
-6.22889e-05
0.0281606
-0.186854
-0.0773355
-0.101968
-0.113905
-0.0780825
0.929842
-0.0287987
0.353936
-0.0752801
-0.107933
0.63582
0.185144
0.0574637
-0.00526512
0.259919
0.232292
0.674432
-0.128956
-0.0285544
0.880466
-0.000221794
0.00265425
0.421644
-6.81508e-05
-0.00719257
-0.0144149
0.508298
0.509784
0.907275
-0.00826572
-0.0110808
1.76184e-05
-0.154035
0.00163794
0.0613005
0.0305053
-0.106185
0.102229
0.366444
-0.000478323
-0.00178857
0.517018
-0.000220821
-0.00040695
0.740052
0.0408011
-0.0666873
-0.0840686
-0.0762931
-0.0373574
-0.182859
-7.44918e-05
-0.117753
0.379881
-0.0122457
0.00026209
0.434081
-0.0045488
-0.0472117
-0.0380768
2.04703e-05
0.00348335
0.47855
0.42411
0.674439
-0.0488129
-0.0583604
-0.10388
0.161639
0.470064
-0.000775731
0.000126465
0.880764
-0.0307378
-0.00226779
-0.112157
-0.0473037
0.625448
0.634813
-0.110905
1.00162
-0.00421512
-0.0373204
-0.145899
0.19677
-0.165139
0.508102
0.881317
0.000228075
0.0381766
0.324322
-0.0149318
0.302669
-0.00198698
0.964052
0.66145
-0.0204035
0.0108931
-0.00112197
0.384238
-0.000346568
-0.0219766
-0.173714
-0.000271196
-0.00488394
-0.00157456
0.361406
-6.84465e-05
-0.0166745
-0.144297
1.04879
0.166781
0.935871
-0.000165515
-0.0447214
-0.000694336
0.69862
0.0157236
0.767387
0.00617777
0.00298272
0.0364824
0.167895
0.00223418
-0.000844163
0.00199075
-0.0156893
-0.0607486
-0.0001546
-0.124553
-0.0137196
-0.0005279
-0.00236625
0.73783
-0.0285365
-0.00287295
0.994242
-0.0054041
0.525887
-0.000773922
0.00724448
2.85141e-05
-0.0818041
0.189203
0.120569
-0.0791402
-0.00152798
-0.136045
-0.0562498
-0.000671583
0.00193225
-0.00800973
-0.0274207
0.0114034
-0.00453218
-0.0807671
-0.0487805
-0.0798703
0.0599029
-0.101259
0.663435
0.682806
-0.00563783
0.0878662
-2.75459e-05
-0.00856653
-0.0846622
0.399423
0.258018
0.000363591
-0.00783801
-0.0984487
0.367443
-0.00374111
0.0139285
0.0047706
0.207409
-0.0319851
0.647461
-0.00605311
0.0529444
-0.000429021
0.0162334
-0.000197155
-0.0598773
-0.00129422
0.0221265
0.0586354
-0.0971226
0.0120998
0.0341137
-0.0027762
0.082119
-0.0241491
0.220491
0.363459
-0.127521
0.0228219
-0.0581114
0.0200084
-0.168616
0.92623
0.0261103
0.115357
0.982859
-0.00582944
-0.00658982
0.0377465
-0.00401226
-0.0217272
0.0245495
-0.0104996
-0.00781252
0.342145
-0.000253913
0.00214345
0.000294472
-0.0128435
-0.0255885
-3.2917e-05
-0.00417006
-0.0755519
0.876931
0.0153411
-0.0302636
0.830435
0.570342
0.191135
0.105332
-0.156388
0.0192455
0.494099
-0.0405977
0.578005
-0.0450043
-0.126975
0.425015
0.583406
-0.118465
0.24541
0.50762
0.542527
0.159191
-0.0115318
-0.0159239
-0.000334064
0.0213205
-0.0414925
0.00394166
-0.000405569
-0.00606607
-0.138461
0.260454
-0.0608507
-0.00830491
-0.0143258
0.0443416
-0.0262025
0.00739333
0.466195
-0.00711055
-8.34077e-05
-0.000205809
0.00018295
-0.0735103
0.333215
-0.0150855
0.104713
-0.170031
0.702804
0.0131203
0.0259894
-0.019305
0.71698
-0.00402463
0.643729
0.360353
-0.000442575
-0.0509458
-0.0124631
-0.0961069
0.00220527
0.203961
0.0152489
0.0241937
-0.0032411
0.339965
0.370764
-0.0778017
-0.0749484
-0.00847398
-0.0448746
0.249285
1.03531
-0.0271043
0.0180421
-3.5155e-06
-0.0477835
-0.00856798
0.0752452
-0.14756
0.0646808
0.743085
0.346871
-0.0821043
0.451816
0.70385
0.100411
0.00480338
0.518418
-0.00335572
-0.000695173
-0.0624022
0.000329105
-0.117963
0.00187417
-0.0750136
0.00747509
0.438712
-0.00673526
-9.11842e-05
-0.141389
0.00673591
0.151311
-0.136577
-0.181516
0.1663
0.326272
0.272532
0.279075
-0.000778607
0.249108
0.235382
-0.00199721
-0.0586242
0.00235726
0.0260895
-0.00179611
0.0182979
-0.00294507
0.369732
-7.45325e-05
0.000761083
0.00763281
-0.0758378
0.0785426
-0.0717027
-0.0899552
-0.0590527
-0.165186
0.0413499
0.506076
0.0796244
-0.0246257
0.974319
-0.118914
-0.0269233
-0.0886963
-0.0195524
-0.0715088
-0.0367546
0.106698
0.0178558
-9.82272e-05
0.0935154
-0.000365972
0.6617
0.3046
-0.0180337
-0.0497376
-0.000715083
0.664873
0.618117
0.220798
0.4038
-0.124378
0.785803
-0.000237062
0.0882748
-0.0635484
0.374108
0.90964
0.227794
0.331183
-0.00555982
-0.000775874
0.373349
0.017147
0.691422
0.151383
0.449507
-0.0258703
0.714082
0.594451
-0.032787
-0.027755
0.333576
-0.185971
-0.000318202
-0.0458208
-0.177369
-0.121532
0.0419808
0.0350548
-0.000469674
0.624007
-0.00291533
-0.00039168
-0.0396425
-0.00185528
-0.000848436
0.0142329
0.464613
-0.128513
0.857824
0.000235525
0.462496
-0.0346436
-0.000283869
6.84559e-05
0.346647
0.446123
-0.0149192
0.407768
9.70352e-05
0.427401
-0.127602
-0.0342531
0.732259
-0.107854
0.386355
-0.0850174
0.426289
0.444183
-0.0565244
-0.0715744
-0.0209597
-0.0104335
-0.00076095
-0.00351304
0.553009
-0.000102757
0.410056
-0.114551
0.613301
0.392211
-0.181853
0.837644
-0.00588569
0.0259812
-0.0413776
-0.0684758
-0.0234479
-0.0429313
0.123863
0.955674
0.000161707
-0.00695127
-0.0729739
2.30038e-05
0.672109
0.00686009
2.2253e-05
0.000733481
0.00143487
-0.0575945
0.0728277
-0.00559905
-0.000326092
-0.0248185
0.0109834
-0.168368
-0.167232
0.0791056
-8.19587e-05
-0.157245
-0.0447212
0.338433
0.601923
0.0045072
0.339293
0.000575217
-0.0429302
0.212079
-0.0234482
0.496398
-0.0438584
0.0977159
0.219644
0.344153
0.0184985
-0.0351243
0.409123
-0.143605
0.71048
-0.0315407
0.547213
-0.0314564
-0.00420098
0.31669
0.0132686
0.215515
0.00711896
1.95021e-05
-0.177248
0.455652
0.00545286
0.326153
-0.0415992
-0.16706
0.0440051
-0.0742827
-0.00602527
-0.0298084
-0.136072
-0.0914711
-0.0331152
-0.000543891
0.742069
0.326107
0.104723
-0.000725292
0.589009
1.5423e-05
-0.000665913
0.337708
0.0107753
0.414547
0.14765
0.0626658
0.00461857
-0.144141
0.156311
0.00485768
-0.132807
-6.88391e-05
0.014644
0.480052
-0.0538123
-0.0100503
-0.0116688
-0.00705654
-0.00147584
0.975942
-0.0333511
-0.00200751
-2.14753e-05
0.296719
-0.0932843
-0.0011853
-0.00992304
0.340119
0.229163
-0.117557
5.40964e-06
0.367242
-0.0521435
0.420008
0.0582269
0.0710485
-0.0964914
-0.000347177
0.214542
0.215801
0.199395
-0.0991961
0.549642
0.0220782
0.404417
-0.00766117
-0.0410472
-0.00142707
-0.00209887
-0.000386369
0.352246
0.52283
-0.0053235
0.069789
-0.0572119
-0.0715738
-0.087746
-0.00670275
0.0817912
0.946604
0.166334
-0.000196035
0.223637
-0.0127665
0.823318
-0.0413947
-0.0344397
0.00505048
-0.0398244
-0.0200001
-0.0264231
-0.01058
0.00588735
0.110978
0.000388
-0.081246
0.103896
0.653164
-0.112773
0.421171
0.00749777
-0.0268202
-0.0306638
0.421054
-0.024883
0.00038975
-0.0506692
-0.0181075
0.0862794
-0.0870287
-0.0745106
0.068239
-0.0487198
-0.00513513
-0.126862
2.02614e-05
0.141521
-0.111845
0.379934
-0.0125785
0.213438
-0.114342
0.611381
0.0397451
-0.0996773
-0.0269128
0.86466
-0.0702826
-0.0433493
-0.154678
-0.0474199
-0.127569
-0.0609838
0.391665
-0.00998323
0.482792
0.0314019
-0.00140589
-0.00427892
0.199314
1.05508
0.00429698
-0.0328558
0.354925
8.19734e-05
-0.0683678
0.0958441
0.0600627
0.0318157
-0.00575582
-0.0814415
-0.0101729
0.000106226
-0.102247
0.508041
0.0205224
-0.055097
0.00687824
0.35535
-0.00136757
-0.00448459
-0.00130511
-0.0027606
0.219562
0.0266011
0.0139382
-0.059051
0.000164525
-0.120913
0.0422015
-0.138526
-0.0416294
0.0529315
-0.000770797
-0.0417098
-0.141103
0.186119
0.616313
-0.00445274
-0.158914
-0.016964
0.0442403
0.35903
0.00158821
-0.000568019
0.35001
0.155052
0.0556381
-0.0106849
-0.00752051
-0.127978
-0.000641269
0.010939
-0.0444771
0.541218
0.511066
-0.0179044
-0.105578
0.0261133
0.0216362
0.126065
-0.119705
-0.0167647
-1.80054e-06
0.105474
-0.0809393
-0.132512
0.0255829
-0.127942
-0.00145181
-0.0107614
0.394121
-0.0923897
-1.50336e-05
-0.0101595
-0.0471602
-0.000604346
-0.0223005
-0.000181181
0.0161327
-0.162705
-0.0239455
-7.77156e-05
0.000110919
0.261596
-0.0797429
0.668514
0.52909
0.0880605
-0.00207856
-0.0226591
0.000789974
-0.0281182
-0.110067
0.132555
-0.0534642
0.523535
0.0342531
0.000984167
0.0258639
-0.111946
0.00708804
-0.0281453
-0.136115
0.0135765
0.0580293
0.158585
0.0348931
-0.072469
-0.0438931
0.368028
-0.0341296
-1.20057e-06
-0.121938
-0.153593
-0.0402502
0.0174808
0.00273066
0.0354034
-0.152436
0.0854311
-0.0880972
0.323859
-0.0456343
0.0233264
0.0514986
0.0561294
-0.0895125
-0.0490739
-0.00037383
0.293736
0.398189
0.020694
0.46129
-0.102575
0.114607
-0.0779086
0.385489
0.21838
0.940467
1.53958e-05
0.236112
0.356236
0.038378
-0.00410584
-0.0463762
0.0850276
0.000153954
-0.0460709
-0.0933177
-0.0508308
-0.0557669
0.000464315
-0.00196346
-0.00103143
-0.00245525
0.444452
0.0191696
0.266252
0.0553407
0.392045
0.0338361
-0.00109662
-0.0726651
0.0236424
0.64086
0.00351646
-0.100072
-0.000619156
-0.00152532
0.0228802
-0.0510822
-8.79456e-05
-0.0275899
0.0780152
-0.00537509
0.000110376
-0.000129836
0.300781
0.0215047
0.0189552
-0.00307096
0.0239936
0.0405901
0.0241906
-0.000805835
0.637708
-0.0500441
0.415772
0.56838
-0.00058662
0.247856
0.258611
-0.00212445
-0.000739391
-0.00118101
0.0742719
0.0530176
-0.0159911
-0.0379348
-0.133386
0.337374
-0.101336
3.50855e-05
-0.0487452
-0.0443049
-0.0899497
-0.0115634
0.0165714
0.00341993
0.0717831
-0.00141819
-0.000640703
-0.0431821
-0.0115163
-0.0624507
-4.32741e-05
-0.0373143
0.0864317
0.0311784
-0.000384968
-0.0220107
-0.0296964
-0.0232207
-0.0138756
0.0354098
-0.0239916
-0.000288802
-0.00109348
0.0622558
-0.0308926
-0.0131726
0.0229877
0.0102256
-0.182962
-0.0280072
0.307658
-0.0317923
-0.124557
-0.0566066
-0.0567788
-0.0392296
-0.0100152
0.00611099
-0.00939183
-0.0350434
-0.0405809
0.387556
0.320691
0.137152
0.599645
-0.000198447
-0.00837575
-0.0413881
-0.0206067
0.249983
-0.050876
0.141407
-0.0108754
0.423008
-0.00513944
-0.00429965
0.0605045
-0.0308689
-0.00059877
-0.0463186
-0.0156355
-0.0524492
-5.47962e-05
-0.0175588
0.00535717
-0.0439097
0.10008
0.0860696
0.0478054
-0.0352494
-0.0786708
0.23853
-0.00337356
-0.00523411
-0.00562921
0.824067
-0.000241016
0.182141
-0.0534651
-0.051259
-0.0665462
-0.0930896
-0.072091
-0.0855158
-0.0453849
-0.0122106
-0.000265102
-0.0113277
-0.0544147
0.213204
0.0045305
0.365902
-0.0822055
-0.0332797
-0.00246667
-0.0720652
-0.000279494
0.294218
-0.0754095
-0.0654683
-0.0595856
-0.00980472
-0.0794831
-0.00452
-0.10162
0.21512
-0.0647061
-0.138472
-0.00389889
-0.0676985
-0.0462273
0.0389256
-0.00857532
0.283059
-0.00639884
-0.0480611
-0.00179113
0.31333
-0.0973825
-0.0663627
-0.00861154
-0.0247357
-0.00729034
0.396777
0.0743469
0.446042
-0.0123399
-0.00217401
-0.00335851
-0.00614315
0.405141
-0.148335
-0.0179798
0.000903581
-0.0158246
-0.0093653
-0.00237498
-0.024615
-0.0393785
0.131033
-0.0131393
0.0160232
0.807661
-0.15289
-0.0725972
-0.142483
9.40105e-05
0.167373
-0.00940184
-0.0675599
-0.0148232
-0.0892152
0.0122243
-0.00141584
-0.00769187
0.00859126
0.378505
-0.0154754
-0.00473375
-0.0123113
-0.124267
-0.0219335
-0.0559751
0.0118352
-0.0229716
-0.0236086
-0.00869031
0.388522
-0.115104
0.00851705
-0.0111668
-0.0693653
-0.03638
-0.123808
-0.00370619
0.199578
0.0588461
-0.0206832
-0.00456623
-0.0351538
0.846982
0.381037
-0.0294897
-0.00153927
-0.00631306
0.0243535
-0.0105319
0.0533334
-0.00109845
-0.0315513
-0.00525058
-0.0438326
0.0360296
-0.00279913
-0.0255793
-0.00360311
0.566957
-0.016899
-0.0305213
0.0491246
-0.00512591
-0.0754117
0.243389
0.759383
-0.0280466
-0.0296521
-0.00561408
-0.00122829
4.85295e-06
-1.07113e-05
-0.0264616
-0.0017546
0.285394
-0.00177871
-0.00481627
0.0218204
-0.00068502
-0.110638
-0.109654
0.0434155
0.0941467
0.0645508
0.212023
-0.0535022
0.19608
0.154321
0.203605
0.250071
-0.03373
-0.00230676
-0.0146936
-0.122813
-0.00930142
-0.0388901
0.17962
0.606975
-0.0961436
-0.00128494
-7.84237e-05
-0.00389287
-5.57311e-07
0.0263986
-0.00146735
-0.0116067
-0.119091
0.00144409
0.00706128
-0.000578024
0.174979
-0.0399943
-0.016835
-0.00317388
0.572614
0.544902
-0.0262088
-0.0978763
-0.0702881
-0.0615954
-0.0372511
-0.00494686
-0.139054
-0.0567892
-0.102068
0.0249916
-0.000132229
0.385431
-0.0143778
-0.0252712
-0.0501244
0.0479343
-0.00140853
-0.0218935
-0.00361979
0.0379716
-0.00394964
0.366622
0.00093231
0.0258903
-0.00109773
-0.0329946
0.023064
-0.00198618
0.0471452
0.00109309
0.151676
0.263588
0.00665994
-0.00382636
-0.000332885
-0.00151634
-0.00134113
-0.150878
0.254411
0.128042
-0.00071212
0.0263721
-0.00121182
0.423529
-0.147391
0.485274
-0.106778
-0.00119749
-0.000759053
-0.0191321
-0.014829
-0.00166749
-4.88358e-05
0.0641259
0.0722609
-0.00062544
-0.000879283
-0.05038
-5.90159e-05
0.327754
-0.00248687
-0.13002
-0.0485551
-0.0167134
-0.136243
-0.148353
0.299155
-0.0200015
-0.0516966
-0.000841939
-0.139614
-0.0526483
0.108341
0.287574
0.621551
-0.00310749
-0.146174
0.0389646
0.566946
0.0957631
-0.00031721
-0.0158147
-0.0107066
-0.0130161
-0.118768
0.212106
0.000476157
0.060338
0.00821322
0.198005
-0.00138396
-0.000323609
-0.0370632
0.52717
-0.134436
0.32211
-0.00323971
-0.000532956
-6.54403e-06
-0.109169
-0.10356
-0.000902418
0.252483
0.0286642
-0.0140058
0.702613
-0.00103741
-0.00967174
-0.143183
-0.0254819
-0.00600721
0.271608
-0.0884122
-0.000440341
0.0397079
-0.00046421
-0.000267139
0.297338
0.0180769
-0.00119886
-0.127597
-0.0620499
-0.00917965
-0.0307558
0.00629375
-0.0576905
0.00443568
-0.00917852
-0.157957
-0.0939479
0.064508
-0.00239189
0.320812
0.392535
-0.0969426
0.0265772
0.0483992
-0.0112499
0.324685
0.249818
-0.0706364
-0.000428555
0.0266508
-0.136613
0.0404197
-0.0684099
-0.00551006
0.12412
-0.0689177
-0.000364029
-0.00019437
-0.0361012
-0.0588663
-0.0654126
0.0257743
0.0924459
-0.108079
-0.00040493
-0.00362651
-0.000552845
-0.0755366
-6.2444e-05
-0.00508084
-0.0724956
-0.140911
0.300243
-0.00781032
0.0109157
-0.0530308
-0.0639862
-0.000340369
-0.114657
0.301148
0.309627
6.22553e-05
-0.000295948
0.314687
-0.0065772
-0.141283
-0.100097
0.00880724
0.00127246
-0.17047
0.00902061
0.321453
-0.139931
-0.00388057
-0.0196794
-0.122757
-0.00151468
-0.000636646
-0.0024008
0.045866
-0.126178
0.333601
-0.000555234
0.839405
0.0825873
0.000304778
-0.00252258
0.000657479
0.00075364
-3.74959e-05
0.000358994
-0.130821
-0.00189518
0.00113223
-0.000523581
0.281712
-0.0149407
-0.000509883
-0.000117438
0.646939
-0.0539607
0.0150157
0.00304274
-0.00188012
0.152557
-0.000259046
-0.0283662
-0.0764877
0.00572152
-0.0159951
-0.00025562
-0.000539282
-0.0755751
-0.101587
0.0187102
-0.087599
-0.0533415
-7.38486e-05
0.0529255
0.0786225
0.227032
-0.00452377
-0.000413189
-0.13723
-0.0159086
-0.00130983
-0.121442
-0.000362893
0.111257
-0.000235546
-0.00335246
0.134682
-0.00534862
-0.143849
0.77969
-0.00425034
0.000720699
-0.12662
-0.108919
0.0242792
0.01224
-0.000399284
-0.0778978
-0.000222607
0.374262
1.00068
0.226045
0.0079397
0.00943798
-4.883e-05
-0.068637
-0.000151495
-0.0154828
-0.00444075
0.000968333
-0.00878037
-0.0234614
-0.000325099
0.00228229
-0.0187063
-0.000824278
-0.0242825
-0.0414591
0.00140742
-0.00292529
0.903915
-0.00180004
0.00639481
0.000635105
0.0351703
-0.122789
0.0249358
-0.000464129
-0.000263939
0.00703278
-0.000288955
-7.64445e-05
-0.0282191
0.00181754
-6.34534e-05
-0.125111
-0.00566703
-0.139518
-0.00429524
-0.000179478
-0.008157
-0.00720365
-0.0371151
-0.0486044
0.0060476
0.00136197
-0.00121872
-0.00517138
-0.000208413
0.509905
0.00407908
-5.16937e-05
0.00154007
-0.00525228
-0.000930721
-0.157318
-0.134937
-0.00034305
-0.0181331
3.53575e-05
-0.00651236
-0.000193517
0.085066
-0.000368327
-0.000491889
-0.00875228
-6.11966e-05
0.0343856
-0.000588329
-0.00330781
0.0471326
3.19914e-05
0.661166
-0.131117
-0.102498
-6.5908e-05
-5.50487e-05
0.00505424
-0.00310209
-0.120826
-4.41837e-05
-5.7867e-06
0.00194946
-7.94179e-06
0.00098785
0.00117023
-0.00119818
0.00205501
-0.129813
0.803328
-0.0732704
0.609115
0.0232654
-0.0403382
-4.83489e-05
-0.00229338
-0.0311932
0.000373413
0.000740378
0.000443393
0.195462
-0.00341749
-0.000569154
0.815945
-0.00140132
0.00153671
0.00131257
-1.23777e-05
0.207985
-0.00560395
0.00296412
0.000323188
-0.0013524
-0.000179609
-0.00233638
-0.107632
-0.00108806
-0.00396856
-4.21303e-06
0.000388679
-0.000671141
0.367493
-0.00115255
-0.000707856
-0.172036
0.00977031
-0.000221361
-0.00348206
-0.000160309
0.340156
-0.179008
-0.000764906
-0.00101004
-0.00462859
-0.000406271
0.139649
0.256871
0.132732
0.0013318
-1.77631e-05
-2.76075e-06
0.153674
0.000661496
-0.15096
-0.0469178
-0.0395895
0.127082
0.903635
0.00512875
0.404066
-0.0365804
-0.0722918
0.345168
-0.000927593
-0.161603
-3.28001e-05
-0.0230083
-0.122579
0.000143265
-0.108589
-0.00246807
0.00404408
-0.0132313
-0.106913
-0.10513
-0.00757835
-0.14511
-0.110376
-0.00048717
-0.0310025
-0.000133243
-0.0935103
-7.267e-05
-0.000484164
0.0680191
0.329441
-1.63368e-07
-0.111961
0.00930129
0.000198327
-0.0505835
1.53227e-05
-0.0350346
-0.000675054
-0.0962774
0.000327913
-0.000226735
-0.00516895
-0.000124205
0.32243
-0.0757588
0.218063
-7.80273e-05
0.00163656
-0.0814116
2.0604e-06
-0.140808
-0.164356
-0.138506
0.847262
-0.0165928
-4.55174e-05
0.0655148
-0.10377
-0.00627339
-6.29658e-05
-0.000222539
-0.117694
0.000330349
0.00228527
-1.39676e-06
0.000414247
-0.0704234
0.325018
-0.0804433
0.230178
-0.0136876
-3.42489e-06
0.0176401
-0.112349
-5.41521e-05
-3.54648e-05
0.000836484
0.000167428
0.0010548
0.489302
0.0875785
0.000146797
2.85582e-05
-0.165339
0.393997
0.359648
-0.000115095
-0.0899996
-0.0462491
-0.0249224
-0.119593
-0.020464
-0.00744815
0.290493
-0.000106871
-0.0657735
0.3402
-0.120881
-4.45159e-05
-0.153578
-0.000450913
0.56836
0.0739687
-3.58999e-05
-7.10299e-05
0.377599
9.4787e-06
-0.000461359
-0.0298915
3.34419e-05
0.487462
0.00918539
-0.0187069
-0.162642
-0.00961212
-0.152639
0.365856
-0.0169624
0.0132643
0.00257396
-5.00655e-05
-0.00260295
-2.02536e-05
-4.10079e-05
0.0775903
0.359559
0.306167
-0.00112723
0.463873
-0.0243925
1.99064e-05
-0.114305
-4.58792e-05
-0.0691054
0.0761368
-0.0346983
0.0115027
0.00481973
-0.0236919
0.000642553
-0.00425326
0.0530062
-0.00736914
-0.000122959
7.67923e-05
-0.000158928
0.0769633
0.000143769
-0.0513516
0.48745
-0.0152105
0.000132118
-0.00881695
-2.56296e-05
0.247031
-0.000909501
-0.000169109
-0.000218213
-3.33705e-05
0.409239
-0.000385638
0.469663
-0.149435
0.000288359
-0.123361
-0.00122723
0.317964
0.834227
-0.00358575
6.28247e-06
4.172e-05
-5.40077e-05
0.312965
1.83037e-06
0.00271593
-0.0608576
0.44657
1.72839e-05
3.93663e-05
7.5898e-06
6.44322e-05
-0.0513547
4.67247e-06
0.539594
-0.0385024
-0.000318232
7.6849e-05
-0.00524763
-0.072735
3.7308e-06
-0.000145351
0.333914
8.70039e-05
-0.0791894
-0.0777683
0.000342709
2.29341e-06
-0.140508
3.32059e-06
0.341859
3.83193e-05
-0.00113591
3.00663e-05
-0.000447645
0.203498
8.17991e-06
-0.00414927
2.12325e-05
0.0369314
-0.00857768
-0.0162256
0.00284544
0.312851
-0.000680803
-0.000206168
-0.022444
-0.0216858
-0.000623416
-0.000133239
-0.00227735
0.000104505
0.402241
-0.0250117
0.830478
-1.56521e-06
-0.0193392
-0.000399323
0.296287
0.000148022
-0.0643762
6.0866e-05
-0.00401261
-0.0827462
-0.000587048
-0.0393252
-0.121914
0.0132165
-2.29175e-05
-0.12254
-0.000843253
-0.000746514
-0.0140261
-0.0249394
0.00335827
-0.000126955
-0.00110964
-0.00222523
-0.00325153
3.38832e-05
-0.00307414
0.810723
0.000251532
-0.00824773
-0.0864578
-0.183123
-0.156549
-0.118944
-0.0539178
-0.00130679
-0.030947
0.000199535
-0.000208593
0.813676
-0.000240645
0.382612
-0.00113926
0.00102697
-0.00288088
-0.0785394
-0.00106409
0.00206963
-3.87122e-05
-0.000999949
-3.95275e-05
-0.000203636
-0.0376295
-0.000278471
-6.81297e-05
-0.000212592
0.000372776
-2.58612e-05
-0.103898
0.494539
-2.5043e-05
-0.00151575
7.63418e-05
7.96791e-05
-0.00211439
2.36891e-05
-0.0022905
0.000728697
-0.000930974
-0.159465
-0.00174343
-0.00458616
1.25873e-05
-0.00378522
0.000862824
-3.86233e-05
-2.46565e-05
3.47837e-05
-0.00201121
0.00138796
-0.108492
-0.0642987
-0.161567
0.00168572
-0.00444368
0.0393589
-0.162992
-0.000240579
0.0417919
0.0176481
-0.00262485
-0.0294921
-0.14003
0.754303
-0.00106923
-3.80296e-05
0.00230842
0.000127577
4.56966e-05
0.165905
0.00954311
0.190213
-0.0795487
0.731935
-0.00131468
5.54913e-06
0.000386632
-4.60991e-05
-0.00342942
0.329825
0.422347
-1.34098e-05
-0.000428909
-4.39571e-05
0.404323
0.0570642
-0.0113503
3.0462e-05
4.99185e-05
0.0184302
-0.0017537
-0.173839
-0.0412801
6.24169e-05
0.00892188
-0.0736948
-0.00015368
0.00469853
-0.000170674
-0.11322
-0.00444848
0.311999
4.30711e-05
0.00429356
0.00026645
3.85594e-05
0.000440716
-0.0566472
3.80051e-05
-0.0023009
5.83622e-05
-0.0486122
-0.112987
-0.00719063
-0.0151255
-0.0214862
0.0230422
-0.0216854
-0.0062483
0.000174211
0.000268356
5.28511e-05
4.60907e-05
-0.000143639
0.0229673
-0.133437
0.00126186
-0.0881731
-0.00775331
-0.108755
0.000225193
-6.33691e-06
0.0033565
0.00980213
4.6878e-05
-0.0904631
-0.0354875
0.170556
-0.0848939
6.85577e-05
-0.00861078
0.00049628
-0.0767312
0.275093
2.95559e-05
-0.14358
-0.0528478
-0.0105957
9.8211e-05
-2.15503e-05
0.0807991
-0.0411727
6.19433e-05
-0.0168843
-1.12855e-05
0.000551287
0.262305
-2.11132e-05
8.24559e-06
-0.000214524
8.92778e-05
0.00231269
0.000225962
-0.0129875
0.000597507
-0.0309348
0.00283938
-0.000526373
-0.0721728
-0.103893
-0.0155874
-3.86095e-05
5.54613e-05
-0.125727
0.0145946
-0.116197
7.44948e-05
-0.0128442
-9.20717e-05
6.31669e-05
0.18011
-0.0173763
-0.00696895
-2.80008e-06
-0.0428288
0.000128307
-0.163411
6.95506e-05
-0.184968
4.87581e-05
-1.50906e-05
0.000219005
0.0026163
-0.0684874
-0.0446883
-0.16626
4.13982e-05
0.000240066
-0.189741
-0.0500184
-0.0209117
-1.1854e-05
-0.01538
-0.117179
-0.192437
9.17432e-06
-1.9135e-05
1.18858e-05
-0.0882022
-0.158898
0.00185525
-0.0272577
-0.000142434
0.47736
0.000240677
3.74218e-05
0.000383888
-2.15507e-05
-2.10074e-05
-0.00898928
0.000289815
-0.00631765
-0.151223
-0.0322379
-0.144759
0.000102449
-0.000130122
0.137104
-0.0789982
-0.0117278
0.240223
1.26271e-05
-3.34702e-05
-3.0546e-05
0.297784
0.000442856
-5.01257e-06
-1.13388e-05
-0.130779
-0.0380764
1.52529e-05
0.000200173
-0.0226944
-0.0158221
0.00109254
0.428245
-0.13471
0.000612026
1.00837
-4.5754e-05
-0.00171159
-0.0195984
-0.195295
1.66706e-05
-5.67252e-06
5.53985e-05
0.0121788
-0.0708665
-0.000847842
-0.118657
-0.0191072
7.01513e-05
-1.16427e-05
-0.0250054
0.00807464
0.0377615
-0.0362379
-0.111782
-0.0946522
0.0794457
-0.063832
-0.000160144
0.000901196
0.0498413
0.00137315
-0.00019648
0.00195886
7.95955e-05
-0.000231453
-0.0297222
-3.01532e-05
-7.17415e-05
0.102563
0.0078224
-0.000401007
-0.000103195
-1.35451e-05
0.460661
-0.0162554
0.00202001
-0.0668033
0.000583831
0.000506856
0.00043501
-0.000123192
0.00122961
-0.0908138
0.0481433
-2.30162e-05
-0.000406158
-0.0978301
-0.0717999
0.11131
-0.00122236
0.00468483
0.0438967
4.96307e-06
0.000153261
-0.101586
5.69582e-05
0.324987
2.28029e-05
0.0105619
0.000423652
0.000570138
-0.174248
-0.017986
-0.0434711
-0.0059869
6.80165e-05
0.0177283
0.138072
-0.0299046
-0.000336076
0.203959
0.319706
9.08917e-06
-0.126876
-0.00016852
-2.52504e-05
-0.000112786
-0.00140737
0.0482349
-1.29635e-05
0.000630196
-0.060045
-0.0626754
-0.0540895
0.55898
4.60197e-05
-0.000175036
0.333119
-0.00113422
-0.00934846
-0.00162414
0.329259
0.00011377
-0.000767163
0.000117117
6.95537e-05
8.09903e-05
9.26851e-05
0.000187483
-0.0437683
2.14736e-05
-0.00813384
-0.109531
0.467121
-0.000343333
-0.000125568
0.0118425
0.185163
-0.0976706
-0.00187516
-0.173995
0.557789
0.000110491
0.698571
-1.09377e-05
0.00843836
0.0593292
0.0011056
0.742997
-3.56831e-05
-1.50075e-05
0.00298215
7.94922e-05
-0.00215296
0.000666107
2.90938e-05
-0.00488371
2.73457e-05
-0.000361732
-0.00819053
0.453348
0.127467
0.0536403
-0.10822
-1.27438e-05
-4.52088e-05
0.00861464
-0.119656
-2.41032e-05
-0.115124
-0.000135677
0.221608
0.139519
-0.0783855
-0.00336178
-0.0278321
-0.00245053
-0.0364834
0.0119031
-0.0174197
0.148232
5.5172e-06
0.504367
0.134406
-0.00140403
0.412698
-0.0327153
-3.12448e-05
6.00482e-05
0.000171078
-0.000530165
-0.000299176
0.455054
-0.00244793
0.467522
-0.00254596
0.325733
0.43296
0.295709
-0.0172982
-1.25583e-05
0.000159506
-0.0261401
-0.157697
-0.115455
0.00379395
5.16787e-05
-0.0943472
-0.000742773
1.52477e-05
0.00257409
-0.00267332
-0.00150151
0.079734
0.000192355
-0.120652
0.139089
0.000148464
0.000683135
-0.0332457
-0.13252
-0.00182595
-0.00129544
3.30992e-05
0.000634137
0.260247
-0.0406409
-0.113538
0.00332744
0.261262
-0.094458
9.0499e-05
5.83862e-05
0.0927752
-0.000225501
0.230657
0.00801947
-0.0335471
-0.00095787
0.00418028
-0.0863405
-8.91511e-05
0.00124953
0.0206575
-0.1843
0.341728
-0.156014
-0.0656473
-0.000408372
-0.000115417
0.0167019
0.000119275
-0.187659
-0.15985
0.00143051
0.00867293
0.00950093
-0.154392
0.00162025
0.000485223
9.75464e-05
-0.0998627
7.37495e-05
0.00141887
0.254236
0.352128
-0.159115
0.113059
0.114054
0.0843503
-0.000390804
0.0328267
0.000312239
2.26264e-05
-0.000178016
-1.49319e-06
7.11985e-05
-0.000896408
-0.0188592
-0.0687979
-0.0240701
-0.0668434
0.125107
0.104034
0.0102543
-0.152884
0.000408821
0.0119014
0.0283053
-0.000974906
0.177064
-0.0028882
-0.026589
0.0312743
0.0137204
0.00281019
-0.00999091
0.108639
0.00210625
-0.0485557
-0.0402461
0.858728
-0.0595758
0.187301
0.104245
-0.0851945
0.00560569
0.000258886
-0.00646629
0.000144057
-0.00658593
-0.0615519
-0.000175739
-0.000108306
0.536661
-0.00818969
-0.103447
-0.0467552
0.000520373
-0.00326987
-5.77477e-05
2.03655e-05
0.0993347
0.000103413
-0.00734267
0.180646
0.0159001
0.00283768
0.0465808
-0.0142804
0.0105844
-0.132021
0.00221808
-0.0110265
-0.138215
-0.00212399
-0.020044
0.00196159
0.00380625
0.00251875
0.0979943
-0.000767126
0.0142258
-0.136016
-0.0505695
0.000808875
-0.135835
-0.0369755
-0.0428894
0.00027357
0.01661
-0.151671
-0.00209723
-0.0119348
-0.126425
0.00190675
-0.00294244
0.431802
-0.0480251
-0.000103479
0.020638
-0.118453
-0.00263337
0.378092
-0.00508055
0.00258747
0.133918
-0.00357656
0.0208622
0.263244
0.00018503
0.00297276
0.000451314
9.13906e-05
-0.0111347
-0.016714
-0.000310546
-0.0597141
0.221965
-0.093654
-0.15699
0.00295552
-0.00812599
-0.00144111
-0.0632461
6.73155e-05
0.046866
0.000112251
-0.0395557
-0.00488552
-0.0123254
0.111464
0.265553
-0.16585
-0.00013372
0.406556
-0.00470156
-0.00565467
-0.149372
-0.170543
-0.038226
-7.51873e-05
-0.0026481
0.0181784
-0.00768006
-0.011761
0.00113358
0.195569
-0.0988261
-0.0275255
-0.016595
0.0721707
-0.00382219
-0.000711583
0.00431399
1.20467e-05
-0.00770079
0.258294
0.00203608
-0.146593
-0.000138071
-0.0182691
-0.00809568
-0.179146
-0.0282874
-0.193909
-0.000161909
-0.000156722
-0.00710324
0.0264637
0.00473551
-0.202492
0.207833
-0.118239
0.000475264
-0.209527
3.91115e-05
-0.208105
-0.0627012
-0.182012
-0.164549
-0.136828
-0.0585837
0.0794701
0.130714
0.177397
0.224452
0.270405
0.399016
0.439701
0.478202
0.5437
-0.0200127
-0.017994
0.168479
-0.0360881
0.0023018
0.0507476
-0.0995376
0.00144028
-0.00152963
-7.18405e-06
-0.0346368
0.0438421
0.000114297
-0.000720389
-0.0261017
-0.00356299
-0.199975
-0.0255077
-0.138241
-8.16094e-06
0.00147743
-0.000129155
-0.101927
-0.0213621
-0.0882189
-0.020158
0.00440822
0.000595052
0.011831
-8.22697e-05
-0.00367911
-3.87752e-05
0.000938694
-0.0110038
-0.0285144
-0.000510595
0.000823544
0.111792
-0.0252115
0.165004
-0.205779
-0.0152192
0.357828
-0.0461802
0.00933344
-0.0527483
-0.00801489
-0.0309893
-0.0295396
0.604622
-0.00302797
0.00017572
-0.0142643
-0.0215497
8.12254e-06
0.17872
-0.00971879
0.572129
0.0267916
-0.112666
-0.0657766
0.124627
-0.0110728
-0.00012385
-1.91963e-05
-0.0103195
-0.124977
0.000144175
0.631041
-0.0067776
-0.0120245
-0.000165092
-0.000948226
-0.0144741
0.314458
-0.00837435
0.254627
0.00160981
-0.035003
-1.57352e-05
0.0655568
-0.0182653
0.0472989
-0.0129139
-0.0134117
-0.00172672
0.00339176
0.0293256
-3.05847e-05
-0.0225317
0.00151582
-0.00097858
0.0011768
-0.0211581
0.000647729
0.297059
-0.0259743
0.00955301
-0.0760919
0.127543
-0.0910547
-0.0272477
0.110053
-0.0450427
0.349698
0.026498
-0.00838105
-0.123473
-0.00165989
-0.000120311
0.00110178
0.000226165
-0.00528157
0.0109878
0.000215399
-0.0323089
0.0531251
-0.00758551
0.000109689
-0.00812218
-0.104011
0.304058
-0.0801244
-0.114924
0.0202563
0.191775
-0.00305734
0.171021
-0.0287456
0.0131484
0.0872502
-0.142959
0.233726
-0.000132658
-0.0713596
0.00289356
-0.00366498
-2.03172e-05
-0.014777
0.240786
0.0023836
0.446433
-0.0508931