/*--------------------------------*- C++ -*----------------------------------*\
  =========                 |
  \\      /  F ield         | OpenFOAM: The Open Source CFD Toolbox
   \\    /   O peration     | Website:  https://openfoam.org
    \\  /    A nd           | Version:  7
     \\/     M anipulation  |
\*---------------------------------------------------------------------------*/
FoamFile
{
    version     2.0;
    format      ascii;
    class       volScalarField;
    location    "8.5";
    object      p;
}
// * * * * * * * * * * * * * * * * * * * * * * * * * * * * * * * * * * * * * //

dimensions      [0 2 -2 0 0 0 0];

internalField   nonuniform List<scalar> 
20933
(
-0.00525077
-0.0343146
0.0422817
2.23697e-05
-0.0017809
-0.00268368
-0.0925255
0.900455
-0.0427609
0.883481
-0.0667056
0.720735
-0.0461207
-0.00501822
-0.00654073
1.7556e-05
0.244573
0.576842
-0.0785153
-0.0327174
-0.0323865
0.734986
0.890738
-0.0492553
0.0384989
1.3154
0.0123164
-0.0356569
-0.0305574
-0.0773181
-0.0020886
1.48451
0.889899
-0.0233737
-0.000431618
-0.0020988
0.974046
-8.29137e-05
0.0178048
0.515406
0.0723672
1.0423
1.11651
0.0108233
1.31441
-0.0846924
0.782186
0.472516
-0.000270536
-0.0572287
-0.000602136
0.168412
0.0854246
-0.000588654
0.081459
-0.0794645
-0.0430369
-0.00247058
-0.00636928
0.259232
1.37417
-0.0641886
-0.016933
0.835589
-0.000673599
-0.00869214
1.28862
-0.00962533
0.144089
1.30169
0.0505768
0.184286
-0.00593406
-0.039027
1.29339
0.0613652
1.29118
-0.0907297
0.507866
1.21967
-0.00726053
0.00177502
-0.0415247
-0.0379964
-0.064038
1.12237
-0.0386773
1.58311
0.833647
1.36141
0.742368
0.000112076
-6.36487e-05
1.55524
0.444321
-0.0157831
1.56752
-0.00195198
-0.050594
0.934852
1.37252
-0.0384147
1.393
0.118016
0.288471
0.105334
1.23109
0.155291
-0.0470836
1.19226
-0.0363172
-0.0966852
-0.040417
0.0509342
0.0753065
-3.75312e-06
1.10104
-0.00646168
0.0823243
1.20567
9.51321e-05
-0.0224286
0.58134
-0.0117028
-0.0232828
0.58241
0.836357
-0.0346184
1.49927
1.12021
-0.0467721
-0.0564528
0.072358
0.0171984
1.23785
0.263838
0.553152
-0.0305371
-0.030233
-0.0655434
-0.0313039
-0.0425583
0.150765
1.40655
0.373469
1.24729
0.93779
-0.0485288
0.792897
0.0139684
-0.0487118
1.29163
-3.64214e-05
-0.0338246
0.00177684
0.952432
1.13886
-0.0539423
-0.0855055
-0.0490058
0.065909
-0.0794703
-0.00241848
0.395186
0.425072
1.57333
-0.0362257
-0.0433408
0.0528235
0.960882
0.536224
1.31981
1.16448
-0.0259533
1.63353
0.875449
-0.0047796
1.35676
0.0885953
1.22291
1.26557
-5.65131e-05
1.40326
1.14575
-0.0310147
-0.0927595
0.0526939
0.903083
0.103742
1.49205
0.829615
0.257151
0.952653
0.159633
-0.0850488
0.656204
1.39904
0.382563
-0.0306658
1.50504
0.510377
0.13238
0.104186
1.47092
1.424
-0.0593573
-0.0160608
0.171532
-0.0783789
-0.00241908
1.28123
1.34597
-0.0501362
-0.0763315
1.20962
1.29262
-0.0092583
1.2052
0.172356
0.019746
-0.021848
1.16337
1.43856
0.748846
1.18284
-0.0325857
-0.0122445
1.01091e-05
-0.0071877
-0.00134891
0.570479
0.0678298
1.21899
-0.0610558
1.14433
-0.0355029
0.104809
1.31154
1.58057
1.1517
1.28156
-0.0776117
1.02637
-0.00833553
0.31323
-0.00636384
0.0857497
0.249818
0.17791
-0.000232842
-0.0459679
1.45003
0.61671
0.0156259
-0.0658931
0.0694565
-0.0813259
1.05307
-0.0611492
-0.0817835
-0.0384719
-0.0202599
-0.000912754
-0.0355755
-0.0730589
1.40557
0.370115
-0.0372228
1.1547
1.4189
-0.038137
0.000450912
-0.0372076
1.28668
0.0244238
1.36875
-1.65327e-05
-0.0758479
1.19405
1.26589
0.00567568
-0.0398217
1.48279
0.173222
0.248746
1.38364
1.48501
-0.0417727
1.2063
0.423841
1.21046
1.06056
0.0004632
0.361129
0.97687
-0.00517439
-0.072827
0.417105
-0.0669749
0.496439
0.314738
1.57984e-06
-0.00144701
1.36441
-0.00221728
-0.0814073
-0.0492796
0.73657
-0.0580929
1.22218
0.453979
-0.0428657
-0.0937475
0.933172
0.677458
-1.61904e-05
1.3558
1.1293
1.34448
0.105327
-0.00072631
1.47616
-0.00535531
-0.031532
0.655501
0.390468
-0.0495654
0.148034
1.14399
1.55037
1.26463
0.520686
1.6441
2.41424e-05
-0.0233256
1.26758
0.0168161
0.969302
-0.0356192
1.30357
0.415386
-0.000689744
0.403381
1.09331
-0.00717803
1.40368
1.12345
-0.000684813
0.0564572
0.873241
0.60569
-0.00814414
1.15366
-0.00163852
1.61142
-0.0345292
-0.0503976
-0.0433864
1.26198
1.13446
-0.0645615
0.926283
1.35931
-0.00227989
1.0349
1.11317
1.63278
-0.00446521
0.747985
0.234325
-0.0840885
-0.000348153
1.30384
1.04922
0.330662
1.33489
0.546479
-0.0449396
1.00996
0.431566
0.621402
1.61125
-0.0184998
0.608904
1.3412
-0.0681257
0.364993
-0.044581
0.852493
-0.0572407
0.754263
0.344515
0.591032
0.000372471
0.790804
1.33393
1.05834
-0.0488669
-0.0177591
1.45939
1.47367
-0.00557016
-0.0725014
1.21376
-0.0776426
0.0877264
1.04936
-0.0452678
1.67249
0.0163123
0.792898
-0.0156324
1.34134
1.10994
0.185685
0.0909837
0.266435
0.521036
-0.00180311
1.21066
0.19107
0.853518
1.59947
0.110881
0.0643023
-0.00197499
0.490489
0.358872
-0.0419221
1.07436
-0.00035905
-0.0530295
0.0183221
0.189611
-0.0326016
-0.000268439
-0.0445524
0.637566
-0.0250991
0.0348297
-0.0624305
0.427781
0.328782
-0.0577587
-0.0904533
-0.000137877
0.145469
-0.0768469
0.0160306
0.0148035
0.680115
1.04636
0.41675
-0.00071078
1.50405
0.0163074
-0.000459919
0.0666322
-0.0671616
-0.0368949
1.41496
0.0116001
0.431205
-0.0621094
-0.0701083
1.03062
-0.029239
-0.0520314
-0.0672274
-0.000336101
0.133402
1.52794
-0.0711883
-0.0761361
1.06677
-0.0487666
1.05328
0.801355
-0.00611354
-0.00224146
1.13277
1.58145
-0.0862431
0.909508
0.623292
-0.064057
-0.0652003
1.21219
0.258005
-0.0308246
-0.0330559
-0.0663972
0.117095
1.46355
0.520061
5.89075e-05
1.39613
0.0240604
-0.0380525
1.18059
0.0203613
-0.0165136
-0.000726796
0.191667
-0.0564205
7.66322e-06
0.903755
0.0372432
1.21724
-0.000845652
-0.000852087
-0.0512072
-7.80072e-06
-0.0925378
-0.0146464
-0.00162223
-0.0275482
-0.0912169
1.16299
1.3426
-0.00520558
0.00338962
-0.0630129
1.35003
-0.0054385
1.35104
-0.0290128
1.61264
1.05963
0.75558
1.55215
0.215065
-0.0146535
0.232115
0.00103454
1.32851
1.20425
-0.0467998
0.0976761
0.318022
0.0498641
-0.0136392
0.0721488
3.81545e-06
1.16942
-0.0926526
-0.0433713
-0.0165422
-0.0184447
0.790862
0.437847
-0.00785981
0.0185013
-5.82852e-05
1.61419
1.45133
-0.00716853
-0.0437824
0.0442959
1.20132
-0.0916145
0.628911
-0.0722302
1.27693
0.757602
-0.0585854
1.66354
0.102445
1.2542
-0.0144179
-0.0835894
1.39992
0.00535829
1.59095
1.17941
1.62934
-0.0138244
-0.0217479
-0.0183364
0.272536
0.0183531
-0.0099282
1.2553
1.2895
1.04935
1.33935
1.57437
0.891187
1.33396
1.05689
0.00257833
1.14659
-0.052864
-0.0698109
-0.00182833
0.0405126
-0.01221
0.909222
0.209526
1.21908
-0.009361
0.374382
1.18133
0.00282281
0.0821923
-6.24491e-05
0.00026433
0.905449
-0.0463398
-0.0601086
0.000302688
-0.000587486
0.296143
-0.000641768
0.432519
1.6239
0.929959
0.854796
-0.0543565
1.20976
0.511917
-0.00345396
-0.0430466
-0.00430983
-0.000765037
0.00109391
-0.0160468
-0.0677658
0.949297
0.263007
-0.0861035
-2.69235e-05
1.26174
0.277462
0.151201
0.00850603
0.562595
0.0316775
-0.0844975
1.18331
1.52315
1.13999
-0.0587955
1.14906
-0.058324
-0.0413973
0.95686
5.2542e-05
-0.0260836
0.763882
0.877154
-0.0568142
1.18756
1.42965
1.15874
-0.0700757
-0.089708
0.0475534
0.445519
1.11373
-0.00654807
1.39081
-0.0322313
-0.0794451
0.249706
1.5173
0.958038
1.21575
-0.00602917
1.59199
-0.0537612
-0.0387941
1.64704
0.164277
-0.0507315
1.24019
1.27767
-0.0499129
1.10376
1.35105
1.26874
1.19907
1.25402
1.07977
-0.0217017
-0.0525766
0.00198764
-0.0756298
1.33167
-0.0715211
0.69829
0.665129
-0.0621961
0.4415
0.770999
1.35353
0.435062
-0.00135797
0.128575
-0.0452634
0.179209
0.16796
-0.0777501
1.18846
1.38481
0.328093
1.34512
1.58876
-0.00646459
0.00385981
-0.00629401
-0.0441433
1.00414
1.61776
0.535464
1.21337
-0.0350756
1.10505
1.13013
0.0668886
-0.0695095
-0.0910064
0.696835
0.000871554
0.282109
-0.0608627
-0.0854775
1.22376
-0.0120379
0.0121582
1.2808
0.425275
1.48312
-0.0314883
1.0421
0.16197
-0.0400766
1.38565
1.51253
1.32998
-0.022042
1.51004
-0.0656679
1.37373
0.182738
1.32225
-0.047581
-2.62361e-05
1.32598
1.37932
1.37134
1.32778
0.899387
0.378366
1.02431
-0.0509024
1.32803
1.17947
0.277558
0.217293
-0.0209562
0.223732
1.20423
-0.080929
-0.0632357
1.35756
1.33987
-0.043163
1.31014
-0.0868604
0.540804
-0.0264491
1.35889
1.37897
1.59269
1.363
-0.00594217
-0.0359194
-0.00203836
-0.04781
1.47629
0.828716
1.18795
-0.0837372
1.06131
0.0501423
1.48035
0.0539519
1.34996
-0.0244121
1.45013
1.50484
-0.0386971
0.552677
1.44392
-0.00611154
1.53368
0.0314157
-0.0075424
-0.0711634
1.26044
0.724856
-0.0574611
1.32248
1.52424
1.12205
0.109087
-0.0373298
0.208826
1.33682
1.50582
1.62942
0.803983
-0.00218399
-0.0637303
1.19998
0.000570292
-0.0241825
0.00124473
-0.0203891
-0.0252262
0.0213754
1.40791
0.0097158
-0.00152346
1.15793
0.811461
-0.00107652
0.631503
0.00178904
0.700573
1.16549
1.31863
0.00146452
0.591408
-0.0132304
0.0910328
-0.00707596
1.34851
1.41397
0.0116469
-0.0126774
-0.0295713
-0.00618095
1.3301
0.00793347
0.00713444
-0.059942
0.108656
1.56174
-0.0409081
0.369567
1.35796
-0.0143308
0.473295
0.0203004
-0.0436566
-0.00658436
-0.00122007
1.55251
1.03126
-0.000783505
0.29784
1.06806
1.29634
1.17434
0.141559
-0.0484504
-0.0291428
-0.0418663
1.13256
-0.0562787
-0.0317142
-0.00025803
-0.0498718
-0.00310869
-0.0208927
1.27129
-0.0467953
1.3478
1.32536
-0.0685624
-0.0318469
1.5823
1.08775
0.288677
-0.0350072
1.09671
-0.0352635
0.985991
1.55402
1.02374
-0.0521421
-0.0383552
1.23879
-0.0618051
-0.0582458
-0.0350206
1.4294
-0.0474881
0.25549
1.07769
0.923564
1.14745
0.00896093
0.985433
-0.0061591
1.35268
-0.0668012
0.753381
-0.0175068
-0.0277635
-0.0016916
-0.00340628
0.00101455
1.4353
-0.0362155
1.04873
0.52062
0.0600289
-0.0245315
0.851053
1.60484
1.46091
0.0296552
0.809093
0.0314811
0.464101
-0.0601629
0.649019
-0.0767116
1.96487e-06
1.11294
-0.051026
0.0217642
1.41947
1.22936
1.37334
0.113462
0.192775
-0.0232243
0.827278
0.123069
9.74999e-05
1.45185
0.594722
0.788288
0.307028
-0.000220457
-0.0143746
0.00189476
0.767042
-9.96445e-05
-0.0291811
0.0137174
-0.0415037
1.47721
-1.00763e-05
-0.043335
-0.0851775
1.53132
0.0340923
-1.84036e-05
-0.00621764
0.557648
1.16501
-0.03363
-0.0284554
-0.0066858
1.18386
-0.035534
0.780975
0.0384805
0.0102443
0.453544
1.16511
0.411222
0.810216
-0.00719109
1.22768
1.51512
-0.0291747
1.04735
-0.0546553
1.54002
1.49532
-0.0214937
0.480835
0.43679
1.03237
-0.000242062
1.32563
1.63521
-0.0128878
0.712965
0.939827
0.000134972
0.000729998
-0.0363526
1.60037
-0.0116811
-0.0398125
1.33707
0.00205543
1.01736
1.3658
-0.0439193
1.44932
-0.0520019
-0.0321557
1.36983
0.80525
1.14611
-0.00771918
1.37595
0.776413
1.31799
-0.0666881
-0.00998825
0.715653
1.44904
1.37149
1.46226
1.33953
0.197939
-0.0692793
0.324369
1.07322
1.32086
1.51839
-0.0587339
0.882964
1.55837
1.2679
0.000282745
-0.0792945
-0.0399456
0.659355
0.0879611
1.4276
0.803414
1.31627
0.472927
0.108309
1.32335
0.223449
1.08611
0.00475673
0.411575
-0.0100902
-0.00124486
-0.0561223
1.52121
-0.054444
-0.0439954
0.184026
0.728745
0.470554
-0.0446488
0.316468
0.0656333
-0.0464271
1.12405
0.70566
1.19876
0.0328723
1.37254
-0.0276947
4.23387e-05
-0.0139655
0.026636
-0.0113607
0.00445286
0.00753374
0.950079
1.46595
0.722204
0.371319
0.00373821
-0.0568129
1.03796
0.0179282
1.5465
0.963872
0.0187279
-0.0444225
0.188433
0.0240541
-0.0247893
0.00173415
0.124669
-0.0476426
0.929628
1.49138
1.39467
0.877149
-0.010315
-0.0535833
-0.00436491
-0.0179521
1.13616
-0.0253646
1.10414
-0.0297716
-0.0288935
1.47444
1.49853
0.000201814
1.3346
1.38922
0.635532
0.0232023
0.703075
1.12906
1.4952
0.99533
-0.00306289
1.47025
0.403833
-0.0212658
-0.0328361
-0.00621858
1.52034
0.0291505
1.35301
0.973866
1.4559
0.0720009
1.01974
1.08054
-0.0300655
1.37251
0.192015
1.43378
0.000647942
1.01372
1.0934
1.1124
0.000114149
0.289485
-0.00544722
-0.0582386
0.944693
-0.03274
1.05007
1.03924
1.59615
0.076238
1.43986
0.0558746
0.0486415
0.384026
1.33203
0.544366
0.215822
0.358648
1.20358
0.000412282
1.57642
0.00448478
0.154609
0.528131
-0.0479367
1.34591
-0.0233557
1.40026
1.17383
0.597828
0.277323
0.702656
-0.000417816
0.24261
1.42702
-0.0483331
0.151233
0.994126
0.453649
0.15726
0.288438
-0.030349
1.48312
-0.0492905
0.369727
0.158745
-0.078884
1.31438
1.61464
-0.0619609
-0.0604903
0.0134289
0.446164
0.000609796
0.615588
1.50122
1.45458
0.05394
0.678737
-0.000108745
-0.0695793
1.2385
0.02011
0.805656
-0.0485367
1.566
1.21946
-0.0639029
0.0214491
-0.0243271
1.57376
-0.0556671
-0.00291798
-0.0426542
0.620756
-0.0361862
-0.0457884
0.583099
1.49193
-0.0705138
1.53672
1.63078
-0.0360405
0.136688
0.000307132
-0.00849787
0.0567714
-0.0407333
1.56434
-0.0409274
-0.0125109
1.10268
-0.0579414
1.18614
-0.0200291
0.292751
1.19343
1.11024
-0.0727347
-0.0217748
-0.0602786
1.27345
-0.0547065
0.832444
-0.063407
-0.0207824
-0.0663942
-0.00501121
-0.00833545
-0.0649223
-0.0530703
0.137614
0.0259005
0.557825
-0.00535915
-0.0598381
-0.0502044
-0.0410684
0.00317258
1.47622
0.234338
-0.0348279
0.00779433
1.25001
-0.00475524
1.12567
0.131449
0.401036
-0.0233607
1.18173
0.837127
-0.075441
-0.00971982
-0.0200108
1.01091
-0.000297311
1.10485
1.27032
0.0115215
0.07569
0.571691
0.501577
-0.034142
0.677673
1.22153
-0.0443013
1.06578
-0.0740654
0.0962543
1.03612
1.49853
0.211432
0.00475836
1.31355
1.09664
-0.050163
-0.0529123
-0.0837018
0.0918614
-0.0480655
-0.0175838
1.24067
-0.0405798
0.0488943
1.24538
0.018295
-0.0500052
0.90992
-0.0104434
0.670643
1.09799
0.202565
1.13356
-0.025931
1.46173
-0.0121339
-0.000388116
-0.000129522
0.352978
-4.47091e-06
-0.030954
0.68559
0.0496261
0.00127057
-0.0327391
-0.0343998
0.808064
1.34813
-0.0017335
-0.035741
0.0409327
1.05885
-0.0706903
-0.0372241
-0.0517422
0.36334
0.91522
-0.0149784
-0.0253676
0.131784
1.17623
1.25366
0.661145
1.11727
1.3837
-0.00381771
1.06078
0.502644
0.218413
-0.0457445
0.137664
1.64366
0.0157484
-0.00223401
-0.0722108
1.17837
-0.0308525
-0.0011356
-0.0651307
-0.0745229
-0.0102901
1.35087
0.959468
1.09847
1.25861
1.12194
-0.0413043
0.612049
0.949025
0.337885
1.32381
0.787677
0.994655
-3.36541e-05
0.979741
-0.0382669
0.7678
1.0022
-0.0661102
0.422836
0.41498
-0.0408855
-0.020351
0.393976
0.74678
1.5063
0.807162
-9.8657e-05
0.881561
-0.0376545
1.01757
0.830442
-0.0329014
-0.0463579
1.06981
1.34193
0.587841
-0.0924738
-0.0551974
0.720558
1.06962
-0.0697649
1.22697
-0.0529019
0.652436
0.171514
1.42821
-0.00204527
0.00287483
-0.0122801
-0.0583235
0.112847
-0.046586
1.10183
1.25337
0.0185434
0.891517
0.0211549
-0.0349704
-1.217e-05
0.781058
-0.00891789
0.942077
-8.28649e-05
1.08797
-0.0819371
1.20578
0.121045
1.28075
-0.0758564
-0.0285084
-0.00186631
1.35573
-0.0632649
0.471541
0.636798
0.0271603
1.19409
-0.0289229
0.0172442
-0.0613947
-0.0118627
1.35708
-0.0132185
-0.0571684
-0.0417661
-9.05671e-05
-0.0402333
1.21861
0.00117783
-0.0841623
0.00167506
-0.00462939
1.14547
0.130675
0.368617
-0.00742164
0.000829064
-0.00951984
0.236316
-0.0639472
0.00277285
-0.0311514
0.804522
-6.00999e-05
-0.0566319
0.208982
0.640475
1.32046
-0.0441578
0.0124427
-0.0879587
-0.0260057
1.14029
1.23942
1.36836
-0.000107959
0.736872
-0.065782
-0.063381
0.971497
-0.0422152
-0.033181
-0.0417449
-0.0155213
-0.0492657
-0.0454376
-0.0384712
0.00289369
0.0639551
1.07772
0.0311362
0.870388
0.342876
0.241145
0.741861
0.537149
0.973042
0.127176
1.1063
5.00143e-05
-0.0201862
1.04979
-0.07968
1.13133
1.09038
-0.042658
-0.0813782
8.78952e-05
-0.0664111
0.317797
-0.0496066
-0.0514709
-0.0543032
-0.0453542
-0.0788219
-0.0517353
-0.0385017
-0.0199627
-0.090148
0.974624
-0.0736912
-0.00834211
-0.084972
0.00323585
-0.0841183
1.23066
1.19382
0.783599
1.41809
0.0125938
0.102458
-0.0663807
0.00351227
-0.00935706
-0.000507697
-3.81495e-05
0.763604
0.597855
-0.000588949
0.010309
0.46643
0.72898
-0.0534403
-0.0519942
0.0150335
-0.0096623
0.00319009
-0.00166158
-0.0819256
-0.0294317
1.47198
0.00481272
-0.0261942
-0.0526222
-0.0569372
-0.0393339
-0.0594024
0.000679503
-0.0401573
-0.0403025
-0.0764217
-0.0458581
0.522932
-0.0437344
0.892684
-0.0681966
-0.00904199
0.120354
1.12637
1.16957
0.943461
0.0810795
0.0176772
0.00696484
0.0533553
-0.055972
0.0378362
-0.0780187
0.0268827
-0.0230636
-0.00817587
-0.000120633
0.327914
-0.0190288
-0.00204505
0.00636612
1.5094
-0.0547988
-0.0490361
1.44188
1.47974
-0.0569045
1.46068
1.3967
1.15918
-0.00141837
0.0409049
1.48614
-0.00280615
-0.00180514
0.00290872
-0.058743
-0.0242617
0.0426676
-0.055526
-0.0710544
-0.071752
-0.00895191
-0.000700164
-0.0518942
-0.025926
1.59041
-0.0610488
-0.0448367
1.59238
-0.015402
1.53987
1.45062
1.08298
-0.0490927
1.58484
0.439279
1.28532
0.0647948
-0.000519894
-0.00329324
0.0121698
0.24855
1.3392
-0.00765533
0.0003527
-0.061723
-0.00074741
-0.0082831
0.721709
-0.0006305
1.1227
-0.0497454
-0.0140412
-0.0678688
-0.0512398
0.676759
-0.0164671
1.46438
0.00315743
1.3833
0.0228033
-0.065248
-0.000140911
-0.0914948
-0.0123641
-0.0852168
1.26231
1.32766
-0.000153823
1.47431
-0.0621423
0.000404462
-0.0212782
1.39262
-0.0588857
-0.00261018
-0.00160853
0.0012469
0.000129274
-0.000604404
-0.00319999
1.49855
-0.00140579
-0.00891223
0.00919493
1.53989
1.63609
-0.0188455
-0.0713183
1.14822
1.59339
-0.0680093
-0.0639116
-0.000160814
0.106586
1.36691
1.12455
0.000907932
-0.0517614
-0.0717342
1.41041
-0.0724251
-0.0325632
-0.033903
-0.0325058
-0.00867285
1.18905
-0.000510176
1.43454
-0.00954079
1.51982
-0.00390306
1.45345
-0.0476005
0.336396
-0.0236839
-8.39447e-05
0.00160089
-0.0237025
-0.0462667
-0.0157882
0.000510177
0.00382812
-0.00976116
-0.067229
0.000448976
-0.0421827
-0.0403097
0.00224961
0.414545
-0.000700674
1.12087
-0.0662509
-0.00658948
0.00623743
-0.057685
1.55755
-0.0365835
-0.0267516
-0.0271136
-0.0806629
-0.0550302
1.09477
1.17474
0.0184926
-0.0437393
0.0560339
0.467651
1.43243
-0.0826247
1.07244
1.21764
-0.000175914
-0.0773767
-0.0583321
0.00318835
-0.00266892
-0.00305933
0.00235764
-0.0227701
-0.0223932
0.0292773
-0.0330466
0.0712769
0.844277
-0.00751214
1.12355
0.586385
-0.0764284
-0.000118468
0.00137622
1.34437
-0.00399003
-0.0763374
-0.00255686
-0.0794323
-0.0375204
0.925211
0.286208
1.49566
0.000254624
0.000545454
-0.0734116
0.899822
0.00970552
1.43729
0.598058
-0.0615811
-0.0393636
-0.0489292
0.0470933
1.0873
0.18144
1.35763
-0.0861986
-0.000898561
-0.00690282
-0.0341817
0.000200085
-0.00204643
-0.0112194
-0.0333876
0.0249782
-0.0772188
-0.000430651
-0.0788842
-0.0482123
-3.47267e-05
-0.000524352
0.00956903
0.00104201
-0.00123498
-0.0106184
0.130472
0.00185885
0.272163
-0.0381744
1.14031
-0.067845
-0.0475745
-0.00011327
-0.0472545
-0.0695967
0.00155245
-0.0210121
-3.72332e-05
-0.0186236
-0.000592942
-0.0350963
0.341389
0.541132
-0.0890475
0.00021558
0.240889
-0.0166048
1.21461
0.999152
1.17579
-0.0060654
-0.0144814
-0.00191897
-0.0203499
1.38468
1.09644
-0.00711006
-0.0073116
0.855529
1.09343
1.49064
-4.4307e-05
-0.0110185
-0.027156
-0.000184596
-0.000109709
-0.00044768
0.000304847
-0.0073965
1.13817
-0.00571265
-0.000500537
0.024125
0.00139056
0.327704
0.0142704
0.925466
0.00190461
0.580089
-0.0707355
-0.0838002
0.718478
0.614907
0.000173841
0.705197
1.42908
-0.076993
1.16595
-0.0858263
-0.0182958
1.24188
-0.00472575
1.13353
-0.00825061
0.0714292
-0.0153164
-0.0217524
-0.0439339
0.00106277
-0.00109691
0.118762
1.45271e-06
-0.036261
-0.0754757
1.44453
0.0484873
0.0083739
1.11786
-3.74022e-05
0.000602481
0.0353338
-0.00336456
1.41856
-0.00606444
0.000796618
-0.0460357
0.497371
-0.0365822
0.00244071
-0.000783122
0.457962
0.0235663
0.000449837
1.32316
1.53401
0.00152977
0.207676
-0.00136152
1.18413
-0.00169574
-0.00971133
-0.000455924
-1.04321e-05
-0.0176627
0.00939089
0.00200302
-0.0635679
-0.00284301
0.0110082
-0.000617115
-0.00132894
0.0280807
1.25324
1.30551
0.0303442
1.09961
0.356903
-0.000145062
1.10037
-0.013918
0.00366801
0.00964267
0.203936
-0.00139373
0.118715
-0.00438579
-0.0194019
0.751938
-0.0484724
-0.0379453
0.639713
0.939151
0.58833
5.4098e-06
-8.6823e-06
-0.0460025
0.872907
-0.0141765
-0.0808279
-0.00126718
1.09137
0.0737028
1.25298
0.999451
-0.0412901
0.633669
-0.00279513
1.12895
0.305439
-0.0706896
-0.000804102
0.00213114
-0.0382822
-0.0445975
-0.0329942
-0.0526498
0.527368
-0.0246386
0.871611
-0.000107943
0.0110251
-0.00232478
0.509032
0.102414
0.00790959
-0.000125388
0.0886775
0.83066
-0.0634614
0.0766021
0.0667296
0.37126
0.0579424
-0.00171628
0.00104255
1.21677
1.2884
1.33601
0.000144046
1.2935
1.1949
1.29993
-0.00836553
-0.00112504
0.00032731
0.925623
1.02589
-0.0649154
-0.0836276
-0.0727878
-0.0326004
0.412184
-0.0394457
-0.0212447
1.06617
0.00301527
-0.034561
-0.000264372
-0.0455611
1.30045
-0.0481233
-0.000391799
-9.66635e-06
1.39239
1.19524
0.263081
0.840189
-0.0366602
0.231049
-0.0432019
0.199198
0.169661
0.147042
0.804814
-0.0511451
0.549067
-0.000316353
1.26944
-0.0149928
-0.013536
1.17294
0.0670501
-0.0303414
-0.080367
0.226365
0.60266
0.0265447
-0.000558593
1.07054
0.000869693
-0.0338054
0.329503
-0.00114855
-0.014568
0.00279495
-0.0809739
-0.0658522
0.291709
-0.00156962
0.256325
-0.0301182
0.225207
0.196511
-0.0297539
-0.0496763
0.171545
-0.0716641
-0.0412997
-0.0350314
0.93921
-0.0476309
-0.0204517
-0.000491638
-0.0599216
-0.0867514
-0.000649753
0.967916
1.24677
-0.068858
-0.0537409
-0.0350873
-0.023554
-0.00103484
-0.00470227
-0.0087812
0.205784
-0.000948564
0.0516587
-0.0765104
-0.0697508
0.00184285
-0.000772935
0.927484
-0.0103957
0.502914
0.989458
-0.00169947
-0.0862005
-0.0675578
-0.000455432
0.46267
-0.0807257
-0.0753165
0.421299
0.70428
-3.00719e-05
0.381036
0.731159
-0.00100601
0.552407
-0.0344395
0.0360993
1.06589
-0.0135803
0.000269978
-0.000115065
1.03975
0.0473138
-0.039624
-0.0770676
-0.0383883
-0.0221772
-0.0230755
-0.0675193
0.500365
1.35285
1.47616
1.15707
-0.000726868
0.919707
0.455577
-0.0417766
-0.0791119
0.896919
-0.0795839
0.0223651
-0.00140076
-0.0677587
1.12528
-0.000366826
-0.0558392
-0.0258755
0.105779
0.00113255
1.17477
-0.0827085
1.15568
-0.0518266
-0.0588048
0.0228624
-0.00233109
1.03478
-0.0362063
-0.0218515
-8.59759e-05
0.0157277
0.150377
0.662271
-0.0253625
-0.00056406
0.68198
-9.95329e-05
0.851483
0.620154
0.000600144
0.853448
-0.0526526
-0.000623589
-0.032344
-0.0011198
0.00139723
0.00093037
1.00725
-0.0476689
0.00177564
-0.055695
-0.0367126
1.00108
1.3021
0.000446516
-0.0302897
-0.0151774
-0.0255965
1.07272
0.0721185
0.000794231
0.805424
0.665159
1.14273
-0.0206303
0.00150818
0.914502
-0.00121703
-0.081271
0.0784559
1.37637
-0.041892
-0.0372393
0.00104413
-0.0154207
1.36821
-0.0725134
1.51554
0.617628
-0.0260806
-0.00167377
-0.0365631
0.00849666
0.000273174
-0.0322578
1.34955
-1.20191e-06
-0.0228331
1.36336
-0.000883341
-0.0315304
0.000324531
-0.00402326
0.000309836
0.188105
0.00892319
-0.00401711
-0.0400052
-0.00215734
0.000125392
0.000188646
-0.00038878
-0.0312173
0.00022875
-0.00241592
0.0341506
-0.0265553
1.5069
0.217296
-0.00914446
-0.0120935
1.57687e-06
-0.0374955
0.000158838
0.472468
1.13132
-0.00517661
-0.0157419
-0.0128836
0.374477
0.002629
1.57058
0.0039937
-0.00342844
0.834643
0.0325381
0.000183293
-0.0628348
1.11439
-0.00137907
1.1047
1.12877
-0.0437066
-0.0626957
1.2719
-0.0363941
-0.00465581
-0.0750661
0.981454
0.478038
-0.0566091
-0.000933719
1.3176
-0.00201895
0.0632657
-0.0133281
-0.0062627
1.45581
0.00108543
5.18688e-05
-0.0532166
0.782286
1.524
1.10336
1.61134
-0.0126746
1.43652
-0.00125206
0.93462
-0.00815298
-0.00210924
0.636847
-0.0326836
0.44717
-6.2167e-05
-0.0891611
1.53427
-0.0373796
0.122084
0.0034272
-0.00288779
0.733702
0.00496253
-0.0693471
0.000165247
-0.0273093
-0.000455973
1.56561
-0.0420162
-0.0611967
0.356876
0.0231304
0.597859
1.1068
0.000382518
0.0880549
0.712351
1.17409
1.58121
-7.94139e-05
0.0560937
0.033243
-0.00400073
0.777115
0.843252
0.0423553
1.38055
0.505098
0.71829
-0.0343602
1.0678
-0.0781216
-2.30094e-05
7.97353e-05
0.0001218
-0.000975941
0.00239884
-0.0558176
7.53734e-05
0.00177792
0.0225406
-0.000325776
0.870764
-0.0102858
-7.02338e-05
1.52547
0.000678712
-0.000581152
1.30571
1.57667
-0.0867586
-0.0159748
1.26124
-0.0218775
1.43416
0.311934
-0.00101017
-0.0668127
-0.0181912
0.00545376
0.00132144
1.15498
-1.95586e-05
0.000455615
1.37903
-0.00123834
0.00432027
-0.045884
-0.0539423
-0.0708369
0.000113795
0.398707
-0.0775129
0.000184329
-0.0654245
-0.0043114
0.883247
-0.000316054
-0.000342286
-0.00398941
1.35642
-0.0215325
-0.0121956
-0.00356753
0.00425659
1.31349
0.0334282
0.567712
1.26748
-0.00190676
1.45942
1.23279
-0.022492
-0.0662615
0.000623935
-0.0477751
1.43253
0.00679828
-0.00149676
0.000110428
-0.07839
-0.0140333
-0.00182998
0.000326819
1.45154
5.37834e-05
1.15391
-0.022198
-0.074324
0.000140102
-0.0055243
0.000295553
1.29057
1.30975
0.705376
-0.00239706
-0.0840148
-0.0453305
0.593153
0.46463
0.847006
-0.0852942
-0.0465739
-0.0934422
-0.00115104
-0.00201668
-0.00218375
-0.00389506
-0.00278317
-0.00329177
-0.00551814
-0.012827
-0.0806769
-0.00672992
-0.00655505
-0.0829237
-0.000973301
-0.00458701
-8.31961e-05
1.66009
0.402793
-0.00612977
0.00852579
-0.00533356
-7.15908e-05
-0.00117199
-0.00872214
-0.00750999
-0.0775617
6.42066e-05
-0.0936438
-0.00175446
-0.00262718
5.03565e-05
-0.0738852
-0.0551204
-0.0100779
1.35343
-0.011792
1.1313
-0.0675758
1.39766
-0.0987178
-0.0993612
-0.0993973
-0.099071
-0.0977571
-0.0974263
-0.0957647
-0.000808106
-0.0941185
-0.091489
1.30199
-0.0878664
0.0811442
-0.0782852
-0.00139777
-0.0305673
-0.0399252
0.000109804
-0.00781838
-0.000327458
-0.00491716
0.177999
-0.00310141
0.820983
1.17906
-0.0213508
0.00372343
-0.0793243
0.0104581
-0.0131703
-0.0199853
-0.0634477
-0.000672468
1.54353
-0.0368468
-0.0418333
-0.00908922
-0.00367575
-0.0115424
-0.00806471
-0.0999473
-0.0150327
-0.00507398
-0.0306189
0.320022
1.40932e-05
-0.000662373
-0.0101371
0.0817948
-0.00593256
-0.00931819
-0.00694365
0.000120012
0.000450701
-5.03277e-05
0.000525824
-0.00431895
-0.0107332
-0.0102885
1.28369
-0.00226841
-0.00772668
-0.00420935
0.00170413
0.000235017
0.000426059
1.01143
-0.0114056
1.24373
-0.0140576
-0.00272147
8.44743e-05
1.10531
-0.00711228
0.000470852
-0.0005347
-0.000455101
-0.0275099
-0.0123134
0.31742
-0.000388317
-0.0167962
-0.0018773
-0.00561836
-0.00324776
-0.0159736
0.00476482
-0.0477826
1.26266
-0.084445
-0.0305957
-0.00140105
-0.00034835
-0.076787
-5.19281e-05
0.0422266
-0.0129431
-0.0143507
0.000785027
-0.0160089
-0.023064
-0.0775129
-0.00154337
8.26715e-05
-0.0522787
-0.00125454
-0.0181224
-0.0183133
-0.0164578
-0.000290154
1.44369
-0.00101828
1.61758
-0.0233537
-0.0205195
0.0212179
2.89551e-05
-9.76487e-05
0.181429
0.000516365
0.0209686
-0.000991593
0.22417
-0.020485
-0.000379977
-0.000448312
0.00582812
1.43861
-0.000830114
-0.0455709
0.0171107
1.25904
-0.0636142
-0.0445885
-5.95166e-05
0.0954294
-0.0302127
-0.0615503
0.00109676
0.000382392
0.026762
1.5183
-0.0441549
0.000875776
-0.0261258
-0.000494751
1.13579
1.24986
-0.000275468
-0.00462657
1.06063
-0.000686697
-0.0170998
-0.000383824
-0.00119997
-0.0390499
-0.0658029
-0.0334921
0.135954
-0.0020148
-0.000260463
-0.00055963
-0.0130098
-0.000709182
0.869553
-0.0337243
-0.000350069
1.21736
0.00130913
-0.00337442
-0.0848797
-0.0226409
-0.00238979
-0.000547238
0.020045
-0.00500464
-0.0295448
-0.000199118
-0.0017436
0.852616
-0.0183629
1.07119
1.39412
0.0128618
0.00429773
-0.0811321
-0.0200678
1.52016
0.0304426
-0.00570369
1.51145e-05
1.18356
1.45984
0.886273
0.328966
-0.0741384
-0.000367153
-0.0752069
-0.00142936
0.00175482
-0.0336232
1.07844
-0.0507381
-0.000762389
0.00436414
-0.00277453
0.400006
1.12277
-0.0127865
-0.0715681
-0.00325667
-0.00341877
-0.00390822
1.43232
0.00753662
-0.00212748
-0.001093
-0.010551
-0.0449443
0.397001
-0.0137182
0.000536354
-0.0187434
-0.000396725
0.0307667
1.12797
-0.0921948
-0.00333319
0.0361285
1.10791
-0.00390415
0.52013
1.28111
0.00154093
-4.97464e-05
0.571798
1.06529
0.62893
0.93991
-0.0729953
-0.00371119
0.00056514
1.07787
-0.055924
0.00346172
-0.0591625
-0.028957
-0.0104619
-0.072813
-0.0045824
0.000595643
1.03999
0.00547954
-0.073906
1.30589
-0.0447365
1.24987
-5.8924e-06
-0.0712493
1.2013
1.52719
0.0361681
-0.0120745
-0.0259062
-0.00205172
-0.00592
1.24504
0.0270993
-0.0606836
-0.00523338
-0.00246608
-0.00463644
0.00683251
-0.00138993
0.956068
-0.00112746
0.0317867
-0.0059056
-0.0120601
-0.0019685
0.765592
1.17818
-0.0963648
-0.0976422
-0.0977236
-0.00169618
0.0100492
-0.000902737
-0.0961022
-0.0958479
0.777933
1.16853
-0.0948088
0.756165
-0.0352614
0.00108224
-0.0319255
-0.0929628
0.964514
0.72572
-0.0915464
-0.0189571
1.18102
0.981134
-0.00643185
7.24656e-05
-0.00340883
1.42597
-0.00130851
4.68979e-05
-0.00680869
-0.00466157
-0.00294924
0.00482675
-0.00543413
0.0260613
0.514037
-0.0449479
2.63592e-05
-0.0620059
-0.0631404
-0.0368313
-0.0614381
-0.0975656
-0.00395459
-0.00675645
-0.00782845
-0.0151046
1.21069
-0.00642229
-0.00908923
0.11752
2.4487e-06
1.39298
1.17724
-0.0610522
-0.00742892
-0.00172803
-0.008598
-0.000449861
1.14577
0.257959
-0.00280837
0.102065
-0.000415891
0.0886721
-0.00303092
0.0771826
0.0670207
1.33292
-0.0353612
-0.000563661
-0.00776804
0.00850496
0.758331
1.05104
-0.0768947
1.04875
1.45316
-0.00687115
-0.0301298
1.01529
-0.0099247
0.292708
1.3987
1.00498
-0.0276888
1.0175
-0.0105187
-0.0181518
-0.00335805
-0.00385731
-0.0851232
-6.61686e-05
0.25621
0.223721
0.195007
0.166837
-0.0402259
0.357389
0.000740161
-0.00871115
0.852703
-0.0242
-0.000266893
-0.00623251
-0.0113918
-0.0660437
-0.000448035
-0.0287817
0.0754446
1.60774
0.317993
1.1625
0.438869
1.68275
0.282062
0.248379
1.34903
1.39494
-0.0306862
0.819182
-0.000423772
0.180777
0.218479
-0.0130277
0.191483
0.024165
-0.0658162
-0.00984714
-0.0118902
-0.0148624
0.00265725
-0.0136219
1.14571
0.0273309
0.0113691
0.00203737
-0.0601168
0.00795984
1.28168
-0.00240439
1.08333
-0.0298238
-0.0552072
0.528955
0.580077
-0.0510294
-0.0904229
0.00601125
1.13376
0.915405
0.905015
0.0575742
0.00115604
0.48697
0.446617
0.00535229
-0.000564951
-0.00351594
-0.0138196
0.406186
0.00515255
0.735666
-0.0168196
1.22792
1.1619
-0.015947
1.152
-0.000252555
1.36408
1.33086
-0.00831735
0.530646
-0.0834556
0.010564
1.6777
0.00540552
-0.0266932
0.410806
-0.000360372
-0.015439
0.979513
1.159
-0.0180497
-0.0486341
0.483025
-0.00365455
0.872204
1.01277
-0.017344
0.135156
-0.00385337
-0.0194957
0.000316496
0.000531715
-0.00458073
-0.0154569
0.0902962