/*--------------------------------*- C++ -*----------------------------------*\
  =========                 |
  \\      /  F ield         | OpenFOAM: The Open Source CFD Toolbox
   \\    /   O peration     | Website:  https://openfoam.org
    \\  /    A nd           | Version:  7
     \\/     M anipulation  |
\*---------------------------------------------------------------------------*/
FoamFile
{
    version     2.0;
    format      ascii;
    class       volScalarField;
    location    "15";
    object      p;
}
// * * * * * * * * * * * * * * * * * * * * * * * * * * * * * * * * * * * * * //

dimensions      [0 2 -2 0 0 0 0];

internalField   nonuniform List<scalar> 
20933
(
-0.00142406
-0.0143321
0.0186411
-2.76018e-05
-0.00243527
-0.00295415
-0.0850263
0.554159
-0.0386361
0.542049
-0.0720231
0.404086
-0.0326992
-0.00142128
-0.00308024
-3.09641e-05
0.0729183
0.342397
-0.0620844
-0.0133337
-0.0330324
0.41606
0.545814
-0.0742858
0.0161499
0.849238
0.00417523
-0.027525
-0.082566
-0.0625154
-0.00102005
0.963294
0.535754
-0.0162789
-0.000517656
-0.00110242
0.605916
1.54412e-05
0.00484397
0.29925
0.0331499
0.644095
0.708655
0.00355025
0.848994
-0.0351431
0.479254
0.232736
-4.42674e-05
-0.0353836
-0.00059927
0.0855221
-0.0082104
-0.000988802
-0.0203494
-0.0392536
-0.0258488
-0.00133597
-0.0121655
0.0836392
0.889044
-0.0276937
-0.00746526
0.508613
-9.197e-05
-0.00508857
0.829461
-0.00552755
0.0551589
0.841594
0.0170776
0.0371536
-0.00279765
-0.0253645
0.831923
0.0131384
0.832394
-0.0431826
0.295131
0.781472
-0.00434255
-0.000235015
-0.0868684
-0.0353755
-0.0271598
0.713278
-0.0274447
1.03837
0.507267
0.882704
0.450174
-3.58286e-05
-9.29519e-05
1.01018
0.210965
-0.00679395
1.01867
-0.00153421
-0.0594986
0.58378
0.890573
-0.0189297
0.904076
0.0224765
0.157689
0.0348294
0.789533
0.0510857
-0.0181636
0.759412
-0.0892346
-0.0868437
-0.022822
0.0203949
0.0221888
-1.26836e-05
0.697332
-0.00396975
-0.00298656
0.771772
-3.9838e-05
-0.0311495
0.338121
-0.0168023
-0.0162097
0.34514
0.492933
-0.0266601
0.973934
0.711219
-0.0350163
-0.0342566
0.0333401
0.00508499
0.794343
0.142225
0.290241
-0.0338547
-0.0149838
-0.0524323
-0.0363825
-0.0276486
0.0104203
0.914707
0.181442
0.801844
0.564743
-0.0230934
0.463186
0.00474994
-0.0226132
0.833434
-7.52834e-05
-0.03096
-0.000187768
0.574077
0.724838
-0.0790433
-0.0422097
-0.0346617
-0.0296823
-0.0756347
-0.00121792
0.196869
0.242644
1.03101
-0.017689
-0.0812033
0.00947846
0.59639
0.27583
0.852606
0.739086
-0.0167316
1.06818
0.523797
-0.00154941
0.87355
0.0295519
0.782864
0.814119
2.57853e-05
0.910839
0.728765
-0.0126098
-0.0455635
0.018594
0.56148
0.0140794
0.974317
0.488988
0.0987983
0.595851
0.0653517
-0.0426511
0.366594
0.907295
0.174754
-0.0128288
0.983687
0.268449
0.0115253
0.00533986
0.959048
0.925587
-0.0321561
-0.0146709
0.0875255
-0.0387519
-0.000577646
0.823835
0.868294
-0.0247497
-0.0425654
0.77242
0.831345
-0.00271851
0.771433
0.0626501
0.00667098
-0.021314
0.742735
0.938694
0.454276
0.753524
-0.0164192
-0.0125774
-8.72067e-06
-0.00205682
-0.00187975
0.331467
0.00189202
0.78026
-0.049876
0.729108
-0.0255559
0.0373657
0.847081
1.02724
0.733792
0.825685
-0.042573
0.635016
-0.0147142
0.172893
-0.00369445
-0.0287075
0.11187
0.0897698
-3.02215e-05
-0.0177013
0.946559
0.352615
0.00342319
-0.0418712
0.00314685
-0.0896202
0.651988
-0.049082
-0.033253
-0.0307818
-0.0140759
-0.000156557
-0.0251305
-0.0708242
0.913061
0.162526
-0.0209596
0.736217
0.921891
-0.027093
-4.0564e-05
-0.0330858
0.828687
-0.0645751
0.884671
-2.46079e-05
-0.0434309
0.759312
0.813224
-0.0112441
-0.023737
0.970672
0.0414948
0.0934907
0.898346
0.969111
-0.0297443
0.769459
0.232703
0.775126
0.668153
-3.19851e-05
0.153118
0.608881
-0.00166939
-0.06032
0.201668
-0.107878
0.259341
0.15245
-4.39006e-05
-0.00110378
0.88423
-0.00316495
-0.0710938
-0.0371803
0.420487
-0.0255616
0.781379
0.238965
-0.0335131
-0.0452596
0.575455
0.383637
-4.8162e-05
0.877291
0.717578
0.866276
-0.00303037
-0.000105483
0.964789
-0.00284322
-0.0235861
0.367439
0.182635
-0.0322404
0.0241342
0.728545
1.00838
0.813833
0.28931
1.07768
-1.4147e-05
-0.0153836
0.813957
-0.0533867
0.603378
-0.0233581
0.841351
0.218788
-0.000858286
0.212342
0.692238
-0.0600336
0.904888
0.707806
-0.000190474
0.0239856
0.529283
0.361551
-0.00187142
0.731246
-0.00911043
1.05923
-0.0373168
-0.0243502
-0.0170967
0.810662
0.719458
-0.0288661
0.572047
0.880828
-0.00330092
0.65279
0.707594
1.06875
-0.00229879
0.436392
0.103781
-0.0428011
-4.61086e-05
0.839277
0.649898
0.144342
0.861531
0.307889
-0.0263531
0.624844
0.247014
0.357821
1.05966
-0.0265537
0.333549
0.864736
-0.0429296
0.196418
-0.0575188
0.514631
-0.0223639
0.459624
0.151024
0.322628
-0.000778094
0.485763
0.85931
0.668918
-0.0922875
-0.0126491
0.950168
0.956058
-0.00334021
-0.0412734
0.777369
-0.0673131
0.026624
0.650871
-0.0182188
1.09993
-0.00405662
0.466426
-0.00802392
0.864497
0.699449
0.0953965
0.023992
0.102022
0.273263
-0.00153745
0.775052
0.0401549
0.520988
1.04964
-0.00200043
0.0178454
-0.0022097
0.245489
0.157977
-0.0231642
0.670512
-0.000417493
-0.0322928
0.00609369
0.0548342
-0.023305
-5.5947e-05
-0.0331681
0.352631
-0.0738461
0.00367495
-0.0340502
0.211833
0.163823
-0.0369177
-0.0412078
-0.00102683
0.0560088
-0.0704588
0.00567256
-0.00550353
0.387373
0.659677
0.210826
-0.000175997
0.987224
0.00585942
-0.000461762
0.0303042
-0.0385071
-0.0324643
0.919005
-0.00385783
0.239089
-0.0584614
-0.0644312
0.637249
-0.0227478
-0.038821
-0.0562358
-5.91741e-05
0.0321156
1.00263
-0.0833199
-0.0458779
0.666304
-0.0331708
0.663358
0.469787
-0.00320519
-0.000512216
0.720312
1.03787
-0.0916384
0.54587
0.340867
-0.0377874
-0.0388294
0.776108
0.137987
-0.0811459
-0.0510203
-0.0272963
0.0578367
0.950123
0.297821
-2.61215e-05
0.906547
0.000285696
-0.0349066
0.749095
0.00629475
-0.00830866
-0.000241849
0.0765179
-0.029141
-1.19828e-05
0.540223
-0.0575712
0.779797
-0.000130946
-0.00112189
-0.0344782
-9.11073e-06
-0.0957731
-0.0721656
-0.00141424
-0.0272135
-0.0458087
0.736648
0.867965
-0.00264593
0.000805466
-0.0498768
0.874354
-0.00800411
0.874182
-0.0143741
1.05481
0.670432
0.452001
1.01771
0.0556415
-0.00611125
0.102903
-0.00490031
0.858848
0.770746
-0.0220416
-0.0190766
0.169416
0.00729899
-0.00490635
-0.0353491
-1.96319e-05
0.743031
-0.0443766
-0.0329773
-0.0126674
-0.0199972
0.467146
0.225056
-0.00241865
0.000216816
-3.10519e-05
1.05478
0.941571
-0.00252217
-0.0217117
0.0161628
0.768538
-0.046576
0.344347
-0.043021
0.822502
0.451896
-0.0307233
1.09185
0.0494063
0.805532
-0.00846366
-0.0753877
0.901887
-0.00456105
1.047
0.751983
1.0673
-0.0058361
-0.00845574
-0.0280966
0.126006
0.00571171
-0.0219306
0.806593
0.832251
0.663322
0.866826
1.03728
0.539779
0.860055
0.668263
-0.00176181
0.729652
-0.0382804
-0.041973
-0.000782958
0.00293083
-0.0509608
0.564414
0.108668
0.780853
-0.0143447
0.205748
0.755179
-0.00398971
0.0207659
-4.05311e-05
-4.53156e-05
0.562225
-0.035869
-0.0366574
-5.23083e-05
-0.000728045
0.155539
-0.000134275
0.205145
1.06
0.561261
0.521106
-0.0250822
0.773516
0.260073
-0.00678448
-0.0215348
-0.00208843
-0.000240008
-0.000574669
-0.0125011
-0.0691928
0.585473
0.110708
-0.0378774
-1.27788e-05
0.811165
0.102512
0.0154493
-0.00326071
0.301263
-0.0032346
-0.0359851
0.756166
0.984624
0.715475
-0.0237608
0.722898
-0.0260664
-0.0280079
0.583416
-3.20229e-05
-0.017074
0.447312
0.530428
-0.0298557
0.7591
0.931831
0.73969
-0.0400226
-0.0426334
0.012378
0.255384
0.708187
-0.00241378
0.897671
-0.0241746
-0.0744007
0.115227
0.997598
0.591003
0.778477
-0.0706154
1.03476
-0.027892
-0.0266442
1.07766
0.081856
-0.0557442
0.795475
0.822682
-0.0305762
0.700895
0.874932
0.816304
0.764297
0.805835
0.681592
-0.00971901
-0.0276082
-0.000497275
-0.0675133
0.858175
-0.0633644
0.397543
0.386107
-0.0386969
0.21356
0.447303
0.872076
0.212987
-0.00113169
0.064588
-0.0312829
0.042756
0.0293923
-0.0700015
0.756746
0.899227
0.159194
0.866489
1.04359
-0.00163728
0.00094661
-0.00342912
-0.0204282
0.626558
1.05736
0.307668
0.77544
-0.0200601
0.693839
0.71103
-0.0294916
-0.0338165
-0.047323
0.394965
-0.0073793
0.124456
-0.0360188
-0.047292
0.784176
-0.00492734
-0.0054454
0.824734
0.203648
0.969734
-0.0344165
0.658094
0.0283212
-0.033612
0.893992
0.978158
0.857345
-0.0160369
0.981289
-0.0371873
0.890236
0.080398
0.853192
-0.0314891
-5.2056e-05
0.855524
0.895175
0.889776
0.856214
0.559184
0.205435
0.641815
-0.0554405
0.855756
0.753331
0.106126
0.113356
-0.00959734
0.0615062
0.769264
-0.0433173
-0.0283077
0.873363
0.865679
-0.0323872
0.845087
-0.0789089
0.283865
-0.00930649
0.879423
0.893431
1.0441
0.883316
-0.00191996
-0.0209627
-0.000845811
-0.0380844
0.963777
0.499376
0.757332
-0.0457583
0.671378
0.0193877
0.967181
0.00291548
0.869887
-0.00872988
0.944614
0.985076
-0.0222952
0.305274
0.939214
-0.00188248
1.00161
0.00136937
-0.00229454
-0.0344112
0.811163
0.425123
-0.0502506
0.855176
1.00095
0.705684
0.0528307
-0.0308001
0.0887024
0.863984
0.981711
1.07432
0.483845
-0.00253707
-0.0255312
0.766439
-0.00117572
-0.0106249
-0.00132662
-0.0147093
-0.0505594
-0.0469646
0.913605
-0.00382368
-0.000638823
0.737881
0.482435
-0.00264486
0.3513
0.000186948
0.413137
0.744889
0.850953
-0.049796
0.334879
-0.00799591
0.019697
-0.00273279
0.871511
0.918616
-0.0633275
-0.0695308
-0.0696042
-0.0211234
0.860066
-0.0111473
-0.0353041
-0.07159
0.0336648
1.0214
-0.0700204
0.169219
0.875474
-0.00527195
0.251135
-0.00325486
-0.0611078
-0.00231314
-0.00104325
1.01604
0.649023
-0.0693026
0.115136
0.674074
0.835311
0.749634
0.0227047
-0.0319312
-0.0223916
-0.0289002
0.719871
-0.0253056
-0.0286254
-3.04106e-05
-0.026304
-0.000982479
-0.054634
0.817394
-0.0564746
0.872814
0.856638
-0.040831
-0.0198489
1.03757
0.688041
0.135374
-0.0219933
0.688466
-0.0286406
0.615192
1.01694
0.631371
-0.0238039
-0.0243747
0.795007
-0.0393977
-0.0569793
-0.0307922
0.929886
-0.0296596
0.08886
0.674916
0.559396
0.73114
-0.00739615
0.604647
-0.0190863
0.872518
-0.0764749
0.433043
-0.0246554
-0.0295604
-0.000690436
-0.00107617
6.7117e-05
0.934377
-0.0372189
0.65963
0.26878
0.000920077
-0.0469764
0.514823
1.0486
0.954061
-0.0173067
0.484037
0.00386204
0.229672
-0.026503
0.377434
-0.0428365
-0.00122587
0.707705
-0.0384191
0.00796619
0.921675
0.787007
0.891095
0.0555491
0.0470586
-0.0149112
0.499393
0.045264
-3.22405e-05
0.938646
0.319225
0.467396
0.118628
-1.46377e-05
-0.0109209
0.000203425
0.450016
-0.000358228
-0.0215399
-0.000254915
-0.0302597
0.960672
1.05037e-06
-0.0356362
-0.0416361
0.993329
0.0141159
-1.49646e-05
-0.0509005
0.328177
0.740624
-0.0199886
-0.0174954
-0.0141454
0.754888
-0.0228347
0.469893
-0.0375716
-0.0492477
0.256691
0.736146
0.22762
0.482439
-0.00244258
0.785484
0.991999
-0.015044
0.653028
-0.0445249
1.0097
0.976697
-0.0477412
0.240578
0.204985
0.648581
-0.000269232
0.854158
1.06773
-0.00528199
0.402937
0.569743
-0.000625947
7.47877e-06
-0.0187378
1.04764
-0.011036
-0.0355296
0.864978
-0.0013834
0.6377
0.884584
-0.0272348
0.94445
-0.0330372
-0.0203822
0.887963
0.486276
0.72997
-0.00257915
0.892849
0.452577
0.850042
-0.058292
-0.00896934
0.407155
0.938619
0.888188
0.951575
0.863986
0.0475265
-0.035113
0.140888
0.678107
0.851607
0.990653
-0.0352401
0.547392
1.01186
0.815757
-0.000549351
-0.0423352
-0.0196914
0.373494
0.0149121
0.919153
0.491088
0.848358
0.26822
0.0313867
0.853039
0.0759084
0.688863
-0.0388677
0.202038
-0.0111767
-0.0381213
-0.0519757
0.987809
-0.0491006
-0.0289548
0.0542124
0.433313
0.240516
-0.0281525
0.157689
0.0200034
-0.0515617
0.713978
0.428438
0.767207
-0.0454925
0.882282
-0.0460725
-0.000457993
-0.0112996
0.00279604
-0.0566558
-0.0568625
0.000555104
0.578355
0.95591
0.416682
0.190356
-0.0147711
-0.0540426
0.646231
-0.00486036
1.01084
0.588716
0.00598877
-0.0255955
0.0813317
-0.0237417
-0.0196433
-0.0123924
0.0444861
-0.0642704
0.564633
0.971359
0.90502
0.52285
-0.00343642
-0.0328939
-0.0013462
-0.0122381
0.723275
-0.00883916
0.699933
-0.0442601
-0.0181481
0.963119
0.980606
-0.00048332
0.86171
0.901887
0.356882
0.00206413
0.415052
0.718557
0.977804
0.622312
-0.0348611
0.959452
0.225098
-0.0270015
-0.0337422
-0.0409465
0.996524
0.00174549
0.874979
0.598245
0.951472
0.0117425
0.642212
0.677986
-0.0522406
0.889017
0.0758106
0.931752
4.39536e-06
0.62788
0.69373
0.702502
-0.00137326
0.1184
-0.00311538
-0.0364708
0.585618
-0.0227697
0.658981
0.643699
1.04868
0.0245779
0.936826
0.0162851
0.013476
0.183586
0.860321
0.291944
0.0728479
0.183827
0.768646
-0.00286152
1.03252
-0.000148183
0.0376119
0.272098
-0.0239271
0.867741
-0.0305484
0.908527
0.749475
0.342436
0.134381
0.403523
-0.000733833
0.113566
0.927602
-0.0374857
0.0443509
0.612597
0.22973
0.0667519
0.139637
-0.0154266
0.9616
-0.0298762
0.174964
0.0369386
-0.0435358
0.847768
1.05759
-0.0328823
-0.0575722
0.00432748
0.242929
-0.000314135
0.343244
0.982012
0.948099
0.0135969
0.399427
-0.000225902
-0.0406873
0.794213
0.00159535
0.488363
-0.0258565
1.03051
0.777081
-0.064745
0.000809287
-0.0251065
1.03233
-0.0336013
-0.00161132
-0.0176063
0.350294
-0.0503845
-0.0225049
0.318866
0.964943
-0.0736916
1.00495
1.0757
-0.0243583
0.0373244
-0.000276968
-0.00296114
0.00100234
-0.0330296
1.02449
-0.0223936
-0.00423236
0.698786
-0.0515387
0.757674
-0.0073216
0.11328
0.759973
0.705484
-0.0669959
-0.0199094
-0.0550464
0.819441
-0.0326224
0.511819
-0.0381
-0.0135626
-0.0388648
-0.00704768
-0.0052144
-0.0728693
-0.0662643
0.0114386
0.0101289
0.309935
-0.00238196
-0.0350743
-0.052331
-0.0235136
-0.0131066
0.961122
0.118393
-0.0270516
-0.00526265
0.802959
-0.00161662
0.716239
0.0264162
0.186155
-0.00814668
0.753342
0.516925
-0.0437889
-0.0200187
-0.0249769
0.632437
-0.000336078
0.70152
0.816329
-0.000699273
0.0104079
0.324186
0.292324
-0.0450879
0.38062
0.781198
-0.0234213
0.674786
-0.0437968
0.0420305
0.653353
0.981904
0.0960569
-0.000919101
0.847466
0.68733
-0.0271155
-0.0406703
-0.0874309
0.0437201
-0.0249365
-0.00782746
0.796036
-0.0758097
-0.00417862
0.79971
-0.0236632
-0.0324273
0.549096
-0.00413244
0.391671
0.696757
0.0790495
0.71498
-0.0161698
0.948412
-0.0392349
-0.000371198
5.68863e-06
0.151939
-0.000403399
-0.018598
0.39958
-0.00123177
-0.00195738
-0.0282916
-0.0209802
0.48444
0.868612
-0.000481768
-0.0194589
0.00978372
0.666696
-0.058779
-0.0225908
-0.0264185
0.19756
0.553598
-0.0127191
-0.0120001
0.0224458
0.750394
0.803863
0.366499
0.710341
0.898496
-0.00748038
0.669298
0.293267
0.0980708
-0.0244135
0.0550588
1.07207
-0.000229738
-0.0387077
-0.0398474
0.75086
-0.0145428
-0.00157868
-0.0377315
-0.0431
-0.0041829
0.870527
0.587359
0.690685
0.809152
0.71363
-0.0172192
0.359794
0.593309
0.15114
0.852983
0.468373
0.610841
-9.30586e-06
0.611183
-0.0360878
0.452414
0.619478
-0.0703993
0.23616
0.221075
-0.0254687
-0.00914538
0.179396
0.43539
0.975895
0.472883
-9.80195e-05
0.545473
-0.0204009
0.627571
0.498561
-0.0150916
-0.0282488
0.670032
0.868287
0.322537
-0.0473624
-0.0277744
0.43774
0.676974
-0.0374991
0.786752
-0.0284317
0.380956
0.0667633
0.920857
-0.00108025
0.000528167
-0.0061287
-0.0287484
0.00615122
-0.0195657
0.694445
0.804973
0.0068368
0.543538
0.00776485
-0.0156757
4.37283e-06
0.470855
-0.00890259
0.569762
-1.40974e-05
0.690065
-0.0394238
0.771726
-0.00273059
0.823342
-0.0413406
-0.0137504
-0.000409117
0.877492
-0.0383532
0.236324
0.36285
0.0108164
0.763578
-0.0136119
0.00107454
-0.0298564
-0.00498276
0.874761
-0.00655131
-0.0290814
-0.0222462
-5.92289e-05
-0.0178141
0.780698
0.000100855
-0.0440456
-0.00120396
-0.00261458
0.730082
-0.00614921
0.18414
-0.0242713
-0.000325083
-0.0100213
0.0735869
-0.0303655
0.00039744
-0.0143611
0.492375
-0.00024757
-0.0259967
0.0600484
0.368724
0.852623
-0.0179232
0.00421479
-0.0420073
-0.0251883
0.722636
0.794265
0.880408
-1.74183e-05
0.435909
-0.0363779
-0.033608
0.593083
-0.0269973
-0.0149466
-0.0179767
-0.0100055
-0.0253203
-0.0236794
-0.0174804
-0.000263013
0.0292285
0.683082
0.0126629
0.538962
0.191273
0.128397
0.452289
0.316108
0.609816
0.0634615
0.693692
-0.000556668
-0.0153697
0.654858
-0.0484465
0.719903
0.69178
-0.0256521
-0.0417056
-0.000193025
-0.031092
0.130122
-0.0218968
-0.0223725
-0.0253426
-0.0196351
-0.0368961
-0.0309716
-0.0171077
-0.00911706
-0.048685
0.611172
-0.0342659
-0.00300391
-0.0418618
-0.00115656
-0.0396583
0.78912
0.763537
0.467989
0.923575
0.000151024
0.0198604
-0.0318535
-0.000287635
-0.00563997
-0.00020725
-8.05039e-07
0.453353
0.324573
-0.000226963
-0.0398533
0.26618
0.442382
-0.0422444
-0.0215224
0.000817457
-0.00547882
0.000641772
-0.0018351
-0.0388494
-0.0293887
0.949564
9.46773e-05
-0.0275818
-0.0265388
-0.0335464
-0.0162145
-0.0236157
-0.000268259
-0.0174004
-0.0246215
-0.0358442
-0.0377562
0.270008
-0.0204911
0.542973
-0.0311789
-0.00346018
0.0277804
0.716691
0.746494
0.590106
0.0379747
-0.0393998
-0.0136264
-0.0284931
-0.0358542
-0.0356693
-0.0407097
-0.0379309
-0.00863327
-0.00811058
-5.56132e-05
0.176984
-0.00712331
-0.000480508
-0.00499103
0.979925
-0.030021
-0.0697367
0.93265
0.956823
-0.0242511
0.942199
0.898485
0.736418
-0.00259056
-0.0486158
0.959892
-0.000788799
-0.000859793
-0.00397047
-0.0285444
-0.0109267
0.00592064
-0.0273691
-0.0329195
-0.0312828
-0.0139737
-3.78447e-05
-0.0411872
-0.0121165
1.03875
-0.0258996
-0.0187956
1.0375
-0.00670852
0.997467
0.943208
0.684541
-0.021063
1.03691
0.230727
0.829119
0.0248076
-0.00053717
-0.00603564
-0.00485003
0.127887
0.86317
-0.00291092
-0.000246982
-0.0296074
-0.000297639
-0.0716326
0.436884
-0.000223508
0.713919
-0.0413985
-0.00703245
-0.0382579
-0.021846
0.378164
-0.00744158
0.951975
0.000670332
0.89486
0.00874072
-0.0331035
3.76449e-06
-0.0414598
-0.00985506
-0.039081
0.812147
0.857487
-3.72068e-05
0.956076
-0.0361267
-0.00103074
-0.0205744
0.902969
-0.0895966
-0.000799561
-0.000820507
-0.000247512
-0.000421485
-0.000136866
-0.00173629
0.968342
-0.000368508
-0.00351807
-0.00580229
1.01016
1.07832
-0.0067075
-0.0411293
0.731514
1.03363
-0.0415795
-0.0298121
-7.24403e-05
0.0483276
0.878661
0.715314
-0.000274239
-0.0230993
-0.0386076
0.915046
-0.0706173
-0.0188387
-0.017516
-0.0156861
-0.0153959
0.760204
-0.000122115
0.933802
-0.00391755
0.994744
-0.00217034
0.948299
-0.0209448
0.178269
-0.0196368
-3.46947e-06
0.000214668
-0.0112633
-0.0223923
-0.0110579
-0.000249956
-4.40519e-05
-0.0035721
-0.0367618
-0.000290442
-0.0194033
-0.0186207
-0.000336156
0.232873
-0.000708727
0.712951
-0.0305496
-0.00948681
0.000497207
-0.0777747
1.02162
-0.0166577
-0.0129912
-0.0136175
-0.0428657
-0.0234378
0.693187
0.750443
0.00667339
-0.0190993
-0.00379087
0.270618
0.93363
-0.04077
0.677548
0.780021
-4.49608e-05
-0.0449064
-0.0243298
0.000588684
-0.00069452
-0.00101523
0.00041007
-0.00905818
-0.0103073
0.0106949
-0.0221636
0.030033
0.499942
-0.0390855
0.714101
0.315658
-0.0734903
-1.97323e-05
0.000153335
0.869917
-0.0023389
-0.0408658
-0.000815207
-0.0382091
-0.0190717
0.576883
0.151723
0.969912
-0.000221469
-0.000551827
-0.0336367
0.539766
0.00314332
0.93069
0.32357
-0.0268365
-0.0150626
-0.0491302
0.0210485
0.686427
0.0932494
0.877005
-0.0437825
-0.000425982
-0.00324655
-0.0163285
-5.76002e-05
-0.00094964
-0.00442146
-0.01854
0.0086519
-0.0393315
-0.000131412
-0.0408121
-0.0557943
-2.80533e-05
-0.000113433
0.00301145
4.53622e-05
-0.000566313
-0.00716804
0.0626783
0.000233857
0.142182
-0.0159745
0.726519
-0.0344704
-0.0462371
-3.22493e-05
-0.0446037
-0.0431383
-0.00892869
-0.00981575
5.10278e-06
-0.00853199
-0.000174271
-0.0437164
0.147355
0.300716
-0.0890898
-0.000244229
0.127886
-0.0560723
0.777846
0.623576
0.745727
-0.00196222
-0.0064201
-0.000585537
-0.00791546
0.89947
0.694966
-0.00378776
-0.00466873
0.52748
0.693808
0.974055
-0.000290775
-0.00465259
-0.0141438
-7.34625e-05
-0.000317315
-0.000122663
-0.00172617
-0.00412564
0.724967
-0.0141695
-0.00066707
0.00935811
-5.94946e-05
0.13333
0.00502885
0.556367
5.96594e-05
0.337627
-0.0417015
-0.0389694
0.412
0.337206
-0.000199037
0.41095
0.929744
-0.0416108
0.744022
-0.0387874
-0.00698803
0.7968
-0.00279468
0.714998
-0.00329501
0.0150913
-0.0381437
-0.00870105
-0.0196366
-0.000100061
-0.000534327
0.0551142
2.8647e-05
-0.0167717
-0.0343356
0.940474
0.0074089
0.0024618
0.710729
-5.24175e-06
-0.000143571
0.00793195
-0.00195749
0.923878
-0.00228118
-0.000132811
-0.020897
0.272834
-0.0269919
0.000454247
-5.03798e-05
0.228683
0.00815445
-0.000144384
0.854932
1.00538
-0.000502072
0.0848674
-0.00151508
0.75677
-0.000771232
-0.00368027
-0.000169925
8.96871e-06
-0.0367342
0.00268955
0.00030851
-0.0839158
-0.00162011
-0.025544
-1.90298e-05
-0.00066245
0.0111908
0.804406
0.841735
0.00625568
0.687414
0.178884
-1.29668e-05
0.698775
-0.00960258
0.000875372
0.00272974
0.0595464
-0.000745736
0.0460148
-0.00152341
-0.0235031
0.432792
-0.0227288
-0.017838
0.352923
0.584287
0.332183
-3.22716e-05
-3.53243e-06
-0.0187194
0.521461
-0.00744664
-0.0661552
-0.000341536
0.692694
-0.0286726
0.804558
0.615238
-0.016225
0.372452
-0.000957174
0.718172
0.133272
-0.0396034
-0.000298347
0.000361081
-0.0143344
-0.0169512
-0.0124061
-0.0209198
0.303246
-0.00864367
0.529686
-0.000471572
0.00367095
-0.000750865
0.262073
0.0381483
0.000912021
-6.83982e-05
0.0319141
0.497828
-0.0251103
0.0266114
0.0227017
0.193389
0.0190867
-0.000932899
2.48119e-05
0.779817
0.830323
0.862166
-0.00021928
0.833189
0.76437
0.838612
-0.0028958
-0.000263986
-0.000141489
0.563327
0.644473
-0.0667337
-0.044469
-0.0296281
-0.0170812
0.212343
-0.0145922
-0.00729004
0.673648
0.000589217
-0.0132361
-2.25221e-06
-0.0169476
0.837389
-0.0345545
-0.000586652
1.34438e-05
0.904391
0.76359
0.103608
0.498271
-0.0135924
0.0847733
-0.0164982
0.0661794
0.0488569
0.0367353
0.472967
-0.0204186
0.297605
-0.000298541
0.815839
-0.0160843
-0.00882828
0.744746
0.0285342
-0.016019
-0.0321676
0.0681923
0.347333
0.00532534
-2.02841e-05
0.678108
3.81193e-05
-0.0181044
0.167478
-0.00060051
-0.00516326
0.000554013
-0.0374207
-0.0262755
0.144724
-0.000453999
0.123579
-0.0213345
0.105851
0.0897658
-0.0134763
-0.0224338
0.0764748
-0.0327041
-0.0156033
-0.0128282
0.582523
-0.0179565
-0.00700046
-0.000168543
-0.030523
-0.0498626
-0.000273982
0.594945
0.800574
-0.032595
-0.0235645
-0.0154092
-0.00813839
-0.00026728
-0.00631547
-0.00288886
0.107178
-0.000485504
0.0207992
-0.0363466
-0.0278823
0.000279949
-0.000387119
0.57054
-0.00372821
0.264256
0.61876
-0.0115724
-0.046523
-0.0268328
-6.91158e-05
0.237878
-0.0366995
-0.0309077
0.210617
0.405976
-3.32623e-05
0.184417
0.436582
-0.000446732
0.314172
-0.0162813
0.00456246
0.674695
-0.00585499
-3.31077e-05
-0.000270972
0.648462
-0.0394604
-0.0269726
-0.0313884
-0.0164733
-0.00750925
-0.0141547
-0.0301082
0.278544
0.873345
0.959407
0.736861
-0.000336601
0.565938
0.250426
-0.0198053
-0.0321628
0.552819
-0.0388077
-0.0608875
-0.000620719
-0.0279599
0.709071
-0.00011847
-0.0554002
-0.0126995
0.0258315
9.03225e-05
0.748819
-0.0423913
0.734414
-0.0245894
-0.0225571
0.00419821
-0.000648034
0.652809
-0.0192079
-0.00774586
-4.03184e-05
-0.0332938
0.0705266
0.377072
-0.0139534
-0.000747565
0.403103
-3.40293e-05
0.521136
0.348156
-0.000131562
0.526257
-0.0461529
-0.000306534
-0.0161954
-0.000135198
-2.06406e-05
-0.00445734
0.624832
-0.0297656
-1.72756e-05
-0.0473578
-0.0154004
0.629498
0.839873
-0.000134614
-0.0177755
-0.005129
-0.0114965
0.673192
0.0293857
-0.00011512
0.489292
0.369611
0.727704
-0.012985
0.000175722
0.560965
-0.00344105
-0.0354272
0.034216
0.885928
-0.0351239
-0.0187358
-9.38973e-05
-0.00785436
0.880408
-0.0372854
0.987239
0.364495
-0.0132791
-0.00026444
-0.0272445
-0.0132917
-3.55157e-05
-0.0175306
0.868269
-1.30814e-05
-0.0206093
0.879024
-6.71455e-05
-0.0177727
-3.55542e-05
-0.00132007
-4.60144e-05
0.0933653
-0.00161919
-0.00123784
-0.0603314
-0.00102839
-9.10906e-05
-3.77646e-05
-0.000153706
-0.026636
-3.82442e-05
-0.000441759
0.000873454
-0.0200358
0.982383
0.113628
-0.0081628
-0.00390772
-1.99892e-05
-0.0196008
-2.75898e-05
0.272927
0.716845
-0.001871
-0.0189771
-0.00960315
0.201933
-0.000446215
1.02611
0.000790496
-0.000779608
0.513768
0.0126073
-7.28547e-05
-0.0348588
0.70821
-0.00019474
0.697681
0.718499
-0.0223444
-0.0356039
0.818177
-0.0185928
-0.00116387
-0.0392662
0.598542
0.275632
-0.0373649
-0.000385475
0.84843
-0.00034578
0.0261274
-0.00422229
-0.00170406
0.949355
-0.000542884
-5.65656e-05
-0.0257521
0.468138
0.991741
0.700673
1.04698
-0.00549849
0.933021
-0.000507481
0.581563
-0.00230892
-0.000621709
0.375972
-0.021372
0.254514
-0.000204502
-0.0489847
0.999005
-0.0229861
0.0320094
0.000242719
-0.000597736
0.42031
0.00105248
-0.0353601
-7.08836e-05
-0.0226529
-8.53432e-05
1.01483
-0.0188225
-0.0281641
0.195766
-0.0327586
0.352919
0.696154
-3.69435e-05
-0.00502559
0.432475
0.749626
1.03042
-1.88651e-05
-0.0240751
-0.0298172
-0.00095108
0.476637
0.520627
-0.0289105
0.887755
0.289597
0.424869
-0.0159744
0.676533
-0.0354367
-0.000334939
-4.65056e-05
-0.000100835
-8.17082e-05
8.36423e-05
-0.0245121
-3.83521e-05
0.000247978
0.00841269
-8.24316e-05
0.530256
-0.0241775
-2.5602e-05
0.999809
-2.5012e-05
-0.000263539
0.841454
1.02896
-0.0418339
-0.013128
0.810465
-0.00950783
0.926038
0.168226
-0.000393023
-0.0561658
-0.0214983
0.000768195
0.000127055
0.728545
-3.38435e-05
-2.67336e-05
0.893297
-0.000161476
0.000452991
-0.0390526
-0.0240321
-0.0322238
-0.000175616
0.205344
-0.0344099
-6.35968e-05
-0.0315175
-0.00122165
0.54701
-8.94235e-05
-0.000121587
-0.0011297
0.872009
-0.00946087
-0.00458653
-0.00150922
0.000723784
0.846216
0.0134031
0.319729
0.814981
-0.000476053
0.952327
0.790604
-0.00808802
-0.0559992
-3.42482e-05
-0.02145
0.925817
0.00112694
-0.000196922
-4.85495e-05
-0.0360855
-0.00447746
-0.000294849
-0.000130789
0.942969
-6.59568e-05
0.73543
-0.0182075
-0.0621119
-4.27142e-05
-0.025464
-0.000881541
0.83069
0.843903
0.394431
-0.00147592
-0.0492183
-0.0481338
0.348932
0.261501
0.513189
-0.0730987
-0.0429744
-0.0413278
-0.000491183
-0.00121824
-0.000364974
-0.00246546
-0.00173609
-0.00207707
-0.00261771
-0.00421192
-0.0334478
-0.00460911
-0.00323698
-0.0375147
-0.000552717
-0.00294032
-0.000149594
1.08972
0.229015
-0.00414092
0.00166895
-0.0034954
-0.000119506
-0.000678311
-0.00440307
-0.00373979
-0.0445009
-4.09918e-05
-0.0416679
-0.00104452
-0.000510472
-0.00016609
-0.0349994
-0.0371138
-0.00520336
0.876417
-0.0116014
0.719536
-0.0428859
0.90606
-0.0487163
-0.049962
-0.0509044
-0.051588
-0.0513021
-0.0522368
-0.0519699
-0.00045032
-0.0518099
-0.0507408
0.839033
-0.0507218
0.0167828
-0.0470205
-0.000805324
-0.0425674
-0.0186716
-5.32774e-05
-0.00535819
-0.000172926
-0.00226786
0.0860762
-0.000637127
0.478691
0.752867
-0.011229
0.000792205
-0.0350044
0.00225098
-0.00703652
-0.0115436
-0.0288679
-0.000148188
1.01202
-0.0158396
-0.02268
-0.00643181
-0.00083306
-0.00614393
-0.00331939
-0.0494907
-0.00815798
-0.00189096
-0.0116389
0.147697
-0.000113448
-0.000362429
-0.0072715
0.0382263
-0.00227781
-0.00393098
-0.00277553
-6.39699e-05
-8.37545e-05
-0.00106104
-2.72246e-05
-0.00156447
-0.004634
-0.00369816
0.825963
-0.000777285
-0.00282574
-0.000943091
-0.000406008
-0.000132017
-8.1206e-05
0.621715
-0.00833492
0.796464
-0.00633345
-0.000973739
-8.3964e-05
0.70112
-0.0342264
-4.96622e-05
-0.000287655
-0.00020157
-0.0126937
-0.00543706
0.121692
-9.36953e-05
-0.0228337
-0.000612251
-0.00201263
-0.00120514
-0.00732179
0.00106384
-0.0398977
0.810953
-0.0491593
-0.013112
-0.000550808
-0.000150443
-0.0378155
-0.000133616
0.0112829
-0.00483748
-0.00519688
-5.68816e-05
-0.0107312
-0.011147
-0.0793514
-0.000479405
-7.55556e-05
-0.0245094
-0.000368585
-0.00844479
-0.00721854
-0.00643291
-0.000112179
0.93259
-0.000281833
1.05231
-0.0129907
-0.00830282
0.0080362
-0.000101442
-0.000185504
0.073441
-4.72627e-05
-0.020806
-0.000609917
0.0531442
-0.0097451
-3.16992e-05
-0.000299509
0.000166954
0.937481
-0.000502627
-0.0273038
0.00603177
0.809022
-0.0411282
-0.0456996
-0.000167533
-0.00492566
-0.0121056
-0.0778908
-0.0101884
-3.66428e-05
0.00904946
0.984859
-0.0436653
-0.00131052
-0.0104282
-0.00023861
0.722886
0.802799
-0.000159824
-0.00133156
0.65906
-0.000408735
-0.00946755
-0.000181995
-0.000760114
-0.0292503
-0.0357389
-0.0682887
0.0561488
-0.00130135
-0.000242056
-0.000328831
-0.0283319
-0.009163
0.536996
-0.0169203
-0.00020183
0.779552
-0.00279738
-0.00150081
-0.0493159
-0.00910931
-0.00157487
-0.000366887
0.00359841
-0.00246346
-0.0191602
-0.000217533
-0.00111543
0.526995
-0.00992673
0.665518
0.905986
0.00283678
-0.00121949
-0.0670889
-0.010735
0.994801
0.0111957
-0.0019771
-7.66922e-05
0.751505
0.943719
0.531955
0.147756
-0.039192
-0.000271398
-0.0336642
-0.000882053
0.000136713
-0.0139249
0.683427
-0.0298784
-0.000528989
0.000529538
-0.00185578
0.213001
0.711882
-0.0150998
-0.0305314
-0.0021741
-0.00164388
-0.00158717
0.921402
0.00194346
-0.00058559
-0.000356694
-0.00324912
-0.0228716
0.21454
-0.00881218
-0.00396976
-0.0177646
-8.39807e-05
0.0118581
0.707469
-0.041538
-0.00118096
0.0128746
0.703898
-0.00263502
0.287873
0.825114
0.000152354
-0.000106706
0.312922
0.66337
0.365693
0.573925
-0.0455849
-0.00124315
-7.19167e-05
0.681932
-0.02208
0.000287717
-0.0388225
-0.0155229
-0.0334428
-0.0375962
-0.00314682
-7.66685e-05
0.654519
0.000844862
-0.0354307
0.84112
-0.0254387
0.802455
2.76854e-05
-0.0334839
0.768756
0.995295
0.00882469
-0.00790796
-0.0137136
-0.000720629
-0.00428451
0.796589
0.00894092
-0.0347505
-0.00365082
-0.000901146
-0.00217081
0.00123993
-0.000445529
0.594496
-0.000344351
0.00779828
-0.00295079
-0.00460514
-0.00072673
0.453531
0.747206
-0.0469581
-0.0491802
-0.0503549
-0.000570249
0.0030377
-0.000255045
-0.0496104
-0.0505114
0.474192
0.744446
-0.0508519
0.454154
-0.0150317
-0.0223489
-0.0139003
-0.0502967
0.584224
0.421639
-0.0506872
-0.0061603
0.754629
0.604757
-0.00458642
-0.000151586
-0.00101533
0.925334
-0.000982049
-0.000125425
-0.00346284
-0.00177411
-0.00111847
0.00112942
-0.00209704
0.00952082
0.296303
-0.03549
-0.000140184
-0.0319762
-0.0343842
-0.0161556
-0.0337564
-0.0481161
-0.0014558
-0.00191064
-0.00402156
-0.0134168
0.771748
-0.00261373
-0.00474668
0.0470191
-9.0151e-05
0.89739
0.747681
-0.0341267
-0.00309023
-0.00131209
-0.00366723
-0.000332378
0.730239
0.114576
-0.00135234
0.0395195
-3.52767e-05
0.0333058
-0.00137876
0.0282894
0.0237811
0.861928
-0.0148575
-0.000180471
-0.00571636
0.00175486
0.462263
0.656816
-0.0374128
0.662517
0.939443
-0.0103407
-0.020778
0.639891