/*--------------------------------*- C++ -*----------------------------------*\
  =========                 |
  \\      /  F ield         | OpenFOAM: The Open Source CFD Toolbox
   \\    /   O peration     | Website:  https://openfoam.org
    \\  /    A nd           | Version:  7
     \\/     M anipulation  |
\*---------------------------------------------------------------------------*/
FoamFile
{
    version     2.0;
    format      ascii;
    class       volScalarField;
    location    "17";
    object      p;
}
// * * * * * * * * * * * * * * * * * * * * * * * * * * * * * * * * * * * * * //

dimensions      [0 2 -2 0 0 0 0];

internalField   nonuniform List<scalar> 
7807
(
0.327271
-0.00670435
0.444396
0.28852
-0.00122817
-2.16109e-05
0.435503
-0.00718786
-0.000141021
0.118056
-2.13424e-05
0.00268131
-0.0109537
0.0571642
0.122826
-0.0200557
0.339524
-0.0147049
-0.00115521
-0.112485
0.0785225
0.00167244
0.0407315
0.224408
-0.0193834
0.335777
-0.00113748
0.0710968
0.188609
0.000764172
-0.0259472
0.591052
0.0400215
-0.000580294
-6.96884e-05
0.0962653
0.00105146
0.422665
-0.00859101
-0.000294953
-0.00816037
-0.0190887
-0.116104
-0.0487482
-0.000147777
-5.5846e-05
0.00165551
-0.00854829
-5.11194e-05
-0.111261
0.00426217
0.0671294
-0.0247033
-0.0132726
0.0953692
-0.00674744
-0.00082742
-0.00703986
-0.038772
-0.000582728
2.45567e-05
0.0056418
0.0574419
0.00301721
-0.000987662
-0.0258384
-0.000120641
2.82569e-06
0.126131
-0.00798747
-5.13055e-05
-0.0808529
-0.018856
-0.0325872
-0.014306
-0.0562814
0.439541
0.0766379
0.0728233
-0.0819601
-0.010605
0.377568
0.115117
-0.0360846
-0.00245275
-0.00263885
-0.0079543
-0.0241157
-0.0010477
-0.00537278
0.193342
-0.0511962
-0.000108788
-0.000396638
-0.0045457
-0.031107
-0.0774817
-0.00948889
-0.00260396
-0.00121998
-0.0602564
0.0828732
-0.00437148
-1.0361e-05
-0.037054
0.201441
0.505238
-0.00707523
-3.22429e-07
0.0355356
0.272985
-0.0757296
-1.0969e-06
0.0380712
0.201075
0.00037355
-0.0898064
0.161543
-0.0584101
-0.0342643
-0.0599392
0.360342
-0.110277
0.0129707
-0.0582297
-0.00148485
-0.0222632
0.000481795
-0.00104127
-0.0255757
-0.106327
0.0723264
-0.00076539
-0.00119258
-0.0370088
0.263699
0.429023
-9.38758e-06
0.0104121
-0.0789848
-0.0301444
-0.0740022
-0.0577984
-0.0313044
0.505868
-0.0357639
0.190582
-0.0395619
-0.0416621
0.359763
0.0914846
-0.0418846
-0.0023591
0.102965
0.114452
0.397982
-0.0654842
-0.0106097
0.514371
-4.50048e-05
-0.00143094
0.232476
-1.44616e-05
-0.00421652
-0.0051146
0.285162
0.285744
0.534372
-0.00452411
-0.00373178
3.16805e-06
-0.0561918
0.00036798
0.00175902
0.0114158
-0.040999
-0.0124898
0.189203
-0.000114203
-0.000683435
0.29565
-4.07062e-05
-7.38951e-05
0.441142
-0.0128392
-0.0638425
-0.0553301
-0.0317088
-0.0399758
-0.0787019
-1.51636e-05
-0.0740318
0.198208
-0.00452774
4.66367e-05
0.238718
-0.00144846
-0.0240295
-0.0381113
4.12609e-06
0.000724557
0.269113
0.23128
0.394256
-0.0817807
-0.0687943
-0.143819
0.0777626
0.263953
-0.000158584
2.18784e-05
0.476046
-0.0172061
-0.000770434
-0.0712262
-0.0234153
0.365708
0.370755
-0.0796842
0.573795
-0.00135625
-0.0142117
-0.0612975
0.0952874
-0.143633
0.292831
0.508969
2.99946e-05
0.0139013
0.171899
-0.00752143
0.158306
-0.000967547
0.574202
0.387967
-0.0077356
0.00175598
-0.000274491
0.197812
-6.44459e-05
-0.0126175
-0.0801621
-5.53232e-05
-0.00253514
-0.000821448
0.190344
-1.61615e-05
-0.00558156
-0.08002
0.585099
0.0621285
0.540596
-2.67065e-05
-0.041302
-0.00025634
0.414237
0.00540972
0.430735
-0.000804687
0.000505902
-0.00213904
0.0814878
0.000576576
-0.000195675
0.000486933
-0.0079677
-0.0643476
-2.563e-05
-0.0630452
-0.004912
-0.000118296
-0.000840328
0.421119
-0.010119
-0.000774741
0.533808
-0.00266399
0.304113
-0.000269691
-0.0063808
5.57666e-06
-0.0503717
0.0911491
-1.44746e-05
-0.0397652
-0.000601091
-0.097342
-0.0207791
-0.000136357
0.000467855
-0.00397637
-0.0101125
0.00376529
-0.00208442
-0.0344287
-0.0575544
-0.0331204
-0.0333485
-0.0420393
0.396355
0.410352
-0.00197408
-0.0321779
-4.38541e-06
-0.00455381
-0.0314074
0.218406
0.129467
6.82157e-05
-0.00419441
-0.0410081
0.1963
-0.00153304
0.00476104
0.00134082
0.0735782
-0.12497
0.392868
-0.00188952
-0.008349
-0.000105319
0.00430437
-3.67667e-05
-0.0332447
-0.000323539
0.0002963
-0.0625221
-0.0516677
-0.00390356
0.0123101
-0.000749234
0.0293005
-0.0178323
0.0974408
0.192511
-0.179365
-0.0594441
-0.0213292
0.00682245
-0.0781331
0.543956
-0.0513774
0.0490064
0.564126
-0.00181454
-0.00238102
-0.0552181
-0.00196082
-0.0310631
0.00904276
-0.0034955
-0.00251324
0.182417
-9.35684e-05
0.000547971
5.12055e-05
-0.00436471
-0.0133302
-5.32382e-06
-0.00125522
-0.0370337
0.482691
-0.00316213
-0.0166178
0.478561
0.322435
0.0809286
-0.0180055
-0.0571579
0.00638947
0.277204
-0.0151749
0.33994
-0.0455414
-0.125296
0.232392
0.344704
-0.0579744
0.121438
0.292678
0.315675
0.0759226
-0.00431832
-0.00626063
-6.93969e-05
-0.0039592
-0.015448
0.000789634
-8.36176e-05
-0.00210549
-0.0966184
0.114308
-0.0251351
-0.00805733
-0.00498834
-0.0120673
-0.00973192
0.000578535
0.260755
-0.00225117
-2.51203e-05
-9.11762e-05
1.94274e-05
-0.0309215
0.176937
-0.00529688
0.0448194
-0.153819
0.412432
0.00293057
0.00917272
-0.00761214
0.408488
-0.00115075
0.390901
0.194502
-9.19787e-05
-0.0486147
-0.00425918
-0.0720778
0.000570321
0.0904018
0.000315015
0.00844685
-0.000941772
0.175314
0.198836
-0.0716467
-0.0385145
-0.00424481
-0.0393105
0.0972011
0.581305
-0.074776
0.00485474
-6.67874e-07
-0.0195435
-0.0027938
0.0260556
-0.125555
-0.0485491
0.434147
0.182706
-0.128043
0.251195
0.397485
0.0448998
0.00111827
0.294742
-0.00172258
-0.000207227
-0.0223297
6.18153e-05
-0.158138
-0.00633009
-0.0466877
0.00223337
0.242259
-0.00218317
-2.42318e-05
-0.133553
0.00201298
0.042397
-0.0583062
-0.0741814
0.0230327
0.173257
0.14163
0.145503
-0.000179746
0.1051
0.106897
-0.00075885
-0.0244915
0.000620359
0.00296127
-0.013701
0.00645772
-0.00130159
0.18769
-1.65818e-05
0.000164533
0.00237787
-0.0294732
0.031362
-0.0424648
-0.0358965
-0.0600575
-0.15702
0.00232122
0.287086
-0.0451854
-0.00957376
0.575307
-0.0772785
-0.0140761
-0.0353191
-0.0154071
-0.0268799
-0.0148576
0.0437173
-0.0591207
-2.73755e-05
0.0376318
-7.63259e-05
0.391273
0.138248
-0.0068916
-0.0179687
-0.000166206
0.377454
0.367467
0.0840075
0.209321
-0.0826265
0.436594
-8.42432e-05
0.0225387
-0.0232353
0.195003
0.522336
0.0809114
0.173621
-0.00672925
-0.000193046
0.188009
-0.0844187
0.39442
0.0441693
0.25019
-0.00995422
0.416301
0.350562
-0.0130065
-0.0110163
0.158245
-0.0761354
-0.000109447
-0.0189591
-0.0776369
-0.0914542
0.016498
0.0128438
-0.000156724
0.372993
-0.00512613
-9.3997e-05
-0.0512498
-0.000632543
-0.000207741
0.00174204
0.260131
-0.118936
0.493285
4.23134e-05
0.25924
-0.0423183
-0.000111219
1.25892e-05
0.186
0.247912
-0.00595168
0.222651
1.71398e-05
0.235333
-0.173955
-0.0134543
0.41182
-0.0676599
0.197066
-0.0335177
0.234465
0.24641
-0.024544
-0.0312821
-0.0117472
-0.00363165
-0.000231252
-0.00511972
0.32201
-2.57257e-05
0.224488
-0.115365
0.351185
0.212908
-0.0785373
0.491584
-0.00222581
-0.000564863
-0.0701167
-0.0267936
-0.00947134
-0.046623
0.0417722
0.547479
2.83543e-05
-0.0026178
-0.0738957
4.23312e-06
0.400546
0.00207642
3.73881e-06
0.000156558
0.00035016
-0.0314003
0.0252109
-0.00202591
-6.19949e-05
-0.00989172
-3.45951e-05
-0.136508
-0.0671848
0.0321914
-1.15751e-05
-0.179128
-0.0177931
0.162978
0.340095
0.000655855
0.166292
0.000116252
-0.0172469
0.106503
-0.00971962
0.282201
-0.018857
0.0276138
0.110679
0.180401
0.00232206
-0.0143464
0.221154
-0.106248
0.423655
-0.0133085
0.320391
-0.0129476
-0.00139419
0.16461
-0.00820227
0.104918
0.00216518
3.41113e-06
-0.150822
0.252598
0.00109625
0.155157
-0.017792
-0.182586
-0.0067124
-0.0444142
-0.0022148
-0.0106788
-0.0925522
-0.0384573
-0.013454
-0.000259333
0.446409
0.157958
0.0442401
-0.000206596
0.345884
-1.29667e-07
-0.00018588
0.167654
-0.00611144
0.221407
0.0699587
0.0233908
-0.0558344
-0.151059
0.0168331
0.00139337
-0.0573954
-2.49237e-05
0.00241299
0.271828
-0.0232903
-0.00378567
-0.0259256
-0.00258612
-0.00075037
0.530987
-0.0141564
-0.000777819
-2.23608e-06
0.156182
-0.0486977
-0.000478559
-0.00347451
0.18184
0.105037
-0.056119
-7.67245e-07
0.198668
-0.0276502
0.229453
0.0241548
0.0303873
-0.0416669
-8.49972e-05
0.107892
0.0954631
0.0538228
-0.106327
0.319211
0.00801166
0.2175
-0.00854816
-0.0493966
-0.000400673
-0.00860401
-0.000209237
0.187187
0.304506
-0.00204925
0.0265863
-0.0231748
-0.0872926
-0.0970541
-0.00235257
0.0196948
0.516864
0.0302619
-8.35306e-05
0.102861
-0.00812237
0.447616
-0.0172792
-0.025993
-0.0160619
-0.0289883
-0.0171822
-0.0106027
-0.00968
0.000381084
0.0330693
7.31049e-05
-0.152766
-0.00777076
0.390897
-0.0537631
0.226543
0.00233723
-0.0667254
-0.0317131
0.23182
-0.0103888
5.88372e-05
-0.0275354
-0.0104938
0.0235603
-0.0355781
-0.0321765
-0.021828
-0.0187863
-0.0213765
-0.0978319
3.51023e-06
0.0514766
-0.0858049
0.196108
-0.0683237
0.104108
-0.110639
0.364975
-0.00299578
-0.0425847
-0.0368069
0.466925
-0.131233
-0.0178503
-0.144461
-0.0597901
-0.130835
-0.0786558
0.209185
-0.00386641
0.270049
0.0119145
-0.000545838
-0.0021439
0.0889227
0.575657
-0.000404154
-0.0435575
0.190737
1.49947e-05
-0.0298143
0.0404164
-0.00817364
0.012129
-0.00257548
-0.052564
-0.00695946
1.86354e-05
-0.0648293
0.290925
-0.00672069
-0.0224454
0.00214901
0.190867
-0.000576198
-0.00155671
-0.000372827
-0.00156529
0.071317
-0.00820142
-0.00146634
-0.0252836
2.60175e-05
-0.14023
-0.0673836
-0.157473
-0.033327
0.0201761
-0.000200804
-0.0208665
-0.0799224
0.0477249
0.352052
-0.00257106
-0.0776287
-0.00691196
0.00105772
0.185144
0.000395466
-0.000192569
0.169942
0.0277773
0.0187092
-0.00417188
-0.00244879
-0.0754807
-0.000263036
-0.0118432
-0.01626
0.304384
0.2927
-0.058516
-0.0837903
0.00966647
-0.00177566
0.00977599
-0.0954199
-0.0315854
-9.61092e-07
0.000389798
-0.0314899
-0.105192
-0.00292358
-0.0558104
-0.000464549
-0.00400159
0.214218
-0.0398766
-2.84595e-06
-0.00340724
-0.11498
-0.000139166
-0.0379143
-6.99213e-05
0.001733
-0.132087
-0.059089
-4.60504e-05
1.98392e-05
0.135417
-0.0721397
0.377744
0.307481
-0.00699184
-0.00130101
-0.029722
0.000175215
-0.113062
-0.119874
0.00412748
-0.022597
0.303631
0.0056228
0.000164161
0.00122247
-0.144404
0.00222424
-0.0449549
-0.0777615
-0.00597275
0.0219752
0.0753805
0.00421646
-0.0346378
-0.0874155
0.198932
-0.0524961
-2.34993e-07
-0.135117
-0.0745117
-0.0609336
0.000742979
0.000739523
0.00248665
-0.133948
0.0339849
-0.0346426
0.158772
-0.0694572
0.00359612
0.0185639
0.00820458
-0.0365142
-0.126654
-0.000192557
0.15451
0.217604
0.00741417
0.256406
-0.101672
0.0493326
-0.0725662
0.209611
0.108205
0.548568
2.66105e-06
0.111667
0.189932
0.0149635
-0.00144587
-0.0170831
-0.0158923
2.21941e-05
-0.0195295
-0.074326
-0.0187579
-0.0232984
9.04659e-05
-0.0925342
-0.000449917
-0.000676371
0.246018
0.00351806
0.103371
0.0193779
0.213994
0.00691815
-0.000615836
-0.125923
0.00479719
0.364887
0.000984007
-0.0767577
-0.000331155
-0.000455701
0.00215835
-0.0783926
-2.79454e-05
-0.00971255
0.0286931
-0.00150795
1.88469e-05
-6.0387e-05
0.158724
-0.0472972
0.00475817
-0.000893339
0.0065162
0.0157556
0.00590483
-0.000375357
0.385214
-0.109338
0.228559
0.33511
-0.000133367
0.0900398
0.123138
-0.000709449
-0.000281506
-0.000715185
-0.011547
0.00900614
-0.0253921
-0.0351747
-0.0922768
0.179501
-0.127548
6.72935e-06
-0.0212778
-0.025349
-0.0364304
-0.00390794
0.00398603
0.000952236
0.0287811
-0.000381706
-0.000357077
-0.0204479
-0.00443348
-0.0274983
-7.13849e-06
-0.0160936
0.0351334
-0.0339572
-0.0470942
-0.00883258
-0.012155
-0.00898074
-0.00511052
0.000259635
-0.00893476
-7.71818e-05
-0.000489032
0.0220068
-0.0121999
-0.00504167
0.00662829
-0.00205468
-0.169636
-0.011908
0.162665
-0.0121509
-0.0683764
-0.0353467
-0.0252596
-0.0163016
-0.00359984
0.00113447
-0.00351062
-0.0133663
-0.0162646
0.20909
0.164321
0.0523625
0.340178
-4.15262e-05
-0.00523068
-0.0160322
-0.00861378
0.108992
-0.0214294
0.0501711
-0.00650319
0.23168
-0.00204934
-0.00182461
0.00794132
-0.0335846
-0.00020912
-0.0349378
-0.00570696
-0.0213793
-1.20902e-05
-0.00636801
0.00153628
-0.0193399
0.032439
0.0378352
0.0193413
-0.0147545
-0.0348357
0.12182
-0.00155511
-0.00181487
-0.00186906
0.479763
-0.000150828
0.0781288
-0.0211653
-0.0224817
-0.0259569
-0.0587025
-0.0293257
-0.0374382
-0.0215863
-0.00487108
-6.91979e-05
-0.00405548
-0.0213495
0.10558
0.00133685
0.186501
-0.0364666
-0.014482
-0.000704598
-0.0322481
-6.87532e-05
0.154354
-0.0338497
-0.0289379
-0.0266186
-0.00650663
-0.0418021
-0.00139386
-0.0449679
0.107957
-0.0275099
-0.106701
-0.0012304
-0.0288189
-0.0204731
0.0152746
-0.00334401
0.148111
-0.00211564
-0.0181716
-0.000736646
0.166061
-0.0430616
-0.0272992
-0.0028986
-0.0106014
-0.00286175
0.213138
0.00157958
0.245503
-0.00689624
-0.00095131
-0.00105955
-0.00242961
0.214927
-0.0730271
-0.00757369
0.000206976
-0.014837
-0.0264094
-0.00124398
-0.0280474
-0.0170792
0.0612177
-0.00489424
-0.00123981
0.446672
-0.0721328
-0.0277741
-0.0680007
1.67743e-05
0.0806088
-0.00342113
-0.026922
-0.00608046
-0.0390511
0.00195554
-0.000507937
-0.00260504
0.00275735
0.205608
-0.00548607
-0.00172098
-0.00477694
-0.0724334
-0.0085867
-0.0218493
0.00261123
-0.00865273
-0.00841533
-0.00329358
0.211413
-0.0515005
0.00264814
-0.00387445
-0.0284068
-0.0133317
-0.054555
-0.00161655
0.0975915
0.0228056
-0.00842337
-0.00185822
-0.0153851
0.503316
0.206861
-0.0117859
-0.000438791
-0.00241809
-0.00614243
-0.00423108
0.0207055
-0.000432747
-0.0297981
-0.00176444
-0.0168284
-0.0774249
-0.0013482
-0.0189468
-0.00119399
0.323601
-0.00771279
-0.0117545
-0.0339398
-0.00156853
-0.030303
0.0891389
0.446401
-0.0116296
-0.0126892
-0.00180047
-0.000577943
-2.19895e-06
-2.18533e-06
-0.0108936
-0.000624219
0.13233
-0.00082115
-0.00169531
0.00660066
-0.000181829
-0.0495283
-0.0890573
0.0173342
0.041875
0.027226
0.0675323
-0.0685923
0.0960241
0.074117
0.101811
0.128594
-0.0128935
-0.000834328
-0.00870302
-0.0995412
-0.0032333
-0.0157781
0.0455278
0.361663
-0.0781196
-0.000383418
-4.24727e-05
-0.00118754
-1.87036e-06
0.00442997
-0.000632393
-0.00706741
-0.0525695
0.000357139
0.00203129
-0.000164264
0.0704323
-0.0155927
-0.063111
-0.00159665
0.324019
0.319087
-0.0113079
-0.109664
-0.0295868
-0.0240619
-0.0156825
-0.00188055
-0.113747
-0.0551369
-0.0536332
-0.0728043
-7.56646e-05
0.207154
-0.0322113
-0.00938296
-0.0516755
0.0182919
-0.000472914
-0.00921332
-0.00115932
0.00826437
-0.00218552
0.191172
0.000215941
0.00959087
-0.000288897
-0.108072
0.00820186
-0.0012052
-0.000175665
0.000201111
0.0288337
0.128829
-0.00421469
-0.00132972
-8.64255e-05
-0.000519576
-0.000424525
-0.0681276
0.131039
0.0155849
-0.000173305
0.00558052
-0.000448442
0.233157
-0.0693841
0.274553
-0.0484844
-0.000335772
-0.000343431
-0.00812009
-0.00549326
-0.000755214
-8.4813e-06
0.0246616
0.0294536
-0.000162262
-0.000436993
-0.0207329
-9.617e-06
0.174688
-0.000968984
-0.0587196
-0.0207059
-0.00612817
-0.0631726
-0.0747394
0.157754
-0.0388413
-0.0204997
-0.000225103
-0.0620628
-0.0203002
0.006379
0.127832
0.361002
-0.000937731
-0.0669018
0.00720467
0.330387
0.0409048
-7.59153e-05
-0.00653534
-0.00387401
-0.00523331
-0.0439436
0.0976366
4.4104e-05
0.011994
0.00131062
0.0837742
-0.000420241
-0.000145926
-0.103271
0.303455
-0.059957
0.164505
-0.00198332
-0.000148297
-1.25172e-06
-0.124327
-0.0380719
-0.000372185
0.117943
0.0107645
-0.00555295
0.397598
-0.000565535
-0.00424194
-0.0701888
-0.0458919
-0.0020178
0.141374
-0.093494
-9.732e-05
0.00576045
-0.000197535
-7.60714e-05
0.151722
-0.010672
-0.000320786
-0.052249
-0.0266979
-0.00308764
-0.0531681
0.00191963
-0.0224567
0.00108775
-0.00361043
-0.0736708
-0.0421362
0.0116823
-0.000980737
0.167534
0.213883
-0.12951
0.00662112
0.0187943
-0.00455709
0.172934
0.118811
-0.0276387
-0.000119848
0.00739799
-0.0529667
0.00408635
-0.0341009
-0.00222288
0.0437402
-0.0312884
-8.02488e-05
-6.24782e-05
-0.0614509
-0.0372197
-0.0261022
0.00765819
-0.000259097
-0.0522427
-0.000160304
-0.00170178
-0.000213719
-0.0495556
-1.24618e-05
-0.00186988
-0.072843
-0.142091
0.138737
-0.00309552
0.00357459
-0.0256188
-0.0265593
-9.59022e-05
-0.0427833
0.136501
0.163971
1.14175e-05
-6.54227e-05
0.166986
-0.00262994
-0.128558
-0.0368265
0.00284214
0.000124673
-0.0679903
-0.043606
0.171023
-0.0540269
-0.00130557
-0.0178256
-0.0690634
-0.000554385
-0.000157001
-0.000918598
-0.0264431
-0.053447
0.166636
-0.000146871
0.46865
-0.0220376
3.61747e-05
-0.00134983
9.61953e-05
0.00011657
-9.45131e-06
5.6484e-05
-0.0538561
-0.000800503
0.000270451
-0.000128654
0.147379
-0.00568952
-0.000131791
-4.64191e-05
0.390138
-0.0243528
-0.054725
0.000614473
-0.000680789
0.0610427
-8.13762e-05
-0.0219283
-0.148387
0.00175457
-0.00988289
-6.15021e-05
-0.000160901
-0.0362398
-0.0970713
0.00664939
-0.141729
-0.0890918
-1.3456e-05
0.0217268
0.0341596
0.115111
-0.00152165
-0.000106928
-0.06534
-0.00609137
-0.000631
-0.0516834
-9.63446e-05
0.0384512
-0.000138392
-0.00102072
0.00903469
-0.00327975
-0.0631533
0.452319
-0.00192517
0.000156704
-0.0720541
-0.0818668
0.00747615
0.00409568
-9.05262e-05
-0.0336517
-6.59212e-05
0.203093
0.535358
0.0919185
0.00252926
0.00294778
-1.16616e-05
-0.0333306
-5.20182e-05
-0.0138706
-0.00171743
0.000178791
-0.00308573
-0.0139372
-7.34304e-05
0.000570546
-0.014401
-0.000230514
-0.0137303
-0.0185322
-0.0207309
-0.00170053
0.487241
-0.00102968
0.00198384
0.000134026
0.0136049
-0.0501894
0.00886735
-0.000132671
-5.99543e-05
0.00158204
-8.43165e-05
-3.30777e-05
-0.0165462
0.00046827
-1.19624e-05
-0.0565933
-0.00356943
-0.0548061
-0.00158551
-3.68389e-05
-0.00276902
-0.0209569
-0.0195706
-0.0384068
0.00186825
0.000287116
-0.000420607
-0.00157393
-6.90942e-05
0.289105
0.00118924
-1.04903e-05
0.000234038
-0.00219927
-0.000476737
-0.0621079
-0.0554616
-0.000161354
-0.00743583
4.63351e-06
-0.00440551
-4.30905e-05
0.037235
-0.000106135
-0.000217609
-0.00558711
-2.00073e-05
0.0131859
-0.000178583
-0.00111331
0.0190091
3.62676e-06
0.384383
-0.0607571
-0.0464596
-1.75338e-05
-1.04607e-05
0.0012638
-0.000994224
-0.0656873
-9.0386e-06
-2.34031e-06
0.00045887
-1.54791e-06
0.000226962
0.000284232
-0.000387663
0.00053676
-0.0547322
0.479665
-0.050769
0.355752
0.00849596
-0.0235694
-1.03117e-05
-0.000667231
-0.0137751
6.19394e-05
0.000162787
8.43871e-05
0.0732966
-0.00215229
-0.000282049
0.444649
-0.000351872
0.0002731
0.000323045
-2.40548e-06
0.0592917
-0.00237468
0.000818208
5.14949e-05
-0.000960429
-3.45094e-05
-0.00162072
-0.0500678
-0.000310265
-0.0027121
-6.28353e-07
-0.00334897
-0.000157533
0.199115
-0.000349701
-0.000448572
-0.0643657
0.00317916
-0.000115657
-0.00122859
-3.01762e-05
0.182136
-0.0819857
-0.000561827
-0.000270917
-0.00341108
-0.000259679
0.0608846
0.125213
0.0323574
0.000188557
-3.5196e-06
-4.06673e-07
0.0597515
0.000141171
-0.0551748
-0.0411715
-0.0196537
-0.00711955
0.500329
0.00154302
0.218894
-0.01846
-0.0337156
0.185323
-0.000232737
-0.0723787
-7.3824e-06
-0.0100149
-0.0454327
2.51642e-05
-0.0708517
-0.000754998
-0.0208529
-0.00863912
-0.0393019
-0.0458971
-0.0055132
-0.076651
-0.0409564
-9.07292e-05
-0.0111459
-6.57039e-05
-0.0351089
-1.24571e-05
-9.95389e-05
0.0109949
0.175743
-1.4096e-08
-0.0521219
0.00284194
3.41224e-05
-0.0288171
1.42171e-06
-0.0123468
-0.000287051
-0.0358432
5.78977e-05
-6.10935e-05
-0.00276382
-0.000103704
0.171617
-0.034767
0.0886499
-3.61602e-05
0.000413456
-0.0297477
1.17288e-07
-0.06441
-0.0707599
-0.0565763
0.475719
-0.00710631
-8.82425e-06
0.026308
-0.0396089
-0.00412003
-5.56036e-05
-5.50772e-05
-0.0505779
5.41088e-05
0.000599424
-3.20582e-07
6.76116e-05
-0.0261298
0.151906
-0.0988045
0.109036
-0.00570102
-5.36379e-07
0.00378243
-0.0742005
-8.63302e-06
-7.51742e-06
0.000189256
2.99122e-05
0.00025148
0.278371
0.036859
2.61246e-05
3.72253e-06
-0.0680484
0.215108
0.192852
-1.45989e-05
-0.0403145
-0.0268922
-0.015081
-0.0493129
-0.0126111
-0.00283673
0.152609
-3.84702e-05
-0.0297462
0.182035
-0.0554788
-2.47895e-05
-0.0612892
-0.000119508
0.337659
0.0274276
-3.07699e-05
-1.98044e-05
0.203671
1.44275e-06
-0.000142193
-0.0110565
1.71418e-06
0.275976
0.00149169
-0.00682883
-0.0632192
-0.00392847
-0.112137
0.197743
-0.0244457
-0.0465106
0.000690999
-1.41659e-05
-0.00122948
-1.63087e-05
-1.4051e-05
0.0197277
0.19386
0.161912
-0.000409138
0.258878
-0.0204281
1.89775e-06
-0.0433961
-2.28926e-05
-0.0321122
0.0289102
-0.0204506
0.00329176
0.00143285
-0.0086502
7.75972e-05
-0.00170723
0.0176647
-0.00235707
-5.10551e-05
1.36873e-05
-3.35511e-05
0.0329488
2.25658e-05
-0.032827
0.272457
-0.00710538
2.38667e-05
-0.00318257
-1.27359e-05
0.0989067
-0.000208998
-3.87404e-05
-3.45267e-05
-8.16285e-06
0.224231
-0.000146644
0.264039
-0.0792466
4.55692e-05
-0.0657693
-0.000771758
0.168965
0.451481
-0.00107483
1.25971e-06
3.96415e-06
-1.3338e-05
0.158854
2.02373e-07
0.000654144
-0.0220916
0.247994
2.12398e-06
4.55596e-06
1.62581e-06
1.1611e-05
-0.0230696
7.98244e-07
0.317831
-0.0221609
-5.79792e-05
1.40932e-05
-0.00166818
-0.0279831
8.0947e-07
-2.81788e-05
0.178272
1.59955e-05
-0.0364422
-0.0851578
6.25446e-05
2.96302e-07
-0.175156
6.37637e-07
0.181161
7.64205e-06
-0.000385423
4.29679e-06
-8.15465e-05
0.101087
7.11364e-07
-0.00158424
1.39292e-06
0.0090616
-0.00385628
-0.00570306
-0.00157684
0.165903
-0.000413924
-5.94361e-05
-0.00816875
-0.00816755
-0.000127634
-8.25162e-05
-0.000928721
1.54402e-05
0.213805
-0.0141764
0.493327
-1.64282e-06
-0.00782096
-0.000241089
0.150418
2.41275e-05
-0.0326022
1.10748e-05
-0.001461
-0.0375115
-0.000141004
-0.0174755
-0.0573112
0.00336882
-1.50408e-05
-0.0838845
-0.000172583
-0.000520538
-0.005412
-0.0268164
0.000752614
-9.53811e-05
-0.000351341
-0.00149668
-0.0011318
3.07232e-06
-0.00102024
0.447718
4.558e-05
-0.00287884
-0.0392596
-0.0675266
-0.0707463
-0.0459083
-0.0248999
-0.000891893
-0.0280598
3.50476e-05
-5.48555e-05
0.466892
-5.34052e-05
0.204202
-0.000252435
0.000200979
-0.000911097
-0.102153
-0.000317
-0.00125818
-1.25209e-05
-0.000279769
-2.84996e-05
-4.92368e-05
-0.0138317
-8.98372e-05
-5.17057e-05
-4.84445e-05
8.11966e-06
-1.14844e-05
-0.0524169
0.282643
-5.84968e-06
-0.000358786
-8.12219e-05
1.40999e-05
-0.000606071
3.43855e-06
-0.000690444
0.000122088
-0.000245476
-0.0689112
-0.000550452
-0.00197137
1.55941e-06
-0.00251677
0.000191948
-7.03504e-06
-6.47173e-06
6.30502e-06
-0.000503631
0.000296658
-0.053634
-0.0352571
-0.0668044
-0.000366926
-0.00317904
-0.0344003
-0.0646268
-4.29537e-05
0.0127774
0.00511278
-0.000664563
-0.0129425
-0.0516533
0.445688
-0.000264095
-8.66765e-06
0.0004162
2.0585e-05
8.01123e-06
0.0805888
0.00199736
0.09411
-0.0541292
0.421761
-0.000302862
5.93167e-07
6.91615e-05
-1.24654e-05
-0.000915764
0.172079
0.232906
-5.35539e-06
-0.000130079
-1.71975e-05
0.22138
0.0124001
-0.0117335
5.55459e-06
9.22016e-06
0.0063061
-0.000426883
-0.086895
-0.0189187
4.88039e-06
0.00257212
-0.0406849
-3.43928e-05
0.00120762
-6.34275e-05
-0.0489109
-0.00123771
0.161627
7.69699e-06
0.00122945
-0.00211662
6.16935e-06
8.01464e-05
-0.0262701
6.34736e-06
-0.000585943
7.50028e-06
-0.0173687
-0.0458723
-0.00511081
-0.0126117
-0.00789086
0.00827919
-0.00937202
-0.00186903
3.02937e-05
3.74626e-05
7.46484e-06
6.99343e-06
-2.96391e-05
0.00732191
-0.0779547
0.000288523
-0.06778
-0.00233047
-0.0739911
4.05413e-05
-9.08864e-06
0.000907709
-0.0778261
7.44541e-06
-0.0658655
-0.0184951
0.0304073
-0.0694231
1.13282e-05
-0.00265764
9.03081e-05
-0.153895
0.143347
-8.49037e-07
-0.0734652
-0.0292395
-0.00336578
1.34993e-05
-5.51186e-06
0.0230317
-0.0145733
6.80126e-06
-0.00638037
-1.81341e-05
9.92624e-05
0.13364
-4.82127e-06
-1.05578e-05
-0.000106093
1.32187e-05
0.000589026
4.04989e-05
-0.00421529
0.000103274
-0.0140047
0.000712061
-0.000195768
-0.046453
-0.0501941
-0.00662334
-7.44313e-06
8.42061e-06
-0.0918877
0.00474537
-0.0532963
6.01728e-06
-0.00530872
-1.25462e-05
8.94543e-06
0.078448
-0.00567993
-0.00210232
-9.83081e-06
-0.0221487
2.10302e-05
-0.0764247
9.00932e-06
-0.0875627
-3.92793e-06
-3.5774e-06
3.93676e-05
0.000691883
-0.113992
-0.016062
-0.0881023
2.44744e-06
3.3619e-05
-0.0857339
-0.0403834
-0.00704059
-4.13058e-06
-0.0515127
-0.0665394
-0.0834996
-5.02073e-06
-5.72877e-06
-2.03689e-05
-0.115652
-0.0872227
0.000414803
-0.0092247
-4.71715e-05
0.269704
4.41979e-05
-4.64968e-07
6.93698e-05
-3.38586e-05
-6.58199e-06
-0.00364215
3.83378e-05
-0.00261338
-0.0858484
-0.0112429
-0.0515181
8.98432e-06
-2.45769e-05
0.053804
-0.0826386
-0.00379625
0.120711
-3.83641e-05
-9.78569e-06
-8.57081e-06
0.139546
8.17972e-05
-7.48077e-05
-7.94405e-06
-0.0884184
-0.0134954
-1.10074e-05
-3.95085e-05
-0.0101372
-0.00520016
0.000195321
0.236375
-0.0815335
-0.000843597
0.574967
-6.27113e-05
-0.000951073
-0.0118969
-0.0804616
-1.7383e-06
-1.93265e-05
9.63559e-06
0.0036553
-0.0481534
-0.000340778
-0.0604295
-0.00636278
2.05422e-06
-2.6782e-06
-0.00850598
-0.0159282
-0.0265946
-0.0942782
-0.0469714
-0.0434214
-0.00450222
-0.0333847
-3.89759e-05
0.000172506
-0.00173037
0.000329694
-0.000204335
0.000414473
-7.97946e-06
-0.000171454
-0.0102236
-6.27964e-06
-2.76347e-05
0.0353437
-0.0392585
-0.000364197
-0.000117311
-6.02286e-06
0.255613
-0.00716949
0.00039546
-0.0349338
0.000120371
9.51562e-05
8.27636e-05
-3.31083e-05
0.000261359
-0.0459733
0.0122068
-4.92379e-06
-0.000295964
-0.0536958
-0.0442494
0.0507869
-0.000275742
0.00138747
0.01697
-4.76979e-06
1.81516e-05
-0.0701513
9.66269e-06
0.17294
-2.11126e-05
0.00339647
8.07529e-05
0.000107128
-0.0735319
-0.00826226
-0.0200439
-0.00190104
1.14913e-05
0.00332405
0.064605
-0.014217
-0.000103658
0.100818
0.169787
2.14903e-07
-0.0597324
-5.08455e-05
-9.45477e-06
-2.30987e-05
-0.000328821
0.0191236
-3.5852e-05
0.000116281
-0.0231431
-0.0287553
-0.0190338
0.316399
-1.07824e-05
-4.3649e-05
0.178071
-0.0168839
-0.00394123
-0.000387884
0.175762
2.06631e-06
-0.000639368
-1.87051e-05
-2.139e-05
1.33571e-05
1.44078e-05
3.38933e-05
-0.0162781
-4.89481e-06
-0.00380564
-0.0478485
0.261967
-0.000438076
-2.64601e-05
0.00380912
0.0904047
-0.069838
-0.000464255
-0.065955
0.317173
1.81555e-05
0.405033
-3.53216e-06
0.00231463
0.0237813
0.000243147
0.4258
-6.72852e-05
-4.12012e-06
0.000651952
1.24939e-05
-0.000536903
0.000134398
-4.90641e-06
-0.00162019
-4.05487e-05
-0.000113982
-0.00299407
0.252068
0.053215
0.0214244
-0.043851
-3.32384e-06
-1.91772e-05
0.00221415
-0.0813162
-8.38982e-06
-0.0481668
-3.40926e-05
0.110693
0.0650362
-0.0424834
-0.00123199
-0.0155109
-0.000617481
-0.0127934
-0.0002261
-0.00994992
0.0675112
7.16537e-07
0.289564
0.0362012
-0.00109858
0.226391
-0.0148938
-6.20623e-06
-3.69388e-06
2.96864e-05
-0.000100342
-0.000122626
0.252848
-0.000776434
0.261307
-0.00188979
0.173607
0.239721
0.140707
-0.00768215
-7.21947e-06
-4.10061e-05
-0.00889629
-0.171312
-0.0633233
0.00106419
-2.11043e-05
-0.0392461
-0.00077593
-7.87853e-05
0.000683903
-0.000803478
-0.00136355
0.0334518
3.45936e-05
-0.0468861
0.0611218
2.54524e-05
0.000120946
-0.0193572
-0.0832642
-0.000531198
-0.000340501
-1.10477e-05
0.000102571
0.110841
-0.0210536
-0.0637464
0.000886593
0.118046
-0.0480343
-6.16483e-07
1.35996e-06
0.0168557
-0.000183266
0.0986176
-0.00435287
-0.0117593
-0.000359545
0.00105409
-0.0468505
-0.000124746
0.000273104
-0.010423
-0.084135
0.176351
-0.0650378
-0.0317241
-0.0003182
-2.23597e-05
0.00585835
1.41762e-05
-0.0811379
-0.0856049
0.000328554
0.00203518
0.00307807
-0.149073
0.000371528
6.00448e-05
-7.3695e-06
-0.0504037
8.2078e-06
0.000330755
0.130234
0.18942
-0.163848
0.0515341
0.0502108
0.0149745
-0.000390066
0.00768197
5.7401e-05
4.61164e-06
-0.000216287
-6.38625e-07
-0.000145617
-0.000255525
-0.00822387
-0.0889326
-0.0108224
-0.0401995
0.0554293
0.0455537
0.00310757
-0.0847164
3.34154e-05
0.00298677
0.009434
-0.000315264
0.0816552
-0.00237003
-0.0133273
0.00964593
0.00469068
-0.00049564
-0.00424517
0.0441999
0.000479477
-0.0221338
-0.0193666
0.503202
-0.0315255
0.0881357
0.0205674
-0.0526583
0.0015655
-7.72875e-06
-0.0019822
-1.79047e-05
-0.00194312
-0.0309617
-4.79128e-05
-0.000257562
0.311052
-0.00248235
-0.048792
-0.0164209
-9.74982e-08
-0.00297219
-1.78499e-05
2.3428e-07
0.0385173
1.23512e-05
-0.00222249
0.0828163
0.00453338
0.000773366
0.0165316
-0.00617136
0.00342097
-0.158523
0.000480261
-0.00459589
-0.0687617
-0.00105859
-0.00880292
0.000269201
-0.00214418
0.000621187
0.0368733
-0.000683955
0.00452062
-0.0530988
-0.0243748
-2.67831e-05
-0.0502368
-0.0166743
-0.0151783
-7.29279e-05
0.00561056
-0.102812
-0.000642687
-0.00562443
-0.0472408
-0.00350384
-0.00104011
0.238703
-0.0321234
-1.33904e-05
0.00728928
-0.0696904
-0.000847042
0.20535
-0.00395833
0.000656271
0.0631916
-0.00132333
0.00658825
0.136302
-0.000312912
0.000791087
7.11073e-05
-4.37333e-05
-0.00356628
-0.0105546
-0.000465083
-0.0272754
0.107516
-0.0377856
-0.109081
0.000792228
-0.00305146
-0.00118214
-0.0766242
-4.23826e-05
0.0130853
-8.25952e-05
-0.0140917
-0.00157086
-0.00397757
-0.0189295
0.131271
-0.118469
-3.69789e-05
0.220965
-0.00278582
-0.00486979
-0.0653819
-0.126015
-0.018281
-1.859e-05
-0.00203593
0.00612298
-0.00278306
-0.00494266
2.36973e-05
0.0938956
-0.0618165
-0.0122641
-0.00541907
0.0190926
-0.00759539
-0.00539945
0.00122575
-0.000589722
-0.00271744
0.127522
0.00035324
-0.173562
-0.000242713
-0.00603815
-0.00628825
-0.137155
-0.0133613
-0.164522
-4.30422e-05
-4.59646e-05
-0.0100486
0.00892831
0.000606089
-0.187884
0.0961484
-0.061889
6.86669e-05
-0.204476
-0.000292653
-0.213364
-0.0294329
-0.224279
-0.220071
-0.206321
-0.154249
-0.0513027
-0.011123
0.0258139
0.0636392
0.100743
0.204804
0.237845
0.268441
0.319084
-0.00669601
-0.0091917
0.0684233
-0.030057
0.000466456
0.00993529
-0.0488382
-6.28931e-05
-0.00146747
-1.70103e-06
-0.0173342
0.016796
1.57463e-05
-0.000825847
-0.00872066
-0.0169685
-0.229354
-0.0237466
-0.070183
-0.000139029
0.000164324
-1.67988e-05
-0.08611
-0.0107729
-0.046761
-0.0196426
0.00116355
-0.000151483
0.00385018
-1.36665e-05
-0.0264523
-0.000133849
0.000187883
-0.0129143
-0.00972256
-0.00113413
0.000161528
0.051083
-0.0125262
0.0694973
-0.222357
-0.0160491
0.171646
-0.0209561
0.00257885
-0.0259605
-0.00357611
-0.0107435
-0.0176304
0.342174
-0.00256591
-2.35657e-07
-0.00662566
-0.0113729
1.27745e-06
0.0865428
-0.00562381
0.324837
-0.0928799
-0.0451695
-0.0310079