/*--------------------------------*- C++ -*----------------------------------*\
  =========                 |
  \\      /  F ield         | OpenFOAM: The Open Source CFD Toolbox
   \\    /   O peration     | Website:  https://openfoam.org
    \\  /    A nd           | Version:  7
     \\/     M anipulation  |
\*---------------------------------------------------------------------------*/
FoamFile
{
    version     2.0;
    format      ascii;
    class       surfaceScalarField;
    location    "17";
    object      phi;
}
// * * * * * * * * * * * * * * * * * * * * * * * * * * * * * * * * * * * * * //

dimensions      [0 3 -1 0 0 0 0];

internalField   nonuniform List<scalar> 
11512
(
147.702
-499.654
351.952
-755.69
-3.49204
759.182
406.551
-372.072
-34.4792
630.428
271.243
-901.671
1510.95
-1069.39
-441.566
1216.29
-1527.13
310.84
-62.2906
474.793
-412.502
168.502
-842.215
673.713
962.122
-1610.82
648.7
-1758.82
1665.93
92.8881
-542.945
1759.24
-1140.42
1934.23
-793.811
608.423
180.812
-789.235
-24.6153
-1313.02
1337.64
220.418
-1979.23
1023.16
-382.054
-641.107
-178.094
325.796
485.971
190.228
-676.198
1155.41
-1313.06
157.657
-312.933
376.209
-63.2759
1001.88
-1311.97
310.092
1221.5
799.179
-2020.68
72.4224
-1638.26
1565.83
-470.036
-1172.27
1642.3
477.077
181.514
-658.592
-190.624
-309.029
498.174
1012.78
1645.33
-1802.35
157.022
-87.402
-1692.01
1779.42
-1558.73
651.384
907.342
-307.039
652.995
-345.956
-193.184
-153.741
346.925
1283.06
-1210.64
355.156
-1407.41
1052.26
-1754.36
1754.36
100.076
1529.54
-1629.62
-1078.6
-480.126
636.494
-698.784
-384.15
941.359
-557.21
1331.95
-1317.32
-14.6365
-1100.18
716.028
626.816
396.345
-392.364
-33.7125
426.076
-445.382
773.871
-328.49
-1618.56
1618.56
1253.59
-1437.9
184.306
-488.523
1710.03
1255.29
-313.931
1660.75
-1161.26
-499.49
74.0737
-387.007
2065.04
-1134.81
-930.23
1810.61
-165.274
456.263
155.573
-611.836
-458.119
970.964
-512.845
-1168.59
1268.66
-568.543
970.902
-402.359
401.274
754.134
661.294
-492.792
-437.042
594.029
-156.987
1190.67
-835.515
2308.19
-1080.66
-1227.53
1163.54
-2008.39
844.848
-1600.12
1575.5
440.697
-1581.12
-759.222
1250.8
-491.575
-672.148
365.109
1661.46
-699.341
-1106.93
-870.893
1977.82
677.027
-366.718
-310.309
689.529
565.761
-258.203
1511.79
111.5
-316.456
204.956
-284.241
761.318
-333.988
565.951
-231.962
-324.086
810.057
-317.377
-148.2
465.577
322.729
83.8223
1455.59
-453.709
-977.445
483.452
493.993
275.564
90.6918
-366.256
949.483
-341.06
-1699.88
653.989
1045.9
16.7301
-852.967
836.237
-281.22
595.059
-313.839
156.95
-1093.77
936.815
1051.83
-1067.3
15.4767
372.727
519.008
-891.735
-244.7
700.963
-1103.79
-482.062
1585.85
-678.753
951.479
-272.726
1357.43
-1444.84
-633.43
278.31
355.12
-470.183
-1011.57
1481.76
-539.07
-793.29
1332.36
576.428
-996.419
419.991
-268.385
-317.692
586.077
405.297
-293.796
-1037.82
579.703
955.317
-798.366
-110.264
944.06
-833.797
-210.781
417.567
-206.786
-625.758
-351.686
-386.561
962.989
1856.38
-1856.38
-467.039
-166.392
-951.771
1555.32
-603.55
497.279
-929.444
432.165
-923.719
355.176
-941.91
-1058.08
-1489.12
345.514
1143.61
-280.703
911.131
-314.157
615.843
-301.686
-1941.9
999.994
-1138.13
-350.99
549.122
-1500.89
1728.51
-1725.58
-2.92977
205.824
-602.273
396.449
-1456.79
973.872
482.92
285.885
214.553
-500.438
310.722
-644.71
244.304
-420.519
176.215
2015.05
-870.651
-1144.4
-545.283
152.919
617.261
834.491
-1451.75
-182.864
427.168
431.169
876.878
-1308.05
-907.436
393.438
513.998
-1045.85
1447.12
-1068.88
309.658
751.484
-98.4889
550.736
-287.295
-263.441
1003.33
-519.877
593.279
-1403.88
810.602
-1342.27
238.475
-546.27
265.051
-1181.41
900.705
1944.91
-982.608
-962.303
276.805
1579.58
-2093.94
894.65
1199.29
368.585
-29.982
-338.603
-223.525
483.821
-260.295
-107.752
-380.486
488.239
-464.969
147.592
342.425
-129.033
626.313
416.191
383.652
-799.843
-2036.77
1113.21
923.559
460.532
-531.2
70.6686
224.25
-366.361
142.111
1019.3
995.751
1781.48
-251.942
723.375
-445.065
796.917
-1389.79
592.873
346.614
330.413
1050.53
-1033.8
-500.239
-229.072
729.311
475.778
-135.519
-340.259
797.483
-616.671
562.344
-725.54
163.196
503.326
1157.42
-1239.84
700.772
1044.23
-1514.27
-3.13549
-1439.43
1442.56
325.303
824.754
-1150.06
623.413
269.778
-893.191
-2269.87
1139.91
1129.96
-1101.07
-1168.8
202.983
359.362
958.509
-633.206
879.512
-899.148
19.6356
-2099.38
992.452
-231.347
-190.945
422.291
-41.7257
1770.23
-827.677
71.9871
-1027.7
-1066.24
-229.237
453.487
-669.126
202.087
-268.389
-424.515
692.904
1104.05
-1574.23
783.061
-1374.48
591.416
693.959
-422.717
1947.87
-1444.55
-378.28
-1376.08
77.2175
397.575
-530.074
526.581
14.4817
-570.085
555.604
569.291
-283.406
-604.305
280.121
324.184
780.673
-364.482
32.8848
335.7
1188.47
-1191.61
175.271
230.026
393.034
-661.423
619.778
-1006.34
-2026.71
2026.71
-253.613
-447.374
700.987
699.289
405.807
-1105.1
579.098
172.385
402.127
378.547
-2199.75
1328.85
-926.635
-678.874
1605.51
-488.528
-692.881
-258.909
547.896
-288.987
825.746
-190.622
-635.124
-440.076
645.9
368.516
-682.672
-360.026
-131.154
491.179
-1327.52
-474.83
623.556
-1112.08
-374.139
-1244.42
844.327
1463.86
298.041
-941.436
643.394
966.147
-339.331
1391.41
-798.133
443.409
-268.138
-328.338
-870.51
563.968
306.542
-325.507
-545.003
309.024
-416.777
-214.902
-148.441
363.343
-392.693
1091.98
435.015
-244.787
-393.645
1349.7
-169.536
-1180.17
-468.697
280.794
187.903
227.39
251.998
-479.388
25.2168
-750.757
592.087
-1729
1136.91
1481.93
-864.674
-1049.05
-407.742
-1057.05
573.242
483.809
1376.82
-402.951
929.326
-1411.39
-158.906
-201.843
360.748
-469.488
580.915
-1626.76
427.972
903.982
279.988
298.693
-578.682
568.077
1186.29
1103.75
-714.505
-389.242
402.724
-217.5
-185.224
-1419.46
445.127
738.306
-1183.43
1473.33
-544.009
-490.068
926.1
-436.032
426.144
1186.16
-1612.31
47.2836
-726.036
-145.765
421.329
225.664
-418.848
529.629
473.7
-617.382
62.5121
554.87
1024.54
-1307.67
283.132
663.848
-261.721
468.241
-1447.24
978.998
407.422
1686.39
-522.844
908.456
1036.45
-661.681
-1684.5
757.863
564.504
397.069
-961.573
453.958
78.7753
1749.94
-1828.71
1443.75
-379.476
-1064.27
1699.11
-1740.84
-367.521
-520.859
719.847
-198.988
-502.59
183.092
292.685
-373.006
-1226
214.43
-764.549
-639.332
-655.354
999.34
-343.987
-654.1
644.297
9.80313
655.119
-923.783
268.664
-765.75
389.016
376.733
-648.638
-686.006
350.742
335.264
-932.336
1400.58
-414.868
885.472
-470.604
-2205.3
5.55797
179.329
-535.293
355.964
141.93
1207.77
-98.1748
-570.951
159.18
-596.222
1487.17
-704.107
378.023
-463.438
85.4149
-570.319
570.319
1223.11
395.457
1777.89
-1228.72
589.098
639.624
849.94
-52.4578
1291.5
773.546
-540.032
1336.95
293.583
301.476
275.115
-795.973
239.319
-684.7
231.694
-444.258
212.564
-235.827
576.43
-340.604
124.095
-359.922
-591.997
-564.49
1156.49
-369.198
536.088
-166.89
-1192.16
2032.04
-839.886
1289.66
-331.152
-405.982
137.597
-1980.89
808.625
1528.72
-846.676
-682.042
1986.95
-877.424
-1109.52
713.473
576.188
-239.613
471.308
-675.618
1138.84
-463.221
-770.107
1201.28
551.574
924.643
-1724.97
800.332
-543.493
-74.6107
618.104
297.101
253.634
410.356
-99.2187
-311.138
896.897
-83.407
-813.49
914.796
-559.453
-355.342
1576.21
-472.161
889.026
-1626.32
737.295
1068.48
879.389
748.655
-442.775
-305.879
-1059.05
-258.263
560.863
578.902
-1139.76
-458.411
507.326
-48.9152
576.051
-343.923
-232.128
-983.313
568.446
595.803
886.132
-441.796
1096.92
1411.38
-776.169
-635.214
396.22
-924.686
528.466
-1021.2
395.438
550.072
-1040.14
455.606
-527.694
72.0874
471.646
302.225
-521.801
-48.5188
-794.334
-878.046
1672.38
193.337
209.387
-215.269
418.252
-29.0379
-552.791
581.829
492.002
867.342
-1359.34
-522.413
307.51
985.951
-89.0545
836.379
-1064.84
228.466
394.885
846.324
-1386.36
-447.945
831.597
1977.63
-1284.05
-693.576
270.185
609.327
255.98
795.847
81.7572
-963.317
881.56
1673.74
-1089.06
-584.677
-137.836
1887.77
-1866.05
-160.658
483.638
-621.74
138.103
-1013.87
526.338
487.532
-1730.48
538.319
-955.841
845.578
391.524
202.504
586.586
-288.544
-422.45
710.778
255.368
74.8306
708.372
-783.203
-1129.35
-898.933
2028.28
-537.601
1100.15
-562.545
-467.373
-342.088
110.742
-1654.51
860.176
-867.102
-594.444
1461.55
-332.166
-294.784
626.95
358.417
-645.417
287.001
241.698
-606.18
317.323
203.977
-521.3
345.266
-604.175
617.273
-258.857
313.722
-461.922
675.75
407.491
-180.101
-385.184
-300.822
1218.66
-2.94394
-1215.72
1039.73
-419.956
560.397
410.506
-1782.37
869.821
912.55
492.32
548.152
-1040.47
-535.777
203.61
-262.894
1180.77
-917.878
-1590.89
1212.61
504.589
-1096.59
385.701
-7.67769
426.924
302.567
-729.491
372.78
-617.48
-31.8217
755.941
-724.119
-526.201
795.979
384.722
322.696
527.244
653.831
91.0145
-401.462
310.448
1058.99
-645.324
-413.661
494.011
-1664.27
1170.26
-1140.43
1753.23
-612.801
1715.82
-1123.73
-333.878
613.999
-1182.25
1264.01
425.278
-797.628
1601.91
-804.28
-257.673
-211.024
-889.406
1469.94
1812.37
-611.234
-1201.14
-404.711
645.548
-1300.9
-124.819
-45.5335
455.89
-679.337
-354.168
-1236.72
-221.024
462.722
903.629
-559.672
179.186
-1674.56
-71.1964
1745.76
-1063.04
525.438
569.079
-1182.04
612.962
901.065
911.309
630.8
619.997
684.104
241.997
-1132.72
457.1
-399.989
414.471
619.712
-515.249
245.829
-732.388
486.559
689.645
-343.03
-334.367
180.626
-599.694
237.258
362.436
-887.793
-738.529
1087.67
-2145.75
399.546
-683.787
-342.821
-724.484
833.725
577.658
-343.86
310.147
369.697
212.091
651.329
-863.42
527.412
611.426
-533.961
173.935
359.427
-613.04
-1037.7
-855.598
1893.3
-1795.48
157.225
1107.1
-1369.99
1156.23
-724.863
-431.365
-503.536
1349.86
-1495.53
627.866
867.663
-288.927
-210.578
499.505
1428.39
558.554
341.303
-472.457
-484.41
-566.748
1051.16
-418.86
598.189
1582.28
-1129.17
-453.106
-773.296
325.922
654.885
404.1
-1623.42
416.158
1207.27
-191.685
509.008
797.804
784.473
197.599
-684.109
486.51
207.505
210.062
-293.452
-107.841
401.293
485.595
0.17383
-485.769
-1634.94
585.89
-1604.74
1670.28
-65.5392
10.5654
-1615.31
1069.61
761.291
-334.367
-807.801
-213.395
-1134.52
-239.952
-311.441
684.221
-1812.4
-628.342
1207.24
212.358
758.606
-1329.89
-678.503
-465.387
609.141
-329.152
-1013.28
1350.76
-1932.84
582.078
646.205
1288.02
487.261
-3.44069
717.491
703.554
-1421.04
-638.382
335.847
302.535
440.805
-99.4414
-341.364
149.762
299.199
159.602
-458.801
-583.317
1147.82
463.347
-625.301
-462.028
-401.586
863.614
-329.02
170.114
-457.037
163.24
-305.073
-708.797
549.654
-108.849
-571.041
967.261
581.121
-270.06
-311.061
455.986
-780.072
-646.128
442.608
-1129.41
-835.766
1181.28
-569.763
453.179
276.132
-451.887
85.169
1028.89
-317.614
594.477
-276.863
-509.028
1578.64
-680.582
236.43
373.555
-609.985
217.798
481.978
-26.3581
-455.62
-256.376
-200.661
1017.39
1108.94
564.796
-872.88
940.463
-67.5827
-458.718
169.791
-729.768
305.253
-592.165
322.326
367.319
823.54
-1232.81
409.267
777.435
-809.257
-948.972
-550.365
1499.34
-164.318
463.012
-543.4
256.105
1299.54
773.771
-576.172
1311.14
-687.583
487.455
-677.315
-408.987
-423.707
-378.24
801.947
502.986
-844.046
-452.975
91.1942
361.781
-323.434
572.402
728.991
-329.445
-244.466
-173.373
417.84
-489.961
140.898
349.063
1457.74
80.8108
-1538.55
-750.866
1346.67
-1144.75
-466.077
538.33
-164.775
1150.44
-373.003
1083.51
492.697
695.372
-420.257
-885.111
-522.304
-1328.45
-26.5045
985.026
-958.522
595.027
328.402
-923.429
-329.555
-215.728
-675.926
405.518
1621.19
-178.269
369.716
347.695
-717.411
-1839.77
-2106.68
1519.14
587.539
-2037.36
345.349
361.253
535.057
-896.309
-460.071
1020.47
-393.266
-672.088
1065.35
-2030.53
1391.21
639.32
598.039
-991.305
43.9607
411.645
386.35
196.338
247.071
317.66
959.292
863.459
679.894
-326.044
-353.849
-294.095
621.35
-327.256
573.548
530.199
565.48
514.784
-1080.26
-796.239
-699.291
752.464
397.974
-414.413
701.414
-1193.42
1609.58
418.098
-1090.19
-332.896
536.872
-1381.94
869.031
512.906
-714.62
-352.307
-784.052
361.222
422.83
446.983
718.398
-1165.38
1070.67
-578.35
-406.35
660.194
-253.844
255.213
325.908
-468.441
-431.84
900.281
-236.464
558.879
-951.592
392.713
-459.901
600.598
-1681.26
423.659
671.118
-1094.78
521.05
94.7931
113.407
-2212.79
537.128
-83.9487
1444.01
1777.09
-217.553
-1559.54
-438.428
1789.19
-1986.94
1194.46
792.478
402.79
345.864
-36.4427
870.168
-1283.36
718.872
-870.027
-822.872
796.368
304.404
62.1926
-366.597
232.101
186.893
-418.994
1552.87
-835.376
-1530.95
-325.43
485.898
-211.436
-274.463
395.132
366.186
248.448
360.693
-8.97204
1001.58
-992.609
376.247
279.567
-655.814
-734.048
1817.29
-1083.25
-342.398
737.53
-1217.11
-412.509
-915.598
483.758
572.335
-778.945
206.61
761.603
-380.845
-380.757
-427.061
-445.819
448.82
1077.48
1237.27
-668.19
801.224
-345.238
384.502
316.485
-245.941
-217.497
-204.173
611.595
407.695
-847.75
440.056
216.537
352.561
-569.098
-422.984
830.679
754.637
-1147.33
884.708
-61.1687
-489.67
275.777
774.749
-95.8035
1383.83
1890.5
-61.3346
342.129
-317.871
408.886
-1085.98
1077.01
624.694
375.975
385.627
73.3679
412.531
263.287
495.895
-371.656
-266.726
-564.76
-89.3403
-359.556
365.309
-5.75265
-257.008
-289.262
1011.05
-1540.7
529.644
-193.402
-178.67
-385.853
665.42
-1633.39
1591.04
-963.176
258.9
-667.888
584.312
1224.42
-1808.73
607.397
983.645
307.051
-1120.61
698.158
-286.658
-292.024
1375.68
-1445.38
826.284
619.1
422.546
-627.537
204.991
-371.479
476.705
-105.226
375.513
110.082
1723.82
458.664
-251.159
557.621
-1704.79
1147.17
-93.5732
394.066
342.574
337.319
-448.415
-615.807
1064.22
417.14
-865.086
-641.185
902.961
570.373
-514.361
-251.389
-439.099
-408.652
-307.212
-827.312
1821.12
-1821.12
-104.57
-1589.52
1694.09
292.872
283.179
-917.288
-555.309
1472.6
-408.101
973.581
-594.549
-1040.39
686.984
390.297
-1077.28
475.789
-162.066
573.06
1220.35
-1793.41
-1041.74
2114.82
-1073.08
-374.786
-297.361
-489.179
815.101
-1751.28
1600.7
150.574
1751.28
-1604.88
-146.395
-246.087
523.827
-277.74
-537.277
1620.79
1563.38
-1975.89
1082.42
-289.957
-257.271
547.229
234.794
-567.69
-698.291
283.877
1341.38
636.241
580.009
483.657
-1063.67
277.752
417.62
875.45
500.085
-1375.53
533.502
-1017.91
1574.94
-563.888
-775.707
-363.392
-123.46
486.852
-489.923
1208.32
-741.83
333.634
367.329
367.06
250.885
-617.945
601.854
831.883
-603.417
263.797
676.665
-514.361
-325.638
-232.63
558.268
1168.56
-672.742
610.072
465.688
-1075.76
-1292.64
1292.64
-386.593
762.569
-283.662
-476.806
760.468
489.342
445.241
-934.583
390.06
-673.722
610.651
-868.781
258.131
-367.041
-494.127
1074.14
-661.578
-709.999
1371.58
-375.875
934.754
-1552.69
675.268
32.7272
-415.499
382.772
-510.305
712.392
252.247
324.183
170.027
305.761
-519.625
232.967
1869.44
-1965.25
264.883
-704.959
449.867
-821.709
371.842
-915.995
1412.77
-496.779
-429.593
-486.004
600.71
1124.2
-1724.91
-715.036
340.249
-460.673
1034.22
-779.555
1043.35
-379.659
-627.972
-488.621
727.939
540.362
-358.848
906.483
-305.821
-184.14
1599.02
-1816.57
-345.714
-605.878
-337.084
477.982
262.779
-591.932
-177.148
1061.92
-786.147
207.318
-288.407
-279.473
567.88
393.253
-879.208
485.954
-485.701
-452.148
-941.436
-349.454
577.588
-228.133
-449.358
-427.458
-334.352
-186.948
-391.043
641.927
-446.573
763.058
-1072.76
624.343
-1407.68
540.578
-27.9575
-1835.31
1863.27
569.879
-449.542
1216.07
-690.632
335.779
-335.779
670.782
-439.659
1040.87
-1635.42
-1158.73
-947.946
292.741
328.609
886.361
715.546
-495.815
-301.95
797.765
1657.42
-1685.37
-434.474
345.988
223.302
1134.89
-524.823
-943.332
1550.47
-607.141
443.539
-247.202
378.353
382.814
-761.167
531.816
471.527
-1003.34
-331.19
664.823
-37.872
1907.32
1589.99
992.867
-1696.97
727.171
-1177.11
449.94
-492.445
1367.9
837.725
-1341.26
-559.547
269.59
798.539
-401.47
552.097
-1188.58
636.485
-637.486
-1215.54
-695.647
1911.18
-194.094
548.509
-354.415
-173.703
304.699
-498.793
328.849
369.974
-698.823
-1483.2
756.951
726.246
884.107
-1434.47
824.844
-431.406
216.077
-361.842
-591.916
266.277
-641.583
-740.355
698.782
506.062
-1204.84
389.872
-203.115
-186.757
556.166
-958.525
-568.319
-426.087
731.34
-831.287
-1155.65
-1437.96
499.629
938.334
10.0363
-636.548
340.724
295.824
-1313.74
1046.02
267.725
-616.733
-456.025
-665.79
921.77
399.793
-200.421
-199.372
508.181
980.676
-1488.86
977.056
-564.74
167.466
397.274
-400.592
673.922
-409.039
-506.707
169.623
234.345
-1518.39
529.764
540.906
-754.638
244.333
150.893
-456.714
368.015
-820.163
1954.16
-1195.39
-758.769
417.373
-675.217
257.843
325.782
327.564
117.416
-444.98
-568.945
194.651
264.013
-691.69
1374.36
-682.671
423.927
463.155
-1177.77
266.819
1866.78
-1013.59
-853.189
784.969
-531.505
182.05
1402.37
-975.199
-427.174
332.67
-772.329
-616.497
1725.44
611.378
625.892
322.3
-17.8961
267.572
-1138.44
1725.71
-587.276
-1763.52
820.189
1755.47
-1686.14
-69.3284
-659.649
259.659
567.279
-714.909
226.288
1402.66
-564.931
388.434
443.163
-1858.55
1420.12
551.791
-432.579
-119.212
204.971
-539.322
-283.141
-184.232
-353.031
695.606
-578.086
214.694
610
551.054
-1161.05
1113.65
-1947.44
833.788
157.736
333.444
-1698.93
1661.06
313.865
-734.123
-165.546
381.622
754.507
679.501
-1434.01
1075.8
-1078.75
526.19
-1104.54
-629.802
253.078
376.724
525.114
-287.855
-603.577
-1031.84
293.614
-721.072
-912.32
177.03
163.724
226.148
391.136
291.773
-682.909
-629.944
-833.976
-978.42
490.532
-1059.48
-293.28
481.183
534.684
646.596
-281.482
-124.501
-410.759
717.81
269.151
-1198.94
568.999
1308.49
-553.984
443.385
-1011.7
-390.33
156.543
395.249
1023.38
551.564
-1715.08
1610.51
1629.22
-563.462
-1065.76
1903.26
-1891.76
-11.4954
209.284
-527.155
-346.742
554.06
-766.052
-322.061
-337.587
1025.65
699.851
-1502.73
802.877
339.601
-26.1906
1625.21
-1083.65
410.907
-1237.35
461.648
-60.435
1518.18
1197.43
-470.254
-489.677
-75.0633
-267.327
736.014
-1951.55
-710.291
352.289
-533.232
180.943
192.257
-509.871
1139.91
671.55
-1811.46
-611.225
178.646
942.045
-1497.35
-210.465
678.896
-468.431
875.661
1124.34
-737.916
1349.29
608.871
-485.42
-123.451
-346.205
1172.49
1041.25
-1980.1
938.847
-1172.12
543.782
1488.77
-585.804
-384.869
-149.091
-1241.38
573.191
1160.42
-114.52
946.066
775.525
-1721.59
-207.383
578.465
-1541.73
963.263
486.968
916.682
-1403.65
620.136
587.107
392.057
-1106.65
591.839
1107.16
1216.44
-452.399
-764.041
-1186.2
-1754.94
-7.34014
-1707.74
-203.054
-424.483
1607.21
-628.547
-978.666
-490.818
1121.62
-1317.67
636.202
681.467
-1361.56
1442.37
-1330.27
592.352
1520.51
-387.626
-571.725
186.856
-1479.46
232.089
176.37
229.134
379.737
437.656
398.293
-835.95
506.301
-939.058
900.802
-1444.81
-698.367
233.252
465.115
-1042.97
459.648
-475.027
863.461
695.696
26.1452
-525.913
171.498
-886.565
-1318.74
-715.289
350.047
365.242
403.501
-722.86
319.359
-479.101
-189.275
-709.873
719.42
1539.59
-593.524
814.908
737.959
1344.81
-844.721
-971.332
-570.397
-796.935
427.634
369.301
-1036.69
-642.366
304.416
337.95
-1433.69
-296.783
-790.617
398.362
392.255
-650.824
403.758
247.066
-677.725
268.686
412.471
487.81
389.538
441.141
479.264
384.35
596.846
-969.852
679.813
468.008
453.876
356.275
-810.151
1630.76
-1079.91
-550.859
-504.488
-285.082
-1028.66
454.508
347.44
409.493
594.296
-1003.79
-1380.63
752.088
-533.084
1146.05
355.839
-56.6394
411.905
-865.494
453.589
-1894.33
304.809
441.796
-726.452
284.656
-186.832
403.347
-216.515
-661.466
306.862
354.604
-674.085
320.236
370.487
392.082
612.905
-1021.01
753.194
661.747
-1414.94
438.661
625.56
340.102
392.796
-732.898
409.585
327.945
602.134
672.231
405.253
594.867
-1021.15
426.28
-1669.11
1194.55
474.562
1696.59
-539.171
621.013
-1147.21
526.194
-643.038
348.254
437.101
-935.207
498.106
752.06
-449.494
350.557
345.049
569.976
-915.69
651.193
-1253.02
601.826
374.28
734.843
-1224.77
769.631
509.481
-1279.11
484.818
405.807
-890.624
-501.636
-936.327
-300.935
629.784
352.415
542.082
-894.497
333.23
331.593
-502.178
1944.74
437.324
-847.302
409.978
-917.82
-807.154
-748.595
367.838
-1217.57
438.019
-1732.73
1604.88
127.847
1745.81
-1600.7
-145.105
-784.337
-592.639
266.143
326.496
-1755.47
1975.89
538.416
791.633
-1330.05
440.034
716.453
690.422
385.557
-1075.98
-75.6804
1617.13
-593.754
384.908
831.162
-650.003
326.999
323.004
-377.969
-297.568
552.78
-220.268
434.821
281.366
-666.609
385.243
265.097
-578.936
-282.936
442.393
-1033.55
591.159
538.038
1092.73
365.91
597.079
312.707
353.381
-666.088
1622.13
-922.283
1691.83
-1520.47
-171.367
-327.542
-823.289
414.637
857.565
-1068.03
-606.828
279.572
-1090.61
1628.65
-1583.56
-78.779
1662.33
-340.685
-349.626
-369.669
536.991
597.904
-502.397
-28.8032
-550.034
506.066
-282.641
-223.425
1746.59
-1297.77
-625.02
299.536
325.484
401.638
357.229
734.753
-296.41
-398.548
-1745.81
1685.37
459.44
-1101.01
641.567
-43.4267
1653.93
571.39
476.346
-1047.74
104.8
1144.9
-1452.11
-15.19
-1879.14
228.326
-598.955
306.959
291.996
-955.504
612.684
-898.344
468.751
-1128.62
673.631
454.986
368.528
268.045
-763.86
-310.341
1216.95
886.847
699.006
-1183
456.106
726.89
494.263
700.931
-1195.19
-358.965
-246.627
410.351
-960.73
438.325
522.405
21.2538
-1879.8
1079.95
-469.294
-497.071
558.067
-1378.2
820.132
-426.173
798.015
-404.989
497.583
-707.358
1724.75
410.63
-184.482
217.202
-170.274
-244.728
415.002
1895.32
-504.111
-1690.55
1051.57
-602.444
304.877
-1013.87
553.804
-312.118
544.258
905.335
-1449.59
-1103.88
438.085
-20.7675
-1944.48
1711.23
-669.98
-540.776
460.658
-1190.56
729.903
191.52
208.273
-282.673
769.476
700.464
838.226
818.524
-462.249
1085
-475.245
477.905
-193.931
-283.973
-1922.98
-714.354
-317.589
-644.52
-6.96306
651.483
466.223
-271.573
564.395
1057.74
-803.696
924.911
1244.32
-424.927
-193.856
-225.754
419.61
958.26
-888.567
-323.529
-1067.94
611.917
1556.62
-799.668
537.618
934.979
-392.338
735.391
-343.052
1130.46
-276.851
333.623
1349.7
-704.996
-219.69
448.243
-1198.69
750.444
-994.717
-107.966
1102.68
442.018
-955.728
513.71
175.149
732.96
483.48
739.742
-88.4136
853.046
-425.438
1182.6
-797.039
552.075
-1465.47
913.397
-1216.66
1800.97
-431.712
-1510.19
879.714
-1402.02
-310.655
-418.836
1457.22
-1523.36
784.831
1491.5
202.298
275.607
-355.814
-1732.73
-291.536
-1009.11
1573.5
-1765.39
1765.39
1563.38
-1004.5
-634.49
-339.298
368.317
605.264
-370.271
-363.609
-1389.86
897.413
1125.15
600.561
1202.81
1789.48
-1216.42
-611.836
272.292
1658.97
-1916.43
257.458
814.399
-1267.51
1545.25
-561.604
781.972
318.173
-342.524
554.72
795.14
673.357
1354.92
-225.525
-444.755
-362.719
497.774
-342.202
471.69
736.631
-299.299
-145.681
-330.918
568.053
-237.135
27.7588
-371.682
1107.47
-1720.27
-438.006
-487.493
-567.382
863.831
692.788
-1596.52
904.827
-451.449
-621.07
-513.76
1252.07
336.971
1723.68
-1702.42
-1657.42
1891.76
-1560.84
840.304
720.54
-374.962
-1795.71
917.669
583.059
819.597
-394.39
1794.27
-680.626
-413.914
678.989
429.773
-1108.76
-1099.83
444.05
753.375
-1617.18
473.176
901.186
177.017
-400.86
223.843
-1595.17
-384.063
-430.884
990.309
-672.382
1442.95
-978.161
1853.82
240.356
-540.615
496.593
-294.295
474.3
893.595
543.073
977.437
-462.625
-427.771
573.896
883.324
-1392.71
-40.988
1572.41
-834.455
519.94
971.564
-1475.82
-1115.9
1770.41
-1242.43
-527.982
1206.12
-318.966
-887.158
-192.354
453.848
-261.494
-457.173
-249.211
430.217
-181.006
145.509
-392.136
1729.57
-1736.91
-458.464
-530.834
-903.637
443.513
-207.146
-236.367
635.711
-457.066
-358.722
-314.385
673.108
-927.012
382.009
-1167.34
676.519
417.374
-634.864
-439.39
1574.82
-859.271
530.178
-457.708
-571.13
-462.422
373.274
-363.493
-9.78137
-1101.61
410.983
-664.719
-1033.68
1698.4
-599.58
-1423.31
713.308
562.17
-1596.26
1034.09
-389.675
-477.29
150.308
533.796
-1258.4
744.638
539.214
1006.04
-2133.18
999.99
1133.19
-362.292
420.572
-395.675
-24.8964
1478.05
-370.145
449.337
1212.71
582.148
906.618
567.916
527.336
-1095.25
165.623
-440.509
-1686.14
255.112
1127.59
-614.007
518.458
1013.78
-1532.24
1092.87
-1643.73
190.659
694.049
546.759
-870.288
-1086.54
-173.518
429.972
-256.453
-587.187
-429.299
-636.855
-629.655
346.981
-1618.66
939.786
-476.664
213.805
-398.287
534.734
-306.408
-605.898
1197.18
-1274
922.897
351.103
-1021.84
-368.178
-757.076
-824.251
1688.08
-476.783
1793.56
-1582.15
-211.404
-1556.64
1018.74
537.899
-725.318
-263.656
445.777
-182.12
-591.469
383.227
274.391
-657.618
-523.835
987.58
630.216
-350.643
-1620.29
1050.52
571.758
1103.55
-1675.31
-413.758
-292.292
-369.174
-744.433
-472.079
-329.915
499.943
1557.99
-995.819
-775.329
1497.46
660.145
-314.156
725.88
1152.37
-1878.25
289.756
306.697
-487.05
-1931.99
1719.7
212.284
738.542
-474.169
-264.373
531.821
1060.85
-1592.67
373.274
-1722.93
-233.209
1752.35
-1580.7
1073.79
506.913
-1723.02
0.0892631
-521.563
420.572
1698.93
-1719.7
939.72
624.464
-1564.18
385.244
-218.404
-166.84
-411.499
-266.226
70.5398
95.0675
-358.724
-430.691
-438.091
-406.151
219.32
1510.25
378.811
-215.78
-435.044
462.67
-198.657
320.581
1510.78
996.775
-153.263
-843.512
-1104.11
1704.82
-1728.76
1064.04
-707.132
-1021.63
-1265.09
1844.99
-579.9
1155.07
-1771.14
616.064
272.259
-878.214
1675.68
43.4509
-1719.13
-491.153
-1083.07
-1729.57
-982.222
554.451
1019.62
590.215
1133.04
-1723.26
283.434
-448.208
703.948
-383.712
378.774
924.909
680.6
-380.819
-640.328
582.881
1072.57
-1655.45
-400.442
-368.896
769.337
427.976
-1661.06
1520.47
140.596
583.399
-1044.07
544.741
1083.9
-1555.69
994.082
-238.278
230.341
323.718
1903.26
428.496
-77.1592
995.864
722.751
-1718.61
-697.39
1085.36
-1557.52
165.792
-571.716
198.271
264.399
-657.054
-560.52
582.476
1034.66
-711.231
-275.127
-1368.5
675.803
692.696
-413.932
764.876
62.6925
-827.568
561.62
-137.151
1557.27
-214.632
270.599
-771.271
-1931.99
1664.63
1031.89
389.016
301.162
450.899
-930.078
-992.904
-1767.27
636.305
1693.77
508.904
-474.216
1210.85
1087.14
-424.829
1030.09
-978.384
492.93
485.454
700.175
1047.94
-1748.12
485.043
482.218
-1494.01
-746.739
32.2343
780.341
-412.503
-884.895
387.824
-538.737
-802.524
643.394
-577.2
1397.33
1055.14
195.724
234.248
-550.605
1618.53
-772.469
1525.66
-1727.83
575.244
1152.59
543.751
-883.082
-1732.73
1916.43
-183.702
1721.74
182.275
-543.744
373.63
-278.563
-481.337
1211.24
568.268
1128.33
-491.191
431.456
858.099
-461.754
-772.868
426.689
346.179
1418.79
1089.61
-518.163
1422.99
-510.566
-533.552
1044.12
-602.743
474.46
-1199.32
1691.83
1839.58
-687.21
1585.63
-645.906
-1241.33
717.493
-562.423
205.569
-396.514
455.11
-245.048
-520.2
-1246.71
1870.94
-624.23
1173.3
-552.285
1120.29
-1659.46
1693.68
-573.925
-545.381
-549.811
1720.07
-317.132
-688.023
-473.257
1223.7
-1683.66
-1860.1
613.392
298.534
-933.658
168.723
213.951
-1719.03
1204.16
514.87
1162.86
558.887
-511.561
-465.332
1192.22
178.568
224.779
588.443
1251.14
-539.175
-1238.58
1777.76
-1025.4
999.991
866.79
-204.122
-1658.97
1702.42
-510.049
1411.23
-1732.73
-357.895
17.6965
340.199
-262.521
585.02
-322.499
75.3022
488.665
781.214
-377.713
1257.53
1270.89
-413.321
852.224
-437.587
1817.44
-662.368
1586.52
-1723.68
-412.785
-745.459
306.318
439.141
-559.616
-563.262
79.7162
-1138.77
-985.504
-669.669
1655.17
-943.708
-1189.47
159.15
-416.422
-648.454
705.614
1167.45
649.992
1410.27
-590.676
1636.75
1318.03
-573.392
-491.754
197.459
-503.259
1396.85
1240.05
-564.243
-999.989
893.305
54.6739
-947.979
603.439
-506.109
1403.52
1495.05
-588.428
-381.609
381.609
-589.403
1623.49
1239.53
-486.159
1134.16
-71.1065
1850.52
-390.874
1489.44
-588.638
-507.659
1347.96
-652.67
1218.52
-565.849
1554.79
-591.528
749.869
573.964
-1323.83
-653.875
279.211
494.56
600.123
-1957.3
-986.698
1586.52
382.363
-382.363
-68.5401
388.369
436.475
384.852
-9.33917
-342.858
895.565
-521.286
-425.831
814.2
-243.717
620.44
-432.924
1546.14
-444.325
-884.123
187.055
224.479
-411.534
601.167
1250.78
-1851.95
927.158
-458.408
-363.493
126.152
-1943.01
1816.86
-450.114
181.976
1181.28
-440.415
-740.863
-302.915
-581.98
-492.361
-395.675
-479.863
256.438
1158.2
-560.297
229.566
-379.308
149.742
-22.4011
-107.671
1376.08
-1268.41
34.4479
-599.207
-586.379
-460.443
460.443
-1262.36
1985.11
-1344.39
-213.959
-1823.73
241.575
-1025.76
-974.242
-185.993
-1637.61
707.535
1229.32
-1924.96
369.148
312.245
-681.393
-1850.01
1234.27
615.74
-564.704
564.704
-959.213
-39.871
-1866.05
-558.136
1650.86
-677.37
1636.17
-601.509
-175.168
-1703.97
-584.402
-444.297
-594.789
-473.539
473.539
-1537.81
194.525
1343.28
174.08
224.501
-398.582
487.066
509.709
997.137
-474.732
1751.3
768.718
-427.466
402.57
520.628
1702.05
-594.581
-552.957
1636.86
470.563
1812.73
-645.283
-1803.92
-1938.08
-646.938
-484.819
484.819
-588.608
225.888
-690.708
1019.53
-465.727
-1072.24
-286.874
1579.58
1852.3
1635.33
-1635.33
-275.157
739.441
1761.49
595.785
1275.15
175.623
209.621
576.541
592.004
1603.53
-1603.53
222.616
-353.712
-434.633
460.122
951.391
-458.461
-639.792
-1131.02
1706.26
280.59
-1650.26
609.871
-287.691
469.966
1744.64
-592.054
-214.95
-416.149
380.317
726.847
1738.57
-613.414
-511.761
-774.2
1960.53
-870.452
-1090.08
1642.78
-706.011
1223.97
-1824.94
600.967
333.017
-873.631
-186.007
-109.987
1098.33
-486.412
130.268
616.318
-1648.16
437.289
608.75
-1803.92
-583.272
1787.43
884.313
-1162.93
1760.49
-597.56
1783.83
-575.523
-1208.31
437.454
926.925
-1736.91
924.79
-1495.89
267.774
1228.11
-831.133
-1254.23
-385.32
77.564
307.756
581.716
269.797
1026.91
-444.049
846.374
-402.325
821.103
738.542
-1559.65
643.769
1066.26
-24.4975
-663.84
688.337
-1744.29
722.665
699.814
150.523
-1122.7
1936.75
-674.547
-1262.21
-537.173
1665.5
829.623
963.966
-1793.59
1227.87
683.318
-403.594
710.457
831.201
1028.36
-586.343
1761.49
626.737
1773.56
-1185.62
-587.935
-379.486
-330.077
709.563
121.435
-1185.71
1660.55
-540.263
-1437.84
1437.84
1250.57
594.414
1351.58
206.412
-563.293
280.768
-190.076
699.065
1113.67
480.555
-301.987
-870.256
-574.555
1736.82
-1736.82
1010.75
-1010.75
987.33
1025.17
-2012.5
1837.94
-613.967
-581.104
822.539
-947.848
-1052.16
998.356
690.525
-1688.88
-521.801
-347.839
-643.467
-808.422
2042.69
-1246.42
-613.678
1002.97
974.851
1289.77
646.984
325.979
1012.69
228.492
337.165
1186.29
1756.87
-1756.87
672.03
80.1619
-391.223
-997.052
-539.988
1674.15
990.29
1009.71
-1833.28
-223.559