/*--------------------------------*- C++ -*----------------------------------*\
  =========                 |
  \\      /  F ield         | OpenFOAM: The Open Source CFD Toolbox
   \\    /   O peration     | Website:  https://openfoam.org
    \\  /    A nd           | Version:  7
     \\/     M anipulation  |
\*---------------------------------------------------------------------------*/
FoamFile
{
    version     2.0;
    format      ascii;
    class       volScalarField;
    location    "35";
    object      p;
}
// * * * * * * * * * * * * * * * * * * * * * * * * * * * * * * * * * * * * * //

dimensions      [0 2 -2 0 0 0 0];

internalField   nonuniform List<scalar> 
29659
(
0.0116484
0.172762
-0.0119588
-0.0505853
-0.00337187
-0.050703
-0.0477085
0.00981429
0.00294046
0.000302454
0.00400681
-0.00702199
-0.000643295
-2.23499e-05
0.0635313
-0.00821705
-0.000203402
0.006581
-0.00295485
-0.0142338
-0.00116087
0.00277337
-0.0122021
-0.00290712
0.819984
0.171671
-0.000694716
0.657208
0.0483478
-0.00237506
0.0221809
0.0703371
-0.0891333
-0.0106371
0.671368
-0.0141054
0.169062
-0.0369411
0.00825725
0.00790527
0.000676692
-0.0251157
-0.000175542
-0.04425
6.3237e-05
-0.00219748
-0.00635463
0.000136582
0.00473249
0.164706
-0.0793914
-0.0440435
0.0730827
-0.0486104
-0.00805455
0.0522531
-0.00481666
-0.00120131
-0.00791473
-0.0336206
-6.81565e-05
-0.00287849
-0.0888354
-0.0126841
0.266025
0.777596
-0.0132913
-0.0120134
0.736933
0.000706487
0.169773
0.532549
0.00300833
0.741526
-0.0106229
-0.0334734
-0.018826
-0.0320252
-4.54933e-05
-0.0276616
-0.0439593
0.236359
0.0116532
2.76921e-05
-0.0453574
-0.208604
0.327828
-0.000671466
-0.000619131
-0.0639633
-0.0360665
-0.0326154
0.00433266
0.0598507
-0.06567
0.315769
-0.0489246
0.000728221
-0.058983
0.0873196
-4.91288e-05
-0.030361
-6.49104e-05
0.0424951
-0.0448306
0.138406
0.440023
-0.000594116
1.62531e-05
-0.0925753
-0.0878668
0.00197612
6.28952e-06
-0.00217772
-0.000144215
0.514112
0.24606
-0.0154474
5.98378e-05
0.00360252
-0.15844
0.18572
-0.0837039
0.769074
0.0016357
-0.0595615
0.0120344
-0.0298942
0.00579334
6.63998e-05
-0.0416714
-0.0232091
0.44873
-0.10615
0.0421959
0.0216133
0.241467
-0.0308859
-0.189932
0.0834191
-0.052209
-0.0544303
-0.0589879
4.63541e-06
-5.28446e-07
-0.00343965
-0.00598336
-0.0677709
-0.15061
-0.0877975
0.0334557
0.0155516
0.000667839
-0.000152162
0.254527
0.000774293
-0.0110093
0.21262
0.313661
-0.0780662
-0.0420825
-0.0493421
0.057215
-4.57857e-05
-7.41874e-07
-0.0155872
-0.0563435
0.000114655
2.68704e-05
-0.00959583
8.3036e-05
0.00795043
0.219864
-0.0301034
-0.0899732
-0.00681258
0.00299838
-0.0318742
-0.00177957
-0.077665
-1.07637e-05
-0.011291
0.320518
-0.01101
-0.188447
0.246087
-0.00854127
-0.0237394
0.00548318
-0.00249237
-0.000359023
0.00120947
0.787058
0.249918
-0.0181023
-0.0105297
0.634979
0.220777
-0.0653125
0.00170308
-0.075089
-0.0726197
-0.00685297
0.00126654
0.223917
-0.00917414
0.00972695
-0.0664052
-0.0945205
-2.97395e-05
0.552768
-0.00139854
2.2382e-05
-0.00072868
-0.0350926
-0.0760364
-0.00970636
0.00947771
-0.00288853
-0.0665889
9.63805e-05
0.000691182
-0.00313212
0.114503
-0.00395567
-0.00204483
0.0749696
0.000221727
5.93862e-05
0.00756154
-0.0389122
-0.0280016
-0.00634773
0.167722
-0.0192932
0.0166751
-2.3162e-05
-0.00409194
0.0011896
-0.0710785
-0.160082
-0.00187298
0.000706248
-0.00209553
0.00385281
-0.0136979
-4.32901e-05
-0.198376
0.000116245
0.116513
-0.00464124
0.000247094
0.141027
-0.0707891
0.000397198
8.11194e-06
-0.0544458
-0.150187
-0.011888
-0.0317021
0.0329929
0.306712
0.000141431
-0.0363698
-0.115688
0.650842
-0.0109618
0.242167
-0.0281228
-0.000331814
0.955269
-0.000717502
-0.0940679
-0.065929
0.00322686
-0.0628419
-0.0109444
0.440187
-0.00472931
-0.0236596
-0.00033348
0.131741
-0.00482724
0.32499
-0.000672251
-0.00788311
0.581904
0.0971555
0.0749412
-0.0430289
-0.000183335
0.0037791
-0.00021573
2.33196e-05
0.0964446
7.33925e-05
-0.0255668
-0.117839
0.831843
0.441286
-0.0618142
-0.027045
-0.0265169
0.00382479
0.00246769
-0.0242107
-0.0668459
0.314794
0.546456
-0.00173243
0.429797
0.0936309
-0.0844526
0.0148455
-0.00338976
-0.0230883
-0.00729522
-0.00356991
-6.01117e-05
-0.00289883
-0.0149912
0.126536
0.00235876
-0.035261
0.0171398
-3.25387e-05
-0.0642799
0.886318
-0.00866482
-0.00207748
0.0158764
-0.0257056
0.105396
-0.00215331
-2.022e-05
6.00378e-06
-0.0035894
0.587014
0.0221536
-0.163236
9.07666e-06
-0.156977
0.0582574
-0.00690765
-0.0600052
-0.00189426
-0.000580316
-0.0332687
0.00139171
-0.0773652
0.015241
-0.0181547
-0.000268437
0.00222074
0.184301
-0.153471
0.000652585
0.000689099
0.498638
-0.0364507
-0.00229135
0.232674
0.670102
-0.0904445
-0.012197
-0.0680517
-0.00103766
-0.011352
-0.00462961
0.215342
1.95888e-05
0.0146607
-0.151304
0.467404
0.722867
-0.0082985
-0.0122166
0.279265
-0.0348258
-5.77996e-05
-0.0665188
0.121488
0.123825
-0.0106082
0.037352
0.628274
-0.167431
0.549797
0.494177
1.84433e-05
-0.0133961
-0.157218
-0.00419319
0.00241296
0.677675
0.0218602
0.000458434
-0.0509036
-0.0742173
-0.00773002
-0.000138146
0.30233
0.241347
0.000121366
0.00600402
0.00792926
-0.152128
-0.0431346
0.000145767
-1.16687e-06
0.000781681
0.112878
-0.0365322
0.392043
-0.065355
-0.0263702
-0.0274119
0.226725
-0.0797261
-0.00168149
0.0117627
0.00130411
0.54415
-0.0336296
0.00165936
-0.0102502
-0.0488304
-0.00242975
-0.0170486
0.000387453
0.00039254
0.901225
-0.0111332
-0.00718292
-0.000649212
-0.00101237
0.283098
-0.153561
-0.0378086
1.10668e-05
2.01187e-05
-0.0346787
-0.00934651
-0.0072301
0.0251636
0.00906738
-0.00470375
-0.0124035
-0.0235324
0.536355
0.00375017
0.000408855
-0.0609432
-0.0347249
-0.0458466
-0.00501264
-0.0373937
-1.13821e-05
0.721052
0.0289369
0.00016352
0.787254
-0.0388837
-1.21482e-05
0.00221268
-0.0631627
0.0043766
0.0554498
2.45824e-07
-0.0108753
-0.0208744
-0.00750634
-0.000645824
-0.0112731
0.643314
-0.0118752
-0.0165656
0.268109
-0.00392262
0.572734
-1.3861e-05
-0.0243841
-0.0728435
-0.0369246
-0.129574
-0.00225272
-0.000560691
-0.000149655
-0.0264093
-0.0011989
-3.01074e-05
1.46382e-05
-0.00869254
0.558441
0.00822627
0.00371767
-0.0646159
8.58295e-06
0.00152784
-1.33569e-05
0.0117134
-0.0239337
-0.000524023
-0.0118831
-0.0169624
0.00159479
-1.47144e-05
-0.113242
-0.000576592
0.0506735
0.415016
0.290663
-0.00769141
0.00889868
0.0384234
-6.83402e-05
-0.00554574
1.04523e-05
0.501099
-0.0192505
0.0248064
-0.0226756
0.00176969
-0.00462086
-0.000117986
1.76134e-05
-0.00694607
0.0549051
0.318429
0.00191543
-0.0556316
-0.0327897
-0.0109412
-0.0845357
-0.00186217
0.00058012
-0.00785281
-0.000106854
-0.0655484
0.362964
0.228876
-0.0303223
0.353445
0.00016423
9.19458e-06
-0.0641975
-0.0556642
0.753606
-0.0700963
-0.027849
-0.0415915
0.00183315
-0.00820374
0.000748202
-0.0145439
-0.0179484
1.24106e-05
-0.00125838
0.464381
-0.000161301
0.6907
1.0881e-05
-0.128227
0.0460458
-0.00781479
0.00163544
0.000318291
0.546011
0.053495
-0.0737935
0.241713
-0.010574
-0.0177563
-0.00574617
0.0875803
-0.0348155
0.00668663
-0.0113772
9.44158e-06
-0.00184302
0.00858532
-0.0235199
-0.0296761
-0.0554644
-0.0237576
0.153125
-0.00305567
-0.0651834
-0.018389
9.34916e-05
-0.016155
0.00245764
0.156087
-0.0364453
-3.18051e-06
-0.0248565
-0.0016248
0.00216269
-0.172125
0.391101
0.00143144
-0.0159874
-0.0742734
0.100633
0.626899
0.00277264
-0.00850809
0.173386
0.205071
-0.02297
0.00741854
-0.0603651
2.06764e-06
-0.0488673
0.000159024
-0.0729459
-2.74489e-05
6.5261e-05
-0.0110515
-0.0880532
0.365386
0.00224069
0.0160387
1.86976e-06
-0.00897003
0.000162529
-0.00464293
6.46969e-05
0.0604853
-0.000655842
0.210333
-0.000145744
-0.0170211
-0.0438818
-0.00600589
0.620655
-0.0216935
-0.0870297
-0.00803274
0.0658181
-0.0611528
0.0421822
-0.0446894
-7.25514e-07
-0.00898605
-0.00560847
0.000419801
0.000155858
0.0772145
-0.00701514
0.110367
-0.00822451
0.00136762
0.0459429
0.000286171
-1.57207e-05
-0.047946
-0.00496143
6.94929e-05
0.251449
0.844559
-0.000270319
-0.0423718
1.32174e-05
0.647415
-0.134335
-0.0491941
0.0001261
0.00797859
0.0817813
0.0967313
0.0534225
-0.000508744
-0.000176747
-0.021135
8.7435e-06
5.15756e-06
-0.0353177
-0.0484724
-0.054744
0.795442
0.0003425
-0.0576101
0.0114776
-1.3825e-05
-0.00186314
0.000107842
-0.00916492
8.57202e-05
-0.0427602
0.0407788
0.562706
0.063859
-0.000372683
0.000741956
-0.15776
0.108031
-0.00446484
1.96417e-05
0.201045
-0.183386
-0.0685746
-0.0186507
-1.1828e-05
-0.000367407
-0.189831
-0.0351596
0.183194
0.535153
-0.0852453
-0.001809
-1.14014e-05
-0.0585631
-0.0871445
-0.000257705
0.00105549
-0.0222103
-0.00669498
0.547208
-0.00187429
-0.0174714
-0.0221567
-0.0107353
0.75922
0.771744
-1.89845e-05
-2.31263e-07
-0.0212882
0.023399
-0.0413678
0.00792679
-0.0103857
-0.00080334
0.617566
0.205069
0.00345115
0.943482
1.03387e-05
0.14001
-0.0847125
-0.0574954
0.00018247
-0.0427261
0.146095
0.0223216
0.087037
-0.000627101
-0.000667876
-0.0165289
-0.00493168
-0.0185179
-0.00159595
0.128927
-0.00986907
-0.00765708
-0.0640396
0.486317
-0.0215686
0.0451069
-0.000555492
-0.000714798
-0.0271683
0.00156441
-0.00367114
-1.12422e-05
-0.000425128
0.146653
0.547165
-0.000159166
0.0316791
1.37864e-05
-0.0047877
1.67888e-05
0.00815508
-0.120472
-3.31267e-05
-3.52155e-05
-0.0673633
9.42394e-06
0.0540696
-0.0359164
1.95976e-06
0.188573
1.645e-05
-0.000551578
-0.000102574
-0.00732242
-0.000525826
-0.00858308
-0.101377
-0.00045979
0.0064206
-1.61576e-05
0.358639
-0.0187191
-0.0247731
-0.0387467
-0.0288608
-0.00172172
0.00442774
0.26016
-0.0359777
0.124745
-0.0475106
-0.00494832
-1.52626e-07
-0.00809065
0.429164
0.21069
-0.0504955
-0.0576748
0.343357
-0.011577
-0.0774561
1.64737e-05
-0.0373217
-0.00116673
0.909526
-0.0667076
-9.98808e-05
-0.0640058
-0.0367127
0.310349
-0.00362486
-0.0381512
-0.00592416
-0.0103116
-0.00181712
0.310586
-0.156447
-0.0254163
-0.0200301
-0.0168312
0.00844825
0.338951
-0.0241686
0.245064
0.00413136
-0.129543
0.707403
-0.0117378
-0.000302509
0.29278
0.480292
-0.0145597
-0.0124797
-0.00997631
-0.0383957
0.179085
-0.0577107
-1.4443e-05
-0.0100989
7.006e-05
-0.00624884
-1.59833e-05
-0.0074512
-0.00135143
-0.00458975
-0.143239
-0.000828188
-0.000691586
-0.00166186
0.259923
-0.00290045
-0.00457188
-0.00437469
0.202728
0.00773947
-0.000502804
0.416402
0.759525
-0.0247734
0.606698
-0.0218641
0.41456
0.00803098
-0.0264319
0.00380336
-0.000614872
3.33092e-05
0.00373688
-0.01554
-0.0245404
0.237293
-0.0283072
-0.0249632
-0.00125583
-0.13742
-0.0331178
0.009439
-2.45374e-06
0.00375198
-0.00800605
0.50648
-0.0115549
-0.0169599
0.183029
-0.000456434
0.050152
-0.0223065
0.000885387
-0.0634911
0.00307183
0.424306
-0.00278973
-0.000708145
-0.000111327
-0.0717512
-0.00183176
0.919524
0.951199
0.0169218
-3.20122e-05
0.0116432
-1.20619e-05
0.0556296
-0.000691829
0.0294556
0.811054
-0.0398975
3.56325e-05
-0.0103269
2.27071e-05
-0.155267
-0.0407434
0.641356
0.000358991
0.0162871
0.00213777
0.000441068
-0.00294893
-0.00037089
-0.00765299
-0.0495016
-0.0284005
0.0053666
0.18315
-0.0165002
0.00850172
-0.0250112
-0.00254062
-0.0340909
2.26406e-05
8.12401e-05
-0.0028033
0.0360317
-0.0470399
-0.0205608
-0.00462394
0.00365475
-0.0477201
0.113939
-0.015427
-4.82411e-07
-0.0586819
0.582249
-0.102727
-0.0148353
0.0358106
2.98788e-05
-0.000823725
-0.034632
-2.26608e-05
-0.000534912
-1.34282e-05
0.944693
0.0116925
0.00477123
6.71896e-07
4.5048e-06
1.53456e-05
6.50432e-07
-0.026797
0.481377
-0.040961
-0.00057468
-0.000172683
-0.00767703
0.649255
-0.0699083
0.55225
-0.00815578
0.178505
-7.18346e-05
0.643573
-0.00272294
-0.0115119
-0.0151235
0.00673577
0.00841516
0.232504
-0.0469172
0.632873
0.290326
-0.0104643
-0.0362718
-0.0176177
-0.0350095
1.93187e-05
-0.00111123
0.00354092
0.0864537
-0.00801652
-0.026973
-0.00412608
0.780192
-0.101663
-1.77563e-05
-1.99592e-05
0.650966
-0.00593103
0.000900226
-0.0156003
-0.00268247
-0.0186704
-0.0117966
-0.101299
0.0217648
-0.00176082
-0.0121141
-0.0173879
0.00014353
-0.00690277
-0.00225174
-0.00940712
-1.81376e-05
0.000101188
-0.0315775
-0.0246366
0.624972
-0.0514728
-0.000187566
-0.00181798
-0.000339158
0.418852
-0.0952817
-1.88612e-05
-0.0388079
-0.00535214
-0.00435192
-0.0338295
-0.0371277
0.00804082
0.0624996
-0.0866367
0.000129316
0.00720971
-0.015264
1.95815e-06
-5.23356e-05
0.140936
0.100335
-0.0691728
-0.0522816
-0.0684767
0.000689065
0.648107
0.000147588
-0.0246886
0.513843
-0.0197452
-0.0429265
6.87687e-06
0.00024461
-0.0430469
-0.0107763
0.00170774
-0.0354609
0.286827
0.172278
0.000867543
0.00036689
0.203125
-0.014477
9.68855e-07
-0.00170007
-0.0317758
-0.0264985
-0.0143266
-0.00381343
0.0450455
2.46179e-05
0.0894439
0.312167
7.10078e-05
0.0053997
-0.000473834
-0.122559
-0.0154176
-0.000723629
0.0318511
0.000296418
0.267316
0.0017027
0.0242005
-0.0152717
0.836646
0.4971
-0.05659
-0.00794897
6.57443e-06
-0.100498
-0.0143275
0.164228
0.311109
-0.0356104
-0.0455497
-0.0171085
-0.00654033
0.173758
-0.000176115
0.599807
0.0254733
7.55688e-05
7.16439e-05
0.000143331
-0.0129602
-0.0178923
0.000800398
-0.00856277
0.0886744
-0.052171
0.000458639
0.000109951
-0.0240719
-2.54347e-05
-0.00280581
-0.0115901
-0.000739465
-0.0450971
0.0040395
-0.00130258
-0.00366291
-0.0160926
0.497878
0.512553
0.0376053
1.67852e-05
-0.00049671
0.305631
-0.000403775
-0.160213
-0.000167174
-0.0198826
-0.0893585
-0.000164519
-0.000193221
-0.034122
0.00137671
-4.98865e-05
-0.00123816
0.203577
-0.0337114
-1.36153e-05
0.10289
0.428689
0.432866
0.000680913
-0.148137
-0.00885969
0.578318
-0.0694821
-0.0714194
-0.0229666
-0.0121258
0.0272752
-0.0242365
0.436273
0.059721
-0.000119392
-0.0506588
-0.0630077
-0.00367203
1.1433e-06
-0.00174593
0.262448
-0.000144687
-0.0187651
-0.00384862
-0.00107316
0.00859404
0.0292486
-0.000124817
-9.17553e-05
-0.00941532
-0.122225
-0.0346603
-0.0791024
0.307156
-0.0033019
-0.000220838
-0.0373616
-0.0229608
0.00870232
0.0130407
0.000125952
0.0757674
0.160289
0.018703
0.0232159
-0.000546962
-0.012449
-0.0906725
0.001331
4.82043e-06
-0.00915785
-0.00371643
-0.00064667
-0.0109674
-0.000757023
0.0996455
-0.0084772
-0.168246
-0.0232163
-0.00997666
0.0114545
0.639046
-0.0392183
-7.73057e-05
0.639926
0.187003
0.00751757
-0.00540443
0.00727185
-0.0694286
0.188044
0.000380398
-0.0037947
0.81349
0.375479
0.304265
-0.0423132
-0.0012581
-0.00110164
-1.27083e-05
-0.00117755
0.224537
0.0876717
-0.021041
-0.00861271
-0.000282546
-0.0919044
0.786531
0.530717
0.0834026
-0.00260651
-0.0555698
-0.00642063
-0.000629631
-0.0258197
0.0072606
-0.0249866
-0.00325261
0.00090581
-0.100941
-0.121699
0.0300334
-0.023553
-0.00771307
-0.0234772
-0.000157656
-0.00653333
-0.000601681
0.360404
7.76389e-05
4.44261e-06
-0.0417395
-0.0180476
-0.0260286
0.0380548
9.79852e-05
-0.0932095
0.0558189
0.232207
0.886314
-0.0042976
-0.155612
0.028279
-0.00189596
-0.0132746
-0.00051568
0.00983504
-0.000130545
0.214398
-0.14926
0.0101665
0.0931417
0.130952
0.00142526
0.00192503
5.80773e-06
0.539256
9.54757e-06
-0.0403634
0.000368593
0.00158123
0.197383
0.107836
-0.0832748
-0.0350161
-0.00387017
0.954603
-0.081918
6.62622e-06
-0.0143544
-2.7144e-06
-0.0215527
0.110259
0.239315
0.000917426
-0.0318304
-0.00866303
0.173512
-0.0804764
-0.0294091
0.783821
-0.00912444
8.64273e-05
-0.200187
0.828343
0.000924544
0.101005
-0.0420096
0.132686
0.00185984
0.0208869
-0.0644025
0.00395961
0.0547324
-0.0422401
0.10984
-0.023856
-0.0179706
-0.000688152
-0.000699605
0.704468
1.42239e-05
-0.00603884
-1.72637e-05
-0.0074191
0.000384858
-0.00679626
0.208123
9.30291e-06
-0.000894874
-0.0790473
-0.180501
-0.0256213
0.00112855
0.562859
-0.0624157
0.202694
-0.0108024
0.180644
0.00550989
-0.000640229
-0.137971
0.000799145
0.721334
-0.0262684
-7.11768e-05
0.00221478
0.165771
-0.0102868
-0.000596372
-8.11503e-05
-0.110147
-0.0023408
-0.00929725
-0.0781573
3.80386e-06
-0.0610531
0.000449611
0.454927
-0.00972809
0.172213
0.00390503
-0.0034104
0.29033
-0.0777524
-0.202577
-0.00408025
-0.120928
0.300633
0.302926
-0.0128979
-1.19723e-05
-0.0142365
0.00443371
3.46114e-05
0.00814589
0.513166
0.0119977
0.00157512
0.00186103
-0.0621231
-0.000125938
0.0691992
0.0422545
0.0641978
0.0125606
0.0261296
-0.000322345
0.211068
-0.143967
-0.187915
-0.000881158
0.0107151
0.159841
0.000826708
-0.0632416
0.262161
-0.0487082
-0.0649578
-0.062624
-0.140338
-0.141191
0.0524592
0.273448
-0.142702
1.81356e-05
0.000794945
-0.0915245
-0.00160114
-0.0044006
1.28659e-05
-0.00524468
0.00384092
-4.35565e-05
0.0588811
-0.000433164
0.13732
-0.0326814
-0.00858614
-0.00632064
-0.00775643
-0.0697042
-0.00530294
-0.000951024
0.0205088
0.0795896
0.00379865
-0.0299682
-0.00268968
0.0269316
-0.00864371
-0.0176588
-0.0635926
-0.0144966
-9.90102e-06
-0.0139305
0.635921
5.19007e-05
-0.0320917
-0.0747093
0.764419
0.0481261
-0.0413309
2.67663e-06
0.00167274
-0.0950468
-9.86358e-06
-0.00245464
-1.75544e-06
-0.0802468
0.00433584
-0.106602
-0.0209006
-9.1211e-05
0.339495
0.333886
-0.0332208
0.000485448
-0.000128189
1.60454e-05
-3.67598e-05
0.655362
-0.00117358
0.00223924
0.0211094
0.000977901
-0.000510651
-0.0639417
-0.000170685
0.0400556
-0.000878406
-0.00189381
-0.000635569
-0.0232183
-0.0382288
0.199877
0.0503809
-0.000122522
-0.0122119
0.000572721
-0.110849
-0.000615685
0.130055
-0.0125546
0.940677
-0.0229704
-0.00129594
0.0776193
-0.0175203
0.446377
-0.0387804
-0.0102826
-0.0119493
0.0179233
-0.00338841
2.45442e-05
-0.00775058
0.375183
-0.0390507
-0.00297179
-0.0375339
-0.0245173
0.178864
-0.000435655
0.325484
-0.00854272
-0.0677202
-0.000457489
0.0126818
0.0441124
-0.015497
0.37094
-0.000398521
0.0328877
0.0939443
0.000523428
-8.7275e-05
0.745224
0.0470523
-0.00202322
0.0283238
0.00752621
0.000163628
-0.11438
-0.0208659
-0.164214
-0.0104146
0.440353
0.00362217
0.0357389
-0.000336331
0.528439
-0.0626011
-0.00488
0.00600897
0.030994
-0.0759781
-0.16858
-0.00792574
7.72075e-05
0.861115
-0.0206929
0.000846778
-0.0763965
-0.035772
0.391059
0.00293538
-0.0150866
-3.48114e-05
0.019362
0.00769559
-0.0348058
0.000834099
-0.00322862
-0.0255431
5.0666e-05
-0.0475358
-0.00143669
-0.0137899
-0.0589701
0.375128
-0.00955768
-0.0267026
-0.0671969
-0.0318379
2.21622e-05
0.000180579
-0.00362844
5.2533e-05
-0.0103354
-0.108093
-0.00190014
2.46952e-05
0.755124
0.00485372
0.000378203
-1.14309e-05
-0.00198293
0.365542
-0.0466831
0.864654
0.226497
0.0210302
0.357748
1.5964e-05
-0.0144998
-0.000753446
-0.00229943
0.238346
-0.0099062
0.848377
0.312164
-0.0536833
0.342766
0.0076103
-0.013499
0.00221434
-0.0745999
-0.00371152
-0.0475069
-0.0495914
-0.0028336
0.331118
-0.00937065
0.000169878
-0.00406222
-0.000594549
-0.0303211
-0.00012598
-0.00115145
-1.39161e-05
0.188952
-0.170221
0.342252
0.0256506
-0.00258511
-0.0360708
-0.0195495
0.0782071
-0.00286615
-0.00097048
-0.0590121
-0.0431912
0.00282844
-0.0385603
-0.00423636
-0.00599717
0.000454016
5.97411e-05
0.153232
-1.31121e-05
0.0594189
-0.000727943
5.0051e-06
0.00198952
-0.000593304
-0.00111584
-0.0155447
0.16334
0.176915
-0.0186514
-0.0120155
0.00286175
-0.00478834
-0.0096235
-8.31119e-05
-0.000428522
0.000727928
0.129347
-0.008792
-0.0557612
-0.059898
-0.00262689
-0.0296418
-0.0226782
-0.00159128
0.00514196
-0.0117143
0.293227
-0.0744247
0.00443376
0.000111532
-0.0367811
0.844475
-0.00956258
-0.0071085
0.00750547
0.0887817
0.00393083
-0.0134641
0.332347
-0.000316765
0.0432432
-0.0254314
-0.0698065
0.00622565
-0.00359214
-0.00523706
0.0414497
-0.00341927
-0.000551922
-0.00688373
0.00243425
-0.000183627
0.0195757
-0.00893811
-0.00191084
1.49642e-05
0.191363
-1.72568e-05
-0.0347849
0.085349
-0.026855
0.000191798
0.128325
-0.055694
0.209758
-4.34347e-06
-0.00384917
0.0117529
0.000207607
0.00482529
-0.00431064
0.0102451
-0.0196846
-0.0298893
-0.00973529
-0.00253052
0.00966372
0.0206973
-0.0870189
-0.000149615
0.134594
-0.0372567
-0.00319657
-0.00659458
0.000437048
-0.0801304
9.61982e-05
0.644512
0.210128
-0.000431831
-0.0206892
3.37697e-05
-0.00205001
-0.00623485
-0.0243772
0.193521
0.0736936
-0.0129123
0.00993068
-0.0660621
0.0314269
-0.0256875
-0.0306885
-0.0467665
0.0095263
0.222292
-0.00908304
0.512096
-0.000842063
-0.0102843
-0.0535217
-5.74668e-05
-0.000680093
-2.39733e-05
0.509024
-0.0097832
0.000311218
-0.0147864
-0.00690258
-0.00027608
-0.01243
0.277649
0.000966939
0.0105103
-0.0334718
-0.000441899
-0.00433658
-0.000728323
0.864758
0.000238889
3.90237e-05
-0.00192633
-0.0143881
-0.0337956
0.000588369
-0.0023831
0.0806697
-9.1855e-05
0.00196176
-0.0658115
-0.0654706
-0.0699907
1.66075e-06
0.000385062
-0.0362843
0.030416
0.391907
0.103307
-0.0306766
1.82577e-06
-0.0661343
-0.00242684
-0.0119644
-0.0115812
0.214724
0.610235
-7.62891e-05
0.175774
0.289006
-0.00908139
-0.0473865
-0.0253344
-0.0213868
0.000137615
-0.0366313
-0.00834326
-5.5892e-05
-0.000461027
-0.00145631
-0.00173578
-0.000587058
0.372581
0.343791
0.130774
-1.66218e-06
-0.0213837
-0.0481751
0.117802
0.655045
-0.000418499
-0.0186243
-0.0169608
0.241257
-0.0177733
-0.00933446
-0.0411433
0.181823
0.00034129
-0.000422449
-0.0260511
-0.056666
0.11009
0.00385543
-0.0471825
-0.0246952
-0.0682031
0.0181473
-0.0481396
0.0067614
-0.0994585
0.0526581
-0.000276712
-0.000535284
0.058189
0.000230411
-0.0118832
0.0314689
1.82631e-05
0.132991
-0.0102936
-0.00411901
0.900318
-0.0333695
-0.012654
-0.0358426
-0.0028547
0.602752
0.00115794
0.850412
-8.87184e-05
-0.0466419
0.856024
0.00664658
0.592329
-0.00532181
4.03962e-05
-0.0349481
0.574361
-0.00144096
-0.00616731
-0.00755947
-0.000891162
-0.0203231
0.608712
0.10235
2.8976e-05
0.0181555
-0.00344585
0.0287182
-0.000789209
0.0228675
-0.00238132
-0.000389248
0.573562
0.607053
0.584277
-0.0461068
-0.0894992
0.000181402
-0.0492667
0.353934
0.0115702
0.000282303
-0.0905669
0.000609894
-7.18323e-05
0.611732
0.000153606
0.00404779
-0.00176487
-0.00887836
0.593527
0.594494
0.632301
0.0113388
0.000525083
0.240722
0.00738818
0.0153702
-0.00841063
9.06775e-05
-0.00271907
-1.11541e-05
-0.00421463
-0.000649709
-0.00553287
-1.41642e-05
0.166506
0.00209568
-0.086699
-0.00876635
-0.0615679
-0.014897
-0.000680457
0.400278
-0.00989462
5.17006e-05
-4.2669e-06
0.827461
4.12954e-05
0.0109729
0.0481269
-0.0163437
0.334484
-0.00485018
-0.0379008
-0.0331561
-0.000455564
0.000153288
0.321942
0.622273
-0.0013825
-0.0233755
-0.000184591
0.593412
0.789008
-0.00128876
-0.00625421
0.0187893
0.00289013
-0.0223434
0.00011962
0.00980597
-0.034348
0.0482389
0.366573
-0.00135688
0.0280389
0.0297412
-0.033969
-0.038848
0.0271386
0.761194
0.176621
-0.0449923
0.592768
-0.000494161
0.653309
-0.00770751
0.502732
0.06423
-0.00467758
0.0245126
0.00237299
0.0171002
-0.0618694
-0.00057765
-0.0211078
0.464592
-0.0247501
0.0129061
-0.00133229
-0.0897136
0.165525
-0.00853375
-0.157557
0.000730984
-0.00338906
-0.0216193
-0.00194155
0.00191412
-0.00805696
-0.00042165
0.00238665
0.48959
0.00201457
-0.0142645
-0.0547106
-0.0265381
-0.0535652
-0.0976672
0.00403915
1.72923e-06
3.51406e-05
0.281386
-0.0682039
7.98857e-05
-0.107727
0.197895
-0.0556585
-0.0135959
0.00014049
-0.00170897
-0.0400102
0.121201
-0.00922182
-0.000401192
-0.0398857
-0.0185647
0.866826
0.117462
0.0622325
-0.0528009
2.59563e-07
-0.00608486
0.0646302
-0.000302799
2.77095e-05
0.175459
0.0946304
0.000635582
-0.000749392
0.00364588
-0.044946
0.00958121
0.00680843
-0.0135531
7.20221e-05
0.177448
0.000605242
-0.00054594
-0.000168922
-0.000167476
-0.000103499
0.0828384
0.000910653
-0.00250606
-0.00858455
-0.00474149
0.0268169
-0.00487008
-0.0363346
-0.00933166
0.526772
0.415298
-0.000400493
-0.00130509
0.0912848
-0.00068957
-0.0221903
0.0156055
-0.0449479
-0.000832318
0.019747
0.0387642
0.00125031
0.0432086
-5.83783e-05
0.00708572
-0.0464482
0.0128066
-0.013251
0.0481009
9.66201e-05
-0.00117527
0.00031725
-1.36406e-05
-0.00150201
-0.00861974
-0.0113214
-0.0260811
0.00987362
0.0314294
0.00873401
-0.0702179
0.00803429
0.00253687
0.0121091
7.70156e-05
0.614365
-0.00737155
-0.00287961
-0.068435
0.877829
9.47252e-06
-0.0127343
2.92306e-05
-0.0834473
-0.00567314
-0.0199415
0.174918
-0.0034952
2.94283e-05
0.0430871
0.0718582
-0.000446558
0.0494398
8.14719e-06
0.174103
0.00419845
-0.0253142
-8.78135e-05
0.224575
0.0268478
-0.0176228
6.5619e-05
0.178929
0.348434
-0.000944431
9.83977e-06
-0.0321637
-0.00782175
-0.00596735
0.0126542
0.657573
0.322924
0.00048819
0.310647
0.224685
-0.00244876
-0.0455215
-0.0407785
-0.0162248
-0.0613985
-0.0127205
0.000796292
0.680057
0.135201
0.0112452
0.000144112
0.000630483
1.33967e-05
-0.000435685
-0.00239199
0.728141
3.38857e-05
0.078259
0.0252775
-0.000160129
0.648967
0.786022
0.204904
0.252266
-0.110601
0.00228816
-0.000204541
-0.00953802
6.67341e-06
-0.000908296
-0.174275
3.57858e-05
-0.00195923
0.679772
-0.00998384
-2.43707e-06
0.734831
0.000463254
-0.0293022
-0.0622507
-0.00109179
-0.0948243
-0.000167926
0.0513725
0.00304458
-0.0168765
0.00179551
-0.000516843
-0.00028724
-0.000155114
-0.172732
-0.0527801
0.163451
0.00246289
-0.013717
0.21911
9.40635e-05
0.83224
-0.000435358
-0.0677681
0.00206678
0.00152062
0.0483173
0.050255
3.09733e-05
-0.00359645
0.000130328
-0.000535431
0.000808368
0.0810585
0.0461365
0.35804
-0.0557685
-5.90259e-05
0.00018832
0.0980204
0.317505
-0.00376045
-0.0053474
0.838555
-0.00234078
-0.0173582
0.000717606
0.0220496
-0.0580602
-0.00726914
0.167804
0.00124656
-0.000160706
0.00153613
-0.0884624
0.802928
0.61724
-0.0202599
-0.0425786
-0.00561555
0.00145077
4.7984e-05
0.0726053
0.17884
3.11457e-05
-0.00619032
-2.17824e-06
0.000164229
0.56232
3.46975e-07
-0.083117
-0.064593
-0.119557
0.0655487
2.47298e-05
0.0087747
-0.00544717
0.504093
-0.0402901
0.00448192
-0.0260413
0.000615347
0.334667
0.230566
0.00884501
0.0330072
0.68527
-0.0574529
-0.0555007
-0.0015874
-0.00592966
-0.000263379
0.00943523
-4.19726e-06
0.1757
0.00261831
0.152032
-0.0314126
1.48071e-06
0.0445256
-0.000102809
2.07421e-05
-0.000593193
0.811515
0.775114
0.216537
7.69699e-05
0.0833891
0.650916
-0.000782554
0.000284564
-0.00712487
0.0217689
0.57423
-0.0232679
0.122011
-0.00226337
-0.0530829
-0.0598291
0.914202
-0.000465678
0.60736
0.084764
0.205912
0.000161099
0.00022816
0.0047093
-0.00760778
0.0762373
-1.46373e-05
8.53163e-05
0.599661
-0.137098
0.00031676
0.634578
-0.00193718
0.000178445
0.440688
-0.00704899
-0.00130422
-0.100974
0.0567629
0.000322117
-7.27307e-05
0.00297354
-0.00338538
0.588105
0.804623
0.228301
0.894579
-0.0200624
-0.0380162
0.696672
-3.32281e-05
-0.00275973
-0.00495476
-0.00294055
-0.00050963
-5.8077e-05
0.625278
-0.00706062
-0.000500695
0.780933
0.0719608
0.0696237
0.039
-0.00225673
-0.0177219
0.104922
0.060448
0.606943
-0.0232149
-0.000615761
0.559641
0.437165
0.0107213
0.382319
-0.0362604
-0.00652851
-0.00832288
-0.000495331
-8.31457e-05
0.570908
-0.0548034
-0.0528195
0.000592506
0.154004
-0.0259245
-0.0238121
-0.000834774
-0.00378152
0.652623
-0.000629965
-0.0148982
-0.00249685
0.623399
-0.017036
0.0176491
-0.00629025
0.00128566
0.154121
-0.0182642
0.686085
-0.047847
0.887962
0.281366
-0.048187
0.027954
-0.00146816
-0.0156882
-0.121597
0.60096
0.648094
0.751644
0.236375
0.580764
-0.000256053
0.69883
-2.25507e-06
8.76744e-05
-0.0398296
0.758468
0.0460857
0.21562
6.73185e-05
-0.00177368
-0.139129
-0.0347432
0.591104
-0.000530138
-0.00642118
0.207524
0.000961641
-0.00356912
0.856138
0.0422885
-0.0486687
-0.21462
-0.000398702
-0.0251049
-0.0753271
0.899387
-0.0467682
-0.03296
0.00343725
-0.000163206
-0.0192439
0.194361
0.00295304
0.000145189
-0.141798
0.264604
-0.00120633
0.593694
-0.075388
0.607165
-0.0464242
-0.0196201
0.694334
-0.00446649
-0.0575472
-0.000289428
-0.00106906
-0.0501028
-0.0186847
-0.029475
-0.00822257
-0.0199145
-0.1466
-0.0570237
0.58927
0.000278272
0.000709956
-0.0177603
0.102785
-0.147695
-0.048226
2.84423e-05
-0.148974
0.0399368
-5.22498e-05
-0.0932613
-0.151684
0.619264
-0.127851
0.576035
-0.0114873
0.0574293
0.271173
-0.0282913
0.148911
-0.00150867
0.0351829
-0.000236288
0.0785706
0.185439
0.175159
-0.023941
0.00518616
-0.000519993
0.180762
-4.70366e-05
-7.48862e-05
-0.000818014
-0.0319031
0.00975924
0.012466
0.479606
0.118936
0.819721
0.43189
-0.00123762
-0.0260058
-9.86809e-05
-0.0408016
-0.00109983
0.00493819
0.000601573
-0.0321983
0.353101
0.612266
-0.00020482
2.9862e-05
-0.0406656
2.08866e-05
-0.00755215
-0.000109163
0.0969875
-0.0287941
0.191545
-0.100731
6.5101e-05
-0.0113057
-0.0323902
-0.0244372
-0.0134823
-0.0414339
0.00949979
-0.000105666
-2.94215e-06
0.00181965
-7.2489e-05
0.0475154
-0.0397123
0.0315215
0.749537
0.036911
-0.162031
-0.0674771
-0.000311419
0.0446277
-6.5312e-05
0.540309
0.09009
0.668855
0.000162065
-0.0267927
-0.00555227
0.038842
-0.00144376
0.451281
-0.00624166
0.0150747
-0.00149894
-0.0177517
-0.00653711
-0.00495712
0.0980049
0.0013943
-0.00889813
-0.0166705
0.0737768
0.0373463
8.396e-06
-0.000679852
-0.00504562
-0.000456823
0.0780547
-0.000506213
-0.0384899
0.106694
9.1253e-05
0.230859
0.000101111
-4.40325e-07
-0.0878717
-0.0229301
0.000177066
-0.0183714
0.000187434
0.704454
0.0104266
-0.0192956
0.673161
0.118676
-0.0250874
0.470801
-0.00221273
-0.00149734
-0.00165409
0.0630307
0.949788
-0.00117321
-0.000443835
2.56179e-05
0.00659215
-0.000976414
0.0217207
0.00519125
-0.0168182
-0.0474612
0.0152473
0.00832931
-0.0154616
-0.000394671
-0.0706329
0.384527
-0.00144313
-0.0111168
-0.000152501
0.489734
0.0411758
0.38836
0.000409785
-0.000640428
-0.0198478
0.757602
0.134951
-0.0228859
-7.47455e-05
0.0257739
0.023749
-0.0448124
0.174486
-0.037342
0.0140705
-0.169264
0.456301
-0.0154999
0.244254
-0.00255147
0.886468
-0.0326586
-0.00889142
0.669649
-0.0340966
0.155689
-0.18265
0.180216
0.00543088
0.0411598
0.332459
0.0422711
-0.0375659
-0.00781415
-0.00635123
-0.0204115
-0.0432601
-0.00129815
-0.0477407
-0.0223825
0.00166036
-0.0519486
-0.0659464
-4.95501e-06
-0.0126735
-0.00738224
-0.0392454
0.652148
0.346735
-0.0417269
-0.0575364
0.000443592
-0.0927254
-0.0040766
0.860733
-0.0281567
-0.024029
0.349061
0.0409589
-0.0338253
0.112497
-0.0292948
-0.000478366
-0.00945065
0.0083158
0.000580782
0.367263
-0.00216313
0.133468
0.183098
-0.00455964
0.245751
-0.118663
-0.000267485
0.00554165
0.0218011
0.253557
-0.00201249
0.0506336
-0.05914
0.0415117
-0.0186716
0.37
-0.0189032
-0.116081
-0.00308318
0.000188582
0.579173
-0.00197392
-0.0371459
-5.33209e-05
0.209975
-2.51882e-05
-0.0462759
-0.00498573
-0.198233
0.000585502
-0.00878171
0.0885796
-0.00318447
0.00083093
0.000574364
-0.00335392
-0.00593578