/*--------------------------------*- C++ -*----------------------------------*\
  =========                 |
  \\      /  F ield         | OpenFOAM: The Open Source CFD Toolbox
   \\    /   O peration     | Website:  https://openfoam.org
    \\  /    A nd           | Version:  7
     \\/     M anipulation  |
\*---------------------------------------------------------------------------*/
FoamFile
{
    version     2.0;
    format      ascii;
    class       volVectorField;
    location    "6";
    object      U;
}
// * * * * * * * * * * * * * * * * * * * * * * * * * * * * * * * * * * * * * //

dimensions      [0 1 -1 0 0 0 0];

internalField   nonuniform List<vector> 
115546
(
(1.01584 -0.0263349 -5.11967e-22)
(0.999992 -3.74866e-08 -2.83835e-24)
(0.992657 -0.00601952 1.01713e-21)
(0.998176 -0.00196757 -1.85728e-22)
(1.0009 -0.00221638 3.18709e-23)
(0.999515 -0.000731834 6.20666e-23)
(1.00636 0.0632685 -2.65572e-20)
(1.02315 -0.0511748 3.94915e-22)
(0.999849 -0.000228822 -3.49374e-24)
(0.999992 1.82448e-07 5.96177e-25)
(0.999885 -9.9523e-06 2.04255e-23)
(1.00008 -6.02898e-05 9.60788e-24)
(0.999265 -0.00239813 -6.28433e-23)
(0.958945 -0.0026582 -3.81697e-21)
(0.999847 -0.000235044 3.04371e-23)
(0.963733 -0.0121295 -8.47844e-21)
(0.999935 -0.000171483 1.51261e-23)
(0.999817 -0.000120333 -3.39866e-23)
(0.990128 0.0605264 3.1136e-20)
(1.00093 -0.00224295 1.40658e-22)
(1.02617 -0.0521888 2.98953e-21)
(0.997115 -8.87864e-05 -8.99156e-23)
(0.999779 -0.000163131 -3.35997e-23)
(0.997168 -0.00285273 -1.22189e-22)
(0.947299 0.0169371 2.74113e-20)
(1.07074 0.01354 1.37751e-20)
(1.19491 0.0131997 -2.72063e-21)
(1.00966 -0.00237553 3.5389e-21)
(0.999991 -2.55236e-05 2.18423e-24)
(1.00606 0.108623 -3.08168e-20)
(0.999933 -2.32163e-05 1.35315e-23)
(1.02829 0.00511487 2.95759e-21)
(1.00379 -0.00594811 -1.08259e-22)
(0.992525 -0.00317711 -9.60449e-22)
(0.94061 0.0465223 1.24621e-20)
(0.999004 -0.000609037 3.83584e-22)
(1.00907 0.0705325 4.581e-21)
(0.999935 -0.000176037 -6.53017e-24)
(1.14742 -0.120081 4.30447e-22)
(1.01453 0.0361055 4.39431e-20)
(1.02863 0.00540998 -5.77509e-21)
(0.999814 -0.00012513 -6.54026e-24)
(0.990715 -0.0109378 -1.87009e-21)
(0.999008 -0.000589763 -2.73156e-22)
(0.980824 -0.0289097 -2.72093e-22)
(0.959179 -0.00238987 3.97766e-21)
(1.00309 -0.0072682 6.72618e-22)
(1.00293 -0.000378344 3.25088e-22)
(1.00003 -0.0035573 -7.02086e-24)
(1.00007 -6.44045e-06 -4.63301e-23)
(1 -4.5331e-07 -2.62473e-25)
(0.998219 -8.16665e-05 2.97489e-22)
(1.02114 0.00606661 9.30927e-21)
(0.999994 -3.28902e-07 -4.58271e-25)
(0.998975 -0.00421613 2.47814e-22)
(1.02092 0.00626179 -2.39663e-21)
(1.01684 0.00022103 6.67023e-21)
(0.978807 -0.0201623 -1.02698e-21)
(1.14401 0.017298 7.15664e-21)
(0.994341 -0.00745266 2.12825e-21)
(0.999963 -9.649e-05 -5.88127e-24)
(0.997119 -0.00301948 1.05978e-22)
(0.999643 -2.04757e-05 -5.97898e-23)
(0.990399 -0.00522086 2.76163e-22)
(0.999967 -2.49969e-05 -1.14544e-23)
(1.00048 -4.4462e-05 -1.57444e-23)
(0.999382 -0.00219592 2.6588e-22)
(1.02148 -0.00269185 5.94647e-21)
(1.21498 0.0410823 7.44829e-21)
(1.01701 0.000116807 2.76874e-21)
(1.03821 0.0702237 1.29726e-20)
(1.14097 0.0609281 -1.13798e-20)
(1.01458 0.0355715 1.94974e-20)
(0.977316 -0.0018803 -7.18062e-22)
(1.00941 -0.0323686 -3.79039e-22)
(0.984927 -0.00489986 -3.85624e-22)
(1.09304 -0.0222539 -2.19874e-21)
(0.999607 -0.00127107 -1.03114e-22)
(0.997493 0.0431566 -1.00496e-20)
(1.06779 -0.00645267 4.77332e-22)
(1.06831 -0.00540598 2.25308e-21)
(0.999974 -8.71196e-07 3.77855e-25)
(0.98025 -0.062877 3.71638e-21)
(1.00928 -0.000581162 -1.58234e-21)
(0.998213 -0.000519503 1.82027e-22)
(1.00007 -5.87864e-05 9.54842e-24)
(0.990231 -0.00817979 -1.26454e-21)
(0.999993 -9.31614e-06 -2.26556e-25)
(0.983446 -0.00516267 -1.96788e-23)
(0.999994 -1.56291e-05 6.13601e-25)
(1.1596 -0.0735921 1.97861e-23)
(0.994078 -0.0031742 5.99589e-22)
(0.99999 -2.5528e-05 -2.93258e-24)
(0.999249 -0.000549616 2.85314e-22)
(0.999766 -0.00015336 -5.66738e-23)
(1.00017 -2.50403e-05 1.73005e-23)
(0.999829 -8.09886e-06 -1.06279e-23)
(0.980718 -0.0625691 2.95346e-22)
(1.09328 -0.0695154 1.35035e-22)
(0.983531 -0.00501307 -6.19908e-22)
(0.999962 -9.86479e-05 6.55811e-24)
(1.01193 -0.00418704 -3.64326e-21)
(1.00128 -0.00656641 -1.51138e-22)
(1.00133 -8.31382e-05 -1.50817e-24)
(1.03754 0.0691159 8.58928e-21)
(1.00167 -0.0460844 2.49746e-21)
(1.00828 0.0369365 -1.27274e-20)
(0.985401 -0.0401901 2.93024e-21)
(0.996654 -0.0150383 2.89365e-22)
(0.999992 -2.94883e-05 -7.83144e-25)
(1.0805 -0.00123229 -5.49303e-21)
(0.99983 -1.0469e-05 4.22076e-24)
(1.09403 -0.0210823 1.37316e-21)
(0.997636 -0.0107373 -1.31621e-21)
(0.879784 0.0401931 -5.47001e-21)
(0.999757 -0.00641462 -4.68584e-22)
(0.999884 -8.26105e-06 -3.77086e-23)
(1.04802 0.070523 -1.62955e-20)
(1.00001 -8.19778e-06 9.60849e-25)
(1.14152 0.0585795 7.8739e-21)
(1.04766 0.0720667 2.34772e-20)
(0.963375 -0.0123758 3.44018e-21)
(0.99288 -0.00633958 8.76022e-22)
(1.11926 0.00200784 4.43443e-21)
(0.999993 -8.76687e-07 -5.59679e-25)
(1.00622 0.107515 3.55803e-20)
(0.997137 -0.00310275 -1.11261e-22)
(0.934426 0.0986172 -1.70033e-20)
(0.99912 -5.84302e-05 5.35355e-24)
(1.01482 -0.000379957 -4.45205e-21)
(1.02329 -0.0324078 -4.74855e-23)
(1.00011 -1.5769e-05 1.45202e-23)
(1.06617 0.0797584 -1.05542e-20)
(1.00007 -5.56716e-05 -2.88889e-23)
(1.00001 -7.10745e-06 4.77483e-25)
(0.989428 0.0706584 5.01406e-20)
(0.953271 0.044823 -7.5989e-21)
(1.00378 -0.00606018 -1.25846e-22)
(0.999037 -0.00425099 -3.5086e-22)
(0.99715 -0.00298221 1.04398e-21)
(1.09258 0.140651 1.19507e-20)
(0.999942 -0.00612513 -1.59915e-22)
(1.00003 -1.82748e-06 -1.77158e-23)
(1.0257 0.00880806 1.20672e-21)
(1.02366 -0.0316685 1.12279e-21)
(1 -5.27444e-07 2.6147e-25)
(1.00612 -0.00849511 -1.6179e-24)
(0.997095 -0.00314359 -3.39967e-22)
(1.02129 -0.00248307 -9.1741e-21)
(1.00043 -0.00108478 -1.13088e-22)
(1.00116 -0.0455903 -1.88038e-21)
(0.98051 -0.028907 2.04648e-21)
(0.994118 -0.00309379 3.84524e-22)
(0.999992 -8.31295e-07 2.49981e-25)
(0.998245 -7.63194e-05 1.74877e-22)
(1.00434 -0.00479723 7.98064e-22)
(0.999991 -3.03724e-05 8.98202e-25)
(1.06399 -0.0206544 5.83865e-21)
(0.985735 -0.000354504 -3.85985e-23)
(0.999613 -0.0624025 -1.47771e-21)
(0.985095 -0.00503522 2.09837e-21)
(1.00605 -0.00834592 8.89032e-22)
(0.99965 -1.89918e-05 -4.38574e-23)
(0.997635 -0.0332422 2.3893e-22)
(0.996446 -0.00913958 -6.71557e-22)
(0.999534 -0.000276023 -1.83874e-22)
(1.01563 -0.00773808 1.87727e-21)
(0.993697 -0.0178847 -1.54184e-22)
(1.06508 -0.0210134 -8.33296e-21)
(0.995968 -0.00913198 8.19098e-22)
(0.994877 -0.00796881 1.51963e-21)
(1.00311 -0.00713972 -3.795e-22)
(1.16738 -0.0827576 6.65446e-22)
(0.960491 -0.00971142 -6.13435e-21)
(0.997469 -0.0285818 1.59225e-22)
(1.01817 -0.00224637 -2.23651e-22)
(0.960563 -0.00914769 1.35841e-21)
(0.998847 -0.00142742 2.14219e-22)
(1.00441 -0.00860708 1.71316e-21)
(1.00001 -0.00349662 -2.19863e-23)
(1.00749 -0.0058404 2.50227e-22)
(1.00979 -0.0321297 -3.97022e-22)
(0.984946 0.0633623 -1.3871e-20)
(1.02314 0.00859238 5.35091e-21)
(1.00777 0.0368083 3.00117e-20)
(0.999798 -0.0004372 -3.99675e-24)
(0.997952 -0.00164956 2.32998e-22)
(1.00006 0.00122916 -5.98452e-21)
(1.01572 -0.0135331 4.10436e-21)
(1.15736 -0.0739542 -2.34077e-22)
(0.998882 -0.0014286 6.55274e-23)
(0.999994 -0.0058208 1.12697e-22)
(0.992652 0.0355221 -2.0051e-20)
(0.987737 -0.0106069 3.7526e-21)
(1.06959 0.0135943 -1.82666e-20)
(0.992934 -0.0535727 -1.83009e-21)
(0.960261 -0.00890653 -4.05184e-22)
(0.994645 -0.000140923 -1.03297e-21)
(0.986139 -0.00862198 -2.73002e-21)
(1.00254 -0.021177 -4.57192e-22)
(1.01772 0.0088151 7.09281e-21)
(1.00102 0.0466777 1.69784e-20)
(1.00861 -0.00578647 7.35462e-22)
(0.999994 -1.25141e-05 -1.62362e-24)
(0.998021 -0.00141173 1.89824e-23)
(0.982601 -0.00951617 -1.45125e-21)
(0.99965 -0.000482511 -9.32843e-23)
(0.999967 -2.51989e-05 8.83637e-24)
(1.01636 -0.00421913 -1.12179e-21)
(1.00719 -0.0374131 3.54783e-21)
(0.960313 -0.00835914 3.40311e-21)
(1.00907 0.0368187 -7.82958e-21)
(0.949153 0.0178514 -2.02928e-20)
(0.999995 -1.57845e-05 7.37631e-26)
(0.999429 -0.0157574 -1.26923e-21)
(0.987621 -0.0107465 -1.85415e-21)
(1.04418 -0.0173719 3.22728e-21)
(1.00333 -0.00697003 8.73959e-22)
(0.959004 -0.00184433 2.30276e-21)
(0.999924 -0.000111606 3.43908e-24)
(0.987966 -0.0212442 -8.56461e-23)
(0.989401 -0.0101983 1.28714e-22)
(0.999943 -0.0045078 2.60294e-23)
(0.985167 -0.000458161 1.21565e-21)
(0.999994 -4.29033e-07 6.5699e-25)
(0.968104 0.0602457 2.03692e-20)
(1.00262 -0.0104958 -2.31873e-22)
(0.985486 -0.00751721 -2.79678e-21)
(0.993279 -0.0529625 -1.02108e-21)
(0.973778 0.0270967 1.1035e-20)
(1.01088 -0.00290706 -3.58301e-22)
(0.982902 -0.0225647 3.7423e-22)
(1.08612 0.134744 -9.56891e-21)
(0.990972 -0.0170027 -1.56976e-21)
(1.02483 -0.0337732 -4.28317e-22)
(1.01755 0.00896169 1.07365e-20)
(1.0002 -1.85852e-05 1.86652e-23)
(1.00039 -0.00529155 1.85769e-23)
(0.991969 -0.0185893 5.57189e-22)
(0.998178 -0.00011994 -3.88421e-22)
(1.13834 -0.0606448 -1.04121e-21)
(1.00956 -0.0231855 4.18523e-23)
(0.999947 -0.0631506 1.90772e-21)
(1.09336 -0.0713797 -4.09206e-22)
(0.999086 -5.1109e-05 -2.69688e-22)
(1.00043 -0.00126093 -1.40112e-23)
(1.02554 0.000708695 7.61533e-21)
(0.984074 -0.00119299 -2.4936e-21)
(0.993922 -0.0179364 -4.94287e-23)
(0.967585 -0.0207697 -1.81348e-21)
(0.998534 0.0213646 -1.07808e-20)
(0.999315 -0.000747569 -2.08831e-23)
(1.01485 0.000946025 -3.26969e-20)
(1.00001 -0.00147874 -2.66661e-24)
(0.932291 0.0925838 -3.05303e-20)
(1.00763 -0.00578566 -1.53108e-21)
(1.10795 -0.0229913 -5.1853e-21)
(1.00972 -0.000532417 1.48841e-21)
(1.00013 -2.69693e-06 9.71258e-23)
(1.02332 -0.0521697 7.53374e-23)
(1.00768 -0.00556326 -3.6936e-21)
(0.959249 -0.00156496 -1.41283e-21)
(1.02349 0.00898982 -7.57512e-21)
(1.13559 -0.128733 -8.71152e-22)
(0.996506 -0.0151801 2.3398e-22)
(0.998216 -0.00198391 6.39961e-22)
(1.11721 0.00184391 7.25175e-21)
(0.999113 -0.000134158 2.93371e-22)
(1.09158 -0.0110691 -2.8358e-21)
(1.0934 -0.0309335 4.08082e-22)
(0.999968 -1.34135e-05 -1.75789e-25)
(1.01585 -0.0132402 -1.02431e-21)
(1.00007 -0.003423 -2.23909e-23)
(1.00979 -0.0234562 -1.55845e-22)
(0.999355 -0.00182698 -2.43446e-22)
(0.989749 -0.00824364 -6.25335e-22)
(0.981371 -0.0272199 2.14913e-21)
(0.99786 -0.0285577 1.03549e-22)
(0.998907 -0.00561247 3.99674e-22)
(0.985859 -0.0402082 -2.43173e-21)
(0.997883 -0.0335227 -5.60993e-22)
(0.999103 -4.42899e-05 -2.03554e-22)
(1.00001 -0.000827285 3.33019e-24)
(0.982766 -0.00934426 7.99918e-22)
(1 -0.000383517 4.61154e-24)
(1.00597 -0.00428419 2.31155e-21)
(0.969407 0.0593551 1.16965e-20)
(1.0157 0.000346396 -1.63042e-20)
(0.981351 -0.06514 -2.25009e-21)
(1.1446 -0.114005 3.12793e-22)
(0.981088 -0.0270645 4.7933e-22)
(0.999994 -1.17388e-05 -1.1324e-24)
(1.14483 0.0065075 4.67106e-21)
(1.00907 0.0362945 -7.54397e-21)
(0.999939 -0.000228356 4.82187e-24)
(1.00939 -0.00557496 -2.08907e-21)
(0.999295 -0.000841214 -1.74045e-22)
(1.02985 0.00439098 4.54589e-21)
(1.00007 -0.00229887 -8.16124e-24)
(1.09559 -0.031143 1.01202e-21)
(0.959856 -0.00680192 -1.81179e-21)
(0.994749 -0.0257939 5.57122e-22)
(1.20994 -0.0532294 2.07987e-22)
(0.9968 -0.0041603 -6.48337e-22)
(0.987416 -0.0263501 -3.52008e-22)
(1.05769 -0.00540003 2.23889e-21)
(1.01194 -0.0285014 2.34894e-23)
(0.985564 -0.00740065 1.91383e-21)
(1.07494 -0.138277 -4.66068e-21)
(1.00448 -0.00851294 -1.04373e-23)
(0.99858 -0.000952839 -2.06146e-22)
(1.05575 0.0960526 1.92391e-20)
(1.07139 0.11404 1.43389e-20)
(0.992189 -0.0186325 -1.57267e-21)
(0.999213 -0.00241454 3.18239e-22)
(1.0013 -0.00633487 5.33187e-23)
(0.991782 0.0364061 -3.16095e-20)
(1.00041 -0.00127624 8.26789e-23)
(0.997237 -0.00286859 5.42726e-22)
(1.14403 -0.0028024 -1.18878e-21)
(1.0438 -0.0277381 7.50689e-22)
(0.999925 -0.000114125 -2.62231e-23)
(1.00847 -0.00588593 -5.72795e-22)
(0.881813 0.0381751 9.75819e-21)
(1.06137 0.000269083 -9.57523e-21)
(0.985541 -0.00294763 -3.04769e-21)
(1.00445 -0.00476691 -1.167e-21)
(1.02743 0.00292481 5.58771e-21)
(0.959543 -0.00652962 3.5268e-21)
(1.14554 0.00850509 -7.29399e-21)
(0.998584 -0.000991145 1.46265e-22)
(0.999994 -1.19856e-05 2.08307e-24)
(0.999808 -0.000464935 6.4534e-23)
(0.999306 -0.000829743 2.71721e-22)
(0.900267 0.0114907 6.38985e-21)
(0.998307 -0.00234147 -4.58337e-22)
(1.06841 -0.0166845 3.68476e-21)
(0.99997 -1.3465e-05 7.69945e-25)
(0.99951 -0.000717178 -8.50476e-24)
(0.99794 -0.00161533 -2.89811e-22)
(0.993486 -0.00659193 -8.21536e-22)
(1.04106 -0.00210739 -1.70052e-20)
(1.19811 0.0121623 1.08525e-21)
(0.990641 -0.00489417 2.696e-21)
(0.995564 -0.0051525 3.28458e-22)
(1.00087 -0.00166335 -4.67374e-23)
(0.998858 -0.00568522 -2.43086e-22)
(0.925703 0.0963031 -4.99558e-22)
(0.983757 -0.0134179 4.86135e-21)
(0.999182 -0.00545446 1.04876e-22)
(1.06468 0.0787791 5.55902e-21)
(1.01318 0.0141428 -9.5325e-21)
(1.00759 -0.00542384 3.34583e-21)
(0.998614 -0.00155279 3.79068e-22)
(1.00225 -0.0212691 -5.70477e-23)
(1.00279 -0.0121029 2.66586e-23)
(1.01554 -0.0258403 7.94754e-22)
(1 -1.21565e-06 8.84001e-27)
(0.999663 -0.000800226 1.91345e-22)
(1.01871 -0.0198506 -1.40845e-21)
(1.05437 0.0323241 1.36837e-20)
(0.986954 -0.0299589 7.04653e-22)
(1.00787 0.0696954 8.55089e-21)
(0.896778 0.0228904 -7.40062e-21)
(1.08121 -0.0265305 -4.31672e-21)
(1 -1.17877e-06 7.16751e-26)
(0.992856 -0.00018563 -1.63558e-21)
(0.991809 -0.0115795 9.98275e-22)
(1.00001 -0.00448259 6.22281e-23)
(1 -1.72734e-06 -1.07573e-25)
(1.04387 -0.0692078 -1.02668e-21)
(1.14974 0.117588 -8.94945e-21)
(0.984274 -0.00117541 -2.46788e-21)
(0.999752 -1.30085e-05 -6.11171e-23)
(1.093 -0.00480728 -4.61287e-21)
(1.00215 -0.00305667 9.55287e-23)
(1.00122 -0.00643461 -8.77059e-23)
(1.00007 -4.25915e-06 4.11279e-23)
(0.999346 -0.000809137 -1.54479e-22)
(1.02043 -0.0200808 -2.57814e-22)
(0.982699 -0.0223704 2.7492e-21)
(0.997437 -0.0153346 -4.70021e-22)
(0.997281 -0.0104176 -2.01769e-21)
(1.01888 -0.0201975 -1.63849e-21)
(1.00597 -0.00418542 -1.21643e-21)
(0.999946 -3.37366e-06 -1.85974e-23)
(1.08655 0.132144 1.96468e-20)
(0.966057 -0.0190495 3.97639e-22)
(1.00092 -0.00213756 -1.50673e-22)
(1.018 -0.0438347 -3.6043e-22)
(1.0269 0.00431161 -2.02234e-20)
(1.0151 0.0286288 -2.3387e-20)
(0.990069 -0.00814962 9.43469e-22)
(1.00974 -0.00252257 1.88996e-21)
(0.98954 -0.0101817 1.2481e-22)
(0.999062 -0.00107191 -3.79662e-22)
(1.07321 -0.136682 2.92173e-21)
(1.00029 -0.000587582 1.09628e-22)
(1.00006 -0.00336741 4.77782e-23)
(0.990271 -0.00598191 2.93857e-21)
(0.984989 -0.0105102 1.27075e-21)
(0.999036 -0.00115259 4.20318e-22)
(1.02231 0.123072 -9.2174e-21)
(1.01581 0.0345511 1.7683e-21)
(1.10423 -0.132238 1.1167e-21)
(1.05261 -0.0390599 -1.87996e-21)
(1.00001 -7.53235e-06 -9.41674e-25)
(0.997405 -0.0060046 2.01352e-22)
(1.042 -0.0191213 1.28471e-21)
(0.996503 -0.000138209 2.50604e-22)
(0.9981 -0.0120859 -9.14033e-22)
(0.998556 -0.000942852 5.17447e-23)
(1.00092 -0.00165621 -1.38311e-22)
(0.998285 -0.00203262 -4.47387e-22)
(0.998193 -0.000501272 -1.43547e-22)
(0.998898 -0.00551632 -1.32387e-22)
(1.00011 -0.00330402 -1.42479e-23)
(1.02514 -0.0934572 6.01176e-22)
(1.00002 -1.13832e-05 9.19123e-24)
(1.00579 -0.00394908 -2.04193e-22)
(0.999995 -4.5627e-08 -3.12439e-26)
(0.960019 -0.00811941 -4.65811e-21)
(1.00011 -9.79206e-05 2.43445e-23)
(1.0055 0.0858635 2.02969e-20)
(1.07002 0.112394 -7.50941e-21)
(1.02348 0.0216997 -8.5001e-21)
(1.05182 -0.0383901 1.27324e-21)
(1.02013 0.0246544 -8.46038e-22)
(1.01693 0.000242522 9.43093e-21)
(0.999119 -0.00188567 4.92859e-23)
(1.00085 -0.00085744 -1.6662e-22)
(0.999891 -0.000321989 4.28898e-25)
(0.997666 -0.00120064 3.27968e-22)
(0.985812 -0.00747117 1.13334e-21)
(0.996844 -0.00408798 -2.59642e-22)
(0.997304 -0.0060277 5.39694e-22)
(1.01674 -0.0254482 -3.12767e-22)
(1.00011 -9.49585e-05 -2.96413e-23)
(0.999924 -3.88443e-05 -5.51181e-24)
(1.00007 -5.44721e-05 -2.13463e-23)
(0.99959 -0.00125116 1.09049e-22)
(1.01493 -0.000426576 4.21191e-21)
(1.01493 -0.024972 6.73224e-22)
(0.990142 -0.00591939 -3.13115e-21)
(1 -0.000371563 -9.44034e-24)
(1.05081 -0.0677397 1.62791e-21)
(1.00041 -0.00121761 2.57433e-22)
(0.999931 -3.88585e-05 -2.17595e-23)
(1.01535 0.0281089 3.33561e-20)
(1.01828 -0.00242969 7.6554e-22)
(1.00199 0.035592 5.33226e-20)
(1.00002 -1.51064e-05 -8.61391e-24)
(1.00002 -0.000278436 0)
(1.0009 -0.00093772 2.50926e-22)
(0.994005 -0.0182922 7.50317e-22)
(0.997412 -0.00345274 -2.70444e-22)
(1.0169 -0.0624428 -1.13979e-21)
(0.984215 -0.000517 1.65573e-21)
(1.04488 0.0196545 1.68416e-20)
(0.995849 -0.00010497 2.23122e-21)
(1.02395 0.122996 -4.84708e-21)
(1.00043 -0.00119913 -1.87611e-22)
(1.0009 -0.00210382 1.77729e-22)
(1.00144 0.0417608 -1.35921e-20)
(1.0568 0.0946892 -7.99753e-21)
(1.02636 -0.053102 -1.88453e-21)
(1.00133 -0.00118662 4.41328e-23)
(0.960798 -0.00994863 6.71298e-21)
(0.99581 -0.000132181 -1.27869e-21)
(1.00002 -1.61047e-05 3.69462e-24)
(1.00579 -0.00406092 2.43075e-22)
(0.966541 -0.0196304 -1.00524e-21)
(0.991818 -0.0182881 -1.29305e-22)
(0.977109 -0.00188078 1.27107e-21)
(1.01689 -0.0259962 -1.60941e-23)
(1.06041 -0.000121294 1.58133e-20)
(0.999995 -9.26905e-08 -7.88464e-26)
(1.00136 -0.00116373 -8.99317e-23)
(1.01187 -0.00437697 2.60159e-21)
(1.02328 -0.0122858 -3.57839e-21)
(0.998937 0.0941074 -1.01774e-20)
(0.999999 -9.12072e-07 2.61744e-28)
(0.99997 -1.42966e-05 2.68485e-25)
(1.00089 -8.48374e-05 -4.34514e-22)
(0.991864 -0.0180474 -1.53279e-21)
(0.999686 -0.000477944 8.16831e-23)
(0.999937 -0.000247697 1.79455e-23)
(1.06836 -0.0216923 -4.23373e-21)
(0.930154 0.0113968 -2.68509e-20)
(1.0967 -0.0296162 -4.85007e-22)
(1.00308 0.0350201 -1.3628e-20)
(0.989769 -0.00188493 7.07013e-22)
(0.99778 0.019151 6.9074e-21)
(1.01594 0.00586457 1.10687e-20)
(0.998307 -0.00205778 1.78363e-22)
(1.04236 -0.0691907 1.47958e-21)
(0.966408 -0.0117069 5.83587e-21)
(0.997794 -0.010629 9.33856e-22)
(1.00036 -0.00521598 2.61683e-24)
(0.998306 -0.0038227 3.2639e-22)
(0.999275 -0.000537774 8.56555e-23)
(0.998202 0.0404335 -5.7671e-20)
(0.991252 -0.0168953 -2.30593e-21)
(1.01575 0.0845667 1.03745e-20)
(1.01231 -0.02881 5.36895e-23)
(1.02359 0.0211835 4.72667e-21)
(0.990117 -0.00495936 1.18528e-21)
(0.993615 -0.00663091 -2.13412e-21)
(1.14095 -0.0616421 -4.3404e-23)
(1.01627 0.00903812 1.15571e-20)
(0.998651 -0.00156034 -4.2797e-22)
(1.00001 -0.00143457 3.99584e-24)
(0.999985 -0.00148982 9.97924e-24)
(0.99999 -1.51084e-06 -4.37942e-24)
(1.01386 -0.0251109 -8.65048e-22)
(0.9824 -0.0328037 -2.70422e-21)
(1.00011 -0.000238198 -3.54143e-23)
(1.03825 -0.0198698 -3.04957e-22)
(0.999839 -0.000381761 1.04768e-23)
(0.999837 -0.000390905 -6.89863e-23)
(1.00104 -0.000133445 -3.44214e-23)
(1.01286 -0.0285136 -6.01439e-24)
(1.00033 -2.94731e-05 -7.50131e-23)
(1.00062 -0.00422099 2.35617e-25)
(0.988291 -0.0021604 1.54157e-21)
(0.997945 -0.00298609 2.2437e-22)
(0.997668 -0.00124126 -1.13649e-21)
(0.991767 0.0451747 -7.70381e-20)
(1.06774 -0.0482072 2.55436e-21)
(1.00509 -0.00766751 1.07826e-21)
(0.994843 -0.00811557 1.15179e-21)
(0.985057 -0.0205002 -3.65284e-22)
(1.0001 -0.00325136 4.81383e-24)
(1.00001 -1.48685e-05 -2.69342e-24)
(1 -1.48685e-06 -1.79593e-26)
(0.979559 -0.00395739 2.51229e-22)
(0.966568 -0.0114394 -5.95542e-21)
(0.9852 -0.0142631 -8.60422e-23)
(1.00001 -1.44149e-05 -7.54352e-24)
(0.992512 -0.00328062 1.81071e-21)
(1.04052 -0.00177096 1.57286e-20)
(1.21859 0.040292 -8.9937e-21)
(1.08068 -0.0278741 -2.94047e-21)
(0.999974 -1.32902e-06 -3.69332e-24)
(0.985899 -0.00735899 3.75702e-21)
(1.00231 -0.0201956 7.48726e-22)
(1.00005 -5.12207e-06 -2.29337e-24)
(0.999962 -0.000119247 4.35397e-24)
(0.984304 -0.000382923 -3.04457e-22)
(1.00086 -8.05878e-05 -1.43409e-22)
(1.00029 -0.00272488 -1.48512e-23)
(1.00764 -0.0549172 -5.71809e-22)
(1.0002 -1.96873e-05 -5.59088e-23)
(0.974768 -0.0262573 3.93587e-21)
(0.988223 -0.00225616 -1.55964e-21)
(0.989805 -0.00196504 1.26427e-21)
(0.990769 -0.00496417 4.4025e-22)
(1.00072 -0.0042401 -7.7318e-23)
(0.980586 -0.0147003 4.42464e-21)
(1.00013 -0.000220716 4.52812e-23)
(1.00001 -6.43286e-06 -3.91445e-25)
(1.00255 -0.00265251 3.09575e-22)
(1.0411 0.0954606 -8.21138e-21)
(0.975219 0.0256314 5.50211e-20)
(1.00826 0.0254666 1.17852e-20)
(1.01471 -0.0252931 -2.07257e-22)
(0.994512 -0.00692149 -4.20848e-22)
(1.00723 0.0299346 6.25952e-20)
(1.00722 -0.00492505 -4.61045e-21)
(1.00011 -0.000198614 -3.13176e-23)
(1.01326 -0.000686813 -3.30394e-21)
(0.99279 -0.00643848 4.92552e-22)
(1.09284 -0.0119853 -5.27218e-21)
(0.998325 -0.00376536 4.14266e-22)
(1.01626 -0.000338217 -1.03766e-20)
(1.00048 -5.50421e-05 1.42106e-22)
(1.00847 0.0249109 8.00466e-21)
(1.00026 -2.49663e-05 -8.9456e-23)
(0.997373 -0.00371958 1.53135e-22)
(0.990238 -0.00500158 -3.25144e-22)
(1.01027 0.0354676 7.85572e-21)
(1.00013 -5.17213e-06 -8.65148e-23)
(0.992249 -0.0190147 2.09213e-21)
(1.01695 -0.061608 2.11577e-21)
(1.04603 0.0197066 -1.33089e-20)
(0.997044 -0.0230662 -1.2505e-21)
(0.997339 -0.00341749 3.92903e-22)
(1.09518 -0.0612869 -1.44682e-22)
(1.00003 -8.46104e-07 -6.99831e-24)
(1.10561 -0.130259 -4.60469e-22)
(0.99785 -0.00304903 2.40025e-22)
(1.00956 -0.00565986 -3.28438e-21)
(0.994212 -0.0183313 6.81206e-22)
(1.00136 -0.000103268 -5.31852e-22)
(1.1491 0.113884 -2.219e-20)
(1.01567 0.0351919 -1.78949e-20)
(0.970454 0.0473914 2.58193e-20)
(1.01966 0.0244135 2.50811e-21)
(1.05289 0.0525142 9.54448e-21)
(1.09213 -0.0327086 -3.00469e-21)
(1.09456 0.14266 -2.07893e-22)
(1.00733 -0.00488503 5.11949e-21)
(1.03068 0.0521157 1.00872e-20)
(1.00181 0.0343479 -4.14043e-20)
(1.00024 -0.00275104 -8.8346e-24)
(0.999307 -0.00173732 -1.30499e-22)
(0.978967 0.0231439 -5.93785e-20)
(1.00002 -9.99341e-06 -1.66787e-24)
(1.13724 -0.126369 1.07827e-21)
(1.21436 0.0548446 -3.58602e-21)
(0.990782 -0.0082737 1.9743e-21)
(1.00051 -0.00111329 -1.69841e-23)
(1.02297 -0.0120289 -1.21812e-21)
(0.999301 -0.000802233 -1.4017e-22)
(1.00087 -0.000874199 -5.44315e-24)
(0.991388 0.0597188 -1.39874e-20)
(0.942728 0.0473866 2.20901e-20)
(0.999932 -2.97839e-06 -1.21612e-24)
(1.00013 -0.000220661 -4.51491e-23)
(1.04506 -0.025304 -9.65131e-22)
(1.00005 -0.00136575 3.48345e-24)
(1.21331 -0.053271 -4.15704e-22)
(1.05567 0.0926938 -1.31648e-20)
(1.03381 0.0185937 2.64515e-21)
(0.999964 -0.000119932 -1.30777e-23)
(0.99447 -0.0317972 5.36537e-22)
(0.99576 -0.0267895 2.87759e-21)
(1.00028 -2.34053e-05 5.797e-23)
(1.00819 -0.0179771 5.01609e-22)
(1.02555 0.00037718 4.03828e-21)
(0.946934 0.0458462 -1.41312e-20)
(1.00003 -0.00141874 -4.99444e-25)
(0.999999 -1.04787e-06 -2.96663e-27)
(1.03081 0.0512651 7.44949e-21)
(1.00797 -0.0177791 8.37719e-22)
(0.999931 -3.39575e-06 -2.71895e-23)
(1.01852 -0.00873637 -7.95556e-22)
(1.00349 -0.00648039 -1.88484e-22)
(0.998305 -0.0022373 -3.93142e-23)
(0.998879 -4.2015e-05 1.18142e-22)
(1.15805 -0.114462 5.93419e-22)
(0.991637 -0.00302417 7.29463e-22)
(0.999311 -0.00078877 9.57992e-24)
(0.985176 -0.0105306 2.89705e-23)
(1.00014 -0.000213681 6.53874e-23)
(0.999936 -4.12463e-05 1.49326e-23)
(0.999838 -0.00635856 2.60251e-22)
(1.10541 -0.0139878 -8.03733e-22)
(0.99989 -2.94266e-05 1.2587e-23)
(0.988303 -0.00241274 -1.86951e-21)
(1.00037 -0.000519348 1.54502e-23)
(0.997253 -0.0227687 -5.4003e-22)
(1.01009 0.0359941 -1.03202e-20)
(0.999934 -0.000230502 -1.03451e-23)
(0.885028 0.018249 -1.60651e-20)
(1.03825 -0.0429308 -4.28752e-22)
(0.996213 0.0223393 7.75707e-21)
(1.10306 -0.014432 2.25861e-21)
(0.99974 -0.000145275 2.6483e-23)
(0.999985 -3.84108e-05 -1.91257e-24)
(0.999783 -0.00015864 -5.28949e-23)
(0.997448 -0.00342567 1.74156e-23)
(1.01366 0.00130404 0)
(0.999654 -0.00526576 1.90655e-22)
(0.992786 -0.000233143 3.89629e-22)
(0.990283 0.0697967 -4.79345e-20)
(0.967314 -0.0129058 -5.1491e-21)
(0.967034 -0.0127783 4.44374e-21)
(1.02063 -0.0195328 1.19543e-21)
(1.03741 -0.0219988 4.77328e-21)
(0.990312 0.0509419 4.80852e-20)
(0.999743 -0.000168516 2.64392e-23)
(0.992458 -0.0190662 4.34655e-22)
(0.990606 -0.00824884 -1.88805e-21)
(1.0001 -9.7459e-05 3.45463e-23)
(1.01028 -0.0234861 7.15345e-23)
(1.00037 -0.000498186 -7.54522e-24)
(1.01418 -0.0253566 -5.0847e-22)
(0.985695 -0.0374746 5.37053e-22)
(0.919561 0.0592465 -2.80318e-20)
(0.973741 -0.0259174 -3.77272e-21)
(0.998908 -0.00127332 6.19922e-23)
(0.98982 -0.00790652 -3.34858e-21)
(1.00287 -0.0118973 -4.39456e-24)
(1.06439 -0.0103125 -8.95632e-21)
(1.01704 0.000187459 -1.60736e-21)
(1.00451 -0.0223898 8.93874e-23)
(1.00001 -6.80151e-08 -9.95979e-25)
(1.00312 0.0345922 1.70772e-20)
(0.993184 -0.00364297 -2.00251e-22)
(0.959642 -0.00593572 3.26359e-21)
(0.999425 -0.00496996 1.45592e-22)
(1.01724 -0.0197114 -4.94702e-21)
(0.989054 -0.0246329 3.3496e-21)
(1.00258 -0.00260294 1.35777e-22)
(1.18884 -0.0191274 -4.31489e-21)
(0.999601 -1.55869e-05 1.73703e-22)
(1.00667 0.0621794 2.68342e-20)
(0.999642 -0.00926254 -2.86636e-22)
(1.02692 0.00122581 -2.03383e-21)
(0.977783 -0.00387506 2.93801e-21)
(1.01113 -0.00189597 5.25576e-22)
(0.999993 -9.35643e-06 -7.54546e-25)
(0.988166 -0.0211046 -2.07152e-22)
(0.988241 -0.00250177 1.76432e-21)
(0.991663 -0.0175551 2.10938e-21)
(1.01849 -0.00904873 -5.80566e-22)
(1.00686 -0.0553653 -5.92956e-22)
(1.00014 -0.000213822 -7.45597e-23)
(1.00134 -0.0951395 -1.20744e-21)
(0.999261 -0.000553113 -3.51736e-22)
(0.999992 -3.48214e-05 -7.82386e-26)
(0.999666 -0.00517782 -2.09963e-22)
(1.00012 -0.000228898 1.83673e-23)
(0.945047 0.045311 1.9264e-20)
(1.0001 -9.59206e-05 -3.05955e-23)
(1.00599 0.0851324 -6.25912e-21)
(0.989616 -0.00834764 -5.28242e-22)
(1.01071 -0.00155073 -9.88385e-22)
(1.00149 -0.00119545 -4.82867e-22)
(1.05022 0.0114674 1.79892e-20)
(1.00208 -0.00309152 -5.77441e-22)
(1.0127 0.0144759 -8.19151e-21)
(1 -1.81748e-06 -5.15171e-26)
(1.01085 -0.0321486 -3.94977e-22)
(0.999334 -0.00252585 1.16478e-22)
(1.00088 -0.00204686 2.51632e-23)
(0.986684 -0.00865434 -8.07929e-22)
(1.00001 -8.37306e-06 3.96137e-24)
(1.14554 -0.00817362 -3.32218e-21)
(0.953388 0.099535 6.77597e-21)
(1.2111 0.0552283 8.02683e-21)
(1.00011 -0.00019379 6.09085e-23)
(1.07262 -0.0735166 -5.05579e-22)
(1.01386 0.00146053 -2.66353e-21)
(0.986234 0.0637184 3.4047e-20)
(1.00004 -0.00231799 -3.3716e-24)
(0.999876 -1.12534e-06 -1.02269e-23)
(1.04404 -0.0248237 -1.19837e-21)
(1.00008 -6.86009e-05 -2.09642e-23)
(0.972847 0.0222986 -1.22643e-20)
(1.0025 -0.0200383 5.41159e-23)
(1.15145 0.125842 -2.49614e-22)
(1.05329 0.0321183 -1.81784e-20)
(1.00008 -6.31314e-05 1.68066e-23)
(0.981259 -0.0643157 -2.10588e-21)
(1.00655 0.0195574 -1.78603e-20)
(0.999936 -3.92511e-05 7.0818e-25)
(1.04494 -0.0176723 8.49168e-21)
(0.997145 0.00933724 3.66315e-20)
(0.998864 -5.3218e-05 9.63927e-23)
(1.0012 -0.00666344 1.25031e-22)
(1.00018 -2.53797e-05 4.21185e-23)
(1.00328 -0.00710815 -5.01349e-22)
(0.990273 -0.00516132 1.48587e-22)
(0.996805 -5.58998e-05 1.55555e-22)
(1.02104 0.0871511 -1.41451e-20)
(0.997777 -0.0104176 6.27137e-22)
(0.914168 0.0832844 4.96748e-20)
(0.86444 0.00851367 4.41559e-20)
(0.998567 -4.89975e-05 -2.82637e-22)
(1.00002 -0.000207499 -2.19332e-24)
(1.01569 0.0833586 -5.87495e-21)
(0.998285 -0.00211943 1.60434e-22)
(0.991488 -0.00206917 3.96149e-22)
(1.00012 -0.000228677 -1.03921e-23)
(1.03524 0.0211207 6.29851e-22)
(0.977959 -0.00387816 -4.19275e-21)
(0.928095 0.0468381 3.4829e-20)
(0.999367 -0.00224828 -1.67139e-22)
(0.999972 -0.000627305 -2.89969e-24)
(0.993198 -0.00373361 6.85676e-22)
(1.2197 0.0202098 -5.87842e-21)
(0.994798 -0.0318633 1.29191e-22)
(1.07132 -0.0196407 -1.40547e-21)
(1.02667 -0.0199973 -2.92524e-21)
(1.01684 0.00581014 -9.24626e-21)
(0.999904 -5.66047e-05 -8.4722e-24)
(1.15213 -0.0439216 9.86901e-22)
(1.00001 -1.4061e-05 -4.87097e-24)
(1.00081 -0.000709024 3.15793e-22)
(0.999994 -2.95101e-07 1.64432e-25)
(1.10403 -0.127065 -2.57988e-21)
(1.02739 -0.053532 1.51806e-21)
(1.01475 0.0273938 1.49428e-21)
(0.99999 -1.35425e-06 4.42163e-25)
(0.971243 0.0459817 -6.87967e-20)
(0.999804 -5.84979e-05 3.12508e-23)
(1.01053 -0.0232835 1.14519e-22)
(0.999699 -0.000167984 9.02856e-23)
(0.966111 -0.0194537 1.99241e-22)
(0.99495 -0.00824632 -1.80686e-21)
(1.06208 0.00857004 8.56862e-21)
(0.999935 -4.49865e-06 3.60024e-23)
(1.00731 -0.0367953 -1.13512e-21)
(1.00861 -0.0178811 1.33883e-22)
(0.994483 -0.00745458 -1.57076e-21)
(0.999989 -3.77179e-05 2.12138e-24)
(0.99996 -0.000621011 1.54392e-24)
(0.999894 -5.11865e-06 4.35911e-24)
(0.985469 -0.0248092 -2.37552e-21)
(1.00086 -0.00170627 1.37217e-22)
(0.999419 -0.000344925 -8.37942e-24)
(0.984064 -0.000123181 2.50305e-21)
(1.00004 -0.000103918 -2.11703e-25)
(1.00015 -0.000206527 6.05736e-23)
(1.00279 -0.010498 1.73821e-22)
(0.999743 -0.000145318 1.56232e-23)
(1.00773 0.0297023 -2.76962e-20)
(1.0322 -0.00390582 1.30635e-20)
(1.22065 -0.01733 -2.52288e-22)
(0.987126 -0.000383662 -3.26011e-22)
(1.00349 -0.0450703 1.7022e-21)
(0.999992 -7.99773e-07 -2.55186e-25)
(1.09721 -0.0622911 1.21454e-22)
(0.985298 -0.0373604 -2.17351e-21)
(1.00017 -2.58066e-05 6.29669e-23)
(0.985351 -0.0145122 -1.09189e-21)
(0.999273 -0.00234705 -1.2919e-22)
(0.982198 -0.0102447 1.29341e-21)
(1.07012 -0.104101 -8.16905e-22)
(1.00025 -2.42835e-05 -6.65136e-23)
(1.01322 -0.0287719 -5.28435e-23)
(0.999992 -3.58899e-05 5.23174e-25)
(0.997315 -0.00321492 -2.54963e-22)
(0.999812 -5.87782e-05 2.93074e-24)
(1.02898 0.0457061 -1.36086e-21)
(0.996073 -0.000968003 -7.57856e-22)
(1.00007 -0.000124745 -6.23293e-25)
(0.999918 -3.9566e-05 1.34021e-23)
(1.01272 -0.00616958 3.23051e-21)
(0.978669 -0.020433 3.71696e-22)
(0.998306 -0.00214286 -2.56914e-22)
(0.999985 -0.000653142 -4.76428e-24)
(1.02014 0.0881717 -1.73416e-21)
(1.00143 0.0463093 1.05183e-20)
(1.0009 -0.00202636 8.22282e-23)
(1.14119 0.0839752 -3.22284e-22)
(1.05788 -0.0779491 1.98203e-21)
(0.967652 -0.0211382 1.66306e-21)
(1.00002 -0.000204503 8.65507e-24)
(0.999995 -3.31448e-07 9.32098e-25)
(1.04185 0.0940304 1.05799e-20)
(0.982508 -0.00874725 3.9976e-22)
(1.00005 -0.00010362 -9.25562e-24)
(1.14098 0.0385983 8.45848e-21)
(0.999538 -0.000265799 1.11499e-22)
(0.999994 -2.87181e-06 1.79184e-24)
(1.04677 -0.00491312 1.37985e-21)
(0.988634 -0.0479899 -7.5939e-22)
(0.974078 -0.0258648 5.02487e-21)
(0.964744 -0.01899 7.25206e-22)
(0.993601 -0.0170425 -1.52162e-21)
(0.996634 -0.000113748 2.69306e-22)
(0.991579 -0.00215615 -3.1466e-21)