/*--------------------------------*- C++ -*----------------------------------*\
  =========                 |
  \\      /  F ield         | OpenFOAM: The Open Source CFD Toolbox
   \\    /   O peration     | Website:  https://openfoam.org
    \\  /    A nd           | Version:  7
     \\/     M anipulation  |
\*---------------------------------------------------------------------------*/
FoamFile
{
    version     2.0;
    format      ascii;
    class       surfaceScalarField;
    location    "32";
    object      phi;
}
// * * * * * * * * * * * * * * * * * * * * * * * * * * * * * * * * * * * * * //

dimensions      [0 3 -1 0 0 0 0];

internalField   nonuniform List<scalar> 
172499
(
201.228
58.3826
-259.611
-473.773
101.999
371.773
-111.457
-76.7667
188.224
112.615
-278.124
165.51
-436.107
323.564
112.543
138.354
-337.089
198.734
-143.926
287.15
-143.224
-81.0418
196.268
-115.226
-363.389
351.891
11.4985
-465.117
-8.65602
-229.961
354.462
-124.501
495.016
-360.236
-134.78
-169.302
341.048
-171.746
87.8832
-88.6755
0.792312
-44.0431
-319.346
-104.728
59.445
45.2834
-456.099
86.5187
369.581
-411.552
77.0318
334.52
-114.518
286.112
-171.594
-331.892
-104.215
-72.7168
184.316
-111.6
198.899
-196.843
-2.05547
392.781
-290.215
-102.566
159.458
-312.911
153.453
-227.69
200.868
26.822
-117.549
228.518
-110.969
69.081
73.0263
-142.107
-207.792
463.237
-255.445
-263.245
-175.899
439.144
-48.556
100.776
-52.2202
427.808
-342.013
-85.7949
-248.629
-67.1965
315.825
-267.027
406.273
-139.246
-101.094
-75.666
176.76
-70.5401
-99.9852
170.525
182.211
95.3107
-277.522
-225.751
97.5282
128.222
-99.7087
-356.39
115.651
-147.952
32.3012
124.195
197.98
-322.175
157.495
-406.124
-57.6133
-353.939
-131.373
-34.8522
166.225
-118.886
301.097
-36.9777
101.316
-64.3381
-2.1692
90.0524
263.765
66.3422
-330.107
544.107
-303.835
-240.272
397.935
-148.666
-249.27
414.144
-534.095
119.951
-390.722
478.202
-87.4802
279.652
-101.66
-177.992
-473.427
331.658
141.77
-504.397
451.001
53.3961
-119.418
-165.821
285.239
-318.575
-154.853
556.273
-366.603
-189.671
-131.779
82.2808
49.4978
86.6781
77.5478
-164.226
127.183
-229.394
102.211
-515.338
327.48
187.858
-186.325
330.638
-144.314
345.939
-129.378
-216.561
-104.078
185.119
-81.0411
295.876
87.1839
-383.06
9.43764
-401.321
391.883
-351.588
197.422
154.166
-219.992
400.709
-180.717
80.6777
-146.733
66.0551
-537.543
255.566
281.977
-106.021
202.817
-96.7961
203.713
-155.449
-48.2639
372.578
-248.383
-133.622
67.4924
66.1298
-98.0178
-90.6116
188.629
79.8317
-163.602
83.7704
-209.596
50.0393
159.557
202.635
-402.962
200.327
-248.371
-140.855
389.226
-297.293
220.779
76.5136
-79.2436
-218.049
429.78
-432.778
2.99873
36.8799
-84.6445
47.7646
-306.814
558.827
-252.014
-137.156
240.671
-103.514
342.478
152.538
-108.072
177.225
-69.1532
-324.469
472.876
-148.407
105.305
-117.168
11.8628
-86.7007
441.524
-354.824
135.99
-5.20296
-130.787
202.329
-20.5673
-181.762
206.542
-469.788
221.17
50.2468
-271.416
-420.529
315.144
105.385
-575.003
416.905
158.098
261.945
-321.781
59.836
93.8094
-56.9295
88.1168
-165.225
77.1081
0.692101
104.613
-314.494
-200.844
200.76
-435.838
235.078
328.066
-177.536
-150.531
-485.627
499.545
-13.9183
109.72
-215.74
170.852
-96.1985
-74.6535
-502.369
319.291
183.078
-41.1999
102.938
-61.7386
-141.054
225.139
-84.0847
-311.345
-71.1243
382.469
-123.939
236.014
-112.075
-54.6575
316.603
-178.021
-31.5754
133.324
107.657
-240.981
-104.347
46.3822
57.965
203.836
-345.346
141.51
-307.561
77.6003
-97.8963
223.339
-125.442
363.999
-541.571
177.571
51.3639
152.349
-215.882
117.986
-64.834
-39.8944
-222.484
115.296
107.188
47.3156
-173.517
126.202
-230.663
532.609
-301.946
-112.826
64.2696
-264.601
78.2766
-113.639
77.1401
36.4993
-181.004
-41.6878
222.692
-508.449
511.215
-2.76593
-109.943
237.616
-127.673
567.198
-287.778
-279.419
-172.78
189.346
-16.5658
538.976
-196.498
-329.44
480.849
-151.409
-113.242
227.019
-113.777
-258.695
173.926
84.7692
63.4208
-330.448
147.834
-267.252
182.747
147.892
83.9071
56.0326
-139.94
-191.871
341.155
-149.284
502.989
-504.547
1.55826
382.372
-197.019
-185.352
-269.004
159.061
141.961
-532.683
438.617
-332.795
-105.822
-115.184
-149.417
-454.171
234.179
-226.602
-167.733
394.336
106.76
64.0915
55.9231
-92.9008
8.00793
194.321
-567.957
273.279
294.678
133.052
146.6
-361.106
427.84
-66.7338
-412.189
100.844
-67.999
223.043
-155.044
132.237
-132.422
0.184349
-153.457
114.654
38.8027
149.713
-69.8808
137.346
301.271
158.331
187.608
-190.363
146.913
43.45
263.428
-142.864
-120.564
139.939
173.337
-313.276
446.787
-260.913
-185.874
-61.9492
-104.632
166.581
-192.203
124.204
-240.889
122.981
117.908
-241.357
155.52
85.8371
-102.68
366.445
-98.2324
-28.3246
126.557
26.7058
59.3476
-86.0534
-73.9332
-81.4148
155.348
220.41
-438.185
217.776
-70.0925
96.7983
193.519
85.9037
-279.422
113.429
-333.397
219.968
276.978
120.957
-289.882
-131.146
421.028
-194.087
96.0692
153.978
-262.546
108.568
-210.107
417.429
-207.322
-275.565
-226.804
-162.599
384.866
-222.267
95.5061
-261.717
166.211
311.161
188.839
-138.569
327.149
-188.58
127.98
8.00934
-106.165
299.684
-338.856
188.625
150.231
453.319
-164.827
-288.492
-201.884
116.503
85.3814
-235.313
117.764
68.3982
-131.722
63.3234
21.4544
-91.5469
-172.506
163.385
9.12061
55.1568
-146.013
90.8562
84.6893
137.082
-221.771
-569.63
390.982
178.648
-183.568
360.871
-177.302
364.609
56.3073
-420.916
481.283
-479.309
-1.97411
-338.226
169.037
169.189
134.88
-89.6672
-45.2132
369.942
-271.298
-98.6445
-87.3052
383.181
-214.191
-196.818
411.009
96.6483
-210.057
113.408
-66.7758
88.2302
54.5448
264.746
18.4591
-246.149
-384.206
297.505
-164.107
-62.9937
227.1
-84.3053
-117.579
-100.499
255.412
-154.914
-183.057
-137.796
320.854
78.1095
-80.2787
-123.621
-261.398
385.019
129.179
9.98265
-139.161
134.005
0.120571
-134.125
134.664
-329.341
194.677
-75.1221
138.33
-63.2079
-73.5436
-430.853
-175.179
12.5617
162.618
-200.949
-80.3675
281.317
184.004
-68.551
-115.453
138.383
-69.9852
-350.796
102.837
247.959
0.497665
-414.129
413.631
69.5213
-117.531
48.0096
53.2153
-134.904
81.6892
83.0126
-175.958
92.9458
-239.07
121.979
117.091
-224.887
-344.743
-641.914
285.521
356.394
392.861
-204.53
-188.331
-56.7374
160.644
-103.906
239.606
-166.195
-73.4111
-44.946
151.776
-106.83
-293.777
167.655
126.122
-120.328
-33.1289
155.826
-67.7095
278.132
-217.168
-60.9637
-234.496
407.646
-173.15
449.446
-222.534
-226.912
133.953
-85.8449
-48.1085
-163.188
101.239
-64.1397
-31.2292
95.3689
205.755
279.681
-485.436
-370.449
240.816
129.633
227.413
-531.594
304.181
387.319
-236.445
-150.874
117.849
-70.5973
-47.2519
-6.68011
-283.202
-75.01
180.184
-105.174
-562.997
299.906
263.091
503.72
-503.72
-188.916
107.874
370.403
-377.083
-3.6761
81.7856
-482.401
272.294
-129.101
125.508
3.593
41.6881
-182.742
257.738
-145.123
-106.326
153.642
179.492
-279.848
100.356
105.289
98.2753
-203.564
-102.137
210.597
-108.459
415.209
-131.53
-283.679
-329.077
190.508
428.133
-151.155
-224.246
-69.5315
141.967
177.245
-319.212
-187.455
104.297
83.1583
45.7546
-99.3757
53.6211
-171.35
97.4173
-247.879
297.841
-49.9613
74.2428
-115.443
-120.456
-69.9065
97.1275
184.349
-404.756
220.406
69.5624
65.3181
456.596
-254.262
-202.334
172.17
207.089
-379.26
69.1848
-244.364
498.571
-508.691
10.1193
116.956
-72.9416
-44.0142
101.008
-151.725
50.7167
108.777
-63.0229
-500.322
66.1303
434.192
-170.775
30.0012
140.774
370.161
-315.617
-258.569
409.608
-151.04
-481.719
303.036
178.683
364.155
-244.482
-119.673
-141.794
-213.786
355.58
-161.288
345.131
-183.843
-234.279
132.142
-67.2645
-22.9021
90.1667
111.542
-192.792
81.2499
-60.8603
133.553
-72.6931
308.6
-193.355
-115.244
86.1721
37.2734
-123.445
-130.865
284.849
-153.984
-253.51
167.838
85.6725
111.198
72.8058
102.127
-130.613
28.4866
-173.589
287.018
-92.0148
-187.315
279.329
129.16
13.6605
-142.82
-95.6164
164.889
-69.2725
-152.589
95.8515
-330.248
160.946
-179.542
346.525
-166.983
339.765
113.554
177.965
-412.461
272.57
-113.112
-182.069
124.888
57.1812
-3.77748
-181.686
185.464
262.731
-386.352
-57.3987
422.008
-34.9479
-69.3994
185.768
71.7434
-257.512
-142.15
59.1573
82.9929
-368.399
7.29217
198.004
-414.9
216.896
29.2375
-96.502
-154.418
-16.357
193.91
-285.925
-432.872
-67.4508
141.728
229.378
-371.106
219.145
145.01
121.269
-57.2092
-64.0598
171.934
102.228
-274.162
-259.758
169.608
90.1501
80.3329
-357.602
277.269
352.977
-214.623
243.229
-147.723
82.9553
108.088
-191.044
-132.774
270.491
-137.717
129.961
-60.8802
90.9272
-181.188
90.2609
265.729
-89.4613
-176.267
-170.632
-212.735
383.367
-175.159
-72.7206
-66.3654
-36.9514
103.317
77.3773
49.9711
-127.348
320.5
-172.706
-147.793
-217.805
45.0253
-510.068
344.517
165.551
365.73
4.67253
170.039
-290.197
120.158
186.11
-101.42
180.924
91.3674
-272.291
-52.568
253.796
-105.321
-299.56
404.881
-171.345
388.643
-217.298
-112.617
263.56
-150.943
-172.395
285.482
-113.087
144.636
-99.0178
-45.6181
-143.427
-82.3239
-134.175
81.0807
53.0947
277.857
-159.276
-118.581
-438.081
332.76
-160.468
163.194
-2.72547
-185.299
112.038
73.2611
303.684
-169.02
-168.962
473.041
-304.079
203.01
-89.175
-113.835
67.5734
88.0857
-155.659
72.3371
61.6163
25.6671
229.868
-255.535
96.5305
106.597
-203.127
63.7882
305.897
-369.685
148.525
510.446
-96.3018
225.663
95.8838
-321.546
-143.42
300.975
-157.555
135.694
-66.1722
213.417
-117.264
-96.1526
-81.5638
203.244
-121.68
140.686
-253.303
396.441
-224.271
-371.32
369.329
1.99149
144.589
-91.3739
-58.3257
-35.9891
94.3148
489.256
-165.692
-61.9263
186.27
-124.344
-231.8
429.697
-197.897
280.301
171.036
-451.338
68.6496
-176.722
-455.499
247.708
-22.7501
156.755
-324.683
187.252
137.431
3.02961
99.0971
-316.452
-132.172
448.624
267.335
160.798
-74.564
-84.4737
159.038
95.8514
2.99805
-98.8495
-241.959
354.53
-112.571
127.246
-117.803
-9.44317
-171.557
393.783
-222.226
-128.172
133.613
-5.44156
55.5746
124.898
-180.472
142.05
-471.49
-168.984
261.166
-92.1817
-98.0606
251.532
-153.471
-133.234
197.499
-64.2651
254.535
-163.098
-91.4372
-274.476
87.1617
237.205
-407.838
-39.637
214.052
-174.415
-225.657
88.5002
195.724
102.117
381.942
-114.607
85.6626
-138.518
52.8555
353.324
69.9362
-423.26
-196.294
407.145
-210.851
-232.838
-267.158
22.8121
-89.5879
601.53
-379.335
-222.195
-34.4482
129.079
-94.6307
-163.244
67.628
307.739
-392.507
84.7675
-139.459
195.034
-390.912
381.428
9.48351
331.193
225.08
148.098
156.755
-304.853
-504.926
382.606
122.32
-352.48
426.17
-73.6898
-99.4472
252.568
-153.12
179.108
-67.9104
128.401
180.199
126.117
-295.101
-123.978
271.157
-147.178
382.849
218.682
336.276
-330.39
-5.88525
325.157
-529.571
204.414
341.428
-138.793
-103.07
-405.379
66.4786
-217.862
151.384
80.5579
-155.122
357.363
99.2335
184.9
-82.166
-102.734
237.834
169.812
134.62
233.645
-368.265
-97.9605
378.262
415.248
-194.839
-401.682
10.2597
391.422
-291.196
-180.986
472.182
421.617
-291.783
-129.834
489.916
-249.752
-240.164
-71.7328
-91.4557
-59.4193
271.978
-212.559
56.6363
86.5567
-143.193
83.3901
-140.35
56.9597
157.621
159.938
-317.559
-184.75
31.2763
153.473
39.197
88.049
412.098
-174.263
374.928
114.328
-267.982
-146.979
414.961
-28.4972
157.657
-176.276
103.56
-161.409
-219.932
381.341
-25.4608
84.8084
-37.9249
-146.825
166.349
-457.545
200.147
-31.7164
-57.1757
88.8922
216.682
-56.0382
-89.7161
-43.9061
-262.017
138.039
-103.81
289.578
-324.718
499.957
-175.239
261.309
-422.718
398.856
-198.096
104.09
197.438
-301.528
-143.512
62.7117
80.8004
-367.32
488.64
-121.32
307.403
-227.07
554.814
-227.562
-327.251
115.918
100.764
358.77
-116.981
-241.789
-271.704
434.516
-162.811
141.461
-249.044
107.583
-159.072
33.0033
126.068
-155.635
-78.6447
148.887
-392.251
243.364
10.68
-118.873
108.193
454.511
-196.68
-257.831
303.212
-478.253
175.041
-227.606
187.969
90.712
112.298
100.96
-6.49396
-94.4661
253.711
-120.387
249.593
143.268
322.448
-180.955
-141.493
-326.761
217.201
109.56
-488.675
397.287
91.3879
183.723
-100.71
-105.704
188.834
-83.1296
-183.646
-69.8636
349.951
-42.2118
118.083
11.1989
-129.282
-117.905
200.86
-132.46
87.5139
-530.933
360.01
170.922
311.317
-141.278
226.193
161.126
161.499
-397.944
-474.616
238.098
236.518
-249.133
166.175
82.9577
112.689
-44.0786
-68.6106
-219.112
-203.067
422.179
101.802
149.467
-251.269
-407.087
282.475
124.613
-272.115
-134.972
-561.824
373.6
188.225
-284.958
101.311
586.037
-299.833
-286.204
-149.271
-176.356
325.627
-132.039
136.904
-4.8643
-165.02
274.587
-109.567
-254.262
154.815
-415.79
299.084
116.707
108.178
92.9803
-201.159
-370.926
193.792
177.134
-112.859
-128.497
141.339
-105.066
-36.2731
276.12
105.822
573.971
-316.418
-257.553
253.319
-519.759
266.441
55.206
-116.465
61.2589
93.9021
7.05791
-62.7845
144.854
-82.07
272.977
300.993
71.9202
-173.014
-291.647
158.873
120.305
-39.6268
117.425
160.432
347.269
82.5109
107.27
71.8378
37.4883
-186.96
149.471
365.275
-514.258
148.983
-60.962
326.113
-265.151
-33.7621
117.152
174.775
380.039
-146.604
359.061
-212.457
69.5585
-166.821
97.2629
-341.027
-300.887
-61.6709
-36.7648
98.4357
6.45278
-138.492
-107.045
117.725
176.375
-85.4476
178.826
-328.096
-137.34
77.369
59.9705
-351.936
-87.6709
439.607
-338.28
521.849
-183.569
108.255
-370.747
262.492
59.0685
-145.94
86.8714
-115.647
-235.149
294.862
106.4
-401.262
179.023
-112.544
249.784
-142.108
-107.676
555.177
-194.28
-360.898
-371.2
53.2206
317.979
331.636
90.7905
-422.427
-480.442
500.647
-20.2048
-146.215
-76.2682
-95.8327
201.122
142.917
179.531
250.539
-537.701
287.162
377.034
-367.597
461.808
-166.946
553.032
-298.856
-254.176
-224.083
244.815
-20.7315
-52.1436
170.226
-101.449
-253.271
354.72
56.7873
446.933
-68.3284
-84.2605
143.817
-87.1808
324.019
-166.397
128.706
60.1028
-188.808
167.071
-226.49
-69.2249
-102.182
171.407
552.677
-552.677
-3.20849
-124.963
280.884
-168.104
-112.78
-310.609
-171.109
-162.941
91.2079
-366.581
-119.046
-77.665
145.238
201.021
-293.876
188.508
105.367
14.7812
-405.693
129.077
109.658
-238.735
90.0586
120.538
136.918
-53.0112
-67.6545
-303.545
81.3818
-253.893
172.511
-8.50984
-393.172
-298.206
151.602
-132.482
-183.627
316.109
115.128
234.688
-349.816
-328.357
500.853
-172.496
-92.1594
-36.9413
-73.629
105.375
-31.7458
-98.7014
180.903
-82.2014
227.755
169.686
-397.441
318.623
-214.533
405.711
-186.566
-304.332
-200.594
159.58
-274.098
-161.061
90.5207
-412.903
308.08
104.822
83.9187
-435.855
91.1473
152.543
-243.69
-221.815
-153.488
375.303
41.028
-101.888
137.586
-166.083
-119.162
-224.995
344.157
-301.848
240.886
-102.221
-51.2814
153.502
-188.336
110.868
77.4681
358.26
-517.322
159.062
319.93
-214.097
-105.833
156.995
292.45
75.6273
86.3646
-161.992
387.19
-160.997
146.879
-514.2
260.895
-179.514
158.813
161.117
-64.6908
-348.212
219.19
-378.978
159.788
408.928
-238.219
-170.709
75.61
-260.336
184.726
-228.742
-10.1045
238.846
66.5822
-158.753
92.1706
83.3877
-160.888
77.5004
193.585
212.126
-49.0393
144.891
-334.356
418.275
135.782
234.086
-369.868
-105.783
309.619
79.1004
108.039
-187.14
41.7867
-314.662
272.875
-138.917
145.37
278.618
-458.129
179.511
-94.3489
223.055
268.713
-455.23
196.661
-93.1113
1.23746
91.8739
39.8967
121.858
-161.755
221.475
233.035
-115.811
194.912
339.834
-28.4226
-311.411
-124.038
444.717
-320.679
101.958
290.823
44.3329
227.645
317.064
134.949
-452.013
327.79
-268.538
-59.2519
-32.2858
-128.182
-208.643
95.4014
-75.1915
-30.9687
106.16
14.0302
-89.2218
-316.896
173.476
-75.1824
-178.92
254.102
186.767
133.345
-320.112
-222.592
-47.5429
270.135
-153.608
85.2794
82.0094
-180.711
-84.0482
-318.655
402.703
-81.8501
-142.395
517.701
-239.083
-70.11
76.1871
51.3797
-127.567
-167.431
83.1229
84.3078
70.1235
-91.0461
20.9226
106.131
172.697
-278.828
-186.232
105.19
81.0426
-138.367
319.291
-100.135
-127.572
227.707
-328.185
-209.358
-244.548
127.014
117.534
-229.283
527.005
-297.723
441.321
-292.434
-72.6042
-93.9216
166.526
-72.6393
101.877
-183.277
323.626
-140.349
-118.029
270.889
-152.861
163.181
-70.2017
-92.9795
-251.539
359.793
145.157
-87.326
-57.8305
-274.06
279.967
-5.90714
-279.115
135.189
195.518
11.2177
-206.736
-198.254
390.326
-192.072
124.072
-60.1606
-63.9113
227.819
-469.955
242.136
-497.834
173.365
164.096
-34.9169
-139.539
0.62172
-189.428
87.0692
102.358
-149.64
368.83
148.181
-78.6223
80.8521
-415.208
-41.094
-72.8811
113.975
-105.592
-509.239
357.36
151.879
249.308
78.482
-305.796
-160.738
466.534
-85.4335
298.8
105.901
-140.349
-54.0923
-133.363
-233.395
-244.262
477.657
-198.55
-242.905
441.456
-287.764
276.862
10.9015
314.068
-250.28
-295.776
-214.293
340.839
-509.801
102.378
95.1488
-197.527
-383.215
212.505
170.71
157.036
217.892
-76.8325
142.108
-65.2758
-330.359
526.171
-195.813
-190.159
136.583
53.5765
-129.918
40.6735
89.2443
53.1623
-126.791
-63.9451
395.581
96.1998
64.693
-160.893
504.262
-187.198
-111.583
265.561
-318.533
157.244
-287.012
287.012
-152.084
243.232
-548.854
281.606
267.248
-237.418
-98.1155
335.534
186.694
-149.206
-126.908
135.53
-8.62236
-254.157
81.7624
123.377
-483.613
37.5137
79.442
-138.424
-310.316
448.74
-232.449
368.231
-251.482
150.984
500.837
-245.076
-255.761
-191.246
-37.4959
150.598
-328.134
-568.507
398.517
169.99
-285.738
-156.221
-203.295
37.7908
165.504
-55.704
-111.448
167.152
132.78
120.931
-63.4209
110.424
-47.0028
-0.164346
59.7693
-59.6049
222.854
-221.906
-0.948202
212.822
-337.857
125.036
73.0808
-178.785
-73.0803
-154.525
104.634
-198.743
94.1098
-393.467
-264.798
338.778
-73.9803
83.3733
40.6986
-21.7874
-113.902
135.689
-150.628
-200.96
155.941
-386.709
230.768
-173.427
100.823
89.4875
47.7171
-137.205
36.3565
-138.577
-159.085
242.728
-83.6422
157.07
107.753
-264.823
-157.258
-287.202
444.46
171.144
-421.68
250.536
108.817
-159.582
50.7648
-540.73
308.913
231.817
465.403
-323.442
-141.961
-501.517
176.799
-127.661
124.452
-67.3686
-108.908
315.253
-413.213
-344.521
-130.095
-155.596
-138.279
-380.675
155.934
224.742
-215.337
133.487
-46.2604
307.209
-260.948
-90.0421
-240.945
128.086
175.267
105.316
-280.583
258.8
-454.459
195.658
197.579
-100.931
-317.088
102.991
223.406
-96.2225
-327.56
-112.156
439.717
383.608
-227.667
-331.837
336.457
-4.62089
-72.0486
122.483
-50.4345
-380.534
167.799
-312.368
126.505
185.863
131.976
-131.976
-194.959
-256.067
451.026
471.562
-390.71
63.8285
-264.778
3.94808
335.886
332.097
223.081
-242.439
-48.3796
290.818
127.467
6.66906
-134.136
-72.8508
138.75
-65.8991
-183.458
116.119
67.339
-323.01
-244.947
-167.307
98.0819
116.897
-40.7101
-272.649
-302.354
-144.254
81.4695
132.876
208.172
72.5035
34.5682
-107.072
-45.6935
140.292
-94.5985
379.813
173.219
-172.311
-112.647
-336.283
-172.956
-156.595
-99.9277
256.522
-69.3823
-272.63
342.012
-353.535
195.144
158.391
-91.614
-103.706
195.32
337.796
-505.076
167.281
209.15
-354.605
145.455
236.229
-415.254
179.024
-78.1808
-53.5979
-237.922
164.842
166.971
-395.169
228.198
-154.059
98.3547
-380.277
196.708
-206.075
363.111
-76.6249
146.137
-69.5121
91.5598
-145.232
53.6727
25.8031
-89.9429
-154.051
366.872
483.497
-465.545
-17.9518
-94.7687
153.837
-78.2249
134.628
-56.4032
260.874
-455.834
-59.1127
167.76
-108.647
-149.222
289.161
390.876
-507.237
116.361
234.043
76.721
-310.764
46.8108
-101.086
54.2748
-36.6516
106.775
59.2046
31.3836
-90.5882
-42.6685
142.506
-99.8371
-10.7892
160.649
-149.86
176.178
-71.5448
387.616
-138.023
-75.6468
279.884
-204.237
-303.722
-48.7588
182.515
-104.964
-77.5503
199.24
-307.394
108.153
-239.769
-147.248
387.018
-87.3314
178.891
-275.162
163.849
111.313
229.789
-359.156
129.367
-324.157
204.489
119.668
252.026
-132.885
-119.142
-134.764
70.6326
64.1315
184.188
-398.379
-111.399
-72.4433
183.843
-43.9412
-135.757
179.698
102.707
-248.926
146.219
-113.875
210.406
185.656
-98.5213
-87.1344
-55.8195
-112.356
168.175
-37.1637
174.75
-163.724
-117.504
281.228
-304.765
-8.64894
313.414
47.4292
-111.347
63.9173
168.557
97.1719
116.056
107.35
-82.6318
96.0165
-13.3847
-203.295
-55.642
446.518
-2.95462
118.606
377.234
13.6329
-390.867
389.802
-326.381
-477.285
181.509
62.6166
47.4752
-110.092
-148.224
-33.8456
83.2184
-259.826
176.608
121.868
-386.665
-175.314
-34.6945
268.737
-69.5743
265.092
257.466
159.962
-413.479
215.226
-142.912
66.0795
390.399
-162.986
245.639
-109.615
-136.025
259.006
-328.389
308.359
-186.149
-122.21
179.224
-168.957
-10.2672
118.146
-70.7173
-215.432
-235.487
450.919
-196.045
31.619
164.426
491.89
-485.248
-6.64261
242.818
-70.8458
-171.972
244.929
247.563
-492.492
274.403
-171.695
-164.181
300.775
-136.594
-159.253
307.351
-134.716
220.054
-85.338
-189.678
-148.548
72.4036
-155.238
82.834
106.621
-206.756
352.156
119.406
-239.069
-176.721
-64.4329
-102.998
115.904
-43.4006
-172.346
275.46
-103.114
-66.9183
153.596
116.012
-43.4648
-72.5476
-136.39
80.5701
-581.735
368.44
213.295
55.7521
-139.124
83.3723
-178.575
261.793
-65.6798
130.762
-65.0825
71.3405
44.6719
-142.996
363.741
-220.745
-124.442
-103.837
228.279
-57.8689
-36.0772
93.946
337.62
-145.025
-192.595
246.065
-86.0908
-159.974
-379.85
-308.916
-168.368
-56.3648
-98.3245
154.689
124.384
-314.732
190.348
145.491
-73.0877
-124.223
-3.4378
172.427
-420.799
312.212
-95.0109
-164.237
102.311
-174.223
83.2992
90.9234
338.849
-129.7
159.217
-127.512
-31.7049
-80.3694
-93.8532
68.2
-134.712
66.5115
103.172
-170.541
115.864
-64.0022
-103.932
167.934
-91.399
227.453
-136.054
125.154
-42.7885
-82.3651
-269.296
-35.4685
120.885
92.5319
-83.5615
10.9223
-97.1932
214.537
-117.344
-97.8425
98.7577
-0.915135
-98.3225
-77.8995
-95.7807
173.68
483.999
-385.945
-98.0538
423.957
-108.704
141.911
-102.015
-425.693
463.886
-38.1925
-178.405
305.269
-126.864
-237.968
301.797
99.3958
86.2599
-69.6925
-115.607
-93.0054
272.498
-149.542
301.017
-151.475
41.1099
58.8118
-99.9217
-299.445
158.346
141.099
115.958
-60.7515
-83.7936
-71.6554
-221.124
-187.747
408.871
139.676
344.323
-456.568
258.018
239.612
-239.612
-65.2044
79.2696
-14.0651
185.351
-108.071
-77.28
246.001
-540.003
294.002
182.803
154.816
-252.666
356.44
-103.774
123.527
-67.7754
-203.183
129.944
73.2392
156.959
330.238
-487.197
253.898
-121.117
-317.613
162.507
155.106
95.4562
-186.628
91.1715
281.569
158.191
-439.76
-231.471
107.029
93.0656
-164.67
71.6044
136.77
-179.438
-170.243
397.998
-180.098
110.555
69.5423
172.91
-105.851
-67.0587
-95.9547
372.573
-276.618
332.273
-165.202
-32.6741
107.361
-74.6868
179.938
180.039
-359.977
-207.746
-248.822
-90.7705
349.571
97.86
-183.823
85.9629
-204.823
399.361
-194.539
160.128
-64.6723
318.658
-219.266
-99.3923
143.34
-57.6774
-219.739
-162.817
86.1924
-620.249
303.832
132.913
493.641
-501.557
7.91586
212.178
188.812
-400.99
113.841
45.3756
-370.368
-118.307
151.508
-155.285
15.9703
-303.734
-25.0038
-123.927
148.931
158.42
-296.608
138.187
121.989
275.298
-130.915
88.4254
42.4898
46.7592
-182.516
33.8163
-67.0786
33.2623
263.331
95.4394
262.215
-173.081
-89.1345
147.052
-80.4696
-396.945
275.671
121.274
-260.071
-360.178
186.81
56.0084
145.28
-456.339
311.059
-66.8752
-77.4951
144.37
32.6723
-124.148
91.4759
289.828
211.008
-3.1007
380.335
-78.449
-69.5032
430.102
-148.533
81.603
-134.482
52.8791
-464.241
260.802
203.439
-201.749
-245.702
447.451
-366.486
566.485
-199.999
280.96
146.848
-173.84
249.676
-75.8363
-164.496
266.297
351.942
-277.046
-74.8969
-179.296
290.589
-111.293
-184.524
-154.332
-115.008
-167.229
282.237
89.8354
29.1157
-118.951
191.545
-83.3666
440.472
-378.695
-61.7761
-187.111
116.746
70.3654
85.0263
268.863
-353.889
122.624
-33.1366
347.433
93.0385
-67.9687
161.034
-101.328
-29.5876
-225.969
514.179
-288.209
3.69932
191.694
-195.393
226.581
-395.038
168.457
-80.5239
-41.2056
121.73
288.787
98.829
-82.7683
-20.2278
102.996
-127.632
109.097
18.5354
-189.669
129.355
60.3137
182.87
384.328
96.3412
-37.1366
-270.661
-126.284
228.481
-443.913
413.734
-509.869
96.135
68.6029
223.039
-31.8223
-191.217
133.58
-65.3801
80.9147
-408.475
-77.4999
-88.4794
165.979
99.1597
-7.4837
-91.676
-111.968
45.6028
119.809
134.726
151.775
-329.383
177.608
-91.2553
161.185
-69.93
152.473
-357.296
361.071
-236.687
341.833
-82.8264
-362.061
-200.936
-287.652
473.861
-186.209
429.26
-324.286
-104.974
-9.31518
-343.004
352.319
-336.644
-176.318
512.961
-150.047
-9.02434
63.1328
-29.3165
-506.075
262.994
243.081
-158.596
-100.098
-69.6531
-65.1109
-48.6059
157.423
-96.6186
174.166
-554.707
382.758
171.95
97.2917
-161.294
-23.806
88.4521
-64.6461
181.351
-146.378
199.003
-319.45
120.447
322.408
-255.441
-66.967
87.411
-397.45
310.039
214.954
-98.8987
114.605
255.337
-88.952
-99.3843
108.796
-61.9856
474.777
-299.398
-175.379
-267.288
363.985
-96.6967
-123.236
191.882
282.895
-417.832
31.8674
385.965
-289.909
-192.492
144.691
-224.478
79.7875
-129.397
-83.2497
212.646
107.654
210.824
-318.477
38.4724
-266.299
-239.776
-93.8708
-34.6732
128.544
-203.163
326.154
-122.991
481.772
-175.875
413.843
-69.3258
-305.314
174.449
94.1815
4.97821
-274.44
-32.4668
306.907
57.3791
-373.831
-408.88
137.176
128.431
-16.7838
-111.647
166.715
-279.778
113.063
-108.873
265.943
-458.716
334.677
-77.6936
-81.0592
497.294
-149.861
-240.448
406.747
-166.299
218.913
-348.661
129.748
470.152
-111.892
59.3148
58.5344
-309.087
135.247
356.603
-206.64
-149.963
-171.132
297.192
-126.06
134.168
347.604
170.28
-270.106
99.8263
389.879
-107.404
360.669
129.413
-490.082
329.053
-226.075
-102.978
473.896
-502.824
28.9278
122.647
-73.2979
-49.3488
339.935
-224.807
-11.5638
-81.5475
-80.7911
-182.07
262.861
41.1069
-125.495
84.3884
-151.776
67.9821
-307.186
474.404
-167.218
-87.2799
-50.0597
-194.645
198.344
102.71
51.5974
-133.399
81.8017
288.309
4.24805
-292.557
-146.746
92.9963
53.7496
-100.815
454.139
183.895
124.464
-146.304
304.724
-236.839
155.276
335.815
53.9866
-158.119
-159.494
17.005
226.224
-251.436
79.1252
-141.047
240.897
-99.8497
61.184
-138.849
416.279
-204.101
-371.399
376.952
-5.55348
-133.378
494.046
66.9096
-137.663
70.7535
133.309
-68.3673
-141.604
209.971
-152.397
185.061
-71.2194
64.7964
24.908
-89.7044
59.6323
-129.187
69.555
-257.785
159.724
-97.7532
-69.4132
167.166
-267.753
-293.661
126.565
167.096
117.109
-84.4368
55.2767
-113.703
58.4259
58.9633
-188.36
145.164
139.685
-121.805
272.204
-150.399
-142.743
89.2587
53.4846
-82.9579
205.318
-122.36
-375.351
212.752
-183.439
363.377
151.652
-270.918
119.266
256.226
163.654
-419.879
-51.971
-32.3282
84.2992
331.447
97.8128
339.51
-147.044
-192.466
-157.71
406.184
-248.474
165.375
-70.9644
325.725
-254.76
327.681
121.679
-449.36
474.56
339.829
131.249
-471.078
249.324
-457.071
189.459
-25.9176
-163.541
-338.487
183.185
155.301
-129.399
16.7928
112.607
88.8825
19.2355
-108.118
-58.4546
-85.0575
12.3135
-383.712
-356.299
213.303
61.424
192.476
-253.9
-377.991
307.027
222.206
123.413
-345.619
-52.9691
108.254
-55.2845
-100.54
-151.904
252.444
568.608
-257.447
63.1117
135.787
-141.53
-280.033
421.562
-123.125
169.884
-221.693
385.244
-163.551
-360.845
44.9223
315.922
-178.129
-279.148
457.277
-69.5542
-60.3636
-564.255
366.718
197.537
300.486
-181.795
-118.691
-124.178
346.384
-166.973
69.2194
111.048
-188.548
157.184
88.4557
-162.312
-490.528
250.992
239.536
-173.687
93.3174
-266.001
97.897
-291.33
-290.406
-58.2359
-243.612
96.0587
-332.303
236.245
-203.34
-172.252
63.1023
109.15
-248.124
-68.9637
-114.571
-37.7136
152.284
-49.2334
-42.9071
92.1405
-320.904
224.949
26.9541
-93.5922
66.6381
158.129
-189.951
154.003
-365.613
211.61
3.16109
-277.601
-191.545
316.378
-124.833
-241.683
257.653
106.656
-132.833
-89.4342
222.268
403.297
-412.612
114.267
-73.1575
285.326
189.786
-475.112
-81.497
-92.1898
-78.5257
272.436
364.64
-367.74
94.3832
-5.50073
410.104
-126.199
-283.905
106.447
168.445
-274.892
139.091
-56.0256
-118.661
174.687
279.172
-121.6
-157.571
347.735
42.1436
131.267
-90.1598
-501.732
173.375
67.6024
-133.282
-130.442
68.2896
62.1528
-52.3087
168.228
-115.919
-141.919
-76.3544
218.274
23.4768
-98.1388
74.6621
-123.439
42.9155
178.304
-186.004
7.70042
231.992
-281.587
49.5953
-218.354
76.4346
-87.4411
-76.161
-51.0149
-71.5043
122.519
142.569
188.952
201.374
-225.477
179.217
178.015
-139.689
-38.3257
-379.658
271.5
108.158
237.193
-84.6506
336.126
161.168
335.051
103.19
-438.241
-130.124
-138.88
-537.846
251.054
286.792
225.573
-312.612
87.039
141.783
120.432
-95.0177
62.3436
-42.588
99.2988
-56.7109
-272.788
-220.8
493.589
-417.662
441.46
-23.7983
-267.348
103.241
-127.05
-457.958
-21.0782
479.036
210.146
244.629
-454.776
-123.848
-188.521
-149.987
-149.458
92.9184
-28.1221
-337.427
135.678
-32.6984
174.159
-129.13
-275.405
175.694
99.7108
83.2847
66.4279
-131.599
-143.649
275.247
142.692
-91.0946
416.415
-294.447
-121.968
-139.795
358.708
-209.285
-53.2612
457.151
24.1317
-114.335
-75.0773
189.412
454.658
-0.194449
-454.463
-93.2713
329.407
-236.136
116.385
82.5039
-198.889
-375.134
223.762
151.372
-130.165
-106.781
-168.623
140.418
-73.5083
-108.347
290.425
-182.078
137.58
143.131
-280.711
-150.238
-52.9449
-246.18
-178.154
424.333
117.337
476.438
-332.68
-143.758
-153.695
146.786
-93.0909
-53.6946
32.6471
-89.8228
202.193
-271.768
294.379
-352.615
-405.14
347.741
193.499
-317.346
230.61
181.488
441.189
-204.959
-239.9
164.253
93.9357
82.439
-91.7086
114.477
-166.786
-270.833
290.33
-19.4975
-277.356
-20.8496
77.9043
-139.99
62.0857
116.444
286.167
-159.603
248.513
-140.61
-107.904
-81.3047
142.489
-270.435
120.341
-188.708
311.028
-62.5718
-248.456
-260.844
470.99
484.816
-148.69
-370.069
267.162
102.907
-22.285
476.943
-222.479
420.482
-86.0436
-203.114
289.158
105.087
-263.048
157.962
11.2215
291.814
-334.611
-247.386
581.997
147.939
-348.207
200.268
-292.774
392.808
-100.035
-111.812
451.64
352.256
-126.594
175.678
-89.5809
369.583
-280.002
-80.4375
-66.3084
-248.215
155.564
92.6508
176.036
150.118
67.1315
-59.7471
-279.795
339.542
-386.129
-78.9873
-135.325
-197.47
-338.097
229.751
-412.872
412.872
177.518
-338.946
161.428
179.086
-340.79
161.704
231.575
79.4527
53.7345
36.5438
-90.2783
218.013
-371.501
287.698
-465.827
241.014
-37.7703
144.304
159.38
72.7443
197.882
-270.626
124.502
-69.8349
-54.6666
-71.867
-293.423
365.29
117.3
-187.712
70.4122
-77.7218
190.472
-112.75
331.905
4.37072
-77.3382
80.3363
-276.25
321.589
-45.3389
41.1271
148.332
91.1045
18.5012