/*--------------------------------*- C++ -*----------------------------------*\
  =========                 |
  \\      /  F ield         | OpenFOAM: The Open Source CFD Toolbox
   \\    /   O peration     | Website:  https://openfoam.org
    \\  /    A nd           | Version:  7
     \\/     M anipulation  |
\*---------------------------------------------------------------------------*/
FoamFile
{
    version     2.0;
    format      ascii;
    class       volScalarField;
    location    "14";
    object      p;
}
// * * * * * * * * * * * * * * * * * * * * * * * * * * * * * * * * * * * * * //

dimensions      [0 2 -2 0 0 0 0];

internalField   nonuniform List<scalar> 
20933
(
-0.00175068
-0.0160696
0.0206345
-2.3596e-05
-0.00240108
-0.00295314
-0.0856268
0.583542
-0.0390188
0.571042
-0.0714516
0.431701
-0.0339066
-0.00172995
-0.00338558
-2.72209e-05
0.088587
0.362376
-0.0636077
-0.0150151
-0.033026
0.443819
0.575116
-0.0718995
0.018037
0.888152
0.00484601
-0.0282868
-0.0774765
-0.0638813
-0.00112077
1.00662
0.566066
-0.016946
-0.000518884
-0.00119741
0.637064
6.7822e-06
0.00592381
0.317752
0.0364924
0.677947
0.742801
0.00414703
0.887834
-0.0394886
0.504852
0.254053
-6.44599e-05
-0.0373433
-0.00060828
0.0926546
0.000411719
-0.000969513
-0.010829
-0.0428212
-0.0273844
-0.00144362
-0.0117039
0.0995896
0.929398
-0.0308853
-0.00828899
0.536434
-0.000142962
-0.00541675
0.867768
-0.00589946
0.0629751
0.879985
0.0199503
0.0507257
-0.00307565
-0.0266018
0.870371
0.0173483
0.870698
-0.0473492
0.313336
0.818015
-0.00461524
-8.16206e-05
-0.0823959
-0.0356293
-0.0303883
0.74751
-0.028474
1.08373
0.535031
0.922624
0.474938
-2.50165e-05
-9.29348e-05
1.05545
0.231767
-0.00757921
1.06428
-0.0015863
-0.0586526
0.613278
0.930762
-0.0206367
0.94484
0.0311232
0.168936
0.0410202
0.826486
0.0603909
-0.0206725
0.795743
-0.0840286
-0.0876475
-0.0243908
0.0229981
0.0268158
-1.21525e-05
0.731216
-0.0042034
0.00482634
0.807968
-2.98591e-05
-0.0304071
0.358973
-0.0163928
-0.0168699
0.36535
0.522538
-0.0274056
1.01761
0.745522
-0.0360878
-0.0362528
0.0366701
0.00609
0.831436
0.152688
0.31339
-0.0335942
-0.016324
-0.0535768
-0.0359568
-0.028991
0.0234397
0.955696
0.198397
0.839087
0.596723
-0.0253413
0.491674
0.00551368
-0.0249166
0.871684
-7.41056e-05
-0.0312524
-3.70045e-05
0.606504
0.759468
-0.0766574
-0.0460702
-0.0359469
-0.0207228
-0.0759285
-0.00133101
0.21433
0.258294
1.07619
-0.0193195
-0.0774723
0.0132492
0.627247
0.298821
0.891567
0.774877
-0.0175795
1.11519
0.553946
-0.00182853
0.913725
0.0346966
0.819743
0.851873
1.84455e-05
0.951849
0.763798
-0.0142078
-0.0497325
0.02152
0.59021
0.0222305
1.01738
0.518344
0.113067
0.625816
0.0736306
-0.046428
0.391832
0.948267
0.193306
-0.0143771
1.02706
0.289728
0.0226916
0.0144
1.00164
0.967077
-0.0345626
-0.014843
0.0947528
-0.0422611
-0.000735867
0.86201
0.908042
-0.0269895
-0.0455615
0.809085
0.869764
-0.00327761
0.807603
0.0724246
0.00775759
-0.0214129
0.777935
0.980347
0.479229
0.78955
-0.0178337
-0.0126022
-7.51217e-06
-0.00249436
-0.00185516
0.351948
0.00779884
0.816992
-0.0509085
0.763811
-0.0264724
0.0432569
0.885804
1.07322
0.768777
0.863747
-0.0456881
0.668235
-0.0141933
0.184958
-0.00394209
-0.0179104
0.124055
0.097362
-4.80403e-05
-0.0201536
0.988528
0.375408
0.00443781
-0.0440084
0.00908095
-0.0886919
0.686052
-0.0501455
-0.0375007
-0.031505
-0.0146575
-0.000222761
-0.0260903
-0.0710013
0.954118
0.181156
-0.0224106
0.771188
0.963276
-0.0281128
-4.22924e-06
-0.0334907
0.866883
-0.0559724
0.924938
-2.43362e-05
-0.0463
0.795857
0.850944
-0.00980604
-0.0251777
1.01329
0.0535173
0.107469
0.938802
1.01203
-0.0308435
0.806151
0.249221
0.811443
0.701174
4.76261e-06
0.171832
0.639989
-0.00197006
-0.0614346
0.220782
-0.10374
0.280193
0.166717
-4.14007e-05
-0.00114638
0.924306
-0.00311408
-0.0719605
-0.0382885
0.447954
-0.0284092
0.818343
0.257776
-0.0343754
-0.0495017
0.605792
0.409154
-4.67717e-05
0.917167
0.752109
0.906079
0.00704187
-0.000159807
1.00737
-0.00307233
-0.0243368
0.392515
0.201138
-0.0338195
0.0354996
0.763284
1.05344
0.851504
0.309355
1.12482
-1.12989e-05
-0.0161171
0.851762
-0.0467147
0.63432
-0.0244803
0.879928
0.235943
-0.000858805
0.228999
0.725893
-0.0550162
0.946345
0.74284
-0.000235067
0.0267499
0.558634
0.38233
-0.00240567
0.766793
-0.00851052
1.10519
-0.0370962
-0.0266484
-0.0193787
0.848403
0.75435
-0.0319767
0.602076
0.920729
-0.00324594
0.684803
0.741485
1.11568
-0.00249746
0.463276
0.115299
-0.0464491
-7.24291e-05
0.877974
0.683834
0.161028
0.90109
0.328506
-0.0280157
0.657535
0.262842
0.380525
1.10553
-0.0258805
0.357613
0.904383
-0.0451746
0.211006
-0.0563135
0.543483
-0.0253979
0.48455
0.168344
0.3461
-0.000696721
0.511523
0.898823
0.701571
-0.0879894
-0.013136
0.992528
0.999083
-0.00354881
-0.0440409
0.813849
-0.0682141
0.0319779
0.684689
-0.0205681
1.14756
-0.00232393
0.494532
-0.00870449
0.904174
0.734046
0.103174
0.0299077
0.116852
0.295055
-0.00157764
0.811445
0.0540564
0.549254
1.0954
0.00846329
0.021877
-0.00221156
0.267252
0.175975
-0.0248379
0.704688
-0.000419832
-0.0341528
0.00710836
0.0670567
-0.0241641
-7.51775e-05
-0.0341921
0.377519
-0.0691466
0.00636312
-0.0365619
0.230932
0.178272
-0.0387975
-0.0455586
-0.000968201
0.063868
-0.0709905
0.00653292
-0.00377693
0.41276
0.692115
0.228941
-0.00022367
1.03022
0.00672716
-0.000469327
0.0333968
-0.0410522
-0.0329372
0.960285
-0.00256126
0.255663
-0.0587658
-0.0648924
0.670656
-0.0233712
-0.0400581
-0.0572242
-8.32558e-05
0.0412568
1.04635
-0.0820633
-0.0485742
0.70018
-0.0345713
0.696164
0.498431
-0.00346886
-0.000661234
0.754878
1.08312
-0.0909835
0.577082
0.365613
-0.0401292
-0.0411825
0.81257
0.148306
-0.0762447
-0.0493617
-0.0307126
0.0629102
0.992821
0.316904
-1.99611e-05
0.947348
0.00231673
-0.0352423
0.785395
0.0074588
-0.00903949
-0.000286085
0.0867121
-0.0315509
-1.02572e-05
0.57146
-0.0484518
0.816335
-0.000193799
-0.00111473
-0.0359802
-9.23857e-06
-0.0953109
-0.0666212
-0.00144722
-0.0272903
-0.0497992
0.772511
0.907603
-0.0028784
0.00101139
-0.0510864
0.914038
-0.00783121
0.913909
-0.0156669
1.10125
0.703013
0.477939
1.06219
0.0702788
-0.00685487
0.114286
-0.00443878
0.898048
0.806979
-0.0242123
-0.00815328
0.182263
0.0110182
-0.00565871
-0.0251523
-1.75469e-05
0.778857
-0.0486502
-0.0339344
-0.0130522
-0.0199061
0.494981
0.243744
-0.00288425
0.00175623
-3.41704e-05
1.10134
0.983945
-0.00292233
-0.0236532
0.018549
0.804722
-0.0505359
0.369289
-0.0456118
0.860464
0.478043
-0.0331877
1.1394
0.0539538
0.843059
-0.00900936
-0.0760764
0.943255
-0.00375197
1.09225
0.787779
1.11404
-0.00653115
-0.0096059
-0.0272659
0.138921
0.00674864
-0.0209098
0.844094
0.870443
0.695638
0.906249
1.08195
0.56981
0.899524
0.700825
-0.00142371
0.764588
-0.0396491
-0.0444559
-0.000877678
0.00620776
-0.0473517
0.593364
0.117355
0.817408
-0.0139498
0.220287
0.79071
-0.00345617
0.0261699
-4.34248e-05
-2.3055e-05
0.591063
-0.0368303
-0.0387515
-2.64989e-05
-0.000730072
0.167706
-0.000179032
0.225416
1.10698
0.592855
0.549495
-0.0276436
0.810067
0.282388
-0.00654282
-0.0234303
-0.00229155
-0.00028744
-0.000450045
-0.0128618
-0.0690084
0.616339
0.124271
-0.0421104
-1.44285e-05
0.848761
0.1183
0.0280235
-0.00229048
0.32422
-0.000179001
-0.0402387
0.791793
1.02934
0.751346
-0.0268127
0.758876
-0.028888
-0.0292278
0.615288
-2.59774e-05
-0.0179052
0.474616
0.560045
-0.0322466
0.794933
0.973335
0.774678
-0.0426926
-0.0467722
0.0153982
0.271687
0.742064
-0.0027725
0.938656
-0.0249253
-0.0748012
0.127048
1.04084
0.622148
0.815019
-0.064421
1.08106
-0.0301786
-0.0277519
1.12503
0.0889519
-0.0552862
0.832671
0.86069
-0.0323116
0.734575
0.914661
0.854096
0.800796
0.843298
0.715077
-0.0107589
-0.0298188
-0.000308406
-0.0681875
0.897594
-0.0640849
0.423646
0.410124
-0.0408096
0.233828
0.475304
0.912132
0.232681
-0.00116499
0.0700704
-0.0325466
0.0552177
0.0421459
-0.0706654
0.792992
0.939735
0.174053
0.906321
1.089
-0.00204799
0.00117991
-0.00368996
-0.0225129
0.658466
1.10398
0.327228
0.812151
-0.0214054
0.728568
0.746413
-0.0204595
-0.0369426
-0.0511426
0.4212
-0.00671012
0.138451
-0.0382351
-0.0506894
0.82096
-0.00554516
-0.00394816
0.862851
0.22336
1.01248
-0.0341683
0.690257
0.0406143
-0.0342214
0.934845
1.02253
0.896693
-0.0166112
1.02527
-0.0397193
0.930541
0.0893603
0.892273
-0.0329424
-5.16122e-05
0.894711
0.935497
0.929913
0.895486
0.587796
0.220382
0.674068
-0.0550296
0.895064
0.788963
0.121647
0.122309
-0.0105779
0.0763823
0.805705
-0.0466587
-0.0313647
0.913624
0.905183
-0.0333545
0.883854
-0.0795449
0.306482
-0.0107861
0.91936
0.933879
1.08974
0.923343
-0.00226312
-0.0223043
-0.000953153
-0.0389823
1.00643
0.527494
0.793452
-0.0491405
0.704051
0.0220009
1.0099
0.00742083
0.909814
-0.0100836
0.986688
1.02834
-0.0237679
0.326783
0.981214
-0.00224858
1.04588
0.00395653
-0.00274522
-0.0376325
0.848725
0.45089
-0.0508988
0.894185
1.04448
0.740831
0.0576489
-0.03142
0.0993037
0.903386
1.02529
1.12045
0.511171
-0.00253365
-0.0288635
0.802768
-0.00104915
-0.011809
-0.00113851
-0.0152464
-0.0482222
-0.0405292
0.95482
-0.00269509
-0.000719032
0.773036
0.510674
-0.00253968
0.375714
0.000311708
0.43778
0.78
0.88993
-0.044999
0.357062
-0.00848039
0.0260363
-0.00311064
0.911286
0.959901
-0.0561394
-0.0640708
-0.0657731
-0.0198372
0.899302
-0.00951998
-0.0314167
-0.0704556
0.0402858
1.06636
-0.0672123
0.187072
0.915617
-0.00605011
0.270556
-0.00124077
-0.0594614
-0.00268286
-0.00107101
1.06066
0.681099
-0.0626616
0.13172
0.707188
0.873752
0.785161
0.0336057
-0.0334413
-0.0230262
-0.03008
0.754443
-0.0280177
-0.02894
-5.03303e-05
-0.0283913
-0.00116711
-0.0514781
0.855349
-0.0555659
0.912425
0.895745
-0.0433013
-0.0209362
1.08292
0.721613
0.148882
-0.0231728
0.722939
-0.0292697
0.646514
1.06161
0.664739
-0.0262809
-0.0256409
0.832053
-0.0413873
-0.0570751
-0.031208
0.97148
-0.0312634
0.103983
0.708951
0.590534
0.765847
-0.00601237
0.637072
-0.0179882
0.912465
-0.0754667
0.460824
-0.0240649
-0.0294417
-0.000780755
-0.00127783
0.000139689
0.976136
-0.0371456
0.692399
0.290975
0.0061999
-0.0449233
0.543509
1.09485
0.996269
-0.0130941
0.511855
0.00622761
0.250467
-0.0294422
0.400778
-0.0458464
-0.00114329
0.741547
-0.0395538
0.00911689
0.963105
0.824053
0.931316
0.0605105
0.0604209
-0.0156755
0.527366
0.0520882
-2.27938e-05
0.981275
0.343409
0.494933
0.135664
-3.24395e-05
-0.0112674
0.0003351
0.477303
-0.000345607
-0.0222569
0.000905162
-0.0312993
1.00365
-1.99884e-07
-0.0363572
-0.0454656
1.03802
0.0157989
-1.56902e-05
-0.0467281
0.347763
0.776261
-0.0212178
-0.0184903
-0.0135432
0.790855
-0.0239863
0.496429
-0.0304341
-0.0436577
0.273619
0.772314
0.243457
0.510549
-0.00285166
0.822537
1.03553
-0.0162975
0.686404
-0.0454474
1.05382
1.01985
-0.0453305
0.261875
0.225687
0.680897
-0.000272485
0.893407
1.11491
-0.00594083
0.429908
0.601381
-0.000576653
6.20493e-05
-0.0202987
1.09361
-0.0111375
-0.0359557
0.904363
-0.00111829
0.669703
0.924709
-0.0287365
0.986493
-0.0347539
-0.0214517
0.928117
0.513472
0.764637
-0.00302031
0.93316
0.480515
0.88903
-0.0590489
-0.00910884
0.433955
0.981057
0.928457
0.99406
0.903564
0.0613109
-0.0381181
0.157289
0.711282
0.890694
1.03453
-0.0373401
0.575639
1.05727
0.853529
-0.000492912
-0.0456136
-0.0214694
0.398298
0.0214429
0.961351
0.517501
0.887332
0.285822
0.0382021
0.892202
0.0892442
0.722083
-0.03485
0.220578
-0.0111336
-0.0347454
-0.0523441
1.03212
-0.0495764
-0.0303217
0.0659721
0.458577
0.260802
-0.029637
0.171586
0.0239493
-0.0510843
0.748345
0.451911
0.803264
-0.0381049
0.923015
-0.0444005
-0.000428379
-0.0115769
0.00482477
-0.052382
-0.0510438
0.00111957
0.610081
0.998349
0.443107
0.206176
-0.0131834
-0.0542833
0.679418
-0.00291836
1.05539
0.620695
0.00705268
-0.0272715
0.0907345
-0.0194146
-0.0201467
-0.011206
0.0515391
-0.0626892
0.595799
1.0146
0.945793
0.553299
-0.00402671
-0.0347514
-0.00160545
-0.0127768
0.757796
-0.0102636
0.733829
-0.0429577
-0.0191253
1.00569
1.02373
-0.000438175
0.901105
0.942495
0.381115
0.0038559
0.439723
0.75283
1.02087
0.653785
-0.0319875
1.00197
0.240484
-0.0265367
-0.0336861
-0.0377804
1.04011
0.00409607
0.914795
0.630198
0.99347
0.0170897
0.673854
0.711966
-0.0501853
0.929282
0.0861202
0.973522
5.26188e-05
0.660607
0.727144
0.737012
-0.001271
0.133746
-0.00333201
-0.038437
0.616022
-0.0236891
0.691954
0.677253
1.09421
0.0290572
0.978688
0.0196931
0.0164953
0.201371
0.899627
0.314063
0.0857665
0.199101
0.805107
-0.00261762
1.07775
0.000218295
0.0482369
0.294772
-0.0260417
0.90756
-0.029938
0.949467
0.78484
0.364448
0.146906
0.429409
-0.000721067
0.124877
0.969262
-0.0384879
0.053967
0.645029
0.249484
0.0746654
0.152685
-0.0167457
1.00493
-0.0316172
0.192257
0.0480217
-0.046687
0.886655
1.10395
-0.0354425
-0.0578326
0.00508276
0.260561
-0.000248683
0.366945
1.02522
0.990269
0.0170852
0.423358
-0.000221804
-0.0432531
0.831422
0.003155
0.515368
-0.0278702
1.07503
0.814238
-0.0646159
0.00255488
-0.025084
1.07738
-0.0355734
-0.00173366
-0.0197858
0.373713
-0.0490758
-0.0245525
0.341957
1.00873
-0.0733397
1.04919
1.12186
-0.0254252
0.04624
-0.000237592
-0.00343675
0.00597736
-0.0337539
1.06939
-0.024036
-0.00494542
0.732616
-0.0521214
0.793521
-0.00841623
0.129567
0.796379
0.739292
-0.0674673
-0.0201202
-0.0555113
0.857312
-0.034596
0.53886
-0.0403747
-0.0142302
-0.0413131
-0.00691918
-0.00550812
-0.0720654
-0.0649842
0.0231034
0.0114507
0.331454
-0.00264587
-0.0372827
-0.0521255
-0.0250824
-0.0117256
1.00396
0.128434
-0.0277952
-0.00417792
0.840266
-0.00188842
0.750461
0.0359731
0.205327
-0.00945947
0.789216
0.543908
-0.046589
-0.0191566
-0.0245851
0.664376
-0.000339213
0.735226
0.854306
0.000309813
0.016228
0.34556
0.310228
-0.0441026
0.40649
0.818091
-0.0252733
0.707501
-0.0464789
0.0466937
0.685446
1.02489
0.106168
-0.000466668
0.886324
0.721924
-0.0291616
-0.0417827
-0.0869497
0.04784
-0.0269841
-0.00868244
0.833127
-0.0723746
0.000555853
0.836958
-0.0198771
-0.0340122
0.57999
-0.00468046
0.41564
0.730337
0.0900326
0.75026
-0.0170579
0.991068
-0.0367739
-0.000379431
-6.07349e-06
0.169994
-0.000379391
-0.0197123
0.424189
0.00327398
-0.00171212
-0.0287307
-0.0221892
0.512112
0.908533
-0.000591017
-0.0209146
0.0124508
0.699719
-0.0598606
-0.0239072
-0.0286568
0.211874
0.584517
-0.0129623
-0.0131718
0.0324104
0.786039
0.841538
0.392237
0.744367
0.938947
-0.00721359
0.702194
0.311171
0.108639
-0.0263088
0.0622907
1.1196
0.00110758
-0.0353766
-0.0427208
0.786717
-0.0159703
-0.0015602
-0.0401686
-0.0458837
-0.00471497
0.910515
0.619053
0.725086
0.846697
0.747729
-0.0193197
0.381353
0.62318
0.167781
0.892191
0.495747
0.64353
-1.18246e-05
0.642314
-0.0363109
0.479526
0.651968
-0.0699519
0.252236
0.237941
-0.0268592
-0.0101235
0.198587
0.46224
1.01996
0.501724
-0.000100494
0.573748
-0.0219366
0.660725
0.526948
-0.0166474
-0.0298738
0.703805
0.907822
0.345686
-0.051342
-0.030193
0.461678
0.709861
-0.0403739
0.823505
-0.0306042
0.404258
0.0760181
0.963005
-0.00117078
0.00071214
-0.00667429
-0.0313527
0.0159754
-0.0219181
0.728772
0.842504
0.00781224
0.573164
0.0088852
-0.0173603
2.62177e-06
0.497293
-0.00895274
0.601616
-2.04318e-05
0.723375
-0.0431546
0.807914
0.00878401
0.861464
-0.0443966
-0.0150453
-0.000534907
0.917426
-0.0405794
0.257138
0.386525
0.0121863
0.799465
-0.0149533
0.00242836
-0.0326245
-0.00558241
0.914881
-0.00714152
-0.0315606
-0.0239764
-6.32736e-05
-0.0197711
0.817227
0.00018391
-0.0475978
-0.00098576
-0.00280243
0.764779
0.00660863
0.200338
-0.0227999
-0.000241311
-0.0100277
0.088435
-0.0333185
0.000585583
-0.0158285
0.518747
-0.000238045
-0.0286773
0.0736271
0.39216
0.891696
-0.0202027
0.00489326
-0.0460727
-0.0253099
0.757752
0.831527
0.920965
-2.55405e-05
0.461703
-0.0389911
-0.036233
0.625369
-0.0283791
-0.0165391
-0.0200486
-0.0105183
-0.0274357
-0.0256056
-0.0193154
-1.71038e-05
0.0321833
0.716087
0.0142191
0.566864
0.204296
0.138104
0.476786
0.334983
0.6403
0.0689172
0.728572
-0.000519237
-0.015838
0.688279
-0.0512008
0.754237
0.725102
-0.0271797
-0.0452258
-0.000175856
-0.0341878
0.147018
-0.0243163
-0.0249114
-0.0278763
-0.0218803
-0.040572
-0.032828
-0.018979
-0.0100666
-0.0523673
0.641681
-0.0377214
-0.00346566
-0.0456622
-0.000812388
-0.0435642
0.826046
0.799502
0.494993
0.964788
0.00118174
0.0272643
-0.0349001
9.20875e-06
-0.00598506
-0.000235687
-4.31594e-06
0.479942
0.348524
-0.000260784
-0.0352073
0.283373
0.466663
-0.0432767
-0.0241764
0.00200014
-0.00586299
0.000844131
-0.00184078
-0.0426344
-0.0294382
0.992942
0.000470448
-0.0274997
-0.0288412
-0.0356321
-0.0182243
-0.0267297
-0.000199878
-0.019388
-0.026035
-0.0394079
-0.0385155
0.29236
-0.0225304
0.572777
-0.0344225
-0.00394452
0.0361036
0.750887
0.781869
0.619785
0.0416567
-0.0340937
-0.0118673
-0.0208601
-0.0376578
-0.0288055
-0.0440152
-0.0318901
-0.00988127
-0.00816122
-6.23886e-05
0.190009
-0.00814907
-0.000615072
-0.00405571
1.02394
-0.0322189
-0.0677408
0.974969
1.00027
-0.0271011
0.985253
0.939861
0.771934
-0.00251573
-0.040115
1.00359
-0.00096402
-0.000947373
-0.00342135
-0.0312015
-0.0120889
0.00910894
-0.0298519
-0.0362672
-0.034823
-0.0135981
-9.51876e-05
-0.0421653
-0.0133237
1.08463
-0.0289704
-0.021069
1.08363
-0.00746839
1.04251
0.985405
0.717939
-0.0235111
1.08248
0.248961
0.86722
0.0282374
-0.000545723
-0.00584201
-0.00342527
0.13832
0.902811
-0.0033231
-0.000205587
-0.0324289
-0.000339477
-0.0655699
0.461033
-0.000260899
0.748108
-0.0421725
-0.00765535
-0.040884
-0.0244112
0.404199
-0.00823051
0.994574
0.00086932
0.935496
0.00991611
-0.0359351
-9.04635e-06
-0.0458843
-0.0101158
-0.0431248
0.849707
0.896676
-4.79301e-05
0.999126
-0.0384412
-0.000929081
-0.0206779
0.94373
-0.0865518
-0.000956649
-0.000895433
-0.000135377
-0.000386222
-0.00017807
-0.00187442
1.01237
-0.000459158
-0.00398747
-0.00454374
1.05423
1.12472
-0.0077541
-0.0438081
0.766383
1.08013
-0.0439477
-0.0328113
-8.12381e-05
0.0533363
0.919228
0.749469
-0.000187166
-0.0256053
-0.0415518
0.956267
-0.0707113
-0.0200682
-0.0189672
-0.0171589
-0.0148638
0.796037
-0.000157077
0.975512
-0.00440777
1.03844
-0.0023327
0.990367
-0.0232798
0.191973
-0.0200428
-1.07769e-05
0.000322761
-0.0123554
-0.024488
-0.0115085
-0.000196159
0.000260596
-0.00410703
-0.0394674
-0.000239283
-0.0213961
-0.0205221
-0.000137293
0.248493
-0.000719547
0.747044
-0.033681
-0.00928414
0.000958537
-0.0758214
1.06619
-0.0184018
-0.0141988
-0.0148083
-0.046212
-0.0261985
0.726917
0.785824
0.00765821
-0.0212535
0.0015795
0.287486
0.975176
-0.0444625
0.710655
0.816514
-5.71493e-05
-0.0477753
-0.0272999
0.00079334
-0.000863294
-0.00119356
0.000564374
-0.0102496
-0.0113681
0.0122581
-0.0231588
0.0335605
0.529573
-0.0362116
0.748393
0.339482
-0.0737031
-2.86332e-05
0.000248154
0.909485
-0.00249489
-0.0440101
-0.000967008
-0.0418344
-0.0206945
0.606155
0.163334
1.01359
-0.000189339
-0.000474243
-0.0371251
0.570658
0.00368081
0.972796
0.34772
-0.0298707
-0.0171702
-0.0491126
0.0232508
0.720145
0.100836
0.916998
-0.0475187
-0.000471185
-0.00356995
-0.0178925
-3.9069e-05
-0.00105007
-0.00501121
-0.0198649
0.0100199
-0.0426767
-0.000158911
-0.0441821
-0.0550637
-2.94926e-05
-0.000150111
0.00355027
0.000121597
-0.000628524
-0.00749727
0.0685014
0.0003611
0.153414
-0.0179086
0.761078
-0.0374184
-0.0463655
-3.97399e-05
-0.0448384
-0.0455061
-0.00806536
-0.0107965
1.23828e-06
-0.0094164
-0.00021209
-0.0429485
0.164758
0.321567
-0.088919
-0.000214143
0.137609
-0.0523594
0.814394
0.655309
0.781919
-0.00231731
-0.00712452
-0.000702248
-0.00899211
0.939933
0.728624
-0.00408882
-0.0049187
0.555109
0.727246
1.01704
-0.000277287
-0.00520803
-0.0152976
-8.44817e-05
-0.000307709
-0.000152129
-0.00157861
-0.00442303
0.759495
-0.0134866
-0.000664129
0.0105945
5.01529e-05
0.150864
0.00579307
0.588005
0.000201047
0.358387
-0.0442804
-0.0429072
0.43855
0.361489
-0.000174567
0.436287
0.971346
-0.044753
0.779184
-0.0429303
-0.00796671
0.833923
-0.00297595
0.750289
-0.00372654
0.0200396
-0.0360844
-0.00982986
-0.0217609
-1.37087e-05
-0.000587999
0.0605887
2.61802e-05
-0.018478
-0.0379389
0.982438
0.0109722
0.00294825
0.744722
-8.40622e-06
-8.98954e-05
0.0102687
-0.00209115
0.965087
-0.0026098
-6.48271e-05
-0.0231019
0.292347
-0.0278844
0.000611742
-0.000113963
0.248969
0.00944594
-0.000102442
0.893995
1.04935
-0.000350267
0.0957495
-0.00152129
0.792393
-0.000856263
-0.00420236
-0.000196825
6.97718e-06
-0.0350283
0.00323842
0.000441567
-0.0819031
-0.00173658
-0.0222602
-7.08035e-05
-0.000725956
0.0126079
0.841835
0.880412
0.0083021
0.722296
0.194503
-2.49177e-05
0.732331
-0.0100137
0.00109974
0.00329607
0.0726892
-0.000808366
0.0523617
-0.001772
-0.0231887
0.460451
-0.0249819
-0.019602
0.377993
0.614269
0.354356
-2.99676e-05
-4.24852e-06
-0.0210945
0.55161
-0.00804827
-0.0674715
-0.000422858
0.726028
-0.0189747
0.841949
0.647915
-0.0183993
0.394795
-0.00111762
0.752448
0.148638
-0.0423631
-0.00034469
0.000500571
-0.0164078
-0.0193476
-0.0141881
-0.0236789
0.322469
-0.0100229
0.558814
-0.000451325
0.0042753
-0.000888519
0.28389
0.0437458
0.00148004
-7.46907e-05
0.036843
0.526318
-0.0284527
0.0309393
0.0264986
0.208887
0.0224263
-0.00100809
0.000102316
0.816304
0.868537
0.901638
-0.000196198
0.871566
0.800274
0.87709
-0.00336838
-0.000339814
-0.0001091
0.594239
0.676579
-0.0665212
-0.0479387
-0.0334006
-0.0184594
0.229851
-0.0167428
-0.00849105
0.706598
0.000783192
-0.0150844
-2.46792e-05
-0.0194269
0.875945
-0.0358161
-0.00058053
1.11058e-05
0.945037
0.799745
0.117913
0.527674
-0.0155891
0.0979223
-0.0188127
0.0781622
0.0597692
0.0467184
0.501566
-0.0230917
0.319597
-0.000305976
0.853666
-0.0160498
-0.00927579
0.780752
0.0318245
-0.0172907
-0.0363851
0.0826033
0.369299
0.00711806
-6.6938e-05
0.710942
0.000101408
-0.0194996
0.181618
-0.000653578
-0.00597631
0.000732904
-0.0412356
-0.0297286
0.157564
-0.000551787
0.135183
-0.0221467
0.116285
0.0990944
-0.0148945
-0.0248267
0.0847714
-0.0361176
-0.0178286
-0.0147484
0.612722
-0.0205299
-0.00815848
-0.000198353
-0.0331116
-0.0531314
-0.000309319
0.62666
0.83786
-0.0357747
-0.026204
-0.0171283
-0.00946688
-0.00033486
-0.00622033
-0.00339474
0.11567
-0.000530399
0.023424
-0.0398733
-0.0315379
0.000402391
-0.000424673
0.600838
-0.00430326
0.285201
0.650028
-0.0107562
-0.0500379
-0.030386
-0.000103259
0.257654
-0.0405629
-0.0347934
0.2292
0.431759
-3.41063e-05
0.201807
0.461738
-0.000498901
0.334713
-0.0178914
0.00726688
0.707455
-0.00652879
-1.11316e-05
-0.000264592
0.681567
-0.0312913
-0.0281188
-0.0353853
-0.0183808
-0.00877196
-0.0149676
-0.0333862
0.297723
0.913248
1.00236
0.77206
-0.000374111
0.59596
0.268185
-0.0217367
-0.0362729
0.582005
-0.0423973
-0.0529116
-0.000692629
-0.0314359
0.74417
-0.000141503
-0.0554526
-0.0138602
0.0329563
0.000170321
0.784529
-0.0459577
0.769786
-0.0269726
-0.0257108
0.00576866
-0.000792728
0.684827
-0.0207194
-0.00896298
-4.5117e-05
-0.0287957
0.0774297
0.401781
-0.0149747
-0.000744651
0.426963
-4.03436e-05
0.549191
0.371782
-7.84169e-05
0.553814
-0.0467414
-0.00033757
-0.0176271
-0.000220237
8.69055e-05
-0.00403931
0.657243
-0.0313813
0.000121235
-0.0481231
-0.0172525
0.660676
0.878451
-9.31543e-05
-0.0189029
-0.00599119
-0.0127267
0.706909
0.0330524
-4.80896e-05
0.516174
0.395439
0.762284
-0.0136894
0.000279263
0.59101
-0.00327919
-0.0394495
0.0380049
0.926685
-0.0357663
-0.0203746
-8.67234e-06
-0.00852262
0.920958
-0.0403884
1.03117
0.386102
-0.0144127
-0.000384921
-0.0281037
-0.0114103
-1.30008e-05
-0.0188437
0.908252
-1.21477e-05
-0.0208682
0.919306
-0.000138071
-0.0190053
-9.06969e-06
-0.001554
-2.00529e-05
0.10155
-0.000751244
-0.00147801
-0.0584282
-0.00113231
-7.66996e-05
-2.11952e-05
-0.00017612
-0.0270852
-1.87578e-05
-0.000610833
0.00373468
-0.0206513
1.026
0.122554
-0.00829337
-0.00461003
-1.8217e-05
-0.0211886
-1.39463e-05
0.290024
0.751687
-0.00215832
-0.01874
-0.00993051
0.216869
-0.000209099
1.07139
0.00104761
-0.00100568
0.540827
0.014286
-5.52318e-05
-0.0373447
0.742192
-0.000296491
0.73194
0.752772
-0.0242346
-0.0380123
0.85602
-0.0201508
-0.00146112
-0.0424377
0.631219
0.29298
-0.0390886
-0.000436276
0.887506
-0.000488713
0.0292959
-0.00500263
-0.00209263
0.99159
-0.000423774
-4.95282e-05
-0.0281697
0.494994
1.036
0.734355
1.09387
-0.00612525
0.974915
-0.000575132
0.611299
-0.00280864
-0.000751436
0.398255
-0.0224064
0.271049
-0.00019784
-0.0525498
1.04351
-0.0242851
0.0400648
0.000492123
-0.00079343
0.447485
0.00136621
-0.0383615
-5.44355e-05
-0.0231019
-0.00011825
1.06057
-0.0208528
-0.0310588
0.209648
-0.0276102
0.373819
0.730802
-5.99135e-06
0.0035281
0.45618
0.785107
1.0762
-2.4622e-05
-0.0166374
-0.0239948
-0.00121073
0.50202
0.547814
-0.0223081
0.92869
0.308092
0.450021
-0.0175846
0.709274
-0.0391742
-0.000317117
-3.79822e-05
-8.63828e-05
-0.000159132
0.000263539
-0.0272472
-3.03165e-05
0.000367707
0.00959504
-0.000104593
0.559242
-0.0229792
-3.01069e-05
1.04355
2.71616e-05
-0.00029425
0.880238
1.07449
-0.0457832
-0.0134294
0.848046
-0.0105903
0.968228
0.180619
-0.000449311
-0.057143
-0.0212587
0.00114248
0.00021953
0.764501
-3.36051e-05
9.13457e-06
0.933741
-0.000254245
0.000759183
-0.039689
-0.0266469
-0.0356016
-0.000157198
0.222278
-0.0381885
-4.55915e-05
-0.0345055
-0.00148737
0.575304
-0.000110344
-0.000142487
-0.00137504
0.912253
-0.0105218
-0.00524532
-0.00169202
0.0010052
0.885132
0.0150926
0.341184
0.852755
-0.000599403
0.994554
0.827577
-0.00933275
-0.0569343
1.46525e-05
-0.0237584
0.967925
0.00158405
-0.000308145
-3.70943e-05
-0.0397968
-0.00529629
-0.000425952
-9.87788e-05
0.985271
-5.84197e-05
0.770435
-0.0186055
-0.0631974
-2.98174e-05
-0.0237136
-0.000800844
0.869018
0.882712
0.421563
-0.00156714
-0.0522916
-0.0478827
0.369789
0.278991
0.541635
-0.074179
-0.0432932
-0.0459106
-0.000552116
-0.001298
-0.000520428
-0.00260523
-0.0018398
-0.00219672
-0.00287732
-0.00495158
-0.0375826
-0.00481905
-0.00353349
-0.0414976
-0.000595414
-0.0031003
-0.000148084
1.13718
0.24393
-0.00433537
0.00222512
-0.00367401
-0.000118731
-0.000728396
-0.00478958
-0.00407715
-0.047434
-3.37183e-05
-0.0462477
-0.00111547
-0.000691648
-0.000153374
-0.0384238
-0.0387357
-0.00564032
0.916187
-0.0116697
0.754007
-0.0450944
0.946978
-0.0531068
-0.0543043
-0.055162
-0.0557582
-0.0553952
-0.0562259
-0.0558475
-0.000486669
-0.0555619
-0.0543666
0.877623
-0.0540202
0.0224736
-0.0498084
-0.000865287
-0.0414907
-0.0205355
-4.2041e-05
-0.0056013
-0.000189282
-0.0025035
0.0940334
-0.000847396
0.508264
0.788456
-0.0121294
0.00102684
-0.0388864
0.00292208
-0.00758906
-0.0123056
-0.0318932
-0.000194511
1.05625
-0.0176732
-0.0243844
-0.00669367
-0.00107529
-0.00662911
-0.00373434
-0.0539209
-0.00877755
-0.00216887
-0.013281
0.162951
-0.000106471
-0.000393033
-0.0075561
0.0419447
-0.00259702
-0.00440239
-0.0031396
-5.14328e-05
-4.53779e-05
-0.000995541
1.36939e-05
-0.00180472
-0.00516819
-0.00426195
0.86412
-0.000908482
-0.00325036
-0.0012204
-0.000246037
-0.000107215
-4.45949e-05
0.654897
-0.00864098
0.833956
-0.00701114
-0.00112735
-7.31824e-05
0.734991
-0.0317907
-1.14865e-05
-0.00031306
-0.000226299
-0.0139898
-0.00603986
0.139386
-0.000120288
-0.0223467
-0.00072362
-0.00232532
-0.00138457
-0.0080812
0.00136043
-0.040644
0.848616
-0.0522989
-0.0146301
-0.000627578
-0.000169927
-0.0412624
-0.000130386
0.0139284
-0.00553564
-0.00598529
5.49036e-06
-0.0112285
-0.0121958
-0.079085
-0.000573198
-6.51552e-05
-0.0269521
-0.000446796
-0.0092953
-0.00817774
-0.00729734
-0.000129275
0.975053
-0.00034692
1.09928
-0.0139192
-0.00935944
0.00913756
-9.37743e-05
-0.000183009
0.0829712
-5.96173e-06
-0.0170595
-0.000649917
0.0688086
-0.0106889
-6.18749e-05
-0.000317286
0.000619803
0.979226
-0.000536981
-0.0289427
0.00695489
0.846596
-0.0431421
-0.0456062
-0.000162903
0.00436351
-0.0136736
-0.0762762
-0.00926234
-5.65007e-06
0.0105359
1.0292
-0.0437175
-0.00114844
-0.0117866
-0.000263893
0.757311
0.840101
-0.000172623
-0.00161337
0.693113
-0.000437946
-0.0101552
-0.000202134
-0.00080619
-0.030163
-0.0384058
-0.0649672
0.0631102
-0.00137451
-0.000248718
-0.000353253
-0.0269868
-0.00848324
0.564985
-0.0183944
-0.000217979
0.816182
-0.00248452
-0.00166864
-0.0524597
-0.0102835
-0.00165785
-0.000388173
0.00497435
-0.00269167
-0.0201111
-0.000220705
-0.00118011
0.554422
-0.0106821
0.69994
0.946686
0.00365538
-0.000784716
-0.0683837
-0.0115698
1.03858
0.0128132
-0.00229944
-7.14654e-05
0.787858
0.986625
0.56232
0.163891
-0.0422902
-0.00028435
-0.0373073
-0.000938755
0.000261101
-0.015635
0.716492
-0.0317444
-0.000556872
0.000834307
-0.00194924
0.229258
0.746374
-0.0149507
-0.0341277
-0.00228321
-0.00180589
-0.00179291
0.963796
0.0023996
-0.000719291
-0.000422517
-0.00387428
-0.0248191
0.230345
-0.0092672
-0.00362529
-0.0179007
-0.000111899
0.0134512
0.743027
-0.0459851
-0.00136907
0.0148389
0.737673
-0.00276138
0.30802
0.863182
0.000260113
-0.000104754
0.335512
0.697411
0.388298
0.605115
-0.0480296
-0.00145742
-2.52875e-05
0.715145
-0.0250244
0.000537634
-0.0406511
-0.01672
-0.0313924
-0.0407155
-0.00328938
-2.76207e-05
0.686935
0.0012165
-0.0388216
0.879839
-0.0271663
0.839775
2.46969e-05
-0.0368008
0.804852
1.03953
0.0111572
-0.00830226
-0.0147989
-0.000838089
-0.00444928
0.83418
0.0104649
-0.0370605
-0.00380866
-0.00103907
-0.00239248
0.00169175
-0.000529096
0.625079
-0.000413725
0.00983216
-0.00321528
-0.00524872
-0.000837213
0.4803
0.7835
-0.0513061
-0.0534442
-0.0545162
-0.000669722
0.00361373
-0.000312597
-0.053713
-0.0545239
0.499884
0.779973
-0.054745
0.479906
-0.0167908
-0.0202955
-0.0154692
-0.0540884
0.616771
0.44787
-0.0543132
-0.00725857
0.790222
0.636728
-0.00477502
-0.000137749
-0.00122235
0.96698
-0.0010219
-0.000115079
-0.00376272
-0.00202638
-0.00127969
0.00142762
-0.0023891
0.0109104
0.314969
-0.0363647
-0.000130772
-0.0346245
-0.0369346
-0.0179584
-0.0362154
-0.0524439
-0.00167417
-0.00232489
-0.00436305
-0.0136134
0.808597
-0.00294666
-0.00513651
0.0531538
-8.52719e-05
0.93857
0.783791
-0.0365236
-0.00347001
-0.00136207
-0.00409913
-0.000347938
0.764932
0.127268
-0.00148512
0.0449491
-6.85646e-05
0.038099
-0.00152757
0.0325091
0.027503
0.90121
-0.016644
-0.000215518
-0.00592367
0.00230401
0.487306
0.690141
-0.0408995
0.694879
0.982109
-0.0100908
-0.0216415
0.67136
-0.00482292
0.140484
0.94297
0.661445
-0.0137587
0.672652
-0.00611411
-0.00756081
-0.00154252
-0.00169245
-0.0525709
-9.99946e-07