/*--------------------------------*- C++ -*----------------------------------*\
  =========                 |
  \\      /  F ield         | OpenFOAM: The Open Source CFD Toolbox
   \\    /   O peration     | Website:  https://openfoam.org
    \\  /    A nd           | Version:  7
     \\/     M anipulation  |
\*---------------------------------------------------------------------------*/
FoamFile
{
    version     2.0;
    format      ascii;
    class       volScalarField;
    location    "30";
    object      p;
}
// * * * * * * * * * * * * * * * * * * * * * * * * * * * * * * * * * * * * * //

dimensions      [0 2 -2 0 0 0 0];

internalField   nonuniform List<scalar> 
7724
(
0.13224
-0.00949335
0.5038
0.291648
-0.00149154
-7.58018e-05
0.537574
-0.00862546
-0.00023334
0.125754
-7.15182e-05
0.00386443
-0.0128598
0.061231
0.131366
-0.017347
0.136142
-0.0166058
0.00140746
-0.0828587
0.0795823
0.00252915
0.0446199
0.254976
-0.0215243
0.159341
-0.00138754
0.0759514
0.210867
0.00360022
-0.022911
0.95023
0.0437637
-0.000845094
-0.000196723
0.102341
0.00421021
0.514265
-0.00740573
-0.00059772
-0.00681305
-0.0165339
-0.0891837
-0.0889564
-0.000364439
-0.000156284
0.0024687
-0.00774474
-0.000131636
-0.082051
0.00584035
0.0719377
-0.0269805
-0.0069512
0.1011
-0.00773246
0.00149147
-0.00857605
-0.0350604
-0.000874186
4.83256e-05
0.00750587
0.0617226
0.00427448
-0.00164515
-0.022563
-0.000191438
3.32662e-06
-0.0142138
-0.00731991
-0.00014435
-0.0640483
-0.0208736
-0.0344291
-0.0161427
-0.0492324
0.490169
0.0783147
0.0424609
-0.0675027
-0.0123545
0.491471
0.114096
-0.0363991
-0.0024292
-0.00382068
-0.00922617
-0.0262267
-0.00114145
-0.00732892
0.215637
-0.112673
-0.000246795
0.00172241
-0.00584191
-0.0359816
-0.0604917
-0.00348296
-0.00266907
-0.00195079
-0.0585616
0.0500804
-0.00554063
-4.26247e-05
-0.108641
0.213329
0.81275
-0.00822487
-1.60903e-06
0.0388289
0.272412
-0.0603247
-3.90113e-06
0.0411428
0.21566
0.000703848
-0.0833673
0.16963
-0.0459464
-0.0355543
-0.060733
0.466803
-0.0844775
0.0163043
-0.0591525
-0.00165312
-0.0209354
0.00293615
-0.00174023
-0.0234047
-0.165111
0.0463425
-0.00105042
-0.00133363
-0.0376274
0.265819
0.617617
-3.70279e-05
0.0131944
-0.0755928
-0.0326447
-0.0566489
-0.0499538
-0.0332577
0.822246
-0.0260346
0.211508
-0.0347288
-0.0448671
0.465053
0.0975614
-0.0968468
-0.00257617
-0.0290903
0.114093
0.45614
-0.0568771
-0.0127898
0.736343
-0.000120211
0.000680558
0.264829
-4.28229e-05
-0.00353255
-0.00655851
0.341724
0.342772
0.771708
-0.00395782
-0.005154
3.76491e-06
-0.0625499
0.000692315
-0.00176118
0.0143541
-0.0444308
-0.0876598
0.0807688
-0.000246336
-0.000892657
0.29204
-0.000119464
-0.000210498
0.531463
-0.0161985
-0.048795
-0.0434405
-0.0330171
-0.0295674
-0.0737806
-4.56087e-05
-0.0585218
0.0798621
-0.00560146
9.85434e-05
0.160331
-0.00211466
-0.0220694
-0.0276913
5.47885e-06
0.00146208
0.27879
0.108348
0.47259
-0.0766092
-0.0554949
-0.138801
0.082796
0.280993
-0.000389186
4.21025e-05
0.759283
-0.0147066
-0.0010872
-0.0560553
-0.0219033
0.400676
0.41962
-0.062294
0.897721
-0.00196367
-0.0161647
-0.0599954
0.0979603
-0.109598
0.0808172
0.742622
7.79791e-05
0.0171622
0.182343
-0.00701168
0.16446
-0.000976669
0.832915
0.449846
-0.00913585
0.00444355
-0.000556545
0.0148443
-0.000181211
-0.0109243
-0.0724198
-0.000144145
-0.0023201
-0.000784429
0.149576
-4.44058e-05
-0.00759676
-0.0660041
0.951008
0.0388748
0.819049
-9.18277e-05
-0.0304637
-0.000355972
0.48502
0.00716894
0.618593
0.00196652
0.00122
0.00147847
0.0867961
0.000976444
-0.000421932
0.000856138
-0.00739321
-0.0503096
-8.64002e-05
-0.05515
-0.0062579
-0.00027034
-0.00112157
0.579517
-0.0128361
-0.00136091
0.910685
-0.00253609
0.215163
-0.000391902
-0.00125545
7.85233e-06
-0.04109
0.0942221
-0.0829182
-0.0355549
-0.000754746
-0.07159
-0.0246427
-0.000337528
0.00082739
-0.00382335
-0.0124406
0.00524396
-0.00219325
-0.0348469
-0.0444887
-0.0342972
-0.0769293
-0.0427607
0.39979
0.426468
-0.0026083
-0.122704
-1.68363e-05
-0.00419196
-0.0358344
0.247476
0.128293
0.000141334
-0.00389227
-0.0415724
0.17977
-0.00177166
0.00640624
0.00212812
-0.00743743
-0.166977
0.297305
-0.00278977
-0.0145899
-0.00022332
0.00710082
-0.000107756
-0.0285026
-0.000633805
0.0053222
-0.158552
-0.0444746
0.00112301
0.0155436
-0.00131874
0.0322709
-0.0135749
0.0680424
0.15967
-0.177377
-0.0904537
-0.025098
0.00910085
-0.0706942
0.789812
-0.0793917
0.0515391
0.877967
-0.00269669
-0.00305463
-0.100828
-0.00194666
-0.0223172
0.0113646
-0.00486794
-0.00364968
0.189988
-0.000148412
0.00093192
0.000109908
-0.00586459
-0.0121286
-2.00979e-05
-0.00194063
-0.033736
0.746496
0.00202564
-0.0143755
0.680781
0.401365
0.061542
-0.111943
-0.0628949
0.00877449
0.326593
-0.0179854
0.292349
-0.03445
-0.100766
0.122819
0.284157
-0.0514527
0.119393
0.0575041
0.242407
0.0803046
-0.00526938
-0.00724854
-0.000174548
0.00155298
-0.0183134
0.00164178
-0.000209811
-0.00284332
-0.070745
0.037963
-0.0265389
-0.00530392
-0.00650702
-0.0148971
-0.011839
0.00283714
0.0457375
-0.00330761
-5.6222e-05
-0.000128415
5.67497e-05
-0.0318152
0.184713
-0.00689914
0.0481774
-0.120843
0.505241
0.00556716
0.0120284
-0.00872783
0.555337
-0.00188276
0.282574
0.216856
-0.00022774
-0.0369745
-0.00565705
-0.0544065
0.000958995
0.0731255
0.00464787
0.0111349
-0.00152974
0.130725
0.188181
-0.0563058
-0.0341814
-0.00405752
-0.0297689
-0.0218416
0.931723
-0.078011
0.00778179
-2.73815e-06
-0.0210541
-0.00397391
0.0295654
-0.0976503
-0.127831
0.563964
0.162055
-0.128308
0.163738
0.542134
0.0491303
0.00204038
0.320276
-0.00163634
-0.000354022
-0.0268095
0.00012799
-0.151853
-0.00184412
-0.0370852
0.00331888
0.176032
-0.00313728
-5.81418e-05
-0.105942
0.00301677
-0.00111771
-0.0566972
-0.0745417
-0.112507
0.185365
0.152351
0.15706
-0.000390347
0.0240292
0.0747364
-0.000968895
-0.0255872
0.00103569
0.007701
-0.00701507
0.00842265
-0.00141272
0.0245915
-4.66769e-05
0.000317663
0.00346873
-0.03304
0.035081
-0.0348138
-0.0378121
-0.0454439
-0.123635
0.00615782
0.303072
-0.140421
-0.0110392
0.845901
-0.0593146
-0.0126464
-0.0382841
-0.0111028
-0.031146
-0.016378
0.0461255
-0.0886632
-6.26368e-05
0.0406242
-0.000190759
0.431238
-0.0163419
-0.0082281
-0.0218018
-0.000360356
0.496089
0.336038
0.00799584
-0.00727577
-0.0641138
0.64308
-0.000138454
0.0195358
-0.0273125
0.0970341
0.78779
-0.0306311
0.162138
-0.00383219
-0.000387144
-0.0124403
-0.148498
0.520907
0.00436158
0.264291
-0.0116582
0.525265
0.319104
-0.0145818
-0.0124648
-0.0129507
-0.0755356
-0.000178395
-0.0201846
-0.0732024
-0.0685241
0.0196467
0.0159935
-0.000253497
0.328896
-0.00226255
-0.000205394
-0.0401552
-0.000901756
-0.000423107
0.00512697
0.212317
-0.0938584
0.721745
8.75164e-05
0.199378
-0.0318057
-0.000163897
2.08118e-05
0.207109
0.217894
-0.00679275
0.208191
3.00898e-05
0.217931
-0.17129
-0.0152566
0.577648
-0.0534966
-0.00642596
-0.0367147
0.208788
0.205904
-0.0248474
-0.0311699
-0.0101273
-0.00481283
-0.000382681
-0.00238952
0.275841
-6.31078e-05
0.217237
-0.0933153
0.427963
0.207648
-0.0744917
0.685851
-0.00274755
0.00454627
-0.0627859
-0.0297825
-0.0105274
-0.0353475
0.033043
0.84483
5.59565e-05
-0.0032241
-0.056911
5.50344e-06
0.435875
0.00306298
4.16379e-06
0.000300091
0.000627891
-0.0269177
0.0282647
-0.002611
-0.000168296
-0.0111532
0.00325359
-0.104127
-0.0684112
0.0359364
-4.81552e-05
-0.15649
-0.0197506
0.00909629
0.43282
0.00179957
0.0369535
0.000233054
-0.018927
0.113398
-0.0105824
0.212327
-0.0194649
0.0227885
0.117664
0.153753
0.00642668
-0.0156153
0.137275
-0.0810948
0.486759
-0.0141546
0.20891
-0.0140374
-0.00196342
0.155087
-0.00221871
0.10521
0.00314375
3.73843e-06
-0.115063
0.0434309
0.00233338
0.0158606
-0.0185326
-0.154306
-0.00714775
-0.0360145
-0.00281444
-0.0133501
-0.0689241
-0.0390069
-0.0147776
-0.000292088
0.522844
0.0417898
0.0474712
-0.000366957
0.32703
-5.26869e-06
-0.000339821
0.0616969
-0.000408912
0.0390623
0.0744759
0.0273557
-0.0673292
-0.127016
-0.109683
0.0021705
-0.0553496
-5.16026e-05
0.00569186
0.206047
-0.0237808
-0.00460798
-0.0178104
-0.00325893
-0.000733602
0.891618
-0.0149147
-0.000959152
-1.32998e-05
0.170015
-0.041764
-0.000594731
-0.00455406
0.196628
0.081853
-0.0504836
-5.91701e-06
0.222795
-0.0238908
0.171905
0.0277037
0.0341385
-0.0411109
-0.000183661
0.114856
0.0696336
-0.0794263
-0.087395
0.286635
0.0102455
0.123015
-0.00492945
-0.0377884
-0.000692917
-0.00387908
-0.000219531
0.17888
0.139357
-0.00249212
0.0303887
-0.0250747
-0.0732568
-0.080138
-0.00307552
0.0177312
0.836121
-0.0799719
-0.000122691
0.0838645
-0.00641237
0.694562
-0.018338
-0.0194641
-0.00932542
-0.0224067
-0.0121508
-0.0118358
-0.0061893
0.00234103
0.0244494
0.000151468
-0.176401
-0.0771152
0.378579
-0.0487192
0.0567036
0.00337442
-0.0643936
-0.0225863
0.258413
-0.0111984
0.000147341
-0.0234918
-0.00882385
0.0218514
-0.0374845
-0.0324918
-0.0599283
-0.0211775
-0.0139728
-0.0745914
3.72142e-06
0.039852
-0.0647126
0.0455792
-0.0769327
0.105224
-0.0876819
0.284896
-0.000263859
-0.0424459
-0.0271825
0.743893
-0.145949
-0.0191781
-0.11441
-0.0476368
-0.107471
-0.0662951
0.135904
-0.00459201
0.317954
0.0147034
-0.000699902
-0.00209966
0.0753352
0.964603
0.00156096
-0.0332016
0.206279
2.57116e-05
-0.029932
0.0439878
-0.0196158
0.0149053
-0.00276848
-0.0415494
-0.00526754
3.40373e-05
-0.0510822
0.24905
-0.00119288
-0.0240783
0.00312067
0.204764
-0.00068317
-0.0020973
-0.000634209
-0.00136957
-0.058496
-0.00391913
0.00328893
-0.0258845
5.27607e-05
-0.122525
-0.143591
-0.137863
-0.0248765
0.0240939
-0.000385394
-0.0192319
-0.0644974
-0.0613361
0.434547
-0.00217789
-0.0677029
-0.00772958
0.00374808
0.0996486
0.000698597
-0.000295624
-0.0121217
-0.0630152
0.0229417
-0.00489287
-0.00343482
-0.0601741
-0.00033241
-0.00567021
-0.0195693
0.372682
0.234588
-0.0570343
-0.0631771
0.0120603
0.00348745
-0.0593184
-0.0727382
-0.0228535
-4.79435e-06
-0.0532734
-0.0355568
-0.0788791
0.00220225
-0.0538009
-0.000702772
-0.00494378
0.214586
-0.0396198
-9.3445e-06
-0.00463073
-0.135068
-0.000304152
-0.0285871
-0.000112001
0.00565698
-0.101737
-0.0545919
-6.46972e-05
3.63561e-05
0.14613
-0.0536468
0.503524
0.2054
-0.0469894
-0.00105218
-0.020942
0.000330193
-0.156341
-0.100113
-0.101175
-0.0235064
0.155346
0.0103121
0.000406266
0.00616531
-0.134202
0.00320586
-0.0352461
-0.0627851
-0.000441282
0.0259549
0.0796618
0.00898484
-0.0322957
-0.0880347
0.21777
-0.0423809
-1.04978e-06
-0.114692
-0.0651409
-0.0508759
0.00520171
0.00121068
0.00716278
-0.103153
0.0372909
-0.0365942
0.065215
-0.0599417
0.00803082
0.0225143
0.0101652
-0.0374165
-0.156111
-0.000211319
0.168398
0.242229
0.00951569
0.0666288
-0.0811473
0.052307
-0.0538336
0.230148
0.111802
0.813322
2.42904e-06
0.0953985
0.186359
0.0179871
-0.00191951
-0.0202993
-0.0684562
4.77971e-05
-0.0203955
-0.0562691
-0.0221525
-0.0245113
0.000185992
-0.139052
-0.000524611
-0.00114609
0.286098
0.00723219
-0.0551467
0.0231797
0.242639
0.0114987
-0.000560145
-0.132389
0.00893694
0.465321
0.00156179
-0.0584124
-0.000331453
-0.000744367
0.00690822
-0.069875
-5.96826e-05
-0.0124414
0.0318705
-0.00251705
3.47086e-05
-8.90875e-05
0.173574
-0.0660831
0.00789133
-0.0014441
0.01001
0.018851
0.00971515
-0.000417524
0.314828
-0.120786
0.256066
0.259297
-0.000296085
-0.0583944
0.0919424
-0.00102177
-0.000377061
-0.000602575
-0.0407728
0.0120446
-0.0173653
-0.0261152
-0.0682813
0.189471
-0.114681
9.64096e-06
-0.0216375
-0.0212843
-0.0380583
-0.00535429
0.00700936
0.00150419
0.0326628
-0.00068975
-0.000345091
-0.0196052
-0.00527542
-0.0274664
-2.62155e-05
-0.0166899
0.0386474
-0.0470369
-0.0484671
-0.00992728
-0.0133144
-0.0104717
-0.00633884
0.0048782
-0.0108068
-0.000156977
-0.000556639
0.0262154
-0.0138212
-0.00601503
0.0098641
0.00221966
-0.133423
-0.0126165
0.17766
-0.014205
-0.0564021
-0.0283932
-0.0251453
-0.0174548
-0.00460565
0.00264845
-0.00432703
-0.0157615
-0.0179933
0.188854
0.134076
0.0456502
0.427278
-0.000108629
-0.00416211
-0.0183183
-0.00934339
0.0426822
-0.0224625
0.0371963
-0.00536075
0.184557
-0.0024206
-0.00204179
0.0082785
-0.0242995
-0.000309253
-0.0263452
-0.00711163
-0.0230529
-3.62913e-05
-0.00800268
0.00238771
-0.0196002
0.0306053
0.0418033
0.022676
-0.0157308
-0.0342773
0.130539
-0.00162104
-0.00243831
-0.00262241
0.669255
-0.000150344
0.0660776
-0.0234327
-0.0226641
-0.0287848
-0.0462046
-0.0312362
-0.0370524
-0.0205224
-0.00559243
-0.000145068
-0.00520283
-0.0240616
0.109887
0.00202427
0.0530834
-0.0356404
-0.0149634
-0.00116195
-0.0315704
-0.00015082
0.166965
-0.0328776
-0.0286884
-0.026279
-0.00497524
-0.0366181
-0.00208446
-0.0433189
0.11445
-0.0282949
-0.0797246
-0.00182462
-0.0294594
-0.0205646
0.0183429
-0.00396504
0.160855
-0.0029548
-0.0212432
-0.000875909
0.181966
-0.0417296
-0.0288894
-0.00397141
-0.0111916
-0.00339171
0.150407
-0.0113372
0.0742115
-0.00599304
-0.00104914
-0.00157913
-0.00287716
0.0611446
-0.063329
-0.00817893
0.000382833
-0.0100613
-0.018544
-0.00116088
-0.0197757
-0.0175548
0.06558
-0.00598422
0.00357787
0.674232
-0.0642548
-0.0311787
-0.0603367
2.91678e-05
0.0855307
-0.0043193
-0.0292728
-0.00677365
-0.0384219
0.00472006
-0.000698178
-0.00355949
0.00394144
0.231344
-0.00702119
-0.00222102
-0.00561804
-0.0580798
-0.0098576
-0.0242415
0.00505345
-0.0103145
-0.0106527
-0.00400149
0.230507
-0.0487368
0.0038664
-0.00514251
-0.0299973
-0.0162313
-0.0520105
-0.00176199
0.101505
0.0267078
-0.00933789
-0.00215367
-0.0157489
0.679852
0.23315
-0.0131904
-0.000744268
-0.00293832
-0.00115861
-0.00484252
0.0245249
-0.000552195
-0.0216821
-0.00243555
-0.019139
-0.158727
-0.0013537
-0.0142363
-0.00169159
0.382432
-0.00775615
-0.0136273
-0.0637998
-0.00240066
-0.032618
-0.0527194
0.578603
-0.0125633
-0.013314
-0.00261605
-0.000618457
-9.75276e-06
-7.42019e-06
-0.0118955
-0.000860228
0.0526528
-0.000870844
-0.00224841
0.0096561
-0.000345746
-0.0471676
-0.0679991
0.020535
0.0459345
0.0309143
-0.0515966
-0.0562232
0.100395
0.0793628
0.108363
0.138295
-0.014952
-0.00107972
-0.00717416
-0.0754735
-0.00429294
-0.0172559
-0.0536933
0.299919
-0.0591883
-0.000627831
-6.33232e-05
-0.00182517
-8.28023e-06
0.00888353
-0.000733737
-0.00576979
-0.0503447
0.000624941
0.00307819
-0.0002984
0.0528462
-0.0175816
-0.0650646
-0.00153925
0.402681
0.188374
-0.0118179
-0.0920224
-0.0305769
-0.0264655
-0.0165611
-0.00232241
-0.0873462
-0.0420853
-0.0462028
-0.131696
-9.38987e-05
0.179737
-0.0238398
-0.0112528
-0.0391743
0.0220242
-0.000690998
-0.00988869
-0.00169459
0.0127135
-0.00193999
0.115403
0.000394195
0.0120192
-0.000541912
-0.136828
0.0105712
-0.000995589
0.00116393
0.000450467
-0.0492311
0.109101
0.000280042
-0.00179448
-0.000178187
-0.000745216
-0.000656325
-0.0628114
0.140766
-0.0470695
-0.000358981
0.00980747
-0.000602149
0.267979
-0.0621762
0.237357
-0.0456426
-0.00058658
-0.000394477
-0.0086761
-0.00675791
-0.000822539
-2.94493e-05
0.0285784
0.0332813
-0.000318935
-0.000455424
-0.0221244
-3.50169e-05
0.19172
-0.00117499
-0.0547107
-0.0214189
-0.00754014
-0.0574046
-0.063642
0.172504
-0.0301339
-0.0226006
-0.000418698
-0.0583036
-0.0231341
-0.041246
0.00906659
0.416196
-0.00146448
-0.0610195
0.011703
0.311846
0.0445332
-0.000168954
-0.00720231
-0.00490422
-0.00594423
-0.0494725
0.0856999
0.000177202
0.014073
0.00341882
0.0602837
-0.000674624
-0.000185685
-0.122179
0.272587
-0.0565458
0.124081
-0.00160866
-0.000276639
-4.17057e-06
-0.106571
-0.0436958
-0.000459042
0.0830181
0.0133503
-0.00640799
0.540616
-0.000531348
-0.00448368
-0.0613014
-0.0370219
-0.00279204
0.153108
-0.0753726
-0.000227281
0.010178
-0.00025113
-0.000147902
0.137212
-0.00528974
-0.000589074
-0.0527747
-0.027111
-0.00422743
-0.0442175
0.00285483
-0.0252998
0.00193846
-0.00422724
-0.066315
-0.0403963
0.0122939
-0.00112722
0.163482
0.242013
-0.120619
0.0105593
0.0224162
-0.00515255
0.190921
0.0944755
-0.0301445
-0.000226368
0.0110192
-0.0561154
0.00827892
-0.0309988
-0.00258785
0.0368341
-0.0302747
-0.000190519
-0.000114514
-0.0530938
-0.0297207
-0.0283384
0.011048
-0.036239
-0.0466561
-0.00022192
-0.00174322
-0.000290387
-0.0391114
-3.92734e-05
-0.00237457
-0.0577334
-0.116375
0.027893
-0.00361753
0.00495614
-0.0238437
-0.0278299
-0.000183527
-0.0475942
0.0044243
0.179879
1.83593e-05
-0.000157071
0.183603
-0.00307281
-0.100713
-0.0422368
0.00402667
0.000526319
-0.0671779
-0.0488021
0.188561
-0.0570579
-0.00181424
-0.0123494
-0.05637
-0.000746351
-0.000322505
-0.00113792
-0.045325
-0.052701
0.0816157
-0.000285396
0.709756
-0.0804003
0.000107249
-0.00123375
0.000262256
0.000303634
-2.80048e-05
0.000135358
-0.0539344
-0.000924077
0.00048737
-0.000269055
0.160129
-0.00683116
-0.000263522
-7.9341e-05
0.348858
-0.0239463
-0.0749351
0.00130082
-0.000923376
0.0523179
-0.000146286
-0.0161605
-0.172094
0.00258023
-0.00797191
-0.000138858
-0.000282725
-0.0335442
-0.075871
0.00863651
-0.147179
-0.0835188
-4.41884e-05
0.0251872
0.038031
0.12299
-0.00210691
-0.000216989
-0.0583913
-0.00722715
-0.000656102
-0.0510383
-0.00019299
0.0351574
-0.000146117
-0.0015716
-0.0830073
-0.00263506
-0.0599169
0.617517
-0.00204093
0.000298032
-0.0584234
-0.062003
0.010664
0.00561936
-0.000207861
-0.0337472
-0.000126737
0.228162
0.89711
0.0294722
0.00360707
0.0042727
-3.39276e-05
-0.0307105
-9.42629e-05
-0.00929046
-0.00208684
0.00040324
-0.00404528
-0.0115118
-0.000171429
0.00100103
-0.0104238
-0.000412614
-0.0121244
-0.0185436
-0.0137287
-0.00146068
0.789604
-0.000895864
0.00288421
0.000262037
0.0165231
-0.0512442
0.0113965
-0.000244163
-0.000141842
0.00307678
-0.000159027
-5.86592e-05
-0.0138487
0.000798192
-3.85817e-05
-0.0529758
-0.00284804
-0.0569735
-0.00201772
-9.91913e-05
-0.00376933
-0.0133559
-0.0174512
-0.0287465
0.00275149
0.000582196
-0.000602389
-0.00237429
-0.000122218
0.319462
0.00182904
-3.31489e-05
0.000647675
-0.00248231
-0.000480444
-0.064416
-0.0557819
-0.00019574
-0.0082156
4.8412e-06
-0.00328932
-0.000107093
0.0411767
-0.000197553
-0.000264745
-0.00439073
-4.59313e-05
0.016097
-0.000303851
-0.00155296
0.0223984
2.67089e-06
0.465806
-0.0555733
-0.0440441
-4.49797e-05
-3.3795e-05
0.00218135
-0.00145751
-0.05474
-2.86885e-05
-8.88169e-06
0.000843543
-4.81553e-06
0.000418808
0.000504272
-0.000589607
0.000904063
-0.0541839
0.622806
-0.0392584
0.385442
0.0107854
-0.0196446
-3.19584e-05
-0.00109286
-0.0140388
0.000141659
0.00030804
0.000173727
0.023055
-0.00170567
-0.000305923
0.682874
-0.00068814
0.000651977
0.000567112
-7.93426e-06
-0.0853224
-0.00265499
0.00131853
0.000120609
-0.000704339
-9.87665e-05
-0.00119663
-0.0464355
-0.0005337
-0.00201607
-2.36292e-06
-0.00099996
-0.000341305
0.2235
-0.000565284
-0.00037995
-0.0701952
0.00446443
-0.00013819
-0.00163381
-8.95631e-05
0.201682
-0.0745756
-0.000412573
-0.00049687
-0.0023868
-0.000233639
0.0618785
0.108501
-0.00120613
0.000560277
-1.13511e-05
-1.63805e-06
0.0484831
0.00027179
-0.0623417
-0.0305346
-0.0182639
-0.132739
0.8017
0.00229782
0.178184
-0.0169105
-0.0318615
0.205538
-0.000459356
-0.0671896
-2.31524e-05
-0.0104223
-0.050673
4.9191e-05
-0.055023
-0.00117039
-0.014139
-0.00674235
-0.0446348
-0.0447001
-0.00397358
-0.065088
-0.045673
-0.000248674
-0.0139199
-9.24979e-05
-0.0399273
-4.32568e-05
-0.000247679
0.00987598
0.194281
-4.78592e-07
-0.047937
0.00419649
6.85491e-05
-0.0241111
-1.1074e-06
-0.0155169
-0.0003507
-0.040563
0.000126103
-0.000126681
-0.00247982
-9.4823e-05
0.188973
-0.0332214
0.034661
-6.07701e-05
0.000713149
-0.0350874
-7.68031e-07
-0.0591872
-0.0677585
-0.0572398
0.716518
-0.00756284
-2.874e-05
0.0301926
-0.044052
-0.00312298
-6.16777e-05
-0.000122898
-0.0493799
0.000123239
0.00100252
-1.67527e-06
0.000158201
-0.0305698
-0.0150123
-0.0845381
0.0962844
-0.00625096
-1.86526e-06
0.00693278
-0.057229
-3.24236e-05
-2.39474e-05
0.000350765
5.92627e-05
0.000450944
0.0911226
0.0405793
5.06117e-05
3.15748e-06
-0.0669678
0.240591
0.200924
-6.62001e-05
-0.0389299
-0.0223794
-0.0124695
-0.0498798
-0.0102353
-0.00344258
0.166381
-7.20963e-05
-0.0290037
0.198096
-0.0513446
-4.36082e-05
-0.0626031
-0.000235561
0.191248
0.0310165
-4.3307e-05
-4.86186e-05
0.205027
1.08191e-06
-0.000247161
-0.0134287
-8.07334e-07
0.253223
0.00373919
-0.00853779
-0.0645739
-0.00443001
-0.0853586
0.217722
-0.0164968
-0.0573163
0.00114754
-3.72524e-05
-0.00126376
-3.07854e-05
-3.49592e-05
0.0196463
0.216674
0.177538
-0.000562091
0.305602
-0.0145825
-4.71606e-07
-0.0475883
-4.28187e-05
-0.0305832
0.0323597
-0.0169994
0.00517272
0.00217491
-0.0106444
0.000256717
-0.00201138
0.0214615
-0.00337874
-8.33679e-05
2.29752e-05
-8.9054e-05
0.0368792
4.49233e-05
-0.0261303
0.324472
-0.0070073
4.49888e-05
-0.00407066
-2.97548e-05
-0.00118871
-0.000453207
-9.51925e-05
-0.000117772
-2.488e-05
0.256149
-0.000214336
0.243992
-0.0643909
0.000106094
-0.0560764
-0.00062828
0.186195
0.705721
-0.00168329
1.40653e-06
3.57408e-06
-3.73541e-05
0.122552
-9.22024e-08
0.00119423
-0.0266755
0.237348
6.32205e-07
4.58327e-06
1.93988e-06
1.86593e-05
-0.0228725
5.79521e-07
0.144027
-0.0186195
-0.000165642
2.42989e-05
-0.00243831
-0.0308403
8.28952e-07
-8.16679e-05
0.197485
2.76422e-05
-0.0345449
-0.0689397
0.000131346
6.6478e-08
-0.162597
6.13923e-07
0.179894
1.11849e-05
-0.000563812
4.48995e-06
-0.000229822
0.106885
-1.74067e-06
-0.0019595
-1.93978e-06
0.0133757
-0.00399275
-0.00738099
0.000682599
0.1824
-0.000365754
-0.000118036
-0.0101329
-0.0097867
-0.000312749
-9.64392e-05
-0.0010945
2.89884e-05
0.0904481
-0.0119864
0.66317
-7.32345e-06
-0.00876316
-0.000227916
0.131853
4.72512e-05
-0.0292949
1.75092e-05
-0.00188433
-0.0360185
-0.000298174
-0.0176363
-0.0521827
0.0057526
-3.06287e-05
-0.0630334
-0.000421333
-0.000399064
-0.00639655
-0.0187579
0.00145205
-9.43606e-05
-0.000547206
-0.00113707
-0.00152909
1.4685e-06
-0.00144891
0.674963
9.21654e-05
-0.00381515
-0.037403
-0.0732893
-0.0650369
-0.0499772
-0.0240706
-0.000674733
-0.0202011
6.92416e-05
-0.000117279
0.666006
-0.000130351
0.158522
-0.00056063
0.000428822
-0.00135983
-0.0905068
-0.000524837
0.000533314
-3.26236e-05
-0.000493285
-4.33912e-05
-0.000113275
-0.0165223
-0.000156607
-6.22041e-05
-0.000116651
0.000131437
-2.85028e-05
-0.0457607
0.111652
-1.86279e-05
-0.000740327
-5.86433e-06
2.38036e-05
-0.00101027
3.05782e-06
-0.00109326
0.000294174
-0.00046172
-0.0654419
-0.000846098
-0.0021708
-1.14937e-07
-0.00191368
0.000364051
-2.41291e-05
-2.01188e-05
8.5724e-06
-0.000964749
0.000590578
-0.0472391
-0.0303956
-0.0657179
0.000598479
-0.00227652
-0.0552664
-0.0661004
-0.000128849
0.0169497
0.00779775
-0.001261
-0.0133155
-0.0570252
0.562518
-0.000521126
-2.66674e-05
0.000983276
3.95613e-05
1.16536e-05
0.0860566
0.0040825
0.100005
-0.0419948
0.561551
-0.000646974
-1.41606e-06
0.000149781
-3.4214e-05
-0.0016334
0.154967
0.268238
-1.70526e-05
-0.000229735
-3.86325e-05
0.251669
0.0153865
-0.00745566
7.57034e-06
1.40124e-05
0.00837954
-0.000849753
-0.0738765
-0.0185995
8.86648e-06
0.00401598
-0.0345577
-8.7228e-05
0.00205894
-0.000105731
-0.0478929
-0.00205635
0.153285
1.10172e-05
0.0019195
-0.000333966
8.07769e-06
0.000172972
-0.0251803
8.45126e-06
-0.0011026
1.10348e-05
-0.0216199
-0.0470854
-0.00372912
-0.00882036
-0.00966849
0.0105369
-0.00984888
-0.00287634
5.94598e-05
9.4519e-05
1.05567e-05
9.52895e-06
-8.1283e-05
0.0102852
-0.0621349
0.00054077
-0.0515876
-0.00357364
-0.0568355
8.11036e-05
-2.12829e-05
0.00148646
-0.121379
1.04673e-05
-0.0504788
-0.0166387
-0.0892407
-0.0528642
1.82998e-05
-0.00399339
0.00019657
-0.180285
0.155105
-4.6144e-06
-0.0623789
-0.0248476
-0.00487717
2.56524e-05
-1.74617e-05
0.0234124
-0.0181296
1.06335e-05
-0.00768589
-2.87951e-05
0.000220509
0.137446
-1.56085e-05
-1.80883e-05
-0.000134306
2.3643e-05
0.00101152
8.22769e-05
-0.00599916
0.000239789
-0.0140034
0.00124657
-0.000276442
-0.0364645
-0.0453643
-0.00712519
-2.44601e-05
1.23928e-05
-0.0684689
0.00661884
-0.049632
1.28438e-05
-0.00588594
-5.37819e-05
1.38238e-05
0.0690332
-0.00788302
-0.00322399
-2.10409e-05
-0.0195549
4.03319e-05
-0.0686393
1.46511e-05
-0.0771091
-1.0739e-06
-1.18969e-05
7.87475e-05
0.00115742
-0.114872
-0.019619
-0.0724668
1.31515e-06
8.33095e-05
-0.0777755
-0.0302775
-0.009412
-1.38484e-05
-0.0477399
-0.054102
-0.0777499
-1.36844e-05
-1.79975e-05
-2.1452e-05
-0.104603
-0.070644
0.000803453
-0.0122234
-8.88724e-05
0.11631
8.98282e-05
-2.47335e-06
0.000148305
-3.89316e-05
-2.01755e-05
-0.00416005
0.000102464
-0.00297381
-0.0682965
-0.0143633
-0.058411
2.38429e-05
-7.38112e-05
0.048755
-0.0656172
-0.0053861
0.124302
-2.64768e-05
-2.7805e-05
-2.52633e-05
0.048728
0.000173261
-3.94028e-05
-2.12808e-05
-0.0668264
-0.0169062
-1.63715e-05
5.0811e-05
-0.010327
-0.00723859
0.000459321
0.268577
-0.063849
9.98254e-05
0.909867
-5.53913e-05
-0.000850263
-0.00982232
-0.076203
-8.22913e-06
-2.76226e-05
1.47151e-05
0.00548224
-0.0373209
-0.000432208
-0.0517697
-0.00862478
9.01323e-06
-9.05453e-06
-0.0112297
-0.00958371
-0.0382622
-0.105281
-0.0469699
-0.0409719
-0.0305201
-0.0296766
-9.17683e-05
0.000375407
-0.002191
0.000584588
-0.000137127
0.000848186
7.96559e-06
-0.000148253
-0.0133313
-2.02735e-05
-5.42509e-05
0.0342133
-0.0405778
-0.000237987
-8.66677e-05
-1.84675e-05
0.298672
-0.00745908
0.000869778
-0.0305881
0.000237025
0.000200949
0.000172598
-7.49693e-05
0.000523269
-0.0404702
0.0164682
-1.60332e-05
-0.000236958
-0.0449331
-0.035416
0.0550439
-0.000602064
0.00209832
0.0203715
-1.4169e-05
4.64065e-05
-0.0537889
1.4866e-05
0.190949
-1.82829e-05
0.00482091
0.000167235
0.000228199
-0.0706449
-0.00822781
-0.0195483
-0.00276964
1.85497e-05
0.00694257
0.0690063
-0.0136333
-0.000184191
0.10596
0.185601
-3.50948e-06
-0.0541026
-0.000100225
-2.5853e-05
-6.55948e-05
-0.000690367
0.0226003
-3.66152e-05
0.000254099
-0.0266883
-0.0277089
-0.0237486
0.383814
-5.66046e-06
-9.9525e-05
0.19719
-0.00995843
-0.00433231
-0.000790541
0.193744
2.38006e-05
-0.000418785
2.00839e-05
-4.34415e-07
2.25655e-05
2.57812e-05
6.76903e-05
-0.0191704
-1.01928e-05
-0.00382204
-0.0463271
0.248544
-0.000218238
-7.22677e-05
0.00539702
0.0951284
-0.0535469
-0.000904998
-0.0713839
0.376965
3.38695e-05
0.515068
-1.20547e-05
0.00379845
0.0275895
0.000471013
0.577697
-5.23094e-05
-1.35933e-05
0.00129643
2.11978e-05
-0.00103195
0.000273666
-8.16032e-06
-0.00227237
-2.17129e-05
-0.000197258
-0.00377488
0.287792
0.0537635
0.0250891
-0.0454168
-1.1201e-05
-4.05163e-05
0.00384766
-0.0622597
-2.39859e-05
-0.0484699
-7.99759e-05
0.115801
0.0691985
-0.0360417
-0.00158955
-0.013624
-0.00116541
-0.0161894
0.00368074
-0.00846642
0.069859
-5.95161e-07
0.159011
0.00687487
-0.000744698
0.232578
-0.0147529
-2.02574e-05
2.79062e-06
5.8467e-05
-0.000268688
-0.000174532
0.295946
-0.00116536
0.300348
-0.00131997
0.191539
0.239979
0.0672905
-0.00790802
-2.04695e-05
3.4961e-05
-0.0117152
-0.14696
-0.0524705
0.00169255
-6.63884e-06
-0.0400855
-0.000428664
-3.24445e-05
0.00113599
-0.00126336
-0.000824536
0.0372502
6.85344e-05
-0.0500565
0.0624322
4.96685e-05
0.000275718
-0.0162907
-0.064142
-0.000878213
-0.000633981
-9.80889e-06
0.00025422
0.0169038
-0.0190279
-0.0521759
0.00147983
0.0566319
-0.0418046
1.5283e-05
5.11594e-06
0.00517788
-0.000147911
0.0485286
0.0002728
-0.0148755
-0.000481993
0.00183944
-0.0396043
-8.28655e-05
0.000531233
-0.00491321
-0.076252
0.125687
-0.0639538
-0.029441
-0.000240538
-6.62979e-05
0.00772473
3.18203e-05
-0.0759768
-0.0699401
0.000615915
0.00382496
0.00434082
-0.119115
0.000700478
0.000184171
1.46638e-05
-0.0446899
1.45043e-05
0.000611184
0.138014
0.208026
-0.138534
0.0556505
0.0536381
0.00765092
-0.000237641
0.0120712
0.000118864
6.24928e-06
-0.000132513
-3.49835e-06
-1.59952e-05
-0.000444834
-0.00859956
-0.0763724
-0.0109175
-0.0328462
0.0584383
0.0492425
0.0046497
-0.0682997
0.000149764
0.0052268
0.012777
-0.000483678
0.0806092
-0.00152901
-0.0123635
0.0133434
0.00632187
0.00104149
-0.00460763
0.046483
0.000912021
-0.0216601
-0.0183032
0.705328
-0.0275988
0.0878626
0.00291372
-0.0426314
0.00250594
7.9942e-05
-0.00295166
3.05563e-05
-0.00303446
-0.0280014
-0.000101687
-0.000104518
0.251594
-0.00379049
-0.044705
-0.0205906
0.00019258
-0.00178657
-4.31002e-05
-4.47995e-06
0.0406384
2.60619e-05
-0.00337739
0.080308
0.00706729
0.00126414
0.0205556
-0.00653463
0.00475008
-0.14362
0.00095821
-0.00507077
-0.059631
-0.00104242
-0.00911042
0.000820745
0.000640202
0.00110646
0.0386596
-0.000425821
0.00645701
-0.0566055
-0.0229264
0.000309851
-0.0559271
-0.0166114
-0.0188117
7.63158e-05
0.00757363
-0.0778027
-0.00100505
-0.00556256
-0.05166
-0.000327559
-0.00138072
0.244297
-0.025196
-5.96343e-05
0.00946339
-0.0557385
-0.0012452
0.228562
-0.0026777
0.0011332
0.0677749
-0.00167441
0.00943141
0.146967
1.67802e-05
0.00131836
0.000173132
4.60663e-06
-0.00513262
-0.00845551
-0.000210291
-0.0264709
0.105268
-0.0395779
-0.0809869
0.00130554
-0.00375747
-0.000775648
-0.0627568
-4.38042e-06
0.0174352
7.97454e-06
-0.0175265
-0.00226387
-0.00564907
-0.127124
0.117699
-0.0891234
-8.07825e-05
0.189172
-0.00232125
-0.00313895
-0.0616538
-0.0936535
-0.0174326
-4.86691e-05
-0.00138728
0.0082759
-0.00355746
-0.00539142
0.000451726
0.0952387
-0.0489952
-0.0124463
-0.00753364
0.0206381
-0.00364701
-0.00187007
0.00193629
-0.000101454
-0.00354755
0.117202
0.000868508
-0.157606
-0.000114003
-0.00825513
-0.0044096
-0.102236
-0.0129235
-0.12447
-9.42561e-05
-9.36642e-05
-0.00567151
0.0120464
0.00200754
-0.145938
0.0869254
-0.0523349
0.000182022
-0.165474
-4.41243e-05
-0.175716
-0.0279265
-0.21045
-0.217943
-0.220455
-0.205955
-0.167501
-0.151079
-0.135763
-0.119217
-0.0981595
-0.043614
-0.0230563
0.000102846
0.0643551
-0.00904807
-0.00839208
0.0547374
-0.0220731
0.000990032
0.0136164
-0.0437227
0.000541937
-0.00085857
-6.07019e-06
-0.0159973
0.0203121
3.1424e-05
-0.000432008
-0.0116888
-0.0101355
-0.205379
-0.0167673
-0.0597939
-5.06733e-05
0.00060991
-7.35087e-05
-0.0658705
-0.00997359
-0.0400745
-0.0133699
0.00194455
0.000203425
0.00538699
-4.84161e-05
-0.0190637
-6.12944e-05
0.000390792
-0.00803393
-0.0127849
-0.000406971
0.000341581
0.0553731
-0.0116983
0.0615669
-0.191565
-0.0105462
-0.0639921
-0.0206937
0.00417539
-0.0236923
-0.0037549
-0.0138888
-0.0145918
0.432549
-0.00162149
4.68153e-05
-0.00661259
-0.0101794
2.43968e-07
0.0909047
-0.00474219
0.394087
-0.186515
-0.0463226
-0.0291954
0.0433396
-0.0058763
-7.35613e-05
-1.19662e-05
-0.00476914