/*--------------------------------*- C++ -*----------------------------------*\
  =========                 |
  \\      /  F ield         | OpenFOAM: The Open Source CFD Toolbox
   \\    /   O peration     | Website:  https://openfoam.org
    \\  /    A nd           | Version:  7
     \\/     M anipulation  |
\*---------------------------------------------------------------------------*/
FoamFile
{
    version     2.0;
    format      ascii;
    class       volVectorField;
    location    "17";
    object      U;
}
// * * * * * * * * * * * * * * * * * * * * * * * * * * * * * * * * * * * * * //

dimensions      [0 1 -1 0 0 0 0];

internalField   nonuniform List<vector> 
115546
(
(1.02038 -0.0328424 6.18526e-24)
(0.99999 -3.07616e-07 -1.00576e-24)
(0.990739 -0.00761085 3.61237e-22)
(0.997688 -0.0024802 -6.29547e-23)
(1.00114 -0.00279082 1.16108e-23)
(0.999384 -0.000920389 1.93924e-23)
(1.0087 0.0798926 -1.21748e-20)
(1.03054 -0.0638932 3.02255e-22)
(0.999797 -0.000294506 -9.86992e-25)
(0.999989 -2.37098e-07 2.11193e-25)
(0.999843 -1.44579e-05 7.07871e-24)
(1.0001 -7.90136e-05 4.09335e-24)
(0.999077 -0.00301746 -2.13492e-23)
(0.947484 -0.00344953 -1.34686e-21)
(0.999796 -0.000302197 9.0311e-24)
(0.953756 -0.0156569 -3.05333e-21)
(0.999912 -0.0002253 3.48333e-24)
(0.999756 -0.000157141 -1.13083e-23)
(0.989093 0.0767659 1.47e-20)
(1.00117 -0.00282598 5.34548e-23)
(1.03437 -0.0650595 2.6645e-21)
(0.996327 -0.000110682 -2.93033e-23)
(0.999712 -0.00021253 -1.09788e-23)
(0.99643 -0.00359196 -4.21586e-23)
(0.936868 0.0215478 1.35829e-20)
(1.08771 0.0186104 4.48215e-21)
(1.2382 0.0234537 4.51317e-22)
(1.01213 -0.00296212 1.33101e-21)
(0.999986 -3.43618e-05 5.34392e-25)
(1.00892 0.134647 -1.41526e-20)
(0.999911 -3.06998e-05 4.69222e-24)
(1.0351 0.0069895 1.16552e-21)
(1.0048 -0.00746585 -3.80598e-23)
(0.990544 -0.00401591 -3.35321e-22)
(0.928262 0.0589289 6.19334e-21)
(0.998723 -0.00077257 1.24617e-22)
(1.01203 0.0885666 2.09742e-21)
(0.999911 -0.000230886 -1.50273e-24)
(1.18894 -0.142064 4.66954e-22)
(1.01752 0.0462682 1.93595e-20)
(1.0355 0.00737867 -2.27123e-21)
(0.999752 -0.000163108 -2.20511e-24)
(0.988308 -0.0138756 -6.81917e-22)
(0.998728 -0.000748624 -8.86199e-23)
(0.975985 -0.0370032 -1.1026e-22)
(0.947787 -0.00310306 1.40341e-21)
(1.00393 -0.00911219 2.21824e-22)
(1.00371 -0.0004594 1.20605e-22)
(1.00004 -0.00448247 -2.33875e-24)
(1.0001 -8.7818e-06 -1.9489e-23)
(1.00001 -5.27821e-07 -1.17096e-25)
(0.997717 -0.00010307 9.66115e-23)
(1.02594 0.0081595 3.77146e-21)
(0.999991 -3.01884e-07 -1.64034e-25)
(0.998712 -0.00530198 8.79771e-23)
(1.02567 0.00838681 -9.77843e-22)
(1.02064 0.000416773 2.69256e-21)
(0.973224 -0.0258275 -3.76773e-22)
(1.17692 0.0257579 8.83118e-22)
(0.992886 -0.00940749 7.72522e-22)
(0.99995 -0.000126299 -1.4443e-24)
(0.99637 -0.0038045 3.64942e-23)
(0.999519 -2.77894e-05 -2.02724e-23)
(0.987869 -0.00661045 9.90816e-23)
(0.999955 -3.27259e-05 -3.89083e-24)
(1.00063 -5.2555e-05 -6.06018e-24)
(0.999228 -0.00276077 8.77983e-23)
(1.02675 -0.00297038 2.29163e-21)
(1.2602 0.0578788 -1.02922e-21)
(1.02096 0.000163293 1.10928e-21)
(1.0474 0.0878351 5.52752e-21)
(1.17153 0.0781472 -2.91875e-21)
(1.01761 0.0455815 8.57926e-21)
(0.971175 -0.00241054 -2.61002e-22)
(1.01244 -0.0406245 -2.37174e-22)
(0.980915 -0.00624183 -1.40973e-22)
(1.11637 -0.0248085 -2.83866e-22)
(0.99951 -0.00160109 -3.17134e-23)
(0.997989 0.053019 -4.72766e-21)
(1.08458 -0.00629094 7.61289e-23)
(1.08517 -0.00495815 6.56655e-22)
(0.999964 -1.88038e-06 1.33819e-25)
(0.976449 -0.0807197 1.65417e-21)
(1.01162 -0.00068713 -5.97211e-22)
(0.997718 -0.000654371 5.9407e-23)
(1.0001 -7.66252e-05 4.07169e-24)
(0.987682 -0.0103664 -4.58138e-22)
(0.999991 -1.23623e-05 -6.51422e-26)
(0.97903 -0.00658705 -5.55315e-24)
(0.999993 -2.04918e-05 1.13259e-25)
(1.20094 -0.0842572 3.26638e-22)
(0.992513 -0.00401108 2.06438e-22)
(0.999985 -3.44671e-05 -7.45954e-25)
(0.999039 -0.000688476 9.25051e-23)
(0.999697 -0.000200372 -1.87435e-23)
(1.00022 -3.22739e-05 7.12034e-24)
(0.999764 -1.0293e-05 -3.67279e-24)
(0.977031 -0.0803044 1.08196e-22)
(1.11907 -0.0831735 3.17644e-22)
(0.979136 -0.00639804 -2.24819e-22)
(0.999949 -0.000129256 1.53569e-24)
(1.01495 -0.00516055 -1.37069e-21)
(1.00164 -0.00825234 -4.08186e-23)
(1.00169 -0.000113472 -5.40036e-25)
(1.04658 0.0864739 3.67689e-21)
(1.00311 -0.0583098 1.23224e-21)
(1.00959 0.0478606 -5.67748e-21)
(0.982139 -0.0513232 1.21081e-21)
(0.995898 -0.01902 1.18666e-22)
(0.999989 -3.9932e-05 -2.79391e-26)
(1.10011 0.000671088 -1.43506e-21)
(0.999767 -1.34759e-05 1.45703e-24)
(1.11753 -0.0233062 1.85323e-22)
(0.997072 -0.0135448 -5.20189e-22)
(0.85117 0.0516748 -2.79855e-21)
(0.999729 -0.00807164 -1.94057e-22)
(0.999841 -1.22225e-05 -1.30916e-23)
(1.05923 0.0881496 -6.82349e-21)
(1.00002 -1.0917e-05 4.02712e-25)
(1.17223 0.0753308 2.07767e-21)
(1.05879 0.0900155 9.78151e-21)
(0.953302 -0.015972 1.24768e-21)
(0.991028 -0.0080174 3.11723e-22)
(1.14759 0.00603866 5.92849e-22)
(0.999991 -6.87203e-07 -1.96707e-25)
(1.00907 0.133302 1.63177e-20)
(0.99639 -0.00390826 -3.8653e-23)
(0.921141 0.123958 -8.31643e-21)
(0.998843 -7.1635e-05 1.81051e-24)
(1.01841 -0.000453517 -1.73046e-21)
(1.02994 -0.0402211 1.99212e-23)
(1.00015 -2.05722e-05 6.06486e-24)
(1.08124 0.099288 -4.19551e-21)
(1.0001 -7.26081e-05 -1.23627e-23)
(1.00002 -9.32007e-06 2.00105e-25)
(0.988308 0.0889326 2.36207e-20)
(0.944227 0.0569758 -3.74096e-21)
(1.00479 -0.00760379 -4.45069e-23)
(0.998791 -0.00534282 -1.24701e-22)
(0.99641 -0.00375703 3.60112e-22)
(1.11243 0.172064 4.50627e-21)
(0.999948 -0.00770384 -6.53617e-23)
(1.00004 -2.69587e-06 -7.41227e-24)
(1.03168 0.0116273 4.8906e-22)
(1.0304 -0.0392849 -6.81798e-23)
(1.00001 -5.75677e-07 1.16494e-25)
(1.00774 -0.0106533 -5.23008e-25)
(0.996338 -0.00396131 -1.16778e-22)
(1.02653 -0.00272329 -3.54006e-21)
(1.00055 -0.00136662 -4.41459e-23)
(1.00245 -0.0577068 -9.32896e-22)
(0.97559 -0.0370052 8.05594e-22)
(0.992562 -0.00391081 1.32102e-22)
(0.999991 -6.95992e-07 9.08603e-26)
(0.997749 -9.71178e-05 5.64666e-23)
(1.00547 -0.00599102 2.91471e-22)
(0.999989 -4.08018e-05 -1.2197e-26)
(1.08048 -0.0240679 1.22297e-21)
(0.981925 -0.000451304 -1.42944e-23)
(1.00122 -0.079216 -7.22319e-22)
(0.981128 -0.00641147 7.66941e-22)
(1.00765 -0.0104788 3.08866e-22)
(0.999528 -2.57776e-05 -1.4902e-23)
(0.997543 -0.0421368 1.09072e-22)
(0.99555 -0.0115361 -2.52725e-22)
(0.999396 -0.000356251 -6.00808e-23)
(1.0196 -0.00949245 6.90283e-22)
(0.992185 -0.0226812 -6.24196e-23)
(1.08186 -0.0244843 -1.65679e-21)
(0.994953 -0.0115268 3.08304e-22)
(0.993567 -0.0100572 5.56597e-22)
(1.00395 -0.00895734 -1.24662e-22)
(1.21102 -0.0948602 2.30369e-21)
(0.949536 -0.0125444 -2.18687e-21)
(0.997199 -0.0361809 6.99722e-23)
(1.02261 -0.00258295 -8.20779e-23)
(0.949619 -0.011813 4.83939e-22)
(0.998542 -0.00179672 7.10984e-23)
(1.00562 -0.0107879 5.63321e-22)
(1.00002 -0.00440782 -7.62999e-24)
(1.0094 -0.00728802 9.29394e-23)
(1.01292 -0.0403171 -2.87842e-22)
(0.982736 0.0801286 -6.54698e-21)
(1.02846 0.0112982 2.17881e-21)
(1.00892 0.0476429 1.3394e-20)
(0.999747 -0.000557279 -1.16327e-24)
(0.997401 -0.0020797 7.74317e-23)
(1.00004 0.0006578 -2.5125e-21)
(1.0199 -0.0167353 1.36014e-21)
(1.19826 -0.0848695 -1.75028e-21)
(0.998588 -0.00179747 2.18863e-23)
(1.00001 -0.00732089 4.56759e-23)
(0.993227 0.0428472 -9.62709e-21)
(0.984535 -0.0134895 1.36998e-21)
(1.08629 0.0186577 -5.97416e-21)
(0.99228 -0.0682394 -8.42882e-22)
(0.949225 -0.0115029 -1.45319e-22)
(0.993211 -0.000178514 -3.45789e-22)
(0.982482 -0.0109628 -1.00253e-21)
(1.00344 -0.0266729 -2.45668e-22)
(1.02148 0.0115498 2.928e-21)
(1.00192 0.0603517 7.89584e-21)
(1.01083 -0.00718197 2.70023e-22)
(0.99999 -1.7741e-05 -4.57248e-25)
(0.997497 -0.00177869 6.43851e-24)
(0.97799 -0.0121545 -5.32794e-22)
(0.999549 -0.000619725 -2.88578e-23)
(0.999956 -3.29736e-05 3.00072e-24)
(1.02045 -0.00513401 -4.27653e-22)
(1.00982 -0.0471264 2.00803e-21)
(0.949287 -0.0107969 1.21134e-21)
(1.01057 0.0473682 -3.48443e-21)
(0.939229 0.0227483 -1.00619e-20)
(0.999993 -2.06782e-05 1.13642e-26)
(0.999402 -0.0198789 -5.6822e-22)
(0.98439 -0.0136688 -6.78905e-22)
(1.05566 -0.0206528 9.34654e-22)
(1.00423 -0.0087362 2.96829e-22)
(0.94756 -0.00239123 8.14571e-22)
(0.999902 -0.0001465 1.01041e-24)
(0.984958 -0.0270449 -3.34943e-23)
(0.986644 -0.0129428 4.4728e-23)
(0.99994 -0.00566391 8.51277e-24)
(0.981199 -0.000580205 4.47374e-22)
(0.999991 -3.73518e-07 2.35025e-25)
(0.962455 0.0762082 9.85413e-21)
(1.00335 -0.0131851 -4.59446e-23)
(0.981651 -0.00957308 -1.03043e-21)
(0.992691 -0.0674423 -4.73213e-22)
(0.970439 0.035061 5.40265e-21)
(1.0136 -0.00358726 -1.35776e-22)
(0.978511 -0.0288275 1.41471e-22)
(1.1048 0.165029 -3.68918e-21)
(0.988704 -0.0216244 -6.04706e-22)
(1.03193 -0.0419046 9.0616e-23)
(1.02125 0.0117144 4.42977e-21)
(1.00025 -2.40065e-05 7.64067e-24)
(1.0005 -0.00665507 2.21135e-24)
(0.989984 -0.0236015 2.19248e-22)
(0.997666 -0.000151901 -1.25721e-22)
(1.17416 -0.0696732 2.97716e-21)
(1.01236 -0.0290758 1.20237e-23)
(1.00168 -0.0801559 9.43339e-22)
(1.11926 -0.0854611 -1.60065e-21)
(0.998802 -6.21641e-05 -8.91813e-23)
(1.00055 -0.0015855 -5.0457e-24)
(1.0317 0.00142877 2.96153e-21)
(0.979807 -0.00151977 -9.1256e-22)
(0.992473 -0.0227405 -1.963e-23)
(0.95883 -0.0267759 -6.59129e-22)
(0.998987 0.0160779 -5.2259e-21)
(0.999126 -0.000945084 -6.76017e-24)
(1.01805 0.00119992 -1.34071e-20)
(1.00002 -0.00186048 -7.71699e-25)
(0.918364 0.116515 -1.50093e-20)
(1.00959 -0.00720225 -5.60584e-22)
(1.13479 -0.0250186 -3.94441e-23)
(1.01216 -0.000689826 5.61615e-22)
(1.00017 -3.53819e-06 4.03767e-23)
(1.03079 -0.0651386 5.35021e-23)
(1.00967 -0.00696641 -1.35044e-21)
(0.947876 -0.002032 -4.99711e-22)
(1.02885 0.0118184 -3.0811e-21)
(1.17492 -0.153551 -9.89523e-22)
(0.995714 -0.0191942 9.47219e-23)
(0.997739 -0.00250054 2.17731e-22)
(1.14512 0.00577329 1.24312e-21)
(0.998849 -0.000165328 9.68772e-23)
(1.11417 -0.0110404 -5.5735e-22)
(1.11723 -0.0355102 -1.49414e-23)
(0.999956 -1.72221e-05 -6.37732e-26)
(1.02004 -0.0163716 -3.38067e-22)
(1.00009 -0.00431796 -5.93616e-24)
(1.01265 -0.0294088 7.23356e-23)
(0.999186 -0.00230118 -8.05626e-23)
(0.987072 -0.0104543 -2.26216e-22)
(0.976644 -0.0348161 8.22993e-22)
(0.9977 -0.0361417 4.74706e-23)
(0.99864 -0.00707212 1.50083e-22)
(0.982731 -0.0513352 -1.01247e-21)
(0.997867 -0.0424771 -2.57385e-22)
(0.998822 -5.44162e-05 -6.71433e-23)
(1.00001 -0.00104732 2.51078e-24)
(0.978195 -0.0119367 2.91912e-22)
(1.00001 -0.000484999 4.33082e-24)
(1.00753 -0.0053756 8.44343e-22)
(0.964029 0.0751698 5.65158e-21)
(1.01912 0.000483062 -6.6516e-21)
(0.97796 -0.0836036 -9.88257e-22)
(1.18515 -0.13482 4.18705e-22)
(0.976279 -0.0346243 1.84573e-22)
(0.999992 -1.568e-05 -3.02285e-25)
(1.17838 0.0126789 4.61848e-22)
(1.0106 0.0466785 -3.3565e-21)
(0.999927 -0.000293782 8.80465e-25)
(1.01179 -0.00696167 -7.69948e-22)
(0.999098 -0.00106513 -5.66074e-23)
(1.0371 0.00618105 1.77373e-21)
(1.00009 -0.00289697 -5.61119e-24)
(1.11992 -0.0356777 -7.81261e-23)
(0.948682 -0.00878486 -6.46511e-22)
(0.993675 -0.0327199 2.34427e-22)
(1.26023 -0.0556948 -9.18344e-22)
(0.995957 -0.00525685 -2.22436e-22)
(0.984356 -0.033574 -1.37575e-22)
(1.07209 -0.0052879 6.87803e-22)
(1.01552 -0.0357086 3.11123e-23)
(0.98175 -0.00942594 6.99695e-22)
(1.10065 -0.169918 -3.52989e-21)
(1.0057 -0.0106627 -4.57353e-24)
(0.998201 -0.00119956 -6.83133e-23)
(1.06859 0.118874 7.97675e-21)
(1.08739 0.14045 5.72373e-21)
(0.99027 -0.0236475 -6.16064e-22)
(0.99901 -0.0030393 1.08134e-22)
(1.00167 -0.00796076 1.59558e-23)
(0.992169 0.0452976 -1.51992e-20)
(1.00053 -0.00160558 3.20043e-23)
(0.996518 -0.00360978 1.86181e-22)
(1.17786 0.00133436 -1.05241e-22)
(1.05552 -0.0336086 1.28021e-22)
(0.999904 -0.000150302 -7.77028e-24)
(1.01065 -0.00729884 -2.10444e-22)
(0.853735 0.0490302 4.96757e-21)
(1.07651 0.00184931 -3.11729e-21)
(0.981686 -0.00374927 -1.11733e-21)
(1.0056 -0.00595121 -4.25279e-22)
(1.03403 0.00428702 2.18194e-21)
(0.948276 -0.0084328 1.25613e-21)
(1.17914 0.0151641 -7.5522e-22)
(0.998209 -0.00124724 4.84797e-23)
(0.999992 -1.61576e-05 5.55253e-25)
(0.999761 -0.000591602 1.68389e-23)
(0.999112 -0.00104962 8.85895e-23)
(0.877222 0.0146486 3.24093e-21)
(0.997871 -0.00294785 -1.55661e-22)
(1.08574 -0.0189616 8.22771e-22)
(0.999959 -1.67118e-05 2.65812e-25)
(0.999374 -0.000903329 -2.62768e-24)
(0.997386 -0.00203574 -9.64613e-23)
(0.991797 -0.00832144 -2.93668e-22)
(1.05129 -0.00160609 -5.99851e-21)
(1.24208 0.0224013 -2.04872e-22)
(0.988173 -0.00619854 9.63971e-22)
(0.994416 -0.00650644 1.16591e-22)
(1.00111 -0.00208895 -1.75617e-23)
(0.99858 -0.00715773 -9.17951e-23)
(0.910258 0.12133 -2.54041e-22)
(0.979487 -0.0171332 1.78831e-21)
(0.998982 -0.00686988 3.94404e-23)
(1.07943 0.0981183 2.19788e-21)
(1.01565 0.0182741 -4.01753e-21)
(1.00956 -0.00679465 1.22273e-21)
(0.998243 -0.00195661 1.27964e-22)
(1.00308 -0.0267866 -3.17487e-23)
(1.0036 -0.0152047 2.06745e-24)
(1.02 -0.0322207 -1.87675e-23)
(1 -1.29207e-06 4.05461e-27)
(0.999573 -0.00100991 5.66224e-23)
(1.02382 -0.0246042 -3.81425e-22)
(1.06714 0.0413836 5.29711e-21)
(0.983838 -0.0382229 2.81978e-22)
(1.01058 0.0875647 3.90945e-21)
(0.872732 0.0292416 -3.72403e-21)
(1.10197 -0.0306058 -4.38484e-22)
(1 -1.2517e-06 3.17985e-26)
(0.990951 -0.000235369 -5.69799e-22)
(0.989704 -0.0146855 3.69724e-22)
(1.00003 -0.00562861 2.53845e-23)
(1 -2.14102e-06 -5.16155e-26)
(1.05752 -0.0856105 -9.3292e-22)
(1.18016 0.145695 -2.54909e-21)
(0.980063 -0.00149767 -9.05267e-22)
(0.99966 -1.75581e-05 -2.08579e-23)
(1.11567 -0.00330048 -9.24542e-22)
(1.00271 -0.00382299 3.41515e-23)
(1.00157 -0.00808585 -2.47332e-23)
(1.0001 -6.39078e-06 1.7304e-23)
(0.999164 -0.00102257 -4.96431e-23)
(1.02595 -0.0248274 -7.78969e-23)
(0.978248 -0.0285885 1.04395e-21)
(0.99689 -0.0193836 -1.97544e-22)
(0.996611 -0.0131412 -7.80858e-22)
(1.02404 -0.0250503 -4.32029e-22)
(1.00754 -0.00524507 -4.42361e-22)
(0.999925 -4.00851e-06 -6.52421e-24)
(1.10534 0.161968 7.57787e-21)
(0.956831 -0.0245713 1.44243e-22)
(1.00116 -0.00269442 -5.76741e-23)
(1.02374 -0.0548133 -2.8895e-22)
(1.03331 0.0059799 -7.99001e-21)
(1.018 0.0367879 -1.01309e-20)
(0.987476 -0.0103294 3.41735e-22)
(1.01221 -0.00315941 7.11744e-22)
(0.986824 -0.0129227 4.70266e-23)
(0.99881 -0.00134917 -1.25118e-22)
(1.09842 -0.168059 2.19023e-21)
(1.00037 -0.000744536 4.43087e-23)
(1.00008 -0.00424904 1.33934e-23)
(0.987711 -0.00757344 1.05247e-21)
(0.981036 -0.0133858 4.65886e-22)
(0.998779 -0.00145313 1.39513e-22)
(1.02871 0.151726 -4.05467e-21)
(1.01915 0.0442723 7.72006e-22)
(1.1366 -0.160192 1.02584e-21)
(1.06702 -0.0474164 1.61776e-22)
(1.00002 -9.89265e-06 -3.92448e-25)
(0.996753 -0.00756393 7.36944e-23)
(1.05298 -0.0228999 3.56141e-22)
(0.995556 -0.000174123 8.10674e-23)
(0.997667 -0.0152608 -3.71829e-22)
(0.998168 -0.00118694 1.71229e-23)
(1.00117 -0.00208285 -5.17276e-23)
(0.997827 -0.00256476 -1.51189e-22)
(0.997693 -0.000630286 -4.66365e-23)
(0.998625 -0.00694867 -4.93526e-23)
(1.00014 -0.00416203 -2.24903e-24)
(1.03531 -0.117162 3.54094e-22)
(1.00003 -1.46778e-05 3.86536e-24)
(1.00731 -0.00494814 -7.51554e-23)
(0.999994 -5.8998e-07 -1.65813e-26)
(0.948904 -0.0104855 -1.65833e-21)
(1.00014 -0.000126899 1.03686e-23)
(1.00794 0.107146 9.28932e-21)
(1.08576 0.138479 -3.00278e-21)
(1.02868 0.0278828 -3.57138e-21)
(1.06601 -0.0465847 -1.18415e-22)
(1.02461 0.0317476 -3.57901e-22)
(1.02073 0.000388692 3.7985e-21)
(0.998885 -0.00237603 1.65691e-23)
(1.00108 -0.00108109 -6.32368e-23)
(0.999859 -0.00041506 1.4659e-25)
(0.997037 -0.00151189 1.07853e-22)
(0.982065 -0.00951263 4.14064e-22)
(0.996013 -0.00516486 -8.96038e-23)
(0.996627 -0.00759736 1.97744e-22)
(1.0215 -0.031715 1.24114e-23)
(1.00014 -0.000123003 -1.26605e-23)
(0.999898 -5.21472e-05 -1.87716e-24)
(1.00009 -7.09247e-05 -9.14869e-24)
(0.999486 -0.0015743 3.40263e-23)
(1.01857 -0.000534629 1.63745e-21)
(1.01919 -0.031121 2.30857e-23)
(0.987552 -0.0074907 -1.12263e-21)
(1 -0.000472191 -8.97473e-24)
(1.06613 -0.0833817 1.93317e-21)
(1.00053 -0.00153198 9.95263e-23)
(0.999909 -5.19387e-05 -7.39347e-24)
(1.01829 0.036068 1.44418e-20)
(1.02271 -0.00277753 2.99328e-22)
(1.00146 0.032329 2.39248e-20)
(1.00003 -2.01133e-05 -3.6624e-24)
(1.00003 -0.000354038 0)
(1.00114 -0.00117617 9.4691e-23)
(0.992586 -0.0231836 2.96675e-22)
(0.996739 -0.00435306 -9.49521e-23)
(1.02319 -0.0784107 -6.85746e-22)
(0.979982 -0.000662573 6.05631e-22)
(1.05561 0.0255813 6.53326e-21)
(0.994731 -0.000133378 7.29687e-22)
(1.03068 0.151588 -2.1282e-21)
(1.00055 -0.00150929 -7.24993e-23)
(1.00113 -0.00265518 6.77393e-23)
(1.00146 0.0457972 -6.26694e-21)
(1.06983 0.11724 -3.31719e-21)
(1.03465 -0.0662067 -1.62214e-21)
(1.00168 -0.00148589 1.67104e-23)
(0.949936 -0.0128489 2.39298e-21)
(0.994679 -0.000167944 -4.18618e-22)
(1.00003 -2.13767e-05 1.56923e-24)
(1.00731 -0.00509409 8.88728e-23)
(0.957465 -0.0253137 -3.64907e-22)
(0.989806 -0.0232451 -5.04544e-23)
(0.970909 -0.00241428 4.60189e-22)
(1.0217 -0.0323833 4.70737e-23)
(1.07533 0.0013398 5.12104e-21)
(0.999995 -6.53411e-07 -2.78482e-26)
(1.00172 -0.00145788 -3.35245e-23)
(1.01485 -0.00537728 9.79171e-22)
(1.02935 -0.0150043 -1.22311e-21)
(1.00006 0.117211 -4.70769e-21)
(0.999999 -1.1892e-06 1.55422e-27)
(0.999959 -1.74183e-05 9.16987e-26)
(1.00113 -0.000103006 -1.63761e-22)
(0.989865 -0.0229356 -6.05187e-22)
(0.999596 -0.00061082 2.46191e-23)
(0.999925 -0.000319561 1.94993e-24)
(1.08587 -0.0252273 -8.33931e-22)
(0.915116 0.0144851 -1.34198e-20)
(1.12121 -0.0337136 1.31485e-23)
(1.00284 0.0380974 -6.0684e-21)
(0.987047 -0.00239197 2.54966e-22)
(0.998496 0.0148623 3.35617e-21)
(1.01932 0.0076709 4.5603e-21)
(0.997861 -0.00259522 5.98813e-23)
(1.05563 -0.0856732 1.29289e-21)
(0.9572 -0.0151175 2.08539e-21)
(0.99727 -0.0134058 3.70178e-22)
(1.00047 -0.00656308 2.55441e-24)
(0.997869 -0.00482304 1.16406e-22)
(0.999078 -0.000677226 2.7876e-23)
(0.998903 0.0425485 -2.72386e-20)
(0.989058 -0.0214842 -8.91398e-22)
(1.0203 0.105523 4.67596e-21)
(1.01599 -0.0360847 1.94011e-22)
(1.02883 0.0272103 1.98745e-21)
(0.987508 -0.00627834 4.24517e-22)
(0.991956 -0.00836909 -7.64542e-22)
(1.1774 -0.0707692 2.26493e-22)
(1.0197 0.0117942 4.78627e-21)
(0.99829 -0.00196654 -1.44174e-22)
(1.00001 -0.00180539 9.35614e-24)
(0.999988 -0.00187559 -2.03594e-24)
(0.999985 -9.63191e-07 -1.54962e-24)
(1.01784 -0.0313601 6.48817e-23)
(0.978077 -0.0419772 -1.06613e-21)
(1.00014 -0.000304107 -1.59784e-23)
(1.0483 -0.0239484 -7.65082e-23)
(0.999796 -0.000488816 2.87966e-24)
(0.999794 -0.000499701 -1.77252e-23)
(1.00132 -0.00017084 -1.28726e-23)
(1.01669 -0.0357073 -1.09741e-22)
(1.00042 -3.63512e-05 -2.95989e-23)
(1.00081 -0.0052992 -7.43479e-26)
(0.985176 -0.00274776 5.59066e-22)
(0.997411 -0.00375606 7.76735e-23)
(0.997041 -0.00156173 -3.74921e-22)
(0.991488 0.0584905 -3.66748e-20)
(1.08628 -0.0581145 -1.53662e-21)
(1.00644 -0.00961046 3.74595e-22)
(0.993522 -0.0102443 4.20775e-22)
(0.981226 -0.0261679 -1.37782e-22)
(1.00012 -0.00409808 -3.65256e-25)
(1.00001 -1.98834e-05 -1.16924e-24)
(1 -1.71653e-06 -1.05522e-26)
(0.974048 -0.00505346 9.06095e-23)
(0.957404 -0.0147739 -2.12776e-21)
(0.981332 -0.018197 -3.19935e-23)
(1.00001 -1.93664e-05 -3.25924e-24)
(0.990528 -0.00414581 6.3248e-22)
(1.0506 -0.00120896 5.57273e-21)
(1.26449 0.0571445 1.26369e-21)
(1.10134 -0.032324 -2.99808e-22)
(0.999965 -2.28964e-06 -1.30296e-24)
(0.982174 -0.0093691 1.37702e-21)
(1.00315 -0.0254238 4.06187e-22)
(1.00007 -6.417e-06 -9.63168e-25)
(0.999949 -0.000152994 7.22715e-25)
(0.980093 -0.000493997 -1.11284e-22)
(1.00109 -0.000101095 -5.3994e-23)
(1.00037 -0.00342438 -6.22143e-24)
(1.01108 -0.0692936 -3.07306e-22)
(1.00026 -2.47249e-05 -2.28408e-23)
(0.968151 -0.033722 1.50468e-21)
(0.98509 -0.00286767 -5.65735e-22)
(0.987092 -0.00249355 4.54167e-22)
(0.988336 -0.00628669 1.57303e-22)
(1.00093 -0.00532271 -2.71426e-23)
(0.975453 -0.0188136 1.63992e-21)
(1.00017 -0.000284238 1.9968e-23)
(1.00002 -8.48822e-06 -1.63496e-25)
(1.00323 -0.00333192 1.13039e-22)
(1.051 0.118217 -3.53e-21)
(0.972266 0.0332114 2.68429e-20)
(1.00911 0.0326698 5.12894e-21)
(1.0189 -0.0315188 6.19901e-26)
(0.99309 -0.0087371 -1.5155e-22)
(1.00785 0.0385305 2.74686e-20)
(1.00905 -0.00612204 -1.70134e-21)
(1.00014 -0.000253955 -1.38585e-23)
(1.01651 -0.000887905 -1.27122e-21)
(0.990913 -0.00814582 1.74361e-22)
(1.11576 -0.0120966 -8.43434e-22)
(0.997894 -0.00474948 1.46344e-22)
(1.02016 -0.000494502 -4.0772e-21)
(1.00062 -6.76322e-05 5.46338e-23)
(1.00941 0.0320036 3.47465e-21)
(1.00033 -3.10096e-05 -3.58227e-23)
(0.996683 -0.00469137 5.30277e-23)
(0.987664 -0.00633312 -1.16351e-22)
(1.01203 0.0455653 3.49432e-21)
(1.00017 -6.30084e-06 -3.59643e-23)
(0.990359 -0.0241305 8.17273e-22)
(1.0232 -0.0773462 1.30183e-21)
(1.05701 0.0257009 -5.15849e-21)
(0.996536 -0.0291926 -5.44967e-22)
(0.996638 -0.00431044 1.36431e-22)
(1.12096 -0.0729346 6.20231e-22)
(1.00004 -1.07025e-06 -2.9362e-24)
(1.13819 -0.157653 -4.26971e-22)
(0.997289 -0.00383446 8.3256e-23)
(1.01199 -0.00703147 -1.21408e-21)
(0.992852 -0.0232288 2.75156e-22)
(1.00173 -0.000140208 -1.98448e-22)
(1.1795 0.141293 -6.48284e-21)
(1.01899 0.0450608 -7.86328e-21)
(0.965519 0.0603661 1.25221e-20)
(1.024 0.0314438 1.06635e-21)
(1.06523 0.0661424 3.85901e-21)
(1.11572 -0.0377698 1.5666e-22)
(1.11477 0.174439 -7.84949e-23)
(1.0092 -0.00606539 1.88929e-21)
(1.03796 0.0657534 4.35998e-21)
(1.00161 0.0292748 -1.85573e-20)
(1.00032 -0.00345714 -3.00474e-24)
(0.999127 -0.00218444 -4.29432e-23)
(0.977217 0.0299746 -2.89745e-20)
(1.00002 -1.34381e-05 -7.02504e-25)
(1.17683 -0.150507 1.20204e-21)
(1.25865 0.0741316 1.79304e-22)
(0.988383 -0.010481 7.14317e-22)
(1.00065 -0.00140146 -6.47184e-24)
(1.02896 -0.0146683 -4.19978e-22)
(0.999107 -0.00101502 -4.58256e-23)
(1.00111 -0.00109688 -1.88309e-24)
(0.990603 0.0757529 -6.57626e-21)
(0.930911 0.0600044 1.09174e-20)
(0.999908 -5.05395e-06 -4.21005e-25)
(1.00017 -0.000284387 -1.98818e-23)
(1.05701 -0.0305133 -1.86255e-22)
(1.00007 -0.00171811 1.81402e-24)
(1.26418 -0.0554972 2.18692e-21)
(1.06848 0.114835 -5.46984e-21)
(1.04176 0.0241157 1.06654e-21)
(0.999952 -0.00015399 -2.29193e-24)
(0.993475 -0.0403621 2.28239e-22)
(0.994982 -0.0339625 1.24179e-21)
(1.00036 -3.07115e-05 2.31274e-23)
(1.0105 -0.0225393 8.35475e-23)
(1.0317 0.000972833 1.57391e-21)
(0.936206 0.0581615 -6.99284e-21)
(1.00004 -0.00178542 -2.00694e-24)
(0.999999 -1.32004e-06 -4.39063e-27)
(1.03813 0.0646884 3.21677e-21)
(1.01024 -0.0222885 1.3184e-22)
(0.999906 -5.94125e-06 -9.51187e-24)
(1.02326 -0.0106631 -2.90472e-22)
(1.00441 -0.00812771 -6.61991e-23)
(0.997866 -0.00281852 -1.36148e-23)
(0.998545 -5.3052e-05 3.88699e-23)
(1.20155 -0.134396 8.65191e-22)
(0.989417 -0.0038234 2.57656e-22)
(0.99912 -0.000997916 2.96077e-24)
(0.981274 -0.0134115 1.00059e-23)
(1.00018 -0.000274491 2.85772e-23)
(0.999915 -5.44777e-05 5.03602e-24)
(0.999831 -0.00799374 1.091e-22)
(1.1313 -0.0140854 -4.77819e-23)
(0.999853 -3.99424e-05 4.3294e-24)
(0.985191 -0.00306904 -6.77364e-22)
(1.00048 -0.000658158 6.11804e-24)
(0.996795 -0.0288193 -2.3697e-22)
(1.01189 0.0462226 -4.57164e-21)
(0.99992 -0.000297043 -1.34543e-24)
(0.857785 0.0234473 -8.22917e-21)
(1.04922 -0.0528519 3.87738e-22)
(0.997196 0.0197412 3.75167e-21)
(1.12843 -0.0147307 3.05183e-22)
(0.999656 -0.000187743 8.82625e-24)
(0.999981 -5.03504e-05 -4.51067e-25)
(0.999718 -0.000206045 -1.73327e-23)
(0.996786 -0.00431783 7.37797e-24)
(1.01648 0.00175374 0)
(0.999577 -0.00662914 7.31222e-23)
(0.990861 -0.00029657 1.35535e-22)
(0.989338 0.0878596 -2.25617e-20)
(0.958385 -0.0166402 -1.87278e-21)
(0.958025 -0.0164751 1.61644e-21)
(1.02621 -0.0241348 3.31324e-22)
(1.04734 -0.0266383 1.20797e-21)
(0.989469 0.0653059 2.28127e-20)
(0.999668 -0.00022132 8.67191e-24)
(0.990628 -0.0241919 1.68297e-22)
(0.988159 -0.0104514 -6.83159e-22)
(1.00013 -0.000124982 1.47703e-23)
(1.01327 -0.0293827 -4.86028e-23)
(1.00048 -0.000632697 -2.98081e-24)
(1.01825 -0.0316586 9.69109e-24)
(0.982431 -0.0478505 2.12679e-22)
(0.901817 0.0750682 -1.39488e-20)
(0.966834 -0.0333038 -1.43124e-21)
(0.998615 -0.00160557 2.06318e-23)
(0.987161 -0.0100251 -1.21278e-21)
(1.0037 -0.0149535 2.67477e-24)
(1.08056 -0.0112069 -2.44852e-21)
(1.02095 0.000231345 -6.43471e-22)
(1.00597 -0.0281633 5.19328e-23)
(1.00001 -1.72713e-07 -3.9503e-25)
(1.00289 0.0380894 7.61128e-21)
(0.991387 -0.0046027 -6.95933e-23)
(0.948403 -0.00766774 1.16351e-21)
(0.999283 -0.00624932 5.35213e-23)
(1.02194 -0.0244697 -1.31837e-21)
(0.986408 -0.0313535 1.32609e-21)
(1.00327 -0.00326687 4.96263e-23)
(1.23294 -0.0158563 2.22854e-21)
(0.999461 -2.20478e-05 5.89063e-23)
(1.00904 0.0785286 1.22992e-20)
(0.999598 -0.0116557 -1.25765e-22)
(1.03341 0.00212095 -7.84865e-22)
(0.971783 -0.00496069 1.07083e-21)
(1.01395 -0.00237167 1.98776e-22)
(0.999991 -1.24174e-05 -2.32032e-25)
(0.985212 -0.0268669 -8.13997e-23)
(0.985112 -0.0031829 6.39199e-22)
(0.989593 -0.0223138 8.19874e-22)
(1.0232 -0.0110474 -2.09831e-22)
(1.01009 -0.0698884 -3.15398e-22)
(1.00018 -0.000274478 -3.24744e-23)
(1.00522 -0.120829 -6.22779e-22)
(0.999059 -0.000694136 -1.14331e-22)
(0.99999 -4.52978e-05 1.35193e-25)
(0.999595 -0.00651839 -8.05413e-23)
(1.00015 -0.000294204 8.20517e-24)
(0.933856 0.057432 9.5032e-21)
(1.00014 -0.000122685 -1.30573e-23)
(1.00852 0.106262 -2.84717e-21)
(0.986902 -0.0105924 -1.91622e-22)
(1.01344 -0.00192 -3.73782e-22)
(1.00189 -0.00149663 -1.79525e-22)
(1.06241 0.0155017 6.56405e-21)
(1.00263 -0.00386866 -2.11102e-22)
(1.01503 0.0186705 -3.457e-21)
(1 -2.19459e-06 -2.56641e-26)
(1.01427 -0.0403115 -3.30074e-22)
(0.999165 -0.0031858 3.91554e-23)
(1.00112 -0.00257385 9.9804e-24)
(0.983173 -0.0110013 -2.94169e-22)
(1.00002 -1.11484e-05 1.65928e-24)
(1.17996 -0.00510919 2.29144e-22)
(0.944627 0.124691 3.29243e-21)
(1.25479 0.0744206 -3.17176e-22)
(1.00014 -0.000247293 2.69459e-23)
(1.09366 -0.0893463 -7.89118e-22)
(1.01671 0.00196684 -1.0965e-21)
(0.984319 0.0805497 1.60997e-20)
(1.00004 -0.00292039 -6.52106e-25)
(0.999831 -1.80553e-06 -3.54285e-24)
(1.05573 -0.0299437 -2.5883e-22)
(1.00011 -9.0078e-05 -8.97304e-24)
(0.969371 0.0288222 -5.99928e-21)
(1.00339 -0.0252197 2.401e-23)
(1.18189 0.155422 -6.63343e-23)
(1.06582 0.0410982 -7.03386e-21)
(1.0001 -8.27277e-05 7.17209e-24)
(0.977807 -0.082545 -9.14839e-22)
(1.00706 0.0249851 -7.65624e-21)
(0.999915 -5.20484e-05 2.29924e-25)
(1.05661 -0.02102 2.35177e-21)
(0.998027 0.00728775 1.78959e-20)
(0.998526 -6.71904e-05 3.14992e-23)
(1.00155 -0.0083768 3.5571e-23)
(1.00024 -3.29752e-05 1.72767e-23)
(1.00417 -0.00890533 -1.69131e-22)
(0.987708 -0.00653521 5.31783e-23)
(0.995937 -6.89954e-05 4.93975e-23)
(1.0267 0.10854 -6.31422e-21)
(0.997246 -0.0131388 2.48353e-22)
(0.895567 0.10538 2.4727e-20)
(0.831219 0.0110168 2.26522e-20)
(0.998154 -6.15081e-05 -9.23698e-23)
(1.00003 -0.000268466 -1.28058e-24)
(1.02023 0.104032 -2.6524e-21)
(0.997833 -0.00267141 5.38153e-23)
(0.98923 -0.00261553 1.38873e-22)
(1.00016 -0.000294262 -4.64251e-24)
(1.04358 0.0272815 2.4829e-22)
(0.972011 -0.00496197 -1.53229e-21)
(0.912447 0.0592602 1.73292e-20)
(0.999211 -0.00282358 -5.60854e-23)
(0.999966 -0.000797346 -3.76315e-24)
(0.991404 -0.00471537 2.38606e-22)
(1.26699 0.0333054 2.18579e-21)
(0.993897 -0.0404356 4.96142e-23)
(1.08946 -0.0224987 -2.73186e-22)
(1.0338 -0.0245495 -8.2789e-22)
(1.0205 0.00760448 -3.80316e-21)
(0.999874 -7.54968e-05 -2.86349e-24)
(1.19002 -0.0484068 -9.05514e-22)
(1.00001 -1.89407e-05 -2.10791e-24)
(1.00102 -0.000899035 1.19284e-22)
(0.999994 -8.36481e-07 5.87879e-26)
(1.13604 -0.153837 -2.47242e-21)
(1.03597 -0.0667107 1.35098e-21)
(1.01753 0.0351837 6.41553e-22)
(0.999985 -1.03495e-06 1.56844e-25)
(0.96657 0.0586191 -3.33766e-20)
(0.999738 -7.87927e-05 1.06457e-23)
(1.01358 -0.0291081 -4.80961e-23)
(0.999599 -0.000214472 3.00315e-23)
(0.956906 -0.0250904 7.23228e-23)
(0.99366 -0.0104066 -6.63079e-22)
(1.07707 0.0121579 2.86581e-21)
(0.999911 -6.41234e-06 1.26126e-23)
(1.00995 -0.0463268 -6.40789e-22)
(1.01103 -0.0224105 2.87809e-23)
(0.993063 -0.00940675 -5.70371e-22)
(0.999987 -4.89653e-05 1.11001e-25)
(0.99995 -0.000790614 -2.742e-24)
(0.999857 -6.38179e-06 1.53644e-24)
(0.981839 -0.0316438 -9.28847e-22)
(1.00109 -0.00214286 5.17243e-23)
(0.999255 -0.000437437 -2.75785e-24)
(0.979795 -0.000159128 9.23295e-22)
(1.00006 -0.000134121 -9.71071e-26)
(1.00019 -0.000266368 2.6048e-23)
(1.00356 -0.0131835 3.44709e-23)
(0.999662 -0.00018916 5.20678e-24)
(1.00844 0.0383576 -1.21362e-20)
(1.04024 -0.00417052 4.775e-21)
(1.2705 -0.0115165 1.55993e-22)
(0.98369 -0.000483784 -1.19097e-22)
(1.00539 -0.0569622 8.65239e-22)
(0.999991 -7.10639e-07 -9.33604e-26)
(1.12353 -0.0740601 -7.467e-22)
(0.981916 -0.0477131 -8.83891e-22)
(1.00022 -3.26235e-05 2.59558e-23)
(0.981525 -0.0185141 -4.06265e-22)
(0.999088 -0.00295054 -4.36213e-23)
(0.977482 -0.0130884 4.7377e-22)
(1.09242 -0.12762 -6.93492e-22)
(1.00032 -3.12089e-05 -2.67488e-23)
(1.01714 -0.0360149 3.22247e-22)
(0.999991 -4.68062e-05 -4.95077e-25)
(0.99661 -0.00405092 -8.75955e-23)
(0.999752 -8.07741e-05 1.01146e-24)
(1.03574 0.0579647 -5.8229e-22)
(0.995021 -0.00121909 -2.48569e-22)
(1.00009 -0.000160526 -2.32722e-25)
(0.999888 -5.21538e-05 4.58446e-24)
(1.01595 -0.0076075 1.19882e-21)
(0.973056 -0.026174 1.40161e-22)
(0.997863 -0.00270078 -8.58451e-23)
(0.999985 -0.000827118 -8.41365e-24)
(1.02561 0.109769 -7.72984e-22)
(1.0023 0.0598371 4.8799e-21)
(1.00115 -0.00254564 3.01524e-23)
(1.17108 0.105677 -9.44573e-23)
(1.07554 -0.0957256 2.06368e-21)
(0.958923 -0.0272507 6.04334e-22)
(1.00003 -0.00026455 5.06998e-24)
(0.999992 -3.28193e-07 3.31761e-25)
(1.05191 0.116503 4.52247e-21)
(0.97786 -0.0111769 1.44818e-22)
(1.00006 -0.000133821 -4.23924e-24)
(1.17236 0.0513582 1.80764e-21)
(0.999398 -0.000342642 3.64904e-23)
(0.999992 -4.02916e-06 6.09928e-25)
(1.05849 -0.00503786 4.47414e-22)
(0.986572 -0.0612319 -3.27979e-22)
(0.967266 -0.0332317 1.90709e-21)
(0.955128 -0.024505 2.61732e-22)
(0.99204 -0.0216195 -5.99096e-22)
(0.99572 -0.000145809 8.67217e-23)
(0.989342 -0.00272562 -1.1146e-21)
(1.00055 -0.00640431 -5.85211e-24)
(1.05505 0.0435891 -3.52736e-21)
(0.999853 -0.000420252 -5.71264e-24)