/*--------------------------------*- C++ -*----------------------------------*\
  =========                 |
  \\      /  F ield         | OpenFOAM: The Open Source CFD Toolbox
   \\    /   O peration     | Website:  https://openfoam.org
    \\  /    A nd           | Version:  7
     \\/     M anipulation  |
\*---------------------------------------------------------------------------*/
FoamFile
{
    version     2.0;
    format      ascii;
    class       volVectorField;
    location    "31";
    object      U;
}
// * * * * * * * * * * * * * * * * * * * * * * * * * * * * * * * * * * * * * //

dimensions      [0 1 -1 0 0 0 0];

internalField   nonuniform List<vector> 
20933
(
(0.997668 -0.000231847 1.12679e-23)
(0.99049 -0.000732564 5.77222e-23)
(1.02897 -0.00389935 -1.63568e-23)
(1.00028 -5.05718e-05 -1.98839e-24)
(1.00067 -0.00975892 6.2879e-23)
(1.00029 -0.0103691 -6.16397e-23)
(1.05159 -0.185686 -8.27943e-22)
(1.10818 0.0745567 -1.33276e-20)
(1.00814 -0.0917767 -2.0086e-21)
(1.11395 0.0756057 9.56506e-21)
(1.06339 -0.165635 -2.44921e-21)
(1.21461 0.131558 -3.96485e-22)
(0.984635 -0.0589258 -3.0202e-22)
(0.997502 -0.000277066 -1.05285e-23)
(0.9955 -0.00345164 3.74758e-23)
(1.00027 -6.21082e-05 -1.76247e-24)
(1.29372 -0.00991799 -7.35849e-22)
(1.12304 0.00199235 -6.96008e-21)
(1.0081 -0.139887 -1.40061e-21)
(0.992631 -0.000350248 -5.0022e-23)
(1.02245 -0.105497 2.67925e-21)
(1.2102 0.130884 -7.39154e-22)
(1.11639 0.0820464 -7.19326e-21)
(1.16227 -0.203473 -1.66591e-21)
(1.02691 -0.00179729 4.23719e-24)
(0.991405 0.0892643 -2.21679e-20)
(1.0099 -0.00290708 1.46748e-23)
(0.99419 -0.063641 1.01042e-21)
(1.21681 -0.183523 -1.56324e-21)
(1.01121 -0.141296 4.93696e-21)
(0.998619 -0.00229096 -6.88754e-25)
(0.945564 0.0147138 3.4299e-20)
(1.14997 0.125306 5.67205e-21)
(0.991393 -0.0364837 1.06349e-22)
(1.00003 -0.00173096 6.47366e-24)
(0.998677 -0.00247965 -1.98146e-24)
(1.10018 0.0941913 -1.45554e-20)
(0.999933 -3.77141e-06 -3.21678e-24)
(1.01633 -0.0213195 7.7013e-23)
(1.13421 0.00405074 -2.3374e-21)
(1.04537 -0.00896834 3.50139e-23)
(1.11516 0.15219 1.02369e-20)
(1.03515 0.0464001 -6.28359e-21)
(1.00881 -0.00337241 -1.21907e-23)
(0.991171 0.0857106 8.77895e-21)
(0.979281 -0.00149568 2.18468e-23)
(1.10323 0.0112829 -2.03391e-20)
(1.26628 0.0708549 -1.24765e-21)
(0.999619 -0.000100388 -2.61221e-24)
(0.970812 -0.0514963 1.34095e-22)
(0.999926 -0.00184109 -1.59562e-23)
(1.08353 -0.00948014 1.2784e-21)
(1.21486 -0.113037 4.24924e-21)
(1.00032 -0.00414459 -2.32732e-23)
(1.25624 -0.111008 -1.08802e-21)
(0.946889 -0.0188497 -7.99786e-23)
(0.97657 -0.033938 3.94562e-23)
(0.998467 -0.00299151 5.55032e-25)
(1.01149 -0.0529404 -1.21494e-21)
(1.28926 -0.00571034 6.33443e-22)
(0.973647 0.0304018 1.85662e-20)
(0.969581 -0.00432392 1.35829e-22)
(0.988859 -0.00332782 -3.86528e-23)
(1.12796 0.0749516 -6.12261e-22)
(0.99946 -8.06945e-05 1.69056e-23)
(0.995107 -0.00866216 3.27867e-24)
(0.994405 0.0615938 5.64286e-22)
(0.994527 -0.00903958 3.76007e-23)
(1.1369 -0.0796578 -3.92633e-22)
(0.997562 0.0908411 8.27826e-21)
(1.04558 -0.0465589 -2.66019e-22)
(1.30198 -0.0418178 -1.55892e-21)
(0.995916 -0.0034693 -1.06481e-23)
(0.982484 -0.042774 8.96903e-22)
(0.999756 0.00898116 -8.29137e-21)
(1.08686 -0.092709 9.99644e-22)
(0.997941 0.0848754 3.83431e-21)
(0.96091 -0.00498192 6.06159e-23)
(1.13193 0.0026458 1.49223e-21)
(1.00302 0.0331153 1.21038e-20)
(0.996066 -0.00903738 1.19773e-22)
(1.00235 -0.00492069 -2.34125e-23)
(1.19687 -0.188249 1.25352e-21)
(1.00911 -0.0887484 1.67324e-21)
(0.972846 -0.0034175 -1.49097e-22)
(1.03269 0.0437327 3.02831e-20)
(0.987729 -0.0548499 -5.49087e-22)
(0.897786 0.0526171 3.23842e-21)
(1.12398 0.0700917 -5.78496e-21)
(0.976543 0.0901269 1.40986e-20)
(1.1176 0.028731 -7.77365e-21)
(1.00034 -7.90573e-05 1.87999e-24)
(1.00004 -0.000337898 7.37231e-24)
(0.955023 0.0046556 -9.57083e-21)
(1.27192 0.0652079 6.29314e-22)
(0.989232 -0.00351764 -1.31984e-23)
(0.963737 0.0030011 1.46741e-20)
(0.999345 -0.00493026 1.7647e-23)
(1.06777 -0.159533 -1.06718e-21)
(1.07473 0.0161245 -7.98588e-21)
(0.97318 0.0925401 -4.17564e-20)
(0.974358 -0.0109054 2.34513e-23)
(0.964103 0.0844752 -4.56652e-20)
(1.19853 -0.103731 4.2301e-21)
(1.11096 -0.003178 -3.83603e-21)
(1.11562 -0.0878912 7.51127e-22)
(1.02317 0.101712 1.55659e-20)
(1.18257 -0.0860188 9.28786e-22)
(0.990311 -0.000419534 6.93182e-23)
(1.04063 0.115946 3.50653e-21)
(1.22554 -0.18607 -5.25815e-21)
(1.0457 -0.185543 -1.86685e-21)
(0.975758 -0.0263811 3.0022e-22)
(1.03739 -0.02408 -2.10271e-24)
(1.08845 -0.0853563 3.24588e-22)
(1.00007 -0.000115223 -2.01199e-24)
(1.0512 0.0752222 1.48132e-20)
(0.996677 -0.00845751 -4.66594e-23)
(1.19185 -0.11739 9.60918e-22)
(1.00258 0.0248422 -2.85385e-20)
(1.00034 -5.8919e-05 3.58176e-25)
(1.03625 -0.109326 1.73535e-21)
(1.15183 0.023331 -3.14425e-21)
(1.01266 -0.0607045 -1.68079e-21)
(0.99126 -0.0345735 -8.60246e-23)
(1.12414 0.00413413 3.5788e-21)
(1.18118 0.138194 -1.28667e-20)
(0.993862 -0.0612087 8.15889e-22)
(0.939086 0.0175081 -1.00059e-20)
(1.04677 0.0774926 7.93903e-21)
(0.989781 -0.0708878 -8.13702e-22)
(0.970404 -0.0494514 -4.43932e-22)
(1.04549 -0.00465171 1.15606e-22)
(1.01537 -0.0196265 -3.29557e-23)
(1.0181 0.0953755 -2.11837e-20)
(1.10725 -0.00594892 -9.63977e-22)
(1.24317 0.0858077 -2.22592e-21)
(1.02612 -0.105982 -1.12766e-21)
(0.979518 -0.0111738 2.38265e-22)
(0.992881 -0.094491 3.67445e-21)
(1.03202 -0.113038 2.95285e-22)
(0.980737 -0.0442509 -8.85951e-22)
(1.30327 -0.0538048 -1.53628e-21)
(0.960442 0.0923874 -1.44293e-20)
(1.22059 0.000336019 8.8982e-22)
(1.01702 0.0982069 1.91589e-20)
(1.15514 0.153552 -1.44551e-21)
(0.967524 -0.0114414 -1.60045e-22)
(1.1887 0.12917 -9.01084e-21)
(1.0112 -0.00388753 -2.91825e-23)
(0.967562 -0.0103872 3.11121e-22)
(0.99924 0.0891447 9.6671e-22)
(1.00005 -0.000293429 -4.7239e-24)
(1.00701 -0.0820462 6.3363e-22)
(1.00229 -0.0044235 4.06332e-23)
(1.15144 0.156705 7.82718e-21)
(1.02847 0.0455974 -3.22735e-21)
(1.15662 -0.200008 7.70103e-21)
(0.941758 -0.0221865 1.90823e-22)
(0.983682 -0.0604164 6.32686e-22)
(1.26351 -0.119895 1.55778e-21)
(1.05605 -0.178871 1.27575e-21)
(0.998421 -0.00275551 -2.54548e-24)
(1.21748 0.00575007 -1.57196e-21)
(1.12587 -0.00271474 -6.37237e-22)
(0.900043 0.0549283 7.71465e-21)
(0.975516 -0.0111067 1.44318e-22)
(1.18987 -0.196952 4.79082e-22)
(1.08194 -0.0951278 -1.14867e-21)
(1.10109 0.0901994 -8.58992e-21)
(1.24799 0.0856429 7.42729e-22)
(0.986736 0.068122 8.66565e-21)
(1.06245 0.135804 2.36755e-20)
(0.988295 -0.031698 1.72267e-23)
(0.920587 0.0142356 -1.14702e-20)
(1.15473 0.126599 6.7796e-21)
(0.996847 -0.000617399 -1.19986e-23)
(0.991164 0.0066163 -2.18232e-20)
(1.09521 -0.0831068 -7.30532e-23)
(1.03343 0.120337 6.7499e-21)
(1.01223 0.104106 -9.71257e-21)
(0.999898 -2.63657e-06 3.93061e-24)
(0.959124 0.0638642 6.14026e-22)
(1.06033 0.11826 2.0219e-20)
(0.992048 -0.000588884 4.16001e-24)
(0.942544 -0.0153728 9.26737e-22)
(1.04497 -0.0434335 2.15115e-22)
(1.08121 0.0124295 -2.05012e-21)
(1.19241 -0.110257 -1.53176e-21)
(0.929202 0.0471508 1.02037e-20)
(1.17916 0.134037 -4.44521e-21)
(1.26322 -0.0304396 -1.61562e-22)
(1.07004 0.0121092 1.60257e-20)
(1.13503 -0.0727565 2.42672e-22)
(0.942059 -0.0233749 5.02879e-22)
(1.21495 0.100233 -5.24387e-21)
(0.959908 0.0674054 -6.78736e-22)
(1.2666 0.0306002 -1.12292e-21)
(0.993912 -0.000226977 -7.07257e-24)
(0.925436 0.0464658 -9.97498e-21)
(1.2371 0.0589044 -5.32612e-21)
(1.26808 -0.0826575 1.28849e-21)
(1.21251 -0.10575 -3.67579e-21)
(0.935542 0.054662 -1.23124e-20)
(0.951874 0.0583016 2.88064e-20)
(0.961356 -0.026882 -2.4043e-22)
(1.00055 -0.0448325 -9.54914e-23)
(1.08343 -0.00560797 -1.7222e-22)
(0.946625 -0.0205309 -4.7862e-22)
(0.99886 -0.000107247 2.71976e-23)
(0.995912 0.0632591 -4.12282e-21)
(0.988504 0.0223372 -7.86244e-21)
(0.966021 -0.0147786 3.30313e-22)
(0.951331 -0.0375234 3.59418e-22)
(1.03545 0.116961 1.03804e-20)
(0.999178 0.0162411 1.2557e-20)
(0.998886 -5.35242e-05 -7.52697e-23)
(1.00145 0.0190698 -1.93535e-20)
(1.18688 -0.0799042 4.07537e-22)
(1.01651 -0.0172574 1.19277e-22)
(1.00599 -0.0656714 1.06003e-22)
(1.03223 0.0714778 -1.61451e-21)
(0.950793 0.102235 1.34902e-20)
(1.11437 0.025829 1.02777e-20)
(1.04199 0.111201 -1.69518e-20)
(0.978302 -0.0110947 -4.06602e-22)
(1.00292 -0.0442207 -4.61337e-22)
(1.0001 -0.000121927 9.27394e-26)
(0.999233 -3.71688e-05 1.70103e-23)
(1.00052 -0.00814442 1.22426e-22)
(1.14975 0.0202878 1.47199e-21)
(1.15468 -0.124291 -9.30255e-22)
(1.02528 0.098866 -1.98368e-20)
(1.00304 -0.110749 9.69822e-22)
(1.02263 0.0371483 1.16872e-20)
(0.989309 -0.0528417 -9.64678e-23)
(1.10848 -0.0844519 -5.73186e-22)
(0.989187 0.0668459 1.54779e-20)
(0.957575 0.00367978 4.95468e-20)
(1.03336 0.0677773 2.76844e-20)
(1.00051 0.0823838 -2.36273e-20)
(0.949577 -0.0366532 -3.15114e-22)
(1.10908 0.136549 -6.23394e-21)
(1.0137 -0.05874 1.8387e-21)
(1.11475 -0.0050073 8.0054e-21)
(0.996503 -0.00760215 -7.93313e-23)
(1.29475 -0.0943381 -4.51261e-21)
(1.19017 -0.05051 1.08855e-21)
(1.09251 -0.0277607 1.92671e-21)
(0.999652 -7.67481e-05 3.14328e-24)
(0.988613 -0.000582933 -6.39714e-23)
(0.946638 0.104234 -2.07446e-20)
(1.17741 0.0512951 2.12402e-20)
(1.01569 -0.0229591 -1.57883e-22)
(0.967261 -0.0559717 -8.84122e-22)
(1.14805 -0.119853 3.2012e-22)
(1.0945 -0.19397 3.35983e-21)
(1.11037 0.151267 -1.29913e-21)
(0.994146 -0.0933208 -1.04352e-21)
(0.97534 -0.00182121 -7.24513e-23)
(0.997077 -0.0725305 1.1936e-21)
(0.992195 -0.0305526 -1.10311e-22)
(0.999423 -6.01486e-05 -9.17769e-25)
(0.988209 -0.0503578 4.99526e-22)
(1.06058 -0.178515 -5.91931e-22)
(0.959734 0.088572 2.72356e-20)
(1.28223 0.0364501 2.79973e-22)
(0.977639 -0.0251581 -5.42536e-22)
(1.02013 0.038925 -1.80418e-20)
(0.953428 0.0628563 -3.42689e-21)
(0.988493 -0.0570824 1.03761e-22)
(1.00067 -0.000287522 -1.19476e-23)
(1.00622 -0.0853925 -1.14046e-21)
(0.994835 0.0581188 4.76784e-21)
(1.27839 -0.137547 -2.71284e-21)
(0.975957 0.0281464 -2.79987e-20)
(1.00003 -0.000130006 9.52691e-25)
(0.953264 -0.041491 6.6457e-22)
(1.04998 0.135854 1.9016e-21)
(0.999417 0.0153412 2.55234e-20)
(1.0358 -0.0810644 -3.16456e-22)
(0.978125 -0.0323715 3.79945e-22)
(0.932968 0.0931023 2.21364e-20)
(1.25918 -0.0668222 2.69983e-22)
(1.25652 -0.035184 2.42897e-22)
(0.968137 0.0858346 1.88291e-20)
(0.930728 0.0537161 -2.08464e-21)
(0.987032 -0.0590763 -3.30296e-22)
(1.04828 0.138727 -1.23688e-20)
(1.15825 -0.00606539 -3.67643e-21)
(1.00451 0.0344965 -3.3063e-20)
(1.06665 0.0826684 8.99052e-21)
(1.00069 -0.000210676 1.5081e-23)
(1.28879 0.0392396 -6.72567e-23)
(1.09418 0.0868592 5.21006e-21)
(0.996791 -0.000528832 -3.06628e-23)
(1.00169 -0.117047 -4.01554e-22)
(1.25227 0.0342011 -7.98789e-22)
(1.17416 -0.190225 -1.37961e-21)
(1.23531 0.0526352 3.08942e-21)
(1.19369 -0.0289066 -9.06407e-22)
(1.0001 -0.000196973 -1.67758e-24)
(0.999477 -0.00345877 4.61711e-23)
(0.977743 0.102622 -3.33448e-20)
(1.00123 -0.0147794 -2.52938e-23)
(1.01599 -0.139999 -1.18836e-21)
(0.990853 -0.0766717 1.16993e-22)
(1.20719 0.125707 -4.62243e-21)
(0.971962 -0.004186 -2.62953e-23)
(1.03474 0.123428 1.1931e-20)
(1.20871 0.0204868 4.06565e-21)
(0.994364 -0.0731758 6.92197e-22)
(0.958052 -0.00607741 -1.58476e-22)
(1.10605 0.0863077 9.37413e-22)
(1.20398 0.0975305 3.895e-21)
(1.00006 -0.000201219 -1.54783e-24)
(0.974989 0.0632905 2.77999e-20)
(1.04598 0.08141 3.98721e-21)
(0.99318 0.0142683 -6.78391e-21)
(1.25827 -0.100286 -1.47755e-21)
(0.999507 -5.7359e-05 -1.34904e-23)
(0.934442 0.089406 -1.45478e-21)
(0.996747 -0.00519061 -5.77173e-23)
(0.992992 -0.0558403 2.16598e-22)
(1.21075 0.0956248 -1.6471e-21)
(1.25887 0.027922 1.44173e-22)
(0.97983 -0.05937 -7.54793e-22)
(1.25946 -0.0775639 1.83457e-21)
(1.02592 0.0434052 4.66463e-21)
(0.95664 0.0045157 1.80161e-20)
(1.00968 0.0942498 -2.51689e-20)
(1.18117 0.0260383 -6.02785e-21)
(0.910586 0.0192356 2.47488e-21)
(1.00029 -1.00531e-05 -1.23423e-24)
(0.989861 -0.030024 -1.16471e-22)
(0.999897 0.00854932 3.37236e-20)
(1.22185 -0.153548 5.47578e-22)
(1.09342 0.0828443 -1.23025e-20)
(0.984814 -0.0433174 -3.67946e-22)
(0.993975 0.0836372 2.35675e-20)
(1.19402 0.0010693 2.67135e-21)
(1.00008 -0.00378368 3.00298e-23)
(1.18923 -0.00404042 -2.31901e-21)
(1.05138 0.0699434 -1.90885e-20)
(1.18258 -0.167152 -1.93929e-23)
(0.974077 0.00672401 -5.07796e-21)
(1.06674 0.123536 2.82604e-21)
(0.999325 -0.000302886 -1.23675e-25)
(1.03951 -0.0217589 -1.86765e-22)
(1.13998 0.105612 6.10439e-21)
(1.12125 0.00117814 1.34128e-20)
(0.998341 -8.51125e-05 8.06528e-23)
(1.06331 0.132073 -2.11289e-20)
(1.01402 -0.052077 -1.50485e-22)
(0.889396 0.0531631 -1.29661e-21)
(1.02756 -0.11153 -2.19715e-21)
(0.965797 -0.0133104 1.2426e-22)
(0.989243 -0.000685351 1.47065e-24)
(1.01083 0.097699 2.80533e-20)
(1.06023 0.11525 -3.20787e-20)
(0.976216 -0.00260802 5.08132e-23)
(1.10408 0.0796644 3.28217e-21)
(0.976276 0.0857581 -8.13488e-21)
(1.00131 -0.0158645 -3.9585e-23)
(1.04815 0.00661191 4.69452e-21)
(1.0244 0.0185513 -1.31515e-20)
(0.898288 0.0294277 1.63599e-20)
(0.997193 -0.00433009 1.67536e-23)
(1.1846 0.105093 -9.65202e-21)
(1.18495 -0.0563539 -1.81477e-22)
(0.945672 -0.0183536 -1.6827e-22)
(0.999669 -5.63624e-05 -2.67273e-24)
(0.999801 0.00472881 2.03455e-20)
(1.11709 0.155828 5.98622e-21)
(1.26307 0.00424794 -9.29266e-22)
(0.986831 0.102794 -8.53687e-21)
(1.17586 0.0293817 2.93647e-21)
(0.97465 -0.0334588 2.73822e-22)
(1.11237 0.131922 -4.64857e-21)
(1.1247 -0.00152823 -2.1363e-21)
(1.1711 0.0475231 6.19955e-21)
(0.901935 0.0317451 -4.2825e-20)
(1.02937 -0.0972851 7.81295e-22)
(1.21978 0.0870285 2.05763e-21)
(0.991571 0.0192867 -1.77816e-20)
(0.965726 -0.0569285 7.97086e-22)
(1.15265 -0.017682 3.10677e-22)
(1.07568 -0.159257 2.49633e-21)
(1.14266 0.100833 -2.71507e-21)
(0.99503 -0.000172548 3.25732e-23)
(1.1076 0.0124303 -2.2524e-21)
(1.26338 0.0123069 5.39825e-22)
(1.2225 0.0814915 4.8544e-21)
(1.00125 -0.00485725 9.31333e-23)
(1.10067 0.00837494 2.15626e-20)
(0.997719 0.0105366 -1.70168e-20)
(1.05342 0.0492975 3.41675e-20)
(1.17361 -0.185164 -5.62056e-21)
(0.993554 -0.0287964 2.45501e-22)
(0.939446 0.0502914 -1.43246e-20)
(0.945706 0.0170288 -3.68026e-20)
(0.997061 -0.00711439 -1.66408e-23)
(0.955191 -0.0405406 2.96038e-22)
(1.01728 0.0717245 3.69853e-21)
(1.02154 -0.146721 -9.77113e-22)
(1.1018 -0.0882015 5.77392e-22)
(1.10865 0.146201 1.9429e-20)
(0.990936 -0.000451765 -1.5682e-24)
(0.895007 0.0265783 2.79149e-20)
(1.03734 -0.072247 -8.59895e-23)
(1.1741 0.112989 3.2755e-21)
(0.989911 -0.0102058 1.91785e-23)
(0.996266 0.0107312 -7.25791e-21)
(1.07049 0.120464 -5.87414e-21)
(1.09256 -0.0217605 -2.11613e-21)
(1.11707 -0.0947033 -4.28401e-22)
(1.2638 -0.0233211 5.04348e-22)
(1.23441 0.0637948 5.32695e-22)
(0.999508 -0.00536179 8.09626e-25)
(1.01409 0.0592881 -6.81346e-21)
(1.30786 -0.0347894 3.32619e-21)
(1.11812 0.069877 1.41997e-20)
(0.891021 0.0561272 4.28851e-20)
(1.26825 -0.0943389 1.08608e-21)
(1.07725 -0.0819001 -1.11755e-21)
(1.00016 -0.00885312 -1.23138e-22)
(1.26642 0.0781562 2.94867e-21)
(1.27338 0.0248067 4.57942e-22)
(0.974175 -0.0256669 9.06565e-22)
(1.09117 0.134825 -1.91342e-21)
(1.00002 -0.00140051 -2.51415e-23)
(0.972242 -0.0455241 -1.54956e-22)
(1.01552 -0.0156795 -1.62492e-22)
(1.25047 -0.062289 4.95673e-23)
(0.989542 -0.048289 4.15424e-22)
(0.999616 -0.000131221 7.2094e-25)
(0.988492 -0.0629663 1.29984e-21)
(1.22139 0.0992607 -2.67215e-21)
(1.18447 -0.176619 -2.07193e-21)
(1.05307 -0.0758664 -1.31413e-22)
(0.959688 -0.0275629 -5.06612e-22)
(1.2445 0.0323111 -2.88227e-21)
(1.18678 -0.0259705 2.04051e-21)
(0.973867 -0.0590665 -4.015e-22)
(0.951297 -0.0087629 4.81403e-22)
(1.00091 -0.00507502 -1.51204e-23)
(1.14351 -0.0829321 4.6692e-22)
(1.03487 -0.157568 -1.58765e-22)
(1.01265 -0.0032584 1.99213e-23)
(1.0393 -0.0772354 1.04645e-21)
(1.1992 0.0933824 -6.18998e-21)
(1.05495 0.0456384 -2.08277e-20)
(1.22144 0.0149746 8.80907e-22)
(0.999297 -0.000253381 6.79782e-24)
(0.926086 0.0984115 -3.23766e-20)
(1.01281 -0.00166492 5.36574e-23)
(0.999942 -0.00151654 3.00875e-23)
(1.04268 -0.0107736 3.00823e-22)
(0.959444 -0.0409259 -4.85313e-22)
(1.01302 -0.101315 1.26329e-22)
(0.955134 0.0542441 -1.69808e-20)
(1.0266 -0.059426 9.09296e-23)
(1.15326 -0.005416 -1.76628e-21)
(1.02821 -0.136318 2.27104e-21)
(1.02492 -0.138863 -2.93264e-21)
(1.11173 0.142029 -1.35098e-20)
(0.99523 -0.0564722 -3.64272e-22)
(0.993346 -0.0889854 5.81581e-22)
(1.00368 -0.115023 9.37953e-22)
(0.999719 -4.01405e-05 5.99151e-24)
(1.19621 -0.0950616 -2.23642e-21)
(0.91616 0.0934058 -3.07454e-21)
(1.09668 -0.186921 8.64757e-22)
(0.957074 -0.0520601 -1.06621e-22)
(1.09048 0.129212 -2.50992e-22)
(0.980951 -0.0558814 -7.96725e-23)
(1.06645 0.0778094 -7.47798e-21)
(1.19121 0.132568 -9.33799e-22)
(0.996257 -0.00555351 9.51207e-23)
(0.998725 -0.00015615 -2.23453e-23)
(1.04169 0.0740724 2.35145e-21)
(0.89453 0.0696817 1.39796e-20)
(1.07806 -0.186885 2.21272e-22)
(1.16086 0.145816 1.72864e-21)
(1.23209 0.103261 -6.99238e-21)
(0.963596 -0.0460563 -2.19569e-22)
(0.963577 -0.0484578 -5.24354e-22)
(1.0188 0.0748889 -1.01282e-21)
(1.10769 -0.0110194 1.48045e-21)
(1.19556 -0.179192 4.33419e-21)
(1.0795 -0.151658 -2.03504e-21)
(0.980363 -0.00152682 3.63673e-23)
(1.0667 -0.0156893 8.18979e-22)
(0.942616 0.0264782 -6.38147e-21)
(1.15125 0.0106936 -1.1653e-20)
(1.00028 -9.29569e-05 1.84949e-24)
(0.962799 0.0810862 2.94322e-20)
(1.04036 -0.0686628 -9.96825e-22)
(1.01462 -0.103119 1.64585e-21)
(1.05368 0.134388 -1.11375e-20)
(1.01849 -0.0254577 -1.76572e-22)
(0.989105 -0.00971977 -6.80959e-23)
(0.999335 -0.000451552 1.81143e-24)
(1.17557 -0.0703627 -9.64299e-23)
(0.962064 -0.0207935 -3.52136e-22)
(1.00028 -1.66892e-05 2.11267e-24)
(1.16388 0.148041 -4.24911e-21)
(1.2804 -0.128394 -1.84846e-21)
(1.012 0.0578802 -1.17807e-20)
(0.999364 -8.66465e-05 -4.46096e-24)
(1.00018 -0.00453522 -1.36916e-23)
(0.97974 -0.0573962 -3.91733e-22)
(0.999999 -0.000113588 1.96194e-25)
(1.07972 -0.1927 -1.12478e-21)
(1.21482 -0.172373 -2.02063e-21)
(0.999578 -0.00453603 9.35563e-24)
(1.01056 -0.0807861 -4.91012e-22)
(0.943862 -0.0151836 2.39487e-22)
(1.05289 0.121776 -1.24335e-21)
(0.984788 0.101453 6.92905e-21)
(0.996716 -0.00471579 1.83894e-23)
(1.0033 -0.0011829 1.59087e-23)
(0.99947 -0.108996 -2.39912e-21)
(0.980739 0.0920288 2.22006e-20)
(1.00506 -0.0364211 4.43381e-22)
(0.97668 0.0593736 -7.66191e-22)
(0.980325 -0.0123496 -2.97891e-23)
(0.890248 0.0432188 -1.1643e-20)
(1.04193 0.0148468 -2.56188e-21)
(1.14474 0.065973 -1.40878e-20)
(0.908119 0.0552585 -1.27282e-20)
(1.30437 -0.0229416 8.69805e-23)
(0.990166 -0.00283463 -5.0938e-24)
(1.1768 -0.0559118 1.99934e-22)
(1.0098 -0.0376543 -4.82065e-23)
(0.987743 0.0916883 5.60575e-21)
(1.01767 0.0649431 1.59962e-20)
(0.970646 -0.00795938 1.26389e-22)
(1.28706 -0.0903787 4.7525e-21)
(1.13689 -0.0243625 -2.4493e-22)
(1.07437 -0.0868451 -8.34607e-22)
(0.996141 -0.000269749 2.21856e-23)
(1.29529 -0.105075 4.46003e-21)
(1.00026 -4.16472e-05 3.01842e-24)
(1.04988 0.118027 6.96714e-21)
(0.94309 -0.0142347 -8.29436e-22)
(0.992172 -0.0706887 -2.3303e-22)
(0.99569 -0.0333297 2.55576e-22)
(1.00841 -0.0645202 1.78243e-21)
(1.17087 0.107939 1.00008e-21)
(1.21774 0.0206781 -3.26049e-21)
(0.998595 -4.87949e-05 -7.45181e-23)
(1.02973 -0.0569953 -7.0973e-22)
(0.999882 -0.000154591 4.11362e-25)
(0.892573 0.0400748 8.69089e-21)
(0.94749 0.0238672 1.31133e-20)
(0.995263 -0.000988285 1.20981e-23)
(0.970538 -0.0132509 -1.72707e-22)
(1.03843 -0.0416211 -9.52882e-23)
(1.01955 0.0682149 6.87806e-21)
(0.938303 -0.0235645 -5.42717e-22)
(1.23452 0.107266 -1.53766e-21)
(0.959431 -0.0533145 1.45029e-22)
(1.00514 0.0936789 -5.02458e-22)
(1.14861 0.0706237 -1.58938e-21)
(0.960898 -0.0227696 -2.58938e-22)
(0.903937 0.02126 -1.78993e-20)
(1.05863 -0.00271978 -7.19392e-22)
(1.01405 0.0992319 -1.49737e-20)
(0.991949 -0.0148971 1.10765e-23)
(1.03783 -0.167491 4.67071e-21)
(0.979352 0.0040406 -4.25293e-20)
(1.01671 -0.0473376 5.45154e-22)
(0.891881 0.0746488 -6.34556e-21)
(1.0291 0.0795378 8.79175e-22)
(0.906332 0.023846 -4.27704e-21)
(0.990583 -0.00294758 6.12887e-24)
(0.993007 -0.000507079 -3.6421e-23)
(1.03534 -0.104162 -4.95711e-22)
(1.18825 -0.0424351 -1.67395e-21)
(1.01705 -0.0252602 1.89025e-22)
(1.03376 -0.0939043 -1.67113e-22)
(1.00993 0.0876707 1.35725e-21)
(1.00386 0.101384 4.66111e-21)
(1.04375 0.00282719 4.16324e-24)
(0.983937 0.0898571 -1.58695e-20)
(0.899199 0.0804387 3.47392e-21)
(1.14707 0.120813 1.11549e-20)
(0.999213 0.00521457 -2.91483e-20)
(1.04955 0.0384169 -6.59131e-21)
(1.00573 -0.0191568 -3.14627e-22)
(1.03833 0.0761089 -7.75595e-22)
(0.991511 -0.0884117 -5.0169e-22)
(0.961354 -0.0520156 3.80313e-22)
(0.998641 -0.00126714 5.86914e-25)
(1.06702 -0.0872648 1.97134e-21)
(1.13863 -0.16399 -6.07911e-22)
(1.0901 0.0451789 5.42128e-21)
(1.09511 -0.0102189 2.6683e-21)
(1.00224 0.0286367 2.38029e-21)
(1.01085 -0.0552785 1.11815e-21)
(1.13952 -0.0144335 1.58174e-21)
(1.00331 0.0222213 -2.77097e-21)
(1.01118 -0.0394672 6.53133e-22)
(1.11336 -0.0996335 1.00068e-21)
(0.999913 -0.000182085 1.62294e-26)
(1.00047 -0.000239179 2.54546e-24)
(1.08882 0.040746 -3.62643e-23)
(0.993344 -0.076148 -6.74461e-22)
(0.968052 -0.0484921 6.08791e-22)
(1.00052 -0.000228218 -3.80324e-24)
(1.00003 -0.00313409 1.87722e-23)
(1.13619 -0.0289422 -4.14775e-22)
(0.999519 -5.86056e-05 7.85106e-24)
(1.27027 0.0566273 -1.93235e-22)
(0.895822 0.0320948 2.25311e-20)
(1.15527 0.148569 6.58138e-22)
(1.12649 0.0805683 -4.53617e-22)
(0.967143 -0.00770648 -1.84202e-22)
(1.03098 0.105675 5.43395e-21)
(1.2596 0.0832026 -1.70443e-21)
(1.0056 -0.0339198 -2.66167e-23)
(0.970908 -0.0149093 -1.75465e-22)
(0.997195 -0.00399824 1.11715e-26)
(0.999283 -0.0003968 -1.89521e-24)
(1.00192 -0.00517854 -3.56e-23)
(0.996428 -0.0354404 2.18154e-22)
(1.05623 -0.165229 2.62581e-21)
(1.1097 0.0994458 1.67372e-20)
(1.21681 -0.0399399 6.44031e-23)
(0.966361 -0.00348403 5.06173e-23)
(0.999892 -0.000119868 2.23178e-25)
(1.00062 0.0580011 1.58987e-20)
(1.28165 -0.00650132 1.01101e-21)
(1.29438 -0.0610862 1.08682e-21)
(1.01946 -0.0486537 -6.09905e-22)
(1.23868 0.0828286 2.8868e-21)
(1.06503 -0.0907383 -5.58751e-22)
(0.985006 -0.000831173 -3.97378e-23)
(1.00192 0.0171626 1.39122e-20)
(0.980798 0.000739924 -5.48787e-20)
(1.07409 0.14725 -1.44439e-20)
(0.990968 -0.000373428 7.20495e-24)
(1.07103 0.146429 1.12311e-20)
(0.969068 -0.00543333 6.07995e-23)
(0.984126 -0.0521274 -5.01351e-22)
(1.139 0.140946 -1.26507e-20)
(1.00026 -0.000114237 3.39221e-24)
(0.988712 -0.0336516 -5.89276e-23)
(1.18373 0.110171 3.33606e-21)
(1.14256 0.110269 1.27932e-20)
(0.962101 -0.0247698 -5.68992e-23)
(1.02374 0.0683966 1.05226e-21)
(0.954689 0.105083 -1.40266e-21)
(1.01565 0.0332584 -3.20157e-20)
(0.957326 -0.041981 7.65131e-22)
(0.952395 -0.00868413 -2.5139e-22)
(1.05696 -0.0716416 -2.21347e-22)
(1.12856 -0.0019956 3.46977e-22)
(1.02286 0.0153481 -7.78789e-21)
(0.995244 -0.00138454 1.52603e-24)
(0.975854 0.00966291 -1.59324e-20)
(0.992183 -0.0532532 1.17482e-21)
(1.0435 -0.166813 -3.18422e-21)
(1.17219 -0.0498703 4.32132e-22)
(0.9224 0.100248 4.60235e-20)
(1.11143 0.105297 -1.38222e-20)
(1.01434 0.0651653 -1.68157e-20)
(1.22402 -0.164064 1.00613e-21)
(0.965244 0.00220052 -2.44536e-20)
(0.964058 -0.0205475 3.51364e-22)
(0.985682 -0.0501095 3.63772e-22)
(0.926993 0.0109449 8.56556e-21)
(1.08901 -0.0306255 -5.99474e-22)
(1.05556 -0.152833 -4.50561e-22)
(1.01578 0.0917283 -3.44367e-21)
(1.00353 0.0899355 -1.05994e-20)
(0.974218 -0.0439487 -5.51044e-22)
(1.02821 0.0200754 -1.76087e-20)
(0.981126 0.0959898 -2.94717e-21)
(1.00457 0.0833282 1.38429e-20)
(1.04254 0.124496 4.48725e-21)
(1.01173 0.0916829 2.2293e-20)
(1.06223 0.0853524 -1.17146e-20)
(0.986425 -0.00359781 4.26286e-23)
(0.965129 -0.0224194 4.42112e-22)
(1.00298 -0.00836976 -1.93531e-23)
(1.01828 -0.137197 3.27169e-21)
(0.99395 0.0203073 -4.10702e-21)
(1.02536 -0.144938 1.91423e-21)
(1.20238 0.104277 -3.05659e-22)
(1.17052 0.0610859 -8.01906e-21)
(0.968979 -0.0564877 4.37963e-22)
(1.26327 0.0541862 2.58836e-23)
(1.19147 0.124023 -3.15709e-21)
(0.993301 0.00789349 -1.25714e-21)
(1.25423 0.0429413 1.09559e-21)
(0.999608 -0.00378711 -5.16313e-24)
(1.07054 -0.0152305 5.9082e-23)
(0.983516 -0.056359 2.43399e-22)
(1.26792 -0.0605937 1.12068e-22)
(1.28558 -0.0571477 -2.25506e-21)
(1.03023 -0.153923 6.19899e-22)
(1.04378 0.1195 2.54139e-21)
(0.970883 0.103387 2.35389e-20)
(1.20068 -0.0235436 1.28993e-21)
(0.997489 0.00644772 1.29055e-20)
(0.893653 0.0651129 -1.55994e-20)
(0.998693 -9.50691e-05 1.98576e-23)
(1.00366 -0.00120794 -4.42571e-25)
(0.996283 -0.00614632 -4.2208e-23)
(0.971313 -0.00844903 3.65637e-23)
(1.09029 0.0944437 -9.03933e-21)
(0.926705 0.0124681 -1.859e-20)
(1.15337 0.0146608 1.00525e-20)
(1.03266 0.113241 3.27122e-21)
(0.979629 -0.0262005 -2.85482e-22)
(1.08164 0.135731 1.90378e-20)
(1.0778 0.143624 6.08632e-21)
(1.27356 -0.119387 6.79328e-22)
(0.956211 -0.0124224 2.90282e-22)
(0.939948 -0.0221608 3.44932e-22)
(1.20678 0.108541 7.83233e-22)
(1.0144 -0.0485278 2.32683e-22)
(1.21485 -0.0345104 3.39691e-22)
(0.965734 -0.0447717 1.18379e-22)
(0.944257 -0.0435277 -1.03293e-21)
(1.02251 0.094961 2.45878e-20)
(0.991708 -0.00249234 9.5538e-24)
(1.03101 -0.0653098 -1.73379e-22)
(1.00547 0.0998486 1.15458e-20)
(1.26184 0.0454401 3.76014e-21)
(0.931874 0.0846956 5.22476e-21)
(1.02081 -0.0972598 -8.67417e-22)
(1.04675 0.0131285 8.3917e-21)
(1.27696 -0.0647069 2.51012e-21)
(1.0011 -0.0804331 2.75763e-22)
(0.979324 0.00719144 -5.84438e-21)
(0.990417 0.000462465 3.55486e-20)
(0.990314 0.0287327 -6.38119e-21)
(0.993034 -0.0376892 -4.94449e-22)
(0.938857 0.0157297 2.01876e-20)
(0.959655 -0.0384727 3.83293e-22)
(0.96965 0.0762651 7.4798e-22)
(1.14014 -0.0666736 9.08521e-24)
(0.985721 0.0485223 -3.61951e-21)
(0.980141 -0.0536444 3.07182e-22)
(1.00004 -0.000251481 -2.78875e-25)
(0.986032 0.0423943 1.20181e-20)
(0.967765 0.0682683 1.40292e-20)
(0.971964 0.0833278 -2.25404e-20)
(0.987614 0.0360949 -1.39847e-20)
(1.08142 0.00648478 -2.9181e-20)
(1.1488 -0.0148371 -8.42667e-23)
(1.07688 0.0824401 -2.25469e-20)
(1.05165 -0.148274 1.15674e-21)
(0.996754 0.0154821 4.20836e-20)
(1.02337 0.0612538 -2.08309e-20)
(1.27533 -0.0121403 -1.19031e-21)
(1.0985 -0.0132597 -2.83413e-21)
(0.986858 -0.003401 2.23942e-23)
(1.30963 -0.0165625 -3.84509e-22)
(1.02937 0.098196 -4.14381e-21)
(0.945752 -0.0332799 2.30385e-23)
(0.969447 -0.00460231 -1.54396e-22)
(0.992651 0.00419187 -8.3586e-21)
(0.980209 0.0519641 -2.58105e-20)
(0.988732 -0.0613132 -5.33135e-22)
(0.988484 0.0570473 1.88512e-20)
(1.03394 -0.163344 1.10396e-21)
(1.23772 0.076501 -4.77417e-21)
(0.994287 -0.000285536 7.43912e-23)
(0.974219 0.0557043 -1.45256e-20)
(0.967286 0.0602635 3.6994e-20)
(0.902416 0.0356914 3.48254e-20)
(0.977414 0.0985554 3.06497e-20)
(0.997146 -0.000339039 1.18294e-23)
(0.979804 -0.0285041 1.88126e-22)
(0.998462 -0.00130237 -4.44402e-24)
(0.996976 -0.0845051 -2.19484e-21)
(0.933597 0.0651533 -7.44174e-21)
(1.14137 0.0895361 -1.86023e-20)
(1.03876 0.107847 -2.45123e-22)
(0.944886 -0.041627 6.54974e-22)
(1.04997 0.0418943 2.06855e-20)
(1.041 -0.0405391 6.68352e-23)
(0.932283 0.0752683 1.07727e-20)
(1.10303 -0.108587 -5.49453e-22)
(0.996003 0.00569769 1.42784e-20)
(0.994445 -0.000284176 3.8717e-23)
(0.942713 0.0615791 -2.48727e-20)
(0.923511 0.0796277 -3.00625e-20)
(0.977789 -0.0298598 -4.99759e-22)
(1.20112 0.0476706 3.60504e-21)
(0.944851 0.0517927 -2.48043e-20)
(0.996527 -0.000524348 -6.76216e-23)
(0.918008 0.0359851 -3.91039e-21)
(1.05422 -0.0804848 2.14811e-22)
(0.996694 -0.000345322 2.8973e-23)
(0.954149 -0.0138013 -2.06176e-22)
(1.01411 0.10301 -1.46486e-20)
(1.16787 0.0795941 -1.05685e-20)
(1.01146 -0.11491 1.46948e-21)
(0.991732 0.0995971 1.20651e-21)
(0.91796 0.089554 1.99971e-21)
(1.07734 0.138677 -2.06604e-20)
(1.06287 -0.0118384 -4.51956e-22)
(0.999467 -0.074766 4.31996e-22)
(1.17219 -0.063949 -1.23421e-22)
(0.980832 0.0588245 2.12686e-20)
(0.926277 0.0363768 -2.25875e-21)
(0.898211 0.0343716 2.25089e-21)
(1.13975 0.0780154 2.87555e-21)
(1.00047 -0.0112432 2.77293e-23)
(0.978205 -0.00169922 -4.27472e-23)
(1.0321 0.101406 -1.47239e-20)
(1.00205 -0.0087048 2.10971e-23)
(0.983506 -0.00535338 8.49736e-26)
(1.00329 -0.0137594 -1.52523e-23)
(0.992947 -0.0328377 -2.42378e-22)
(1.10654 -0.162395 2.21557e-21)
(1.21018 -0.151727 -1.39455e-21)
(0.957422 0.0816601 -3.28322e-20)
(1.02278 -0.053909 2.02417e-23)
(0.998843 -0.001047 1.63116e-24)
(1.03022 0.0641032 -3.28793e-22)
(1.16384 0.108937 8.88123e-21)
(1.00199 -0.0139243 -3.18766e-23)
(1.21297 0.0880573 -4.29244e-21)
(1.00197 -0.00144743 3.26806e-24)
(1.15823 0.0613218 9.74298e-22)
(1.01583 0.0350496 2.24511e-20)
(0.986177 0.0544937 -3.65576e-20)
(1.1728 -0.163043 1.60271e-21)
(1.18316 0.0478302 -5.2026e-21)
(0.992925 -0.0152822 -3.7152e-23)
(1.13914 -0.106278 1.62962e-22)
(0.994818 -0.00174393 1.10708e-24)
(0.976672 0.0662931 -3.76682e-20)
(0.955825 0.0793174 1.01378e-20)
(1.24473 -0.152824 1.26931e-21)
(1.20472 -0.170037 1.3152e-21)
(1.16315 -0.180404 4.60623e-21)
(1.03881 -0.0960081 7.61523e-22)
(0.988052 0.0953509 2.53597e-21)
(1.04164 -0.0873333 4.81572e-22)
(1.1304 -0.149492 7.41528e-22)
(1.09125 -0.179948 -1.04224e-21)
(1.13053 -0.0935155 -7.1688e-22)
(0.910158 0.0359006 1.90498e-20)
(1.16764 -0.199129 -8.41537e-21)
(1.25666 0.0180462 -1.78996e-22)
(0.985614 0.0166781 7.31393e-21)
(0.995376 -0.000403529 -3.76767e-23)
(1.20634 0.0260211 1.84042e-21)
(1.04414 -0.0782779 -7.25897e-22)
(1.09013 -0.165001 1.79042e-21)
(0.995469 -0.00102988 -5.19195e-24)
(0.999629 -0.00319886 -1.45274e-23)
(0.908923 0.0458681 -3.24682e-20)
(1.05819 0.0442997 1.57832e-20)
(1.24105 -0.162776 5.05211e-21)
(1.3035 0.0118511 -2.25618e-22)
(1.06097 0.0752498 -8.52659e-21)
(0.992081 0.0559944 -2.95367e-21)
(1.02598 0.0649196 6.33222e-21)
(1.24955 -0.0837758 -2.26935e-21)
(0.981124 -0.0604727 8.14327e-22)
(0.993596 -0.0509449 -3.12049e-22)
(0.984973 -0.0544597 -8.4124e-23)
(1.03831 0.0661945 -2.10342e-20)
(0.968959 -0.00587723 1.64867e-22)
(1.00493 -0.0761354 6.55944e-22)
(0.99971 -4.23391e-05 -2.0678e-24)
(0.96711 -0.022036 -7.26397e-22)
(0.997663 -0.000610677 -8.77155e-25)
(1.13126 -0.168008 1.68902e-21)
(1.00846 0.100243 -1.37197e-20)
(1.06299 -0.151834 6.75196e-22)