/*--------------------------------*- C++ -*----------------------------------*\
  =========                 |
  \\      /  F ield         | OpenFOAM: The Open Source CFD Toolbox
   \\    /   O peration     | Website:  https://openfoam.org
    \\  /    A nd           | Version:  7
     \\/     M anipulation  |
\*---------------------------------------------------------------------------*/
FoamFile
{
    version     2.0;
    format      ascii;
    class       volVectorField;
    location    "31";
    object      U;
}
// * * * * * * * * * * * * * * * * * * * * * * * * * * * * * * * * * * * * * //

dimensions      [0 1 -1 0 0 0 0];

internalField   nonuniform List<vector> 
7639
(
(1.13994 0.178103 8.90326e-22)
(1.04559 -0.0494925 -2.50918e-23)
(0.999792 0.147846 -2.58659e-21)
(1.05495 0.0826738 3.08242e-21)
(0.999248 -0.000923763 -4.99604e-24)
(0.999964 -8.37134e-06 -5.6283e-25)
(0.991898 0.120847 -5.04814e-21)
(0.995174 -0.00172564 -9.93546e-25)
(0.999891 -0.000170792 -9.41807e-25)
(1.02554 0.00101759 -1.36389e-22)
(0.999966 -1.00808e-05 6.20626e-25)
(1.00205 -0.00115978 -1.99301e-23)
(0.992648 -0.00216591 5.01621e-23)
(1.02026 -0.00199783 -8.27816e-22)
(1.02486 0.00140986 5.78285e-22)
(0.991801 -0.0137387 -1.02956e-22)
(1.14655 0.188951 -1.89088e-21)
(0.990141 -0.00275671 -1.74999e-23)
(1.00202 -0.00900276 -5.3186e-24)
(0.974384 -0.0806823 -8.91411e-23)
(1.03625 -0.00757023 -2.7466e-22)
(1.00136 -0.000707713 3.73463e-23)
(1.01785 -0.0034515 7.02338e-23)
(1.01322 0.0361568 -1.61581e-21)
(0.986925 -0.00342727 -7.92041e-23)
(1.1309 0.176759 -9.25779e-22)
(0.999286 -0.000878908 -3.51123e-24)
(1.02392 -0.00234945 3.32481e-22)
(1.00561 0.0166261 -2.02375e-22)
(1.00333 -0.0096289 4.16505e-24)
(0.987529 -0.0143021 -1.82571e-22)
(0.833444 0.0507164 8.3991e-22)
(1.01766 -0.00426451 4.33679e-22)
(0.999567 -0.000368889 6.21335e-24)
(0.999906 -6.26032e-06 1.18083e-26)
(1.02518 -0.000201569 1.9988e-22)
(1.0038 -0.010553 5.33119e-24)
(0.998306 0.11703 -7.92412e-22)
(0.996525 -0.00735714 8.41002e-23)
(0.999697 -5.4643e-05 5.98002e-24)
(0.996895 -0.00758362 -9.4385e-24)
(0.991942 -0.0128929 -3.73262e-23)
(0.99284 -0.0923177 4.2142e-22)
(1.12666 -0.102012 1.54936e-22)
(0.999819 -1.14884e-05 1.93479e-24)
(0.999928 -1.4504e-05 -5.59424e-25)
(1.0013 -0.000573759 -2.27937e-23)
(0.996375 -0.00673459 -4.98769e-23)
(0.999939 -2.75599e-05 -4.52091e-25)
(0.977393 -0.0818395 1.29594e-22)
(1.00301 -0.00101751 2.16699e-23)
(1.0234 -0.00153035 -3.44299e-22)
(0.983026 -0.00406494 -2.66616e-22)
(1.00858 -0.0296028 4.83305e-24)
(1.02566 -0.000789228 -1.15063e-22)
(0.995761 -0.0023809 -9.23436e-24)
(1.00197 -0.00836849 1.21324e-23)
(0.995142 -0.0014948 6.88556e-23)
(0.97912 -0.0168357 -3.22867e-22)
(0.99955 -0.000328336 -7.95959e-24)
(1.00004 -2.14537e-05 -8.08466e-25)
(1.00394 -0.00114075 2.42342e-23)
(1.02042 -0.00130828 -1.95918e-22)
(1.00223 -0.00101458 2.01831e-23)
(0.999131 -0.00017715 1.12616e-23)
(0.988026 -0.0148638 3.08541e-23)
(0.999913 -0.000170519 7.25246e-25)
(1.00001 -2.40461e-06 5.21894e-26)
(1.22394 0.0197387 2.92484e-23)
(0.996554 -0.00639203 -1.53013e-23)
(0.999933 -1.78139e-05 4.95568e-25)
(0.970621 -0.0485543 -6.34292e-22)
(0.987475 -0.00380973 3.85946e-23)
(0.976702 -0.0049923 5.2153e-23)
(0.990573 -0.00304885 5.46471e-23)
(0.968113 -0.0235796 -7.00166e-23)
(1.00547 0.149707 4.14091e-21)
(1.0343 -0.00721017 3.51086e-22)
(1.09206 -0.0197238 -3.90946e-22)
(0.958352 -0.0389261 -7.72479e-22)
(0.992992 -0.00239858 -7.68784e-23)
(1.00091 0.0717234 4.82651e-21)
(1.04419 0.00292938 8.35362e-22)
(0.976224 -0.00881484 2.40862e-22)
(0.998751 -0.0023222 -8.1759e-24)
(0.997965 -0.000295352 8.35205e-24)
(0.994851 -0.00227311 9.43622e-23)
(0.983671 -0.00455398 1.70808e-22)
(0.999421 -0.0010883 5.34312e-24)
(0.995954 -0.000614533 2.95389e-23)
(1.00599 0.0189951 1.50845e-21)
(1.16484 -0.115958 -2.98383e-22)
(0.999878 -4.97574e-05 -1.1708e-24)
(1.00161 -0.00708158 5.18862e-24)
(0.996792 -0.00094597 2.6774e-23)
(0.976447 -0.00277188 -4.20664e-22)
(0.972639 -0.0484351 4.1904e-23)
(1.01035 -0.0287611 2.14111e-23)
(0.99862 -0.00223917 2.68436e-24)
(0.998964 -0.000178108 3.75247e-24)
(0.955952 -0.0139665 1.7918e-22)
(1.09518 -0.0146512 3.45965e-22)
(0.996972 -0.00107631 -6.67101e-23)
(0.999977 -1.22387e-06 -4.78926e-26)
(1.17823 -0.10927 -2.49347e-22)
(1.03776 0.0339635 -1.40472e-21)
(0.917323 0.0371187 9.0097e-22)
(0.995479 -0.00224699 -3.8424e-23)
(0.999992 -2.40934e-06 9.80511e-27)
(1.02407 -0.0153816 -1.38016e-22)
(1.05834 0.0772195 -3.57676e-21)
(1.0116 -0.0747125 -5.36473e-22)
(0.999991 -2.83553e-06 -1.63223e-26)
(1.02574 -0.0161048 -2.98632e-23)
(1.03342 0.03254 1.47809e-21)
(1.0004 -0.000530347 -1.74382e-24)
(1.04343 -0.100253 -4.17642e-23)
(1.03523 0.0177271 -3.33392e-22)
(0.981985 -0.0398321 2.74702e-22)
(0.97642 -0.00606481 -5.4614e-23)
(0.95328 -0.00910009 -4.31712e-22)
(1.00146 0.0329899 -3.14077e-21)
(0.997649 -0.0925917 -5.75576e-22)
(1.00909 -0.00783461 1.19019e-23)
(0.954762 -0.010436 1.69379e-22)
(0.999152 -0.00126558 1.18928e-23)
(0.988747 -0.0109019 6.11536e-23)
(1.00253 -0.00797959 -8.2324e-24)
(0.999084 -0.000130866 -2.51639e-23)
(0.987659 -0.0131946 3.32383e-24)
(1.17142 -0.160386 -1.82721e-22)
(1.08473 -0.0194543 6.99772e-23)
(0.999462 -0.000503582 6.76267e-25)
(0.999322 -0.00111321 -1.03963e-23)
(0.975152 -0.00804114 7.16041e-23)
(1.05348 0.0688019 1.29162e-21)
(0.995783 0.028871 5.81144e-21)
(0.999978 -2.23617e-06 -5.63479e-26)
(1.0068 -0.00305545 1.02413e-23)
(0.937514 -0.0110902 -5.4147e-22)
(0.97816 -0.00362617 -2.16239e-22)
(0.984031 -0.0550463 -4.15656e-22)
(0.968418 -0.0253934 9.50954e-23)
(0.977988 -0.00451231 -4.6306e-24)
(0.908204 0.0291544 3.58106e-21)
(1.00734 -0.0445317 -1.60464e-23)
(1.01234 0.0211151 -7.62977e-22)
(0.980955 -0.0201986 -1.69372e-22)
(0.96787 -0.00468452 5.98313e-23)
(1.00148 0.0526608 -1.55536e-21)
(1.0253 0.000213591 4.9668e-22)
(1.15127 -0.106495 -2.83666e-23)
(0.99868 -0.00185714 -2.8205e-23)
(1.22332 0.00325536 -8.21317e-23)
(1.04182 0.00289752 -8.74196e-22)
(1.01505 0.120554 -3.90554e-21)
(0.96341 -0.0273148 2.94585e-22)
(0.992647 -0.00167295 1.7132e-23)
(0.928929 0.0995232 7.85389e-21)
(0.999944 -2.35138e-05 -4.25404e-25)
(1.00117 -0.00747328 -2.28366e-24)
(1.01331 0.0397083 1.17346e-21)
(0.99998 -1.81423e-05 2.71747e-25)
(0.998388 -0.00471668 -3.99369e-23)
(0.996376 -0.000914605 -1.28232e-23)
(1.00409 0.0425991 -3.88974e-22)
(1.00222 0.0287478 1.46748e-21)
(0.917942 0.10903 2.64471e-21)
(0.998128 -0.00456137 -2.46744e-23)
(0.9972 -0.000349164 -1.46428e-23)
(1.00001 -3.08655e-06 -4.85909e-26)
(0.950659 -0.00550481 -7.40894e-22)
(1.00038 -0.000474895 2.40703e-24)
(1.04838 -0.0462424 2.67656e-23)
(1.00712 -0.00329733 6.84645e-23)
(0.968605 -0.00555937 1.22832e-22)
(1.17921 -0.0909157 -3.34943e-22)
(1.15943 0.0603494 3.22478e-24)
(0.99988 -6.16738e-05 6.39029e-25)
(0.99955 -0.000577567 -7.15658e-24)
(1.05822 0.0878574 -5.45445e-22)
(0.999944 -1.65028e-05 -2.06487e-25)
(0.999899 -1.16949e-05 3.06407e-25)
(0.992464 0.128898 -4.22361e-21)
(1.04631 -0.0533502 -8.05625e-23)
(1.00297 -0.0615329 -2.83162e-22)
(0.983804 -0.038836 -3.88232e-22)
(0.978717 -0.00651206 1.57148e-22)
(1.00446 -0.0452014 3.07528e-23)
(0.938948 -0.00938749 2.85344e-22)
(0.999979 -1.65585e-05 -9.68317e-26)
(0.973537 -0.045579 -1.51044e-22)
(1.16862 0.0698293 -5.1819e-22)
(0.996958 -0.00131159 9.58058e-24)
(1.00007 -6.25555e-06 -5.9544e-25)
(1.11854 0.0826214 8.10072e-23)
(0.998878 -0.000361545 2.65734e-23)
(0.988436 -0.0127215 9.76433e-23)
(1.00233 -0.0425053 9.93604e-23)
(1.00002 -2.00998e-06 -2.0743e-26)
(1.00082 -0.00183717 -9.71474e-24)
(1.04834 0.0688867 1.64936e-21)
(1.15233 0.0887089 -9.1229e-22)
(1.00791 0.106376 -5.24492e-22)
(1.04287 -0.0940111 2.78913e-22)
(1.01565 -0.0725882 1.18138e-22)
(1.06314 -0.141806 -1.13665e-22)
(1.0246 -0.00222525 9.92323e-22)
(1.04371 0.0641385 -5.36354e-22)
(0.999807 -2.06156e-05 -2.26732e-24)
(1.00004 -1.92292e-05 2.13024e-25)
(0.938582 0.0158667 -3.44846e-21)
(0.993041 -0.0123985 -3.55201e-23)
(0.99944 -0.000448192 -6.69551e-24)
(0.975529 -0.0450917 3.13964e-22)
(0.98821 -0.0114757 -7.1685e-23)
(1.02805 0.109994 -4.27738e-21)
(1.02258 0.106828 -8.9546e-22)
(0.981501 -0.0559793 1.13227e-22)
(0.865893 0.0716486 -3.13977e-21)
(0.998959 -0.00040893 -1.95555e-23)
(0.990183 -0.00238375 6.36549e-23)
(0.954371 -0.0127044 2.35301e-22)
(1.03516 -0.00234194 -2.03363e-22)
(0.989962 -0.112159 -5.06728e-23)
(1.18134 0.162795 -1.46845e-21)
(0.929549 0.0872821 -6.67922e-21)
(1.00006 -0.000100654 6.70563e-25)
(1.00912 -0.00719874 3.37291e-23)
(1.03328 0.0210046 1.81294e-21)
(0.996502 -0.00554443 -6.3347e-23)
(1.03843 0.0174752 -2.26022e-22)
(0.99952 -0.00118534 -1.73138e-24)
(0.886321 0.121826 5.5775e-21)
(1.01516 0.111127 8.7539e-22)
(0.994849 -0.00196365 5.99419e-23)
(1.00328 -0.00806757 -1.47926e-24)
(0.999716 -6.18308e-05 -1.11209e-23)
(1.22591 0.0857347 1.56808e-22)
(0.999913 -9.73996e-06 9.10173e-25)
(0.995104 -0.0101203 3.04539e-23)
(0.944929 -0.0247 3.25792e-22)
(0.999933 -2.43757e-05 -2.05456e-25)
(0.998847 -0.00271498 -6.81552e-24)
(0.999624 -0.0011512 3.14558e-24)
(1.09387 0.0433613 1.14498e-21)
(0.999981 -2.35659e-05 3.28397e-25)
(0.995783 -0.000472121 3.53735e-26)
(0.960347 -0.0388176 8.884e-22)
(0.835444 0.0380487 -1.85281e-21)
(1.0817 -0.0240672 -1.00897e-22)
(0.903934 0.0826141 4.10149e-21)
(0.999957 -7.45837e-06 -5.1834e-25)
(1.00008 -0.0428916 -6.42394e-24)
(0.99983 -0.000294828 -2.52546e-24)
(1.00792 0.124041 -3.9925e-21)
(1.00369 -0.000778663 -3.12782e-23)
(0.994077 0.0421735 1.87368e-21)
(1.00246 -0.00964934 -2.2495e-23)
(1.00072 -0.00197478 1.03063e-23)
(1.02563 -0.0367005 -1.53382e-23)
(1.02467 -0.00129093 -9.18544e-22)
(1.00054 -0.000318879 5.03047e-24)
(0.999789 -5.11541e-05 5.88941e-26)
(1.00047 -0.000429603 1.12946e-23)
(0.996317 -0.0058787 -5.68447e-23)
(1.00833 -0.0652956 3.41204e-22)
(0.999959 -9.93253e-06 3.50041e-25)
(0.964839 -0.026279 2.05961e-22)
(0.996559 -0.00104989 -2.43332e-24)
(0.999868 -4.30039e-05 1.24559e-24)
(0.999423 -0.000557423 2.17345e-24)
(0.987786 0.0750548 4.55897e-21)
(0.992617 -0.000780872 2.47642e-23)
(0.999292 -9.88365e-05 -2.27694e-24)
(0.875646 0.0172138 6.90299e-21)
(0.998704 -0.00260777 -1.54646e-23)
(1.10415 0.12604 -1.14302e-21)
(0.99981 -0.000272257 4.55709e-24)
(1.00658 -0.0221478 -4.39103e-24)
(1.00002 -1.75999e-06 -1.84723e-26)
(0.982319 -0.0323829 -1.53537e-22)
(1.03425 -0.00258234 3.17439e-22)
(1.18945 -0.0853947 7.06505e-22)
(0.979285 -0.0181262 2.741e-22)
(0.999622 -0.000584018 8.26014e-24)
(0.975392 -0.0696619 1.97961e-22)
(0.98472 -0.00044487 1.12813e-22)
(0.999832 -1.82993e-05 1.20184e-25)
(1.00046 -0.000376615 -9.99052e-24)
(0.998083 -0.00339117 2.137e-23)
(0.992961 -0.00140102 -7.40866e-23)
(1.00281 -0.000920799 -3.69856e-23)
(0.998869 -0.00187064 1.02076e-23)
(0.977407 -0.00826059 3.78966e-23)
(1.01268 -0.0642751 -2.44884e-22)
(0.977538 -0.00694489 1.67154e-22)
(1.12757 -0.0900107 -4.21691e-23)
(0.970436 -0.00757111 -2.15057e-22)
(1.03457 0.144375 4.45844e-22)
(1.02839 0.148759 -3.32933e-21)
(0.998605 -0.000744743 -1.70263e-23)
(1.20694 -0.109737 -1.49971e-21)
(0.999984 -3.05519e-06 -3.14083e-26)
(0.99803 -0.0041959 -2.62148e-23)
(0.975853 -0.00193231 4.34029e-22)
(1.00969 0.0321735 9.69511e-22)
(1.04662 0.00826381 -8.33105e-22)
(1.00009 -3.15993e-05 1.36822e-24)
(0.998157 -0.00396129 -1.73701e-24)
(0.971432 -0.00840031 1.61278e-22)
(1.07062 0.0411983 -5.05053e-22)
(0.999082 -0.00116515 8.86063e-24)
(1.00321 -0.000749247 2.09085e-23)
(1.00116 -0.000971413 -1.84021e-24)
(1.15525 -0.0215746 -7.22307e-24)
(1.16261 -0.166635 -1.02391e-21)
(1.07002 0.176504 2.00005e-21)
(0.998518 -0.000241799 -1.66142e-23)
(1.05535 -0.0547769 1.23703e-22)
(0.999894 -6.61445e-05 -1.02056e-24)
(1.00447 -0.00718435 -7.03325e-23)
(0.999949 -1.33298e-05 -1.46723e-25)
(0.985874 -0.0197948 4.82304e-23)
(0.999677 -7.32658e-05 -2.12652e-24)
(1.01091 -0.0222931 1.54562e-23)
(1.22463 -0.136313 1.58221e-21)
(0.974704 -0.025367 3.31683e-22)
(1.00779 -0.0216828 -4.04447e-24)
(1.00818 -0.00641756 -4.3702e-23)
(0.999319 -0.000129003 1.02153e-23)
(1.02568 -0.020119 9.57144e-23)
(0.99634 -0.0182251 4.9594e-23)
(1.09065 -0.00615619 -2.41118e-22)
(1.08599 0.0422946 5.41174e-22)
(1.08593 -0.176657 1.48139e-23)
(1.11836 -0.107357 -4.82822e-22)
(0.984067 -0.000899514 -1.2087e-22)
(1.00482 -0.00360266 6.65822e-23)
(0.946931 -0.0234962 -1.26104e-22)
(0.906237 0.10755 -8.31491e-21)
(1.10248 -0.0956687 5.65234e-22)
(1.02732 -0.0130089 -3.97113e-22)
(0.877645 0.0778439 -4.19985e-21)
(0.998569 -0.000184399 8.22195e-24)
(0.998367 -0.000917254 -5.25346e-24)
(1.14041 -0.111424 -5.23105e-22)
(0.999006 -0.00202811 -5.47079e-24)
(1.00817 -0.0417513 2.88628e-23)
(1.00558 -0.00173796 2.33116e-23)
(0.997338 -0.000406978 -1.30761e-23)
(0.99805 -0.000340948 -2.06091e-23)
(1.04101 0.0269173 1.06042e-21)
(0.999937 -0.000145919 -8.01459e-26)
(1.00051 -0.000261794 -4.47535e-24)
(1.00008 -1.26654e-05 1.02019e-24)
(0.996733 -0.00063764 6.97115e-23)
(0.994014 -0.00885743 7.88922e-23)
(0.999983 -2.29525e-06 2.39965e-26)
(0.998973 -0.000242262 2.10559e-24)
(0.980117 -0.0160044 9.60366e-23)
(0.936592 0.0229545 2.17943e-21)
(1.00944 -0.0229501 4.69062e-24)
(0.993119 -0.0116259 1.28334e-22)
(0.953136 0.0856327 9.17914e-22)
(1.00139 0.0309549 2.72962e-21)
(1.0739 -0.0134447 -2.08953e-22)
(1.20589 -0.0953953 5.15428e-22)
(0.949503 -0.00405333 4.07008e-22)
(1.00477 -0.00416813 -3.29109e-23)
(1.01293 0.0553382 -1.52381e-22)
(0.989349 -0.00210347 -1.50062e-22)
(1.07234 0.130657 3.66886e-23)
(1.00352 -0.0481854 4.56444e-24)
(1.00993 -0.108335 -2.12922e-22)
(1.1424 0.0851507 5.90612e-22)
(1.07786 0.139183 -1.65084e-21)
(0.96628 -0.0227755 4.54808e-22)
(1.04725 0.00570093 -5.27639e-22)
(1.19388 0.1701 1.33885e-21)
(1.09438 0.129017 2.26787e-21)
(1.02555 -0.00301408 3.112e-22)
(0.997148 -0.00141678 1.50659e-23)
(0.996036 -0.00218463 1.31418e-23)
(0.999916 -2.38578e-05 -4.81296e-25)
(1.01444 -0.0291019 6.57253e-24)
(0.98905 -0.00176296 3.5426e-23)
(1.00096 -0.00230048 -8.51824e-24)
(0.999899 -2.38878e-05 -9.02757e-25)
(0.998488 -0.00068047 6.66447e-24)
(0.973475 -0.0682695 -3.30169e-22)
(1.14429 0.00551787 1.46421e-22)
(0.98355 -0.00561186 -1.92485e-22)
(0.999114 -0.0121108 5.47952e-23)
(0.9964 -0.000702132 -3.70748e-23)
(1.05176 -0.0560699 -1.19423e-23)
(0.993274 -0.00147094 -1.18713e-22)
(1.00226 -0.00723144 2.55732e-23)
(1.21669 0.147691 2.42779e-22)
(0.998257 -0.00032506 -4.78735e-23)
(0.999979 -4.50581e-05 -2.28808e-25)
(0.99995 -0.000176209 -1.283e-25)
(1.00005 -0.000102948 8.74265e-25)
(0.979641 -0.00726594 8.83802e-23)
(1.03846 0.0245886 -1.24528e-21)
(0.99618 -0.000534349 1.464e-24)
(1.02316 -0.0108435 2.59299e-22)
(0.994267 -0.118057 4.02539e-22)
(0.999492 0.109227 -9.24603e-23)
(1.00375 -0.00731584 2.30928e-23)
(1.00638 -0.00466039 -1.10185e-23)
(0.99517 -0.00244578 -4.76015e-23)
(0.993389 0.0737387 -4.43868e-21)
(0.999006 -0.000128013 6.82363e-24)
(1.07674 0.183111 -9.82369e-22)
(1.00972 0.0220797 -1.48301e-21)
(0.999889 -2.9303e-05 1.0566e-24)
(1.00151 -0.048692 -1.71424e-22)
(0.996847 -0.000738067 -3.40609e-23)
(0.986781 -0.0562925 5.09459e-22)
(1.00054 -0.000140151 4.483e-24)
(1.06985 -0.00865669 3.03606e-22)
(1.00644 -0.0162334 -6.86756e-25)
(1.00597 -0.00423746 5.54998e-24)
(0.999199 -0.000156749 -1.35531e-23)
(1.09891 0.0377154 5.26411e-22)
(1.06412 0.0404814 1.90217e-22)
(1.00045 -0.0634916 2.79601e-22)
(0.980738 -0.0187055 -1.83412e-23)
(0.997974 -0.00361966 -1.84302e-23)
(0.997843 -0.0387948 -3.09416e-22)
(1.20638 -0.00390247 6.01172e-23)
(0.842886 0.0589612 -4.08391e-21)
(1.06048 -0.0966977 -3.04405e-22)
(1.00493 -0.00778483 -1.04244e-23)
(0.999994 -3.19424e-06 -7.31305e-27)
(0.987409 -0.00463421 -1.54446e-22)
(0.997862 -0.000373083 4.44321e-23)
(1.0243 -0.0200496 1.39019e-22)
(0.989072 -0.095345 -1.69646e-22)
(1.19266 -0.118894 5.47742e-22)
(0.984794 0.103433 -5.4946e-21)
(1.07457 0.0355136 8.01908e-22)
(1.07019 -0.135406 4.61166e-22)
(1.12181 0.0928039 2.74098e-22)
(0.999345 0.0343335 5.21545e-21)
(1.01949 -0.00273732 2.23612e-22)
(1.00116 -0.00222972 1.95959e-23)
(1.03849 0.0758274 8.47268e-22)
(0.999192 -0.00197825 1.21736e-23)
(0.999827 -0.000163468 1.00171e-24)
(0.982806 -0.00186448 5.46502e-23)
(1.00009 -3.11813e-05 2.56661e-25)
(1.06447 -0.151682 2.09006e-22)
(1.00331 -0.0176929 -1.39976e-23)
(0.984267 -0.0320756 2.5861e-22)
(1.0018 -0.00152831 1.01265e-23)
(1.1082 0.0806218 1.61129e-21)
(0.998334 -0.000309133 -3.94249e-24)
(0.999977 -3.60629e-05 -2.16748e-26)
(1.00353 -0.109785 2.29137e-22)
(1.0016 -0.00132355 -5.93802e-24)
(1.11513 -0.0410327 -5.20646e-23)
(0.958112 -0.0131643 8.37853e-23)
(0.940298 -0.0153078 4.09339e-23)
(1.26702 -0.0772767 1.09459e-22)
(1.03007 0.020488 -4.72515e-22)
(1.02383 0.00571764 2.9187e-22)
(1.02234 0.00552426 -1.13946e-22)
(0.999806 -4.21489e-05 3.53992e-25)
(1.1537 -0.00141117 8.00044e-23)
(1.09318 -0.00176273 2.82221e-22)
(0.999513 -0.000627734 3.18507e-24)
(0.984272 -0.00610906 2.23257e-22)
(1.00058 -0.000201698 -4.99145e-24)
(1.01106 -0.0205444 -8.9165e-23)
(1.00698 -0.0285058 -1.1477e-23)
(1.0043 -0.00134909 1.53303e-25)
(0.999283 -0.00124753 -1.44242e-23)
(1.21459 0.0733109 -4.69336e-22)
(0.999979 -2.15729e-05 -3.79553e-25)
(1.0002 -0.000107375 -1.32282e-24)
(1.00189 -0.00103962 -4.40252e-25)
(0.97887 -0.00313807 1.51389e-22)
(1.01897 -0.0122763 1.79303e-22)
(0.98391 -0.0270556 -3.63635e-22)
(0.974043 -0.00480908 -8.76988e-23)
(1.00587 -0.0615727 1.58157e-22)
(1.00432 -0.129444 -4.33748e-22)
(1.02438 -0.0336531 1.92259e-23)
(1.04452 0.0758947 -4.77533e-21)
(1.22694 -0.118487 -1.05768e-21)
(0.993772 -0.00248458 -6.16516e-24)
(0.880369 0.113608 6.71867e-21)
(0.974559 -0.0504475 5.43528e-22)
(0.993709 -0.00938727 2.4796e-23)
(0.974704 -0.0039935 1.44009e-22)
(0.997462 -0.0176706 -1.40983e-23)
(0.980175 -0.00229061 2.30153e-22)
(0.990515 -0.0037177 -4.50508e-23)
(1.02736 -0.0149443 -2.68481e-22)
(1.10662 -0.103578 -1.41606e-22)
(0.999975 -4.19941e-05 -3.17776e-26)
(1.0233 -0.0139867 -3.13704e-23)
(0.999908 -2.92082e-05 -5.13412e-25)
(1.0221 0.12407 1.04935e-21)
(1.23491 0.0257071 -1.05282e-22)
(0.995461 -0.0018696 1.50874e-23)
(0.986635 -0.00165156 -2.08017e-22)
(0.999822 -5.2186e-05 -2.59238e-24)
(0.999735 0.0641566 3.25103e-21)
(1.05692 0.139905 2.28072e-21)
(1.15063 -0.0139243 2.29421e-23)
(1.25218 0.115433 -2.005e-22)
(0.974178 -0.0533953 -2.3846e-22)
(0.998154 0.0103789 -5.0828e-21)
(0.999941 -0.000129196 4.82991e-25)
(1.04582 -0.0347683 2.17474e-22)
(0.982463 -0.00142123 -8.4273e-24)
(1.1458 0.0618723 -2.57913e-22)
(0.917243 0.0788389 -4.94803e-21)
(1.20402 -0.0172198 -3.64756e-22)
(1.06479 0.0289786 1.30426e-22)
(0.99978 -0.012019 -9.54947e-24)
(0.999809 -8.13244e-05 -2.37308e-24)
(1.24179 0.0840227 6.77964e-23)
(1.17406 -0.143382 2.22214e-22)
(0.996718 0.0776304 -9.36811e-23)
(1.10665 -0.0379478 9.49133e-23)
(1.04507 0.0585874 1.4024e-21)
(0.993402 -0.00221719 -2.10797e-23)
(0.993965 0.103218 1.47491e-21)
(1.06243 0.131013 7.76652e-22)
(0.991577 -0.00315125 -1.26239e-22)
(0.992961 -0.00294756 -4.69342e-23)
(1.24849 0.0533459 -2.86597e-23)
(0.938181 -0.0141429 -5.72863e-22)
(0.99992 -0.000149919 -7.51561e-25)
(0.988004 -0.00501512 1.98666e-22)
(0.942592 -0.0199747 4.19582e-22)
(0.982304 -0.0685164 -6.87905e-23)
(1.0094 -0.00244153 -1.9042e-22)
(1.0082 -0.00584414 1.17866e-23)
(0.999883 -0.000186639 -1.41298e-24)
(1.06129 0.148661 -3.44891e-21)
(1.00016 -0.0109474 1.57735e-24)
(0.999903 -5.75787e-05 4.5524e-25)
(1.01374 -0.0594655 2.06707e-22)
(0.999536 -0.000412881 2.82408e-24)
(0.99979 -7.26452e-05 1.80013e-25)
(1.00486 -0.0118902 -1.16595e-23)
(1.09075 0.0856803 2.33261e-21)
(1.00091 -0.0979869 3.12065e-22)
(0.941246 0.0800243 2.87128e-21)
(1.00006 -9.34112e-06 -7.14379e-25)
(1.1004 0.0889756 -2.40132e-21)
(1.009 -0.0502542 1.45892e-22)
(0.999928 -0.000183987 -2.12862e-25)
(1.00002 -6.01062e-06 -2.18656e-25)
(1.00291 0.0121146 -2.42835e-22)
(1.08026 0.0724392 8.9282e-22)
(0.996313 -0.00230732 1.30945e-23)
(1.06891 0.0540512 -1.18276e-21)
(1.00003 -1.93871e-05 1.59445e-25)
(1.07087 0.0615834 -1.60621e-21)
(1.07666 -0.168513 6.07207e-22)
(0.99113 -0.00282091 1.38829e-22)
(0.999024 0.016391 -6.8175e-21)
(0.976093 -0.0425538 3.63614e-22)
(1.25424 0.0986193 7.91431e-23)
(0.975839 -0.00399717 8.73009e-23)
(1.07852 0.064184 2.10238e-21)
(1.08889 0.0753923 -6.51338e-22)
(0.985018 -0.00755645 3.23389e-22)
(0.98048 -0.00912166 -2.37633e-22)
(0.995257 -0.0094206 7.41501e-23)
(0.997379 -0.000693192 -1.11881e-23)
(0.999813 -0.000181664 2.72711e-24)
(0.999954 -0.01047 -2.8707e-24)
(1.07701 0.120656 -3.95206e-22)
(0.999973 -3.2965e-05 9.66122e-26)
(1.0619 0.0523265 1.55987e-21)
(1.01161 -0.101634 5.18106e-22)
(1.01164 0.0802145 1.25279e-21)
(1.05995 0.0460906 -1.79754e-21)
(0.940442 -0.0186637 -5.22379e-23)
(0.950248 0.102925 -6.005e-21)
(0.998545 -0.00109645 9.4549e-25)
(1.01447 -0.0268191 3.39339e-23)
(1.03548 -0.0840742 1.51956e-22)
(0.981014 -0.00216323 -1.40645e-23)
(0.994132 -0.00312736 6.2574e-23)
(1.00633 -0.050964 -1.26784e-22)
(1.05546 -0.0283426 -2.12342e-23)
(0.891889 0.0708599 7.88155e-21)
(1.00004 -1.81858e-05 7.72327e-25)
(0.998281 -0.00116794 1.27475e-23)
(1.00802 -0.0730101 6.49344e-24)
(1.00001 -4.82766e-06 2.58966e-26)
(1.02382 0.133059 5.20919e-22)
(1.00162 -0.00114695 0)
(1.00001 -6.43969e-06 1.98371e-26)
(1.00018 -8.33771e-05 3.10747e-24)
(1.00037 -0.000116772 6.2257e-26)
(0.986213 -0.01855 2.437e-22)
(1.02212 -0.0186253 -9.89031e-23)
(0.998611 -0.00085624 2.00573e-23)
(0.99992 -1.66238e-05 9.54402e-25)
(0.993751 -0.00292622 3.47421e-23)
(1.0042 -0.0123485 -7.75883e-24)
(0.979478 -0.098056 -4.65624e-22)
(0.945451 -0.00637343 4.06744e-23)
(1.01836 -0.0109285 3.20179e-22)
(0.999975 -2.64433e-06 3.00072e-25)
(1.03991 -0.157317 6.31646e-22)
(0.988209 -0.00349998 -7.95035e-23)
(1.21834 0.0548453 1.90038e-23)
(1.00041 0.0126304 -8.96356e-22)
(1.00118 -0.00335631 4.51786e-24)
(1.18914 0.050135 -5.48276e-22)
(1.00014 -9.00378e-05 -3.69808e-28)
(0.988762 -0.00393145 2.28972e-24)
(1.02556 0.000439237 -5.73651e-22)
(0.994157 -0.00355949 -2.56188e-23)
(1.09849 0.106189 -1.45822e-22)
(0.988658 -0.00613512 -1.50148e-22)
(1.04811 -0.0325387 -2.03134e-22)
(1.02599 0.00103347 -6.20175e-22)
(1.08232 0.0358724 -3.21178e-22)
(1.00683 -0.0149393 -4.48469e-23)
(0.990992 -0.00401253 3.7369e-24)
(1.12634 0.072965 8.68725e-22)
(0.975785 -0.0734947 -3.92167e-22)
(1.00672 0.132163 4.40723e-21)
(0.992027 -0.00455736 -1.46391e-22)
(1.11293 0.145775 -5.76688e-23)
(0.992012 -0.00399506 3.91236e-23)
(0.998964 -0.000492585 -1.30878e-24)
(1.06299 0.0249221 3.83205e-22)
(1.01253 -0.0301715 2.46113e-24)
(1.0401 -0.000203867 8.19824e-22)
(1.00168 -0.000796661 6.60286e-24)
(1.00001 -5.09804e-06 9.11046e-27)
(0.985015 -0.112466 1.69275e-22)
(1.20832 0.136006 -9.76097e-22)
(1.0014 -0.00326016 -6.2899e-24)
(1.20441 0.0441283 2.313e-23)
(0.98928 -0.00573256 -9.83877e-23)
(1.03244 -0.15788 -2.35955e-22)
(1.04052 -0.0483312 -1.82927e-23)
(0.983468 -0.0287092 2.04966e-22)
(0.998507 -0.000955524 -8.48362e-24)
(0.992258 -0.00100948 -2.98143e-23)
(0.972567 -0.0626345 -2.29157e-22)
(0.973888 -0.00857669 3.27128e-22)
(0.991532 -0.00371818 1.03338e-22)
(0.999869 -0.000421839 1.20624e-24)
(0.996918 0.14048 -5.79697e-22)
(1.17735 0.0405624 2.96757e-22)
(1.02435 -0.0121232 -1.00852e-22)
(0.99982 -0.000141447 1.82432e-24)
(1.05752 0.122791 -1.52636e-21)
(1 -2.31587e-05 3.8936e-26)
(0.999834 -0.000126157 3.61063e-24)
(1.1636 0.0454927 3.67589e-22)
(1.00897 -0.0248922 1.62209e-23)
(1.21611 0.106634 6.48247e-22)
(1.02432 -0.0034001 2.33497e-22)
(1.01634 -0.0132948 -2.02559e-23)
(1.07437 -0.0897442 2.14606e-22)
(1.01972 -0.127023 5.17984e-22)
(1.25727 -0.0828764 4.74781e-22)
(1.00117 -0.000817475 -1.45085e-23)
(0.959669 -0.0144047 -3.21236e-23)
(0.999983 -5.51811e-05 -6.72635e-26)
(1.0046 -0.0107826 8.45905e-24)
(1.10316 0.098148 8.5856e-22)
(0.985812 -0.00709308 2.25925e-22)
(0.99752 -0.00138831 1.76685e-23)
(1.01109 -0.0409557 -8.74115e-23)
(0.998252 -0.00103052 1.21307e-24)
(0.999647 -0.00103613 3.73311e-24)
(0.883235 0.0163913 1.41047e-21)
(0.991548 -0.00489634 -8.28088e-23)
(0.999513 -0.000685015 -1.10097e-23)
(0.999984 -5.86444e-07 -6.23115e-26)
(1.01907 0.00718677 1.27923e-21)
(0.975445 -0.0237822 -4.94554e-23)
(0.999709 -0.000517702 3.28865e-24)
(0.997528 -0.000807435 2.281e-23)
(1.0278 0.0233111 5.26284e-22)
(1.07881 -0.00158749 7.81956e-23)
(0.966205 -0.020794 -2.82792e-22)
(1 -1.47254e-05 1.24969e-26)
(1.00131 0.0117032 3.54742e-21)
(0.987457 -0.0161929 -1.65625e-22)
(1.10498 0.0710101 -1.61454e-21)
(1.01232 -0.00123588 -2.9082e-22)
(1.01438 -0.00131479 6.64817e-22)
(0.972386 -0.0106421 4.45684e-22)
(0.999914 -6.10578e-05 -2.97858e-25)
(1.02522 0.000212786 -1.17225e-22)
(1.08315 -0.00674017 -8.53518e-23)
(1.2433 -0.0465532 -6.30271e-22)
(1.01788 -0.0995658 1.22184e-22)
(1.0707 0.11301 1.14696e-21)
(1.00531 -0.00161375 -4.65883e-24)
(1.13843 0.0746427 -1.18662e-21)
(0.999773 -0.0140461 -1.61857e-23)
(1.01071 -0.0564908 -3.44644e-22)
(0.99965 -0.000155785 -3.56146e-24)
(1.00261 -0.0188054 2.7413e-23)
(0.999908 -0.000404352 4.52289e-25)
(1.06088 0.034117 -1.16504e-21)
(1.1497 0.154116 -2.77854e-21)
(0.998683 -0.00112881 6.74648e-24)
(1.0178 -0.0136375 2.61918e-24)
(0.984558 -0.00425562 7.75858e-23)
(1.02469 -0.0904967 5.79211e-23)
(1.01877 -0.0931686 -2.59561e-22)
(0.998339 -0.000814343 1.34278e-23)
(1.04227 -0.0344102 -6.97825e-23)
(0.893539 0.00481877 -2.36063e-21)
(1.21794 -0.0597104 -5.37103e-22)
(0.999952 -0.000156834 1.04175e-24)
(1.0723 -0.00291337 -2.71555e-22)
(0.997342 -0.0086351 -3.64164e-23)
(0.994446 0.0028143 4.8436e-21)
(0.989283 -0.00501499 1.36669e-22)
(0.995415 -0.0253813 -4.67619e-23)
(1.01416 -0.0370198 -4.02415e-24)
(0.994076 -0.0261161 -6.44373e-24)
(0.998162 -0.0204465 -1.06293e-22)
(0.993337 -0.0031659 2.39199e-23)
(0.998955 -0.0138851 5.66462e-23)
(1.00179 -0.0061016 -6.9972e-24)
(1.05559 -0.0325875 5.38881e-23)
(1.0001 -2.33485e-05 -1.99289e-24)
(1.12082 -0.174532 -3.62187e-22)
(1.16403 -0.0823899 -2.15608e-22)
(1.0417 0.146387 2.91693e-21)
(0.967859 -0.0197542 4.28279e-22)
(1.19667 0.105824 -3.56703e-22)
(1.00179 -0.000618822 2.35405e-23)
(1.0492 -0.088747 -1.12951e-24)
(1.00206 -0.0374183 -1.17584e-22)
(1.02622 0.0435516 1.57165e-21)
(0.99379 -0.00383974 5.94835e-23)
(1.0001 -0.000173342 1.31672e-24)
(0.98805 -0.0168878 2.16171e-22)
(0.996039 -0.00919102 -2.81398e-23)
(1.04004 -0.0311684 1.83808e-22)
(0.975263 -0.00659463 -2.75958e-22)
(0.979504 -0.00849122 7.85254e-23)
(1.11679 -0.082803 -9.2899e-23)
(0.986946 -0.00278814 -1.36099e-22)
(1.01154 -0.0381314 5.965e-23)
(0.983007 -0.072448 2.87218e-22)
(1.00001 -7.70959e-06 1.67019e-26)
(1.05991 -0.0252902 3.35793e-22)
(0.985593 -0.0658278 -7.65345e-22)
(1.19548 0.0770106 2.57274e-22)
(1.07103 -0.0957949 -3.91972e-22)
(1.03826 -0.0003617 6.78666e-23)
(1.007 -0.0969685 -6.54037e-22)
(1.07759 0.159019 7.1559e-22)
(1.0304 -0.040255 2.58902e-23)
(0.971236 -0.00980605 -2.64572e-22)
(1.00976 -0.0470572 -1.73532e-22)
(0.951943 0.00696873 2.19079e-21)
(1.09655 -0.152352 1.89701e-22)
(0.988696 -0.00465453 -4.15929e-23)
(1.0014 -0.116621 -4.93248e-23)
(1.01594 -0.0673261 2.45978e-22)
(1.01517 -0.113544 -7.74135e-23)
(1.02481 -0.0842359 -2.88649e-22)
(1.12168 0.0634319 1.14926e-21)
(0.997543 -0.00159585 1.16292e-24)
(1.01077 0.0518492 5.98712e-22)
(1.00718 -0.00156308 3.4106e-23)
(0.999652 -0.000523542 -4.71488e-24)
(0.998947 -0.00224613 3.35258e-23)
(1.06451 -0.00882226 -8.41113e-23)
(0.833313 0.00567741 7.05924e-23)
(1.00144 -0.00651425 3.37792e-24)
(1.01169 -0.0528674 4.88628e-23)
(1.02854 0.0270284 -8.72411e-22)
(1.00002 -7.02746e-06 -3.85083e-26)
(0.981459 -0.00859981 1.89841e-22)
(1.02168 -0.0108979 2.29735e-22)
(1.0663 -0.0590729 -8.93075e-23)
(1.00732 -0.000794784 1.91502e-22)
(0.998588 -0.00200229 6.11706e-24)
(0.983799 -0.0363385 2.95264e-24)
(0.997971 -0.00831881 -1.10181e-23)
(1.00003 -5.67523e-06 4.20823e-25)
(0.978028 -0.041935 -6.13159e-22)
(1.08264 0.100594 -3.94721e-22)
(1.01669 -0.0329838 2.59588e-23)
(0.98523 -0.00482592 -1.45085e-22)
(1.00163 -0.000419061 -8.44681e-24)
(1.03254 0.0285945 1.14665e-21)
(0.99966 -0.000636236 -2.16952e-24)
(0.998894 -0.000645525 -6.80596e-25)
(0.99968 -0.000170416 -3.24891e-24)
(0.999343 -0.00212032 -8.42976e-24)
(1.2316 -0.0288651 -2.1322e-22)
(1.0241 -0.038785 -2.4227e-23)
(1.00698 -0.0188047 1.03246e-23)
(0.984213 -0.00708738 -6.64192e-23)
(1.00004 -5.10055e-05 4.0762e-25)
(1.03491 -0.129314 7.21105e-22)
(1.1913 -0.135406 4.48479e-24)
(1.03481 -0.138081 -3.43095e-22)
(0.995708 -0.0322238 -8.85143e-23)
(1.01296 -0.00966176 2.1421e-22)
(0.99981 -9.94401e-05 1.49824e-24)
(0.989762 -0.0111176 -8.58807e-23)
(0.962123 -0.0411841 -3.52276e-22)
(1.2099 -0.0451285 1.02758e-22)
(1.00942 0.0777125 -4.38474e-23)
(0.998967 -0.00318173 6.82211e-24)
(0.951699 -0.0284822 1.94827e-22)
(0.995806 -0.00272821 -5.70043e-23)
(1.02914 -0.0370361 1.13792e-23)
(1.13818 0.0518904 7.06913e-23)
(1.0004 -0.000133881 -7.04683e-24)
(0.999859 -0.000214938 -5.55556e-25)
(1.25197 0.0659406 -2.19433e-23)
(1.18607 -0.0599011 1.52526e-22)
(1.0167 -0.0164992 7.50378e-23)
(0.997374 -0.00173857 3.00923e-23)
(0.998133 -0.000464073 -2.99006e-24)
(0.967876 -0.0424218 8.61584e-23)
(0.999845 -0.00035295 -1.83512e-24)
(1.0143 -0.0342603 -2.26853e-23)
(0.988132 -0.00137974 2.81e-22)
(1.00063 0.0146056 -7.47755e-22)
(1.09074 0.107902 -2.11328e-22)
(1.04712 -0.0819584 1.5106e-22)
(0.988853 -0.0668799 2.79566e-22)
(1.00596 -0.001418 9.44413e-23)
(1.01249 -0.025555 -4.50852e-23)
(1.16255 -0.0675724 -3.84648e-22)
(0.987134 -0.0736281 -1.75747e-22)
(1.01279 -0.0460828 9.94287e-23)
(0.999999 -7.47684e-06 7.52129e-27)
(1.13796 -0.0710947 -3.58282e-22)
(0.977221 -0.00270733 2.6556e-23)
(0.984725 -0.0808606 3.45908e-22)
(1.01659 -0.0303894 -4.44983e-23)
(0.961506 -0.013708 -5.88372e-23)
(0.999641 -0.000298463 -1.58891e-24)
(0.997336 -0.00129951 -1.34354e-23)
(1.05377 0.0446337 1.38958e-21)
(0.973769 -0.0100008 -1.00056e-22)
(0.999986 -2.15225e-06 6.60946e-26)
(0.997436 -0.000539336 -3.16097e-23)
(1.10452 -0.141173 -1.1151e-21)
(0.99985 -5.17346e-05 3.79628e-24)
(1.01487 -0.0517988 -3.63111e-23)