/*--------------------------------*- C++ -*----------------------------------*\
  =========                 |
  \\      /  F ield         | OpenFOAM: The Open Source CFD Toolbox
   \\    /   O peration     | Website:  https://openfoam.org
    \\  /    A nd           | Version:  7
     \\/     M anipulation  |
\*---------------------------------------------------------------------------*/
FoamFile
{
    version     2.0;
    format      ascii;
    class       volVectorField;
    location    "13";
    object      U;
}
// * * * * * * * * * * * * * * * * * * * * * * * * * * * * * * * * * * * * * //

dimensions      [0 1 -1 0 0 0 0];

internalField   nonuniform List<vector> 
7807
(
(1.05306 0.109935 7.99864e-21)
(1.04268 -0.0337623 3.77187e-22)
(0.98796 0.0804482 -1.51974e-20)
(1.02557 0.0529335 2.10677e-20)
(0.99938 -0.000680555 -3.31275e-23)
(0.999974 -5.54011e-06 -2.80157e-24)
(0.98614 0.0649846 -2.91628e-20)
(0.99611 -0.00113096 -6.90645e-24)
(0.999911 -0.000124383 -6.20714e-24)
(1.01858 0.000119984 -9.36738e-22)
(0.999976 -6.98338e-06 3.10232e-24)
(1.00161 -0.000974739 -1.03746e-22)
(0.994015 -0.00136861 3.27625e-22)
(1.01431 -0.00152506 -5.70034e-21)
(1.01801 0.000731566 3.96411e-21)
(0.992844 -0.0111839 -8.64281e-22)
(1.05467 0.115419 -1.68373e-20)
(0.991909 -0.00172209 -1.16517e-22)
(1.00154 -0.00715867 1.53096e-23)
(0.981218 -0.0800189 -8.71553e-22)
(1.02693 -0.00332857 -1.9836e-21)
(1.00105 -0.000518327 1.81703e-22)
(1.01364 -0.00272453 4.6752e-22)
(1.00852 0.0226617 -1.04582e-20)
(0.989192 -0.002106 -5.31426e-22)
(1.04922 0.108032 -7.89115e-21)
(0.999399 -0.000644274 -2.39979e-23)
(1.01817 -0.00126254 2.28608e-21)
(1.00445 0.0117145 -1.3294e-21)
(1.00254 -0.00767984 -2.09604e-23)
(0.989184 -0.0116543 -1.5192e-21)
(0.926448 0.0127523 3.96402e-21)
(1.01322 -0.00316719 2.91986e-21)
(0.99966 -0.000263887 3.67957e-23)
(0.999954 -2.7155e-06 3.97473e-26)
(1.01778 0.000431549 1.38448e-21)
(1.00307 -0.00848359 -1.93972e-24)
(0.989981 0.0634438 -4.62679e-21)
(0.997101 -0.00585394 7.1278e-22)
(0.99978 -2.71792e-05 2.82992e-23)
(0.997374 -0.00604465 -7.96025e-23)
(0.992995 -0.0103885 -3.04802e-22)
(1.00443 -0.0890659 4.01373e-21)
(1.12472 -0.037309 4.30359e-22)
(0.999915 -4.92695e-06 8.62374e-24)
(0.999949 -8.86069e-06 -2.63292e-24)
(1.00096 -0.000434122 -1.11236e-22)
(0.996879 -0.00527375 -4.17964e-22)
(0.999955 -1.84214e-05 -2.39466e-24)
(0.984864 -0.0807747 1.2672e-21)
(1.00235 -0.000867782 1.17634e-22)
(1.01816 -0.000264018 -2.36738e-21)
(0.986023 -0.00242134 -1.83423e-21)
(1.00831 -0.0242792 -2.54807e-23)
(1.0178 -0.000669996 -7.99211e-22)
(0.996537 -0.00170818 -6.28811e-23)
(1.00142 -0.00672751 5.72644e-24)
(0.996103 -0.000935901 4.26143e-22)
(0.981374 -0.0137114 -2.61267e-21)
(0.999651 -0.000230149 -4.60632e-23)
(1.00003 -1.63089e-05 -4.26774e-25)
(1.00312 -0.000839345 1.34829e-22)
(1.01468 -0.000939498 -1.34865e-21)
(1.00172 -0.000844175 1.05022e-22)
(0.999353 -0.000102481 5.60977e-23)
(0.989602 -0.0121688 2.48496e-22)
(0.999932 -0.000126086 5.34479e-24)
(1.00001 -1.57888e-06 -1.3153e-25)
(1.12179 0.0627337 3.6407e-21)
(0.996987 -0.00498693 -1.32888e-22)
(0.999951 -1.14586e-05 2.41324e-24)
(0.973238 -0.0453248 -5.72338e-21)
(0.989543 -0.00246013 2.66732e-22)
(0.981215 -0.00271106 3.55776e-22)
(0.992206 -0.002 3.68402e-22)
(0.970588 -0.0197403 -5.84394e-22)
(0.990867 0.0821079 2.44293e-20)
(1.02536 -0.00315421 2.52896e-21)
(1.06772 0.000776324 -4.87921e-21)
(0.960129 -0.0352455 -6.68965e-21)
(0.994267 -0.0015868 -5.03344e-22)
(0.997703 0.038716 2.81998e-20)
(1.0307 0.00485238 6.14975e-21)
(0.979178 -0.0061675 1.77896e-21)
(0.998973 -0.0017819 -6.2614e-23)
(0.998562 -0.000129957 4.59472e-23)
(0.995813 -0.00156732 6.22999e-22)
(0.986336 -0.00287507 1.17397e-21)
(0.999515 -0.000822895 3.75143e-23)
(0.99708 -0.000293155 1.73585e-22)
(1.00461 0.0133122 9.87206e-21)
(1.15307 -0.0230054 -6.0003e-22)
(0.99991 -3.38019e-05 -5.91265e-24)
(1.0012 -0.00568441 1.93334e-24)
(0.997452 -0.000596569 1.64757e-22)
(0.985457 -0.000995082 -2.77392e-21)
(0.975366 -0.0450909 3.33063e-22)
(1.00968 -0.0233893 2.89829e-22)
(0.998885 -0.00170963 2.01528e-23)
(0.999239 -9.16411e-05 1.99744e-23)
(0.960252 -0.00924223 1.36323e-21)
(1.06834 0.00503425 4.08811e-21)
(0.997587 -0.000707515 -4.07962e-22)
(0.999988 -5.0596e-07 -2.1585e-25)
(1.15592 -0.0123001 -4.74047e-22)
(1.02287 0.0229236 -9.56695e-21)
(0.955583 0.011292 4.5834e-21)
(0.996313 -0.00158901 -2.50039e-22)
(0.999994 -1.32711e-06 1.04073e-25)
(1.01938 -0.0105652 -9.39128e-22)
(1.02866 0.0502593 -2.44748e-20)
(1.01952 -0.0654561 -4.85262e-21)
(0.999993 -1.58658e-06 -1.4102e-25)
(1.02079 -0.0111449 -2.0276e-22)
(1.02023 0.0220437 1.00664e-20)
(1.00028 -0.000406496 -5.94423e-24)
(1.05888 -0.0784115 -2.37193e-22)
(1.02338 0.0130873 -2.28959e-21)
(0.984379 -0.035741 2.51294e-21)
(0.980088 -0.00367981 -3.96458e-22)
(0.963563 -0.00450276 -3.13777e-21)
(1.00028 0.0273269 -1.82339e-20)
(1.00993 -0.0879122 -5.50688e-21)
(1.00705 -0.00597677 6.10121e-23)
(0.962291 -0.00579665 1.20904e-21)
(0.999308 -0.000944707 8.62252e-23)
(0.990232 -0.00865208 4.89316e-22)
(1.00198 -0.00646571 1.53616e-24)
(0.999361 -6.33668e-05 -1.26505e-22)
(0.989255 -0.0106625 3.2689e-23)
(1.1877 -0.0379611 -5.47414e-22)
(1.06295 -0.00112651 8.27922e-22)
(0.999575 -0.000356129 4.08966e-24)
(0.999444 -0.000841692 -7.61547e-23)
(0.978387 -0.00536455 5.06248e-22)
(1.02701 0.0442907 8.99663e-21)
(0.995557 0.0202446 3.1659e-20)
(0.999986 -1.4964e-06 -2.65056e-25)
(1.00561 -0.0023011 6.19007e-23)
(0.954803 -0.00555528 -4.10467e-21)
(0.984037 -0.00163134 -1.45304e-21)
(0.987811 -0.0509548 -3.94232e-21)
(0.970815 -0.0215564 7.93651e-22)
(0.982403 -0.00238707 -3.48408e-23)
(0.957823 0.00821103 1.73588e-20)
(1.00895 -0.0376886 -1.55303e-22)
(1.00927 0.0135187 -5.03451e-21)
(0.983014 -0.0169276 -1.40865e-21)
(0.97802 -0.00209716 4.11237e-22)
(0.999819 0.0345431 -9.10101e-21)
(1.01851 0.00127361 3.43796e-21)
(1.14105 -0.0256512 2.95792e-22)
(0.998884 -0.00138757 -2.01432e-22)
(1.12676 0.0556793 6.0542e-22)
(1.02921 0.00453654 -6.36648e-21)
(0.999133 0.0671079 -2.39284e-20)
(0.965667 -0.023307 2.4507e-21)
(0.994144 -0.000939434 1.07223e-22)
(0.952136 0.0465105 4.18584e-20)
(0.999958 -1.51822e-05 -2.3237e-24)
(1.00082 -0.00596294 6.78604e-23)
(1.00903 0.0252342 7.54867e-21)
(0.999985 -1.25893e-05 1.94455e-24)
(0.998611 -0.00372433 -3.63488e-22)
(0.997144 -0.000549702 -7.82441e-23)
(1.00288 0.0290223 -2.46659e-21)
(1.00151 0.0256133 9.12455e-21)
(0.94506 0.0512331 1.41138e-20)
(0.998423 -0.00358329 -2.05826e-22)
(0.998103 -0.000138427 -8.33537e-23)
(1.00001 -1.58045e-06 1.51363e-25)
(0.972577 -0.00174136 -5.05806e-21)
(1.00026 -0.000359116 8.34076e-24)
(1.04437 -0.0305875 -4.45869e-22)
(1.00572 -0.00257765 4.04866e-22)
(0.97628 -0.00269637 8.31898e-22)
(1.14696 -0.00299988 1.73919e-22)
(1.08223 0.061462 3.00692e-22)
(0.99991 -4.04694e-05 3.27835e-24)
(0.999632 -0.00042844 -4.70639e-23)
(1.0261 0.0559455 -3.74465e-21)
(0.999959 -1.09244e-05 -1.04037e-24)
(0.999936 -5.27839e-06 1.46353e-24)
(0.985618 0.0693574 -2.43591e-20)
(1.0444 -0.0366538 -2.94052e-22)
(1.0079 -0.054487 -2.68943e-21)
(0.986128 -0.0346662 -3.57481e-21)
(0.981733 -0.00422063 1.11418e-21)
(1.00639 -0.0387764 3.02187e-22)
(0.958864 -0.00378739 2.21178e-21)
(0.999985 -1.1332e-05 -6.23455e-25)
(0.976123 -0.0420506 -1.38997e-21)
(1.08422 0.0679379 -7.68606e-21)
(0.997561 -0.000898752 5.8134e-23)
(1.00005 -4.41343e-06 -9.0472e-25)
(1.05794 0.0634236 7.93618e-22)
(0.99913 -0.000228358 1.47983e-22)
(0.989946 -0.010257 7.80529e-22)
(1.00412 -0.0365012 9.90495e-22)
(1.00001 -1.57571e-06 5.82782e-26)
(1.00057 -0.00144347 -3.61934e-23)
(1.02417 0.0436885 1.11152e-20)
(1.07227 0.0726949 -9.98864e-21)
(0.996607 0.058514 -3.21072e-21)
(1.05538 -0.0727047 2.0413e-21)
(1.02283 -0.0623646 1.09572e-21)
(1.10043 -0.10646 -7.19602e-22)
(1.01814 -0.00228615 6.84128e-21)
(1.02236 0.0412935 -3.54698e-21)
(0.999882 -8.07754e-06 -9.78308e-24)
(1.00003 -1.37927e-05 2.56961e-26)
(0.976091 0.00287035 -1.7267e-20)
(0.993993 -0.00997458 -2.96372e-22)
(0.999561 -0.000315595 -3.97553e-23)
(0.97816 -0.0414307 2.88151e-21)
(0.989747 -0.0091349 -5.72088e-22)
(1.00723 0.0627802 -2.69853e-20)
(1.00454 0.0604526 -5.64711e-21)
(0.985271 -0.0522291 1.05111e-21)
(0.924222 0.0257816 -1.53812e-20)
(0.999188 -0.000270567 -1.10476e-22)
(0.992079 -0.00139316 4.06398e-22)
(0.959774 -0.00785784 1.73272e-21)
(1.02587 0.000369595 -1.4417e-21)
(1.00761 -0.112389 -5.21271e-22)
(1.07192 0.109426 -1.71127e-20)
(0.953526 0.039528 -3.56299e-20)
(1.00004 -7.52928e-05 4.05671e-25)
(1.00699 -0.00565214 2.08673e-22)
(1.02167 0.015056 1.24031e-20)
(0.99701 -0.00431605 -5.05486e-22)
(1.02535 0.0134852 -1.5694e-21)
(0.999593 -0.000896891 -1.71412e-23)
(0.925625 0.055781 2.84527e-20)
(1.00011 0.0618822 5.20225e-21)
(0.995833 -0.00130576 3.83675e-22)
(1.00262 -0.00640937 -4.86996e-24)
(0.999788 -3.67246e-05 -5.27897e-23)
(1.10326 0.087693 4.00607e-21)
(0.999945 -6.56827e-06 4.17378e-24)
(0.995741 -0.00817542 2.49374e-22)
(0.946896 -0.019152 2.62476e-21)
(0.99995 -1.53829e-05 -9.93019e-25)
(0.999042 -0.00209071 -5.57647e-23)
(0.999678 -0.000874924 2.48241e-23)
(1.05274 0.0378259 9.52972e-21)
(0.999986 -1.63621e-05 2.57645e-24)
(0.997282 -0.000200612 -2.96685e-26)
(0.962246 -0.0351756 7.77557e-21)
(0.939519 0.0070556 -8.70029e-21)
(1.06229 -0.00511204 -1.082e-21)
(0.93951 0.0350503 2.10974e-20)
(0.99997 -4.36851e-06 -2.46149e-24)
(1.0021 -0.037074 -2.94111e-23)
(0.999864 -0.000214582 -1.82692e-23)
(0.994797 0.0683908 -2.40202e-20)
(1.00277 -0.000557921 -1.76278e-22)
(0.993588 0.0234968 1.04484e-20)
(1.00196 -0.00778583 7.70044e-24)
(1.0005 -0.00150341 3.28437e-23)
(1.02358 -0.0279485 -1.09379e-23)
(1.01804 -0.00117753 -6.33324e-21)
(1.00039 -0.000242649 2.02946e-23)
(0.999844 -2.99839e-05 3.52953e-25)
(1.00034 -0.000328042 4.31642e-23)
(0.996837 -0.0045755 -4.56383e-22)
(1.01386 -0.0569622 3.15291e-21)
(0.999971 -6.72552e-06 1.63855e-24)
(0.967178 -0.0223315 1.70964e-21)
(0.997266 -0.000674158 -1.76794e-23)
(0.999901 -2.74823e-05 6.19091e-24)
(0.99955 -0.000397342 1.32093e-23)
(0.988236 0.0386863 2.54067e-20)
(0.995418 -0.00027384 1.51302e-22)
(0.99952 -4.83912e-05 -1.11343e-23)
(0.965256 0.00193717 3.25225e-20)
(0.998937 -0.00200443 -1.18942e-22)
(1.04393 0.0817282 -9.09944e-21)
(0.99985 -0.000197715 3.01299e-23)
(1.00589 -0.0181574 -2.27519e-22)
(1.00001 -8.40369e-07 3.59945e-26)
(0.984352 -0.0284562 -1.35865e-21)
(1.02552 0.000461705 2.2491e-21)
(1.14877 0.00567258 -1.04524e-21)
(0.981484 -0.0149164 2.22744e-21)
(0.999698 -0.000436741 5.64264e-23)
(0.980536 -0.0675146 1.93493e-21)
(0.996945 -0.000130103 7.06824e-22)
(0.999897 -1.12776e-05 6.84507e-25)
(1.00032 -0.000283358 -3.81676e-23)
(0.99837 -0.00260051 1.72085e-22)
(0.994525 -0.000720914 -4.61406e-22)
(1.00227 -0.000707958 -1.9703e-22)
(0.999054 -0.00142208 7.11226e-23)
(0.980296 -0.0057403 2.83569e-22)
(1.01791 -0.0549561 -2.27586e-21)
(0.980658 -0.00456004 1.20533e-21)
(1.11858 -0.0300579 -7.88113e-23)
(0.97484 -0.00457356 -1.54707e-21)
(1.0069 0.0820813 2.76295e-21)
(1.00326 0.0839918 -2.03622e-20)
(0.998903 -0.000514297 -1.0272e-22)
(1.16959 0.00389849 -6.62341e-22)
(0.999989 -2.10442e-06 -1.64673e-25)
(0.998319 -0.00325027 -2.14787e-22)
(0.988634 -0.000593615 2.81983e-21)
(1.00656 0.0201263 6.25157e-21)
(1.03213 0.00831508 -6.04389e-21)
(1.00007 -2.6419e-05 2.66245e-24)
(0.9984 -0.00306528 -1.73578e-23)
(0.975164 -0.0054277 1.16627e-21)
(1.04064 0.0323736 -3.73928e-21)
(0.999259 -0.000866525 6.00088e-23)
(1.00246 -0.000643143 1.15792e-22)
(1.00089 -0.000744689 -8.32238e-24)
(1.10417 0.0205628 4.7303e-21)
(1.18695 -0.0498973 -3.72366e-21)
(1.02135 0.101878 1.35412e-20)
(0.998921 -0.000110056 -9.01609e-23)
(1.05249 -0.0350939 -3.13904e-23)
(0.99992 -4.51362e-05 -5.59095e-24)
(1.00356 -0.00571508 -3.28967e-22)
(0.999963 -7.81923e-06 -7.40504e-25)
(0.987542 -0.0165997 4.00779e-22)
(0.999761 -4.07306e-05 -1.01014e-23)
(1.00949 -0.0177784 9.26009e-23)
(1.19194 0.00602255 1.44533e-21)
(0.976938 -0.0216952 2.80332e-21)
(1.00685 -0.0177044 2.68481e-23)
(1.00633 -0.0050266 -2.58606e-22)
(0.9995 -7.24232e-05 5.09987e-23)
(1.02128 -0.0146499 6.64781e-22)
(0.996837 -0.0150718 4.82274e-22)
(1.06337 0.00906926 -2.47299e-21)
(1.04853 0.0359767 4.27203e-21)
(1.14735 -0.118977 4.51727e-23)
(1.12198 -0.0457567 -1.71268e-21)
(0.994545 -0.000182647 -7.7159e-22)
(1.00377 -0.00283988 3.75e-22)
(0.949117 -0.0181206 -9.88871e-22)
(0.93859 0.0493238 -4.32438e-20)
(1.10404 -0.0464143 1.65676e-21)
(1.02121 -0.00883132 -2.79153e-21)
(0.927148 0.0300232 -2.12243e-20)
(0.999025 -6.0482e-05 4.43422e-23)
(0.998705 -0.000643675 -3.24912e-23)
(1.13785 -0.0349131 -1.50594e-21)
(0.999154 -0.00153762 -4.63075e-23)
(1.00926 -0.0350252 2.95808e-22)
(1.00438 -0.00148372 1.38835e-22)
(0.998072 -0.000195226 -7.11879e-23)
(0.998561 -0.00017913 -1.13557e-22)
(1.02525 0.0198665 7.3331e-21)
(0.99995 -0.000107242 -1.38176e-24)
(1.00037 -0.00018974 -1.81558e-23)
(1.00006 -1.09596e-05 1.54116e-24)
(0.997504 -0.000359852 4.02045e-22)
(0.994846 -0.00700398 6.38656e-22)
(0.999988 -1.53441e-06 1.60321e-25)
(0.999217 -0.000141771 1.18048e-23)
(0.982323 -0.0129804 7.64618e-22)
(0.968403 0.00564611 1.08524e-20)
(1.00838 -0.0185755 1.72061e-22)
(0.994059 -0.0093004 1.0866e-21)
(0.967126 0.0408211 4.92783e-21)
(1.00053 0.0272804 1.63801e-20)
(1.05432 -0.00036823 -1.9184e-21)
(1.16135 0.00928359 3.62447e-23)
(0.978333 -0.00130914 2.70283e-21)
(1.00375 -0.00324194 -1.81008e-22)
(1.00641 0.0329599 -9.16811e-22)
(0.991698 -0.00112593 -9.56971e-22)
(1.02754 0.0796217 4.27503e-22)
(1.00601 -0.0417539 4.27508e-23)
(1.02856 -0.100708 -1.93505e-21)
(1.06834 0.0696791 6.12349e-21)
(1.0292 0.0845591 -1.17416e-20)
(0.968793 -0.0188777 3.70603e-21)
(1.0332 0.00676236 -3.89338e-21)
(1.07603 0.113853 1.6109e-20)
(1.0389 0.0816877 1.70808e-20)
(1.01879 -0.00176018 2.1577e-21)
(0.997711 -0.000990862 9.58437e-23)
(0.996771 -0.0015554 8.74699e-23)
(0.999938 -1.34571e-05 -2.27847e-24)
(1.01318 -0.0231581 -3.39265e-23)
(0.991948 -0.000863763 2.29755e-22)
(1.00072 -0.00183745 -3.33893e-23)
(0.999926 -1.31654e-05 -4.19136e-24)
(0.998801 -0.000464427 4.02279e-23)
(0.978206 -0.0662811 -3.18992e-21)
(1.08964 0.0305171 2.30699e-21)
(0.986011 -0.0037742 -1.37453e-21)
(0.999163 -0.00988071 5.97859e-22)
(0.997233 -0.000375466 -2.18737e-22)
(1.05007 -0.0372192 -3.27669e-23)
(0.99469 -0.000803902 -7.39646e-22)
(1.00171 -0.00579278 7.53646e-23)
(1.08804 0.109204 2.57216e-21)
(0.998698 -0.000175744 -2.6426e-22)
(0.999984 -3.17941e-05 -2.3092e-24)
(0.999959 -0.000129442 -1.2681e-24)
(1.00003 -7.72166e-05 -7.38358e-25)
(0.9824 -0.00497739 6.48006e-22)
(1.02387 0.0179076 -8.63393e-21)
(0.997265 -0.000227826 8.72285e-24)
(1.01806 -0.00757458 1.79946e-21)
(1.01457 -0.117743 3.78814e-21)
(0.991575 0.0591259 -4.02244e-22)
(1.003 -0.00590848 9.90739e-23)
(1.0051 -0.00366456 -6.58704e-23)
(0.996063 -0.00173472 -3.10852e-22)
(0.992204 0.0392785 -2.4899e-20)
(0.99932 -5.03461e-05 3.47025e-23)
(1.02426 0.105663 -6.89539e-21)
(1.00753 0.0140408 -9.71589e-21)
(0.999919 -1.77488e-05 5.03214e-24)
(1.00423 -0.0424799 -1.62579e-21)
(0.99754 -0.000441534 -1.9653e-22)
(0.990797 -0.0518711 4.85012e-21)
(1.0004 -9.82616e-05 1.8419e-23)
(1.05024 0.00195759 2.71764e-21)
(1.00542 -0.0130602 3.76671e-25)
(1.00475 -0.00319831 2.10206e-23)
(0.9994 -8.3082e-05 -6.90836e-23)
(1.05731 0.0357089 4.64344e-21)
(1.03691 0.0309571 1.48622e-21)
(1.00586 -0.0569145 2.60346e-21)
(0.982835 -0.0155108 -1.47453e-22)
(0.998268 -0.002777 -1.4414e-22)
(0.999434 -0.0334176 -2.96418e-21)
(1.12233 0.0470366 -4.59526e-21)
(0.922318 0.0168953 -1.94468e-20)
(1.07202 -0.0677962 -1.94853e-21)
(1.00388 -0.00619906 -3.70226e-23)
(0.999995 -1.62252e-06 -9.64419e-26)
(0.989384 -0.00316095 -1.0763e-21)
(0.99841 -0.000187503 2.48735e-22)
(1.02038 -0.0144588 9.3685e-22)
(1.00107 -0.0934544 -1.61844e-21)
(1.16819 -0.00820867 6.21392e-22)
(0.984034 0.0544257 -3.14914e-20)
(1.04408 0.0298474 6.14376e-21)
(1.10249 -0.0958991 3.10482e-21)
(1.05756 0.0689981 2.6179e-21)
(0.998725 0.0261251 2.93606e-20)
(1.01553 -0.00221219 1.50275e-21)
(1.00086 -0.00176975 8.08835e-23)
(1.01753 0.0459546 5.53618e-21)
(0.999314 -0.00150715 9.95452e-23)
(0.999867 -0.000114375 6.26505e-24)
(0.989541 -0.000668454 3.40929e-22)
(1.00007 -2.47629e-05 4.4609e-25)
(1.10884 -0.114391 1.74213e-21)
(1.00281 -0.0144215 -2.37952e-22)
(0.986259 -0.0280698 2.36042e-21)
(1.00137 -0.00122799 5.0448e-23)
(1.05324 0.0603458 1.35359e-20)
(0.998743 -0.000164952 -2.0329e-23)
(0.999982 -2.51245e-05 -1.00689e-25)
(1.02213 -0.104857 2.11776e-21)
(1.00121 -0.00102658 -2.93127e-23)
(1.08895 -0.00474625 -6.01261e-22)
(0.962429 -0.00864907 6.50212e-22)
(0.948493 -0.00930434 2.63021e-22)
(1.17399 0.0486856 -2.31996e-22)
(1.01981 0.0140986 -3.24877e-21)
(1.01689 0.00394943 1.97565e-21)
(1.01588 0.00368345 -7.89237e-22)
(0.999858 -2.23173e-05 1.83722e-24)
(1.09664 0.0300022 1.81241e-21)
(1.06371 0.0125194 2.85103e-21)
(0.999614 -0.000462938 2.17372e-23)
(0.986585 -0.00426046 1.58722e-21)
(1.00044 -0.000153838 -2.0528e-23)
(1.00943 -0.0163052 -3.60439e-22)
(1.00682 -0.0233339 -1.60018e-22)
(1.0034 -0.00109314 2.13417e-24)
(0.999413 -0.000940524 -1.05512e-22)
(1.10233 0.0805526 -1.23733e-20)
(0.999985 -1.49476e-05 -2.70201e-24)
(1.00015 -7.77055e-05 -3.92231e-24)
(1.00151 -0.000801401 -2.35722e-24)
(0.985212 -0.00131996 1.0128e-21)
(1.01505 -0.0090244 1.18798e-21)
(0.985767 -0.0233179 -3.20809e-21)
(0.980147 -0.00244221 -5.9431e-22)
(1.01081 -0.0538855 1.51472e-21)
(1.03171 -0.127121 -4.0934e-21)
(1.02199 -0.0254289 9.17834e-23)
(1.02107 0.0467998 -3.1856e-20)
(1.18282 0.0118776 -1.15077e-21)
(0.9949 -0.00167636 -4.72932e-23)
(0.923273 0.0504066 3.34999e-20)
(0.977467 -0.0470428 5.05059e-21)
(0.994585 -0.00747061 2.05756e-22)
(0.981779 -0.00197297 9.9712e-22)
(0.997843 -0.0145637 -1.26659e-22)
(0.987705 -0.000981772 1.51361e-21)
(0.992099 -0.00256018 -3.06207e-22)
(1.02171 -0.0106536 -1.88964e-21)
(1.11147 -0.04988 -3.51476e-22)
(0.999981 -2.97724e-05 -2.76114e-25)
(1.01842 -0.0101044 -2.23867e-22)
(0.999932 -1.81377e-05 -2.53178e-24)
(1.00252 0.0698787 6.42079e-21)
(1.12313 0.0686172 8.58093e-21)
(0.99632 -0.00127546 9.96845e-23)
(0.991232 -0.000674281 -1.3077e-21)
(0.999867 -3.15946e-05 -1.25084e-23)
(0.996904 0.0368057 1.86594e-20)
(1.01862 0.0823877 1.54773e-20)
(1.0989 0.0223883 -2.53977e-21)
(1.10732 0.104608 -1.06207e-20)
(0.977273 -0.0502152 -2.21886e-21)
(0.998857 0.00771361 -2.69384e-20)
(0.999953 -9.34914e-05 3.95003e-24)
(1.03951 -0.0221474 1.96591e-21)
(0.99131 -0.000535961 -4.96557e-23)
(1.07551 0.0590924 -2.80889e-21)
(0.94733 0.0340805 -2.55698e-20)
(1.12591 0.0406564 5.45127e-21)
(1.03976 0.024503 1.04388e-21)
(0.999724 -0.0097917 -1.33076e-22)
(0.999857 -5.2778e-05 -1.21131e-23)
(1.10992 0.0908039 4.32747e-21)
(1.17555 -0.0300074 5.13156e-22)
(0.99447 0.0408323 -6.21512e-22)
(1.08244 -0.00587961 4.03183e-21)
(1.02419 0.0380447 9.28763e-21)
(0.994607 -0.00144266 -1.41044e-22)
(0.989353 0.0551611 8.66636e-21)
(1.02252 0.0785448 5.44436e-21)
(0.993033 -0.00212753 -8.54229e-22)
(0.994194 -0.00203784 -3.19493e-22)
(1.12037 0.0820989 1.82616e-22)
(0.949096 -0.00833244 -4.24331e-21)
(0.999937 -0.0001093 -5.8291e-24)
(0.98987 -0.00352212 1.40171e-21)
(0.946355 -0.0139195 3.27242e-21)
(0.987847 -0.0652679 -6.74702e-22)
(1.00734 -0.00207167 -1.1834e-21)
(1.00624 -0.00455366 6.89208e-23)
(0.999908 -0.000135482 -9.60994e-24)
(1.01984 0.0873296 -2.33993e-20)
(1.00005 -0.00877537 2.60037e-23)
(0.999927 -3.8861e-05 2.48531e-24)
(1.01774 -0.0502893 1.85782e-21)
(0.999633 -0.000294971 1.68511e-23)
(0.999842 -4.70959e-05 9.45242e-25)
(1.00395 -0.00956262 -3.80711e-23)
(1.04369 0.0593974 1.83633e-20)
(1.015 -0.0928001 2.91631e-21)
(0.960718 0.0368692 1.52093e-20)
(1.00005 -8.18981e-06 -9.47142e-25)
(1.04789 0.0629995 -1.91942e-20)
(1.01145 -0.0427533 1.39074e-21)
(0.999942 -0.000132411 -1.62529e-24)
(1.00002 -4.12488e-06 2.12649e-25)
(1.00275 0.00914595 -1.60249e-21)
(1.04046 0.0508981 6.77146e-21)
(0.996994 -0.00166738 9.01567e-23)
(1.03764 0.0392387 -8.56412e-21)
(1.00002 -1.37775e-05 -7.83577e-26)
(1.03764 0.0435937 -1.20248e-20)
(1.13297 -0.120201 4.11112e-21)
(0.992688 -0.00182563 9.22095e-22)
(0.999274 0.0136107 -3.75276e-20)
(0.978592 -0.0387878 3.29722e-21)
(1.11132 0.0992402 1.03905e-20)
(0.982209 -0.00186605 5.59562e-22)
(1.04116 0.0462667 1.56876e-20)
(1.04446 0.0539175 -4.89141e-21)
(0.987129 -0.0055734 2.38606e-21)
(0.982981 -0.00671897 -1.76282e-21)
(0.995893 -0.00752877 6.32682e-22)
(0.997936 -0.000420134 -6.65346e-23)
(0.999857 -0.000128569 1.66668e-23)
(0.999897 -0.00832816 -4.53539e-23)
(1.03126 0.0751356 -2.74044e-21)
(0.99998 -2.3078e-05 6.92545e-25)
(1.03383 0.0372814 1.13495e-20)
(1.0278 -0.0929467 4.60558e-21)
(1.00239 0.0434513 7.50119e-21)
(1.03388 0.0335871 -1.28033e-20)
(0.94543 -0.0123412 -4.55527e-22)
(0.963707 0.0505233 -3.25838e-20)
(0.998831 -0.00078929 4.77274e-24)
(1.01291 -0.0212606 1.42207e-22)
(1.04503 -0.066497 1.17985e-21)
(0.988107 -0.000837273 -9.92147e-23)
(0.995163 -0.00223489 4.28107e-22)
(1.00911 -0.0439399 -1.20123e-21)
(1.045 -0.0150019 -2.21782e-22)
(0.935017 0.0273747 3.96792e-20)
(1.00003 -1.39763e-05 4.59295e-25)
(0.998623 -0.00083554 8.00636e-23)
(1.01541 -0.0646572 6.78203e-23)
(1.00001 -3.35941e-06 -8.23687e-26)
(1.00239 0.0750694 3.17766e-21)
(1.00122 -0.000878383 0)
(1.00001 -4.19912e-06 -7.77417e-26)
(1.00013 -6.1934e-05 8.87233e-24)
(1.00029 -8.20842e-05 2.34272e-25)
(0.987866 -0.01543 2.07601e-21)
(1.01789 -0.0136702 -6.74274e-22)
(0.998896 -0.00059625 1.23753e-22)
(0.999944 -8.97063e-06 4.61887e-24)
(0.994851 -0.00205091 2.2905e-22)
(1.00336 -0.00998698 -7.49742e-26)
(0.99069 -0.0991732 -4.37385e-21)
(0.968968 -0.00226492 2.91749e-22)
(1.01445 -0.00802092 2.15118e-21)
(0.999984 -1.26815e-06 1.47827e-24)
(1.08853 -0.137252 5.54226e-21)
(0.990188 -0.00220852 -5.40485e-22)
(1.10855 0.0740942 -7.18054e-22)
(1.00021 0.0132447 -5.38925e-21)
(1.00086 -0.00267552 1.15584e-23)
(1.09792 0.0642301 -1.1317e-20)
(1.0001 -6.81942e-05 1.17252e-25)
(0.990606 -0.0026203 9.61585e-24)
(1.01846 0.000709475 -3.97082e-21)
(0.995158 -0.0025943 -1.75676e-22)
(1.04421 0.0709258 -1.06682e-21)
(0.99037 -0.00452363 -1.07995e-21)
(1.04069 -0.0201392 -1.78676e-21)
(1.01915 0.00152024 -4.28947e-21)
(1.04831 0.0318991 -2.69849e-21)
(1.00566 -0.0120081 -1.7346e-22)
(0.992485 -0.00283128 2.49942e-23)
(1.06368 0.060442 8.54604e-21)
(0.981445 -0.0717581 -3.72151e-21)
(0.993178 0.0725437 2.64512e-20)
(0.993324 -0.00333581 -1.03475e-21)
(1.0453 0.0924297 -1.17472e-22)
(0.993344 -0.00286118 2.77678e-22)
(0.999188 -0.000335145 -8.32939e-24)
(1.0393 0.0220556 2.87072e-21)
(1.0117 -0.0243247 1.18127e-22)
(1.02828 0.0023418 5.98411e-21)
(1.00124 -0.000642257 3.31484e-23)
(1.00001 -3.02927e-06 -3.6866e-26)
(1.00167 -0.114499 1.62457e-21)
(1.08674 0.103388 -1.42777e-20)
(1.00105 -0.00259506 -2.36967e-23)
(1.10588 0.06609 1.08996e-21)
(0.990922 -0.00420564 -7.07166e-22)
(1.08 -0.143354 -1.95875e-21)
(1.03821 -0.0340147 -1.17858e-22)
(0.985387 -0.0248846 1.83206e-21)
(0.998808 -0.000679723 -5.35521e-23)
(0.9947 -0.000414482 -1.79823e-22)
(0.976447 -0.0603248 -2.198e-21)
(0.977184 -0.00576217 2.40052e-21)
(0.992952 -0.00260623 7.06489e-22)
(0.99989 -0.000313039 1.11877e-23)
(0.986939 0.0762297 -3.27449e-21)
(1.09536 0.0569554 6.88528e-21)
(1.01927 -0.00832383 -6.96507e-22)
(0.999863 -9.80131e-05 1.0486e-23)
(1.02108 0.0737913 -1.03701e-20)
(1 -1.64497e-05 -5.69811e-25)
(0.999873 -8.68401e-05 2.01434e-23)
(1.08783 0.0555166 5.83812e-21)
(1.00819 -0.0201039 -6.02622e-23)
(1.09561 0.0934724 1.16968e-20)
(1.01829 -0.00252084 1.61398e-21)
(1.01322 -0.0100969 -1.24002e-22)
(1.08058 -0.0556912 1.0828e-21)
(1.04724 -0.116662 4.44271e-21)
(1.17398 0.0413893 -8.85915e-22)
(1.00089 -0.000634351 -6.87707e-23)
(0.963321 -0.0100445 -2.32671e-22)
(0.999987 -3.94227e-05 -7.45707e-25)
(1.0037 -0.00877967 2.96856e-23)
(1.04777 0.0681839 6.9724e-21)
(0.987844 -0.00521018 1.65232e-21)
(0.998008 -0.000980564 1.11002e-22)
(1.01182 -0.0338101 -9.06582e-22)
(0.998608 -0.000725032 5.84762e-24)
(0.999701 -0.00078082 3.32068e-23)
(0.96701 0.00334514 6.76499e-21)
(0.992907 -0.00360123 -5.88787e-22)
(0.999617 -0.000508797 -7.44874e-23)
(0.999992 -3.73033e-07 -3.04614e-25)
(1.01358 0.00481783 8.60154e-21)
(0.977699 -0.0201489 -4.09576e-22)
(0.999766 -0.000386706 2.34986e-23)
(0.998041 -0.000512592 1.35862e-22)
(1.01829 0.0158551 3.53931e-21)
(1.05446 0.00870314 6.51259e-22)
(0.968827 -0.016899 -2.31527e-21)
(1 -1.02865e-05 -7.28686e-25)
(1.00141 0.0116773 2.31601e-20)
(0.989072 -0.0133221 -1.40273e-21)
(1.0535 0.0549387 -1.35165e-20)
(1.0096 -0.0010942 -1.88316e-21)
(1.01107 -0.000977819 4.36779e-21)
(0.975491 -0.00757618 3.32931e-21)
(0.999935 -4.23597e-05 -1.67646e-24)
(1.01841 7.93306e-05 -7.91531e-22)
(1.05851 0.00655014 -8.99926e-22)
(1.15296 0.046196 3.71661e-21)
(1.0336 -0.0883636 9.96701e-22)
(1.02905 0.0705225 8.23979e-21)
(1.00433 -0.00127095 -2.84355e-23)
(1.06922 0.063944 -1.17611e-20)
(0.9998 -0.0114723 -2.09165e-22)
(1.01434 -0.0481919 -3.2347e-21)
(0.999733 -0.000104022 -1.84759e-23)
(1.00226 -0.0153318 4.74054e-22)
(0.999921 -0.000302675 6.96967e-24)
(1.03599 0.026589 -8.47752e-21)
(1.06036 0.101213 -2.55044e-20)
(0.99894 -0.000823842 4.23077e-23)
(1.01417 -0.0101414 5.82234e-24)
(0.987105 -0.00266694 5.54983e-22)
(1.03719 -0.0766508 4.35645e-22)
(1.03217 -0.081521 -2.30731e-21)
(0.998688 -0.000554888 8.0324e-23)
(1.03653 -0.0225257 -6.26997e-22)
(0.985464 0.00133911 -1.12261e-20)
(1.14926 0.0294319 2.38385e-21)
(0.99996 -0.000114097 9.65872e-24)
(1.05056 0.00631421 -2.32722e-21)
(0.997669 -0.0068919 -3.36214e-22)
(0.997984 0.00169455 2.48067e-20)
(0.990968 -0.00358649 9.64302e-22)
(0.996345 -0.0214377 -4.4653e-22)
(1.01393 -0.0298127 -2.73757e-23)
(0.995131 -0.0221814 -4.27129e-23)
(0.998533 -0.0170314 -1.08856e-21)
(0.994499 -0.00223568 1.56658e-22)
(0.999125 -0.0113335 6.14228e-22)
(1.00135 -0.00487686 -1.95205e-23)
(1.04628 -0.0181808 5.25415e-22)
(1.00007 -2.00875e-05 -3.88184e-24)
(1.17081 -0.0874143 -1.41398e-21)
(1.13509 -0.00663848 1.92975e-22)
(1.01027 0.0839672 1.89681e-20)
(0.970505 -0.0159686 3.44846e-21)
(1.08817 0.0892157 -5.93726e-21)
(1.00137 -0.00051082 1.20999e-22)
(1.05908 -0.0654448 -3.09197e-23)
(1.00321 -0.0317583 -1.16184e-21)
(1.01569 0.027577 1.02059e-20)
(0.994842 -0.00281284 4.20509e-22)
(1.00007 -0.000129878 1.85254e-24)
(0.989578 -0.0139462 1.84153e-21)
(0.996577 -0.00732914 -2.40809e-22)
(1.03405 -0.020555 1.5007e-21)
(0.978991 -0.00408694 -1.97325e-21)
(0.982141 -0.00609002 5.92859e-22)
(1.10784 -0.0304692 1.65993e-22)
(0.989554 -0.00153973 -8.81018e-22)
(1.01179 -0.0312287 6.44357e-22)
(0.989166 -0.0694437 2.72156e-21)
(1.00001 -5.44525e-06 -8.36285e-26)
(1.04725 -0.0116704 3.1515e-21)
(0.990952 -0.0619609 -7.31457e-21)
(1.09392 0.0773056 5.49438e-21)
(1.08086 -0.0621349 -2.09368e-21)
(1.02709 0.00191839 4.93298e-22)
(1.02128 -0.0896069 -5.98279e-21)
(1.02686 0.0939971 5.19376e-21)
(1.02832 -0.0297853 1.52524e-22)
(0.974597 -0.00671136 -1.96297e-21)
(1.01158 -0.0396507 -1.67897e-21)
(0.988104 0.00210463 1.08725e-20)
(1.13577 -0.0898859 9.24063e-22)
(0.990483 -0.00324356 -2.98134e-22)
(1.02235 -0.113393 -4.55452e-22)
(1.02161 -0.0571204 2.17607e-21)
(1.03623 -0.10423 -8.03252e-22)
(1.03516 -0.0705793 -2.41272e-21)
(1.06351 0.0547429 1.06869e-20)
(0.998016 -0.00114595 6.79386e-24)
(1.00586 0.0319264 3.78136e-21)
(1.00572 -0.00118451 2.04257e-22)
(0.999721 -0.000389505 -3.18119e-23)
(0.999096 -0.0017324 2.65366e-22)
(1.04685 0.000914038 -8.13062e-22)
(0.985684 0.000213921 3.13167e-22)
(1.00107 -0.00519879 -1.72973e-23)
(1.01445 -0.0446701 4.5708e-22)
(1.01829 0.0179853 -5.90055e-21)
(1.00002 -5.41156e-06 -2.58605e-27)
(0.983893 -0.00630713 1.39389e-21)
(1.0171 -0.00773228 1.57052e-21)
(1.06222 -0.0347731 2.6899e-22)
(1.00578 -0.000703845 1.15724e-21)
(0.998832 -0.00149074 4.46419e-23)
(0.985992 -0.0322469 3.74575e-23)
(0.998193 -0.00665045 -1.20993e-22)
(1.00002 -3.86239e-06 2.4344e-26)
(0.980531 -0.0380612 -5.58077e-21)
(1.03705 0.0659885 -2.87536e-21)
(1.0155 -0.026071 2.40771e-22)
(0.987537 -0.00320955 -9.99865e-22)
(1.00126 -0.000300399 -4.32166e-23)
(1.02063 0.0197916 7.77722e-21)
(0.999721 -0.000464292 -1.47024e-23)
(0.999125 -0.000449963 -5.3215e-24)
(0.999756 -0.000116474 -1.7816e-23)
(0.999424 -0.00162578 -7.63122e-23)
(1.14112 0.0471309 3.2767e-21)
(1.02282 -0.0300321 -4.84846e-22)
(1.00597 -0.0151362 -4.16325e-23)
(0.986449 -0.00511464 -4.8683e-22)
(1.00003 -3.74168e-05 9.97564e-26)
(1.0647 -0.111458 5.88199e-21)
(1.1776 -0.0155408 1.12319e-22)
(1.07012 -0.120637 -2.8119e-21)
(0.99698 -0.0276148 -8.47282e-22)
(1.01028 -0.00741714 1.33724e-21)
(0.999857 -6.60199e-05 7.81199e-24)
(0.991139 -0.00886704 -6.8217e-22)
(0.964106 -0.0376597 -3.08943e-21)
(1.13942 0.0313435 3.72799e-22)
(1.00133 0.0422206 -2.56817e-22)
(0.999105 -0.00247187 6.36745e-23)
(0.953415 -0.0238573 1.58872e-21)
(0.996557 -0.00199344 -3.92745e-22)
(1.02661 -0.0274893 1.07461e-22)
(1.07417 0.0526098 1.16016e-21)
(1.0003 -0.000103032 -2.61869e-23)
(0.99989 -0.000152787 -4.13566e-24)
(1.11835 0.0878845 1.19375e-21)
(1.1347 0.0145711 -2.36285e-22)
(1.01409 -0.012631 4.72184e-22)
(0.997878 -0.00125425 1.98098e-22)
(0.998557 -0.000262416 -1.71976e-23)
(0.97011 -0.0389103 7.66209e-22)
(0.999875 -0.000259824 -1.45457e-23)
(1.01365 -0.0274784 -4.56378e-22)
(0.992376 -0.000511035 1.77088e-21)
(1.00047 0.0153457 -4.4663e-21)
(1.04 0.070512 -1.48507e-21)
(1.05458 -0.0603115 9.73397e-22)
(0.994521 -0.0625305 2.69117e-21)
(1.00461 -0.00123095 5.62818e-22)
(1.01109 -0.02035 -8.69559e-23)
(1.12714 -0.000217645 1.63053e-21)
(0.993816 -0.0700258 -1.66881e-21)
(1.01418 -0.0381789 9.67427e-22)
(0.999999 -4.96426e-06 1.6474e-25)
(1.11522 -0.0135018 5.02985e-22)
(0.985783 -0.00093744 1.72456e-22)
(0.992667 -0.0782879 3.36584e-21)
(1.01508 -0.0239737 1.3736e-23)
(0.965138 -0.00957134 -4.40546e-22)
(0.999722 -0.000215768 -9.74157e-24)
(0.997861 -0.000904673 -8.61996e-23)
(1.03061 0.0317594 9.88982e-21)
(0.976821 -0.00707541 -7.2418e-22)
(0.99999 -1.06404e-06 4.30993e-25)