/*--------------------------------*- C++ -*----------------------------------*\
  =========                 |
  \\      /  F ield         | OpenFOAM: The Open Source CFD Toolbox
   \\    /   O peration     | Website:  https://openfoam.org
    \\  /    A nd           | Version:  7
     \\/     M anipulation  |
\*---------------------------------------------------------------------------*/
FoamFile
{
    version     2.0;
    format      ascii;
    class       volVectorField;
    location    "40";
    object      U;
}
// * * * * * * * * * * * * * * * * * * * * * * * * * * * * * * * * * * * * * //

dimensions      [0 1 -1 0 0 0 0];

internalField   nonuniform List<vector> 
30084
(
(1.01302 -0.0153526 3.18892e-23)
(1.00847 0.00441731 1.41108e-22)
(0.988697 -0.0042331 -1.97542e-22)
(0.966409 -0.0693948 6.86415e-23)
(0.997066 -6.3333e-05 2.80196e-23)
(0.944391 -0.0441268 -9.97834e-23)
(1.08794 -0.0752753 1.49984e-22)
(1.01776 -0.0228808 -3.27433e-24)
(1.00239 -0.00229688 4.49024e-24)
(1.00022 -5.87012e-05 1.17359e-24)
(1.02098 -0.0305739 -3.01799e-25)
(0.998328 -0.0201741 -7.13361e-23)
(0.999427 -0.000233513 3.83209e-24)
(0.999964 -1.29638e-05 1.06792e-25)
(1.11834 0.109485 4.1901e-22)
(0.992653 -0.00241593 3.03807e-23)
(0.999814 -0.0010199 -1.74352e-24)
(1.13322 0.0296753 -3.21088e-23)
(0.997451 -0.0021745 -9.52026e-24)
(0.986545 -0.00102573 -4.42723e-23)
(0.99897 -0.000330774 -1.30341e-23)
(1.00226 -0.00229341 1.57445e-23)
(0.98859 -0.00447832 2.18368e-22)
(0.997428 -0.000207758 1.22793e-23)
(0.899876 0.104357 6.074e-23)
(1.00942 0.00352989 7.58307e-22)
(0.999382 -7.03989e-05 8.73371e-24)
(0.949644 0.0887212 -4.07175e-21)
(1.12198 0.110705 -1.11346e-21)
(0.999299 -0.010924 -1.32536e-23)
(1.01801 -0.0119461 2.23923e-23)
(1.04038 -0.00413078 -1.70384e-22)
(1.00345 -0.161607 7.84499e-22)
(0.999381 -0.0279651 3.69703e-23)
(0.947903 0.0846693 3.26831e-21)
(1.00766 -0.0390401 1.09674e-22)
(1.06133 0.0537701 -2.45613e-22)
(0.965727 -0.0383296 2.66194e-22)
(1.00622 -0.000952316 -6.11673e-23)
(1.006 -0.000687666 1.16503e-22)
(1.00051 -0.000193596 -3.6546e-24)
(0.988712 -0.0389421 -2.63209e-22)
(0.999836 -0.000991365 -2.36472e-26)
(1.04715 -0.0803765 -4.77551e-22)
(1.00004 -6.73246e-06 -2.30349e-25)
(0.999555 -0.0110657 9.77431e-24)
(0.997512 -0.01498 -2.08419e-23)
(1.00009 -0.000100907 5.90897e-25)
(1.00398 -0.00426638 -6.37314e-23)
(1.06173 0.0512238 -1.00856e-22)
(1.15684 -0.0554465 9.84009e-23)
(0.969881 -0.0602234 -3.18564e-22)
(1.04007 -0.00325737 5.98122e-23)
(0.946341 -0.0435558 -1.62189e-22)
(0.992839 -0.00247582 -2.66659e-23)
(1.12737 0.104444 -6.8495e-22)
(0.99596 -0.00273844 9.55994e-24)
(0.998942 -0.000364432 1.65132e-23)
(1.0015 -0.0261065 -5.20442e-23)
(1.02302 -0.069203 -2.05519e-22)
(0.999922 -8.3695e-06 2.50202e-25)
(0.997542 -0.00222756 -1.95889e-24)
(1.20026 0.0910451 1.28212e-22)
(1.00795 -0.038036 -6.10592e-23)
(1.04876 0.106294 1.97187e-21)
(0.923305 0.029329 8.1303e-21)
(1.00117 -0.0331666 -1.01571e-22)
(0.991711 -0.0172045 9.13992e-23)
(0.944022 0.0187966 3.27068e-21)
(1.00054 -0.000182611 2.36492e-24)
(1.01108 0.00427357 -1.03372e-21)
(0.988756 0.0759512 2.275e-21)
(1.00409 -0.010594 -2.42598e-23)
(0.91834 0.120318 2.23578e-21)
(0.990199 -0.000788215 1.40418e-22)
(1.13469 -0.0166723 1.33246e-23)
(1.14587 0.154903 1.4588e-21)
(0.966 -0.0216272 6.29398e-23)
(0.999941 -2.65865e-05 -7.09248e-25)
(1.0115 -0.0584328 -1.95768e-22)
(0.944664 -0.00101681 -1.06411e-22)
(1.01914 0.0425542 6.00168e-22)
(1.01331 -0.0160085 -9.59947e-23)
(1 -7.47013e-05 6.08159e-26)
(1.08987 -0.0718875 -2.30518e-22)
(1.27736 -0.037114 -7.19943e-22)
(1.0286 0.0927729 -3.68365e-21)
(0.999405 -0.000230121 -3.47488e-24)
(0.999445 -0.000208145 -1.01897e-24)
(0.914311 -0.059862 -4.28789e-22)
(0.999723 -0.0668702 3.69082e-22)
(0.965925 -0.0226591 7.14959e-23)
(1.00374 -0.00441446 1.08299e-23)
(1.06361 -0.00242141 -1.01541e-22)
(0.902899 -0.0258524 -3.61309e-22)
(1.03484 0.109708 1.84579e-21)
(1.00718 -0.0867601 6.12183e-22)
(1.00056 -0.000458466 5.8574e-24)
(0.970724 -0.0873425 -6.53262e-22)
(1.10901 0.124676 1.90402e-21)
(0.999938 -2.60563e-05 1.03695e-24)
(0.967389 -0.0140103 -3.79795e-22)
(0.999924 -1.02581e-05 -1.295e-25)
(1.05306 -0.0150305 -4.96486e-22)
(0.96795 -0.0602719 2.08915e-22)
(1.03612 0.0163174 1.07099e-21)
(1.0023 0.0729467 3.46513e-21)
(0.999468 -0.000210589 -8.60461e-24)
(0.999994 -8.28604e-05 -1.49164e-26)
(1.02406 -0.147202 -3.85677e-23)
(0.999531 -0.160768 -7.07415e-22)
(1.05506 -0.0392401 3.25375e-23)
(1.00002 -2.71785e-06 3.97526e-26)
(0.998766 -0.00739443 -3.52065e-23)
(0.999881 -0.00261884 1.2769e-24)
(0.990989 0.0779752 1.22392e-23)
(1.03684 0.06099 -1.29827e-21)
(0.985738 -0.0091942 -1.50885e-22)
(1.00003 -8.13938e-05 5.38076e-26)
(1.00446 -0.0104762 -1.8722e-23)
(1.25006 0.0642857 7.73524e-22)
(1.00514 0.0123617 1.65924e-21)
(1.19044 -0.00137436 -3.40116e-22)
(0.92149 0.0358357 -7.70838e-21)
(1.0013 -0.000423991 -1.4868e-23)
(1.17158 0.0123613 -1.31361e-23)
(1.13023 0.0321866 -1.80153e-22)
(1.02784 -0.0651849 1.55935e-22)
(1.00474 -0.00402727 -5.70639e-23)
(1.00003 -0.00052334 6.65618e-26)
(1.0459 -0.0779935 1.68144e-22)
(1.14884 0.152481 8.21281e-22)
(0.99995 0.130449 4.26468e-21)
(1.20429 -0.0130054 -1.43473e-22)
(1.05137 -0.0150597 4.18647e-22)
(1.01749 -0.0115595 4.2941e-22)
(1.05196 0.164266 3.04946e-22)
(0.965589 -0.00104487 5.52994e-22)
(1.22445 -0.166232 2.51671e-21)
(1.11111 0.121216 -1.44289e-21)
(1.16824 0.01561 3.52482e-23)
(0.921467 -0.0074073 -4.51514e-22)
(0.939692 -0.0623821 1.38902e-22)
(1.00002 -2.49275e-06 -1.73411e-26)
(0.999987 -4.78283e-06 5.62217e-26)
(0.996989 -0.000105297 -2.21229e-23)
(0.997721 -0.0146589 4.23677e-23)
(0.996497 -0.120159 -5.13337e-22)
(1.20388 -0.115172 1.01537e-21)
(1.18972 0.129672 7.59646e-22)
(1.03597 -0.0183777 2.20289e-22)
(1.02204 -0.0213748 7.01184e-23)
(1.00052 -0.000743993 9.03166e-24)
(0.999844 -0.000264487 9.96527e-25)
(1.00126 0.0188221 -3.5952e-21)
(1.00064 -0.0018175 1.04216e-24)
(0.99229 -0.0139586 4.24216e-28)
(1.06214 0.166456 -9.00206e-22)
(1.00354 0.0395357 -3.83645e-21)
(1.15822 -0.0501778 -1.83921e-22)
(0.947418 -0.00384725 1.8348e-22)
(0.967559 -0.0677301 4.93191e-22)
(1.12624 0.108315 1.80371e-22)
(0.999941 -5.47866e-05 2.25283e-25)
(0.999986 -4.62198e-06 -2.08947e-26)
(0.985684 -0.00966284 5.33483e-23)
(0.941275 -0.0609067 -7.33346e-22)
(1.00006 -0.000268268 -5.79492e-25)
(1 -7.92647e-05 2.02638e-26)
(0.991907 -0.00630405 -1.79734e-23)
(1.00004 -0.000507925 -5.13489e-26)
(1.00684 -0.00686855 -3.16949e-23)
(1.05897 0.168818 1.06213e-21)
(0.966113 -0.000554695 -4.55348e-22)
(1.0843 -0.126412 -2.35849e-22)
(0.99393 -0.000120508 9.02086e-23)
(1.00251 -0.00317243 3.34426e-24)
(0.966455 -0.0138074 6.41901e-22)
(0.999122 -0.0073658 -3.22184e-24)
(1.18909 0.0100187 1.16577e-22)
(0.999975 -1.21807e-05 3.49297e-25)
(1.01989 -0.0443405 -8.31886e-23)
(1.03039 0.0946763 1.31796e-21)
(0.992016 -0.0159685 -5.14128e-24)
(1.21699 -0.16672 -2.33191e-21)
(1.02872 0.0522942 -1.14105e-21)
(0.992442 -0.00346546 -1.31069e-22)
(0.978187 -0.019784 1.65446e-22)
(1.00448 -0.00405406 8.69579e-23)
(0.999362 -0.0101746 -2.09682e-23)
(0.999672 -8.72372e-06 9.9452e-25)
(1.00814 -0.0207896 1.12976e-23)
(0.917158 0.0179211 3.21984e-21)
(1.00075 0.0152282 2.76621e-21)
(0.982544 -0.00785558 4.09274e-24)
(0.992644 -0.0137327 -5.77629e-23)
(0.983342 0.0381645 -3.05434e-21)
(1.01177 0.0331088 5.15088e-22)
(0.905133 -0.0254967 4.35164e-22)
(1.00136 -0.000565641 -1.16333e-23)
(1.11205 -0.0919349 3.2161e-22)
(0.975143 -0.117049 6.89085e-22)
(0.998692 -0.020551 3.37462e-23)
(1.00099 -0.00124817 -1.86989e-23)
(1.05396 0.167466 4.43339e-22)
(0.99217 -0.00631093 -1.1872e-23)
(1.0079 -0.00611533 -3.57278e-23)
(0.993765 -0.120065 6.82376e-22)
(1.02553 -0.151162 9.77082e-23)
(0.999957 -6.14024e-06 8.53444e-26)
(0.977834 0.106275 -3.76417e-21)
(0.998781 -2.75489e-05 -2.17537e-25)
(1 -6.36987e-05 1.80277e-26)
(0.999359 -0.000245464 1.48424e-24)
(1.00357 -0.0665136 -1.35512e-22)
(1.18553 0.0992541 -5.66336e-22)
(1.02089 -0.0432309 8.57152e-24)
(1.00765 -0.00571729 -2.44795e-23)
(0.997456 -0.000285471 3.0502e-23)
(0.907166 -0.0283693 -8.73229e-23)
(1.00004 -0.000556226 -1.54223e-25)
(1.00057 -0.00185335 9.63527e-26)
(0.997259 -0.000242565 -2.01797e-23)
(1.02842 0.00193332 9.88631e-22)
(0.996927 -0.00471638 -6.51793e-24)
(0.998777 -0.00686757 1.04385e-23)
(1.0293 -0.000999714 4.87104e-22)
(1.00015 -0.000453755 9.02622e-25)
(1.00004 -5.85264e-06 6.0766e-26)
(1.00574 -0.000690483 1.23039e-23)
(0.971704 -0.0432212 -2.51172e-22)
(0.970005 -0.000525339 -2.20319e-22)
(0.994303 -0.000457299 -9.59467e-23)
(1.01214 0.00337706 8.55269e-22)
(0.980795 -0.00144574 1.04988e-22)
(1.02217 -0.0205955 -6.8685e-23)
(0.999963 -1.44357e-05 2.99558e-25)
(0.996537 -0.00311805 -3.65548e-23)
(1.00093 -0.00123937 2.02068e-23)
(1.10953 -0.0879654 3.17204e-22)
(1.13314 -0.212349 1.82094e-21)
(0.998373 -0.000147342 1.59508e-23)
(1.00055 -0.00066152 -6.94133e-24)
(0.998655 -0.00670861 -3.54906e-24)
(1.00428 -0.00935443 -4.65085e-23)
(0.986819 -0.000755908 -1.87259e-22)
(0.999944 -5.22469e-05 -1.42688e-26)
(1.27136 -0.0374314 -1.47801e-21)
(1.00005 -0.000568618 1.7686e-25)
(1.02799 0.00176887 -6.96068e-22)
(0.996089 -0.00273961 -1.9207e-23)
(1.00017 -0.000440255 3.81731e-25)
(1.03499 0.0165576 -6.80771e-22)
(0.966831 -0.113328 -7.06575e-22)
(1.0003 -4.9846e-05 3.84921e-24)
(1 -1.52269e-05 1.20345e-26)
(0.921211 -0.00530258 -5.13026e-22)
(1.10518 -0.204665 -2.67032e-22)
(0.989818 -0.010122 -1.41748e-23)
(1.02711 -0.0670051 -4.09392e-23)
(1.03702 -0.0189584 -3.61047e-23)
(1.03539 0.0927132 1.61387e-22)
(1.00009 -9.5263e-05 1.63304e-25)
(0.972238 -0.0422094 2.35234e-22)
(1.22786 0.0338799 3.86277e-22)
(0.966089 0.0581318 7.49143e-23)
(0.991884 -0.0156246 4.2142e-23)
(1.02779 0.050704 1.38579e-21)
(1.13328 -0.0131396 1.73596e-23)
(0.999884 -0.0028813 -1.71314e-24)
(0.837937 0.0503964 4.78776e-21)
(0.999362 -0.000516801 -9.9716e-24)
(1.08506 -0.131034 -3.10817e-22)
(0.908868 -0.0282652 5.43312e-22)
(1.00266 -0.00299534 -1.8405e-23)
(1.1834 0.0584504 2.93022e-22)
(0.989687 -0.00114453 -1.11761e-22)
(1.00169 0.13987 2.95073e-21)
(0.995879 -0.000315365 8.93099e-24)
(0.978949 -0.0213018 -8.67666e-24)
(0.999776 -0.00261872 -8.74042e-24)
(1.09096 0.143666 4.36872e-22)
(1.00099 -0.0206524 8.80435e-24)
(1.03209 0.110037 1.1327e-22)
(0.999399 -5.45342e-05 -3.82359e-24)
(0.993029 -0.00228925 -4.21697e-23)
(0.962605 0.127539 -1.9118e-21)
(1.03395 0.00210147 -8.23234e-22)
(1.02908 -0.000712169 5.6581e-22)
(0.966484 -0.055864 5.87837e-22)
(0.999821 -3.85762e-05 1.00346e-24)
(1.00416 -0.009043 -5.22132e-24)
(0.999809 -0.00111341 -3.13376e-24)
(1 -6.03508e-05 1.49499e-26)
(1.05926 0.0129581 2.32549e-22)
(1.00005 -6.3057e-06 5.36956e-27)
(0.975753 -0.0190336 3.9351e-22)
(1.22694 0.0290146 -3.64047e-22)
(0.897726 0.108995 -4.7059e-21)
(1.00264 0.130922 -6.56524e-21)
(0.968971 -0.0966189 2.13803e-22)
(0.985179 -0.0382298 1.47158e-22)
(0.971527 -0.00202241 1.04535e-22)
(1.0446 -0.0380537 1.1182e-22)
(1.00877 -0.0204535 -2.35429e-23)
(0.97809 -0.0207417 -2.28508e-22)
(0.971813 -0.10607 9.5503e-23)
(1.03364 0.0946684 -2.48623e-21)
(0.999536 0.0128328 4.95531e-21)
(0.998481 -0.000179833 8.79049e-24)
(1.00345 0.0741689 -4.77859e-21)
(1.05867 0.0112662 7.99251e-23)
(1.1928 0.00427993 9.88161e-23)
(1.01667 -0.017504 3.31611e-23)
(1.00213 -0.0188897 -4.49643e-23)
(1.03543 -0.0587819 -1.06251e-22)
(0.993539 -0.00220925 -9.93415e-23)
(0.996823 -0.000789687 -6.4204e-24)
(0.999929 -8.05272e-06 1.31965e-24)
(0.999182 -0.010437 3.09529e-23)
(1.11422 -0.0241827 2.64098e-23)
(1.0908 0.147354 -7.26556e-22)
(1.00192 -0.00163599 8.62006e-24)
(0.966982 -0.0357714 -3.1384e-22)
(1.01892 -0.0176314 -1.04801e-22)
(0.999954 -1.97634e-05 -1.14512e-25)
(0.970278 -0.101147 -3.41184e-22)
(0.874009 0.0856267 -2.12853e-21)
(0.992578 -0.00592126 1.47737e-22)
(0.998768 -0.00548721 9.70275e-24)
(1.01733 -0.0172066 -2.06362e-23)
(1.0108 -0.0567142 2.46628e-22)
(1.08287 0.0460701 2.99585e-22)
(0.999705 -0.0118202 -4.79489e-24)
(0.999962 -6.3485e-05 7.33436e-25)
(1.00002 -3.82546e-06 1.92311e-26)
(0.996779 -0.00071954 -7.15759e-24)
(0.960824 0.126639 2.76648e-21)
(1.06037 -0.0248145 1.01819e-22)
(1.13914 -0.206868 -4.64451e-22)
(1 -1.52403e-05 8.16883e-28)
(1.10346 -0.211535 1.76036e-22)
(1.08605 0.0119607 -3.38237e-22)
(0.993779 -0.000201838 -4.52089e-23)
(0.9121 -0.0102315 -6.38442e-22)
(0.998866 -0.00538774 -9.75451e-24)
(0.999481 -0.000235992 -6.28986e-25)
(0.972761 -0.0380301 -6.91513e-23)
(1.0011 -0.0013692 -9.02682e-24)
(1.19098 0.0152012 -8.22585e-23)
(1.01074 -0.00119465 -2.57625e-22)
(1.15098 0.132311 -6.88658e-22)
(0.999928 -0.00284272 2.21596e-24)
(1.00581 -0.016457 8.05155e-24)
(1.00498 0.0109444 -2.24961e-21)
(1.246 0.0616334 -2.72412e-22)
(1.00051 -0.000700515 -5.30704e-24)
(1.00053 -0.000620548 5.19266e-25)
(0.992294 0.0914986 2.34765e-22)
(1.00148 -0.0678619 -7.2839e-23)
(0.999484 -0.0116541 5.85261e-24)
(1.01052 0.0361516 2.70707e-22)
(0.976465 0.0195744 5.98113e-21)
(1.15982 -0.0594904 -3.3455e-22)
(1.00104 -0.0319881 -3.01833e-23)
(1.18157 0.098217 5.62321e-22)
(0.999082 -8.88763e-05 -6.57182e-24)
(0.989376 -0.00529017 3.91448e-23)
(0.995966 -0.000331683 -2.47536e-23)
(1.01341 0.0319117 2.2969e-24)
(0.999987 -0.000914707 1.90186e-25)
(1.01039 -0.00146626 2.63252e-22)
(1.22159 -0.0877874 3.18852e-23)
(0.998272 0.123783 6.62119e-21)
(0.92132 0.123987 -1.03384e-21)
(0.992677 -0.00345495 5.37912e-24)
(0.989493 -0.00989184 4.24994e-23)
(1.04617 0.108484 -1.57764e-21)
(1.0241 -0.0713933 2.96868e-22)
(0.999931 -9.66651e-06 -1.28743e-24)
(1.17187 0.141635 1.41414e-21)
(1.02747 0.00241755 -2.96216e-22)
(1.02691 0.0022999 -2.00432e-22)
(0.993525 -0.0168905 -6.26355e-23)
(1.02127 -0.0020213 -4.03941e-22)
(0.953253 0.113905 9.40161e-22)
(1.20363 -0.129264 -3.1702e-22)
(0.979615 0.113542 1.00956e-21)
(0.992012 0.113044 -1.72304e-21)
(0.999996 -7.94411e-05 4.76755e-26)
(1.11063 -0.0242733 -4.57683e-23)
(1.2011 -0.123244 2.07688e-22)
(0.996781 -0.00476234 1.70321e-23)
(1.00197 -0.00175323 -1.42352e-23)
(0.971676 0.0232636 1.43326e-21)
(1.06248 -0.0252547 -1.31523e-22)
(1.00034 -9.17309e-05 8.79702e-25)
(0.984743 -0.0818086 -7.50823e-22)
(0.974669 -0.120518 -3.22464e-22)
(0.993184 -0.00235073 5.92552e-23)
(0.999855 -0.000256808 -1.24867e-24)
(1.03922 0.127636 -2.69441e-22)
(1.0368 0.0589938 2.18436e-21)
(1.00006 -0.000623244 -4.07765e-26)
(1.00492 -0.00434405 1.1204e-23)
(1.00631 -0.00432492 6.0657e-23)
(1.2355 -0.026153 9.80465e-22)
(0.96639 -0.0543327 -5.19391e-22)
(1.00008 -0.000739839 -3.95773e-25)
(0.999983 -3.14725e-06 -3.16066e-26)
(1.0006 -0.000200806 1.39191e-24)
(1.08105 0.0467217 -2.89674e-23)
(0.965598 -0.0369769 -2.54223e-22)
(1.00186 0.0381795 1.10079e-21)
(0.930102 -0.0701241 3.46522e-22)
(0.986216 -0.0379483 -1.51544e-22)
(0.96909 -0.00157987 -4.35913e-22)
(1.01213 0.0354261 -1.33213e-21)
(1.19613 0.0874453 1.50682e-23)
(0.998528 -0.000191242 1.60924e-23)
(1.00949 -0.00692668 -6.48201e-23)
(1.00103 -0.00135538 1.02351e-23)
(0.978244 0.123744 -2.61152e-21)
(0.968155 -0.0332802 1.34409e-22)
(1.00132 -0.000344698 -4.8731e-24)
(0.990674 -0.00469523 -5.31466e-23)
(1.1696 0.0223307 1.31018e-22)
(0.999875 -0.0126966 -1.31129e-23)
(0.985924 -0.0165479 -2.98124e-23)
(1.00029 -0.000174707 -2.67465e-24)
(1.00029 -6.69879e-05 -1.18413e-25)
(0.870611 0.0915485 3.33978e-21)
(0.98977 -0.00170545 -6.97135e-23)
(0.994149 -0.0060636 6.07477e-23)
(0.999555 -0.00232487 -7.7532e-24)
(0.999105 -6.79976e-05 -9.02758e-25)
(1.04138 0.0914767 -8.38392e-22)
(1.22726 -0.0844726 6.57143e-23)
(0.985738 -0.0579184 9.38541e-23)
(1.00002 -2.86427e-06 -2.02654e-26)
(1 -4.85692e-05 1.36836e-26)
(0.966848 -0.0345943 3.5635e-22)
(0.991583 -0.00249067 1.4104e-23)
(0.993598 -0.00281997 -8.08828e-24)
(1.01711 -0.00601823 1.25118e-22)
(1.00703 -0.00292801 2.17535e-23)
(1.00138 -0.0211137 -1.58508e-23)
(1.13737 0.0147451 3.12032e-22)
(0.976216 -0.00603788 -8.8709e-23)
(0.981374 0.1116 -8.20708e-22)
(1.01991 -0.0307876 -2.42987e-23)
(1.00031 -0.000175333 2.97433e-24)
(0.967377 -0.0950532 3.16916e-23)
(0.982415 -0.0515194 -3.19128e-22)
(1.17358 0.0573868 2.19313e-22)
(0.996575 -0.00786122 -1.82243e-23)
(0.992506 -0.0674022 -1.13763e-22)
(0.999974 -7.27533e-06 1.92832e-25)
(0.933372 0.0913399 -3.25848e-21)
(1.01801 -0.00249684 2.27357e-22)
(1.0001 -0.000298866 -9.20331e-25)
(0.916991 0.0244903 -4.14563e-21)
(0.984353 -0.0583859 2.16926e-22)
(0.999973 -8.42879e-06 3.05081e-26)
(1.00178 -0.00159956 4.20686e-24)
(0.968436 -0.0993767 -1.88003e-22)
(1.05286 -0.0381994 3.71342e-23)
(1.05655 -0.00730056 2.86813e-22)
(0.999989 -5.16823e-06 4.42146e-26)
(0.989708 -0.000871759 5.5745e-23)
(1.03613 -0.0572105 1.84395e-22)
(0.993375 -0.00215497 8.19777e-23)
(0.999424 -6.2625e-05 -2.07364e-23)
(0.989595 -0.00545969 1.00676e-24)
(0.980166 0.040743 3.54098e-22)
(0.991515 -0.0167266 -7.60394e-23)
(0.986539 -0.0161735 2.17615e-23)
(1.00133 0.0220162 -1.10805e-21)
(0.996599 -0.00294449 1.90303e-23)
(0.973311 0.125204 -3.36363e-22)
(0.999972 -8.45311e-06 -9.79504e-26)
(0.989042 -0.0379096 6.09097e-23)
(0.991769 -0.113935 7.97519e-22)
(0.994026 -0.0676052 1.92949e-22)
(1.23093 0.0159622 1.40414e-22)
(0.998638 -0.00718863 2.36098e-23)
(1.0138 -0.0296302 5.59639e-24)
(0.99991 -0.00306344 3.6228e-25)
(0.979274 -0.0301642 -1.75381e-22)
(1.05556 -0.0415615 8.14997e-24)
(0.999956 -1.89152e-05 5.81828e-25)
(1.00002 -1.59095e-06 -3.41539e-26)
(0.991992 -0.000558805 3.7518e-23)
(0.981679 0.0804734 2.33489e-21)
(1.01729 -0.0238007 1.16917e-22)
(1.00324 -0.00446974 -1.77162e-23)
(0.907237 -0.0533549 4.57563e-22)
(1 -1.37619e-05 2.26731e-27)
(1.00122 -0.00149456 -1.63663e-23)
(0.999958 -0.000872072 -2.33508e-25)
(1.01882 -0.0225642 1.34295e-22)
(0.978906 -0.0222492 3.04325e-23)
(0.999523 -0.0003672 2.60398e-24)
(0.992033 -0.0148965 2.92611e-23)
(0.984256 -0.00963682 -3.14705e-23)
(1.00127 -0.000207055 -1.34112e-24)
(0.999971 -9.72612e-06 -6.11312e-26)
(1.2161 0.0536499 -1.96721e-22)
(0.999602 -0.00228569 8.32315e-24)
(1.08495 0.00625293 2.52057e-22)
(1.01131 0.121827 6.43807e-21)
(1.0423 0.106888 -1.44702e-21)
(1.00229 -0.0266898 -6.1592e-23)
(1.00689 -0.00265799 -7.1836e-24)
(1.02164 -0.00159723 2.47111e-22)
(0.999973 -0.00313043 -4.08628e-25)
(0.997626 -0.0136499 2.98898e-23)
(1 -2.24686e-05 2.18494e-26)
(0.989596 0.113281 -1.2781e-22)
(0.985039 -0.0218958 4.22796e-23)
(1.01678 -0.00556279 -8.92799e-23)
(0.976775 -0.006257 1.80964e-22)
(1.00519 -0.0162331 9.29869e-25)
(0.996784 -0.00772352 3.93377e-23)
(0.99987 -0.000263181 2.94219e-25)
(1.00002 -1.53676e-06 -1.88904e-25)
(0.994351 -0.00603469 -4.4193e-23)
(1.06426 -0.00405544 -1.57726e-22)
(1.00369 0.0413248 1.71489e-22)
(1.00152 -0.000609085 -1.97972e-23)
(0.97321 -0.087061 -1.65902e-22)
(0.967976 -0.0322989 -6.0651e-23)
(0.989967 -0.000681679 -2.08189e-22)
(1.18763 0.126453 -4.77418e-22)
(0.998374 -0.00125606 -9.52847e-24)
(1.00545 -0.0183667 -1.92219e-23)
(0.993098 -0.00371719 4.10774e-23)
(0.999881 -0.000253756 2.46536e-25)
(0.969686 -0.104075 2.15753e-22)
(1.00154 0.032601 -1.71911e-21)
(1.02884 0.0466281 -1.42952e-21)
(0.970693 -0.0213575 -2.94187e-23)
(1.00108 0.0309122 -7.69548e-23)
(1.0001 -0.000280756 1.77717e-24)
(1.00002 -2.06827e-06 5.76862e-26)
(1.17092 0.138705 -5.43312e-22)
(1.17907 0.0603829 -1.50952e-22)
(0.918762 0.0928827 -1.60692e-22)
(1.01851 -0.113093 6.00292e-22)
(0.969444 -0.00218064 -1.37886e-22)
(1.16537 0.0261649 -1.7194e-22)
(1.00145 -0.000634373 2.24243e-23)
(0.992863 -0.00501264 2.35265e-23)
(1.00057 -0.000213098 -1.32566e-24)
(0.986254 -0.000970877 -4.5698e-23)
(0.985322 -0.0178572 -6.18601e-23)
(0.999995 -4.35806e-05 -1.30291e-25)
(0.998888 -4.27497e-05 3.76141e-24)
(0.997992 0.12123 -6.02216e-21)
(0.999841 -0.000906345 2.82034e-24)
(0.940958 0.0845835 3.91165e-21)
(1 -2.13839e-05 -1.68405e-26)
(1.22394 0.0926165 4.77227e-23)
(1.08555 0.00433075 -5.46322e-22)
(1.1358 0.0172587 -3.49235e-22)
(1.0013 -0.000601176 1.34181e-24)
(1.00023 -5.37443e-05 2.37339e-24)
(0.985865 0.0764535 -3.48622e-21)
(1.08706 0.00967596 1.11118e-21)
(0.99152 -0.116643 -7.37343e-22)
(1.01977 0.0444874 6.48788e-22)
(0.998698 -0.0275002 2.56324e-23)
(0.982709 -0.00739874 -4.6465e-23)
(0.99487 -0.000285421 -2.47938e-23)
(1.09329 0.16773 -3.33473e-21)
(0.970032 -0.0385126 2.22315e-22)
(1.04469 -0.0360759 -7.76965e-23)
(0.992363 -0.0147368 -1.67458e-23)
(1 -1.36986e-05 -5.21219e-28)
(0.998391 -0.00118621 -8.09754e-24)
(1.00752 -0.00739764 3.77221e-23)
(0.976009 -0.0111966 2.31645e-22)
(0.971511 -0.0214911 4.38996e-23)
(0.943754 -0.0618299 -7.19432e-23)
(0.975765 -0.011881 -1.75301e-22)
(1.01888 0.00323382 1.16178e-22)
(0.997326 -0.000183394 5.06318e-25)
(0.916658 -0.0604064 2.40661e-22)
(0.98169 -0.00126543 -6.45733e-23)
(1.00005 -0.000271159 2.40925e-25)
(0.984098 -0.0010062 -4.47378e-23)
(1.04631 -0.0392831 -1.15466e-22)
(1.01804 0.00342753 -6.42975e-22)
(0.967149 -0.0389977 -5.54811e-23)
(0.99998 -1.01991e-06 -9.33961e-28)
(0.977875 -0.022812 4.60695e-23)
(1.00357 -0.0189427 5.05414e-24)
(1.00174 -0.00148482 5.41675e-24)
(1.2267 -0.11247 -9.14377e-22)
(1.00135 0.0297342 -3.99056e-21)
(1.00113 -0.00147657 1.5198e-23)
(0.98438 -0.000759098 5.79962e-25)
(1.15063 -0.0643869 3.70473e-24)
(1.02955 0.000852419 9.92913e-22)
(0.992263 0.0255492 -3.79548e-22)
(1.00233 -0.00312738 4.81698e-24)
(1.00219 -0.0278427 1.91921e-23)
(1.07712 0.131064 -5.06779e-22)
(1.01451 0.0286479 -3.31823e-21)
(0.990451 -0.0376143 1.61665e-22)
(1.00595 -0.00433486 -6.78972e-24)
(0.937928 -0.0744575 3.47326e-22)
(0.999997 -7.39654e-06 2.42629e-26)
(0.931878 -0.00313473 -2.35343e-22)
(1.00011 -8.89434e-05 3.31664e-25)
(1.14815 -0.0677051 -8.04103e-22)
(0.999959 -4.49947e-06 -6.41891e-26)
(1.00003 -7.95693e-05 1.88064e-25)
(1.0021 -0.0312724 -2.33962e-23)
(1.19916 0.0964659 -2.67075e-22)
(1.02236 0.150961 2.80409e-21)
(1.05065 -0.039519 -1.74569e-22)
(1.01812 -0.0179118 6.96802e-23)
(0.999999 -6.00328e-06 -6.44607e-27)
(0.992303 -0.00597019 -7.99271e-23)
(1.00011 -2.7274e-05 -2.48853e-25)
(0.996057 -0.00314137 2.7275e-23)
(1.00003 -7.41417e-05 -1.46131e-25)
(1.05609 -0.00526277 -8.92881e-22)
(0.999411 -0.00060794 -1.02149e-23)
(1.05112 0.0635967 1.44875e-21)
(0.999843 -0.000280337 -1.9022e-24)
(0.983361 -0.00721405 -7.7948e-23)
(0.943364 -0.00165479 5.25839e-22)
(0.994603 -0.000394193 -3.18648e-23)
(0.986754 0.0394615 3.65463e-21)
(0.97734 -0.00100068 1.25604e-22)
(1.06616 -0.132042 5.27726e-23)
(0.993058 -0.00525369 1.21938e-22)
(1.02894 -0.00230366 -2.0707e-22)
(0.969692 -0.0890947 7.8161e-22)
(1.02289 -0.00146917 -6.90867e-22)
(1.06883 -0.0798975 -1.92539e-23)
(0.999983 -2.62834e-06 7.8391e-27)
(1.00059 -0.0264411 2.13525e-23)
(0.994955 -0.000376672 3.89482e-24)
(1.00031 -0.000117914 1.79412e-24)
(1.00011 -2.29861e-05 4.14137e-25)
(1.0965 0.169866 3.65032e-21)
(0.993814 -0.00282617 6.81638e-23)
(1.02895 0.00183249 1.13358e-21)
(1.00309 -0.0284298 2.35976e-23)
(1.00108 -0.000388096 5.19467e-24)
(1.02807 -0.00848309 -7.61863e-22)
(1.00021 -5.09672e-05 -5.22991e-24)
(0.99997 -4.51394e-06 -8.71117e-27)
(0.932776 -0.0041724 1.80599e-22)
(0.995589 -0.00159826 3.07174e-23)
(1.00004 -7.2211e-05 2.20537e-25)
(1.05206 0.107025 1.07327e-21)
(0.885519 0.0746494 -5.87122e-21)
(0.999736 -0.000296715 4.81034e-24)
(0.94607 -0.00331867 -1.41321e-22)
(1.00002 -2.05976e-06 4.13319e-26)
(0.950136 0.111476 -3.77335e-21)
(1.22671 0.096478 1.84329e-23)
(0.966779 -0.0710189 -6.01395e-22)
(1.00006 -0.000715474 -4.75279e-25)
(1.04296 -0.0349765 1.8948e-22)
(1.03448 -0.00106488 -2.86868e-22)
(1.03475 0.00226066 8.46227e-23)
(1.05805 -0.00772803 -1.11765e-22)
(0.999558 -0.00245008 -1.19815e-24)
(0.999839 -0.00108527 2.47826e-24)
(0.982549 -0.0219365 -1.34779e-22)
(1 -1.21946e-05 -5.89083e-27)
(1.00002 -1.90721e-06 -1.0654e-26)
(0.96874 -0.0379299 -1.30876e-22)
(1.00893 -0.0851799 -3.05468e-22)
(0.945524 -0.0604474 -1.81421e-23)
(0.905583 0.104788 -1.25398e-22)
(1.00025 -3.28046e-05 -2.19089e-24)
(1.04185 -0.0998752 -6.68688e-22)
(1.00918 -0.00651247 -6.66267e-23)
(0.999972 -4.8126e-06 9.98809e-26)
(0.998787 -0.00510744 -2.10189e-23)
(1.00004 -0.000606233 -2.99174e-25)
(0.994935 -0.0170375 4.68833e-23)
(1.00006 -1.33818e-05 2.47921e-25)
(1.07074 -0.0775208 -4.67704e-23)
(1.02249 -0.001806 6.70887e-22)
(0.974793 0.123112 8.91199e-22)
(1.02844 -0.00223936 7.76453e-22)
(0.999652 -0.000291065 3.7871e-24)
(1.00057 -0.000500187 -5.10289e-24)
(1.23844 -0.0316793 -1.01746e-21)
(1.029 0.00145341 -9.11128e-22)
(0.9961 -0.00051423 2.79727e-23)
(1.00002 -2.11372e-06 8.89704e-26)
(1.06718 0.0980019 -1.7725e-21)
(1.20259 -0.178402 -4.21619e-22)
(1.01787 -0.110252 -2.6237e-22)
(0.981167 -0.0010792 -3.38606e-23)
(0.999974 -2.89244e-05 1.96371e-25)
(0.999655 -0.000274527 -2.21923e-24)
(1.21114 -0.17727 1.18712e-21)
(1.00543 -0.0673777 -8.00324e-23)
(1.03704 0.0354393 2.04089e-22)
(0.980954 0.107969 3.41759e-21)
(1.06298 -0.128868 3.87076e-22)
(0.998412 -0.000109691 -5.02026e-24)
(0.999974 -1.36348e-05 -2.2792e-25)
(0.955549 -0.0778306 5.99657e-22)
(0.993462 -0.15391 -8.61548e-22)
(0.999746 -0.000307315 2.55992e-24)
(1.01444 -0.0286748 4.59632e-23)
(0.990758 -0.0365379 -2.8808e-23)
(0.994142 -0.00302648 2.68589e-23)
(0.998643 0.0244133 -2.88999e-21)
(0.998387 -0.000707322 1.80038e-23)
(1.07639 -0.0508913 -1.18114e-23)
(1.1451 0.15836 -1.56667e-21)
(0.990142 -0.00443592 -7.81726e-23)
(0.916746 0.0876923 -5.77979e-22)
(0.925068 0.0417838 1.76869e-21)
(0.999962 -6.71091e-05 -7.37045e-25)
(0.99997 -0.000953708 -2.03089e-25)
(0.977624 -0.0013296 -7.99088e-23)
(1.01595 -0.00549121 -1.61662e-22)
(0.94849 -0.00304441 2.99675e-22)
(1.00649 -0.00536407 -6.96947e-23)
(0.990505 -0.00444489 7.27994e-23)
(0.99929 -0.000647273 -7.81087e-24)
(0.958426 0.112067 -6.76212e-22)
(1.05204 0.0613321 -2.24747e-21)
(1.00286 -0.00302295 1.23624e-23)
(0.844959 0.0475504 -1.19052e-21)
(1.00002 -1.77566e-06 -5.92342e-26)
(1.02597 0.00800141 -1.59172e-21)
(1.01721 -0.141258 5.95093e-22)
(1.04517 -0.0987879 2.60392e-22)
(1.00012 -0.000272757 -9.09233e-26)
(0.945828 -0.00167543 2.43926e-22)
(1.02326 0.00702069 8.94435e-22)
(1.01557 -0.00589159 1.33865e-22)
(1.0336 -8.05067e-05 3.97292e-22)
(0.99944 -4.91889e-05 1.46327e-23)
(0.999403 -0.00064748 9.25061e-24)
(1.03973 -0.0545355 5.00035e-23)
(0.995664 -0.00172124 -8.78924e-23)
(0.984058 -0.0162909 -1.47011e-22)
(0.998932 -0.00462511 1.24598e-24)
(1.07806 0.0526233 1.14664e-21)
(1.00036 -0.0276042 -1.44899e-23)
(0.993808 -0.00642927 1.54912e-24)
(0.901115 -0.0455256 -6.79616e-22)
(0.994407 0.0915604 3.86449e-22)
(1.13514 -0.00767198 -2.12001e-22)
(1.02747 -0.00818345 6.10462e-22)
(0.999503 -0.000236846 2.77997e-24)
(0.999364 -0.000423718 1.25817e-24)
(0.978202 -0.0298875 3.53721e-22)
(1.00125 -0.00160794 -1.21838e-23)
(0.996739 -0.000904997 -4.99162e-24)
(0.999975 -2.7764e-05 -7.4774e-26)
(0.999607 -0.00249544 2.28166e-25)
(1.0226 0.00643534 -3.47886e-22)
(0.984815 0.0796698 -3.35383e-21)
(0.999841 -2.01844e-05 5.96914e-25)
(1.11395 0.160398 -3.14714e-21)
(0.999994 -5.42977e-05 5.57657e-26)
(0.995939 -0.00372317 3.71981e-23)
(0.999989 -0.000124232 7.88161e-26)
(1.00651 -0.00464259 -3.09034e-23)
(1.22028 0.0520672 1.61744e-22)
(0.999951 -5.64747e-05 6.35111e-26)
(0.999949 -6.04489e-05 4.45888e-25)
(0.928547 -0.0711642 -3.42849e-22)
(1.00001 -1.20828e-05 -1.98267e-27)
(1.06157 -0.00669279 9.45012e-22)
(0.989253 -0.0588501 2.98617e-22)
(0.999973 -0.000838032 2.36341e-25)
(1.06941 0.0798847 -1.37823e-21)
(1 -3.89232e-05 -3.37502e-26)
(0.999502 -5.09134e-05 1.27706e-23)
(0.999889 -4.64741e-05 2.07974e-26)
(0.994036 -0.00643475 -2.27582e-23)
(0.999592 -0.00198982 -3.92111e-24)
(0.992149 -0.000424181 -2.53004e-23)
(1.04409 -0.166563 -6.94938e-23)
(0.999638 -0.00193704 2.62256e-24)
(1.00523 -0.00435589 -2.40469e-23)
(0.99997 -3.29015e-06 -3.7452e-26)
(1.02419 0.148486 -5.32271e-21)
(1.07475 -0.0529512 -4.68169e-23)
(1.13833 -0.00707055 9.72206e-24)
(0.952438 -0.00902397 3.23249e-22)
(0.970125 -0.00614628 -5.87188e-23)
(0.998897 -0.00499221 3.47081e-23)
(1.00364 -0.00335748 3.35619e-23)
(1.04015 0.0728629 6.04887e-22)
(0.981706 -0.0531802 4.33279e-23)
(1.0951 0.119973 6.91705e-22)
(0.940123 -0.0210649 -5.96155e-22)
(0.99579 -0.00359704 -3.51054e-23)
(0.999989 -6.0775e-06 -8.05866e-26)
(0.992857 -0.00373404 -4.94795e-23)
(1.0045 0.141503 1.36749e-21)
(1.06068 0.0865171 -3.17086e-22)
(0.98687 -0.0807734 2.55729e-22)
(0.916128 -0.00947208 1.39829e-22)
(1.02849 0.142232 1.42254e-21)
(0.989181 -0.000780384 6.53626e-23)
(1.00572 -0.130764 4.76411e-23)
(0.99999 -0.000118918 1.43092e-25)
(0.987724 -0.0593894 3.73413e-22)
(0.998962 -0.000293587 -1.86074e-23)
(0.857091 0.0804267 -3.44446e-21)
(0.988723 -0.108369 -5.99349e-22)
(0.999892 -4.17118e-05 1.10169e-24)
(0.910965 -0.0311025 -3.58871e-23)
(0.982026 -0.056518 1.81196e-23)
(1.02743 0.0775224 2.16842e-21)
(0.996786 -0.000987666 -4.69438e-23)
(0.978987 -0.0549081 -1.3132e-22)
(0.997411 -0.0140109 -4.18922e-23)
(1.00207 -0.030183 -4.8269e-23)
(0.99843 -0.000719815 -1.22467e-23)
(1.02641 0.0760388 -2.62469e-21)
(1.12288 -0.210996 7.9313e-22)
(0.977859 -0.0237573 -1.02413e-22)
(0.98319 -0.0203442 2.17348e-24)
(0.983495 -0.00681347 -3.18268e-23)
(1.00646 -0.0025209 -2.83343e-23)
(1.03009 0.139055 5.56072e-21)
(0.977486 -0.0192612 4.60399e-23)
(1.01295 0.0415341 1.41055e-21)
(1.00335 -0.00269595 2.55244e-23)
(1.23255 0.0219543 -2.72098e-23)
(0.938207 0.0903734 5.85756e-22)
(0.988961 -0.000608433 -2.2726e-22)
(0.999717 -5.34244e-05 2.49283e-24)
(1.03941 0.0935017 6.54839e-22)
(0.995707 0.116539 -5.02788e-21)
(1.03817 -0.0526493 -5.90101e-23)
(1.10519 -0.0291588 1.84885e-23)
(0.99469 -0.0176906 -5.28907e-23)
(0.953203 -0.00814464 -1.91968e-22)
(1.07524 0.128543 2.02355e-21)
(0.953533 -0.0784646 9.58604e-23)
(0.999971 -2.77738e-05 2.53651e-25)
(0.990641 -0.000150449 -1.15909e-22)
(1.00005 -7.22109e-06 2.52127e-25)
(0.994415 -0.000354479 8.69277e-23)
(0.99997 -2.91607e-05 -3.97965e-25)
(0.998334 -0.0195468 7.13068e-23)
(0.998814 -4.74042e-05 6.64028e-24)
(0.996721 -0.00732459 4.56204e-24)
(1.23486 -0.010867 -1.59687e-22)
(0.999269 -0.00049604 6.68032e-24)
(0.999384 -0.000253974 4.5481e-24)
(0.999274 -0.0075954 5.30177e-24)