/*--------------------------------*- C++ -*----------------------------------*\
  =========                 |
  \\      /  F ield         | OpenFOAM: The Open Source CFD Toolbox
   \\    /   O peration     | Website:  https://openfoam.org
    \\  /    A nd           | Version:  7
     \\/     M anipulation  |
\*---------------------------------------------------------------------------*/
FoamFile
{
    version     2.0;
    format      ascii;
    class       surfaceScalarField;
    location    "11.5";
    object      phi;
}
// * * * * * * * * * * * * * * * * * * * * * * * * * * * * * * * * * * * * * //

dimensions      [0 3 -1 0 0 0 0];

internalField   nonuniform List<scalar> 
29574
(
587.638
-435.16
-152.479
270.26
42.9529
-313.213
942.292
-1131.35
189.061
-395.233
994.383
-599.15
-633.244
670.79
-37.5459
-687.405
54.1607
210.6
-33.2894
-177.31
625.393
-476.524
-148.869
212.505
-288.456
75.9516
93.9449
531.448
-76.8412
251.222
-174.38
-280.883
282.955
-2.07187
-235.624
-17.4528
253.077
34.5588
553.08
621.605
-650.467
28.8618
-965.161
569.928
-303.184
342.597
-39.414
-88.4499
-1005.06
1093.51
-254.499
231.913
22.5856
304.675
-34.4145
-299.093
293.278
5.81413
-29.4833
-251.4
-478.769
572.713
260.02
-310.407
50.3872
942.292
-358.853
72.8503
286.003
890.488
-974.77
84.2817
340.465
-149.703
-190.761
-157.698
-99.2961
256.994
-106.551
-147.948
-592.318
740.993
-148.675
334.082
-278.847
-55.2357
392.453
-88.6199
-303.834
556.433
-292.028
-264.405
-717.274
780.473
-63.199
-731.317
138.999
147.918
-378.042
230.123
932.264
-932.264
783.68
-346.575
-437.106
270.734
437.953
-708.686
3.03423
794.439
-797.473
-309.676
102.394
207.282
-881.128
715.839
165.289
972.548
-82.0601
-113.419
-245.434
115.803
72.2227
-188.025
1120.99
-481.197
-639.793
329.323
-237.705
-91.619
842.851
-30.4375
-812.413
239.168
-231.218
-7.9504
-787.849
70.575
46.8746
-747.246
700.371
-282.205
-128.886
411.091
762.913
-835.905
72.992
164.614
-378.108
213.494
15.7308
-211.228
195.497
382.668
-112.226
-270.442
694.776
-751.603
56.8272
-54.8146
-297.055
351.87
-81.5531
-221.63
-649.231
408.344
240.887
-50.0417
243.785
-193.744
480.318
-482.941
2.62345
-206.534
-354.302
560.836
-697.511
827.98
-130.47
-716.194
108.128
608.066
535.057
-572.942
37.8852
-651.131
-65.0632
-164.752
-354.566
519.318
-123.004
-91.9987
215.002
362.591
-549.939
187.348
320.263
-220.708
-99.5549
675.595
-53.9903
-274.239
-33.9815
308.22
1064.12
-571.181
-492.942
-71.585
463.916
-392.331
337.456
-121.42
-216.036
-226.02
15.4354
210.585
910.175
-639.442
586.807
-834.126
247.319
633.62
-525.493
816.965
-194.95
-622.015
286.805
-94.8273
-191.977
295.839
-83.3343
133.463
-183.505
-616.989
-264.139
240.538
-282.135
41.5963
-36.1
140.754
-104.654
-661.247
454.714
127.313
-306.906
179.593
-428.792
704.784
-275.992
739.02
148.773
-887.793
904.521
-130.206
-774.314
170.006
-278.72
108.714
195.82
133.503
424.58
55.7384
245.534
-75.5277
-779.311
790.063
-10.7522
-315.463
238.622
1011.93
-913.471
-98.463
281.611
-154.298
407.462
-418.441
10.9795
166.399
131.588
-297.987
448.228
-182.287
-265.941
1212.73
-1212.73
468.165
30.7448
-498.91
-24.7506
259.313
-234.562
-467.765
234.065
233.7
264.399
8.9318
-273.331
-280.897
-72.2311
353.128
41.0835
-198.781
180.177
30.4223
397.885
-111.921
-285.963
-260.286
-401.603
661.889
-559.561
487.976
-568.638
-431.463
-397.853
-167.33
565.182
576.835
56.7855
-303.818
-2.20095
306.019
-1028.94
238.874
790.064
-170.782
909.803
47.3653
259.103
-306.468
369.725
-611.802
242.077
237.421
-362.016
124.595
129.067
427.366
774.087
-862.536
13.3667
218.007
-231.373
180.844
159.621
240.18
93.9024
126.686
-524.539
-26.0665
-153.421
179.488
19.3237
219.845
851.572
-848.538
292.395
491.286
126.743
-360.968
234.225
261.108
951.62
292.217
-71.7615
-220.456
-278.589
-20.5035
-407.925
36.1766
371.748
105.978
61.5382
-167.517
287.498
-240.132
28.8983
-303.137
176.99
143.273
-302.858
198.611
104.247
-559.615
90.184
469.431
-119.31
246.053
-294.619
83.3701
211.249
-94.9726
-224.128
319.1
8.17446
300.441
-308.616
-763.075
-211.695
127.879
-222.851
214.452
971.751
-67.2305
-232.642
-47.0134
279.655
151.566
665.399
-277.45
-17.1689
-750.375
133.386
79.7205
180.299
69.8321
-161.284
91.4515
-13.2395
-222.385
-169.048
333.662
-231.281
197.991
-36.5411
-395.735
-163.881
-196.685
-661.951
858.636
-148.851
112.751
347.086
60.3754
266.02
20.7849
434.615
29.3006
-352.04
499.958
345.077
-52.8597
-176.71
-142.887
319.597
2.44809
-214.224
211.776
401.451
-442.966
41.5157
96.3464
92.9718
-189.318
46.2052
346.248
-571.534
509.083
62.4504
-531.676
-33.8826
565.558
-436.561
-123
-14.5771
223.78
-209.203
51.0855
-222.836
171.751
735.503
196.761
342.728
44.6548
-387.383
-78.7766
215.979
-137.202
266.582
38.093
228.559
-124.649
-103.91
582.061
-219.47
27.6471
984.287
144.41
216.315
117.301
-333.616
285.147
-271.781
240.842
-382.217
141.375
69.528
-982.999
-583.691
418.939
219.755
-149.923
-43.3671
300.713
-257.346
88.4313
254.297
-52.0926
311.355
-259.263
324.598
-58.0164
-4.29913
220.615
252.673
-385.797
133.124
-88.4206
318.959
-230.538
-464.492
154.38
-342.117
187.737
268.068
-385.605
117.537
-315.797
286.819
28.9785
-5.59041
-329.621
335.211
765.426
-718.551
199.583
-183.852
619.362
-634.655
15.293
416.485
118.572
-851.429
512.427
339.002
-39.5779
305.849
-266.271
-88.3751
-151.173
239.548
-295.474
555.827
508.296
513.434
-513.434
-537.585
-491.353
-254.015
-213.751
897.524
-605.13
3.6127
262.472
-266.085
-171.342
-267.755
439.098
75.6011
159.419
-235.021
513.912
-942.704
-345.759
273.528
-13.0187
-394.906
353.898
-359.488
-1068.66
500.021
-484.883
484.883
-642.077
-5.56277
647.64
640.893
-271.169
291.242
124.21
-415.451
-329.243
304.492
-219.082
202.931
16.1516
-545.18
837.505
-292.325
306.589
-66.0512
556.931
-88.7662
-416.577
239.867
178.667
66.8669
-655.337
483.995
238.21
-359.629
87.818
-176.193
257.938
113.317
-371.255
351.697
-114.276
-971.321
-241.407
622.955
-46.1204
-76.7848
272.655
-195.87
535.398
-457.7
-77.6983
-74.244
760.18
-685.936
-53.2077
896.058
262.744
1.65488
-111.185
186.786
-89.3454
552.251
-462.905
-541.574
194.999
-168.78
13.6636
155.116
-122.889
414.131
-40.3443
219.233
-178.889
-75.0832
-234.593
193.581
-87.6028
-77.0474
192.85
16.1736
-247.383
231.209
32.2295
458.529
-490.758
710.256
49.3873
-759.643
288.969
17.6205
-72.4244
-158.856
-136.46
42.0773
235.143
-277.22
36.1848
361.7
214.523
-759.702
312.723
-196.445
-85.6894
122.565
-820.653
698.088
63.1972
-395.402
-177.54
-283.08
206.925
76.1546
-335.041
-314.19
567.736
-999.198
240.339
-51.9407
-188.398
-48.6065
248.094
-199.487
-1041.5
352.079
689.424
-41.0838
373.974
-332.89
325.015
57.6533
-244.711
93.7512
150.959
347.195
-100.667
-246.529
374.811
-133.969
-168.995
300.583
271.681
-213.898
144.56
-193.167
-104.871
602.194
-497.323
754.892
-168.085
-123.949
-358.862
482.811
854.023
-731.458
254.074
-211.996
-36.7829
-315.257
-536.975
78.823
83.7196
-162.543
355.189
-85.66
-269.529
-80.4152
177.86
-97.4447
384.064
-131.391
-113.072
-345.528
458.6
7.60372
843.987
-851.591
-776.614
804.228
-27.6134
-245.145
57.1853
187.96
-754.403
441.427
312.976
57.1453
-163.696
3.74137
173.518
-177.259
-288.499
259.016
6.06454
-230.071
224.007
242.921
-19.1405
172.985
-532.725
359.74
229.241
-213.068
-40.2506
-185.77
-68.2772
568.235
351.193
-77.0926
-274.1
-733.908
741.512
-467.637
359.83
107.807
459.115
-332.429
483.321
-853.137
369.816
-284.938
-93.1698
-726.442
28.9317
-178.916
-65.7944
-646.329
631.768
14.5608
-178.759
351.508
-172.749
307.826
303.096
263.783
-168.104
-95.679
258.775
-265.716
-484.658
-195.695
-83.0244
274.537
-201.655
-72.8817
-547.864
16.3248
531.539
171.468
-75.122
1006.28
-1006.28
433.68
-507.058
-534.445
147.561
189.602
-337.164
-482.51
445.727
-331.619
297.637
-329.455
408.535
162.532
-571.067
50.3208
712.592
547.066
-138.531
426.678
-594.008
93.8381
208.982
-302.82
-206.98
-212.466
419.446
299.792
81.4391
-381.231
-297.343
-544.701
842.044
490.424
-750.71
366.916
31.2204
-398.137
-1005.06
417.44
95.994
276.125
-273.676
302.948
-357.763
-13.9957
126.331
-112.336
8.90868
-263.705
-253.635
11.7203
241.914
246.118
28.4192
305.873
-384.649
226.112
-92.6486
-544.801
-193.313
-113.593
-390.193
-364.211
-967.174
-179.379
1146.55
-499.759
960.435
-460.675
-130.393
-3.85516
134.248
-669.051
636.912
32.1385
-239.09
366.94
-127.849
242.614
292.784
2.13906
-213.367
873.871
-912.402
38.5313
428.819
-112.882
215.276
-367.537
162.061
205.477
-251.97
63.2727
188.697
-484.493
-63.3709
134.356
-246.583
346.952
-89.0144
-1093.75
897.062
-544.698
455.352
-98.9371
212.583
-113.646
-66.0554
379.644
-313.589
371.2
-347.61
-23.5906
-368.108
44.252
-213.032
-304.174
675.995
-371.821
-59.8397
-255.624
-91.3983
458.315
4.40267
191.968
-196.371
920.119
200.871
-351.247
-16.2903
166.004
205.197
-373.319
-455.9
829.219
-851.263
370.067
429.642
-948.443
518.801
94.5312
-433.092
338.561
-268.552
188.136
-9.51258
468.041
-141.38
-200.737
-427.97
149.123
616.22
6.73481
26.3754
213.964
438.18
-86.5764
-351.603
-101.482
-90.6471
192.13
120.37
221.067
-296.15
9.10922
-107.173
-40.7205
147.893
-385.129
-12.5009
397.63
-27.4814
318.77
-291.289
-104.084
495.063
-390.979
-423.496
380.42
-80.6279
-889.005
814.761
347.707
-316.962
-69.1006
-313.116
-71.7169
-314.08
-655.864
-123.447
-530.713
288.69
242.023
-282.389
61.6813
-129.799
126.758
34.0202
182.873
410.493
-593.366
28.713
-283.133
45.4281
25.5411
285.814
150.646
-262.567
-58.6786
-274.446
333.125
-810.839
796.278
14.5607
234.365
-253.056
18.691
363.166
534.359
267.848
-368.515
-16.753
305.722
-724.6
694.162
291.492
-210.659
-80.833
288.863
11.8507
-174.714
-158.204
-314.684
472.888
-215.777
-100.02
294.152
-379.812
431.647
-544.718
117.495
79.6174
-197.112
206.125
-128.295
-77.8296
277.664
-650.983
148.856
-503.422
241.016
-97.694
-143.322
47.9614
-811.036
-426.213
300.501
-377.593
-587.261
681.792
-489.057
93.3225
368.328
-665.671
128.668
-241.828
113.16
-848.246
896.207
-30.3653
-8.40889
802.848
-221.651
217.766
3.88503
-309.72
198.845
110.876
-241.463
-144.141
-52.2225
422.343
-370.12
541.845
-646.716
38.6688
-224.007
185.338
169.475
-130.807
334.384
85.9012
-264.66
170.237
23.344
-140.259
766.759
107.112
-436.733
170.792
-223.164
180.772
42.3923
193.259
-233.603
-0.661108
192.779
-192.118
-343.665
284.986
-225.497
-12.3097
237.807
-538.66
414.711
202.161
-193.986
-581.106
-65.2226
614.688
4.67474
-302.43
-222.108
181.244
-88.6821
-92.5621
-120.666
-90.2701
210.936
170.727
-230.962
60.2348
-43.4653
283.81
-240.345
-226.737
216.379
10.3583
-198.478
-28.2586
346.335
91.8442
969.509
-708.401
-269.541
-302.344
242.504
190.239
32.9257
-223.165
-971.243
797.075
174.168
-370.724
171.75
198.974
-493.55
-143.334
636.884
-158.961
-806.201
-6.81443
-291.173
-463.398
450.897
-93.1224
-216.598
254.486
-6.39223
655.48
-98.7765
-556.704
347.698
-451.781
-159.237
756.334
-597.097
-219.932
-206.662
426.594
-287.869
272.296
15.5726
5.93606
-65.7715
236.499
-107.402
-175.678
-529.775
-0.938086
-16.1862
-91.0912
-744.814
38.2858
-432.284
-210.953
90.2868
-270.14
170.844
698.972
258.15
-305.163
164.422
64.1372
-330.735
5.77152
324.964
-268.725
16.7553
-37.2824
-996.512
778.408
218.105
-25.5471
228.478
-96.2995
275.893
495.156
-522.19
27.0341
-298.785
-168.852
-362.283
398.46
-45.4155
139.448
-94.0323
989.841
-818.051
-171.789
44.9963
-562.975
517.979
-25.3125
-131.756
157.068
-152.656
-129.733
487.953
-63.3732
-246.521
489.135
-557.58
118.083
439.497
-203.482
276.332
519.529
-380.011
-139.518
295.53
8.44002
-303.97
-268.959
192.174
657.404
-97.153
-560.251
425.381
-242.509
-432.751
389.077
43.6736
261.277
11.3772
-279.139
-51.5963
-181.114
56.4651
203.175
-500.29
63.3919
436.898
-259.738
263.351
-380.936
353.455
-316.073
-67.4429
-417.44
-453.091
400.868
-530.587
1001.81
-471.224
-119.991
74.575
-176.75
-193.974
488.253
-50.1284
-438.125
-17.0836
-300.833
317.917
-497.874
558.911
-61.0374
432.952
205.248
-100.821
-104.428
192.14
-235.606
201.541
-202.202
-312.604
110.949
454.276
-409.28
-10.3402
-277.529
64.2958
-895.771
895.771
126.808
4.68961
420.65
-425.34
-158.81
181.159
-22.3488
-508.255
301.275
-421.547
64.4059
357.141
55.2638
125.98
-506.696
395.72
110.976
-205.515
436.926
51.0267
307.705
41.8528
-349.557
334.092
-74.9894
-414.479
-43.2211
113.906
-354.098
288.043
338.973
-244.649
-94.3232
-39.1649
146.972
-107.807
-967.174
-299.781
-194.872
90.6483
104.224
-328.589
239.969
-421.459
-526.984
251.926
548.868
-800.795
-147.223
-529.823
677.046
-474.05
171.62
-23.1927
193.43
215.633
-14.0918
-657.518
640.66
16.8584
72.6303
352.751
280.843
-63.8015
-217.041
-105.43
-546.704
652.134
-570.363
803.432
-233.069
-595.251
54.642
-789.001
198.835
590.167
-987.003
432.265
554.738
-284.524
-273.056
-120.163
467.869
-968.6
438.012
-675.51
814.377
-138.867
636.935
-742.365
-209.326
252.049
-232.725
124.342
-799.852
-164.51
-694.211
858.721
661.895
-4.49101
501.2
326.78
-88.3113
284.132
-92.5929
88.7378
-147.592
216.462
-570.765
254.623
-227.323
-27.2995
-130.26
340.893
-210.633
-166.835
-116.297
521.531
-26.3754
-292.674
275.59
13.0316
623.88
-703.939
-650.849
-252.653
-247.636
32.2362
218.985
30.9467
463.33
-494.277
-371.971
337.517
34.4546
-140.449
155.885
561.597
440.214
-372.429
-177.698
550.127
168.41
-249.964
-100.397
277.386
-67.2169
-354.33
177.294
-249.055
-235.394
308.025
201.821
-129.598
-444.006
-542.997
-288.627
-10.9351
299.562
-323.523
185.177
138.346
-173.348
177.751
-230.04
-93.4834
225.252
-219.188
252.664
-282.364
29.6995
305.732
-87.1614
-218.57
-805.241
646.28
-313.899
-317.67
78.58
-309.276
340.496
276.478
-87.0568
520.009
186.566
-27.1464
274.359
550.997
-825.356
-195.275
165.858
40.2667
-565.933
407.729
-958.036
296.085
314.516
-814.276
-473.344
-72.9881
546.332
-526.503
449.004
77.4995
285.457
-207.367
48.5567
-629.113
382.592
-34.6661
163.334
-342.265
373.212
143.785
-523.796
-122.579
-36.4548
215.122
-6.78095
279.077
270.285
-79.5737
172.545
761.912
-1.73279
295.148
-273.573
-21.5753
-266.091
-94.8771
-98.1524
-31.9012
266.267
707.926
252.509
61.5138
214.379
342.802
-104.592
-73.9897
312.503
-238.513
-449.737
90.875
495.265
-230.81
-264.455
290.724
-297.504
-17.5954
-673.468
691.064
226.621
-827.111
459.003
-232.289
72.9117
-347.012
-121.279
-382.725
504.003
-124.548
138.211
239.903
-328.215
317.135
-16.6934
-867.117
335.441
84.7486
-354.277
-726.293
-517.78
-453.463
240.767
97.7143
-344.243
223.678
-324.075
163.084
77.9317
146.981
-224.628
77.6461
-498.293
152.764
498.201
-921.697
-153.235
64.5529
458.114
26.7687
-574.664
-421.848
18.5202
-599.626
-3.52433
299.054
-106.957
404.466
-297.51
-105.272
-84.0466
147.343
-219.56
-75.9147
-344.234
380.419
-249.679
-60.9922
310.671
-70.7547
255.932
-276.449
-261.314
243.287
18.0269
43.9647
-242.843
315.755
367.354
-59.7537
-312.218
-19.8261
236.205
206.47
-27.5439
-178.926
-95.0178
-467.036
53.8833
413.152
-293.753
-128.455
422.208
177.196
-216.361
324.652
-248.49
69.574
-200.156
-115.437
315.593
810.462
321.393
-35.4684
-213.19
248.658
-23.1096
-503.393
-288.627
-733.407
346.486
386.921
6.30699
-298.335
-9.96547
250.146
-14.199
231.965
277.521
-335.61
58.0897
-457.321
-126.369
-546.104
187.782
358.323
213.158
24.6489
237.843
339.796
-615.021
275.226
237.742
-415.696
177.954
-362.308
402.807
-666.488
263.68
970.95
-943.303
-753.739
449.566
-434.683
-119.852
554.535
167.073
128.076
-308.31
576.624
-402.867
-173.757
374.919
-206.509
-816.693
246.329
250.837
244.427
-231.066
78.41
398.583
-94.091
180.916
-183.994
3.07863
232.35
11.4356
575.168
-609.051
-506.402
180.473
325.929
77.5945
-357.586
-134.277
491.864
83.465
380.568
-203.275
264.71
59.8884
-460.62
161.835
307.889
117.223
-425.112
119.892
-218.83
-183.631
-229.16
-206
-363.844
19.6092
-28.5574
-628.961
-31.788
229.67
-197.882
-307.867
185.507
122.36
-374.162
-119.961
494.123
-264.978
-80.7807
191.23
15.24
-335.335
84.1873
182.804
83.7817
-266.586
-267.717
-132.272
399.989
-368.916
-291.067
271.276
19.7904
120.13
-349.697
229.568
163.344
-238.946
75.6018
-38.8289
-117.809
-277.176
394.985
-373.541
232.16
211.446
-440.606
-254.068
109.508
144.56
-460.612
145.928
35.0016
-439.849
404.847
-197.99
-63.3241
177.893
413.361
-340.741
-72.6202
-206.484
204.99
1.49373
-265.224
129.064
136.16
-84.8416
-138.323
-320.434
-114.316
911.392
-218.287
-29.0956
269.203
-482.266
313.414
111.002
-313.733
202.731
-387.035
-142.37
529.405
-471.174
-216.231
219.301
-29.0621
268.323
689.617
-707.212
-49.1656
-272.831
321.996
80.9379
-710.597
629.659
209.355
89.1291
-298.484
295.537
-105.935
-236.165
229.351
-364.205
-43.604
407.809
-710.675
39.3214
671.353
-489.567
-165.77
-94.9531
-285.983
522.365
-39.7842
-774.461
-19.5878
794.048
-201.127
545.796
-344.669
-206.259
480.618
156.337
-513.924
313.346
-104.364
119.462
432.789
-426.07
430.759
-319.268
-137.819
457.087
-523.908
50.5646
321.255
38.5755
27.4573
-263.622
253.195
-65.9554
-187.24
-98.6971
-101.905
290.041
-77.7672
-276.331
54.3463
221.986
-301.027
-93.4364
394.463
-276.191
336.023
-59.8319
-75.3474
268.606
-331.509
-130.258
461.767
-236.519
104.956
131.562
-132.547
-48.1511
54.377
-650.33
595.953
-180.939
-251.812
-293.551
-239.173
-336.034
-90.1787
-211.483
-71.1369
282.62
415.265
639.718
174.164
-233.731
59.567
157.43
524.362
219.187
34.0085
172.623
-247.394
74.771
-389.287
-149.373
-529.68
-92.2628
351.037
-181.344
315.463
-30.0066
649.899
-165.904
-4.68449
229.937
-244.187
276.411
-32.2246
713.551
1.52491
289.199
-601.935
492.36
109.575
219.254
61.5885
205.615
-34.9507
214.846
-328.439
84.935
-330.369
17.1541
-355.24
360.786
-5.54613
86.4755
-191.13
175.895
44.121
-320.615
321.831
-1.21605
278.663
-339.655
246.806
-15.5973
-357.439
-125.072
-65.8541
273.136
12.0752
242.547
304.75
3.47051
-383.225
-124.175
507.4
-80.26
-150.958
-198.645
-25.3618
62.9938
249.729
262.143
-294.045
305.819
-65.0023
-247.756
277.52
-29.7641
-1062.18
718.857
343.318
-420.173
126.42
315.366
12.4044
-327.77
-61.5731
349.616
566.804
-178.336
-26.9958
205.332
-68.8626
-219.637
-264.207
-56.9687
321.176
-287.746
-55.2789
343.025
-70.015
-510.137
-91.7982
-797.845
785.502
12.3428
42.8026
245.983
-288.785
48.1281
308.852
-178.41
463.949
-285.539
-233.22
-69.1237
-465.561
103.207
-208.479
185.271
-251.066
-314.567
-104.221
418.788
-117.951
453.236
-335.285
-382.709
-80.6888
-229.463
-98.7513
2.27846
-424.518
-120.18
-203.114
684.054
13.6105
647.237
-660.848
-198.333
44.9117
227.429
-812.254
584.825
153.315
-394.779
300.023
-40.7098
97.9797
-1010.09
-217.613
-106.462
440.892
-7.21196
-506.995
-389.06
-109.85
-657.428
205.698
-396.507
190.809
-6.15459
289.965
-329.025
-91.7531
420.778
-14.8861
-273.263
288.149
829.962
-116.41
-491.123
481.611
-59.5067
-714.954
-90.4367
443.891
-846.7
783.501
298.71
-469.973
402.756
-91.1561
-119.503
166.748
177.552
-344.3
-438.269
-244.978
184.439
19.3471
-203.786
-206.63
912.15
30.142
-992.012
559.728
-211.441
-93.1017
304.543
736.837
37.2492
354.955
-81.4266
375.171
-355.562
-402.302
409.334
-7.03255
325.703
-326.685
0.981431
360.24
-91.9163
-15.8651
-418.466
-144.509
-219.136
-118.027
-196.84
-105.98
-598.253
799.413
-201.16
-233.094
3.05382
-211.894
-423.978
-462.089
411.961
84.6112
-304.171
-101.501
-125.295
226.796
-43.9665
390.581
-346.614
346.12
-61.1336
217.181
-65.2696
-151.911
98.5726
-230.328
134.306
137.375
304.357
-95.0022
-321.082
-89.0301
222.533
558.328
-143.617
26.3195
-773.627
747.308
-274.403
108.467
-188.04
-30.1095
-74.1052
333.121
57.9757
771.963
-698.971
856.348
-110.827
-745.521
378.949
-75.9601
-302.989
102.308
-215.954
-94.6093
509.178
-414.569
-226.691
-61.7649
24.4288
-735.025
438.476
-84.7873
-291.042
288.054
2.98811
-211.483
-49.7498
261.232
205.115
24.1084
-229.224
-33.4091
-97.8685
-447.671
-614.504
-427.088
204.167
1.10006
-206.308
-14.3566
240.977
54.2258
-536.539
482.314
-316.949
222.272
-399.022
156.064
-356.801
685.487
-317.168
68.7518
-270.447
201.695
-136.811
298.872
587.229
-160.551
-212.214
-143.066
232.223
893.575
90.7112
-299.562
224.034
46.7521
725.211
-12.6422
193.558
-325.018
-93.4234
385.8
-85.2998
-442.157
-515.977
151.672
364.305
-164.757
-521.737
686.494
-578.541
1007.36
-733.014
134.761
-469.328
-279.567
266.996
107.814
-931.614
60.2281
871.385
-339.993
385.873
-91.7207
-6.5262
360.424
326.024
9.99924
225.024
-198.774
-26.2504
-303.735
97.1041
-195.407
-11.0768
242.857
361.828
-93.9798
651.696
-133.718
280.709
103.356
552.217
-120.57
508.556
-98.0623
250.513
-31.8288
-218.684
427.79
-484.658
-331.673
816.332
542.384
-253.694
-285.092
-550.37
80.5372
469.833
305.301
-62.7972
-711.186
677.56
33.6258
519.892
-68.9951
-31.4238
635.492
-604.068
-366.032
278.87
284.256
82.6838
417.476
129.591
-378.794
213.13
-27.7919
346.881
-0.760789
-429.471
-127.011
-50.6657
590.595
324.792
-317.056
-7.73603
-513.94
56.6187
-374.399
-331.164
301.157
46.5696
327.404
-286.83
333.598
-54.7275
-146.986
-270.16
-257.328
-17.1215
274.449
-401.159
-112.274
-33.2117
547.12
-38.0367
-7.54753
475.589
571.788
-26.3567
-166.217
-270.35
321.985
-51.635
-65.6859
232.918
32.4062
-743.592
-318.621
-233.083
346.016
-391.437
-61.6542
450.569
638.603
217.301
-855.904
-155.164
572.804
-134.328
318.485
-245.447
-73.0378
-81.0786
-587.519
-201.482
27.8467
202.952
123.071
-140.086
215.688
-280.146
-287.712
338.75
-51.0375
228.074
303.319
-423.482
720.165
426.388
-292.093
365.143
-73.0497
-263.277
-460.676
-220.225
837.425
18.9233
403.659
-56.7776
-961.754
30.1401
385.287
-79.4144
-744.758
-10.6021
-302.514
634.741
207.168
-89.6733
-99.0735
8.52653
297.195
-384.574
1.82112
382.753
-237.133
-134.122
206.368
-105.391
-474.132
-91.8012
491.85
-84.1211
337.722
-4.49535
-309.585
-101.518
-127.243
-519.187
371.965
-113.873
653.24
-628.811
-269.565
362.31
-92.7448
-230.858
64.0229
282.892
22.9573
-448.681
-473.016
-414.301
973.843
-462.103
-511.74
561.919
-106.567
-508.996
-120.118
-93.3373
18.3812
508.492
-125.899
10.9621
50.7147
178.955
-223.497
-213.236
59.2403
-99.1032
545.122
-126.183
-406.25
-338.371
283.135
266.665
-0.398449
425.399
-87.6775
-54.1232
-148.991
-155.601
-308.688
31.1595
69.2048
-267.85
439.575
-651.27
594.501
-108.674
-485.826
758.933
-726.527
416.965
-70.9491
-256.666
-292.561
34.424
574.868
-124.298
-758.274
784.594
218.8
-3.57665
-215.223
-139.037
223.648
459.285
-58.4164
601.454
-146.74
-281.955
283.48
-111.104
-83.7682
-211.087
260.125
-49.0382
-102.645
269.717
297.421
-39.2707
-40.4837
250.914
-473.524
-278.079
270.771
-235.209
-35.5616
-415.471
404.11
11.3612
-17.941
-131.597
297.601
290.099
-296.131
6.03189
-246.805
-89.1707
-13.3755
139.707
-323.092
404.857
-43.1768
787.205
-744.028
-507.291
341.592
-38.2726
30.371
347.419
12.5485
-359.967
7.05315
382.024
220.438
495.401
29.6172
495.694
24.3151
355.572
-47.8678
-66.5185
239.142
251.788
60.7148
-870.089
883.7
-301.58
285.429
16.1512
-549.969
251.047
-0.132643
787.191
-578.405
-208.786
260.984
-186.128
-74.8562
433.345
229.158
27.3613
494.17
-199.11
618.53
-419.42
90.8545
-50.7412
843.209
-792.467
-413.681
295.872
476.619
198.977
236.588
-0.383191
225.151
-179.921
-477.709
657.629
37.6845
209.122
58.1377
-560.923
571.182
-508.732
810.985
-268.888
-542.097
-281.705
-182.787
65.3895
270.545
0.731674
-227.939
-278.758
-352.855
-498.409
5.28973
186.34
-191.63
292.647
265.897
197.096
-792.55
768.506
24.0447
-17.2208
408.694
-452.469
43.7759
278.677
77.426
0.238734
766.805
-767.044
88.7408
233.245
58.4088
89.3896
-292.875
307.101
-14.2256
-913.84
-53.3343
198.069
-124.44
-485.678
610.119
-296.093
844.961
-148.077
-390.587
-123.353
-561.247
113.172
378.692
36.2254
-256.412
-25.5427
198.026
-147.311
8.28012
848.538
47.2335
-15.4111
304.61
473.319
-357.347
-115.972
-630.409
244.281
386.128
124.357
165.684
359.728
-356.654
262.33
137.497
281.291
229.764
244.109
33.4109
69.6755
-483.803
414.128
830.046
-244.043
-586.003
167.892
206.937
-374.829
357.564
402.122
249.361
3.72755
-626.285
-305.979
260.684
-889.877
368.139
79.5793
-462.304
73.8753
-634.639
-100.387
247.316
-361.108
376.172
551.319
-568.267
645.067
-76.7997
-12.4895
374.19
411.162
-336.446
-33.5032
168.436
-134.933
-303.455
297.292
-18.2145
648.4
-347.263
-22.835
377.609
-354.774
80.6052
-183.195
249.428
-66.233
-280.425
228.494
51.9308
278.354
532.631
146.285
-404.107
437.856
-1093.51
1093.75
117.905
-9.39537
435.272
163.601
-55.1343
415.681
340.449
215.883
23.665
279.459
365.606
-26.0165
-339.589
-650.18
648.63
1.55082
233.043
198.852
-12.5123
502.062
-432.387
-212.566
763.885
288.084
88.3271
263.406
-367.998
-175.673
26.6637
244.107
761.999
-169.264
-592.735
-873.775
943.303
288.588
361.483
245.184
-232.779
554.109
-992.378
447.732
330.341
314.644
-41.4732
455.969
291.524
59.675
-417.593
357.918
-211.83
316.042
-13.6357
-23.4685
-824.359
694.152
839.528
-202.593
334.929
268.53
123.03
340.435
-20.0658
-320.37
269.653
300.14
285.368
-190.311
89.49
-274.448
284.486
-10.0378
435.461
-548.386
-252.409
-4.44644
220.33
454.779
-578.953
-277.438
21.0262
454.688
-121.355
-233.798
355.152
-329.801
-186.176
634.796
106.197
426.493
-943.414
516.921
-460.8
418.532
42.2678
-3.24651
254.363
-251.117
338.473
-257.868
258.702
-236.07
-22.6326
304.659
31.9763
-215.171
-848.246
83.5572
342.479
-426.036
-31.6313
721.434
-689.803
323.022
-296.058
-26.9649
-445.688
456.945
311.274
-253.298
-399.996
978.647
-578.651
281.661
-13.8615
198.301
546.09
453.91
-178.104
210.437
11.7047
-222.142
-28.1875
399.936
-593.294
33.5419
559.752
204.715
250.922
-349.673
-41.098
-374.373
-912.15
861.409
-488.26
1034.35
337.418
-54.2923
239.771
-1.94766
-237.823
489.312
-435.428
54.9274
-705.258
-460.348
-0.45117
-258.876
319.649
-469.51
-499.089
298.55
-18.6966
-279.853
-959.231
421.646
-797.845
157.667
33.6457
-191.312
31.3993
598.259
648.625
-634.065
-283.425
834.422
-71.7952
215.068
368.702
-531.164
162.462
-125.248
351.32
-226.073
-703.847
750.599
-387.535
212.865
-224.489
233.65
-9.16118
-275.228
701.721
314.419
622.435
27.7985
-786.073
-232.007
236.428
-342.891
-43.2381
-228.041
239.761
-896.207
980.489
175.863
39.3642
-215.228
265.196
-303.358
-81.2912
11.4904
388.293
209.858
-598.151
502.734
-902.73
505.39
-51.1139
-223.43
-4.14652
227.576
-114.552
-194.136
-291.936
73.3653
-164.91
-138.227
302.957
291.08
-264.416
-115.871
-318.543
434.413
281.881
290.384
-17.5313
-293.818
311.349
-691.275
17.8065
851.572
-913.84
970.95
-971.321
951.62
988.163
-988.163
-873.775
-1010.09
273.119
-236.894
-241.329
-237.894
-188.452
-3.66638
751.108
-966.694
215.585
-883.7
13.1467
-283.588
193.569
-35.9027
-763.417
791.215
228.275
-6.81717
-221.458
-269.524
254.638
-11.7345
-249.514
261.249
247.804
-14.0796
-233.724
202.216
-229.516
-23.4928
-253.184
276.677
-187.971
200.672
-12.7014
250.648
281.019
-347.957
407.632
106.787
-183.875
77.088
-382.64
-600.358
-194.146
207.361
-13.2154
-419.762
-84.0079
503.77
195.241
-175.894
42.4074
201.833
-25.9692
-360.101
265.224
496.296
-120.125
209.574
458.481
-49.787
308.308
-384.925
76.6177
18.798
-635.716
667.116
262.811
-461.921
-783.757
730.314
53.4428
480.8
497.847
70.9792
425.317
-265.272
259.118
-73.1101
-710.647
235.487
-328.589
711.594
-912.755
337.168
-746.389
409.221
129.578
263.098
-205.233
-57.8646
-49.7135
-388.32
-867.718
592.491
-2.54049
259.691
3.8911
-306.154
302.263
17.5237
-45.4724
236.455
281.021
-36.9137
184.68
-58.0266
-126.653
738.554
20.3791
272.383
304.671
6.52687
181.78
-226.74
44.9599
228.78
-301.159
297.635
-314.58
-203.076
217.25
-14.174
74.6471
-494.409
238.648
166.209
-85.4124
836.521
-607.732
433.975
568.658
-667.121
218.895
-323.259
312.22
-437.468
184.275
-302.303
218.53
-194.422
-318.797
212.863
-191.445
-8.2412
199.687
215.313
-321.293
367.733
-265.95
-101.782
-2.87924
485.193
-442.516
-560.356
1002.87
-738.232
641.079
-50.4327
-320.023
370.455
21.3933
53.4785
-289.167
279.201
-271.223
-6.21484
197.701
54.4004
-252.101
-182.788
-213.718
-292.24
222.453
-208.127
-14.3264
-306.154
-407.299
407.299
187.489
-658.664
164.314
169.348
302.263
727.27
-234.911
-41.8172
-645.835
687.652
523.743
-84.2468
236.524
-365.406
316.241
387.175
244.326
4.28528
231.329
-171.646
-59.6826
-36.313
-686.716
686.716
-174.538
-388.241
-91.7686
-116.71
205.849
20.2632
-138.77
205.637
-423.701
479.439
-152.933
-203.868
731.152
-502.098
-229.053
-110.239
-105.715
532.513
-172.772
-105.412
-35.9691
-486.967
522.936
-500.497
-287.352
510.171
-16.0014
-22.5425
-725.413
545.492
-458.264
-65.6447
767.745
19.4598
231.702
-112.979
773.779
-660.8
96.6078
851.08
683.224
850.142
150.789
-216.058
-387.44
-72.9086
-237.629
249.018
-222.016
49.6181
-172.55
-897.461
41.2929
856.168
13.6805
394.663
811.577
-263.835
248.145
15.6903
1066.35
-542.369
-523.982
-168.545
6.28346
475.327
202.525
-36.6669
276.441
273.685
426.585
-772.041
956.313
-184.272
-343.65
5.27915
232.66
18.3726
665.681
-81.9759
-219.604
-173.369
-240.932
204.077
92.2953
634.975
690.073
-731.89
91.7985
-795.646
23.0375
654.523
752.272
-849.607
97.3354
-627.682
536.122
91.5608
627.277
-563.609
-63.6679
-446.811
521.458
52.0879
-86.7098
-123.119
209.829
126.072
305.14
-600.627
434.857
187.579
-187.579
-200.22
219.114
-879.241
436.725
-659.632
535.192
-550.37
870.089
-955.502
24.0726
-237.439
205.991
-172.226
-222.552
-245.967
22.5973
357.822
36.2099
342.739
-352.608
-360.168
33.483
425.764
-679.458
-55.3063
-726.798
782.105
223.956
-273.706
55.2512
111.628
-236.923
-623.677
655.816
-195.547
-55.5193
8.06479
535.681
140.314
-310.635
-20.5291
-455.098
957.832
864.104
-864.104
333.851
43.758
12.6741
462.915
-761.591
17.563
650.284
16.8316
80.2809
417.344
-497.625
216.183
302.904
-3.85014
9.08659
672.666
18.3974
-834.334
632.852
195.7
303.116
-498.816
-824.595
555.707
210.432
-410.633
21.0716
-649.883
-185.354
-47.0687
232.423
-87.0815
203.666
-116.584
15.2914
45.1615
356.981
41.4784
-204.088
17.2199
-273.841
529.837
658.91
62.5238
12.2602
128.592
-92.8909
-195.894
197.38
395.816
-505.321
-707.852
-64.1895
-200.911
-467.09
-476.323
-274.021
-360.635
624.734
-515.159
6.77113
798.331
-805.102
317.823
49.9096
393.443
-59.5919
617.231
-53.5499
-563.681
313.755
-16.1178
-570.023
-97.5044
667.528
-28.2008
-243.58
-604.242
438.338
-165.837
-69.5087
235.346
230.227
611.254
66.2588
-234.02
-94.4186
24.9482
205.263
-546.23
638.525
194.553
3.74781
-200.307
398.041
-197.734
301.717
-850.871
549.154
-778.447