/*--------------------------------*- C++ -*----------------------------------*\
  =========                 |
  \\      /  F ield         | OpenFOAM: The Open Source CFD Toolbox
   \\    /   O peration     | Website:  https://openfoam.org
    \\  /    A nd           | Version:  7
     \\/     M anipulation  |
\*---------------------------------------------------------------------------*/
FoamFile
{
    version     2.0;
    format      ascii;
    class       surfaceScalarField;
    location    "40";
    object      phi;
}
// * * * * * * * * * * * * * * * * * * * * * * * * * * * * * * * * * * * * * //

dimensions      [0 3 -1 0 0 0 0];

internalField   nonuniform List<scalar> 
31093
(
588.286
-435.606
-152.681
271.175
43.2449
-314.42
947.083
-1138.1
191.013
-395.17
994.306
-599.136
-631.937
671.013
-39.0765
-687.183
55.2464
225.062
-44.0031
-181.059
588.417
-456.485
-131.932
206.817
-290.45
83.6333
75.6336
512.783
-90.2534
265.418
-175.164
-246.774
275.427
-28.6535
-231.391
-21.9189
253.31
34.7161
553.57
620.881
-649.795
28.9142
-965.098
569.928
-291.974
355.129
-63.1553
-94.2043
-990.105
1084.31
-264.146
232.366
31.78
305.714
-34.5395
-309.581
296.498
13.0825
0.644104
-247.418
-457.911
533.545
279.187
-335.374
56.1869
947.083
-357.688
90.2095
267.478
892.443
-976.376
83.9334
339.566
-145.571
-193.995
-175.655
-102.011
277.665
-117.935
-146.211
-592.233
740.746
-148.513
362.896
-310.978
-51.9183
348.794
-58.841
-289.953
555.516
-294.378
-261.138
-717.039
780.437
-63.3977
-730.991
138.758
145.882
-355.084
209.202
932.374
-932.374
784.896
-344.467
-440.429
281.539
425.58
-707.119
2.1205
802.101
-804.222
-272.077
79.498
192.579
-860.85
689.67
171.179
973.769
-81.3259
-132.887
-224.801
116.701
72.6239
-189.325
1090.43
-464.842
-625.587
321.259
-261.417
-59.8423
842.904
-30.425
-812.479
239.059
-227.656
-11.4032
-787.754
70.7142
47.4408
-756.309
708.868
-283.193
-150.103
433.296
763.014
-835.391
72.3771
157.793
-395.146
237.354
14.9047
-208.788
193.883
378.571
-108.347
-270.223
694.637
-751.206
56.5688
-61.3897
-293.273
354.662
-54.0446
-237.929
-663.136
431.269
231.867
-50.4608
244.92
-194.459
479.972
-482.449
2.47691
-177.877
-352.91
530.786
-697.695
828.148
-130.454
-714.454
106.946
607.508
514.419
-573.175
58.7562
-650.3
-64.1541
-163.817
-372.552
536.369
-139.9
-72.6679
212.568
361.789
-555.523
193.734
331.847
-252.851
-78.9963
675.03
-54.1493
-269.863
-38.2073
308.07
1062.01
-554.375
-507.634
-77.9083
480.03
-402.122
331.449
-138.315
-193.134
-227.155
15.3687
211.787
908.699
-627.159
566.857
-832.601
265.745
632.338
-525.392
816.738
-194.19
-622.548
309.263
-98.4317
-210.831
298.877
-92.0605
134.158
-184.618
-592.743
-268.106
236.599
-282.451
45.852
-61.9299
165.562
-103.632
-624.139
446.262
147.198
-305.282
158.083
-406.191
685.574
-279.384
738.977
148.791
-887.768
904.463
-130.15
-774.313
185.232
-302.243
117.012
217.397
103.862
424.19
55.7821
263.847
-78.6154
-779.287
789.515
-10.2279
-333.049
242.795
982.576
-887.306
-95.2705
279.523
-132.324
405.085
-416.132
11.0463
180.885
105.022
-285.908
471.83
-202.898
-268.932
1224
-1224
482.994
31.7331
-514.727
-40.6085
252.544
-211.936
-487.007
234.963
252.044
265.589
8.93588
-274.525
-251.584
-79.5175
331.102
38.8551
-214.51
183.415
41.6473
393.96
-108.725
-285.235
-265.946
-401.987
667.933
-576.051
498.143
-568.689
-431.373
-369.203
-169.508
538.711
576.611
55.7276
-313.225
-10.7553
323.981
-1030.11
260.419
769.687
-170.787
909.764
56.1317
258.853
-314.985
386.701
-607.326
220.625
232.271
-362.897
130.626
132.034
423.482
760.603
-854.807
40.8579
184.271
-225.129
184.623
154.942
271.331
91.5655
132.593
-501.797
-32.2604
-149.249
181.51
22.9127
216.146
858.278
-856.157
290.501
494.396
137.891
-347.586
209.695
261.898
962.1
263.378
-36.8505
-226.527
-279.469
-30.1125
-405.562
35.3932
370.168
99.3896
67.05
-166.44
296.141
-240.01
32.2884
-302.152
203.985
127.862
-295.495
214.782
80.7121
-552.418
66.0805
486.338
-97.8712
235.762
-272.82
94.502
178.318
-94.3876
-222.848
317.236
-24.629
300.137
-275.508
-765.156
-211.22
127.403
-221.79
191.548
971.736
-67.2723
-229.315
-54.0521
283.367
150.977
665.761
-238.46
-34.3602
-734.151
141.407
83.7224
195.464
68.0872
-158.915
90.8277
-9.20513
-222.186
-198.067
355.86
-246.533
202.53
-36.3535
-416.134
-136.284
-191.846
-666.031
857.876
-171.084
109.154
345.481
59.6038
288.436
20.8267
445.606
34.4248
-327.574
473.456
339.312
-75.9345
-198.184
-119.227
317.411
-4.15284
-189.078
193.231
398.06
-442.689
44.6287
105.219
111.189
-216.408
20.5555
328.239
-571.884
509.289
62.5949
-546.621
-26.2238
572.845
-447.754
-128.297
-27.5677
215.395
-187.828
31.1075
-200.998
169.891
735.584
196.791
331.363
69.8139
-401.177
-80.3649
201.016
-120.651
267.38
38.3344
227.071
-123.815
-103.256
587.752
-225.964
27.7339
954.843
158.605
250.872
104.16
-355.033
280.536
-239.678
271.223
-401.035
129.812
66.8859
-954.192
-598.509
434.692
216.427
-148.34
-9.67038
273.669
-263.999
66.2192
265.144
-20.325
300.756
-280.431
325.534
-58.1537
14.9241
235.948
276.496
-387.308
110.811
-72.7287
329.573
-256.844
-486.091
185.312
-361.47
176.158
255.42
-400.217
144.797
-311.303
284.291
27.0123
-10.2968
-327.158
337.454
774.167
-726.726
196.849
-181.944
619.734
-635.012
15.2782
415.567
98.8519
-863.432
535.926
327.506
-38.8721
303.195
-264.323
-84.6853
-150.261
234.947
-279.152
574.47
487.539
513.917
-513.917
-516.607
-513.499
-255.664
-231.343
899.558
-609.057
-2.74783
267.282
-264.534
-180.711
-246.178
426.888
101.491
138.081
-239.572
508.459
-914.649
-325.914
246.396
-12.6812
-392.88
351.904
-362.201
-1068.64
499.946
-485.249
485.249
-641.24
-6.68635
647.926
635.384
-248.683
309.006
129.041
-438.047
-316.061
275.453
-218.035
209.642
8.39322
-521.146
818.712
-297.566
307.114
-70.5151
574.486
-91.4924
-418.732
220.548
192.919
70.9277
-635.222
454.511
216.592
-354.906
88.1116
-172.797
241.36
92.9506
-334.311
353.119
-120.848
-977.253
-246.745
621.914
-45.3032
-61.4366
281.079
-219.642
557.562
-460.065
-97.4976
-74.5449
770.923
-696.378
-53.2258
896.13
263.846
1.74315
-86.44
187.931
-61.0704
529.698
-468.627
-542.813
198.346
-164.25
9.77116
154.479
-125.772
434.778
-51.4512
237.726
-186.274
-58.2023
-213.875
193.279
-93.8898
-77.549
194.25
22.419
-250.576
228.157
35.5318
455.289
-490.821
710.476
49.3832
-759.86
285.164
21.9499
-82.6742
-163.859
-114.609
10.4051
257.302
-267.707
33.5093
360.451
222.155
-743.3
325.234
-193.251
-89.2003
122.529
-820.653
698.124
69.5617
-376.861
-196.314
-297.342
229.053
68.2885
-354.661
-308.475
567.782
-999.155
235.386
-48.7054
-186.68
-34.6276
218.012
-183.384
-1037.36
330.308
707.047
-48.6191
382.052
-333.433
324.451
54.1198
-255.543
113.825
141.718
358.021
-82.6659
-275.355
385.331
-114.108
-191.131
296.154
289.472
-215.17
136.51
-171.137
-82.806
594.223
-511.417
750.839
-183.982
-122.149
-334.516
456.665
854.025
-731.496
239.963
-229.557
-29.2689
-298.305
-537.168
71.7598
90.628
-162.388
345.399
-52.4044
-292.995
-86.0632
192.061
-105.998
376.66
-100.164
-92.9515
-367.688
460.64
7.66766
843.924
-851.591
-776.574
803.846
-27.2717
-242.09
75.5732
166.517
-753.932
439.726
314.206
47.5912
-165.526
-2.83417
177.092
-174.258
-262.252
262.896
6.28646
-231.191
224.905
222.987
-7.59147
148.611
-530.491
381.88
231.956
-209.538
-40.3057
-186.85
-56.307
529.763
325.095
-41.8419
-283.253
-733.854
741.521
-474.231
342.119
132.112
440.656
-308.063
471.629
-861.993
390.365
-314.373
-80.7735
-726.616
28.9217
-165.642
-89.901
-645.524
631.455
14.0687
-183.171
351.853
-168.682
315.425
325.074
262.655
-170.408
-92.2463
285.293
-269.375
-464.775
-209.126
-93.1172
269.451
-179.632
-89.8192
-528.537
-9.33147
537.868
201.212
-95.9927
1006.22
-1006.22
433.592
-492.366
-544.989
150.419
210.132
-360.551
-454.069
424.8
-332.212
294.005
-326.021
433.437
139.66
-573.097
50.7176
712.296
547.743
-114.305
401.07
-570.578
97.7578
226.116
-323.873
-211.104
-228.385
439.49
269.819
78.4832
-348.302
-297.37
-544.652
842.022
492.138
-758.085
359.646
7.34265
-366.989
-990.105
417.757
96.1603
246.157
-250.31
300.759
-362.149
-37.6814
156.213
-118.532
16.6728
-261.72
-254.731
11.866
242.865
228.013
41.4384
277.264
-357.629
227.45
-93.2927
-512.792
-171.029
-134.253
-391.594
-362.338
-943.634
-172.769
1116.4
-496.027
942.565
-446.539
-143.132
-19.708
162.84
-668.382
636.675
31.7069
-251.336
343.811
-92.475
265.996
291.567
2.43159
-211.219
874.003
-912.56
38.5566
445.625
-107.92
187.418
-386.48
191.307
195.173
-231.715
44.733
186.982
-493.445
-35.092
135.45
-243.797
311.103
-69.7425
-1090.96
899.115
-523.543
462.473
-128.189
248.495
-120.306
-75.0135
387.887
-312.873
372.945
-319.284
-53.6602
-391.804
46.9554
-211.206
-289.192
681.126
-391.934
-71.5748
-261.474
-66.9132
426.56
4.43588
192.286
-196.722
900.162
190.267
-340.038
-46.442
189.383
183.561
-372.626
-456.344
828.97
-828.495
363.653
450.076
-951.802
501.726
85.3305
-415.765
330.434
-288.581
202.518
-13.1778
468.467
-169.393
-192.077
-460.543
149.565
615.97
5.9442
23.2854
212.1
428.753
-99.7803
-328.973
-113.298
-87.3431
200.641
126.732
204.689
-262.891
9.11505
-118.527
-59.8674
178.395
-386.641
-20.3163
406.957
1.62513
284.074
-285.699
-102.924
493.347
-390.423
-411.918
347.782
-77.9631
-900.119
825.574
360.533
-328.8
-90.47
-310.565
-92.3024
-295.005
-655.28
-124.007
-513.388
267.406
245.982
-289.642
36.7909
-111.355
127.881
15.2001
193.089
416.492
-609.581
29.7738
-273.543
12.1262
-5.94548
306.701
150.958
-259.683
-49.8956
-248.097
297.993
-810.666
796.252
14.4142
230.515
-252.415
21.9005
362.207
537.351
295.4
-378.066
-21.4472
306.611
-724.603
694.178
288.428
-211.671
-76.7578
294.381
-20.7117
-190.823
-167.338
-315.077
482.415
-213.945
-97.3583
318.825
-371.229
454.554
-547.506
120.14
75.182
-195.322
206.468
-128.673
-77.7948
278.139
-650.766
150.185
-522.737
248.663
-92.8326
-155.831
47.5812
-812.737
-435.26
311.242
-353.084
-569.517
654.848
-483.52
67.3855
368.31
-665.679
154.747
-252.338
97.5914
-850.472
898.053
-30.2288
-6.8908
808.992
-217.142
216.097
1.04566
-315.181
197.678
117.504
-229.388
-170.829
-58.757
428.247
-369.49
556.468
-639.274
49.499
-233.47
183.971
177.965
-128.466
297.639
81.1565
-264.328
176.154
17.125
-146.276
766.884
107.12
-456.05
187.118
-239.852
174.407
65.4449
198.727
-250.178
-4.07095
191.251
-187.18
-310.741
260.846
-221.451
-16.4165
237.867
-512.113
389.964
172.158
-196.787
-580.765
-64.7584
614.984
4.75038
-276.291
-225.506
193.678
-76.7516
-116.927
-118.435
-102.981
221.416
135.563
-211.471
75.9084
-77.0605
290.514
-213.454
-225.376
212.055
13.3207
-194.067
-31.3094
324.832
103.922
978.977
-717.079
-289.255
-318.605
247.03
191.524
33.0523
-224.577
-982.557
805.159
177.397
-395.756
168.886
226.87
-506.151
-122.624
628.775
-158.914
-806.185
12.9197
-298.827
-472.293
451.977
-100.52
-214.662
232.026
-14.0148
660.324
-102.85
-557.474
347.112
-450.036
-159.245
756.28
-597.035
-216.193
-225
441.193
-285.234
269.01
16.2238
5.9491
-78.2505
213.813
-100.45
-196.892
-525.87
12.4821
-16.14
-90.5457
-744.845
41.204
-432.21
-221.716
103.281
-291.168
189.157
698.97
255.56
-309.612
163.611
63.4603
-309.008
14.0445
294.963
-266.174
34.4591
-36.9265
-997.016
778.617
218.4
-17.9703
227.612
-115.592
273.675
492.971
-524.436
31.4653
-282.094
-192.136
-360.765
396.158
-36.4786
156.887
-120.408
963.385
-800.533
-162.851
19.6615
-533.478
513.816
-6.52194
-163.395
169.917
-179.683
-109.959
487.721
-63.5314
-237.782
503.778
-560.024
122.671
437.353
-183.215
273.425
508.003
-355.762
-152.242
294.768
8.29409
-303.062
-276.702
215.266
660.14
-86.5643
-573.576
437.857
-244.768
-433.587
389.871
43.716
287.063
-5.98346
-250.54
-58.4678
-180.158
56.3424
199.696
-500.788
67.3388
433.449
-263.649
260.901
-350.543
352.169
-334.909
-67.4916
-417.757
-459.601
400.844
-530.62
1001.8
-471.176
-132.322
95.8431
-176.925
-218.831
488.457
-50.3057
-438.151
-17.4111
-298.618
316.03
-506.673
563.821
-57.1479
408.223
202.738
-100.111
-102.627
163.985
-241.045
196.99
-201.061
-305.228
125.596
423.77
-404.108
-11.5281
-273.706
82.6851
-904.821
904.821
130.142
2.90832
420.342
-423.251
-170.328
185.726
-15.3976
-525.071
313.967
-426.544
70.4619
356.082
43.3388
150.34
-487.587
369.461
118.126
-239.124
436.638
51.0838
308.493
42.084
-350.577
342.986
-84.133
-435.879
-24.1858
117.512
-362.216
287.203
330.143
-222.396
-107.747
-53.0398
145.457
-92.4174
-943.634
-298.807
-215.436
119.027
96.4086
-296.554
237.713
-432.773
-519.029
251.428
527.083
-778.511
-144.184
-532.135
676.319
-449.331
173.04
-17.5545
193.709
214.11
-17.1194
-657.324
640.505
16.8186
81.4834
356.374
299.404
-69.5142
-229.89
-97.3361
-527.241
624.577
-577.793
813.166
-235.373
-572.182
59.8461
-788.827
186.642
602.185
-980.856
413.322
567.534
-289.12
-270.904
-123.956
484.489
-968.576
437.956
-675.535
814.371
-138.835
617.863
-715.199
-212.372
250.918
-228.005
124.308
-799.843
-164.154
-694.356
858.51
673.396
-13.2557
501.31
326.838
-58.4941
275.891
-116.173
96.4655
-116.969
191.115
-544.025
254.405
-227.256
-27.1492
-136.566
321.437
-184.871
-187.514
-86.029
523.838
-30.8673
-290.73
273.318
13.2523
623.422
-703.897
-650.534
-255.91
-244.878
42.4677
222.95
18.2001
441.294
-459.494
-370.054
352.358
17.6952
-141.566
156.935
561.645
440.151
-352.372
-192.599
544.97
193.68
-247.725
-82.1665
286.151
-72.9883
-353.556
196.395
-233.245
-236.822
318.305
202.854
-130.23
-460.862
-519.994
-296.154
-12.397
308.551
-287.434
163.822
123.612
-174.09
178.526
-201.324
-86.1099
225.819
-219.532
249.161
-282.745
33.5838
272.244
-61.132
-211.112
-805.193
646.28
-310.655
-304.08
52.7436
-297.467
304.809
272.763
-101.818
510.041
190.488
-52.4069
283.811
531.477
-815.287
-193.857
166.152
40.3153
-577.981
410.643
-956.254
290.224
304.184
-800.21
-473.112
-73.132
546.244
-541.308
469.529
71.7786
281.338
-212.012
41.6834
-640.132
402.35
-13.5858
168.333
-321.875
340.075
154.442
-510.203
-140.749
-37.7138
230.633
-7.80143
276.812
271.111
-86.5575
197.746
772.74
-1.81647
302.227
-289.346
-12.8816
-240.324
-107.261
-113.68
-35.0295
265.544
688.86
253.706
79.5528
194.122
336.076
-119.484
-80.562
289.184
-208.622
-425.904
91.3876
495.037
-230.492
-264.545
287.181
-294.983
-16.2886
-674.334
690.623
225.557
-835.051
443.247
-241.765
40.2585
-323.512
-92.7306
-389.162
481.892
-125.344
135.115
261.249
-319.743
290.81
9.3273
-876.127
329.506
53.3948
-346.389
-725.857
-523.441
-459.115
236.893
79.1076
-354.463
251.092
-333.258
160.431
88.2323
126.444
-221.961
95.5172
-499.97
132.282
512.928
-924.846
-170.556
93.8045
458.407
26.8415
-574.814
-422.202
17.9136
-598.679
-3.49127
298.259
-96.9397
375.785
-278.845
-125.767
-90.641
129.233
-195.632
-83.5196
-343.32
376.829
-223.722
-54.9438
278.666
-64.1266
227.949
-298.517
-259.969
241.976
17.9929
43.823
-250.05
290.308
371.221
-39.7165
-330.337
-22.8943
234.95
203.941
-29.1972
-174.744
-106.367
-466.904
53.9508
412.954
-291.608
-136.586
428.194
157.557
-210.597
314.644
-261.902
96.2598
-195.979
-125.651
321.629
790.615
330.199
-42.1578
-209.812
251.97
-18.9655
-522.343
-296.154
-742.848
369.553
373.296
1.78007
-296.158
-4.24719
275.578
-11.5649
227.662
255.089
-339.158
84.0686
-475.993
-122.516
-551.099
209.231
341.868
209.815
28.052
237.882
323.655
-621.815
298.16
218.262
-419.904
201.642
-362.16
387.627
-675.806
288.178
943.781
-916.047
-753.051
463.859
-407.947
-114.611
522.558
178.113
124.114
-333.324
562.543
-378.4
-184.143
391.513
-197.833
-826.205
248.412
250.758
244.279
-239.815
60.1329
378.86
-103.407
178.634
-180.022
1.38736
233.282
11.6377
588.539
-614.763
-511.812
203.202
308.61
73.2586
-339.856
-154.043
493.899
92.8934
379.17
-182.775
265.544
59.9899
-467.611
185.517
287.793
145.973
-433.765
122.632
-250.821
-162.537
-229.326
-206.28
-359.937
16.6172
-28.5461
-628.778
-38.3111
233.197
-194.886
-325.322
172.623
152.699
-366.632
-94.564
461.196
-237.917
-87.9968
186.953
16.9884
-318.089
81.0798
168.411
112.957
-281.368
-275.194
-139.703
414.897
-363.199
-291.908
272.097
19.8109
149.164
-365.973
216.81
150.488
-254.72
104.232
-35.486
-84.5364
-295.774
380.31
-390.569
221.176
211.732
-441.058
-281.613
136.917
144.695
-468.43
153.353
35.1619
-440.515
405.353
-196.838
-63.1311
161.249
389.407
-340.805
-48.6023
-213.353
203.259
10.0946
-258.671
139.558
119.113
-108.235
-131.617
-287.849
-116.539
921.698
-215.235
-35.3411
287.584
-486.344
294.208
137.812
-343.276
205.464
-381.28
-116.457
497.737
-472.027
-215.156
220.661
-29.1371
242.294
690.125
-706.414
-48.9595
-272.484
321.443
83.0234
-711.755
628.731
216.414
99.5775
-315.991
315.685
-105.554
-218.536
231.456
-363.523
-49.7688
413.292
-710.508
39.2891
671.219
-460.725
-174.497
-64.6163
-285.927
522.749
-3.85941
-774.494
-19.7863
794.28
-169.554
524.217
-354.663
-193.39
477.201
177.734
-517.59
335.047
-108.932
86.3683
443.329
-425.925
428.833
-335.724
-140.912
476.635
-523.739
50.6278
326.662
15.4573
51.9958
-270.532
269.107
-58.9927
-210.115
-100.098
-108.991
311.509
-86.9844
-275.232
72.0516
201.373
-301.507
-102.053
403.56
-291.092
356.421
-65.3291
-87.1277
285.854
-346.213
-132.484
478.698
-266.143
133.198
132.945
-143.312
-14.9637
41.6069
-652.75
611.143
-181.257
-252.33
-273.983
-256.508
-336.843
-98.4176
-217.45
-82.1037
299.554
415.325
639.692
177.606
-264.602
86.9957
147.819
507.028
239.555
29.5527
203.344
-255.33
51.9854
-363.385
-148.727
-530.904
-77.5645
362.857
-179.613
316.874
-35.5356
626.59
-172.078
-4.51036
230.329
-241.21
280.007
-38.7971
713.658
0.132713
287.049
-602.051
492.384
109.667
230.742
68.6615
198.995
-46.5504
194.3
-328.553
104.507
-329.307
20.043
-354.881
357.194
-2.31232
116.308
-219.941
175.325
24.7607
-320.435
318.253
2.18252
252.883
-307.827
249.416
-21.2592
-338.087
-115.982
-46.9605
239.54
11.8916
242.514
300.932
7.13807
-364.563
-138.039
502.602
-76.8509
-150.805
-198.306
-35.1639
88.6165
236.618
258.208
-293.238
301.043
-57.8585
-237.435
244.93
-7.49501
-1060.7
707.291
353.407
-424.14
132.532
295.913
-4.59329
-291.32
-70.1271
357.33
577.533
-182.873
-38.0803
220.954
-36.9551
-225.296
-262.236
-65.2909
327.527
-285.368
-63.355
348.723
-70.0032
-510.133
-91.9185
-797.941
785.565
12.3752
70.9624
223.839
-294.801
48.7182
286.867
-186.001
485.695
-299.694
-239.332
-79.2731
-433.545
111.292
-237.06
171.662
-261.563
-329.12
-111.097
440.218
-89.912
422.277
-332.366
-383.997
-88.2961
-249.746
-69.9971
2.09099
-431.486
-92.0572
-198.967
683.439
10.5297
637.11
-647.64
-197.745
48.4961
230.511
-815.99
585.479
179.951
-409.339
279
-26.4558
116.985
-1021.36
-244.658
-88.6005
437.699
-4.10748
-475.844
-403.885
-110.842
-657.394
213.102
-423.063
209.961
25.8353
264.679
-327.127
-63.6038
390.731
13.7978
-294.603
280.806
830.09
-116.432
-492.136
478.958
-59.2535
-715.24
-60.174
412.342
-846.742
783.345
295.426
-475.481
402.493
-96.16
-115.511
198.979
169.259
-368.238
-438.22
-248.124
183.751
19.0937
-202.844
-221.523
915.874
31.2093
-991.986
559.776
-226.056
-98.9683
325.024
729.819
30.7839
332.612
-86.216
371.585
-354.968
-401.823
405.912
-4.08909
332.094
-325.62
-6.47471
341.135
-98.841
-19.5031
-414.329
-119.149
-244.821
-115.73
-215.588
-108.286
-609.159
795.554
-186.396
-207.23
5.90564
-196.583
-391.743
-462.606
412.301
92.2104
-287.843
-132.442
-112.45
244.892
-42.8153
388.075
-345.259
312
-51.1544
219.846
-72.6398
-147.206
86.4181
-249.813
121.506
167.966
321.436
-105.022
-309.589
-113.772
217.634
529.645
-139.681
26.2317
-773.53
747.299
-299.601
122.164
-208.721
-30.2667
-42.5071
305.403
34.8099
771.686
-699.309
856.416
-110.86
-745.556
376.007
-74.5023
-301.504
127.832
-248.138
-89.9879
507.127
-417.139
-233.939
-56.5107
22.1893
-733.944
415.034
-107.071
-290.497
284.095
6.40177
-196.681
-76.3946
273.076
201.663
27.8521
-229.515
-36.6286
-120.895
-452.088
-608.611
-427.444
202.017
-20.0058
-227.444
-24.2591
249.816
58.6868
-538.721
480.035
-292.557
247.441
-424.366
185.774
-377.851
697.059
-323.654
67.6891
-267.989
200.3
-112.126
303.433
561.995
-160.925
-234.188
-143.801
228.023
868.409
86.4334
-308.551
229.936
46.2802
725.405
-11.0695
189.704
-322.92
-93.2113
364.201
-52.9593
-461.496
-529.215
156.806
372.408
-150.621
-510.469
661.091
-567.227
1012.85
-725.088
115.929
-487.125
-302.51
294.639
90.6924
-914.366
64.0989
850.267
-360.606
381.313
-62.4887
-11.3854
363.29
342.97
13.4508
232.987
-197.341
-35.6456
-323.598
102.075
-193.912
-19.441
243.399
373.143
-77.7435
622.035
-108.219
301.647
75.0127
557.906
-103.352
521.188
-104.697
260.558
-41.3544
-219.204
401.084
-478.754
-321.593
800.347
530.642
-263.235
-303.814
-556.912
80.4782
476.434
320.198
-73.1675
-711.324
677.367
33.9566
527.999
-76.0225
-28.3484
634.904
-606.555
-326.773
265.641
292.08
51.7307
440.341
107.401
-388.492
221.6
-37.629
319.898
-7.89734
-438.895
-129.225
-30.8604
592.717
320.721
-315.263
-5.45859
-525.459
49.4668
-394.45
-333.766
298.231
53.9979
328.054
-304.578
297.448
-31.8068
-144.297
-255.204
-246.125
6.97805
239.147
-401.507
-112.41
-36.2692
547.449
-38.1599
-4.31524
472.782
549.337
-26.3645
-169.493
-273.647
335.257
-61.6098
-93.4916
246.748
32.0213
-743.345
-302.581
-214.759
360.342
-391.414
-68.1877
452.481
622.987
221.155
-844.142
-141.763
542.578
-127.545
334.867
-253.237
-81.6304
-108.745
-598.972
-189.855
36.2614
209.941
133.03
-129.727
233.959
-264.409
-270.462
304.169
-33.7065
242.625
316.576
-440.532
700.696
415.708
-265.777
333.421
-67.6434
-248.248
-480.664
-210.618
837.451
18.9649
364.15
-44.2525
-941.294
26.9277
356.148
-78.8839
-745.49
16.5401
-327.105
633.883
206.071
-85.9313
-87.9917
12.8146
293.797
-361.717
3.64459
358.072
-208.969
-125.342
238.94
-111.438
-479.319
-98.6614
501.537
-90.8939
366.35
27.0511
-322.057
-83.4267
-107.165
-518.453
374.27
-117.623
652.728
-630.539
-295.579
375.536
-79.9575
-226.172
38.6578
281.048
22.1475
-443.875
-480.971
-426.033
972.285
-469.92
-502.365
541.844
-79.3712
-533.72
-106.412
-61.0035
17.9397
518.112
-115.762
-15.7337
57.5611
175.636
-243.844
-212.206
40.6408
-69.5818
559.93
-125.238
-403.58
-361.499
309.581
262.701
2.84377
427.55
-61.2002
-50.7922
-148.175
-175.723
-305.334
31.6281
81.3338
-279.64
441.152
-652.373
589.284
-86.1917
-503.092
758.769
-726.747
400.181
-39.8395
-274.205
-305.426
41.8689
551.582
-99.1007
-758.283
784.514
214.261
-0.609999
-213.651
-119.515
211.725
465.355
-64.5104
571.531
-125.269
-279.888
280.021
-106.398
-109.038
-199.057
233.509
-34.4516
-95.9209
274.034
301.721
-46.1609
-61.4017
249.924
-473.454
-277.752
271.989
-236.115
-35.8743
-385.644
397.7
-12.056
-17.5706
-98.576
287.959
310.271
-313.03
2.75887
-257.838
-119.907
-1.74572
157.959
-319.397
422.081
-42.9382
787.087
-744.149
-508.006
354.796
-38.2202
36.7355
343.672
13.9423
-357.614
7.17879
382.692
207.394
482.277
39.0741
473.225
36.8162
356.495
-48.0022
-42.8764
246.221
223.255
65.9287
-856.442
866.972
-303.711
282.568
21.1439
-548.685
246.983
2.94077
761.198
-564.715
-196.483
259.314
-181.686
-77.6282
433.384
227.582
31.594
492.244
-197.484
617.1
-419.616
73.3552
-51.6422
846.493
-794.851
-396.468
311.932
476.152
198.878
232.409
2.54098
225.394
-176.993
-491.518
668.51
42.0344
207.382
64.7235
-557.161
571.229
-508.634
794.634
-272.07
-522.565
-307.406
-178.685
34.213
271.291
0.806407
-227.047
-260.54
-341.981
-486.514
2.35712
184.726
-187.083
292.039
264.172
184.472
-792.42
768.49
23.9303
-2.00311
408.187
-457.426
49.2394
290.634
48.3992
6.65151
759.13
-765.782
100.696
234.561
26.3089
94.1294
-290.945
303.796
-12.8513
-893.9
-49.734
193.608
-128.941
-491.329
620.27
-291.662
818.745
-138.513
-408.942
-116.517
-560.483
133.923
359.976
30.5689
-252.957
-26.9311
200.392
-142.831
16.0095
856.157
48.6639
-14.2763
301.325
472.332
-356.499
-115.833
-626.235
258.625
367.61
135.545
175.964
374.598
-347.737
239.99
148.318
291.9
229.715
235.916
9.01355
69.7582
-483.774
414.016
808.8
-245.954
-562.847
189.097
203.583
-392.68
324.641
401.804
255.594
3.83128
-626.347
-306.027
251.357
-889.681
367.496
51.1065
-440.268
79.6023
-636.435
-97.5088
244.666
-357.28
371.284
556.125
-568.234
645.111
-76.8767
-10.305
370.756
413.241
-312.998
-43.0071
175.066
-132.059
-303.161
294.105
-17.2933
650.5
-345.898
-22.6212
376.095
-353.473
68.1303
-180.831
229.593
-48.7617
-253.357
234.166
19.1913
281.616
513.018
163.829
-401.764
413.268
-1084.31
1090.96
109.17
-10.9236
449.088
180.83
-58.6658
415.586
358.259
214.029
20.918
253.138
364.116
-25.8934
-338.222
-649.535
648.877
0.658383
228.627
194.467
-9.74102
501.68
-431.922
-210.67
766.795
273.308
82.005
241.116
-360.6
-177.223
26.9506
245.039
745.551
-149.526
-596.025
-849.161
916.047
315.424
358.674
211.9
-216.493
554.157
-992.377
426.596
330.557
294.408
-36.8846
474.979
291.233
59.5595
-416.777
357.218
-233.494
319.868
-13.3268
5.02813
-824.312
694.162
809.991
-192.128
333.367
250.679
94.194
339.465
-20.1247
-319.341
269.102
275.562
301.605
-187.309
87.198
-272.167
281.617
-9.44948
421.408
-526.583
-251.928
-2.18556
216.214
434.778
-572.817
-275.177
22.22
459.524
-116.592
-250.313
366.905
-335.294
-193.921
634.507
106.239
426.337
-943.7
517.362
-459.518
417.808
41.7104
-2.93263
252.143
-249.21
350.214
-282.084
259.884
-236.988
-22.8955
278.185
16.0213
-196.852
-850.472
62.5234
333.447
-395.97
-32.8565
724.006
-691.15
322.663
-295.521
-27.1423
-445.655
452.383
278.172
-243.362
-400
978.682
-578.683
282.218
-13.8544
197.605
535.858
464.142
-203.347
206.081
13.165
-219.246
-27.8608
398.029
-593.603
33.616
559.987
200.976
271.377
-341.374
-13.2651
-372.379
-915.874
864.231
-497.635
1033.49
336.255
-59.8952
238.126
-1.82611
-236.299
488.808
-434.857
67.1207
-719.871
-459.364
-0.153934
-255.943
317.738
-469.464
-499.112
298.742
-18.9353
-279.806
-960.01
443.404
-797.941
155.848
31.9848
-187.833
29.5327
599.199
647.903
-633.835
-288.654
820.131
-95.889
223.752
392.569
-532.291
139.722
-135.6
359.365
-223.765
-704.122
750.403
-385.674
245.17
-223.498
232.646
-9.14765
-275.705
702.042
313.572
610.576
27.6894
-785.972
-231.767
263.771
-352.371
-57.2973
-229.112
240.978
-898.053
981.986
175.722
39.2337
-214.956
262.924
-274.144
-83.4843
23.8264
400.751
209.038
-609.789
502.773
-902.773
490.441
-66.671
-221.453
-2.03642
223.49
-114.092
-191.242
-264.756
53.6435
-166.98
-135.172
302.539
291.916
-264.966
-117.935
-315.802
433.737
279.829
288.474
-17.6926
-293.158
310.851
-690.781
16.4468
858.278
-893.9
943.781
-977.253
962.1
965.452
-965.452
-849.161
-1021.36
241.838
-211.269
-243.098
-216.866
-186.13
-1.05014
737.088
-955.802
218.714
-866.972
9.74507
-279.968
190.331
-34.4832
-763.457
791.146
227.964
-6.92123
-221.043
-260.259
274.057
-11.9777
-249.961
261.939
248.966
-14.3162
-234.65
201.598
-228.747
-23.7686
-253.675
277.443
-187.962
200.809
-12.8471
249.827
281.049
-346.991
406.551
103.183
-180.177
76.9944
-370.11
-584.082
-194.246
207.627
-13.3811
-419.725
-84.2038
503.929
193.697
-174.604
39.8834
201.817
-26.0941
-349.301
242.039
464.913
-93.6289
199.049
462.833
-54.6458
326.845
-401.134
74.2884
18.4785
-637.102
666.635
263.264
-460.747
-783.698
730.274
53.4241
480.788
497.894
45.1497
419.763
-240.721
266.556
-73.1068
-710.592
250.095
-349.064
720.82
-907.216
321.276
-726.016
404.739
125.956
264.581
-206.289
-58.2918
-54.9336
-387.036
-868.248
592.544
-1.60909
256.662
3.238
-312.719
309.481
15.626
-52.9495
235.349
282.254
-37.2152
185.778
-58.4098
-127.369
738.711
20.0579
272.981
300.978
6.56355
178.562
-230.367
51.8048
253.283
-299.665
296.174
-304.465
-203.273
217.639
-14.3659
74.7525
-494.478
256.003
166.078
-87.7754
824.863
-594.657
410.514
550.846
-646.117
234.854
-343.786
313.433
-449.033
205.225
-320.955
218.234
-190.382
-338.609
233.055
-189.145
-7.07477
196.219
233.417
-341.702
368.78
-266.559
-102.221
-6.61911
486.654
-442.477
-560.379
1002.86
-740.72
654.155
-50.6672
-320.747
371.414
21.3808
59.7364
-312.34
308.093
-267.266
-7.91154
205
63.9008
-268.901
-189.379
-233.684
-309.792
223.774
-209.249
-14.5247
-312.719
-413.627
413.627
185.664
-657.691
187.304
168.555
309.481
727.471
-235.086
-41.8858
-645.604
687.489
526.7
-89.3471
235.193
-364.325
315.365
398.243
242.693
4.35392
232.763
-172.564
-60.1986
-30.8021
-686.845
686.845
-177.761
-386.946
-98.3617
-138.698
207.158
20.2925
-157.496
228.424
-422.87
478.652
-179.643
-198.208
705.335
-489.611
-215.724
-136.035
-112.104
528.915
-147.035
-85.0009
-41.3997
-491.107
532.507
-500.593
-287.161
512.2
-19.9564
-17.1822
-735.319
558.327
-457.961
-65.778
767.826
19.2605
230.82
-112.965
773.7
-660.735
98.8059
829.735
683.173
830.953
146.733
-219.373
-386.054
-73.3108
-233.018
250.264
-227.048
49.4618
-199.352
-897.898
41.4341
856.464
28.3893
402.879
813.637
-261.001
246.096
14.9055
1066.48
-542.418
-524.063
-168.978
2.76545
476.193
203.13
-36.9779
289.957
255.013
428.13
-772.056
956.325
-184.269
-369.642
8.1427
231.168
17.3291
666.109
-88.2713
-215.44
-197.794
-228.238
219.267
92.3866
635.084
689.85
-731.736
91.3005
-795.423
22.747
654.62
752.333
-849.653
97.3206
-627.499
535.709
91.7908
627.335
-563.6
-63.7354
-446.429
521.181
58.704
-115.165
-113.741
228.907
155.141
305.828
-585.22
410.722
192.222
-192.222
-198.805
218.816
-879.219
436.741
-670.008
541.067
-556.912
856.442
-944.218
23.6551
-238.069
203.895
-197.375
-211.964
-251.752
20.0161
356.813
34.8752
341.131
-350.903
-365.769
40.1495
403.437
-666.672
-55.3397
-726.763
782.102
207.937
-284.332
55.2514
142.133
-254.583
-623.492
655.199
-179.584
-81.9789
8.26393
552.126
128.999
-308.064
-25.7027
-455.14
957.913
864.256
-864.256
332.778
43.3167
9.49479
463.287
-761.458
17.3093
651.409
15.2261
80.4621
417.663
-498.125
214.178
302.261
-4.00253
9.10355
673.344
17.2791
-831.438
641.582
195.479
303.207
-498.686
-810.224
538.154
210.718
-413.15
18.8517
-649.39
-194.458
-54.5738
249.032
-114.81
223.325
-108.515
15.3296
44.5559
355.609
40.5487
-200.214
17.4849
-250.579
511.423
660.017
63.9889
12.4775
135.084
-116.847
-177.954
196.129
387.246
-495.868
-707.85
-64.2062
-196.421
-466.901
-476.799
-274.131
-360.882
624.683
-515.016
6.68851
798.59
-805.279
318.579
50.2007
392.154
-59.3762
621.415
-56.7186
-564.696
313.955
-19.9504
-574.173
-102.41
676.584
-1.64468
-238.034
-585.915
413.836
-190.101
-38.1517
228.253
244.997
611.34
66.3158
-214.268
-114.285
24.4114
202.869
-546.129
638.516
193.987
3.61853
-199.599
395.726
-196.127
297.67
-858.209
560.54