/*--------------------------------*- C++ -*----------------------------------*\
  =========                 |
  \\      /  F ield         | OpenFOAM: The Open Source CFD Toolbox
   \\    /   O peration     | Website:  https://openfoam.org
    \\  /    A nd           | Version:  7
     \\/     M anipulation  |
\*---------------------------------------------------------------------------*/
FoamFile
{
    version     2.0;
    format      ascii;
    class       volVectorField;
    location    "28";
    object      U;
}
// * * * * * * * * * * * * * * * * * * * * * * * * * * * * * * * * * * * * * //

dimensions      [0 1 -1 0 0 0 0];

internalField   nonuniform List<vector> 
7807
(
(1.08437 0.114458 3.24079e-20)
(1.07494 -0.0220395 1.00569e-19)
(1.05035 0.0980067 -5.22934e-20)
(1.05715 0.0764471 1.04204e-19)
(1.03308 -0.00177054 1.61546e-20)
(0.948787 -0.0102068 1.24938e-20)
(1.051 0.0963541 -1.03817e-19)
(1.01583 -0.00147666 4.00123e-22)
(1.03089 -0.001482 1.43001e-20)
(1.03729 0.00325504 -8.95421e-21)
(0.997682 -0.0075014 -1.38695e-20)
(1.03351 -0.0021582 -2.56305e-20)
(0.978891 -0.00233428 -2.47578e-20)
(1.03969 -0.000625771 -1.06197e-19)
(1.03597 0.00337332 3.7377e-20)
(1.0279 -0.00885302 3.96961e-20)
(1.08504 0.118422 -6.87842e-20)
(0.958184 0.000821916 6.9184e-21)
(1.0348 -0.00562031 -2.0136e-20)
(1.01967 -0.0729141 8.53834e-21)
(1.05243 0.00527412 -2.8618e-20)
(1.03319 0.000230674 7.29005e-20)
(1.04131 -0.00140312 1.37456e-20)
(1.01615 0.0446694 -6.34535e-20)
(0.925189 0.00336891 2.46358e-20)
(1.08169 0.112788 -3.25214e-20)
(1.03335 -0.00152849 1.35027e-20)
(1.04285 0.000781096 3.49928e-20)
(1.00733 0.0219976 -9.23231e-21)
(1.03492 -0.00572659 1.79689e-20)
(1.02409 -0.00915566 5.66449e-20)
(0.519442 0.00961587 1.07585e-20)
(1.04074 -0.00153145 7.40922e-20)
(1.03112 -0.00252848 -3.0859e-20)
(0.487863 0.000185738 -7.30414e-23)
(1.03934 0.00313915 1.4274e-20)
(1.03566 -0.00689017 1.32331e-20)
(1.05025 0.0958784 -1.76332e-20)
(1.03019 -0.00521357 -7.17723e-20)
(0.876244 -0.00370762 -3.81033e-20)
(1.03054 -0.00524728 7.22203e-21)
(1.02796 -0.00843004 1.48137e-20)
(1.04358 -0.080722 -4.06188e-20)
(1.15688 -0.0148196 -1.43493e-20)
(0.457161 -0.00205586 -1.81305e-20)
(0.906823 0.00790348 7.95336e-21)
(1.0321 0.000386471 -4.43452e-20)
(1.03102 -0.00472497 4.22497e-20)
(1.02964 -0.00252709 7.81252e-21)
(1.0234 -0.0734964 -1.25749e-20)
(1.03393 -0.00168821 2.04378e-20)
(1.04358 0.00143896 -3.77915e-20)
(0.875098 0.00312259 6.71507e-20)
(1.04094 -0.0188008 1.44064e-20)
(1.03972 0.0024387 -1.0987e-20)
(1.02993 -0.00282274 7.33302e-21)
(1.03387 -0.0047851 3.17637e-20)
(0.993351 -0.00139809 -4.72013e-20)
(1.01677 -0.0107793 6.46996e-20)
(1.0309 -0.00299062 3.74894e-20)
(1.02924 -0.00132627 -1.88767e-20)
(1.03525 -0.000176901 1.94179e-20)
(1.04023 -0.000180125 -2.40055e-20)
(1.0329 -0.00149398 2.61708e-20)
(0.895621 -0.00872341 -2.76458e-20)
(1.02449 -0.00956302 -9.04149e-21)
(1.03 -0.00184809 -1.32991e-20)
(1.02717 0.000236193 1.92674e-21)
(1.14402 0.0795272 3.26851e-20)
(1.03122 -0.00425249 1.70221e-20)
(0.983794 -0.00196328 -7.21147e-21)
(1.01139 -0.0399189 7.58138e-20)
(0.968764 -0.000447316 -1.21573e-20)
(0.788725 -0.00292573 -1.0298e-20)
(0.991337 9.15517e-05 -2.16861e-20)
(1.00546 -0.0178697 1.03338e-20)
(1.05077 0.0988356 8.37838e-20)
(1.051 0.00476211 3.59627e-20)
(1.09598 0.0166281 -7.37292e-20)
(0.998935 -0.0313675 8.56873e-20)
(1.00481 -0.00335533 3.81484e-20)
(1.02682 0.104407 1.19053e-19)
(1.05409 0.016388 6.2971e-20)
(0.969407 -0.00298568 -4.62018e-20)
(1.03095 -0.00232152 2.18168e-20)
(0.757412 -0.0032907 -1.16816e-20)
(1.026 -0.0029344 -6.30727e-20)
(0.926516 -0.000917572 -4.28965e-20)
(1.03217 -0.00152304 -1.84785e-20)
(0.755258 -0.00578512 -2.26009e-20)
(1.00771 0.0249659 6.55251e-20)
(1.18193 0.00281331 2.2269e-20)
(1.02468 -0.00243291 1.33107e-20)
(1.03374 -0.00450378 1.48423e-20)
(0.998002 -0.00345643 -2.703e-20)
(0.519535 -0.00363647 7.96931e-20)
(1.01328 -0.0397296 -4.56368e-21)
(1.04209 -0.0177369 -2.48238e-20)
(1.03066 -0.00226333 -4.36429e-21)
(0.844625 0.00792799 -7.91562e-21)
(0.857275 -0.0114752 -2.17758e-20)
(1.09621 0.0210106 5.54497e-20)
(1.01724 -0.00123241 6.68413e-20)
(0.506385 -0.0011956 1.02319e-21)
(1.18311 0.0132953 1.40666e-20)
(1.04148 0.0424427 -6.30076e-20)
(0.754412 0.043475 1.4603e-20)
(1.02905 -0.00287119 2.80011e-20)
(1.02577 -0.00114175 -6.53875e-22)
(1.04841 -0.00502874 -3.03717e-20)
(1.05851 0.0733773 -1.20943e-19)
(1.05635 -0.0558472 7.69128e-20)
(1.02666 -0.00110508 8.20707e-22)
(1.0498 -0.00496701 -6.58966e-21)
(1.03743 0.0411865 6.57713e-20)
(1.03159 -0.000342528 -9.92302e-21)
(1.0975 -0.0642857 5.62568e-21)
(1.04151 0.0268247 -1.74305e-20)
(1.02103 -0.0309515 -4.65034e-20)
(0.869497 -0.000235338 1.1016e-20)
(0.644741 -0.00541169 5.13494e-20)
(1.00842 0.0583862 -7.92675e-20)
(1.04918 -0.0792545 5.58037e-20)
(1.03786 -0.00349109 8.49102e-21)
(0.724701 -0.00733367 -2.016e-20)
(1.03199 -0.00173682 -3.92583e-20)
(1.02572 -0.00654487 -2.07849e-20)
(1.03393 -0.00494177 -2.43793e-20)
(0.751558 0.00924938 6.38513e-20)
(1.02467 -0.00818446 -1.36556e-21)
(1.21569 -0.00649578 6.45378e-21)
(1.0913 0.0141509 1.23686e-20)
(1.03182 -0.00304719 -2.89899e-21)
(1.0318 -0.00163265 4.10307e-20)
(0.934079 -0.00358915 -1.32264e-20)
(1.05526 0.0684049 4.81166e-20)
(1.03078 0.116562 1.34643e-19)
(0.744304 0.00977361 2.01929e-21)
(1.03781 -0.00175357 4.65745e-21)
(0.539935 0.00520491 5.54952e-20)
(0.669038 -0.00359574 4.54611e-20)
(1.02496 -0.0446362 5.82577e-20)
(1.00673 -0.0194736 -1.38502e-20)
(0.779592 -0.000141272 8.10873e-22)
(0.604873 0.0033739 5.77636e-20)
(1.04352 -0.0306417 3.80631e-21)
(1.01583 0.0271134 -3.49697e-20)
(1.01862 -0.0137259 3.47568e-20)
(0.572853 0.00388227 -9.83245e-21)
(1.01159 0.0826051 -3.95596e-20)
(1.041 0.00341176 4.17072e-20)
(1.17107 -0.00140952 9.75939e-21)
(1.03203 -0.00152641 6.15102e-20)
(1.14901 0.0736456 7.77569e-21)
(1.05214 0.0155504 -6.67189e-20)
(1.05122 0.0951055 -9.10334e-20)
(1.0012 -0.0217358 -3.72822e-20)
(0.901445 -0.00584797 -9.42108e-21)
(1.04738 0.0770545 1.32365e-19)
(1.02813 -0.00771618 8.41459e-21)
(1.03376 -0.00459729 -3.70386e-20)
(1.01682 0.0492525 4.36108e-20)
(1.02703 -0.00219921 -1.0158e-20)
(1.03144 -0.00343402 7.42703e-20)
(0.958042 0.00154236 1.19015e-20)
(1.00692 0.055736 -1.31539e-20)
(1.00384 0.0407192 4.7334e-20)
(1.03576 0.0711219 4.11343e-20)
(1.0312 -0.0036547 3.21238e-20)
(0.68777 0.000792913 1.52384e-20)
(1.0283 0.00101971 -1.92762e-21)
(0.410088 -0.00320518 8.19622e-20)
(1.03188 -0.000585331 1.32637e-20)
(1.07614 -0.0187472 -1.17669e-19)
(1.0376 -0.00201933 3.03541e-20)
(0.665787 -0.002303 -1.91741e-20)
(1.17378 0.020913 2.62714e-20)
(1.1086 0.0762702 2.65829e-21)
(1.02896 -0.00262284 -7.72123e-21)
(1.03204 -0.00191838 3.79392e-20)
(1.05916 0.0785303 -1.73374e-20)
(0.991699 -0.00241065 3.42628e-21)
(0.684183 -0.0130391 -4.36437e-21)
(1.0508 0.0959781 -8.52716e-20)
(1.07723 -0.0245474 5.09554e-20)
(1.04395 -0.0465293 4.90862e-20)
(1.02252 -0.0298513 6.67463e-20)
(0.934926 -0.00272945 -3.34309e-20)
(1.04125 -0.0318907 -9.39285e-21)
(0.495061 -0.00321583 -2.95905e-20)
(1.02633 -0.00254015 3.20633e-21)
(1.01391 -0.0369598 1.8666e-20)
(1.11017 0.0820152 -4.93979e-20)
(1.02632 -0.00121142 -9.60282e-21)
(1.03044 -0.000451521 -9.41417e-21)
(1.08726 0.0784794 3.88734e-21)
(1.01764 0.00190405 -6.15878e-20)
(1.02528 -0.00779026 -3.09918e-20)
(1.03881 -0.0301036 -3.36599e-20)
(1.02877 -0.000794137 -8.09737e-22)
(1.03224 -0.00154664 -3.19908e-20)
(1.0521 0.0691975 5.45341e-20)
(1.1 0.0858839 -5.58908e-20)
(1.04856 0.0952199 -1.1945e-20)
(1.09314 -0.0588979 -3.17251e-20)
(1.05936 -0.0524563 -1.58231e-20)
(1.14277 -0.0863878 8.11809e-21)
(1.04183 -0.000650159 9.44251e-20)
(1.04812 0.0672709 -2.01691e-20)
(0.642353 -0.0180454 1.83528e-20)
(1.03011 -0.00072205 5.46181e-21)
(0.461421 0.0449768 -6.12623e-20)
(1.02858 -0.00824809 1.60881e-20)
(1.0317 -0.00334733 2.57553e-20)
(1.01572 -0.0363655 -4.32132e-20)
(1.02533 -0.00691791 2.30541e-20)
(1.05232 0.0912266 -1.09152e-19)
(1.05026 0.0917723 -2.43136e-20)
(1.02279 -0.0458292 -1.50352e-20)
(0.791784 0.0259205 -4.36983e-20)
(1.03045 0.00117227 4.66992e-20)
(0.902665 -0.00187382 -2.43234e-20)
(0.803113 -0.00994051 -2.82113e-20)
(1.04962 0.00863652 -1.86793e-20)
(1.04864 -0.104457 3.74444e-21)
(1.09832 0.115493 -7.77581e-20)
(1.04551 0.0746714 -1.15503e-19)
(1.0296 -0.00142747 1.36929e-20)
(1.03733 -0.00348417 1.11975e-20)
(1.03882 0.0296846 9.11348e-20)
(1.03103 -0.00393457 5.63457e-20)
(1.04464 0.0274221 -1.20156e-20)
(1.03203 -0.00149903 1.33996e-20)
(0.986797 0.0604802 8.05412e-20)
(1.05031 0.0940965 1.87788e-20)
(1.01856 -0.0019336 -3.84994e-20)
(1.03483 -0.00503479 -2.22216e-21)
(0.939428 -0.00354245 7.27021e-20)
(1.12562 0.100157 2.64781e-20)
(0.668972 0.0118181 -1.32931e-20)
(1.03002 -0.0063251 -1.57611e-20)
(0.917793 -0.0189999 -3.24206e-20)
(1.0252 -0.0046645 2.9898e-21)
(1.03111 -0.0024569 1.61857e-20)
(1.03201 -0.00159096 -1.48656e-20)
(1.08021 0.0553168 6.11442e-20)
(1.02795 -0.0022262 -1.32921e-20)
(0.622751 0.0041983 -8.70592e-23)
(1.00109 -0.0313664 -9.99718e-20)
(0.404662 0.0140407 -2.34988e-20)
(1.09097 0.00987735 -1.82342e-20)
(0.984838 0.0540553 6.44003e-20)
(0.881747 -0.00135562 9.72351e-21)
(1.0369 -0.0308505 -2.86874e-21)
(1.03096 -0.00238261 2.95986e-20)
(1.05097 0.0959086 -8.68456e-20)
(1.03402 0.000392652 -2.39783e-20)
(1.04089 0.138675 4.25786e-20)
(1.03456 -0.00627849 -5.96482e-20)
(1.03294 -0.00130549 4.07245e-20)
(1.05557 -0.0193565 -4.57236e-20)
(1.04124 0.000300428 -8.80334e-20)
(1.03183 -0.000568311 2.04929e-20)
(0.952593 -0.00582358 -1.31886e-21)
(1.03184 -0.000792162 5.1749e-20)
(1.0311 -0.00413385 4.7591e-20)
(1.05017 -0.0482115 -6.10902e-20)
(0.970597 -0.00777417 -6.39251e-21)
(1.00262 -0.0206696 -2.72855e-20)
(0.997829 0.0001204 2.54138e-21)
(1.01533 -0.00412806 -1.40612e-20)
(1.03201 -0.00315985 -7.73622e-21)
(1.05129 0.121105 1.01301e-19)
(0.57176 -0.00273143 -1.13554e-20)
(0.735785 0.00414713 7.00685e-21)
(0.303693 0.0250497 9.97107e-20)
(1.03098 -0.00268449 3.07138e-20)
(1.0777 0.0942646 -4.196e-20)
(1.03089 -0.00241824 -4.31613e-20)
(1.03809 -0.013846 4.39279e-20)
(1.02955 0.000891024 -6.03655e-22)
(1.02062 -0.0242609 2.86526e-20)
(1.04956 0.00799465 2.69689e-20)
(1.1744 0.0294097 -6.07741e-20)
(1.01704 -0.0120063 -5.54474e-20)
(1.03147 -0.00201475 -4.73484e-20)
(1.01879 -0.0606744 -2.15498e-20)
(0.146957 0.000349635 -3.05532e-20)
(0.63757 0.0155086 -2.17648e-21)
(1.0319 -0.00073584 -4.59171e-20)
(1.03161 -0.00262321 -3.56395e-20)
(0.851767 -0.0102194 3.63697e-20)
(1.03497 -0.000893422 -3.95552e-20)
(1.03167 -0.00165366 -2.04935e-20)
(0.971519 -0.00246873 -7.80669e-21)
(1.05389 -0.0460638 4.10544e-20)
(0.932727 -0.00057636 -3.39107e-20)
(1.15004 -0.00840242 4.10901e-21)
(0.838865 -0.00275821 3.59553e-20)
(1.05604 0.0985296 9.82372e-21)
(1.0547 0.0995033 -7.38225e-20)
(1.03196 -0.000753602 3.24066e-20)
(1.1935 0.0302708 7.66606e-20)
(1.0109 -0.00227411 1.08327e-21)
(1.03179 -0.00318637 3.79201e-20)
(0.372245 0.00403268 -8.21713e-20)
(1.01204 0.040098 3.73522e-20)
(1.05474 0.0211597 -5.55524e-20)
(1.02967 -0.00170904 1.86889e-20)
(1.0318 -0.00267098 5.52358e-21)
(0.89413 -0.00277756 -2.71407e-20)
(1.06636 0.0509776 -2.47341e-20)
(1.03208 -0.00173384 -2.22332e-20)
(1.03304 -0.00102455 1.81826e-20)
(1.03268 -0.00052644 -4.25553e-21)
(1.13101 0.0392199 6.34711e-20)
(1.21612 -0.017965 3.97342e-20)
(1.06401 0.107834 4.87661e-20)
(0.815202 0.00267743 3.04963e-20)
(1.08494 -0.0219689 -9.96829e-20)
(1.0292 -0.00229254 1.35806e-20)
(1.03546 -0.00466314 -6.24466e-20)
(0.998489 -0.0037173 2.96927e-21)
(1.02298 -0.0133879 -9.54265e-21)
(0.949995 -0.00331927 1.24206e-20)
(1.04132 -0.0129445 6.14399e-21)
(1.21312 0.03517 -6.47895e-20)
(1.01331 -0.0188016 -5.41338e-20)
(1.03896 -0.01313 -1.28199e-20)
(1.03662 -0.00291941 -1.8452e-20)
(0.865527 -0.00833616 -3.26107e-20)
(1.05077 -0.00823932 2.01552e-20)
(1.03102 -0.0118095 -2.80595e-20)
(1.09077 0.0248449 -2.76185e-20)
(1.07578 0.053801 2.96712e-20)
(1.18977 -0.0908796 -5.46733e-22)
(1.15512 -0.0236103 3.5901e-20)
(0.263128 -0.00179785 3.26747e-20)
(1.03545 -0.001977 4.37247e-20)
(0.921114 -0.0177965 1.32823e-20)
(1.01622 0.0647444 -1.28857e-19)
(1.13787 -0.0263055 -6.33275e-20)
(1.04869 -0.00237522 -5.96905e-20)
(0.875089 0.0372553 -6.09658e-20)
(0.717524 -0.0125173 -1.50181e-20)
(1.03173 -0.000720965 8.85801e-21)
(1.16912 -0.010796 3.56027e-20)
(1.03196 -0.00198688 1.81639e-20)
(1.04359 -0.0281008 -1.30363e-20)
(1.03579 -0.00202159 1.39432e-20)
(0.771096 -0.00164268 1.42581e-20)
(0.821212 -0.000702948 2.96931e-20)
(1.04502 0.0368295 5.00225e-20)
(1.03002 -0.00173997 5.79887e-21)
(1.03188 -0.000264644 -1.80435e-20)
(1.02958 -0.000359057 1.62384e-20)
(0.868412 0.0053193 -6.5184e-20)
(1.02952 -0.00580122 -4.2561e-20)
(0.96793 -0.00485211 -6.58163e-22)
(0.962804 0.00295903 -4.43241e-21)
(1.01777 -0.0100381 -2.01023e-20)
(0.682845 0.0144823 3.45952e-20)
(1.04041 -0.0138557 -2.75976e-20)
(1.02878 -0.00771799 -5.95246e-20)
(1.06548 0.0878088 1.69217e-20)
(1.00437 0.047113 7.61748e-20)
(1.08198 0.0141972 -2.64783e-20)
(1.18544 0.0343494 -2.92079e-20)
(0.303061 0.00540931 -4.4652e-20)
(1.03546 -0.0023346 -2.28576e-20)
(1.01808 0.0672834 -3.79082e-21)
(0.818528 -0.00308554 5.2552e-20)
(1.06643 0.0944929 2.02233e-21)
(1.04108 -0.0345797 -1.61839e-21)
(1.06938 -0.0903762 1.79973e-20)
(1.09659 0.0833228 3.44562e-20)
(1.06798 0.0973336 -4.77438e-20)
(1.00196 -0.0173811 -6.44088e-20)
(1.05619 0.0191125 -3.9212e-20)
(1.10114 0.119232 7.30315e-20)
(1.07405 0.0946388 7.47543e-20)
(1.04328 0.00160971 3.0397e-20)
(1.02883 -0.00117654 -1.58442e-20)
(1.02986 -0.00288533 -1.0867e-20)
(1.00716 -0.00103953 6.81063e-21)
(1.04536 -0.0169586 1.90014e-20)
(0.724434 0.00362491 -1.17633e-20)
(1.03212 -0.00222727 -2.32167e-20)
(0.948936 -0.00350971 1.19465e-20)
(1.0304 -0.000587113 -1.22754e-20)
(1.01645 -0.0595529 3.55862e-20)
(1.11632 0.0477822 2.34893e-20)
(0.977672 -0.00305379 5.04109e-20)
(1.03193 -0.00761287 -6.7827e-20)
(0.87017 0.00295492 3.37931e-20)
(1.08284 -0.0246727 3.52048e-21)
(0.886198 -0.00679759 6.4589e-20)
(1.03372 -0.00434877 4.43306e-20)
(1.11103 0.116708 1.15385e-20)
(0.857514 0.00354988 7.36182e-20)
(1.02876 -0.00224405 1.12261e-20)
(1.03039 -0.00175829 4.03577e-21)
(1.02963 -0.00162553 2.58775e-20)
(0.972992 -0.00248005 -1.92093e-20)
(1.04295 0.0341905 -6.2907e-20)
(0.73415 -0.00561836 -8.80211e-22)
(1.04601 -0.00304469 4.07993e-20)
(1.05647 -0.109304 -2.66564e-20)
(1.05019 0.0965939 -1.98467e-21)
(1.03495 -0.0048977 2.36974e-20)
(1.03702 -0.00291243 -4.11482e-21)
(1.02879 -0.00272818 3.14483e-20)
(1.04078 0.119605 -9.99205e-20)
(0.732402 -0.00178522 -1.63914e-20)
(1.06557 0.110151 -2.53059e-20)
(1.01244 0.0281067 -6.43522e-20)
(0.9757 -0.00326444 -1.31785e-20)
(1.03938 -0.0354298 3.68733e-20)
(0.937319 -0.00269555 3.16551e-20)
(1.02789 -0.0453952 -7.31992e-20)
(1.03149 0.000234975 1.73372e-20)
(1.07739 0.0163602 3.58286e-20)
(1.03742 -0.00978698 -1.32696e-21)
(1.03662 -0.00224422 6.86351e-21)
(0.899835 -0.00612983 4.17205e-20)
(1.08445 0.0529161 3.19738e-20)
(1.06196 0.0499518 9.30028e-21)
(1.04239 -0.0488229 -4.14985e-20)
(1.01845 -0.0124738 3.60105e-21)
(1.03177 -0.00281026 2.50728e-20)
(1.03458 -0.0276242 8.51443e-20)
(1.1458 0.0653559 -4.77717e-20)
(0.621504 0.0195351 -5.36027e-20)
(1.10898 -0.0516938 2.94018e-20)
(1.03596 -0.00488998 -1.29914e-20)
(1.02678 -0.0011599 6.48583e-22)
(1.00262 -0.00230179 4.9318e-20)
(0.831059 -0.00252624 -5.90846e-20)
(1.05017 -0.00852725 3.33481e-20)
(1.04065 -0.0852962 1.45557e-20)
(1.1938 0.0188615 -2.89975e-20)
(1.05364 0.098821 -1.14393e-19)
(1.06987 0.0477717 4.45034e-20)
(1.14323 -0.0756088 -2.98649e-20)
(1.08738 0.0832356 1.32692e-20)
(1.01416 0.0802339 1.24172e-19)
(1.0435 -0.00159192 3.48849e-20)
(1.03234 -0.00147784 5.1179e-20)
(1.04713 0.075322 2.72382e-20)
(1.03198 -0.00196247 -3.86508e-20)
(1.03034 -0.00264358 -1.15774e-20)
(0.52606 -0.00126819 -1.29825e-20)
(1.03127 -0.00148679 3.93784e-21)
(1.15231 -0.092965 -1.06556e-20)
(1.03566 -0.0110499 3.13308e-20)
(1.02217 -0.0239171 -5.19149e-20)
(1.03272 -0.000990753 1.6406e-20)
(1.08299 0.0763524 7.34533e-20)
(0.865316 -0.000667992 6.08463e-21)
(1.02859 -0.00241548 7.69129e-23)
(1.06317 -0.0952992 -1.86094e-20)
(1.03264 -0.000368654 -1.01348e-20)
(1.118 0.0130871 -6.9332e-21)
(0.860329 -0.0111877 -1.08958e-20)
(0.710084 -0.00357217 -3.24904e-21)
(1.19185 0.0721644 -5.47874e-21)
(1.03566 0.0284693 -2.33045e-20)
(1.03238 0.00956301 1.60506e-20)
(1.03032 0.00874582 -7.5521e-21)
(0.92236 -0.00595039 -3.64286e-21)
(1.12305 0.0475825 1.85561e-20)
(1.09096 0.0285405 3.33598e-20)
(1.03247 -0.00245055 -1.53776e-20)
(0.998691 -0.00291139 -5.82503e-20)
(1.03225 -0.000399904 -1.92179e-20)
(1.04115 -0.0116969 -7.24058e-20)
(1.04005 -0.0183786 1.34781e-20)
(1.03572 -0.00113818 -4.32275e-22)
(1.03194 -0.00181609 4.84836e-20)
(1.12539 0.0939009 -7.843e-20)
(1.02769 -0.00288109 1.36622e-20)
(1.0314 1.06739e-05 -1.13235e-20)
(1.03443 -0.00111619 -2.41267e-22)
(0.626434 -0.00268509 -3.15678e-20)
(1.04408 -0.00481747 4.07485e-20)
(1.02151 -0.0196398 7.70794e-20)
(0.700805 0.00138816 1.57505e-20)
(1.04684 -0.0457356 -2.75436e-20)
(1.07534 -0.117434 2.93115e-20)
(1.05389 -0.0174789 2.44178e-20)
(1.05094 0.0740509 -1.56803e-19)
(1.20425 0.0392433 3.88551e-20)
(1.02102 -0.00330606 3.86335e-21)
(0.965812 0.0551331 9.29979e-20)
(1.01537 -0.0415458 -6.93205e-20)
(1.02934 -0.00629845 -1.27294e-20)
(0.638597 0.00445842 -2.72468e-20)
(1.03156 -0.0115142 5.84758e-21)
(0.52961 0.00554267 -5.09811e-20)
(1.01438 -0.00244408 1.79929e-20)
(1.04943 -0.00416897 -4.53282e-20)
(1.1457 -0.0288741 1.37571e-20)
(1.02871 -0.00233227 1.08058e-21)
(1.04697 -0.00452736 -3.25054e-21)
(1.00621 0.0029799 6.93163e-21)
(1.05287 0.0949122 2.4571e-20)
(1.14465 0.0849768 7.26598e-20)
(1.02492 -0.00228361 -1.08266e-20)
(0.595115 4.33991e-05 6.07581e-20)
(0.992069 0.000925066 2.39127e-20)
(1.01935 0.10313 7.88249e-20)
(1.06163 0.0972146 6.06534e-20)
(1.12564 0.0405689 -3.45785e-20)
(1.12737 0.114857 -6.19498e-20)
(1.0153 -0.0443711 2.96282e-20)
(1.02094 0.0715348 -1.19306e-19)
(1.02999 -0.0017277 -1.21145e-20)
(1.07008 -0.0110971 7.90809e-20)
(0.403489 0.010462 1.55704e-21)
(1.10261 0.0741441 -1.86168e-20)
(1.0151 0.065238 -8.11959e-20)
(1.14962 0.0598021 7.26963e-20)
(1.06418 0.0419027 7.24681e-21)
(1.0324 -0.00757697 2.04842e-20)
(1.02565 -0.00325737 2.06059e-20)
(1.13107 0.103399 2.75288e-20)
(1.20365 -0.000718029 -1.21576e-20)
(1.03741 0.113935 -2.99745e-21)
(1.11166 0.0113656 8.56326e-20)
(1.04846 0.0629497 4.89992e-20)
(1.00534 -0.00471712 1.17505e-20)
(1.05034 0.0989462 3.14131e-20)
(1.06323 0.0945254 2.29001e-20)
(1.01287 -0.000340698 5.48044e-20)
(1.02355 -0.00348837 2.43942e-20)
(1.14087 0.0966353 1.98816e-21)
(0.653047 0.00424569 5.44577e-20)
(1.02996 -0.00175703 1.60198e-20)
(1.01541 -0.00264296 -6.44209e-20)
(0.837405 -0.0141348 -4.12285e-20)
(1.02576 -0.0582053 7.47733e-21)
(1.03753 -0.00161616 -6.36584e-20)
(1.03657 -0.00247371 5.70389e-21)
(1.03135 -0.00226373 2.05754e-20)
(1.06271 0.0997496 -9.00033e-20)
(1.03325 -0.00734337 -5.252e-21)
(1.02909 -0.0021032 -6.26735e-21)
(1.05329 -0.0414972 -4.90972e-20)
(1.03158 -0.00290661 -1.21504e-20)
(1.01335 -0.00531742 -2.03337e-21)
(1.03548 -0.00716222 -1.40026e-20)
(1.0748 0.0771709 9.42859e-20)
(1.0548 -0.083635 -2.79441e-20)
(1.05887 0.0801331 4.9859e-20)
(1.02982 -0.000937797 -1.27153e-20)
(1.07875 0.0792803 -9.9887e-20)
(1.04639 -0.0350339 -3.83642e-20)
(1.03045 -0.00205589 4.20784e-21)
(1.02916 7.39111e-05 -6.40532e-21)
(1.00404 0.0163014 -1.09936e-20)
(1.07018 0.0702868 3.58509e-20)
(1.03016 -0.00279163 -1.1636e-20)
(1.06435 0.0592259 -5.103e-20)
(1.02891 -0.000171992 4.74437e-21)
(1.06549 0.0639508 -6.88013e-20)
(1.17663 -0.0947475 -2.91557e-20)
(0.991264 -0.000441372 -5.93715e-20)
(1.00478 0.0490848 -1.581e-19)
(1.01601 -0.033973 -5.23656e-20)
(1.13131 0.110684 6.35244e-20)
(0.661494 -0.00271042 -1.60053e-20)
(1.06966 0.0656533 8.82591e-20)
(1.07439 0.0721289 -2.5888e-20)
(1.0187 -0.00362739 -8.77439e-20)
(1.00801 -0.00353513 5.21878e-20)
(1.03015 -0.00609059 -4.89034e-20)
(0.976337 0.00038054 1.32166e-20)
(1.03053 -0.00246695 -2.6135e-20)
(1.03313 -0.00722306 8.65222e-21)
(1.06814 0.0910703 -1.16916e-20)
(1.02853 -0.00243589 -3.01814e-21)
(1.05977 0.0579482 6.70744e-20)
(1.06783 -0.0825461 -4.80287e-20)
(1.03585 0.0903673 3.08715e-20)
(1.05868 0.0535595 -7.84796e-20)
(0.792571 -0.0111799 5.59651e-21)
(1.05808 0.0862628 -1.07554e-19)
(1.03203 -0.00116793 2.18759e-23)
(1.0449 -0.0153618 2.84203e-20)
(1.0819 -0.0540042 -1.75108e-20)
(0.53528 0.00126404 3.06143e-21)
(1.02936 -0.00325599 -3.63705e-20)
(1.04426 -0.0363719 3.04993e-20)
(1.07435 -0.00279707 -6.98025e-21)
(0.903917 0.0427845 1.18543e-19)
(1.02835 -0.00081464 1.76601e-20)
(1.03165 -0.000966895 -2.02908e-20)
(1.05239 -0.0556003 1.34614e-22)
(1.02979 -0.000938338 1.03281e-21)
(1.05343 0.0963264 1.18849e-20)
(1.03272 -0.000126674 0)
(1.02881 0.000568909 9.01227e-22)
(1.02982 -0.00020818 2.79508e-20)
(1.03266 -3.73216e-05 3.38113e-22)
(1.02322 -0.0124673 -6.50309e-20)
(1.04743 -0.00773703 -2.29782e-20)
(1.03227 -0.00124789 -3.99121e-20)
(0.924466 0.00496662 -1.41366e-20)
(1.02754 -0.00333886 -1.90361e-20)
(1.03513 -0.00731513 -1.54101e-20)
(1.03036 -0.0918716 3.62947e-20)
(0.410958 -0.00020569 -4.50563e-21)
(1.04346 -0.00428619 6.29369e-20)
(0.749813 -0.00970011 -8.76016e-21)
(1.1351 -0.119227 -3.68176e-20)
(0.968264 -0.00366792 2.70567e-20)
(1.13124 0.088766 -5.49529e-21)
(1.0016 0.0215206 -2.52988e-20)
(1.0322 -0.00209738 1.48786e-20)
(1.12245 0.0793599 -8.14784e-20)
(1.02962 -0.000509675 -5.41263e-22)
(0.998584 -0.00308409 -5.49241e-22)
(1.03901 0.00280718 -4.48509e-20)
(1.02991 -0.00331983 1.46954e-20)
(1.07697 0.0862553 -5.90886e-21)
(1.02502 -0.0033698 4.99308e-20)
(1.07063 -0.00870386 -6.13149e-20)
(1.03908 0.00436215 -4.53337e-20)
(1.07474 0.0493254 -1.73269e-20)
(1.03752 -0.00894792 -4.01333e-20)
(1.02223 -0.00201749 -1.45017e-21)
(1.0921 0.075522 4.98382e-20)
(1.01995 -0.0646702 3.74983e-20)
(1.05128 0.0964537 9.62586e-20)
(1.02814 -0.00261665 6.7383e-20)
(1.07909 0.101797 2.95904e-22)
(1.02701 -0.00184336 -1.79732e-20)
(1.03263 -0.000624711 3.49154e-21)
(1.0635 0.0387856 2.13437e-20)
(1.04432 -0.0183258 -2.11788e-20)
(1.0519 0.0125576 6.48708e-20)
(1.03149 -0.000704644 1.13032e-20)
(1.02927 0.0010238 4.17437e-22)
(1.04244 -0.107044 -1.33571e-20)
(1.11062 0.111916 -7.19531e-20)
(1.0324 -0.00203546 -1.33308e-20)
(1.12946 0.0814957 9.03814e-21)
(1.02545 -0.00345806 3.56009e-20)
(1.12707 -0.126922 1.23185e-20)
(1.0708 -0.0229197 9.33662e-21)
(1.02124 -0.0210929 -4.17166e-20)
(1.03222 -0.000984549 1.59377e-20)
(0.659275 -0.00372946 1.42651e-20)
(1.01459 -0.0539017 2.57644e-20)
(0.934305 -0.00399307 -5.87077e-20)
(1.02296 -0.00154517 -4.53177e-20)
(1.03112 -0.0019105 -1.89922e-20)
(1.05038 0.0968559 -1.04757e-20)
(1.12052 0.0726773 5.17042e-20)
(1.04723 -0.00321821 -1.46792e-20)
(1.03036 -0.00289373 -1.77994e-20)
(1.0616 0.0920886 -4.31733e-20)
(1.02853 -0.0009745 5.14079e-21)
(1.0301 -0.00277427 -3.69475e-20)
(1.1138 0.0711219 4.41355e-20)
(1.04055 -0.0152881 3.9358e-20)
(1.11869 0.104331 6.60028e-20)
(1.04322 0.000109422 2.55419e-20)
(1.04295 -0.00628192 -7.83486e-21)
(1.11584 -0.0386643 -2.62881e-20)
(1.09029 -0.104341 -3.56382e-20)
(1.19278 0.065292 -2.62831e-20)
(1.03272 -0.000518386 -3.0413e-20)
(0.905797 -0.0115701 3.82416e-21)
(1.02909 -0.00170768 3.67341e-21)
(1.03544 -0.00703856 1.00688e-20)
(1.07928 0.0835587 3.40009e-20)
(1.0196 -0.00316684 -6.54407e-20)
(1.02995 -0.0010179 -2.03564e-20)
(1.04578 -0.0267787 4.19735e-20)
(1.03167 -0.000822001 -1.12362e-21)
(1.03203 -0.0017048 -2.71669e-20)
(0.319012 0.00724285 2.12631e-20)
(1.02763 -0.00289689 3.5101e-20)
(1.03166 -0.00256633 5.10433e-20)
(0.490025 -0.00328767 2.0268e-21)
(1.02547 0.0103639 6.77494e-20)
(1.01378 -0.0173817 7.9092e-21)
(1.03136 -0.00207655 -2.38519e-20)
(1.01042 0.0019541 -2.72616e-20)
(1.03293 0.0311031 2.46861e-20)
(1.08127 0.0239502 6.20726e-21)
(0.998901 -0.0155296 4.07419e-20)
(1.02811 -0.000975042 5.79585e-21)
(1.00173 0.0165902 1.51699e-19)
(1.02406 -0.0106459 4.7048e-20)
(1.08257 0.0714963 -7.631e-20)
(1.03907 -0.000794801 -6.87103e-20)
(1.03985 -0.000398641 1.39091e-19)
(0.966224 -0.00474862 -7.5933e-20)
(1.02946 -0.00181807 4.41838e-21)
(1.03855 0.00141525 -5.53833e-21)
(1.08594 0.0219149 -1.14991e-20)
(1.17369 0.0673916 5.49954e-20)
(1.0732 -0.0773206 -1.52911e-20)
(1.06585 0.088403 3.69294e-20)
(1.03697 -0.00132953 -1.66643e-21)
(1.09707 0.0783374 -6.83802e-20)
(1.03264 -0.0091261 2.61566e-20)
(1.04972 -0.0399075 7.50059e-20)
(1.02886 -0.0023965 1.9864e-20)
(1.03542 -0.0118055 -6.35529e-20)
(1.03112 -0.00181115 -1.68028e-20)
(1.06022 0.0449024 -5.80592e-20)
(1.09004 0.108405 -1.12475e-19)
(1.03221 -0.00126426 -1.22567e-20)
(1.04396 -0.00573401 5.04949e-21)
(0.926628 -0.00116813 -2.16851e-20)
(1.0754 -0.0651048 -9.00466e-21)
(1.07096 -0.0705538 2.40611e-20)
(1.03108 -0.000957913 -2.1543e-20)
(1.06727 -0.0120084 -3.15288e-20)
(0.134657 -0.00450585 -3.55702e-20)
(1.17218 0.0516102 4.92046e-20)
(1.03019 -0.00169696 -3.05956e-20)
(1.07719 0.0210496 -2.47055e-20)
(1.03126 -0.00578185 3.74178e-20)
(0.590842 0.0284727 1.48339e-19)
(1.02243 -0.00318699 -4.82023e-20)
(1.03063 -0.0173813 1.7019e-20)
(1.04726 -0.0228788 -1.76947e-21)
(1.02982 -0.0179556 6.5257e-22)
(1.03221 -0.0134094 6.57937e-20)
(1.02762 -0.00314617 -1.18033e-20)
(1.03212 -0.00918959 -5.6642e-20)
(1.03372 -0.00399362 -1.34719e-20)
(1.07622 -0.00588973 1.40603e-20)
(1.02885 -0.00119251 -2.70066e-20)
(1.20739 -0.0563913 1.73212e-20)
(1.1632 0.0161154 2.07933e-20)
(1.05772 0.0989453 7.0281e-20)
(1.00105 -0.0143433 -6.40216e-20)
(1.11279 0.100331 -3.30681e-20)
(1.03245 -0.000375743 3.38958e-20)
(1.09573 -0.0512957 -1.23484e-21)
(1.03773 -0.0259636 3.8125e-20)
(1.03061 0.0519206 5.88815e-20)
(1.02985 -0.00325752 -3.33142e-20)
(1.03042 -0.00119481 2.01344e-20)
(1.02456 -0.0112009 -6.52234e-20)
(1.03054 -0.00608795 1.91265e-20)
(1.06424 -0.0105386 5.21107e-20)
(0.873341 -0.00113587 5.15023e-20)
(0.995766 -0.0031125 -1.73719e-20)
(1.13968 -0.0102388 1.6388e-20)
(0.841595 0.00174998 4.12528e-20)
(1.04547 -0.024445 -3.5215e-20)
(1.02729 -0.0621405 -3.10953e-20)
(1.02865 -0.00145845 9.02949e-22)
(1.07633 0.00104438 6.03972e-20)
(1.02857 -0.0548449 9.45133e-20)
(1.11828 0.0906062 3.65973e-20)
(1.11698 -0.0450123 4.29489e-20)
(1.05049 0.0115884 6.66323e-21)
(1.06084 -0.0798425 6.44514e-20)
(1.06718 0.103295 2.09374e-20)
(1.0605 -0.0205328 4.73849e-20)
(0.936578 -0.00398947 4.51313e-20)
(1.0462 -0.032152 5.4381e-20)
(0.301136 0.0264594 3.84132e-20)
(1.17522 -0.0642852 -1.70106e-20)
(1.01573 -0.003264 1.49453e-20)
(1.06417 -0.104051 3.7769e-21)
(1.05776 -0.0476117 -4.55805e-20)
(1.0776 -0.0931172 2.3501e-21)
(1.07259 -0.0592249 3.66292e-20)
(1.09157 0.0704101 6.53669e-20)
(1.03039 -0.00134072 -1.01236e-21)
(1.01484 0.0636354 2.06452e-20)
(1.03692 -0.000897187 1.51243e-20)
(1.03144 -0.00191735 2.95922e-20)
(1.03202 -0.00178797 -8.64163e-20)
(1.0739 0.0145124 -1.25822e-20)
(0.0795806 0.00533656 8.33794e-22)
(1.03362 -0.00412656 1.93823e-20)
(1.04944 -0.0365133 -9.81151e-21)
(1.03322 0.0350924 -4.02694e-20)
(1.02882 -0.000877348 -9.17381e-22)
(1.00961 -0.00351927 -4.44642e-20)
(1.04527 -0.00354736 4.05793e-20)
(1.09466 -0.0202301 5.99639e-20)
(1.03683 -0.000680091 7.91522e-20)
(1.03202 -0.00211909 -1.2016e-20)
(1.02221 -0.027612 1.84969e-22)
(1.03173 -0.00558506 1.93651e-20)
(1.02838 0.000778771 1.06877e-20)
(1.01771 -0.0332427 8.95622e-20)
(1.07059 0.0835345 -1.47226e-20)
(1.04794 -0.0191476 -6.98424e-21)
(0.97259 0.000155139 4.01152e-20)
(1.03327 5.77259e-05 -1.28111e-20)
(1.03711 0.0372373 5.35396e-20)
(1.03188 -0.00218921 1.15519e-20)
(1.03272 -0.00155999 2.58022e-21)
(1.03071 -0.00233935 1.991e-20)
(1.03205 -0.00186906 3.48472e-20)
(1.1629 0.0671278 3.80139e-20)
(1.05506 -0.0215522 1.13592e-19)
(1.03821 -0.0113701 2.77183e-20)
(1.01255 -0.00344942 1.79013e-20)
(1.02964 -0.000691018 1.06093e-20)
(1.10752 -0.0968159 -5.02544e-20)
(1.20333 0.0132808 1.02717e-21)
(1.11424 -0.105285 2.28085e-20)
(1.03179 -0.0226741 2.60342e-20)
(1.04016 -0.00491949 6.27613e-20)
(1.02939 -0.00346744 -1.31866e-20)
(1.02637 -0.00681762 2.93337e-20)
(1.003 -0.0334755 4.04154e-20)
(1.163 0.0523509 1.38396e-22)
(1.03262 0.0923365 -1.49605e-21)
(1.03176 -0.00259729 -2.01355e-20)
(0.975353 -0.0227175 -2.05394e-20)
(1.0302 -0.00288724 4.57308e-20)
(1.05837 -0.0186144 -1.8618e-20)
(1.1013 0.0682493 7.65755e-21)
(1.03237 -0.000719016 -3.50714e-20)
(1.03085 -0.00263849 8.13319e-21)
(1.13853 0.10157 8.70608e-21)
(1.16042 0.0362927 -1.1471e-20)
(1.04447 -0.00845579 2.10344e-20)
(1.03025 -0.00162384 -3.37783e-20)
(0.950941 -0.00584019 4.57827e-21)
(1.00848 -0.0344848 -1.01822e-20)
(1.03081 -0.00223362 2.42752e-20)
(1.04659 -0.0207658 6.53035e-20)
(0.579522 -0.00277271 -9.29224e-20)
(1.00126 0.021949 -2.04792e-20)
(1.07369 0.0864833 -7.15038e-21)
(1.09056 -0.046732 -2.61982e-20)
(1.03205 -0.0551795 -3.33633e-20)
(1.03505 -0.0016628 4.91652e-20)
(1.04312 -0.0148679 -5.80089e-20)
(1.15483 0.021332 5.7003e-20)
(1.03184 -0.0624641 1.89083e-20)
(1.04845 -0.0305031 -3.31684e-20)
(1.02796 -0.00074265 -1.15109e-21)
(1.14485 0.0073331 4.91022e-20)
(0.525286 -0.00618185 -4.98629e-21)
(1.03112 -0.0706671 -3.43594e-20)
(1.04722 -0.0173629 -9.02811e-20)
(0.91115 -0.00925976 7.68253e-21)
(1.03089 -0.00222651 9.65977e-21)
(1.02892 -0.00097466 1.59726e-20)
(1.05439 0.0523351 6.00017e-20)
(0.968117 -0.00460335 1.79138e-20)
(1.03319 0.00197803 -2.03942e-21)
(0.902568 -0.00346131 3.65838e-20)
(1.1705 -0.0514569 6.27179e-20)
(1.02074 -0.00118917 -3.95961e-20)
(1.05181 -0.0346143 1.33641e-20)
(1.02997 -0.00165404 1.50994e-21)
(1.03657 -0.00839999 4.1487e-21)
(1.03031 -0.0872402 -1.68256e-20)
(1.08433 -0.048064 1.9703e-20)
(1.02996 -0.00150825 1.24142e-20)
(1.02861 0.000466661 -6.40197e-21)
(1.03178 0.00262353 1.92806e-21)
(1.04367 -0.053009 -7.17135e-21)
(1.00343 0.0321184 -1.79179e-21)
(1.0803 0.0977369 8.50591e-22)
(1.13427 -0.00329372 -2.12807e-20)
(1.03209 -0.00193869 -2.63354e-21)