/*--------------------------------*- C++ -*----------------------------------*\
  =========                 |
  \\      /  F ield         | OpenFOAM: The Open Source CFD Toolbox
   \\    /   O peration     | Website:  https://openfoam.org
    \\  /    A nd           | Version:  7
     \\/     M anipulation  |
\*---------------------------------------------------------------------------*/
FoamFile
{
    version     2.0;
    format      ascii;
    class       surfaceScalarField;
    location    "24";
    object      phi;
}
// * * * * * * * * * * * * * * * * * * * * * * * * * * * * * * * * * * * * * //

dimensions      [0 3 -1 0 0 0 0];

internalField   nonuniform List<scalar> 
11512
(
154.803
-512.434
357.63
-764.538
-16.5425
781.08
431.023
-393.788
-37.2349
658.703
265.849
-924.552
1556.22
-1102.77
-453.455
1191.59
-1483.51
291.921
-51.0693
500.746
-449.676
171.694
-862.679
690.985
985.596
-1655.32
669.723
-1782.06
1693.36
88.6972
-569.167
1760.76
-1173.66
1990.76
-817.1
612.826
177.523
-790.349
-22.9026
-1344.12
1367.02
227.329
-2009.39
1056.21
-391.946
-664.262
-177.942
332.745
485.908
179.581
-665.489
1191.56
-1351.97
160.413
-316.903
390.608
-73.7047
1033.75
-1339.82
306.074
1256.61
822.675
-2079.28
70.579
-1676.12
1605.54
-512.698
-1149.91
1662.61
468.335
163.359
-631.695
-198.392
-314.042
511.668
1044.56
1682.48
-1838.61
156.133
-109.015
-1685.48
1794.49
-1604.93
667.842
937.091
-314.356
674.138
-359.782
-105.012
-100.169
205.181
1312.52
-1241.94
369.101
-1448.99
1079.89
-1092.34
1092.34
95.8516
1561.28
-1657.13
-1107.59
-497.347
674.621
-725.69
-394.504
970.4
-575.896
1239.12
-1232.43
-6.68851
-1134.24
739.732
649.084
407.123
-396.575
-45.9105
442.486
-439.901
784.215
-344.314
-954.184
954.184
1206.12
-1342.11
135.987
-502.813
1759.42
1295.02
-324.618
1705.31
-1189.25
-516.055
85.7941
-402.697
2124.34
-1167.04
-957.299
1849.18
-166.705
430.32
131.657
-561.978
-461.894
996.96
-535.066
-1193.36
1289.21
-585.351
1001.29
-415.938
416.249
775.312
660.187
-488.493
-450.761
615.448
-164.686
1226.63
-857.53
2368.02
-1109.3
-1258.72
1197.19
-2066.18
868.989
-1635.23
1612.33
453.805
-1627.47
-648.53
1145.95
-497.419
-694.408
380.051
1707.24
-721.648
-1134.6
-892.938
2027.54
683.934
-374.124
-309.81
710.693
584.325
-267.569
1473.69
121.952
-331.503
209.552
-286.961
755.296
-292.669
470.842
-178.174
-330.172
816.08
-327.699
-155.562
483.26
340.947
90.0753
1486.27
-452.52
-997.477
502.723
494.754
290.519
91.6832
-382.202
964.419
-351.593
-1745.34
615.289
1130.05
31.0893
-875.685
844.596
-280.317
597.13
-316.813
162.438
-1127.16
964.724
872.308
-885.821
13.5134
384.458
534.089
-918.547
-241.415
671.735
-1135.12
-497.906
1633.02
-491.882
738.728
-246.845
1350.77
-1459.78
-642.193
292.926
349.267
-486.517
-1027.91
1514.43
-557.317
-814.958
1372.28
585.953
-1003.5
417.55
-124.407
-204.221
328.628
422.654
-300.702
-1066.1
604.202
984.64
-822.202
-98.2129
767.613
-669.4
-188.096
384.886
-196.791
-630.408
-367.07
-397.285
983.237
1230.04
-1230.04
-464.19
-178.003
-946.12
1577.28
-631.157
346.155
-766.873
420.717
-952.531
367.18
-961.588
-1084.33
-1529.5
363.468
1166.04
-274.719
933.422
-311.631
631.442
-319.811
-1988.18
1026.59
-1161.72
-367.787
578.042
-1524.16
1776.42
-1774.99
-1.43032
226.647
-623.101
396.454
-1480.58
976.334
504.245
300.892
217.901
-518.793
297.211
-589.88
181.948
-295.584
113.636
2038
-842.44
-1195.56
-564.24
167.665
638.36
855.023
-1493.38
-154.095
336.043
445.478
902.163
-1347.64
-938.655
408.703
529.952
-1073.78
1490.03
-834.681
186.151
778.076
-103.937
554.041
-277.899
-276.142
1023.5
-520.775
614.128
-1446.14
832.013
-1382.73
247.619
-532.396
252.079
-1204.68
929.956
2007.88
-1138.19
-869.691
262.153
967.887
-2152.55
918.514
1234.03
210.041
-15.7344
-194.306
-171.052
335.405
-164.353
-119.361
-388.045
507.405
-483.128
155.43
299.79
-56.6636
402.819
420.242
403.871
-824.113
-2051.47
1137.02
914.449
475.004
-551.323
76.3196
150.021
-225.292
75.2707
970.139
1067.86
1815.77
-254.493
734.794
-441.868
820.129
-1431.67
611.541
354.891
329.043
1074.26
-1043.18
-514.088
-252.197
766.284
494.932
-142.266
-352.666
726.822
-549.299
614.936
-808.195
193.259
521.309
1184
-1277.63
720.315
1030.31
-1543.01
1.98127
-1478.36
1476.37
334.785
850.371
-1185.16
622.246
253.172
-875.418
-2276.21
1176.56
1099.64
-1125.62
-1150.59
217.653
397.283
987.781
-652.997
679.522
-691.097
11.5747
-2152.69
1018.08
-89.3318
-102.933
192.265
-44.3861
1820.81
-848.56
84.0226
-1055.4
-1097.15
-178.301
328.323
-679.732
215.542
-276.565
-427.651
704.216
1130.12
-1616.64
803.535
-1415.18
611.643
709.213
-443.364
1941.36
-1420.05
-340.544
-751.795
76.9068
423.839
-548.494
531.952
4.06521
-579.667
575.601
589.707
-288.815
-586.675
278.806
307.87
804.159
-383.917
17.5365
192.504
1221.09
-1219.11
187.189
235.466
396.391
-672.956
637.252
-1034.54
-2080.99
2080.99
-262.381
-452.98
715.36
720.66
407.137
-1127.8
597.291
180.785
406.095
398.064
-2255.74
1362.8
-953.168
-699.027
1652.19
-482.186
-722.489
-260.659
556.073
-295.414
868.743
-222.165
-646.578
-439.491
666.138
389.904
-701.535
-355.811
-147.819
503.63
-1350.66
-487.95
657.32
-1139.51
-330.158
-624.027
866.14
1501.88
227.917
-415.025
187.109
996.758
-347.674
1433.19
-819.061
461.286
-274.097
-341.365
-906.755
594.227
312.528
-354.655
-552.1
316.045
-435.405
-197.362
-127.183
324.545
-404.998
1125.66
400.118
-220.537
-342.191
1383.42
-183.932
-1199.49
-484.215
280.423
203.792
233.92
253.434
-487.354
6.53066
-814.726
609.984
-1776.46
1166.48
1523.86
-885.503
-1049.2
-431.38
-1090.49
590.859
499.628
1401.05
-424.715
955.681
-1453.59
-169.802
-220.015
389.817
-478.221
600.602
-1674.38
417.883
821.235
284.911
300.271
-585.182
489.542
602.797
1138.9
-739.261
-399.643
399.259
-213.407
-185.852
-1456.82
458.863
760.464
-1219.33
1517.15
-561.473
-488.4
941.39
-452.99
441.18
1214.25
-1655.43
18.8726
-510.755
-148.78
439.299
79.1117
-184.124
531.086
492.412
-653.93
55.7939
598.136
965.04
-1189.22
224.184
682.482
-276.387
484.582
-1489.2
1004.62
422.425
1734.64
-537.446
835.222
1172.66
-684.131
-1733.71
780.538
588.869
397.275
-986.144
465.111
82.7637
1798.05
-1880.81
1374.2
-387.627
-986.573
1746.09
-1790.47
-379.794
-527.283
742.394
-215.111
-518.473
192.303
302.629
-381.256
-1246.94
219.024
-790.031
-656.11
-611.362
1052.11
-440.744
-430.604
424.627
5.97721
545.728
-710.972
165.244
-255.973
75.3342
180.639
-668.299
-704.3
359.55
344.75
-956.436
1441.02
-420.037
908.775
-488.739
-2261.71
5.96907
190.217
-556.187
365.97
154.17
1229.25
-106.376
-573.356
167.183
-617.945
1530.58
-727.047
386.538
-481.417
94.8791
-124.083
124.083
619.681
334.503
1828.85
-1266.28
607.109
659.171
762.636
-35.8144
1329
795.337
-557.059
1377.19
289.464
307.666
292.782
-820.065
255.224
-695.125
213.649
-395.233
181.585
-247.711
601.657
-353.946
129.864
-377.575
-609.781
-582.498
1192.28
-365.584
541.858
-176.274
-1186.97
2055.4
-868.426
1329.22
-341.44
-163.341
38.9338
-1988.28
838.372
1554.75
-849.385
-705.365
2040.98
-902.052
-1138.93
735.18
594.042
-229.763
443.412
-676.359
1160.47
-484.115
-792.549
1238.03
567.599
951.189
-1774.88
823.691
-543.674
-84.1426
627.817
305.152
248.889
426.835
-105.691
-321.144
719.102
-68.9725
-650.13
933.245
-560.034
-373.211
1618.49
-488.367
912.371
-1673.19
760.818
1094.44
846.921
773.962
-460.593
-313.368
-969.813
-262.617
569.856
602.043
-1171.9
-452.528
512.018
-59.4897
596.962
-358.764
-238.199
-1011.12
591.079
615.455
908.408
-434.982
980.711
1445.25
-787.022
-658.225
413.064
-955.484
542.421
-1045.02
414.608
571.947
-1060.35
472.587
-531.717
59.1296
487.614
296.601
-104.535
-19.5472
-818.428
-901.795
1720.22
194.462
204.797
-238.912
456.565
-44.4758
-552.341
596.817
494.151
896.074
-1390.22
-509.373
312.011
757.363
-38.2602
861.487
-1097.59
236.104
390.481
871.081
-1428.14
-453.623
857.494
2034.06
-1319.88
-714.183
232.04
447.483
230.776
641.532
104.889
-989.863
884.974
1719.67
-1116.03
-603.644
-143.259
1941.31
-1916.49
-164.5
442.614
-554.054
111.44
-1047.01
542.278
504.735
-1673.89
486.925
-944.821
846.608
403.561
211.886
468.275
-240.358
-441.26
734.983
261.775
52.2339
792.184
-844.418
-1157.56
-874.379
2031.94
-536.528
1120.27
-583.738
-471.96
-113.605
24.2736
-1701.96
883.53
-833.262
-640.861
1474.12
-270.441
-270.351
540.791
369.099
-667.203
298.104
240.099
-624.016
316.959
221.186
-538.144
355.119
-615.778
636.215
-267.116
323.832
-479.393
679.065
413.343
-179.423
-396.437
-307.864
1245.95
-9.1884
-1236.76
1070.26
-433.005
576.667
424.622
-1790.33
852.564
937.763
513.768
555.641
-1069.41
-408.413
137.973
-270.554
1215.38
-944.826
-1545.47
1204.92
518.791
-1128.57
401.06
-14.5215
426.439
314.45
-740.889
378.596
-620.011
-28.8576
777.071
-748.213
-445.399
698.571
384.75
304.35
458.287
675.072
90.413
-404.91
314.497
934.764
-543.743
-391.021
510.533
-1709.51
1198.98
-1169.24
1801.54
-632.304
1762.86
-1152.87
-337.438
616.244
-1184.19
1289.08
293.329
-823.661
1640.67
-817.01
-255.462
-228.753
-947.855
1512.97
1863.92
-629.826
-1234.09
-418.442
752.596
-1363.96
-67.0675
-42.341
469.176
-700.702
-362.658
-1182.81
-234.086
474.184
860.164
-580.479
192.434
-1721.43
-73.9752
1795.4
-1084.7
548.177
590.212
-1216.07
625.861
927.92
936
610.699
535.25
701.584
239.806
-1156.33
479.971
-419.1
423.165
642.187
-531.101
261.415
-759.236
497.821
696.955
-342.064
-242.912
142.744
-612.03
228.335
383.695
-916.003
-757.186
1113.34
-2197.67
410.589
-697.55
-318.568
-567.253
860.026
585.221
-361.751
315.841
363.854
254.113
677.913
-932.026
526.596
633.878
-546.851
191.039
364.678
-627.059
-1130.31
-804.443
1934.75
-1838.48
162.359
1139.39
-1409.95
1184.37
-722.251
-462.117
-519.383
1390.46
-1537.35
648.863
888.492
-148.631
-140.255
288.886
1467
573.98
338.015
-485.834
-503.599
-579.022
1082.62
-429.525
619.741
1628.35
-1161.31
-467.036
-791.49
338.511
549.813
384.952
-1667.67
431.184
1236.49
-208.479
525.437
821.302
807.049
212.581
-699.697
487.116
195.292
189.594
-222.761
-89.8259
312.587
491.42
-5.46245
-485.958
-1657.88
608.684
-1619.53
1694.53
-74.9978
17.1952
-1636.73
1044.04
772.51
-346.071
-818.779
-226.236
-1169.72
-245.462
-318.631
697.227
-1864.69
-639.505
1241.55
212.648
784.312
-1368
-698.185
-480.572
616.369
-331.457
-1037.18
1387.38
-1986.76
599.379
664.921
1325.84
336.635
-1.23069
741.617
715.313
-1456.93
-661.144
351.068
310.076
316.461
-76.5429
-239.919
162.727
298.14
175.58
-473.72
-589.587
1178.46
461.878
-628.802
-471.963
-415.18
887.143
-349.696
179.895
-475.373
174.67
-316.454
-730.559
382.395
-65.9336
-584.891
997.955
330.474
-172.455
-158.019
469.734
-799.906
-667.566
443.138
-1157.14
-848.846
1212.31
-585.404
470.205
296.079
-456.557
82.4333
1058.17
-180.957
382.028
-201.072
-523.712
1567.75
-775.205
246.575
387.026
-633.601
228.835
485.967
-26.1115
-459.855
-261.432
-213.941
861.81
1136.59
583.081
-888.806
966.879
-78.0734
-199.002
50.3715
-742.987
315.336
-647.399
320.282
376.674
850.268
-1254.82
404.554
802.558
-831.416
-965.054
-570.314
1535.37
-166.43
466.701
-548.872
270.974
1367.88
789.794
-577.213
1340.55
-683.228
492.456
-693.743
-420.628
-432.976
-388.302
821.277
518.165
-869.757
-458.079
94.6701
363.409
-238.495
591.214
749.754
-339.165
-218.573
-164.151
382.724
-508.856
153.004
355.852
1498.31
81.588
-1579.9
-769.797
1385.25
-1178.57
-476.745
557.188
-170.162
1184.3
-381.743
1109.68
508.808
716.366
-423.584
-908.451
-540.537
-1352.68
-31.9259
1014.87
-982.946
604.616
343.019
-947.635
-329.903
-234.337
-762.492
416.398
1664.59
-186.874
372.302
366.912
-739.214
-1890.89
-2161.24
1557.84
603.399
-2041.82
356.342
378.709
540.644
-919.353
-475.221
1051.89
-413.537
-674.815
1088.35
-2082.98
1426.19
656.789
602.361
-1015.9
61.0223
411.565
383.105
208.346
252.939
319.537
981.07
883.663
702.045
-337.56
-364.485
-303.616
639.635
-336.019
593.368
545.536
572.195
494.768
-1066.96
-815.783
-721.572
776.598
407.703
-423.843
721.947
-1222.13
1653.31
440.953
-1115.77
-332.699
553.885
-1416.97
918.116
498.849
-715.377
-308.399
-853.025
383.481
469.544
461.312
739.839
-1201.15
1100.59
-586.821
-406.819
679.467
-272.647
169.407
161.068
-482.737
-446.629
929.366
-251.714
560.196
-972.92
412.725
-453.579
616.397
-1725.69
436.97
691.293
-1128.26
541.533
89.9088
116.544
-2269.23
562.733
-92.5283
1486.22
1822.18
-222.283
-1599.9
-450.76
1838.14
-2043.28
1227.86
815.415
419.002
354.96
-27.4457
887.471
-1322.8
740.301
-897.917
-849.193
817.267
322.248
55.7934
-378.041
89.3479
98.8275
-188.175
1592.28
-850.667
-920.034
-310.006
491.008
-203.063
-287.945
397.868
357.428
254.482
361.887
-7.92395
1030.4
-1022.47
377.759
287.406
-665.165
-753.771
1866.45
-1112.68
-350.975
748.843
-1241.07
-416.065
-945.69
499.061
588.301
-798.373
210.072
787.422
-394.578
-392.844
-426.161
-462.645
452.294
1098.54
1272.71
-682.501
825.64
-355.906
387.868
327.493
-262.195
-219.222
-221.94
644.365
420.669
-875.917
455.247
221.015
362.665
-583.68
-437.338
858.008
777.802
-1182.8
898.294
-48.0268
-510.455
293.654
780.61
-98.2662
1424.11
1938.73
-73.0387
353.462
-323.142
413.555
-1116.97
1109.05
632.241
388.035
399.387
61.9162
429.092
280.292
500.789
-381.325
-279.819
-358.365
-72.2398
-368.049
380.928
-12.879
-254.289
-278.107
1037.69
-1585.19
547.499
-201.898
-191.889
-387.411
674.817
-1672.51
1634.99
-986.132
272.152
-692.78
601.112
1254.75
-1855.86
627.939
1007.06
316.805
-1152.73
711.473
-290.022
-295.16
1402.08
-1482.93
841.927
641.001
418.818
-641.776
222.958
-370.987
492.809
-121.822
374.985
116.435
1773.86
442.457
-247.165
575.244
-1750.79
1175.55
-92.7149
401.427
351.955
350.09
-462.188
-633.86
1096.05
437.486
-891.109
-660.621
928.211
588.942
-130.445
-125.528
-454.195
-421.721
-318.712
-851.005
1190.84
-1190.84
-98.3473
-1609.51
1707.86
301.065
295.897
-941.507
-574.101
1515.61
-417.109
989.304
-620.018
-1037.86
689.905
409.213
-1099.12
492.568
-168.736
589.165
1250.57
-1839.74
-1049.4
2114.59
-1065.19
-384.415
-309.992
-493.964
832.475
-1796.55
1643.21
153.339
1796.55
-1645.25
-151.296
-246.064
526.235
-280.171
-554.41
1664.09
1591.32
-2007.39
1104.51
-287.42
-264.594
552.014
252.947
-585.646
-721.157
297.314
1380.17
653.885
593.604
502.144
-1095.75
295.124
421.242
897.433
516.093
-1413.53
545.444
-1049.04
1620.01
-582.319
-774.85
-372.892
-122.706
495.598
-505.602
1245.44
-767.615
330.362
341.373
367.804
268.962
-636.766
620.751
857.508
-621.404
281.962
684.917
-130.445
-322.424
-240.44
562.865
1197.9
-675.492
630.601
478.606
-1109.21
-990.918
990.918
-398.779
786.814
-297.947
-487.246
785.192
495.864
466.05
-961.914
399.108
-697.055
634.019
-895.467
261.448
-379.753
-512.778
1106.38
-682.88
-729.461
1412.34
-394.317
954.513
-1595.14
693.09
49.1574
-430.191
381.033
-507.785
723.327
263.701
337.956
177.741
314.827
-526.952
236.93
1923.26
-2021.52
284.024
-723.515
457.328
-847.632
390.304
-906.005
1437.27
-531.264
-443.91
-501.78
618.929
1153.97
-1772.9
-738.76
354.344
-473.443
1066.81
-787.947
1069.91
-337.801
-641.054
-487.025
742.249
463.484
-300.125
933.35
-310.107
-198.749
1640.85
-1863.13
-365.307
-607.614
-342.464
495.468
268.774
-600.232
-193.212
1084.77
-791.114
223.981
-296.339
-290.072
586.41
412.724
-902.338
489.614
-475.827
-457.201
-415.025
-344.273
590.567
-246.294
-463.941
-430.162
-333.696
-204.448
-391.882
660.843
-450.366
777.859
-1105.05
642.859
-1410.33
577.066
-28.1674
-1886.55
1914.72
589.076
-463.416
1242.14
-693.963
48.535
-48.535
689.395
-444.09
1037.53
-1657.55
-1188.11
-973.129
303.689
335.945
901.814
738.857
-496.449
-319.315
815.764
1703.85
-1732.01
-447.031
363.057
226.65
1170.01
-539.404
-967.947
1590.98
-623.033
460.525
-252.178
384.29
398.862
-783.152
538.868
492.885
-1031.75
-333.605
663.967
-39.1869
1962.44
1615.57
1019.61
-1746.66
748.483
-1213.73
465.247
-509.88
1407.31
862.24
-1381.62
-565.304
277.884
816.07
-418.795
573.396
-1222.99
649.59
-656.19
-1246.55
-715.137
1961.69
-213.01
565.407
-352.398
-185.018
299.29
-512.3
334.835
386.983
-721.818
-1522.14
781.06
741.084
904.466
-1474.78
852.791
-444.088
228.479
-377.26
-598.166
275.742
-697.534
-719.431
719.933
521.417
-1241.35
402.779
-209.406
-193.373
572.838
-988.776
-573.42
-428.931
744.267
-854.006
-1189.27
-1479.31
516.261
963.052
8.62206
-643.669
353.18
290.49
-1345.39
1076.86
268.526
-634.781
-470.266
-663.462
894.238
415.992
-212.039
-203.953
525.737
1006.32
-1532.06
1004.92
-329.595
112.513
217.082
-414.084
692.707
-408.684
-525.685
183.221
241.215
-1561.09
552.058
548.531
-765.207
257.422
164.273
-474.38
387.556
-844.757
2002.35
-1224.46
-777.894
413.666
-686.237
272.571
164.275
332.177
130.125
-462.302
-576.523
191.985
250.472
-714.597
1413.98
-699.382
436.397
488.247
-1203.62
271.946
1921.63
-1043.39
-878.241
726.807
-542.359
198.086
1426.22
-985.647
-440.577
351.437
-795.527
-635.789
1772.38
633.552
639.162
332.434
-10.1861
285.888
-1167.12
1772.78
-605.658
-1809.71
841.765
1780.06
-1706.32
-73.7379
-680.155
261.055
580.565
-728.267
241.242
1444.56
-582.324
407.927
449.568
-1909.87
1459.11
561.042
-427.161
-133.881
222.528
-556.224
-279.999
-191.961
-363.622
715.578
-590.897
218.005
619.841
573.241
-1193.08
1143.65
-2002.52
858.874
175.028
328.602
-1748.68
1709.49
332.53
-756.114
-169.022
397.501
769.513
702.071
-1471.58
1095
-1104.19
548.028
-1134.85
-652.237
264.048
388.189
532.57
-304.235
-631.821
-1025.72
312.14
-742.301
-935.007
194.421
170.691
232.088
391.921
310.546
-702.468
-642.677
-858.527
-1006.16
511.931
-1088.45
-291.101
494.893
555.116
657.197
-131.887
-31.4541
-412.403
729.208
287.585
-1232.93
590.253
1343.64
-574.129
464.574
-1037.99
-197.82
172.192
388.849
1050.23
569.781
-1728.21
1629.86
1651.03
-595.738
-1055.29
1957.24
-1945.06
-12.1762
211.613
-534.755
-347.829
571.81
-776.434
-326.422
-353.733
1019.21
722.848
-1529.74
806.897
359.224
-25.9371
1666.79
-1106.04
430.553
-1261.96
487.109
-61.0622
1559.37
1234.89
-486.404
-301.754
-27.8417
-281.46
756.664
-2003.21
-733.743
358.266
-552.722
194.456
66.7934
-247.75
1170.84
690.457
-1861.3
-620.24
193.079
967.228
-1541.33
-213.934
654.296
-440.362
886.69
1113.31
-754.802
1388.35
615.042
-487.14
-127.902
-362.532
1204.46
1062.93
-1981.81
918.874
-1204.57
565.065
1532.68
-604.474
-381.095
-165.756
-1276.52
594.021
1196.64
-66.5832
973.651
797.998
-1771.65
-222.212
597.503
-1586.65
989.147
504.321
940.29
-1444.61
631.907
609.641
393.491
-1134.27
388.813
1138.59
556.994
-301.905
-255.089
-1216.84
-1802.91
-3.30784
-1724.9
-220.889
-420.887
1653.3
-643.351
-1009.95
-503.979
1114.68
-1354.94
657.689
697.253
-1399.49
1481.08
-1367.88
613.079
1564.73
-402.03
-584.117
203.022
-1501.74
239.778
179.288
236.261
378.781
434.2
416.592
-850.792
524.738
-963.462
926.312
-1487.79
-712.369
248.922
463.447
-1070.27
480.688
-481.961
889.887
718.743
33.0104
-541.028
188.63
-908.67
-1353.04
-739.663
363.411
376.252
419.812
-746.799
326.986
-414.344
-164.641
-526.456
737.293
1583.79
-610.141
830.583
761.7
1370.86
-854.769
-997.671
-588.979
-824.226
440.814
383.412
-1067.79
-663.602
316.346
347.256
-1409.92
-263.977
-817.323
412.421
404.903
-665.714
401.456
264.259
-695.217
286.533
426.857
502.509
401.925
456.082
491.69
395.453
612.023
-993.279
689.072
489.384
451.942
344.864
-796.806
1674.84
-1106.45
-568.387
-521.721
-286.368
-1059.02
467.832
353.445
422.514
611.281
-1033.8
-1419.91
776.562
-553.53
1179.39
367.471
-69.3306
425.45
-894.328
468.878
-1905.43
295.921
436.904
-704.438
267.534
-191.621
419.527
-227.906
-684.317
320.88
363.437
-697.26
332.775
381.615
405.198
631.086
-1048.2
776.465
680.267
-1456.73
451.653
644.395
321.334
333.857
-655.19
418.291
330.552
604.237
676.082
422.461
597.63
-1044.01
446.377
-1703.72
1181.14
522.582
1741.79
-557.79
640.981
-1182.63
541.651
-605.287
334.937
451.858
-965.432
513.574
764.015
-449.564
358.087
357.491
573.005
-938.312
670.322
-1291.85
621.526
389.699
756.552
-1262.15
792.193
525.71
-1317.9
488.201
426.309
-914.51
-518.725
-960.588
-315.402
650.238
359.207
551.155
-910.362
339.463
324.504
-517.909
1994.28
439.279
-840.338
401.06
-943.831
-831.049
-774.371
381.527
-1246.41
458.462
-1774.69
1645.25
129.438
1793.08
-1643.21
-149.867
-810.101
-609.826
276.439
333.388
-1780.06
2007.39
555.448
814.664
-1370.11
454.599
737.68
709.495
393.654
-1103.15
-60.8411
1662.94
-612.713
403.929
838.211
-579.071
307.191
271.88
-389.574
-233.106
402.513
-232.366
450.267
267.972
-607.66
339.688
273.69
-590.503
-294.273
456.505
-1065.01
608.509
554.91
1119.93
371.439
611.798
229.317
196.239
-425.556
1653.71
-930.864
1740.43
-1564.36
-176.075
-336.136
-850.857
429.135
870.726
-1084.66
-626.951
290.932
-1117.53
1672.44
-1607.29
-71.1269
1678.41
-350.512
-359.913
-380.914
552.116
617.89
-519.349
-31.9747
-537.684
515.718
-288.194
-227.524
1775.94
-1323.65
-638.076
308.935
329.142
417.971
369.526
756.132
-302.131
-410.959
-1793.08
1732.01
473.571
-1134.24
660.665
-40.2592
1670.12
584.358
471.64
-1056
80.2749
1176.59
-1495.3
-7.0298
-1898.4
235.547
-582.084
291.215
290.87
-927.415
608.847
-927.987
484.077
-1162.88
693.64
469.239
382.109
283.979
-780.427
-315.339
1254.65
911.465
721.557
-1221.61
476.545
745.069
509.858
721.731
-1231.59
-363.302
-254.997
425.688
-991.303
452.851
538.452
21.4068
-1931.27
1113.51
-479.491
-503.553
575.574
-1419.51
843.933
-432.768
823.072
-417.936
505.066
-1009.08
1870.89
420.733
-188.645
164.18
-175.958
-252.39
428.348
1944.09
-517.892
-1724.71
1082.74
-503.869
270.763
-1045.49
570.265
-318.557
562.984
929.212
-1492.2
-1110.54
447.076
-20.7939
-2000.73
1717.74
-654.807
-516.211
476.05
-1227.41
751.361
196.15
219.842
-237.697
790.175
722.798
847.395
747.803
-402.939
1117.97
-504.957
485.94
-196.64
-289.301
-1978.41
-695.523
-314.113
-403.475
-1.87724
405.352
465.01
-273.024
582.847
1070.86
-820.073
954.367
1282.26
-438.436
-205.062
-252.113
457.174
950.598
-909.205
-342.681
-1100.31
630.044
1597.85
-816.791
555.91
959.698
-398.742
758.998
-360.256
1164.09
-247.859
326.999
1390.24
-725.473
-230.011
465.482
-1237.36
771.876
-989.722
-150.581
1140.3
456.124
-986.105
529.981
189.908
239.665
317.329
790.461
-112.548
881.532
-439.081
1181.27
-787.619
570.067
-1508.79
938.718
-1246.54
1847.66
-439.729
-1548.45
903.119
-1443.66
-321.477
-419.412
1500.41
-1566.95
809.763
1532.4
208.295
277.646
-361.412
-1774.69
-309.613
-1021.07
1603.92
-1801.94
1801.94
1591.32
-1035.49
-655.63
-344.256
370.5
618.803
-367.928
-369.501
-1430.14
920.258
1153.58
619.199
1216.13
1835.3
-1246.13
-623.29
268.37
1704.92
-1969.85
264.923
837.942
-1304.98
1587.84
-580.78
804.695
315.571
-339.819
572.09
818.373
635.862
1396.08
-228.232
-459.108
-363.118
393.915
-262.258
487.111
758.33
-302.384
-159.918
-332.255
585.237
-252.982
26.3406
-385.104
1135.92
-1768.23
-456.11
-493.319
-583.969
890.597
707.255
-1642.87
928.274
-466.372
-631.33
-529.4
1289.86
348.928
1771.07
-1749.67
-1703.85
1945.06
-1599.58
860.067
739.513
-370.167
-1846.43
944.639
601.134
843.429
-414.137
1845.01
-701.362
-412.027
682.526
451.251
-1133.78
-1132.55
459.556
775.33
-1660.86
489.848
924.13
177.788
-397.677
219.889
-1613.58
-395.809
-428.815
1011.66
-686.269
1485.12
-968.793
1855.48
244.775
-548.773
510.169
-301.874
491.334
915.979
561.367
1003.37
-477.729
-442.124
592.469
907.938
-1371.32
-38.6023
1612.73
-851.03
538.03
994.375
-1519.39
-1109.16
1786.56
-1242.72
-543.844
1243.39
-330.394
-912.994
-193.271
459.773
-266.503
-471.084
-255.959
440.71
-184.751
153.12
-408.117
1746.58
-1749.89
-462.997
-550.16
-924.62
440.435
-202.623
-237.813
501.196
-455.695
-358.815
-322.43
681.246
-969.87
417.77
-1195.26
691.282
422.563
-645.054
-449.005
1613.45
-874.591
546.568
-472.649
-587.673
-477.341
54.8539
-52.1305
-2.72342
-1124.36
430.392
-685.042
-1061.4
1746.44
-605.7
-1465.25
735.786
580.138
-1641.29
1061.15
-386.031
-485.837
163.318
538.266
-1296.33
766.935
557.521
1030.31
-2183.6
1016.88
1166.72
-361.803
69.0667
-61.7638
-7.30291
1521.06
-384.579
464.216
1159.55
600.847
931.838
585.051
543.672
-1128.72
173.298
-443.974
-1706.32
272.922
1151.77
-622.918
535.955
1040.15
-1576.11
1119.99
-1688.38
181.183
717.111
554.517
-897.198
-1108.25
-129.017
340.736
-211.719
-556.915
-431.755
-655.174
-483.017
245.32
-1665.77
966.748
-491.378
214.291
-402.936
549.841
-314.294
-611.685
1233.22
-1301.07
929.4
371.668
-1031.21
-365.999
-773.86
-843.025
1733.62
-491.801
1798.8
-1591.62
-207.173
-1599.4
1043.73
555.665
-741.862
-163.411
298.263
-134.853
-599.07
394.813
286.235
-681.048
-540.422
1010.36
652.051
-361.119
-1660.58
1075.18
589.767
1131.11
-1720.87
-414.883
-306.142
-378.175
-762.224
-471.127
-340.467
518.209
1601.99
-1021.85
-798.022
1540.57
683.696
-320.639
746.897
1177.4
-1924.3
288.361
316.002
-502.214
-1987.39
1769.47
217.92
764.108
-488.751
-275.357
549.199
1087.03
-1636.23
54.8539
-1731.93
-239.573
1797.41
-1621.74
1102.68
519.059
-1736.33
4.39567
-537.949
69.0667
1748.68
-1769.47
966.243
643.614
-1609.86
266.691
-162.008
-104.682
-410.623
-284.594
62.4691
45.3375
-208.748
-448.474
-446.993
-422.586
230.964
1549.68
392.383
-232.469
-433.245
429.537
-179.065
331.863
1551.9
1102.71
-221.66
-881.051
-1133.24
1752.17
-1777.75
1092.71
-728.472
-1049.28
-1295.14
1892.18
-597.037
1185.44
-1819.91
634.474
169.246
-902.831
1721.99
44.7426
-1766.73
-507.534
-1109.11
-1746.58
-1011.7
569.579
1044.36
608.589
1161.41
-1770
295.948
-466.11
728.288
-395.514
375.927
951.206
700.988
-400.237
-643.771
601.346
1099.3
-1700.64
-408.604
-384.898
793.503
438.007
-1709.49
1564.36
145.133
603.407
-1076.85
560.909
1111.53
-1598.98
1018.2
-248.676
246.28
325.53
1957.24
424.811
-90.531
1015.65
743.198
-1758.85
-717.553
1111.66
-1600.03
172.389
-587.082
190.254
239.283
-662.215
-584.194
601.137
1061.8
-718.716
-282.866
-1409.97
696.701
713.268
-399.413
811.989
100.789
-912.778
579.167
-141.174
1600.28
-226.436
273.256
-790.387
-1987.39
1709.76
1017.04
75.3342
313.846
450.169
-957.926
-1020.49
-1813.05
658.861
1739.7
528.619
-489.713
1248.04
1116.54
-437.159
1055.96
-1009.8
510.947
498.852
720.833
1077.25
-1798.08
503.695
494.26
-1536.29
-770.881
31.6195
806.951
-425.424
-910.95
407.397
-555.174
-826.448
187.109
-595.185
1439.12
1084.37
164.797
175.94
-569.082
1663.59
-794.079
1570.54
-1774.57
593.108
1181.46
563.89
-911.563
-1781.58
1969.85
-188.264
1762.55
186.749
-559.598
151.62
-106.283
-497.26
1248.62
584.376
1157.41
-501.691
451.39
886.449
-479.325
-799.135
435.804
363.331
1459.63
1119.45
-536.107
1464.38
-500.017
-455.458
955.475
-621.578
509.339
-1231.59
1740.43
1885.15
-707.749
1631.73
-665.486
-1279.16
738.736
-580.674
131.947
-234.88
390.784
-201.19
-535.925
-1277.72
1919.2
-641.479
1209.18
-568.202
1147.61
-1705.4
1734.98
-592.498
-561.106
-566.983
1765.96
-327.181
-710.491
-490.478
1262.35
-1729.76
-1908.34
630.622
338.027
-984.604
174.207
221.975
-1764.8
1233.15
531.654
1190.72
571.826
-526.38
-483.905
1228.97
183.291
236.236
605.121
1280.03
-554.405
-1268.46
1822.86
-1054.16
1052.09
869.54
-209.288
-1704.92
1749.67
-527.821
1451.95
-1781.58
-381.003
13.8935
367.109
-276.805
605.63
-328.825
90.9511
503.276
806.968
-387.155
1286.53
1298.67
-427.942
880.555
-451.42
1867.03
-681.592
1629.9
-1771.07
-424.3
-757.695
301.286
456.41
-576.402
-581.821
63.0813
-1032.89
-1013.14
-689.68
1702.82
-962.442
-1221.16
155.24
-419.835
-667.617
725.266
1197.89
669.142
1452.31
-608.882
1678.82
1357.53
-590.599
-507.507
205.632
-521.177
1437.16
1277.62
-580.916
-958.617
922.371
53.8087
-976.18
582.107
-523.781
1444.04
1538.98
-607.14
-55.3297
55.3297
-608.043
1669.19
1278.24
-502.912
1160.35
-58.432
1852.93
-377.558
1533.45
-607.135
-526.175
1386.24
-673.435
1255.62
-582.18
1599.76
-610.613
759.051
596.866
-1355.92
-654.794
295.174
494.619
618.59
-2005.83
-1007.85
1629.9
55.3459
-55.3459
-76.7545
403.203
449.588
392.754
-17.7688
-298.598
914.658
-524.959
-438.085
841.288
-254.175
642.364
-420.894
1557.91
-461.622
-891.058
183.386
211.967
-395.352
618.668
1279.94
-1898.61
957.294
-473.217
-52.1305
129.426
-1994.51
1865.08
-467.904
193.807
1214.71
-457.693
-757.016
-320.32
-590.63
-505.801
-61.7638
-481.407
253.883
1193.98
-576.095
237.558
-396.38
158.822
-6.90993
-99.242
751.795
-652.553
15.8599
-374.224
-605.007
-79.5935
79.5935
-1255.83
1999.03
-1282.05
-229.593
-1826.77
235.145
-1050.5
-998.727
-192.68
-1685.32
727.397
1260.88
-1976.01
384.449
319.758
-704.207
-1897.66
1265.1
632.557
-126.407
126.407
-984.563
-10.5267
-1916.49
-575.673
1695.6
-697.91
1682.28
-620.474
-189.313
-1709.09
-604.687
-443.85
-613.159
-87.0732
87.0732
-1577.68
200.395
1377.28
155.814
186.933
-342.747
576.616
526.096
1028.46
-490.01
1795.84
792.657
-194.701
187.398
535.747
1749.18
-613.261
-570.199
1681.73
458.624
1861.78
-663.893
-1855.56
-1985.51
-665.941
-92.0988
92.0988
-606.393
243.275
-693.803
1050.99
-480.724
-1102.66
-293.234
967.887
1898.7
1678.89
-1678.89
-281.321
762.781
1808.31
612.406
1306.79
130.639
136.052
607.318
587.413
966.221
-966.221
231.284
-362.349
-445.909
404.08
981.647
-470.699
-659.024
-1159.3
1752.41
292.138
-1670.62
632.757
-295.231
481.981
1791.65
-610.189
-163.637
-426.624
396.786
741.805
1785.73
-632.156
-528.31
-773.713
2009.59
-892.816
-1116.77
1687.93
-621.539
1254.48
-1872.91
618.43
352.497
-901.271
-180.151
-24.2574
1131.54
-501.499
128.412
641.879
-1667.6
457.119
624.413
-1855.56
-600.915
1834.06
909.666
-1191.98
1807.61
-615.625
1830.62
-592.968
-1237.65
458.224
934.815
-1749.89
949.014
-1476.54
233.765
1242.77
-857.078
-1285.25
-164.794
38.4545
126.34
599.673
281.245
1053.98
-461.459
874.014
-412.555
845.882
759.091
-1604.97
662.229
1097.19
-4.59994
-452.194
456.794
-1793.95
744.664
714.328
97.7889
-1150.8
1986.87
-693.005
-1293.87
-554.874
1712.29
847.762
991.115
-1838.88
1259.11
702.58
-413.629
734.508
849.414
1060.59
-604.465
1808.31
645.58
1820.41
-1214.79
-605.624
-377.662
-339.182
716.844
107.645
-1094.22
1705.66
-558.044
-792.419
792.419
1280.1
612.079
1386.46
215.523
-566.856
291.754
-200.071
718.914
1142.87
499.48
-316.189
-895.197
-592.588
1745.49
-1745.49
550.568
-550.568
1012.78
1051.21
-2063.99
1885.96
-631.481
-598.804
839.4
-971.527
-1078.98
1026.49
711.091
-1737.58
-104.535
-366.566
-649.332
-829.593
2094.69
-1277.41
-630.932
1028.07
999.476
1322.54
664.327
338.715
1038.06
234.924
345.508
602.797
1803.13
-1803.13
681.256
25.2748
-183.294
-1022.41
-560.578
1720.92
988.474
1011.53
-1881.12