/*--------------------------------*- C++ -*----------------------------------*\
  =========                 |
  \\      /  F ield         | OpenFOAM: The Open Source CFD Toolbox
   \\    /   O peration     | Website:  https://openfoam.org
    \\  /    A nd           | Version:  7
     \\/     M anipulation  |
\*---------------------------------------------------------------------------*/
FoamFile
{
    version     2.0;
    format      ascii;
    class       volVectorField;
    location    "24";
    object      U;
}
// * * * * * * * * * * * * * * * * * * * * * * * * * * * * * * * * * * * * * //

dimensions      [0 1 -1 0 0 0 0];

internalField   nonuniform List<vector> 
7807
(
(1.08054 0.111404 3.50839e-20)
(1.07107 -0.0222443 1.09031e-19)
(1.04502 0.0944893 -5.64644e-20)
(1.05397 0.0728532 1.12628e-19)
(1.03037 -0.00189523 1.74799e-20)
(0.965884 -0.0128261 1.3646e-20)
(1.04522 0.0917847 -1.12027e-19)
(1.01912 -0.00186415 4.32871e-22)
(1.02799 -0.00153143 1.54243e-20)
(1.0355 0.00277459 -9.68533e-21)
(1.00493 -0.00739815 -1.51167e-20)
(1.03084 -0.0022511 -2.77319e-20)
(0.992012 -0.00273315 -2.6859e-20)
(1.03702 -0.00072768 -1.14924e-19)
(1.03426 0.0029976 4.04271e-20)
(1.02548 -0.00891445 4.29567e-20)
(1.08125 0.115391 -7.44664e-20)
(0.974971 0.000179104 7.49738e-21)
(1.03227 -0.00564849 -2.17927e-20)
(1.01746 -0.0705181 9.24224e-21)
(1.04975 0.004647 -3.09738e-20)
(1.0305 0.00027572 7.88647e-20)
(1.03872 -0.00148293 1.48762e-20)
(1.01568 0.0421911 -6.85492e-20)
(0.947686 0.00244386 2.66606e-20)
(1.07784 0.109741 -3.52003e-20)
(1.03067 -0.0016088 1.46079e-20)
(1.04056 0.000707456 3.78648e-20)
(1.00729 0.0211685 -9.97691e-21)
(1.03232 -0.00572059 1.94472e-20)
(1.02172 -0.00927313 6.12851e-20)
(0.550469 0.010258 1.1621e-20)
(1.03806 -0.00159794 8.01862e-20)
(1.02838 -0.00270602 -3.33449e-20)
(0.519008 -0.00048837 -4.61465e-23)
(1.03713 0.00296805 1.54416e-20)
(1.03311 -0.00697259 1.43217e-20)
(1.04485 0.0910982 -1.90268e-20)
(1.02756 -0.00534405 -7.76882e-20)
(0.902054 -0.00400337 -4.10593e-20)
(1.02793 -0.00536403 7.81737e-21)
(1.02552 -0.00851317 1.60314e-20)
(1.0401 -0.0781699 -4.40309e-20)
(1.1509 -0.0167648 -1.56192e-20)
(0.488318 -0.00266785 -1.95279e-20)
(0.929421 0.00714116 8.6699e-21)
(1.02932 0.000430787 -4.79733e-20)
(1.02847 -0.00484465 4.57325e-20)
(1.02746 -0.00189016 8.42794e-21)
(1.021 -0.0710908 -1.36132e-20)
(1.03128 -0.0017628 2.21147e-20)
(1.04133 0.00148916 -4.08947e-20)
(0.902804 0.00249204 7.28504e-20)
(1.03814 -0.018659 1.55972e-20)
(1.03739 0.00208795 -1.18878e-20)
(1.02756 -0.00290424 7.94135e-21)
(1.03125 -0.00478102 3.43772e-20)
(1.00319 -0.00174644 -5.11204e-20)
(1.0149 -0.0108679 6.99615e-20)
(1.02821 -0.00324294 4.05076e-20)
(1.02642 -0.00134446 -2.03759e-20)
(1.03262 -0.000153709 2.10126e-20)
(1.03761 -0.000220677 -2.59773e-20)
(1.03016 -0.00159755 2.83162e-20)
(0.921641 -0.00832882 -3.02377e-20)
(1.02212 -0.00965427 -9.7811e-21)
(1.02706 -0.00193977 -1.43482e-20)
(1.0243 0.000242187 2.08112e-21)
(1.13974 0.076305 3.54977e-20)
(1.02868 -0.00433485 1.84251e-20)
(0.99438 -0.00171826 -7.85489e-21)
(1.00955 -0.0389937 8.1988e-20)
(0.98388 -0.000861267 -1.31773e-20)
(0.821752 -0.00305091 -1.11501e-20)
(1.00118 -0.000184675 -2.34936e-20)
(1.00467 -0.0176073 1.11697e-20)
(1.04561 0.0953485 9.0467e-20)
(1.04831 0.00419503 3.89224e-20)
(1.09205 0.0149571 -7.99418e-20)
(0.99801 -0.0308865 9.26129e-20)
(1.01163 -0.00336271 4.13617e-20)
(1.02501 0.0976856 1.28351e-19)
(1.05149 0.0152066 6.81495e-20)
(0.981949 -0.00332653 -4.99347e-20)
(1.02823 -0.00251811 2.36154e-20)
(0.791879 -0.00409236 -1.27017e-20)
(1.02516 -0.00294998 -6.82789e-20)
(0.947958 -0.00114289 -4.65607e-20)
(1.02942 -0.00162845 -1.99949e-20)
(0.790997 -0.00585314 -2.44887e-20)
(1.00765 0.0240366 7.08075e-20)
(1.17601 -5.70398e-05 2.42554e-20)
(1.02366 -0.00221218 1.4381e-20)
(1.03114 -0.00457454 1.60636e-20)
(1.00677 -0.00336403 -2.92582e-20)
(0.552571 -0.00376442 8.62028e-20)
(1.01136 -0.0388049 -4.93418e-21)
(1.03927 -0.0176185 -2.68742e-20)
(1.02791 -0.00246595 -4.72545e-21)
(0.877061 0.00655848 -8.6031e-21)
(0.884321 -0.0117385 -2.35314e-20)
(1.09234 0.019221 6.01164e-20)
(1.01999 -0.00137103 7.23892e-20)
(0.53847 -0.00136992 9.68423e-22)
(1.17744 0.0102431 1.53384e-20)
(1.03963 0.0399511 -6.81164e-20)
(0.786391 0.0443296 1.57804e-20)
(1.02713 -0.00287518 3.03313e-20)
(1.02296 -0.00101719 -7.12911e-22)
(1.04569 -0.00518359 -3.28778e-20)
(1.05546 0.0699228 -1.3072e-19)
(1.05265 -0.0545905 8.33704e-20)
(1.0237 -0.000910236 8.93216e-22)
(1.04709 -0.00520703 -7.13352e-21)
(1.03575 0.0388269 7.11029e-20)
(1.02882 -0.000339838 -1.07288e-20)
(1.09206 -0.0633883 6.10881e-21)
(1.0397 0.02519 -1.88485e-20)
(1.01883 -0.0303181 -5.03086e-20)
(0.897285 -0.000624919 1.19181e-20)
(0.680181 -0.00584274 5.5499e-20)
(1.00835 0.0597867 -8.54411e-20)
(1.04546 -0.0768445 6.04899e-20)
(1.0352 -0.00342813 9.18884e-21)
(0.759403 -0.00773004 -2.17954e-20)
(1.02923 -0.00190297 -4.24865e-20)
(1.0233 -0.00668779 -2.24924e-20)
(1.03132 -0.00499733 -2.63854e-20)
(0.789241 0.00700166 6.94851e-20)
(1.02231 -0.00831571 -1.47746e-21)
(1.20962 -0.0101015 7.05655e-21)
(1.08746 0.012599 1.34093e-20)
(1.02908 -0.00316955 -3.13418e-21)
(1.02901 -0.0017571 4.4396e-20)
(0.953335 -0.00386187 -1.42925e-20)
(1.05244 0.0648734 5.20177e-20)
(1.02841 0.114151 1.44662e-19)
(0.78064 0.00872101 2.10797e-21)
(1.03531 -0.00176248 5.04051e-21)
(0.573183 0.00506283 5.97713e-20)
(0.704701 -0.00394856 4.91107e-20)
(1.02259 -0.0435206 6.30491e-20)
(1.00551 -0.0191597 -1.49706e-20)
(0.813367 -0.000546297 8.78345e-22)
(0.63606 0.00412584 6.23136e-20)
(1.04056 -0.0301248 4.1212e-21)
(1.01554 0.0255267 -3.77946e-20)
(1.01654 -0.0136753 3.75897e-20)
(0.607347 0.00392642 -1.05859e-20)
(1.0112 0.0807143 -4.26472e-20)
(1.03889 0.00337416 4.51234e-20)
(1.16516 -0.0039484 1.06005e-20)
(1.02937 -0.0016831 6.6588e-20)
(1.14464 0.0704187 8.45813e-21)
(1.04963 0.0144298 -7.22008e-20)
(1.04652 0.0907252 -9.8282e-20)
(1.0009 -0.0213611 -4.02879e-20)
(0.927168 -0.00594182 -1.01792e-20)
(1.04399 0.0741341 1.42832e-19)
(1.02651 -0.00595163 9.0121e-21)
(1.03117 -0.00464748 -4.00868e-20)
(1.01648 0.0466573 4.71099e-20)
(1.02424 -0.00230219 -1.09263e-20)
(1.02881 -0.00354177 8.03955e-20)
(0.975047 0.000989471 1.29213e-20)
(1.00699 0.0547036 -1.42063e-20)
(1.00396 0.0420786 5.10993e-20)
(1.03435 0.0689708 4.44057e-20)
(1.02856 -0.00379345 3.47753e-20)
(0.724657 0.000338492 1.64421e-20)
(1.02544 0.00112303 -2.08159e-21)
(0.438131 -0.00341016 8.85583e-20)
(1.02913 -0.000641048 1.43411e-20)
(1.07231 -0.0190734 -1.27567e-19)
(1.03506 -0.00206646 3.2848e-20)
(0.701456 -0.00232204 -2.07645e-20)
(1.16833 0.0179745 2.86129e-20)
(1.10465 0.0733176 2.88633e-21)
(1.02609 -0.0024965 -8.33414e-21)
(1.02929 -0.00198762 4.10172e-20)
(1.05578 0.0749417 -1.87399e-20)
(0.999966 -0.00150952 3.72767e-21)
(0.7218 -0.0128076 -4.65393e-21)
(1.0451 0.0917952 -9.204e-20)
(1.07323 -0.0246803 5.52528e-20)
(1.04084 -0.045465 5.31677e-20)
(1.02027 -0.0292554 7.22087e-20)
(0.954763 -0.00326036 -3.61442e-20)
(1.03836 -0.0313197 -1.01704e-20)
(0.526893 -0.00355735 -3.18292e-20)
(1.02351 -0.00268655 3.44498e-21)
(1.01196 -0.0361277 2.01884e-20)
(1.10624 0.079008 -5.35666e-20)
(1.02541 -0.00131314 -1.04075e-20)
(1.02767 -0.000462136 -1.01675e-20)
(1.08356 0.0754567 4.21035e-21)
(1.02131 0.0016015 -6.66202e-20)
(1.02289 -0.00791039 -3.35359e-20)
(1.036 -0.0295723 -3.64409e-20)
(1.02593 -0.000875293 -8.75229e-22)
(1.0295 -0.00161759 -3.46152e-20)
(1.04938 0.0655548 5.89352e-20)
(1.09612 0.0828461 -6.05591e-20)
(1.04387 0.0900704 -1.28956e-20)
(1.08797 -0.0581263 -3.44493e-20)
(1.05559 -0.0513605 -1.71513e-20)
(1.13529 -0.0860209 8.83623e-21)
(1.03951 -0.000966727 1.02168e-19)
(1.04563 0.0637403 -2.17936e-20)
(0.680575 -0.018452 1.95882e-20)
(1.02732 -0.000688261 5.89614e-21)
(0.489118 0.0463677 -6.65105e-20)
(1.0261 -0.00834303 1.74113e-20)
(1.02897 -0.00346561 2.78478e-20)
(1.0137 -0.0355507 -4.67421e-20)
(1.02294 -0.00706741 2.49473e-20)
(1.04825 0.086834 -1.17881e-19)
(1.04612 0.0871292 -2.62539e-20)
(1.02051 -0.044656 -1.62694e-20)
(0.821692 0.0265366 -4.71717e-20)
(1.02988 0.000824536 5.0521e-20)
(0.927764 -0.0019941 -2.62992e-20)
(0.834477 -0.0103342 -3.0485e-20)
(1.04724 0.00793541 -2.02141e-20)
(1.04454 -0.100815 4.06111e-21)
(1.09452 0.112367 -8.42446e-20)
(1.04384 0.0716952 -1.24665e-19)
(1.02673 -0.00147046 1.47855e-20)
(1.03463 -0.00347493 1.21186e-20)
(1.03713 0.0279201 9.85407e-20)
(1.02845 -0.00403614 6.09966e-20)
(1.04265 0.0257653 -1.29942e-20)
(1.02928 -0.00160872 1.44972e-20)
(0.994837 0.0600244 8.69055e-20)
(1.04581 0.0893524 2.02659e-20)
(1.02069 -0.00211651 -4.16636e-20)
(1.03227 -0.00508761 -2.40489e-21)
(0.959507 -0.00364714 7.83476e-20)
(1.12164 0.0969181 2.87297e-20)
(0.708817 0.0118182 -1.44768e-20)
(1.0275 -0.00639648 -1.70585e-20)
(0.935771 -0.019097 -3.5031e-20)
(1.02492 -0.00368325 3.26266e-21)
(1.02841 -0.00262332 1.75218e-20)
(1.02926 -0.00169937 -1.6084e-20)
(1.07675 0.0526285 6.61898e-20)
(1.02516 -0.00227153 -1.43102e-20)
(0.659654 0.00454533 -9.78534e-23)
(0.999892 -0.0308314 -1.08054e-19)
(0.431094 0.0148975 -2.53889e-20)
(1.08709 0.0084664 -1.97638e-20)
(0.996553 0.0530051 6.94803e-20)
(0.909581 -0.00283893 1.06186e-20)
(1.03415 -0.030292 -3.10539e-21)
(1.02812 -0.0025517 3.19571e-20)
(1.04594 0.0915621 -9.37556e-20)
(1.03127 0.000437283 -2.59475e-20)
(1.03755 0.129491 4.58798e-20)
(1.03198 -0.00633154 -6.4555e-20)
(1.03027 -0.00132855 4.40667e-20)
(1.05236 -0.0193356 -4.95246e-20)
(1.03893 7.64298e-05 -9.52524e-20)
(1.02905 -0.000594946 2.21579e-20)
(0.968566 -0.00600899 -1.38404e-21)
(1.02908 -0.000845694 5.59542e-20)
(1.02854 -0.00423726 5.1517e-20)
(1.04682 -0.0471601 -6.61911e-20)
(0.984982 -0.00791271 -6.99555e-21)
(1.0021 -0.0203071 -2.94935e-20)
(1.00624 1.16415e-05 2.7477e-21)
(1.01777 -0.00380632 -1.51701e-20)
(1.02925 -0.00329734 -8.36732e-21)
(1.04532 0.111763 1.09077e-19)
(0.607347 -0.00289259 -1.22907e-20)
(0.773381 0.00271677 7.61214e-21)
(0.32344 0.0261852 1.0773e-19)
(1.02828 -0.00288684 3.32513e-20)
(1.07388 0.0910673 -4.54043e-20)
(1.02803 -0.00259485 -4.65951e-20)
(1.0354 -0.0138097 4.75466e-20)
(1.02675 0.00085698 -6.51641e-22)
(1.01844 -0.0238358 3.09925e-20)
(1.04719 0.0074318 2.91829e-20)
(1.16913 0.0263196 -6.61671e-20)
(1.01508 -0.0120367 -5.99594e-20)
(1.02868 -0.00212361 -5.11907e-20)
(1.01667 -0.058866 -2.33122e-20)
(0.158356 0.000439814 -3.30848e-20)
(0.677326 0.0146501 -2.46143e-21)
(1.02912 -0.000775294 -4.96482e-20)
(1.02901 -0.00273312 -3.85834e-20)
(0.881607 -0.0103027 3.93768e-20)
(1.0324 -0.000878825 -4.28007e-20)
(1.02896 -0.00181304 -2.2186e-20)
(0.98391 -0.00293145 -8.44202e-21)
(1.05042 -0.0451251 4.44827e-20)
(0.952533 -0.00102015 -3.66546e-20)
(1.14433 -0.0103197 4.47179e-21)
(0.868767 -0.00283432 3.8855e-20)
(1.05157 0.0949863 1.06108e-20)
(1.05008 0.0960218 -7.97438e-20)
(1.02932 -0.00101573 3.50941e-20)
(1.1882 0.026792 8.36053e-20)
(1.01464 -0.00271414 1.26796e-21)
(1.02922 -0.00329864 4.10502e-20)
(0.398099 0.00434662 -8.88792e-20)
(1.0118 0.0379571 4.03491e-20)
(1.05228 0.0196632 -6.011e-20)
(1.02685 -0.00176097 2.01828e-20)
(1.02922 -0.00274012 5.97926e-21)
(0.918638 -0.00283263 -2.9331e-20)
(1.06338 0.0483515 -2.67579e-20)
(1.0293 -0.00190991 -2.40666e-20)
(1.03032 -0.00111394 1.96744e-20)
(1.02995 -0.000533129 -4.6039e-21)
(1.12643 0.036643 6.89241e-20)
(1.20986 -0.0214576 4.3418e-20)
(1.05986 0.104782 5.27208e-20)
(0.847957 0.00225946 3.29096e-20)
(1.08076 -0.0223437 -1.08115e-19)
(1.02623 -0.00225285 1.46358e-20)
(1.03285 -0.00473549 -6.75802e-20)
(1.00683 -0.00388561 3.18303e-21)
(1.02074 -0.0133474 -1.03209e-20)
(0.968133 -0.00361523 1.34009e-20)
(1.03857 -0.0129025 6.65062e-21)
(1.20818 0.0312505 -7.07271e-20)
(1.01144 -0.018542 -5.85331e-20)
(1.03626 -0.0130868 -1.38766e-20)
(1.03395 -0.00290397 -1.99682e-20)
(0.894455 -0.00860602 -3.53269e-20)
(1.04794 -0.0085416 2.18202e-20)
(1.02853 -0.011746 -3.03661e-20)
(1.08707 0.0230206 -2.99321e-20)
(1.07245 0.0511508 3.2113e-20)
(1.18163 -0.0921984 -6.13432e-22)
(1.14901 -0.0253045 3.91028e-20)
(0.282898 -0.00193275 3.53657e-20)
(1.03282 -0.001995 4.73193e-20)
(0.938826 -0.01795 1.43425e-20)
(1.01952 0.063393 -1.3911e-19)
(1.13205 -0.0275353 -6.88707e-20)
(1.04595 -0.00268784 -6.46107e-20)
(0.900381 0.0372174 -6.5878e-20)
(0.753057 -0.0124215 -1.61741e-20)
(1.02901 -0.00107396 9.59247e-21)
(1.16303 -0.0131108 3.87909e-20)
(1.0293 -0.00215871 1.96601e-20)
(1.04066 -0.0276543 -1.41159e-20)
(1.03319 -0.00209974 1.50903e-20)
(0.807325 -0.00155691 1.55401e-20)
(0.853599 -0.00109584 3.22752e-20)
(1.04292 0.0347639 5.40883e-20)
(1.02711 -0.00180074 6.25838e-21)
(1.0291 -0.000264037 -1.95098e-20)
(1.02675 -0.000387345 1.75371e-20)
(0.89761 0.00453852 -7.12003e-20)
(1.027 -0.0059251 -4.60674e-20)
(0.982455 -0.0082426 -9.78194e-22)
(0.980802 0.00164724 -4.78768e-21)
(1.01582 -0.0101621 -2.17393e-20)
(0.71246 0.0163574 3.76472e-20)
(1.03768 -0.0138141 -2.98737e-20)
(1.02631 -0.00782124 -6.44191e-20)
(1.05753 0.0829879 1.82535e-20)
(1.00446 0.048727 8.21766e-20)
(1.0784 0.0127127 -2.86878e-20)
(1.18021 0.0309953 -3.18376e-20)
(0.324841 0.00576207 -4.82521e-20)
(1.03283 -0.00234044 -2.47365e-20)
(1.01729 0.0635325 -4.09044e-21)
(0.851008 -0.00321103 5.70384e-20)
(1.06249 0.0911228 2.1921e-21)
(1.03817 -0.0339206 -1.75322e-21)
(1.06452 -0.0878271 1.95333e-20)
(1.09276 0.080315 3.7327e-20)
(1.06399 0.0940428 -5.1624e-20)
(1.00209 -0.0171208 -6.96107e-20)
(1.05371 0.0177027 -4.24369e-20)
(1.09738 0.116085 7.91297e-20)
(1.0702 0.0914007 8.08608e-20)
(1.04089 0.00139653 3.28922e-20)
(1.02689 -0.00137467 -1.71638e-20)
(1.02751 -0.00296419 -1.17673e-20)
(1.01233 -0.00156306 7.26295e-21)
(1.04249 -0.0168788 2.05724e-20)
(0.76102 0.00308024 -1.28745e-20)
(1.02938 -0.00233861 -2.51237e-20)
(0.964692 -0.00591607 1.27576e-20)
(1.02862 -0.000736344 -1.32882e-20)
(1.01445 -0.0577949 3.84994e-20)
(1.11212 0.0452053 2.54781e-20)
(0.989595 -0.0032512 5.45824e-20)
(1.02932 -0.00764391 -7.34081e-20)
(0.899441 0.00291199 3.65032e-20)
(1.07873 -0.0249116 3.82386e-21)
(0.913715 -0.00711486 6.97545e-20)
(1.03111 -0.00438863 4.79776e-20)
(1.10723 0.113511 1.25028e-20)
(0.886474 0.00302939 7.98017e-20)
(1.02591 -0.00222104 1.21035e-20)
(1.02751 -0.00181531 4.35502e-21)
(1.02676 -0.00167477 2.79373e-20)
(0.985379 -0.00302482 -2.07697e-20)
(1.04092 0.0321905 -6.80251e-20)
(0.771774 -0.0056637 -9.57078e-22)
(1.04339 -0.00327151 4.41613e-20)
(1.05189 -0.105587 -2.89499e-20)
(1.04494 0.0913929 -2.12597e-21)
(1.03236 -0.00498712 2.56458e-20)
(1.03447 -0.00294591 -4.45277e-21)
(1.02682 -0.00281216 3.40377e-20)
(1.03651 0.111069 -1.07592e-19)
(0.769316 -0.00271896 -1.76875e-20)
(1.06148 0.107148 -2.73624e-20)
(1.01233 0.0265662 -6.95399e-20)
(0.986809 -0.00324735 -1.42179e-20)
(1.03652 -0.0347424 3.99204e-20)
(0.958168 -0.00192814 3.46397e-20)
(1.02541 -0.0442594 -7.92208e-20)
(1.0287 0.000284718 1.87465e-20)
(1.07396 0.0148895 3.88135e-20)
(1.03479 -0.00979038 -1.43623e-21)
(1.03403 -0.00220953 7.42708e-21)
(0.926608 -0.00674307 4.50232e-20)
(1.08097 0.0502941 3.46257e-20)
(1.05913 0.0473456 1.00644e-20)
(1.03931 -0.0476418 -4.49484e-20)
(1.01639 -0.0124841 3.89353e-21)
(1.02919 -0.00291626 2.71439e-20)
(1.03194 -0.0271076 9.21641e-20)
(1.14135 0.0622459 -5.18965e-20)
(0.65469 0.0202855 -5.78275e-20)
(1.10344 -0.0515187 3.19674e-20)
(1.03337 -0.00495749 -1.406e-20)
(1.02392 -0.0010877 7.03984e-22)
(1.00935 -0.00249755 5.34251e-20)
(0.86338 -0.00286446 -6.39721e-20)
(1.04739 -0.00873969 3.61005e-20)
(1.03725 -0.0824749 1.57749e-20)
(1.18822 0.015492 -3.16242e-20)
(1.04725 0.0930339 -1.234e-19)
(1.06683 0.0452671 4.81591e-20)
(1.13604 -0.0755802 -3.25267e-20)
(1.08364 0.0801781 1.43709e-20)
(1.01401 0.0806828 1.33687e-19)
(1.04112 -0.00173712 3.77524e-20)
(1.02961 -0.00151437 5.53803e-20)
(1.04434 0.0712297 2.94249e-20)
(1.0293 -0.00211481 -4.18354e-20)
(1.02739 -0.00283027 -1.24893e-20)
(0.55925 -0.00136317 -1.40982e-20)
(1.02854 -0.00148954 4.25265e-21)
(1.1444 -0.0927268 -1.16293e-20)
(1.03305 -0.0110203 3.39098e-20)
(1.01993 -0.023516 -5.61598e-20)
(1.02999 -0.00101915 1.77515e-20)
(1.07935 0.0733033 7.95108e-20)
(0.894461 -0.000748458 6.61567e-21)
(1.02577 -0.00239823 8.35496e-23)
(1.05851 -0.0923901 -2.01968e-20)
(1.02992 -0.000360947 -1.09653e-20)
(1.11343 0.0112427 -7.51461e-21)
(0.887183 -0.0113871 -1.17702e-20)
(0.744495 -0.00390384 -3.52889e-21)
(1.18754 0.0684229 -5.97153e-21)
(1.03417 0.0267226 -2.51988e-20)
(1.03094 0.00890178 1.73555e-20)
(1.02901 0.00812822 -8.16902e-21)
(0.942857 -0.00880614 -3.98922e-21)
(1.11872 0.0449553 2.01362e-20)
(1.08728 0.0265859 3.61531e-20)
(1.02975 -0.00256328 -1.66295e-20)
(1.00523 -0.00304821 -6.30828e-20)
(1.02952 -0.000387878 -2.07802e-20)
(1.03843 -0.0116741 -7.83775e-20)
(1.03734 -0.0182282 1.45906e-20)
(1.03315 -0.00119098 -4.67564e-22)
(1.02918 -0.0019736 5.247e-20)
(1.12137 0.0907041 -8.50961e-20)
(1.02492 -0.00296241 1.47005e-20)
(1.0286 4.87621e-05 -1.22346e-20)
(1.03185 -0.00109992 -2.61108e-22)
(0.661914 -0.0029981 -3.40659e-20)
(1.04141 -0.00494733 4.41065e-20)
(1.01931 -0.0193781 8.33762e-20)
(0.736434 0.00112063 1.69899e-20)
(1.04363 -0.0447346 -2.98345e-20)
(1.06964 -0.113781 3.18447e-20)
(1.05077 -0.0174814 2.64462e-20)
(1.0481 0.0701317 -1.69437e-19)
(1.19925 0.0354835 4.24397e-20)
(1.02249 -0.00347383 4.20853e-21)
(0.978232 0.0548896 1.00372e-19)
(1.01338 -0.0405498 -7.49734e-20)
(1.02685 -0.00644175 -1.3777e-20)
(0.67428 0.00472859 -2.94017e-20)
(1.02903 -0.0114721 6.32812e-21)
(0.563241 0.00567652 -5.50947e-20)
(1.01735 -0.00248556 1.94878e-20)
(1.04666 -0.00455094 -4.90691e-20)
(1.13964 -0.0301921 1.49714e-20)
(1.02587 -0.00229801 1.16618e-21)
(1.04424 -0.00472944 -3.5183e-21)
(1.01076 0.00192252 7.50167e-21)
(1.04834 0.0907743 2.65274e-20)
(1.14043 0.0817047 7.89228e-20)
(1.02503 -0.00243496 -1.17289e-20)
(0.630667 -8.39187e-05 6.58088e-20)
(1.00028 -0.000289027 2.57291e-20)
(1.01807 0.0980412 8.49179e-20)
(1.05749 0.0937901 6.55587e-20)
(1.1212 0.0380231 -3.75531e-20)
(1.12355 0.111548 -6.7242e-20)
(1.01332 -0.0432643 3.20523e-20)
(1.01833 0.0713057 -1.27784e-19)
(1.02708 -0.00176625 -1.30681e-20)
(1.06659 -0.0115507 8.56846e-20)
(0.431348 0.0107952 1.70971e-21)
(1.09874 0.0712313 -2.01745e-20)
(1.02194 0.0633523 -8.75783e-20)
(1.14507 0.0567142 7.90252e-20)
(1.06137 0.0395898 7.84401e-21)
(1.02978 -0.00761004 2.21697e-20)
(1.02452 -0.00363443 2.21528e-20)
(1.12709 0.1001 2.98795e-20)
(1.19759 -0.00407169 -1.32541e-20)
(1.03394 0.106009 -3.24134e-21)
(1.10721 0.00962859 9.29308e-20)
(1.0461 0.059585 5.29415e-20)
(1.01206 -0.00468168 1.27127e-20)
(1.04479 0.0932003 3.38985e-20)
(1.05921 0.0910734 2.4758e-20)
(1.01693 -0.000713674 5.93179e-20)
(1.02414 -0.00351442 2.64014e-20)
(1.1368 0.0933176 2.16257e-21)
(0.687818 0.00405857 5.88873e-20)
(1.02705 -0.00182716 1.72813e-20)
(1.01792 -0.00281691 -6.97678e-20)
(0.865297 -0.0144271 -4.45727e-20)
(1.02333 -0.0565298 8.08897e-21)
(1.03489 -0.0016835 -6.88902e-20)
(1.03387 -0.00244456 6.17266e-21)
(1.02851 -0.00238921 2.21994e-20)
(1.05855 0.0964334 -9.72869e-20)
(1.03069 -0.00741573 -5.68404e-21)
(1.02618 -0.00207987 -6.75342e-21)
(1.04989 -0.0407162 -5.31987e-20)
(1.02888 -0.00306932 -1.31348e-20)
(1.01625 -0.00516631 -2.17282e-21)
(1.03283 -0.00718586 -1.51547e-20)
(1.07127 0.0739703 1.0202e-19)
(1.05074 -0.0811081 -3.03116e-20)
(1.05414 0.0764348 5.38212e-20)
(1.02701 -0.000976796 -1.37282e-20)
(1.07513 0.0761303 -1.08094e-19)
(1.0433 -0.0344021 -4.15489e-20)
(1.02758 -0.00215872 4.53987e-21)
(1.02633 0.00012468 -6.91265e-21)
(1.00416 0.0160219 -1.18818e-20)
(1.06685 0.0671353 3.87835e-20)
(1.02764 -0.00289027 -1.26008e-20)
(1.06138 0.0563092 -5.51911e-20)
(1.02605 -0.000174338 5.11904e-21)
(1.06246 0.0608964 -7.44268e-20)
(1.16836 -0.0953952 -3.18298e-20)
(1.0014 -0.000765219 -6.42418e-20)
(1.00426 0.0499574 -1.70054e-19)
(1.01398 -0.0332372 -5.66391e-20)
(1.12743 0.107367 6.89649e-20)
(0.697478 -0.00283549 -1.73147e-20)
(1.06645 0.0626093 9.54726e-20)
(1.07094 0.0690047 -2.80041e-20)
(1.01851 -0.0038505 -9.49621e-20)
(1.01072 -0.0040528 5.6432e-20)
(1.02762 -0.0061813 -5.29307e-20)
(0.990289 -0.000120324 1.43169e-20)
(1.0276 -0.00266359 -2.81916e-20)
(1.03058 -0.00731451 9.36401e-21)
(1.0643 0.0876929 -1.26391e-20)
(1.02573 -0.00240617 -3.25216e-21)
(1.05694 0.0550177 7.25447e-20)
(1.0632 -0.0803131 -5.21208e-20)
(1.03319 0.0843337 3.33039e-20)
(1.05596 0.0507989 -8.48697e-20)
(0.823662 -0.0116108 6.04017e-21)
(1.05066 0.0822024 -1.1601e-19)
(1.02924 -0.0014412 2.10986e-23)
(1.04207 -0.0153181 3.07691e-20)
(1.07725 -0.0531968 -1.90077e-20)
(0.569245 0.00133243 3.30318e-21)
(1.02716 -0.0033945 -3.93781e-20)
(1.04123 -0.0356857 3.30304e-20)
(1.07077 -0.00358207 -7.56518e-21)
(0.926545 0.0426863 1.28167e-19)
(1.02545 -0.000869002 1.90629e-20)
(1.02894 -0.00130252 -2.19737e-20)
(1.04888 -0.0542897 1.40302e-22)
(1.02703 -0.000911891 1.11533e-21)
(1.04882 0.0924483 1.28336e-20)
(1.02998 -9.16085e-05 0)
(1.02597 0.000649122 9.72282e-22)
(1.02694 -0.00020248 3.0198e-20)
(1.02992 -5.18366e-06 3.65508e-22)
(1.02096 -0.0124669 -7.03512e-20)
(1.04455 -0.00787749 -2.48768e-20)
(1.02945 -0.00151294 -4.32196e-20)
(0.944344 0.00777039 -1.5124e-20)
(1.02627 -0.00344159 -2.06145e-20)
(1.03247 -0.00732148 -1.66782e-20)
(1.02743 -0.0885744 3.93406e-20)
(0.43913 -0.000215255 -4.86267e-21)
(1.04082 -0.00440597 6.81207e-20)
(0.78536 -0.00905668 -9.16986e-21)
(1.12702 -0.117605 -4.01022e-20)
(0.983616 -0.00409527 2.92939e-20)
(1.12714 0.0855603 -5.96961e-21)
(1.00157 0.0228659 -2.72928e-20)
(1.02946 -0.00214857 1.61021e-20)
(1.11837 0.0762988 -8.83995e-20)
(1.02675 -0.000538063 -5.84627e-22)
(1.0065 -0.00331228 -5.93277e-22)
(1.03705 0.00263444 -4.85221e-20)
(1.02737 -0.00345268 1.59122e-20)
(1.07327 0.0830176 -6.39148e-21)
(1.02342 -0.00355032 5.40568e-20)
(1.06713 -0.00928109 -6.64302e-20)
(1.03723 0.00417424 -4.90434e-20)
(1.07151 0.0468318 -1.87575e-20)
(1.03489 -0.00897258 -4.34371e-20)
(1.02241 -0.00220864 -1.56905e-21)
(1.08836 0.0725807 5.39855e-20)
(1.01776 -0.0626738 4.05942e-20)
(1.04616 0.0924046 1.03922e-19)
(1.02595 -0.00287038 7.2947e-20)
(1.07521 0.0986739 3.29148e-22)
(1.02555 -0.00219048 -1.94617e-20)
(1.03029 -0.000850225 3.77702e-21)
(1.06069 0.0366417 2.3094e-20)
(1.04147 -0.0182162 -2.29296e-20)
(1.0493 0.0115964 7.02031e-20)
(1.02866 -0.000720046 1.22289e-20)
(1.02642 0.00106974 4.5046e-22)
(1.03865 -0.103161 -1.44855e-20)
(1.10677 0.108725 -7.80001e-20)
(1.02967 -0.0020897 -1.44266e-20)
(1.12532 0.0783594 9.81223e-21)
(1.02381 -0.00360811 3.8541e-20)
(1.11913 -0.124736 1.34648e-20)
(1.06705 -0.0230062 1.01214e-20)
(1.01904 -0.0207816 -4.51243e-20)
(1.02943 -0.00128488 1.72578e-20)
(0.696301 -0.00378376 1.54637e-20)
(1.01266 -0.0523975 2.78697e-20)
(0.953313 -0.00411179 -6.3466e-20)
(1.02314 -0.00181674 -4.90537e-20)
(1.02831 -0.00203143 -2.05194e-20)
(1.04491 0.0931139 -1.13106e-20)
(1.11642 0.0696996 5.61037e-20)
(1.04459 -0.00345396 -1.58879e-20)
(1.0274 -0.00308225 -1.91881e-20)
(1.05764 0.0885268 -4.66641e-20)
(1.02569 -0.000974733 5.54372e-21)
(1.02711 -0.00293943 -3.98116e-20)
(1.10977 0.0682061 4.78692e-20)
(1.03782 -0.0152012 4.26043e-20)
(1.11478 0.101127 7.15839e-20)
(1.04084 -0.000146874 2.76394e-20)
(1.04028 -0.00639757 -8.48122e-21)
(1.11036 -0.039043 -2.857e-20)
(1.0842 -0.101729 -3.8747e-20)
(1.1883 0.06159 -2.86387e-20)
(1.02998 -0.000556479 -3.29007e-20)
(0.92715 -0.0116229 4.13965e-21)
(1.02622 -0.00167813 3.96108e-21)
(1.0328 -0.00713723 1.0897e-20)
(1.07559 0.0804019 3.67972e-20)
(1.01933 -0.00338494 -7.08198e-20)
(1.02766 -0.00127076 -2.20521e-20)
(1.0428 -0.0263979 4.54505e-20)
(1.029 -0.00123399 -1.21584e-21)
(1.02928 -0.00181355 -2.93872e-20)
(0.339368 0.00721898 2.29397e-20)
(1.02548 -0.00310141 3.8001e-20)
(1.02885 -0.00271747 5.52008e-20)
(0.522353 -0.00350134 2.25795e-21)
(1.02444 0.0097092 7.32482e-20)
(1.0119 -0.0171767 8.54954e-21)
(1.02859 -0.00220913 -2.57799e-20)
(1.0159 0.00136755 -2.95256e-20)
(1.0316 0.0292699 2.6686e-20)
(1.0778 0.0222063 6.72155e-21)
(1.00021 -0.0153387 4.40374e-20)
(1.02526 -0.000972317 6.2487e-21)
(1.00186 0.0172371 1.63918e-19)
(1.02173 -0.0107106 5.0899e-20)
(1.07898 0.0685141 -8.26038e-20)
(1.03648 -0.000830985 -7.43588e-20)
(1.03727 -0.000383779 1.50524e-19)
(0.978768 -0.00486487 -8.20764e-20)
(1.02644 -0.00178924 4.76187e-21)
(1.03663 0.00126914 -5.98782e-21)
(1.0823 0.0201845 -1.2463e-20)
(1.16911 0.0639429 5.98361e-20)
(1.06844 -0.0754155 -1.65879e-20)
(1.06207 0.0849539 3.9933e-20)
(1.03446 -0.00132392 -1.80333e-21)
(1.09326 0.0753897 -7.40714e-20)
(1.03004 -0.00916648 2.83087e-20)
(1.04646 -0.0391437 8.12494e-20)
(1.02713 -0.00256996 2.14485e-20)
(1.03282 -0.0117441 -6.87843e-20)
(1.0283 -0.00192141 -1.81547e-20)
(1.05744 0.0424283 -6.28034e-20)
(1.0862 0.105315 -1.2178e-19)
(1.02944 -0.00149956 -1.32721e-20)
(1.04127 -0.00582994 5.46631e-21)
(0.948411 -0.00141856 -2.34749e-20)
(1.07078 -0.0637465 -9.76985e-21)
(1.06642 -0.0688925 2.6111e-20)
(1.02871 -0.00135448 -2.33206e-20)
(1.06383 -0.0123619 -3.41603e-20)
(0.144309 -0.00470146 -3.84065e-20)
(1.16732 0.0483159 5.35476e-20)
(1.0273 -0.00174455 -3.30113e-20)
(1.07382 0.0194234 -2.67575e-20)
(1.0287 -0.00587959 4.04997e-20)
(0.595334 0.0235925 1.56125e-19)
(1.02225 -0.00335661 -5.2182e-20)
(1.02814 -0.0172012 1.84171e-20)
(1.04428 -0.022625 -1.91616e-21)
(1.02736 -0.0177453 7.05505e-22)
(1.02966 -0.0133259 7.12031e-20)
(1.02634 -0.00328597 -1.27748e-20)
(1.02954 -0.00924452 -6.13019e-20)
(1.03111 -0.00406353 -1.45802e-20)
(1.07256 -0.00662433 1.52367e-20)
(1.02596 -0.00126915 -2.9166e-20)
(1.20002 -0.0589947 1.89145e-20)
(1.15775 0.0134516 2.26304e-20)
(1.05335 0.0954864 7.59425e-20)
(1.00202 -0.0141795 -6.91905e-20)
(1.10888 0.0971735 -3.58602e-20)
(1.02973 -0.000408938 3.66725e-20)
(1.09065 -0.0508461 -1.33855e-21)
(1.03499 -0.0255377 4.12693e-20)
(1.02937 0.0489253 6.361e-20)
(1.02732 -0.00341957 -3.60709e-20)
(1.02758 -0.00124587 2.17473e-20)
(1.02222 -0.0112388 -7.05647e-20)
(1.02799 -0.00618936 2.07018e-20)
(1.06089 -0.0109249 5.64494e-20)
(0.900386 -0.0013029 5.56929e-20)
(1.00231 -0.00363282 -1.87855e-20)
(1.13417 -0.0118965 1.78112e-20)
(0.872927 0.000948714 4.46146e-20)
(1.04252 -0.0241313 -3.8132e-20)
(1.02477 -0.0602953 -3.36714e-20)
(1.02582 -0.00154288 9.7434e-22)
(1.07273 9.7932e-05 6.54439e-20)
(1.02603 -0.0533315 1.02317e-19)
(1.1143 0.087473 3.97036e-20)
(1.11132 -0.0452298 4.66901e-20)
(1.04798 0.0106702 7.21132e-21)
(1.05657 -0.0775985 6.99055e-20)
(1.06311 0.100119 2.26426e-20)
(1.05712 -0.0205343 5.13318e-20)
(0.954853 -0.00413316 4.87845e-20)
(1.04315 -0.0316174 5.88948e-20)
(0.319294 0.0259182 4.16872e-20)
(1.16762 -0.0656336 -1.85202e-20)
(1.01823 -0.00339267 1.61712e-20)
(1.0593 -0.100753 4.1e-21)
(1.05413 -0.0466654 -4.9402e-20)
(1.07233 -0.090638 2.56463e-21)
(1.0682 -0.0580593 3.97379e-20)
(1.08786 0.0675405 7.0795e-20)
(1.0279 -0.00156009 -1.09786e-21)
(1.01437 0.0604438 2.22953e-20)
(1.03433 -0.000905734 1.63672e-20)
(1.02868 -0.00203132 3.19848e-20)
(1.0294 -0.00192833 -9.35438e-20)
(1.07057 0.0131526 -1.36337e-20)
(0.0853893 0.00568713 9.00956e-22)
(1.03101 -0.00419162 2.09776e-20)
(1.04624 -0.0358628 -1.06285e-20)
(1.03187 0.0329998 -4.35331e-20)
(1.026 -0.000887261 -9.89768e-22)
(1.01202 -0.00399957 -4.80967e-20)
(1.04264 -0.00373041 4.39228e-20)
(1.09021 -0.0207939 6.50571e-20)
(1.03423 -0.000701516 8.56556e-20)
(1.02939 -0.0023392 -1.3009e-20)
(1.01997 -0.027086 2.04324e-22)
(1.02916 -0.00567932 2.09591e-20)
(1.02549 0.000822042 1.15348e-20)
(1.01562 -0.032532 9.68747e-20)
(1.06696 0.0802146 -1.5923e-20)
(1.04496 -0.0190212 -7.56377e-21)
(0.986024 -0.000106539 4.33858e-20)
(1.03063 7.17803e-05 -1.38603e-20)
(1.03554 0.0351336 5.78812e-20)
(1.02914 -0.00232259 1.24902e-20)
(1.03 -0.00171005 2.78903e-21)
(1.02817 -0.00260466 2.14855e-20)
(1.02937 -0.00199919 3.77161e-20)
(1.15835 0.0638124 4.13205e-20)
(1.05184 -0.0214838 1.23039e-19)
(1.03556 -0.011343 3.00012e-20)
(1.01463 -0.00365784 1.93713e-20)
(1.02679 -0.000689655 1.14527e-20)
(1.10093 -0.0949875 -5.46667e-20)
(1.19765 0.00974015 1.11412e-21)
(1.10716 -0.103341 2.48177e-20)
(1.02926 -0.0223265 2.81735e-20)
(1.0375 -0.00497871 6.79244e-20)
(1.02666 -0.00374229 -1.41933e-20)
(1.02393 -0.00694229 3.17443e-20)
(1.00158 -0.0328522 4.36856e-20)
(1.15821 0.0491911 1.25164e-22)
(1.03015 0.0861952 -1.61052e-21)
(1.02912 -0.00273566 -2.1796e-20)
(0.981405 -0.0225569 -2.21922e-20)
(1.02764 -0.00297283 4.95176e-20)
(1.05509 -0.0186599 -2.01711e-20)
(1.09745 0.0654206 8.30548e-21)
(1.02966 -0.000755729 -3.79099e-20)
(1.02798 -0.00280338 8.77922e-21)
(1.13453 0.0982374 9.4579e-21)
(1.15538 0.0333711 -1.24914e-20)
(1.04183 -0.00858591 2.27684e-20)
(1.02775 -0.0018146 -3.6585e-20)
(0.967827 -0.00555893 4.94365e-21)
(1.00674 -0.0337732 -1.10071e-20)
(1.02797 -0.00238393 2.62161e-20)
(1.04364 -0.0205802 7.07123e-20)
(0.615569 -0.00321827 -1.00668e-19)
(1.0013 0.023255 -2.20912e-20)
(1.06997 0.08319 -7.73126e-21)
(1.08576 -0.0463389 -2.84329e-20)
(1.02936 -0.0536658 -3.61146e-20)
(1.03236 -0.00172381 5.32057e-20)
(1.04032 -0.0148022 -6.27984e-20)
(1.14962 0.0187376 6.19898e-20)
(1.02911 -0.0606318 2.04734e-20)
(1.04534 -0.0300442 -3.59215e-20)
(1.0251 -0.000720706 -1.2417e-21)
(1.13956 0.00517604 5.33957e-20)
(0.558615 -0.00647857 -5.39406e-21)
(1.02836 -0.0684567 -3.72051e-20)
(1.04429 -0.0172916 -9.77557e-20)
(0.931958 -0.00933851 8.29535e-21)
(1.02806 -0.00244192 1.04349e-20)
(1.02705 -0.00114304 1.72977e-20)
(1.05187 0.0495703 6.48856e-20)
(0.980547 -0.00478117 1.9361e-20)
(1.03018 0.000909266 -2.24868e-21)
(0.927472 -0.0031046 3.96547e-20)
(1.16333 -0.0529544 6.838e-20)
(1.02189 -0.00161602 -4.2575e-20)
(1.04854 -0.0340503 1.44767e-20)
(1.02706 -0.00168232 1.62877e-21)
(1.03392 -0.00842843 4.4902e-21)
(1.02743 -0.0841868 -1.82396e-20)
(1.07972 -0.0475135 2.13768e-20)
(1.02706 -0.00153267 1.33959e-20)
(1.02575 0.000534622 -6.90929e-21)
(1.03037 0.00249544 2.08304e-21)
(1.04054 -0.0516665 -7.7669e-21)
(1.00328 0.0333627 -1.88377e-21)
(1.07645 0.0945909 9.22932e-22)
(1.12902 -0.00501178 -2.314e-20)
(1.02939 -0.00206834 -2.85113e-21)