/*--------------------------------*- C++ -*----------------------------------*\
  =========                 |
  \\      /  F ield         | OpenFOAM: The Open Source CFD Toolbox
   \\    /   O peration     | Website:  https://openfoam.org
    \\  /    A nd           | Version:  7
     \\/     M anipulation  |
\*---------------------------------------------------------------------------*/
FoamFile
{
    version     2.0;
    format      ascii;
    class       volVectorField;
    location    "14.5";
    object      U;
}
// * * * * * * * * * * * * * * * * * * * * * * * * * * * * * * * * * * * * * //

dimensions      [0 1 -1 0 0 0 0];

internalField   nonuniform List<vector> 
7807
(
(1.05465 0.112935 7.54915e-21)
(1.04389 -0.0346251 1.49654e-22)
(0.987462 0.082684 -1.44807e-20)
(1.02622 0.0543795 1.99563e-20)
(0.999368 -0.00069379 -3.08941e-23)
(0.999974 -5.33688e-06 -2.71447e-24)
(0.985684 0.0667332 -2.78089e-20)
(0.996014 -0.00114211 -6.36695e-24)
(0.999909 -0.000126236 -5.93182e-24)
(1.019 0.000258166 -8.81547e-22)
(0.999975 -6.82001e-06 3.00486e-24)
(1.00164 -0.000988027 -9.51844e-23)
(0.993878 -0.00137176 3.02859e-22)
(1.01482 -0.0015518 -5.33048e-21)
(1.01843 0.000820402 3.7318e-21)
(0.992639 -0.0114529 -8.11876e-22)
(1.05636 0.118538 -1.58893e-20)
(0.991731 -0.00172709 -1.07699e-22)
(1.00156 -0.00734569 1.77337e-23)
(0.980526 -0.082468 -8.30479e-22)
(1.02767 -0.00346391 -1.85276e-21)
(1.00107 -0.000535968 1.65894e-22)
(1.014 -0.00276652 4.35472e-22)
(1.00867 0.0233154 -9.9041e-21)
(0.988974 -0.00211329 -4.90492e-22)
(1.0507 0.111006 -7.45224e-21)
(0.99939 -0.000657577 -2.23353e-23)
(1.01859 -0.00134832 2.14175e-21)
(1.00448 0.0119948 -1.2571e-21)
(1.0026 -0.00787794 -2.29341e-23)
(0.988851 -0.0119111 -1.42032e-21)
(0.926628 0.0127637 3.7902e-21)
(1.01364 -0.0032402 2.72129e-21)
(0.999653 -0.000267701 3.43326e-23)
(0.999955 -2.82862e-06 3.61536e-26)
(1.01829 0.00042358 1.30139e-21)
(1.00312 -0.00869746 -4.66878e-24)
(0.989674 0.0651927 -4.40866e-21)
(0.996995 -0.00597983 6.69415e-22)
(0.999778 -2.70402e-05 2.62509e-23)
(0.997283 -0.0061775 -7.45219e-23)
(0.99279 -0.0106484 -2.8491e-22)
(1.00459 -0.0917806 3.86947e-21)
(1.12811 -0.0378624 4.86663e-22)
(0.999916 -4.98501e-06 7.99676e-24)
(0.999949 -8.68409e-06 -2.52869e-24)
(1.00099 -0.00044606 -1.01553e-22)
(0.996795 -0.00540222 -3.92594e-22)
(0.999954 -1.84824e-05 -2.30205e-24)
(0.984306 -0.0832452 1.20866e-21)
(1.0024 -0.000880034 1.08396e-22)
(1.01856 -0.000367567 -2.21691e-21)
(0.985784 -0.00241999 -1.69269e-21)
(1.00849 -0.0249082 -3.4454e-23)
(1.0184 -0.000618925 -7.49355e-22)
(0.996452 -0.00173266 -5.82936e-23)
(1.00146 -0.00688338 1.18049e-25)
(0.996011 -0.00094349 3.93339e-22)
(0.980825 -0.0139974 -2.43655e-21)
(0.999642 -0.00023344 -4.29044e-23)
(1.00003 -1.65162e-05 -2.58744e-25)
(1.00319 -0.000869513 1.2432e-22)
(1.01514 -0.000957199 -1.26227e-21)
(1.00175 -0.000854912 9.6354e-23)
(0.999344 -0.000100092 5.14685e-23)
(0.989283 -0.0124403 2.30557e-22)
(0.99993 -0.000127605 5.13295e-24)
(1.00001 -1.61901e-06 -5.89755e-26)
(1.12476 0.0643714 3.31777e-21)
(0.996917 -0.00510847 -1.25603e-22)
(0.99995 -1.13408e-05 2.31686e-24)
(0.972308 -0.0465645 -5.40395e-21)
(0.989299 -0.00247415 2.46607e-22)
(0.981018 -0.00270199 3.27594e-22)
(0.99202 -0.00201331 3.4068e-22)
(0.969681 -0.020151 -5.44676e-22)
(0.99046 0.0844032 2.32812e-20)
(1.02609 -0.00329964 2.36285e-21)
(1.06947 0.0009054 -4.4452e-21)
(0.958787 -0.0360907 -6.26805e-21)
(0.994129 -0.00159598 -4.65301e-22)
(0.997653 0.0398653 2.6841e-20)
(1.03157 0.00500075 5.75957e-21)
(0.978651 -0.00622629 1.64742e-21)
(0.998943 -0.00181614 -5.8902e-23)
(0.998557 -0.000128367 4.22636e-23)
(0.995707 -0.00158701 5.7649e-22)
(0.986047 -0.00288092 1.08288e-21)
(0.999504 -0.000838043 3.50496e-23)
(0.997068 -0.000287121 1.59837e-22)
(1.00465 0.0136264 9.34138e-21)
(1.15699 -0.0230342 -7.06054e-22)
(0.999908 -3.37422e-05 -5.55569e-24)
(1.00122 -0.0058154 -1.28852e-25)
(0.997395 -0.000598413 1.52262e-22)
(0.985605 -0.000974168 -2.55128e-21)
(0.974507 -0.0463321 3.12973e-22)
(1.00991 -0.0239933 2.90698e-22)
(0.99885 -0.00174233 1.88379e-23)
(0.999231 -9.21759e-05 1.83264e-23)
(0.959462 -0.00926555 1.25846e-21)
(1.07008 0.00526319 3.7439e-21)
(0.997531 -0.000713487 -3.76736e-22)
(0.999989 -5.29866e-07 -2.09376e-25)
(1.15982 -0.0120769 -5.51209e-22)
(1.02342 0.0236505 -9.03659e-21)
(0.955401 0.0112361 4.37619e-21)
(0.996223 -0.00160877 -2.31507e-22)
(0.999994 -1.37004e-06 9.46838e-26)
(1.01987 -0.0109126 -8.64921e-22)
(1.02931 0.0516449 -2.3184e-20)
(1.02009 -0.0673214 -4.7276e-21)
(0.999993 -1.64971e-06 -1.29895e-25)
(1.0213 -0.011479 -1.86523e-22)
(1.02075 0.0226879 9.5094e-21)
(1.00028 -0.000415741 -5.23624e-24)
(1.06078 -0.0805542 -2.4367e-22)
(1.02394 0.0134937 -2.1593e-21)
(0.983844 -0.0367062 2.37944e-21)
(0.979741 -0.00369022 -3.66832e-22)
(0.963502 -0.00446338 -2.88587e-21)
(1.0003 0.0270338 -1.73501e-20)
(1.01028 -0.0905828 -5.3081e-21)
(1.00725 -0.00615931 5.57012e-23)
(0.961986 -0.00576252 1.11004e-21)
(0.99929 -0.00096354 8.05706e-23)
(0.989964 -0.00884045 4.57793e-22)
(1.00201 -0.00660336 5.2908e-24)
(0.99936 -6.19679e-05 -1.16208e-22)
(0.988943 -0.0108994 3.09922e-23)
(1.19243 -0.0379902 -5.81305e-22)
(1.0646 -0.00105612 7.55624e-22)
(0.999565 -0.000363224 3.81504e-24)
(0.99943 -0.000856174 -7.12628e-23)
(0.977892 -0.00539566 4.67416e-22)
(1.02763 0.0456468 8.51155e-21)
(0.995664 0.0200202 3.01715e-20)
(0.999986 -1.43434e-06 -2.52882e-25)
(1.0057 -0.00237491 5.73047e-23)
(0.95499 -0.00553311 -3.78932e-21)
(0.984033 -0.00161491 -1.34016e-21)
(0.987354 -0.052415 -3.75677e-21)
(0.969904 -0.022025 7.39821e-22)
(0.982237 -0.00238117 -3.21922e-23)
(0.957945 0.00816999 1.65704e-20)
(1.00918 -0.0387327 -1.49968e-22)
(1.00938 0.0139364 -4.75953e-21)
(0.982498 -0.017308 -1.31848e-21)
(0.978137 -0.00207617 3.80062e-22)
(0.999835 0.035128 -8.65872e-21)
(1.01898 0.00119354 3.2289e-21)
(1.14474 -0.0258356 2.431e-22)
(0.998862 -0.00141709 -1.88534e-22)
(1.12983 0.0571927 5.30567e-22)
(1.03 0.00467489 -5.96515e-21)
(0.999031 0.068977 -2.27792e-20)
(0.964588 -0.0237975 2.28397e-21)
(0.994044 -0.000937143 9.91249e-23)
(0.950738 0.0475182 3.99975e-20)
(0.999958 -1.53097e-05 -2.23929e-24)
(1.00083 -0.00610828 6.78211e-23)
(1.00913 0.0259226 7.1545e-21)
(0.999985 -1.27316e-05 1.83525e-24)
(0.998568 -0.00380039 -3.4293e-22)
(0.997086 -0.000551559 -7.22548e-23)
(1.00286 0.029679 -2.34005e-21)
(1.00148 0.0254675 8.6638e-21)
(0.943419 0.0522858 1.34965e-20)
(0.99837 -0.00365672 -1.93251e-22)
(0.998106 -0.000138503 -7.69421e-23)
(1.00001 -1.72117e-06 7.96385e-26)
(0.972952 -0.00170775 -4.62872e-21)
(1.00027 -0.000367499 7.3644e-24)
(1.04558 -0.031351 -1.80789e-22)
(1.00583 -0.00264842 3.75202e-22)
(0.976249 -0.00266684 7.63788e-22)
(1.15064 -0.0026429 2.00288e-25)
(1.08436 0.0631257 2.74866e-22)
(0.999908 -4.10505e-05 3.08801e-24)
(0.999625 -0.000435015 -4.41588e-23)
(1.0268 0.0574974 -3.5488e-21)
(0.999959 -1.08027e-05 -1.00388e-24)
(0.999937 -5.18937e-06 1.38975e-24)
(0.985116 0.0712484 -2.32272e-20)
(1.04568 -0.037601 -3.91161e-22)
(1.00808 -0.0560531 -2.60091e-21)
(0.985647 -0.0355994 -3.3855e-21)
(0.981323 -0.00424449 1.02982e-21)
(1.00654 -0.0398459 2.93809e-22)
(0.959165 -0.00375235 2.04791e-21)
(0.999984 -1.14401e-05 -5.90836e-25)
(0.975303 -0.0431952 -1.31412e-21)
(1.08638 0.0697386 -7.15221e-21)
(0.997503 -0.000908613 5.36619e-23)
(1.00005 -4.58287e-06 -6.87889e-25)
(1.05945 0.0651355 7.46297e-22)
(0.999111 -0.000230413 1.36315e-22)
(0.989658 -0.0104858 7.30033e-22)
(1.00418 -0.0375065 9.60637e-22)
(1.00001 -1.55851e-06 2.86845e-26)
(1.00059 -0.00147233 -3.19983e-23)
(1.02472 0.044999 1.05351e-20)
(1.07422 0.0746418 -9.35883e-21)
(0.996497 0.0601577 -3.05777e-21)
(1.05715 -0.0746835 2.03604e-21)
(1.02351 -0.0641247 1.06403e-21)
(1.10379 -0.109061 -7.23657e-22)
(1.01863 -0.00222166 6.41558e-21)
(1.02288 0.0424043 -3.35894e-21)
(0.999883 -7.84246e-06 -9.06235e-24)
(1.00003 -1.40981e-05 1.06476e-26)
(0.976494 0.00281951 -1.64679e-20)
(0.993808 -0.0102248 -2.77729e-22)
(0.999551 -0.000321053 -3.69521e-23)
(0.97741 -0.0425628 2.72523e-21)
(0.989465 -0.00933642 -5.35528e-22)
(1.00738 0.0645861 -2.56545e-20)
(1.00464 0.0621807 -5.36592e-21)
(0.984739 -0.0537238 9.99371e-22)
(0.923198 0.0259668 -1.47105e-20)
(0.99917 -0.000273035 -1.01902e-22)
(0.991939 -0.001393 3.75254e-22)
(0.959163 -0.0078508 1.5952e-21)
(1.02651 0.000317765 -1.34961e-21)
(1.00796 -0.11592 -5.00604e-22)
(1.074 0.112272 -1.60756e-20)
(0.952247 0.0402949 -3.40366e-20)
(1.00004 -7.65854e-05 1.67431e-25)
(1.00719 -0.00578783 1.9339e-22)
(1.0222 0.0154889 1.17032e-20)
(0.996929 -0.00441007 -4.72609e-22)
(1.02598 0.0138807 -1.47955e-21)
(0.999583 -0.000914845 -1.61871e-23)
(0.923411 0.0568071 2.72232e-20)
(1.00007 0.0636327 4.95813e-21)
(0.995728 -0.00132094 3.54532e-22)
(1.00266 -0.00657365 -4.35079e-24)
(0.999785 -3.59618e-05 -4.89556e-23)
(1.10593 0.0898934 3.7102e-21)
(0.999946 -6.27999e-06 3.98235e-24)
(0.995625 -0.00835709 2.34815e-22)
(0.945427 -0.0193669 2.43209e-21)
(0.999949 -1.54625e-05 -9.54672e-25)
(0.999011 -0.00213478 -5.22854e-23)
(0.999669 -0.000891852 2.32856e-23)
(1.05416 0.0389522 8.95425e-21)
(0.999986 -1.66019e-05 2.42545e-24)
(0.997297 -0.00019619 -4.91909e-26)
(0.960979 -0.0360297 7.28676e-21)
(0.940047 0.0070396 -8.31942e-21)
(1.06393 -0.00515891 -9.86281e-22)
(0.938039 0.0355584 2.0169e-20)
(0.99997 -4.20398e-06 -2.39427e-24)
(1.0021 -0.0380991 -2.6798e-23)
(0.999861 -0.000218499 -1.73298e-23)
(0.994571 0.0702684 -2.28889e-20)
(1.00285 -0.000580285 -1.62658e-22)
(0.993684 0.0238863 9.95436e-21)
(1.00198 -0.00796295 1.8724e-23)
(1.00051 -0.00154408 2.83979e-23)
(1.02423 -0.0286633 4.41648e-23)
(1.01853 -0.00113374 -5.93907e-21)
(1.0004 -0.000248099 1.82371e-23)
(0.999842 -2.97596e-05 3.36415e-25)
(1.00035 -0.000335055 3.8527e-23)
(0.996754 -0.00467838 -4.27641e-22)
(1.01425 -0.0585913 3.07032e-21)
(0.99997 -6.51328e-06 1.59495e-24)
(0.966152 -0.0228001 1.59438e-21)
(0.997203 -0.000676881 -1.64201e-23)
(0.999899 -2.73049e-05 5.81481e-24)
(0.999537 -0.000404962 1.22639e-23)
(0.988061 0.0396586 2.42183e-20)
(0.995457 -0.000267741 1.39475e-22)
(0.999519 -4.67469e-05 -1.02487e-23)
(0.965761 0.00190031 3.10635e-20)
(0.998903 -0.00204458 -1.11328e-22)
(1.0451 0.0839968 -8.59487e-21)
(0.999847 -0.000200905 2.8406e-23)
(1.00601 -0.0185963 -2.34582e-22)
(1.00001 -9.09315e-07 1.43143e-26)
(0.983839 -0.0291938 -1.28076e-21)
(1.02611 0.000340296 2.10769e-21)
(1.15242 0.00622806 -6.26957e-22)
(0.980933 -0.015239 2.07862e-21)
(0.99969 -0.000442973 5.29897e-23)
(0.979824 -0.0695349 1.83509e-21)
(0.997039 -0.000126878 6.50028e-22)
(0.999898 -1.0803e-05 6.47927e-25)
(1.00033 -0.000290123 -3.40607e-23)
(0.998328 -0.00265739 1.61325e-22)
(0.994456 -0.00071488 -4.25839e-22)
(1.00231 -0.00072958 -1.81244e-22)
(0.999031 -0.0014478 6.65692e-23)
(0.979797 -0.00579552 2.62987e-22)
(1.01842 -0.0565354 -2.21197e-21)
(0.980224 -0.00459068 1.11451e-21)
(1.12179 -0.0304565 -9.69158e-23)
(0.974447 -0.00457139 -1.42883e-21)
(1.007 0.084394 2.6303e-21)
(1.00325 0.0863482 -1.93771e-20)
(0.998876 -0.000521309 -9.49776e-23)
(1.17362 0.00455137 -1.21413e-21)
(0.999989 -2.07531e-06 -1.55611e-25)
(0.998272 -0.00332508 -2.01898e-22)
(0.988842 -0.000579605 2.59108e-21)
(1.00667 0.0207726 5.92167e-21)
(1.03291 0.00863268 -5.67342e-21)
(1.00007 -2.6455e-05 2.15466e-24)
(0.998363 -0.00313397 -1.64125e-23)
(0.974661 -0.00544724 1.07714e-21)
(1.04169 0.0333203 -3.52316e-21)
(0.999239 -0.000882349 5.58507e-23)
(1.00252 -0.000648893 1.06801e-22)
(1.00091 -0.000764145 -7.55561e-24)
(1.10686 0.0212959 4.23925e-21)
(1.19174 -0.0501854 -3.88801e-21)
(1.02198 0.104795 1.28616e-20)
(0.998912 -0.000111204 -8.28323e-23)
(1.05395 -0.0359547 2.11023e-22)
(0.999918 -4.55517e-05 -5.28636e-24)
(1.00363 -0.0058563 -2.99128e-22)
(0.999962 -7.85804e-06 -7.17843e-25)
(0.987164 -0.016993 3.75763e-22)
(0.999757 -4.06877e-05 -9.36913e-24)
(1.00972 -0.0182451 8.41631e-23)
(1.19635 0.00687635 1.93288e-21)
(0.976225 -0.0221996 2.62436e-21)
(1.00701 -0.0181267 3.16388e-23)
(1.00649 -0.00515842 -2.39332e-22)
(0.999495 -6.99871e-05 4.7014e-23)
(1.02181 -0.0149863 6.11434e-22)
(0.996731 -0.0154567 4.59662e-22)
(1.06498 0.00937729 -2.2864e-21)
(1.04985 0.0370266 4.01576e-21)
(1.15212 -0.121385 5.81844e-23)
(1.12533 -0.0465644 -1.83885e-21)
(0.994683 -0.000180925 -7.09932e-22)
(1.00386 -0.00291125 3.45644e-22)
(0.947718 -0.0183209 -9.15186e-22)
(0.936782 0.0502579 -4.1343e-20)
(1.10701 -0.04734 1.87188e-21)
(1.0218 -0.00905333 -2.59312e-21)
(0.925789 0.0303059 -2.02999e-20)
(0.999025 -6.13389e-05 4.07344e-23)
(0.998674 -0.000652071 -3.00639e-23)
(1.14152 -0.0353397 -1.65483e-21)
(0.999133 -0.00157074 -4.35847e-23)
(1.0095 -0.0359904 2.91262e-22)
(1.00448 -0.00150352 1.28078e-22)
(0.998064 -0.00019334 -6.54953e-23)
(0.998551 -0.000176233 -1.04441e-22)
(1.02595 0.0203925 6.9203e-21)
(0.999949 -0.000108788 -1.36584e-24)
(1.00038 -0.0001953 -1.63197e-23)
(1.00006 -1.0864e-05 1.17423e-24)
(0.997471 -0.000357246 3.69772e-22)
(0.994703 -0.0071706 5.98012e-22)
(0.999988 -1.45891e-06 1.50113e-25)
(0.999201 -0.000141372 1.08414e-23)
(0.981806 -0.0132504 7.12472e-22)
(0.968524 0.00568847 1.03577e-20)
(1.00857 -0.019036 1.77622e-22)
(0.993879 -0.00953557 1.02049e-21)
(0.966221 0.0417204 4.7049e-21)
(1.00051 0.0270008 1.55751e-20)
(1.05574 -0.000249382 -1.7698e-21)
(1.16521 0.00999901 2.43401e-22)
(0.978741 -0.00128561 2.46926e-21)
(1.00383 -0.00333138 -1.66716e-22)
(1.0066 0.0339761 -8.72555e-22)
(0.991608 -0.00111448 -8.81745e-22)
(1.02827 0.0818664 4.01582e-22)
(1.00613 -0.0429038 4.25742e-23)
(1.02961 -0.10372 -1.88032e-21)
(1.07018 0.0715368 5.74287e-21)
(1.02999 0.0869371 -1.11331e-20)
(0.967838 -0.0192487 3.44767e-21)
(1.03395 0.00701897 -3.64659e-21)
(1.07825 0.11679 1.51264e-20)
(1.03993 0.0839641 1.61632e-20)
(1.01933 -0.001791 2.02108e-21)
(0.997655 -0.00100351 8.86271e-23)
(0.996691 -0.00157835 8.10232e-23)
(0.999937 -1.36783e-05 -2.17471e-24)
(1.01351 -0.0237653 -4.65249e-23)
(0.991922 -0.000855049 2.11122e-22)
(1.00073 -0.001872 -2.95563e-23)
(0.999925 -1.30958e-05 -3.96492e-24)
(0.998775 -0.000468834 3.72158e-23)
(0.977411 -0.0682572 -3.02732e-21)
(1.09194 0.0314464 2.11974e-21)
(0.985666 -0.00380145 -1.2722e-21)
(0.999123 -0.0101111 5.72998e-22)
(0.997196 -0.000377104 -2.0203e-22)
(1.05145 -0.0381753 -4.33596e-23)
(0.994608 -0.000800714 -6.83038e-22)
(1.00175 -0.0059345 6.44408e-23)
(1.09049 0.111929 2.41628e-21)
(0.998685 -0.000174319 -2.42903e-22)
(0.999984 -3.2338e-05 -2.18888e-24)
(0.999958 -0.000131466 -1.23395e-24)
(1.00003 -7.84228e-05 -1.04276e-24)
(0.98196 -0.00502295 6.00374e-22)
(1.02455 0.018444 -8.14341e-21)
(0.997258 -0.000224928 8.02107e-24)
(1.01854 -0.00776972 1.67211e-21)
(1.01522 -0.121422 3.66816e-21)
(0.991309 0.060768 -3.82337e-22)
(1.00306 -0.00603547 8.9284e-23)
(1.0052 -0.00376684 -6.10935e-23)
(0.995962 -0.00175694 -2.87488e-22)
(0.99206 0.0402239 -2.37306e-20)
(0.999319 -5.09529e-05 3.18633e-23)
(1.02498 0.108687 -6.54388e-21)
(1.00756 0.0144921 -9.19191e-21)
(0.999917 -1.76979e-05 4.75118e-24)
(1.00429 -0.0436492 -1.56552e-21)
(0.997493 -0.000438314 -1.80773e-22)
(0.990439 -0.0533687 4.62345e-21)
(1.00041 -0.000102022 1.65845e-23)
(1.05159 0.00210027 2.51338e-21)
(1.00553 -0.0133908 8.29106e-25)
(1.00485 -0.00330611 1.91133e-23)
(0.999392 -8.23433e-05 -6.37257e-23)
(1.05876 0.0367928 4.35126e-21)
(1.03788 0.0318423 1.39928e-21)
(1.00599 -0.0585554 2.51089e-21)
(0.982321 -0.0158546 -1.37313e-22)
(0.998225 -0.0028387 -1.34971e-22)
(0.999378 -0.0343487 -2.85167e-21)
(1.12533 0.0483713 -4.15073e-21)
(0.92207 0.0169086 -1.85993e-20)
(1.07424 -0.0694997 -1.97172e-21)
(1.00397 -0.00634709 -3.22377e-23)
(0.999995 -1.72741e-06 -8.68504e-26)
(0.989116 -0.00319149 -9.95755e-22)
(0.998396 -0.00018677 2.2919e-22)
(1.02085 -0.0148686 8.59877e-22)
(1.00114 -0.0963282 -1.55471e-21)
(1.17228 -0.00779742 8.06553e-22)
(0.98356 0.0558449 -3.00314e-20)
(1.0452 0.0307396 5.7772e-21)
(1.10579 -0.0981864 3.10887e-21)
(1.05907 0.0708508 2.46133e-21)
(0.998746 0.0258948 2.79604e-20)
(1.01585 -0.00223273 1.40251e-21)
(1.00088 -0.00180661 7.21213e-23)
(1.01797 0.0473327 5.25244e-21)
(0.999295 -0.00153774 9.35621e-23)
(0.999864 -0.000116367 5.93301e-24)
(0.989647 -0.000652658 3.12436e-22)
(1.00007 -2.50173e-05 3.5056e-25)
(1.11253 -0.117135 1.72393e-21)
(1.00286 -0.0147833 -2.34457e-22)
(0.985797 -0.0288049 2.22963e-21)
(1.0014 -0.00125023 4.601e-23)
(1.05464 0.0620004 1.27454e-20)
(0.99873 -0.000163678 -1.86078e-23)
(0.999982 -2.55484e-05 -1.01302e-25)
(1.02298 -0.108044 2.0538e-21)
(1.00123 -0.0010532 -2.6754e-23)
(1.09128 -0.00470068 -5.54862e-22)
(0.961685 -0.00866811 6.01881e-22)
(0.948037 -0.0092887 2.36735e-22)
(1.17785 0.0501278 -1.80012e-22)
(1.02026 0.0145631 -3.06553e-21)
(1.01727 0.00410758 1.86332e-21)
(1.01624 0.00383559 -7.4252e-22)
(0.999856 -2.20486e-05 1.72185e-24)
(1.0991 0.0309201 1.65754e-21)
(1.06534 0.0129432 2.63384e-21)
(0.999603 -0.00047103 2.03161e-23)
(0.986238 -0.00430475 1.4684e-21)
(1.00045 -0.000157541 -1.84863e-23)
(1.00967 -0.016736 -3.00961e-22)
(1.00695 -0.0239694 -1.59661e-22)
(1.00347 -0.00111387 1.954e-24)
(0.999397 -0.000958109 -9.86276e-23)
(1.10495 0.0825976 -1.14711e-20)
(0.999984 -1.51173e-05 -2.55604e-24)
(1.00015 -7.98813e-05 -3.4019e-24)
(1.00153 -0.00082446 -2.18612e-24)
(0.985258 -0.00130295 9.34485e-22)
(1.01544 -0.00926455 1.09823e-21)
(0.985311 -0.0239071 -3.02058e-21)
(0.98008 -0.00243162 -5.48381e-22)
(1.01109 -0.0554339 1.4651e-21)
(1.03302 -0.131035 -3.9715e-21)
(1.02259 -0.0261151 5.87126e-23)
(1.02154 0.0482047 -3.02023e-20)
(1.18702 0.0127633 -1.45094e-21)
(0.994773 -0.00169653 -4.38823e-23)
(0.921129 0.0512376 3.2059e-20)
(0.976681 -0.0483616 4.77356e-21)
(0.99443 -0.00764383 1.92828e-22)
(0.981811 -0.00195615 9.20676e-22)
(0.997754 -0.0149317 -1.20264e-22)
(0.987832 -0.00096957 1.39438e-21)
(0.9919 -0.00258569 -2.83296e-22)
(1.02227 -0.0108449 -1.74914e-21)
(1.11465 -0.0508651 -4.06942e-22)
(0.999981 -3.01866e-05 -2.64606e-25)
(1.01893 -0.0103234 -2.08898e-22)
(0.999931 -1.81717e-05 -2.40492e-24)
(1.0025 0.0718358 6.11116e-21)
(1.12613 0.0703607 7.82632e-21)
(0.996232 -0.00128867 9.23747e-23)
(0.991287 -0.000663462 -1.20338e-21)
(0.999865 -3.15888e-05 -1.16622e-23)
(0.996971 0.0377327 1.77637e-20)
(1.01911 0.0847251 1.46953e-20)
(1.10143 0.0231573 -2.2708e-21)
(1.11011 0.107131 -9.83399e-21)
(0.976476 -0.0516345 -2.10383e-21)
(0.998824 0.00734627 -2.5679e-20)
(0.999952 -9.51117e-05 3.79937e-24)
(1.04056 -0.0226941 1.73367e-21)
(0.991461 -0.00052972 -4.49688e-23)
(1.07747 0.0607077 -2.62307e-21)
(0.946008 0.0345863 -2.44329e-20)
(1.12898 0.0418617 4.81512e-21)
(1.04073 0.0252056 9.81066e-22)
(0.999697 -0.0100214 -1.28819e-22)
(0.999854 -5.32045e-05 -1.12897e-23)
(1.11274 0.0930549 4.00014e-21)
(1.17998 -0.0299957 5.72074e-22)
(0.994323 0.0419598 -5.89197e-22)
(1.08463 -0.00587047 3.55163e-21)
(1.02472 0.0391241 8.8032e-21)
(0.994478 -0.00145378 -1.30609e-22)
(0.989014 0.0566298 8.2618e-21)
(1.02311 0.080765 5.16201e-21)
(0.992858 -0.00215075 -7.90347e-22)
(0.994049 -0.0020594 -2.95786e-22)
(1.12334 0.0841153 1.61763e-22)
(0.948865 -0.00831605 -3.89797e-21)
(0.999936 -0.000111066 -5.60397e-24)
(0.989608 -0.00356442 1.29778e-21)
(0.945261 -0.0139761 3.02041e-21)
(0.98739 -0.0672094 -6.39938e-22)
(1.00752 -0.00209228 -1.09907e-21)
(1.00643 -0.00467396 6.33761e-23)
(0.999906 -0.000137771 -9.18043e-24)
(1.02037 0.0898055 -2.22208e-20)
(1.00002 -0.0090047 2.52247e-23)
(0.999925 -3.93214e-05 2.35306e-24)
(1.01825 -0.0517063 1.83022e-21)
(0.999625 -0.000299744 1.56979e-23)
(0.999839 -4.70624e-05 8.86487e-25)
(1.00403 -0.00979594 -3.20873e-23)
(1.04479 0.0610884 1.73287e-20)
(1.01555 -0.0956084 2.8232e-21)
(0.959692 0.0375848 1.45281e-20)
(1.00005 -8.06694e-06 -7.07255e-25)
(1.04915 0.0647499 -1.81025e-20)
(1.01175 -0.04394 1.35581e-21)
(0.999941 -0.000135042 -1.56249e-24)
(1.00002 -4.24478e-06 8.26046e-26)
(1.00274 0.00935677 -1.51474e-21)
(1.04152 0.0523418 6.39315e-21)
(0.996918 -0.00169387 8.36397e-23)
(1.03858 0.0403579 -8.08436e-21)
(1.00002 -1.40665e-05 -5.1083e-26)
(1.03855 0.0448387 -1.13452e-20)
(1.13741 -0.122842 4.11407e-21)
(0.992513 -0.00183982 8.52361e-22)
(0.999251 0.0131306 -3.5756e-20)
(0.977865 -0.0398366 3.11449e-21)
(1.11417 0.101628 9.59867e-21)
(0.982215 -0.00184761 5.14346e-22)
(1.0422 0.0475862 1.48046e-20)
(1.04561 0.0554432 -4.61906e-21)
(0.986784 -0.00565824 2.21384e-21)
(0.982519 -0.00681419 -1.63452e-21)
(0.995774 -0.00770695 5.94615e-22)
(0.997894 -0.000422021 -6.14334e-23)
(0.999854 -0.00013056 1.56705e-23)
(0.999864 -0.00855618 -4.40119e-23)
(1.03209 0.0772535 -2.59876e-21)
(0.99998 -2.33821e-05 6.59875e-25)
(1.03471 0.0383252 1.07136e-20)
(1.02878 -0.0956979 4.48597e-21)
(1.00244 0.0449136 7.13645e-21)
(1.03473 0.0345222 -1.20863e-20)
(0.944527 -0.0123622 -4.2471e-22)
(0.962676 0.0517341 -3.11232e-20)
(0.998804 -0.000803031 4.35631e-24)
(1.01324 -0.0218146 1.13406e-22)
(1.04642 -0.0683236 1.16869e-21)
(0.988229 -0.000825158 -9.2001e-23)
(0.99504 -0.00226846 3.96521e-22)
(1.00933 -0.0451535 -1.16752e-21)
(1.04624 -0.0153356 -1.96884e-22)
(0.93377 0.027648 3.79266e-20)
(1.00003 -1.40845e-05 2.93627e-25)
(0.99859 -0.000849298 7.41078e-23)
(1.01584 -0.0665263 6.76342e-23)
(1.00001 -3.43273e-06 -4.39304e-26)
(1.00238 0.0771563 3.02536e-21)
(1.00125 -0.000901072 0)
(1.00001 -4.34334e-06 -4.79988e-26)
(1.00013 -6.33034e-05 7.65806e-24)
(1.00029 -8.51298e-05 2.08595e-25)
(0.987498 -0.0157987 1.94757e-21)
(1.01842 -0.0140261 -6.18156e-22)
(0.99887 -0.000607327 1.1457e-22)
(0.999943 -9.00705e-06 4.41237e-24)
(0.994722 -0.00207829 2.11781e-22)
(1.00344 -0.0102261 4.13492e-24)
(0.990399 -0.102293 -4.20075e-21)
(0.969384 -0.00223715 2.67873e-22)
(1.01483 -0.00823712 1.99657e-21)
(0.999984 -1.24283e-06 1.41281e-24)
(1.09183 -0.140919 5.43789e-21)
(0.98996 -0.00221984 -4.99539e-22)
(1.11127 0.0760035 -6.56076e-22)
(1.0002 0.0126248 -5.12499e-21)
(1.00088 -0.00273181 9.72471e-24)
(1.10039 0.0659431 -1.04688e-20)
(1.00011 -6.94376e-05 1.16627e-25)
(0.990371 -0.00264386 8.64425e-24)
(1.01895 0.000718933 -3.73098e-21)
(0.995034 -0.00263784 -1.6272e-22)
(1.04536 0.0729315 -1.00673e-21)
(0.990115 -0.00459529 -1.00121e-21)
(1.04177 -0.020579 -1.59584e-21)
(1.01958 0.00146622 -4.03166e-21)
(1.04956 0.0327924 -2.53506e-21)
(1.00578 -0.0123066 -1.49912e-22)
(0.992293 -0.00286674 2.31081e-23)
(1.06534 0.0620693 8.01458e-21)
(0.980782 -0.0739164 -3.54985e-21)
(0.992886 0.0745485 2.52004e-20)
(0.993151 -0.00339057 -9.59568e-22)
(1.04654 0.094963 -1.18359e-22)
(0.993173 -0.00290319 2.57553e-22)
(0.99917 -0.000339192 -7.72705e-24)
(1.0403 0.0226365 2.70006e-21)
(1.01199 -0.0249583 1.27556e-22)
(1.02909 0.0023975 5.60453e-21)
(1.00128 -0.000653837 3.02906e-23)
(1.00001 -3.17165e-06 -2.14872e-26)
(1.0018 -0.118124 1.56424e-21)
(1.08912 0.106 -1.33565e-20)
(1.00107 -0.00265017 -2.12024e-23)
(1.10854 0.067836 9.9929e-22)
(0.990684 -0.00427196 -6.55886e-22)
(1.08308 -0.147327 -1.95037e-21)
(1.03931 -0.0349061 -1.29929e-22)
(0.984912 -0.0255206 1.72648e-21)
(0.998781 -0.000689973 -4.96442e-23)
(0.994715 -0.000408043 -1.65631e-22)
(0.975595 -0.0620959 -2.08313e-21)
(0.976655 -0.00579715 2.21992e-21)
(0.992773 -0.00263987 6.53945e-22)
(0.999887 -0.000319049 1.06948e-23)
(0.986444 0.0783226 -3.12648e-21)
(1.09778 0.0585033 6.35642e-21)
(1.01974 -0.00854458 -6.48886e-22)
(0.99986 -9.94732e-05 9.85575e-24)
(1.02161 0.0758642 -9.83996e-21)
(1 -1.67519e-05 -4.88083e-25)
(0.99987 -8.82315e-05 1.89299e-23)
(1.09009 0.0570398 5.40754e-21)
(1.00836 -0.0206391 -7.83488e-23)
(1.09813 0.0958109 1.08976e-20)
(1.01875 -0.00251228 1.51095e-21)
(1.01354 -0.0103481 -1.12581e-22)
(1.08296 -0.0570138 1.13243e-21)
(1.04902 -0.120072 4.35025e-21)
(1.17788 0.0427076 -6.56412e-22)
(1.00091 -0.000647824 -6.27015e-23)
(0.962456 -0.0101062 -2.13436e-22)
(0.999986 -4.01037e-05 -7.08939e-25)
(1.00378 -0.00897179 2.55423e-23)
(1.04902 0.070059 6.57758e-21)
(0.987521 -0.00528923 1.53285e-21)
(0.99796 -0.000995141 1.02628e-22)
(1.01212 -0.0347472 -8.9531e-22)
(0.998574 -0.000736083 5.3313e-24)
(0.999693 -0.00079687 3.12947e-23)
(0.967462 0.00330158 6.45782e-21)
(0.992722 -0.00366025 -5.46013e-22)
(0.999605 -0.000517196 -6.95435e-23)
(0.999992 -3.48756e-07 -2.87061e-25)
(1.01386 0.00497752 8.11789e-21)
(0.977011 -0.0206156 -3.81064e-22)
(0.99976 -0.0003929 2.21295e-23)
(0.997997 -0.000517911 1.2542e-22)
(1.01868 0.0163256 3.34334e-21)
(1.05587 0.00901199 6.08271e-22)
(0.967888 -0.0172094 -2.15513e-21)
(1 -1.04832e-05 -6.14959e-25)
(1.00136 0.0115898 2.19169e-20)
(0.988734 -0.013631 -1.31426e-21)
(1.05489 0.0564475 -1.27203e-20)
(1.00983 -0.00109616 -1.7533e-21)
(1.01135 -0.00100393 4.07038e-21)
(0.974854 -0.00765266 3.08121e-21)
(0.999934 -4.27678e-05 -1.59037e-24)
(1.01887 0.000115383 -7.46657e-22)
(1.06005 0.00682173 -8.28611e-22)
(1.15652 0.0475338 3.2085e-21)
(1.03475 -0.0909417 9.80587e-22)
(1.02981 0.0725015 7.80377e-21)
(1.0044 -0.00130752 -2.6422e-23)
(1.07103 0.0656457 -1.10295e-20)
(0.99976 -0.0117514 -2.01601e-22)
(1.01473 -0.0495454 -3.15223e-21)
(0.999728 -0.000104877 -1.71505e-23)
(1.0023 -0.0157315 4.67293e-22)
(0.999919 -0.000308008 6.78455e-24)
(1.03696 0.0273992 -7.98784e-21)
(1.06208 0.103916 -2.40473e-20)
(0.998914 -0.000837705 3.91892e-23)
(1.01456 -0.0104184 1.81389e-24)
(0.986837 -0.00267339 5.14468e-22)
(1.03839 -0.0788294 4.35589e-22)
(1.03324 -0.083878 -2.24745e-21)
(0.998656 -0.0005625 7.42098e-23)
(1.03753 -0.0231211 -5.43778e-22)
(0.985768 0.00134124 -1.07151e-20)
(1.15281 0.0304645 1.97329e-21)
(0.999959 -0.000116187 9.36606e-24)
(1.05187 0.00656753 -2.1662e-21)
(0.997596 -0.00705558 -3.17589e-22)
(0.998181 0.0016162 2.3646e-20)
(0.990733 -0.00363624 8.93269e-22)
(0.996197 -0.0219973 -4.25529e-22)
(1.0143 -0.0306391 -2.40736e-23)
(0.994955 -0.0227569 -3.95184e-23)
(0.998463 -0.0174527 -1.04203e-21)
(0.99436 -0.0022646 1.448e-22)
(0.999063 -0.0116115 5.86943e-22)
(1.00137 -0.00498918 -1.67805e-23)
(1.04754 -0.0185749 4.72059e-22)
(1.00007 -1.99206e-05 -3.14284e-24)
(1.17578 -0.088749 -1.47995e-21)
(1.13856 -0.00641396 6.53191e-23)
(1.01049 0.086347 1.80345e-20)
(0.969625 -0.0162616 3.20576e-21)
(1.09051 0.0915001 -5.53633e-21)
(1.0014 -0.000518264 1.1098e-22)
(1.06089 -0.0671894 -2.6794e-23)
(1.00325 -0.0326359 -1.12078e-21)
(1.01599 0.0283717 9.66884e-21)
(0.994709 -0.00286 3.90142e-22)
(1.00007 -0.00013239 1.33249e-24)
(0.989254 -0.0142772 1.72589e-21)
(0.996473 -0.00750516 -2.26349e-22)
(1.03498 -0.0210685 1.34674e-21)
(0.978619 -0.00409628 -1.82231e-21)
(0.981667 -0.0061634 5.50407e-22)
(1.1108 -0.0309703 8.5863e-23)
(0.989419 -0.00154065 -8.13327e-22)
(1.0121 -0.0320881 6.41221e-22)
(0.988763 -0.0715209 2.60462e-21)
(1.00001 -5.52491e-06 -5.63603e-26)
(1.04859 -0.0119164 2.87381e-21)
(0.990598 -0.0637827 -6.98981e-21)
(1.09634 0.0793128 5.09302e-21)
(1.08329 -0.063627 -2.16652e-21)
(1.02786 0.00196936 4.61248e-22)
(1.02203 -0.0922808 -5.80497e-21)
(1.0276 0.096658 4.92088e-21)
(1.02909 -0.0305731 8.05381e-23)
(0.973991 -0.0067589 -1.81648e-21)
(1.01188 -0.0407474 -1.64491e-21)
(0.988418 0.00205816 1.03697e-20)
(1.13993 -0.0916737 9.64042e-22)
(0.990239 -0.00328234 -2.76461e-22)
(1.02324 -0.116875 -4.41707e-22)
(1.02225 -0.0587468 2.13696e-21)
(1.03756 -0.107315 -7.74761e-22)
(1.03626 -0.0725626 -2.37384e-21)
(1.06515 0.0562249 1.00235e-20)
(0.997968 -0.00116512 6.24663e-24)
(1.00603 0.0328308 3.58659e-21)
(1.00584 -0.00122281 1.89345e-22)
(0.999714 -0.000395836 -2.98844e-23)
(0.999075 -0.0017657 2.4931e-22)
(1.0481 0.000983356 -7.46873e-22)
(0.98596 0.000211447 2.99349e-22)
(1.00108 -0.00532295 -1.82522e-23)
(1.01484 -0.0459114 4.44641e-22)
(1.0187 0.0185596 -5.5733e-21)
(1.00002 -5.45876e-06 -1.21144e-26)
(0.983458 -0.00639555 1.29208e-21)
(1.01752 -0.00794117 1.45815e-21)
(1.06396 -0.0356045 9.12643e-23)
(1.00591 -0.000706933 1.07377e-21)
(0.998803 -0.00152583 4.17424e-23)
(0.985512 -0.033101 3.20093e-23)
(0.998135 -0.00680628 -1.15726e-22)
(1.00002 -3.994e-06 4.89136e-26)
(0.979868 -0.0390909 -5.27403e-21)
(1.03801 0.067838 -2.71803e-21)
(1.01591 -0.0267632 2.34833e-22)
(0.987239 -0.00323447 -9.24463e-22)
(1.00128 -0.000312801 -3.95915e-23)
(1.02109 0.0203385 7.34438e-21)
(0.999714 -0.000474509 -1.37841e-23)
(0.999105 -0.000456689 -4.98588e-24)
(0.99975 -0.000117521 -1.65745e-23)
(0.999409 -0.00166041 -7.19586e-23)
(1.14448 0.0484706 2.92138e-21)
(1.02342 -0.0307953 -5.96944e-22)
(1.0061 -0.0155307 -5.03745e-23)
(0.986088 -0.00518328 -4.5146e-22)
(1.00003 -3.8098e-05 -1.75658e-26)
(1.06702 -0.114564 5.79517e-21)
(1.18193 -0.015203 1.04146e-22)
(1.07268 -0.123971 -2.76929e-21)
(0.996844 -0.0283516 -8.08663e-22)
(1.01054 -0.00761638 1.23924e-21)
(0.999854 -6.68345e-05 7.28752e-24)
(0.990891 -0.00906089 -6.37469e-22)
(0.962889 -0.0386101 -2.89792e-21)
(1.1428 0.0323762 3.73364e-22)
(1.0014 0.0435749 -2.43796e-22)
(0.999079 -0.00252475 6.0069e-23)
(0.951953 -0.0242779 1.47656e-21)
(0.996471 -0.00202532 -3.64305e-22)
(1.02734 -0.0282013 1.28297e-22)
(1.07609 0.0540629 1.07784e-21)
(1.00031 -0.000105104 -2.34293e-23)
(0.999888 -0.000155996 -3.94782e-24)
(1.12127 0.0900209 1.09267e-21)
(1.13806 0.0152497 -1.51639e-22)
(1.01436 -0.0129467 4.33637e-22)
(0.997825 -0.00127496 1.83476e-22)
(0.99853 -0.000263834 -1.58439e-23)
(0.969097 -0.0399336 7.19646e-22)
(0.999872 -0.000264603 -1.38424e-23)
(1.014 -0.0282179 -4.90841e-22)
(0.992435 -0.00050151 1.63018e-21)
(1.00045 0.0147664 -4.24798e-21)
(1.04105 0.0725091 -1.40641e-21)
(1.05623 -0.0619235 9.97044e-22)
(0.99429 -0.0643718 2.56824e-21)
(1.00473 -0.00124821 5.20708e-22)
(1.01137 -0.0208893 -4.49936e-23)
(1.1304 0.000109509 1.26163e-21)
(0.993572 -0.0721162 -1.59599e-21)
(1.01455 -0.0392367 9.49773e-22)
(0.999999 -5.06719e-06 1.4563e-25)
(1.11826 -0.013522 2.38226e-22)
(0.985932 -0.000917606 1.58764e-22)
(0.992391 -0.0806596 3.21706e-21)
(1.01548 -0.0245987 9.26814e-23)
(0.964314 -0.00963557 -4.06743e-22)
(0.999716 -0.00021796 -9.10979e-24)
(0.99781 -0.000916351 -7.97698e-23)
(1.03138 0.0326473 9.33769e-21)
(0.976223 -0.00714432 -6.68868e-22)
(0.99999 -1.09661e-06 4.03651e-25)
(0.998001 -0.00029355 -1.66015e-22)