/*--------------------------------*- C++ -*----------------------------------*\
  =========                 |
  \\      /  F ield         | OpenFOAM: The Open Source CFD Toolbox
   \\    /   O peration     | Website:  https://openfoam.org
    \\  /    A nd           | Version:  7
     \\/     M anipulation  |
\*---------------------------------------------------------------------------*/
FoamFile
{
    version     2.0;
    format      ascii;
    class       volScalarField;
    location    "8";
    object      p;
}
// * * * * * * * * * * * * * * * * * * * * * * * * * * * * * * * * * * * * * //

dimensions      [0 2 -2 0 0 0 0];

internalField   nonuniform List<scalar> 
7807
(
0.662632
0.062034
0.864051
0.597058
-0.00366623
-0.000160287
0.858249
-0.0229472
-0.000503294
0.275522
-0.00015105
0.0101908
-0.0343534
0.146338
0.284981
-0.0426633
0.676625
-0.0452653
0.00582247
-0.180109
0.201756
0.00667984
0.110377
0.481922
-0.058966
0.675445
-0.00336766
0.177535
0.41392
0.0121823
-0.0609489
1.21507
0.109195
-0.00207617
-0.000451538
0.229721
0.0135315
0.835046
-0.0188205
-0.00144589
-0.0169699
-0.0415379
-0.156184
0.0624701
-0.000866313
-0.000352851
0.0066036
-0.0190192
-0.000292646
-0.173589
0.0152102
0.168857
-0.0747088
0.00288291
0.228489
-0.0203934
0.00637419
-0.0230779
-0.094695
-0.00217886
0.000171738
0.0194679
0.146573
0.0112212
-0.00421522
-0.0592321
-0.000410973
1.89207e-05
0.354394
-0.017647
-0.000324193
-0.152629
-0.0568864
-0.0983415
-0.0435976
-0.136477
0.853073
0.196834
0.225713
-0.178671
-0.0329508
0.773778
0.278271
-0.101648
-0.00615361
-0.00978983
-0.0245732
-0.0723596
-0.00280278
-0.0192029
0.423116
0.0795214
-0.00057764
0.00579985
-0.0152897
-0.100171
-0.145695
0.0113022
-0.00680199
-0.00504711
-0.17133
0.243093
-0.0145428
-8.62983e-05
0.104406
0.440603
1.0647
-0.0216246
-3.07709e-06
0.10811
0.570894
-0.0799408
-6.49797e-06
0.1149
0.439185
0.00198157
-0.0616015
0.364133
-0.106777
-0.0998299
-0.178373
0.744899
-0.143485
0.043691
-0.173966
-0.00414666
-0.054043
0.00942182
-0.00444262
-0.0601452
0.0144749
0.221198
-0.00259827
-0.00330967
-0.105368
0.554707
0.887778
-7.44292e-05
0.0336472
-0.225521
-0.0931067
-0.120299
-0.136787
-0.0939335
1.07641
-0.0327135
0.418092
-0.0900571
-0.130031
0.742679
0.219592
0.0842198
-0.00629389
0.32183
0.276346
0.789353
-0.15476
-0.0342146
1.0225
-0.000264769
0.00323502
0.496302
-8.16909e-05
-0.0085707
-0.0172654
0.59621
0.598088
1.05264
-0.00987275
-0.0132416
2.12113e-05
-0.185879
0.00196095
0.0769929
0.0364447
-0.127872
0.137588
0.44045
-0.000572292
-0.00213781
0.608902
-0.000263728
-0.000486592
0.864007
0.0533683
-0.0767742
-0.0998042
-0.0916646
-0.0429119
-0.220738
-8.92561e-05
-0.14007
0.456627
-0.0146735
0.000314732
0.517052
-0.00545213
-0.0563816
-0.0440784
2.44976e-05
0.00416074
0.563613
0.507272
0.788581
-0.0501408
-0.0654913
-0.108713
0.192228
0.553133
-0.000928371
0.000151186
1.021
-0.0366743
-0.00271586
-0.133385
-0.0565573
0.733511
0.743737
-0.130616
1.15875
-0.0050525
-0.0448305
-0.17592
0.233942
-0.191558
0.607722
1.02311
0.000274241
0.0456723
0.383547
-0.0178659
0.358404
-0.0023777
1.11799
0.774108
-0.0244822
0.0131128
-0.00134197
0.465362
-0.000413705
-0.0261399
-0.209217
-0.000323799
-0.00585006
-0.00188285
0.430346
-8.1889e-05
-0.0199642
-0.172676
1.21208
0.202645
1.08421
-0.000197801
-0.0519235
-0.000830281
0.816771
0.0188018
0.891714
0.00749708
0.0035619
0.0454273
0.199506
0.002672
-0.00101028
0.00238152
-0.0187641
-0.0692539
-0.000184745
-0.149426
-0.0164317
-0.000631242
-0.00283675
0.858808
-0.0341715
-0.00344102
1.14813
-0.00647806
0.623465
-0.000925676
0.00923705
3.41669e-05
-0.097279
0.224983
0.159246
-0.0948623
-0.0018274
-0.161366
-0.067515
-0.000803136
0.00231591
-0.00957703
-0.0328321
0.0136261
-0.00542405
-0.0970724
-0.055248
-0.096019
0.0851234
-0.121867
0.779091
0.800883
-0.00675478
0.124782
-3.31064e-05
-0.0102145
-0.101875
0.470856
0.30667
0.000436369
-0.00933124
-0.118494
0.435659
-0.00448231
0.0166301
0.00569865
0.256382
-0.0135523
0.763787
-0.0072642
0.0681686
-0.000512846
0.0194802
-0.000235419
-0.0715037
-0.0015495
0.0269256
0.0945406
-0.116268
0.014967
0.0408003
-0.00332436
0.0986675
-0.0284958
0.265117
0.432089
-0.131383
0.041424
-0.0698121
0.0239172
-0.203
1.07478
0.0438207
0.137936
1.13727
-0.00699272
-0.00789329
0.0610136
-0.00480658
-0.024319
0.0292924
-0.0125549
-0.00935033
0.404491
-0.000302599
0.00256623
0.000354574
-0.0153648
-0.0305732
-3.94545e-05
-0.00500148
-0.0906093
1.01739
0.0188722
-0.0361391
0.965016
0.66726
0.230183
0.14489
-0.188845
0.0230227
0.579691
-0.0486804
0.681838
-0.0517353
-0.144754
0.507618
0.688641
-0.14234
0.292017
0.607978
0.642079
0.189371
-0.0138239
-0.0190886
-0.000399188
0.0264281
-0.0497625
0.00470272
-0.000485025
-0.00725916
-0.164605
0.316605
-0.0731088
-0.00967371
-0.0171574
0.057513
-0.031397
0.00891492
0.560327
-0.00852439
-9.94664e-05
-0.000245142
0.000220015
-0.088335
0.394159
-0.0180572
0.125059
-0.195513
0.820926
0.0157757
0.0310943
-0.0231507
0.835027
-0.00482861
0.760179
0.425602
-0.000529452
-0.058722
-0.0149229
-0.113326
0.00264226
0.244845
0.0184561
0.0289607
-0.00388309
0.405711
0.439142
-0.0896056
-0.0897329
-0.0101274
-0.0521819
0.308334
1.1972
-0.0225716
0.0216664
-4.32461e-06
-0.0573921
-0.0102507
0.0904112
-0.171163
0.0974574
0.866282
0.41186
-0.0833302
0.537987
0.819814
0.119872
0.00573556
0.609151
-0.00401376
-0.000832117
-0.0750004
0.000394459
-0.124088
0.00255762
-0.0893739
0.00892431
0.52169
-0.00807365
-0.000108822
-0.161963
0.00802849
0.187381
-0.164574
-0.218794
0.217836
0.385806
0.322634
0.330366
-0.000931811
0.303978
0.282656
-0.00239364
-0.0704434
0.00282096
0.0316044
-0.00142913
0.0218487
-0.00352839
0.447781
-8.92444e-05
0.000911992
0.0091038
-0.0910811
0.0939394
-0.085512
-0.1083
-0.0678822
-0.189156
0.0508614
0.595292
0.118534
-0.0295542
1.12944
-0.141513
-0.0321731
-0.106574
-0.0230882
-0.0858777
-0.0441119
0.127756
0.0344438
-0.000117144
0.112054
-0.000437473
0.77536
0.37258
-0.0215989
-0.0597085
-0.000855634
0.775584
0.727718
0.271563
0.490876
-0.147531
0.912276
-0.000282629
0.107677
-0.0763763
0.448842
1.05442
0.283568
0.392894
-0.00645976
-0.000928466
0.454087
0.0420958
0.806384
0.187029
0.529586
-0.0310206
0.833553
0.700347
-0.0393526
-0.0332999
0.407466
-0.224368
-0.00037995
-0.0550492
-0.213796
-0.143341
0.0502058
0.0419431
-0.000563002
0.734971
-0.00331714
-0.000467908
-0.0442356
-0.00222123
-0.00101514
0.0171571
0.550743
-0.147754
0.995776
0.000282314
0.548764
-0.0391967
-0.000339453
8.18786e-05
0.409932
0.528146
-0.0178894
0.48261
0.000115668
0.505728
-0.133105
-0.0410891
0.851895
-0.128362
0.469847
-0.102158
0.504958
0.526587
-0.067899
-0.0859988
-0.0250074
-0.0124874
-0.000910715
-0.00404518
0.652912
-0.000122614
0.484754
-0.130239
0.717505
0.463846
-0.219281
0.973249
-0.00704937
0.0318782
-0.0430803
-0.0822433
-0.0281518
-0.0490095
0.150379
1.10658
0.00019342
-0.0083276
-0.0838074
2.76318e-05
0.787464
0.00817924
2.67721e-05
0.000879858
0.00171871
-0.0689025
0.0876809
-0.00670507
-0.00038983
-0.0297882
0.0133738
-0.196435
-0.201677
0.094532
-9.79833e-05
-0.172647
-0.0536887
0.412216
0.703605
0.00542555
0.411256
0.000689759
-0.0515592
0.251362
-0.0281464
0.588765
-0.0526775
0.119023
0.260345
0.40908
0.0223075
-0.0421801
0.488311
-0.169092
0.830849
-0.0378667
0.649041
-0.037774
-0.00503437
0.375822
0.0168451
0.25635
0.00851203
2.34533e-05
-0.205584
0.547848
0.00652233
0.397044
-0.0499522
-0.185449
0.0561538
-0.0886028
-0.00721361
-0.0357003
-0.161723
-0.110018
-0.0397543
-0.000648729
0.866664
0.39505
0.12517
-0.000867968
0.693425
1.852e-05
-0.00079673
0.40759
0.0134385
0.499962
0.17558
0.075004
0.0153725
-0.161297
0.205194
0.00579971
-0.160001
-8.18991e-05
0.0176133
0.569284
-0.0646196
-0.0120478
-0.0123188
-0.00845497
-0.00176454
1.12718
-0.0400503
-0.00240895
-2.59336e-05
0.351061
-0.111887
-0.00141553
-0.0118848
0.401922
0.274781
-0.141364
6.47131e-06
0.433858
-0.0624815
0.499585
0.0695625
0.084793
-0.116081
-0.000414868
0.254301
0.259438
0.253225
-0.111978
0.648271
0.0263557
0.483425
-0.00900905
-0.0463667
-0.00170798
-0.00217032
-0.000460047
0.417369
0.622556
-0.006376
0.0835497
-0.0686923
-0.0794871
-0.0986502
-0.00803483
0.0999077
1.09611
0.21444
-0.000233272
0.267863
-0.0151821
0.954086
-0.0497209
-0.0406591
0.00751093
-0.0469623
-0.0234857
-0.0317222
-0.0124966
0.00709125
0.135316
0.000466118
-0.0747198
0.138395
0.767674
-0.13555
0.507001
0.00895646
-0.0245471
-0.0354863
0.495991
-0.0298749
0.000467785
-0.0606737
-0.0215921
0.105074
-0.104592
-0.089498
0.0926561
-0.0585317
-0.00463033
-0.148954
2.42719e-05
0.171659
-0.131595
0.458739
-0.00453344
0.253815
-0.13103
0.722062
0.0497
-0.119905
-0.030147
1.00214
-0.066456
-0.0520616
-0.177365
-0.0530072
-0.144172
-0.0671562
0.467597
-0.0119667
0.566794
0.0375446
-0.00167992
-0.00512163
0.238957
1.21849
0.00519024
-0.0367257
0.419259
9.7968e-05
-0.0821177
0.114473
0.0775086
0.0380313
-0.00689172
-0.0967871
-0.012064
0.000127122
-0.121635
0.60034
0.0258098
-0.066188
0.00820446
0.419781
-0.00163542
-0.00537333
-0.00156182
-0.00330122
0.275611
0.0338282
0.0169848
-0.0709393
0.000196629
-0.133121
0.0719681
-0.152201
-0.048938
0.063234
-0.00092221
-0.0499163
-0.168896
0.236191
0.720706
-0.00531903
-0.19115
-0.0203414
0.0548098
0.430648
0.00190111
-0.000680396
0.427079
0.198695
0.0667159
-0.0128121
-0.00901942
-0.152894
-0.000766019
0.0144246
-0.0533787
0.634098
0.604973
-0.0144841
-0.123931
0.0311949
0.0265633
0.163806
-0.140218
-0.0179984
-2.23109e-06
0.137654
-0.0971381
-0.155549
0.0316954
-0.154033
-0.00173736
-0.0128953
0.46579
-0.111088
-1.79355e-05
-0.0121694
-0.0388063
-0.000723258
-0.0241554
-0.000215691
0.0194483
-0.189642
-0.0224576
-9.20918e-05
0.00013253
0.309781
-0.0930059
0.779617
0.627588
0.115604
-0.00248543
-0.0257147
0.000946379
-0.012374
-0.123523
0.17532
-0.0642217
0.623155
0.0414838
0.00118141
0.0315155
-0.119638
0.00845862
-0.0305358
-0.162824
0.0169781
0.0693705
0.188728
0.0424702
-0.0869339
-0.0418564
0.434469
-0.0370539
-1.48371e-06
-0.135956
-0.184821
-0.0434749
0.0211909
0.00326467
0.0433486
-0.176402
0.102264
-0.106162
0.390763
-0.0488911
0.0281362
0.0615956
0.0688603
-0.107812
-0.0372047
-0.000445318
0.347552
0.469442
0.0247394
0.5539
-0.117167
0.136897
-0.0907152
0.454783
0.259317
1.09033
1.84247e-05
0.282209
0.421808
0.0458799
-0.004921
-0.0556829
0.114362
0.000184225
-0.0553362
-0.109456
-0.0610426
-0.0669749
0.000557885
0.0177764
-0.00123081
-0.00294575
0.52282
0.0230642
0.331566
0.0663479
0.462325
0.0408226
-0.001311
-0.0708484
0.0284313
0.748539
0.00420549
-0.117634
-0.000738837
-0.00182554
0.0276864
-0.0542579
-0.000104781
-0.0330422
0.0936278
-0.00644634
0.000131835
-0.000154367
0.35584
0.0360068
0.022748
-0.00367958
0.0287717
0.0485576
0.0290351
-0.000961887
0.751736
-0.0444216
0.489777
0.671649
-0.000701674
0.30985
0.309648
-0.00254384
-0.000883797
-0.00141323
0.0979306
0.0647329
-0.0178021
-0.0440031
-0.158506
0.398996
-0.109848
4.20451e-05
-0.058533
-0.0528905
-0.108238
-0.0138167
0.0198826
0.00409102
0.0857683
-0.00169761
-0.000764996
-0.0517703
-0.0138062
-0.0750014
-5.16954e-05
-0.0448037
0.103342
0.0453791
0.00621999
-0.0264145
-0.0356466
-0.0278586
-0.0166241
0.0436256
-0.0287744
-0.000344816
-0.00130596
0.074589
-0.0370599
-0.0157916
0.0275629
0.0124754
-0.209321
-0.0336204
0.363937
-0.0381122
-0.149226
-0.0673844
-0.0681641
-0.0471052
-0.0119968
0.00733019
-0.0112542
-0.0419812
-0.0487122
0.459423
0.382052
0.165407
0.701278
-0.000236851
-0.00996631
-0.0496585
-0.0247265
0.30334
-0.0611003
0.171748
-0.0129555
0.502451
-0.00615417
-0.00514752
0.0746017
-0.0354924
-0.000716897
-0.0546389
-0.0187329
-0.0629855
-6.56915e-05
-0.0210309
0.00639446
-0.052718
0.121161
0.102661
0.0570976
-0.042329
-0.09451
0.282646
-0.00403716
-0.00626912
-0.00674477
0.958049
-0.00028625
0.218909
-0.064186
-0.061562
-0.0799579
-0.110833
-0.0866158
-0.102755
-0.0544162
-0.0146403
-0.000316422
-0.0135662
-0.0652663
0.253151
0.00540711
0.441731
-0.0987908
-0.0399511
-0.00295767
-0.0865567
-0.000333756
0.348215
-0.0906026
-0.0786428
-0.0715533
-0.0116486
-0.0951017
-0.00542136
-0.122256
0.255041
-0.0777281
-0.162927
-0.00467316
-0.0813446
-0.055507
0.0465244
-0.0102765
0.335027
-0.00767132
-0.0576639
-0.0021453
0.370644
-0.117111
-0.0797217
-0.010309
-0.0296873
-0.00873367
0.472906
0.0942413
0.535481
-0.0147125
-0.00260345
-0.00402426
-0.00735725
0.487865
-0.17842
-0.0215691
0.00108159
-0.0185385
-0.00926266
-0.00284246
-0.0282724
-0.0472921
0.155813
-0.0157505
0.0195424
0.936324
-0.184094
-0.0872839
-0.171479
0.000112111
0.199075
-0.0112663
-0.0811719
-0.0177734
-0.107249
0.0147552
-0.00169417
-0.0092122
0.0102557
0.44666
-0.0185424
-0.00566852
-0.0147632
-0.14854
-0.0263229
-0.0672551
0.0142176
-0.0275631
-0.0283093
-0.0104158
0.458333
-0.138537
0.0101634
-0.0133628
-0.0833632
-0.0435942
-0.149086
-0.00443838
0.237201
0.0703153
-0.0248212
-0.00546891
-0.0422108
0.985092
0.449877
-0.035391
-0.00184286
-0.00756244
0.0306472
-0.0126266
0.0636948
-0.00131271
-0.0367099
-0.00629214
-0.0526564
0.0671656
-0.00335045
-0.0302043
-0.00431747
0.664244
-0.0202628
-0.0365997
0.070169
-0.00614958
-0.0906124
0.303347
0.88493
-0.0336782
-0.0356031
-0.0067274
-0.00146923
5.87507e-06
-1.29141e-05
-0.0317674
-0.00210062
0.34544
-0.00212719
-0.00576895
0.0261549
-0.000819809
-0.133092
-0.128241
0.0518662
0.11231
0.0770811
0.265986
-0.0593032
0.232925
0.183461
0.24132
0.296247
-0.0404623
-0.0027689
-0.0175179
-0.143717
-0.011137
-0.0466914
0.227454
0.715941
-0.112551
-0.00153713
-9.3029e-05
-0.00466562
-6.90773e-07
0.0318722
-0.00175461
-0.0138145
-0.143338
0.00172845
0.00843594
-0.000692077
0.211382
-0.0480202
-0.0121563
-0.00379405
0.669702
0.647337
-0.0314634
-0.109453
-0.0844374
-0.074036
-0.0447442
-0.00592399
-0.162184
-0.0653353
-0.122279
0.0487898
-0.000157446
0.457502
-0.0148237
-0.0303268
-0.0574571
0.0572393
-0.00168487
-0.0262798
-0.00433874
0.0458505
-0.00472299
0.438836
0.00111576
0.0309449
-0.00131334
-0.0211098
0.0275316
-0.00237558
0.0588216
0.00131472
0.193187
0.314423
0.00826512
-0.00458521
-0.000397599
-0.001814
-0.00160387
-0.181779
0.301361
0.164275
-0.000852029
0.0317361
-0.00144947
0.498851
-0.177422
0.574061
-0.128439
-0.00143288
-0.000905976
-0.0229582
-0.0177657
-0.00199362
-5.83001e-05
0.0766921
0.0862908
-0.000748372
-0.00105116
-0.0605193
-7.05663e-05
0.387458
-0.00298006
-0.156549
-0.0583303
-0.0200349
-0.16403
-0.178391
0.353965
-0.0210088
-0.0620927
-0.00100723
-0.168179
-0.063185
0.139443
0.351481
0.727981
-0.00372291
-0.176096
0.047224
0.667863
0.114295
-0.000378953
-0.0189677
-0.0128295
-0.0156084
-0.143056
0.253815
0.000572357
0.0736194
0.00987245
0.238727
-0.00165594
-0.000386488
-0.0282869
0.622178
-0.161852
0.384209
-0.00387235
-0.000637773
-7.8467e-06
-0.121127
-0.124616
-0.00107799
0.302975
0.0342701
-0.0167886
0.818639
-0.00124034
-0.0115905
-0.172185
-0.0268979
-0.00719714
0.321538
-0.100365
-0.000526501
0.0483628
-0.000554411
-0.000318793
0.353433
0.0233417
-0.00143462
-0.153789
-0.0745574
-0.0109884
-0.0325283
0.0075009
-0.0692321
0.00529045
-0.0110028
-0.190185
-0.112964
0.0790936
-0.00286954
0.380529
0.463232
-0.10331
0.0319167
0.057778
-0.0134908
0.384131
0.298736
-0.0849714
-0.000512403
0.0319689
-0.164726
0.0494952
-0.0819585
-0.00659893
0.150146
-0.0827684
-0.000435114
-0.000231681
-0.0379007
-0.0700343
-0.0786002
0.0308796
0.119451
-0.129929
-0.000484694
-0.00433635
-0.000661229
-0.0896891
-7.47261e-05
-0.0060849
-0.0829308
-0.159485
0.365206
-0.00936041
0.0130611
-0.0635615
-0.0768884
-0.000406577
-0.138143
0.368058
0.366245
7.45629e-05
-0.000353586
0.372217
-0.00787879
-0.162761
-0.120455
0.0105147
0.00152117
-0.206165
0.0179285
0.380243
-0.16881
-0.00465064
-0.0230674
-0.146928
-0.00181225
-0.000761987
-0.0028763
0.063262
-0.151986
0.401412
-0.000664486
0.973695
0.113143
0.00036611
-0.00301836
0.000789152
0.000903937
-4.49212e-05
0.000430997
-0.1577
-0.00226806
0.00135433
-0.000626415
0.333418
-0.0178992
-0.000609991
-0.000139685
0.761182
-0.0647782
0.029245
0.00363231
-0.00225156
0.183744
-0.00030904
-0.0334679
-0.0685945
0.00682223
-0.0190362
-0.000305152
-0.000646063
-0.0906822
-0.116909
0.0223555
-0.0868406
-0.0550109
-8.831e-05
0.0632153
0.0937868
0.26907
-0.00542199
-0.000493895
-0.165099
-0.0190674
-0.00156678
-0.146214
-0.000433643
0.134401
-0.000280172
-0.00401821
0.176734
-0.00637652
-0.173296
0.907398
-0.00508299
0.000863963
-0.15149
-0.128287
0.0291045
0.0146386
-0.000477084
-0.0936109
-0.000265514
0.441684
1.15757
0.275618
0.00947689
0.0112753
-5.84847e-05
-0.0823217
-0.000180433
-0.0182406
-0.0053201
0.00116173
-0.0105177
-0.0279322
-0.000388559
0.00272489
-0.0221343
-0.00098599
-0.0288534
-0.0497754
0.00362698
-0.0034979
1.04713
-0.0021546
0.0076295
0.000760811
0.0420433
-0.147896
0.0298323
-0.000555249
-0.000315214
0.00842986
-0.000344943
-9.08223e-05
-0.0335935
0.00217309
-7.5966e-05
-0.150566
-0.0067424
-0.168293
-0.00514558
-0.000214143
-0.00976778
-0.0073484
-0.0443442
-0.0571814
0.0072065
0.00163487
-0.00145709
-0.00620672
-0.000248437
0.598922
0.00486849
-6.19856e-05
0.00184233
-0.00628945
-0.00111289
-0.189719
-0.162644
-0.000409186
-0.0217553
4.23899e-05
-0.00774609
-0.000230916
0.101473
-0.000440215
-0.000587044
-0.0104069
-7.29045e-05
0.0411033
-0.000705206
-0.00396411
0.0562921
3.83351e-05
0.772988
-0.157787
-0.123243
-7.87056e-05
-6.58128e-05
0.00603119
-0.00371777
-0.144752
-5.28979e-05
-6.98786e-06
0.00232764
-9.40751e-06
0.00118331
0.00139876
-0.00143239
0.00245832
-0.156352
0.935207
-0.0867844
0.71459
0.0278098
-0.0481039
-5.80356e-05
-0.00274713
-0.0374479
0.000448574
0.000887322
0.00053334
0.238763
-0.00408016
-0.000678858
0.946055
-0.00167666
0.00183844
0.00156956
-1.48369e-05
0.263629
-0.00671247
0.00354207
0.000388268
-0.00161781
-0.000214363
-0.00279145
-0.129378
-0.00130204
-0.00471959
-4.96167e-06
0.000667983
-0.000801979
0.433854
-0.00137911
-0.000846216
-0.207519
0.0116775
-0.000264019
-0.00417435
-0.000191234
0.402211
-0.215593
-0.000914793
-0.00120839
-0.00549883
-0.000484088
0.166855
0.306416
0.165031
0.0015928
-2.12023e-05
-3.38145e-06
0.185783
0.000793519
-0.18192
-0.0547009
-0.0474018
0.171879
1.04568
0.00611957
0.480143
-0.0437966
-0.0867986
0.407783
-0.00110919
-0.194695
-3.9308e-05
-0.0276133
-0.147728
0.000171424
-0.129066
-0.00295696
0.00702776
-0.0157136
-0.128753
-0.12649
-0.00898071
-0.173878
-0.133015
-0.00058296
-0.0371191
-0.00015844
-0.112441
-8.68939e-05
-0.000579272
0.0838094
0.389765
-2.33459e-07
-0.134659
0.0111161
0.000236821
-0.0604425
1.83891e-05
-0.0420051
-0.000806079
-0.11588
0.000395161
-0.000270525
-0.00618238
-0.000146894
0.381304
-0.0909864
0.265247
-9.26338e-05
0.0019581
-0.0978298
2.52424e-06
-0.169538
-0.198117
-0.166933
0.982918
-0.0199033
-5.45076e-05
0.0782377
-0.12481
-0.00747096
-7.45328e-05
-0.000265588
-0.141736
0.000397291
0.00273704
-1.74945e-06
0.00049748
-0.0845887
0.397448
-0.0888377
0.274899
-0.016415
-4.11761e-06
0.0212245
-0.133473
-6.46161e-05
-4.24916e-05
0.00100179
0.000200244
0.00126122
0.585585
0.104543
0.000175561
3.42342e-05
-0.199553
0.464523
0.425164
-0.000138117
-0.108167
-0.0551924
-0.0296299
-0.144069
-0.0243361
-0.00892544
0.343755
-0.000127154
-0.0789732
0.401984
-0.145457
-5.26896e-05
-0.185287
-0.000539224
0.674302
0.0886013
-4.22607e-05
-8.47506e-05
0.446486
1.14832e-05
-0.000552833
-0.035798
4.01086e-05
0.575711
0.0110542
-0.0224053
-0.196593
-0.0115231
-0.179767
0.43189
-0.01915
0.0244296
0.0030818
-5.97603e-05
-0.00311629
-2.37517e-05
-4.88256e-05
0.0944916
0.424897
0.362285
-0.00134776
0.54491
-0.0287025
2.39083e-05
-0.137689
-5.43888e-05
-0.0829508
0.0911994
-0.041331
0.0137791
0.00574115
-0.0284085
0.000770024
-0.00509369
0.0636697
-0.0088392
-0.000146183
9.17866e-05
-0.000189617
0.0918258
0.000171749
-0.0610558
0.572194
-0.0182293
0.000157884
-0.0105615
-3.0343e-05
0.304036
-0.00108843
-0.000201767
-0.000260921
-4.002e-05
0.482399
-0.000461684
0.554899
-0.179657
0.000346839
-0.147712
-0.00146894
0.376221
0.967466
-0.00429806
7.51333e-06
5.00216e-05
-6.46215e-05
0.373273
2.24062e-06
0.00324485
-0.073022
0.527715
2.07547e-05
4.71897e-05
9.04625e-06
7.70296e-05
-0.0616406
5.63392e-06
0.641925
-0.0459142
-0.0003799
9.1968e-05
-0.00629088
-0.0875276
4.42564e-06
-0.00017341
0.395244
0.000103859
-0.0951419
-0.0878807
0.000411224
2.8139e-06
-0.149934
3.98881e-06
0.404842
4.579e-05
-0.00135732
3.6074e-05
-0.000535502
0.241464
9.80125e-06
-0.00497021
2.54954e-05
0.0444838
-0.0102768
-0.0194358
0.00347426
0.370207
-0.000813949
-0.000245862
-0.026912
-0.0260079
-0.000744995
-0.000158446
-0.00272676
0.000125008
0.482977
-0.0298233
0.965868
-1.92126e-06
-0.0231972
-0.000475824
0.352469
0.000176892
-0.0771162
7.28256e-05
-0.00480806
-0.0994182
-0.000702352
-0.0472086
-0.14662
0.0158653
-2.70274e-05
-0.145486
-0.00100929
-0.000892993
-0.0168139
-0.0288565
0.00401323
-0.000150715
-0.00132737
-0.0026609
-0.00389707
4.06035e-05
-0.00368328
0.940352
0.000300805
-0.00987706
-0.103925
-0.221236
-0.188643
-0.143173
-0.0646902
-0.00156397
-0.0361869
0.000238291
-0.00024883
0.94546
-0.000287267
0.455423
-0.00136347
0.00123332
-0.00345167
-0.0853128
-0.00127298
0.00253029
-4.6151e-05
-0.0011962
-4.67228e-05
-0.00024297
-0.0451389
-0.000332366
-8.08252e-05
-0.000253755
0.000448349
-3.07045e-05
-0.124735
0.590594
-3.00621e-05
-0.00181344
9.34606e-05
9.51443e-05
-0.00253267
2.84195e-05
-0.00274367
0.000875139
-0.00111316
-0.192311
-0.00208659
-0.00549032
1.51082e-05
-0.00450542
0.00103317
-4.62516e-05
-2.95801e-05
4.17005e-05
-0.0024062
0.00166955
-0.130349
-0.0768017
-0.194957
0.00202497
-0.00528232
0.056809
-0.196704
-0.000287597
0.0501146
0.0211668
-0.00314039
-0.035399
-0.168947
0.879723
-0.00128079
-4.55898e-05
0.00275988
0.000152447
5.47226e-05
0.197068
0.0114642
0.225616
-0.094315
0.852894
-0.001573
6.59747e-06
0.000464376
-5.51028e-05
-0.00410812
0.391688
0.497189
-1.60637e-05
-0.000513242
-5.22554e-05
0.476545
0.0694026
-0.0132841
3.65812e-05
5.97308e-05
0.0220257
-0.00209797
-0.20914
-0.0495318
7.47779e-05
0.0106691
-0.0881026
-0.000183331
0.00561129
-0.000203206
-0.136263
-0.00534677
0.370425
5.16359e-05
0.00512211
0.00038056
4.61875e-05
0.00052891
-0.0679852
4.55676e-05
-0.0027519
6.98397e-05
-0.0582755
-0.136116
-0.00853064
-0.0178482
-0.0257741
0.0274955
-0.0260205
-0.00749702
0.00020798
0.000322641
6.32433e-05
5.5158e-05
-0.000171332
0.0275201
-0.159518
0.00151515
-0.103645
-0.00928918
-0.128961
0.000269163
-7.29966e-06
0.00400835
0.0291761
5.61473e-05
-0.106739
-0.0424399
0.220773
-0.099262
8.19013e-05
-0.0103007
0.000595408
-0.0679847
0.325651
3.5536e-05
-0.172482
-0.0632136
-0.0126749
0.000117446
-2.58672e-05
0.0979992
-0.0493845
7.41455e-05
-0.0202272
-1.30472e-05
0.000661214
0.311208
-2.53572e-05
1.02431e-05
-0.000255971
0.000106743
0.00276248
0.000270622
-0.0155152
0.000717042
-0.0371249
0.00339262
-0.000630144
-0.0858893
-0.124785
-0.0186924
-4.62362e-05
6.63767e-05
-0.148688
0.017456
-0.139762
8.93174e-05
-0.0154002
-0.000110216
7.56067e-05
0.216033
-0.0208056
-0.00835516
-2.98417e-06
-0.0512489
0.00015344
-0.196745
8.32644e-05
-0.222887
5.87019e-05
-1.81601e-05
0.000261923
0.00312482
-0.0686625
-0.0536338
-0.199738
4.96888e-05
0.00028906
-0.228699
-0.0586892
-0.0250694
-1.42495e-05
-0.0126827
-0.140211
-0.232409
1.12331e-05
-2.29646e-05
1.46766e-05
-0.0949958
-0.190601
0.00221567
-0.032652
-0.000169651
0.570323
0.000287893
4.50156e-05
0.000461238
-2.51611e-05
-2.51688e-05
-0.0107737
0.000348222
-0.00756594
-0.181157
-0.0386239
-0.174766
0.000122934
-0.000155271
0.164991
-0.0900057
-0.0140243
0.28514
1.57787e-05
-4.00217e-05
-3.65848e-05
0.36077
0.000531768
-4.24752e-06
-1.33511e-05
-0.155337
-0.0456412
1.87035e-05
0.000242022
-0.027228
-0.0189361
0.00130752
0.504124
-0.160824
0.000745554
1.16595
-5.38667e-05
-0.00204926
-0.0233031
-0.236492
2.0108e-05
-6.25437e-06
6.63101e-05
0.014582
-0.0840793
-0.00101278
-0.142546
-0.0228971
8.43073e-05
-1.40155e-05
-0.0299715
0.0114098
0.0522897
-0.0300409
-0.134599
-0.113762
0.10282
-0.0763349
-0.000191001
0.00108185
0.0627846
0.00164633
-0.000233605
0.00234159
9.55895e-05
-0.000274842
-0.0355934
-3.61438e-05
-8.52652e-05
0.123828
0.0153541
-0.000479596
-0.000121407
-1.61618e-05
0.541752
-0.0194886
0.002415
-0.0799805
0.00070095
0.000608216
0.000522415
-0.000146826
0.00147681
-0.108948
0.0581303
-2.76334e-05
-0.000484884
-0.117108
-0.0855526
0.132583
-0.00146283
0.00558347
0.0524378
6.11347e-06
0.000184091
-0.120353
6.81215e-05
0.38469
2.78503e-05
0.0126174
0.000508806
0.000683948
-0.210274
-0.0215719
-0.052158
-0.00718129
8.13157e-05
0.0212845
0.164292
-0.0358709
-0.000401474
0.242204
0.378069
1.09077e-05
-0.152631
-0.000200847
-3.00706e-05
-0.000134658
-0.00168391
0.0576032
-1.48005e-05
0.000756255
-0.0719779
-0.0752446
-0.0649135
0.654618
5.55722e-05
-0.000208793
0.393924
-0.000147787
-0.0112034
-0.00194311
0.389197
0.000136601
-0.000918781
0.000141106
8.40717e-05
9.67493e-05
0.000110847
0.00022414
-0.0525455
2.59642e-05
-0.00973737
-0.131838
0.551611
-0.000411424
-0.00014987
0.0141566
0.219904
-0.115398
-0.00224348
-0.209786
0.653515
0.000132071
0.81541
-1.31712e-05
0.0100946
0.0708295
0.0013274
0.865306
-4.14363e-05
-1.80428e-05
0.00356372
9.50001e-05
-0.00257555
0.00079874
3.51609e-05
-0.00585262
3.372e-05
-0.000432514
-0.00981424
0.5332
0.152584
0.0640308
-0.130302
-1.53437e-05
-5.36501e-05
0.0103198
-0.141878
-2.87857e-05
-0.138588
-0.000161793
0.263028
0.166063
-0.0938424
-0.00402861
-0.0331291
-0.00293378
-0.0437363
0.014407
-0.0207779
0.176733
6.59993e-06
0.600424
0.166063
-0.00167971
0.487121
-0.0392725
-3.74269e-05
7.23904e-05
0.000204459
-0.000634049
-0.000357622
0.535062
-0.00293126
0.549234
-0.0030346
0.385229
0.510973
0.356801
-0.0207453
-1.48881e-05
0.000192953
-0.0313289
-0.174302
-0.138301
0.0045285
6.2412e-05
-0.113498
-0.000889175
2.04615e-05
0.00307594
-0.00320377
-0.00179114
0.0951482
0.000229751
-0.145384
0.166205
0.000177443
0.000820399
-0.0395791
-0.158003
-0.00218653
-0.00155068
4.00079e-05
0.000761328
0.318111
-0.0485562
-0.135909
0.00397243
0.31589
-0.113373
0.000108663
7.00823e-05
0.114984
-0.000267688
0.279375
0.0100057
-0.0402147
-0.00114491
0.00499161
-0.103377
-0.000104336
0.00150084
0.0264876
-0.222124
0.407998
-0.188144
-0.0787282
-0.000487599
-0.000137789
0.0199497
0.00014293
-0.226541
-0.191967
0.00171769
0.0104035
0.0113421
-0.175998
0.00194679
0.000583268
0.000117338
-0.119733
8.83234e-05
0.00170319
0.30126
0.415846
-0.178345
0.134597
0.136071
0.104245
-0.000467107
0.0395266
0.000373979
2.7067e-05
-0.000211685
-1.88029e-06
8.56224e-05
-0.00107251
-0.0226222
-0.0754484
-0.0288876
-0.0796473
0.149304
0.124074
0.0122623
-0.183298
0.00049144
0.0142802
0.033862
-0.00116625
0.211171
-0.00342809
-0.0318396
0.0374704
0.0163865
0.00339592
-0.0119768
0.130063
0.00251737
-0.0582787
-0.048247
0.997927
-0.0712989
0.223174
0.129512
-0.101355
0.00668023
0.000312132
-0.00776409
0.000173803
-0.00790098
-0.0737494
-0.000209537
-0.000128878
0.634511
-0.0098031
-0.124346
-0.0561013
0.000623024
-0.00387034
-6.88558e-05
2.44812e-05
0.119151
0.000123783
-0.00880308
0.215614
0.0190684
0.00339014
0.0557117
-0.0171241
0.0126698
-0.143193
0.00265246
-0.0132197
-0.166121
-0.00254245
-0.0240501
0.00234414
0.00469668
0.00300855
0.117675
-0.000918295
0.0170182
-0.163838
-0.0605687
0.000967879
-0.163752
-0.04439
-0.051471
0.000328155
0.0198507
-0.180072
-0.00251183
-0.0142867
-0.152499
0.00241954
-0.00352593
0.509432
-0.0569414
-0.000124113
0.0246451
-0.141535
-0.00315464
0.446067
-0.00602415
0.00309114
0.159074
-0.00428857
0.0249811
0.311745
0.000220763
0.00354975
0.000541824
0.000111217
-0.0133155
-0.0198636
-0.000371768
-0.0716786
0.264296
-0.112706
-0.186313
0.00353134
-0.00973608
-0.00172281
-0.0706282
8.18723e-05
0.0564025
0.000136601
-0.047418
-0.00585704
-0.0147362
0.154019
0.316433
-0.196156
-0.000159363
0.482397
-0.00560679
-0.0066814
-0.180079
-0.201364
-0.0458279
-8.98384e-05
-0.00315159
0.0217302
-0.00919848
-0.0141029
0.00135476
0.23275
-0.117654
-0.0330386
-0.0198697
0.0875989
-0.00435926
-0.000675797
0.00514559
1.25015e-05
-0.00922704
0.307621
0.0024335
-0.158952
-0.000164856
-0.0218876
-0.00955558
-0.21052
-0.0339294
-0.225675
-0.000193027
-0.000186756
-0.00819915
0.0317058
0.00568138
-0.231984
0.248448
-0.14191
0.000570912
-0.236921
4.67219e-05
-0.232741
-0.0752348
-0.193168
-0.169651
-0.13477
-0.0412032
0.120315
0.179316
0.2331
0.287173
0.339796
0.48662
0.532733
0.576579
0.650874
-0.0239814
-0.0215343
0.203336
-0.0423727
0.00275193
0.0617344
-0.119514
0.00171971
-0.00182003
-8.68216e-06
-0.0414791
0.0523392
0.000136754
-0.000861935
-0.0312784
-0.00316038
-0.216552
-0.0298249
-0.166129
-8.1035e-06
0.00176674
-0.000154997
-0.11888
-0.0255705
-0.105691
-0.0235613
0.00526452
0.000711674
0.0141415
-9.82786e-05
-0.00204606
-4.46822e-05
0.00112744
-0.0127639
-0.0341514
-0.000600276
0.000988599
0.133234
-0.0302034
0.198193
-0.226969
-0.0177102
0.43959
-0.055418
0.011178
-0.0632188
-0.00959885
-0.037109
-0.035155
0.706992
-0.00358923
0.000211397
-0.0170845
-0.0257684
9.69544e-06
0.212382
-0.0115827
0.669852
0.0598412
-0.135851
-0.0789449
0.150159
-0.0131047
-0.000147699
-2.29973e-05
-0.0123681
-0.148044
0.000173315
0.742293
-0.0081226
-0.0143748
-0.000197795
-0.00113434
-0.0171595
0.390206
0.00732292
0.302042
0.0019351
-0.0420164
-1.8989e-05
0.0782611
-0.0216951
0.0565043
-0.011985
-0.0160795
-0.00201732
0.00405949
0.0350981
-3.66497e-05
-0.026788
0.00181904
-0.00117009
0.00140921
-0.0201879
0.000771741
0.351685
-0.031174
0.0114526
-0.0787758
0.161541
-0.0995178
-0.0324163
0.133365
-0.0540692
0.413668
0.0384389
-0.0100422
-0.148356
-0.00196227
-0.000143579
0.00132264
0.000271594
-0.00625353
0.0131504
0.000259581
-0.0384604
0.0634266
-0.00908959
0.000131969
-0.00973273
-0.12495
0.35967
-0.095594
-0.137395
0.0242396
0.229563
-0.00366704
0.215236
-0.0344951
0.0157049
0.104087
-0.171006
0.277349
-0.00015828
-0.0854522
0.00346025
-0.00438215
-2.47741e-05
-0.0177112
0.287192
0.00285195
0.525243
-0.0610543
0.0841255
-0.0464035
0.000551304
-0.00409679
0.178767
-0.119843
0.531821
0.112219
0.0706994
0.398941
-0.122989
-0.0125476
-0.185308
0.00214848
-0.0996146
0.371715
-0.00841182
0.695887
-0.0039994