/*--------------------------------*- C++ -*----------------------------------*\
  =========                 |
  \\      /  F ield         | OpenFOAM: The Open Source CFD Toolbox
   \\    /   O peration     | Website:  https://openfoam.org
    \\  /    A nd           | Version:  7
     \\/     M anipulation  |
\*---------------------------------------------------------------------------*/
FoamFile
{
    version     2.0;
    format      ascii;
    class       volScalarField;
    location    "6";
    object      p;
}
// * * * * * * * * * * * * * * * * * * * * * * * * * * * * * * * * * * * * * //

dimensions      [0 2 -2 0 0 0 0];

internalField   nonuniform List<scalar> 
30084
(
0.0506057
0.482153
-0.0478574
-0.176725
-0.0131206
-0.201427
0.00922091
0.0529501
0.0112911
0.00108746
0.0426594
-0.0222713
-0.00254203
-0.000104853
0.64407
-0.0320718
-0.000779857
0.345586
-0.011621
-0.0559856
-0.00461415
0.0106108
-0.0482476
-0.0115017
1.40165
0.479124
-0.0027401
1.23348
0.636016
-0.00798179
0.0859366
0.254649
-0.24911
-0.0297091
1.24182
-0.0239472
0.570711
-0.144139
0.0307887
0.029824
0.00246499
-0.0812827
-0.000681997
-0.0454738
0.000211117
-0.00684824
-0.0195944
0.000476995
0.0184768
0.558067
0.0642201
-0.157281
0.261367
-0.195783
-0.0313456
0.607078
-0.0183011
-0.0047443
-0.0191198
-0.0559453
-0.000284536
-0.0112449
0.410235
-0.0199662
0.825856
1.33067
-0.032751
-0.0437974
1.27954
0.00256605
0.475199
1.06562
0.0140964
1.35052
-0.0416739
0.187315
0.70514
-0.130837
-0.000204787
-0.0557906
-0.184236
0.619987
0.0504424
6.85064e-05
0.0197678
-0.0155625
0.856367
-0.0026397
-0.00245548
-0.272064
-0.0990382
-0.131587
0.01711
0.276358
-0.281775
0.885086
-0.122365
0.00270819
-0.191547
0.711357
-0.000217827
-0.123281
-0.000276575
0.201786
-0.161734
0.424021
0.947737
-0.00235728
2.76515e-05
-0.210654
-0.251673
0.0955904
1.98735e-05
-0.00768358
-0.000725709
1.04826
0.676784
-0.0609119
0.000189844
0.0160202
0.244947
0.508483
0.185836
1.33126
0.00609739
0.240736
0.358754
-0.0368271
0.0223582
0.000230623
-0.0403753
0.690099
1.07376
0.139026
0.199181
0.0834357
0.98136
-0.126208
-0.198683
0.695599
0.256635
-0.238744
-0.225876
1.42105e-05
-6.05045e-06
-0.0134559
-0.0181965
-0.195551
-0.0919953
0.534468
0.146247
0.0760465
0.00248376
-0.00063612
0.641123
0.00300443
-0.0391268
0.95685
0.743517
0.0777084
-0.177133
-0.171985
0.622405
-0.000207273
-7.09072e-06
-0.0612212
-0.220349
0.000368323
6.24728e-05
-0.0362085
0.000303637
0.0314528
0.969596
-0.124544
-0.120301
-0.0265861
0.0115485
-0.12649
-0.00604907
0.216384
-6.01757e-05
-0.000173523
0.854241
-0.041472
-0.199606
0.653835
-0.0331151
-0.0931865
0.0209093
-0.00699158
-0.0014244
0.0169699
1.34612
0.632965
-0.0719108
-0.0375667
1.16553
0.583243
-0.27731
0.00642316
-0.0267296
-0.223537
-0.0210209
0.00471852
0.983443
-0.0350309
0.0375329
-0.198395
-0.215845
-0.000131992
1.13061
-0.00546154
4.98408e-05
-0.00284255
-0.0902313
0.459587
0.00555015
0.0365907
-0.011388
-0.275258
0.000257169
0.00270187
-0.0122563
0.350574
-0.0146026
-0.00735097
0.246178
0.000791437
0.000197954
0.0286293
-0.135138
-0.112691
-0.0249778
0.471137
-0.0768666
0.0792856
-0.000110312
-0.0157905
0.00440701
-0.0174896
-0.264578
-0.00728534
0.00266402
-0.00790021
0.0164454
-0.0547735
-0.000194936
-0.00399946
0.000339441
0.355222
-0.0177101
0.00088789
0.42901
-0.231179
0.00145292
1.78543e-05
-0.23935
-0.260018
-0.0462127
-0.0430519
0.146713
0.826082
0.000494633
-0.130865
0.223132
1.19231
-0.0419644
0.64593
0.200719
-0.000787117
1.55283
-0.00283288
-0.130553
-0.271471
0.0123421
0.352869
-0.0437087
1.08677
-0.0183041
-0.0917469
-0.00120206
0.816114
-0.0122829
0.897228
-0.00266483
-0.0305319
1.20529
0.31325
0.245484
-0.15965
-0.000748241
0.0159113
-0.00082738
5.50248e-05
0.363402
0.000246703
-0.100284
0.212846
1.41381
1.06538
-0.20602
-0.090946
-0.107913
0.0813029
0.0202167
-0.0942028
-0.21404
0.840898
1.06616
-0.00679438
0.936892
0.354412
0.197416
0.0637503
-0.0050955
-0.00629838
-0.0283816
-0.0142068
-0.000257654
-0.00822222
0.177974
0.829734
0.00907918
-0.138406
0.0740868
-0.000148125
-0.209889
1.46727
-0.0332405
-0.00684307
0.0677517
-0.0533999
0.487727
-0.00676401
-0.00011565
1.91566e-05
-0.0143696
1.21166
0.161982
-0.257288
2.14239e-05
-0.275177
0.332252
-0.0272055
-0.259611
-0.0062438
-0.00230475
-0.125201
0.00520595
0.228614
0.0566266
0.63557
-0.000453138
0.0145987
0.504482
0.247464
0.00245225
0.00259557
1.04636
-0.0971171
-0.00760151
0.605128
1.20586
0.0500997
-0.0308999
0.466509
-0.00411443
-0.0454988
-0.0178891
0.573218
2.77849e-05
0.0545672
-0.0451299
1.07251
1.34086
-0.0321291
-0.0473099
0.842384
-0.0588905
-0.00024922
0.614026
0.367522
0.372881
-0.0370971
0.132922
1.22978
-0.12885
1.13304
1.07748
3.65888e-05
0.177293
-0.112517
-0.0153334
0.00925167
1.21381
0.162785
0.0016405
-0.156189
-0.228756
-0.0299234
-0.000580109
0.925155
0.665197
0.000363786
0.0230603
0.0303479
0.0673867
-0.158568
0.000455747
-8.82025e-06
0.00285607
0.49701
-0.143253
0.866114
-0.251185
-0.0873113
-0.115094
0.595378
0.411419
-0.00658323
0.0452029
0.00485885
1.14916
-0.133254
0.00618898
-0.0404378
0.274621
-0.0069177
-0.0647817
0.00140372
0.00143483
1.48161
-0.0435579
-0.0269026
-0.00221422
-0.00401532
0.799487
-0.0408121
-0.11718
3.52775e-05
4.50074e-05
-0.13775
-0.036414
-0.0282876
0.0934984
0.0348425
-0.011177
0.28889
-0.093303
1.12075
0.0383386
0.00148353
-0.206824
-0.11574
0.37014
-0.0177234
-0.115378
-5.86898e-05
1.29442
0.104579
0.000561743
1.34591
-0.121676
-6.26723e-05
0.00836408
-0.210442
0.0964463
0.248642
-3.93976e-06
-0.0435537
0.000296078
-0.0290405
-0.00255105
-0.0448278
1.17382
-0.0439891
-0.0623955
0.66474
-0.0154959
1.17249
-7.0385e-05
-0.07871
-0.196246
-0.112023
0.172513
-0.00815847
0.0197025
-0.000704208
-0.0986447
0.0871676
-0.000138415
4.78475e-05
-0.0344952
1.10323
0.0484297
0.0145858
-0.281419
2.16214e-05
0.00573002
-0.000117638
0.0585503
-0.092478
-0.00210191
-0.0412873
-0.0666277
0.00594345
-7.44402e-05
0.281867
-0.00194557
0.308823
1.01501
0.850226
-0.0172245
0.0343087
0.136408
-0.000366935
-0.0175274
2.35591e-05
1.08708
-0.0722202
0.0921891
-0.0912418
0.0120559
-0.016603
-0.000510803
5.7497e-05
-0.0260611
0.266382
0.758872
0.00723205
-0.185109
-0.132856
-0.0427294
0.532158
-0.0073426
0.00991246
-0.0304757
-0.000464169
-0.21464
0.823261
0.619437
-0.117667
0.805408
0.000562643
2.99996e-05
0.607377
0.367919
1.33697
-0.156883
-0.114449
0.29111
0.00687
-0.0317972
0.00273215
-0.0572305
-0.0678392
1.55713e-05
-0.00496409
1.06618
-0.00067268
1.26413
2.52932e-05
0.361974
0.29896
0.300348
0.00614465
0.00115096
1.08298
0.321194
-0.201327
0.629951
-0.0312037
-0.0711167
-0.0226071
0.87541
-0.133114
0.08923
-0.0395233
2.4588e-05
-0.00725949
0.0343266
-0.09521
-0.114961
-0.216121
-0.0962553
0.440168
-0.0119605
-0.269086
-0.0736927
0.000306871
-0.0649742
0.0802106
0.446289
-0.141114
-1.65759e-05
-0.0962029
0.00109757
0.00820436
-0.10437
0.864707
0.00534084
-0.0639953
0.0488472
0.314495
1.15708
0.0106752
-0.0196508
0.819661
0.553248
-0.0737391
0.0283527
-0.238199
2.72405e-06
-0.21469
0.000554827
0.0405545
-0.000125484
0.000209426
-0.0260568
0.426319
1.03991
0.0873769
0.0695508
3.87003e-06
-0.0343555
0.000566883
-0.0179305
0.000208484
0.260167
-0.00262133
0.643631
-0.000645
-0.0687128
-0.187296
-0.0237196
1.15147
-0.0885724
-0.143424
-0.0310551
0.220874
-0.196804
0.147554
-0.0186159
-6.36892e-06
-0.0229219
-0.0222077
0.00151493
0.000546852
0.873643
-0.0273866
0.33938
-0.0172357
0.00507456
0.16644
0.00103576
-7.72819e-05
-0.212344
-0.01962
0.000225792
0.816679
1.42996
-0.00112017
-0.180252
4.38069e-05
1.24135
0.362947
-0.176609
0.000356344
0.0898342
0.272829
0.313585
0.246959
-0.00217678
-0.000671717
-0.0803255
2.3659e-05
1.75607e-05
-0.135927
-0.116884
-0.211483
1.3829
0.00124271
-0.0979097
0.0439805
-6.92672e-05
-0.00651662
0.000291588
-0.0315068
0.000290594
-0.0101704
0.143285
1.16251
0.214918
-0.00150891
0.00277708
0.0493678
0.332652
-0.0173341
6.36825e-05
0.73753
-0.214016
-0.152048
-0.0753972
-6.98274e-05
-0.00149695
-0.216974
-0.0879087
0.535322
1.11736
-0.140238
-0.00710613
-6.23797e-05
-0.208742
-0.250417
-0.00107452
0.0245647
-0.0712619
-0.026033
1.06445
-0.00724079
0.0762251
0.721522
-0.0423454
1.34147
1.32444
-0.000114916
-5.94034e-05
-0.0874948
0.0863475
-0.174233
0.0305391
-0.0409906
-0.00317108
1.21266
0.630751
0.0132767
1.53477
3.34907e-05
0.412688
-0.206303
-0.0916961
0.000633166
-0.180866
0.424155
0.0829392
0.285668
-0.00248742
-0.00266385
0.0155204
-0.0193288
-0.0709447
-0.00569113
0.528419
-0.0258265
-0.028576
-0.288744
1.03336
0.221451
0.163451
-0.00220702
-0.0028373
-0.101654
0.00586303
-0.0145624
-6.59123e-05
-0.00187304
0.425227
1.0877
-0.000660025
0.803287
1.81831e-05
-0.0185621
1.96282e-05
0.0312303
0.265616
-0.000165744
-0.000170498
-0.256056
2.62729e-05
0.253304
-0.110163
-4.71163e-05
0.665447
3.41329e-05
-0.00220063
-0.000437224
-0.0275261
-0.00192623
-0.0338865
-0.223339
-0.00168994
0.0246393
-7.87228e-05
1.02793
0.0685183
0.223059
-0.164078
-0.11384
-0.00597347
0.0170182
0.723194
-0.119887
0.734356
-0.199166
-0.0191861
-6.65137e-06
-0.0314634
1.07819
0.713984
-0.150719
-0.250706
0.999107
-0.0456706
-0.202091
1.75837e-05
-0.11496
-0.00465361
1.50742
-0.190581
-0.000425823
-0.267623
-0.123455
0.796559
-0.0143844
-0.12935
-0.0188104
-0.0242075
-0.00706355
0.793426
-0.263927
-0.0970495
-0.0768498
-0.0681784
0.0319686
0.985741
-0.0950419
0.630424
0.0158588
0.184755
1.27714
-0.046495
-0.00122222
0.814344
1.06895
0.0184818
0.161574
-0.0333891
-0.161971
0.816835
-0.212492
-8.00656e-05
-0.0399272
0.000234075
-0.0245257
-8.54527e-05
-0.0215467
-0.00530422
-0.0167087
0.10467
-0.00326714
-0.00272882
-0.00553629
0.680259
-0.0113343
-0.0177029
-0.0157807
0.600096
0.0297558
-0.0018028
1.06819
1.30884
-0.0992597
1.21619
-0.0875547
1.00897
0.0305309
-0.0303884
0.0146062
-0.0024447
0.000109137
0.0146423
-0.0599347
-0.0994397
0.620164
-0.114724
-0.10087
-0.00496024
0.137772
-0.112254
0.0366088
-1.38149e-05
0.0886974
0.626595
1.0581
0.200834
-0.0665228
0.510436
-0.00156763
0.180029
-0.0894567
0.00394533
-0.263792
0.0216025
1.00883
-0.0109001
-0.00279275
-0.00038652
-0.198843
-0.00597085
1.51247
1.55336
0.062419
-0.000140861
0.0439521
-6.37705e-05
0.346958
-0.00274961
0.11324
1.42782
0.382621
0.000116298
-0.0407427
4.99659e-05
-0.27308
-0.171558
1.2022
0.00129792
0.0602282
0.0223404
0.00159082
-0.0116226
-0.00148268
-0.0298913
-0.15815
-0.11186
0.0476703
0.653495
-0.0650142
0.0331893
-0.0985241
-0.00793125
-0.128532
7.33453e-05
0.000275023
-0.0109257
0.143991
-0.106568
-0.0758045
-0.0180441
0.0139153
-0.00767725
0.894261
-0.0627973
-7.78473e-06
-0.256042
1.12373
0.130368
-0.0583411
0.43018
7.5051e-05
-0.00328811
-0.136929
-0.000109629
-0.00214238
-6.78458e-05
1.53377
0.0444804
0.0183658
3.18078e-06
1.44914e-05
2.25769e-05
-8.3815e-07
-0.110078
1.0749
-0.169953
-0.00205908
-0.000718123
-0.0218081
1.18945
-0.200755
1.12596
0.224204
0.493243
-0.000390315
1.17569
-0.0106314
-0.0446819
0.162484
0.0535622
0.0587833
0.628278
-0.195332
1.16347
0.925387
-0.0371682
-0.123483
0.0669359
-0.138846
4.03366e-05
-0.00440146
0.0135625
0.288163
-0.0308361
-0.110484
-0.0149583
1.38162
-0.213937
-0.000105457
-9.67922e-05
1.21149
-0.0233553
0.018269
-0.062393
-0.0106428
-0.0700781
-0.0451992
0.156473
0.493654
0.233338
-0.0466273
-0.0652685
0.000492711
-0.0269071
-0.00174309
-0.0371893
-9.15308e-05
0.000333811
-0.0486474
-0.0917861
1.15311
-0.0132168
-0.000782675
-0.00679701
-0.00136841
1.06192
0.135224
-0.000109175
-0.105613
-0.0208596
-0.0158274
-0.12587
-0.151385
0.0318758
0.261658
-0.211445
0.000426696
0.0275698
-0.0625002
-1.82354e-05
-0.000230496
0.415694
0.332228
0.258344
-0.230497
-0.195321
0.00253148
1.26988
0.000498886
-0.0543397
1.09056
-0.0786134
-0.164196
2.13713e-05
0.000855087
-0.162314
-0.0427913
0.00643482
-0.151962
0.739736
0.934457
0.00318556
0.00131467
0.747772
-0.0569359
-2.14071e-05
-0.00639404
-0.128484
-0.0927628
-0.036989
-0.00349966
0.806802
7.93427e-05
0.295079
0.873457
0.000226931
0.0693196
-0.00189123
-0.191499
-0.0615025
-0.00286759
0.11437
0.00106733
0.73648
0.006352
0.0953807
0.186702
1.41361
1.01015
-0.247362
-0.0306943
2.15135e-05
0.32159
-0.0567894
0.553086
0.997354
-0.150671
0.0763727
-0.0673174
-0.0255325
0.48857
-0.000724898
1.20339
0.107567
0.000255166
0.000231429
0.000495018
-0.0511622
-0.0703978
0.00323182
0.389612
0.504439
-0.227531
0.00307364
0.000360889
-0.0887567
-0.000117082
-0.0109421
-0.041762
-0.00198823
0.323116
0.0192996
-0.00511963
-0.0145152
-0.0602825
1.0096
1.03307
0.149383
2.95843e-05
-0.00198179
0.770747
-0.00162957
-0.0936429
-0.00069174
-0.0745678
-0.247606
-0.000662313
-0.000785483
-0.116237
0.00586826
-0.000223245
-0.00484539
0.701886
-0.13116
-7.81599e-05
0.339608
1.00444
1.04062
0.00271929
-0.123077
-0.0349659
1.11873
-0.226068
-0.230768
0.0365449
-0.0485796
0.112225
-0.0963516
1.03905
0.35793
-0.000554931
-0.203414
-0.283199
-0.0137511
-1.69485e-08
-0.00623462
0.656608
-0.000593306
0.0587472
-0.0144165
-0.00429984
0.0342949
0.105679
-0.000580529
-0.000390047
-0.0151454
-0.183433
-0.130129
-0.242475
0.734464
-0.00156536
-0.000913074
-0.125396
-0.087947
0.0392215
0.0498871
0.000400774
0.255924
0.492967
0.0688797
0.0927018
-0.00220397
-0.0493128
0.357431
0.00496341
-3.62412e-05
-0.0321909
-0.0147169
-0.00255759
-0.0391066
-0.00298406
0.891193
-0.0329367
-0.249398
-0.0855304
-0.0393258
0.0433402
1.23754
-0.165071
-0.000351987
1.16972
0.539554
0.0286697
-0.021425
0.0279277
0.249598
0.513035
0.00138242
-0.00643341
1.42095
0.842077
0.984695
-0.161301
-0.00499442
-0.00438554
-8.29135e-05
-0.00459051
0.933674
0.286458
0.039095
-0.00382929
-0.00115842
0.165317
1.33558
1.08461
0.277993
-0.0101905
-0.242188
-0.0096989
-0.00252615
-0.0574241
0.0702317
-0.100718
-0.0127452
0.00361673
-0.259119
-0.192668
0.108134
-0.0884856
0.000106343
-0.0959139
-0.000654471
-0.0247233
-0.00240718
1.0136
0.000252774
1.48407e-05
-0.0411654
-0.0724154
-0.106012
0.13974
0.000316608
-0.267359
0.256963
0.622853
1.50258
-0.0165016
-0.136421
0.113343
-0.00734578
0.389833
-0.00207234
0.0389013
-0.000602989
0.84425
0.0856846
0.0392698
0.50602
0.389594
0.00572567
0.0139874
1.89504e-05
1.13982
2.01976e-05
-0.168187
0.0013326
0.00667917
0.595046
0.350711
-0.221261
-0.144327
-0.014181
1.54299
-0.239396
2.21358e-05
-0.0557835
-6.30491e-05
-0.0307308
0.357189
0.61894
0.00339427
-0.128509
-0.0337221
0.484414
0.394054
-0.118459
1.39537
-0.0354121
0.000292707
-0.132598
1.43175
0.0105305
0.315367
-0.153114
0.526141
0.00699653
0.150271
-0.290972
0.0245091
0.194136
-0.0346599
0.72799
-0.0947516
-0.0692948
-0.00274507
-0.00278102
1.27343
2.22083e-05
-0.0162507
-8.45468e-05
-0.0288942
0.0013906
-0.0255716
0.829159
2.08634e-05
-0.00357752
0.570005
-0.229114
-0.0728126
0.00444309
1.08376
-0.148986
0.550209
-0.0427827
0.506268
0.0285885
-0.00255784
0.150245
0.0029641
1.30363
-0.0930783
-0.000329057
0.00833576
0.466647
-0.0402496
-0.00238236
-0.000370174
-0.202711
-0.00920929
-0.0339495
-0.237648
1.28562e-05
-0.255916
0.00177853
0.991712
-0.0355179
0.489493
0.0178083
-0.0129301
0.840572
-0.133888
-0.119502
-0.015024
-0.201047
0.862729
0.91058
-0.0503894
-6.06787e-05
-0.0553752
0.0170331
9.58522e-05
0.332909
1.04862
0.0457125
0.0058695
0.0530699
-0.260286
-0.000532661
0.310141
0.188845
0.28939
0.0482411
0.100595
-0.00129766
0.563394
0.11794
-0.232574
-0.00350258
0.0974061
0.488764
0.00302972
-0.270033
0.679094
-0.112644
-0.272292
-0.288175
-0.118295
-0.127393
0.187538
0.67625
-0.192676
3.70916e-05
0.00357167
0.126215
-0.00631819
0.0629021
1.97513e-05
-0.0204582
0.0145764
-0.000200054
0.19993
-0.00174786
0.403841
-0.1128
-0.0113578
-0.0246492
-0.0309137
-0.223099
-0.0211254
-0.00333921
0.0765103
0.279018
0.0185021
-0.121171
-0.0105251
0.109731
-0.0340732
-0.0696035
-0.281014
-0.0575112
-7.23331e-05
-0.0549891
1.16485
0.000161269
0.623547
-0.0573673
1.37083
0.174308
-0.174387
5.33955e-06
0.00628651
-0.265779
-5.06741e-05
-0.00964765
-1.09435e-05
-0.233483
0.0166519
-0.19039
-0.0839587
-0.000388586
0.817362
0.786595
-0.128285
0.00173259
-0.000543884
3.18855e-05
-0.00016267
1.27334
-0.00467205
0.00841717
0.0784264
0.0036035
-0.00204281
-0.288115
-0.000692423
0.180978
0.0187022
-0.00737009
-0.00253891
-0.0944396
-0.150801
0.590015
0.431042
-0.000518288
-0.0473716
0.00211377
-0.0263999
-0.00141416
0.480712
-0.0199039
1.55391
-0.0294329
-0.00514965
0.261757
-0.0688884
0.98275
-0.153209
-0.0411478
-0.0471998
0.0660899
-0.0127687
6.56966e-05
-0.0299315
0.899904
-0.163556
-0.0117199
-0.15506
-0.0998997
0.493809
-0.00174637
0.842417
0.010446
-0.218642
-0.00183243
0.0485414
0.168232
0.0124552
0.983097
-0.00161728
0.117915
0.304299
0.00206369
-0.000394866
1.34352
0.28498
0.000537595
0.11022
0.105685
0.000565939
-0.0287831
-0.0799574
-0.235757
-0.0358125
0.943882
0.0172891
0.682434
-0.0013583
1.08769
-0.266495
-0.0193491
0.0230085
0.112947
-0.204961
-0.109098
-0.0313854
0.000255782
1.43685
-0.0832903
0.00314828
0.0442784
-0.147726
0.995836
0.0112022
-0.0598924
-0.000156242
0.404256
0.0298513
-0.142973
0.00312403
-0.0126685
-0.104278
0.000170283
-0.193393
-0.00557905
-0.0542557
-0.238964
0.839471
-0.0375288
0.310701
-0.0707302
-0.109255
4.66212e-06
0.000627539
-0.0134114
0.000176951
-0.0414772
0.305437
-0.00741559
5.58058e-05
1.29889
0.018725
0.00138022
-8.33411e-05
-0.00769324
0.969914
-0.200771
1.43767
0.593899
0.0834795
0.835359
2.65475e-05
-0.0499765
-0.00298608
-0.00903469
0.616366
-0.0357226
1.45668
0.782521
-0.207424
0.798478
0.0355536
-0.0518971
0.0084313
-0.0561346
-0.0145932
-0.194049
-0.214161
-0.011032
0.795374
-0.0364245
0.000595345
-0.0157717
-0.00237203
-0.130577
-0.000535756
-0.00452657
-7.12972e-05
0.523971
-0.088664
0.817056
0.108092
-0.01
-0.108057
-0.0724385
0.25459
-0.0112734
-0.00384738
-0.248385
-0.165119
0.055474
-0.162376
-0.0165881
0.0793754
0.0151601
0.000187242
0.47096
-9.04961e-05
0.201351
-0.00289273
1.59163e-05
0.00745238
-0.00237933
-0.00444533
-0.0579896
0.62303
0.490238
-0.0746622
-0.0465026
0.0109362
-0.0191061
-0.0379618
0.00051266
-0.00173357
0.00269724
0.388229
-0.0302064
-0.204068
-0.147524
-0.00675901
-0.0621075
-0.0213819
-0.00629663
0.0199863
-0.0464655
0.752816
-0.226636
0.0255057
0.0121728
-0.137652
1.41893
-0.0368418
-0.0113958
0.0291293
0.286817
0.0151239
0.0157323
0.799062
-0.00127843
0.166108
-0.0770623
-0.14787
0.0237465
-0.0136196
-0.0205265
0.150994
-0.0134137
-0.00221138
0.0167395
0.00990177
-0.000778273
0.151207
-0.0347324
-0.00749064
2.41403e-05
0.529002
-8.82588e-05
-0.102674
0.278081
-0.0782512
0.000664649
0.383656
-0.100424
0.564528
-8.65665e-05
-0.0142442
0.48095
0.000732971
0.0186414
-0.0167195
0.0390597
-0.0769317
-0.121977
-0.0288467
-0.00992527
0.0370627
0.0758992
0.549475
-0.000622932
0.397909
-0.151169
-0.0119934
-0.0258877
0.00158879
-0.143787
0.000327059
1.17441
0.742679
-0.0017432
-0.0779796
0.00116681
-0.00791449
-0.0172622
-0.0327731
0.524797
0.633982
0.146117
0.0381468
-0.278254
0.148854
0.325831
0.384453
-0.193269
0.077745
0.710753
-0.0354775
1.05518
-0.0033246
-0.0407691
-0.165724
-0.000272405
-0.00269425
-0.000111076
1.04821
-0.0383871
0.001112
-0.0572675
-0.012462
-0.00112306
-0.0488916
0.891257
0.00399839
0.0413137
-0.0946116
-0.00148069
-0.0169372
-0.00287145
1.47096
0.000859183
0.000128519
-0.00653254
-0.0503632
0.516131
0.00215106
0.0879414
0.279538
-0.000433435
0.00819896
-0.275932
0.428711
-0.0730323
6.0403e-06
0.00140784
0.0860242
0.120349
0.913435
0.321438
-0.130591
6.586e-06
-0.148589
-0.00963058
-0.0455145
-0.0439433
0.57382
1.13894
-0.000326012
0.493773
0.739737
-0.0357572
0.0228333
-0.0754663
-0.0236056
0.000474865
-0.149272
-0.0306646
-0.000272656
-0.00184983
-0.00565466
-0.00686128
-0.00234932
0.903573
0.984552
0.72162
-1.02683e-05
-0.0858844
0.305202
0.364905
1.18785
-0.0017037
-0.0742342
-0.0678833
0.964035
-0.0696578
-0.0332673
0.0858593
0.504188
0.00122661
-0.00160758
-0.0853975
-0.10419
0.539785
0.250009
-0.124584
-0.0789209
0.543515
0.0777705
-0.171335
0.0258637
0.339973
0.600737
-0.00115794
-0.00213052
0.436382
0.000834459
0.209304
0.114175
3.30437e-05
0.941678
-0.0372989
-0.0161398
1.49115
-0.135081
-0.0232365
-0.137348
-0.00800759
1.13065
0.00442288
1.42004
-0.000402874
0.0319136
1.45233
0.0253438
1.13217
-0.020871
0.000102684
-0.0543733
1.17102
-0.00562748
-0.0241109
-0.0292537
-0.0035413
-0.0756247
1.15699
0.411729
7.70024e-05
0.0767158
-0.0135077
0.109982
-0.00310963
0.0834667
-0.00950294
-0.00150666
1.10765
1.18911
1.11505
-0.189716
0.375852
0.000633916
-0.211998
0.833294
0.0702516
0.00100644
-0.137935
0.00228123
-0.000311778
1.17644
0.000536899
0.0158041
-0.00684095
-0.0314502
1.1229
1.16741
1.18487
0.043941
0.00192596
0.676131
0.0278846
0.113175
-0.0329992
0.00030791
-0.0105406
-5.60619e-05
-0.0163521
-0.00258282
-0.0201399
-0.00012752
0.492875
0.00785484
-0.19765
-0.0322802
-0.264478
-0.059109
-0.00268325
1.00724
-0.0390254
0.000117898
-5.11299e-05
1.40469
0.000136024
0.0418504
0.224395
-0.0652492
0.899801
-0.0187634
-0.159342
-0.13321
-0.00146595
0.000531257
0.759795
1.18202
-0.00545153
-0.0684975
-0.0007581
1.18121
1.36606
-0.0050622
-0.0226653
0.0699552
0.0118362
-0.0880865
0.000359931
0.0371067
-0.13525
0.22749
1.02619
-0.00523262
0.10319
0.490519
0.29449
-0.162519
0.103478
1.3326
0.632829
-0.200056
1.20038
-0.00196591
1.18706
-0.0230153
1.02326
0.301435
-0.0181046
0.159044
0.00893585
0.0639894
-0.271661
-0.00231244
-0.0840172
1.04148
-0.091988
0.123227
-0.00516173
0.231658
0.619179
-0.0326524
0.259775
0.00274358
-0.0126656
-0.0858914
-0.00763097
0.00753389
-0.0317396
-0.00169499
0.00897113
1.01904
0.00857213
-0.057644
-0.203813
-0.103237
-0.235646
-0.227246
0.0154926
1.46763e-06
8.09715e-05
0.790175
-0.151782
0.000271022
0.00507798
0.557736
-0.207765
-0.0531453
0.000486545
-0.0066514
-0.168465
0.517735
-0.0264219
-0.00161298
-0.168136
-0.067194
1.4521
0.365027
0.254228
-0.161574
-2.77029e-06
-0.0239493
0.223979
-0.00119725
9.00092e-05
0.544748
0.353638
0.00234729
-0.00293402
0.0392564
-0.102308
0.0380703
0.0324637
-0.05369
0.000243244
0.92255
0.0022523
-0.00191246
-0.00072834
-0.000693059
-0.000456369
0.275383
0.00379185
-0.0098292
-0.0337489
-0.0151211
0.103766
-0.0189603
-0.14874
-0.0366646
1.10208
0.94423
-0.00161545
-0.00499741
0.343073
-0.00275638
-0.0630509
0.323507
0.480557
-0.00330316
0.0725242
0.140117
0.00498478
0.443358
-0.000277711
0.0266292
0.0652658
0.0498999
-0.0501875
0.16648
0.000327256
0.0061679
0.00115868
-9.57467e-05
-0.00460491
-0.0338725
-0.0447689
-0.100986
0.306003
0.148019
0.0322342
-0.189086
0.0480581
0.0364779
0.0465707
0.00026094
1.15391
-0.0284512
-0.011264
0.112196
1.46887
3.09536e-05
0.401783
7.54299e-05
0.0333818
-0.0221316
-0.0730383
0.541587
-0.0136726
6.60328e-05
0.689808
0.236655
-0.00180457
0.175407
1.75665e-06
0.494946
0.0304859
-0.0950382
-0.000398277
0.744518
0.0987301
-0.0706917
0.000209735
0.515009
0.887565
-0.00375387
-1.83648e-05
-0.122841
-0.0308989
0.0605772
0.10577
1.19262
0.758767
0.0018054
0.984292
0.760816
-0.00959071
-0.198372
-0.0943284
-0.0465889
-0.151706
0.604118
0.00299859
1.24101
0.492029
0.0434995
0.000450312
0.00233947
4.3081e-05
-0.00175667
-0.00928853
1.32441
9.16251e-05
0.25451
0.0917545
-0.000677851
1.25137
1.36964
0.595213
0.668078
0.252995
0.00867564
-0.000860273
-0.0371618
-3.1893e-06
-0.00360096
-0.240131
7.19709e-05
-0.00453071
1.27045
-0.0390802
-3.13346e-05
1.30022
0.00172539
-0.122418
-0.234609
-0.00428315
-0.206077
-0.000699648
0.581721
0.011609
-0.0505452
0.00670944
-0.00202255
-0.00118623
-0.000653163
-0.263947
-0.202757
0.46188
0.0100263
0.0110021
0.719026
0.000319683
1.42658
-0.00148958
-0.304104
0.00784711
0.00565498
0.166663
0.17724
7.92883e-05
-0.0134865
0.000444239
-0.00214496
0.00302026
0.268115
0.159616
0.898596
-0.0959139
-0.000264128
0.000662441
0.307206
1.0077
-0.0148299
-0.02092
1.4158
-0.00917094
-0.0695166
0.0037761
0.33059
-0.0797787
-0.0283639
0.470934
0.00469382
-0.000703062
0.00571123
0.219867
1.41806
1.14553
-0.0813194
-0.10157
-0.0208443
0.00540623
0.000147797
0.239647
0.628374
8.22729e-05
-0.0241887
-2.87741e-05
0.000564839
1.09925
3.73236e-07
-0.217135
-0.153672
-0.201864
0.225685
6.51448e-05
0.0339108
-0.019534
1.03247
0.133975
0.0170091
-0.100276
0.00228992
0.999963
0.601029
0.0393316
0.226525
1.2857
-0.209347
-0.181005
-0.00620709
-0.0232825
-0.00108737
0.114397
-9.22096e-05
0.492157
0.0100396
0.633744
-0.10975
1.92041e-06
0.204747
-0.000454567
4.43505e-05
-0.00233742
1.392
1.34292
0.945947
0.000257947
0.644125
1.18054
-0.00311705
0.0100277
-0.0280535
0.36431
1.18382
-0.0919548
0.373207
-0.00774113
-0.222866
-0.252753
1.51119
-0.0018848
1.15005
0.277484
0.555129
0.000548124
0.000811011
0.0185263
-0.029477
0.271081
-0.000100499
0.00028826
1.12599
-0.18038
0.00111996
1.17344
-0.00749993
0.000622448
1.01565
-0.0188835
-0.00473548
0.288678
0.576341
0.00117111
-0.00033172
0.0122731
-0.0133115
1.12528
1.38675
0.854792
1.47452
0.547262
-0.156633
1.2947
-0.000172637
-0.0103147
0.599419
-0.0110386
-0.00204295
-0.000259615
1.17573
0.173094
-0.00201757
1.35215
0.23683
0.826771
0.143357
-0.00886269
-0.0676262
0.541032
0.252476
1.18412
-0.0701557
-0.00246099
1.09412
1.0672
0.046822
0.904012
-0.119109
-0.0257421
-0.0292731
-0.00199145
-0.000368555
1.10192
-0.203076
0.228237
0.00382772
0.475372
-0.106089
-0.0302931
-0.00286654
-0.0103092
1.21211
-0.00250845
-0.0566382
-0.00970168
1.207
-0.0614248
0.0659268
-0.0245881
0.00479712
0.45639
-0.0733284
1.22406
0.585297
1.47309
0.690105
-0.207027
0.101121
-0.00563995
0.106896
0.179814
1.13748
1.20348
1.31878
0.935798
1.10987
-0.00102974
1.26119
-4.2444e-05
0.000294915
-0.160209
1.35369
0.15969
0.731658
0.00016308
-0.00691841
0.0812354
-0.100488
1.11771
-0.00211663
-0.0252194
0.945099
0.00354685
-0.0136718
1.43523
0.151761
-0.0922795
-0.0357746
-0.00160454
0.396245
0.583915
1.48952
0.502391
0.323412
0.0153753
-0.000681227
0.0228088
0.553446
0.0264154
0.000505336
-0.0382593
0.667264
-0.00470753
1.16251
-0.192891
1.17025
0.00531648
-0.0736159
1.28782
-0.0172945
0.339398
-0.00119775
-0.00414002
-0.222018
-0.0739083
-0.121747
-0.0314007
0.0962758
-0.0583255
-0.240511
1.17659
0.0010007
0.00264867
-0.0642092
0.376497
-0.101995
-0.196279
7.35253e-05
-0.0359709
0.153703
-0.000249078
-0.196119
0.283972
1.17421
-0.167026
1.16825
-0.0441565
0.42544
0.678413
-0.116306
0.9446
-0.00521186
0.416013
0.00707527
0.26037
0.568895
0.494529
-0.0908119
0.0204136
-0.00186926
0.504432
-0.000206187
-0.000332676
-0.00325889
0.0972555
0.0646361
0.0491682
1.0191
0.496361
1.40812
0.958091
-0.00482306
-0.108978
-0.000434532
-0.152056
-0.00321842
0.0189631
0.00221111
-0.0908026
0.878754
1.13902
-0.000848459
9.71192e-05
0.306912
3.84578e-05
-0.0293081
-0.000477868
0.438752
-0.116452
0.521013
-0.206774
0.000206084
-0.0450123
-0.129574
-0.069497
-0.0527229
-0.175615
0.258337
-0.000447948
-4.555e-05
0.00689459
-0.000340379
0.289272
0.47614
0.131034
1.32567
0.145621
-0.22224
-0.294839
-0.00128256
0.158856
-0.000303803
1.10881
0.294842
1.26065
0.000559713
-0.104904
-0.0217218
0.165952
0.710102
1.05021
-0.0239919
0.131927
-0.00605215
-0.0535685
-0.0255233
-0.0193981
0.312818
0.00526181
-0.0190169
-0.0648031
0.799417
0.244831
2.58051e-05
-0.00270455
-0.0197377
-0.00183803
0.386462
-0.00202286
-0.0501845
0.474473
0.00030977
0.719585
0.000345105
-5.23194e-06
-0.248701
-0.0332837
0.000621565
-0.0720755
0.000681697
1.31085
0.0400534
-0.0791065
1.20961
0.364552
-0.102268
1.00398
-0.00866845
-0.00581665
-0.00650198
0.2781
1.55985
-0.00459617
-0.00172504
6.19781e-05
0.0252617
-0.00383997
0.0794971
0.0197594
-0.0675504
-0.192194
0.0594708
0.0358922
-0.0589694
-0.00159786
0.11287
1.03678
-0.0055572
-0.0439548
-0.000642899
1.01725
0.181173
1.02329
0.0014903
-0.00255179
-0.0743556
1.3241
0.415679
-0.0906896
-0.00033253
0.101017
0.403704
0.00989648
0.581795
-0.156861
0.0693973
-0.225525
1.04706
-0.0437315
0.666567
-0.00991585
1.49522
-0.133975
-0.0349706
1.23246
-0.139519
0.461928
-0.244781
0.501516
0.0207365
0.157013
0.846857
0.154148
-0.158295
-0.0307418
-0.0232002
-0.01349
0.121385
-0.00408536
-0.175358
-0.0920105
0.00660305
-0.215589
-0.269107
-5.51245e-05
0.542766
-0.028848
0.58197
1.26061
0.969502
-0.176665
-0.228716
0.00162132
-0.142755
-0.0116594
1.44928
-0.113709
-0.0981924
0.95502
0.146885
-0.122306
0.717284
-0.11948
-0.00183896
-0.0372455
0.0323497
0.00239262
0.997393
-0.00844841
0.397664
0.948783
-0.0181544
0.63292
-0.204453
-0.00108859
0.0216298
0.351256
0.952681
-0.00789401
0.291441
-0.218238
0.251714
-0.0729175
0.968778
0.0856398
-0.00500889
-0.00770103
0.000670296
1.15974
-0.00759445
-0.0584315
-0.000255532
0.560054
-0.000133238
-0.121809
0.00312816
-0.105667
0.00232126
-0.0306114
0.637098
-0.0121611
0.00306035
0.00224852
-0.0128368
0.279181
-0.00019756
-1.96268e-05
-0.0268814
-0.0334101
-0.069885
0.0260262
-0.00591087
0.22842
0.235621
-0.0038684
0.00335759
-0.000521405
1.14799
-0.0132442
-0.0213865
1.03366
-0.0575376
0.978806
0.185518
1.16166
0.611947
0.342566
-0.00461232
0.0340237
0.244588
0.0820369
-0.0137474
0.000689256
0.0269712
-0.157112
-0.00290718
-0.0262446
-0.0253845
-0.0276106
-4.19391e-05
-0.010239
0.000264571
-0.000181511
0.00287356
0.865917
0.629139
-0.035126
-0.00879349
-0.148136
-0.065925
0.790342
1.05839
-0.153434
0.00672593
0.565007
0.0225381
0.00204906
-0.238035
3.71631e-06
0.347284
0.461673
-0.00196929
-0.114978
0.000756644
-0.0247526
-0.024514
0.326655
0.0786786
-0.170327
-7.64935e-05
0.0345372
0.00567929
-0.109117
0.0179498
1.1733
0.00137505
-0.012292
-0.102069
0.738542
0.856353
0.94052
0.201397
0.000230525
0.0212597
-0.00189342
-0.00431654
-0.00292783
0.280718
0.586133
-0.0382976
-0.0693742
0.868071
-0.0130391
-0.0176862
-0.187629
0.305354
-0.00294444
0.264489
-0.0443475
0.306981
0.45561
-0.189423
0.00179175
-0.00980278
0.312663
0.00442442
-0.000158434
0.556626
-0.0011821
0.98189
0.860902
-0.282014
0.799271
0.123679
-0.0113684
-0.152442
0.930777
-0.0646322
0.77213
0.156871
-0.00172813
0.112955
0.00404551
0.489679
0.472592
-0.00587604
0.304297
-0.023126
0.0171974
0.822736
-0.00402653
-0.00233508
-0.000365406
-0.0309383
0.72244
-0.0182712
-0.0389374
-0.0171068
0.531079
1.31234
0.00229523
0.573563
0.503577
-0.00183015
-0.222693
0.0872015
0.693009
-0.0299176
-0.0545774
0.804797
0.816338
-0.0824488
0.785337
-0.225391
0.913486
0.432025
-0.224727