/*--------------------------------*- C++ -*----------------------------------*\
  =========                 |
  \\      /  F ield         | OpenFOAM: The Open Source CFD Toolbox
   \\    /   O peration     | Website:  https://openfoam.org
    \\  /    A nd           | Version:  7
     \\/     M anipulation  |
\*---------------------------------------------------------------------------*/
FoamFile
{
    version     2.0;
    format      ascii;
    class       surfaceScalarField;
    location    "22";
    object      phi;
}
// * * * * * * * * * * * * * * * * * * * * * * * * * * * * * * * * * * * * * //

dimensions      [0 3 -1 0 0 0 0];

internalField   nonuniform List<scalar> 
11512
(
155.06
-511.69
356.63
-763.194
-16.4118
779.605
429.418
-392.885
-36.5335
656.215
267.001
-923.216
1553.94
-1101.25
-452.698
1197.06
-1494.92
297.858
-52.6089
499.776
-447.167
172.35
-863.36
691.01
984.048
-1652.83
668.778
-1780.7
1691.76
88.9446
-568.7
1765.76
-1172.06
1988.02
-815.966
615.25
179.378
-794.628
-22.9651
-1342.45
1365.41
226.891
-2007.59
1054.87
-391.475
-663.396
-177.141
332.202
488.708
181.903
-670.611
1189.95
-1350.18
160.234
-316.065
390.154
-74.0892
1031.84
-1337.97
306.131
1254.81
821.56
-2076.37
70.5599
-1674.04
1603.48
-509.634
-1151.88
1661.51
472.459
166.393
-638.851
-198.598
-313.092
510.848
1043.1
1680.42
-1836.52
156.097
-107.818
-1685.98
1793.8
-1602.77
666.992
935.778
-314.031
673.335
-359.304
-108.703
-103.233
211.937
1310.88
-1240.32
368.727
-1446.96
1078.23
-1125.84
1125.84
96.1044
1559.41
-1655.51
-1106.14
-496.625
672.43
-725.039
-394.063
969.145
-575.082
1253.74
-1246.88
-6.86373
-1132.75
738.683
648.22
406.65
-395.379
-46.4524
441.831
-439.266
782.097
-342.831
-985.705
985.705
1216.47
-1356.92
140.443
-502.146
1756.96
1293.26
-324.113
1703.41
-1188.41
-514.998
86.1757
-402.241
2121.41
-1165.45
-955.965
1847
-166.575
435.99
134.578
-570.568
-461.179
995.55
-534.371
-1191.91
1288.01
-584.584
1000.03
-415.441
415.644
774.306
663.953
-491.603
-450.312
614.8
-164.488
1224.99
-856.263
2364.51
-1107.65
-1256.86
1195.5
-2063.34
867.839
-1633.29
1610.32
453.153
-1625.21
-661.349
1162.4
-501.055
-693.571
379.54
1704.69
-720.639
-1132.96
-891.654
2024.61
682.406
-372.575
-309.832
709.784
583.474
-267.356
1483.83
122.054
-331.27
209.216
-288.287
760.746
-298.346
481.197
-182.851
-330.935
819.643
-327.407
-155.543
482.95
340.38
89.0382
1484.25
-452.407
-995.439
501.173
494.267
290.403
91.5469
-381.95
967.106
-351.856
-1743.47
618.346
1125.12
30.1923
-874.099
843.906
-282.349
600.527
-318.178
162.386
-1125.68
963.298
890.598
-904.804
14.2058
384.381
533.503
-917.884
-243.313
679.303
-1133.38
-497.306
1630.68
-506.156
757.61
-251.454
1351.46
-1459.27
-640.344
291.456
348.888
-485.738
-1028.11
1513.84
-556.514
-813.917
1370.43
586.952
-1007.24
420.284
-129.093
-210.818
339.911
422.273
-300.219
-1064.56
603.382
983.373
-820.987
-100.581
786.198
-685.617
-191.483
390.916
-199.433
-629.684
-365.756
-397.293
984.246
1264.11
-1264.11
-463.527
-176.816
-946.857
1575.88
-629.02
355.295
-782.714
427.419
-951.465
366.881
-960.318
-1082.63
-1527.27
362.788
1164.48
-275.723
931.938
-310.706
630.207
-319.5
-1985.16
1024.84
-1160.19
-367.076
575.858
-1522.71
1773.81
-1772.46
-1.34998
226.295
-621.524
395.229
-1479.02
976.302
502.718
300.678
217.518
-518.196
300.818
-599.163
186.944
-304.269
117.325
2037.6
-841.291
-1196.31
-563.197
167.819
637.461
853.914
-1491.37
-157.574
344.517
444.969
900.772
-1345.74
-937.456
408.119
529.337
-1072.38
1488.02
-855.597
194.248
777.083
-103.748
552.52
-277.887
-274.633
1021.51
-520.337
613.312
-1444.07
830.76
-1380.78
247.401
-537.555
255.206
-1203.39
927.665
2005.05
-1135.16
-869.887
265.5
998.607
-2149.63
917.28
1232.35
217.285
-16.343
-200.942
-175.702
345.325
-169.624
-119.514
-387.324
506.838
-482.767
155.36
305.495
-58.983
414.278
419.442
403.42
-822.862
-2050.82
1135.46
915.359
474.489
-550.726
76.2375
154.694
-232.698
78.0036
972.3
1065.3
1813.77
-254.358
732.664
-441.208
818.839
-1429.66
610.818
353.453
328.953
1072.65
-1042.46
-514.087
-250.01
764.096
494.716
-142.299
-352.416
738.311
-558.933
614.167
-805.823
191.656
520.397
1183.01
-1275.91
719.396
1031.78
-1541.42
2.09916
-1476.29
1474.19
334.419
849.156
-1183.58
625.48
256.603
-882.082
-2276.3
1175.24
1101.07
-1126.82
-1149.49
218.036
396.131
986.492
-652.073
696.956
-709.075
12.1187
-2149.54
1016.59
-92.8341
-106.602
199.436
-44.402
1818.21
-846.924
83.7304
-1054.02
-1095.61
-182.902
337.597
-677.741
214.213
-275.063
-427.636
702.699
1128.42
-1614.16
802.306
-1413.15
610.846
708.481
-441.481
1948.75
-1428.35
-346.651
-779.185
77.484
422.292
-547.366
530.955
3.69795
-578.482
574.784
589.015
-288.337
-592.61
280.754
311.856
802.973
-383.531
18.174
199.111
1219.44
-1217.34
187.173
235.1
396.245
-671.308
636.509
-1033.8
-2077.97
2077.97
-260.978
-452.977
713.955
720.452
408.686
-1129.14
596.587
180.496
405.324
397.649
-2252.46
1360.81
-951.754
-698.132
1649.89
-483.249
-720.139
-261.187
555.366
-294.179
866.292
-219.471
-646.822
-438.3
664.596
389.458
-700.164
-354.636
-147.291
501.927
-1349.25
-487.272
654.513
-1137.76
-337.216
-648.488
864.821
1499.69
234.26
-428.618
194.358
995.492
-347.272
1431.17
-817.86
460.823
-273.649
-340.869
-904.767
591.965
312.802
-352.206
-552.562
315.5
-435.014
-200.978
-130.05
331.028
-404.701
1125.15
406.212
-224.309
-349.057
1381.35
-183.126
-1198.22
-483.145
279.172
203.974
234.158
252.226
-486.384
7.61539
-813.438
609.098
-1773.84
1164.74
1521.83
-884.371
-1049.41
-429.607
-1089.02
590.116
498.906
1399.38
-423.079
954.224
-1451.53
-170.402
-220.626
391.028
-478.979
599.765
-1672.14
420.534
833.211
283.492
300.437
-583.929
500.122
625.715
1137.4
-738.236
-399.168
402.895
-215.707
-187.188
-1455.77
458.371
759.325
-1217.7
1515
-560.773
-488.863
940.039
-451.176
440.574
1212.49
-1653.06
19.6541
-525.81
-148.56
438.963
82.1332
-190.836
530.484
491.026
-657.057
56.6905
600.367
975.321
-1206.61
231.29
681.475
-276.151
483.978
-1487.04
1003.06
422.42
1732.25
-536.744
839.24
1165.81
-683.192
-1731.26
779.509
587.911
396.64
-984.551
464.517
82.7088
1795.41
-1878.11
1387.1
-388.993
-998.103
1743.52
-1787.92
-379.238
-526.119
741.173
-215.054
-519.598
192.255
302.461
-381.757
-1247.8
219.697
-788.951
-655.12
-614.948
1049.46
-434.507
-444.209
437.98
6.22902
557.211
-729.243
172.031
-265.088
78.2906
186.798
-667.313
-702.924
359.564
343.36
-954.932
1438.91
-419.457
907.538
-488.081
-2258.38
5.92192
190.102
-555.593
365.491
153.53
1227.82
-105.517
-572.224
166.986
-617.298
1528.4
-726.092
385.813
-480.879
95.0652
-129.348
129.348
643.94
341.764
1826.23
-1264.56
606.353
658.204
775.119
-36.8081
1327.19
794.225
-556.425
1375.26
291.793
308.735
292.505
-818.624
254.036
-693.302
217.043
-402.403
185.361
-246.375
600.108
-353.733
130.148
-376.523
-608.798
-581.808
1190.61
-365.221
540.365
-175.144
-1190.09
2057.68
-867.585
1327.4
-340.905
-169.621
40.5279
-1988.28
836.404
1552.82
-849.165
-703.654
2037.99
-900.732
-1137.26
734.236
593.162
-232.375
449.418
-676.567
1158.74
-482.174
-791.302
1236.27
566.797
949.803
-1772.37
822.565
-543.195
-83.161
626.356
303.944
248.576
426.257
-106.044
-320.212
735.866
-70.5814
-665.284
931.396
-559.09
-372.306
1616.02
-487.6
911.191
-1670.93
759.742
1095.29
853.455
773.048
-460.055
-312.994
-982.825
-264.056
569.06
601.199
-1170.26
-452.158
510.594
-58.4361
596.354
-358.451
-237.903
-1009.73
590.275
614.578
907.253
-439.406
996.618
1443.18
-786.062
-657.12
412.53
-954.253
541.722
-1042.73
413.042
569.82
-1058.68
470.634
-529.886
59.2522
485.976
296.121
-109.017
-20.3314
-817.279
-900.598
1717.88
195.945
206.949
-238.879
456.915
-43.902
-551.207
595.109
493.725
894.604
-1388.33
-516.511
315.533
776.124
-40.2583
860.068
-1096.09
236.018
389.833
869.762
-1426.19
-452.826
856.247
2031.31
-1318.1
-713.215
236.785
460.171
234.168
656.43
103.014
-987.911
884.897
1717.09
-1114.3
-602.79
-143.088
1938.49
-1913.7
-164.263
449.292
-563.733
114.441
-1045.63
541.623
504.011
-1686.3
496.211
-951.701
851.12
403.187
211.614
478.844
-244.584
-440.671
734.008
261.485
53.6634
787.869
-841.532
-1158.71
-873.182
2031.89
-536.273
1118.35
-582.074
-470.737
-118.125
25.2914
-1699.64
882.358
-835.957
-637.842
1473.8
-276.806
-274.724
551.53
369.121
-665.736
296.615
239.522
-623.053
315.707
221.158
-536.864
353.479
-614.666
634.943
-265.822
323.758
-479.3
678.721
412.686
-178.528
-394.863
-308.061
1244.42
-8.95422
-1235.46
1069.1
-432.591
575.864
424.161
-1794.21
856.794
937.419
513.034
554.809
-1067.84
-419.284
142.479
-270.245
1213.73
-943.482
-1555.78
1209.13
518.573
-1127.37
400.645
-14.8317
426.287
313.094
-739.381
379.956
-623.269
-28.8571
776.065
-747.208
-455.045
711.648
384.029
307.988
467.131
674.102
89.5113
-403.742
314.23
950.456
-554.691
-395.765
509.736
-1706.99
1197.25
-1167.44
1798.86
-631.413
1760.25
-1151.15
-338.881
619.634
-1184.3
1287.31
302.564
-822.345
1638.45
-816.109
-254.221
-228.924
-944.509
1510.96
1861.39
-628.927
-1232.46
-417.962
745.907
-1360.85
-69.3989
-41.717
467.974
-699.367
-363.15
-1192.63
-233.901
473.423
869.577
-579.759
192.435
-1718.97
-73.8838
1792.85
-1082.8
546.527
589.401
-1214.43
625.033
926.635
934.752
616.414
545.989
699.858
240.181
-1154.53
477.959
-418.653
422.351
641.475
-530.321
261.222
-758.272
497.05
695.427
-341.974
-249.713
146.479
-610.429
227.698
382.731
-914.71
-756.223
1111.77
-2194.4
411.078
-699.365
-323.432
-581.372
858.728
584.453
-361.462
315.01
363.548
250.877
677.29
-928.167
526.862
631.879
-545.024
190.389
364.721
-625.698
-1130.11
-803.688
1933.8
-1836.14
162.1
1137.76
-1408
1182.77
-723.193
-459.574
-518.778
1388.54
-1535.02
647.98
887.041
-154.012
-144.628
298.641
1464.89
573.101
336.753
-484.044
-502.93
-578.247
1081.18
-428.925
619.026
1626.1
-1159.72
-466.38
-789.835
336.858
561.071
389.385
-1665.24
430.523
1234.72
-208.572
524.279
820.136
805.962
211.464
-697.914
486.449
197.957
192.959
-228.782
-91.886
320.668
489.929
-4.78536
-485.144
-1656.45
607.039
-1618.74
1693.08
-74.3404
16.7243
-1635.46
1049.88
770.862
-344.575
-817.601
-225.125
-1168.08
-245.072
-319.069
699.024
-1862.05
-638.634
1239.83
212.301
783.249
-1366.17
-697.174
-480.007
614.957
-331.465
-1035.72
1385.36
-1983.88
598.523
664.002
1324.02
346.569
-1.24335
740.508
714.446
-1454.95
-660.386
350.712
309.674
325.514
-78.5848
-246.929
162.691
296.674
175.711
-472.384
-588.71
1176.62
462.627
-627.302
-472.37
-414.992
887.362
-351.715
181.313
-474.894
174.675
-315.978
-729.656
393.669
-68.1553
-584.121
996.652
341.834
-178.04
-163.794
469.691
-800.626
-666.468
442.074
-1155.51
-847.865
1210.65
-585.085
469.868
294.229
-455.5
82.9257
1057.89
-187.279
394.155
-206.876
-524.24
1574.12
-771.168
245.165
386.915
-632.08
227.666
484.712
-25.4684
-459.244
-260.957
-213.938
864.837
1134.86
582.234
-887.362
965.133
-77.7708
-206.571
52.5587
-741.488
313.852
-649.442
320.181
375.246
848.027
-1253.12
405.09
801.477
-830.334
-964.748
-569.695
1534.44
-165.447
465.884
-547.32
269.432
1364.25
787.992
-576.528
1338.57
-684.058
494.736
-693.633
-420.572
-433.864
-388.54
822.404
517.737
-869.594
-456.68
93.7338
362.946
-245.125
590.384
750.258
-339.18
-222.657
-166.458
389.115
-508.244
153.118
355.126
1496.32
81.5102
-1577.83
-768.805
1383.38
-1176.86
-475.962
555.956
-169.04
1182.74
-381.267
1107.97
508.048
715.175
-422.67
-907.095
-539.863
-1353.74
-31.8589
1013.49
-981.632
604.383
341.269
-945.653
-328.735
-234.463
-759.775
415.785
1662.18
-185.451
371.533
366.513
-738.046
-1888.08
-2158.07
1555.57
602.501
-2041.96
355.979
376.857
540.678
-917.535
-474.646
1050.51
-411.589
-674.971
1086.56
-2079.89
1424.07
655.818
602.456
-1014.04
60.5781
410.055
385.779
208.271
252.551
319.266
979.313
881.948
701.708
-337.44
-364.268
-303.888
640.072
-336.185
592.533
544.87
573.96
499.979
-1073.94
-814.443
-720.578
775.544
407.2
-423.889
720.504
-1220.41
1650.93
438.887
-1113.86
-331.53
552.687
-1415.48
914.894
500.585
-715.639
-314.543
-849.978
382.974
467.004
460.826
738.636
-1199.46
1099.02
-585.988
-405.778
678.003
-272.225
174.758
167.077
-482.121
-446.098
928.22
-251.52
559.533
-971.179
411.646
-459.821
615.491
-1723.14
436.563
690.158
-1126.72
540.734
89.4726
116.362
-2265.9
561.11
-91.2429
1484.14
1819.47
-221.952
-1597.52
-450.105
1835.46
-2040.31
1226.07
814.239
418.488
354.56
-27.5267
886.255
-1320.89
739.086
-897.113
-848.043
816.184
322.194
55.1175
-377.312
92.86
102.387
-195.247
1590.13
-849.625
-949.678
-314.429
489.003
-202.088
-286.915
399.643
361.103
253.191
361.767
-7.96907
1029.03
-1021.06
377.673
286.025
-663.697
-752.67
1863.7
-1111.03
-351.582
751.225
-1239.69
-415.828
-944.422
498.324
586.637
-797.013
210.376
786.62
-394.159
-392.461
-425.696
-461.666
452.073
1096.68
1271
-681.601
825.398
-355.708
388.009
325.946
-262.257
-218.622
-220.266
642.686
420.312
-874.868
454.557
219.755
362.511
-582.266
-436.858
857.17
776.575
-1181.28
897.198
-49.1713
-509.752
292.565
780.083
-98.1451
1422.17
1935.84
-73.5886
352.76
-323.089
412.6
-1115.47
1107.5
630.863
387.766
398.854
61.3091
427.694
279.716
499.89
-380.815
-279.571
-370.134
-74.0743
-367.407
380.59
-13.1834
-256.203
-281.352
1036.09
-1582.9
546.802
-202.026
-190.859
-387.353
673.378
-1670.21
1632.48
-984.499
270.563
-691.135
600.227
1252.9
-1853.13
627.07
1005.41
315.346
-1151.12
710.445
-290.065
-293.864
1400.51
-1480.91
840.854
640.058
417.847
-640.099
222.251
-369.495
491.521
-122.027
374.374
115.555
1771.36
447.389
-249.432
574.355
-1748.2
1173.84
-92.6538
401.186
351.997
349.711
-461.741
-632.973
1094.71
436.934
-889.76
-659.522
926.803
588.194
-135.375
-129.713
-453.595
-421.274
-318.336
-849.743
1225.52
-1225.52
-98.8116
-1608.33
1707.15
300.728
295.626
-940.063
-573.381
1513.44
-417.573
991.533
-618.163
-1038.29
689.369
407.751
-1097.12
492.641
-168.883
588.289
1248.74
-1837.03
-1050.02
2114.75
-1064.73
-383.981
-309.59
-493.991
830.849
-1794.2
1641.06
153.142
1794.2
-1643.13
-151.07
-247.839
529.228
-281.389
-553.523
1661.5
1589.7
-2005.53
1102.41
-287.354
-263.303
550.656
252.766
-584.296
-719.555
295.666
1378.32
652.991
592.848
501.454
-1094.3
294.841
420.333
896.108
515.946
-1412.05
544.709
-1047.64
1617.65
-581.556
-775.158
-372.801
-121.723
494.524
-505.022
1243.66
-766.465
332.991
346.313
366.685
268.658
-635.343
619.451
856.557
-620.539
281.281
683.852
-135.375
-322.299
-239.259
561.558
1196.07
-675.049
629.709
478.033
-1107.74
-997.528
997.528
-398.676
786.441
-297.622
-486.565
784.186
495.04
465.414
-960.454
398.563
-696.184
633.196
-894.291
261.095
-379.375
-512.086
1104.93
-681.905
-728.535
1410.44
-393.304
952.836
-1592.8
692.072
48.3311
-428.313
379.982
-507.132
721.345
262.32
337.788
177.729
314.911
-525.811
235.745
1920.59
-2018.74
283.44
-721.741
456.562
-846.439
389.877
-907.163
1435.77
-528.603
-443.382
-501.04
618.054
1152.25
-1770.3
-737.87
353.89
-472.873
1065.41
-786.838
1068.12
-343.957
-642.768
-486.224
740.26
473.142
-306.749
931.974
-309.362
-198.882
1638.45
-1860.4
-364.185
-606.994
-341.715
494.833
267.452
-598.917
-192.581
1083.28
-790.712
223.953
-295.155
-290.134
585.289
412.01
-900.81
488.8
-480.214
-456.348
-428.618
-343.432
588.458
-245.026
-462.794
-429.166
-332.425
-204.439
-390.82
659.478
-450.367
776.313
-1103.62
641.882
-1410.68
574.722
-28.1402
-1884.01
1912.15
588.335
-462.889
1239.96
-693.432
50.5036
-50.5036
688.526
-443.205
1038.05
-1656.21
-1186.36
-971.709
303.543
336.53
900.725
737.728
-495.608
-318.418
814.025
1701.56
-1729.7
-446.285
362.751
226.264
1168.45
-538.742
-966.531
1588.66
-622.126
460.028
-251.757
384.571
396.944
-781.515
538.02
492.169
-1030.19
-335.033
668.023
-39.1552
1959.75
1613.91
1018.06
-1744.15
747.309
-1212
464.686
-509.317
1405.43
860.94
-1379.72
-563.905
276.552
814.765
-418.125
572.614
-1221.32
648.707
-656.509
-1244.7
-714.082
1958.78
-212.692
563.762
-351.07
-183.772
297.883
-510.574
334.319
386.556
-720.874
-1520.1
779.972
740.126
902.953
-1472.65
851.698
-443.578
228.392
-376.951
-596.733
274.434
-693.901
-721.579
718.872
520.807
-1239.68
403.718
-209.709
-194.008
572.018
-987.459
-572.541
-428.891
742.743
-852.724
-1187.58
-1477.12
515.557
961.568
9.20396
-642.14
351.641
290.499
-1343.58
1075.36
268.216
-633.86
-469.762
-667.329
901.498
415.596
-211.959
-203.638
525.076
1004.77
-1529.85
1003.43
-340.875
115.914
224.96
-412.443
691.158
-407.718
-524.994
183.279
240.887
-1558.98
551.288
547.735
-763.268
256.137
164.407
-473.769
387.078
-843.426
1999.37
-1222.66
-776.704
413.165
-684.479
271.314
170.287
331.329
130.367
-461.696
-575.674
193.715
253.674
-713.705
1411.93
-698.225
436.127
486.122
-1201.76
273.025
1918.34
-1041.85
-876.49
736.763
-540.537
197.104
1427.47
-987.375
-440.096
351.011
-794.216
-634.857
1769.72
632.674
638.328
331.849
-9.65507
285.38
-1165.35
1770.13
-604.777
-1807.07
840.538
1778.64
-1705.18
-73.4547
-679.024
260.371
579.319
-726.401
240.177
1442.55
-581.61
407.457
448.79
-1907.1
1456.99
559.166
-426.413
-132.753
222.368
-554.793
-279.832
-190.905
-363.992
715.988
-589.647
216.845
618.972
572.421
-1191.39
1141.93
-1999.6
857.666
174.608
327.319
-1746.25
1707.1
332.133
-754.803
-168.757
397.149
768.541
701.069
-1469.61
1093.77
-1102.72
547.214
-1133.2
-651.56
263.693
387.867
531.109
-303.411
-629.75
-1026.46
311.765
-740.931
-933.572
194.267
171.018
232.7
390.923
310.144
-701.067
-641.821
-857.335
-1004.72
511.155
-1086.83
-289.816
493.789
554.229
656.424
-136.802
-32.8191
-412.342
727.688
287.183
-1231.25
589.428
1341.83
-573.288
463.745
-1036.29
-204.957
171.117
388.049
1048.62
569.033
-1727.59
1628.78
1649.78
-593.346
-1056.43
1954.6
-1942.44
-12.1512
210.499
-533.588
-346.744
570.696
-775.606
-325.68
-353.344
1020.03
721.404
-1527.97
806.567
361.488
-25.9262
1664.37
-1104.14
429.088
-1260.13
484.973
-60.9855
1557.31
1233.11
-485.801
-311.938
-28.9369
-280.137
755.537
-2000.24
-733.339
357.536
-551.99
194.454
69.5806
-256.86
1169.12
689.459
-1858.58
-618.32
191.907
965.754
-1539.14
-215.396
660.988
-445.592
887.602
1112.4
-753.805
1386.48
613.394
-486.443
-126.951
-361.968
1202.82
1062.19
-1981.96
919.776
-1202.89
564.253
1530.5
-603.696
-380.032
-164.992
-1274.79
593.189
1195
-69.8806
972.262
796.887
-1769.15
-222.222
596.731
-1584.37
987.642
503.702
938.806
-1442.51
631.046
608.787
392.371
-1132.63
401.172
1136.95
577.878
-311.696
-266.182
-1215.06
-1800.21
-3.60916
-1723.98
-220.019
-420.08
1651.07
-642.525
-1008.55
-504.956
1121.37
-1353.12
656.765
696.353
-1397.58
1479.09
-1366.02
612.218
1562.48
-401.199
-582.234
202.202
-1500.51
240.081
179.67
234.952
378.442
434.356
415.034
-849.39
524.077
-961.963
924.911
-1485.68
-710.605
247.956
462.648
-1068.59
479.882
-481.161
888.618
717.784
33.2383
-539.38
188.31
-907.325
-1351.06
-738.932
362.904
376.028
419.271
-745.878
326.607
-422.542
-168.093
-540.981
736.362
1581.54
-609.276
829.552
760.581
1372.06
-856.118
-996.154
-588.219
-823.169
440.317
382.851
-1066.45
-663.322
315.987
347.334
-1417
-269.298
-816.335
411.829
404.506
-664.097
400.63
263.467
-693.629
285.911
426.388
501.831
401.756
455.414
491.496
395.866
611.703
-993.46
687.997
488.624
454.282
348.442
-802.724
1672.26
-1104.77
-567.496
-521.077
-286.077
-1057.5
467.837
354.567
422.1
610.465
-1032.56
-1418
775.476
-552.779
1177.81
366.535
-69.8614
425.002
-893.155
468.153
-1904.97
296.636
440.061
-711.305
271.244
-191.352
419.141
-227.789
-683.493
320.529
362.964
-696.592
332.324
381.645
404.796
630.345
-1047.92
775.371
679.396
-1454.77
451.339
643.375
325.526
340.972
-666.498
418.981
332.244
604.386
675.807
420.875
596.966
-1042.23
445.261
-1702.48
1182.62
519.857
1739.6
-556.59
640.068
-1181.06
540.99
-613.092
338.367
451.292
-964.123
512.831
762.466
-449.372
358.677
357.311
572.267
-936.452
669.482
-1290.12
620.64
387.956
755.348
-1260.37
790.96
525.09
-1316.05
487.435
425.493
-912.929
-518.039
-959.086
-315.082
649.4
360.626
551.648
-912.274
340.688
327.335
-517.21
1991.4
440.939
-845.843
404.905
-942.436
-829.932
-773.433
380.972
-1244.33
457.491
-1772.42
1643.13
129.29
1790.68
-1641.06
-149.622
-809.302
-610.41
276.377
334.033
-1778.64
2005.53
554.781
813.414
-1368.19
454.076
736.53
709.006
394.39
-1103.4
-62.1093
1660.51
-611.89
402.696
837.263
-589.294
311.516
277.777
-389.221
-239.033
413.791
-232.226
449.744
271.146
-617.352
346.206
274.062
-592.24
-293.831
455.987
-1063.62
607.635
554.001
1118.26
372.456
611.79
235.848
203.22
-439.068
1651.7
-930.295
1737.99
-1562.17
-175.819
-336.348
-849.77
428.496
871.41
-1086.81
-626.816
290.631
-1115.87
1669.87
-1605.84
-71.6869
1677.53
-350.439
-359.779
-380.605
551.439
617.012
-518.781
-31.9448
-543.015
517.396
-288.873
-228.523
1774.19
-1322.11
-639.606
309.174
330.431
417.504
369.82
755.332
-303.076
-410.528
-1790.68
1729.7
473.12
-1132.74
659.618
-40.488
1669.26
584.823
474.24
-1059.06
82.2169
1174.81
-1493.15
-7.64491
-1897.33
236.007
-587.704
294.866
292.837
-935.593
612.161
-926.73
483.348
-1161.3
692.526
468.775
380.482
283.177
-778.785
-315.312
1252.96
910.069
720.614
-1220.2
476.079
744.124
509.304
720.571
-1229.87
-363.172
-255.09
426.108
-989.971
452.298
537.673
21.3464
-1928.44
1112.04
-478.847
-502.682
574.866
-1417.52
842.658
-432.059
821.936
-417.48
504.553
-1002.47
1867.31
422.289
-189.589
168.528
-176.472
-252.663
429.135
1941.22
-517.15
-1722.73
1081.68
-514.734
275.702
-1044.09
569.447
-319.215
562.297
927.781
-1490.08
-1114.68
447.348
-20.7849
-1997.95
1717.67
-655.481
-521.456
475.465
-1225.63
750.166
195.86
219.737
-242.981
789.177
721.778
850.148
758.879
-410.437
1116.49
-502.685
487.801
-197.673
-290.128
-1975.68
-701.483
-316.558
-416.912
-1.94637
418.859
468.256
-274.54
581.766
1069.93
-819.029
953.123
1280.44
-437.942
-205.04
-250.605
455.644
949.978
-908.352
-342.193
-1098.87
629.107
1595.71
-815.738
555.221
958.223
-398.104
757.983
-359.878
1163.08
-251.989
326.822
1388.28
-724.533
-229.719
464.871
-1235.57
770.694
-990.976
-147.041
1138.02
455.454
-984.778
529.324
189.053
250.235
327.643
787.923
-110.633
880.416
-438.598
1187.43
-793.044
569.335
-1506.64
937.303
-1244.71
1844.94
-439.117
-1546.04
901.743
-1441.61
-320.071
-419.31
1498.26
-1564.85
808.623
1530.02
208.83
278.971
-360.587
-1772.42
-309.241
-1020.23
1602
-1799.86
1799.86
1589.7
-1034.02
-654.713
-343.402
372.392
619.141
-367.706
-368.712
-1428.08
918.766
1151.85
618.28
1220.94
1832.59
-1244.3
-622.462
270.583
1702.47
-1967.01
264.547
836.806
-1303.19
1585.39
-579.977
802.906
315.441
-339.01
571.406
817.133
637.177
1394.71
-227.135
-458.577
-361.928
403.74
-269.162
486.546
757.112
-301.508
-160.188
-331.504
584.343
-252.839
26.2619
-384.713
1134.19
-1765.6
-454.297
-492.415
-583.024
889.368
706.342
-1640.53
926.822
-465.8
-630.465
-528.776
1288.1
347.422
1768.47
-1747.12
-1701.56
1942.44
-1598.92
858.821
740.095
-369.42
-1843.91
943.317
600.391
842.159
-413.374
1842.35
-700.42
-411.627
682.085
449.508
-1131.59
-1131.03
458.99
774.121
-1658.29
489.278
922.652
179.052
-401.119
222.066
-1612.53
-395.061
-428.343
1010.2
-685.362
1483
-968.014
1855.62
245.817
-548.708
511.033
-302.202
490.908
914.517
560.657
1001.83
-477.139
-441.812
591.692
906.571
-1378.05
-38.9528
1610.56
-849.977
537.265
992.757
-1517.23
-1112.55
1785.75
-1242.96
-542.783
1241.63
-330.004
-911.626
-194.509
461.949
-267.44
-471.335
-256.493
442.054
-185.561
153.19
-408.28
1745.67
-1749.28
-462.083
-549.456
-923.191
443.941
-204.633
-239.308
513.625
-455.086
-358.76
-321.032
679.791
-967.334
414.772
-1195.96
691.009
424.869
-644.179
-448.992
1611.28
-873.555
545.632
-472.075
-586.85
-476.772
57.1758
-54.3336
-2.84211
-1122.48
429.052
-684.104
-1059.79
1743.9
-604.847
-1463.28
734.745
579.348
-1638.88
1059.53
-385.13
-485.849
161.986
537.872
-1294.57
765.796
556.723
1028.66
-2179.92
1015.68
1164.23
-360.526
71.9992
-64.3754
-7.62384
1518.88
-383.246
463.66
1162.63
600.067
930.432
584.186
543.023
-1127.21
173.445
-443.038
-1705.18
272.707
1150.69
-622.048
535.255
1038.55
-1573.81
1118.3
-1685.8
181.985
715.213
553.611
-895.804
-1108.01
-132.604
349.163
-216.559
-563.201
-430.787
-654.206
-495.562
252.581
-1663.46
965.329
-490.856
215.818
-405.407
550.561
-314.554
-610.793
1231.46
-1298.98
928.988
369.992
-1031.99
-364.772
-772.835
-841.936
1731.3
-491.234
1798.76
-1591.27
-207.489
-1596.93
1042.09
554.842
-740.9
-168.762
307.442
-138.68
-598.205
394.419
285.864
-680.282
-539.799
1008.61
651.513
-360.882
-1658.74
1073.66
588.859
1129.41
-1718.27
-413.885
-305.832
-377.661
-761.236
-470.428
-340.227
517.957
1599.62
-1020.28
-796.788
1538.32
682.889
-320.138
745.912
1175.59
-1921.5
287.083
314.618
-501.684
-1984.65
1767.04
217.61
763.155
-488.211
-274.944
548.357
1085.36
-1633.72
57.1758
-1731.62
-239.228
1794.8
-1619.29
1100.94
518.347
-1735.7
4.07467
-537.349
71.9992
1746.25
-1767.04
964.81
642.772
-1607.58
274.67
-166.562
-108.109
-409.758
-283.871
63.0636
47.0763
-215.838
-447.913
-446.378
-422.188
230.836
1547.47
391.886
-231.621
-432.475
435.91
-182.237
330.401
1549.48
1101.18
-219.317
-881.861
-1131.54
1749.59
-1775.17
1091.07
-727.479
-1047.7
-1293.22
1889.4
-596.183
1183.67
-1817.24
633.566
174.838
-901.458
1719.47
44.6521
-1764.12
-506.788
-1107.37
-1745.67
-1010.72
568.905
1042.69
607.666
1159.68
-1767.35
295.898
-464.938
727.439
-395.115
375.09
949.801
700.086
-399.084
-643.143
600.437
1097.63
-1698.06
-408.043
-384.435
792.478
436.38
-1707.1
1562.17
144.925
602.557
-1075.43
559.986
1109.88
-1596.54
1016.57
-248.374
246.162
324.535
1954.6
423.466
-90.4148
1014.13
742.617
-1756.75
-716.59
1109.93
-1597.53
172.642
-586.555
192.583
243.328
-661.412
-582.916
600.324
1060.18
-719.885
-281.725
-1408.07
695.693
712.375
-404.065
809.928
97.9134
-907.842
578.476
-140.949
1597.94
-226.329
272.611
-789.37
-1984.65
1707.16
1018.3
78.2906
312.563
449.903
-956.605
-1019.08
-1810.43
658.112
1737.08
527.921
-489.136
1246.25
1114.87
-437.088
1056.23
-1008.48
510.231
498.251
719.837
1075.68
-1795.52
503.026
493.626
-1533.96
-769.87
31.6344
805.921
-424.949
-909.525
406.843
-554.504
-825.213
194.358
-594.441
1437.1
1082.79
168.425
180.738
-568.272
1660.93
-793.037
1568.41
-1771.92
592.205
1179.72
563.12
-910.392
-1779.04
1967.01
-187.979
1760.05
187.409
-558.912
157.496
-110.42
-496.647
1246.81
583.689
1155.91
-502.516
450.812
885.312
-478.662
-798.098
435.129
362.969
1457.6
1117.79
-535.46
1462.28
-504.788
-464.428
969.215
-620.647
506.46
-1229.65
1737.99
1882.4
-706.809
1629.41
-664.603
-1277.37
737.574
-579.929
136.177
-242.779
398.796
-205.837
-535.162
-1275.84
1916.37
-640.535
1207.57
-567.502
1146.19
-1702.78
1732.77
-591.626
-560.418
-566.123
1763.37
-326.698
-709.501
-489.818
1260.51
-1727.45
-1905.53
629.691
334.855
-981.677
174.614
222.16
-1762.23
1231.36
530.877
1188.68
571.363
-525.702
-483.205
1227.33
183.045
236.097
604.4
1278
-553.575
-1266.59
1820.16
-1052.63
1049.71
868.63
-208.975
-1702.47
1747.12
-527.194
1449.85
-1779.04
-380.307
14.5509
365.756
-276.607
604.894
-328.286
89.1505
502.815
805.954
-386.683
1284.59
1299.07
-427.658
879.401
-450.905
1864.27
-680.603
1627.52
-1768.47
-423.685
-756.168
301.366
454.802
-575.7
-581.067
65.1989
-1048.02
-1011.64
-688.742
1700.38
-960.78
-1219.14
155.493
-418.796
-666.555
724.203
1196.11
668.166
1450.28
-608.12
1678.98
1355.67
-589.872
-507.877
205.675
-520.566
1435.08
1275.9
-580.205
-961.893
921.107
53.7848
-974.892
586.745
-523.161
1441.93
1536.78
-606.352
-57.6471
57.6471
-607.209
1666.74
1276.38
-502.261
1159.38
-59.3505
1853.15
-382.165
1531.27
-606.358
-525.639
1384.46
-672.474
1253.93
-581.457
1597.45
-609.812
758.211
595.661
-1353.87
-654.629
294.051
493.941
617.775
-2002.63
-1006.08
1627.52
57.673
-57.673
-76.7969
402.626
449.071
391.254
-16.8799
-303.869
912.972
-525.015
-437.572
840.198
-253.863
641.73
-421.891
1557.35
-461.269
-892.472
185.301
214.973
-400.274
617.812
1277.99
-1895.81
955.996
-472.648
-54.3336
129.236
-1991.58
1862.34
-467.415
193.766
1213.37
-457.122
-756.251
-319.893
-589.632
-505.185
-64.3754
-484.304
255.781
1192.39
-575.379
237.416
-396.245
158.829
-7.19963
-101.397
779.185
-677.788
16.4767
-386.611
-604.14
-82.9939
82.9939
-1258.7
2001.32
-1294.03
-229.077
-1826.84
235.569
-1048.98
-997.192
-192.966
-1683.02
726.416
1259
-1973.09
383.972
319.382
-703.354
-1894.87
1263.26
631.615
-131.869
131.869
-983.048
-10.9947
-1913.7
-574.756
1693.02
-696.89
1679.81
-619.626
-188.293
-1709.03
-604.302
-443.605
-612.239
-90.7027
90.7027
-1575.4
200.09
1375.31
158.677
191.22
-349.896
573.156
528.022
1027.08
-489.411
1793.08
791.529
-202.024
194.4
535.096
1746.58
-612.394
-569.257
1679.14
463.165
1859.03
-662.925
-1852.92
-1982.56
-664.987
-95.9526
95.9526
-604.899
242.972
-693.396
1049.59
-480.147
-1101.2
-292.739
998.607
1895.81
1676.45
-1676.45
-281.362
761.658
1805.68
611.508
1304.86
134.278
140.392
605.077
587.967
997.628
-997.628
231.346
-361.906
-445.363
411.753
980.358
-470.127
-657.946
-1157.58
1749.79
291.734
-1669.41
631.124
-295.685
483.094
1788.99
-609.27
-168.091
-425.734
396.119
740.836
1783.07
-631.223
-527.515
-774.009
2006.65
-891.51
-1115.14
1685.34
-633.007
1252.64
-1870.15
617.513
350.333
-899.042
-181.891
-25.2655
1130.04
-500.933
127.898
640.043
-1666.51
456.559
622.881
-1852.92
-600.031
1831.39
908.273
-1190.23
1804.93
-614.701
1827.94
-592.084
-1235.86
457.326
935.269
-1749.28
947.542
-1477.63
235.442
1242.19
-855.956
-1283.37
-171.105
39.8848
131.22
598.759
280.848
1052.54
-460.851
872.9
-412.049
844.685
758.102
-1602.79
661.339
1095.62
-5.08044
-466.059
471.14
-1791.33
743.633
713.394
101.738
-1149.07
1983.94
-691.985
-1291.95
-554.033
1709.94
846.699
989.774
-1836.47
1257.24
701.541
-413.079
733.608
850.514
1059.16
-603.705
1805.68
644.595
1817.74
-1213.02
-604.717
-377.66
-337.817
715.478
110.316
-1108.42
1703.26
-557.071
-821.636
821.636
1278.19
611.211
1384.33
215.295
-567.202
291.584
-200.037
717.856
1141.17
499.05
-316.005
-893.843
-591.842
1745.21
-1745.21
562.736
-562.736
1011.28
1049.64
-2060.91
1883.19
-630.547
-597.941
837.794
-970.12
-1077.37
1024.99
710.129
-1735.12
-109.017
-364.736
-649.308
-828.377
2091.64
-1275.53
-630.001
1026.59
998.019
1320.59
663.342
338.219
1036.53
234.907
345.103
625.715
1800.51
-1800.51
682.646
26.3054
-190.1
-1020.86
-559.823
1719.21
988.288
1011.71
-1878.35
-232.86
-371.442