/*--------------------------------*- C++ -*----------------------------------*\
  =========                 |
  \\      /  F ield         | OpenFOAM: The Open Source CFD Toolbox
   \\    /   O peration     | Website:  https://openfoam.org
    \\  /    A nd           | Version:  7
     \\/     M anipulation  |
\*---------------------------------------------------------------------------*/
FoamFile
{
    version     2.0;
    format      ascii;
    class       volVectorField;
    location    "12";
    object      U;
}
// * * * * * * * * * * * * * * * * * * * * * * * * * * * * * * * * * * * * * //

dimensions      [0 1 -1 0 0 0 0];

internalField   nonuniform List<vector> 
115546
(
(1.01866 -0.0304548 -1.29601e-22)
(0.999991 -2.05512e-07 -1.31431e-24)
(0.991448 -0.00702005 5.05437e-22)
(0.997868 -0.0022905 -8.931e-23)
(1.00105 -0.00257872 1.68919e-23)
(0.999433 -0.00085048 2.86165e-23)
(1.00788 0.0738002 -1.5343e-20)
(1.02768 -0.0591928 3.10248e-22)
(0.999816 -0.000270283 -1.47448e-24)
(0.99999 -1.111e-07 2.75825e-25)
(0.999858 -1.28714e-05 9.93097e-24)
(1.00009 -7.20712e-05 5.63932e-24)
(0.999147 -0.0027881 -2.98424e-23)
(0.951751 -0.00315561 -1.86944e-21)
(0.999814 -0.000277458 1.31404e-23)
(0.957473 -0.0143382 -4.20885e-21)
(0.99992 -0.000205666 5.23805e-24)
(0.999778 -0.0001434 -1.60186e-23)
(0.989382 0.0708396 1.83093e-20)
(1.00108 -0.00261091 7.56495e-23)
(1.0312 -0.0603126 2.61627e-21)
(0.996618 -0.000102541 -4.24499e-23)
(0.999736 -0.000194246 -1.56492e-23)
(0.996702 -0.00331854 -5.93141e-23)
(0.940187 0.0198981 1.66021e-20)
(1.08155 0.0165183 6.5922e-21)
(1.22264 0.0186478 -3.01649e-22)
(1.01123 -0.00275022 1.83744e-21)
(0.999988 -3.10167e-05 6.16677e-25)
(1.00807 0.125358 -1.78263e-20)
(0.999919 -2.79677e-05 6.49343e-24)
(1.03264 0.00622303 1.56826e-21)
(1.00443 -0.0069079 -5.49711e-23)
(0.991277 -0.00370467 -4.76057e-22)
(0.932346 0.054561 7.56079e-21)
(0.998826 -0.000712565 1.81435e-22)
(1.01101 0.0819923 2.64438e-21)
(0.999919 -0.000210889 -2.27445e-24)
(1.17299 -0.134562 4.46382e-22)
(1.01653 0.042422 2.47949e-20)
(1.03302 0.00657691 -3.05882e-21)
(0.999775 -0.000148968 -3.10776e-24)
(0.989198 -0.012783 -9.44883e-22)
(0.998831 -0.000690308 -1.29126e-22)
(0.977777 -0.0339701 -1.44644e-22)
(0.952029 -0.0028383 1.94802e-21)
(1.00362 -0.00843169 3.34998e-22)
(1.00342 -0.000427732 1.68847e-22)
(1.00004 -0.00414073 -2.25557e-24)
(1.00009 -8.01733e-06 -2.6959e-23)
(1.00001 -4.39032e-07 -1.68661e-25)
(0.997902 -9.51333e-05 1.40222e-22)
(1.02423 0.00735182 5.01077e-21)
(0.999992 -3.0842e-07 -2.12453e-25)
(0.998809 -0.00490045 1.19744e-22)
(1.02398 0.00756648 -1.29488e-21)
(1.01928 0.000346299 3.58399e-21)
(0.975294 -0.0237099 -5.18271e-22)
(1.16501 0.022 2.34332e-21)
(0.993424 -0.0086825 1.06589e-21)
(0.999955 -0.000115354 -2.07497e-24)
(0.996647 -0.00351407 5.14176e-23)
(0.999565 -2.51952e-05 -2.88214e-23)
(0.988806 -0.00609401 1.38917e-22)
(0.999959 -2.97912e-05 -5.27635e-24)
(1.00057 -4.90442e-05 -8.38693e-24)
(0.999285 -0.00255175 1.23736e-22)
(1.02483 -0.00290092 3.1174e-21)
(1.24442 0.050607 9.71558e-22)
(1.01954 0.000136509 1.4817e-21)
(1.04423 0.0813412 7.17841e-21)
(1.16077 0.0712836 -4.8575e-21)
(1.01662 0.0417917 1.0993e-20)
(0.973457 -0.00221273 -3.57882e-22)
(1.01127 -0.0375653 -2.5738e-22)
(0.982402 -0.00574193 -1.94794e-22)
(1.10769 -0.0242176 -7.33756e-22)
(0.999546 -0.00147927 -4.64652e-23)
(0.997751 0.0504456 -5.89903e-21)
(1.07839 -0.00657886 1.70291e-22)
(1.07895 -0.00535461 1.02312e-21)
(0.999968 -1.52045e-06 1.80564e-25)
(0.977805 -0.0739702 2.07355e-21)
(1.01076 -0.000643709 -8.23096e-22)
(0.9979 -0.000604558 8.61785e-23)
(1.00009 -6.9995e-05 5.61284e-24)
(0.988625 -0.00955305 -6.37109e-22)
(0.999992 -1.11953e-05 -7.70641e-26)
(0.980668 -0.00605636 -8.80159e-24)
(0.999993 -1.86774e-05 8.53042e-26)
(1.18531 -0.0811249 2.46151e-22)
(0.993091 -0.00370123 2.93264e-22)
(0.999987 -3.11045e-05 -8.87812e-25)
(0.999117 -0.000636815 1.34553e-22)
(0.999722 -0.000182767 -2.66464e-23)
(1.0002 -2.95863e-05 9.75745e-24)
(0.999788 -9.50074e-06 -5.17085e-24)
(0.978345 -0.0735972 1.4796e-22)
(1.10922 -0.0784353 2.64062e-22)
(0.980766 -0.00588227 -3.11207e-22)
(0.999954 -0.000118117 2.21226e-24)
(1.01384 -0.00480718 -1.89067e-21)
(1.00151 -0.00762924 -7.44532e-23)
(1.00156 -0.000103195 -7.66837e-25)
(1.04346 0.0800684 4.76575e-21)
(1.00251 -0.0537402 1.47814e-21)
(1.00922 0.043775 -7.23399e-21)
(0.983329 -0.0471424 1.57025e-21)
(0.996172 -0.01754 1.54044e-22)
(0.99999 -3.6169e-05 3.5981e-26)
(1.09291 -0.000314534 -2.36821e-21)
(0.99979 -1.23966e-05 2.05227e-24)
(1.10879 -0.0228442 4.64295e-22)
(0.997278 -0.0125034 -6.84207e-22)
(0.860813 0.0477807 -3.3797e-21)
(0.999739 -0.00745919 -2.40769e-22)
(0.999857 -1.0838e-05 -1.83458e-23)
(1.05534 0.0816217 -8.92666e-21)
(1.00002 -9.91841e-06 5.72862e-25)
(1.1614 0.068632 3.4053e-21)
(1.05494 0.0833749 1.2824e-20)
(0.957055 -0.0146269 1.71431e-21)
(0.991713 -0.00739504 4.35273e-22)
(1.13723 0.00404972 1.48884e-21)
(0.999992 -7.63656e-07 -2.57936e-25)
(1.00822 0.124091 2.0565e-20)
(0.996666 -0.00360999 -5.42225e-23)
(0.925741 0.115191 -1.02169e-20)
(0.998945 -6.6651e-05 2.56516e-24)
(1.01709 -0.000427475 -2.34725e-21)
(1.02742 -0.0373645 1.64465e-24)
(1.00014 -1.87794e-05 8.33476e-24)
(1.07605 0.0920239 -5.61294e-21)
(1.00009 -6.63232e-05 -1.70431e-23)
(1.00002 -8.49779e-06 2.85236e-25)
(0.988673 0.0823343 2.94433e-20)
(0.947155 0.0526534 -4.58368e-21)
(1.00442 -0.00703583 -6.42444e-23)
(0.998881 -0.00493885 -1.69794e-22)
(0.996684 -0.00347041 5.06759e-22)
(1.10589 0.160557 6.17593e-21)
(0.999944 -0.00712003 -7.92215e-23)
(1.00003 -2.41022e-06 -1.03567e-23)
(1.02953 0.0105205 6.49577e-22)
(1.02785 -0.0365038 2.40243e-22)
(1.00001 -4.83977e-07 1.67868e-25)
(1.00714 -0.00986377 -7.65914e-25)
(0.996618 -0.00365858 -1.64756e-22)
(1.02463 -0.00266801 -4.81283e-21)
(1.00051 -0.00126244 -6.15247e-23)
(1.00191 -0.0531779 -1.11676e-21)
(0.977412 -0.03397 1.07037e-21)
(0.993137 -0.00360849 1.87843e-22)
(0.999992 -7.26511e-07 1.16982e-25)
(0.997932 -8.94972e-05 8.21692e-23)
(1.00505 -0.00554967 4.11573e-22)
(0.99999 -3.7054e-05 -1.17584e-25)
(1.07434 -0.0230101 2.30094e-21)
(0.983338 -0.000415241 -1.96489e-23)
(1.00052 -0.0729035 -8.71419e-22)
(0.982599 -0.00589867 1.05991e-21)
(1.00705 -0.00970009 4.4697e-22)
(0.999573 -2.33765e-05 -2.11615e-23)
(0.997547 -0.038821 1.35379e-22)
(0.99588 -0.0106472 -3.41918e-22)
(0.999447 -0.000326799 -8.64003e-23)
(1.01813 -0.00886252 9.62453e-22)
(0.992737 -0.0208971 -8.18255e-23)
(1.07562 -0.0234104 -3.21894e-21)
(0.995327 -0.0106378 4.17368e-22)
(0.994051 -0.00928249 7.64581e-22)
(1.00364 -0.00828749 -1.88652e-22)
(1.1945 -0.0912606 1.86138e-21)
(0.953619 -0.0114839 -3.0257e-21)
(0.997276 -0.0333479 8.83177e-23)
(1.021 -0.00247812 -1.1428e-22)
(0.953698 -0.0108151 6.69635e-22)
(0.998654 -0.0016602 1.02288e-22)
(1.00517 -0.00998564 8.46156e-22)
(1.00002 -0.00407142 -8.98692e-24)
(1.00869 -0.00675781 1.29278e-22)
(1.01171 -0.0372846 -2.97728e-22)
(0.983423 0.0740508 -8.15536e-21)
(1.02656 0.0102389 2.88782e-21)
(1.00861 0.04361 1.70625e-20)
(0.999766 -0.000513073 -1.74806e-24)
(0.997605 -0.00192057 1.11131e-22)
(1.00004 0.000818341 -3.28014e-21)
(1.01835 -0.0155734 2.00119e-21)
(1.18278 -0.0816194 -1.34904e-21)
(0.998697 -0.00166103 3.13797e-23)
(1.00001 -0.0067664 5.57868e-23)
(0.992812 0.0412573 -1.19172e-20)
(0.985722 -0.0124179 1.90283e-21)
(1.08023 0.0165727 -8.76439e-21)
(0.992463 -0.0627284 -1.04239e-21)
(0.953339 -0.010531 -2.00509e-22)
(0.99374 -0.000164654 -5.03021e-22)
(0.983837 -0.010091 -1.38878e-21)
(1.00309 -0.024636 -2.8226e-22)
(1.02017 0.0105087 3.85639e-21)
(1.00158 0.0552745 9.89504e-21)
(1.01001 -0.00667011 3.7772e-22)
(0.999992 -1.58986e-05 -5.48406e-25)
(0.997691 -0.00164322 9.14756e-24)
(0.9797 -0.0111707 -7.36462e-22)
(0.999586 -0.000569385 -4.23894e-23)
(0.99996 -3.00302e-05 4.0701e-24)
(1.01895 -0.00481549 -5.85379e-22)
(1.00879 -0.0435193 2.27617e-21)
(0.953397 -0.0098848 1.67637e-21)
(1.01014 0.043374 -4.44419e-21)
(0.94237 0.020995 -1.22953e-20)
(0.999994 -1.88458e-05 6.91896e-27)
(0.999403 -0.0183504 -7.04252e-22)
(0.985587 -0.0125822 -9.41646e-22)
(1.05139 -0.0195602 1.46476e-21)
(1.00389 -0.00808482 4.39604e-22)
(0.951821 -0.00218774 1.12921e-21)
(0.99991 -0.000133765 1.44045e-24)
(0.986069 -0.0248806 -4.47306e-23)
(0.987664 -0.0119218 6.35712e-23)
(0.999941 -0.00523702 1.19139e-23)
(0.982671 -0.000534257 6.11331e-22)
(0.999992 -3.71726e-07 3.04505e-25)
(0.964293 0.0704895 1.21563e-20)
(1.00307 -0.0121912 -1.00078e-22)
(0.983072 -0.00880828 -1.42383e-21)
(0.99285 -0.0620031 -5.83609e-22)
(0.97125 0.0321306 6.63528e-21)
(1.0126 -0.00333907 -1.86665e-22)
(0.980137 -0.0264882 1.92164e-22)
(1.09863 0.153938 -5.00599e-21)
(0.989541 -0.019904 -8.1332e-22)
(1.02923 -0.0389346 -4.64347e-23)
(1.01996 0.0106646 5.83559e-21)
(1.00023 -2.20607e-05 1.04461e-23)
(1.00046 -0.00615218 1.45545e-23)
(0.990711 -0.0217354 2.91689e-22)
(0.997856 -0.000140073 -1.82808e-22)
(1.16063 -0.0669696 1.94594e-21)
(1.0113 -0.0269071 1.89803e-23)
(1.00093 -0.0737712 1.13278e-21)
(1.10935 -0.0805646 -1.26521e-21)
(0.998907 -5.80341e-05 -1.27771e-22)
(1.00051 -0.00146549 -7.45341e-24)
(1.02946 0.00110472 4.01052e-21)
(0.98139 -0.00139763 -1.24822e-21)
(0.993002 -0.0209535 -2.59084e-23)
(0.96209 -0.0245265 -9.0704e-22)
(0.998825 0.0181674 -6.44695e-21)
(0.999196 -0.000872007 -9.84785e-24)
(1.01694 0.00109429 -1.77125e-20)
(1.00002 -0.00171919 -9.87025e-25)
(0.923162 0.108238 -1.84024e-20)
(1.00886 -0.00668195 -7.86084e-22)
(1.12481 -0.0247037 -1.26312e-21)
(1.01127 -0.000635803 7.74048e-22)
(1.00015 -3.2243e-06 5.53739e-23)
(1.0279 -0.0603433 5.64214e-23)
(1.00894 -0.006456 -1.89415e-21)
(0.95211 -0.00185871 -6.92779e-22)
(1.02693 0.0107132 -4.08572e-21)
(1.15974 -0.144886 -9.34573e-22)
(0.996001 -0.0177011 1.23738e-22)
(0.997915 -0.00230935 3.08393e-22)
(1.13491 0.00383091 2.63637e-21)
(0.998947 -0.000153843 1.39016e-22)
(1.10583 -0.0113917 -1.08666e-21)
(1.10831 -0.0341738 8.65794e-23)
(0.999961 -1.57906e-05 -9.00447e-26)
(1.01848 -0.0152367 -4.98317e-22)
(1.00008 -0.0039879 -4.88206e-24)
(1.01157 -0.027217 6.63006e-24)
(0.999248 -0.00212531 -1.14135e-22)
(0.988063 -0.00963228 -3.14857e-22)
(0.978394 -0.0319708 1.10766e-21)
(0.997736 -0.033315 5.87935e-23)
(0.998738 -0.00653236 1.99802e-22)
(0.983871 -0.0471572 -1.30868e-21)
(0.997841 -0.0391387 -3.18388e-22)
(0.998926 -5.06385e-05 -9.62953e-23)
(1.00001 -0.000966131 3.01437e-24)
(0.97989 -0.0109704 4.04878e-22)
(1.00001 -0.000447332 5.11232e-24)
(1.00695 -0.00497763 1.1868e-21)
(0.965767 0.0694988 6.97522e-21)
(1.01791 0.000431697 -8.8088e-21)
(0.979155 -0.0766217 -1.24563e-21)
(1.16957 -0.127731 3.8273e-22)
(0.97806 -0.0317929 2.47953e-22)
(0.999993 -1.41441e-05 -3.57236e-25)
(1.16616 0.00973832 1.44589e-21)
(1.01016 0.0427452 -4.281e-21)
(0.999931 -0.000269682 1.43359e-24)
(1.0109 -0.00646084 -1.07423e-21)
(0.99917 -0.000982781 -8.24145e-23)
(1.03448 0.00544558 2.39748e-21)
(1.00008 -0.00267589 -9.31863e-24)
(1.11082 -0.0343708 1.84651e-22)
(0.952847 -0.00804355 -8.93347e-22)
(0.994057 -0.0301383 3.01819e-22)
(1.24179 -0.0560823 -6.34716e-22)
(0.996268 -0.00485127 -3.14141e-22)
(0.985484 -0.0308735 -1.83582e-22)
(1.06678 -0.00550707 1.04299e-21)
(1.01415 -0.0330521 2.69691e-23)
(0.983164 -0.00867268 9.70183e-22)
(1.09054 -0.158277 -3.68476e-21)
(1.00525 -0.00987128 -5.72256e-24)
(0.998341 -0.00110836 -9.87413e-23)
(1.06424 0.1105 1.04809e-20)
(1.08203 0.130771 7.64603e-21)
(0.990973 -0.0217799 -8.20548e-22)
(0.999085 -0.00280804 1.51075e-22)
(1.00153 -0.00735986 2.67341e-23)
(0.991814 0.0428561 -1.88041e-20)
(1.00048 -0.00148392 4.50079e-23)
(0.996784 -0.00333547 2.62595e-22)
(1.16547 -0.000863578 -3.59406e-22)
(1.05112 -0.0315518 2.76541e-22)
(0.999912 -0.00013714 -1.10517e-23)
(1.00985 -0.00677938 -2.94302e-22)
(0.863192 0.0453452 6.01032e-21)
(1.07096 0.00106818 -4.5883e-21)
(0.983115 -0.00345014 -1.53748e-21)
(1.00517 -0.00551347 -6.01208e-22)
(1.03164 0.00371787 2.94882e-21)
(0.952475 -0.0077212 1.73736e-21)
(1.16692 0.0120389 -2.28239e-21)
(0.998348 -0.00115252 7.00663e-23)
(0.999993 -1.45299e-05 6.48165e-25)
(0.999778 -0.000544771 2.61219e-23)
(0.999183 -0.000968554 1.28781e-22)
(0.884936 0.0135664 3.9262e-21)
(0.998032 -0.00272348 -2.20272e-22)
(1.0793 -0.0183456 1.48894e-21)
(0.999963 -1.54758e-05 3.57642e-25)
(0.999424 -0.00083445 -3.89216e-24)
(0.99759 -0.0018802 -1.38271e-22)
(0.992421 -0.00767911 -4.08667e-22)
(1.04754 -0.00189903 -8.50101e-21)
(1.2263 0.0175783 1.0151e-22)
(0.989087 -0.00571402 1.35605e-21)
(0.994841 -0.00600549 1.62033e-22)
(1.00103 -0.00193161 -2.48413e-23)
(0.998683 -0.00661262 -1.21829e-22)
(0.915585 0.112703 -3.07422e-22)
(0.98107 -0.0157466 2.47187e-21)
(0.999055 -0.00634623 5.21829e-23)
(1.07435 0.090928 2.94731e-21)
(1.01484 0.0167123 -5.24194e-21)
(1.00883 -0.00629652 1.71551e-21)
(0.99838 -0.00180713 1.825e-22)
(1.00275 -0.0247401 -3.61584e-23)
(1.0033 -0.0140586 9.34573e-24)
(1.01831 -0.0298791 1.95015e-22)
(1 -1.19265e-06 5.92975e-27)
(0.999606 -0.000932463 8.52381e-23)
(1.02191 -0.0228787 -6.26851e-22)
(1.06258 0.0379019 7.17592e-21)
(0.984984 -0.0351319 3.71916e-22)
(1.00965 0.0810483 4.9319e-21)
(0.880796 0.0270724 -4.52602e-21)
(1.09421 -0.0293883 -1.35658e-21)
(1 -1.14893e-06 4.65367e-26)
(0.991655 -0.000217062 -8.16252e-22)
(0.990482 -0.0135307 5.07762e-22)
(1.00002 -0.00520512 2.89187e-23)
(1 -1.88795e-06 -7.5171e-26)
(1.05224 -0.0796001 -9.18115e-22)
(1.1699 0.134998 -4.00357e-21)
(0.981626 -0.00137725 -1.23723e-21)
(0.999694 -1.5921e-05 -2.95668e-23)
(1.10732 -0.00420432 -1.7796e-21)
(1.0025 -0.0035389 4.91188e-23)
(1.00144 -0.00747538 -4.37391e-23)
(1.00009 -5.75345e-06 2.39361e-23)
(0.999231 -0.000943691 -7.26124e-23)
(1.02388 -0.023109 -1.20186e-22)
(0.979897 -0.0262664 1.41506e-21)
(0.997086 -0.0178795 -2.53054e-22)
(0.996855 -0.0121308 -1.03886e-21)
(1.02211 -0.0232898 -7.21349e-22)
(1.00696 -0.00485797 -6.23241e-22)
(0.999933 -3.80211e-06 -8.9711e-24)
(1.09911 0.151035 1.02801e-20)
(0.960268 -0.0225038 1.98503e-22)
(1.00107 -0.00248919 -8.12984e-23)
(1.02153 -0.0507552 -2.91337e-22)
(1.031 0.00529852 -1.0739e-20)
(1.01704 0.033703 -1.30654e-20)
(0.988436 -0.00951857 4.75398e-22)
(1.0113 -0.00293098 9.82e-22)
(0.987829 -0.0119034 6.43006e-23)
(0.998903 -0.00124667 -1.81182e-22)
(1.08851 -0.156509 2.29349e-21)
(1.00034 -0.000687116 6.05528e-23)
(1.00007 -0.00392399 1.25128e-23)
(0.988658 -0.00698195 1.47616e-21)
(0.982501 -0.0123133 6.46112e-22)
(0.998874 -0.00134213 2.0123e-22)
(1.02671 0.14147 -5.19764e-21)
(1.01804 0.0405953 9.92484e-22)
(1.12398 -0.150119 1.01695e-21)
(1.06157 -0.0444673 -3.42253e-22)
(1.00002 -9.01474e-06 -5.58422e-25)
(0.996994 -0.00698609 1.00451e-22)
(1.04889 -0.0216147 5.71736e-22)
(0.995906 -0.000160824 1.18468e-22)
(0.997823 -0.0140843 -4.81288e-22)
(0.998311 -0.0010967 2.47654e-23)
(1.00108 -0.00192544 -7.32132e-23)
(0.997996 -0.00236825 -2.14733e-22)
(0.997877 -0.00058248 -6.78021e-23)
(0.998725 -0.00641857 -6.57856e-23)
(1.00013 -0.00384493 2.16748e-25)
(1.03126 -0.108308 3.99111e-22)
(1.00003 -1.34372e-05 5.42254e-24)
(1.00675 -0.0045825 -1.05295e-22)
(0.999994 -3.82075e-07 -1.77617e-26)
(0.953048 -0.00960003 -2.29488e-21)
(1.00013 -0.000116338 1.41617e-23)
(1.00715 0.0994772 1.17141e-20)
(1.08048 0.128916 -4.0081e-21)
(1.02685 0.0255182 -4.66712e-21)
(1.06065 -0.0436914 2.25452e-22)
(1.02308 0.0290652 -4.66302e-22)
(1.01936 0.000330218 5.0611e-21)
(0.998972 -0.00219467 2.34452e-23)
(1.001 -0.000998957 -8.82235e-23)
(0.99987 -0.000380965 2.02914e-25)
(0.997269 -0.00139684 1.55687e-22)
(0.983454 -0.00875353 5.74528e-22)
(0.99632 -0.00476641 -1.26243e-22)
(0.996877 -0.00701612 2.69682e-22)
(1.01971 -0.0294218 -7.28306e-23)
(1.00013 -0.000112777 -1.72856e-23)
(0.999908 -4.72598e-05 -2.62063e-24)
(1.00008 -6.49072e-05 -1.26301e-23)
(0.999524 -0.00145489 4.96589e-23)
(1.01724 -0.000500261 2.22087e-21)
(1.01758 -0.0288611 1.92313e-22)
(0.988511 -0.0069062 -1.574e-21)
(1 -0.00043519 -1.06271e-23)
(1.06022 -0.0776911 1.7843e-21)
(1.00049 -0.00141579 1.39805e-22)
(0.999917 -4.71402e-05 -1.02847e-23)
(1.01731 0.0330528 1.86288e-20)
(1.0211 -0.00266589 4.04631e-22)
(1.00165 0.0349013 3.04012e-20)
(1.00003 -1.82694e-05 -5.11312e-24)
(1.00003 -0.000325936 0)
(1.00105 -0.00108783 1.32464e-22)
(0.993104 -0.0213636 3.92907e-22)
(0.996988 -0.00401968 -1.32547e-22)
(1.02071 -0.0724614 -7.64447e-22)
(0.981552 -0.000608534 8.28245e-22)
(1.05175 0.0232696 8.84546e-21)
(0.995144 -0.000122998 1.06585e-21)
(1.02856 0.141347 -2.72996e-21)
(1.00051 -0.00139464 -1.01854e-22)
(1.00104 -0.00245227 9.56785e-23)
(1.00149 0.0460628 -7.87924e-21)
(1.0654 0.108958 -4.35786e-21)
(1.03144 -0.0613722 -1.60908e-21)
(1.00155 -0.00137483 2.33159e-23)
(0.953984 -0.011763 3.31106e-21)
(0.995096 -0.00015491 -6.11182e-22)
(1.00003 -1.94355e-05 2.19199e-24)
(1.00675 -0.0047167 1.2491e-22)
(0.960846 -0.0231854 -5.02162e-22)
(0.990546 -0.0214017 -6.72679e-23)
(0.973212 -0.00221563 6.32459e-22)
(1.01989 -0.0300435 2.78066e-23)
(1.06986 0.000607561 7.55753e-21)
(0.999995 -3.94148e-07 -3.07147e-26)
(1.00159 -0.00134883 -4.71464e-23)
(1.01376 -0.00501165 1.35054e-21)
(1.02711 -0.014049 -1.76575e-21)
(0.999752 0.108946 -5.91189e-21)
(0.999999 -1.02833e-06 1.24884e-27)
(0.999963 -1.61874e-05 1.24306e-25)
(1.00104 -9.60499e-05 -2.28423e-22)
(0.990601 -0.0211174 -8.03754e-22)
(0.999629 -0.000561673 3.65178e-23)
(0.999929 -0.000292991 3.91033e-24)
(1.07934 -0.0241497 -1.62918e-21)
(0.920055 0.0134037 -1.63483e-20)
(1.11205 -0.0325741 -1.06119e-22)
(1.00298 0.0384752 -7.73886e-21)
(0.988055 -0.0022032 3.57738e-22)
(0.998259 0.0166624 4.13673e-21)
(1.01815 0.00697794 6.01141e-21)
(0.998025 -0.00239664 8.53029e-23)
(1.05049 -0.0796255 1.28569e-21)
(0.960629 -0.0138442 2.88585e-21)
(0.997461 -0.0123759 4.86083e-22)
(1.00043 -0.00606655 -2.05129e-24)
(0.99803 -0.00445322 1.60412e-22)
(0.999151 -0.000625706 4.04506e-23)
(0.998627 0.0435612 -3.39377e-20)
(0.989867 -0.0197762 -1.19651e-21)
(1.01878 0.0979373 5.93251e-21)
(1.01459 -0.0334039 1.44353e-22)
(1.02699 0.0249016 2.59636e-21)
(0.988474 -0.00578767 5.96904e-22)
(0.992569 -0.0077235 -1.06235e-21)
(1.16363 -0.0680495 1.56694e-22)
(1.01852 0.0107466 6.29438e-21)
(0.998423 -0.0018163 -2.05734e-22)
(1.00001 -0.00166823 1.20629e-23)
(0.999987 -0.0017329 -2.38172e-24)
(0.999987 -9.71167e-07 -2.03059e-24)
(1.01633 -0.0290645 -1.8417e-22)
(0.979672 -0.0385391 -1.41465e-21)
(1.00013 -0.000279697 -2.1395e-23)
(1.04455 -0.0225366 -1.30097e-22)
(0.999812 -0.000449374 4.34187e-24)
(0.99981 -0.000459592 -2.74651e-23)
(1.00121 -0.000157151 -1.80105e-23)
(1.01523 -0.0330598 -7.52979e-23)
(1.00039 -3.36589e-05 -4.06368e-23)
(1.00074 -0.00490088 6.45097e-26)
(0.98633 -0.00253025 7.78942e-22)
(0.997608 -0.00347117 1.08969e-22)
(0.997272 -0.00144308 -5.40385e-22)
(0.991427 0.0535698 -4.55376e-20)
(1.07925 -0.0546492 -4.93818e-22)
(1.00594 -0.00889652 5.43329e-22)
(0.99401 -0.0094545 5.78878e-22)
(0.982645 -0.024054 -1.8739e-22)
(1.00011 -0.00378539 -2.24419e-24)
(1.00001 -1.80181e-05 -1.66159e-24)
(1 -1.58709e-06 -1.82931e-26)
(0.976094 -0.00464428 1.25144e-22)
(0.960816 -0.0135293 -2.94471e-21)
(0.982767 -0.016729 -4.39762e-23)
(1.00001 -1.75399e-05 -4.63663e-24)
(0.991262 -0.00382469 8.97655e-22)
(1.04691 -0.00152388 7.88114e-21)
(1.24851 0.0498308 -1.15771e-21)
(1.09362 -0.0309667 -9.25483e-22)
(0.999968 -1.90847e-06 -1.75583e-24)
(0.983555 -0.00862172 1.90775e-21)
(1.00282 -0.0234849 4.65082e-22)
(1.00006 -5.95576e-06 -1.34003e-24)
(0.999954 -0.000140356 1.14266e-24)
(0.981655 -0.000453202 -1.52283e-22)
(1.00101 -9.37423e-05 -7.5353e-23)
(1.00034 -0.00316579 -8.51235e-24)
(1.0097 -0.0639264 -3.56468e-22)
(1.00024 -2.28057e-05 -3.12115e-23)
(0.970608 -0.0309232 2.02655e-21)
(0.986251 -0.00264081 -7.88135e-22)
(0.988097 -0.0022968 6.38751e-22)
(0.989237 -0.00579547 2.21242e-22)
(1.00085 -0.00492282 -4.19151e-23)
(0.977359 -0.0172776 2.25021e-21)
(1.00015 -0.000260844 2.68219e-23)
(1.00002 -7.7324e-06 -2.33417e-25)
(1.00298 -0.00308157 1.60172e-22)
(1.04767 0.109915 -4.56731e-21)
(0.972923 0.0304251 3.30151e-20)
(1.00892 0.0299713 6.60047e-21)
(1.01731 -0.0292286 -5.42096e-23)
(0.993615 -0.00806433 -2.09678e-22)
(1.00775 0.0354079 3.52326e-20)
(1.00837 -0.00568141 -2.37636e-21)
(1.00013 -0.000233453 -1.87067e-23)
(1.01532 -0.000821375 -1.73318e-21)
(0.991607 -0.00751276 2.44124e-22)
(1.10729 -0.0124005 -1.878e-21)
(0.998053 -0.00438549 2.02718e-22)
(1.01874 -0.000453849 -5.4983e-21)
(1.00057 -6.26628e-05 7.56733e-23)
(1.00918 0.0293427 4.47628e-21)
(1.00031 -2.86649e-05 -4.90917e-23)
(0.996938 -0.00433107 7.45203e-23)
(0.988618 -0.00583805 -1.63798e-22)
(1.0115 0.0417323 4.45716e-21)
(1.00015 -5.80976e-06 -4.93638e-23)
(0.991052 -0.0222254 1.09001e-21)
(1.02074 -0.0714842 1.43942e-21)
(1.05306 0.0233649 -6.9867e-21)
(0.99671 -0.0269127 -6.89691e-22)
(0.996897 -0.00397998 1.91461e-22)
(1.11116 -0.0689645 4.17976e-22)
(1.00004 -9.84168e-07 -4.09318e-24)
(1.1255 -0.147798 -4.22298e-22)
(0.997497 -0.00354357 1.16715e-22)
(1.01109 -0.00653241 -1.6915e-21)
(0.993348 -0.0214066 3.60822e-22)
(1.00159 -0.000127625 -2.78068e-22)
(1.16921 0.130836 -1.00542e-20)
(1.01788 0.0413249 -1.00814e-20)
(0.967029 0.0556677 1.5433e-20)
(1.02252 0.0287856 1.3863e-21)
(1.06089 0.0610113 5.1264e-21)
(1.10689 -0.0362469 -6.04101e-22)
(1.10813 0.162798 -1.07385e-22)
(1.00851 -0.00563041 2.63872e-21)
(1.03542 0.0606687 5.62971e-21)
(1.00171 0.0322235 -2.35895e-20)
(1.00029 -0.0031961 -4.48636e-24)
(0.999194 -0.00201847 -6.11719e-23)
(0.977429 0.0275146 -3.5636e-20)
(1.00002 -1.21583e-05 -9.9437e-25)
(1.16155 -0.142108 1.14e-21)
(1.24333 0.0660111 -7.0411e-22)
(0.98927 -0.00965999 9.93365e-22)
(1.0006 -0.00129467 -9.0629e-24)
(1.02675 -0.0137396 -6.03725e-22)
(0.999178 -0.000936371 -6.65253e-23)
(1.00102 -0.00101439 -2.74455e-24)
(0.990803 0.0698834 -8.20452e-21)
(0.934812 0.055555 1.33572e-20)
(0.999917 -4.34015e-06 -5.8545e-25)
(1.00016 -0.000260946 -2.67038e-23)
(1.05253 -0.0287069 -3.70674e-22)
(1.00006 -0.00158772 2.4497e-24)
(1.2456 -0.0560088 1.53139e-21)
(1.06412 0.106699 -7.18032e-21)
(1.03892 0.0219845 1.41941e-21)
(0.999956 -0.000141227 -3.53753e-24)
(0.993822 -0.0371626 2.92473e-22)
(0.995252 -0.0312894 1.58033e-21)
(1.00033 -2.81476e-05 3.17093e-23)
(1.00963 -0.0208624 1.91267e-22)
(1.02946 0.000691523 2.12926e-21)
(0.93972 0.0538058 -8.55134e-21)
(1.00004 -0.00164979 -2.6623e-24)
(0.999999 -1.14724e-06 -5.88806e-27)
(1.03558 0.0596774 4.15524e-21)
(1.00939 -0.0206304 3.14604e-22)
(0.999915 -5.09733e-06 -1.31505e-23)
(1.02151 -0.00998076 -4.06104e-22)
(1.00407 -0.00752086 -9.58177e-23)
(0.998028 -0.00260359 -1.90906e-23)
(0.998668 -4.90894e-05 5.58622e-23)
(1.18492 -0.127766 7.78767e-22)
(0.990238 -0.00352617 3.64969e-22)
(0.99919 -0.000920577 4.41413e-24)
(0.98272 -0.0123374 1.43139e-23)
(1.00016 -0.000252061 3.84265e-23)
(0.999923 -4.95804e-05 7.00253e-24)
(0.999834 -0.00738865 1.34582e-22)
(1.12173 -0.0144682 -2.2613e-22)
(0.999867 -3.60933e-05 6.06969e-24)
(0.986344 -0.00282587 -9.44506e-22)
(1.00044 -0.00060675 8.40341e-24)
(0.99695 -0.026569 -2.98779e-22)
(1.01135 0.0423373 -5.84173e-21)
(0.999925 -0.000272583 -2.45396e-24)
(0.866938 0.0216823 -9.9334e-21)
(1.04504 -0.0492556 1.68831e-22)
(0.996823 0.0213715 4.63159e-21)
(1.11904 -0.0150274 7.62318e-22)
(0.999687 -0.000172064 1.25454e-23)
(0.999982 -4.59827e-05 -5.70011e-25)
(0.999742 -0.000188339 -2.46815e-23)
(0.997032 -0.00398745 9.48511e-24)
(1.01552 0.00158813 0)
(0.999605 -0.00612551 9.36789e-23)
(0.991573 -0.000273342 1.94282e-22)
(0.98964 0.0813258 -2.8133e-20)
(0.96171 -0.0152434 -2.57103e-21)
(0.96138 -0.0150923 2.21892e-21)
(1.02412 -0.0224709 5.36909e-22)
(1.04363 -0.0250149 2.04515e-21)
(0.989638 0.0599817 2.83623e-20)
(0.999696 -0.000202102 1.23791e-23)
(0.991298 -0.0222832 2.25282e-22)
(0.989065 -0.00963222 -9.50123e-22)
(1.00012 -0.000114761 2.02298e-23)
(1.01213 -0.0272073 -1.31334e-23)
(1.00044 -0.000583122 -4.09781e-24)
(1.01671 -0.0293438 -1.27745e-22)
(0.983625 -0.043959 2.81232e-22)
(0.907806 0.0696075 -1.70217e-20)
(0.9694 -0.0305342 -1.93448e-21)
(0.998723 -0.00148304 2.96645e-23)
(0.988146 -0.00923725 -1.68782e-21)
(1.00339 -0.0138254 1.41579e-25)
(1.07458 -0.0110882 -3.94806e-21)
(1.01955 0.000201394 -8.5984e-22)
(1.00541 -0.026027 5.7926e-23)
(1.00001 -8.51709e-08 -5.95902e-25)
(1.00303 0.0382642 9.70186e-21)
(0.992051 -0.00424665 -9.86699e-23)
(0.952592 -0.00702067 1.60838e-21)
(0.999335 -0.00577577 7.10989e-23)
(1.02017 -0.0227376 -2.19015e-21)
(0.987381 -0.0288448 1.75912e-21)
(1.00302 -0.00302177 7.02783e-23)
(1.21679 -0.0180992 6.41471e-22)
(0.999513 -1.96044e-05 8.37146e-23)
(1.00821 0.0725224 1.55011e-20)
(0.999613 -0.0107699 -1.54608e-22)
(1.03105 0.00172466 -1.0666e-21)
(0.974012 -0.00455587 1.47105e-21)
(1.01292 -0.00220298 2.73469e-22)
(0.999992 -1.12485e-05 -2.85923e-25)
(0.986303 -0.0247176 -1.08447e-22)
(0.986271 -0.0029308 8.91282e-22)
(0.990355 -0.0205433 1.09728e-21)
(1.02146 -0.0103374 -2.94818e-22)
(1.00879 -0.0644627 -3.67392e-22)
(1.00017 -0.000252103 -4.37057e-23)
(1.00357 -0.11114 -7.36591e-22)
(0.999134 -0.00064179 -1.6609e-22)
(0.999991 -4.14198e-05 2.3652e-25)
(0.99962 -0.00602333 -1.03089e-22)
(1.00014 -0.000270137 1.09987e-23)
(0.937531 0.0531466 1.16353e-20)
(1.00012 -0.000112724 -1.78789e-23)
(1.0077 0.0986438 -3.59914e-21)
(0.987907 -0.0097582 -2.66615e-22)
(1.01244 -0.00178498 -5.1434e-22)
(1.00175 -0.0013852 -2.52763e-22)
(1.05799 0.0138663 9.14276e-21)
(1.00243 -0.00358075 -3.00128e-22)
(1.01428 0.0170839 -4.50768e-21)
(1 -1.95191e-06 -3.67204e-26)
(1.01295 -0.0372913 -3.25882e-22)
(0.999227 -0.00294219 5.46177e-23)
(1.00103 -0.00237884 1.3913e-23)
(0.984473 -0.0101278 -4.09129e-22)
(1.00002 -1.0116e-05 2.35407e-24)
(1.16732 -0.0069278 -6.15426e-22)
(0.947694 0.115918 4.05514e-21)
(1.23965 0.0663526 1.64065e-21)
(1.00013 -0.000227415 3.63767e-23)
(1.08557 -0.0836838 -6.93945e-22)
(1.01573 0.00178025 -1.44585e-21)
(0.984912 0.0744428 2.00401e-20)
(1.00004 -0.00269762 -4.28771e-25)
(0.999847 -1.57314e-06 -4.97458e-24)
(1.05135 -0.028166 -4.802e-22)
(1.0001 -8.22387e-05 -1.23436e-23)
(0.9702 0.0264208 -7.3708e-21)
(1.00305 -0.0232984 2.93497e-23)
(1.1717 0.14422 -1.07832e-22)
(1.06134 0.0376467 -9.53067e-21)
(1.00009 -7.54944e-05 9.88955e-24)
(0.979026 -0.0756519 -1.15843e-21)
(1.007 0.0229943 -9.91318e-21)
(0.999923 -4.73312e-05 3.20659e-25)
(1.05227 -0.0199068 3.77538e-21)
(0.997729 0.00815266 2.20127e-20)
(0.998651 -6.21705e-05 4.54302e-23)
(1.00142 -0.00774378 6.18921e-23)
(1.00022 -3.03181e-05 2.36325e-23)
(1.00384 -0.00824191 -2.51625e-22)
(0.988658 -0.0060245 7.46091e-23)
(0.996257 -6.39931e-05 7.2677e-23)
(1.0248 0.100784 -8.04268e-21)
(0.99744 -0.0121298 3.26165e-22)
(0.901927 0.0977921 3.01721e-20)
(0.842389 0.0101714 2.73352e-20)
(0.998307 -5.68379e-05 -1.33445e-22)
(1.00003 -0.000246084 -1.67827e-24)
(1.01871 0.0965398 -3.36288e-21)
(0.997999 -0.00246737 7.66588e-23)
(0.990066 -0.00241211 1.97689e-22)
(1.00015 -0.000270103 -6.22082e-24)
(1.0406 0.0249082 3.33743e-22)
(0.974221 -0.00455758 -2.10258e-21)
(0.917676 0.0549289 2.11473e-20)
(0.999269 -0.00261016 -7.84462e-23)
(0.999968 -0.000734743 -4.12792e-24)
(0.992068 -0.00435096 3.37759e-22)
(1.25032 0.0272883 2.56596e-22)
(0.994208 -0.0372335 6.65418e-23)
(1.08271 -0.0216828 -5.37864e-22)
(1.03113 -0.0229196 -1.32144e-21)
(1.01922 0.00691121 -5.01727e-21)
(0.999885 -6.86217e-05 -4.01818e-24)
(1.17586 -0.0475043 -4.36022e-22)
(1.00001 -1.71544e-05 -3.00571e-24)
(1.00094 -0.00082936 1.66741e-22)
(0.999994 -5.95014e-07 6.44035e-26)
(1.12357 -0.144206 -2.42477e-21)
(1.03265 -0.0618523 1.32824e-21)
(1.01662 0.0322341 8.30437e-22)
(0.999986 -9.49882e-07 2.05288e-25)
(0.967985 0.0540297 -4.11309e-20)
(0.999762 -7.13397e-05 1.50409e-23)
(1.01243 -0.0269585 -2.2442e-24)
(0.999635 -0.000197113 4.27335e-23)
(0.960335 -0.0229795 9.95232e-23)
(0.994137 -0.00960467 -9.10099e-22)
(1.07161 0.0106344 4.1605e-21)
(0.99992 -5.64338e-06 1.7402e-23)
(1.00892 -0.0427872 -7.27095e-22)
(1.01012 -0.0207468 5.49448e-23)
(0.993587 -0.00868262 -7.86826e-22)
(0.999988 -4.48079e-05 -1.63056e-26)
(0.999953 -0.00072823 -2.43667e-24)
(0.999871 -5.75493e-06 2.12468e-24)
(0.983182 -0.0290897 -1.24043e-21)
(1.001 -0.00198148 7.3142e-23)
(0.999316 -0.000403045 -3.96423e-24)
(0.98138 -0.000145947 1.25732e-21)
(1.00005 -0.000122949 -1.3274e-25)
(1.00017 -0.000244471 3.51979e-23)
(1.00327 -0.012191 7.51029e-23)
(0.999692 -0.000173128 7.39969e-24)
(1.00831 0.0351732 -1.55761e-20)
(1.0373 -0.00415086 6.65663e-21)
(1.25261 -0.0149821 5.6014e-23)
(0.984963 -0.000446175 -1.64343e-22)
(1.00462 -0.0525239 1.02492e-21)
(0.999992 -7.17973e-07 -1.19856e-25)
(1.11352 -0.070055 -5.15964e-22)
(0.983154 -0.0438297 -1.15502e-21)
(1.0002 -3.00506e-05 3.54825e-23)
(0.982944 -0.0170207 -5.58163e-22)
(0.999157 -0.00272676 -6.09303e-23)
(0.979232 -0.0120273 6.56032e-22)
(1.08372 -0.119038 -7.00425e-22)
(1.0003 -2.86496e-05 -3.66302e-23)
(1.01565 -0.0333492 2.03107e-22)
(0.999991 -4.27882e-05 -8.67755e-25)
(0.996871 -0.00374148 -1.23532e-22)
(0.999774 -7.28718e-05 1.4237e-24)
(1.03337 0.053379 -7.55078e-22)
(0.995409 -0.00112626 -3.60803e-22)
(1.00008 -0.000147179 -3.2931e-25)
(0.999899 -4.7442e-05 6.40034e-24)
(1.01476 -0.00708705 1.66466e-21)
(0.975137 -0.0240276 1.90241e-22)
(0.998027 -0.00249454 -1.22514e-22)
(0.999985 -0.000762894 -8.9482e-24)
(1.02378 0.101943 -9.85277e-22)
(1.00197 0.0548335 6.1208e-21)
(1.00106 -0.00235323 4.33902e-23)
(1.16072 0.0972429 -1.46223e-22)
(1.06871 -0.0892587 1.96897e-21)
(0.962173 -0.0249614 8.31766e-22)
(1.00003 -0.000242496 6.64086e-24)
(0.999993 -3.48926e-07 4.31628e-25)
(1.04852 0.108299 5.86537e-21)
(0.979583 -0.0102715 2.01111e-22)
(1.00006 -0.000122665 -5.80744e-24)
(1.16115 0.0460784 3.3387e-21)
(0.999449 -0.000314259 5.24477e-23)
(0.999993 -3.52862e-06 7.67379e-25)
(1.05417 -0.00512883 6.60611e-22)
(0.9873 -0.0562522 -4.16932e-22)
(0.969796 -0.03047 2.57717e-21)
(0.958711 -0.0224394 3.60988e-22)
(0.992611 -0.0199168 -7.95676e-22)
(0.996058 -0.000134182 1.26895e-22)
(0.99017 -0.0025137 -1.57993e-21)
(1.00051 -0.00592091 -1.58977e-23)
(1.05132 0.040012 -4.68987e-21)