/*--------------------------------*- C++ -*----------------------------------*\
  =========                 |
  \\      /  F ield         | OpenFOAM: The Open Source CFD Toolbox
   \\    /   O peration     | Website:  https://openfoam.org
    \\  /    A nd           | Version:  7
     \\/     M anipulation  |
\*---------------------------------------------------------------------------*/
FoamFile
{
    version     2.0;
    format      ascii;
    class       volScalarField;
    location    "8";
    object      p;
}
// * * * * * * * * * * * * * * * * * * * * * * * * * * * * * * * * * * * * * //

dimensions      [0 2 -2 0 0 0 0];

internalField   nonuniform List<scalar> 
29540
(
0.0281377
0.315998
-0.027752
-0.10364
-0.0077844
-0.11377
-0.0293468
0.0278626
0.00632756
0.000509926
0.0196756
-0.0143301
-0.00162971
-0.000108054
0.339943
-0.0186968
-0.000635944
0.139643
-0.00693497
-0.0323781
-0.00284599
0.00593323
-0.0280043
-0.00684144
1.10374
0.313888
-0.00174562
0.9472
0.326179
-0.00527991
0.0495786
0.152019
-0.154316
-0.0195841
0.95588
-0.0188745
0.358526
-0.0829776
0.0177694
0.0171826
0.00127749
-0.0495166
-0.000577191
-0.0468608
6.74928e-05
-0.00465566
-0.0123679
0.000175516
0.0104453
0.349306
-0.0335497
-0.092293
0.156638
-0.110624
-0.0182843
0.307248
-0.0108157
-0.00292305
-0.013417
-0.0445232
-0.000243051
-0.00672074
0.0649905
-0.0163963
0.55747
1.04024
-0.0222419
-0.0262034
0.994832
0.00133519
0.311099
0.798314
0.00746705
1.05289
-0.0241706
0.0465696
0.331708
-0.0746353
-0.000188699
-0.040633
-0.10305
0.419127
0.0279591
-3.7085e-05
-0.0237211
-0.173602
0.598813
-0.00168834
-0.00157763
-0.150648
-0.0638994
-0.0751445
0.00963578
0.153427
-0.154485
0.615183
-0.0805762
0.00140554
-0.113502
0.401305
-0.000198186
-0.0702
-0.000237172
0.109983
-0.0945715
0.269637
0.693141
-0.00151933
-6.36571e-05
-0.137849
-0.154517
0.0391305
4.60102e-06
-0.00488667
-0.000642332
0.781798
0.455037
-0.0353567
2.64028e-05
0.00860986
-0.0877162
0.335599
-0.00303213
1.03934
0.00335868
0.0413108
0.15026
-0.0339181
0.0127244
-2.07478e-05
-0.0431665
0.31036
0.789308
-0.0389224
0.108964
0.0481376
0.677624
-0.0715762
-0.196188
0.386982
0.0531516
-0.13178
-0.127746
3.70821e-06
-9.94774e-06
-0.00797599
-0.0115328
-0.121606
-0.1377
0.129452
0.0816878
0.041226
0.00126634
-0.000500281
0.438639
0.00152918
-0.0233744
0.647554
0.521072
-0.0283868
-0.0992241
-0.100879
0.320096
-0.000199467
-1.07524e-05
-0.035554
-0.124719
8.61862e-05
-4.23899e-05
-0.0212412
2.30331e-05
0.0179123
0.660159
-0.0706139
-0.103004
-0.0155276
0.0064578
-0.0720504
-0.00394917
0.0125027
-6.879e-05
-0.00778491
0.595192
-0.0247604
-0.193438
0.441984
-0.01933
-0.0539357
0.0118884
-0.00471338
-0.000960481
0.00770911
1.05341
0.431971
-0.0414997
-0.0224576
0.892364
0.392224
-0.152228
0.00354294
-0.0615069
-0.133935
-0.0136647
0.00254494
0.675711
-0.0205471
0.0215435
-0.122508
-0.141471
-0.000129251
0.851149
-0.00334337
-4.17691e-05
-0.00181026
-0.059632
0.105324
-0.00441088
0.0210076
-0.0067777
-0.151391
-4.63045e-06
0.00135039
-0.00728216
0.222281
-0.00875437
-0.00466672
0.151779
0.000309219
6.23116e-05
0.0164849
-0.0791064
-0.0641581
-0.0145971
0.30817
-0.044188
0.043415
-0.000113233
-0.00936353
0.00236561
-0.0551335
-0.189871
-0.00440699
0.00137179
-0.00496207
0.00894771
-0.0316535
-0.000190035
-0.166366
4.18787e-05
0.225525
-0.0104692
0.000366028
0.273473
-0.136718
0.00071105
-1.38175e-05
-0.132062
-0.181938
-0.0270708
-0.0379054
0.0815298
0.571018
0.000186485
-0.0765013
-0.0331165
0.91464
-0.024991
0.436057
0.0563503
-0.000718822
1.23933
-0.00180996
-0.108641
-0.149427
0.00692692
0.0760287
-0.025312
0.799597
-0.0107778
-0.0532637
-0.000932795
0.503561
-0.00873522
0.626667
-0.00170056
-0.017819
0.915049
0.194751
0.151423
-0.093
-0.000545588
0.00866441
-0.000668171
-3.68487e-05
0.215007
8.25861e-05
-0.0578257
-0.0372355
1.11548
0.781634
-0.121981
-0.0545982
-0.0614783
0.034825
0.00971364
-0.0545755
-0.12743
0.583796
0.802778
-0.00411954
0.683067
0.209285
-0.00134011
0.035449
-0.00451637
-0.0174298
-0.0165776
-0.00840149
-0.000223264
-0.00546071
0.0556127
0.513847
0.00505798
-0.0797159
0.0413343
-0.000144581
-0.124564
1.16353
-0.0194989
-0.00434033
0.0378182
-0.0388027
0.279659
-0.00464704
-0.000142208
4.3838e-06
-0.00849137
0.920636
0.0795838
-0.18909
-1.25047e-05
-0.190604
0.175025
-0.0158747
-0.142759
-0.00398173
-0.0014886
-0.0728939
0.00282382
0.0146365
0.0330084
0.273836
-0.000525444
0.00712489
0.332574
-0.0817593
0.00124861
0.00133393
0.777088
-0.0633668
-0.00510761
0.409305
0.928797
-0.0466549
-0.0209615
0.116462
-0.0025512
-0.0264326
-0.0105392
0.38438
-0.000160899
0.0318148
-0.130418
0.791889
1.04253
-0.0187643
-0.0276912
0.573438
-0.0466981
-0.000217469
0.210372
0.234143
0.23786
-0.0224353
0.0794268
0.940813
-0.155635
0.853007
0.799886
-5.72632e-05
0.0575212
-0.142264
-0.00918726
0.00515459
0.93595
0.0791394
0.000816482
-0.0953207
-0.136726
-0.0174703
-0.00046669
0.642282
0.446282
5.28965e-05
0.0131316
0.0174113
-0.0981554
-0.0923401
9.91491e-05
-1.08689e-05
0.00149914
0.288471
-0.082418
0.624701
-0.141137
-0.052641
-0.065349
0.401508
0.0760895
-0.00399703
0.026013
0.0026236
0.864971
-0.0767261
0.00341151
-0.0235424
0.0607556
-0.00482155
-0.0379471
0.000678278
0.000700505
1.17713
-0.0252608
-0.0158918
-0.00151944
-0.00249225
0.545333
-0.132323
-0.07148
9.27102e-06
-3.44399e-05
-0.0792503
-0.0211919
-0.0165299
0.0548805
0.02008
-0.00817831
0.102469
-0.053459
0.840974
0.0174215
0.000722931
-0.121983
-0.0696285
0.0993685
-0.0107326
-0.0719309
-6.43422e-05
1.00467
0.061964
0.000192752
1.05333
-0.0738226
-6.88511e-05
0.00464956
-0.124555
0.0408039
0.138755
-8.20665e-06
-0.0252183
-0.0135529
-0.0169617
-0.00163257
-0.0260673
0.899863
-0.0262603
-0.0365999
0.457613
-0.00917526
0.88834
-7.60001e-05
-0.0480009
-0.121517
-0.0703567
-0.0573545
-0.00514502
0.00738426
-0.000651091
-0.0577816
0.0335967
-0.000137071
1.26486e-05
-0.0200398
0.831179
0.0249756
0.00817481
-0.155028
-9.46947e-06
0.00312393
-0.000241879
0.0311667
-0.0537288
-0.00137358
-0.0247154
-0.0386071
0.00327047
-8.01499e-05
-0.00666982
-0.00136145
0.160437
0.737051
0.582552
-0.0124629
0.0197669
0.0815444
-0.000458252
-0.0110359
-2.15332e-05
0.808458
-0.0424866
0.0541222
-0.0522686
0.00571222
-0.0100615
-0.000425986
1.58089e-05
-0.0154016
0.146105
0.533729
0.00400948
-0.110185
-0.0763757
-0.0247822
0.132598
-0.00444719
0.00415871
-0.0178188
-0.000397202
-0.127241
0.58788
0.415401
-0.0675589
0.573644
0.000195677
7.94491e-06
0.212291
0.0893613
1.04259
-0.10522
-0.0650686
0.0742822
0.00380407
-0.0186236
0.00142911
-0.0330898
-0.039764
-4.74851e-05
-0.00305013
0.786086
-0.000565346
0.976141
-1.89695e-05
-0.0122355
0.153213
0.111358
0.00338292
0.000544611
0.813829
0.167001
-0.124589
0.426906
-0.0203119
-0.0410243
-0.0132351
0.540989
-0.0771288
0.039976
-0.023685
-8.07422e-06
-0.0043986
0.0195411
-0.0546052
-0.0660737
-0.122613
-0.0552014
0.28576
-0.0071103
-0.149271
-0.0423899
4.9246e-05
-0.0374581
0.0333967
0.290227
-0.0814188
-1.77555e-05
-0.0558325
-0.000960696
0.00455948
-0.155251
0.623194
0.00289976
-0.0369126
-0.0393841
0.197615
0.885367
0.00595095
-0.0139946
0.522286
0.368955
-0.0452254
0.0162389
-0.13475
-7.34014e-06
-0.119052
0.000220117
-0.0410828
-0.000124041
3.7677e-05
-0.0181853
0.0718185
0.748644
0.0360872
0.038685
-4.20472e-06
-0.0201443
0.000235639
-0.0105997
3.95659e-05
0.146952
-0.00168854
0.419727
-0.000506026
-0.0396481
-0.104614
-0.0138715
0.879366
-0.0506799
-0.110858
-0.0182106
0.135024
-0.116679
0.0885292
-0.037389
-7.79805e-06
-0.01562
-0.0130009
0.0007442
0.000225363
0.53677
-0.0160146
0.214631
-0.0127858
0.00276994
0.0988018
0.000481703
-8.10213e-05
-0.117789
-0.0115266
4.95232e-05
0.546583
1.12795
-0.000790733
-0.100854
1.15625e-05
0.9527
-0.0220754
-0.103666
4.41942e-05
0.0411346
0.167253
0.194604
0.136643
-0.00148076
-0.000576831
-0.0469953
-5.51621e-06
4.45063e-06
-0.0785547
-0.0777023
-0.120143
1.08533
0.000595145
-0.0760496
0.025323
-7.34706e-05
-0.00410807
1.25147e-05
-0.0192653
0.00010112
-0.0330525
0.0858977
0.87862
0.131263
-0.00102043
0.00144294
-0.107323
0.210029
-0.0102163
1.77209e-05
0.473076
-0.191699
-0.101937
-0.043327
-9.13045e-05
-0.00101225
-0.195412
-0.0587494
0.348741
0.837934
-0.10805
-0.00430013
-7.16193e-05
-0.12069
-0.153286
-0.00076423
0.0104278
-0.0437375
-0.0152463
0.801309
-0.00438735
0.0169317
0.346953
-0.0246239
1.04671
1.03473
-0.000143471
-0.000212782
-0.0500615
0.0506801
-0.0976575
0.0174705
-0.0238485
-0.00201194
0.925762
0.409712
0.0074651
1.22371
8.90179e-06
0.26538
-0.13333
-0.0735533
0.000236501
-0.101196
0.273923
0.0485637
0.176327
-0.00159402
-0.00171436
-0.00525685
-0.0113671
-0.0413725
-0.00359897
0.313616
-0.017396
-0.016877
-0.158315
0.764858
0.0644482
0.0970981
-0.00143051
-0.0018086
-0.0594104
0.00319851
-0.00860772
-8.71915e-05
-0.00130444
0.274766
0.817461
-0.000489461
0.451625
-5.39317e-05
-0.010973
-8.52521e-05
0.0179137
-0.0187295
-0.000172718
-0.000177182
-0.143888
-4.49039e-06
0.139086
-0.0679121
-0.000199494
0.420862
-3.28067e-05
-0.00142281
-0.000348699
-0.0162615
-0.00133286
-0.019698
-0.148509
-0.00119378
0.0140555
-8.22621e-05
0.737061
0.0131894
0.0622285
-0.0922093
-0.0649171
-0.00378797
0.00963309
0.488258
-0.0720337
0.436783
-0.111304
-0.0113284
-1.24022e-05
-0.018385
0.790306
0.462283
-0.0925857
-0.138093
0.710579
-0.0264543
-0.128041
-8.42392e-05
-0.0705338
-0.00286728
1.19807
-0.117368
-0.000340685
-0.147446
-0.0744379
0.553438
-0.00850604
-0.077249
-0.0118071
-0.016974
-0.00428185
0.551585
-0.187079
-0.0564064
-0.044934
-0.0393334
0.0184211
0.698504
-0.0549237
0.428823
0.00897489
-0.0568899
0.989153
-0.026919
-0.000837555
0.558612
0.790917
-0.00283048
0.0522396
-0.0204254
-0.0910747
0.522559
-0.122369
-9.68041e-05
-0.0231557
7.69235e-05
-0.0143392
-0.000102402
-0.0139686
-0.00325002
-0.0100934
-0.0851514
-0.00206372
-0.00174159
-0.00366423
0.46349
-0.00677403
-0.0104309
-0.00955397
0.392168
0.0170304
-0.00126674
0.781009
1.02089
-0.057013
0.927879
-0.0502155
0.732399
0.0175623
-0.0303005
0.00823143
-0.00157862
3.13756e-05
0.00819741
-0.0348362
-0.0570249
0.419793
-0.0652638
-0.0578024
-0.00304745
-0.0727139
-0.0673254
0.0209436
-1.51897e-05
0.0377128
0.277328
0.787509
0.0687867
-0.0384533
0.336053
-0.00114964
0.107431
-0.0512756
0.0019361
-0.145471
0.0106723
0.73387
-0.00649873
-0.00177853
-0.000477573
-0.124783
-0.00394831
1.20291
1.23867
0.0364776
-0.000136324
0.0254857
-7.12953e-05
0.178776
-0.00176301
0.0657544
1.12176
0.112506
3.36697e-05
-0.0236282
-6.89034e-05
-0.189355
-0.0962072
0.920779
0.000625555
0.0351915
0.0101727
0.000786813
-0.00691353
-0.000995352
-0.0174694
-0.0959955
-0.0638159
0.0227483
0.41136
-0.0375933
0.0189582
-0.0568689
-0.00536398
-0.074624
2.06551e-05
9.386e-05
-0.00654026
0.0825628
-0.0727094
-0.0447231
-0.0106621
0.0078857
-0.0352355
0.566291
-0.0362743
-1.30874e-05
-0.140862
0.850896
-0.038636
-0.0337913
0.200589
-5.3758e-05
-0.00207904
-0.0776072
-0.000113427
-0.00138738
-7.24448e-05
1.2239
0.0256834
0.0104179
1.77368e-07
3.06688e-06
-5.92699e-05
-5.78094e-06
-0.0626488
0.795585
-0.0959146
-0.00141739
-0.000526374
-0.0143195
0.91221
-0.125052
0.847473
0.0800377
0.323746
-0.00045429
0.901859
-0.00634343
-0.0259201
0.0504993
0.0259598
0.0292177
0.421909
-0.109296
0.891803
0.639492
-0.0224988
-0.074574
0.0137642
-0.0786571
-3.91031e-05
-0.00271891
0.00762928
0.177141
-0.0181885
-0.0628776
-0.00905152
1.08274
-0.143984
-0.000124544
-0.00010165
0.929647
-0.0136646
0.0076927
-0.0360259
-0.00634409
-0.0410192
-0.0265533
-0.0280927
0.219981
0.0884066
-0.0273463
-0.0383006
0.000152407
-0.0157463
-0.00250768
-0.0216222
-9.79107e-05
9.22154e-05
-0.0402848
-0.0537814
0.882237
-0.0394594
-0.000630326
-0.00416661
-0.000925917
0.775993
-0.0293197
-0.000126263
-0.0674507
-0.0122716
-0.00955937
-0.0734173
-0.0858535
0.0181473
0.149013
-0.136636
0.000118683
0.0157894
-0.0360872
-4.58282e-05
-0.000203745
0.267314
0.204651
0.0332328
-0.127403
-0.120263
0.0013059
0.976619
0.000116206
-0.0384725
0.813631
-0.0451707
-0.0946739
6.66568e-06
0.000321832
-0.0940839
-0.0248017
0.00355056
-0.085567
0.509266
0.618518
0.00168703
0.000570095
0.48017
-0.0329914
-4.62275e-05
-0.00392944
-0.0728706
-0.0553588
-0.0246607
-0.00401812
0.460644
2.26119e-05
0.181995
0.605713
3.81494e-05
0.0314511
-0.00124205
-0.146705
-0.0355227
-0.00182044
0.0679893
0.000425841
0.499407
0.0035063
0.0548771
0.060322
1.11391
0.751468
-0.136316
-0.0180911
5.36079e-06
0.0190658
-0.0328427
0.346975
0.702561
-0.0849174
-0.00325402
-0.0390064
-0.0149511
0.320132
-0.000530389
0.915699
0.060729
8.39473e-05
4.18778e-05
0.000189936
-0.0296103
-0.0407661
0.00161114
0.144298
0.275665
-0.125893
0.00127236
0.000107203
-0.0521584
-0.000117065
-0.00652415
-0.0250684
-0.00162057
0.0798019
0.0103586
-0.00314193
-0.00858361
-0.0354432
0.751198
0.771881
0.0858506
-5.3367e-05
-0.00129559
0.535318
-0.00109316
-0.144736
-0.000509467
-0.0437936
-0.152337
-0.000527078
-0.000568944
-0.0696353
0.00303484
-0.000198514
-0.00299649
0.451369
-0.0753992
-0.000120424
0.209441
0.731418
0.760332
0.00131793
-0.137404
-0.0203219
0.846502
-0.133828
-0.13685
-0.00185028
-0.0281006
0.0638575
-0.0554117
0.759758
0.186798
-0.000458861
-0.114897
-0.154921
-0.00823942
-6.61379e-06
-0.00392041
0.450504
-0.000485562
0.00955394
-0.00862797
-0.00265738
0.0194908
0.062679
-0.000472623
-0.000314211
-0.0129361
-0.14455
-0.0757924
-0.14435
0.513412
-0.00284004
-0.000666032
-0.0749708
-0.0513707
0.021463
0.0287668
6.47353e-05
0.156178
0.314752
0.0403499
0.0530989
-0.00144634
-0.0285376
0.0427784
0.00270498
-0.000203575
-0.0195785
-0.00869875
-0.00166076
-0.023535
-0.0018994
0.559635
-0.0192767
-0.190336
-0.0503126
-0.0228254
0.025109
0.949035
-0.0927098
-0.000330062
0.896877
0.352781
0.0164693
-0.0125519
0.0160369
0.0298204
0.338904
0.000672445
-0.00537331
1.11687
0.604382
0.691065
-0.0933933
-0.00307819
-0.00271377
-0.000120899
-0.00284922
0.63054
0.177133
0.000580353
-0.00806814
-0.000854173
-0.0169301
1.04543
0.812077
0.17047
-0.00608807
-0.133621
-0.00855481
-0.00163415
-0.040485
0.032728
-0.0577773
-0.0075638
0.00182744
-0.160822
-0.145876
0.064093
-0.0518008
-0.00593105
-0.0547859
-0.000486137
-0.0146046
-0.00155474
0.725353
4.95516e-05
1.16048e-06
-0.0445099
-0.0416678
-0.0604202
0.0825413
9.5124e-06
-0.161988
0.142433
0.418934
1.19054
-0.00977922
-0.146381
0.0650122
-0.00448636
0.139419
-0.00135495
0.0221068
-0.000481684
0.554183
-0.0962698
0.0225059
0.279653
0.249642
0.00303448
0.00667749
4.34348e-06
0.856751
-1.90386e-05
-0.0949106
0.000635262
0.00349949
0.386773
0.217605
-0.138951
-0.0817527
-0.0085741
1.23147
-0.143116
5.5121e-06
-0.032565
-0.000153479
-0.0267202
0.22185
0.419808
0.00179417
-0.0731293
-0.0196822
0.317524
0.0688376
-0.067552
1.09379
-0.0206649
0.000102759
-0.188224
1.12791
0.00461983
0.198291
-0.0892335
0.314629
0.00387521
0.0740008
-0.159023
0.0124201
0.116288
-0.0416299
0.425469
-0.0545534
-0.0404581
-0.00176923
-0.00177784
0.985367
-4.5548e-05
-0.0110227
-9.18714e-05
-0.0168997
0.000668807
-0.0151032
0.539587
-1.70828e-05
-0.00223575
0.164484
-0.192556
-0.0466123
0.00231103
0.819261
-0.0986887
0.366324
-0.0248608
0.332679
0.0150234
-0.00165773
-0.0725698
0.00154452
1.01157
-0.0556132
-0.000313159
0.00464983
0.305026
-0.0233637
-0.00155487
-0.000338695
-0.145194
-0.0055216
-0.0202506
-0.141375
1.17671e-06
-0.141414
0.000797187
0.727677
-0.0211662
0.319792
0.00959174
-0.00774754
0.575862
-0.101462
-0.188737
-0.00906488
-0.148386
0.59445
0.630734
-0.0291816
-6.57368e-05
-0.0323128
0.00965734
-1.91391e-05
0.134137
0.781785
0.0263829
0.00322733
0.0221442
-0.143702
-0.000410905
0.173963
0.104978
0.161273
0.0277605
0.0583372
-0.000883133
0.376891
-0.0856562
-0.19682
-0.00219254
0.0461093
0.312469
0.00159829
-0.148221
0.46364
-0.0762382
-0.149471
-0.157486
-0.142993
-0.144162
0.112066
0.466373
-0.158224
-3.7023e-05
0.00170795
-0.0300127
-0.00384034
0.0217443
-4.31523e-05
-0.0120432
0.00826942
-0.000186186
0.121609
-0.00116444
0.259778
-0.0674064
-0.0108315
-0.0144447
-0.0179847
-0.133078
-0.0123763
-0.00224595
0.0447544
0.168349
0.00984889
-0.0690333
-0.00628136
0.0625904
-0.0198127
-0.0402974
-0.154718
-0.033253
-0.0001132
-0.0319446
0.894279
2.47098e-05
0.253547
-0.0730772
1.07234
0.103708
-0.0977252
-5.34262e-06
0.00344323
-0.161615
-5.53693e-05
-0.00577628
-1.24544e-05
-0.140352
0.00942573
-0.138593
-0.0481867
-0.000313464
0.576714
0.555451
-0.0738115
0.000867923
-0.000425808
-3.59508e-05
-0.000153586
0.979846
-0.00288044
0.00469746
0.0458741
0.00191409
-0.0013334
-0.157963
-0.000650151
0.100155
0.00658706
-0.00449516
-0.0016523
-0.0539746
-0.0853782
0.385403
0.211847
-0.000401191
-0.0276991
0.00106596
-0.0918889
-0.00130208
0.290426
-0.0168461
1.23795
-0.0269842
-0.00316815
0.159789
-0.0399402
0.719221
-0.0867036
-0.0238485
-0.0273323
0.0386994
-0.00769814
-1.46582e-05
-0.0175638
0.642578
-0.0923574
-0.00696942
-0.0878064
-0.0570169
0.324108
-0.0011553
0.588456
-0.00194404
-0.130085
-0.00120635
0.027995
0.0980037
-0.00567699
0.702814
-0.00108454
0.0700895
0.188835
0.000962063
-0.000356952
1.04769
0.14615
-0.00140126
0.0637318
0.0469446
0.000203158
-0.0957907
-0.0467265
-0.183266
-0.021781
0.690571
0.00922951
0.349942
-0.000919973
0.813908
-0.14639
-0.011361
0.0131656
0.0667617
-0.128753
-0.152849
-0.0182614
5.21333e-05
1.13482
-0.0478196
0.00164981
-0.0362024
-0.0836033
0.716772
0.00626907
-0.0346159
-0.000148592
0.17477
0.0170279
-0.0810725
0.00164105
-0.00751882
-0.0594445
5.12146e-05
-0.109249
-0.00342268
-0.0315458
-0.134901
0.602219
-0.0217994
0.095551
-0.0716968
-0.065357
-0.000139788
0.000239063
-0.00810579
5.36295e-05
-0.0240349
0.00368052
-0.00451908
-4.26044e-05
1.01254
0.0106176
0.00062057
-0.000131483
-0.00464945
0.691385
-0.111994
1.13578
0.400979
0.0479124
0.594249
-5.10679e-05
-0.0302637
-0.00190284
-0.00542081
0.418116
-0.0213315
1.15123
0.544861
-0.118109
0.56565
0.0192302
-0.030353
0.0046927
-0.0705279
-0.00863514
-0.109413
-0.119202
-0.00657718
0.559951
-0.0212447
0.000242015
-0.00933461
-0.00152471
-0.0739834
-0.000419779
-0.00280873
-7.79377e-05
0.34571
-0.148906
0.577383
0.0608614
-0.00601158
-0.067148
-0.0427121
0.157446
-0.00671226
-0.00239483
-0.137545
-0.0952741
0.024069
-0.0912467
-0.00978046
0.0270131
0.0061795
2.3061e-05
0.300207
-0.00013426
0.122585
-0.00184204
4.81266e-06
0.00414006
-0.00155102
-0.00274844
-0.0341321
0.383921
0.321762
-0.0434209
-0.0272123
0.00611682
-0.011217
-0.0220341
-0.000181272
-0.00115469
0.00138931
0.248031
-0.0184342
-0.118019
-0.0965793
-0.00483092
-0.0441623
-0.0239684
-0.00382787
0.0113379
-0.0269062
0.519623
-0.136366
0.0131339
0.00456708
-0.0805274
1.11847
-0.0215905
-0.00970421
0.0166184
0.177984
0.00854183
-0.00311051
0.562581
-0.00087181
0.0968045
-0.0483883
-0.102627
0.0135896
-0.00814899
-0.0120615
0.0894492
-0.00795118
-0.00145269
0.00179266
0.00539575
-0.000585692
0.0735094
-0.0202656
-0.00452842
-4.84454e-05
0.349421
-0.000128085
-0.0642538
0.172014
-0.0496128
0.000210224
0.245453
-0.0747111
0.377162
-0.000189649
-0.00859235
0.206219
0.000313786
0.0105567
-0.00988254
0.0225644
-0.0448977
-0.0695139
-0.0186206
-0.0059334
0.021334
0.0445833
0.139399
-0.000466087
0.255536
-0.0856562
-0.00724598
-0.0151206
0.000786614
-0.106977
0.000119036
0.90191
0.480099
-0.00114997
-0.0457296
0.000180411
-0.00481494
-0.0115498
-0.0292847
0.347815
0.339593
0.0465405
0.0219481
-0.153574
0.0811798
0.101677
0.121908
-0.108286
0.0374672
0.464812
-0.0206516
0.786479
-0.00209882
-0.023635
-0.0996186
-0.000264489
-0.00172468
-0.000111996
0.780708
-0.0222918
0.000490808
-0.0334613
-0.0100026
-0.000776963
-0.0283085
0.609579
0.00207005
0.0235345
-0.060227
-0.00113844
-0.00998359
-0.001826
1.16231
0.000387316
3.74784e-05
-0.0042529
-0.0304005
0.180773
0.00105928
0.0328767
0.16933
-0.000426072
0.00438356
-0.151394
0.101996
-0.0742772
3.1131e-07
0.00063909
0.00619897
0.0692871
0.656694
0.202241
-0.0740599
9.7266e-07
-0.101178
-0.00575968
-0.0267677
-0.0258896
0.384463
0.869072
-0.000274983
0.323813
0.510217
-0.02078
-0.0243725
-0.0471275
-0.0244055
0.00017793
-0.0846677
-0.0183243
-0.000340956
-0.00125586
-0.0034578
-0.004167
-0.00153092
0.644416
0.698624
0.430361
-1.19313e-05
-0.0492652
0.0719893
0.230453
0.913141
-0.0011258
-0.0432261
-0.039116
0.660435
-0.0404002
-0.0200596
0.00321408
0.332074
0.00055362
-0.00113886
-0.0517486
-0.0776254
0.307209
0.0991564
-0.0811858
-0.049143
0.160154
0.0436523
-0.100254
0.0147872
0.0244434
0.304975
-0.000828652
-0.00141594
0.219697
0.000374557
0.071117
0.0675821
-5.54249e-05
0.616749
-0.022243
-0.00952156
1.18358
-0.0770811
-0.0184982
-0.0801831
-0.00550828
0.860986
0.0023734
1.11999
-0.00035246
-0.0201728
1.14852
0.0145382
0.859136
-0.0122563
-6.47454e-05
-0.0449001
0.886597
-0.0034403
-0.0141234
-0.0172528
-0.00221935
-0.0445381
0.880666
0.240355
-2.20218e-05
0.0432244
-0.00800778
0.0639217
-0.00197179
0.0491659
-0.00568395
-0.00107556
0.837479
0.905435
0.845182
-0.106397
0.0495291
0.000238548
-0.11806
0.591719
0.0359654
0.000430962
-0.109716
0.00117093
-0.000265543
0.896151
0.000209114
0.00888839
-0.00415317
-0.0189956
0.85309
0.886472
0.905835
0.0251389
0.00092742
0.452633
0.0160471
0.0556751
-0.0192069
0.000109845
-0.00632412
-6.074e-05
-0.00967022
-0.00166008
-0.0121356
-0.00021204
0.318441
0.00437333
-0.130393
-0.0192402
-0.145323
-0.0341663
-0.00171416
0.727488
-0.0226419
-9.18167e-05
-9.68902e-05
1.10611
4.01084e-05
0.0241246
0.122986
-0.0376515
0.631242
-0.0110956
-0.0896095
-0.0761371
-0.00114469
0.000209484
0.534496
0.902039
-0.00334583
-0.0434971
-0.000551467
0.897517
1.07014
-0.00312109
-0.0135995
0.0408797
0.00642216
-0.0508041
6.26604e-05
0.0214373
-0.0772581
0.124297
0.737329
-0.0032411
0.0607831
0.224434
0.081969
-0.0917865
0.0602243
1.03985
0.396635
-0.111242
0.913071
-0.00131853
0.911816
-0.0149215
0.762721
0.16705
-0.0107204
0.0802228
0.00499628
0.0373161
-0.150242
-0.00148875
-0.0483344
0.766671
-0.0538216
0.0576783
-0.00318053
0.00334105
0.383136
-0.0192591
-0.0872772
0.00142106
-0.00765219
-0.0493867
-0.00461664
0.00410016
-0.0184748
-0.00112401
0.00501783
0.755249
0.0046051
-0.0332734
-0.117483
-0.0595013
-0.130115
-0.149378
0.00875244
-9.50562e-06
-7.89562e-05
0.538817
-0.1038
9.12795e-05
-0.0764053
0.367692
-0.119284
-0.0310232
0.000195065
-0.00404138
-0.0945368
0.303602
-0.0172678
-0.0010753
-0.0943607
-0.0399386
1.14806
0.230233
0.145785
-0.0974385
-5.59391e-06
-0.014009
0.135314
-0.000838425
2.55786e-05
0.348638
0.209758
0.00121006
-0.00186451
0.0183256
-0.0700032
0.0216402
0.0174622
-0.0310503
7.92506e-05
0.609646
0.00114487
-0.00139257
-0.000556396
-0.000510294
-0.000382031
0.169241
0.0019457
-0.00588108
-0.019671
-0.00962403
0.0601194
-0.0111919
-0.0842641
-0.0213021
0.824689
0.684245
-0.00109065
-0.00308551
0.203
-0.00177708
-0.0404661
0.137867
0.150035
-0.00207905
0.0425582
0.0832181
0.00261239
0.212559
-0.000266126
0.0153154
-0.00851253
0.0286801
-0.0293999
0.1004
0.00010869
0.00139644
0.00049084
-0.000142299
-0.00315803
-0.0197046
-0.0260646
-0.0586251
0.125748
0.0810884
0.0186234
-0.118721
0.024544
0.0164093
0.0266967
8.86499e-05
0.879459
-0.0167007
-0.00670931
-0.01432
1.16314
7.61031e-06
0.145465
-3.83764e-05
-0.0448975
-0.012992
-0.043214
0.347054
-0.00810349
-0.000142747
0.359147
0.145669
-0.00119968
0.104938
-4.1957e-05
0.323496
0.0149183
-0.0556247
-0.000351308
0.487368
0.0580898
-0.0406973
3.34207e-05
0.336107
0.62625
-0.0023389
-0.000127219
-0.070889
-0.0179905
0.0195917
0.0507193
0.917445
0.534114
0.00089266
0.691672
0.497891
-0.00574051
-0.110447
-0.0645309
-0.0300148
-0.0993088
0.255486
0.00156735
0.956536
0.299553
0.0249702
0.000114002
0.00118829
1.12234e-05
-0.00119699
-0.0055947
1.03008
-2.35824e-05
0.157446
0.0542117
-0.000512732
0.961416
1.07328
0.390736
0.453108
-0.0188947
0.00483329
-0.000634636
-0.0216728
-4.37001e-05
-0.00225421
-0.191828
-0.000120656
-0.00345762
0.980394
-0.0227759
-5.49684e-05
1.01069
0.000845645
-0.0694555
-0.133226
-0.00266738
-0.138963
-0.000517754
0.291469
0.00651345
-0.0323644
0.00371225
-0.00135954
-0.000842549
-0.000495587
-0.194599
-0.115607
0.301575
0.00547852
-0.00522685
0.468846
0.00010592
1.12372
-0.00113269
-0.165586
0.00435482
0.00310493
0.100603
0.106276
-3.40579e-05
-0.00813107
0.000158061
-0.00139391
0.00158303
0.164971
0.0961529
0.636674
-0.0738232
-0.000231956
0.000276757
0.192833
0.711912
-0.00876824
-0.0122911
1.11564
-0.00549773
-0.0400375
0.00167806
0.145898
-0.0688692
-0.0165878
0.308075
0.0025336
-0.000555639
0.00313765
0.00207666
1.11364
0.874497
-0.0467223
-0.0684923
-0.0124253
0.00295998
1.69539e-05
0.147444
0.395338
-2.49804e-05
-0.0141753
-5.18493e-05
0.000200865
0.828992
-1.30491e-06
-0.13648
-0.101631
-0.148418
0.136726
-1.68021e-05
0.019431
-0.0117872
0.768173
0.0217694
0.00968816
-0.0582122
0.00116098
0.70928
0.406588
0.021623
0.113499
0.993752
-0.12039
-0.107959
-0.00377992
-0.0136284
-0.000814977
0.051654
-0.000196178
0.322929
0.00561176
0.384146
-0.065405
-5.41357e-06
0.113251
-0.000382514
-4.08595e-05
-0.00153977
1.0933
1.04962
0.639056
7.82298e-05
0.351912
0.908875
-0.0019669
0.00377242
-0.0163798
0.158983
0.896673
-0.0529987
0.236849
-0.0048929
-0.124378
-0.139814
1.20081
-0.00123382
0.875276
0.171353
0.370074
0.00014723
0.00035232
0.0104253
-0.0172887
0.162793
-0.000143937
9.15563e-05
0.857115
-0.150625
0.000493909
0.897831
-0.00453339
0.000237866
0.742259
-0.0126434
-0.00304172
0.00596368
0.292503
0.000555619
-0.000306257
0.00666037
-0.00789191
0.853303
1.08836
0.566527
1.16885
0.212677
-0.088586
1.00228
-0.000197073
-0.00627559
0.260322
-0.00669787
-0.00132853
-0.00022834
0.897709
0.0614554
-0.0013244
1.05799
0.145817
0.488065
0.0846223
-0.00531843
-0.0394651
0.304854
0.143742
0.901498
-0.0441308
-0.00158427
0.824755
0.78205
0.0259516
0.647458
-0.0718666
-0.0150339
-0.0177619
-0.00130206
-0.000316662
0.83283
-0.116761
0.0431988
0.0017155
0.302703
-0.0604437
-0.0280814
-0.00196512
-0.0070346
0.930053
-0.00161352
-0.0332147
-0.00583183
0.922219
-0.036543
0.038436
-0.0144002
0.00259674
0.293795
-0.0421842
0.945074
0.208514
1.16753
0.477675
-0.115397
0.0599239
-0.00348183
0.0302417
-0.0473522
0.864822
0.922698
1.02757
0.63519
0.8409
-0.000779139
0.975043
-8.9725e-05
9.39013e-05
-0.0906223
1.05723
0.0961727
0.475298
-7.56938e-05
-0.00423055
-0.0873394
-0.0633998
0.848856
-0.00137512
-0.0147403
0.637172
0.00189335
-0.00820004
1.13325
0.0904113
-0.0683636
-0.181723
-0.00110701
0.133332
0.179804
1.18245
0.161564
0.0944485
0.00828701
-0.000505513
-0.00426999
0.363682
0.0124226
0.0002044
-0.116965
0.457634
-0.00290193
0.882509
-0.123304
0.890579
-0.030377
-0.0429427
0.996255
-0.0102168
0.0739573
-0.000847813
-0.00258293
-0.122905
-0.042637
-0.0691393
-0.0185533
0.0227906
-0.124847
-0.133668
0.892911
0.000429594
0.00136822
-0.0381471
0.224953
-0.136175
-0.11068
-2.60122e-05
-0.120842
0.0893051
-0.000247498
-0.133726
-0.0722989
0.895588
-0.141214
0.884609
-0.0259091
0.214389
0.46687
-0.0660959
0.622656
-0.00338937
0.192429
0.00246896
0.160005
0.367048
0.323866
-0.0529459
0.0115082
-0.00135506
0.331803
-0.000186078
-0.000292464
-0.00205305
0.0143222
0.0324405
0.0281922
0.753096
0.291183
1.1082
0.698234
-0.00297037
-0.0620247
-0.000376073
-0.0884736
-0.00231755
0.0108192
0.0011255
-0.0578872
0.6215
0.8702
-0.000607727
2.7826e-05
0.0798835
-5.9432e-05
-0.0172693
-0.000403018
0.249122
-0.0664126
0.344662
-0.141654
2.9851e-05
-0.0260644
-0.0735131
-0.0445136
-0.030532
-0.0984787
0.107093
-0.000352902
-9.5472e-05
0.00379005
-0.000317829
0.147719
0.153721
0.0742632
1.03282
0.0841239
-0.179341
-0.161261
-0.000901386
0.0948998
-0.000286469
0.832172
0.182249
0.97138
0.000205447
-0.060443
-0.0127515
0.0934226
0.349905
0.770887
-0.0141349
0.0625447
-0.00371244
-0.0339917
-0.0149296
-0.0114122
0.195145
0.00286723
-0.0139639
-0.0375933
0.465593
0.123512
-9.8559e-08
-0.00173566
-0.0116057
-0.00120652
0.212535
-0.00131941
-0.0455057
0.271681
0.0001109
0.474015
0.000127299
-7.65299e-06
-0.152647
-0.0286534
0.000254478
-0.0417675
0.000249209
1.01612
0.0230251
-0.0453722
0.932277
0.230952
-0.0583306
0.740162
-0.00522142
-0.0035525
-0.00396233
0.156006
1.24395
-0.00287062
-0.00120308
-3.68739e-05
0.0144113
-0.00241005
0.0467602
0.0112882
-0.0389228
-0.108837
0.0342261
0.0199054
-0.0345474
-0.00107878
-0.0161107
0.749003
-0.00343116
-0.0255182
-0.000488225
0.754044
0.101484
0.738484
0.000731082
-0.0016616
-0.0436156
1.03243
0.263687
-0.0522525
-0.000290893
0.0582801
0.177861
-0.0263421
0.367952
-0.0882652
0.0374349
-0.183361
0.769473
-0.0284238
0.448599
-0.00595907
1.18534
-0.0761228
-0.0203587
0.948428
-0.0791959
0.297306
-0.196406
0.329977
0.0118432
0.0916456
0.593682
0.0912607
-0.0890864
-0.0179075
-0.0139829
-0.0194531
0.0146541
-0.0028259
-0.101975
-0.0525871
0.00354895
-0.120846
-0.149541
-0.000103367
0.217449
-0.0168576
0.216422
0.968975
0.687058
-0.0990194
-0.128896
0.000763609
-0.113851
-0.00776831
1.1451
-0.0648994
-0.056056
0.67625
0.0874777
-0.0717525
0.417676
-0.0678753
-0.0012735
-0.0216237
0.0184881
0.00117284
0.713582
-0.00509851
0.254627
0.634025
-0.0106759
0.43034
-0.151376
-0.000755678
0.0122381
0.154225
0.653619
-0.00476809
0.152343
-0.124972
0.129478
-0.0422766
0.691588
0.0195088
-0.0839527
-0.00551877
0.00028845
0.878149
-0.00458991
-0.0477416
-0.000249847
0.374808
-0.000153056
-0.0791617
-0.00238822
-0.178604
0.00114793
-0.0186127
0.350912
-0.00729137
0.00161662
0.00110423
-0.00768323
0.103266
-0.00017995
-7.42332e-05
-0.0157121
-0.0194765
-0.0414122
0.0149261
-0.00362078
0.13605
0.14363
-0.00244905
0.00178502
-0.000436652
0.867024
-0.00785976
-0.0127504
0.757383
-0.0338128
0.701941
0.093575
0.886554
0.410896
0.203673
-0.00284477
-0.000575271
0.146349
0.0429888
-0.00815045
0.000289926
0.0154121
-0.0924538
-0.0018449
-0.015344
-0.014834
-0.0167854
-8.34651e-05
-0.00614203
8.03947e-05
-0.000167985
0.00151074
0.611097
0.382856
-0.0204092
-0.00527931
-0.0915949
-0.0385144
0.463016
0.790313
-0.103008
0.00362485
0.366782
-0.0180742
0.00101028
-0.132298
-2.7469e-06
0.218877
0.298035
-0.0013003
-0.0652988
0.000322597
-0.0148711
-0.0143356
-0.0537596
0.0385538
-0.0955922
-0.000113808
0.0198439
0.00311584
-0.0621522
0.0101768
0.902061
0.000458826
-0.00730513
-0.0582288
0.51164
0.615316
0.657831
0.063382