/*--------------------------------*- C++ -*----------------------------------*\
  =========                 |
  \\      /  F ield         | OpenFOAM: The Open Source CFD Toolbox
   \\    /   O peration     | Website:  https://openfoam.org
    \\  /    A nd           | Version:  7
     \\/     M anipulation  |
\*---------------------------------------------------------------------------*/
FoamFile
{
    version     2.0;
    format      ascii;
    class       volVectorField;
    location    "38";
    object      U;
}
// * * * * * * * * * * * * * * * * * * * * * * * * * * * * * * * * * * * * * //

dimensions      [0 1 -1 0 0 0 0];

internalField   nonuniform List<vector> 
29540
(
(1.00953 -0.0125802 1.13367e-22)
(1.00832 0.00427128 5.98482e-22)
(0.991681 -0.00302825 -6.97832e-22)
(0.971719 -0.0441779 2.18227e-22)
(0.997824 -4.703e-05 1.02768e-22)
(0.96089 -0.026909 -3.11157e-22)
(1.04924 -0.0776391 7.24446e-22)
(1.01243 -0.0190971 -1.0906e-23)
(1.0018 -0.00176659 1.65407e-23)
(1.00016 -4.3517e-05 4.01435e-24)
(1.01372 -0.0255835 -5.90317e-24)
(0.997934 -0.0150232 -2.77819e-22)
(0.99958 -0.000173993 1.48665e-23)
(0.999977 -8.59299e-06 5.50742e-25)
(1.1737 0.0954014 7.2539e-22)
(0.994558 -0.00175985 1.08252e-22)
(0.999857 -0.000767994 -7.18761e-24)
(1.13948 -0.0150889 -2.83129e-23)
(0.998085 -0.00162134 -3.5129e-23)
(0.990188 -0.00072602 -1.53365e-22)
(0.999239 -0.000246941 -4.93757e-23)
(1.0017 -0.00176217 5.78271e-23)
(0.991601 -0.00320294 7.67261e-22)
(0.998092 -0.000154458 4.51807e-23)
(0.881266 0.121982 2.6945e-22)
(1.00924 0.00339967 3.21912e-21)
(0.999549 -5.26398e-05 3.3781e-23)
(0.941516 0.104461 -1.87035e-20)
(1.17967 0.0950216 -2.13132e-21)
(0.999214 -0.00823034 -5.30918e-23)
(1.01392 -0.0102692 8.36397e-23)
(1.03521 -0.00702719 -6.41909e-22)
(0.975557 -0.102027 2.27308e-21)
(0.997994 -0.020805 1.4298e-22)
(0.939397 0.0995606 1.53577e-20)
(1.00258 -0.0297858 4.3909e-22)
(1.0724 0.0468786 -9.23319e-22)
(0.974461 -0.0248755 8.95626e-22)
(1.00479 -0.000752061 -2.29399e-22)
(1.00462 -0.000541722 4.37296e-22)
(1.00038 -0.00014589 -1.31608e-23)
(0.989436 -0.0273424 -9.41933e-22)
(0.999873 -0.00074654 -7.50032e-26)
(1.02065 -0.0669809 -1.9025e-21)
(1.00003 -4.54242e-06 -5.75324e-25)
(0.999395 -0.00834957 3.88263e-23)
(0.997676 -0.0111559 -7.92106e-23)
(1.00006 -7.5204e-05 1.73503e-24)
(1.003 -0.00331426 -2.35554e-22)
(1.07207 0.043865 -3.79267e-22)
(1.10415 -0.098715 5.40515e-22)
(0.974919 -0.0390186 -1.03335e-21)
(1.03514 -0.00614963 2.27149e-22)
(0.962105 -0.0267101 -5.19691e-22)
(0.994692 -0.00180499 -9.53265e-23)
(1.18373 0.0820281 -1.31011e-21)
(0.996974 -0.00202773 3.48848e-23)
(0.999217 -0.000272113 6.25493e-23)
(0.999715 -0.019658 -2.07035e-22)
(1.00757 -0.0535995 -7.87361e-22)
(0.999948 -6.02143e-06 1.15118e-24)
(0.998152 -0.00166165 -7.27581e-24)
(1.26967 -0.0123061 -1.07951e-21)
(1.00295 -0.0291292 -2.48362e-22)
(1.0704 0.117743 7.88494e-21)
(0.910386 0.0341417 3.93645e-20)
(0.998716 -0.0247146 -3.9162e-22)
(0.993345 -0.0124495 3.35761e-22)
(0.934593 0.021869 1.58682e-20)
(1.0004 -0.000137709 8.50462e-24)
(1.01085 0.00408281 -4.38519e-21)
(0.988351 0.0877908 1.08264e-20)
(1.00286 -0.00821464 -8.33272e-23)
(0.902739 0.141987 9.71058e-21)
(0.992799 -0.000568088 4.9892e-22)
(1.11135 -0.0580057 -2.29336e-22)
(1.24898 0.155693 7.394e-22)
(0.975664 -0.0141489 2.11863e-22)
(0.999961 -1.898e-05 -3.38914e-24)
(1.00207 -0.0439128 -7.52079e-22)
(0.962618 -0.000626868 -3.41461e-22)
(1.02177 0.0430372 2.58357e-21)
(1.0097 -0.0131263 -3.41072e-22)
(1 -5.44576e-05 1.11464e-24)
(1.05171 -0.0760485 -1.13326e-21)
(1.17685 -0.1912 -3.21943e-21)
(1.04086 0.103369 -1.58276e-20)
(0.999563 -0.000171638 -1.34117e-23)
(0.999593 -0.000154939 -3.92624e-24)
(0.942522 -0.0339295 -1.22438e-21)
(0.992814 -0.0474185 1.30152e-21)
(0.975566 -0.0148199 2.38373e-22)
(1.00281 -0.0034243 4.00132e-23)
(1.05681 -0.0119565 -3.43685e-22)
(0.93779 -0.0144524 -1.0312e-21)
(1.05183 0.124881 7.45674e-21)
(0.993684 -0.0614458 2.0587e-21)
(1.00042 -0.000346517 2.10529e-23)
(0.971854 -0.0553954 -1.94622e-21)
(1.16664 0.124893 4.61884e-21)
(0.999959 -1.86868e-05 4.96952e-24)
(0.97687 -0.00923572 -1.27796e-21)
(0.999949 -7.35791e-06 -5.9343e-25)
(1.04354 -0.019998 -1.65074e-21)
(0.973731 -0.0388329 6.71291e-22)
(1.03578 0.0129732 4.32742e-21)
(1.00446 0.0826345 1.60884e-20)
(0.99961 -0.000156584 -3.34148e-23)
(0.999996 -6.12625e-05 -1.33013e-25)
(0.989371 -0.099625 -1.19927e-22)
(0.97392 -0.100624 -2.04913e-21)
(1.03816 -0.0402575 3.21959e-23)
(1.00001 -1.83711e-06 6.40753e-26)
(0.998948 -0.00556455 -1.36102e-22)
(0.999892 -0.00198065 5.79406e-24)
(0.991221 0.0899656 8.2806e-23)
(1.04529 0.0616723 -5.48456e-21)
(0.989463 -0.00649051 -5.26204e-22)
(1.00002 -5.95921e-05 3.78658e-26)
(1.00315 -0.00814016 -6.58669e-23)
(1.27358 -0.114003 1.23314e-20)
(1.00521 0.0122348 7.09692e-21)
(1.16551 -0.0856815 -4.64948e-21)
(0.908246 0.0417413 -3.64058e-20)
(1.00097 -0.000323621 -5.48282e-23)
(1.16185 -0.059816 7.43361e-22)
(1.13831 -0.0102794 -2.20307e-22)
(1.01178 -0.0520252 6.12093e-22)
(1.00359 -0.00314491 -2.12111e-22)
(1.00002 -0.000393018 -2.83682e-25)
(1.0205 -0.0651771 6.81107e-22)
(1.25357 0.147937 2.35022e-22)
(1.00626 0.156216 1.6146e-20)
(1.16537 -0.106457 -1.34031e-21)
(1.04205 -0.0195611 1.38767e-21)
(1.01351 -0.00989427 1.59489e-21)
(1.08317 0.203639 1.12455e-21)
(0.975922 -0.000685612 1.77173e-21)
(1.07323 -0.195375 7.71292e-21)
(1.16846 0.118283 -3.59889e-21)
(1.16197 -0.0538549 -7.34639e-22)
(0.948687 -0.00432162 -1.35533e-21)
(0.95673 -0.0372667 4.09904e-22)
(1.00001 -1.63637e-06 -2.93405e-26)
(0.999992 -3.37962e-06 3.79192e-25)
(0.997767 -7.81816e-05 -8.01537e-23)
(0.997851 -0.0109345 1.62125e-22)
(0.98076 -0.0785544 -1.59002e-21)
(1.0924 -0.159013 3.89012e-21)
(1.30405 0.0554069 -3.38137e-21)
(1.02814 -0.0185543 7.71672e-22)
(1.01605 -0.01851 2.4074e-22)
(1.00038 -0.000562663 3.21566e-23)
(0.999885 -0.000197192 4.24619e-24)
(1.00142 0.0198114 -1.58335e-20)
(1.00047 -0.0013805 3.77905e-24)
(0.993931 -0.0101394 4.07304e-26)
(1.0996 0.206632 -3.14964e-21)
(1.00435 0.0429792 -1.73115e-20)
(1.10768 -0.0959817 -1.23602e-21)
(0.964313 -0.00239034 5.82493e-22)
(0.972614 -0.0433354 1.57981e-21)
(1.18455 0.0882523 3.47184e-22)
(0.99996 -4.0315e-05 1.07991e-24)
(0.999991 -3.36807e-06 -1.42307e-25)
(0.989409 -0.00682094 1.89672e-22)
(0.957775 -0.0365629 -2.24588e-21)
(1.00005 -0.000200801 -1.36447e-24)
(1 -5.81497e-05 5.38743e-25)
(0.993939 -0.00457748 -6.40402e-23)
(1.00003 -0.00038139 2.48054e-25)
(1.00516 -0.00543589 -1.17141e-22)
(1.09448 0.210617 3.5305e-21)
(0.976267 -0.000364186 -1.49977e-21)
(1.02766 -0.106616 -8.23944e-22)
(0.995512 -8.8198e-05 3.25172e-22)
(1.00188 -0.00244164 1.22749e-23)
(0.976262 -0.00907488 2.11026e-21)
(0.999215 -0.00555429 -1.2672e-23)
(1.17401 -0.0764096 3.01508e-21)
(0.999984 -8.26404e-06 1.91901e-24)
(1.01048 -0.0356797 -3.91071e-22)
(1.04344 0.105552 5.58291e-21)
(0.993629 -0.011573 -1.90645e-23)
(1.06968 -0.190277 -7.38051e-21)
(1.03407 0.0528805 -4.86728e-21)
(0.994388 -0.00252219 -4.73864e-22)
(0.983815 -0.0135135 5.80551e-22)
(1.00339 -0.00315998 3.22142e-22)
(0.999292 -0.00767527 -8.25155e-23)
(0.999765 -6.43069e-06 3.98565e-24)
(1.0052 -0.0163648 2.66e-23)
(0.903277 0.0208351 1.52937e-20)
(1.00085 0.0159806 1.22117e-20)
(0.987271 -0.0054732 1.45007e-23)
(0.994199 -0.00999321 -2.12345e-22)
(0.980665 0.0445797 -1.49267e-20)
(1.01288 0.0333331 2.22653e-21)
(0.93904 -0.0143203 1.27226e-21)
(1.00102 -0.000432146 -4.28537e-23)
(1.05715 -0.0981638 1.35543e-21)
(0.969735 -0.0729993 2.04667e-21)
(0.99817 -0.0153414 1.32295e-22)
(1.00074 -0.000949816 -6.81102e-23)
(1.08645 0.208657 1.52379e-21)
(0.994131 -0.00458791 -4.30643e-23)
(1.00602 -0.0048757 -1.33297e-22)
(0.979427 -0.0779222 2.07224e-21)
(0.98925 -0.101798 2.95797e-22)
(0.999972 -4.09306e-06 4.23412e-25)
(0.976632 0.125653 -1.69412e-20)
(0.999101 -2.05381e-05 -8.11771e-25)
(0.999999 -4.59277e-05 2.92193e-25)
(0.999529 -0.000183386 5.70048e-24)
(0.995337 -0.0478894 -4.84711e-22)
(1.26144 0.0181654 3.01029e-21)
(1.01144 -0.0350199 2.61704e-23)
(1.00584 -0.0045516 -9.12289e-23)
(0.998113 -0.000212246 1.12468e-22)
(0.940098 -0.0159776 -2.47168e-22)
(1.00003 -0.000417962 -3.60452e-25)
(1.00042 -0.00140712 3.85534e-25)
(0.997967 -0.000180234 -7.40687e-23)
(1.02621 0.00126273 4.03898e-21)
(0.997652 -0.00351244 -2.42755e-23)
(0.998973 -0.00516823 4.04161e-23)
(1.0256 -0.00134237 1.93322e-21)
(1.00011 -0.000341331 2.79627e-24)
(1.00003 -3.87173e-06 1.50386e-25)
(1.00441 -0.000542524 4.60524e-23)
(0.977838 -0.0284664 -7.86231e-22)
(0.978842 -0.000350023 -7.36483e-22)
(0.995784 -0.000335282 -3.44535e-22)
(1.01186 0.00321588 3.62171e-21)
(0.986163 -0.00100016 3.57924e-22)
(1.0163 -0.0178925 -2.41161e-22)
(0.999976 -9.60739e-06 1.54323e-24)
(0.997393 -0.00231654 -1.35259e-22)
(1.00069 -0.000942467 7.35161e-23)
(1.05744 -0.0946847 1.35684e-21)
(1.0187 -0.166669 4.67366e-21)
(0.998796 -0.000109877 5.92182e-23)
(1.00041 -0.000500412 -2.4868e-23)
(0.998887 -0.00504435 -1.35804e-23)
(1.00307 -0.007269 -1.6466e-22)
(0.990383 -0.000535756 -6.54885e-22)
(0.999962 -3.82914e-05 -5.55975e-26)
(1.17544 -0.184946 -7.31151e-21)
(1.00004 -0.000427522 1.67311e-25)
(1.02589 0.00119123 -2.84552e-21)
(0.997069 -0.00202998 -7.03667e-23)
(1.00012 -0.000331213 1.24788e-24)
(1.03474 0.0134367 -2.74968e-21)
(0.965775 -0.0695345 -2.04622e-21)
(1.00022 -3.73147e-05 1.34912e-23)
(1 -9.49758e-06 1.71404e-25)
(0.948553 -0.00309229 -1.54013e-21)
(1.01052 -0.152289 -7.43758e-22)
(0.992319 -0.00727443 -5.1379e-23)
(1.0108 -0.0530785 -1.60199e-22)
(1.02892 -0.0192763 -1.2615e-22)
(1.04961 0.102051 7.01399e-22)
(1.00007 -7.09284e-05 4.89734e-25)
(0.978259 -0.0279014 7.9626e-22)
(1.2253 -0.101918 5.42819e-21)
(0.96074 0.0678183 3.54431e-22)
(0.993556 -0.0113107 1.54752e-22)
(1.03273 0.0511424 5.97048e-21)
(1.11227 -0.0537812 -1.3489e-22)
(0.999891 -0.00217983 -7.15223e-24)
(0.811489 0.0572171 2.04178e-20)
(0.999527 -0.000386748 -3.84848e-23)
(1.02627 -0.109332 -1.02059e-21)
(0.941058 -0.015986 1.58668e-21)
(1.002 -0.00230764 -6.78668e-23)
(1.21478 -0.0276338 -2.15834e-21)
(0.992429 -0.000822968 -3.9365e-22)
(1.0087 0.168845 1.15464e-20)
(0.996944 -0.00023301 3.20513e-23)
(0.984247 -0.0145844 -3.05428e-23)
(0.999813 -0.00197951 -3.51219e-23)
(1.144 0.163605 1.22011e-21)
(0.999844 -0.015596 3.6281e-23)
(1.04811 0.12579 4.77538e-22)
(0.999562 -4.07416e-05 -1.47469e-23)
(0.994833 -0.00167054 -1.51291e-22)
(0.957269 0.15267 -7.21714e-21)
(1.03087 0.000161067 -3.27321e-21)
(1.0254 -0.00096501 2.2521e-21)
(0.973345 -0.0359637 1.88801e-21)
(0.999874 -2.81164e-05 4.21556e-24)
(1.00298 -0.00702128 -1.83545e-23)
(0.999852 -0.00083882 -1.30292e-23)
(1 -4.33088e-05 2.10483e-25)
(1.05749 0.00380524 8.26619e-22)
(1.00003 -4.4171e-06 1.96347e-26)
(0.982217 -0.0128971 1.35721e-21)
(1.21947 -0.10247 -5.11192e-21)
(0.878517 0.127341 -1.85854e-20)
(1.00988 0.156757 -2.57323e-20)
(0.96945 -0.060484 6.32772e-22)
(0.987107 -0.026511 5.06136e-22)
(0.979854 -0.00135408 3.51507e-22)
(1.03041 -0.0364246 2.03531e-22)
(1.00572 -0.0161544 -7.13334e-23)
(0.983698 -0.0141581 -8.01503e-22)
(0.96961 -0.0663309 2.82363e-22)
(1.04767 0.104898 -1.04099e-20)
(0.999514 0.0148111 2.40985e-20)
(0.998876 -0.000134087 3.25912e-23)
(1.006 0.0838056 -2.2001e-20)
(1.0564 0.00235414 2.65799e-22)
(1.17199 -0.0840462 1.31881e-21)
(1.01224 -0.014684 1.19286e-22)
(1.00083 -0.0143852 -1.91023e-22)
(1.01836 -0.0493199 -4.6027e-22)
(0.995206 -0.00161581 -3.58551e-22)
(0.997638 -0.000586122 -2.35478e-23)
(0.999953 -5.69263e-06 6.16202e-24)
(0.999146 -0.00786223 1.20695e-22)
(1.09128 -0.0522958 2.00425e-23)
(1.14488 0.16985 -2.09326e-21)
(1.00145 -0.00125409 3.18632e-23)
(0.975442 -0.0233352 -1.06871e-21)
(1.01402 -0.0150634 -3.74106e-22)
(0.999971 -1.35889e-05 -5.68218e-25)
(0.96952 -0.0633047 -1.00929e-21)
(0.851737 0.0988984 -9.46422e-21)
(0.994436 -0.00431298 5.34252e-22)
(0.999002 -0.00412817 3.70789e-23)
(1.01279 -0.0145237 -7.44389e-23)
(1.00186 -0.0426417 9.49282e-22)
(1.09448 0.0301068 9.55204e-22)
(0.999471 -0.00892708 -1.94823e-23)
(0.999974 -4.66182e-05 3.90064e-24)
(1.00001 -2.63379e-06 2.09951e-26)
(0.997607 -0.000534005 -2.60526e-23)
(0.955047 0.151467 1.04298e-20)
(1.04671 -0.0304474 2.7515e-22)
(1.02289 -0.166477 -1.18327e-21)
(1 -9.4902e-06 3.02233e-26)
(1.00739 -0.154894 4.7128e-22)
(1.0831 -0.00683175 -9.27132e-22)
(0.995401 -0.00014764 -1.6107e-22)
(0.943259 -0.00585089 -1.90778e-21)
(0.999078 -0.00405625 -3.74682e-23)
(0.999619 -0.000175405 -2.45068e-24)
(0.978958 -0.0252338 -2.36414e-22)
(1.00082 -0.00104306 -3.29274e-23)
(1.18016 -0.0745014 -2.70857e-21)
(1.00842 -0.000979673 -9.76584e-22)
(1.24247 0.108623 -3.07932e-22)
(0.999924 -0.00215142 9.21973e-24)
(1.00381 -0.0128352 2.46305e-23)
(1.00503 0.0108137 -9.59744e-21)
(1.26826 -0.108892 -5.06684e-21)
(1.00038 -0.000529744 -1.89201e-23)
(1.0004 -0.000469318 1.84764e-24)
(0.993943 0.106284 1.054e-21)
(0.993748 -0.0483926 -2.56975e-22)
(0.999316 -0.00878864 2.39004e-23)
(1.0117 0.0368342 1.17522e-21)
(0.972472 0.0228916 2.92336e-20)
(1.10345 -0.103355 -1.8268e-21)
(0.998751 -0.0238599 -1.15493e-22)
(1.25615 0.021296 -3.01006e-21)
(0.999325 -6.617e-05 -2.48287e-23)
(0.992146 -0.00379773 1.38802e-22)
(0.997008 -0.000245185 -8.91423e-23)
(1.01457 0.0318911 9.32792e-25)
(0.999987 -0.000689378 1.29027e-24)
(1.00813 -0.00119422 9.97624e-22)
(1.1171 -0.159515 9.57012e-23)
(1.00381 0.147438 2.52944e-20)
(0.906179 0.146641 -4.28681e-21)
(0.994558 -0.00251729 1.93663e-23)
(0.992097 -0.00709956 1.53301e-22)
(1.06721 0.121216 -6.27096e-21)
(1.0078 -0.0552672 1.13639e-21)
(0.999954 -6.81477e-06 -6.00661e-24)
(1.28824 0.101197 -2.53222e-21)
(1.02556 0.00177307 -1.21573e-21)
(1.02509 0.00174375 -8.28567e-22)
(0.99466 -0.0123195 -2.32355e-22)
(1.01744 -0.00184081 -1.55636e-21)
(0.945804 0.135329 4.15513e-21)
(1.0844 -0.165534 -1.05663e-21)
(0.979104 0.134821 4.15969e-21)
(0.995087 0.133712 -7.22693e-21)
(0.999997 -5.85282e-05 4.29475e-25)
(1.08818 -0.0507175 1.36408e-22)
(1.08695 -0.160922 6.94461e-22)
(0.997543 -0.00354385 6.30418e-23)
(1.00148 -0.00134435 -5.24882e-23)
(0.966888 0.0271728 6.99315e-21)
(1.04834 -0.0314387 -3.4296e-22)
(1.00025 -6.88194e-05 3.10446e-24)
(0.981001 -0.0542631 -2.43787e-21)
(0.968894 -0.0747927 -9.66278e-22)
(0.994946 -0.00171653 2.12766e-22)
(0.999894 -0.000191401 -5.32712e-24)
(1.06062 0.149321 -9.95688e-22)
(1.04477 0.0593149 9.18509e-21)
(1.00004 -0.000469053 -2.02347e-25)
(1.00373 -0.00339634 4.16375e-23)
(1.00481 -0.00341366 2.2639e-22)
(1.17191 -0.141952 5.59759e-21)
(0.973425 -0.0350004 -1.71007e-21)
(1.00006 -0.00055751 -8.01892e-25)
(0.999989 -2.35915e-06 -1.92715e-25)
(1.00044 -0.000151639 5.02067e-24)
(1.09285 0.0318119 -8.9584e-23)
(0.974483 -0.0239987 -8.56674e-22)
(1.00245 0.0428919 5.07397e-21)
(0.950633 -0.0408643 9.69015e-22)
(0.987844 -0.0264219 -5.31693e-22)
(0.978232 -0.00104968 -1.40131e-21)
(1.0134 0.0358302 -5.78973e-21)
(1.26066 -0.0104303 -2.87757e-22)
(0.998911 -0.000142584 5.97098e-23)
(1.00726 -0.00558425 -2.41993e-22)
(1.00077 -0.00103185 3.73114e-23)
(0.977491 0.147965 -1.04557e-20)
(0.976358 -0.0218109 4.58946e-22)
(1.00099 -0.000263041 -1.79563e-23)
(0.993088 -0.00338962 -1.90911e-22)
(1.16825 -0.0493273 -9.86136e-22)
(0.999555 -0.00959511 -5.32413e-23)
(0.989288 -0.0116681 -1.06764e-22)
(1.00021 -0.000130964 -9.29871e-24)
(1.00021 -5.02094e-05 -4.1019e-25)
(0.847594 0.105591 1.42535e-20)
(0.992484 -0.00122657 -2.44756e-22)
(0.995575 -0.00445095 2.21417e-22)
(0.99965 -0.00175431 -3.01658e-23)
(0.999342 -5.06229e-05 -3.41227e-24)
(1.0573 0.0993216 -3.47444e-21)
(1.1224 -0.163127 2.99506e-22)
(0.985194 -0.0395347 3.21496e-22)
(1.00001 -1.92887e-06 -3.62069e-26)
(0.999999 -3.45889e-05 1.91268e-25)
(0.975442 -0.0225612 1.20908e-21)
(0.993782 -0.0018056 5.03731e-23)
(0.995239 -0.00206294 -2.92415e-23)
(1.0136 -0.00518881 4.73736e-22)
(1.00541 -0.00232319 8.14876e-23)
(1.00009 -0.0159793 -6.62362e-23)
(1.13377 -0.0324127 -3.42067e-22)
(0.982966 -0.00410798 -2.98685e-22)
(0.981302 0.132293 -3.53626e-21)
(1.0129 -0.0255577 -6.15567e-23)
(1.00022 -0.000131486 1.03584e-23)
(0.968792 -0.0593023 9.26476e-23)
(0.983848 -0.0349778 -1.10404e-21)
(1.20402 -0.018909 -9.30215e-22)
(0.997305 -0.00584461 -6.75128e-23)
(0.988142 -0.0465971 -3.81754e-22)
(0.999983 -5.62169e-06 1.04905e-24)
(0.921841 0.107475 -1.46928e-20)
(1.01452 -0.00218199 8.71758e-22)
(1.00007 -0.000224112 -2.69384e-24)
(0.903052 0.0284803 -1.98359e-20)
(0.98422 -0.0396724 7.1133e-22)
(0.999983 -6.21239e-06 1.61173e-25)
(1.00134 -0.00122488 1.55065e-23)
(0.968738 -0.0620011 -5.53651e-22)
(1.03674 -0.0388214 6.21593e-23)
(1.04892 -0.0143207 9.83831e-22)
(0.999993 -3.41034e-06 3.19901e-25)
(0.992445 -0.00062687 1.94774e-22)
(1.01932 -0.0483312 8.69453e-22)
(0.995087 -0.0015751 2.94192e-22)
(0.99958 -4.66985e-05 -8.01584e-23)
(0.992299 -0.00392217 3.60235e-24)
(0.976964 0.0475578 1.72579e-21)
(0.993233 -0.0120938 -2.78952e-22)
(0.989739 -0.0114358 7.79171e-23)
(1.00157 0.0234097 -4.91394e-21)
(0.997442 -0.00218788 7.02658e-23)
(0.971074 0.149851 -1.29855e-21)
(0.999982 -6.12578e-06 -5.27573e-25)
(0.98977 -0.0266876 2.18706e-22)
(0.97947 -0.0742249 2.45708e-21)
(0.989021 -0.046973 6.54818e-22)
(1.20849 -0.114738 1.42198e-21)
(0.998859 -0.00540541 9.12131e-23)
(1.00843 -0.0237667 -8.87621e-24)
(0.999908 -0.00231802 1.65285e-24)
(0.983872 -0.0205788 -6.08283e-22)
(1.03781 -0.0421826 -1.85434e-23)
(0.999972 -1.29089e-05 2.9515e-24)
(1.00001 -1.02776e-06 -5.75597e-26)
(0.994097 -0.000405998 1.32894e-22)
(0.980146 0.0936419 1.08874e-20)
(1.01194 -0.0197649 3.79133e-22)
(1.00242 -0.00345499 -6.49804e-23)
(0.93902 -0.0298967 1.31058e-21)
(1 -8.41015e-06 9.05312e-26)
(1.00091 -0.00113981 -5.98079e-23)
(0.999965 -0.000656916 -9.14581e-25)
(1.0133 -0.0189939 4.52175e-22)
(0.984164 -0.0152268 1.07051e-22)
(0.999647 -0.00027364 1.01561e-23)
(0.993696 -0.0107964 1.06527e-22)
(0.98841 -0.00675879 -1.1117e-22)
(1.00095 -0.000157798 -4.95044e-24)
(0.999982 -6.76929e-06 -3.24871e-25)
(1.24004 -0.0698678 -5.37049e-21)
(0.999686 -0.00172505 3.25087e-23)
(1.07985 -0.0117601 6.86065e-22)
(1.02113 0.14409 2.59537e-20)
(1.06156 0.11979 -5.80949e-21)
(1.00023 -0.0201663 -2.46954e-22)
(1.00531 -0.00210837 -2.69388e-23)
(1.01779 -0.00146472 9.53683e-22)
(0.999954 -0.00237013 -1.87653e-24)
(0.997835 -0.0101854 1.14395e-22)
(1 -1.56014e-05 3.34087e-25)
(0.991945 0.134121 -5.22603e-22)
(0.988369 -0.0153448 1.51661e-22)
(1.01334 -0.00479097 -3.38845e-22)
(0.983343 -0.00426532 6.21672e-22)
(1.00335 -0.0126145 3.37407e-24)
(0.997465 -0.00574903 1.47286e-22)
(0.999904 -0.0001961 1.27893e-24)
(1.00001 -1.13753e-06 -3.70888e-25)
(0.995724 -0.00443429 -1.61253e-22)
(1.05687 -0.0137595 -5.18221e-22)
(1.00457 0.0451217 7.84978e-22)
(1.00115 -0.000465878 -7.29911e-23)
(0.973345 -0.0555801 -5.15646e-22)
(0.976318 -0.0211521 -2.02202e-22)
(0.992632 -0.000490853 -7.29798e-22)
(1.29656 0.0536967 2.12587e-21)
(0.998783 -0.000939574 -3.55215e-23)
(1.00339 -0.0142585 -4.66646e-23)
(0.99486 -0.0027137 1.48788e-22)
(0.999912 -0.000188956 1.06864e-24)
(0.968732 -0.0648585 6.3452e-22)
(1.00198 0.0363148 -7.94011e-21)
(1.03327 0.0463218 -6.0927e-21)
(0.978735 -0.0142069 -9.77825e-23)
(1.00146 0.0342693 -3.35607e-22)
(1.00008 -0.000210396 5.05914e-24)
(1.00001 -1.15618e-06 1.03462e-25)
(1.2826 0.0972278 7.33895e-22)
(1.21259 -0.0206855 1.72589e-21)
(0.904265 0.109005 -7.06731e-22)
(0.994682 -0.0794515 1.93075e-21)
(0.978464 -0.00144983 -4.549e-22)
(1.16775 -0.0424234 1.45692e-21)
(1.00109 -0.000484956 8.26418e-23)
(0.994663 -0.0036558 8.5138e-23)
(1.00042 -0.00016086 -4.79776e-24)
(0.989982 -0.000686343 -1.5547e-22)
(0.9888 -0.0125549 -2.21584e-22)
(0.999995 -3.0841e-05 -1.18252e-24)
(0.999181 -3.18654e-05 1.41464e-23)
(1.00334 0.144066 -2.47154e-20)
(0.999878 -0.000682153 1.19374e-23)
(0.931043 0.0994378 1.84239e-20)
(1 -1.46455e-05 -2.55959e-25)
(1.29526 -0.0486923 -5.69776e-21)
(1.07969 -0.0140686 -1.50241e-21)
(1.13399 -0.0283207 3.56541e-22)
(1.00097 -0.000459063 4.92183e-24)
(1.00017 -3.99538e-05 8.18782e-24)
(0.984939 0.0885777 -1.65596e-20)
(1.08309 -0.00945134 3.10271e-21)
(0.978812 -0.0755605 -2.23358e-21)
(1.02269 0.0451538 2.80628e-21)
(0.997554 -0.0203976 9.87832e-23)
(0.987397 -0.00515805 -1.61683e-22)
(0.996201 -0.000209855 -8.87266e-23)
(1.15349 0.205145 -9.09187e-21)
(0.977165 -0.025321 7.57846e-22)
(1.03099 -0.03493 -1.65113e-22)
(0.993946 -0.0107012 -6.12778e-23)
(1 -8.41361e-06 -7.72435e-28)
(0.998796 -0.000887328 -3.02152e-23)
(1.00567 -0.00587958 1.39255e-22)
(0.982696 -0.00761046 7.93721e-22)
(0.979277 -0.0143312 1.47076e-22)
(0.959133 -0.0373112 -2.19282e-22)
(0.98251 -0.00806836 -6.02184e-22)
(1.01817 0.00294892 4.86656e-22)
(0.998017 -0.00013628 1.85731e-24)
(0.943807 -0.0343839 6.81571e-22)
(0.986785 -0.000878363 -2.21691e-22)
(1.00004 -0.000202928 2.71122e-25)
(0.988465 -0.000705121 -1.5326e-22)
(1.0314 -0.037809 -1.70176e-22)
(1.01739 0.00315366 -2.69295e-21)
(0.975302 -0.0254079 -1.87019e-22)
(0.999989 -6.18295e-07 -5.04375e-27)
(0.983436 -0.0155473 1.61268e-22)
(1.0019 -0.0145413 2.63767e-23)
(1.00131 -0.0011365 1.99572e-23)
(1.10359 -0.174352 -3.29737e-21)
(1.00174 0.0333748 -1.85364e-20)
(1.00085 -0.00112532 5.54982e-23)
(0.988663 -0.000532437 2.04016e-24)
(1.09449 -0.10111 8.15526e-23)
(1.02677 0.000301349 4.02097e-21)
(0.991017 0.0299127 -1.86206e-21)
(1.00174 -0.00240415 1.76831e-23)
(1.00003 -0.0209998 7.66042e-23)
(1.11812 0.147238 -1.7017e-21)
(1.01548 0.0283155 -1.42652e-20)
(0.990763 -0.0266406 5.83781e-22)
(1.00453 -0.00341275 -2.53416e-23)
(0.954614 -0.0439731 1.00035e-21)
(0.999998 -4.16074e-06 2.51208e-25)
(0.954856 -0.00187372 -6.9944e-22)
(1.00008 -6.60392e-05 1.0253e-24)
(1.09127 -0.101293 -4.1364e-21)
(0.999973 -2.91442e-06 -3.31503e-25)
(1.00002 -5.8187e-05 2.8417e-25)
(0.999605 -0.0234738 -9.2811e-23)
(1.27499 -0.00448897 2.57661e-21)
(1.03759 0.184145 1.06003e-20)
(1.03469 -0.0391774 -2.10974e-22)
(1.01334 -0.0151937 2.48946e-22)
(0.999999 -3.14719e-06 -7.7184e-26)
(0.994235 -0.00434318 -2.88389e-22)
(1.00008 -2.02474e-05 -7.88349e-25)
(0.997039 -0.00232773 1.00553e-22)
(1.00002 -5.40046e-05 -2.15407e-25)
(1.04913 -0.012292 -3.06322e-21)
(0.999561 -0.00045514 -3.95606e-23)
(1.06304 0.0615132 5.76434e-21)
(0.999884 -0.000209107 -8.02829e-24)
(0.987854 -0.00504254 -2.73672e-22)
(0.961819 -0.00101615 1.64246e-21)
(0.996004 -0.000289365 -1.14537e-22)
(0.984661 0.046095 1.78827e-20)
(0.98379 -0.000684255 4.1414e-22)
(1.0158 -0.103594 1.77543e-22)
(0.994799 -0.00383534 4.42287e-22)
(1.02491 -0.00266882 -8.1021e-22)
(0.970978 -0.0562364 2.23121e-21)
(1.01894 -0.00137904 -2.67573e-21)
(1.03488 -0.0737024 -8.37611e-23)
(0.999989 -1.94386e-06 5.03574e-26)
(0.999011 -0.0198128 8.37159e-23)
(0.996262 -0.000276978 1.39583e-23)
(1.00023 -8.85629e-05 6.29812e-24)
(1.00008 -1.72046e-05 1.27651e-24)
(1.15964 0.208424 9.83952e-21)
(0.995397 -0.00206963 2.46693e-22)
(1.02655 0.00112742 4.61414e-21)
(1.00063 -0.0215296 9.50837e-23)
(1.00081 -0.000295274 1.90304e-23)
(1.02311 -0.00845313 -2.88939e-21)
(1.00015 -3.76487e-05 -1.77646e-23)
(0.999981 -3.55521e-06 -4.69465e-26)
(0.955389 -0.00249716 5.39654e-22)
(0.996717 -0.00118024 1.1156e-22)
(1.00003 -5.25264e-05 4.19513e-25)
(1.07513 0.11798 4.13974e-21)
(0.865565 0.086457 -2.64466e-20)
(0.999806 -0.000221442 1.93623e-23)
(0.96348 -0.00205412 -4.53915e-22)
(1.00001 -1.32786e-06 7.70241e-26)
(0.941981 0.132267 -1.69576e-20)
(1.3027 -0.0505893 -7.38398e-21)
(0.971765 -0.0452236 -1.78229e-21)
(1.00004 -0.000538947 -9.06353e-25)
(1.02993 -0.0336386 4.52219e-22)
(1.03054 -0.00286687 -1.12316e-21)
(1.03162 0.000119823 3.37991e-22)
(1.05011 -0.0151038 -3.7068e-22)
(0.999652 -0.00184893 -4.70934e-24)
(0.999875 -0.000817722 1.03612e-23)
(0.986657 -0.0152287 -4.79203e-22)
(1 -7.45112e-06 2.58169e-25)
(1.00001 -1.0411e-06 -2.0119e-26)
(0.976395 -0.0248491 -4.44087e-22)
(0.995114 -0.0607791 -1.03482e-21)
(0.960292 -0.0366633 -5.60097e-23)
(0.888097 0.122745 -5.8279e-22)
(1.00018 -2.44209e-05 -7.5839e-24)
(1.0117 -0.0777894 -2.35315e-21)
(1.00703 -0.00523995 -2.48548e-22)
(0.999982 -3.92825e-06 5.34348e-25)
(0.999026 -0.00384325 -8.05712e-23)
(1.00003 -0.000456031 -3.87742e-25)
(0.995672 -0.0125125 1.76e-22)
(1.00004 -9.69526e-06 6.73061e-25)
(1.03675 -0.0726213 -2.01982e-22)
(1.01856 -0.00168362 2.59351e-21)
(0.973011 0.147169 3.64844e-21)
(1.0244 -0.00252354 3.0479e-21)
(0.999744 -0.00021678 1.50265e-23)
(1.00043 -0.000378159 -1.83503e-23)
(1.16822 -0.148482 -5.59918e-21)
(1.02652 0.000863018 -3.71195e-21)
(0.997106 -0.000380437 1.0084e-22)
(1.00001 -1.66228e-06 1.75676e-25)
(1.09366 0.101416 -6.56178e-21)
(1.05911 -0.186125 -1.2513e-21)
(0.994977 -0.0778084 -8.65729e-22)
(0.986423 -0.000747571 -1.16813e-22)
(0.999984 -1.94801e-05 1.07689e-24)
(0.999747 -0.000204376 -8.79154e-24)
(1.06276 -0.190955 3.4711e-21)
(0.996385 -0.0487971 -2.86511e-22)
(1.0404 0.0325214 8.61403e-22)
(0.980654 0.12769 1.52638e-20)
(1.01506 -0.100889 1.29189e-21)
(0.998825 -8.17899e-05 -1.86146e-23)
(0.999984 -9.095e-06 -1.24556e-24)
(0.964312 -0.047834 1.72237e-21)
(0.972368 -0.0958031 -2.42118e-21)
(0.999813 -0.000229444 1.04261e-23)
(1.00907 -0.0231274 1.06796e-22)
(0.991083 -0.0259407 -1.0391e-22)
(0.995633 -0.00222013 9.75242e-23)
(0.998542 0.0282927 -1.39795e-20)
(0.9988 -0.00052857 6.62875e-23)
(1.05017 -0.0561692 -2.22962e-22)
(1.24963 0.162616 -1.23896e-21)
(0.992712 -0.00319571 -2.78463e-22)
(0.901998 0.102751 -2.60636e-21)
(0.912412 0.0487163 8.31347e-21)
(0.999973 -4.93293e-05 -3.93321e-24)
(0.999974 -0.000718829 -1.16612e-24)
(0.983983 -0.000909636 -2.65261e-22)
(1.01265 -0.00467979 -6.13927e-22)
(0.964985 -0.00189725 9.48824e-22)
(1.00493 -0.00423727 -2.59302e-22)
(0.992973 -0.00320691 2.60506e-22)
(0.999472 -0.0004849 -2.99835e-23)
(0.952271 0.133111 -2.99704e-21)
(1.06356 0.0585859 -8.97391e-21)
(1.00215 -0.00233179 4.56513e-23)
(0.819575 0.0541413 -5.21443e-21)
(1.00001 -9.36578e-07 -1.06452e-25)
(1.02489 0.00676868 -6.55841e-21)
(0.987149 -0.0947947 1.80457e-21)
(1.01402 -0.0780774 9.22911e-22)
(1.00009 -0.000204368 -2.48023e-25)
(0.963337 -0.00103657 7.79048e-22)
(1.02235 0.0061433 3.71378e-21)
(1.01231 -0.00500181 5.07245e-22)
(1.03001 -0.0017332 1.5742e-21)
(0.999592 -3.66394e-05 5.65082e-23)
(0.999555 -0.000485004 3.58332e-23)
(1.02251 -0.047365 2.69301e-22)
(0.99677 -0.00127169 -3.20967e-22)
(0.988005 -0.011403 -5.21257e-22)
(0.999145 -0.00348291 4.77796e-24)
(1.09159 0.039805 3.97957e-21)
(0.998736 -0.0206363 -5.6794e-23)
(0.995316 -0.00471082 5.59851e-24)
(0.936069 -0.0252714 -1.92029e-21)
(0.99662 0.106196 1.72625e-21)
(1.117 -0.0508123 7.74743e-22)
(1.02259 -0.00810156 2.32356e-21)
(0.999635 -0.000175903 1.08316e-23)
(0.999529 -0.000317061 4.86905e-24)
(0.983179 -0.0203148 1.2199e-21)
(1.00093 -0.00122676 -4.45776e-23)
(0.997575 -0.000671567 -1.82468e-23)
(0.999985 -1.8439e-05 -4.08918e-25)
(0.999687 -0.00188399 8.7961e-25)
(1.02171 0.00565167 -1.447e-21)
(0.98388 0.0924853 -1.58867e-20)
(0.999888 -1.44787e-05 2.52635e-24)
(1.19002 0.185678 -6.48024e-21)
(0.999995 -3.88426e-05 4.89366e-25)
(0.996941 -0.00275817 1.36857e-22)
(0.999993 -9.19804e-05 5.10734e-25)
(1.00497 -0.00366896 -1.15293e-22)
(1.24015 -0.0776585 4.09969e-21)
(0.999966 -4.12649e-05 2.99962e-25)
(0.999965 -4.42604e-05 2.18843e-24)
(0.949658 -0.041293 -9.25574e-22)
(1 -7.46923e-06 2.82179e-27)
(1.05354 -0.0152441 3.06091e-21)
(0.987314 -0.0405923 1.03701e-21)
(0.999977 -0.000631244 1.06619e-24)
(1.09105 0.0763738 -5.02777e-21)
(0.999999 -2.77446e-05 -4.25959e-25)
(0.999639 -3.78157e-05 4.9612e-23)
(0.999923 -3.40769e-05 7.96463e-26)
(0.995483 -0.00472012 -8.30381e-23)
(0.999681 -0.00150131 -1.54608e-23)
(0.994211 -0.000308369 -8.93606e-23)
(0.994228 -0.114644 -2.06418e-22)
(0.999717 -0.00146179 1.0362e-23)
(1.00397 -0.00341278 -8.93847e-23)
(0.999981 -2.63998e-06 -1.97794e-25)
(1.04024 0.180561 -2.05596e-20)
(1.04833 -0.0570887 -5.88847e-22)
(1.12072 -0.0522098 2.88608e-22)
(0.967391 -0.00568509 1.02354e-21)
(0.978872 -0.00409302 -1.90838e-22)
(0.999111 -0.00375898 1.33104e-22)
(1.00275 -0.00260257 1.24283e-22)
(1.05173 0.075629 2.52338e-21)
(0.983187 -0.0359653 1.50088e-22)
(1.14246 0.123726 2.12082e-21)
(0.959489 -0.0128 -1.83282e-21)
(0.996834 -0.0026625 -1.28885e-22)
(0.999993 -4.07113e-06 -5.70891e-25)
(0.994684 -0.00272289 -1.79353e-22)
(1.01251 0.170993 5.2882e-21)
(1.08156 0.0880779 -1.19463e-21)
(0.98247 -0.0539636 8.38057e-22)
(0.945575 -0.00546371 4.18332e-22)
(1.0463 0.17138 5.59454e-21)
(0.992067 -0.00055985 2.29856e-22)
(0.983496 -0.0864895 1.42493e-22)
(0.999993 -8.80453e-05 1.18705e-24)
(0.986247 -0.0407338 1.28437e-21)
(0.999233 -0.000219111 -7.02947e-23)
(0.832421 0.092229 -1.49408e-20)
(0.978744 -0.0705682 -1.84113e-21)
(0.999925 -3.06499e-05 4.85094e-24)
(0.94215 -0.0176435 -1.06908e-22)
(0.982972 -0.0381458 6.90725e-23)
(1.03671 0.0838871 9.26242e-21)
(0.997608 -0.000733031 -1.71916e-22)
(0.981244 -0.0367205 -4.46684e-22)
(0.997656 -0.0104392 -1.59924e-22)
(0.999698 -0.0226873 -1.92011e-22)
(0.998831 -0.000537978 -4.52962e-23)
(1.03523 0.0821257 -1.12583e-20)
(1.01545 -0.161591 2.05207e-21)
(0.98337 -0.0161839 -3.57298e-22)
(0.987189 -0.0141675 7.75986e-24)
(0.987957 -0.00476357 -1.10368e-22)
(1.00497 -0.00199239 -1.06348e-22)
(1.04843 0.166707 2.18198e-20)
(0.983371 -0.0131271 1.61199e-22)
(1.01472 0.0425869 6.16758e-21)
(1.00254 -0.00208623 9.46663e-23)
(1.21584 -0.113434 -7.66727e-23)
(0.92769 0.106377 2.75541e-21)
(0.99191 -0.000436084 -7.96109e-22)
(0.999797 -3.90689e-05 1.00402e-23)
(1.0551 0.10233 2.71568e-21)
(1.0001 0.138046 -2.00833e-20)
(1.02189 -0.0456359 -3.46615e-22)
(1.0813 -0.0518619 -8.89461e-23)
(0.995456 -0.0129702 -1.97597e-22)
(0.967887 -0.00514295 -6.07573e-22)
(1.11454 0.143649 6.73108e-21)
(0.96306 -0.0479689 2.81624e-22)
(0.999982 -1.88118e-05 1.36962e-24)
(0.99312 -0.000108618 -4.10918e-22)
(1.00003 -5.02427e-06 6.52661e-25)
(0.995866 -0.000259963 3.10885e-22)
(0.999981 -2.00133e-05 -2.13514e-24)
(0.99797 -0.0145707 2.69468e-22)
(0.999126 -3.53476e-05 2.49589e-23)
(0.997431 -0.00545038 1.70935e-23)
(1.18473 -0.133764 -9.99592e-22)
(0.999458 -0.000371369 2.56124e-23)