/*--------------------------------*- C++ -*----------------------------------*\
  =========                 |
  \\      /  F ield         | OpenFOAM: The Open Source CFD Toolbox
   \\    /   O peration     | Website:  https://openfoam.org
    \\  /    A nd           | Version:  7
     \\/     M anipulation  |
\*---------------------------------------------------------------------------*/
FoamFile
{
    version     2.0;
    format      ascii;
    class       volScalarField;
    location    "31";
    object      p;
}
// * * * * * * * * * * * * * * * * * * * * * * * * * * * * * * * * * * * * * //

dimensions      [0 2 -2 0 0 0 0];

internalField   nonuniform List<scalar> 
7807
(
1.49089
1.21822
1.62885
1.50925
0.717988
0.227969
1.65734
0.913316
0.467322
1.29778
0.178556
0.809574
0.959953
1.17619
1.30535
1.04859
1.49589
1.00574
0.992712
1.18058
1.25777
0.751038
1.13317
1.4573
1.02479
1.49845
0.708588
1.21126
1.40686
1.00802
1.06764
1.69503
1.13381
0.618991
0.389347
1.25982
1.01969
1.64662
0.970944
0.537447
0.972464
1.04331
1.17893
1.23142
0.487638
0.289105
0.743937
0.962892
0.297739
1.18091
0.854818
1.20125
1.04772
1.13639
1.25949
0.905325
0.98453
0.913061
1.10244
0.617522
0.240951
0.887816
1.17586
0.817099
0.622203
1.06851
0.459362
0.0393291
1.35088
0.955275
0.275956
1.16002
1.00926
1.10538
0.987165
1.13592
1.62068
1.25182
1.30176
1.16242
0.946748
1.70028
1.31338
1.09815
0.826718
0.794702
0.925913
1.03738
0.72178
0.846242
1.41293
1.23272
0.40167
0.962237
0.870869
1.06606
1.1599
1.13858
0.826443
0.690064
1.14046
1.31082
0.856606
0.170019
1.24184
1.42276
1.88413
0.910698
0.0109696
1.17795
1.49427
1.18316
0.0178314
1.18746
1.42254
0.633536
1.19674
1.37016
1.14394
1.11655
1.15071
1.68718
1.18264
1.04378
1.13461
0.752461
1.04552
0.981439
0.650078
1.06163
1.19787
1.29841
0.653952
0.730381
1.11498
1.48755
1.9348
0.150461
0.972688
1.24167
1.10523
1.16245
1.13774
1.09729
1.89072
1.1607
1.40894
1.10418
1.0991
1.68242
1.25047
1.23834
0.806123
1.33466
1.31043
1.61522
1.14541
0.960538
1.73117
0.284512
0.96706
1.4682
0.177399
0.90927
0.883879
1.54824
1.54979
1.72455
0.907718
0.858899
0.046623
1.1083
0.623248
1.22459
0.983696
1.08495
1.25781
1.39918
0.409841
0.650286
1.51211
0.234345
0.379332
1.64892
1.21785
1.17323
1.14144
1.09581
1.15813
1.2538
0.178222
1.15571
1.40498
0.860878
0.306742
1.44211
0.729378
1.05554
1.1526
0.0466386
0.788839
1.49675
1.43034
1.6346
1.19736
1.18541
1.1766
1.22577
1.49478
0.489847
0.225025
1.7457
1.03673
0.650578
1.1543
1.05111
1.58695
1.59929
1.16203
1.70805
0.711426
1.01993
1.14975
1.27657
1.17935
1.46427
1.74654
0.385473
1.04124
1.38376
0.943091
1.36683
0.727044
1.70364
1.61723
0.920185
0.98883
0.528233
1.39985
0.347259
1.00873
1.16082
0.307096
0.842056
0.719514
1.40631
0.195256
0.852463
1.15981
1.66614
1.28893
1.74559
0.221788
1.15083
0.544138
1.62882
0.880607
1.91178
1.00285
0.795345
1.18658
1.23202
0.625527
0.481989
0.629564
0.949975
1.17825
0.204409
1.1429
0.863533
0.412865
0.665538
1.78133
0.937649
0.630455
1.81797
0.839984
1.49145
0.541226
1.10663
0.0637588
1.12931
1.26842
1.26607
1.1045
0.643707
1.17683
1.06338
0.444417
0.619764
0.877214
0.951438
0.839649
0.800189
1.10128
1.18255
1.08968
1.23999
1.13001
1.58234
1.592
0.760391
1.24465
0.0395543
0.899993
1.0671
1.44891
1.33281
0.359387
0.891282
1.11649
1.41431
0.749094
0.863116
0.749079
1.31365
1.18499
1.55019
0.782978
1.22841
0.399451
0.987508
0.294786
1.09203
0.546069
1.12264
1.22511
1.12643
1.10866
1.02574
0.594413
1.18466
1.06946
1.32173
1.40913
1.15848
1.2245
1.07173
0.94425
1.16973
1.71044
1.22636
1.20155
1.74664
0.796905
0.785121
1.22903
0.80474
1.15764
0.942524
0.829913
0.77785
1.3988
0.432577
0.615739
0.325504
0.828593
1.00236
0.0800199
0.698221
1.09774
1.6687
1.11895
1.03106
1.75846
1.6113
1.30013
1.25343
1.11703
0.950313
1.53246
0.975399
1.52843
1.16083
1.18144
1.43304
1.52648
1.13866
1.32296
1.46181
1.50261
1.2253
0.854132
0.896939
0.372986
1.15059
0.989811
0.817063
0.40941
0.768707
1.17726
1.343
1.05877
1.02277
0.888122
1.224
0.959232
0.969073
1.43965
0.752645
0.265687
0.454352
0.381477
1.08204
1.39133
0.924076
1.17813
1.17322
1.65294
0.981979
0.981331
0.919226
1.76569
0.703117
1.54451
1.41476
0.377816
1.15973
0.841631
1.16469
0.609672
1.30645
1.0784
0.97062
0.70095
1.39256
1.41758
1.17136
1.10144
0.885158
1.14163
1.33096
1.74617
1.20511
0.999503
0.0197875
1.02891
0.814678
1.17659
1.17692
1.23414
1.69352
1.40032
1.1845
1.45081
1.78954
1.14464
0.818701
1.52904
0.79767
0.495425
0.984671
0.345133
1.16948
1.07584
1.1281
0.810648
1.44766
0.806254
0.244547
1.17841
0.79427
1.28686
1.14782
1.13658
1.27907
1.38515
1.33607
1.34179
0.519954
1.33642
1.33066
0.662922
1.0499
0.621102
1.11777
1.12966
0.903054
0.744307
1.39347
0.193153
0.475552
0.79416
1.08319
1.14661
1.11674
1.13059
1.17643
1.17606
1.18311
1.51633
1.23459
0.943778
1.70617
1.1615
1.00924
1.11924
1.06613
1.06603
1.00098
1.19749
1.22419
0.261983
1.17548
0.333445
1.60122
1.35979
0.903395
0.982206
0.44378
1.71669
1.55205
1.32046
1.40341
1.1631
2.09703
0.416031
1.23103
1.01969
1.40497
1.75474
1.31978
1.39057
1.02191
0.479837
1.39186
1.21262
1.72852
1.28559
1.47944
0.958851
1.67301
1.54049
0.982263
0.962631
1.37148
1.14899
0.442481
1.02116
1.15832
1.17402
1.01913
1.02233
0.481589
1.54977
1.01197
0.383295
1.17978
0.630309
0.499889
1.03866
1.4672
1.17944
1.76026
0.291524
1.4624
1.16876
0.465183
0.138818
1.40299
1.46115
0.891962
1.44126
0.202767
1.4533
1.16234
0.996662
1.86574
1.15084
1.39608
1.09646
1.44977
1.45657
1.05294
1.08152
1.00119
0.856316
0.508837
1.00577
1.51576
0.241088
1.44499
1.18225
1.62251
1.43316
1.15877
1.72913
0.77928
1.14612
1.19812
1.10619
0.94414
1.16637
1.25443
1.71652
0.249116
0.798138
1.18283
0.0611652
1.59765
0.788614
0.0707339
0.464651
0.552469
1.08731
1.16796
0.764696
0.323202
0.950173
1.03986
1.1771
1.19382
1.14104
0.168378
1.16165
1.02418
1.37622
1.64906
0.867158
1.3804
0.441043
1.00984
1.27733
0.948014
1.47962
1.02282
1.23638
1.28497
1.39779
1.07247
0.992328
1.42746
1.17403
1.62641
0.985038
1.49699
0.981378
0.716231
1.38048
1.14722
1.29657
0.780672
0.0595317
1.17558
1.43596
0.866038
1.37144
1.0172
1.16217
1.21367
1.12137
0.776121
0.955792
1.17313
1.10511
0.988966
0.579722
1.63728
1.37503
1.18336
0.490801
1.54315
0.167065
0.476998
1.38309
1.12404
1.41534
1.21104
1.12779
1.21741
1.17121
1.27629
0.741992
1.13828
0.286831
1.02733
1.47107
1.04951
0.83988
1.16127
0.795745
0.705847
1.77974
0.991456
0.670432
0.051218
1.35816
1.12345
0.62186
0.830829
1.39682
1.32404
1.13601
0.114109
1.42124
1.07563
1.43815
1.06125
1.09029
1.11229
0.372282
1.27897
1.31719
1.30199
1.186
1.51886
0.928371
1.42254
1.04258
1.17588
0.568867
1.08051
0.570124
1.40504
1.47688
0.771708
1.1402
1.06752
1.19107
1.18669
0.784413
1.22417
1.72575
1.28539
0.438373
1.31913
0.984413
2.76357
1.01256
1.10353
1.16203
1.10604
1.08265
0.955842
1.04006
0.94482
1.24883
0.365303
1.17315
1.25986
1.57323
1.13366
1.42093
0.780975
1.20544
1.14319
1.46472
0.95574
0.463364
1.07691
0.995734
1.22173
1.09025
1.0909
1.24659
1.03615
1.15813
1.17382
0.0726739
1.26599
1.1719
1.40084
1.21052
1.29319
1.18306
1.53532
1.19761
1.12191
1.16631
1.8727
1.18663
1.01933
1.17674
1.18523
1.17937
1.19134
1.41876
0.843249
1.52299
0.976523
0.629975
0.817003
1.3015
1.67909
0.950772
1.17364
1.40897
0.158095
1.07945
1.16605
1.23648
0.97605
0.817183
1.13714
0.97809
0.187418
1.14909
1.49356
1.16248
1.04535
0.765249
1.40919
0.649163
0.729853
0.558887
0.802295
1.31378
1.18351
1.0937
1.05882
0.304062
1.17815
1.22263
1.16892
1.12609
1.09077
0.484641
1.04201
1.16099
1.29755
1.6334
0.857487
1.15893
0.909231
1.19451
1.39796
0.566231
0.504977
1.37872
1.28419
1.13363
0.852276
0.789539
1.1571
0.561463
1.15846
0.99531
1.58164
1.49034
1.20664
1.17306
0.950225
1.137
1.27019
1.17496
1.16963
0.0554504
1.26258
1.09345
1.17905
1.15862
1.14974
0.59191
0.846006
1.43587
1.11339
0.0315189
0.842442
1.19321
0.437166
1.17704
0.405778
1.06132
1.17567
1.2036
0.401263
0.194418
1.32535
1.17873
1.74006
1.48932
1.25488
0.79518
1.1519
0.467705
1.19535
1.18428
1.26947
1.04345
1.47968
1.1369
0.608325
1.13236
1.17578
0.766139
1.18315
1.15881
1.13321
1.10991
1.22634
1.1505
1.09086
1.19885
1.42034
1.18858
0.00914165
1.18065
1.16034
1.19254
1.0884
0.640292
1.16312
1.17857
1.16306
1.15768
1.37676
1.19557
1.09273
1.10423
1.19938
1.18794
1.18507
0.555326
1.35549
1.44621
0.915358
1.44042
1.18293
1.1959
1.18108
1.43459
1.2928
1.72148
0.0622976
1.3259
1.40813
1.00476
0.722415
1.01942
1.25283
0.314792
1.02752
1.16869
1.01774
1.05476
0.39316
1.20637
0.626472
0.647036
1.48987
1.05531
1.33333
1.12158
1.44308
1.12263
0.697888
1.18627
1.07686
1.67387
0.674798
1.16695
0.622098
0.582489
1.10801
1.19738
0.282272
0.92312
1.16775
0.714285
0.218959
0.411751
1.36187
1.22551
1.01929
0.649968
1.04303
1.01844
1.06056
0.617464
1.54847
1.19449
1.46111
1.51586
0.443409
1.32508
1.34346
0.640082
0.558206
0.724454
1.248
1.18794
1.14873
1.13978
1.1741
1.3942
1.18329
0.0782494
1.03814
1.07329
1.1033
0.861108
1.00739
0.668717
1.12858
0.56129
0.635775
1.03565
0.85809
1.06852
0.0924302
1.00623
1.15898
1.22772
1.21235
0.935952
0.974636
0.938211
0.877225
1.17521
0.93913
0.367705
0.640167
1.14198
0.979158
0.872329
1.02421
1.07446
1.16837
0.972183
1.36799
0.981894
1.14976
1.10768
1.05735
1.00841
0.838538
0.893573
0.831838
0.995556
1.01096
1.42684
1.38235
1.2574
1.63377
0.27224
0.939221
1.00889
0.934946
1.33828
1.0416
1.26893
0.954815
1.44262
0.77546
0.77218
1.20997
1.14884
0.516791
1.12437
0.887743
1.05013
0.161981
0.893426
0.764492
1.02668
1.22841
1.11885
1.03273
0.996792
1.09657
1.30309
0.768819
0.747912
0.752145
1.7402
0.545637
1.28938
1.05361
1.0436
1.084
1.14352
1.09521
1.10686
1.042
0.870028
0.351488
0.853373
1.08725
1.28626
0.704106
1.39479
1.09779
0.994894
0.644116
1.08618
0.345626
1.35581
1.08968
1.07246
1.06302
0.968538
1.1087
0.717479
1.11719
1.28137
1.07327
1.17852
0.698705
1.07215
1.03337
1.00441
0.827881
1.34559
0.778518
1.04517
0.671785
1.37302
1.11898
1.08034
0.828862
0.959335
0.811178
1.42387
1.24171
1.43415
0.950419
0.708669
0.677971
0.793645
1.41382
1.15563
0.921823
0.483918
1.07753
1.16695
0.766105
1.13974
1.01265
1.18745
0.867559
1.10334
2.15128
1.15484
1.05583
1.15081
0.191195
1.23307
0.82848
1.08147
0.895808
1.10419
1.00166
0.612675
0.813427
0.797107
1.43078
0.870255
0.744796
0.866534
1.15411
0.930602
1.0425
0.968991
0.926951
0.892045
0.824866
1.43654
1.13009
0.819153
0.82505
1.07212
0.996119
1.13613
0.7646
1.27325
1.1037
0.931202
0.768215
1.00179
1.69952
1.43281
0.969735
0.575604
0.790338
1.17004
0.855535
1.08397
0.607997
1.13094
0.742394
1.00509
1.21604
0.761508
1.07596
0.694569
1.58185
0.932466
0.968431
1.23656
0.802933
1.0689
1.32557
1.68842
0.968749
0.979828
0.726097
0.666668
0.161891
0.0363987
0.960387
0.633784
1.3567
0.700721
0.740736
1.00511
0.472633
1.13118
1.17395
1.01867
1.13206
1.07558
1.31113
1.18923
1.26775
1.21502
1.26782
1.31425
0.982606
0.669139
0.981727
1.17712
0.827648
1.00162
1.29584
1.53789
1.17119
0.562702
0.38507
0.682335
0.109381
1.10288
0.661814
0.964873
1.13913
0.545955
0.814476
0.466331
1.29008
1.00108
1.21059
0.785624
1.61237
1.49152
0.967451
1.18598
1.08524
1.07737
1.00258
0.760185
1.17684
1.16739
1.13003
1.22047
0.459872
1.42358
1.17486
0.937449
1.16908
1.07038
0.59641
0.943209
0.688806
1.13225
0.834384
1.40398
0.484214
0.947082
0.537349
1.19782
0.952751
0.782933
1.20456
0.599998
1.28403
1.34574
1.07974
0.711258
0.377967
0.608856
0.578402
1.15798
1.31886
1.27359
0.47313
1.08726
0.603708
1.47087
1.15656
1.48139
1.12415
0.546389
0.603422
0.930171
0.877932
0.68804
0.108913
1.12229
1.1225
0.457836
0.644559
1.03448
0.120899
1.38571
0.690666
1.13978
1.03393
0.890754
1.14505
1.15944
1.3603
1.18149
1.03358
0.497457
1.14266
1.04499
1.26532
1.3528
1.59961
0.673828
1.15082
1.14612
1.53173
1.16021
0.355929
0.904513
0.841277
0.878487
1.13728
1.30793
0.557079
1.19626
0.950396
1.30593
0.574492
0.511066
1.19924
1.50703
1.14907
1.38301
0.83843
0.451419
0.0122521
1.18278
1.11561
0.59903
1.33981
0.960859
0.88351
1.77651
0.684643
0.865788
1.15451
1.18717
0.760229
1.33478
1.18657
0.393672
1.15909
0.53592
0.373235
1.36703
1.17262
0.538244
1.15362
1.06374
0.806026
1.19218
0.767087
1.05197
0.79472
0.837067
1.16194
1.11186
1.20748
0.703641
1.38238
1.44292
1.18315
1.07102
1.06325
0.864437
1.38358
1.33751
1.07448
0.425628
1.05461
1.12013
1.17123
1.08939
0.786456
1.25153
1.08084
0.365153
0.368233
1.19562
1.11263
1.06239
1.03647
1.25748
1.13009
0.506953
0.780994
0.532459
1.13416
0.151431
0.756509
1.17852
1.17662
1.36121
0.82121
0.827644
1.06111
1.06483
0.399432
1.13725
1.35865
1.36988
0.12714
0.337062
1.37449
0.80411
1.17922
1.10425
0.796706
0.713597
1.15906
1.21742
1.38063
1.12535
0.70718
1.09047
1.15037
0.625025
0.453813
0.682146
1.23506
1.13921
1.38351
0.447007
1.85768
1.24988
0.458635
0.778193
0.563044
0.578232
0.153253
0.435687
1.18317
0.683768
0.515558
0.427054
1.34426
0.885407
0.431845
0.363258
1.56051
1.05293
1.22317
0.774183
0.645434
1.2684
0.394497
1.09298
1.17312
0.73594
0.998959
0.329894
0.470697
1.0954
1.18348
0.900276
1.17748
1.20036
0.16143
1.04705
1.10474
1.29139
0.725463
0.404439
1.15004
0.892772
0.679661
1.14262
0.39415
1.23792
0.530797
0.669623
1.27088
0.890783
1.15061
1.73636
0.787973
0.451911
1.15351
1.16918
1.01741
0.841847
0.377049
1.08953
0.362712
1.42732
1.81531
1.32497
0.781223
0.834869
0.1658
1.08722
0.35764
1.06992
0.752803
0.584736
0.815312
1.02536
0.350811
0.656824
1.05825
0.501059
1.0133
1.02269
1.1709
0.814667
1.78121
0.758329
0.750815
0.446293
0.989528
1.14091
0.964973
0.440949
0.323849
0.886088
0.389001
0.336275
1.03843
0.578473
0.147066
1.14367
0.901421
1.17988
0.737546
0.262563
0.79722
1.1522
1.04106
1.13462
0.748711
0.606123
0.586772
0.707475
0.384055
1.52733
0.688666
0.140207
0.704279
0.790405
0.65817
1.14837
1.12984
0.525839
0.918221
0.148891
0.93273
0.278811
1.11847
0.415133
0.550965
0.94858
0.253326
0.991242
0.48515
0.688206
1.0331
0.160612
1.63648
1.1465
1.12293
0.215246
0.132994
0.809337
0.672084
1.14628
0.121688
0.0863744
0.651137
0.00044898
0.499917
0.515687
0.569996
0.595183
1.15785
1.68244
1.14038
1.57508
0.931014
1.06903
0.144749
0.627533
0.990384
0.423354
0.452581
0.384632
1.30929
0.850341
0.594157
3.02062
0.563744
0.680497
0.531525
0.0326533
1.30634
0.800963
0.647838
0.407057
0.775297
0.251163
0.831357
1.12844
0.536914
0.883701
-0.0594255
0.996639
0.485327
1.4217
0.553547
0.676252
1.17934
0.811291
0.500949
0.703878
0.242833
1.39691
1.17183
0.716275
0.522012
0.91596
0.612862
1.23595
1.34009
1.27534
0.690284
0.0437936
0.00692757
1.27148
0.436481
1.145
1.14682
1.03514
1.26241
1.81688
0.720372
1.43218
1.03127
1.08857
1.40153
0.499468
1.16576
0.113429
0.954773
1.13693
0.225176
1.15575
0.642217
1.17647
0.993195
1.11114
1.12481
0.96254
1.15681
1.13571
0.384187
0.957763
0.427969
1.1204
0.136129
0.392121
1.21717
1.38776
0.00721077
1.13014
0.843877
0.310629
1.0841
0.106896
0.995157
0.575676
1.12252
0.339807
0.341099
0.854294
0.520982
1.38142
1.09309
1.3212
0.352557
0.562635
1.0803
0.0191979
1.15145
1.17404
1.1404
1.83651
0.916798
0.117014
1.10974
1.10406
0.922827
0.449385
0.319205
1.13003
0.394859
0.610981
0.0175483
0.451646
1.08286
1.36805
1.19095
1.32046
0.890778
0.00148168
1.02733
1.15909
0.139395
0.108092
0.468398
0.242602
0.500329
1.45546
1.1478
0.225079
0.130981
1.1739
1.44316
1.41167
0.199588
1.11089
1.07981
1.03344
1.12981
1.02068
0.808307
1.35236
0.330855
1.07618
1.39688
1.13582
0.325159
1.14722
0.420882
1.50266
1.15844
0.374362
0.231851
1.42401
0.0359502
0.460815
0.95873
0.219146
1.48804
0.96346
0.901002
1.18933
0.849543
1.17537
1.41882
1.14278
1.22111
0.626062
0.203141
0.748359
0.297546
0.225034
1.21331
1.4141
1.36671
0.590597
1.5098
1.09512
0.125229
1.11314
0.308882
1.08369
1.156
1.05774
0.910639
0.72521
0.993686
0.587292
0.756543
1.12446
0.813906
0.379325
0.161776
0.251186
1.1101
0.287924
1.10445
1.53017
0.927548
0.209975
0.820479
0.247454
1.33199
0.499983
0.270939
0.282867
0.136188
1.45796
0.4925
1.4778
1.16482
0.378769
1.14458
0.737684
1.37758
2.06549
0.696893
0.0182398
0.207569
0.182332
1.37729
0.00905579
0.70644
1.0398
1.46726
0.0941158
0.178417
0.0186815
0.143603
1.04715
0.0178983
1.48418
1.06223
0.332747
0.145588
0.750278
1.10452
0.00921779
0.230975
1.39186
0.168705
1.09718
1.18636
0.364741
0.00833777
1.15948
0.00924782
1.39788
0.0810712
0.573875
0.119327
0.363145
1.27035
0.0711153
0.741408
0.155093
1.1177
0.85994
0.886518
0.976754
1.37285
0.662884
0.346752
0.943051
0.93688
0.441605
0.475415
0.692789
0.253544
1.41593
1.02197
1.70079
0.0909151
0.923168
0.598765
1.36675
0.27692
1.08606
0.132417
0.726495
1.10239
0.441112
1.01596
1.1406
0.961769
0.280949
1.16831
0.467663
0.70292
0.879498
1.13386
0.766199
0.506028
0.557195
0.819317
0.692513
0.190165
0.676886
2.14094
0.320529
0.814828
1.10497
1.17989
1.15404
1.13268
1.05594
0.762939
1.12493
0.299667
0.325098
1.77939
0.304863
1.4185
0.523818
0.574936
0.663295
1.19049
0.540641
0.945194
0.208314
0.524712
0.358112
0.302514
1.01242
0.410412
0.433515
0.295654
0.56657
0.230536
1.12927
1.46142
0.10098
0.565574
0.570595
0.173051
0.631246
0.10056
0.634961
0.553278
0.508621
1.15717
0.609253
0.783246
0.0754774
0.87263
0.492323
0.0898709
0.124007
0.0908473
0.609319
0.596562
1.13229
1.09631
1.16165
0.861336
0.905394
1.2322
1.16396
0.265567
1.10748
0.980102
0.628082
0.983063
1.14781
1.67473
0.520238
0.131331
0.746234
0.259646
0.119592
1.2287
0.94369
1.25415
1.14291
1.73015
0.55188
0.0529455
0.400603
0.186851
0.671523
1.38931
1.47063
0.15187
0.446212
0.258368
1.45334
1.18437
1.06491
0.0769947
0.113991
0.924008
0.588409
1.17162
1.0258
0.270045
0.862701
1.10907
0.25673
0.786526
0.389817
1.13545
0.707509
1.37617
0.107921
0.717944
0.950675
0.12544
0.428887
1.0622
0.113496
0.643199
0.213235
1.00881
1.13347
0.952552
1.05382
0.925605
0.945517
0.946699
0.77075
0.283033
0.40252
0.184149
0.154756
0.23563
0.9981
1.1593
0.550464
1.1622
0.783726
1.15998
0.305364
0.253002
0.694776
1.21609
0.142918
1.15735
1.03421
1.28546
1.16669
0.178553
0.806162
0.456972
1.17166
1.33826
0.247489
1.15549
1.08271
0.842352
0.264755
0.106549
1.21024
0.998094
0.241934
0.900425
0.330646
0.484586
1.33287
0.0837742
0.303076
0.4857
0.236379
0.647025
0.289048
0.851922
0.511397
0.993556
0.697449
0.519115
1.1301
1.12641
0.908174
0.0976686
0.172462
1.17394
0.902851
1.13584
0.286615
0.882034
0.172731
0.201662
1.28543
0.872667
0.788333
0.269777
1.053
0.248159
1.15872
0.230527
1.18166
0.325197
0.0715118
0.294275
0.653038
1.19161
1.02378
1.17259
0.236205
0.373056
1.17201
1.13895
0.922894
0.117437
1.2039
1.14812
1.19137
0.241832
0.129429
0.379996
1.18736
1.1696
0.661368
0.92313
0.341723
1.45374
0.300675
0.264239
0.389645
0.406822
0.146718
0.840344
0.431116
0.807661
1.16695
0.968178
1.12814
0.319697
0.219338
1.25385
1.18518
0.859159
1.31316
0.454656
0.175138
0.158321
1.36226
0.41762
0.526144
0.219488
1.16959
0.997746
0.319692
0.561089
0.958181
0.883551
0.620376
1.47324
1.16252
0.868272
1.6605
0.480625
0.745676
1.01234
1.22966
0.213622
0.347206
0.137312
0.903468
1.13615
0.585543
1.14112
0.908538
0.314139
0.0525771
0.936905
1.16819
1.22938
1.20314
1.12399
1.11602
1.25036
1.08845
0.277195
0.558994
1.21267
0.543524
0.617678
0.685976
0.401691
0.574939
0.946764
0.0908554
0.303747
1.22492
1.21345
0.681106
0.550779
0.168978
1.50376
0.920414
0.7095
1.09407
0.420241
0.446242
0.396147
0.273151
0.580791
1.11784
1.15109
0.0781961
0.640541
1.13143
1.12331
1.16125
0.5362
0.717123
1.04316
0.22503
0.340025
1.15821
0.148991
1.38382
0.396161
0.842026
0.386006
0.473649
1.17933
0.94071
1.03254
0.743095
0.166853
1.04478
1.20108
0.999795
0.420589
1.27363
1.37866
0.101518
1.14082
0.336236
0.197233
0.211932
0.566017
1.04954
0.422908
0.500658
1.03695
1.07171
0.988737
1.58949
0.369147
0.292983
1.39117
1.14849
0.853008
0.575934
1.38749
0.390725
0.742324
0.475593
0.444242
0.196106
0.224823
0.258849
1.00909
0.275398
0.863994
1.12454
1.47943
0.721078
0.22699
0.865978
1.25353
1.15921
0.609453
1.15095
1.57914
0.230891
1.67782
0.0992304
0.870983
1.09012
0.542999
1.75833
0.495902
0.0945447
0.752204
0.207663
0.606933
0.479349
0.292037
0.734905
0.47031
0.436523
0.812571
1.49367
1.22872
1.0699
1.12
0.0765335
0.275612
0.891833
1.16447
0.180474
1.14108
0.267651
1.29211
1.20587
1.11298
0.707632
1.02423
0.650553
0.992391
1.05794
0.988359
1.2323
0.040368
1.47144
1.27554
0.799926
1.4506
1.00085
0.0849693
0.341416
0.271588
0.394338
0.480825
1.5002
0.645624
1.50626
0.85448
1.38443
1.46224
1.36328
0.928805
0.20268
0.546281
0.890646
1.16156
1.14402
0.701413
0.428262
1.11302
0.780056
0.541085
0.643111
0.648935
0.835834
1.1292
0.277486
1.1115
1.23145
0.254181
0.52715
1.0509
1.16504
0.607109
0.554868
0.352564
0.537526
1.34103
1.04537
1.14485
0.703863
1.34491
1.12229
0.373821
0.29777
1.24709
0.589399
1.3281
1.08915
0.989933
0.581589
0.772489
1.1207
0.565483
0.570374
1.17923
1.16747
1.39314
1.16409
1.08207
0.654154
0.209036
0.885329
0.308456
1.16904
1.1694
0.576449
0.911968
0.812768
1.17511
0.60235
0.531988
0.417649
1.1247
0.25877
0.566747
1.32064
1.40723
1.16714
1.16608
1.18489
1.23798
0.694532
1.10732
0.35113
0.0490397
0.631542
0.0405787
0.636432
0.514615
0.933659
1.19244
0.966253
1.11365
1.2028
1.16688
0.86824
1.16671
0.541989
0.949144
1.0233
0.548009
1.27009
0.887825
0.998715
1.05955
0.857853
0.916343
0.862064
1.20431
0.676516
1.04291
1.03188
1.7196
1.08543
1.27585
1.25649
1.13304
0.792854
0.536489
0.75505
0.490901
0.748202
1.08077
0.314795
0.67249
1.50411
0.791893
1.12383
0.993826
0.632303
0.920141
0.236222
0.184782
1.19925
0.292507
0.810835
1.27567
0.967373
0.649842
1.09217
0.903044
0.827156
1.16967
0.700495
0.867837
1.15045
0.740977
0.94199
0.754322
1.00943
0.682354
1.20381
0.754999
0.910146
1.15668
1.055
0.708757
1.15473
1.01199
1.00679
0.627291
0.90991
1.17532
0.625759
0.904889
1.16136
1.02528
0.685467
1.46385
1.10687
0.187133
0.930897
1.15192
0.655995
1.42972
0.93662
0.672875
1.18954
0.718599
0.985974
1.32707
0.739014
0.678982
0.479417
0.516139
0.854997
1.00728
0.734125
1.06616
1.30533
1.1008
1.17878
0.669368
0.815435
0.812089
1.19003
0.501078
1.13722
0.584943
1.01452
0.725558
0.86096
1.25197
1.34462
1.17979
0.288832
1.43611
0.868752
0.966744
1.14911
1.18119
1.02507
0.211609
0.865732
0.930861
0.804328
0.876666
0.735882
1.27801
1.14549
0.978552
0.884803
1.20153
1.05484
1.04064
0.725999
0.797193
0.801758
1.33862
0.732608
1.16201
0.65892
0.904645
0.98179
1.17989
0.992495
1.17703
0.298893
0.320436
1.06842
1.00403
0.889606
1.16512
1.30299
1.14278
0.506042
1.15322
0.712663
1.14687
1.07427
1.13321
1.13298
1.13903
1.16832
1.23264
1.25817
1.28234
1.30631
1.33057
1.39908
1.42112
1.44146
1.47663
0.919139
0.966435
1.28183
1.12273
0.723967
1.17597
1.12294
0.794778
0.847456
0.0397527
1.02424
1.04962
0.281448
0.792409
0.914084
1.14159
1.13217
1.11499
1.15343
0.608425
0.727322
0.21131
1.17561
0.97897
1.11974
1.10452
0.764094
0.730811
0.85747
0.194134
1.17869
0.594332
0.548637
1.081
0.942945
0.852124
0.532664
1.15962
0.991538
1.27447
1.13954
1.09304
1.37727
1.03654
0.884315
1.06407
0.850662
0.96623
1.04614
1.64489
0.898809
0.465245
0.918994
0.990208
0.0444205
1.24842
0.93567
1.59866
1.2057
1.16572
1.07986
1.24392
0.996712
0.251937
0.0763418
0.874662
1.17129
0.449285
1.56228
0.818002
0.917605
0.772247
0.531556
1.01055
1.35388
1.20846
1.32542
0.592298
1.00494
0.0325835
1.10326
1.02406
1.04198
1.19121
0.89427
0.935157
0.847495
1.01676
0.0720834
1.03661
0.849699
0.564542
0.529344
1.20018
0.789512
1.36092
0.970734
0.904683
1.19001
1.27402
1.18745
1.04882
1.24133
1.00089
1.40482
1.22361
0.84698
1.14058
0.881231
0.231527
0.55434
0.347361
0.946769
0.890123
0.521404
1.06034
1.06297
0.824549
0.650026
0.834009
1.13203
1.36481
1.12401
1.14885
0.915434
1.29137
0.7284
1.29381
0.989289
0.864641
1.14178
1.16483
1.30613
0.247047
1.09678
0.642447
0.821249
0.699247
0.915343
1.32618
0.842488
1.48844
1.05226
1.24238
1.02198
0.84506
0.981195
1.23753
1.16447
1.47399
1.21582
1.08336
1.39447
1.13445
0.899359
1.1591
0.934023
1.10367
1.37495
0.844521
1.49965
0.93061
1.26761
0.415105
1.28547
1.36212
1.15206
1.04584
0.491113
0.0423457
0.888704
0.932872
1.11929
1.11228
0.906564
1.11765
1.38191
1.23263
1.18241
1.07133
0.809315
0.859872
1.44729
0.882435
1.38701
1.16461
0.880784
0.613376
0.769178
1.09164
0.670005
0.88626
1.1639
0.578184
0.931397
1.16861
1.13726
1.44076
-0.00465141
1.08176
0.717464
1.07866
0.518582
1.16204
1.32679
1.15918
1.10066
0.961109
1.01504
0.870193
0.913762
1.24811
1.12704
0.0980416
1.03504
1.00907
0.568143
0.976403
1.04159
0.988131
1.10911
0.202767
1.36737
1.12897
0.960928
0.551386
0.974645
0.5351
1.20913
0.600767
1.07734
0.7597
1.11628
0.906907
0.92907
1.05903
0.495747
0.986873
0.92777
1.3897
0.720889
0.959953
0.937433
0.924415
1.3251
1.02113
1.19919
1.08027
0.756828
1.3184
1.1792
0.743705
0.328029
1.19743
1.14226
0.926232
1.10268
1.09284
0.685793
1.24103
1.09847
1.02024
0.981748
1.5127
1.09012
1.21108
1.12284
0.508325
0.129593
1.0195
1.02433
1.37738
0.991397
1.14615
0.496158
1.70082
1.65293
0.704075
1.43369
1.72742
1.11073
0.0970917
1.35484
1.35767
0.840037
1.07953
0.777089
0.137198
1.35206
1.25813
0.139727
1.16049
0.751675
1.15925
1.28351
1.11845
1.15167
1.09926
0.816791
0.729708
0.966305
1.2712
1.13888
1.41438
0.959376
1.23053
1.03679
0.426832
1.03512
0.857936
1.34544
1.0054
1.35366
0.828556
1.17767
1.11534
1.34945
1.01921
0.911722
1.12572
0.527625
1.03541
1.31083
1.03197
1.3747
1.04426
1.0517
1.17931
1.24599
1.2046
1.05454
0.641678
1.11544
0.673387
0.997522
0.909347
1.14203
1.05601
1.16061
0.817741
1.21012
1.13242
1.10963
1.25562
1.30977
0.833852
0.0652127
0.939172
1.42539
0.274989
0.899911
0.990563
0.502723
1.09768
1.0494
0.839292
0.67364
0.655729
0.522282
1.11142
1.06353
1.11245
1.13884
0.837539
1.53187
1.18584
1.11741
1.12154
0.749831
0.511241
1.05331
0.65945
0.962003
1.54695
1.35777
1.34041
0.863391
1.00428
0.737479
1.1979
1.32405
1.30446
1.3635
1.37644
1.06715
0.63748
0.7617
1.18975
1.07665
1.38722
0.173994
0.951123
-0.181287
1.10326
1.14851
0.681219
1.10633
1.12047
1.15574
1.37171
1.34882
1.24991
1.35358
1.27057
1.27014
0.191178
1.10025
1.11113
1.15237
1.0887
1.12097
1.25971
1.16187
0.676313
1.14966
1.30921
1.34415
1.18781
1.31746
1.06958
1.07779
1.1894
0.901242
1.66125
0.335144
1.17509
1.22142
1.02821
0.90311
1.14061
1.68632
1.0878
1.22035
0.91385
1.19563
0.50639
1.45821
1.14079
1.09719
1.18001
1.15969
1.21509
1.60325
1.52297
0.873409
0.543175
0.848088
0.516578
1.11962
0.856641
1.21447
0.196409
0.76659
1.28664
1.58601
1.09896
0.0181915
1.72519
1.18003
1.19818
0.817355
1.33934
1.16862
1.24021
1.36193
0.0834225
1.33672
1.10751
0.423542
1.21202
1.19869
1.21959
1.61778
1.61616
0.942349
1.18234
0.65661
1.10799
1.1152
0.308503
1.35767
1.17761
1.11615
1.1997
0.945395
0.166914
0.923305
1.08708
1.50677
1.12263
0.775606
0.357661
0.872703
0.274745
1.10352
1.12967
0.953664
1.13328
1.14319
1.13615
0.0686591
1.14808
0.8712
1.17953
1.21398
0.314914
0.00742051
1.63906
1.56189
1.71608
1.47604
1.16385
0.833328
1.16445
1.14809
0.49046
1.54691
1.23607
0.59363
1.31312
1.29231
1.26206
1.16354
1.15774
1.45098
1.15653
1.21746
0.90234
1.14364
1.14413
1.24874
1.26905
1.29449
1.31758
1.40693
1.43109
1.28514
1.15015
1.78892
0.926187
1.25876
1.14454
0.879715
1.2908
1.20907
0.975741
1.17542
1.14448
1.14807
0.374833
1.13988
1.58968
1.24348
1.56487
1.51065
1.71043
1.21891
1.15326
1.61509
1.16131
1.38823
0.585424
0.845295
0.650301
1.155
1.28914
1.20362
1.16236
1.21329
1.1527
1.26718
1.12006
1.29333
1.15425
0.666713
1.067
1.14318
0.930153
1.18527
1.06479
1.88107
0.0867891
1.22255
0.914202
1.0031
0.887583
1.26616
0.807199
1.16486
0.255292
0.912814
1.28719
1.12805
1.05379
1.04577
0.193135
1.26639
1.34167
1.13815
1.12588
1.26547
0.919768
0.783332
1.37488
0.144531
1.21327
1.10317
1.17292
0.0639532
0.655445
0.167755
1.16165
1.37482
0.106462
0.945362
0.331241
1.21423
1.08992
0.403657
1.11726
1.1714
1.65036
0.3097
1.23794
0.692749
0.599671
0.598411
1.36407
1.1963
1.15379
1.16078
1.47422
1.10714
1.34629
0.0438816
1.50794
1.28233
0.090509
1.17629
1.26625
0.495878
0.294163
1.11757
1.12465
1.68452
0.334882
1.12779
1.12415
0.167889
1.17219
0.748565
1.09371
1.42571
1.10594
1.09153
0.948776
0.918295
1.51264
1.57637
0.741335
1.18355
1.11915
1.48449
1.19545
0.491562
1.25369
1.17809
1.17997
0.65861
1.12242
1.2947
1.1519
1.21587
1.14908
1.17211
1.14614
1.16713
0.162277
1.09846
1.70104
0.679277
0.990577
0.903597
1.91733
1.30137
0.0079647
0.0179654
1.38734
1.38608
1.02242
1.16458
1.15566
0.228339
1.0603
1.07049
1.35817
0.829717
1.44606
1.07189
1.20306
1.60582
0.452214
1.08158
1.15367
1.17193
1.06336
0.961042
1.55731
1.20284
1.2834
1.14582
1.17223
0.352892
1.40578
0.807061
0.485489
1.14928
1.27571
0.727413
1.05569
1.17148
1.32936
0.861764
1.12762
0.787797
1.07484
0.502116
1.18983
0.814326
1.2764
1.12229
1.3962
0.967883
0.243734
0.645705
1.69692
0.207102
1.15205
1.14638
1.54354
1.2268
0.69051
1.02998
1.13377
1.16058
1.23259
1.15041
1.32063
1.00397
1.30386
1.1123
1.04267
1.55703
0.85291
1.06569
1.39653
1.34083
1.75823
1.15297
1.10299
0.628113
1.16192
1.17883
1.30876
0.996783
1.1035
0.604163
1.10336
0.822106
1.23242
1.10567
1.20012
0.73429
1.11227
0.590065
1.2942
1.12838
0.628742
0.24314
1.24016
1.69132
1.23722
1.08623
1.00392
0.896515
1.57531
1.1236
0.0839109
1.19366
1.19747
0.0496377
0.976619
1.11383
0.969503
0.864029
1.32226
1.53491
1.50024
1.13485
0.826018
1.14319
0.469988
1.42086
1.67405
0.317622
0.965986
1.25008
1.68227
0.132195
1.5406
1.68722
1.14548
0.807967
0.995191
1.55472
0.931336
1.17011
1.80344
0.888936
1.56357
1.07552
1.05478
1.66574
1.36493
1.56483
1.5242
0.785906
0.0631535
1.41411
1.23843
0.968071
1.24773
1.23028
1.17672
1.0764
1.55083
0.879109
0.927015
1.18178
1.21408
1.07115
1.17018
1.19216
1.51613
1.1984
1.06936
1.65635
0.767788
0.220867
1.20389
1.14348
1.21593
0.420612
0.942738
0.122022
1.20415
1.13162
0.173067
0.700069
0.77519
0.438359
1.25602
0.98534
0.900961
1.04739
1.15986
0.964796
0.831867
1.51543
1.0957
1.0969
0.675413
0.994702
0.36606
1.15701
1.32379
1.22429
1.38267
0.923063
1.30347
1.40084
1.45167
1.06933
1.65728
1.06972
1.51973
1.16948
0.0595864
1.10204
1.098
1.08335
1.35755
1.14577
0.695121
1.61981
0.909881
1.35707
1.11463
1.31981
1.25014
0.831074
1.10481
1.17738
0.735343
0.588237
0.98044
1.13084
0.880188
0.879746
1.17251
1.40095
0.930054
1.09956
0.0628753
1.74335
1.69965
0.930035
0.67706
1.09757
1.10051
1.15158
0.443013
1.27062
1.1351