/*--------------------------------*- C++ -*----------------------------------*\
  =========                 |
  \\      /  F ield         | OpenFOAM: The Open Source CFD Toolbox
   \\    /   O peration     | Website:  https://openfoam.org
    \\  /    A nd           | Version:  7
     \\/     M anipulation  |
\*---------------------------------------------------------------------------*/
FoamFile
{
    version     2.0;
    format      ascii;
    class       volScalarField;
    location    "34";
    object      p;
}
// * * * * * * * * * * * * * * * * * * * * * * * * * * * * * * * * * * * * * //

dimensions      [0 2 -2 0 0 0 0];

internalField   nonuniform List<scalar> 
7807
(
0.265668
0.00469049
0.410479
0.267908
-0.00146238
-6.35269e-05
0.414989
-0.00877065
-0.00020614
0.116692
-5.93988e-05
0.00396718
-0.013124
0.0594181
0.121314
-0.0172935
0.275997
-0.0170401
0.00177191
-0.0833749
0.0806065
0.00260969
0.0441462
0.218073
-0.0221521
0.275661
-0.00135301
0.0730852
0.184729
0.00408255
-0.0233245
0.6306
0.0434038
-0.000818565
-0.000177703
0.0964289
0.00469266
0.40218
-0.00740353
-0.000573619
-0.00676231
-0.0165324
-0.0861735
-0.0399407
-0.000342058
-0.000138682
0.00255059
-0.00770138
-0.000114706
-0.0812896
0.00597718
0.0693189
-0.0278908
-0.0040722
0.0955394
-0.00783387
0.00187369
-0.00873969
-0.0360014
-0.000850278
6.73624e-05
0.00765811
0.0597948
0.00438068
-0.00163208
-0.02288
-0.00016425
6.7049e-06
0.0965139
-0.00725593
-0.000127375
-0.0653143
-0.0214464
-0.0358565
-0.0165247
-0.0510858
0.404234
0.078876
0.0711378
-0.0701449
-0.0125927
0.372758
0.113296
-0.0377742
-0.00242249
-0.00383409
-0.00937826
-0.0270741
-0.0011081
-0.00742753
0.18859
-0.0471295
-0.00022637
0.00197884
-0.00591025
-0.0373688
-0.0614344
-0.000498681
-0.00267064
-0.00194274
-0.0617837
0.0796931
-0.00560259
-3.404e-05
-0.0369221
0.193114
0.547912
-0.0083369
-9.07438e-07
0.0408377
0.253358
-0.0529345
-2.61332e-06
0.0434246
0.193466
0.000762531
-0.0641475
0.156716
-0.0455782
-0.0369482
-0.0642671
0.356429
-0.0792964
0.0168397
-0.062511
-0.00162916
-0.021208
0.00327416
-0.00172671
-0.0236901
-0.0991271
0.0716291
-0.00102534
-0.00130535
-0.0391106
0.245906
0.440896
-2.92361e-05
0.0133741
-0.0806556
-0.0339707
-0.0555533
-0.0517263
-0.0345699
0.553141
-0.0216605
0.185777
-0.0353901
-0.0470788
0.355499
0.0921472
-0.0366658
-0.00255609
0.0763539
0.112648
0.373103
-0.0589632
-0.0130605
0.513901
-0.000104006
0.000949205
0.225413
-3.20614e-05
-0.00347929
-0.00664832
0.277967
0.278765
0.533097
-0.00393416
-0.00519609
7.79886e-06
-0.0663208
0.000754436
0.0122487
0.0145496
-0.0465373
-0.0148003
0.159257
-0.000225187
-0.000861054
0.27272
-0.000103793
-0.000191268
0.416453
-0.000307547
-0.0444668
-0.0429514
-0.0342113
-0.0256779
-0.0787174
-3.49975e-05
-0.0591473
0.164953
-0.00565822
0.000124674
0.207978
-0.00210586
-0.0223276
-0.0245273
9.32435e-06
0.00154258
0.252447
0.194566
0.375681
-0.0583132
-0.0470743
-0.11442
0.0793831
0.249801
-0.000366843
5.97087e-05
0.518165
-0.0146801
-0.0010631
-0.0564915
-0.0222031
0.340862
0.348584
-0.0612088
0.598536
-0.00195326
-0.0166405
-0.0634097
0.095833
-0.10668
0.233701
0.515412
0.000109159
0.0176217
0.166515
-0.00700777
0.153541
-0.000938427
0.567813
0.366064
-0.00930017
0.00481783
-0.000532245
0.153528
-0.000162646
-0.010811
-0.0768233
-0.000126866
-0.00229719
-0.000742486
0.172962
-3.2153e-05
-0.00770661
-0.0683222
0.629996
0.0628949
0.555098
-7.82656e-05
-0.0277388
-0.000324743
0.389514
0.00733129
0.441968
0.00236654
0.0013
0.00834439
0.0828172
0.00103904
-0.000399029
0.000917557
-0.0073922
-0.0440019
-7.31253e-05
-0.0572152
-0.00633651
-0.000249056
-0.00109852
0.42332
-0.0131
-0.00134294
0.601521
-0.00252594
0.263064
-0.000361924
0.000489617
1.32343e-05
-0.0409731
0.0920263
-0.00591814
-0.0364226
-0.000723136
-0.0711358
-0.0254106
-0.000315399
0.000892717
-0.00380163
-0.0126663
0.00537009
-0.00217443
-0.0361378
-0.0372411
-0.0355943
-0.0267257
-0.0446781
0.358755
0.372645
-0.00261049
-0.0377535
-1.27047e-05
-0.00415186
-0.0373512
0.212598
0.126048
0.000172436
-0.00384173
-0.043391
0.182876
-0.00175269
0.00653525
0.00221266
0.0620407
-0.114445
0.338339
-0.0027925
0.00349544
-0.000201998
0.0074678
-9.28137e-05
-0.0286661
-0.0006105
0.00753038
-0.0671501
-0.0454982
0.00296228
0.0159647
-0.00129902
0.0355562
-0.0128915
0.0933414
0.176542
-0.149349
-0.0475941
-0.0259547
0.00931091
-0.0748528
0.543318
-0.0385483
0.0531028
0.58726
-0.00269574
-0.00306271
-0.0470258
-0.00192402
-0.0180167
0.0114994
-0.0049077
-0.00365814
0.175553
-0.000121135
0.00099651
0.00013883
-0.00594309
-0.0121444
-1.53587e-05
-0.00193156
-0.0346038
0.512865
0.00416459
-0.014358
0.482189
0.316436
0.0802126
-0.025344
-0.0668276
0.00901235
0.26923
-0.0184499
0.301548
-0.0305041
-0.0923844
0.197928
0.30294
-0.053482
0.118517
0.23039
0.275432
0.0774454
-0.00531955
-0.00733831
-0.000156216
0.00515632
-0.0188086
0.00172505
-0.000190516
-0.00284153
-0.071107
0.0987495
-0.027382
-0.00490017
-0.00659953
0.000997237
-0.012058
0.00314051
0.203769
-0.00331081
-3.89008e-05
-9.88925e-05
8.68582e-05
-0.0329305
0.170647
-0.00698883
0.0487632
-0.116063
0.394485
0.00592594
0.0123018
-0.00886125
0.409077
-0.00187108
0.333677
0.1897
-0.00020799
-0.033556
-0.00573585
-0.0525036
0.00102506
0.0890053
0.00577559
0.0114036
-0.00151242
0.158633
0.186357
-0.0516536
-0.034878
-0.00403759
-0.0270907
0.0742334
0.619704
-0.0543264
0.00821076
-1.46274e-06
-0.0216263
-0.00399716
0.0325566
-0.0940583
-0.0497005
0.422692
0.17017
-0.101682
0.217318
0.399661
0.0484062
0.00212866
0.278413
-0.00160245
-0.000328355
-0.0277697
0.000157084
-0.127963
-0.000781481
-0.0369503
0.00342105
0.213565
-0.00313739
-4.26155e-05
-0.0993517
0.00310317
0.042355
-0.0597342
-0.0795413
0.000470707
0.168088
0.139012
0.142725
-0.000367825
0.0897505
0.101091
-0.000940879
-0.0263738
0.00110052
0.00971316
-0.00455398
0.0085685
-0.00138558
0.147689
-3.48755e-05
0.000359636
0.00355657
-0.0342098
0.0360648
-0.0348312
-0.0394611
-0.0401538
-0.118056
0.0122658
0.26955
-0.0527618
-0.0112418
0.574963
-0.0595158
-0.012687
-0.039786
-0.0104779
-0.0322308
-0.0167502
0.0483445
-0.0447233
-4.59145e-05
0.0423046
-0.000171814
0.363208
0.105996
-0.00834245
-0.0224487
-0.000337756
0.374537
0.328
0.0714297
0.155236
-0.0643913
0.454592
-0.00011232
0.0310662
-0.0282999
0.166046
0.537746
0.0608992
0.164002
-0.00343673
-0.000363955
0.141823
-0.0779541
0.390805
0.0443094
0.236826
-0.011871
0.402403
0.31347
-0.0149058
-0.0127003
0.119248
-0.0807005
-0.000151679
-0.0207169
-0.0777006
-0.0668368
0.0198519
0.0163985
-0.000226635
0.330104
-0.00192385
-0.000184607
-0.0330095
-0.000875753
-0.000399631
0.00576939
0.232457
-0.0877393
0.50177
0.000111585
0.229613
-0.0265169
-0.000135306
3.21549e-05
0.182166
0.225584
-0.00686989
0.20646
4.55158e-05
0.216984
-0.142569
-0.0156043
0.419035
-0.0538122
0.147417
-0.0381513
0.214429
0.22194
-0.0255477
-0.0321925
-0.0100618
-0.00485455
-0.00035633
-0.00211074
0.286223
-4.80999e-05
0.209706
-0.0845509
0.339807
0.199771
-0.079399
0.48748
-0.00274679
0.00785017
-0.0475495
-0.0308153
-0.0107047
-0.0306756
0.0469979
0.568375
7.56875e-05
-0.00323269
-0.0503092
1.07674e-05
0.369513
0.00315063
1.0219e-05
0.00034212
0.000681283
-0.0271282
0.031173
-0.00260919
-0.00015063
-0.0113479
0.00398132
-0.102512
-0.0726868
0.0366414
-3.87656e-05
-0.143574
-0.0202743
0.126351
0.335384
0.00193838
0.134362
0.000271562
-0.0194206
0.105872
-0.0107445
0.247181
-0.0199264
0.0348827
0.109676
0.166979
0.00745381
-0.0159632
0.19198
-0.0802758
0.395438
-0.0144199
0.272724
-0.0143221
-0.0019512
0.15646
0.00125601
0.104147
0.00325224
8.86384e-06
-0.115029
0.198256
0.00246142
0.122397
-0.0189517
-0.143979
0.00546269
-0.0360529
-0.00281446
-0.0136414
-0.0696329
-0.0406028
-0.0150905
-0.000254734
0.416862
0.129769
0.0484141
-0.000341929
0.312257
7.09193e-06
-0.000315225
0.14038
0.00187915
0.174163
0.0718879
0.0284855
-0.0393819
-0.11667
-0.00167806
0.0022529
-0.0581891
-3.23271e-05
0.00621534
0.239463
-0.0244191
-0.00464335
-0.0131429
-0.00327142
-0.00069252
0.590067
-0.0152097
-0.000931971
-1.01263e-05
0.153084
-0.0428159
-0.000560054
-0.00459305
0.176392
0.10075
-0.0525695
2.44966e-06
0.194166
-0.0241957
0.203847
0.0277256
0.0339596
-0.0428102
-0.000163184
0.107039
0.0921436
0.0325812
-0.0769056
0.286773
0.010383
0.18661
-0.00440814
-0.0317167
-0.000667497
-0.00275198
-0.000181143
0.176516
0.251312
-0.00248636
0.0316987
-0.0258421
-0.0613209
-0.0695049
-0.00309135
0.0284018
0.561836
0.0150051
-9.41449e-05
0.0997222
-0.00628019
0.481431
-0.0187791
-0.0185013
-0.00460876
-0.0213832
-0.0112477
-0.0120548
-0.00574492
0.00257536
0.0393648
0.000183763
-0.129969
-0.00898928
0.351244
-0.0506605
0.180855
0.00347614
-0.0456633
-0.0197405
0.223594
-0.0113802
0.000185086
-0.0236832
-0.00873628
0.0312864
-0.0389407
-0.0335899
-0.0139171
-0.0218275
-0.00952439
-0.0727696
9.71536e-06
0.0552082
-0.0628835
0.157384
-0.0500147
0.103502
-0.0803437
0.316266
0.00821999
-0.0442608
-0.0220821
0.509038
-0.106178
-0.0196609
-0.108206
-0.0391054
-0.0976883
-0.0545062
0.18321
-0.00462209
0.262855
0.0148946
-0.000667136
-0.00207446
0.0883568
0.636585
0.00179748
-0.0271757
0.184473
3.84735e-05
-0.0308748
0.0445738
0.00329315
0.015101
-0.00275882
-0.0411728
-0.00511719
4.91669e-05
-0.0512672
0.260657
0.00335628
-0.0248054
0.003206
0.184191
-0.000648514
-0.00208629
-0.000608591
-0.00132778
0.0493255
0.00291733
0.00470133
-0.0266521
7.60849e-05
-0.106946
-0.066281
-0.124623
-0.0232348
0.0246885
-0.000361497
-0.0194728
-0.0665855
0.0319444
0.34222
-0.00213454
-0.0711716
-0.00782075
0.0114531
0.159683
0.000753325
-0.000267835
0.127155
0.0187161
0.0245011
-0.00493073
-0.00345621
-0.0615565
-0.000298396
-0.00130462
-0.020117
0.297791
0.258648
-0.0385076
-0.0605137
0.0122321
0.0063421
0.00596932
-0.0700281
-0.0172828
-8.79335e-07
0.00189785
-0.036819
-0.0766352
0.00639868
-0.0564716
-0.000676953
-0.00498379
0.202088
-0.0412045
-6.90324e-06
-0.00468307
-0.0948279
-0.000282519
-0.0220029
-8.57352e-05
0.00653447
-0.099459
-0.0385368
-3.74155e-05
5.17929e-05
0.133416
-0.0482756
0.377174
0.263574
-0.00176269
-0.00100485
-0.0172198
0.000371838
-0.098247
-0.0884082
-0.00626081
-0.0241665
0.252703
0.0129086
0.000462379
0.00876568
-0.113999
0.00329448
-0.0274432
-0.0646755
0.00236065
0.026767
0.0770715
0.0122972
-0.0331505
-0.0655638
0.192578
-0.0331435
-4.55162e-07
-0.101823
-0.0684514
-0.0399987
0.00651767
0.00127784
0.0113717
-0.0999555
0.0387287
-0.0382473
0.134839
-0.0469114
0.00937049
0.0234771
0.0177505
-0.0390884
-0.109637
-0.000174329
0.151644
0.210566
0.00968124
0.203855
-0.073451
0.0533018
-0.0478068
0.20242
0.10735
0.554791
7.47368e-06
0.107901
0.179846
0.0181818
-0.00190613
-0.0208918
-0.0123134
7.19564e-05
-0.0209076
-0.0535133
-0.0228427
-0.0252237
0.000221245
-0.0818071
-0.000487335
-0.00113004
0.239604
0.00804591
0.0702304
0.024527
0.208629
0.0134741
-0.000516457
-0.100901
0.0099757
0.358006
0.00163807
-0.0563238
-0.000291103
-0.000718093
0.00863821
-0.054249
-4.11574e-05
-0.0126862
0.0342012
-0.00250638
5.15805e-05
-6.1766e-05
0.15571
-0.0323689
0.00840463
-0.0014261
0.0106346
0.0191027
0.0105178
-0.000379268
0.335237
-0.0878727
0.220957
0.292304
-0.000274347
0.0610131
0.115672
-0.000997079
-0.000344717
-0.000557339
-0.00351485
0.0180527
-0.0137854
-0.0236311
-0.0683463
0.173166
-0.0975494
1.62542e-05
-0.0221699
-0.0212535
-0.039682
-0.00540693
0.00744359
0.00158087
0.0333132
-0.000665343
-0.000303787
-0.0199373
-0.0053197
-0.0282665
-2.02185e-05
-0.0170324
0.0397042
-0.0199295
-0.0292979
-0.0100834
-0.0135679
-0.0106477
-0.00641307
0.0101146
-0.0110007
-0.000135695
-0.000519211
0.0278374
-0.0141089
-0.00607679
0.0103864
0.00330451
-0.131232
-0.0128284
0.159267
-0.0145195
-0.0581172
-0.0280351
-0.0258109
-0.0178539
-0.00464178
0.00280915
-0.00435448
-0.0161048
-0.0184386
0.193439
0.151969
0.0565824
0.333863
-9.27723e-05
-0.0040757
-0.0187935
-0.00946796
0.0962379
-0.0230671
0.0541389
-0.00528765
0.207871
-0.00241034
-0.00202265
0.0178356
-0.0209974
-0.000280298
-0.0250343
-0.00720792
-0.0237176
-2.61502e-05
-0.00811651
0.00247295
-0.0200352
0.0392021
0.0412934
0.022767
-0.0160618
-0.0354442
0.120435
-0.00159141
-0.00243322
-0.00261983
0.477486
-0.000112622
0.0786367
-0.0241397
-0.0232465
-0.0297877
-0.0462519
-0.0323412
-0.0384111
-0.0208909
-0.0056389
-0.000124602
-0.00525207
-0.0247617
0.10502
0.0020999
0.151678
-0.0368961
-0.0152365
-0.00114287
-0.0325633
-0.000131164
0.151009
-0.0339488
-0.0295537
-0.0270036
-0.00484962
-0.0372884
-0.00207904
-0.0451197
0.107098
-0.0291856
-0.0785649
-0.00181145
-0.030423
-0.0210412
0.0185198
-0.00398337
0.145525
-0.00296174
-0.0218321
-0.000843533
0.162585
-0.0434133
-0.0298522
-0.00399903
-0.0113562
-0.00339999
0.188705
0.0111776
0.197371
-0.00594826
-0.00101698
-0.00156152
-0.00287589
0.17319
-0.0663561
-0.00827378
0.000426043
-0.00915152
-0.0132055
-0.00112177
-0.0169502
-0.0179327
0.0634198
-0.00605203
0.00526493
0.470598
-0.0676344
-0.0323547
-0.0632876
4.3902e-05
0.0819239
-0.00435061
-0.0302919
-0.00684075
-0.0398832
0.00518053
-0.000668715
-0.00357449
0.00404038
0.200359
-0.00712123
-0.00221049
-0.00567166
-0.059376
-0.0100239
-0.025032
0.00536178
-0.0104991
-0.0108407
-0.00402457
0.203619
-0.0509218
0.00396535
-0.00519166
-0.0310404
-0.0166179
-0.0545066
-0.00173925
0.0975497
0.0273524
-0.00947613
-0.00213958
-0.0160528
0.489272
0.20179
-0.0134546
-0.00071953
-0.00294161
0.00411102
-0.00487392
0.0250021
-0.0005185
-0.0194934
-0.00243263
-0.0196881
-0.0769413
-0.00132007
-0.013522
-0.00167446
0.311572
-0.00781594
-0.0139219
-0.0241206
-0.00238779
-0.0337959
0.0630123
0.43302
-0.0127939
-0.0135507
-0.00261297
-0.0005802
2.04383e-06
-4.99136e-06
-0.0121009
-0.000832881
0.114117
-0.000833477
-0.00224027
0.010082
-0.0003221
-0.0492157
-0.0650054
0.0206669
0.0452223
0.0308349
0.0480873
-0.0463013
0.0960678
0.0759337
0.101332
0.126909
-0.0153092
-0.00105829
-0.00708592
-0.0728675
-0.0043223
-0.0176668
0.032337
0.3172
-0.0563227
-0.000601037
-3.72616e-05
-0.00181223
-4.36719e-07
0.010453
-0.000697882
-0.0056791
-0.0526953
0.00067699
0.00318871
-0.000274189
0.0710691
-0.0180484
-0.0421781
-0.0015033
0.317312
0.267903
-0.0120038
-0.0799554
-0.0316116
-0.0273996
-0.0169273
-0.00231345
-0.0848648
-0.0377107
-0.0474762
-0.065465
-6.32761e-05
0.190147
-0.0174888
-0.0114857
-0.0344483
0.0224717
-0.000662726
-0.010031
-0.00167943
0.0150324
-0.00190273
0.166867
0.000437492
0.0122056
-0.000517082
-0.0903087
0.0107453
-0.000949461
0.0108372
0.000508896
0.02192
0.122756
0.00144901
-0.00177793
-0.000156862
-0.00071681
-0.000628914
-0.0662609
0.129176
0.0137682
-0.000336152
0.0110162
-0.000571088
0.227119
-0.0653659
0.246818
-0.0475347
-0.00056089
-0.000357081
-0.00878439
-0.00684224
-0.000784796
-2.27622e-05
0.0294833
0.033729
-0.000295783
-0.000416342
-0.022745
-2.74046e-05
0.170488
-0.001146
-0.0573621
-0.0219776
-0.00765915
-0.0602104
-0.066545
0.154805
-0.0225532
-0.0232743
-0.000394158
-0.0613329
-0.0238173
0.00912617
0.102113
0.341976
-0.00144561
-0.0642173
0.0146739
0.298887
0.0448124
-0.00014919
-0.00728112
-0.0049492
-0.00599985
-0.0519848
0.0960869
0.00022356
0.0209011
0.00367547
0.0820006
-0.000648146
-0.000153103
-0.0834228
0.273368
-0.0593968
0.15069
-0.00156174
-0.000252809
-2.9569e-06
-0.0928868
-0.0457133
-0.000424015
0.110218
0.013549
-0.00647161
0.39914
-0.000488733
-0.00449631
-0.0641666
-0.028036
-0.00279408
0.139109
-0.0661539
-0.000207074
0.0139817
-0.000217622
-0.000125721
0.144151
0.000584763
-0.000564149
-0.0555308
-0.0279397
-0.0042597
-0.0335533
0.00293313
-0.0260939
0.00201657
-0.00425151
-0.0699718
-0.0419502
0.0209145
-0.0011006
0.15975
0.208503
-0.0995503
0.0114868
0.0227518
-0.00519133
0.169519
0.113019
-0.0312781
-0.000202852
0.011738
-0.0592241
0.0130971
-0.0316584
-0.00258135
0.0490824
-0.031175
-0.000171133
-9.14244e-05
-0.0404504
-0.0293439
-0.029304
0.011615
0.00570428
-0.0484262
-0.000191446
-0.00171318
-0.000258834
-0.0385397
-3.00212e-05
-0.00236835
-0.0508223
-0.107355
0.113594
-0.00363143
0.00509596
-0.0243298
-0.0287335
-0.000160575
-0.0499947
0.107207
0.16075
2.8879e-05
-0.000138704
0.163703
-0.00307611
-0.0957024
-0.0441578
0.00412825
0.00058945
-0.0716418
-0.0264436
0.167641
-0.0603481
-0.00179966
-0.0113119
-0.0578476
-0.00071713
-0.000300146
-0.00110913
-0.0139647
-0.0553431
0.143408
-0.000262389
0.491942
-0.0197709
0.000143797
-0.00119418
0.000310513
0.000353948
-1.79307e-05
0.00017114
-0.0568401
-0.000890014
0.000533859
-0.000247266
0.144852
-0.00690975
-0.000241025
-5.53808e-05
0.345283
-0.0245449
-0.0392571
0.00137669
-0.000896504
0.0641248
-0.000122217
-0.0152805
-0.127178
0.00265637
-0.00783611
-0.000119985
-0.000258014
-0.0344667
-0.0690762
0.00878454
-0.116576
-0.063033
-3.48311e-05
0.0252438
0.0376718
0.113958
-0.00209796
-0.000194971
-0.0611547
-0.00732354
-0.000617075
-0.0535369
-0.00017098
0.0447371
-0.000110019
-0.0015553
-6.52973e-05
-0.00258248
-0.0631671
0.448666
-0.00201678
0.000338566
-0.0599802
-0.0604661
0.0111467
0.00575793
-0.000187735
-0.0349363
-0.000104606
0.198156
0.597515
0.081635
0.00370252
0.0043927
-2.32585e-05
-0.0314576
-7.12649e-05
-0.0085347
-0.00207489
0.000456348
-0.00407145
-0.0113949
-0.000152383
0.00106275
-0.00986326
-0.000387312
-0.0120184
-0.0189285
-0.00803427
-0.00141778
0.534737
-0.000852838
0.00296758
0.000300793
0.0167144
-0.0538517
0.0116289
-0.000220123
-0.000123676
0.00323965
-0.000136019
-3.60331e-05
-0.013735
0.000853976
-2.98138e-05
-0.0554685
-0.00278
-0.0602163
-0.00200456
-8.40672e-05
-0.00378978
-0.00948951
-0.0175652
-0.0269032
0.00282434
0.000642287
-0.000572767
-0.00237485
-9.81317e-05
0.274814
0.00190107
-2.45028e-05
0.000713056
-0.00247174
-0.00044034
-0.0683169
-0.0587836
-0.00016153
-0.00832368
1.637e-05
-0.00319383
-9.06949e-05
0.0407212
-0.000173937
-0.000229773
-0.00429614
-2.89076e-05
0.0162949
-0.000278909
-0.00153385
0.0225062
1.48928e-05
0.368425
-0.058212
-0.0458182
-3.10016e-05
-2.58861e-05
0.00226838
-0.00143859
-0.0563631
-2.10651e-05
-2.86441e-06
0.000903738
-3.54171e-06
0.000464615
0.000550014
-0.000561172
0.000963881
-0.056994
0.461439
-0.0382842
0.331157
0.0109583
-0.0195438
-2.29178e-05
-0.00107114
-0.014279
0.000177286
0.000348687
0.000208712
0.0681416
-0.0016542
-0.000267455
0.475528
-0.000664431
0.000715222
0.000615638
-5.65254e-06
0.0360417
-0.00264864
0.00138637
0.000154456
-0.000654323
-8.41285e-05
-0.00114341
-0.0482882
-0.000507938
-0.0019486
-1.7053e-06
-0.00063194
-0.000318366
0.194424
-0.000538378
-0.000335488
-0.0746156
0.00458305
-0.000105207
-0.00161504
-7.55922e-05
0.178043
-0.0792267
-0.000364278
-0.000472035
-0.00229108
-0.00019192
0.0646391
0.120133
0.034746
0.00062224
-8.32453e-06
-1.07819e-06
0.0623442
0.00031132
-0.0659723
-0.0277936
-0.0184796
-0.0213987
0.539721
0.00237537
0.19775
-0.0170805
-0.0327834
0.180945
-0.000435245
-0.0710863
-1.57847e-05
-0.0105642
-0.0533358
6.72642e-05
-0.0549466
-0.00114876
-0.00784318
-0.00658705
-0.046791
-0.0466388
-0.00382786
-0.0676963
-0.0479621
-0.000228603
-0.0142214
-6.40647e-05
-0.041618
-3.42843e-05
-0.000227508
0.0205693
0.172206
-1.55923e-08
-0.0499227
0.00432228
9.24736e-05
-0.0241377
7.07884e-06
-0.0159054
-0.00031543
-0.0423858
0.000156885
-0.000106344
-0.00244953
-5.82936e-05
0.168043
-0.0342574
0.0806691
-3.69855e-05
0.000767678
-0.0364475
8.56535e-07
-0.0622099
-0.0718644
-0.0604095
0.496485
-0.00764152
-2.15018e-05
0.0306372
-0.0460485
-0.00304158
-3.08885e-05
-0.000104226
-0.0517274
0.000156974
0.00106833
-5.33996e-07
0.000195954
-0.0316527
0.114797
-0.0709517
0.106221
-0.00630808
-1.29782e-06
0.00752461
-0.0572129
-2.5393e-05
-1.6994e-05
0.000392804
7.86847e-05
0.000495362
0.223868
0.0409038
6.85733e-05
1.33274e-05
-0.0712037
0.208568
0.184579
-5.50646e-05
-0.0403752
-0.022319
-0.0123014
-0.0523475
-0.0100772
-0.00345601
0.149872
-5.03008e-05
-0.0298353
0.176879
-0.0536483
-2.12194e-05
-0.0663197
-0.00021293
0.282655
0.0329465
-1.7415e-05
-3.34833e-05
0.192865
4.2057e-06
-0.000222018
-0.0137119
1.54646e-05
0.251335
0.00403265
-0.00865871
-0.0687124
-0.00445415
-0.0853515
0.191841
-0.0133553
-0.0300606
0.00121568
-2.37212e-05
-0.00123009
-9.8563e-06
-1.95192e-05
0.0279389
0.189403
0.158832
-0.00053104
0.253238
-0.0135291
9.145e-06
-0.0499711
-2.15875e-05
-0.0314381
0.0340474
-0.01687
0.00537188
0.00224385
-0.0108447
0.000306005
-0.00199476
0.0230481
-0.0033953
-5.825e-05
3.58824e-05
-7.43152e-05
0.0366958
6.68218e-05
-0.0256843
0.265856
-0.00704827
6.16286e-05
-0.00409389
-1.23556e-05
0.0795922
-0.000430245
-7.91228e-05
-0.000102697
-1.59534e-05
0.218493
-0.000185123
0.241627
-0.0672695
0.000138137
-0.0578611
-0.000582312
0.165738
0.488188
-0.00166867
2.91712e-06
1.9196e-05
-2.55928e-05
0.146418
6.95152e-07
0.00126463
-0.0275331
0.229326
8.02335e-06
1.81641e-05
3.42519e-06
3.02508e-05
-0.0234199
2.11926e-06
0.261619
-0.0185502
-0.000147911
3.62252e-05
-0.00243418
-0.0320647
1.52911e-06
-6.81081e-05
0.174867
4.10078e-05
-0.0356632
-0.0596569
0.000162398
8.432e-07
-0.14328
1.38982e-06
0.172506
1.78301e-05
-0.000533824
1.39589e-05
-0.000210209
0.100709
3.69408e-06
-0.00194419
9.74768e-06
0.0151482
-0.00399668
-0.00748545
0.000973467
0.162718
-0.000322601
-9.68323e-05
-0.0103081
-0.00995056
-0.000290951
-6.43873e-05
-0.00106183
4.83299e-05
0.177026
-0.0119747
0.479766
-8.55137e-07
-0.00888568
-0.000187466
0.142189
6.85031e-05
-0.0298498
2.83743e-05
-0.0018687
-0.0372523
-0.000276369
-0.0179866
-0.0544659
0.0060541
-1.09031e-05
-0.0629778
-0.000398935
-0.000352322
-0.00646761
-0.0162687
0.00153263
-5.9589e-05
-0.000519251
-0.00108653
-0.0015082
1.57268e-05
-0.00142813
0.471595
0.000117789
-0.00383455
-0.0387359
-0.0781346
-0.0686614
-0.0524516
-0.0246331
-0.000626203
-0.0183295
9.24704e-05
-9.78324e-05
0.472435
-0.000112884
0.184136
-0.000537398
0.00048308
-0.00133909
-0.0745606
-0.000497987
0.000745661
-1.83909e-05
-0.000467717
-1.8771e-05
-9.54388e-05
-0.0169721
-0.000131692
-3.27723e-05
-9.94925e-05
0.000177176
-1.23389e-05
-0.0472022
0.230956
-1.19949e-05
-0.000717129
3.7057e-05
3.73694e-05
-0.000988397
1.10771e-05
-0.00107058
0.000343014
-0.000436703
-0.0692908
-0.000821016
-0.00215522
5.81132e-06
-0.00185099
0.000407486
-1.82369e-05
-1.18548e-05
1.62471e-05
-0.000942807
0.000653125
-0.0489356
-0.0306867
-0.0697193
0.000690482
-0.00219067
-0.0221005
-0.0701937
-0.00011295
0.0182848
0.00814876
-0.00124138
-0.0135307
-0.0603126
0.427553
-0.000498439
-1.81955e-05
0.0010569
5.94022e-05
2.14743e-05
0.0819604
0.00433677
0.0941445
-0.041139
0.416579
-0.000623362
2.57102e-06
0.000184218
-2.18416e-05
-0.00161519
0.161486
0.226971
-6.48221e-06
-0.000204799
-2.08392e-05
0.215382
0.0207785
-0.00668583
1.42385e-05
2.34593e-05
0.00856259
-0.000826592
-0.0778486
-0.0189486
2.89294e-05
0.00415593
-0.0349574
-7.2e-05
0.00214475
-8.05494e-05
-0.0500948
-0.00204504
0.153865
2.00865e-05
0.00199432
-0.000117245
1.81085e-05
0.000209444
-0.0257962
1.77588e-05
-0.00108141
2.7152e-05
-0.0222049
-0.0493788
-0.00359967
-0.0082328
-0.00983646
0.0106982
-0.00997444
-0.00288009
8.11942e-05
0.000127456
2.46378e-05
2.15685e-05
-6.73171e-05
0.0106813
-0.0637614
0.000595746
-0.0495123
-0.00359274
-0.0562971
0.000105181
-3.18506e-06
0.00155873
-0.0662143
2.18157e-05
-0.0490798
-0.0167365
0.0128379
-0.0498547
3.20984e-05
-0.0040174
0.000235257
-0.133326
0.140929
1.3588e-05
-0.0650919
-0.0249958
-0.00492421
4.56415e-05
-1.03742e-05
0.0307733
-0.0186274
2.87614e-05
-0.00779243
-5.61718e-06
0.000261401
0.13069
-1.00921e-05
3.5624e-06
-0.000102664
4.15895e-05
0.00107357
0.000105815
-0.00606452
0.000283299
-0.0142176
0.00131759
-0.000246424
-0.035975
-0.0470005
-0.00719278
-1.82241e-05
2.57575e-05
-0.0676035
0.00679743
-0.0517941
3.42525e-05
-0.00593323
-4.37781e-05
2.92395e-05
0.079489
-0.00800716
-0.00323225
-1.69407e-06
-0.019798
5.95358e-05
-0.0724529
3.21204e-05
-0.0814353
2.25999e-05
-7.17538e-06
0.000102176
0.00122143
-0.0879718
-0.0201785
-0.0755828
1.89486e-05
0.000114435
-0.0833487
-0.0282256
-0.00958079
-5.77959e-06
-0.0322637
-0.0553774
-0.0825871
3.9269e-06
-9.22842e-06
5.28746e-06
-0.0868844
-0.0734195
0.000863838
-0.0124781
-6.69106e-05
0.222021
0.00011401
1.70286e-05
0.000182228
-1.07367e-05
-1.01578e-05
-0.00417874
0.000137199
-0.00297369
-0.0707624
-0.0147
-0.0619006
4.79541e-05
-6.10491e-05
0.0580715
-0.0574412
-0.00544553
0.118796
5.52112e-06
-1.59756e-05
-1.46282e-05
0.118179
0.000209484
-1.21226e-06
-5.63003e-06
-0.0669668
-0.0173326
6.54386e-06
9.45961e-05
-0.0104511
-0.00733534
0.000513832
0.22911
-0.0652254
0.000193421
0.604719
-2.19676e-05
-0.000808129
-0.00966536
-0.081188
7.47732e-06
-3.19407e-06
2.58542e-05
0.00567238
-0.0364493
-0.000397909
-0.0537071
-0.00877097
3.23254e-05
-5.57401e-06
-0.0114501
-0.00415865
-0.0129148
-0.0725829
-0.0491592
-0.0424942
0.00395854
-0.0300988
-7.50639e-05
0.000426323
0.00959298
0.000638576
-9.34286e-05
0.000913336
3.69842e-05
-0.000108064
-0.0136182
-1.43647e-05
-3.37752e-05
0.0417376
-0.0222836
-0.000190621
-4.72188e-05
-6.5999e-06
0.248836
-0.00752206
0.000937772
-0.0310671
0.000275237
0.000239307
0.000207384
-5.7835e-05
0.000580286
-0.0415971
0.0193262
-1.09132e-05
-0.000193353
-0.0458894
-0.0352402
0.053851
-0.00057847
0.00216946
0.0206504
2.13418e-06
7.29975e-05
-0.0530864
2.66965e-05
0.169673
9.81524e-06
0.00494431
0.00020122
0.000268902
-0.075263
-0.00829759
-0.0199296
-0.00277141
3.16709e-05
0.00761445
0.066991
-0.0138008
-0.000159462
0.100568
0.16581
4.12216e-06
-0.0565307
-7.91291e-05
-1.21328e-05
-5.29651e-05
-0.000667005
0.0227969
-7.10711e-06
0.00029744
-0.0274692
-0.0284593
-0.0244721
0.307644
2.09699e-05
-8.19417e-05
0.174429
-0.0062958
-0.00434884
-0.000767377
0.171877
5.27713e-05
-0.000368497
5.51019e-05
3.17611e-05
3.76495e-05
4.30211e-05
8.83313e-05
-0.0197164
9.7896e-06
-0.00381329
-0.0483886
0.24139
-0.00016664
-5.87843e-05
0.00554012
0.0907156
-0.0523019
-0.000882094
-0.0758808
0.306346
5.16293e-05
0.393646
-5.28849e-06
0.00394207
0.027906
0.000523516
0.424582
-1.7227e-05
-7.24097e-06
0.00137317
3.70614e-05
-0.00101005
0.000315437
1.3087e-05
-0.00226578
1.19442e-05
-0.000172005
-0.00379525
0.243898
0.0575675
0.0253165
-0.0475754
-6.08432e-06
-2.14963e-05
0.00401889
-0.0621409
-1.15131e-05
-0.0507844
-6.35671e-05
0.10966
0.0674381
-0.0366525
-0.00156786
-0.0135748
-0.00114722
-0.0165939
0.00450847
-0.00838241
0.0702264
2.55642e-06
0.243084
0.0393274
-0.000691833
0.214082
-0.014994
-1.47384e-05
2.78848e-05
7.96357e-05
-0.000248074
-0.000144628
0.246789
-0.0011419
0.252808
-0.00125674
0.170016
0.224734
0.122762
-0.00798195
-6.09682e-06
7.67212e-05
-0.0119551
-0.137531
-0.0539068
0.00176534
2.39576e-05
-0.0417946
-0.000373451
7.58289e-06
0.00120046
-0.00124293
-0.000761952
0.0374068
9.02352e-05
-0.0526188
0.0646244
6.93928e-05
0.000322022
-0.0161714
-0.0651074
-0.000854722
-0.000609714
1.54419e-05
0.000300318
0.0922062
-0.0191847
-0.0533841
0.00155105
0.105156
-0.0430686
4.27445e-05
2.70295e-05
0.0248415
-0.00010637
0.0901208
0.0016428
-0.0152405
-0.000449658
0.00192091
-0.0403424
-4.17904e-05
0.000588184
0.00139357
-0.0809317
0.158822
-0.0677697
-0.0301366
-0.000195524
-5.40316e-05
0.00786025
5.53155e-05
-0.0808754
-0.0729187
0.000674956
0.00402331
0.00444651
-0.11256
0.000764807
0.000228647
4.52468e-05
-0.046045
3.39771e-05
0.000669143
0.127984
0.184074
-0.126587
0.0544311
0.0536396
0.0237234
-0.000188479
0.0136178
0.000147888
1.03049e-05
-8.73915e-05
-6.86354e-07
3.10195e-05
-0.00041923
-0.00869236
-0.0627833
-0.0110592
-0.0327794
0.0586983
0.0490756
0.00479465
-0.0709932
0.000193846
0.00549407
0.0132269
-0.000455321
0.0832842
-0.00144547
-0.0124421
0.0140326
0.00645014
0.00121223
-0.00462964
0.0491116
0.000977237
-0.0221473
-0.0185857
0.498762
-0.0279711
0.0891211
0.0272401
-0.0424344
0.00258656
0.000122255
-0.00296262
6.74376e-05
-0.00304116
-0.0285158
-8.23825e-05
-5.49956e-05
0.274421
-0.00381127
-0.0464051
-0.021175
0.00024302
-0.00166463
-2.72647e-05
9.24482e-06
0.0439607
4.80929e-05
-0.00339279
0.0841076
0.00738083
0.00133001
0.0213875
-0.00659012
0.00489633
-0.124502
0.00102758
-0.00510177
-0.0622715
-0.00100463
-0.0092171
0.000892104
0.00108741
0.0011729
0.0426362
-0.000373785
0.00664347
-0.0596608
-0.0233581
0.000370229
-0.0590332
-0.0169195
-0.0193464
0.000124753
0.007742
-0.0783916
-0.000981631
-0.00557797
-0.0544863
0.000166342
-0.00135805
0.224932
-0.0245071
-4.9065e-05
0.00962682
-0.0568257
-0.00122322
0.199394
-0.00255086
0.0012001
0.0652765
-0.00165771
0.00976872
0.134213
7.47757e-05
0.00138609
0.000212955
4.31789e-05
-0.00518327
-0.00829211
-0.000156587
-0.0271634
0.106176
-0.041291
-0.0817045
0.00137464
-0.00377429
-0.000720341
-0.0524337
3.22684e-05
0.0196349
5.26436e-05
-0.0179818
-0.00225848
-0.00571756
-0.0316039
0.125744
-0.0899292
-6.26604e-05
0.20144
-0.00227255
-0.00295934
-0.0650882
-0.0937363
-0.0176858
-3.52779e-05
-0.00131883
0.00846957
-0.0035715
-0.00542943
0.000515977
0.0943081
-0.0491035
-0.012632
-0.00764934
0.0271502
-0.00291552
-0.00126038
0.00201044
-3.96383e-05
-0.0035661
0.123087
0.000938156
-0.138716
-6.65692e-05
-0.00839195
-0.00421711
-0.103238
-0.0130725
-0.122547
-7.58961e-05
-7.35393e-05
-0.00478814
0.0124487
0.00214918
-0.144104
0.0952721
-0.0540398
0.000224178
-0.161802
1.02177e-05
-0.171067
-0.0286297
-0.187876
-0.187486
-0.179344
-0.141665
-0.0617556
-0.0302316
-0.000473365
0.029232
0.0594479
0.14678
0.175604
0.202223
0.248951
-0.00920018
-0.00842123
0.0697407
-0.0204784
0.00106155
0.0183333
-0.045187
0.000612124
-0.000790686
-3.42812e-06
-0.0161548
0.0206077
5.28062e-05
-0.000374893
-0.0119306
-0.00690492
-0.189781
-0.0151443
-0.0623718
-5.76144e-06
0.000676389
-6.17192e-05
-0.0616855
-0.010013
-0.0409666
-0.0120021
0.00202799
0.00026408
0.00552652
-3.88364e-05
-0.0123325
-1.78797e-05
0.000442077
-0.00699117
-0.0130564
-0.000329369
0.000389625
0.054127
-0.0117702
0.0716175
-0.180586
-0.00934269
0.118651
-0.0211354
0.00434291
-0.0241588
-0.00375531
-0.0141946
-0.0144401
0.336241
-0.00152689
8.20001e-05
-0.00664419
-0.0101759
3.70423e-06
0.0872283
-0.00468012
0.315336
-0.0952876
-0.0486671
-0.0299605
0.051943
-0.00566997
-5.81182e-05
-8.97408e-06
-0.00478644
-0.0659742
6.80448e-05
0.337032
-0.00317289
-0.00567715
-0.000104506
-0.0004434