/*--------------------------------*- C++ -*----------------------------------*\
  =========                 |
  \\      /  F ield         | OpenFOAM: The Open Source CFD Toolbox
   \\    /   O peration     | Website:  https://openfoam.org
    \\  /    A nd           | Version:  7
     \\/     M anipulation  |
\*---------------------------------------------------------------------------*/
FoamFile
{
    version     2.0;
    format      ascii;
    class       volVectorField;
    location    "22.5";
    object      U;
}
// * * * * * * * * * * * * * * * * * * * * * * * * * * * * * * * * * * * * * //

dimensions      [0 1 -1 0 0 0 0];

internalField   nonuniform List<vector> 
7724
(
(1.24101 0.161956 3.98696e-21)
(1.06515 -0.0632792 2.67283e-22)
(1.03144 0.230966 -1.72168e-20)
(1.08638 0.105753 2.16033e-20)
(0.998927 -0.00131445 -3.65442e-23)
(0.999948 -1.25231e-05 -3.60511e-24)
(1.00544 0.188274 -3.64788e-20)
(0.993118 -0.00247543 -7.49375e-24)
(0.999844 -0.000243259 -6.31731e-24)
(1.03547 0.000808105 -1.01141e-21)
(0.999952 -1.48837e-05 3.97792e-24)
(1.00293 -0.00167927 -1.52417e-22)
(0.989485 -0.0031257 3.75526e-22)
(1.0275 -0.00283574 -6.22194e-21)
(1.03461 0.00158634 4.28968e-21)
(0.988511 -0.019834 -7.65474e-22)
(1.25509 0.165844 -8.32561e-21)
(0.985866 -0.00399964 -1.30501e-22)
(1.00298 -0.0127167 -4.34737e-23)
(0.971587 -0.121618 -6.51354e-22)
(1.04946 -0.00998685 -2.05996e-21)
(1.00194 -0.000984247 2.88087e-22)
(1.02488 -0.00483588 5.27586e-22)
(1.01987 0.0496735 -1.18855e-20)
(0.981197 -0.00499987 -5.92237e-22)
(1.23222 0.170802 -4.70997e-21)
(0.998977 -0.0012471 -2.57359e-23)
(1.03322 -0.00317582 2.47652e-21)
(1.00853 0.0238748 -1.48555e-21)
(1.00483 -0.0135807 3.50348e-23)
(0.982357 -0.0208455 -1.35978e-21)
(0.7144 0.0883924 6.32148e-21)
(1.0245 -0.00586199 3.24986e-21)
(0.999384 -0.00052536 4.50864e-23)
(0.999865 -8.40676e-06 8.3276e-26)
(1.03431 -3.69448e-05 1.49062e-21)
(1.00555 -0.0149167 4.35558e-23)
(1.01451 0.179153 -5.76467e-21)
(0.995144 -0.0105432 6.25106e-22)
(0.999568 -7.71361e-05 4.2951e-23)
(0.995675 -0.0108575 -7.06468e-23)
(0.988694 -0.0185922 -2.79632e-22)
(1.00255 -0.134415 3.0614e-21)
(1.16897 -0.100747 8.19716e-22)
(0.999742 -1.57002e-05 1.37245e-23)
(0.999898 -2.08891e-05 -3.81464e-24)
(1.00183 -0.000802879 -1.75924e-22)
(0.994892 -0.00963705 -3.70395e-22)
(0.999913 -3.93601e-05 -3.04094e-24)
(0.97659 -0.122597 9.49211e-22)
(1.00428 -0.00148079 1.64415e-22)
(1.0328 -0.00171415 -2.56907e-21)
(0.975502 -0.00597879 -1.99226e-21)
(1.0134 -0.0413467 5.16331e-23)
(1.03492 -0.00133846 -8.59802e-22)
(0.993957 -0.00341456 -6.90315e-23)
(1.00287 -0.0118362 9.59921e-23)
(0.993069 -0.00214342 5.12475e-22)
(0.970097 -0.0249131 -2.40196e-21)
(0.999361 -0.000467182 -5.7844e-23)
(1.00005 -3.0904e-05 -7.00053e-24)
(1.00561 -0.00157582 1.83515e-22)
(1.02784 -0.00179095 -1.47235e-21)
(1.00315 -0.00145581 1.54327e-22)
(0.998765 -0.000255354 8.30581e-23)
(0.983108 -0.0216444 2.3224e-22)
(0.999876 -0.000243322 4.78336e-24)
(1.00002 -3.26224e-06 4.88741e-25)
(1.23406 0.00522799 8.75208e-22)
(0.995129 -0.00912869 -1.12709e-22)
(0.999904 -2.58028e-05 3.38026e-24)
(0.960171 -0.0731421 -4.59085e-21)
(0.982001 -0.00555105 2.89398e-22)
(0.966165 -0.00741071 3.90587e-22)
(0.986491 -0.00441789 4.09352e-22)
(0.95398 -0.0355844 -5.19806e-22)
(1.04273 0.230512 2.76981e-20)
(1.04677 -0.00945452 2.63506e-21)
(1.11749 -0.0229652 -3.32659e-21)
(0.940281 -0.0598231 -5.63698e-21)
(0.989981 -0.00345942 -5.76455e-22)
(1.00379 0.108649 3.63287e-20)
(1.05979 0.00356823 6.20148e-21)
(0.96551 -0.0131144 1.79996e-21)
(0.998238 -0.00331735 -5.92697e-23)
(0.997101 -0.000421408 6.19725e-23)
(0.992656 -0.00326217 7.06291e-22)
(0.976453 -0.00668957 1.28139e-21)
(0.999174 -0.00155111 3.90533e-23)
(0.994225 -0.000882227 2.20339e-22)
(1.00913 0.0272518 1.10957e-20)
(1.20591 -0.0993921 -1.46474e-21)
(0.999827 -7.16674e-05 -8.15779e-24)
(1.00236 -0.0100442 4.09374e-23)
(0.995429 -0.00135526 1.99752e-22)
(0.965759 -0.00411668 -3.12726e-21)
(0.963186 -0.0727538 3.15464e-22)
(1.01578 -0.0400385 1.34504e-22)
(0.998054 -0.00319824 1.98989e-23)
(0.998527 -0.000253154 2.77875e-23)
(0.934991 -0.0215006 1.32918e-21)
(1.12083 -0.0172212 2.84881e-21)
(0.995687 -0.00154077 -4.97738e-22)
(0.999966 -1.605e-06 -3.03155e-25)
(1.21403 -0.0899454 -1.17753e-21)
(1.05336 0.0442652 -1.02857e-20)
(0.860578 0.0632828 7.03599e-21)
(0.993553 -0.00322495 -2.87234e-22)
(0.999989 -3.06768e-06 3.90644e-26)
(1.03367 -0.0206382 -1.05772e-21)
(1.08915 0.0979103 -2.50832e-20)
(1.02511 -0.103821 -3.78712e-21)
(0.999986 -3.66393e-06 -7.89874e-26)
(1.036 -0.0216685 -2.28702e-22)
(1.04729 0.0429146 1.08242e-20)
(1.00055 -0.000753972 -1.36854e-23)
(1.07556 -0.128653 -2.48782e-22)
(1.04885 0.0230607 -2.45266e-21)
(0.976148 -0.0587345 2.01153e-21)
(0.965758 -0.00901009 -4.09467e-22)
(0.93073 -0.0140747 -3.19807e-21)
(1.00301 0.0587048 -2.3763e-20)
(1.00992 -0.133382 -4.20998e-21)
(1.01283 -0.0108533 8.99011e-23)
(0.93305 -0.0161036 1.26018e-21)
(0.998797 -0.00180116 8.7057e-23)
(0.983987 -0.0158247 4.56854e-22)
(1.00368 -0.0113019 -6.5683e-23)
(0.998696 -0.000187702 -1.85234e-22)
(0.982494 -0.019221 2.44505e-23)
(1.23145 -0.128039 -8.87282e-22)
(1.10923 -0.0229815 5.8604e-22)
(0.999235 -0.000713632 4.919e-24)
(0.999037 -0.00158852 -7.57613e-23)
(0.963898 -0.0119855 5.34884e-22)
(1.08086 0.0878949 9.12408e-21)
(0.992712 0.0526798 4.4879e-20)
(0.999969 -3.29078e-06 -3.55027e-25)
(1.00974 -0.00423637 7.71328e-23)
(0.906168 -0.0174367 -3.98208e-21)
(0.968311 -0.00536638 -1.59678e-21)
(0.981217 -0.081043 -3.04066e-21)
(0.954557 -0.038307 7.04686e-22)
(0.968068 -0.00668279 -3.47249e-23)
(0.844935 0.0496278 2.78484e-20)
(1.01331 -0.0624204 -1.15283e-22)
(1.01858 0.0286842 -5.60588e-21)
(0.972979 -0.0297871 -1.25745e-21)
(0.952935 -0.00707188 4.38641e-22)
(1.00349 0.0858567 -1.17241e-20)
(1.03485 0.000844876 3.71037e-21)
(1.19202 -0.0962122 -5.53882e-23)
(0.998118 -0.00263841 -2.06928e-22)
(1.23247 -0.00528402 -1.94558e-22)
(1.05672 0.00357372 -6.50563e-21)
(1.04289 0.178041 -2.76425e-20)
(0.947076 -0.0415747 2.16151e-21)
(0.989481 -0.00241174 1.27865e-22)
(0.889022 0.170485 5.98862e-20)
(0.99992 -3.34049e-05 -2.82751e-24)
(1.00173 -0.0105897 -2.18905e-23)
(1.02068 0.0552994 8.62623e-21)
(0.999972 -2.58883e-05 1.55515e-24)
(0.997742 -0.00674046 -2.93993e-22)
(0.994833 -0.00130953 -9.56276e-23)
(1.00743 0.0656928 -2.88597e-21)
(1.00398 0.0492507 1.0866e-20)
(0.870334 0.18983 1.99106e-20)
(0.997373 -0.00652078 -1.82713e-22)
(0.99601 -0.000496925 -1.08758e-22)
(1.00002 -3.93155e-06 -4.58189e-25)
(0.926593 -0.00855777 -5.48001e-21)
(1.00053 -0.000671124 1.88943e-23)
(1.06833 -0.0588301 -3.27667e-22)
(1.01011 -0.00462697 5.12653e-22)
(0.954051 -0.00838271 9.07093e-22)
(1.20973 -0.0758937 -1.39882e-21)
(1.19363 0.0484998 5.79239e-23)
(0.999829 -8.7524e-05 4.43454e-24)
(0.999358 -0.000823619 -5.16127e-23)
(1.09272 0.111783 -3.75331e-21)
(0.999921 -2.38605e-05 -1.38263e-24)
(0.999856 -1.63987e-05 2.1165e-24)
(1.00998 0.201718 -2.95689e-20)
(1.06677 -0.0680511 -3.32783e-22)
(1.00995 -0.0870933 -2.03572e-21)
(0.978727 -0.057063 -2.85597e-21)
(0.969175 -0.00963855 1.17593e-21)
(1.00933 -0.0637739 2.16037e-22)
(0.908385 -0.0147503 2.09753e-21)
(0.99997 -2.35586e-05 -5.76076e-25)
(0.964175 -0.0683169 -1.10798e-21)
(1.20447 0.0540062 -3.55006e-21)
(0.995666 -0.00187729 7.1506e-23)
(1.0001 -8.94153e-06 -4.85309e-24)
(1.16266 0.0828842 4.85559e-22)
(0.998404 -0.000514355 1.96611e-22)
(0.983603 -0.0184959 7.29697e-22)
(1.00597 -0.0602058 7.00127e-22)
(1.00002 -2.87815e-06 -1.95911e-25)
(1.00115 -0.00260359 -7.66961e-23)
(1.07401 0.0894941 1.17081e-20)
(1.19748 0.0757186 -5.62997e-21)
(1.02575 0.157936 -3.74119e-21)
(1.07246 -0.120618 1.84168e-21)
(1.03023 -0.0999582 8.52249e-22)
(1.11921 -0.171732 -7.18971e-22)
(1.034 -0.00355794 7.37979e-21)
(1.06624 0.0841892 -3.89272e-21)
(0.999725 -2.89939e-05 -1.61106e-23)
(1.00005 -2.7215e-05 1.87043e-24)
(0.895739 0.0258583 -2.68816e-20)
(0.990266 -0.0178367 -2.6498e-22)
(0.999205 -0.000636136 -4.90283e-23)
(0.967118 -0.0673508 2.2955e-21)
(0.983227 -0.0166835 -5.34544e-22)
(1.05882 0.15553 -2.97858e-20)
(1.04908 0.153087 -6.37187e-21)
(0.977621 -0.0828071 8.26557e-22)
(0.771867 0.12599 -2.377e-20)
(0.998519 -0.000582674 -1.44607e-22)
(0.985923 -0.00345631 4.67271e-22)
(0.932516 -0.0196061 1.74367e-21)
(1.0482 -0.00302543 -1.51433e-21)
(1.00492 -0.164974 -3.87723e-22)
(1.26255 0.117545 -6.54641e-21)
(0.887801 0.148598 -5.12547e-20)
(1.00008 -0.000143468 5.60295e-24)
(1.0128 -0.0100181 2.54455e-22)
(1.04638 0.0274837 1.33291e-20)
(0.995047 -0.00792348 -4.71841e-22)
(1.05292 0.0226043 -1.6601e-21)
(0.999317 -0.00168699 -1.2373e-23)
(0.812396 0.217731 4.096e-20)
(1.03914 0.162833 6.3148e-21)
(0.992652 -0.00281688 4.48405e-22)
(1.00475 -0.0113747 -1.11039e-23)
(0.999596 -8.8201e-05 -7.97473e-23)
(1.25119 0.0463668 1.21234e-21)
(0.999875 -1.41482e-05 6.27763e-24)
(0.993148 -0.0145356 2.26008e-22)
(0.918347 -0.0385342 2.39993e-21)
(0.999904 -3.46304e-05 -1.39794e-24)
(0.998378 -0.00387187 -5.01417e-23)
(0.999466 -0.00163796 2.28773e-23)
(1.1242 0.047297 8.02689e-21)
(0.999973 -3.34421e-05 1.83955e-24)
(0.993981 -0.000678231 2.50486e-25)
(0.943344 -0.0594769 6.53874e-21)
(0.718392 0.0661584 -1.39813e-20)
(1.10604 -0.0284409 -8.31679e-22)
(0.841111 0.143655 3.15438e-20)
(0.999939 -1.08796e-05 -3.37644e-24)
(1.0028 -0.0609849 -4.53859e-23)
(0.999758 -0.000419226 -1.7607e-23)
(1.03312 0.186668 -2.82794e-20)
(1.00519 -0.00106377 -2.36823e-22)
(0.989303 0.0709004 1.44319e-20)
(1.00363 -0.0136457 -1.81254e-22)
(1.00102 -0.00278416 8.22004e-23)
(1.0374 -0.0493539 -2.13573e-22)
(1.03402 -0.00193609 -6.83512e-21)
(1.00076 -0.000450471 3.90238e-23)
(0.9997 -7.30834e-05 3.99657e-25)
(1.00066 -0.000607727 8.7824e-23)
(0.994787 -0.00840345 -4.22355e-22)
(1.01834 -0.091292 2.40326e-21)
(0.999942 -1.47232e-05 2.28387e-24)
(0.949187 -0.0398879 1.52589e-21)
(0.995097 -0.00150465 -1.81295e-23)
(0.999812 -6.11947e-05 8.67362e-24)
(0.999182 -0.000791233 1.59543e-23)
(0.982909 0.116867 3.45948e-20)
(0.989433 -0.00112567 1.84354e-22)
(0.998994 -0.00014311 -1.66735e-23)
(0.788526 0.0298807 5.32461e-20)
(0.998176 -0.00372127 -1.13979e-22)
(1.1679 0.136445 -7.06269e-21)
(0.99973 -0.000387273 3.22489e-23)
(1.00999 -0.0310969 -4.13125e-24)
(1.00002 -2.1294e-06 -1.68516e-25)
(0.975873 -0.0476679 -1.12999e-21)
(1.04703 -0.00312118 2.36149e-21)
(1.21599 -0.0688568 2.72134e-21)
(0.970403 -0.026812 2.03876e-21)
(0.999463 -0.000832494 5.95595e-23)
(0.970756 -0.104435 1.44617e-21)
(0.977962 -0.000650695 8.42673e-22)
(0.99976 -2.63531e-05 8.52392e-25)
(1.00064 -0.000530411 -7.77134e-23)
(0.99728 -0.00483029 1.57992e-22)
(0.98993 -0.00201736 -5.52521e-22)
(1.00404 -0.00130169 -2.80584e-22)
(0.998389 -0.00266219 7.50067e-23)
(0.967259 -0.0122618 2.83413e-22)
(1.02429 -0.089034 -1.74168e-21)
(0.967433 -0.0103016 1.25326e-21)
(1.16585 -0.0896256 -2.09322e-22)
(0.956834 -0.0113766 -1.58707e-21)
(1.08669 0.20526 2.97029e-21)
(1.07951 0.2151 -2.14926e-20)
(0.998017 -0.00106085 -1.26292e-22)
(1.23471 -0.081408 -6.07156e-21)
(0.999978 -4.50492e-06 -1.91497e-25)
(0.997222 -0.00598743 -1.9357e-22)
(0.964874 -0.00287248 3.19627e-21)
(1.0148 0.0444825 7.13246e-21)
(1.06323 0.0102239 -6.1631e-21)
(1.00013 -4.67729e-05 1.10627e-23)
(0.997392 -0.00564292 -1.26608e-23)
(0.958345 -0.0126012 1.19641e-21)
(1.09641 0.0491645 -3.63225e-21)
(0.998697 -0.00165922 6.53455e-23)
(1.00451 -0.00108131 1.58751e-22)
(1.00166 -0.0013714 -1.42066e-23)
(1.18006 -0.0230013 1.15886e-21)
(1.22742 -0.138792 -5.18602e-21)
(1.16312 0.224958 1.12519e-20)
(0.99789 -0.000341505 -1.23006e-22)
(1.07854 -0.0681985 3.26919e-22)
(0.999849 -9.40495e-05 -7.03486e-24)
(1.00641 -0.0101185 -5.31363e-22)
(0.999928 -1.88159e-05 -9.73052e-25)
(0.980189 -0.0289328 3.60144e-22)
(0.999542 -0.000103893 -1.53265e-23)
(1.01604 -0.0309668 1.19939e-22)
(1.25445 -0.0909793 6.37613e-21)
(0.963995 -0.0378474 2.45367e-21)
(1.01166 -0.0303777 -3.92609e-23)
(1.01148 -0.0089632 -3.28737e-22)
(0.999031 -0.000186391 7.48673e-23)
(1.03616 -0.0271661 7.35641e-22)
(0.995254 -0.0260779 3.61568e-22)
(1.11569 -0.00784792 -1.86184e-21)
(1.11503 0.0476158 3.87073e-21)
(1.16716 -0.196325 1.15285e-22)
(1.16264 -0.109075 -2.62634e-21)
(0.977003 -0.00131734 -9.00224e-22)
(1.00684 -0.00506288 5.0484e-22)
(0.921411 -0.0365664 -9.28069e-22)
(0.848399 0.188823 -6.27202e-20)
(1.14224 -0.102895 2.97302e-21)
(1.03781 -0.0175213 -3.00764e-21)
(0.793156 0.136908 -3.19988e-20)
(0.997962 -0.000258151 6.08301e-23)
(0.997678 -0.0013089 -3.89822e-23)
(1.18441 -0.104358 -2.70968e-21)
(0.998586 -0.00288521 -3.97966e-23)
(1.01408 -0.0583853 1.95299e-22)
(1.00789 -0.00250959 1.79154e-22)
(0.996207 -0.000580346 -9.68974e-23)
(0.997222 -0.000487468 -1.52606e-22)
(1.05679 0.0348036 7.74231e-21)
(0.999911 -0.000208183 -3.48179e-25)
(1.00072 -0.000363456 -3.47361e-23)
(1.00011 -1.88154e-05 8.32341e-24)
(0.995342 -0.000914634 5.13355e-22)
(0.991551 -0.012733 5.88463e-22)
(0.999976 -3.37671e-06 1.41619e-25)
(0.998541 -0.000345497 1.5644e-23)
(0.971534 -0.0236411 7.15502e-22)
(0.89307 0.038294 1.69097e-20)
(1.01406 -0.0320117 1.20881e-23)
(0.990358 -0.0167224 9.52961e-22)
(0.928451 0.141493 7.01859e-21)
(1.0028 0.0542563 2.04241e-20)
(1.09648 -0.0165569 -1.62872e-21)
(1.23007 -0.0722457 2.03174e-21)
(0.924775 -0.00631129 2.98749e-21)
(1.00677 -0.00583886 -2.48825e-22)
(1.02045 0.0779091 -1.1392e-21)
(0.984711 -0.00305738 -1.11575e-21)
(1.13218 0.161418 1.33277e-22)
(1.00845 -0.0681494 2.9074e-23)
(1.03294 -0.151956 -1.53049e-21)
(1.18738 0.0758304 3.70338e-21)
(1.14471 0.168966 -1.03004e-20)
(0.951156 -0.0344756 3.3784e-21)
(1.06406 0.00700035 -3.916e-21)
(1.27482 0.113714 5.63518e-21)
(1.15808 0.146225 1.42017e-20)
(1.0353 -0.00402401 2.31716e-21)
(0.995938 -0.0020266 1.12451e-22)
(0.99435 -0.00312909 9.82419e-23)
(0.99988 -3.33052e-05 -3.31784e-24)
(1.02146 -0.0401256 7.23491e-23)
(0.984276 -0.00256376 2.6243e-22)
(1.00138 -0.00327837 -6.72044e-23)
(0.999856 -3.40517e-05 -6.25704e-24)
(0.997846 -0.000970112 4.93508e-23)
(0.967447 -0.102747 -2.39461e-21)
(1.17081 0.00178493 1.25091e-21)
(0.976289 -0.00824089 -1.44034e-21)
(0.998948 -0.0172618 3.94304e-22)
(0.994865 -0.00100259 -2.76033e-22)
(1.0743 -0.0704941 -5.90988e-23)
(0.990382 -0.00211655 -8.85708e-22)
(1.00327 -0.010249 1.9739e-22)
(1.27375 0.0860591 1.15879e-21)
(0.997517 -0.000464611 -3.5413e-22)
(0.99997 -6.38987e-05 -1.20615e-24)
(0.999929 -0.000250249 -7.7743e-25)
(1.00007 -0.000146828 7.70598e-24)
(0.970554 -0.01074 6.60664e-22)
(1.05311 0.0318097 -9.13739e-21)
(0.99455 -0.000764128 1.09064e-23)
(1.03224 -0.0146412 1.96277e-21)
(1.01351 -0.172219 2.96126e-21)
(1.01352 0.165668 -8.15214e-22)
(1.00542 -0.01034 1.74959e-22)
(1.00907 -0.00656193 -8.19248e-23)
(0.993114 -0.00351132 -3.56575e-22)
(0.99118 0.114818 -3.37384e-20)
(0.998586 -0.000180713 5.03161e-23)
(1.17703 0.227261 -5.45915e-21)
(1.01477 0.0302968 -1.08997e-20)
(0.999843 -4.18207e-05 7.32841e-24)
(1.00566 -0.0691072 -1.21516e-21)
(0.995508 -0.00105934 -2.53614e-22)
(0.985542 -0.0824503 3.73051e-21)
(1.00076 -0.00019373 3.46456e-23)
(1.09154 -0.0109441 2.34835e-21)
(1.00948 -0.0227642 -5.7796e-24)
(1.00849 -0.0058957 4.13392e-23)
(0.998862 -0.000224228 -9.97904e-23)
(1.12892 0.0400987 3.71707e-21)
(1.08821 0.0493964 1.35019e-21)
(1.00684 -0.0903572 1.99234e-21)
(0.97258 -0.0275929 -1.36847e-22)
(0.997126 -0.00515578 -1.36603e-22)
(0.999106 -0.0553523 -2.22014e-21)
(1.22058 -0.00919498 -7.07963e-22)
(0.730761 0.103101 -3.06289e-20)
(1.09528 -0.118304 -1.95258e-21)
(1.00706 -0.0109366 -8.06435e-23)
(0.999991 -4.04122e-06 -2.1731e-26)
(0.981911 -0.00675282 -1.15659e-21)
(0.996954 -0.00053215 3.29858e-22)
(1.03435 -0.02707 1.06622e-21)
(0.997886 -0.139967 -1.23383e-21)
(1.22766 -0.0920998 2.39789e-21)
(0.98695 0.161575 -4.07785e-20)
(1.10035 0.0416364 5.79914e-21)
(1.12406 -0.160213 3.01232e-21)
(1.17042 0.0921456 1.67412e-21)
(0.999763 0.061803 3.98454e-20)
(1.02751 -0.00388263 1.66259e-21)
(1.00165 -0.00317152 1.54017e-22)
(1.06201 0.101599 6.08316e-21)
(0.998856 -0.00281037 8.87433e-23)
(0.999755 -0.000231953 6.91864e-24)
(0.975154 -0.00274751 4.02227e-22)
(1.00013 -4.5555e-05 2.10378e-24)
(1.12675 -0.182609 1.52141e-21)
(1.00512 -0.0249535 -9.00263e-23)
(0.978716 -0.0470426 1.9098e-21)
(1.00255 -0.00217129 7.8189e-23)
(1.15066 0.0846987 1.06578e-20)
(0.997625 -0.00044131 -2.92057e-23)
(0.999967 -5.10968e-05 -1.64373e-25)
(1.02424 -0.156503 1.66017e-21)
(1.00226 -0.00187076 -4.58983e-23)
(1.14348 -0.043931 -4.11515e-22)
(0.938276 -0.0202024 6.21591e-22)
(0.910698 -0.0240237 3.07705e-22)
(1.26274 -0.0488286 3.38123e-22)
(1.04216 0.0269402 -3.47222e-21)
(1.03317 0.00744097 2.15553e-21)
(1.03126 0.00719443 -8.47072e-22)
(0.999724 -6.02225e-05 2.48634e-24)
(1.17886 -0.0050284 7.8554e-22)
(1.1186 -0.00300357 2.18016e-21)
(0.99931 -0.000895113 2.30616e-23)
(0.977353 -0.00895835 1.67309e-21)
(1.00083 -0.000285971 -3.85577e-23)
(1.01612 -0.0285222 -7.22549e-22)
(1.01108 -0.0399249 -7.2581e-23)
(1.0061 -0.00190984 1.1876e-24)
(0.998984 -0.00177707 -1.05592e-22)
(1.23938 0.0418416 -3.49956e-21)
(0.99997 -3.06348e-05 -2.2058e-24)
(1.00028 -0.000150844 -1.0451e-23)
(1.00271 -0.00147329 -3.31934e-24)
(0.969355 -0.00463984 1.1114e-21)
(1.02661 -0.0167539 1.36355e-21)
(0.977783 -0.0396905 -2.69121e-21)
(0.962197 -0.00717422 -6.47123e-22)
(1.0142 -0.0866017 1.14171e-21)
(1.03377 -0.185097 -3.1794e-21)
(1.03538 -0.0453378 1.9478e-22)
(1.07052 0.100008 -3.39444e-20)
(1.2501 -0.0809026 -4.25221e-21)
(0.991103 -0.00357143 -4.61738e-23)
(0.800294 0.202643 4.94039e-20)
(0.966349 -0.0755329 3.99243e-21)
(0.991127 -0.0135192 1.84605e-22)
(0.963175 -0.00594832 1.06362e-21)
(0.996825 -0.025223 -1.03965e-22)
(0.971276 -0.0033826 1.70198e-21)
(0.98641 -0.00538646 -3.37533e-22)
(1.03803 -0.0202109 -2.04196e-21)
(1.14939 -0.109754 -7.32686e-22)
(0.999965 -5.967e-05 -1.91575e-25)
(1.0325 -0.0189099 -2.35653e-22)
(0.999869 -4.15474e-05 -3.53621e-24)
(1.05585 0.179983 7.37938e-21)
(1.24203 0.0075685 9.24289e-22)
(0.993526 -0.00268246 1.12828e-22)
(0.980762 -0.00241061 -1.53561e-21)
(0.999747 -7.41707e-05 -1.83585e-23)
(1.00065 0.100493 2.46418e-20)
(1.11717 0.183376 1.45926e-20)
(1.17585 -0.0161801 -5.41298e-22)
(1.27595 0.0516312 -1.76979e-21)
(0.966142 -0.0800339 -1.73416e-21)
(0.997058 0.0195085 -3.94557e-20)
(0.999917 -0.000183841 3.07666e-24)
(1.06363 -0.0445621 1.86985e-21)
(0.974647 -0.00209481 -6.21833e-23)
(1.18212 0.05366 -1.78795e-21)
(0.86443 0.135384 -3.82534e-20)
(1.21874 -0.0185624 -3.17856e-22)
(1.08756 0.035008 9.40989e-22)
(0.999887 -0.0171126 -6.62719e-23)
(0.999729 -0.000115649 -1.68646e-23)
(1.25953 0.039905 7.35894e-22)
(1.22436 -0.116001 1.06539e-21)
(0.998209 0.118311 -6.80226e-22)
(1.13442 -0.0416431 1.6495e-21)
(1.06691 0.0764597 1.01084e-20)
(0.990569 -0.00319086 -1.57919e-22)
(1.00211 0.158467 1.07966e-20)
(1.1193 0.167836 5.02462e-21)
(0.987944 -0.00455257 -9.46111e-22)
(0.989937 -0.00424959 -3.51647e-22)
(1.25487 0.0215363 -6.88852e-23)
(0.907315 -0.0222281 -4.21157e-21)
(0.999887 -0.000213864 -4.89705e-24)
(0.98278 -0.0072995 1.48866e-21)
(0.914513 -0.0312618 3.10367e-21)
(0.981047 -0.101362 -5.06961e-22)
(1.01322 -0.00346701 -1.42558e-21)
(1.01151 -0.0081407 8.97457e-23)
(0.999834 -0.000266031 -9.49159e-24)
(1.12876 0.19272 -2.15986e-20)
(1.00041 -0.0155412 1.07359e-23)
(0.999862 -8.19099e-05 3.13056e-24)
(1.02479 -0.0821673 1.40866e-21)
(0.999339 -0.000587343 2.05759e-23)
(0.999701 -0.000104201 1.25418e-24)
(1.00708 -0.0167331 -9.14656e-23)
(1.13312 0.0971424 1.55592e-20)
(1.01626 -0.140221 2.27268e-21)
(0.907094 0.13397 2.20962e-20)
(1.00009 -1.3942e-05 -5.94575e-24)
(1.14519 0.0967346 -1.59149e-20)
(1.01651 -0.070228 1.01926e-21)
(0.999898 -0.000260635 -1.39432e-24)
(1.00003 -8.39439e-06 -1.95784e-24)
(1.00482 0.0181538 -1.78375e-21)
(1.11562 0.085095 6.1032e-21)
(0.994747 -0.00330266 9.78364e-23)
(1.09686 0.0654216 -8.41788e-21)
(1.00004 -2.72639e-05 1.44225e-24)
(1.10125 0.0743474 -1.12466e-20)
(1.15182 -0.194297 3.99395e-21)
(0.987296 -0.00407887 1.04057e-21)
(0.998575 0.0303419 -5.23508e-20)
(0.967662 -0.063454 2.65712e-21)
(1.27104 0.043167 1.31078e-21)
(0.964866 -0.00594258 6.50377e-22)
(1.11116 0.0754359 1.46712e-20)
(1.12704 0.0856662 -4.4513e-21)
(0.978468 -0.011062 2.41934e-21)
(0.971828 -0.0134689 -1.77726e-21)
(0.993351 -0.0135132 5.51545e-22)
(0.996267 -0.000990378 -8.32958e-23)
(0.999735 -0.000258229 1.9267e-23)
(1.00011 -0.0148572 -1.96208e-23)
(1.13236 0.146136 -2.59546e-21)
(0.999962 -4.68027e-05 5.89517e-25)
(1.08752 0.0646965 1.1098e-20)
(1.03293 -0.141825 3.68063e-21)
(1.02319 0.11517 9.2345e-21)
(1.08388 0.0571405 -1.29158e-20)
(0.911094 -0.0292946 -3.84009e-22)
(0.927663 0.171817 -4.51007e-20)
(0.99793 -0.00156266 7.13881e-24)
(1.02131 -0.036991 2.86131e-22)
(1.05992 -0.109977 1.02024e-21)
(0.972514 -0.00319025 -1.04265e-22)
(0.991623 -0.00449497 4.68734e-22)
(1.01288 -0.0716635 -8.91646e-22)
(1.07503 -0.0355454 -1.87548e-22)
(0.818593 0.123692 6.07334e-20)
(1.00006 -2.61492e-05 6.66485e-24)
(0.997555 -0.00166515 9.46739e-23)
(1.01956 -0.102311 5.23108e-23)
(1.00002 -6.75968e-06 2.43978e-25)
(1.06306 0.193314 3.60167e-21)
(1.0023 -0.00160974 0)
(1.00002 -8.8076e-06 1.92114e-25)
(1.00026 -0.000117796 2.46138e-23)
(1.00053 -0.000162391 4.85725e-25)
(0.980627 -0.0270874 1.81411e-21)
(1.03111 -0.0252169 -7.60819e-22)
(0.998025 -0.00121796 1.487e-22)
(0.999886 -2.32814e-05 6.55761e-24)
(0.991072 -0.00420925 2.60285e-22)
(1.00615 -0.0174081 -6.31191e-23)
(0.983969 -0.146966 -3.34676e-21)
(0.918495 -0.00995912 3.01849e-22)
(1.02572 -0.014915 2.42388e-21)
(0.999964 -3.70194e-06 1.8839e-24)
(1.0989 -0.204703 4.53103e-21)
(0.983067 -0.00508989 -5.96387e-22)
(1.23714 0.0290058 -2.53025e-23)
(1.00081 0.0230286 -6.67445e-21)
(1.00169 -0.00477036 3.54052e-23)
(1.21547 0.032811 -4.37696e-21)
(1.0002 -0.000128221 -1.90081e-26)
(0.983874 -0.00571216 1.72684e-23)
(1.03536 0.000699748 -4.28192e-21)
(0.991662 -0.00511602 -1.91964e-22)
(1.15101 0.1174 -1.02355e-21)
(0.983745 -0.00891827 -1.12503e-21)
(1.06627 -0.041549 -1.69843e-21)
(1.03615 0.00149258 -4.61781e-21)
(1.10942 0.0408253 -2.25677e-21)
(1.00996 -0.0209472 -3.52031e-22)
(0.987102 -0.00580774 2.80302e-23)
(1.16701 0.0701767 5.68366e-21)
(0.972071 -0.110238 -2.86253e-21)
(1.03545 0.201177 3.08424e-20)
(0.988603 -0.00658024 -1.09668e-21)
(1.19004 0.152217 -4.37714e-22)
(0.988576 -0.0057686 2.92992e-22)
(0.998526 -0.000701781 -9.65727e-24)
(1.08473 0.0302097 2.77329e-21)
(1.01893 -0.0417815 -7.27206e-24)
(1.05429 -0.000349742 6.10943e-21)
(1.00236 -0.00113666 5.0884e-23)
(1.00002 -6.73278e-06 8.83363e-26)
(0.99725 -0.167271 1.2323e-21)
(1.26214 0.0835877 -4.86722e-21)
(1.00201 -0.00462958 -4.835e-23)
(1.22524 0.0248787 3.01097e-22)
(0.984642 -0.00832266 -7.36745e-22)
(1.08839 -0.21035 -1.73145e-21)
(1.05848 -0.0625247 -9.5526e-23)
(0.977258 -0.0421559 1.51566e-21)
(0.997876 -0.00136285 -6.28843e-23)
(0.988916 -0.00145554 -2.21652e-22)
(0.965013 -0.0943463 -1.66435e-21)
(0.962024 -0.0128135 2.44045e-21)
(0.98788 -0.00537398 7.74263e-22)
(0.999814 -0.000599848 8.23586e-24)
(1.02287 0.219539 -3.90512e-21)
(1.20405 0.0277884 2.53707e-21)
(1.0339 -0.016266 -7.59759e-22)
(0.999745 -0.000200699 1.28336e-23)
(1.10802 0.159408 -1.00876e-20)
(1.00001 -3.27511e-05 5.38185e-25)
(0.999764 -0.000178965 2.53132e-23)
(1.19367 0.0348397 2.82167e-21)
(1.01356 -0.0347191 1.5346e-22)
(1.25202 0.0627759 3.78292e-21)
(1.03369 -0.0047211 1.74585e-21)
(1.02306 -0.0182632 -1.57401e-22)
(1.10967 -0.105518 1.27182e-21)
(1.05427 -0.174251 3.67536e-21)
(1.25856 -0.0535045 1.56649e-21)
(1.00167 -0.0011522 -1.11817e-22)
(0.9407 -0.0220479 -2.40185e-22)
(0.999976 -7.83327e-05 -3.38147e-25)
(1.00668 -0.0152487 6.58711e-23)
(1.15234 0.105929 5.45107e-21)
(0.979618 -0.0103664 1.68978e-21)
(0.996468 -0.00198288 1.31737e-22)
(1.01808 -0.0568773 -5.86463e-22)
(0.997513 -0.00146938 9.08344e-24)
(0.9995 -0.00147263 2.67602e-23)
(0.801889 0.0283839 1.09089e-20)
(0.987915 -0.00707736 -6.20586e-22)
(0.999311 -0.000977203 -8.00174e-23)
(0.999976 -8.54419e-07 -3.60348e-25)
(1.02683 0.00953954 9.43676e-21)
(0.965011 -0.0354252 -3.7024e-22)
(0.999588 -0.000738635 2.35851e-23)
(0.996479 -0.00115091 1.69783e-22)
(1.03928 0.0309378 3.86744e-21)
(1.10216 -0.00256892 5.80256e-22)
(0.950934 -0.0314776 -2.09945e-21)
(1 -2.0723e-05 3.74842e-25)
(1.00223 0.0196453 2.60725e-20)
(0.982336 -0.0235913 -1.23377e-21)
(1.14374 0.0752106 -1.08675e-20)
(1.01728 -0.00177046 -2.1724e-21)
(1.02007 -0.00179806 4.97237e-21)
(0.959828 -0.0159394 3.32258e-21)
(0.999877 -8.70605e-05 -2.03447e-24)
(1.035 0.000176516 -8.59787e-22)
(1.10708 -0.00856686 -6.75923e-22)
(1.24593 -0.0355067 -1.64063e-21)
(1.04105 -0.136719 8.24971e-22)
(1.12039 0.139629 7.53334e-21)
(1.00759 -0.00229132 -3.54275e-23)
(1.17908 0.0674653 -7.72979e-21)
(0.999977 -0.0199872 -1.14481e-22)
(1.02004 -0.0786318 -2.42062e-21)
(0.999502 -0.000222152 -2.58145e-23)
(1.00419 -0.0265479 1.75429e-22)
(0.99987 -0.000575437 2.67475e-24)
(1.08314 0.0417076 -8.45349e-21)
(1.23015 0.133465 -1.43863e-20)
(0.998126 -0.00160906 5.00386e-23)
(1.02503 -0.0186498 2.66154e-23)
(0.977747 -0.00623958 5.80975e-22)
(1.0475 -0.121916 3.76619e-22)
(1.04017 -0.12751 -1.84854e-21)
(0.997637 -0.001161 9.94216e-23)
(1.05899 -0.0444412 -6.20159e-22)
(0.819572 0.0083059 -1.83908e-20)
(1.23137 -0.0464455 -1.58281e-21)
(0.999932 -0.000222801 6.41872e-24)
(1.09446 -0.00405571 -2.04776e-21)
(0.996319 -0.012332 -2.68954e-22)
(0.98938 0.00521505 3.78939e-20)
(0.984638 -0.00728078 1.02395e-21)
(0.994392 -0.0364098 -3.41677e-22)
(1.02187 -0.0510059 -3.31467e-23)
(0.992524 -0.0375677 -4.91024e-23)
(0.997989 -0.0291821 -7.69375e-22)
(0.99048 -0.00456047 1.7934e-22)
(0.998811 -0.0197855 4.10678e-22)
(1.00259 -0.00864673 -5.36998e-23)
(1.07565 -0.040792 4.54946e-22)
(1.00014 -3.45872e-05 -1.60801e-23)
(1.1996 -0.170022 -1.95762e-21)
(1.19577 -0.072989 -8.80396e-22)
(1.09909 0.203078 1.87702e-20)
(0.953382 -0.0298177 3.18379e-21)
(1.23921 0.0703573 -2.08081e-21)
(1.00253 -0.000888169 1.80124e-22)
(1.07888 -0.111982 -1.82456e-23)
(1.00496 -0.0529645 -8.41612e-22)
(1.03871 0.0586786 1.1511e-20)
(0.991138 -0.0055243 4.45402e-22)
(1.00014 -0.000246454 1.0743e-23)
(0.983232 -0.0245735 1.61033e-21)
(0.994469 -0.0131564 -2.09196e-22)
(1.05577 -0.0404727 1.50658e-21)
(0.964039 -0.00982271 -2.06468e-21)
(0.970371 -0.012558 5.8691e-22)
(1.15324 -0.0854631 -3.5718e-22)
(0.981222 -0.00406399 -1.00976e-21)
(1.01836 -0.0528719 3.89909e-22)
(0.98283 -0.10716 2.0878e-21)
(1.00001 -1.08229e-05 1.68122e-25)
(1.0802 -0.031434 2.71617e-21)
(0.985482 -0.096761 -5.56266e-21)
(1.22754 0.0505204 1.93107e-21)
(1.10786 -0.113634 -2.36452e-21)
(1.05196 -0.000579398 5.09102e-22)
(1.02478 -0.136723 -4.69077e-21)
(1.15858 0.195959 4.29474e-21)
(1.04423 -0.0534338 3.15062e-22)
(0.958081 -0.0147155 -1.96625e-21)
(1.01707 -0.0656207 -1.19615e-21)
(0.918139 0.0114563 1.71591e-20)
(1.1624 -0.163015 1.14332e-21)
(0.983782 -0.00676456 -3.11335e-22)
(1.02366 -0.167342 -3.56766e-22)
(1.02939 -0.0925702 1.69468e-21)
(1.0423 -0.157362 -6.13199e-22)
(1.04582 -0.113369 -1.98257e-21)
(1.15908 0.0620127 7.77068e-21)
(0.996503 -0.00227864 8.71357e-24)
(1.01738 0.0736504 4.41229e-21)
(1.01018 -0.00217708 2.55746e-22)
(0.999506 -0.000747103 -3.39435e-23)
(0.998504 -0.00320627 2.44663e-22)
(1.08513 -0.0111364 -6.69373e-22)
(0.715208 0.00987516 5.3686e-22)
(1.00211 -0.00923759 2.74371e-23)
(1.02071 -0.0734253 3.4527e-22)
(1.04052 0.035816 -6.40477e-21)
(1.00004 -1.01887e-05 -3.36042e-25)
(0.97326 -0.0126752 1.41842e-21)
(1.03028 -0.0147673 1.7404e-21)
(1.09251 -0.0713508 -2.06709e-22)
(1.01035 -0.00114546 1.43335e-21)
(0.997997 -0.00284887 4.49653e-23)
(0.978461 -0.053387 2.7709e-23)
(0.997208 -0.011871 -7.95062e-23)
(1.00004 -7.89453e-06 3.69617e-24)
(0.970489 -0.0623097 -4.48591e-21)
(1.12939 0.118242 -2.70007e-21)
(1.02488 -0.0451905 1.8135e-22)
(0.978737 -0.00706438 -1.08641e-21)
(1.00231 -0.000582208 -6.4754e-23)
(1.04587 0.0378348 8.4202e-21)
(0.999516 -0.000901188 -1.56934e-23)
(0.998426 -0.000919679 -4.96546e-24)
(0.999545 -0.000242999 -2.35022e-23)
(0.999068 -0.00301526 -6.10365e-23)
(1.23743 -0.0257924 -2.20307e-22)
(1.03564 -0.0523495 7.22295e-23)
(1.01035 -0.0263336 9.24638e-23)
(0.977282 -0.010392 -4.96645e-22)
(1.00006 -7.23539e-05 3.59377e-24)
(1.07633 -0.17058 5.04808e-21)
(1.23275 -0.103429 4.20395e-23)
(1.08094 -0.182309 -2.40724e-21)
(0.995384 -0.0461824 -6.43406e-22)
(1.01828 -0.0133796 1.61629e-21)
(0.99973 -0.000141176 1.06418e-23)
(0.985473 -0.0161062 -6.42642e-22)
(0.946346 -0.0629233 -2.56901e-21)
(1.22418 -0.0378602 4.72553e-22)
(1.01883 0.112293 -3.3892e-22)
(0.998546 -0.00453583 4.98101e-23)
(0.929064 -0.0441028 1.42411e-21)
(0.994023 -0.00391165 -4.26167e-22)
(1.04215 -0.0493618 3.18686e-23)
(1.1723 0.046312 4.96238e-22)
(1.00056 -0.000190744 -5.44842e-23)
(0.999801 -0.000304503 -3.76133e-24)
(1.25985 0.0272986 8.91188e-23)
(1.20856 -0.0513332 5.64026e-22)
(1.02381 -0.0226646 5.73201e-22)
(0.996262 -0.0024838 2.24491e-22)
(0.997342 -0.000660439 -2.21592e-23)
(0.955238 -0.0641987 6.29594e-22)
(0.99978 -0.00050206 -1.27267e-23)
(1.02174 -0.0471862 -6.89468e-23)
(0.982942 -0.00200801 2.08331e-21)
(1.00119 0.0259135 -5.58792e-21)
(1.14275 0.123546 -1.42997e-21)
(1.07426 -0.104009 9.34259e-22)
(0.990512 -0.097692 2.04731e-21)
(1.0084 -0.00206779 7.14299e-22)
(1.01845 -0.0353793 -3.93422e-22)
(1.19131 -0.0613344 -1.26283e-21)
(0.989273 -0.108095 -1.28113e-21)
(1.02114 -0.0637909 6.81438e-22)
(0.999998 -1.02984e-05 -1.66092e-27)
(1.17053 -0.0693499 -1.43525e-21)
(0.966906 -0.00401354 1.95617e-22)
(0.987351 -0.119395 2.53747e-21)
(1.02451 -0.0416787 -4.65115e-22)
(0.943477 -0.0209168 -4.3796e-22)
(0.99949 -0.000426569 -1.14758e-23)
(0.996204 -0.00185767 -1.00106e-22)
(1.07583 0.056352 9.98469e-21)
(0.961878 -0.0149446 -7.4698e-22)
(0.99998 -2.78812e-06 3.96374e-25)
(0.99635 -0.000768655 -2.34515e-22)
(1.16386 -0.147599 -6.62781e-21)
(0.999787 -7.22328e-05 2.66871e-23)
(1.02492 -0.0713625 -2.391e-22)
(0.999937 -0.000177455 -5.27585e-25)
(1.00862 -0.0195624 -3.79179e-24)
(0.98438 -0.14113 1.54391e-21)