/*--------------------------------*- C++ -*----------------------------------*\
  =========                 |
  \\      /  F ield         | OpenFOAM: The Open Source CFD Toolbox
   \\    /   O peration     | Website:  https://openfoam.org
    \\  /    A nd           | Version:  7
     \\/     M anipulation  |
\*---------------------------------------------------------------------------*/
FoamFile
{
    version     2.0;
    format      ascii;
    class       volScalarField;
    location    "4";
    object      p;
}
// * * * * * * * * * * * * * * * * * * * * * * * * * * * * * * * * * * * * * //

dimensions      [0 2 -2 0 0 0 0];

internalField   nonuniform List<scalar> 
115545
(
0.0627373
-8.37028e-05
-0.108369
-0.027737
0.0135552
-0.00733608
1.63942
-0.0589185
-0.00244992
-8.87144e-05
-0.00229844
0.00165359
-0.0117382
-0.463824
-0.00245133
-0.426833
-0.000926527
-0.00315764
1.87291
0.0140316
-0.0464655
-0.0431249
-0.0036259
-0.0429782
2.40224
0.670024
0.52568
0.1726
-0.000112415
1.82167
-0.00121539
0.613982
0.0516902
-0.107039
2.43619
-0.0154968
1.64182
-0.00091587
0.0215097
1.19386
0.619958
-0.00319401
-0.141639
-0.0154845
-0.298368
-0.462223
0.0357273
0.0480875
-0.00164626
0.00157932
1.02585e-05
-0.0275528
0.654292
-4.43916e-05
-0.0185393
0.66023
0.536769
-0.292545
0.595194
-0.0888064
-0.000500657
-0.0439463
-0.00677066
-0.136087
-0.000561654
0.00858804
-0.00974917
0.435423
0.585362
0.498715
1.33367
0.796284
1.18167
-0.285129
-0.0400666
-0.20175
0.395523
-0.00581217
1.77336
0.497181
0.506248
-0.000500463
-0.428418
0.167556
-0.0273001
0.00159409
-0.142252
-7.68248e-05
-0.218141
-2.76556e-05
0.219843
-0.0862803
-0.000122043
-0.0117355
-0.00388451
0.00326597
-0.003464
-0.423767
0.112904
-0.217133
-0.00052053
0.213268
0.0103962
0.0221499
1.33166
-0.184807
1.27145
-0.294433
-0.0820138
-5.35917e-05
0.540472
-0.00342302
0.40539
-0.0543317
2.94901
-0.011783
-0.00232608
1.25747
0.00032835
0.787109
1.26963
-0.432063
-0.105935
0.545188
-1.67312e-05
1.81489
-0.0436862
2.50102
-0.0147834
0.32324
0.0763281
0.00233627
1.18774
0.00159203
0.000330884
1.89823
2.32169
0.0508565
-0.0176511
-0.0433783
1.24174
-0.00838318
0.00067193
0.687301
0.0853113
1.32021e-05
0.0785642
-0.0443707
0.439402
0.00717403
-0.18623
-0.302391
-0.0857009
-1.50826e-05
-0.0271436
0.063937
-4.45753e-05
0.367562
-0.190613
-0.278334
-0.199715
0.0777268
-0.00664686
-0.15321
-0.0652558
-0.00753433
0.24854
-0.126919
0.367299
-0.0716387
-0.0829802
0.0367483
0.182717
-0.45429
-0.132498
0.404588
-0.453479
-0.0174745
0.0505774
-0.00186397
0.114138
-0.0356394
1.94359
0.692113
1.27346
-0.00281583
-0.0309466
0.800934
0.180445
0.213357
-0.0169735
-0.00686526
1.97419
-0.176491
0.673627
-0.289683
-0.4559
-0.077899
-0.191698
-0.0408322
0.729698
1.63011
0.1352
-7.81676e-05
-0.0297727
-0.23335
-0.00546101
-0.000539765
0.316787
-0.0909176
-0.454574
1.25592
2.38801
-1.97457e-05
-0.0503737
-0.178434
0.343887
0.0405889
-0.464382
-0.00115367
-0.202664
-0.156595
-0.00471335
-0.197073
-4.76308e-05
2.15766
0.0154975
-0.198466
-0.283933
2.18263
0.196733
-0.256469
1.27901
-0.155671
0.0764673
0.734332
0.0037559
0.000521501
-0.14867
-0.0281043
0.235652
0.0248025
-0.279062
0.102559
-0.0152656
0.00697449
0.530174
-0.209682
-0.1246
-0.402189
2.01589
-0.0105722
0.63529
0.000295613
2.5199
0.117301
0.397361
0.176696
0.00262967
-0.0646553
0.119371
-0.462018
0.698233
-0.0276046
-0.0847073
-0.0271063
0.545388
-0.014574
0.467752
0.33835
-0.000571173
0.185222
-0.000912912
0.0259762
-0.01004
-0.148272
-0.285255
-0.128566
-0.0221761
-0.291237
-0.15232
-0.0150337
0.00052358
-0.23061
0.0004955
0.0933147
2.1397
0.603133
-0.421266
0.0378708
-0.287721
-6.4385e-05
0.548986
1.24158
-0.000582407
0.150413
-0.010907
0.60114
0.000411434
0.340214
-0.457963
-0.147472
0.316755
-0.0498269
-0.224457
0.49852
0.0104487
-0.197196
-0.237149
0.0522355
-0.0215552
1.34449
1.30278
-0.146534
-0.0125864
0.0114673
1.97222
0.00667006
-0.0418965
0.504109
0.23974
-0.00111378
0.132038
2.93182
0.558314
-0.193246
0.0659664
0.575073
-0.461051
0.557361
-0.0214784
-6.33034e-05
-0.00260265
-0.0106941
2.77643
-0.0258014
0.407867
-0.000528567
-0.00749619
-0.0311146
-0.0983188
0.514439
0.514635
-0.132694
-0.0682787
0.013753
-0.0230836
2.5795
-0.226798
-0.017926
1.19161
0.842034
0.118457
-0.0211138
-0.0447361
0.0104953
0.0640049
1.11507e-05
-0.00493133
0.149186
0.894418
-0.24155
1.65267
2.80216
0.351174
1.31365e-05
-0.102011
-0.130299
-0.00362168
1.56725e-05
-0.0544074
0.939777
-0.207484
-0.0049173
0.512001
0.032103
0.00999585
0.0015537
-0.0100295
0.163441
-0.258279
-0.0736545
-0.0578716
0.146906
0.0940505
-0.00106658
1.26497
-0.413731
0.0139382
-0.0475038
0.600874
1.0619
-0.14415
0.173126
-0.154551
-0.0142791
-0.237969
0.00505328
-0.001067
-0.138239
-0.2081
-0.0146521
1.69596
1.15526
-0.129269
0.181888
0.000334352
-0.0443369
0.316163
-0.0517323
-0.0527756
-0.0219282
0.0145146
-0.0260248
-0.0275948
-0.0221472
-0.000137887
-0.275387
0.000528645
0.0918146
-3.84934e-07
-0.457413
0.00225356
1.75497
1.30627
0.904255
0.183692
0.967274
0.530057
-0.0136662
0.0139771
-0.00142755
-0.0350036
-0.194252
-0.0490469
-0.0458809
0.0793935
0.00221011
-0.00136846
0.00145013
-0.00611695
0.328986
0.0652852
-0.139907
0.000447223
-0.0148709
0.00678069
-0.00120166
1.05147
0.401211
1.34576
0.00055761
0.000788589
0.0147249
-0.12471
-0.0403664
-0.166936
-0.207495
0.791017
-0.0609978
1.68625
0.00703506
0.0134698
1.52161
1.3301
-0.0512707
0.0214283
-0.451653
-0.0615227
0.000561382
0.0913937
-0.410155
-0.15005
-0.287679
0.0754271
0.553089
-3.04293e-06
0.0219474
0.210435
0.281991
1.8455
6.36232e-07
-0.000522004
0.0149527
-0.148867
-0.0048163
-0.000601997
0.370652
2.53796
0.350443
1.26503
-0.141158
2.07223
0.694795
-0.0256555
-0.0629177
-0.399898
-0.0518768
0.000252491
-0.0277778
-0.01126
1.79785
-0.152035
1.63218
0.0111803
0.894746
-0.139315
-0.0967469
0.238214
0.744931
-0.0205283
0.000288121
-0.000113372
-0.000183932
0.0540706
-0.29388
0.00214492
0.29152
-0.00219855
-0.00220936
0.0173301
0.0186733
0.00598407
0.00625788
-0.159981
-0.0318745
-0.0349202
1.87688
0.169569
0.0654989
-0.083629
-0.2296
-0.000401983
0.000297147
3.72287e-06
-0.260679
-0.398261
-0.212935
0.00029085
-0.107328
0.518826
0.57397
0.34357
-0.000485876
-0.193139
-0.0387166
0.00109835
-0.000481645
-0.206247
0.0145548
0.00349252
-0.186507
0.00385183
-0.347726
-0.160875
-0.14079
-0.131064
0.00768174
-0.26404
0.00249457
0.000315645
0.0393495
1.45307
2.1749
1.03917
0.0601067
-0.0854968
1.12891
0.113288
0.00218114
0.268656
-0.107253
0.459141
-0.0273751
0.394693
0.00857006
1.02991
0.00480971
-0.0409285
-0.137778
1.21502
0.00255867
-0.146957
-0.161919
0.787365
-0.111489
-0.0411054
0.16219
0.000770407
-0.121299
-0.0333674
0.153518
-0.122696
0.0226384
0.939072
1.16742
2.14763
0.967839
1.08838
0.325454
1.23962
0.115997
1.25071
1.35848
0.00266566
-0.0106761
2.1617
0.000393661
-0.0217454
0.619048
-0.135688
0.0083971
0.283376
-0.0107962
0.0143732
1.853
2.41624
-0.00132651
0.00257302
0.268145
0.00101845
0.319672
1.33059
0.812937
-0.00044585
-0.177152
-0.141433
0.00513334
0.046187
0.523209
2.37843
0.000654887
1.26635e-06
1.23896
0.0448221
-0.00135421
0.279223
0.0446078
-0.0257328
-0.0181665
0.0619299
-0.118479
-0.0106178
-0.205896
0.00265629
-0.00109575
-0.0102737
0.451652
-0.00204456
-0.159785
0.0065071
-0.107505
1.22772
-0.000681397
2.90511
0.0867829
2.07297
0.449237
-0.00450263
-0.000149218
-0.00356456
-0.0396466
0.67023
-0.0108043
-0.102843
1.88544
-0.394747
-0.397209
0.170959
0.264297
1.87619
-0.0042273
-0.145045
-0.137816
0.00206759
0.0298967
0.00660899
0.0562689
-0.281061
2.61981
-0.356672
-0.0166042
-0.146741
0.0127841
0.458753
0.505032
-0.0256115
4.65316e-05
1.2497
-0.0986439
-0.460177
-0.0132652
0.135007
-0.201595
0.0401347
0.418761
-0.007549
1.62778
-0.0222828
0.542586
-0.281464
0.208014
-8.15464e-05
-0.199801
-0.160472
-0.149327
0.273891
-0.193922
0.00274306
-0.414533
-0.0115087
-5.36745e-06
-0.0102111
0.00232158
2.39772
0.00211659
1.74462
-0.15009
0.199721
0.0241231
0.680051
0.031026
0.84944
1.8671e-05
-0.0260881
-0.0108013
0.0133655
-0.185357
0.000361874
0.476368
2.31898
0.626261
0.0021993
0.0334512
0.667885
1.92824
-0.000233799
-0.00249387
0.268289
0.00171006
2.20378
-0.0349451
0.953301
0.897008
0.00165762
-0.419673
0.948612
-0.0011026
0.343302
2.14555
-0.0183463
0.0089589
0.00357724
0.0394916
-0.137519
-0.0474007
1.59133
-0.0513889
2.67899
3.04777
-0.0225861
0.000663994
1.62892
-0.0259578
-0.12002
0.00240742
0.842232
-0.279773
2.54364
-0.0100145
-1.14239e-05
-0.098574
0.52116
-0.174226
0.388262
0.217856
0.682883
-0.00166203
0.324579
0.000269101
0.0133228
-3.58064e-06
-0.11325
-0.0480737
1.04267
-0.00019218
2.14295
-0.00360347
0.0341406
-0.00522526
-0.413838
-0.0824497
0.638201
-0.00127386
-0.0863576
0.0520355
-0.0868678
-5.61855e-05
-0.00021307
-0.00208989
-0.23903
0.0134227
-0.00920712
-0.210092
0.00105782
0.00282203
0.0177904
-0.00442062
1.12273
0.468469
0.419322
-0.173884
-0.164534
-1.58634e-05
0.160258
-0.284558
0.00336009
-0.211808
-0.0115762
-0.238724
-0.124844
0.00467187
0.0205508
-3.10624e-06
-0.0411445
-0.00339376
1.19591
-0.057682
0.00149172
-0.00152202
0.212233
-0.295551
-0.0256626
0.000238142
1.60465
1.61459
0.0138891
0.871754
-0.0457473
-0.401864
0.000719791
-2.5898e-05
1.43958
-0.233006
0.0011162
0.696352
-0.00753897
-5.20084e-05
0.491429
-0.303328
-0.353423
-0.425406
-0.125429
-0.0498735
-0.118759
0.00166855
0.95945
-0.00152504
-0.159172
0.459946
-0.000735797
-0.0397926
0.016741
0.829966
0.00722939
-0.0555786
2.01955
0.322346
-0.0564083
-0.138261
1.29089
0.506776
-0.0894844
-0.159229
1.31993
-0.0101141
-0.0029538
-0.385927
-0.0675903
-0.0856164
2.75989
-0.0480106
-4.84418e-05
0.00819501
0.0213182
0.0487125
0.847601
-0.437892
0.51451
-0.0165243
0.846916
-0.141409
0.486835
-0.0206107
0.682455
0.548024
-0.187227
0.632842
1.19252
-0.00339041
0.533658
2.40269
-0.378957
0.0034992
-0.0730092
0.77804
0.0646733
0.211741
1.27488
-0.0266123
-0.013999
-0.0409345
-0.0302485
0.711761
0.461399
0.00280375
1.87863
2.61239
-0.236689
-0.0154482
0.586072
-0.28326
-0.164128
1.18334
1.59465
-0.0167215
-0.223121
-0.280915
-0.00646857
0.676373
-0.420911
-0.0223893
0.574369
0.00224453
0.854275
0.197395
0.744425
0.70152
-0.104503
1.75585
-0.0110462
-0.0525824
-0.0365603
-0.0014953
-0.153709
-0.0286146
-0.315854
-0.053129
-0.0327839
-0.0945033
0.357296
-0.44274
-0.00299586
-0.0733212
-0.462404
1.07122
-0.321872
-0.351714
-0.0679072
0.0132806
1.03268
0.0791531
-0.000122724
-0.0195902
0.0206181
-0.0884941
-0.131865
-0.0143976
0.556162
-0.0657785
0.226602
-0.259259
0.799514
0.287238
0.0128752
0.0248222
-0.0295803
2.86241
-0.153688
1.57835e-05
-0.0220749
-0.00318714
1.59755
-0.0945406
-6.21412e-06
-0.0491107
-0.00330052
-0.00774683
0.702507
0.68169
0.14957
-0.122995
0.00862103
1.99538
-0.178825
0.574432
-0.0415449
-0.398211
0.0788297
0.0256271
-0.00125839
-0.0855392
-0.00193254
-0.0166278
-0.00909793
-0.284451
3.10965e-05
0.880551
0.000314789
-0.0201565
0.000854637
0.723244
-0.152133
1.79318
0.236575
0.686977
0.189816
0.00966254
1.78488
-0.252298
-0.137669
3.07913
-0.00478844
-0.0634177
0.0637109
0.237303
0.000320368
0.0589802
0.0473506
-0.169352
-0.185609
2.14601
0.0214303
0.0423881
0.700157
-0.29566
0.0319377
0.0140086
-1.25628e-05
-0.00118863
-0.0143254
0.291665
-0.00377815
-0.0227984
-0.00679778
1.90505
1.82867
0.158467
0.000317149
-0.0417793
0.327328
0.512313
0.000272142
0.139021
-0.254776
0.000483752
-0.0363996
0.292035
-0.209763
0.00115773
-0.393412
2.77731
-0.0616815
0.00226834
-0.425326
0.241828
0.00372805
0.000624411
0.0537059
-0.0150322
-0.326633
-6.94215e-05
-0.0661458
-0.258001
2.56306
-0.0524659
0.050561
-0.144211
-0.00205055
0.738616
-0.00332344
0.181151
0.767983
-0.000432607
0.242626
0.0154248
2.52745
3.08588
0.100651
2.31044
2.03029
0.321734
0.588194
0.00159752
-0.0950193
-0.323855
-0.0147759
-0.0012989
0.0708518
-0.00592794
-0.000344753
-0.0838191
-0.00539804
-0.142241
-0.298454
0.000451725
-0.00182839
0.190618
0.000496113
-0.000203994
0.704888
0.383563
-0.0596603
-0.00870793
-0.42126
0.10314
0.8666
-0.0164966
0.0323055
0.842706
0.502067
-0.255609
0.0259423
0.00496384
-0.000698384
-0.186464
1.61243
0.209774
-0.000127759
0.0787932
0.000372823
-0.000721353
0.726609
0.00505521
2.52032
-0.0143468
1.27122
-0.00382971
0.0314074
-1.25997e-05
-0.00202885
0.823163
-0.00693517
0.0129129
2.34728
2.15107
2.88341
-0.0176447
-0.210807
0.804125
0.000123885
-0.265925
-0.0357382
1.26396
1.51364
0.0271449
0.487328
0.000523296
0.523288
0.0113724
-0.0561321
0.0468822
-0.00320295
-0.0307636
0.0277468
-0.0260627
0.946496
0.714605
0.018044
0.820838
-0.198062
0.0246086
-0.0494179
0.286321
-0.150855
2.8797
1.78633
0.315498
-0.137958
0.000276193
1.62209e-05
-0.184115
-0.273093
-0.0637673
0.487276
1.20846
0.377008
0.826115
-0.00269418
0.0797891
-0.0409255
1.08212
-0.449228
-0.000420605
0.881235
-0.00101568
0.000646465
-0.000200584
3.38697e-06
2.89014e-06
1.08212
0.0263436
-0.125357
0.00509105
-0.287096
-0.294443
1.85084
0.0188231
-0.00608355
-0.0227835
-0.000200981
-0.00510843
-0.408199
0.230376
0.798265
-0.0425875
0.703394
-0.13478
0.0713864
0.199302
0.00494948
2.32254
0.000413302
-0.0239402
-0.00478351
-0.139836
-0.0665313
1.18156
-0.0260753
0.000232961
-0.0325558
-0.0342076
1.18212
-0.000438906
0.00097662
0.000716971
-0.203834
0.0526801
-0.166505
-0.43041
0.576802
1.80008
-0.0150279
0.00136933
0.0280142
-0.0105945
0.681431
-0.276382
-0.0262932
0.242821
-0.0811754
0.00523954
-0.0240599
-0.0210967
0.022729
-0.292188
5.6729e-05
0.291062
1.21948
1.70221
1.00644
-0.00204428
-0.206849
0.000396446
-0.225133
-0.226685
0.828054
-0.0590531
-0.393601
-0.210899
-0.166413
0.0260709
-0.0583683
-0.203706
-0.371454
0.000319251
0.534397
-0.00527348
1.50027
0.349356
0.259598
0.000344062
0.00586299
0.0911868
0.00018113
0.685512
-0.0627714
-0.406798
-0.384249
0.354881
1.86264
-0.0473541
-0.210779
0.748993
0.153258
-0.00940769
0.232482
2.90952
0.0139514
0.370028
0.198639
0.0349531
-0.19766
-0.0206814
1.499
0.00074213
0.723585
1.94846
-8.14996e-05
-0.0944219
0.000598554
0.592777
-0.0843116
0.0704064
-0.0435664
0.0362232
-0.196881
0.00149229
0.0207396
-0.0957739
0.0733204
-0.0178381
-1.83811e-05
-0.016791
-0.213032
-0.410192
-0.0181407
-0.000399273
0.13031
-0.0093732
0.00686048
0.208521
0.9684
-0.129441
-0.0313976
0.828754
-0.000591033
0.00256761
-0.217976
-0.000256907
0.000686258
-0.0268421
0.939683
0.0227177
-0.0495951
-0.017507
0.152734
0.00045213
-0.00354499
0.000589824
0.570304
-0.00962372
-0.0251706
0.1497
-1.84388e-05
0.00270753
-0.000918756
1.07113
-0.00973427
-0.0408022
-0.000564962
0.503429
0.969798
-0.0163905
-0.378479
-0.000522096
-9.24714e-05
0.081821
0.00197351
-0.00129929
1.79831
0.0471912
-0.0173062
-0.432946
0.00153438
0.00511943
-0.0585899
-0.00338495
-0.00787038
2.26174
-0.00195692
0.00948886
1.32703
-0.00135524
-0.208172
-0.00427643
-0.123626
-0.278672
0.204045
-0.0520917
-0.00405611
-0.0400816
0.235605
-0.0148546
0.0294666
0.00728098
-0.00652954
-0.000548466
-0.00190979
0.105505
-0.16599
0.597086
0.0228535
-0.0945766
2.83732
0.681974
-0.321896
-0.00182325
-0.150554
-0.220903
0.304805
-0.295533
-0.0350606
0.595654
0.607341
-0.0991269
-0.291913
1.792
-0.0723953
0.00144846
-0.430883
-0.458613
0.0887171
0.0512477
-0.149608
-0.0104246
0.291453
-0.184871
1.60051
-0.165123
1.63299
-0.273502
-0.00540197
0.0275748
0.00106169
0.00036482
-0.000483849
1.0717
-0.000296673
-0.197975
0.00879148
0.084241
-0.276315
-0.00325379
-0.00627448
-0.206434
-0.0012068
0.994168
0.0519784
-0.0079613
-0.199076
0.660898
-6.36645e-06
0.323787
0.00541795
1.24668
0.404944
-0.27939
-0.206213
-0.00789246
-0.00580703
0.744382
1.0636
1.05911
-0.0358463
-0.210928
1.59194
0.617384
0.0662245
-1.65086e-05
0.677814
0.139887
0.00486922
0.173197
1.91374
-0.134177
0.0053831
2.65106
-0.00108719
-0.00976355
0.556535
1.12893
0.680075
0.662059
2.03965
1.48948
-0.0019525
-0.00511512
-0.00875022
-0.00783711
0.643402
-0.197633
1.70831
0.071932
-0.0498662
-0.0981043
-0.0221195
0.00410075
0.00712067
-0.00501226
-0.253353
-0.00242297
0.229855
0.000131836
0.000325322
0.00110754
-0.000705526
0.00505748
0.389596
0.0918199
0.377155
0.104331
2.73909
-0.274992
-0.00101197
-0.0156623
-0.126931
-0.0077603
-0.00124327
-0.0941071
-0.00671695
-0.00473304
-0.0472725
0.244142
-0.000153149
0.237822
0.0684835
0.00384004
-0.00257095
0.0241206
0.231727
-0.226498
0.56145
0.490528
-0.0847738
0.125675
-0.240752
-0.00963395
0.00013944
0.000739203
-0.0276891
0.831914
0.413998
-0.039983
-0.0657663
-0.0275981
-0.00395414
1.89137
-0.0786474
0.691234
0.00526569
-0.0048981
0.000421115
0.0939095
-0.442545
1.88549
1.99623
0.6852
-0.0943946
-0.198418
-0.000294293
0.000198946
-0.0572466
0.107226
1.01057
-0.438124
-0.23654
-0.185803
0.986709
0.701181
-0.422667
1.37553e-05
0.874238
0.873937
0.132613
-0.00013659
-0.0578994
-0.0304609
1.05012
0.798319
0.0647403
0.128135
2.80627
-0.0833138
-0.000129498
-2.03526e-05
0.235529
-0.092916
0.510941
0.00012395
-0.380747
0.0197342
0.000651293
2.15968
-0.01175
0.517243
-0.062554
0.00542609
0.283988
-0.370291
1.35917
-0.137668
-0.0858565
2.25426
0.00504136
0.175116
0.826782
1.69423
-0.00949737
0.672685
2.44325e-06
0.00367774
0.781303
-0.0653677
0.249719
0.317897
0.00190128
1.01924
-0.350189
-1.91476e-05
-0.394206
-0.0120669
-0.046738
-0.00205076
-0.00049874
-0.251839
0.434712
0.00565752
-0.0165224
0.0148289
0.686906
1.77177
0.00116066
-0.0162777
-0.00369748
-0.228299
-0.00225368
0.000387463
-0.0002101
1.80138
0.0180999
0.00692319
-0.0480031
-0.19642
-0.391672
1.78674
1.49205
1.10392
-1.14986e-05
0.0527572
-0.254206
-0.0481445
-0.280739
-0.00977874
0.865079
-0.114152
0.0677363
-0.00592449
0.267764
-0.388976
0.228917
1.87308e-05
0.464464
-0.00043635
-0.00273428
0.814345
-0.0119234
-0.202681
2.75627
-0.0563046
0.0101216
-0.0197461
0.761373
1.14176
1.84589
1.22091
-0.398124
-0.0165055
-0.00638686
0.111245
-0.172883
0.0198937
-0.000650199
0.245741
0.0135563
-0.158141
-0.0652256
-6.80879e-05
0.522644
0.137929
2.03903
0.693079
-8.36526e-05
0.549506
0.00553309
-0.379008
-0.398182
-0.0727437
1.79447
-0.00437037
-0.252189
0.37298
-0.0037827
0.000960595
-0.198337
0.651373
-0.192929
-0.230459
0.4764
0.021277
-2.29107e-05
0.000187214
0.430991
0.0755591
-0.189921
-0.00638703
1.32706
-0.00129372
-1.05242e-05
-0.00680742
0.0226168
-0.0644971
-0.000127079
-0.167973
0.57837
0.752138
-0.0174133
1.60295
-0.117646
0.761347
-0.0659963
0.0715246
0.000614461
0.25294
0.418947
0.357993
2.47692
0.930079
-0.0566447
0.0307
1.10486
-0.0621306
1.33888
1.71169e-05
0.831248
1.0895
2.02466
0.00149217
-5.75769e-05
1.4379
1.97282
0.647983
0.000339859
-0.208599
0.47603
-0.0235137
-0.0102606
0.276467
0.169861
0.0706689
1.62252
-0.0159663
-0.250455
-0.0147966
0.357345
-0.0107387
1.84164
0.605612
0.52158
-0.00682252
0.695019
-0.135551
0.122565
-0.229156
0.00175435
-0.200298
0.140838
0.000319065
-0.0197842
-0.281151
-0.0477905
-8.40132e-05
-0.256151
-0.0243933
0.00239349
0.0746972
-0.0135419
-0.0246247
0.21761
-0.000832235
0.488235
-0.321431
1.4731
-0.00186691
2.66277
-0.000148089
-0.0511702
0.0517101
-0.000370699
-0.0394772
-0.0109749
-0.400432
0.934348
-0.120855
0.234258
-0.262533
1.38555
-0.000144371
-0.384527
0.257836
0.365269
-4.77604e-05
2.78841
0.0502267
0.159057
-0.0289336
-0.00841507
-0.000474083
1.48495
-0.0421965
0.72068
0.00154591
-0.323359
-0.00947671
-4.14736e-05
1.50561
-0.000562208
0.854572
2.32925
1.37388
-0.0574311
0.784939
0.972096
1.29905
1.60778
1.05624
2.1162
-7.47892e-05
-0.177121
0.870765
-0.00419696
1.33358
-0.261378
-7.50937e-05
-0.00242215
-0.206269
2.69605
0.397213
0.0463535
0.561423
-0.00208969
0.000372424
0.0648978
-0.175942
0.0664921
1.22634
2.55203
-0.115169
1.6405
-0.248789
0.23453
1.83219
0.00122588
1.2079
-0.0380522
0.251379
0.0129691
-0.271439
-0.0675832
-0.0245767
-6.83467e-05
-0.0807399
-0.000108182
0.846467
2.65821
0.197031
0.00644432
-0.024435
-0.224471
-0.00051125
0.0466464
-0.18881
0.0488665
-0.112298
-0.162642
-0.00528147
0.00866277
0.294409
0.00135133
-0.214864
-0.000336799
0.635294
-0.0102655
-0.221154
0.00131397
-0.0413921
-0.201479
-0.0834901
0.42602
0.00593491
0.392621
-0.199557
-0.431322
-0.00136809
0.272869
0.294821
0.0422506
1.60702
-0.0489564
-0.439568
0.0731931
-0.0257389
0.0656037
0.000594242
-0.306282
-0.135876
-0.0276985
-0.0013281
-0.00709016
0.578553
-8.17115e-07
-0.00427618
0.000745854
-0.000215318
-0.0162078
1.80781
2.92778
-0.00345197
0.0435559
-0.000215845
-0.295167
0.0294129
-0.0682722
0.219652
-0.013417
0.695761
0.0269971
-0.00876026
-0.00225232
-0.0420766
0.0647024
-0.00257776
1.39396
-0.01281
2.61765
-0.132791
-6.76479e-05
0.585401
-0.00681498
-0.170124
0.828999
-0.0250865
-0.123064
2.49787
-0.250978
0.0316472
0.0375436
0.318139
-0.0486101
0.597453
-0.000400958
-0.173318
0.00596984
1.93053
0.0259914
-0.191926
0.224369
-0.0494791
0.513464
0.107757
0.081472
0.768369
0.010001
-0.440915
-0.0491531
-0.0150802
-0.00450058
0.0639442
-0.261557
-0.0101823
0.0317912
0.0513879
0.00672255
-0.190057
-0.00292449
-0.00400005
-0.0135963
-0.000556617
-0.406571
0.00949261
0.701114
0.000206073
-0.0047113
0.000604527
2.38396
-0.000565869
-0.3275
0.739465
0.776851
0.00282091
-0.0204032
0.0250113
0.0159451
-0.100821
-0.257701
-0.206009
-0.130375
-0.0409046
-0.00366854
0.657796
0.209582
-0.0832519
-0.0092209
-0.280243
-0.253843
-0.00144102
-0.0439353
0.309906
2.50035
1.79279
-0.026459
0.390545
-0.0693131
-0.00464427
-0.00227975
-0.143719
-8.36567e-06
-0.103251
-0.153227
-7.91213e-05
0.000342985
-0.257868
0.0965727
-0.150801
0.292881
0.000441746
-0.257854
0.131757
-0.119285
0.00130792
-0.246833
-0.0042404
1.0468
-0.00520104
-0.277057
-4.38552e-05
-0.00824186
-0.202862
-0.258658
0.00151001
-0.170339
0.00107713
0.735013
-0.0817865
-0.174386
-0.301028
0.0402582
0.562574
2.70744
0.0714541
0.529103
0.00301183
0.00045658
-0.00170844
-0.157237
-0.000347002
-0.0101203
0.961233
2.32897
2.50181
-0.00635355
1.467
-0.0415142
0.00611852
0.0695943
0.593897
0.0333897
0.000334032
0.456947
0.0930705
-0.445046
-0.442258
-0.456154
-0.15786
8.05061e-06
0.00765056
-0.0535682
1.08652
-0.228616
0.311181
-0.210959
2.48862
0.0393276
0.751961
-0.000443078
-0.206471
-0.0250075
0.000240159
0.00839171
0.398074
-0.0261304
-0.443026
0.0705716
0.250163
1.75986
-0.0503051
1.16791e-05
-0.00057447
-0.157087
0.263222
-0.14578
-0.0666709
0.010357
0.00422822
0.663859
-0.000407662
0.0978319
-0.00652171
-0.0436193
-0.0197848
-0.0265777
0.903941
0.0758809
0.0463429
0.195473
3.06463
-0.296461
1.10239
0.884843
-0.292441
-0.217066
0.0409256
-0.2951
0.0791911
0.708159
-0.079642
0.000603183
-0.0435872
-6.98698e-06
-0.394427
-0.0192719
-0.0143973
-0.0462587
1.35335
-0.00218095
-0.000180979
0.818269
-0.391354
7.18338e-05
0.000118027
0.00976053
-0.214374
-0.000805613
-0.252574
-0.0021956
-0.18942
-0.190816
0.633757
-0.0244359
1.10036
-0.199276
0.00151134
-0.00632717
1.30373
-0.0501852
0.109059
0.000571796
-0.132825
-0.134028
0.000349181
0.114365
-0.161636
0.029832
1.83022
-0.00044663
-0.383731
-0.00702605
-0.00123907
-0.00352258
-0.0291995
0.97988
0.0328078
-1.19205e-05
0.911513
-0.0801243
-0.00405903
0.0998176
-0.00927234
0.258194
-0.217637
-0.00166906
-0.01301
0.42692
-0.183036
0.000489479
-0.446512
-0.177555
0.176496
-0.0897099
0.0902503
1.81558
-0.0423519
0.453619
0.689924
-0.00430776
0.00537174
1.23629
4.90678e-05
3.03987
-0.0125366
-4.38873e-06
0.769008
0.954355
-0.310731
0.378759
-0.237207
0.25907
-0.0393563
0.0791305
-4.95949e-06
-0.0509683
0.487906
-0.16165
-0.0774132
-0.0190787
-0.297351
-0.0307249
-0.0202916
-0.00141616
0.3082
2.44618
-0.217327
-2.76272e-06
-0.000857812
0.0113487
-0.0120124
-0.450758
0.769177
-0.322727
-0.160775
-0.0949415
0.23406
2.37475
0.000380469
0.263145
0.0478461
-0.297736
0.0138758
0.412578
-0.0188466
-0.00701302
-0.0534412
-0.00092667
-0.00042021
0.450451
-0.0130281
1.32328
-0.00039699
0.313217
-0.065787
-0.110285
-0.151292
0.104243
-0.445394
0.0936042
-8.3546e-05
0.604251
-0.266864
0.0483361
0.564238
-0.324108
-0.0735213
-0.16363
-0.0645674
0.604874
-0.40692
0.616953
0.0136143
-0.121136
0.00110466
0.752524
0.121842
-0.00214363
-9.20569e-05
0.660346
-0.00748649
0.35109
1.23822
-0.346369
-0.0003419
-0.147441
1.8907
0.571384
-0.0412482
0.760578
0.896351
0.286584
0.00233872
-0.0138069
0.147125
0.953995
-0.167362
0.0101755
-0.00705011
0.000548851
-0.230863
0.419161
0.314007
0.741114
-0.134432
0.0980695
-0.156566
-0.138975
0.0203299
1.62046
0.206842
-0.375747
-0.00954616
-5.77825e-05
0.0530585
-0.260991
0.0143168
-0.00199436
0.672543
0.833139
-0.20786
0.599324
0.0483327
1.92132
-0.0102754
0.852559
0.175078
-0.00247812
-0.000125813
0.227615
-0.198679
-0.00705352
-0.0844321
1.11742
1.24347
-0.115195
1.81364
0.933701
-0.195223
-0.169789
-0.163577
-0.0263548
0.740502
-0.234265
-0.00253953
-2.24107e-05
-0.00615404
-0.14821
-0.0362612
-0.146581
0.0904239
0.405932
-0.00829348
1.98613
-0.00518389
1.16977
2.68541
0.827775
0.197911
-6.99621e-05
-0.188748
0.0125242
-0.0535736
1.85656
0.635503
0.63917
2.39702
0.048803
0.251543
-0.162348
0.000246708
1.51234
-0.0323286
-0.0616163
-0.148361
0.0670163
0.000119045
0.051787
0.573797
1.20243e-05
2.65482
0.433401
-0.00313764
-0.00200401
-0.00899812
1.30781
0.61548
-1.31428e-05
-0.00929882
0.000544043
-0.00163012
0.0116276
-0.0091417
-0.0503585
-0.0254079
-0.0145688
-0.0537813
-0.00372607
-0.00308593
0.201254
-7.12904e-05
-4.78371e-05
0.208205
-0.0434329
0.0742315
1.54072
0.0897932
-0.00386182
-0.0517688
-1.56153e-06
0.0282886
-0.215616
0.0369676
-0.288773
-0.00274883
1.19895
0.503976
0.785645
0.102925
0.0959103
-0.12166
-0.00645527
0.000317362
0.070321
-0.175681
0.00166549
-0.082824
0.0169709
-0.000114527
2.78533
0.656727
-0.00839949
-0.295461
1.02241
-0.148332
-0.0561135
-0.000148996
-0.192056
-0.0947448
-1.25537e-05
0.419614
-0.00015279
-0.00816741
-0.231377
-0.441861
-0.035814
-0.0374905
-4.49055e-05
-0.273673
0.0135161
0.82257
-0.199514
-0.000827268
-0.0377896
-0.00659832
-0.332388
0.0435982
0.173848
-0.0552024
-0.383077
0.638392
0.00797891
-0.000281983
-0.0196684
-0.106104
0.526774
2.18623
0.0299959
2.95028
0.00217839
-0.23685
-0.432617
1.48045
1.78953
-0.0690141
-0.0107925
-0.134866
-0.000111885
2.31896
1.31715
0.495609
-0.243448
0.560603
0.595011
2.23291
1.00829
1.14953
-0.28796
0.223765
1.20826
-0.40684
-0.0100669
0.531414
0.162876
0.00510409
-0.118851
-0.00175063
0.0433176
0.00733342
0.0152277
-0.0605829
0.000359435
-0.189959
0.00841513
-0.288059
-9.37792e-05
-0.0293635
-0.000502417
0.000159699
0.727022
-0.326241
-0.0848814
-0.00330919
0.087758
-6.94267e-05
-0.000972014
-0.00374867
-0.00239449
0.196971
-0.297548
0.00154918
0.642969
-0.0131877
-0.275255
0.287793
-0.0346545
-0.0101989
0.000288663
0.114351
-0.247918
-0.0137435
0.000173931
0.028432
-0.0639896
-0.151368
0.26344
0.00312274
-0.19102
2.65895
0.00634086
0.00825807
0.46688
-0.00367633
-0.00734676
-0.000261315
-1.41075e-05
-0.00105444
0.160486
-0.323016
1.99982
2.8017
-0.00290522
-0.000515717
-0.00258661
-0.170101
3.07972
0.726518
-0.41474
-0.24964
-0.000465739
0.00568132
-0.0612659
-0.00668465
0.00080694
0.0802792
0.45251
0.220991
0.0116797
2.46064
0.0910676
0.00320621
-0.00950247
0.294898
-0.134247
-0.340992
-0.431112
-0.0524122
1.42895
1.89253
0.688142
1.29497
0.699429
-0.331608
-0.0544709
0.0326365
0.825197
-0.20322
0.00255606
-8.59986e-05
-0.167645
-0.421511
-0.00547638
-0.0598038
-0.285305
-0.322628
1.85023
-0.0134579
-0.185345
-0.011417
-0.12407
0.86689
0.163374
0.0345082
0.0650484
-0.0920407
0.0272613
-0.0749867
-0.204314
-0.0320236
-0.321412
1.13409
-0.213574
-0.101311
-0.0297799
1.01853
0.425025
-0.172046
-0.0188444
-6.26811e-05
1.2702
0.512524
0.0817102
0.0135025
-0.14801
-0.0806856
-0.0138693
-0.324233
-0.0440757
-0.280747
-0.0361401
0.0146854
0.000526462
-0.00191547
0.233166
-0.00011454
-0.0715247
-0.227036
-0.181629
-0.00178557
0.000516781
0.00131335
0.0139086
0.510716
0.112158
-0.285522
-0.179122
0.299658
-0.0720988
-0.016691
2.26266
-0.0741431
-0.0283273
1.60467
-0.101865
1.51058
2.16793
-0.0659992
0.699857
-0.0877196
0.0688636
-0.0196654
-0.0148441
0.0228584
-0.243872
-0.15612
-0.226001
0.0178219
0.82075
0.605309
-0.328893
-0.00254107
-0.00350208
1.19727
0.919008
-0.0542064
1.2802
-0.0611044
1.87268
-0.0325808
-0.0271771
0.451362
0.336347
-0.00139413
-0.0092728
1.0165
-0.176859
-0.000447331
2.49247
0.647475
-0.0110959
-0.353972
1.14348
2.43103
-0.0341696
-0.189279
0.00237996
0.0371729
0.00280525
0.145242
-0.293573
0.001303
-0.0971191
-0.403934
0.246683
0.716137
0.237409
0.994274
-0.246787
-0.016699
-0.338581
0.208772
0.000820639
2.29979
-0.0356079
-0.0763794
2.25225
-0.205098
-0.28205
-0.00491996
0.437258
0.0667614
-0.000114313
-0.0663996
-0.00136251
-0.112862
1.06983
0.697806
1.81268
-0.39814
-0.193794
-0.0020149
-0.0101961
-0.0105782
1.15195
0.142699
-0.13959
-0.00123972
0.915168
0.354494
0.000757859
-0.0111949
0.543784
-0.00766294
-0.290988
-0.00626328
-0.0537935
0.0740405
1.92587
1.81638
2.50241
-0.065915
0.00509016
-0.0795839
0.0824025
-0.00279543
-0.00486295
0.000347705
0.0848836
0.000708511
1.07531
-0.116613
-0.0974401
-0.273653
-0.000555868
1.15953
-0.0137129
1.01147
-0.00141838
2.39538
0.0122961
0.166241
0.11338
2.92426
0.736715
2.16129
0.935455
-0.440243
0.364319
-0.111534
-0.169097
0.00183027
-0.242693
1.86104
-0.00243695
0.530154
0.386557
-0.00165011
0.815317
0.312563
-0.228659
-0.0606974
-0.065711
0.0736635
-0.202675
0.202693
0.284396
-0.0120548
0.260503
0.158541
0.302494
0.273038
0.167972
0.0318983
-0.00263746
-0.255389
0.264326
-0.266185
-1.68715e-06
-0.0848112
2.17779
0.804384
-0.0569041
-0.19409
-0.260945
-0.00120386
0.288838
0.325147
0.760653
0.481694
0.073649
1.61676
0.000492119
0.338071
1.00351
-0.00703032
0.00981657
0.266478
-0.00244325
-0.000669582
-0.128141
0.000216596
-0.0165933
-0.00212768
-0.272957
-0.220805
-0.223175
-0.000917172
1.70368
-0.0582742
-0.0378063
1.61877
-0.0962658
0.37489
0.0712535
1.13021
0.00185372
-0.000938234
-0.0075908
1.80377
1.39981
-0.462498
0.33271
1.52113
-0.0950634
0.212648
-0.280369
0.740961
0.209387
0.00784847
0.00710135
-0.0764584
2.77207
-0.123311
-0.00104771
0.234131
0.561398
2.52169
0.402327
0.305801
0.70458
2.4619
-0.00038092
-0.150712
0.252716
0.495671
0.000316581
1.25542
0.254407
1.25938
-0.0770782
1.7803
0.590512
-0.0133665
-0.120566
0.107166
1.47871
-0.0136091
-0.0864832
0.0507035
2.82386
-0.258552
0.112429
0.283816