/*--------------------------------*- C++ -*----------------------------------*\
  =========                 |
  \\      /  F ield         | OpenFOAM: The Open Source CFD Toolbox
   \\    /   O peration     | Website:  https://openfoam.org
    \\  /    A nd           | Version:  7
     \\/     M anipulation  |
\*---------------------------------------------------------------------------*/
FoamFile
{
    version     2.0;
    format      ascii;
    class       surfaceScalarField;
    location    "4";
    object      phi;
}
// * * * * * * * * * * * * * * * * * * * * * * * * * * * * * * * * * * * * * //

dimensions      [0 3 -1 0 0 0 0];

internalField   nonuniform List<scalar> 
11512
(
156.628
-496.277
339.649
-741.276
-11.5438
752.82
400.729
-375.753
-24.9767
613.802
283.449
-897.251
1511.22
-1069.45
-441.767
1216.3
-1527.14
310.841
-77.1947
481.458
-404.263
168.544
-843.007
674.463
962.171
-1610.86
648.686
-1751.7
1658.96
92.7393
-542.946
1759.24
-1139.65
1933.57
-793.92
609.439
180.997
-790.436
-23.7041
-1308.18
1331.88
218.889
-1970.59
1024.74
-380.829
-643.911
-164.862
321.489
487.028
190.544
-677.572
1156.41
-1312.38
155.975
-304.646
378.695
-74.0486
996.2
-1303.54
307.338
1221.46
798.813
-2020.27
70.482
-1632.06
1561.58
-453.538
-1182.53
1636.07
478.459
181.883
-660.342
-199.199
-297.078
498.377
1012.84
1638.74
-1794.36
155.627
-79.7195
-1695.33
1775.05
-1558.31
648.762
909.548
-305.62
654.257
-348.636
-192.966
-154.969
347.936
1277.97
-1207.48
355.131
-1407.51
1052.38
-1754.36
1754.36
100.48
1522.03
-1622.51
-1075.86
-482.453
633.811
-711.006
-382.582
941.465
-558.882
1332
-1317.37
-14.6309
-1100.51
717.929
629.383
395.357
-379.84
-47.8414
427.682
-428.928
749.53
-320.601
-1618.55
1618.55
1253.6
-1437.91
184.306
-488.258
1709.72
1256.81
-315.346
1660.76
-1161.27
-499.49
85.7459
-390.392
2063.97
-1133.88
-930.088
1803.27
-164.53
457.842
155.953
-613.795
-448.964
966.905
-517.941
-1162.59
1263.07
-569.28
971.708
-402.429
403.552
752.856
661.831
-493.287
-438.122
597.484
-159.362
1190.74
-835.607
2308.18
-1080.65
-1227.53
1163.01
-2006.93
843.918
-1593.35
1569.65
440.81
-1580.46
-759.286
1250.93
-491.639
-673.739
368.119
1661.49
-699.315
-1106.93
-870.891
1977.82
656.551
-348.559
-307.991
689.449
567.362
-258.202
1511.81
119.399
-322.189
202.79
-284.792
763.251
-335.309
567.661
-232.352
-324.558
811.586
-318.386
-151.65
470.036
328.836
71.8931
1446.56
-450.36
-960.208
474.527
485.681
282.769
88.658
-371.427
950.815
-341.376
-1699.47
666.022
1033.45
14.9421
-845.161
830.219
-283.094
598.338
-315.244
156.317
-1093.74
937.42
1052.02
-1067.52
15.4984
372.936
519.764
-892.7
-245.359
703.2
-1104.15
-481.881
1586.03
-678.861
951.754
-272.893
1360.82
-1440.54
-611.18
269.827
341.353
-470.183
-1011.6
1481.78
-540.667
-791.582
1332.25
576.816
-997.034
420.217
-267.617
-317.826
585.443
410.437
-291.038
-1033.43
584.467
955.313
-798.996
-110.271
944.135
-833.864
-212.88
421.576
-208.696
-616.426
-343.781
-386.681
963.498
1856.38
-1856.38
-451.512
-159.668
-955.235
1547.13
-591.894
498.995
-934.671
435.677
-924.603
355.324
-941.912
-1058.08
-1483.59
348.162
1135.43
-289.975
903.777
-299.858
609.199
-309.342
-1941.91
999.994
-1131.13
-352.458
537.618
-1492.85
1728.52
-1725.45
-3.07258
216.613
-596.04
379.427
-1447.78
972.317
475.468
292.329
210.905
-503.234
312.377
-647.686
245.223
-421.794
176.571
2013.51
-864.944
-1148.56
-543.878
164.038
619.276
831.243
-1450.52
-184.292
429.515
430.999
877.248
-1308.25
-910.396
395.959
514.437
-1043.56
1447.11
-1068.94
309.651
754.615
-100.358
527.578
-275.099
-252.479
986.81
-512.284
593.264
-1404.01
810.748
-1342.42
238.269
-549.411
266.318
-1177.21
887.237
1945.48
-986.49
-958.99
276.805
1579.58
-2091.21
892.792
1198.42
368.231
-30.1487
-338.082
-224.046
484.205
-260.159
-117.003
-375.068
492.071
-469.698
151.312
343.615
-128.244
627.239
407.092
390.529
-797.621
-2032.35
1104.85
927.499
461.45
-535.098
73.6481
224.253
-366.232
141.979
1029.75
983.753
1773.24
-251.209
699.637
-429.81
797.538
-1390.27
592.735
330.982
325.569
1042.7
-1027.76
-510.76
-214.006
724.766
481.636
-139.024
-342.612
798.379
-617.382
575.394
-731.153
155.759
503.329
1157.43
-1240.03
699.366
1051.76
-1505.3
-3.13975
-1439.43
1442.57
324.431
825.845
-1150.28
623.861
269.908
-893.77
-2270.55
1131.19
1139.35
-1105.67
-1164.87
214.502
360.892
958.499
-634.068
879.645
-899.303
19.6584
-2099.38
992.451
-229.744
-190.649
420.394
-41.628
1770.15
-818.036
76.7596
-1025.71
-1065.5
-230.109
454.362
-646.055
194.542
-251.621
-424.883
676.503
1104.07
-1574.25
783.232
-1374.6
591.37
692.846
-409.398
1947.89
-1444.56
-378.287
-1376.07
86.5804
394.877
-526.687
515.143
2.86058
-559.83
556.969
572.116
-279.787
-607.176
281.671
325.505
778.629
-371.537
33.064
335.167
1188.47
-1191.61
182.451
227.986
391.623
-643.244
620.278
-1006.96
-2026.69
2026.69
-239.024
-449.894
688.918
699.44
405.868
-1105.31
579.737
174.878
393.395
385.235
-2199.74
1328.85
-927.044
-678.278
1605.32
-497.149
-680.064
-266.892
541.36
-274.468
822.555
-175.55
-647.005
-422.515
639.128
376.322
-676.18
-339.414
-138.456
477.871
-1320.53
-473.83
606.966
-1104.11
-374.153
-1244.4
844.318
1463.86
298.673
-937.957
639.284
967.046
-337.663
1391.53
-798.263
447.743
-265.292
-330.659
-867.895
553.056
314.839
-311.795
-556.099
305.649
-422.652
-221.011
-149.606
370.617
-392.715
1092.15
435.698
-245.154
-397.172
1341.34
-168.057
-1173.28
-465.644
265.716
199.928
235.009
233.769
-468.777
32.623
-763.776
592.055
-1728.98
1136.92
1480.56
-861.282
-1049
-398.784
-1057.97
573.044
484.926
1367.11
-394.789
929.666
-1411.55
-157.808
-211.797
369.605
-470.071
582.449
-1626.01
427.988
904.008
261.73
300.504
-562.234
568.079
1186.28
1105.07
-717.069
-387.998
409.248
-221.919
-187.329
-1419.48
444.453
739.101
-1183.55
1473.46
-543.79
-493.86
915.067
-421.207
426.14
1186.17
-1612.31
47.2734
-726.135
-144.037
426.806
223.359
-416.325
519.843
466.968
-630.855
67.375
563.48
1024.55
-1307.68
283.132
661.287
-267.893
468.202
-1447.26
979.063
419.805
1685.33
-522.319
913.881
1031.6
-663.62
-1684.42
757.379
567.123
387.594
-954.716
452.705
78.7007
1749.84
-1828.54
1443.79
-379.487
-1064.3
1699.07
-1740.69
-368.521
-508.778
717.247
-208.47
-502.592
187.475
294.161
-373.173
-1226.02
214.428
-764.542
-639.469
-669.799
1004.37
-334.575
-654.131
644.291
9.84041
655.149
-923.808
268.659
-761.366
386.281
375.085
-649.285
-677.441
356.738
320.703
-932.407
1400.61
-409.037
882.289
-473.252
-2205.3
5.55813
184.748
-539.773
355.025
141.034
1200.31
-92.9803
-553.074
161.874
-599.996
1487.28
-704.043
373.383
-466.771
93.3881
-569.268
569.268
1223.09
395.461
1777.77
-1229.32
588.91
640.414
850.829
-52.4502
1291.12
772.846
-539.734
1337.27
294.799
303.539
282.753
-791.531
235.635
-664.563
233.128
-446.68
213.552
-223.967
571.55
-347.583
133.323
-357.29
-592.235
-564.52
1156.76
-357.858
516.375
-158.516
-1192.16
2032.05
-839.886
1290.56
-332.059
-404.803
137.187
-1980.42
797.891
1515.66
-842.812
-672.843
1986.92
-877.408
-1109.52
713.339
577.219
-240.934
474.062
-676.7
1126.32
-449.615
-770.454
1201.45
551.45
924.711
-1724.67
799.959
-533.431
-68.6604
602.091
285.816
241.763
413.404
-109.782
-303.623
896.993
-83.4144
-813.579
900.214
-544.734
-355.48
1576.23
-472.156
886.408
-1624.77
738.363
1068.49
879.395
751.055
-446.597
-304.459
-1059.09
-258.274
554.332
582.629
-1136.96
-443.198
486.885
-43.6864
579.749
-348.506
-231.243
-981.097
572.06
597.097
883.461
-441.843
1096.99
1402.82
-768.065
-634.757
400.233
-926.87
526.637
-1003.05
386.623
534.07
-1027.93
443.296
-502.985
59.689
460.965
288.564
-520.795
-48.4728
-794.754
-876.347
1671.1
197.36
211.888
-212.691
427.193
-34.8161
-533.777
568.593
486.17
865.798
-1351.97
-533.005
311.994
986.023
-89.0302
836.723
-1065.15
228.429
379.036
846.878
-1386.61
-440.015
830.544
1975.56
-1282.1
-693.46
270.253
609.392
256.051
795.974
72.2097
-952.871
880.661
1673.75
-1089.1
-584.653
-137.785
1887.62
-1866.03
-160.661
483.854
-622.005
138.151
-1015.56
526.024
489.537
-1730.48
538.319
-955.989
845.718
392.347
205.138
588.494
-289.821
-426.765
712.878
254.168
84.1727
709.31
-793.483
-1135.06
-894.326
2029.38
-531.552
1084.72
-553.166
-450.839
-339.852
110.107
-1653.2
858.45
-882.286
-579.376
1461.66
-332.477
-295.32
627.796
366.362
-638.55
272.188
232.365
-603.902
301.459
214.824
-516.282
327.385
-594.277
611.064
-244.702
315.33
-466.981
670.494
400.211
-165.202
-368.946
-308.494
1213.17
-3.73316
-1209.44
1040.3
-420.021
561.085
410.623
-1782.39
869.831
912.561
496.209
540.374
-1036.58
-536.201
203.724
-262.18
1180.29
-918.105
-1590.91
1212.62
504.669
-1096.9
389.069
-15.6862
421.84
291.746
-713.587
374.45
-619.808
-28.7779
754.516
-725.739
-526.411
796.32
373.527
323.113
527.716
655.531
76.78
-384.809
308.029
1059.19
-645.418
-413.774
494.001
-1664.27
1170.27
-1140.48
1753.25
-612.77
1715.8
-1123.74
-335.148
616.818
-1181.81
1254.02
425.343
-796.312
1594.79
-798.477
-241.262
-224.382
-886.556
1468.86
1810.65
-611.641
-1199.01
-404.839
632.092
-1301.89
-124.802
-32.8086
446.213
-671.521
-354.17
-1236.74
-226.763
459.128
904.071
-562.512
187.444
-1674.45
-71.1623
1745.62
-1049.3
517.748
571.807
-1180.31
608.508
901.191
909.456
630.875
620.05
670.227
244.84
-1121.05
444.352
-405.955
408.816
623.324
-515.985
253.292
-735.807
482.515
669.555
-338.573
-337.761
182.791
-585.974
221.073
364.9
-888.826
-735.945
1087.67
-2145.75
400.944
-685.736
-342.948
-724.575
832.378
570.444
-351.089
303.248
356.707
198.444
665.216
-863.661
528.74
597.575
-518.841
179.427
362.574
-601.597
-1041.01
-851.439
1892.45
-1789.05
156.983
1107.38
-1369.56
1151.52
-734.5
-417.021
-503.208
1350.09
-1495.57
627.862
867.711
-288.447
-210.701
499.148
1428.38
558.54
320.543
-459
-487.636
-562.848
1050.48
-416.603
601.351
1581.95
-1128.37
-453.575
-760.192
310.298
654.996
404.195
-1623.43
416.151
1207.28
-203.65
505.109
797.974
783.974
193.681
-668.909
475.228
209.811
211.765
-295.473
-108.972
404.445
465.605
4.79608
-470.401
-1626.5
577.501
-1599.92
1662.96
-63.036
8.63529
-1608.56
1069.63
743.003
-321.163
-796.412
-206.637
-1134.57
-240.034
-312.151
686.601
-1812.24
-622.301
1204.93
206.806
760.1
-1328.61
-678.319
-465.175
590.948
-329.218
-1013.29
1350.75
-1932.78
582.034
645.685
1287.89
487.548
-3.34341
717.857
697.856
-1415.71
-641.644
340.662
300.981
441.495
-99.7553
-341.74
157.418
280.884
172.009
-452.893
-574.178
1141.3
471.457
-601.715
-462.793
-401.892
864.686
-336.018
178.21
-461.314
170.276
-306.864
-708.697
550.178
-108.683
-568.086
968.318
580.631
-270.132
-310.499
457.185
-781.743
-644.962
426.149
-1129.43
-829.466
1177.63
-569.768
461.231
263.535
-437.798
89.2393
1029.79
-317.344
594.458
-277.114
-509.04
1578.67
-669.717
221.972
381.933
-603.905
209.572
464.174
-16.7375
-447.436
-252.76
-208.554
1013.51
1108.98
564.778
-862.147
933.048
-70.9011
-457.844
169.398
-715.072
290.19
-598.232
316.667
352.888
809.369
-1221.28
411.912
778.486
-807.264
-949.006
-550.372
1499.38
-150.897
451.401
-522.39
247.291
1298.11
758.139
-564.458
1300.83
-693.862
488.021
-688.112
-416.578
-424.651
-378.69
803.341
503.976
-845.352
-434.363
80.2406
354.122
-325.622
572.385
730.869
-329.924
-248.003
-175.558
423.561
-493.084
149.615
343.469
1455.82
79.6493
-1535.47
-748.314
1345.41
-1144.75
-466.108
532.988
-151.056
1149.3
-370.817
1083.53
492.697
692.226
-409.474
-885.228
-522.283
-1328.49
-29.8309
984.986
-955.155
596.824
312.989
-909.813
-314.9
-228.978
-679.603
405.512
1621.18
-163.369
360.335
354.629
-714.964
-1839.79
-2106.67
1519.14
587.536
-2037.18
341.856
346.353
537.896
-884.249
-460.147
1021.23
-379.019
-674.282
1053.3
-2030.52
1391.21
639.313
600.636
-979.655
54.2862
389.01
386.934
202.762
244.981
313.277
946.989
850.885
682.229
-327.755
-354.475
-296.083
624.261
-328.177
575.586
529.482
565.786
514.994
-1080.78
-796.288
-699.285
753.487
395.816
-421.498
693.686
-1193.43
1609.58
404.464
-1078.75
-317.656
532.479
-1383.65
858.756
524.891
-716.588
-356.975
-794.328
373.551
420.777
446.952
718.732
-1165.68
1067.3
-571.087
-392.097
653.35
-261.253
255.151
325.48
-469.316
-432.047
901.363
-243.567
548.52
-940.298
391.778
-465.63
600.599
-1681.25
423.661
671.463
-1095.12
523.294
85.9056
113.406
-2212.78
531.787
-70.5557
1443.66
1777.09
-217.554
-1559.54
-438.389
1789.14
-1986.83
1194.42
792.408
406.214
344.841
-31.0992
863.477
-1283.68
719.155
-871.209
-823.787
793.956
314.125
50.3762
-364.501
230.764
186.051
-416.816
1547.4
-829.547
-1530.95
-325.431
463.563
-191.142
-272.421
396.295
366.956
233.391
357.558
-7.97184
1000.88
-992.911
374.012
264.685
-638.697
-734.003
1817.25
-1083.25
-342.98
739.276
-1211.5
-411.013
-916.789
484.742
558.057
-771.26
213.203
763.526
-382.354
-381.172
-418.98
-443.167
447.463
1062.81
1235.46
-663.656
802.734
-345.548
387.687
301.231
-256.065
-210.706
-192.043
611.849
408.026
-849.3
441.274
200.144
357.016
-557.16
-424.044
832.07
754.823
-1147.54
876.324
-66.9548
-493.057
273.03
769.668
-95.4436
1383.33
1890.5
-74.8805
340.596
-319.548
396.328
-1085.03
1077.06
607.403
376.454
387.072
55.6666
407.896
266.996
485.824
-370.046
-271.597
-564.707
-89.4239
-355.857
369.881
-14.0239
-258.27
-291.142
1011.16
-1540.73
529.573
-202.834
-172.919
-384.103
648.788
-1625.78
1591.09
-963.225
244.36
-660.938
584.306
1224.43
-1808.73
607.399
983.687
292.401
-1117.97
691.204
-288.222
-274.012
1368.8
-1440.62
820.163
620.461
404.649
-613.956
209.307
-351.83
471.613
-119.783
363.025
102.58
1723.52
463.126
-253.316
557.611
-1704.79
1147.18
-90.8709
394.689
343.229
339
-448.458
-616.26
1064.72
422.644
-862.659
-641.491
903.232
570.224
-511.039
-250.326
-440.387
-408.914
-307.102
-827.466
1821.11
-1821.11
-106.432
-1583.33
1689.76
292.406
287.343
-917.435
-555.231
1472.67
-408.221
974.007
-584.804
-1041.7
678.827
383.129
-1061.96
480.466
-165.136
573.056
1220.35
-1793.41
-1044.36
2116.23
-1071.87
-373.46
-300.279
-491.318
801.616
-1746.91
1597.37
149.534
1746.91
-1600.09
-146.822
-248.165
527.301
-279.136
-537.274
1620.8
1556.38
-1967.4
1065.45
-284.434
-243.719
528.154
244.506
-562.162
-690.029
268.53
1340.49
635.068
576.478
486.719
-1063.2
285.095
407.132
875.513
500.107
-1375.62
529.941
-1017.58
1574.97
-563.808
-776.93
-368.109
-107.404
475.513
-489.865
1208.6
-742.769
334.848
368.352
352.7
258.98
-611.68
597.206
832.084
-603.655
267.143
665.906
-511.039
-318.515
-221.355
539.869
1168.6
-666.171
611.865
464.41
-1076.27
-1289.34
1289.34
-387.888
764.342
-288.701
-472.969
761.67
481.428
449.799
-931.226
387.27
-675.971
614.518
-868.788
254.27
-367.233
-497.14
1073.62
-662.909
-708.361
1371.27
-374.427
922.948
-1552.67
675.263
38.0528
-401.003
362.95
-495.143
689.686
239.284
332.266
173.164
307.302
-505.846
217.625
1869.05
-1964.49
270.897
-693.412
443.383
-821.254
377.872
-922.133
1404.97
-482.841
-429.734
-487.055
600.66
1124.22
-1724.88
-716.788
343.328
-459.494
1035.08
-767.925
1035.07
-381.368
-631.231
-473.335
708.97
541.3
-359.416
904.072
-298.597
-194.488
1599.02
-1816.57
-344.064
-596.234
-330.375
479.991
247.074
-576.293
-181.324
1054.58
-781.552
217.579
-275.449
-288.286
563.735
396.403
-872.47
476.068
-489.099
-442.992
-937.957
-330.982
558.218
-227.235
-444.912
-415.209
-317.572
-198.71
-377.094
636.074
-447.62
748.851
-1073.3
624.844
-1410.18
527.898
-27.46
-1833.07
1860.53
569.84
-449.192
1201.01
-683.264
333.077
-333.077
669.34
-429.869
1042.97
-1627.78
-1158.73
-947.943
294.647
329.613
879.774
715.016
-482.859
-302.174
785.033
1655.41
-1682.87
-434.961
352.487
219.629
1135.31
-523.448
-943.331
1550.47
-607.138
446.864
-244.102
386.069
365.374
-751.443
523.916
475.487
-999.403
-332.027
666.875
-37.7663
1906.81
1580.59
993.038
-1697.08
727.382
-1177.34
449.959
-492.449
1367.96
838.266
-1341.47
-540.676
256.242
791.148
-403.555
555.299
-1186.78
631.476
-639.906
-1215.54
-695.632
1911.17
-204.508
539.455
-334.947
-165.684
282.078
-486.586
324.892
374.991
-699.883
-1479.02
757.771
721.245
884.141
-1434.51
827.018
-431.058
222.436
-366.474
-572.91
254.395
-630.646
-753.002
699.521
505.529
-1205.05
395.797
-204.655
-191.142
556.986
-959.415
-558.313
-425.856
716.046
-831.264
-1155.57
-1437.98
499.605
938.376
17.0378
-616.743
327.793
288.95
-1307.78
1044.82
262.964
-617.276
-456.027
-666.006
922.058
403.879
-206.428
-197.451
508.118
980.763
-1488.88
973.714
-564.483
167.433
397.05
-385.192
665.589
-394.692
-508.982
178.607
234.546
-1516.65
533.793
533.502
-731.539
236.395
160.702
-459.299
374.176
-817.167
1954.16
-1195.39
-758.767
404.688
-656.339
251.651
325.284
319.448
128.029
-447.478
-561.096
197.023
266.103
-691.681
1374.44
-682.755
424.039
450.082
-1166.67
269.031
1866.78
-1013.59
-853.19
785.247
-513.719
182.737
1402.41
-975.225
-427.18
339.08
-768.95
-616.476
1725.45
614.127
621.337
321.014
-6.88924
273.492
-1138.47
1725.72
-587.249
-1763.51
820.184
1748.51
-1680.3
-68.2117
-657.178
251.223
556.881
-696.577
223.242
1402.81
-564.539
394.524
436.02
-1858.49
1420.1
530.775
-413.236
-117.539
214.981
-532.553
-275.745
-175.094
-354.574
697.803
-567.066
198.957
603.167
554.234
-1157.4
1113.7
-1947.37
833.668
166.122
311.749
-1698.41
1660.64
320.669
-730.142
-163.603
386.04
749.249
680.473
-1429.72
1070.07
-1073.8
529.364
-1100.45
-633.141
255.602
377.539
510.216
-289.143
-592.75
-1035.02
300.759
-715.968
-912.319
187.625
167.795
228.002
377.797
298.839
-676.635
-625.016
-833.851
-978.388
493.92
-1055.02
-276.131
476.059
535.939
641.69
-280.869
-123.934
-409.085
701.485
276.256
-1196.69
571.672
1305.25
-556.005
446.132
-1004.45
-389.552
156.084
374.691
1023.46
551.501
-1711.32
1604.89
1622.37
-551.112
-1071.26
1901.84
-1889.96
-11.8815
193.582
-513.129
-333.281
550.861
-759.981
-314.824
-342.354
1029.62
694.783
-1493.34
798.561
350.789
-26.1925
1625.21
-1070.14
403.969
-1225.63
448.705
-59.6964
1515.52
1197.62
-470.238
-489.614
-74.8686
-259.876
735.998
-1951.54
-712.278
346.027
-535.223
189.196
191.942
-509.285
1139.9
671.533
-1811.43
-588.644
175.408
942.188
-1497.42
-210.48
678.949
-468.469
879.87
1120.13
-733.859
1347.99
586.399
-473.621
-112.778
-349.649
1169.81
1034.13
-1980.85
946.725
-1168.94
546.639
1488.85
-585.615
-365.337
-153.504
-1239.18
575.527
1159.61
-126.158
946.022
775.356
-1721.38
-216.485
578.37
-1541.77
963.396
486.975
916.766
-1403.74
614.716
590.214
377.876
-1106.66
591.841
1104.33
1216.31
-452.411
-763.902
-1186.2
-1754.95
-8.73241
-1702.59
-205.34
-408.617
1605.29
-625.514
-979.775
-490.87
1121.74
-1315.69
637.878
677.816
-1360.05
1439.7
-1328.17
594.316
1520.56
-385.231
-554.706
189.369
-1473.24
242.118
176.381
215.107
371.292
435.213
389.209
-824.421
506.298
-939.147
901.101
-1444.89
-682.409
231.893
450.515
-1036.67
462.488
-467.807
862.331
696.675
33.212
-515.226
180.279
-886.565
-1318.74
-717.474
351.696
365.778
406.968
-724.518
317.55
-481.123
-189.332
-709.971
716.462
1539.41
-593.389
809.26
738.144
1344.88
-844.772
-971.493
-570.273
-799.204
427.85
371.354
-1037.3
-645.056
306.323
338.733
-1433.7
-296.783
-792.381
399.759
392.622
-638.333
389.195
249.139
-667.69
272.998
412.708
488.655
389.905
442.165
479.992
384.694
597.355
-970.528
669.706
471.595
454.459
356.675
-811.134
1630.78
-1079.93
-550.852
-504.381
-281.105
-1026.68
455.447
347.894
409.604
594.855
-1004.46
-1378.79
753.273
-536.171
1144.68
352.351
-71.4666
412.123
-866.882
454.76
-1891.23
307.904
442.542
-727.61
285.068
-185.638
407.448
-221.81
-663.934
311.115
352.819
-676.608
322.133
371.029
393.313
613.275
-1021.5
753.998
660.45
-1414.45
438.742
625.975
340.675
393.265
-733.94
410.714
328.561
603.685
668.422
394.389
585.725
-1010.27
424.544
-1665.91
1202.81
463.098
1696.61
-539.171
622.194
-1147.65
525.451
-644.33
349.011
437.235
-936.269
499.035
736.156
-444.409
351.303
346.5
559.799
-903.864
650.391
-1253.67
603.274
359.567
735.204
-1225.07
770.008
509.372
-1279.38
475.506
408.207
-883.713
-501.597
-936.384
-305.699
630.591
352.628
542.547
-895.175
334.433
332.442
-502.175
1944.74
437.741
-848.016
410.275
-917.952
-806.718
-750.635
369.463
-1206.2
438.275
-1726.63
1600.09
126.544
1742.57
-1597.37
-145.194
-785.935
-595.972
268.28
327.692
-1748.51
1967.4
538.239
792.041
-1330.28
440.066
716.689
690.631
385.62
-1076.25
-85.0182
1617.15
-593.686
380.838
820.174
-651.531
327.9
323.63
-378.474
-298.193
553.344
-225.864
436.769
282.562
-669.12
386.558
267.273
-582.517
-284.768
442.441
-1034.21
591.766
538.034
1092.75
366.041
597.457
312.9
353.192
-666.092
1612.7
-917.919
1691.58
-1520.17
-171.414
-328.699
-824.908
415.995
857.658
-1068.14
-609.901
281.724
-1090.63
1628.66
-1575.71
-81.2036
1656.92
-341.621
-350.408
-370.285
535.737
599.575
-504.336
-30.7622
-550.121
509.795
-284.075
-225.72
1738.01
-1290.55
-627.676
301.173
326.503
405.194
357.259
734.895
-298.062
-398.939
-1742.57
1682.87
459.451
-1101.48
642.033
-44.2771
1649.17
571.582
476.461
-1048.04
104.843
1145.11
-1452.21
-18.1156
-1873.12
230.659
-601.319
308.013
293.306
-955.852
612.904
-899.601
469.867
-1129.01
674.062
454.951
353.996
268.408
-751.267
-312.265
1217.75
887.12
698.915
-1183.16
456.148
727.017
494.222
701.325
-1195.55
-358.668
-248.284
416.079
-961.66
438.364
523.296
21.2659
-1879.75
1080.39
-465.868
-488.483
557.847
-1378.36
820.513
-420.037
797.909
-405.309
495.09
-710.657
1724.17
416.418
-188.416
217.416
-173.962
-246.391
420.353
1895.31
-504.106
-1683.27
1052.02
-603.974
305.781
-1014.69
554.541
-313.486
544.225
905.45
-1449.67
-1104.26
438.258
-20.6206
-1943.87
1709.81
-675.686
-541.142
460.651
-1190.81
730.158
189.96
213.919
-283.179
767.246
701.611
839.154
819.258
-462.583
1085.43
-463.23
482.126
-196.374
-285.752
-1922.29
-714.74
-318.756
-644.494
-6.88842
651.383
470.621
-273.598
561.017
1051.69
-798.544
925.89
1244.58
-425.149
-204.769
-220.602
425.371
955.638
-888.644
-329.697
-1068.52
612.491
1552.96
-795.184
537.568
935.099
-387.065
735.982
-348.916
1130.7
-277.375
321.201
1349.89
-704.118
-222.752
448.27
-1198.88
750.606
-1004.79
-90.7898
1095.58
442.986
-956.621
513.634
175.193
732.855
483.458
743.697
-78.4805
854.288
-425.608
1182.86
-797.242
551.976
-1465.56
913.585
-1216.66
1800.97
-431.714
-1510.19
879.835
-1402.12
-297.945
-415.641
1457.34
-1521.63
785.681
1491.54
204.824
277.302
-348.28
-1726.63
-298.383
-1003.57
1564.58
-1757.88
1757.88
1556.38
-1004.58
-636.101
-331.27
368.451
605.557
-362.348
-356.616
-1389.93
897.484
1125.18
600.542
1202.98
1789.48
-1216.43
-606.474
274.248
1658.89
-1916.32
257.424
813.827
-1267.4
1545.28
-561.592
771.666
313.051
-328.512
554.494
795.592
682.152
1347.23
-210.05
-444.842
-347.181
498.595
-342.643
471.654
736.942
-290.123
-157.355
-320.982
566.267
-245.285
25.4676
-373.974
1107.51
-1720.28
-424.246
-478.087
-564.549
864.279
688.676
-1596.61
904.924
-451.527
-614.706
-513.251
1252.35
322.995
1723.62
-1702.36
-1655.41
1889.96
-1560.92
840.347
720.568
-357.635
-1793.98
917.636
582.767
820.038
-396.964
1794.21
-680.506
-403.746
672.747
419.95
-1092.7
-1099.02
444.053
753.567
-1617.2
473.167
901.27
180.222
-406.3
226.077
-1589.59
-380.994
-419.943
990.338
-667.511
1443.02
-974.785
1854.65
242.456
-544.439
500.626
-295.803
474.31
893.651
542.999
977.559
-462.625
-427.98
573.797
883.547
-1392.71
-40.9876
1567.36
-829.218
519.944
971.596
-1475.87
-1115.9
1765.62
-1243.22
-522.401
1206.21
-318.881
-887.329
-195.202
458.643
-263.441
-457.434
-250.994
435.265
-184.271
149.602
-397.886
1724.57
-1733.31
-448.281
-530.836
-903.677
448.517
-210.11
-238.407
636.53
-444.926
-355.685
-299.411
655.097
-921.181
365.082
-1167.49
676.616
422.678
-628.037
-445.669
1568.52
-853.503
530.178
-457.702
-571.768
-462.44
372.014
-362.195
-9.81864
-1088.84
405.58
-664.625
-1033.74
1698.37
-590.534
-1422.78
714.416
562.135
-1596.28
1034.15
-371.969
-482.913
140.907
529.321
-1258.57
745.314
539.21
1006.07
-2133.18
999.992
1133.19
-344.928
419.27
-394.4
-24.8694
1478.1
-361.199
449.464
1222.73
582.013
906.834
568.568
527.255
-1095.82
169.688
-429.383
-1680.3
263.925
1127.61
-606.531
518.407
1013.86
-1532.26
1092.89
-1643.74
194.315
682.009
538.285
-867.982
-1086.6
-173.974
431.965
-257.991
-587.402
-417.129
-636.941
-630.445
347.267
-1618.3
940.027
-476.64
215.986
-404.402
538.357
-307.698
-596.239
1197.29
-1260.47
918.88
341.588
-1025.22
-349.104
-752.648
-820.433
1684.71
-476.752
1792.68
-1579.73
-212.946
-1556.66
1018.77
537.893
-721.378
-263.446
446.41
-182.964
-583.421
383.706
277.242
-660.948
-523.743
977.503
633.086
-351.362
-1620.31
1050.54
571.747
1103.58
-1675.32
-400.38
-296.963
-366.971
-740.909
-459.167
-331.097
504.262
1558.01
-995.873
-775.786
1497.47
663.282
-310.795
725.88
1152.37
-1878.25
272.904
293.103
-486.981
-1930.97
1719.03
211.94
741.068
-474.509
-266.558
531.813
1060.87
-1592.69
372.014
-1720.71
-233.208
1752.34
-1580.72
1073.8
506.914
-1719.23
-1.47489
-521.485
419.27
1698.41
-1719.03
939.902
624.169
-1564.07
386.554
-219.841
-166.712
-397.7
-269.99
73.4443
94.888
-358.334
-434.606
-434.182
-410.347
224.709
1510.28
378.745
-217.091
-421.242
466.429
-200.325
306.961
1510.81
1002.83
-151.766
-851.063
-1104.14
1704.8
-1728.71
1064.09
-707.024
-1021.69
-1265.09
1844.99
-579.897
1155.08
-1771.1
616.022
272.436
-878.41
1675.6
43.4631
-1719.06
-491.152
-1083.1
-1724.57
-982.975
554.995
1019.65
590.2
1133.07
-1723.27
292.179
-443.234
706.28
-384.147
363.253
925.17
680.151
-378.209
-632.06
582.871
1072.6
-1655.47
-396.782
-373.029
769.811
412.744
-1660.64
1520.17
140.472
585.416
-1044.91
544.74
1083.92
-1555.72
994.126
-240.795
238.894
311.967
1901.84
404.713
-85.8241
995.867
722.753
-1718.62
-697.578
1085.39
-1557.55
169.359
-572.352
200.209
266.22
-647.677
-558.523
582.425
1034.73
-711.338
-264.125
-1368.79
676.722
692.071
-418.806
776.311
51.8541
-828.165
561.487
-137.135
1557.23
-220.387
263.506
-768.353
-1930.97
1664.64
1038.29
386.281
291.994
444.161
-930.319
-991.974
-1767.27
639.308
1693.78
512.3
-474.122
1211.06
1087.18
-424.939
1030.5
-979.806
495.558
484.248
699.954
1047.99
-1747.94
488.159
480.159
-1494.06
-747.989
30.9197
782.224
-412.761
-881.425
392.941
-538.314
-803.16
639.284
-576.924
1397.44
1055.13
196.803
235.162
-550.594
1618.54
-771.273
1525.27
-1727.84
575.231
1152.61
546.719
-884.382
-1732.59
1916.32
-183.725
1721.75
185.045
-542.948
371.928
-277.04
-481.298
1211.46
568.27
1128.34
-491.36
436.264
859.986
-464.629
-774.634
422.51
352.125
1418.56
1089.64
-518.129
1423.05
-510.675
-533.612
1044.29
-602.728
457.899
-1192.4
1691.58
1839.58
-687.209
1585.5
-645.598
-1241.64
717.894
-562.29
205.535
-396.185
458.316
-246.551
-521.051
-1246.71
1870.94
-624.225
1173.52
-551.323
1120.3
-1659.47
1688.13
-573.914
-544.371
-549.803
1720.07
-317.554
-688.007
-473.263
1223.87
-1680.66
-1860.1
613.386
282.727
-929.732
171.824
216.551
-1719.03
1204.16
514.865
1162.86
558.888
-510.925
-465.351
1192.37
177.641
229.807
588.443
1251.14
-539.172
-1238.59
1777.76
-1025.49
999.992
866.791
-204.15
-1658.89
1702.36
-510.027
1411.3
-1732.59
-367.689
26.3393
341.349
-268.752
587.296
-318.544
60.9635
492.093
782.992
-376.024
1257.54
1271
-413.344
853.691
-437.696
1817.41
-662.328
1586.49
-1723.62
-412.774
-730.245
301.862
428.383
-559.044
-563.171
79.7223
-1138.81
-985.636
-669.415
1655.05
-943.71
-1189.47
157.938
-401.657
-648.902
705.56
1167.46
649.954
1410.36
-590.324
1636.76
1318.18
-572.869
-496.114
200.311
-503.258
1396.91
1240.25
-563.532
-999.991
894.723
52.54
-947.263
603.449
-506.098
1403.58
1495.09
-588.258
-379.592
379.592
-589.358
1623.51
1239.71
-486.148
1134.17
-75.7215
1850.77
-397.477
1489.5
-588.394
-507.664
1348.01
-653.782
1218.75
-564.967
1554.81
-591.416
742.735
572.25
-1314.98
-650.19
275.276
482.863
599.864
-1957.3
-974.442
1586.49
380.612
-380.612
-74.52
390.616
436.401
367.429
-4.40414
-346.177
882.311
-522.743
-425.383
816
-245.961
623.501
-437.503
1542.35
-444.334
-884.158
190.314
226.989
-417.303
601.166
1250.78
-1851.95
928.283
-458.415
-362.195
126.154
-1943.01
1816.85
-453.973
188.681
1181.39
-440.431
-740.959
-308.517
-572.908
-490.859
-394.4
-483.669
257.95
1158.65
-559.073
230.641
-385.606
154.964
-22.3863
-107.672
1376.07
-1268.4
34.4447
-599.152
-586.349
-459.068
459.068
-1262.36
1985.12
-1344.41
-217.807
-1823.67
243.938
-1025.76
-974.241
-188.812
-1636.91
706.588
1229.32
-1924.95
372.643
310.575
-683.217
-1850.01
1234.27
615.736
-564.039
564.039
-959.308
-39.7984
-1866.03
-558.129
1650.87
-678.024
1636.17
-601.449
-170.048
-1703.07
-587.583
-438.251
-594.771
-472.32
472.32
-1537.81
194.524
1343.28
176.235
226.515
-402.75
486.717
516.112
997.971
-474.675
1751.3
768.818
-426.249
401.379
519.735
1702.05
-594.544
-552.953
1636.87
474.456
1812.71
-645.253
-1803.76
-1938.08
-646.888
-483.761
483.761
-580.985
233.804
-684.875
1020.22
-465.675
-1070.65
-283.697
1579.58
1852.31
1635.33
-1635.33
-279.361
738.972
1761.48
595.781
1275.16
176.42
210.133
564.806
594.258
1603.52
-1603.52
224.872
-351.875
-433.087
463.023
952.517
-456.959
-640.172
-1131.04
1706.27
282.677
-1643.11
601.409
-289.519
474.564
1744.64
-592.038
-216.258
-409.248
382.184
722.145
1738.57
-613.391
-511.754
-775.552
1960.53
-870.45
-1090.08
1642.81
-706.805
1223.98
-1824.94
600.96
314.651
-859.089
-186.185
-109.087
1098.84
-486.345
122.63
606.762
-1641.79
442.294
598.502
-1803.76
-583.268
1787.43
884.713
-1162.94
1760.49
-597.547
1783.84
-575.516
-1208.32
438.829
928.132
-1733.31
924.888
-1504.09
278.993
1225.1
-831.388
-1254.23
-383.791
77.1348
306.656
581.703
272.139
1023.87
-447.269
847.992
-400.722
821.618
737.22
-1558.84
643.501
1066.21
-24.4231
-663.927
688.35
-1744.25
722.56
695.169
150.556
-1122.72
1936.75
-674.543
-1262.21
-537.172
1665.51
825.636
962.422
-1788.06
1227.87
683.304
-401.49
712.604
835.128
1029.18
-586.196
1761.48
627.078
1773.56
-1185.64
-587.926
-375.48
-316.523
692.003
121.439
-1185.74
1660.56
-540.261
-1437.83
1437.83
1250.58
594.412
1351.63
206.374
-569.598
283.435
-194.777
699.04
1113.67
485.257
-307.616
-870.602
-574.289
1734.78
-1734.78
1007.52
-1007.52
987.329
1025.17
-2012.5
1837.94
-613.959
-581.101
809.328
-947.847
-1052.16
998.45
690.224
-1688.67
-520.795
-334.179
-645.476
-808.418
2042.69
-1246.43
-613.671
1002.97
974.849
1289.77
646.98
327.806
1012.69
232.245
335.723
1186.28
1756.87
-1756.87
672.188
79.996
-390.495
-997.049
-539.989
1674.16
989.362
1010.64