/*--------------------------------*- C++ -*----------------------------------*\
  =========                 |
  \\      /  F ield         | OpenFOAM: The Open Source CFD Toolbox
   \\    /   O peration     | Website:  https://openfoam.org
    \\  /    A nd           | Version:  7
     \\/     M anipulation  |
\*---------------------------------------------------------------------------*/
FoamFile
{
    version     2.0;
    format      ascii;
    class       volScalarField;
    location    "1.5";
    object      p;
}
// * * * * * * * * * * * * * * * * * * * * * * * * * * * * * * * * * * * * * //

dimensions      [0 2 -2 0 0 0 0];

internalField   nonuniform List<scalar> 
7807
(
2.16391
0.234637
2.63636
1.86733
-0.0123108
-0.000542381
2.59298
-0.0767728
-0.00172596
0.877665
-0.000504921
0.0334822
-0.114464
0.471296
0.909012
-0.14014
2.19905
-0.151228
0.0192773
-0.580426
0.657419
0.021908
0.363047
1.51365
-0.197129
2.19559
-0.0112256
0.574791
1.31996
0.0406454
-0.203491
3.5191
0.358346
-0.00701607
-0.00149314
0.734161
0.0442376
2.53155
-0.062986
-0.00488386
-0.0565536
-0.137099
-0.479771
0.345879
-0.00290419
-0.00116298
0.0216149
-0.063416
-0.000967386
-0.558755
0.0507115
0.546162
-0.249727
0.014447
0.730228
-0.0680088
0.0218186
-0.0773821
-0.316298
-0.0073658
0.000578701
0.0647894
0.472503
0.0369506
-0.0141579
-0.197336
-0.00140046
6.41891e-05
1.25158
-0.0585953
-0.0010747
-0.491581
-0.190163
-0.330552
-0.145352
-0.460383
2.60948
0.641447
0.766741
-0.590069
-0.109806
2.32794
0.893046
-0.340969
-0.0211685
-0.0325766
-0.0820649
-0.241971
-0.00942347
-0.064104
1.34519
0.429109
-0.00194331
0.0194565
-0.0511047
-0.334875
-0.473034
0.0415336
-0.023341
-0.0169087
-0.582864
0.820135
-0.0485565
-0.000288275
0.508665
1.39058
3.1066
-0.072153
-1.17582e-05
0.355361
1.79371
-0.232454
-2.29242e-05
0.378023
1.38531
0.00653459
-0.136255
1.15956
-0.348866
-0.334259
-0.606371
2.24509
-0.443644
0.146642
-0.591651
-0.0139619
-0.179191
0.0318831
-0.0149106
-0.199059
0.263843
0.748004
-0.00881006
-0.0111684
-0.353068
1.74492
2.60929
-0.000247501
0.11211
-0.766518
-0.31367
-0.38238
-0.460503
-0.315308
3.14069
-0.0987299
1.32934
-0.297807
-0.437766
2.2406
0.70448
0.426066
-0.0214253
1.16674
0.887345
2.41562
-0.517948
-0.113948
3.02473
-0.000873833
0.0110958
1.55906
-0.000277399
-0.0287877
-0.0577526
1.8443
1.85214
3.10482
-0.0333917
-0.0440203
7.27705e-05
-0.632174
0.00657885
0.280315
0.121994
-0.430475
0.598716
1.47118
-0.00192461
-0.00726424
1.90531
-0.000874138
-0.00161975
2.61656
0.212244
-0.229545
-0.325895
-0.306489
-0.132043
-0.751068
-0.000302222
-0.454688
1.52389
-0.0488908
0.0010882
1.68267
-0.0181575
-0.18624
-0.137297
8.12562e-05
0.0132678
1.77045
1.67178
2.39983
-0.100855
-0.186109
-0.220366
0.623302
1.73399
-0.00312784
0.000507561
2.99126
-0.121147
-0.00915594
-0.433869
-0.187602
2.25857
2.28182
-0.410719
3.37153
-0.0168724
-0.149939
-0.598492
0.753997
-0.583853
2.0027
3.02057
0.000958539
0.152835
1.21789
-0.0591456
1.14321
-0.00795925
3.29137
2.36631
-0.0818985
0.0443715
-0.00451948
1.58682
-0.00136402
-0.0856516
-0.707258
-0.00106983
-0.0198355
-0.00627285
1.39538
-0.000274904
-0.0666549
-0.569811
3.50675
0.689903
3.17648
-0.000663652
-0.161079
-0.00277107
2.48906
0.0626526
2.62793
0.0247589
0.0112349
0.161667
0.645746
0.00887756
-0.00340759
0.00788994
-0.0623416
-0.203346
-0.000620221
-0.500947
-0.0549057
-0.00210695
-0.0095516
2.56183
-0.113251
-0.0115831
3.3134
-0.0220318
2.00115
-0.0030895
0.0323719
0.000115433
-0.317215
0.724469
0.665421
-0.315658
-0.0061968
-0.526888
-0.22401
-0.00267818
0.0077843
-0.0320328
-0.109162
0.0453423
-0.0185192
-0.325338
-0.162133
-0.321599
0.410106
-0.410212
2.41892
2.47601
-0.0226029
0.597785
-0.000112612
-0.0343649
-0.341661
1.48359
0.984395
0.00150475
-0.0312571
-0.399025
1.39491
-0.0150952
0.0551798
0.0187712
0.921655
0.182328
2.41485
-0.0241635
0.261951
-0.00171827
0.0660802
-0.000780183
-0.235759
-0.00524224
0.0922403
0.54802
-0.38678
0.0521023
0.137901
-0.0111668
0.328511
-0.0922104
0.882015
1.39378
-0.24505
0.273724
-0.23195
0.0795097
-0.686423
3.16955
0.265753
0.45191
3.31392
-0.0232234
-0.0264204
0.354182
-0.0165068
-0.0706451
0.0961849
-0.041774
-0.0310408
1.27795
-0.00100885
0.00859747
0.00123838
-0.0514626
-0.101063
-0.000132546
-0.0167544
-0.302333
2.99015
0.0657427
-0.11957
2.86203
2.04164
0.767715
0.6572
-0.643017
0.0773027
1.79487
-0.161814
2.15193
-0.157653
-0.425895
1.66694
2.17888
-0.48002
0.939173
2.0115
2.04833
0.610084
-0.0460659
-0.0636181
-0.0013233
0.0926133
-0.165392
0.0147677
-0.00161854
-0.0242099
-0.53963
1.08832
-0.24499
-0.0308088
-0.057496
0.223488
-0.104658
0.0299952
1.86997
-0.0282739
-0.000326597
-0.000821355
0.000767976
-0.295861
1.2523
-0.0602879
0.407553
-0.579701
2.48879
0.0536986
0.10476
-0.0772938
2.49546
-0.0161766
2.4137
1.35357
-0.00177265
-0.176696
-0.0499108
-0.36017
0.00887749
0.810469
0.0628809
0.097582
-0.013009
1.32505
1.40014
-0.263888
-0.297365
-0.0340061
-0.161952
1.11651
3.47395
0.00893364
0.0735026
-1.61681e-05
-0.192129
-0.0342046
0.301197
-0.520035
0.511203
2.60338
1.32564
-0.1423
1.75109
2.43716
0.395721
0.0181705
1.89615
-0.0135961
-0.00280825
-0.250041
0.0013501
-0.255916
0.00979556
-0.294112
0.0291453
1.68714
-0.0267649
-0.00035899
-0.480415
0.0261215
0.669733
-0.558834
-0.740493
0.891816
1.22564
1.02762
1.05295
-0.00313883
1.05596
0.936542
-0.00811264
-0.236265
0.00942356
0.107275
-0.00268304
0.0721712
-0.0119029
1.52747
-0.000300566
0.00309167
0.0297212
-0.304817
0.30924
-0.281748
-0.363479
-0.204001
-0.554241
0.176839
1.86024
0.615572
-0.0985772
3.31973
-0.460181
-0.106895
-0.355721
-0.0748365
-0.287003
-0.147274
0.421006
0.241843
-0.000384867
0.367987
-0.00145606
2.38392
1.30135
-0.0720703
-0.198909
-0.00287419
2.32862
2.2833
0.963249
1.69108
-0.473981
2.67337
-0.000938445
0.36895
-0.254557
1.49235
3.09515
1.04618
1.26072
-0.0224143
-0.0031164
1.56415
0.340795
2.42144
0.665877
1.66417
-0.103393
2.51756
2.20104
-0.131225
-0.110984
1.41554
-0.76111
-0.00127972
-0.184432
-0.724278
-0.460348
0.168061
0.141864
-0.00193735
2.31092
-0.0124051
-0.00156132
-0.124826
-0.00752226
-0.00340935
0.0561995
1.76266
-0.444798
2.94052
0.000963949
1.76199
-0.116741
-0.00115446
0.000275912
1.31075
1.68195
-0.0595909
1.53639
0.000382723
1.60802
-0.260971
-0.136826
2.52112
-0.418865
1.61883
-0.341239
1.61098
1.68491
-0.227716
-0.28861
-0.0825868
-0.0416455
-0.00305266
-0.0150134
2.06534
-0.000404132
1.53768
-0.381671
2.18491
1.47149
-0.742976
2.88733
-0.0236302
0.110233
-0.0952982
-0.274545
-0.0938506
-0.147415
0.511125
3.23371
0.000649452
-0.0278722
-0.252191
9.53584e-05
2.42163
0.0266259
9.33249e-05
0.00298955
0.00581761
-0.228524
0.29466
-0.0224488
-0.00129148
-0.0992582
0.0462396
-0.603759
-0.684609
0.310787
-0.000328648
-0.433031
-0.179457
1.42797
2.13772
0.0184185
1.40651
0.00235965
-0.17253
0.798759
-0.0937291
1.88921
-0.17637
0.408244
0.827432
1.32045
0.075607
-0.140923
1.59954
-0.539173
2.53473
-0.126319
2.08663
-0.126085
-0.016797
1.20531
0.0605448
0.824281
0.0280493
8.14919e-05
-0.622861
1.8309
0.0210849
1.37402
-0.167076
-0.484781
0.208896
-0.292
-0.0241421
-0.118379
-0.525141
-0.36942
-0.132616
-0.00213911
2.6284
1.34808
0.408887
-0.00292051
2.1714
6.39237e-05
-0.00268507
1.3771
0.0469305
1.68636
0.567109
0.249139
0.135737
-0.43965
0.845208
0.0190827
-0.543149
-0.000265995
0.0574334
1.82643
-0.216443
-0.0401605
-0.0314046
-0.0283
-0.00587613
3.25804
-0.13375
-0.00813391
-9.06588e-05
1.1193
-0.374526
-0.00474949
-0.0396201
1.27435
0.908813
-0.477621
2.22362e-05
1.38446
-0.208331
1.61599
0.231335
0.280566
-0.391264
-0.00138389
0.807681
0.863648
0.973798
-0.322727
2.04207
0.0868309
1.59031
-0.0294205
-0.135828
-0.00570336
-0.00612619
-0.00149919
1.33236
2.02694
-0.0213902
0.276602
-0.229384
-0.219293
-0.281295
-0.0269636
0.342798
3.19728
0.855426
-0.000777009
0.882021
-0.0503511
2.77894
-0.166421
-0.13157
0.0325321
-0.150833
-0.0759139
-0.105779
-0.0408245
0.0241537
0.464428
0.00161439
-0.0377581
0.592069
2.39322
-0.457133
1.70289
0.0295359
-0.0230422
-0.110632
1.55633
-0.09955
0.00160874
-0.20203
-0.0711355
0.359764
-0.349586
-0.299733
0.408752
-0.195847
-0.0063922
-0.472483
8.33534e-05
0.57971
-0.418748
1.55206
0.0764163
0.815292
-0.393726
2.29119
0.178134
-0.403909
-0.088108
2.93174
-0.0574996
-0.174191
-0.524392
-0.14986
-0.411544
-0.180483
1.53167
-0.0398636
1.75837
0.125812
-0.00566782
-0.017606
0.788214
3.51733
0.0176163
-0.105913
1.32655
0.000329168
-0.275296
0.373843
0.299779
0.127697
-0.0235421
-0.316777
-0.0401829
0.000429057
-0.397314
1.90285
0.0924254
-0.221512
0.026917
1.32699
-0.00553414
-0.0179347
-0.00520689
-0.0111973
1.03564
0.124224
0.0578207
-0.237906
0.000652907
-0.343509
0.43944
-0.386116
-0.157178
0.211219
-0.00308868
-0.16573
-0.557546
0.911938
2.1898
-0.0179274
-0.644297
-0.0677181
0.19335
1.43006
0.00641124
-0.00230692
1.48078
0.780698
0.220816
-0.0426764
-0.0300872
-0.502478
-0.00253822
0.0548824
-0.177643
1.94963
1.92911
0.00581972
-0.392623
0.103482
0.0920372
0.664193
-0.442316
-0.0474205
-8.79133e-06
0.56138
-0.323861
-0.495066
0.111189
-0.521743
-0.00584033
-0.0429546
1.47294
-0.373458
-5.91807e-05
-0.0407123
0.0370473
-0.00241962
-0.0643876
-0.000709909
0.0657496
-0.582116
-0.0279168
-0.000298502
0.000444326
0.988501
-0.289621
2.33432
2.01867
0.474848
-0.00842361
-0.0772251
0.00320144
0.16166
-0.346594
0.73681
-0.215183
2.02763
0.140423
0.00404927
0.108263
-0.27114
0.0277705
-0.0801812
-0.537331
0.0601398
0.230791
0.609648
0.144785
-0.290656
-0.0459551
1.37314
-0.0967995
-5.65362e-06
-0.368826
-0.624317
-0.110967
0.0723759
0.0108941
0.149158
-0.535368
0.335654
-0.35765
1.31851
-0.120571
0.0951029
0.205967
0.238545
-0.362574
0.0810691
-0.00145158
1.10909
1.47767
0.0822294
1.84649
-0.34961
0.446823
-0.281795
1.43304
0.830531
3.2041
6.3282e-05
0.9234
1.34087
0.153689
-0.01643
-0.18582
0.49707
0.000617837
-0.185294
-0.343385
-0.203409
-0.224167
0.00193303
0.247922
-0.00411436
-0.00993647
1.63701
0.0773317
1.21406
0.221101
1.46269
0.136861
-0.00436352
-0.0873706
0.095767
2.26387
0.0140058
-0.370927
-0.0024563
-0.00611463
0.0939208
-0.129231
-0.000342579
-0.109683
0.308984
-0.0213486
0.000440194
-0.000507107
1.13583
0.211444
0.0759165
-0.0123015
0.095805
0.16249
0.0968822
-0.0032025
2.37117
-0.00526805
1.53838
2.13241
-0.00233169
1.14776
1.02044
-0.00857274
-0.00293976
-0.00472387
0.403261
0.22228
-0.051271
-0.136539
-0.515898
1.26572
-0.269061
0.000142113
-0.195978
-0.175106
-0.362796
-0.04599
0.0666199
0.0136194
0.283032
-0.00570053
-0.00255837
-0.172533
-0.0459438
-0.25149
-0.000171872
-0.149714
0.339283
0.216507
0.0723539
-0.08801
-0.118833
-0.0928171
-0.0554417
0.152027
-0.0959515
-0.0011449
-0.00439541
0.246805
-0.123452
-0.0525624
0.0925979
0.0430257
-0.608491
-0.112056
1.16028
-0.126757
-0.497411
-0.221721
-0.228299
-0.157464
-0.0399724
0.0248135
-0.0375115
-0.138924
-0.1628
1.46913
1.24232
0.554735
2.13311
-0.000780517
-0.0331198
-0.165607
-0.0822822
1.03535
-0.204554
0.580906
-0.043549
1.61703
-0.0206543
-0.0173045
0.259656
-0.108952
-0.0024096
-0.176934
-0.0624424
-0.210584
-0.000224134
-0.070105
0.0209258
-0.176342
0.409504
0.33776
0.190114
-0.141396
-0.317127
0.901294
-0.0135515
-0.0209042
-0.0224835
2.84758
-0.000915371
0.726688
-0.213825
-0.206284
-0.267291
-0.364139
-0.289746
-0.344812
-0.181446
-0.0486988
-0.00104784
-0.0452265
-0.216298
0.810116
0.0177638
1.49388
-0.331908
-0.133329
-0.00992582
-0.290424
-0.0011073
1.10893
-0.30431
-0.263911
-0.23992
-0.0388209
-0.31502
-0.0180874
-0.413012
0.811834
-0.260485
-0.520588
-0.0156209
-0.272773
-0.185811
0.156086
-0.0343139
1.06883
-0.0256005
-0.192107
-0.00723655
1.18304
-0.394862
-0.266718
-0.0344339
-0.0988598
-0.0292573
1.54007
0.351855
1.78365
-0.0491997
-0.0087432
-0.0134411
-0.0247021
1.63948
-0.601158
-0.0717678
0.00364925
-0.0596645
-0.0190838
-0.0095389
-0.0869472
-0.158191
0.50157
-0.0524951
0.0670446
2.72893
-0.623831
-0.292766
-0.579719
0.000372668
0.642265
-0.0375678
-0.271284
-0.0591269
-0.360576
0.0498122
-0.00572767
-0.0306868
0.033911
1.41666
-0.0618962
-0.0189486
-0.0491411
-0.490328
-0.0878153
-0.224668
0.0481016
-0.0919463
-0.094267
-0.0347736
1.44218
-0.468934
0.0332798
-0.0445374
-0.279158
-0.14426
-0.505398
-0.0149295
0.76077
0.233973
-0.0826935
-0.0183768
-0.141022
2.93461
1.42967
-0.118012
-0.00617034
-0.0253655
0.111355
-0.0420547
0.212489
-0.00440558
-0.115756
-0.020988
-0.176258
0.451281
-0.0112477
-0.0985364
-0.0143985
2.04491
-0.0673751
-0.121864
0.339453
-0.0203419
-0.30291
1.11778
2.6577
-0.112341
-0.11878
-0.0224182
-0.0049405
2.12563e-05
-4.48073e-05
-0.105858
-0.00714098
1.17439
-0.00709789
-0.0192636
0.0887303
-0.0027596
-0.449749
-0.402782
0.173182
0.368969
0.255805
0.999922
-0.163191
0.744993
0.594048
0.766113
0.945394
-0.134684
-0.00933505
-0.0580206
-0.45352
-0.0371016
-0.156088
0.872229
2.26102
-0.352247
-0.005117
-0.000301217
-0.0156201
-2.6164e-06
0.107677
-0.00591887
-0.046102
-0.485224
0.00579984
0.0275261
-0.00235017
0.708908
-0.160566
0.022849
-0.0127322
2.04647
2.09294
-0.104874
-0.305322
-0.282599
-0.247482
-0.149651
-0.019869
-0.505437
-0.193781
-0.40778
0.337889
-0.000526104
1.46825
-0.0343529
-0.101401
-0.171083
0.191102
-0.0056646
-0.0875236
-0.0144965
0.154183
-0.016043
1.44831
0.00375013
0.103551
-0.00440236
0.104147
0.0906293
-0.00800587
0.209995
0.00452043
0.747624
1.02615
0.0289226
-0.0152833
-0.00132436
-0.00612044
-0.00536313
-0.617568
0.961303
0.646026
-0.00286605
0.107152
-0.00488399
1.57121
-0.600724
1.82585
-0.433949
-0.00478424
-0.00301212
-0.0764215
-0.0591817
-0.00664842
-0.000192592
0.254594
0.284163
-0.00252497
-0.00354521
-0.202657
-0.000235277
1.23324
-0.00985478
-0.530557
-0.195479
-0.0669582
-0.555609
-0.599012
1.13006
-0.0503977
-0.207419
-0.0033655
-0.5709
-0.210247
0.549072
1.22966
2.23036
-0.0124331
-0.597877
0.159668
2.09423
0.372673
-0.00126078
-0.0631311
-0.0427912
-0.0519484
-0.481845
0.833027
0.00198082
0.252438
0.0335021
0.798339
-0.00553262
-0.00129122
0.0576226
1.9642
-0.54847
1.25329
-0.0131255
-0.00215837
-2.65564e-05
-0.325033
-0.416991
-0.00359892
1.00273
0.114988
-0.0558569
2.438
-0.00413867
-0.0386215
-0.579881
-0.0641382
-0.0240399
1.02596
-0.295306
-0.00176075
0.164991
-0.00184025
-0.00105654
1.13946
0.0877834
-0.0048113
-0.521158
-0.250234
-0.0366261
-0.0777701
0.0244478
-0.230103
0.0169167
-0.0367276
-0.644435
-0.380855
0.272741
-0.00961271
1.21811
1.46989
-0.233574
0.107016
0.19202
-0.0449208
1.23083
0.981281
-0.28519
-0.00172371
0.106545
-0.558804
0.170778
-0.272676
-0.0221812
0.507123
-0.277741
-0.00145015
-0.000763019
-0.0872237
-0.230274
-0.262845
0.103283
0.472964
-0.438196
-0.00164034
-0.0145439
-0.00221121
-0.293226
-0.000252955
-0.0203824
-0.244485
-0.454204
1.26065
-0.0313591
0.0436584
-0.212158
-0.257711
-0.0013578
-0.46549
1.28764
1.16944
0.000251922
-0.001175
1.19005
-0.0264906
-0.490759
-0.40356
0.0347707
0.00503191
-0.705531
0.115965
1.21672
-0.573675
-0.0155129
-0.074622
-0.488435
-0.00615349
-0.00257196
-0.00953436
0.280068
-0.515175
1.34426
-0.00224571
2.86019
0.510893
0.00126321
-0.0101352
0.00270882
0.0030929
-0.000152826
0.00148801
-0.534283
-0.00759094
0.00455416
-0.00211249
1.06405
-0.0595809
-0.00205627
-0.000455561
2.38529
-0.216903
0.20153
0.0117109
-0.0076903
0.61202
-0.00102524
-0.108923
-0.0104452
0.0222848
-0.0629246
-0.00100989
-0.00221521
-0.303261
-0.356139
0.0742141
-0.123879
-0.109052
-0.000295296
0.210622
0.309022
0.856322
-0.0180986
-0.00165595
-0.557728
-0.0636028
-0.00524809
-0.495051
-0.00144992
0.452319
-0.000905579
-0.0134336
0.730055
-0.0215907
-0.58844
2.7076
-0.0171256
0.00293368
-0.502016
-0.407123
0.098497
0.0488711
-0.00159197
-0.313988
-0.000876855
1.40013
3.35843
0.95122
0.0312224
0.0373055
-0.000198356
-0.275053
-0.000591336
-0.0593335
-0.0178781
0.00397307
-0.0350774
-0.0924703
-0.00129396
0.00897888
-0.0720195
-0.00329772
-0.0947136
-0.16646
0.0236037
-0.0118996
3.05954
-0.0072425
0.0249865
0.00258823
0.141223
-0.500439
0.0993314
-0.00187688
-0.00104476
0.0284061
-0.00114697
-0.000293802
-0.110693
0.00727377
-0.000255267
-0.509581
-0.022644
-0.571399
-0.0172282
-0.000705193
-0.0325791
-0.0174482
-0.146598
-0.183939
0.0234856
0.00559339
-0.00488626
-0.0207301
-0.000819681
1.86412
0.0160204
-0.00021167
0.00612898
-0.021192
-0.00374462
-0.644873
-0.552145
-0.00135037
-0.0724769
0.000144939
-0.0257331
-0.000760635
0.333406
-0.00147687
-0.00193626
-0.0347069
-0.000238775
0.137719
-0.00241403
-0.013209
0.187843
0.000130736
2.34908
-0.533852
-0.4159
-0.000261252
-0.000220467
0.0192644
-0.0124115
-0.483179
-0.000179957
-2.48401e-05
0.00767201
-2.96509e-05
0.00400482
0.00467073
-0.00477639
0.00824119
-0.529312
2.79901
-0.282093
2.20262
0.0928287
-0.158965
-0.000198998
-0.00921357
-0.124959
0.00155381
0.00301236
0.00185292
0.82639
-0.0137616
-0.00224414
2.75943
-0.00567595
0.00613677
0.00525143
-5.02617e-05
1.00638
-0.0227487
0.0117846
0.00134832
-0.00548683
-0.000708066
-0.00951546
-0.436262
-0.00434399
-0.0158758
-1.53259e-05
0.00128474
-0.0026769
1.38049
-0.00459653
-0.00283093
-0.705338
0.0389242
-0.00087858
-0.0139135
-0.000631728
1.2844
-0.7283
-0.00305684
-0.00403603
-0.0182586
-0.00159781
0.54892
0.99856
0.595455
0.00531113
-7.04418e-05
-1.2165e-05
0.622778
0.00270879
-0.614732
-0.171079
-0.157547
0.755484
3.04725
0.0200521
1.54623
-0.145368
-0.291096
1.29573
-0.0037107
-0.660935
-0.000135027
-0.0919579
-0.498561
0.000577822
-0.419664
-0.00990468
0.0367865
-0.0520641
-0.431829
-0.427393
-0.0298155
-0.576597
-0.447669
-0.00194587
-0.122742
-0.000524001
-0.376626
-0.000290461
-0.00193508
0.291625
1.2498
-1.41698e-06
-0.454905
0.0368187
0.000784183
-0.200277
6.35488e-05
-0.139298
-0.00267174
-0.388716
0.00139136
-0.000893177
-0.0208416
-0.000458987
1.2172
-0.305401
0.908679
-0.000299182
0.00656446
-0.326442
9.33617e-06
-0.574618
-0.673305
-0.566307
2.89262
-0.0662425
-0.000184887
0.2587
-0.417087
-0.024893
-0.000244335
-0.000876854
-0.480426
0.00138672
0.00919793
-7.03311e-06
0.00171621
-0.28225
1.38839
-0.240365
0.89722
-0.0546322
-1.37039e-05
0.0705025
-0.432757
-0.000213395
-0.000145518
0.00338077
0.000675472
0.00422063
1.93389
0.341602
0.000588915
0.000117434
-0.679566
1.46296
1.34471
-0.000475384
-0.363919
-0.182613
-0.0975627
-0.488235
-0.0802606
-0.0298712
1.09718
-0.000413816
-0.264795
1.27533
-0.492125
-0.000167091
-0.631134
-0.0018137
2.17176
0.292007
-0.000131877
-0.000280015
1.41213
4.12574e-05
-0.00189781
-0.118834
0.000136317
1.81971
0.0373915
-0.0747585
-0.671468
-0.0384607
-0.572095
1.36604
-0.057426
0.151313
0.010366
-0.000198268
-0.0104764
-7.15237e-05
-0.000159654
0.322041
1.35578
1.1575
-0.00452802
1.70037
-0.093009
8.28083e-05
-0.463567
-0.00017331
-0.278023
0.300708
-0.136186
0.0465763
0.0187391
-0.0946996
0.002647
-0.0171047
0.211674
-0.0294351
-0.000476892
0.000307792
-0.000624111
0.301927
0.000569657
-0.200379
1.77713
-0.0606335
0.000526902
-0.035194
-9.61872e-05
1.08337
-0.00367512
-0.000664161
-0.000870811
-0.000137175
1.5229
-0.00158028
1.75611
-0.599791
0.00121488
-0.492111
-0.00492927
1.20414
2.83431
-0.0144017
2.56223e-05
0.000169751
-0.000217567
1.21647
8.48494e-06
0.0107314
-0.241552
1.6703
7.21488e-05
0.000160577
2.98262e-05
0.000259436
-0.206242
2.01283e-05
2.08367
-0.151636
-0.00125402
0.000310505
-0.0209768
-0.294025
1.44827e-05
-0.000571351
1.27116
0.000346613
-0.319725
-0.254563
0.00141411
1.04191e-05
-0.330613
1.37203e-05
1.28775
0.000153126
-0.00452595
0.000124327
-0.00178646
0.770337
3.35911e-05
-0.0166865
8.79476e-05
0.148879
-0.0343251
-0.0648417
0.0115582
1.18374
-0.00273363
-0.000810177
-0.0896991
-0.0867489
-0.00247238
-0.000525228
-0.00903855
0.00041786
1.6082
-0.0992354
2.87747
-7.30787e-06
-0.077298
-0.0015653
1.14039
0.000587714
-0.256582
0.000245916
-0.0160624
-0.334124
-0.00236664
-0.157759
-0.495397
0.0540364
-8.35998e-05
-0.467226
-0.00341016
-0.00298195
-0.0560021
-0.0904761
0.0131147
-0.000484846
-0.00442413
-0.00909439
-0.0129618
0.000137897
-0.0122743
2.74894
0.00100868
-0.0329336
-0.349936
-0.755825
-0.641008
-0.481408
-0.216291
-0.00528596
-0.115759
0.000789041
-0.000819982
2.80272
-0.000949105
1.4741
-0.00460587
0.00424039
-0.011521
-0.215192
-0.00424137
0.00879258
-0.000152022
-0.00399149
-0.000147916
-0.000800756
-0.149876
-0.00110788
-0.000266517
-0.000837456
0.00156347
-9.87098e-05
-0.418578
1.93889
-0.000103899
-0.00613744
0.000361004
0.000318052
-0.00851286
9.82314e-05
-0.00919945
0.00301007
-0.00370892
-0.65489
-0.00704037
-0.0185157
5.22893e-05
-0.0151516
0.00348665
-0.00015592
-0.000101733
0.000142635
-0.00808101
0.00576739
-0.438807
-0.253568
-0.664405
0.00632787
-0.0176307
0.275207
-0.669532
-0.000957181
0.167291
0.0720457
-0.0106461
-0.118022
-0.573381
2.65078
-0.00431653
-0.000156261
0.00906311
0.00050736
0.000186399
0.63612
0.0391018
0.718524
-0.307046
2.55535
-0.00532417
2.17176e-05
0.00160907
-0.000184329
-0.0137915
1.26125
1.56352
-5.43256e-05
-0.0017417
-0.000169222
1.50289
0.236555
-0.0424336
0.000126332
0.000202584
0.0729517
-0.00706321
-0.702623
-0.165423
0.000251754
0.035591
-0.291896
-0.000603153
0.0181961
-0.000667614
-0.460922
-0.0177183
1.18934
0.000176665
0.0168528
0.0016909
0.000157802
0.00182088
-0.227626
0.000156293
-0.0092541
0.000234855
-0.193059
-0.460449
-0.0283693
-0.0575693
-0.086056
0.0902646
-0.086597
-0.0248871
0.000688846
0.0011243
0.000213333
0.000186912
-0.000563516
0.0936168
-0.524678
0.00519443
-0.326519
-0.0309857
-0.415489
0.000897387
-1.95256e-05
0.0132347
0.263533
0.000191042
-0.340499
-0.140529
0.888369
-0.307665
0.000274378
-0.0343524
0.00204313
-0.00315564
1.03827
0.000121922
-0.576919
-0.20979
-0.0422155
0.000391967
-8.94441e-05
0.331699
-0.163792
0.000248978
-0.0675218
-3.66567e-05
0.00226385
0.995681
-8.79104e-05
4.03328e-05
-0.000859143
0.000356843
0.00911397
0.000917284
-0.0515051
0.00246114
-0.123767
0.0112247
-0.00212125
-0.282461
-0.419609
-0.0621771
-0.000155986
0.000224325
-0.480262
0.0582149
-0.472232
0.000301358
-0.0512216
-0.000374265
0.000254636
0.712998
-0.0694479
-0.0277957
-3.87738e-06
-0.170415
0.000513264
-0.665863
0.000279874
-0.752496
0.00020267
-6.35296e-05
0.000876995
0.0103285
-0.108745
-0.178396
-0.666688
0.000168909
0.00101764
-0.773166
-0.187
-0.0836604
-4.94437e-05
0.00080099
-0.465981
-0.790757
4.19157e-05
-7.90036e-05
5.54819e-05
-0.227515
-0.632547
0.00731477
-0.10809
-0.000555521
1.87474
0.000971507
0.000154382
0.00160042
-7.80365e-05
-8.56423e-05
-0.0359941
0.00120576
-0.0255577
-0.598346
-0.127743
-0.594179
0.000418895
-0.000511989
0.550546
-0.266049
-0.0466098
0.912504
6.0827e-05
-0.000134281
-0.000124065
1.23133
0.0018353
2.47711e-05
-4.10545e-05
-0.500853
-0.151148
6.93999e-05
0.000868227
-0.0906229
-0.0631852
0.00439359
1.58289
-0.524243
0.00220867
3.38436
-0.00016863
-0.00688035
-0.0766466
-0.812549
7.02384e-05
-1.28238e-05
0.000224732
0.0490548
-0.274937
-0.00337472
-0.480273
-0.0764573
0.000288299
-4.9265e-05
-0.0996196
0.0476275
0.229957
0.0222174
-0.455745
-0.383416
0.405318
-0.252398
-0.00062793
0.00371245
0.227852
0.00556366
-0.00076858
0.0077764
0.000325216
-0.000880171
-0.117639
-0.000123528
-0.000275469
0.415896
0.0969206
-0.00160822
-0.000361419
-5.34474e-05
1.69398
-0.0648216
0.0080042
-0.265196
0.00240897
0.00208776
0.00180692
-0.000481296
0.0050659
-0.365152
0.1951
-9.52874e-05
-0.00162605
-0.389567
-0.281565
0.432839
-0.00494641
0.018243
0.174444
2.36779e-05
0.000636616
-0.387586
0.000230043
1.23565
9.99623e-05
0.0418552
0.00175747
0.00234276
-0.715065
-0.071719
-0.174214
-0.0239265
0.000273499
0.0702648
0.531897
-0.119441
-0.00134661
0.774818
1.20413
3.78282e-05
-0.515988
-0.000659419
-9.85466e-05
-0.000446022
-0.00570271
0.191342
-4.26058e-05
0.00259388
-0.23847
-0.25226
-0.215474
2.00639
0.00019439
-0.000686971
1.25983
0.00587452
-0.0374039
-0.00656678
1.23951
0.000466866
-0.00311257
0.000492063
0.00029433
0.000323131
0.000371386
0.000755945
-0.17515
9.13913e-05
-0.0324837
-0.44614
1.74261
-0.00140031
-0.000494679
0.047137
0.703247
-0.368946
-0.00753911
-0.71186
2.00993
0.000441909
2.45983
-4.61826e-05
0.0337435
0.234771
0.00455837
2.58699
-0.000117157
-6.28769e-05
0.0116881
0.000317597
-0.00864438
0.00272682
0.000123046
-0.0195184
0.000127734
-0.00146352
-0.0327676
1.66977
0.503487
0.212278
-0.439814
-5.37869e-05
-0.000172113
0.0348693
-0.454382
-9.56946e-05
-0.468547
-0.000531523
0.84042
0.53784
-0.312117
-0.0134359
-0.109255
-0.0099371
-0.144892
0.0489616
-0.0684522
0.575371
2.26432e-05
1.95357
0.58918
-0.00578994
1.53604
-0.131057
-0.000126807
0.000252836
0.00068231
-0.00211022
-0.00121732
1.67472
-0.00979753
1.70791
-0.0102796
1.23144
1.61268
1.20265
-0.0690119
-4.74614e-05
0.000697728
-0.104388
-0.447713
-0.461857
0.0149097
0.00021709
-0.381184
-0.00310906
0.000116226
0.0101916
-0.0107209
-0.00621409
0.311373
0.000767299
-0.491819
0.546756
0.000592666
0.00282301
-0.130264
-0.513198
-0.00734971
-0.00521677
0.000141434
0.00261814
1.11173
-0.160424
-0.4526
0.0130972
1.06794
-0.380414
0.000373634
0.000238001
0.408343
-0.000860495
0.947351
0.0351811
-0.133216
-0.00382642
0.0162454
-0.344112
-0.000302122
0.00515667
0.0980184
-0.750987
1.33385
-0.640349
-0.263186
-0.00163489
-0.000455856
0.0662014
0.000482314
-0.769579
-0.639169
0.00588559
0.0354278
0.0374437
-0.510114
0.00668653
0.00201834
0.000403705
-0.400365
0.000296708
0.00583595
0.95859
1.31728
-0.483798
0.437291
0.442407
0.366778
-0.00156402
0.132838
0.00127275
8.99379e-05
-0.000706034
-7.83731e-06
0.000277384
-0.00358314
-0.0752487
-0.199989
-0.0962314
-0.262098
0.485435
0.403532
0.0409287
-0.607172
0.00170492
0.0486452
0.114574
-0.00388832
0.691241
-0.0114991
-0.105743
0.12468
0.0543909
0.0117893
-0.0399352
0.428697
0.00834327
-0.194929
-0.160774
2.96052
-0.236601
0.726955
0.46367
-0.330563
0.0216092
0.00110167
-0.0258609
0.000611999
-0.0262737
-0.245774
-0.000688486
-0.000428408
2.01649
-0.0326889
-0.419305
-0.186579
0.00208054
-0.0126774
-0.000226656
8.44407e-05
0.394648
0.000414927
-0.0293221
0.706125
0.0649673
0.0112524
0.18689
-0.0570065
0.042321
-0.343273
0.00880824
-0.0440061
-0.557682
-0.00853612
-0.0800417
0.00763436
0.015323
0.00994009
0.391253
-0.00312632
0.0569184
-0.553746
-0.201595
0.00321172
-0.554732
-0.148303
-0.171113
0.00109708
0.0657875
-0.584743
-0.00844224
-0.0476962
-0.516925
0.00790151
-0.0117047
1.60621
-0.185492
-0.000424358
0.0812422
-0.467053
-0.0105409
1.40866
-0.0198556
0.0102179
0.511821
-0.0143614
0.0848041
0.994391
0.000679127
0.0117178
0.00186356
0.000413096
-0.0442934
-0.0655273
-0.00127917
-0.240127
0.851721
-0.378206
-0.606891
0.0116981
-0.0325039
-0.00596625
-0.198508
0.000302927
0.188041
0.000505322
-0.157084
-0.01952
-0.049047
0.704709
1.0289
-0.632403
-0.000521955
1.54627
-0.0188588
-0.0223267
-0.612926
-0.645812
-0.152686
-0.000298961
-0.0106484
0.0721768
-0.0307082
-0.0469417
0.00442608
0.753492
-0.385587
-0.110127
-0.0663964
0.297285
-0.01354
-0.00191332
0.0169075
-0.000255244
-0.0308392
0.997091
0.00800599
-0.377309
-0.000555399
-0.0730653
-0.0319588
-0.663373
-0.112923
-0.690009
-0.000633534
-0.000612097
-0.0258384
0.108204
0.0191315
-0.675518
0.812845
-0.476752
0.00196874
-0.659389
0.000134803
-0.623403
-0.251914
-0.417069
-0.316477
-0.182947
0.128686
0.63805
0.808014
0.962081
1.12198
1.27516
1.69419
1.8209
1.94672
2.15763
-0.0800195
-0.0718878
0.680901
-0.136345
0.0090956
0.210339
-0.401604
0.0053063
-0.00629667
-3.10164e-05
-0.137915
0.173744
0.000456925
-0.00307148
-0.103701
-0.0051562
-0.511435
-0.0955914
-0.556577
-5.05375e-06
0.00582037
-0.000534134
-0.371415
-0.0849578
-0.352536
-0.0757738
0.0172253
0.00231969
0.0470457
-0.000328483
0.00830011
-0.000117927
0.00387661
-0.0406562
-0.112961
-0.00232757
0.00339377
0.43606
-0.100286
0.656307
-0.578686
-0.056832
1.55967
-0.185237
0.0376513
-0.21096
-0.0321526
-0.122645
-0.115617
2.14789
-0.011915
0.000731353
-0.0568698
-0.085223
3.25135e-05
0.680628
-0.0384835
2.05035
0.463697
-0.458898
-0.264504
0.502635
-0.0435879
-0.000485562
-7.73126e-05
-0.0411869
-0.475142
0.000598048
2.32086
-0.0274586
-0.0480056
-0.000791147
-0.00378112
-0.0566534
1.42051
0.190224
0.965618
0.0066596
-0.140256
-6.63748e-05
0.258535
-0.0714223
0.188185
-0.016043
-0.0534966
-0.00635885
0.0129565
0.119363
-0.000123063
-0.0881691
0.00550195
-0.00390293
0.00476301
-0.0295889
0.00225675
1.12067
-0.103847
0.038868
-0.15452
0.611774
-0.254193
-0.106622
0.452875
-0.180513
1.32431
0.180101
-0.0336553
-0.500009
-0.00658957
-0.000473605
0.00453714
0.000939654
-0.0206561
0.0441407
0.00091569
-0.126664
0.210432
-0.030526
0.000445018
-0.0326349
-0.420045
1.14459
-0.315248
-0.454938
0.0806161
0.754152
-0.0124212
0.810336
-0.114949
0.0521405
0.339701
-0.561724
0.886538
-0.000521115
-0.283631
0.0115597
-0.0149566
-9.88851e-05
-0.0589742
0.933654
0.00879562
1.64664
-0.204031
0.342028
-0.154948
0.00135853
-0.0138214
0.585345
-0.215739
1.67402
0.377206
0.233869
1.28258
-0.410553
-0.0420837
-0.630663
0.00758731
-0.334512
1.18232
-0.0283244
2.27164
-0.0130224
0.755166
0.00103113
0.819915
1.12309
0.0405017
-0.193916
-0.00368417
-5.89682e-05
0.0522664
0.0215362
-0.385627
-0.351239
-0.0553779
-0.400749
1.2241
0.503205
-0.31459
-0.148721
5.99784e-05
0.0418248
1.94653
0.0457924
1.23361
-0.572235
0.0527948
0.000876483
0.00388532
-0.198246
-0.0111183
-0.0254135
-0.300902
-0.00609961
0.0350566
-0.279901
-0.382968
1.79594
-3.26556e-05
-0.172548
0.00187716
-0.248621
-0.00348787
-0.537537
0.98179
-0.318415
-0.225177
-0.0139273
-0.146887
-0.00651679
-0.0507496
0.690227
-0.257311
-0.000181822
-0.065468
-0.0363313
-0.0035662
-0.0230037
0.120271
-0.103363
-0.331418
-0.000386419
1.15355
-0.242517
0.0691838
-0.00363866
-0.0765921
-0.00361117
0.06214
0.00296567
-0.230432
-0.00100181
-0.367504
0.0282302
0.000195984
-0.100454
0.0030877
-0.0898331
0.0135753
1.25881
0.0120825
-0.0917782
-0.0875091
0.039471
0.979913
-0.141547
-0.0303446
-0.143829
0.00332056
0.955619
0.437792
0.0127514
0.00121908
0.480537
-0.428977
0.0268187
-0.253471
0.0182058
0.00374756
0.357575
-0.26833
-0.12632
-0.10853
2.34012
0.254481
0.101833
0.308957
-0.00427501
0.00026421
0.0182765
0.0316251
1.28726
-0.0331879
0.208219
0.00104247
2.78031
2.66066
-0.0147055
1.4237
3.28692
-0.283342
0.000185831
1.20105
1.09326
-0.0361192
-0.226059
0.00178789
6.7625e-05
1.09456
0.467755
-2.199e-05