/*--------------------------------*- C++ -*----------------------------------*\
  =========                 |
  \\      /  F ield         | OpenFOAM: The Open Source CFD Toolbox
   \\    /   O peration     | Website:  https://openfoam.org
    \\  /    A nd           | Version:  7
     \\/     M anipulation  |
\*---------------------------------------------------------------------------*/
FoamFile
{
    version     2.0;
    format      ascii;
    class       surfaceScalarField;
    location    "6.5";
    object      phi;
}
// * * * * * * * * * * * * * * * * * * * * * * * * * * * * * * * * * * * * * //

dimensions      [0 3 -1 0 0 0 0];

internalField   nonuniform List<scalar> 
11512
(
153.672
-500.272
346.6
-749.274
-7.64449
756.919
406.494
-375.48
-31.0145
623.999
277.484
-901.484
1510.97
-1069.45
-441.521
1216.29
-1527.13
310.842
-67.382
479.218
-411.836
168.793
-842.433
673.64
962.106
-1610.82
648.715
-1756.86
1664.23
92.6301
-542.947
1759.23
-1140.36
1934.25
-793.889
608.268
181.217
-789.485
-24.275
-1311.79
1336.07
219.893
-1976.75
1024.29
-382.314
-641.978
-171.337
325.009
485.756
190.705
-676.46
1155.98
-1313.36
157.373
-310.376
379.104
-68.7277
999.909
-1309.29
309.379
1221.54
799.186
-2020.72
71.6846
-1636.68
1564.99
-463.457
-1177.5
1640.95
476.804
182.094
-658.898
-196.43
-303.842
498.141
1012.83
1643.56
-1800.13
156.567
-84.8994
-1693.86
1778.75
-1559.1
650.985
908.115
-307.519
654.06
-346.541
-194.868
-144.41
339.278
1281.7
-1210.02
355.202
-1407.43
1052.23
-1754.32
1754.32
100.658
1527.07
-1627.72
-1078.22
-480.88
638.008
-705.39
-384.137
941.747
-557.61
1331.92
-1317.3
-14.6157
-1100.58
716.443
627.601
396.692
-387.087
-41.3848
428.472
-437.199
761.41
-324.212
-1618.48
1618.48
1253.58
-1437.89
184.307
-488.539
1710.08
1255.88
-314.134
1660.75
-1161.25
-499.495
80.0631
-390.439
2064.97
-1134.7
-930.276
1808.74
-165.177
455.778
156.237
-612.015
-454.733
970.243
-515.51
-1166.7
1267.36
-568.473
971.094
-402.621
401.88
754.105
661.486
-492.693
-438.483
595.565
-157.082
1190.69
-835.486
2308.19
-1080.66
-1227.53
1163.47
-2008.22
844.752
-1598.2
1573.93
440.734
-1581.1
-759.117
1250.75
-491.629
-673.239
365.719
1661.47
-699.362
-1106.93
-870.894
1977.82
667.302
-356.864
-310.438
689.847
566.033
-258.206
1511.79
114.422
-319.686
205.264
-284.961
761.765
-335.067
565.632
-230.565
-324.648
810.404
-319.288
-148.437
467.725
327.094
79.4002
1452.6
-452.694
-969.79
479.248
490.542
278.232
91.4257
-369.658
949.755
-341.487
-1700.58
657.205
1043.37
16.0581
-850.138
834.08
-280.846
596.104
-315.258
156.949
-1093.8
936.849
1051.6
-1067.17
15.5635
373.076
518.906
-891.982
-245.584
701.362
-1103.8
-482.12
1585.92
-678.224
951.113
-272.889
1359.49
-1444.39
-621.796
273.435
348.362
-470.191
-1011.56
1481.75
-539.489
-793.134
1332.62
576.31
-996.499
420.19
-265.454
-317.043
582.497
408.491
-294.069
-1036.86
582.122
955.421
-798.472
-110.323
943.998
-833.676
-209.509
418.56
-209.051
-621.975
-347.815
-386.742
963.051
1856.37
-1856.37
-459.559
-162.237
-954.069
1553.18
-599.115
486.802
-923.588
436.786
-923.929
355.456
-941.91
-1058.08
-1487.67
346.899
1140.77
-285.564
909.563
-307.559
614.003
-306.444
-1941.9
999.993
-1136
-351.673
544.746
-1498.81
1728.51
-1725.62
-2.89555
212.399
-600.153
387.755
-1454.04
973.957
480.085
288.613
214.079
-502.692
310.174
-645.241
241.663
-418.009
176.346
2015.1
-859.35
-1155.75
-546.431
159.344
618.223
833.71
-1451.93
-184.565
426.228
431.23
876.892
-1308.12
-908.612
393.816
514.796
-1045.61
1447.49
-1068.75
309.63
752.632
-98.5721
538.298
-281.448
-256.85
996.038
-516.79
593.332
-1403.91
810.576
-1342.34
238.533
-547.174
266.328
-1181.59
896.023
1943.26
-992.329
-950.929
276.802
1579.57
-2093.49
894.318
1199.17
364.715
-31.8267
-332.888
-224.027
482.624
-258.598
-111.818
-379.374
491.193
-467.434
148.145
341.606
-129.778
616.58
412.85
387.184
-800.034
-2036.07
1110.37
925.704
461.866
-532.802
70.9364
221.914
-363.699
141.785
1020.21
994.882
1779.01
-251.944
711.015
-437.581
796.957
-1389.91
592.956
338.164
329.139
1047.89
-1031.83
-505.886
-224.196
730.083
478.552
-135.923
-342.63
797.556
-616.339
568.238
-733.473
165.235
503.33
1157.42
-1240.19
700.702
1048.46
-1511.92
-3.13277
-1439.43
1442.56
325.364
824.931
-1150.29
623.284
269.957
-893.24
-2271.42
1139.2
1132.22
-1111.9
-1159.52
203.868
364.37
958.737
-633.373
879.169
-898.903
19.7337
-2099.38
992.454
-224.883
-189.746
414.63
-41.7715
1770.28
-823.743
74.4686
-1027.4
-1066.09
-229.819
451.732
-657.105
197.546
-259.451
-426.259
685.71
1104.03
-1574.22
783.031
-1374.49
591.456
694.982
-417.498
1947.87
-1444.54
-378.288
-1376.03
80.6771
398.541
-529.075
521.43
8.93162
-566.398
557.467
571.561
-282.948
-605.041
279.717
325.324
780.988
-368.138
34.2548
330.46
1188.47
-1191.61
178.102
230.389
393.831
-653.282
619.709
-1006.45
-2026.72
2026.72
-246.467
-450.041
696.508
699.231
405.874
-1105.11
579.966
172.667
399.132
381.855
-2199.75
1328.86
-926.707
-678.857
1605.56
-493.13
-688.457
-264.464
546.2
-281.736
826.981
-186.007
-640.974
-431.199
643.598
373.273
-680.833
-348.7
-135.82
484.52
-1325.1
-475.027
617.034
-1110.16
-374.153
-1244.33
844.33
1463.86
301.724
-926.08
624.356
967.009
-339.409
1391.43
-798.1
446.273
-268.171
-328.646
-871.821
560.911
310.911
-321.095
-550.727
308.749
-420.568
-210.343
-154.44
364.783
-392.757
1091.99
435.197
-244.492
-394.074
1347.06
-168.935
-1178.12
-469.061
273.573
195.488
233.199
242.371
-475.57
21.8212
-755.294
592.095
-1729.01
1136.91
1482.11
-863.884
-1049.81
-404.234
-1057.43
573.518
483.913
1373.59
-399.63
929.349
-1411.47
-163.879
-203.85
367.729
-469.357
581.367
-1626.97
427.947
903.971
269.996
301.401
-571.397
568.065
1186.25
1104.52
-715.175
-389.341
405.656
-217.557
-188.099
-1419.46
445.104
738.425
-1183.53
1473.4
-544.054
-493.067
922.186
-429.119
426.146
1186.16
-1612.3
47.3541
-725.578
-146.552
424.784
211.184
-406.052
525.32
470.717
-620.602
58.2479
562.354
1024.53
-1307.67
283.132
663.889
-264.756
468.266
-1447.25
978.982
413.812
1686.28
-522.809
905.559
1037.7
-662.372
-1684.57
757.865
566.181
393.173
-959.354
453.909
78.8212
1749.92
-1828.74
1443.74
-379.492
-1064.25
1699.1
-1740.87
-367.584
-515.949
720.101
-204.152
-502.592
183.828
294.724
-373.215
-1225.99
214.432
-764.61
-639.298
-658.855
1002.08
-343.225
-653.274
643.267
10.0075
655.031
-923.681
268.651
-736.445
366.804
369.641
-648.693
-684.022
355.369
328.654
-932.319
1400.58
-413.125
884.975
-471.85
-2205.31
5.55765
181.116
-537.78
356.664
141.697
1205.36
-94.872
-562.233
159.481
-597.964
1487.2
-704.165
377.638
-466.913
89.2753
-565.171
565.171
1223.04
395.44
1777.92
-1228.96
589.276
639.687
849.696
-52.1402
1291.55
773.427
-540.107
1337.06
294.868
301.237
279.406
-795.355
237.316
-674.515
230.926
-444.392
213.466
-231.603
576.667
-345.065
128.85
-360.453
-591.926
-564.592
1156.52
-364.026
525.816
-161.79
-1192.16
2032.04
-839.885
1289.98
-331.246
-401.774
136.32
-1982.3
804.805
1523.71
-845.537
-678.174
1986.96
-877.433
-1109.53
713.677
576.306
-241.026
471.952
-677.066
1134.35
-457.283
-770.103
1201.33
551.582
924.673
-1725.01
800.342
-539.473
-70.9406
610.413
290.808
247.49
414.104
-105.2
-308.904
896.802
-83.4729
-813.329
908.502
-552.577
-355.925
1576.2
-472.171
888.537
-1626.19
737.658
1068.48
879.391
750.229
-443.978
-306.251
-1059.01
-258.289
558.717
580.745
-1139.46
-451.434
496.48
-45.0463
578.378
-345.411
-232.967
-983.191
570.066
596.389
885.718
-441.829
1096.86
1408.47
-773.216
-635.255
397.567
-926.022
528.455
-1013.12
391.145
542.734
-1035.8
449.049
-513.945
64.8962
466.257
295.154
-516.424
-48.7465
-794.544
-877.752
1672.3
193.454
212.201
-220.728
424.596
-32.1339
-543.188
575.322
489.923
867.144
-1357.07
-524.414
314.071
985.764
-88.9617
836.332
-1064.91
228.58
386.804
846.368
-1386.48
-445.086
832.27
1977.32
-1283.64
-693.68
270.017
609.152
255.873
795.731
77.6275
-959.757
882.129
1673.74
-1089.05
-584.693
-137.876
1887.8
-1866.06
-160.656
483.418
-621.601
138.184
-1014.63
526.702
487.926
-1730.47
538.318
-955.835
845.513
392.78
202.785
585.421
-283.697
-424.475
711.538
255.471
73.7375
713.331
-787.069
-1140.65
-888.097
2028.75
-535.463
1093.61
-558.151
-458.898
-333.101
108.217
-1654.44
859.898
-874.08
-589.137
1463.22
-331.445
-295.213
626.658
363.789
-644.331
280.542
238.081
-606.219
309.417
210.784
-520.201
336.282
-600.745
616.477
-252.688
315.828
-464.264
673.572
405.261
-172.062
-378.11
-305.912
1217.05
-3.30986
-1213.74
1039.84
-420.134
560.343
410.751
-1782.36
869.825
912.54
494.322
545.39
-1039.71
-535.1
203.656
-262.836
1180.79
-917.956
-1590.88
1212.59
504.668
-1096.59
388.758
-11.1197
425.44
296.937
-722.377
372.548
-618.132
-31.189
755.96
-724.771
-525.948
795.905
379.427
322.396
527.3
654.354
82.7689
-393.418
310.649
1058.87
-645.152
-413.717
494.015
-1664.27
1170.26
-1140.42
1753.24
-612.82
1715.82
-1123.73
-335.095
614.812
-1183.09
1260.72
425.165
-797.274
1599.68
-802.41
-249.255
-219.806
-891.397
1469.9
1812.21
-611.348
-1200.86
-405.023
643.57
-1302.43
-124.749
-38.9814
453.086
-676.581
-354.175
-1236.71
-223.974
462.055
903.607
-562.505
183.13
-1674.57
-71.2119
1745.78
-1057.41
521.943
570.249
-1182.04
611.789
901.195
911.011
630.746
620
678.027
244.159
-1128.7
451.638
-403.896
412.828
621.346
-515.286
249.135
-734.914
485.78
680.065
-341.902
-329.237
184.827
-593.145
228.613
364.531
-888.126
-738.068
1087.67
-2145.75
399.378
-684.338
-342.938
-724.23
833.704
574.766
-349.181
307.797
363.578
209.3
657.507
-866.807
528.964
605.385
-526.226
177.526
362.394
-608.861
-1049.07
-844.255
1893.33
-1793.75
157.071
1107.19
-1370.03
1156.23
-730.213
-426.019
-503.604
1349.97
-1495.53
627.885
867.649
-286.863
-210.421
497.285
1428.4
558.558
329.668
-465.489
-485.654
-565.841
1051.5
-419.17
600.286
1582.35
-1129.1
-453.245
-768.499
318.458
654.857
404.012
-1623.42
416.162
1207.26
-199.311
508.728
797.884
784.464
195.487
-676.875
481.388
206.608
211.952
-290.557
-110.077
400.634
475.016
3.57382
-478.59
-1632.45
582.643
-1603.58
1668.16
-64.5838
9.74799
-1613.33
1069.59
752.803
-327.363
-803.185
-209.935
-1134.58
-239.903
-312.368
684.916
-1812.45
-626.377
1207.12
210.379
759.864
-1329.78
-678.442
-465.446
600.751
-330.755
-1013.28
1350.77
-1932.86
582.089
646.145
1288.11
485.484
-2.8591
717.967
701.641
-1419.61
-640.48
337.525
302.954
440.046
-100.357
-339.688
153.703
289.577
167.606
-457.183
-579.679
1145.86
467.775
-613.224
-461.886
-401.972
863.858
-334.648
170.769
-460.301
166.233
-305.345
-709.283
547.608
-107.563
-570.645
968.212
578.225
-269.558
-308.668
455.855
-780.503
-646.077
434.123
-1129.41
-833.833
1180.73
-569.771
458.21
271.873
-445.222
88.3583
1029.1
-316.134
592.895
-276.761
-509.043
1578.63
-680.362
230.263
379.198
-609.461
213.331
473.398
-20.4135
-452.985
-256.039
-204.262
1007.67
1108.93
564.809
-868.585
937.836
-69.251
-455.538
168.674
-723.791
297.532
-598.781
320.455
359.61
817.632
-1228.88
411.247
777.876
-809.065
-948.952
-550.382
1499.33
-156.733
458.134
-532.293
250.845
1300.78
766.479
-570.992
1308.3
-691.267
487.87
-682.097
-414.069
-423.523
-378.764
802.286
502.879
-844.366
-443.51
84.6408
358.869
-322.384
572.418
729.533
-330.155
-243.406
-176.186
419.592
-493.183
145.321
347.862
1457.55
80.5118
-1538.06
-750.259
1346.65
-1144.76
-466.059
537.905
-158.707
1150.49
-372.613
1083.5
492.706
695.137
-415.732
-885.08
-522.351
-1328.44
-27.4735
985.23
-957.757
597.649
321.261
-918.91
-322.589
-223.842
-681.557
405.521
1621.2
-170.85
366.1
351.373
-717.473
-1839.78
-2106.68
1519.14
587.541
-2038.56
344.706
354.475
537.727
-892.202
-460.317
1020.66
-387.052
-674.146
1061.2
-2030.53
1391.21
639.323
600.534
-987.586
50.1359
398.913
386.881
198.881
247.392
316.665
955.01
858.988
680.675
-325.935
-354.74
-293.933
622.348
-328.415
574.029
530.486
565.389
514.906
-1080.29
-796.22
-699.313
752.904
397.584
-419.275
699.817
-1193.42
1609.58
412.296
-1086.44
-325.375
536.158
-1384.52
866.487
518.029
-716.407
-353.483
-790.099
364.497
425.602
447.086
718.358
-1165.44
1070.12
-575.793
-399.436
657.935
-258.499
253.753
324.473
-468.348
-432.225
900.573
-240.119
554.363
-946.988
392.626
-466.166
600.599
-1681.26
423.782
671.07
-1094.85
523.463
90.5398
113.407
-2212.79
536.935
-78.7253
1444.03
1777.09
-217.553
-1559.54
-438.431
1789.2
-1986.96
1194.47
792.488
403.798
346.431
-34.0967
867.801
-1283.42
718.826
-870.32
-823.417
795.943
310.962
56.2376
-367.2
227.943
182.324
-410.267
1551.34
-833.37
-1530.94
-325.432
473.781
-199.694
-274.087
394.895
366.87
240.169
360.581
-8.87211
1001.61
-992.738
376.593
271.579
-648.173
-734.051
1817.3
-1083.25
-343.074
737.968
-1215.64
-412.089
-915.955
483.731
566.563
-777.416
210.853
762.228
-380.78
-381.448
-423.688
-444.897
448.591
1071.7
1237.16
-666.911
801.63
-345.775
387.509
308.998
-251.653
-215.261
-200.677
614.488
408.206
-848.238
440.031
208.465
356.598
-565.062
-422.866
831.072
754.591
-1147.35
881.659
-64.0269
-491.465
274.812
773.081
-95.7487
1383.85
1890.5
-69.3573
342.93
-320.498
403.267
-1085.92
1077.05
616.762
376.636
385.591
62.5997
411.182
265.435
491.484
-372.121
-268.359
-563.686
-89.5879
-359.578
368.659
-9.08068
-258.453
-288.72
1011.05
-1540.72
529.673
-197.864
-177.616
-386.356
657.935
-1631.11
1591.04
-963.16
252.788
-666.857
584.315
1224.42
-1808.74
607.415
983.63
299.354
-1120.41
695.938
-289.019
-282.378
1373.62
-1444.24
824.289
619.947
413.326
-621.033
207.708
-361.079
475.421
-114.342
369.573
105.443
1723.86
460.066
-253.457
557.627
-1704.79
1147.17
-92.9901
395.713
343.406
337.269
-448.577
-615.749
1064.33
420.053
-865.139
-641.129
902.973
570.431
-494.578
-241.867
-439.055
-409.182
-307.274
-827.311
1821.11
-1821.11
-105.309
-1587.84
1693.15
294.061
284.317
-917.268
-555.35
1472.62
-408.242
973.63
-590.848
-1041.6
683.796
387.048
-1070.84
477.885
-162.057
573.062
1220.35
-1793.41
-1046.87
2116.23
-1069.36
-375.252
-297.987
-491.531
809.989
-1750.29
1600.05
150.242
1750.29
-1603.69
-146.602
-245.681
525.023
-279.342
-537.286
1620.78
1561.41
-1973.5
1074.94
-288.14
-249.539
537.679
240.858
-566.233
-696.393
277.118
1341.35
635.974
579.302
484.684
-1063.99
281.697
413.44
875.423
500.115
-1375.54
532.733
-1018.39
1574.96
-563.916
-777.241
-367.791
-114.735
482.527
-490.02
1208.38
-742.595
333.279
368.083
360.122
255.909
-616.03
600.98
831.959
-603.38
265.751
672.085
-494.578
-322.91
-226.199
549.109
1168.55
-670.358
610.494
465.721
-1076.22
-1286.35
1286.35
-386.459
763.095
-285.519
-476.12
761.64
486.448
447.661
-934.109
389.727
-675.247
612.162
-869.491
257.329
-367.441
-495.156
1074.46
-661.947
-709.808
1371.75
-375.512
929.875
-1552.7
675.27
35.4955
-407.286
371.791
-503.186
700.732
247.201
329.466
170.16
307.725
-513.764
224.745
1869.48
-1965.23
268.748
-699.947
447.906
-822.643
374.737
-919.491
1410.84
-491.349
-429.988
-485.967
600.723
1124.2
-1724.92
-716.28
341.028
-460.758
1034.79
-774.59
1040.34
-378.913
-629.028
-481.153
718.468
540.375
-358.281
906.501
-303.492
-189.691
1599.02
-1816.57
-345.281
-601.707
-335.106
480.428
254.341
-585.096
-179.819
1059.51
-784.698
213.57
-283.083
-285.217
568.3
395.163
-876.952
481.788
-486.707
-448.661
-926.08
-339.45
567.255
-227.805
-448.565
-422.081
-325.739
-194.462
-384.42
640.329
-448.366
757.364
-1072.89
624.315
-1410.24
536.161
-27.804
-1834.95
1862.76
569.928
-449.627
1209.72
-687.779
311.369
-311.369
670.676
-435.776
1042.58
-1633.43
-1158.73
-947.95
292.65
329.699
884.09
715.595
-489.734
-302.482
792.216
1657.14
-1684.94
-434.492
348.687
222.874
1135.28
-524.79
-943.334
1550.48
-607.143
445.9
-247.02
383.511
374.945
-758.456
528.949
473.601
-1002.55
-332.043
665.322
-37.8814
1907.36
1587.32
992.854
-1697.02
727.126
-1177.14
450.013
-492.472
1367.89
837.787
-1341.39
-550.216
262.075
796.073
-402.9
553.519
-1188.6
635.079
-638.303
-1215.54
-695.653
1911.19
-200.937
544.878
-343.941
-168.715
292.055
-492.992
328.013
372.171
-700.183
-1482.15
757.635
724.511
884.087
-1434.47
825.757
-431.941
218.428
-364.981
-582.53
259.621
-638.987
-745.53
698.877
506.112
-1204.99
392.984
-205.538
-187.446
556.146
-958.767
-564.191
-427.285
724.817
-831.286
-1155.68
-1437.97
499.646
938.325
14.6244
-626.75
333.598
293.152
-1312.23
1046.23
266
-616.695
-456.196
-665.896
921.77
402.615
-202.753
-199.862
508.205
980.664
-1488.87
976.609
-562.908
166.697
396.211
-393.905
670.725
-401.977
-509.359
174.253
234.428
-1518.07
531.825
538.291
-743.042
239.857
156.063
-459.556
371.296
-819.957
1954.16
-1195.39
-758.77
411.364
-665.797
254.434
323.899
324.889
123.065
-447.953
-566.111
194.096
265.969
-691.727
1374.36
-682.637
424.095
457.725
-1174.13
266.57
1866.78
-1013.59
-853.187
784.923
-522.067
182.617
1402.38
-975.189
-427.188
336.166
-771.943
-616.511
1725.44
612.538
624.622
323.149
-12.1869
271.289
-1138.43
1725.72
-587.288
-1763.53
820.192
1753.61
-1684.68
-68.9298
-660.175
256.279
563.833
-705.871
224.719
1402.76
-564.976
391.483
440.787
-1858.57
1420.14
540.42
-422.526
-117.894
211.317
-537.056
-280.028
-178.869
-352.873
696.278
-574.485
206.694
607.637
552.744
-1160.38
1113.64
-1947.45
833.817
163.134
321.386
-1698.96
1661.08
317.703
-733.435
-166.116
384.544
752.803
680.187
-1432.99
1073.95
-1077.26
527.871
-1103.66
-631.243
253.325
377.918
517.829
-289.216
-599.546
-1033.88
297.759
-719.84
-912.319
183.799
164.18
228.805
385.015
296.015
-681.03
-628.519
-834.009
-978.44
492.363
-1058.47
-284.886
480.374
535.519
645.213
-279.618
-122.156
-411.211
710.565
273.515
-1198.74
570.224
1307.82
-555.017
445.092
-1009.28
-387.181
156.241
384.179
1023.37
551.591
-1714.48
1609.17
1627.69
-558.772
-1068.92
1903.13
-1891.57
-11.5656
200.851
-521.349
-340.442
554.012
-763.962
-319.311
-340.864
1028.15
697.998
-1499.55
801.549
341.627
-26.1902
1625.21
-1078.21
407.851
-1233.19
455.954
-60.1557
1517.7
1197.45
-470.323
-488.644
-74.2639
-263.151
736.021
-1951.56
-710.935
350.558
-535.619
185.061
191.379
-507.513
1139.91
671.559
-1811.47
-599.207
176.681
942.033
-1497.38
-210.504
678.896
-468.392
883.341
1116.66
-736.815
1349.35
597.57
-480.52
-117.05
-347.782
1172.07
1039.8
-1981.4
941.601
-1171.58
545.2
1488.82
-585.849
-374.323
-151.902
-1241.14
574.224
1161.12
-117.751
946.101
775.543
-1721.64
-211.946
578.502
-1541.76
963.256
486.994
916.66
-1403.65
618.532
588.59
385.099
-1106.64
591.126
1106.68
1215.87
-452.338
-763.531
-1186.2
-1754.94
-7.93843
-1706.54
-204.562
-416.472
1606.99
-627.855
-979.131
-490.863
1121.61
-1317.43
636.903
680.524
-1361.35
1441.86
-1330.02
593.2
1520.54
-388.284
-562.931
188.607
-1478.26
238.367
176.385
221.077
376.493
437.251
394.026
-831.277
506.351
-939.042
900.823
-1444.88
-690.667
232.723
457.944
-1041.04
461.365
-472.56
864.042
697.04
29.1795
-521.053
177.112
-886.566
-1318.74
-716.044
350.034
366.01
404.515
-724.011
319.496
-479.271
-189.381
-709.522
718.86
1539.62
-593.517
813.043
738.294
1344.8
-844.69
-971.325
-570.433
-797.828
428.311
369.517
-1036.83
-643.334
304.389
338.945
-1433.69
-296.781
-791.206
398.355
392.851
-645.05
396.483
248.567
-673.496
271.519
412.836
487.737
390.015
441.057
479.146
384.712
596.752
-969.968
675.824
470.036
453.696
356.57
-810.266
1630.76
-1079.9
-550.869
-504.529
-283.846
-1028.38
454.351
347.935
409.699
594.239
-1003.94
-1380.42
752.568
-534.334
1146.12
355.423
-65.8458
412.351
-865.937
453.586
-1894.05
306.212
441.549
-726.601
285.051
-187.685
405.907
-218.221
-663.164
308.334
354.831
-675.003
320.264
371.116
391.979
612.837
-1021.08
753.437
661.587
-1415.02
438.812
625.513
339.72
393.006
-732.726
409.387
328.581
603.915
671.459
400.239
591.007
-1016.79
425.781
-1669.14
1197.65
471.493
1696.59
-539.175
621.209
-1147.54
526.33
-643.092
347.879
437.439
-935.531
498.091
744.88
-447.943
351.354
344.925
565.482
-910.763
651.356
-1253.45
602.097
367.457
734.822
-1224.84
769.625
509.573
-1279.2
480.878
407.36
-888.238
-501.658
-936.312
-302.942
630.954
352.651
541.956
-894.607
332.985
332.338
-502.181
1944.74
437.139
-847.333
410.194
-917.856
-807.159
-749.311
367.863
-1213.09
438.502
-1731
1603.69
127.308
1745.1
-1600.05
-145.048
-784.83
-593.85
266.058
327.792
-1753.61
1973.5
538.497
791.647
-1330.14
440.115
716.403
690.361
385.639
-1076
-76.7681
1617.15
-593.781
383.164
826.557
-649.899
326.56
323.338
-378.775
-297.863
551.615
-222.509
436.588
280.829
-666.93
386.101
264.938
-580.196
-283.032
442.591
-1033.73
591.134
538.046
1092.72
366.068
596.983
311.703
352.45
-664.153
1619.03
-921.031
1691.87
-1520.49
-171.376
-328.912
-823.838
414.656
857.528
-1068.03
-607.98
279.564
-1090.6
1628.64
-1581.15
-79.8207
1660.97
-341.922
-350.684
-370.614
537.01
598.275
-503.97
-28.8322
-549.961
507.482
-284.341
-223.141
1743.96
-1295.37
-625.856
299.358
326.498
404.952
357.289
734.699
-296.157
-399.277
-1745.1
1684.94
459.581
-1101.13
641.548
-43.7543
1652.92
571.331
476.432
-1047.76
104.25
1144.89
-1452.16
-16.432
-1877.62
228.14
-599.485
307.851
291.634
-955.514
612.576
-898.753
468.765
-1128.72
673.611
455.105
361.623
268.542
-758.276
-312.913
1217.39
886.85
699.075
-1183.01
456.162
726.844
494.374
700.908
-1195.28
-360.352
-249.129
413.309
-961.02
438.613
522.407
21.2511
-1879.82
1080.8
-468.635
-493.842
558.141
-1378.29
820.149
-424.249
798.986
-405.614
496.947
-713.65
1721.32
413.406
-184.601
215.926
-170.39
-247.181
417.57
1895.32
-504.113
-1688.77
1051.65
-602.027
304.164
-1014.11
553.788
-313.626
544.299
905.309
-1449.61
-1103.91
438.012
-20.7428
-1944.48
1711.64
-671.838
-540.589
460.737
-1190.6
729.865
192.194
210.421
-281.816
769.085
700.818
838.408
818.465
-461.895
1085.09
-470.666
479.566
-193.581
-285.985
-1922.99
-714.226
-318.655
-643.411
-6.63787
650.048
467.849
-273.753
563.28
1055.75
-801.959
925.176
1244.4
-425.483
-197.015
-227.351
424.367
953.131
-888.544
-326.726
-1068.1
611.906
1555.86
-798.226
537.657
934.961
-390.875
736.544
-345.67
1130.48
-276.222
327.765
1349.79
-705.4
-220.622
448.307
-1198.71
750.401
-999.933
-101.538
1101.47
442.057
-956.053
513.996
175.28
732.551
483.319
744.246
-86.739
853.408
-425.906
1182.61
-796.971
552.132
-1465.52
913.388
-1216.65
1800.97
-431.712
-1510.19
879.681
-1402.03
-304.023
-418.354
1457.28
-1523.23
785.157
1491.5
202.113
277.454
-353.296
-1731
-295.818
-1007.14
1570.42
-1763.38
1763.38
1561.41
-1004.51
-634.859
-336.491
368.452
605.179
-367.13
-361.366
-1389.86
897.391
1125.15
600.573
1202.8
1789.48
-1216.42
-610.153
274.268
1658.99
-1916.45
257.463
814.362
-1267.61
1545.25
-561.619
777.545
316.07
-335.416
554.808
795.164
674.262
1354.49
-217.888
-445.167
-354.916
497.431
-341.194
471.775
736.603
-295.715
-152.238
-327.024
568.375
-241.351
27.9645
-373.375
1107.46
-1720.28
-431.885
-483.79
-567.143
864.303
691.558
-1596.53
904.801
-451.8
-618.833
-513.802
1252.23
330.079
1723.69
-1702.44
-1657.14
1891.57
-1560.84
840.281
720.558
-365.826
-1795.51
917.761
583.126
819.637
-396.074
1794.3
-680.668
-409.444
676.818
425.22
-1102.04
-1100.17
444.117
753.332
-1617.18
473.202
901.163
176.708
-403.179
226.471
-1593.74
-383.01
-425.941
990.291
-670.911
1442.97
-971.728
1855.07
243.016
-543.964
498.226
-296.113
474.324
893.571
543.108
977.428
-462.929
-428.012
573.962
883.318
-1392.7
-40.9891
1571
-832.708
519.955
971.547
-1475.85
-1115.9
1769.59
-1243.57
-526.022
1206.17
-319.018
-887.15
-192.005
455.813
-263.809
-457.468
-251.589
432.464
-180.875
146.235
-395.364
1728.43
-1736.37
-454.239
-530.853
-903.617
445.462
-206.613
-238.849
635.041
-451.438
-358.449
-306.324
664.774
-926.616
375.89
-1167.34
676.473
419.724
-632.51
-443.605
1572.91
-857.314
530.186
-457.96
-571.09
-462.635
364.237
-353.85
-10.3868
-1096.47
408.693
-664.743
-1033.68
1698.42
-595.951
-1423.44
713.632
562.198
-1596.28
1034.08
-380.314
-481.339
145.47
532.557
-1258.53
744.733
539.228
1006.02
-2133.18
999.989
1133.19
-353.257
412.245
-387.044
-25.2014
1478.07
-365.934
449.57
1212.96
582.202
906.62
567.934
527.517
-1095.45
166.128
-435.676
-1684.68
260.537
1127.58
-611.301
518.482
1013.77
-1532.26
1092.86
-1643.73
192.794
688.864
543.51
-870.237
-1086.52
-171.481
429.075
-257.595
-587.062
-423.826
-636.87
-628.486
346.67
-1618.7
939.839
-476.814
216.508
-401.109
536.117
-307.976
-601.923
1197.22
-1268.81
922.034
346.776
-1028.27
-357.919
-755.792
-823.129
1687.43
-476.968
1794.12
-1582.07
-212.045
-1556.64
1018.73
537.911
-724.227
-259.907
442.974
-183.067
-588.439
384.282
274.859
-659.141
-523.934
983.632
631.312
-351.748
-1620.28
1050.51
571.768
1103.55
-1675.32
-407.515
-293.934
-369.23
-743.521
-465.949
-331.793
501.953
1558
-995.805
-775.336
1497.46
662.488
-313.801
725.881
1152.37
-1878.25
280.959
299.486
-487.168
-1931.91
1719.7
212.206
739.594
-475.011
-264.582
531.832
1060.83
-1592.67
364.237
-1722.97
-233.21
1752.35
-1580.7
1073.78
506.918
-1722.41
-0.560032
-521.671
412.245
1698.96
-1719.7
939.74
624.48
-1564.22
382.549
-219.608
-162.941
-404.721
-268.775
71.7071
95.1657
-355.073
-432.248
-437.243
-408.895
221.21
1510.25
378.857
-216.753
-428.298
463.487
-197.518
313.606
1510.78
999.552
-157.322
-842.231
-1104.11
1704.83
-1728.78
1064.04
-707.162
-1021.62
-1265.09
1844.99
-579.903
1155.07
-1771.15
616.075
271.494
-878.198
1675.69
43.4483
-1719.14
-491.166
-1083.06
-1728.43
-982.38
554.368
1019.61
590.225
1133.04
-1723.26
289.153
-447.86
704.806
-384.542
370.76
924.947
680.616
-379.782
-637.005
582.893
1072.56
-1655.45
-399.735
-370.46
770.195
419.674
-1661.08
1520.49
140.585
583.921
-1044.68
544.747
1083.9
-1555.69
994.069
-238.463
235.523
318.489
1903.13
415.353
-82.3241
995.86
722.752
-1718.61
-697.335
1085.35
-1557.52
165.982
-571.629
197.519
265.969
-653.149
-559.944
582.503
1034.65
-711.173
-269.081
-1368.73
675.939
692.796
-415.664
769.97
61.236
-831.206
561.728
-137.151
1557.29
-216.701
268.481
-770.657
-1931.91
1664.63
1035.06
366.804
296.414
448.466
-930.234
-992.759
-1767.27
637.607
1693.77
510.153
-474.292
1210.89
1087.14
-424.972
1030.15
-979.294
493.647
485.647
700.181
1047.97
-1748.15
486.072
482.14
-1494.01
-747.421
32.2465
781.014
-413.151
-884.441
390.598
-538.791
-802.6
624.356
-577.256
1397.4
1055.15
194.283
234.792
-550.619
1618.53
-772.327
1525.76
-1727.84
575.252
1152.58
544.588
-883.997
-1732.75
1916.45
-183.704
1721.74
182.061
-543.804
367.597
-272.431
-481.413
1211.28
568.271
1128.32
-491.332
433.941
859.085
-462.393
-774.703
425.891
348.812
1418.82
1089.61
-518.197
1423
-510.645
-533.425
1044.07
-602.755
467.923
-1198.14
1691.87
1839.58
-687.212
1585.65
-645.914
-1241.4
717.47
-562.466
202.062
-391.808
455.113
-243.161
-520.153
-1246.71
1870.94
-624.233
1173.55
-552.336
1120.28
-1659.46
1692.3
-573.938
-545.441
-549.816
1720.07
-317.247
-688.039
-473.322
1223.72
-1683.11
-1860.1
613.395
293.355
-934.329
168.655
213.884
-1719.03
1204.15
514.873
1162.85
558.888
-511.506
-465.389
1192.23
179.546
226.361
588.444
1251.13
-539.176
-1238.58
1777.76
-1025.43
999.989
866.789
-204.124
-1658.99
1702.44
-510.078
1411.24
-1732.75
-362.59
19.8108
342.779
-265.167
586.99
-321.823
69.3674
491.543
782.368
-377.853
1257.53
1270.89
-413.361
852.728
-438.073
1817.45
-662.377
1586.54
-1723.69
-412.789
-738.562
304.85
433.712
-559.658
-563.293
79.7339
-1138.75
-985.518
-669.681
1655.2
-943.706
-1189.47
159.517
-409.056
-648.448
705.609
1167.45
650
1410.36
-590.719
1636.75
1318.16
-573.427
-493.638
197.525
-503.282
1396.85
1240.23
-564.292
-999.987
893.785
54.2988
-948.084
603.439
-506.134
1403.52
1495.09
-588.469
-366.057
366.057
-589.427
1623.51
1239.56
-486.23
1134.16
-72.9657
1851.72
-393.742
1489.5
-588.677
-507.678
1347.96
-652.861
1218.76
-565.901
1554.82
-591.56
747.229
573.531
-1320.76
-652.989
277.322
489.157
600.136
-1957.3
-981.489
1586.54
369.116
-369.116
-71.0259
388.691
437.066
375.17
-5.59717
-338.167
890.582
-523.125
-426.322
815.012
-243.76
621.678
-435.011
1545.38
-444.342
-884.102
186.671
227.081
-413.752
601.168
1250.78
-1851.94
927.53
-458.765
-353.85
126.152
-1943.02
1816.87
-452.961
184.79
1181.28
-440.462
-740.822
-305.907
-578.534
-492.294
-387.044
-481.244
258.103
1158.57
-560.293
231.594
-382.434
150.84
-22.8076
-107.676
1376.03
-1268.36
34.5668
-598.253
-586.394
-452.278
452.278
-1262.36
1985.11
-1344.38
-216.153
-1824.57
242.496
-1025.76
-974.241
-185.913
-1637.64
707.402
1229.32
-1924.97
370.179
312.482
-682.662
-1850.01
1234.27
615.742
-561.678
561.678
-959.196
-40.0329
-1866.06
-558.144
1650.86
-677.416
1636.18
-601.533
-173.138
-1704.48
-585.682
-442.149
-594.798
-466.443
466.443
-1537.81
194.525
1343.28
172.808
226.26
-399.067
491.125
508.427
997.402
-474.995
1751.3
769.044
-422.945
397.743
520.684
1702.06
-594.598
-552.965
1636.86
471.786
1812.74
-645.292
-1803.96
-1938.07
-646.948
-478.815
478.815
-585.847
230.931
-688.62
1019.73
-465.942
-1072.12
-286.728
1579.57
1852.3
1635.34
-1635.34
-278.978
739.539
1761.49
595.787
1275.15
173.065
209.484
572.032
593.427
1603.51
-1603.51
222.491
-353.832
-434.706
460.252
952.129
-458.482
-639.747
-1131.01
1706.26
280.628
-1648.25
606.65
-289.837
471.898
1744.65
-592.062
-215.947
-414.317
381.228
725.45
1738.57
-613.424
-511.765
-775.47
1960.54
-870.453
-1090.08
1642.78
-705.927
1223.97
-1824.95
600.972
324.61
-868.574
-185.848
-105.158
1098.48
-486.571
127.451
612.742
-1646.62
439.794
604.19
-1803.96
-583.276
1787.43
884.342
-1162.92
1760.49
-597.567
1783.83
-575.527
-1208.31
438.418
930.643
-1736.37
924.769
-1499.25
271.043
1228.21
-831.983
-1254.23
-379.476
75.5081
303.967
581.723
269.93
1026.44
-444.966
847.427
-402.461
821.301
738.375
-1559.68
643.775
1066.3
-24.2161
-663.305
687.522
-1744.32
722.693
698.447
150.579
-1122.69
1936.76
-674.549
-1262.21
-537.176
1665.5
828.414
963.765
-1792.18
1227.87
683.324
-403.66
711.994
840.483
1028.68
-586.624
1761.49
626.676
1773.56
-1185.62
-587.94
-378.664
-322.872
701.536
121.446
-1185.69
1660.55
-540.268
-1437.81
1437.81
1250.57
594.416
1351.57
206.437
-567.593
283.25
-191.824
699.074
1113.67
483.398
-303.852
-870.278
-574.599
1736.93
-1736.93
1000.65
-1000.65
987.331
1025.17
-2012.5
1837.94
-613.971
-581.108
816.929
-947.849
-1052.16
998.38
690.532
-1688.91
-516.424
-341.971
-645.615
-808.423
2042.7
-1246.42
-613.681
1002.97
974.852
1289.77
646.986
326.031
1012.69
231.865
337.402
1186.25
1756.88
-1756.88
671.964
79.887
-388.554
-997.053
-539.991
1674.15
988.767
1011.23
-1833.28
-223.503