/*--------------------------------*- C++ -*----------------------------------*\
  =========                 |
  \\      /  F ield         | OpenFOAM: The Open Source CFD Toolbox
   \\    /   O peration     | Website:  https://openfoam.org
    \\  /    A nd           | Version:  7
     \\/     M anipulation  |
\*---------------------------------------------------------------------------*/
FoamFile
{
    version     2.0;
    format      ascii;
    class       volScalarField;
    location    "28";
    object      p;
}
// * * * * * * * * * * * * * * * * * * * * * * * * * * * * * * * * * * * * * //

dimensions      [0 2 -2 0 0 0 0];

internalField   nonuniform List<scalar> 
117990
(
26.805
-0.0510429
10.4455
2.96862
9.67469
-0.0138201
46.699
20.1889
-0.303187
-0.0532497
-0.537654
0.452738
6.41135
88.6791
-0.29418
82.231
-0.0809712
-0.562699
45.0027
9.78753
19.9753
-5.25417
-0.586481
4.37125
45.4243
39.6805
14.8879
25.6075
-0.0975476
42.8986
-0.359919
40.4274
18.5183
5.73219
44.3093
-1.7143
46.4108
-0.0718308
-9.48903
47.4774
40.5248
-0.563159
16.8304
-1.76401
28.4638
88.9212
18.5469
13.1281
10.302
0.409068
-0.000276798
-3.74779
41.3567
-0.0276983
10.1356
41.4663
39.2687
42.7179
28.9693
11.9582
-0.108068
4.6084
-1.09914
12.4098
-0.220743
4.10369
6.18035
36.8075
14.9237
38.175
45.9598
37.2434
47.4099
69.539
23.5043
29.9421
29.4877
3.40877
46.5947
36.2241
36.3209
-0.214631
26.8403
24.9813
-3.26916
0.434493
14.989
-0.0711789
39.2714
-0.0686482
-0.968961
4.68348
-0.101053
-1.3568
-0.63587
0.972202
-0.696431
26.2598
12.65
39.2735
-0.109274
28.388
15.7045
8.46606
46.0916
20.2137
47.8748
19.4413
20.4961
-0.0801408
36.4195
-0.690478
29.6101
17.6464
37.2416
14.3261
-0.54167
45.3649
0.0300506
37.1471
45.2691
82.2972
10.708
30.5185
-0.00946046
43.2085
4.75055
32.5802
-2.09735
32.0929
26.0358
0.651726
43.4548
0.431761
0.0312044
44.3988
44.6047
18.6012
10.2874
4.56782
30.3603
14.1461
0.121808
41.6534
26.3836
-0.000403429
23.172
4.7984
36.8718
6.08638
20.0538
29.4296
4.5653
-0.00930131
-3.69485
18.5033
-0.0772697
33.5574
36.1276
20.3532
28.8165
23.0283
-1.08327
20.0501
15.6942
-1.04633
30.7684
21.2221
33.3404
15.5271
13.1611
18.4637
-5.13349
84.5772
20.6549
35.5417
84.9411
2.15881
21.1768
10.1692
23.5553
23.6272
44.3446
41.8314
47.8711
-0.0452404
1.65715
44.6482
29.3666
-0.66541
2.22419
13.8051
45.772
19.6005
39.8484
19.469
85.1277
-1.76112
21.0834
23.3409
42.7943
47.2929
24.8704
-0.0814755
0.900299
32.2136
-0.464462
-0.215006
32.6393
21.7807
85.5625
47.8135
45.4333
-0.0665753
21.5398
19.8543
34.7424
18.616
88.8524
-0.226323
20.5535
17.3077
11.8648
40.5004
-0.0293209
43.5074
20.3817
22.7199
19.2492
45.5446
27.0668
24.9843
32.4223
20.6403
25.7229
42.8965
1.16318
13.4546
20.9677
-3.81197
8.08923
25.3389
20.3051
11.7851
-2.16285
6.48274
39.0848
46.2195
21.2319
66.2657
45.7139
-0.505266
41.6591
5.70693
34.0597
23.7089
26.2667
25.5208
0.744702
19.954
23.7402
89.1253
41.9024
-10.103
20.5624
3.10003
30.869
-2.06182
33.396
26.2091
-0.230846
29.4787
10.1503
25.3704
4.78721
15.6091
26.9037
20.7973
12.5596
18.7972
20.1222
-2.13152
2.99132
31.8485
0.579078
21.0622
43.7035
41.0198
26.032
-8.13383
27.8954
-0.073851
26.0958
47.7354
0.0728827
25.6945
-0.0730854
40.2186
7.96737
25.7745
87.0826
20.1662
-3.86323
7.01873
17.995
37.1343
24.9131
22.5469
-2.0953
21.1932
-0.788683
42.538
38.1179
21.0038
6.31607
15.4887
45.7669
6.47651
4.43312
23.4295
31.3976
-0.214038
24.7159
37.4718
37.8889
32.8141
18.7064
39.8462
87.2744
26.4024
-0.580359
-0.0742516
0.0607745
-0.11659
42.2454
4.44216
34.2187
-0.221663
-0.112763
1.53225
10.7135
38.616
13.8511
11.6159
7.94062
8.70246
12.6264
31.2782
26.7073
12.5317
43.6297
44.5378
23.5979
2.16985
23.2326
21.747
26.8337
-0.00110256
0.982876
28.9577
44.6775
17.0216
46.4102
40.4322
29.7377
-0.000969172
3.77829
17.173
11.8956
-0.00448495
16.1739
34.08
45.2307
-0.878813
34.559
13.1576
15.5247
0.401277
-0.0821618
29.4572
25.8031
20.6071
17.2927
28.9057
21.0294
-0.345249
33.018
70.6449
9.61635
21.8984
40.2437
46.6188
15.1582
25.6754
17.1376
0.836816
-1.53836
3.71489
10.0445
13.4209
23.6741
1.27817
35.4072
47.2394
-5.19057
26.6039
0.0317357
11.645
34.1157
-5.39848
18.9485
-0.875646
8.82121
3.39277
-3.35071
12.3965
10.0226
12.76
0.0831049
20.6889
-0.00108914
85.8017
0.663222
45.155
38.5517
44.844
26.9864
45.6839
39.0779
4.3189
7.17182
0.0357781
-0.302306
21.9007
6.95943
11.61
27.2282
0.64805
-0.369528
0.387575
3.2568
32.3193
26.8879
13.5254
0.546334
16.3728
6.35778
-0.33894
46.5237
35.468
47.8318
0.0919183
0.460162
7.47567
21.2141
5.83572
19.1665
46.4257
43.0427
-4.90575
35.504
6.35395
9.5069
47.5692
42.6864
19.7778
9.29098
84.4249
-4.8095
0.0927511
20.7516
69.147
20.9572
70.223
27.1191
37.8535
-0.00365457
9.35508
28.3095
32.8016
44.1193
-0.00249975
-0.219414
6.513
20.9601
-0.356348
0.0983239
32.824
45.0725
26.0025
47.6642
11.9227
45.5304
42.4308
3.53827
16.2081
79.9089
17.5602
13.3298
8.4437
-1.30319
46.577
20.6721
45.0449
24.9527
44.6891
12.6181
10.7403
7.10284
43.1772
2.26371
5.57129
5.67589
-0.100726
26.4662
22.5604
0.788146
33.3831
-0.0265258
-0.0136928
7.27797
25.1717
2.49061
12.3016
18.7161
5.42355
-0.108177
45.9792
22.0874
21.48
13.3926
23.6193
9.90781
0.0189675
-0.00247241
62.7847
80.1071
23.9717
0.0171842
5.93345
38.6794
13.8688
29.2801
-0.210642
21.6999
23.2813
0.253347
-0.0730958
46.09
6.36788
9.35397
20.4505
1.20515
46.8124
19.0568
11.7768
11.463
12.4321
38.6478
0.889517
0.028082
13.6515
42.1666
45.5348
46.5043
26.7382
11.1857
47.1196
22.9508
0.748061
29.9391
10.927
32.9242
8.34149
34.713
4.10664
46.4232
1.71502
6.59998
12.4281
47.6258
0.722486
20.9906
19.2057
42.9761
20.8989
5.64944
15.1141
0.151194
-5.20086
5.4333
25.9081
21.2114
8.59118
34.2843
47.3208
44.774
45.698
45.6731
25.8851
29.7609
23.1101
47.5922
47.8311
9.32781
4.29829
45.4979
0.0455796
-9.85241
17.3558
14.4923
6.42452
32.8466
-0.269721
7.29192
45.1758
44.2825
-0.39176
0.921947
32.3393
5.48043
-4.15598
42.8995
43.5947
-0.0625953
18.6749
20.3271
1.9037
25.5589
38.9467
44.4976
5.58911
-0.00317921
47.6158
25.4845
-0.396174
32.1971
18.4918
4.16239
-2.53057
-9.99645
6.5756
-0.310356
23.2666
0.940125
-0.316827
14.3223
29.6044
-0.488684
18.6028
4.10852
20.9187
47.6892
0.0565352
38.9776
24.1141
45.5298
29.9212
-0.737735
-0.10075
-0.581863
5.80032
42.3174
12.7137
3.92558
44.5233
77.0633
77.7044
29.6292
32.649
45.6896
-0.668538
21.0194
14.6422
0.607066
25.5518
4.07541
26.5339
18.5192
41.1663
48.8129
1.65287
15.3269
21.683
35.8484
38.3712
23.7694
0.000346582
47.6042
6.1026
87.7383
12.0012
28.5615
18.6316
13.6645
7.78773
-1.19451
46.8111
17.085
39.297
67.7892
27.3687
-0.0730799
20.5835
18.9134
20.8671
32.0563
20.4409
0.976099
16.3782
-1.31587
-0.0652364
12.6099
0.83709
44.5177
0.619747
45.2806
15.8628
26.8867
9.74632
40.843
13.1005
44.6206
-0.00429709
23.7888
7.00971
9.41234
20.2398
0.0379038
21.7303
36.9586
18.1759
0.748068
13.1977
42.2652
44.4344
7.92097
-0.565191
32.4823
0.474528
45.5436
23.3537
33.6891
44.7011
0.455339
26.0578
45.7823
-0.320361
34.703
45.3241
-2.55513
15.7356
1.09479
18.6471
12.5626
-5.44881
44.4263
17.3687
35.008
38.6406
-3.11143
0.335382
45.2552
3.72148
5.89452
0.870158
44.0209
67.2325
43.3882
6.27023
1.5998
6.27449
10.0881
18.8779
33.2137
31.1929
42.1593
-0.398819
10.6447
0.0116031
6.7342
-0.00464231
-4.65926
19.7017
46.4686
-0.103636
44.9067
-0.689902
25.7125
-0.81957
69.994
13.6817
39.5237
-0.383114
21.9222
25.7535
12.007
-0.0767203
1.484
-0.509519
19.6786
8.72197
-1.22609
47.2869
0.312607
0.99969
20.5592
-0.725616
47.1061
38.1279
1.95783
25.3453
20.6894
-0.0110991
14.5248
19.011
1.00802
23.8386
6.27989
33.0777
4.53502
1.63354
25.2296
-0.0638429
5.15607
-0.657719
47.567
-1.43207
0.457791
-0.397508
29.0246
42.711
3.86103
1.8402
44.2452
47.3656
9.42999
36.6748
13.3584
65.7214
0.346603
-0.0159187
42.3918
34.2521
0.328048
34.5576
-1.05711
-0.0396285
37.9625
19.0925
48.2614
72.5661
21.1555
-5.4398
5.74539
13.2489
45.3556
0.0227532
19.7438
36.9581
0.154831
13.8517
25.0684
43.802
15.9038
15.4331
38.6856
32.7565
21.8291
16.8748
46.9446
34.685
1.66185
19.6488
43.0168
-1.46977
-0.62853
18.1382
7.79364
11.8269
38.4982
-5.47438
-0.0380243
-9.94855
10.9595
18.4966
44.6337
15.2742
23.9071
1.38683
44.0675
16.9453
37.9393
17.035
41.6825
39.399
20.4846
41.6143
44.8979
-0.652903
37.6459
45.3901
18.188
2.58033
20.2522
44.4027
25.7119
27.4335
47.0358
8.04714
4.15278
-2.47244
0.937134
29.5269
35.7742
0.980597
46.0134
41.5656
32.0629
-2.12435
28.0533
69.7933
19.4372
47.2865
39.2658
1.2441
34.7652
69.1952
3.57735
39.4299
73.7706
-1.52155
37.4553
0.822336
44.7145
7.12937
42.4648
28.6344
-4.64591
46.675
-1.26386
21.738
15.4245
-0.390966
15.9707
15.3084
10.6462
19.5298
5.34419
2.07446
33.4974
13.6217
-0.633735
20.5209
87.8202
45.4952
30.1011
47.3976
-3.76928
6.85944
46.3745
23.7295
-0.0710065
2.26296
20.5755
1.54239
17.3482
-2.03458
38.0668
-7.73926
31.4741
62.373
37.8204
31.8837
6.73837
9.8349
-4.00517
35.7391
19.8941
0.000269149
-1.53525
-0.622315
38.7732
5.47206
-0.00775944
17.3113
14.3909
19.9933
42.4611
39.5474
13.0066
21.1828
6.40784
41.8839
19.7022
39.8701
5.43682
20.9503
21.8553
9.99291
-0.380688
0.852875
-0.0630286
19.7233
-1.2404
12.8378
1.72509
37.0931
0.0233317
2.19732
0.177005
42.3787
15.423
46.6047
31.1358
40.9914
-3.01021
17.3429
46.6194
30.3229
16.9807
37.6317
-0.374682
7.76767
-9.30397
30.3173
0.0248218
25.5466
13.7643
20.1032
20.5137
45.3343
10.9127
-9.75655
42.3939
10.2178
11.4863
6.60446
-0.00713583
-0.355942
-1.35799
33.4026
-0.736467
4.4038
13.9507
45.3154
43.6192
21.4706
0.439152
16.117
33.0884
9.0748
0.414277
12.1502
30.6987
0.0699946
5.61095
32.6046
46.9053
13.1213
82.4425
40.521
16.5524
0.630462
73.23
30.4884
2.7046
0.109608
-9.11588
-2.13079
10.5971
-0.0803417
-3.65728
34.7013
32.201
18.7912
19.4559
12.5842
-0.0858454
42.3701
-0.64151
25.7695
43.5557
-0.191275
28.8419
7.53275
45.0683
37.7893
19.9727
44.7776
39.0896
11.2237
29.1593
0.440469
2.09301
80.2754
-2.09597
-0.386914
26.6388
-1.00037
-0.16522
11.8899
-0.47633
20.2943
18.7906
3.63176
-0.471334
-4.07289
3.57429
-0.109395
42.0189
31.4461
22.1877
-1.12191
73.1311
20.2091
33.6045
12.3568
13.0407
44.5191
37.1053
33.8445
20.7731
3.76059
0.0822481
33.7809
46.6706
30.9676
-0.0945372
-10.2777
0.428
0.119985
42.372
1.86075
33.2877
-1.28246
47.6527
23.2688
12.8849
24.0498
-0.00328842
44.8966
-1.11898
5.74585
37.9021
45.5041
39.371
1.79534
1.95085
38.2835
-0.026638
39.5947
5.77405
47.6044
36.9793
14.0706
7.58275
0.0813572
37.4851
17.3073
17.358
18.2927
14.555
1.41663
25.4617
-3.2169
34.3386
42.2509
10.704
44.8582
40.0476
-8.64966
-5.31762
32.4359
14.8832
36.1768
43.7003
34.0668
13.7571
0.0134404
9.44966
20.273
17.5754
22.053
36.993
47.5474
-0.0521092
43.0755
-0.00516435
21.7924
4.17183
46.7588
84.0369
-0.188072
44.566
-0.037401
5.4582
-0.109323
-0.00273954
-0.00224245
46.8389
10.0897
20.8002
15.5991
0.82726
55.8817
44.1137
10.8276
3.7309
-0.863627
-0.109438
2.12225
26.6643
31.5934
44.6265
-5.21299
42.3934
16.9379
21.5797
29.4518
2.11263
37.4436
0.0503819
4.44863
2.16395
13.9366
-3.44356
44.7985
4.02785
0.00229913
14.8649
5.35695
47.2852
-0.0542513
3.89455
3.79977
21.1281
25.8034
19.1554
91.5829
39.9141
45.344
-2.12893
4.1654
20.9396
-1.21111
40.95
17.994
-3.58901
28.8414
-8.25394
2.40994
14.7221
-0.495258
11.0272
54.9615
9.63075
33.561
47.5525
45.6053
45.9176
-0.0200921
2.38544
0.0460886
36.1821
31.5491
42.9231
12.5662
17.8653
47.5116
19.2456
24.6587
12.7791
30.6635
18.4309
0.0286354
39.146
-0.831326
41.9775
34.5948
32.0038
0.409365
4.10824
26.5277
-0.0102107
41.1656
7.6537
21.0596
27.8652
33.2954
46.323
21.7013
46.9137
43.7668
24.5446
-1.24643
31.6496
36.0865
6.6182
32.9146
-1.96435
25.7396
28.1394
10.7214
37.6244
0.470897
42.3134
44.3355
-0.0813912
4.4841
0.101219
40.1774
5.65338
21.901
4.42016
25.8054
39.1183
6.85853
22.2522
5.58232
18.6053
12.3864
-0.0666314
1.51121
24.9292
68.4939
17.1737
-0.042439
24.7665
-1.22974
6.22883
28.9237
45.4576
11.1492
23.6518
43.0161
11.4831
9.40908
24.8128
9.52478
9.48648
23.8186
34.557
20.7459
-5.21014
-1.95415
24.4498
0.424013
-0.590922
0.0985364
39.771
-1.3937
2.6288
25.5711
-0.0140101
7.17833
-0.315296
46.7498
-0.00137656
5.33465
-0.223724
8.44171
45.4243
12.2124
18.3963
-0.0903625
-0.0554714
23.4213
6.93729
-0.38782
46.1618
20.5108
-1.97258
75.6212
5.63447
2.19098
17.1156
11.736
-1.23346
37.1574
-0.470796
20.3342
43.6035
-0.368934
23.9895
-0.696393
20.8182
47.5629
29.5926
-5.43608
0.381371
11.3375
9.74066
12.1952
25.5168
4.48646
-1.05751
-0.224109
-0.460039
19.9397
19.1664
40.8763
10.9721
4.63143
35.9844
41.63
29.6035
-0.447098
20.8911
25.2912
32.0254
28.0246
16.1202
40.2149
40.3337
20.4203
27.0188
43.7022
20.1392
0.384748
78.2206
86.5863
27.4229
13.5987
14.4188
4.6084
33.6374
19.039
46.8628
20.3209
46.6719
68.0924
-0.93499
14.0139
6.71159
0.0384431
-0.0798684
45.5505
-0.146358
29.9578
14.9847
23.5129
46.2994
-0.633333
24.3151
31.2502
-0.342184
45.7808
19.4568
-1.1117
31.6029
40.0865
-0.0054031
33.0508
2.07963
32.9809
26.9835
66.1743
43.5369
-1.10892
-0.984336
42.6385
46.6435
46.6606
5.34746
24.5047
46.9297
37.8839
20.171
-0.00992784
41.5084
23.1893
12.6871
14.0399
42.695
17.0641
4.61137
31.451
-0.349121
23.1758
39.5468
47.0564
41.0224
41.0384
41.9571
32.8864
-0.467719
-0.824462
-1.14053
-1.2308
41.0873
41.1462
42.7107
25.8745
-5.37979
20.3121
16.3812
2.82996
6.22676
-0.81154
61.7983
11.7536
31.5169
-0.0272056
0.0295773
4.06128
0.0907218
4.2887
6.98253
27.4826
5.86954
5.7689
39.0427
68.4379
6.36916
-2.1573
3.94121
-1.21783
-0.36539
5.21529
14.2861
1.11171
6.32695
30.5959
-0.0855871
31.8254
25.4881
12.69
-0.531881
11.0483
31.648
18.1382
37.2116
22.282
0.92032
27.4488
17.133
-1.3879
-0.0249935
0.437639
7.95438
44.9943
1.76624
4.23885
7.84287
14.2484
-0.642584
45.9161
-1.59037
40.2525
2.39383
-0.874342
0.405348
19.3711
79.6954
44.6758
42.1194
41.6872
1.89587
22.2913
-0.146027
-0.0061822
-0.997786
6.46959
46.2793
23.8949
56.5932
18.9963
45.4557
34.3162
16.2584
0.000150775
33.9964
44.3928
28.5187
-0.102155
-1.17653
3.5319
46.5817
42.6601
25.3774
27.4561
41.6491
5.07332
-0.100316
-0.0680242
31.6955
5.08174
38.531
-0.0277275
27.1523
10.8918
0.116521
42.1911
23.0845
38.7139
-1.81594
2.08576
33.1402
26.0028
31.0896
13.8074
4.80588
36.3983
4.20497
26.1099
43.3371
42.6635
-1.29413
40.3724
-0.00217292
1.13502
42.9083
15.196
31.7573
32.7235
5.65535
46.3542
30.8053
-0.0666789
82.108
5.94548
6.18444
-0.491472
-0.20824
61.2206
10.8239
4.6782
17.1355
8.79783
41.0817
45.4057
0.326613
-2.21264
-0.725583
23.7176
-0.531764
0.118073
-0.111962
42.6137
25.1194
6.09356
22.0071
33.5513
74.7383
45.4366
41.8335
46.8701
-0.0645234
-8.36577
34.934
14.6293
19.0768
-1.4173
44.2599
5.8814
20.208
3.50325
32.7702
74.0136
31.536
-0.00154868
36.6496
-0.195815
0.0145647
30.9126
-1.73463
21.8234
41.0926
17.5549
4.75617
-1.94748
43.5321
47.1523
46.3959
47.5747
64.3827
-2.23976
-1.04377
26.9994
20.8076
10.8365
-0.254946
21.6758
8.91683
19.3333
7.72422
-0.0423011
15.2696
27.7381
45.6346
42.3705
-0.0506272
36.6356
3.43861
88.2308
78.5839
15.6856
46.5154
-0.711076
60.0551
30.8431
-0.618989
0.210309
34.4568
41.4276
18.6562
26.9944
34.7399
12.7535
-0.0150109
-0.00918293
34.4773
25.7745
21.1197
-1.0451
39.3168
-0.249261
-0.00586825
-0.91597
9.38378
15.5367
-0.0728844
21.7993
37.4286
43.8216
1.92292
39.9214
6.54951
44.0018
-3.37377
22.0941
0.106561
32.3484
34.4081
33.4034
38.897
45.6612
15.1409
21.0158
46.8929
-1.66369
43.4274
-6.9094e-06
39.2152
29.5741
42.1588
0.401599
-0.0819406
31.9103
42.2415
41.1561
0.0325865
3.43467
38.2528
4.35108
-1.49476
32.7823
25.1158
21.2888
46.1716
-2.18561
30.5359
12.0393
33.3458
-0.455855
44.322
40.2828
33.1331
-0.927922
40.4658
18.6028
28.1829
38.7455
0.489107
22.5271
27.847
24.5187
-2.04517
17.6853
14.4859
-0.0602165
16.9037
-3.34603
5.80191
19.4492
-1.91588
4.40123
30.5719
0.138593
34.9985
78.8209
42.1023
-0.454694
32.9296
-0.108057
1.14837
14.4563
-0.173971
11.1651
7.18054
79.1528
45.681
21.1521
21.1357
37.9103
47.8679
-0.106417
17.9056
29.494
29.8889
-0.0791203
41.091
18.2622
29.3106
0.347795
13.9928
-0.203252
41.9027
-2.35609
42.0978
0.416828
79.2925
-1.36396
-0.030459
47.589
-0.227532
44.3698
40.244
33.1273
-0.753195
44.5541
45.4988
47.914
46.4266
46.5973
43.6873
-0.0790462
19.4435
44.4171
0.80781
31.1157
38.5394
-0.0463344
0.0899322
44.377
32.6798
33.8576
17.5344
39.6144
-0.491949
0.583867
19.3824
19.2179
19.6229
47.5331
43.3743
20.8394
46.2237
45.363
29.4452
45.2627
6.66279
44.8375
11.1961
31.955
6.61099
17.0384
15.7188
21.788
-0.0766885
21.4519
-0.0906362
44.2503
35.3383
-8.32927
3.95629
21.6332
26.1297
-0.218069
12.9096
20.9518
13.2359
21.2518
19.0324
-0.921274
12.4083
32.1624
0.350007
30.4295
-0.0904552
40.7835
4.47315
25.2479
0.343339
-2.65263
18.7272
13.8599
25.1489
4.08094
34.6157
21.6866
77.6092
-0.362669
30.1193
32.2293
17.4245
46.2007
1.26739
81.6452
18.7133
11.2729
24.107
0.099785
10.2651
13.6433
-3.76089
-0.354656
-1.0747
39.9305
-0.00159524
0.334862
0.144805
-0.116179
-2.21504
45.1532
38.9454
-0.667896
26.0624
-0.116104
25.0165
14.1582
-3.5985
30.8715
-1.89098
42.6819
14.5097
4.81009
13.8408
-2.14244
26.2258
-0.536994
47.8657
6.42889
31.3405
20.8494
-0.0846767
40
-1.10358
19.323
44.9525
4.50379
21.1674
44.8906
59.3707
20.9172
17.8114
31.8874
2.94355
30.0517
-0.183566
18.9503
3.70492
45.3492
25.4107
36.5631
31.0092
-5.46189
32.5429
26.7864
25.8454
43.5912
7.27912
21.9677
-5.11856
1.26011
-0.336847
23.9405
38.0543
-1.50112
17.7225
18.2024
4.2437
18.7764
-0.5732
0.950188
-1.91794
-0.227637
67.05
5.1049
42.7936
-0.00495987
-0.854624
0.104904
35.1269
-0.229707
40.3475
37.6752
44.366
0.840801
15.8085
11.1903
7.64443
2.66433
36.5907
21.0415
20.8973
6.83361
-0.697773
40.9148
27.3085
21.8793
-1.23775
0.446783
35.6393
-0.383416
14.2066
32.1348
45.1158
42.619
-3.61311
0.675454
15.5449
-0.367765
0.140208
20.9872
-0.00461958
16.2258
17.1052
-0.0481518
0.0359261
26.0723
24.2974
20.0636
32.0068
0.0608544
36.9546
24.9534
21.1638
0.336233
44.0697
-0.663207
45.642
-0.912142
23.2694
-0.0318643
14.4606
43.8712
11.5046
24.5453
20.783
0.247249
31.3106
5.98185
25.805
19.174
13.4414
37.7244
33.3689
25.6556
36.132
2.32449
0.0651578
-0.43318
19.9867
-0.0961993
6.00124
33.4646
45.4942
33.4533
-1.04613
38.2738
11.309
3.82473
26.3627
30.2509
23.3349
0.0338574
35.4307
26.1712
26.4563
82.4035
86.3197
19.2318
-0.0618034
6.18825
3.76932
45.5926
23.1606
25.9647
23.6857
32.5644
25.8987
43.8003
-0.197724
23.1023
11.198
0.00395182
4.49506
33.6597
4.30141
82.0629
26.7449
31.8775
45.545
0.933208
-0.00241572
0.0652125
20.6798
31.5474
20.9713
-3.71846
7.35277
2.97266
41.3807
-0.18404
26.3217
-1.05918
11.4543
10.8712
3.06359
37.5618
21.6904
13.6802
27.0723
36.886
18.9147
46.8972
42.9759
43.5783
19.1626
13.4466
56.7651
25.9391
42.4488
20.9945
0.102569
-5.26273
-0.00450392
83.5438
-0.760924
1.15367
-5.3939
33.0868
-0.346328
-0.0995237
30.8652
15.6491
0.00107426
-0.0295574
5.17656
2.932
0.0739926
30.8569
11.5852
20.8261
35.6811
19.2866
23.8189
28.4861
17.358
0.460735
-0.608466
47.6855
3.16408
20.7115
0.0955594
20.4744
20.5639
0.555791
27.0597
18.8336
14.1161
45.8133
-0.195392
15.8646
-0.971858
11.6139
-0.683419
-3.95923
46.0584
10.7011
-0.0113459
43.2928
3.64383
-0.751373
7.15508
4.74074
31.3693
18.9748
-0.403734
-1.8359
28.3544
19.9184
0.0715334
15.5214
19.4441
29.7683
21.7498
23.9035
45.02
14.2725
35.4567
41.7152
-0.685946
12.319
47.6217
0.000468624
38.4906
24.1271
-0.00394736
43.6609
45.5795
2.26379
33.0724
56.9458
31.1351
4.1723
17.5701
-0.00451251
3.45536
37.2538
19.0883
20.9753
-1.97546
57.7215
3.3563
-0.489267
-0.377461
32.0339
45.2752
24.7867
-0.00315561
0.147725
8.69112
-1.74698
16.1066
43.6975
79.3066
17.5033
16.3616
10.5441
39.598
0.0421265
32.5939
14.7777
45.6246
6.14208
35.3758
-1.99588
-0.960496
3.89536
-0.0387258
-0.0742441
36.7708
1.35733
38.8301
-0.182534
32.3516
-0.180664
21.4704
16.9616
26.6247
82.7137
24.1786
-0.0838382
38.448
18.9366
26.2339
39.6769
80.2689
21.0729
19.3001
-7.25116
40.2835
10.8799
38.1581
15.0499
21.0845
0.311417
43.3108
27.2074
-0.332713
-0.062493
41.3592
-1.13029
35.2829
33.4942
10.6825
-0.16401
13.762
44.6669
39.7933
4.37631
43.4917
37.1892
30.6221
0.691067
-1.97336
28.0153
45.5685
19.1396
14.9436
-1.11695
0.0893261
16.3571
27.6496
32.4298
37.8884
12.1109
6.53121
20.051
18.6811
22.8722
34.307
27.2693
26.7089
6.59808
-0.0820177
26.3943
19.1242
7.34687
-0.477532
41.7292
43.0905
46.4659
40.6402
20.4934
42.6096
-0.45244
44.7302
15.8884
13.7012
-0.0997165
29.6776
29.6327
-1.11378
5.02196
46.9714
47.0496
6.39553
45.4686
45.0208
33.632
19.334
20.7745
-3.28203
43.615
16.3409
-0.57096
-0.0141885
-0.589421
20.1342
1.80446
13.4111
18.8814
7.08833
-1.1628
41.9784
24.3607
47.2233
34.3108
43.782
22.0044
-0.0464303
35.0498
5.62269
1.47724
43.9173
40.9688
40.5383
35.2001
14.868
30.1446
19.3592
0.0172344
32.9736
-0.770751
20.2878
15.5507
21.6828
-0.0283079
17.818
37.9829
9.88252e-05
32.1682
36.0879
-0.587097
-0.486302
-1.23362
43.3242
38.9698
-0.00810515
-1.34379
0.0857415
-0.440933
7.21101
-1.31989
2.55168
2.47908
0.941992
1.34274
-0.603215
-0.582351
26.9913
-0.0439304
-0.0381059
22.6136
22.1663
26.9422
47.528
24.3093
3.13859
3.50292
-0.00175494
10.904
17.4879
13.6297
17.3819
-0.555302
47.3636
34.0578
43.0291
20.145
26.4066
19.4341
23.2644
0.0299234
21.6432
13.2321
0.434548
21.8219
22.6696
-0.0981674
38.6392
41.4915
0.128827
45.252
31.0587
13.9961
15.0001
-0.10169
37.1459
18.1614
-0.00821716
35.6164
-0.0980947
-1.13913
39.7929
80.2294
1.71976
11.0324
-0.036618
22.5655
6.6716
43.7312
31.2036
0.102272
0.249909
5.19983
24.701
-0.326887
14.6932
1.65017
71.0785
40.8214
5.21841
-0.133729
-0.850318
21.6147
31.62
45.5323
23.1414
39.0067
7.07595
53.8019
76.2874
37.701
46.6549
-3.19532
0.957043
21.1091
-0.0982409
45.4781
43.2195
38.0647
58.5985
38.0835
40.5509
40.9025
46.2761
43.9218
33.0231
8.56865
47.5973
65.1602
-1.49648
16.4903
27.8828
2.25124
21.0556
-0.440394
18.2621
21.6233
7.57087
23.1673
0.0934456
33.3244
12.7131
26.8489
-0.0869368
0.646941
-0.208273
-0.020922
42.2083
39.503
10.9878
-0.531675
23.7997
-0.0790992
0.125606
0.991679
-0.504021
6.21534
73.3535
13.0124
40.6493
-1.86239
38.0702
31.9456
17.7858
6.547
1.97332
27.6207
58.3637
-1.24803
-0.0169111
10.8585
18.5217
20.4692
31.2893
7.57096
34.3027
33.6703
4.1659
5.27079
36.6192
0.52554
-1.12648
-0.127579
-0.00755932
-0.202605
28.7458
38.6155
45.7531
39.9478
-0.277137
-0.116015
-0.577894
20.7151
38.7113
30.4041
67.8836
39.5495
-0.201599
3.5746
21.6834
14.4379
20.0401
18.8409
19.1342
23.6487
8.67588
32.4465
7.73891
0.950316
4.86166
33.3358
11.9267
11.0011
91.5823
9.29711
47.9905
45.5577
42.2294
47.9159
39.9074
24.9378
1.63741
11.6299
38.7783
42.3642
0.758039
-0.0622246
13.2261
15.8134
-0.945059
23.1844
18.1724
25.4927
46.3972
-1.18808
32.8087
24.1802
20.9712
34.9247
24.7312
14.6151
26.4936
18.1593
25.4811
3.73416
30.3339
-0.640606
24.9283
47.2104
24.1398
7.14332
0.715084
44.2799
9.58141
20.5302
16.0567
-0.0769276
47.5809
37.2476
24.075
6.62028
13.8676
17.1729
0.917863
79.806
21.9925
17.4921
11.0671
8.61291
0.0868398
-0.298188
30.1751
-0.0664539
21.0514
26.2483
18.4727
-0.414827
2.1029
0.331986
8.89471
31.4619
20.9752
32.4815
20.4212
23.9289
3.73523
2.8028
39.2085
3.78103
-3.84517
39.4881
2.70186
44.9683
45.3373
-2.7441
41.9338
4.4253
20.6042
-2.73566
-2.0983
24.52
56.4884
4.92705
26.1836
7.40887
43.1801
16.0457
11.6137
-0.571791
0.632679
47.3762
45.5768
21.4734
47.6202
-1.73245
44.9126
17.843
8.72026
34.1587
34.1881
-0.244975
-1.18847
46.3496
19.1387
-0.0777154
45.1158
40.9502
23.9417
31.3422
47.2271
45.3077
10.9465
20.7703
0.702262
11.3962
13.0324
6.25545
22.8008
0.327453
3.78925
16.1815
32.1232
42.8447
22.9005
46.1678
57.5431
2.56997
11.4311
27.3077
3.04886
38.8583
5.07313
-1.7914
42.8917
23.1243
66.674
-0.865365
34.9436
21.4448
-0.0664536
12.7799
-0.243115
10.8116
46.6613
41.9376
45.1248
11.2308
28.9893
-0.489776
-0.220634
1.12865
44.063
-9.81961
12.6067
-0.237951
45.5595
34.7687
0.15473
11.8356
37.8791
-1.20909
18.5272
-1.03581
9.16147
26.8598
42.3367
43.7122
34.985
-0.332655
22.164
5.48089
19.2143
-0.258201
14.5817
0.0713076
24.3268
0.4502
45.6967
20.9471
20.7059
45.2953
-0.221033
47.0529
-1.94168
46.2922
0.0258599
45.4112
15.0871
28.6089
28.1331
38.7101
43.546
42.3242
43.5024
81.2168
34.2018
10.7727
20.7944
0.518905
55.5028
46.0974
-0.503707
31.2453
25.6285
-0.444441
43.6189
32.6614
32.2738
-1.58453
-3.01069
26.7523
22.781
27.0132
31.628
7.71906
32.5468
29.3247
33.4084
32.8595
28.7003
10.5538
-0.547618
60.9408
31.6837
16.8398
-0.00200221
11.3987
45.5105
44.6744
16.4797
21.4106
38.181
-0.236481
32.9874
32.793
43.4241
31.79
21.4482
44.2651
3.08974
34.5237
46.2392
-1.13236
5.15372
31.7282
-0.558123
-0.259131
20.8329
0.0014549
-2.23755
-0.514932
45.0932
33.8475
25.6167
-0.0288942
46.7907
10.4793
0.0485878
46.4751
20.6191
30.5637
19.1415
47.1503
0.524844
-0.0159971
-0.658961
46.619
41.9644
18.215
34.3592
36.6927
2.24984
30.4475
67.1376
42.5727
30.8058
22.4022
16.0336
20.6398
39.1571
21.0152
-0.329277
30.1943
39.9386
43.6424
17.6119
32.1123
40.0571
36.1551
-0.177351
20.627
30.9039
37.4311
0.0888741
47.7228
32.3438
46.9864
-1.75982
43.6888
40.0851
-1.85374
21.2665
20.6039
33.5035
0.2767
4.44288
17.5914
36.3145
63.5221
3.88233
33.2898
2.733
3.84306
10.014
66.8417
2.93893
15.7991
24.9276
14.182
9.28051
2.38351
0.531466
1.96584
37.6544
14.8669
42.2209
0.0803429
22.5125
1.15301
17.2776
-0.223516
32.588
0.0948615
0.0115408
37.1104
26.2064
12.8732
35.5435
20.5561
45.9341
-0.109523
11.5599
35.0548
9.87285
36.0308
1.17867
6.53761
5.45186
11.3195
33.6545
39.0546
23.8843
23.1739
23.2509
5.221
9.29542
-0.0612485
-0.521946
16.9136
19.1729
15.1374
21.1785
0.0100468
46.1496
10.6091
-3.3686
20.3698
-0.319541
42.7872
27.7332
71.783
21.618
21.9456
47.1853
29.5416
33.7451
2.3573
41.253
20.9107
-0.861212
45.4535
2.27022
6.63919
-1.2526
34.0345
4.94631
44.6622
16.1645
15.2835
7.75533
39.912
47.2571
15.9314
5.46493
-0.40188
18.7005
41.2261
-3.06912
21.0041
25.5962
-0.0478126
46.5768
-3.40932
-1.32388
28.9384
37.3928
-0.742729
17.2478
0.110548
32.965
33.6211
34.8644
5.49174
35.2861
23.9291
46.811
0.0749861
61.5566
15.909
8.79447
8.57859
31.6825
19.3549
6.24991
-0.00722015
38.306
-0.00655004
27.5054
5.91305
33.5498
38.8595
37.7415
0.885837
37.6487
44.6041
3.24673
11.8445
11.194
22.9578
-0.000960626
33.0147
45.8651
14.7595
0.0363482
26.3887
4.2266
23.6954
25.836
33.4701
41.5081
22.4037
63.6033
36.1196
0.662466
8.31007
-2.00876
-0.613723
43.7288
27.7765
0.768006
75.564
-3.22009
17.2449
0.443511
19.676
37.2047
0.033385
0.157491
10.5436
-2.26991
-2.7865
17.2082
23.0517
3.46966
41.0365
-3.22809
6.32883
29.3594
20.257
-1.01706
5.35669
12.2138
17.0063
34.4409
6.25436
17.1188
47.1751
16.5411
90.2147
19.8059
-0.337126
1.95774
21.3439
46.18
69.4479
8.96629
-1.91829
28.7546
36.4411
6.03387
0.348661
0.070685
40.6385
0.45531
32.8365
1.097
72.5216
0.856503
44.6243
-0.407058
-1.08942
-0.182254
17.2402
6.32684
16.877
0.948889
43.3503
29.3557
41.6292
45.6003
38.231
8.00746
42.8484
8.20438
17.7089
19.3644
7.84358
0.481476
-0.0511015
44.1612
37.4683
-0.476562
26.0752
36.9584
-0.0350615
20.092
-0.930355
33.0315
43.1171
39.2585
27.253
22.9511
15.458
15.965
11.0808
1.08907
15.8696
14.9139
0.958835
8.13329
24.3719
-2.88388
76.268
17.3971
-1.22518
41.7519
27.9609
45.4531
43.8333
11.7968
25.2811
4.37783
-0.00946472
44.5735
26.9317
35.2783
14.8299
38.2004
58.0053
-0.101435
14.0382
19.781
26.8077
-0.212249
42.5911
19.1999
34.8116
-0.00539202
29.8967
-0.407149
16.9351
24.7177
34.9333
10.2566
0.82611
2.13416
40.0129
30.6197
-5.93592
-0.26555
19.6673
40.0152
32.3343
32.1847
34.2298
42.8712
19.9382
8.29441
25.2044
14.3293
28.148
47.2068
2.02374
81.7583
40.5896
0.672581
16.9636
47.9715
13.8111
8.2719
1.67968
24.7351
8.49512
21.2127
10.4949
20.9834
23.4499
31.7077
39.728
42.9586
-0.291969
45.8515
38.2047
35.4794
12.1954
-1.22857
35.2241
42.7751
45.9768
-0.0250022
24.6426
36.146
37.7474
-3.07245
0.438225
21.2463
15.741
-0.335072
-1.96424
12.2962
4.05091
14.4439
2.03655
-0.945815
28.7434
1.76128
38.0672
-0.563054
-0.855661
26.0328
15.7804
19.6883
27.1864
2.16027
5.82006
18.7174
36.9245
21.0219
31.6132
44.5452
20.3997
3.8285
4.52203
35.3707
-0.695194
40.6337
25.123
1.92388
21.8439
18.2855
26.2454
34.3755
45.3716
43.1671
-5.10557
31.4871
18.3124
6.65145
5.67606
0.0668737
18.2508
-3.23579
27.2009
0.2191
79.5264
24.0207
31.3063
42.6172
82.2817
0.0434848
45.0505
-1.27983
0.20255
24.1914
17.0745
-0.563843
42.9746
80.7642
34.1934
6.78203
13.6381
45.4813
12.5101
83.1425
-0.0357627
-0.325153
35.9596
43.9468
14.3863
26.8941
45.2546
3.72444
-0.494365
80.1244
19.8534
-0.842601
-0.811672
42.6282
-1.17448
39.3799
-0.349384
23.9612
-1.10076
34.0355
7.24374
11.1393
9.09248
36.9471
2.37685
20.2131
31.2122
-0.251994
15.5106
41.1707
28.3778
31.7948
-0.0917066
38.1035
5.7144
27.9589
45.4312
43.2239
-3.73275
44.0344
3.7565
-1.39031
-0.139336
15.0532
65.4367
44.539
-1.91702
7.24468
32.675
18.6124
46.6367
39.5293
43.4711
-0.0946539
31.9973
17.6582
24.1332
3.21321
-3.50642
43.8133
2.04035
87.5938
45.5515
-0.0174002
38.8773
46.1977
20.2546
-5.38561
16.6793
28.1129
45.459
20.1422
7.35484
46.2607
-0.405397
33.9308
45.583
18.608
8.97955
29.9415
29.338
31.7941
34.6798
22.8742
34.2343
19.1634
-1.39835
35.9053
-0.121952
41.3737
6.31393
33.9202
27.4931
45.455
0.436251
23.2297
18.1564
2.54877
63.9778
35.3908
0.167529
40.0402
25.2818
4.20822
5.01976
28.4709
1.30677
11.3384
22.2911
-0.349803
3.61051
23.1165
-4.82513
43.1184
0.00125729
29.7522
-0.268108
21.1864
44.4426
4.23232
45.4637
-0.559428
-0.000541439
20.0229
-0.603282
-0.391665
32.1013
45.4636
21.7133
5.867
15.3373
17.8096
0.0097434
30.5229
-0.0390353
25.2833
23.001
6.06658
-0.206132
-0.595933
-0.177566
45.2537
26.3087
21.8328
41.4547
-0.00817523
-1.07411
-0.0159182
38.3523
25.6815
9.00644
21.703
-1.97428
0.0757332
4.35427
5.08232
-0.0667261
38.4451
34.8361
40.3523
-6.01517
-0.78173
22.3559
45.4588
53.1215
0.0620027
40.3062
38.549
35.6041
2.25964
-3.37868
15.3128
45.5407
26.9508
16.5471
20.1305
8.78855
37.8544
36.6292
24.0259
16.4548
34.3225
34.8738
18.6525
7.74767
18.7391
37.3863
6.49668
0.670922
43.2911
50.6313
-0.404342
39.485
63.3792
47.1442
41.6349
15.01
38.7544
3.42892
2.29558
20.9098
30.2189
0.0183387
45.1514
42.6584
-0.908188
24.3059
9.14515
8.9951
-1.04263
35.4318
83.4691
45.5276
-0.408791
45.4605
22.1296
0.090877
3.93632
43.1082
17.9992
42.7545
47.3758