/*--------------------------------*- C++ -*----------------------------------*\
  =========                 |
  \\      /  F ield         | OpenFOAM: The Open Source CFD Toolbox
   \\    /   O peration     | Website:  https://openfoam.org
    \\  /    A nd           | Version:  7
     \\/     M anipulation  |
\*---------------------------------------------------------------------------*/
FoamFile
{
    version     2.0;
    format      ascii;
    class       volScalarField;
    location    "10.5";
    object      p;
}
// * * * * * * * * * * * * * * * * * * * * * * * * * * * * * * * * * * * * * //

dimensions      [0 2 -2 0 0 0 0];

internalField   nonuniform List<scalar> 
7807
(
0.423847
0.00535619
0.549298
0.365412
-0.00163172
-1.66074e-05
0.53737
-0.0101177
-0.000157641
0.154562
-1.67548e-05
0.00396046
-0.0154447
0.076739
0.160424
-0.0262211
0.437
-0.0207539
-0.000576641
-0.139565
0.105936
0.00250748
0.055391
0.285006
-0.0274505
0.432626
-0.00150482
0.0946902
0.24096
0.00220442
-0.0349347
0.721295
0.0546116
-0.000771572
-8.51514e-05
0.1267
0.00264115
0.522182
-0.0113004
-0.000399133
-0.0106242
-0.025133
-0.136945
-0.0247021
-0.00019691
-6.48933e-05
0.00249223
-0.0111819
-5.54103e-05
-0.137222
0.0061427
0.0896016
-0.035121
-0.0128319
0.125771
-0.00939688
-0.000147116
-0.00998624
-0.0527373
-0.00078494
6.04587e-05
0.00807032
0.0769489
0.0044219
-0.00141946
-0.0345792
-0.000130146
7.08384e-06
0.190771
-0.0104
-5.80434e-05
-0.103737
-0.0267036
-0.0464218
-0.0201798
-0.0769357
0.54352
0.103289
0.109116
-0.109304
-0.0149497
0.469235
0.153369
-0.050678
-0.00321953
-0.00374776
-0.0111556
-0.0342797
-0.00136284
-0.00772142
0.246963
-0.0199852
-0.000135167
0.000182095
-0.00640028
-0.044901
-0.099601
-0.00791786
-0.00344727
-0.00175204
-0.0860177
0.121287
-0.00615421
-4.08776e-06
-0.001927
0.258849
0.621339
-0.00986174
4.00962e-07
0.0502983
0.347257
-0.0850851
2.52981e-07
0.0537972
0.257969
0.00063557
-0.0921268
0.209434
-0.07442
-0.0482579
-0.0864051
0.449213
-0.129604
0.0184834
-0.0841969
-0.00196936
-0.0299567
0.0015243
-0.00149247
-0.0342255
-0.0778506
0.107284
-0.00101988
-0.00156722
-0.051978
0.33568
0.530225
-3.57256e-06
0.0146212
-0.112319
-0.043024
-0.0917406
-0.0784953
-0.0444551
0.623171
-0.0401338
0.243777
-0.0528433
-0.0605605
0.448468
0.120473
-0.0126531
-0.00310052
0.164704
0.15236
0.494273
-0.0888157
-0.0150494
0.629292
-4.73963e-05
-0.00120806
0.294374
-6.41366e-06
-0.00540843
-0.00721884
0.357935
0.358683
0.651984
-0.00587934
-0.00526293
8.05427e-06
-0.0832324
0.000624233
0.0155816
0.01595
-0.0595377
0.0253216
0.257773
-0.000140324
-0.000884933
0.374308
-4.31457e-05
-9.09174e-05
0.54405
-0.00179601
-0.0741051
-0.0702553
-0.0445886
-0.0458291
-0.110973
-7.68052e-06
-0.0951098
0.269626
-0.00635017
0.000102522
0.312849
-0.00204412
-0.0321041
-0.0444215
9.30258e-06
0.00126554
0.341338
0.307271
0.489393
-0.0825203
-0.0759348
-0.145682
0.103301
0.334159
-0.000210935
5.41204e-05
0.586987
-0.0225458
-0.00103963
-0.0913178
-0.0314773
0.456845
0.462227
-0.0985511
0.699256
-0.00190591
-0.0201904
-0.0875243
0.126875
-0.169181
0.384915
0.623453
8.61851e-05
0.0197185
0.222032
-0.0100329
0.205623
-0.00124034
0.698411
0.482222
-0.0109072
0.0032423
-0.000370329
0.275811
-7.85846e-05
-0.0163428
-0.112384
-6.20333e-05
-0.00330421
-0.00103601
0.251357
-7.20323e-06
-0.00802275
-0.106317
0.713741
0.0946804
0.659649
-2.3924e-05
-0.0487257
-0.00031526
0.512838
0.00776991
0.532638
-1.36975e-05
0.000972929
0.00508615
0.107915
0.000918255
-0.000260047
0.000796718
-0.0105954
-0.0729118
-2.23065e-05
-0.0854975
-0.00693592
-0.000149642
-0.00113458
0.52006
-0.0144799
-0.00110131
0.654843
-0.00350559
0.390237
-0.000338284
-0.00522322
1.27398e-05
-0.0647723
0.121537
0.0411546
-0.0537598
-0.000773953
-0.122039
-0.0299041
-0.000184401
0.000766253
-0.00525028
-0.0143087
0.00544895
-0.00273214
-0.0482372
-0.0643226
-0.0467989
-0.00678458
-0.0594943
0.494495
0.510153
-0.00275185
0.00916
-3.89032e-07
-0.0059133
-0.0457002
0.277669
0.171366
0.000140763
-0.00542212
-0.0581596
0.255556
-0.00205365
0.0068311
0.00205213
0.121026
-0.0997006
0.49357
-0.00269755
0.00541656
-0.000126599
0.006595
-3.66291e-05
-0.0437653
-0.000440674
0.0037598
-0.0202888
-0.0690038
-0.0020592
0.0173687
-0.00107073
0.0429454
-0.0220498
0.137752
0.252868
-0.177795
-0.0390113
-0.030722
0.00981584
-0.10888
0.664051
-0.0327003
0.0679364
0.688223
-0.00257753
-0.00330644
-0.0293881
-0.00254315
-0.0341903
0.0127943
-0.0049655
-0.00358761
0.235587
-9.36483e-05
0.000875105
0.000112817
-0.00622221
-0.0176809
-9.00408e-07
-0.00178371
-0.0503253
0.594102
-0.000776292
-0.0218645
0.587808
0.402452
0.115771
0.0252968
-0.0849928
0.00920727
0.348422
-0.0217319
0.429735
-0.0524949
-0.142114
0.307352
0.436026
-0.0793732
0.161702
0.386063
0.402978
0.101385
-0.00604479
-0.00872461
-8.11563e-05
-0.000235512
-0.0221179
0.00140596
-0.000101088
-0.00293189
-0.122155
0.167178
-0.0353679
-0.00951623
-0.00705788
-0.000398437
-0.0137411
0.00157132
0.349553
-0.00322903
-1.3522e-05
-8.45071e-05
7.01476e-05
-0.043459
0.228713
-0.00746099
0.0618341
-0.17783
0.510421
0.00475865
0.0129913
-0.0106331
0.505401
-0.00164161
0.492197
0.248475
-0.000113912
-0.0565706
-0.00607416
-0.0888969
0.000906618
0.126583
0.00246911
0.0120126
-0.00132119
0.233964
0.25799
-0.0832754
-0.0517345
-0.00558857
-0.0466905
0.15565
0.710845
-0.0694827
0.0074438
7.5614e-07
-0.0274621
-0.00396122
0.0384667
-0.14818
-0.0112779
0.535576
0.239379
-0.126521
0.328219
0.493249
0.0607339
0.00186813
0.3713
-0.00222035
-0.000260051
-0.0326811
0.000129281
-0.160572
-0.00627137
-0.0601777
0.0033647
0.315866
-0.00309279
-1.47532e-05
-0.153009
0.00302384
0.0768
-0.0826939
-0.107871
0.0784887
0.223455
0.183838
0.188624
-0.000234961
0.15727
0.149615
-0.000999764
-0.034407
0.000977755
0.00706671
-0.0140745
0.00921829
-0.00171127
0.262438
-8.34153e-06
0.000294513
0.00352259
-0.0419806
0.0439726
-0.0552377
-0.0510921
-0.0691652
-0.179703
0.00996894
0.36265
-0.000615237
-0.013471
0.700485
-0.0988694
-0.0186751
-0.0500739
-0.0189386
-0.0385396
-0.0208255
0.0612956
-0.0412729
-1.76266e-05
0.053062
-9.12572e-05
0.486857
0.205252
-0.00964124
-0.0259743
-0.000217253
0.469141
0.461382
0.132766
0.294213
-0.104679
0.539974
-8.32137e-05
0.0392596
-0.0338128
0.263636
0.638838
0.136533
0.227024
-0.00778758
-0.000253188
0.26668
-0.0542744
0.489282
0.077879
0.318074
-0.0139901
0.515201
0.441586
-0.0182926
-0.0154468
0.231011
-0.110585
-0.000116724
-0.0265943
-0.110492
-0.112705
0.022914
0.0180781
-0.000180131
0.468311
-0.00574294
-0.000111477
-0.0561813
-0.00084128
-0.000274555
0.00383014
0.335647
-0.137276
0.604605
9.41177e-05
0.335233
-0.0472848
-0.000113803
3.02341e-05
0.238071
0.319317
-0.00827446
0.287412
4.37162e-05
0.303174
-0.174857
-0.0189181
0.510171
-0.0870076
0.278588
-0.0478726
0.302966
0.318579
-0.0341534
-0.0435845
-0.0153531
-0.00509502
-0.000294549
-0.00582069
0.408696
-1.77117e-05
0.288816
-0.130171
0.438023
0.274663
-0.11223
0.601785
-0.00305646
0.00385974
-0.0717106
-0.0381104
-0.0132391
-0.05298
0.065108
0.668171
6.75477e-05
-0.00361481
-0.0847943
1.06157e-05
0.497597
0.00311239
1.08569e-05
0.000283772
0.000571245
-0.0415929
0.0373537
-0.00280033
-7.38892e-05
-0.0138549
0.00157663
-0.163491
-0.0971866
0.0448267
-4.90916e-06
-0.191122
-0.0250718
0.234453
0.424228
0.00130965
0.23472
0.000219909
-0.0243089
0.139939
-0.0135126
0.363617
-0.0262149
0.0461423
0.145346
0.23738
0.00500328
-0.0200955
0.292448
-0.130713
0.524208
-0.0184903
0.410756
-0.0180869
-0.0019473
0.215785
-0.00579765
0.140011
0.00324887
9.34674e-06
-0.177946
0.339455
0.00187849
0.223473
-0.0247288
-0.197837
0.00368457
-0.0577289
-0.00305569
-0.0152629
-0.117411
-0.0543365
-0.0188311
-0.000302804
0.55003
0.223195
0.0613239
-0.000262826
0.435336
1.45319e-05
-0.000233957
0.232987
-0.00448743
0.302483
0.0934109
0.0332762
-0.0445819
-0.166147
0.0698565
0.00211901
-0.0813064
-1.03806e-05
0.00456507
0.350474
-0.0323745
-0.00528031
-0.0273505
-0.0035914
-0.000946396
0.652171
-0.0196717
-0.0010302
1.45417e-06
0.201574
-0.0655194
-0.000606058
-0.0048949
0.233823
0.145698
-0.0773722
8.81649e-06
0.253334
-0.0369184
0.299977
0.0331651
0.0414483
-0.0585758
-9.81447e-05
0.141776
0.134578
0.110078
-0.118405
0.404391
0.0113576
0.289244
-0.0101125
-0.0550922
-0.000545486
-0.00919231
-0.000231831
0.243437
0.394725
-0.00279946
0.0377389
-0.0325834
-0.0948364
-0.107386
-0.00329121
0.0352124
0.635483
0.0807408
-7.60925e-05
0.14203
-0.0103432
0.553311
-0.0241512
-0.032083
-0.0146653
-0.035896
-0.0207471
-0.0148552
-0.0117105
0.00112602
0.0545808
0.000149026
-0.140603
0.0283979
0.4883
-0.0740048
0.307253
0.00346491
-0.0642295
-0.0368732
0.294607
-0.014441
0.00013902
-0.0365439
-0.0136353
0.0396416
-0.0505201
-0.044882
0.00307422
-0.026739
-0.021743
-0.119178
1.05917e-05
0.0781678
-0.105061
0.270695
-0.0594764
0.138745
-0.126674
0.461262
0.00521762
-0.0599108
-0.0405459
0.576438
-0.123839
-0.0250134
-0.165913
-0.0655942
-0.146164
-0.0846086
0.277452
-0.00536506
0.339803
0.016644
-0.000700337
-0.0027669
0.123749
0.704127
9.58271e-05
-0.0478611
0.244931
3.58871e-05
-0.0414846
0.0559045
0.00803438
0.01691
-0.00340384
-0.0670641
-0.00872579
4.52254e-05
-0.0831645
0.37125
-0.00280412
-0.0316444
0.0031791
0.245366
-0.000731161
-0.00216045
-0.000504413
-0.00198289
0.128577
-0.00246726
0.000538752
-0.0352904
7.05813e-05
-0.150535
-0.032358
-0.168422
-0.0405676
0.028246
-0.000261667
-0.0280418
-0.105855
0.0990787
0.438996
-0.00329015
-0.10695
-0.0095863
0.00977246
0.250659
0.000638231
-0.000231255
0.245769
0.0725858
0.0276085
-0.00579495
-0.00349426
-0.0988461
-0.000317774
-0.00951727
-0.0234153
0.38128
0.374951
-0.055133
-0.101781
0.0136388
0.00179446
0.0485076
-0.115349
-0.0335585
3.42487e-06
0.0330503
-0.0450522
-0.127701
0.0017225
-0.0784576
-0.000619381
-0.00559347
0.275794
-0.055895
-5.77059e-07
-0.00483273
-0.103069
-0.000179646
-0.0404219
-6.26169e-05
0.00402428
-0.157843
-0.0577466
-2.59096e-05
4.75941e-05
0.175872
-0.0855331
0.469615
0.39476
0.0206697
-0.00161865
-0.0332786
0.000309362
-0.0925407
-0.132289
0.0501419
-0.0315944
0.393351
0.0112083
0.000322486
0.00542242
-0.149369
0.00329063
-0.0478817
-0.102691
-0.00369228
0.0309753
0.100769
0.0100969
-0.0472772
-0.0843045
0.254683
-0.0558245
4.46441e-07
-0.147628
-0.102778
-0.0643638
0.00330654
0.00114827
0.00871428
-0.156974
0.0479529
-0.0493564
0.221076
-0.0726901
0.00709132
0.0264972
0.0188051
-0.0516679
-0.109752
-0.000212746
0.199389
0.277208
0.0105552
0.342949
-0.11567
0.0680129
-0.0855622
0.267836
0.143167
0.669388
8.43542e-06
0.152288
0.246434
0.0207856
-0.00199937
-0.0244182
0.0145041
6.59022e-05
-0.0272361
-0.0901909
-0.0270286
-0.0326167
0.000177198
-0.0683247
-0.000559483
-0.000952427
0.310745
0.00633026
0.170077
0.0281932
0.271984
0.012317
-0.000756709
-0.121125
0.00828829
0.454274
0.00151068
-0.0938676
-0.000388532
-0.00061486
0.00563938
-0.0812751
-1.58222e-05
-0.0139667
0.041585
-0.00218592
4.84741e-05
-4.63227e-05
0.20455
-0.0324484
0.00754222
-0.0012622
0.0100925
0.0219734
0.00950417
-0.000456099
0.483698
-0.100972
0.290404
0.425255
-0.000172087
0.153522
0.168721
-0.00095652
-0.000347977
-0.000877076
0.0118378
0.0186096
-0.027796
-0.041411
-0.116707
0.231777
-0.134241
1.57181e-05
-0.0295007
-0.0331601
-0.0518644
-0.00551648
0.00635617
0.00146867
0.0401119
-0.000520682
-0.000418402
-0.0278207
-0.00617704
-0.0381569
-2.03669e-06
-0.0223085
0.049102
-0.0199851
-0.0407757
-0.0123391
-0.0169717
-0.0126261
-0.00717656
0.0067213
-0.0126465
-8.42393e-05
-0.000607769
0.03193
-0.0171308
-0.00704439
0.0100093
-0.00067539
-0.194101
-0.0165036
0.209593
-0.0171433
-0.0911543
-0.0454054
-0.0349314
-0.0227702
-0.00504836
0.00195467
-0.00488984
-0.0188723
-0.0228681
0.271605
0.218509
0.0769491
0.42439
-4.19951e-05
-0.006675
-0.0226926
-0.0119363
0.158942
-0.0299339
0.0772011
-0.00833879
0.301663
-0.00277811
-0.0024375
0.0199292
-0.0385565
-0.000253788
-0.0430714
-0.00804568
-0.0300353
-3.66382e-06
-0.00900034
0.00234077
-0.0267363
0.0504775
0.0513521
0.0266561
-0.0205622
-0.0484056
0.159069
-0.00204129
-0.0025293
-0.00262938
0.588628
-0.000153263
0.11046
-0.0299043
-0.0311773
-0.0368925
-0.075467
-0.0413347
-0.0521933
-0.0293757
-0.00675393
-7.4088e-05
-0.00569778
-0.0301554
0.139641
0.00202164
0.257998
-0.0507483
-0.0200136
-0.000985447
-0.0446716
-7.53483e-05
0.199686
-0.0469301
-0.0401697
-0.0368221
-0.00821823
-0.0558437
-0.00198596
-0.0629391
0.14197
-0.0384524
-0.130545
-0.00172866
-0.0403551
-0.0282994
0.0211564
-0.0046152
0.191557
-0.00298804
-0.0258634
-0.000956939
0.213711
-0.0601283
-0.0383957
-0.00408156
-0.014652
-0.00392499
0.281082
0.020022
0.328853
-0.00895742
-0.0012414
-0.00148111
-0.00331111
0.292573
-0.100377
-0.010463
0.00035643
-0.0177088
-0.0271537
-0.00159209
-0.0320764
-0.0236759
0.0820798
-0.00687074
0.00115694
0.551463
-0.100328
-0.0400306
-0.0941555
4.19495e-05
0.107263
-0.00478853
-0.0381294
-0.00841128
-0.0545974
0.00371523
-0.000660447
-0.00366308
0.00402705
0.261905
-0.00779384
-0.00236833
-0.00665937
-0.0951075
-0.012053
-0.0311432
0.00425931
-0.0122421
-0.0120904
-0.00457251
0.270316
-0.0720801
0.00392045
-0.00547954
-0.0401519
-0.0190011
-0.076756
-0.0021454
0.129653
0.0319055
-0.0117319
-0.00250515
-0.0212643
0.616107
0.263576
-0.0165268
-0.000598988
-0.00331979
-0.00134028
-0.00584282
0.0288419
-0.00054736
-0.0351082
-0.00247651
-0.0240014
-0.0400927
-0.00175149
-0.0234457
-0.00166085
0.404646
-0.0104973
-0.0165952
-0.0122981
-0.0022527
-0.0431217
0.149983
0.549661
-0.0162063
-0.0175846
-0.00255792
-0.000723439
1.11292e-05
3.09409e-07
-0.015185
-0.000820043
0.188438
-0.00105574
-0.00235084
0.0097401
-0.000232195
-0.0691227
-0.107151
0.0239439
0.0567413
0.0372394
0.12229
-0.0744357
0.127461
0.0984103
0.13396
0.167453
-0.0182739
-0.00112749
-0.0112544
-0.11989
-0.00454878
-0.0221493
0.0941772
0.455953
-0.0942357
-0.000514328
-2.33011e-05
-0.0016784
6.92274e-06
0.00850717
-0.000804483
-0.00904803
-0.073694
0.000583429
0.00310922
-0.000201385
0.102957
-0.0220979
-0.0582493
-0.00206687
0.404511
0.410608
-0.0156274
-0.120352
-0.0414518
-0.034248
-0.0218604
-0.00256835
-0.136022
-0.0638924
-0.0719696
-0.0448135
-6.01486e-05
0.270221
-0.0334335
-0.0133392
-0.0593116
0.0255511
-0.000622505
-0.01277
-0.0016224
0.0144346
-0.00279754
0.256623
0.000370451
0.0134838
-0.00038708
-0.0924823
0.0116989
-0.0015061
0.00962678
0.000376659
0.0709671
0.173591
-0.00338872
-0.00183911
-9.79681e-05
-0.000682972
-0.000563913
-0.0955777
0.170574
0.0520723
-0.000224504
0.00954641
-0.000575839
0.295215
-0.0963148
0.351944
-0.0674953
-0.000451423
-0.000416237
-0.0112189
-0.00772447
-0.000968848
-3.14924e-06
0.0347313
0.0408517
-0.000204548
-0.0005301
-0.0291347
-3.71024e-06
0.224452
-0.00130488
-0.0822321
-0.0288716
-0.00865954
-0.0880239
-0.102146
0.203362
-0.0405077
-0.029065
-0.000295598
-0.087431
-0.0288323
0.0373944
0.189625
0.45026
-0.00131443
-0.0936865
0.0137064
0.417063
0.0563185
-8.61592e-05
-0.00904348
-0.00544043
-0.0072562
-0.0642107
0.134162
0.000135477
0.0230321
0.00240828
0.120376
-0.000563931
-0.000155524
-0.0917079
0.38566
-0.084041
0.219802
-0.00250282
-0.000180387
-5.81229e-08
-0.134942
-0.0555728
-0.000462394
0.163374
0.0150758
-0.0077151
0.493362
-0.000693347
-0.0057622
-0.096427
-0.0478382
-0.00283467
0.183201
-0.105072
-0.000119294
0.012612
-0.000227073
-8.04713e-05
0.200579
-0.00680418
-0.000432537
-0.074588
-0.0372656
-0.00438208
-0.0553152
0.00286121
-0.0319691
0.00176392
-0.00498784
-0.102576
-0.058672
0.024035
-0.00130568
0.218925
0.272095
-0.133814
0.0106061
0.0261753
-0.00629752
0.221909
0.162252
-0.0394768
-0.000140821
0.0114199
-0.077136
0.0113167
-0.0460663
-0.00301256
0.0664416
-0.0432115
-9.49453e-05
-5.84776e-05
-0.063388
-0.047686
-0.0370906
0.0114894
0.0263103
-0.0717619
-0.000179286
-0.00223118
-0.000253942
-0.0629299
-5.22888e-06
-0.00257238
-0.0831897
-0.159188
0.200716
-0.00424991
0.00520177
-0.0348014
-0.0373801
-0.000107739
-0.0623271
0.20148
0.211004
2.73748e-05
-7.38416e-05
0.21465
-0.00358309
-0.1491
-0.0536737
0.00415047
0.000316818
-0.0990036
-0.0349942
0.219593
-0.0788841
-0.00181687
-0.021341
-0.091461
-0.00071973
-0.000200115
-0.0012361
-0.00936387
-0.0758799
0.229145
-0.000181484
0.576812
0.010285
0.000105738
-0.00172621
0.000211474
0.000244668
-2.42586e-07
0.00013159
-0.0766966
-0.0010421
0.000451277
-0.000159289
0.190592
-0.00795665
-0.000161391
-3.32571e-05
0.487861
-0.0335787
-0.0398157
0.00107426
-0.000892684
0.0883678
-8.3958e-05
-0.0269558
-0.135077
0.00261873
-0.0126619
-6.59856e-05
-0.000192313
-0.0494916
-0.112033
0.00946705
-0.137019
-0.0901247
-7.01257e-06
0.0298419
0.0464587
0.150773
-0.00212625
-0.000126508
-0.0903339
-0.00852644
-0.000793043
-0.0730345
-0.000110826
0.058344
-0.00013905
-0.00143672
0.0533817
-0.0041659
-0.0890853
0.556619
-0.002539
0.00028113
-0.0951903
-0.100737
0.0110199
0.0059137
-0.000108715
-0.0470591
-6.55297e-05
0.258858
0.658089
0.138677
0.00371759
0.00434633
-2.58136e-06
-0.0453398
-4.33182e-05
-0.0167605
-0.00233379
0.000335599
-0.00433547
-0.0180033
-8.45827e-05
0.000918666
-0.0177908
-0.0002994
-0.0177887
-0.0255416
-0.0196024
-0.00214797
0.600179
-0.00129215
0.00294964
0.000245753
0.0189034
-0.0717055
0.0126402
-0.000157219
-6.54528e-05
0.00255427
-9.06861e-05
-1.6418e-05
-0.0214352
0.000745667
-5.37281e-06
-0.0789746
-0.00451364
-0.0790557
-0.0021718
-3.58137e-05
-0.00390703
-0.0219048
-0.0259897
-0.0468796
0.00277581
0.000497803
-0.000546794
-0.00226325
-6.61013e-05
0.363913
0.00180353
-3.14766e-06
0.000466387
-0.00295504
-0.000580548
-0.0903107
-0.079686
-0.000174852
-0.0103245
1.96628e-05
-0.00555625
-4.27447e-05
0.0506217
-0.000120678
-0.000252319
-0.00709523
-6.6408e-06
0.0183716
-0.000216979
-0.00154231
0.0261746
1.93029e-05
0.47755
-0.0844494
-0.0645779
-7.12888e-06
-4.1984e-06
0.00204309
-0.0013842
-0.087672
-2.313e-06
4.27241e-06
0.000759664
-5.20785e-07
0.00038799
0.000471934
-0.000510035
0.000847957
-0.0775263
0.587941
-0.0637186
0.444957
0.012001
-0.0306615
-2.43679e-06
-0.000925475
-0.0189839
0.000138422
0.000289553
0.00016868
0.114047
-0.00271115
-0.000329786
0.549688
-0.000478157
0.000507116
0.00053054
-1.58921e-07
0.117601
-0.00318123
0.00126197
0.000120682
-0.00116492
-3.35163e-05
-0.00199948
-0.0692218
-0.000413861
-0.00338461
-1.6735e-07
-0.00331366
-0.000202834
0.253714
-0.000464421
-0.000528445
-0.0946627
0.00462339
-0.000111957
-0.00169235
-2.76864e-05
0.233388
-0.114814
-0.000661951
-0.000361729
-0.00424358
-0.000287828
0.0837506
0.168633
0.062902
0.000390841
-6.95866e-07
2.00617e-07
0.0881278
0.000256746
-0.0813402
-0.0490967
-0.0264423
0.0428476
0.614181
0.00231947
0.285898
-0.0247695
-0.0463225
0.237309
-0.000310744
-0.101706
-3.60402e-07
-0.0137983
-0.0664521
5.99043e-05
-0.0903378
-0.0010455
-0.0190188
-0.010937
-0.0575076
-0.0643836
-0.00686162
-0.103014
-0.0597951
-0.00011687
-0.0159222
-5.12057e-05
-0.0507946
-6.15833e-06
-0.00012566
0.0245415
0.225368
6.39826e-07
-0.0722132
0.00421519
8.36632e-05
-0.0377959
1.11282e-05
-0.0177284
-0.000346982
-0.0520547
0.000123828
-6.20737e-05
-0.00358832
-8.9439e-05
0.220415
-0.0479474
0.132845
-1.87073e-05
0.000666457
-0.0430963
1.85305e-06
-0.0899409
-0.100305
-0.0812683
0.584976
-0.00978072
-2.50265e-06
0.0365299
-0.0572754
-0.00522042
-3.16679e-05
-5.63833e-05
-0.0715314
0.000123688
0.000945303
1.03269e-06
0.000150602
-0.037613
0.223016
-0.106518
0.148225
-0.00786456
-1.19092e-08
0.00642594
-0.0943761
-3.13e-06
-1.00078e-06
0.000330156
6.91641e-05
0.000423069
0.367308
0.0508937
6.14742e-05
1.65726e-05
-0.0978822
0.27395
0.248725
-7.89224e-06
-0.0560329
-0.0350648
-0.0193831
-0.0704221
-0.0161641
-0.00391917
0.197024
-2.57963e-05
-0.0410635
0.233832
-0.077236
-4.94526e-06
-0.0886589
-0.00014303
0.432031
0.0394443
-6.87799e-06
-8.84535e-06
0.262894
4.70963e-06
-0.000164558
-0.0156894
2.22271e-05
0.352353
0.00275589
-0.0096401
-0.0920204
-0.00539788
-0.138203
0.252967
-0.0271727
-0.0352903
0.00107455
-2.9513e-06
-0.00159595
4.51233e-06
-5.09964e-07
0.0341078
0.24764
0.208486
-0.00052436
0.325452
-0.0247805
1.35239e-05
-0.0632306
-4.3338e-06
-0.0440971
0.0413189
-0.0265219
0.00492278
0.00215315
-0.0121363
0.000188145
-0.00230164
0.0262443
-0.00335578
-3.77079e-05
3.43418e-05
-3.09292e-05
0.0450023
6.28593e-05
-0.0419373
0.342405
-0.00961822
5.59979e-05
-0.00445085
3.9062e-06
0.154274
-0.000278884
-3.62311e-05
-3.5928e-05
2.72143e-07
0.284577
-0.000161162
0.337725
-0.10736
0.000108727
-0.0879869
-0.000944481
0.217062
0.558081
-0.00151391
3.00294e-06
2.44326e-05
-3.75477e-06
0.212419
9.69915e-07
0.00105936
-0.0318873
0.317951
1.08367e-05
2.24427e-05
3.53721e-06
2.91804e-05
-0.0318029
2.34185e-06
0.410336
-0.0289094
-6.86671e-05
3.32967e-05
-0.00236051
-0.0400505
1.75772e-06
-2.49466e-05
0.228477
3.84233e-05
-0.0503067
-0.0950086
0.000133018
1.07617e-06
-0.180431
1.52665e-06
0.235313
1.70957e-05
-0.000500668
1.62641e-05
-0.000103226
0.133401
6.89257e-06
-0.00215166
1.56177e-05
0.014963
-0.00520315
-0.0080958
-0.00131108
0.213368
-0.000486147
-5.778e-05
-0.0115648
-0.0115001
-0.000169251
-6.70424e-05
-0.00123225
4.74533e-05
0.288639
-0.018496
0.603947
5.60557e-06
-0.0108839
-0.00026726
0.199555
6.40436e-05
-0.0438973
2.73147e-05
-0.00200517
-0.0519386
-0.000178572
-0.0240912
-0.0792627
0.00521807
4.26309e-06
-0.106087
-0.00023276
-0.00061445
-0.00755656
-0.0310494
0.00125551
-8.05636e-05
-0.000461817
-0.00184869
-0.00155982
2.13039e-05
-0.00141156
0.553214
0.000102567
-0.00403711
-0.0544441
-0.0999031
-0.0995342
-0.0663035
-0.034148
-0.00108522
-0.0334213
8.39843e-05
-5.43708e-05
0.57386
-5.70257e-05
0.2687
-0.000347044
0.000365668
-0.00126578
-0.108
-0.000419084
-0.00109693
1.21887e-07
-0.000371039
-6.03271e-06
-4.90556e-05
-0.0197463
-9.40134e-05
-2.89589e-05
-4.94752e-05
8.46041e-05
3.9265e-06
-0.0711649
0.370558
7.63437e-07
-0.000496071
-4.37422e-05
3.59769e-05
-0.000836634
1.31861e-05
-0.000952315
0.000247147
-0.000326061
-0.0980369
-0.00073874
-0.00263081
8.34193e-06
-0.00314953
0.000336279
-1.76598e-06
1.74749e-06
1.62591e-05
-0.00070763
0.000510623
-0.0732401
-0.0465704
-0.0959377
-0.000144637
-0.00396168
-0.0168603
-0.0936019
-4.67907e-05
0.0192727
0.00762538
-0.000932416
-0.0178376
-0.0760511
0.549281
-0.000358347
-8.44462e-07
0.000760654
5.6104e-05
2.1482e-05
0.106672
0.00329726
0.124223
-0.0682439
0.521237
-0.000415745
5.13159e-06
0.000146239
-1.91891e-06
-0.00130077
0.225929
0.294567
5.67491e-06
-0.000150013
-1.70427e-06
0.281144
0.0225279
-0.0138948
1.39114e-05
2.26296e-05
0.00908305
-0.000595665
-0.119237
-0.0259205
3.3071e-05
0.0038581
-0.0537801
-3.09426e-05
0.00191887
-5.55275e-05
-0.0688027
-0.00180094
0.212098
1.98728e-05
0.00186979
-0.00224551
1.94384e-05
0.00016557
-0.0360392
1.85301e-05
-0.000820845
3.02605e-05
-0.0249858
-0.0655799
-0.00638367
-0.0153828
-0.0111858
0.0117958
-0.0129152
-0.00271039
7.41963e-05
9.97802e-05
2.72051e-05
2.35466e-05
-2.61137e-05
0.0106349
-0.102407
0.000485245
-0.0829008
-0.00335472
-0.0933791
9.31165e-05
9.95278e-06
0.00141136
-0.0551832
2.30774e-05
-0.0816167
-0.0246251
0.0836162
-0.0835903
3.23521e-05
-0.00380038
0.000183968
-0.138808
0.185724
2.15699e-05
-0.0999177
-0.0386094
-0.00481377
4.5629e-05
1.6899e-06
0.0375886
-0.0210571
3.24021e-05
-0.00894097
6.09717e-06
0.000200721
0.175336
7.89441e-07
1.40299e-05
-0.000100725
4.16627e-05
0.000943059
9.12937e-05
-0.00601309
0.000210853
-0.019197
0.001138
-0.000231403
-0.0594009
-0.0687644
-0.00911617
-1.89733e-06
2.74375e-05
-0.114241
0.00690546
-0.0740443
3.72086e-05
-0.00732214
-5.73498e-06
3.1309e-05
0.109834
-0.0081874
-0.00302143
1.09024e-05
-0.0296469
5.56741e-05
-0.106561
3.45115e-05
-0.121837
2.7177e-05
1.38618e-06
9.0119e-05
0.00108755
-0.112146
-0.0231218
-0.119082
2.51776e-05
9.05677e-05
-0.120958
-0.0489964
-0.0101324
4.48155e-06
-0.0491633
-0.0879205
-0.119069
1.47528e-05
3.26824e-06
9.79458e-06
-0.121018
-0.116717
0.000699626
-0.0133323
-3.81764e-05
0.354713
9.7641e-05
2.42696e-05
0.000145769
-6.39471e-06
3.49757e-06
-0.00499882
0.000104863
-0.0035272
-0.113829
-0.0161915
-0.0767829
4.62572e-05
-2.04671e-05
0.0778962
-0.0935207
-0.00542891
0.15908
-5.06013e-06
1.15011e-06
1.52863e-06
0.198704
0.000167232
-4.57455e-05
8.10514e-06
-0.112087
-0.0194148
1.56978e-05
1.47275e-05
-0.0138924
-0.00745128
0.000370169
0.299452
-0.106178
-0.000799955
0.699622
-3.67199e-05
-0.00119536
-0.0152707
-0.116913
1.66063e-05
6.67075e-06
2.56747e-05
0.00541323
-0.0607629
-0.000422702
-0.082154
-0.00913794
3.49985e-05
1.03918e-06
-0.0122482
-0.0137598
-0.0126543
-0.086237
-0.0667015
-0.0601068
0.018113
-0.0445387
-3.51806e-05
0.000320269
0.00932123
0.000546685
-0.000204925
0.000709706
3.19012e-05
-0.000174301
-0.0147311
-6.65823e-07
-1.24016e-05
0.0534478
-0.032333
-0.000403592
-0.000102317
6.22884e-06
0.322591
-0.00980373
0.000697659
-0.0467466
0.000224622
0.000190095
0.000165928
-2.54798e-05
0.000454055
-0.062214
0.0201828
1.84296e-07
-0.000326889
-0.0713603
-0.0571163
0.0683538
-0.000380215
0.00209266
0.0236704
1.32744e-05
6.27716e-05
-0.0882006
2.68758e-05
0.221995
1.14489e-05
0.00495653
0.000162423
0.000211088
-0.10506
-0.0112498
-0.0274493
-0.00271161
3.14779e-05
0.00588941
0.0865323
-0.0193081
-0.000114049
0.133348
0.218482
9.01694e-06
-0.0827253
-4.525e-05
3.69777e-06
-1.7551e-05
-0.000452732
0.0265124
-6.58987e-06
0.000228368
-0.0329852
-0.0395771
-0.0278017
0.39599
2.30009e-05
-4.07523e-05
0.228194
-0.0167798
-0.00537915
-0.00054027
0.225555
4.56011e-05
-0.000747966
2.7762e-05
1.88576e-05
3.73769e-05
4.23162e-05
7.70243e-05
-0.0232778
1.90002e-05
-0.00509167
-0.0672831
0.334704
-0.00047989
-2.15623e-05
0.00555347
0.12001
-0.0869564
-0.000649209
-0.0966495
0.396893
4.88142e-05
0.501756
3.75531e-06
0.00351272
0.0329418
0.000417987
0.525998
-4.04711e-05
2.561e-06
0.00109607
3.73014e-05
-0.000762554
0.000250955
2.13036e-05
-0.00227313
-5.17704e-06
-0.000126455
-0.0041752
0.318511
0.0744088
0.0296665
-0.0627289
2.11513e-06
-2.66859e-06
0.00341181
-0.102664
3.72117e-06
-0.0682198
-2.81252e-05
0.146002
0.0872771
-0.056538
-0.0016811
-0.0202221
-0.00086751
-0.0184424
0.0013996
-0.0129598
0.0915434
4.18792e-06
0.375996
0.0657385
-0.00131937
0.289969
-0.0204201
-1.1066e-06
2.98324e-05
7.20945e-05
-0.000131263
-0.000126601
0.318691
-0.00106807
0.329376
-0.00232041
0.222781
0.306497
0.197245
-0.0105094
7.49092e-06
8.3188e-06
-0.0129129
-0.184829
-0.0843638
0.001633
1.63107e-05
-0.0555286
-0.000891775
-4.77029e-05
0.00107383
-0.00112116
-0.00161842
0.0461206
8.01657e-05
-0.0680088
0.0838559
6.3254e-05
0.000240005
-0.0251221
-0.107533
-0.000726679
-0.000461535
1.99513e-05
0.000214822
0.166244
-0.0280494
-0.0844329
0.00138341
0.168701
-0.0650814
3.87197e-05
3.15134e-05
0.0370254
-0.000185992
0.143799
-0.00321271
-0.0169118
-0.000454351
0.00168201
-0.0623711
-0.000108467
0.000468311
-0.00605883
-0.11853
0.235712
-0.0929725
-0.0431578
-0.0003518
-1.72958e-05
0.00835617
5.28862e-05
-0.116289
-0.115406
0.000548701
0.00321896
0.00449131
-0.169216
0.000617342
0.000152964
3.53774e-05
-0.0682017
3.67206e-05
0.000548821
0.1702
0.242715
-0.180817
0.0694545
0.0686733
0.0327341
-0.000431053
0.012788
0.000123557
1.01613e-05
-0.000215113
2.56723e-06
-0.000111493
-0.000334599
-0.0112969
-0.0950994
-0.0148321
-0.0520718
0.0758093
0.0622813
0.00459532
-0.113076
0.000115762
0.00463261
0.0135375
-0.000408976
0.110614
-0.00289078
-0.0178612
0.0143866
0.0067324
-0.000208598
-0.00580263
0.0621014
0.000799359
-0.0304271
-0.02627
0.616502
-0.0420278
0.118629
0.0438557
-0.0677328
0.00240513
5.52137e-05
-0.00285835
3.18481e-05
-0.00283855
-0.0417263
-4.41525e-05
-0.000254448
0.396482
-0.00357561
-0.0672859
-0.0238229
9.55863e-05
-0.00360987
-5.23656e-06
1.67561e-05
0.0550453
4.76608e-05
-0.00318689
0.112714
0.00677496
0.0011986
0.0235913
-0.00846226
0.00500994
-0.166869
0.000813314
-0.00631465
-0.094105
-0.00135611
-0.0120931
0.000562363
-0.00169122
0.00100087
0.0533142
-0.000796431
0.00660256
-0.0766695
-0.033065
9.95069e-05
-0.073696
-0.0229213
-0.0219596
-1.00765e-05
0.00809857
-0.130117
-0.000879223
-0.00755337
-0.0690111
-0.00342965
-0.00142812
0.304891
-0.0406026
-6.89808e-06
0.0104172
-0.0912859
-0.00116888
0.262033
-0.00489583
0.00104831
0.0843312
-0.00180829
0.00956693
0.177045
-0.000282704
0.00123789
0.000159737
-1.66286e-06
-0.00510417
-0.0134496
-0.000504986
-0.0375391
0.144083
-0.0540141
-0.137449
0.00123729
-0.00423268
-0.00141307
-0.0839454
-2.87728e-06
0.0206646
-4.08372e-05
-0.020267
-0.00222179
-0.00569189
0.0288844
0.175652
-0.147818
-2.9713e-05
0.28738
-0.00355034
-0.00591524
-0.0926682
-0.155941
-0.024806
-9.37018e-06
-0.00249213
0.0088379
-0.00387541
-0.00679347
0.000194453
0.125519
-0.0795498
-0.016853
-0.00780457
0.0319999
-0.00851705
-0.00577377
0.00186691
-0.000593905
-0.00380615
0.170416
0.000657226
-0.1824
-0.000241302
-0.00868463
-0.00770787
-0.16753
-0.0181522
-0.195241
-3.8406e-05
-3.97432e-05
-0.0114967
0.0127519
0.00123
-0.215334
0.131524
-0.0834595
0.000160536
-0.228665
-0.000277216
-0.234026
-0.0402845
-0.228843
-0.217779
-0.196207
-0.128472
-0.00298707
0.0444712
0.0877356
0.13132
0.173852
0.291628
0.328377
0.362542
0.41841
-0.00962834
-0.0122332
0.0992302
-0.0363418
0.000810469
0.0188424
-0.0666572
0.000155757
-0.00173342
1.18658e-06
-0.0232817
0.0234616
5.15379e-05
-0.000940596
-0.0126597
-0.0173418
-0.239933
-0.0282163
-0.0956424
-0.000113703
0.00038684
-1.03955e-05
-0.102719
-0.0143948
-0.0625938
-0.0232556
0.00182444
-5.87816e-05
0.00560229
-7.1436e-06
-0.0258334
-0.000112411
0.000341038
-0.0149796
-0.0140363
-0.00124233
0.000298955
0.0687211
-0.0168204
0.0984634
-0.238664
-0.0187986
0.254224
-0.0287975
0.0039038
-0.0351633
-0.00481217
-0.0154705
-0.0227777
0.427045
-0.00312669
5.36761e-05
-0.00895246
-0.0150728
5.23428e-06
0.115187
-0.00727175
0.406274
-0.051705
-0.0644739
-0.042455
0.0688866
-0.00989394
-2.38608e-05
-3.80049e-07
-0.00620131
-0.110737
4.61074e-05
0.470001
-0.00382131
-0.0079176
-0.000574181
-0.000375936
-0.0123851
0.214421
-0.0699893
0.169824
0.000617813
-0.021574
1.02967e-06
0.0368924
-0.0151815
0.0260544
-0.0384471
-0.00788236
-0.00305161
0.00089751
0.0143579
-1.1425e-06
-0.0183188
-0.000132019
-0.000435597
0.000463869
-0.0516719
-0.000232622
0.201574
-0.015798
0.00382