/*--------------------------------*- C++ -*----------------------------------*\
  =========                 |
  \\      /  F ield         | OpenFOAM: The Open Source CFD Toolbox
   \\    /   O peration     | Website:  https://openfoam.org
    \\  /    A nd           | Version:  7
     \\/     M anipulation  |
\*---------------------------------------------------------------------------*/
FoamFile
{
    version     2.0;
    format      ascii;
    class       volScalarField;
    location    "36.5";
    object      p;
}
// * * * * * * * * * * * * * * * * * * * * * * * * * * * * * * * * * * * * * //

dimensions      [0 2 -2 0 0 0 0];

internalField   nonuniform List<scalar> 
7807
(
0.210762
-0.0245058
0.323325
0.19812
-0.000630904
-2.13571e-06
0.318509
-0.00332586
-7.02285e-05
0.0742847
-2.01664e-06
0.00108764
-0.00508842
0.0329222
0.0778504
-0.0122498
0.222703
-0.00687844
-0.00187432
-0.0821712
0.0444489
0.000637163
0.0226815
0.153344
-0.00898309
0.219362
-0.000591292
0.0422832
0.1271
-0.00107006
-0.0145074
0.443557
0.022053
-0.000260003
-1.36697e-05
0.0592174
-0.000970364
0.308386
-0.00506861
-9.92112e-05
-0.00495538
-0.0114321
-0.0958665
-0.0876223
-3.92384e-05
-9.65536e-06
0.000614434
-0.0051115
-1.24794e-05
-0.0822923
0.00187411
0.0397519
-0.0112727
-0.0146104
0.0584208
-0.00327967
-0.00171706
-0.00316019
-0.0211295
-0.000248659
3.612e-07
0.00257508
0.0332698
0.00125504
-0.000349267
-0.014746
-5.99532e-05
-7.74721e-07
0.0422126
-0.00483163
-8.48705e-06
-0.0535868
-0.00874049
-0.0149718
-0.00670286
-0.0301661
0.319513
0.0435692
0.0256265
-0.0481595
-0.00493491
0.271729
0.0689455
-0.017463
-0.00135562
-0.00110005
-0.0037919
-0.0110394
-0.000565555
-0.00225288
0.130068
-0.0999872
-3.16527e-05
-0.00113271
-0.00204847
-0.0134433
-0.0509354
-0.0122846
-0.00140408
-0.000455216
-0.0273048
0.0330562
-0.00196881
3.63864e-07
-0.090547
0.133462
0.374041
-0.00342141
1.22235e-07
0.0169037
0.185295
-0.0682632
-2.6381e-07
0.0182074
0.133815
7.9421e-05
-0.094003
0.104326
-0.0391721
-0.0163399
-0.0257954
0.25831
-0.091325
0.00576554
-0.0249603
-0.000777482
-0.0125356
-0.000848204
-0.000371155
-0.0146308
-0.155878
0.0271888
-0.00035526
-0.000629575
-0.0179175
0.178414
0.313372
5.96702e-07
0.00509912
-0.0356839
-0.0137029
-0.0536455
-0.0317691
-0.0143874
0.372959
-0.031899
0.127827
-0.0229342
-0.0174069
0.257978
0.0561601
-0.0875871
-0.00129718
0.0217837
0.0687072
0.286612
-0.036237
-0.00481935
0.383867
-1.05858e-05
-0.00173905
0.159028
-3.91422e-06
-0.00258949
-0.00228293
0.200077
0.200608
0.400509
-0.00267367
-0.00161954
-7.75496e-07
-0.0211945
7.9547e-05
-0.0181444
0.00565611
-0.0173149
-0.0678099
0.104042
-3.77602e-05
-0.000341953
0.203085
-6.47254e-06
-1.45091e-05
0.322968
-0.0297062
-0.0537832
-0.0374455
-0.0152612
-0.0342506
-0.0367623
-3.57607e-06
-0.0487326
0.109511
-0.00210148
5.29762e-06
0.149133
-0.000603455
-0.0137995
-0.0314604
-3.44982e-07
9.94958e-05
0.183422
0.138376
0.284602
-0.0875069
-0.0639769
-0.154295
0.0467106
0.180751
-4.34611e-05
3.73479e-07
0.349493
-0.010409
-0.000344285
-0.0471306
-0.0131888
0.259919
0.264759
-0.0582643
0.431444
-0.000564319
-0.00653807
-0.0275636
0.0567628
-0.119611
0.180505
0.379074
-4.8044e-06
0.00636395
0.112231
-0.00430246
0.101641
-0.000544257
0.433211
0.279089
-0.00357947
-0.000161933
-9.05073e-05
0.0994743
-1.00042e-05
-0.0078669
-0.0390402
-1.2709e-05
-0.00145598
-0.000475458
0.116137
-5.4424e-06
-0.00232544
-0.0475991
0.439129
0.0197581
0.405546
-2.27919e-06
-0.033213
-0.000125324
0.300607
0.00241793
0.314316
-0.00180557
-2.10373e-05
-0.0128545
0.0492785
0.000178997
-6.10738e-05
0.000133441
-0.00458048
-0.0569103
-2.31772e-06
-0.0349196
-0.00218216
-3.53306e-05
-0.000384399
0.307909
-0.00439067
-0.0002679
0.396402
-0.00148391
0.201443
-0.000126442
-0.00822035
-4.30471e-07
-0.03291
0.0541251
-0.0595661
-0.0221536
-0.000300122
-0.0685949
-0.00907489
-2.95494e-05
0.000127013
-0.00226592
-0.00463238
0.00165186
-0.00114715
-0.0168315
-0.0520683
-0.015635
-0.0742529
-0.0196172
0.282188
0.294615
-0.000877198
-0.0937197
3.79692e-07
-0.00270323
-0.0131226
0.149074
0.0788584
9.68002e-06
-0.00251513
-0.0191376
0.124797
-0.00077713
0.00212117
0.000471532
0.0107002
-0.170306
0.27489
-0.000775974
-0.0289606
-3.60558e-05
0.00134208
-7.3726e-06
-0.0201451
-0.0001084
-0.00476116
-0.125918
-0.0300678
-0.00675804
0.00568218
-0.000255714
0.0116179
-0.0126818
0.0458437
0.119342
-0.198388
-0.0940677
-0.0092416
0.00300285
-0.0391358
0.40737
-0.0822561
0.0253119
0.423571
-0.000757448
-0.00109176
-0.0969208
-0.00111381
-0.0286667
0.00430575
-0.00145648
-0.001015
0.119294
-4.80007e-05
0.000166952
5.11388e-06
-0.00179099
-0.00780149
1.8073e-07
-0.000486559
-0.0202655
0.355666
-0.00684925
-0.009944
0.354148
0.229282
0.0364304
-0.080762
-0.0211393
0.00276908
0.193807
-0.00672554
0.234337
-0.0386496
-0.112026
0.141101
0.237165
-0.0310105
0.0726889
0.178533
0.212001
0.0450094
-0.00201644
-0.00303297
-1.81785e-05
-0.00958065
-0.00680073
7.73219e-05
-2.21374e-05
-0.000945382
-0.0665287
0.0464351
-0.0120356
-0.00614427
-0.00220314
-0.0299132
-0.00445137
-0.000692514
0.151125
-0.000923415
-1.13769e-05
-5.21277e-05
-8.51355e-06
-0.0149071
0.115378
-0.00235866
0.0236722
-0.132957
0.299969
0.000566345
0.0042887
-0.00366602
0.29712
-0.000440665
0.271805
0.130928
-2.32839e-05
-0.0404932
-0.00178677
-0.0527781
0.000179531
0.0446359
-0.00276455
0.00389403
-0.000365101
0.103126
0.127801
-0.060242
-0.0219052
-0.00243094
-0.031048
0.020252
0.434868
-0.0887825
0.00150102
-1.04136e-07
-0.00942875
-0.00118276
0.00994936
-0.103471
-0.105169
0.318153
0.11382
-0.142041
0.158217
0.28803
0.0255696
0.000239292
0.20463
-0.000995144
-8.78876e-05
-0.00908422
9.36021e-06
-0.169566
-0.00665932
-0.0301831
0.000823278
0.153724
-0.000928361
-9.45075e-06
-0.117222
0.000741601
-0.00422864
-0.0270242
-0.0307814
-0.0571267
0.113583
0.0913081
0.094212
-5.87102e-05
0.0375834
0.0524403
-0.000371533
-0.0117771
0.000202592
-0.00281404
-0.0138135
0.00296873
-0.000693283
0.0934744
-4.8875e-06
3.65313e-05
0.00095726
-0.0134558
0.0154098
-0.0267175
-0.0164621
-0.0512688
-0.13949
-0.00865604
0.197917
-0.110437
-0.00453045
0.433316
-0.0513906
-0.00818722
-0.0164518
-0.0111108
-0.0119406
-0.00721927
0.0214712
-0.0895286
-1.12372e-05
0.0183125
-1.91375e-05
0.280635
0.0516265
-0.00324763
-0.00771803
-5.23831e-05
0.272092
0.25775
0.0199661
0.101724
-0.0567144
0.318918
-4.22048e-05
-0.000126688
-0.00968468
0.110133
0.389949
0.00695479
0.10886
-0.00533038
-6.58392e-05
0.0880494
-0.133704
0.285385
-0.00131889
0.169734
-0.00474895
0.302811
0.243846
-0.00619497
-0.0053196
0.0649748
-0.0315915
-5.35564e-05
-0.00917546
-0.0355813
-0.0674442
0.00840751
0.00602369
-7.65993e-05
0.261552
-0.00415885
-3.13527e-05
-0.0479504
-0.000287123
-7.08301e-05
-0.0010185
0.169888
-0.102536
0.366772
4.50639e-06
0.168405
-0.0381196
-5.93266e-05
-3.86768e-07
0.12509
0.162771
-0.00291164
0.145138
-5.56268e-07
0.154368
-0.189208
-0.00642646
0.299526
-0.0443181
0.093708
-0.0150468
0.15256
0.160088
-0.0122796
-0.0155765
-0.00714607
-0.00162853
-9.78702e-05
-0.00399566
0.219631
-9.10879e-06
0.147736
-0.103849
0.250825
0.13917
-0.0349859
0.366199
-0.00106338
-0.00701512
-0.073517
-0.0122541
-0.00462761
-0.0407318
0.011018
0.410505
1.19465e-06
-0.00124212
-0.0638048
-6.09807e-07
0.288308
0.000772695
-1.08759e-06
3.14962e-05
0.000105478
-0.0186509
0.00950287
-0.000934885
-1.14497e-05
-0.00480654
-0.00220255
-0.109128
-0.0283685
0.0162363
3.17043e-07
-0.180506
-0.00847018
0.0718103
0.242894
-0.00012758
0.0797514
2.03184e-05
-0.00818162
0.0662757
-0.00486684
0.184871
-0.00947777
0.00247234
0.0690303
0.110979
-0.00140947
-0.00697442
0.134399
-0.0791572
0.307783
-0.00671065
0.21254
-0.00637135
-0.000601862
0.102651
-0.0121261
0.0622292
0.000819347
-9.47242e-07
-0.125778
0.145253
0.000140621
0.0680361
-0.00897559
-0.179104
-0.022031
-0.0280059
-0.00103563
-0.00468003
-0.0632285
-0.0181717
-0.00658812
-0.000145677
0.327519
0.0754517
0.0229364
-8.34749e-05
0.241188
-3.62428e-06
-7.44923e-05
0.0856744
-0.00881434
0.120386
0.0412365
0.0106187
-0.0768889
-0.143135
-0.0589264
0.00050028
-0.0268988
-1.33985e-05
-0.000320462
0.177907
-0.0117459
-0.0017823
-0.0255842
-0.00119581
-0.000427858
0.393638
-0.00712471
-0.000379953
8.20626e-07
0.102282
-0.0275955
-0.000243297
-0.00153381
0.120248
0.0535826
-0.0291731
-2.28187e-06
0.134486
-0.015975
0.144466
0.0128907
0.0165701
-0.0200787
-2.9094e-05
0.0671842
0.045641
-0.0230849
-0.0979841
0.218862
0.00380653
0.129792
-0.00665514
-0.0447599
-0.000153208
-0.00810405
-0.000124879
0.11951
0.196045
-0.000991966
0.0123099
-0.0111185
-0.0837331
-0.0902211
-0.00104121
-0.00131926
0.382012
-0.0399113
-4.69511e-05
0.0535946
-0.00522155
0.327837
-0.00849822
-0.0186842
-0.0190199
-0.0206879
-0.012893
-0.00513183
-0.00717116
-0.000576445
0.00422632
1.08118e-05
-0.183473
-0.060474
0.277611
-0.0282039
0.126318
0.000935685
-0.0760949
-0.0261908
0.157971
-0.0052061
-2.63891e-06
-0.0162197
-0.00648233
0.00192729
-0.0165557
-0.0160406
-0.0596022
-0.00862383
-0.0222506
-0.0745384
-7.64118e-07
0.017121
-0.0643303
0.102676
-0.0869192
0.0620692
-0.09687
0.251393
-0.0151872
-0.0204579
-0.0339752
0.342507
-0.15383
-0.00872816
-0.126581
-0.0559554
-0.120267
-0.0764966
0.125966
-0.00186742
0.18881
0.00593957
-0.000272033
-0.00124061
0.0450431
0.429917
-0.00103791
-0.0404796
0.126643
-2.46372e-07
-0.0149932
0.0210681
-0.0323093
0.00605942
-0.00140004
-0.0350607
-0.00461364
-4.95443e-07
-0.0427371
0.195634
-0.0127607
-0.0106805
0.000862343
0.126367
-0.000301757
-0.000697675
-0.000144184
-0.000947397
-0.00564755
-0.0171187
-0.00437885
-0.0125419
-2.02323e-06
-0.138046
-0.12263
-0.156914
-0.0248574
0.00967803
-7.30281e-05
-0.0117707
-0.0479656
-0.0223644
0.251625
-0.00156313
-0.0404309
-0.00343845
-0.0115878
0.104119
0.000122265
-9.1107e-05
0.0729633
-0.034376
0.00718134
-0.00201799
-0.00102111
-0.0469004
-0.000135899
-0.0158756
-0.00704485
0.214981
0.194817
-0.0682143
-0.0639181
0.00462627
-0.00707812
-0.0451564
-0.0739006
-0.0309019
-9.70179e-07
-0.0467097
-0.0140931
-0.0808151
-0.00980134
-0.0269298
-0.000197252
-0.00187216
0.140995
-0.0194714
-9.50386e-08
-0.00145992
-0.142234
-4.27021e-05
-0.0370045
-3.70884e-05
-0.00143854
-0.105943
-0.0659212
-3.06152e-05
4.67213e-08
0.0871737
-0.0578177
0.272373
0.20344
-0.0475948
-0.000817578
-0.0265339
4.07559e-05
-0.151775
-0.11262
-0.0618074
-0.0110944
0.195642
-0.00210477
6.60824e-06
-0.00484065
-0.150782
0.000896023
-0.0440713
-0.0470948
-0.00965144
0.0103261
0.0445855
-0.0039909
-0.0186721
-0.0995094
0.133135
-0.0517204
-1.82511e-08
-0.129631
-0.0388292
-0.0608644
-0.00290995
0.000250344
-0.00631211
-0.112525
0.0163597
-0.0157011
0.0805244
-0.0705094
-0.0012376
0.00812749
-0.00663505
-0.0170202
-0.161144
-0.000112599
0.101214
0.147481
0.00346964
0.149662
-0.0899082
0.0260675
-0.0588277
0.140996
0.0658758
0.411424
-6.37341e-07
0.061045
0.122398
0.00757661
-0.00065425
-0.00763129
-0.0610849
-3.26676e-06
-0.00972238
-0.0566901
-0.00812028
-0.011443
1.61984e-05
-0.134466
-0.000239134
-0.00024384
0.170118
-0.000276712
0.0147975
0.00788254
0.145863
-0.000410077
-0.000367479
-0.143981
4.31279e-05
0.261403
0.00034872
-0.0575681
-0.000194625
-0.00018663
-0.00276857
-0.0807878
-1.32823e-05
-0.00413538
0.0121042
-0.000562526
-7.27384e-07
-3.58254e-05
0.104383
-0.072506
0.00113654
-0.0003379
0.00183525
0.00790902
0.00112831
-0.000206967
0.269894
-0.131129
0.155776
0.228716
-4.19795e-05
0.00559748
0.0658313
-0.000314182
-0.000139024
-0.000439651
-0.0463516
-0.0043189
-0.0235532
-0.0283295
-0.0634827
0.117433
-0.129766
-5.60569e-07
-0.0108334
-0.0155619
-0.0166026
-0.00169639
0.00091282
0.000327556
0.0143563
-0.000138354
-0.00021431
-0.0111202
-0.0021264
-0.013962
-3.55663e-08
-0.00819471
0.0174986
-0.0570404
-0.060164
-0.00431771
-0.00600144
-0.00427722
-0.00236389
-0.00910539
-0.00410608
-2.9598e-05
-0.0002644
0.00919897
-0.00586353
-0.00240218
0.00221468
-0.0041329
-0.151016
-0.00605119
0.107094
-0.0056658
-0.0400816
-0.022997
-0.0129733
-0.00806496
-0.00164496
0.000103974
-0.0016536
-0.00619385
-0.00781057
0.133957
0.0976511
0.0204577
0.243349
-1.01223e-05
-0.00331293
-0.00742617
-0.0043503
0.0447991
-0.0106195
0.015305
-0.00405288
0.147596
-0.00102171
-0.000948064
-0.00872591
-0.028576
-9.95922e-05
-0.0252861
-0.00261267
-0.0103399
-3.75757e-06
-0.0028715
0.000546913
-0.00994905
0.00854177
0.0211087
0.0101249
-0.0073554
-0.0176224
0.0772699
-0.000848133
-0.000808282
-0.000803177
0.35597
-9.55402e-05
0.0370997
-0.00991684
-0.011404
-0.0119661
-0.0383732
-0.013938
-0.0187224
-0.0117211
-0.00239703
-2.58572e-05
-0.00184215
-0.00998726
0.0644395
0.000496042
0.0969097
-0.0182627
-0.00745153
-0.000268232
-0.0164866
-2.35678e-05
0.100537
-0.0171914
-0.0146195
-0.0136282
-0.00423726
-0.0242454
-0.000551767
-0.0220332
0.0669641
-0.0136009
-0.0805963
-0.000508218
-0.0140685
-0.0105179
0.00781144
-0.00162773
0.0964772
-0.000904811
-0.00826787
-0.000378394
0.109694
-0.0213832
-0.0131286
-0.00125856
-0.00543239
-0.00140302
0.130672
-0.025122
0.142803
-0.00416767
-0.00050215
-0.000440162
-0.00120143
0.118396
-0.0383896
-0.00385147
5.17832e-05
-0.0114345
-0.0270923
-0.000722212
-0.0239516
-0.00868497
0.0356086
-0.00226575
-0.00478587
0.327049
-0.0362128
-0.0120331
-0.0347488
-6.29961e-07
0.0483734
-0.00156853
-0.0125056
-0.00304623
-0.019212
-0.000314291
-0.000240485
-0.00115307
0.00116449
0.139307
-0.00241285
-0.000800848
-0.00229443
-0.044604
-0.00409049
-0.00999534
0.00049675
-0.003976
-0.00365967
-0.00156316
0.141969
-0.0252643
0.00106393
-0.00166939
-0.0134082
-0.00596608
-0.0262458
-0.00085134
0.0588004
0.0110572
-0.00415731
-0.000937312
-0.0079098
0.374739
0.14046
-0.00567918
-0.000167029
-0.00116273
-0.0135301
-0.00209683
0.0101721
-0.000218084
-0.0239437
-0.000758554
-0.00763911
-0.135089
-0.000751725
-0.0134075
-0.000516069
0.229068
-0.00413946
-0.00547275
-0.0680642
-0.000620449
-0.0139764
0.00810449
0.328333
-0.00577553
-0.00644895
-0.000731597
-0.000320379
-3.82171e-06
-4.43708e-07
-0.00540617
-0.000294813
0.061064
-0.000445637
-0.000764405
0.00249749
-6.79418e-05
-0.0246524
-0.0696886
0.00898366
0.023622
0.0147365
-0.00626051
-0.0656128
0.0580271
0.0445253
0.0629814
0.0822014
-0.00594348
-0.000381983
-0.00540559
-0.0779418
-0.00143693
-0.00759955
-0.0210248
0.25094
-0.0605725
-0.000156312
-2.73129e-05
-0.000465415
-2.29654e-06
-0.00119088
-0.0003365
-0.0044543
-0.0256978
0.000104395
0.000689775
-6.76082e-05
0.0286829
-0.00723022
-0.0752823
-0.000909231
0.230002
0.209489
-0.00579911
-0.103644
-0.0144677
-0.0110267
-0.00780007
-0.000904339
-0.0909201
-0.0463416
-0.0306944
-0.119234
-4.84226e-05
0.131192
-0.0326859
-0.00424682
-0.0442602
0.00886386
-0.000212677
-0.00465589
-0.000482893
-0.000100546
-0.00131073
0.110674
5.44311e-05
0.00463435
-0.000107041
-0.139682
0.00374749
-0.000745467
-0.0143474
2.28958e-05
-0.0298185
0.0731202
-0.00556798
-0.000597526
-3.2212e-05
-0.000237953
-0.000181652
-0.0331982
0.0838474
-0.0359029
-5.9681e-05
0.000162021
-0.000216696
0.160369
-0.0353048
0.182379
-0.0242744
-0.000129244
-0.000187163
-0.00413701
-0.00252747
-0.000408545
-3.65987e-07
0.0117096
0.0150067
-6.02107e-05
-0.000249317
-0.00998497
-7.98299e-08
0.115812
-0.000473317
-0.0287373
-0.0102858
-0.00276784
-0.0315048
-0.0402855
0.103693
-0.0392629
-0.00956465
-8.32701e-05
-0.0296516
-0.00939963
-0.0380479
0.0481754
0.257596
-0.000377312
-0.0327809
-0.00168998
0.228613
0.021674
-2.5247e-05
-0.00327918
-0.00175799
-0.00258129
-0.0178323
0.0519733
-2.75812e-05
-0.0031894
-0.000107591
0.0369639
-0.000173452
-8.2491e-05
-0.128886
0.206239
-0.0293144
0.0963149
-0.00123487
-5.99729e-05
-5.54145e-08
-0.119989
-0.0155484
-0.000192339
0.0605579
0.00528596
-0.00271886
0.288332
-0.000334159
-0.00223248
-0.0371048
-0.0465505
-0.000868487
0.0915564
-0.0844777
-2.85283e-05
-0.0037178
-0.000106222
-3.1476e-05
0.0920564
-0.016898
-0.000116885
-0.023705
-0.0132057
-0.00130388
-0.0541905
0.000747579
-0.0101711
0.000289242
-0.00176161
-0.0370145
-0.02107
-0.00528145
-0.000491188
0.105652
0.145747
-0.134868
0.00129118
0.00930161
-0.00226312
0.115131
0.0642179
-0.0125836
-4.87326e-05
0.00211858
-0.0219535
-0.00608702
-0.0190312
-0.00111374
0.0138862
-0.0161213
-2.35121e-05
-2.91124e-05
-0.0635807
-0.0244079
-0.0121076
0.00263925
-0.0387753
-0.0275076
-8.4514e-05
-0.000934777
-0.000108534
-0.0334824
-2.88869e-06
-0.000874016
-0.0634281
-0.130468
0.0595739
-0.00152256
0.00153918
-0.0139396
-0.0127409
-3.92126e-05
-0.0175971
0.0528814
0.1083
-6.91176e-07
-1.8729e-05
0.110601
-0.00130727
-0.110234
-0.0151409
0.00120008
-6.79456e-05
-0.0279891
-0.059583
0.113678
-0.0220098
-0.00056822
-0.0136391
-0.0413827
-0.000265455
-5.41046e-05
-0.000444024
-0.0532596
-0.0248626
0.0886443
-5.57441e-05
0.345956
-0.0702736
-1.10797e-05
-0.000791092
-7.06431e-06
-4.27724e-06
-3.76826e-06
1.24591e-08
-0.0243918
-0.000416102
7.34637e-05
-4.45216e-05
0.0959807
-0.0027044
-4.89318e-05
-2.54752e-05
0.276428
-0.0126192
-0.0806527
8.38759e-05
-0.000326225
0.0260996
-3.69968e-05
-0.0158329
-0.179201
0.000682179
-0.00629154
-2.03861e-05
-7.0602e-05
-0.0194715
-0.0833147
0.00309645
-0.161562
-0.0951413
-1.98773e-06
0.0115036
0.0188749
0.0723912
-0.000659753
-3.95783e-05
-0.0337325
-0.00287923
-0.000352903
-0.0243573
-3.67728e-05
0.0122562
-8.62226e-05
-0.000405021
-0.0538612
-0.00204165
-0.02997
0.333331
-0.00104273
3.44331e-05
-0.0435317
-0.0605309
0.00284751
0.00182541
-2.71792e-05
-0.0165144
-2.83808e-05
0.137666
0.396222
0.0310876
0.0010431
0.00118865
-4.19299e-06
-0.0181481
-2.57386e-05
-0.0103881
-0.000835247
2.07973e-05
-0.00137337
-0.00870138
-2.18846e-05
0.000166136
-0.0102542
-9.03697e-05
-0.00852619
-0.00962803
-0.0236308
-0.00104358
0.358501
-0.000620419
0.000785061
2.74927e-05
0.00688276
-0.0225292
0.00409506
-5.52232e-05
-1.78828e-05
0.000351558
-3.56422e-05
-1.95184e-05
-0.010309
0.00014635
-1.9039e-06
-0.0281909
-0.00226528
-0.0234142
-0.000746721
-8.71889e-06
-0.00119514
-0.0209099
-0.011446
-0.0285049
0.000740951
6.24334e-05
-0.000193075
-0.000609868
-3.28992e-05
0.200998
0.000441039
-2.38289e-06
-1.35774e-05
-0.00113383
-0.00027526
-0.0257075
-0.0244571
-9.20847e-05
-0.00369685
-2.47577e-06
-0.0028713
-1.22298e-05
0.0206771
-4.43695e-05
-0.000118335
-0.00357593
-1.02089e-05
0.00659364
-7.79938e-05
-0.000486717
0.00994334
-2.83029e-06
0.27708
-0.0307453
-0.0234826
-7.14563e-06
-1.54075e-06
0.000333184
-0.000416451
-0.038365
-1.97391e-06
-1.72971e-06
0.000114928
3.59083e-08
5.69613e-05
7.88345e-05
-0.000169069
0.000172091
-0.0254121
0.356103
-0.0353847
0.252065
0.00407135
-0.014688
-2.83705e-06
-0.00025709
-0.00715169
2.56213e-06
3.73e-05
1.27355e-05
0.019686
-0.00135587
-0.000161051
0.325732
-0.000119641
2.04757e-05
9.16859e-05
-2.09056e-07
-0.0201296
-0.00123653
0.000283798
1.00217e-06
-0.000626937
-6.59299e-06
-0.00105621
-0.0258407
-0.000120888
-0.00175927
4.52178e-07
-0.003241
-5.31877e-05
0.134657
-0.000144844
-0.000281227
-0.024871
0.00135934
-7.0403e-05
-0.000558942
-5.70129e-06
0.121785
-0.0400821
-0.000368076
-9.94071e-05
-0.00228191
-0.000163827
0.0320142
0.0714459
-0.00937697
-2.07803e-05
-3.97777e-07
1.30472e-07
0.0234996
3.01595e-05
-0.021219
-0.0322336
-0.0110678
-0.0798418
0.370788
0.000585455
0.138261
-0.0104842
-0.0177216
0.124061
-7.80422e-05
-0.0349872
-2.22236e-06
-0.00518184
-0.0183474
1.03207e-06
-0.0475496
-0.000305335
-0.0248163
-0.00563351
-0.0158908
-0.0223517
-0.003721
-0.0438963
-0.0166973
-1.75593e-05
-0.0048943
-4.01708e-05
-0.014963
-1.04637e-06
-2.51348e-05
-0.00768174
0.117225
-2.21812e-08
-0.0265848
0.00111706
6.73882e-07
-0.017604
-1.94907e-06
-0.00532938
-0.00015139
-0.0149869
7.95416e-06
-2.36361e-05
-0.00161783
-7.20367e-05
0.113983
-0.0180679
0.0311401
-2.20094e-05
0.000125649
-0.0125798
-4.37427e-07
-0.031989
-0.0328668
-0.0247329
0.351386
-0.00365274
-1.42672e-06
0.0132728
-0.016915
-0.00264195
-4.07491e-05
-1.88928e-05
-0.0238606
2.12763e-06
0.000196032
-1.45726e-07
1.34769e-06
-0.0113695
0.0604382
-0.0962283
0.0603565
-0.00287998
2.34204e-07
0.000354551
-0.0501958
2.19129e-07
-1.84326e-06
4.56823e-05
1.89028e-06
6.70382e-05
0.169807
0.0192797
1.1768e-06
-2.1192e-06
-0.0294658
0.145865
0.126467
6.38191e-07
-0.0203922
-0.0166913
-0.00959263
-0.0224229
-0.00805073
-0.00135295
0.0998699
-2.00212e-05
-0.0153897
0.120703
-0.027788
-1.68e-05
-0.0261931
-4.55569e-05
0.225209
0.0119469
-2.3117e-05
-8.51521e-06
0.133267
-7.61022e-07
-6.53672e-05
-0.0049872
-4.9854e-06
0.185372
-0.000138269
-0.00312086
-0.0257574
-0.00196899
-0.0833305
0.132584
-0.0219798
-0.0665182
0.000241841
-6.44872e-06
-0.000681218
-1.28394e-05
-7.8283e-06
0.000375215
0.130714
0.106823
-0.000195628
0.181057
-0.0152103
-2.37083e-06
-0.0179545
-1.48591e-05
-0.0169321
0.0130223
-0.0127981
0.00120785
0.000531858
-0.00408259
-2.07427e-05
-0.000855396
0.00656781
-0.000975823
-2.8742e-05
-7.00128e-07
-8.31326e-06
0.0179231
-2.04673e-06
-0.021648
0.190559
-0.003863
9.21783e-07
-0.00146125
-9.00993e-06
0.0264952
-6.53763e-05
-1.15305e-05
-2.90476e-06
-3.043e-06
0.153588
-7.70798e-05
0.176645
-0.0439291
1.1142e-06
-0.0381484
-0.000481741
0.112206
0.330938
-0.000428722
-2.15429e-07
-4.26654e-06
-5.02528e-06
0.0927495
-3.12318e-07
0.000179282
-0.0094807
0.164816
-1.62197e-06
-3.26124e-06
-1.9945e-07
-7.36178e-07
-0.0119836
-3.46464e-07
0.206898
-0.013659
-8.69794e-06
-7.74671e-08
-0.000694107
-0.0124971
-2.34081e-07
-5.47786e-06
0.119322
-7.38799e-09
-0.0188278
-0.0777828
7.44741e-06
-3.33047e-07
-0.184124
-2.39983e-07
0.116392
-3.57428e-07
-0.000175512
-1.87383e-06
-1.49843e-05
0.0621106
-1.31698e-06
-0.000767958
-3.15407e-06
0.00114475
-0.00205827
-0.00250896
-0.00191335
0.109849
-0.000256157
-2.49517e-05
-0.00373954
-0.0038389
-3.0202e-05
-5.42984e-05
-0.000471763
-3.02864e-06
0.121185
-0.00857335
0.367266
-1.80359e-06
-0.00385612
-0.000149178
0.0900192
-1.4155e-06
-0.0183693
-8.02391e-07
-0.000681603
-0.0192325
-4.70275e-05
-0.00908187
-0.0295576
0.000961966
-1.13171e-05
-0.0577127
-4.47704e-05
-0.000335101
-0.00258581
-0.0222988
0.000161495
-6.49558e-05
-0.000151667
-0.000967017
-0.000510741
-3.751e-06
-0.000442964
0.327633
3.82436e-06
-0.00129606
-0.0199379
-0.0250533
-0.0340086
-0.0196607
-0.0131638
-0.000573538
-0.0219576
1.01806e-06
-2.05906e-05
0.345202
-1.5168e-05
0.126146
-7.18236e-05
3.17075e-05
-0.000380142
-0.102479
-0.000129921
-0.00145433
-6.70547e-06
-0.000107899
-2.06003e-05
-1.62665e-05
-0.00617635
-4.17821e-05
-3.66058e-05
-1.43342e-05
-4.28567e-05
-7.79457e-06
-0.0288145
0.175851
-1.91753e-06
-0.0001097
-7.86936e-05
-7.41647e-07
-0.00023695
-1.53759e-06
-0.000279356
4.85258e-06
-8.95211e-05
-0.0318204
-0.000235104
-0.00102777
-1.30562e-06
-0.00161833
4.55243e-05
-6.46153e-07
-2.74158e-06
-8.76266e-07
-0.000162467
6.81358e-05
-0.0289167
-0.021139
-0.0295377
-0.000567944
-0.00210251
-0.0625984
-0.0272139
-6.34836e-06
0.00415261
0.00183247
-0.000225547
-0.00671953
-0.0201022
0.326985
-8.64165e-05
-2.72276e-06
2.98319e-05
-1.53163e-06
-1.05109e-06
0.048802
0.000311807
0.0576373
-0.0372965
0.307509
-9.13304e-05
-8.56577e-07
7.60941e-06
-5.41859e-06
-0.000327886
0.106479
0.16027
-3.69923e-06
-5.82129e-05
-1.02523e-05
0.151144
-0.00139817
-0.00919993
-7.69409e-07
-6.91077e-07
0.00278272
-0.0001357
-0.0461819
-0.010046
-6.24822e-06
0.000944021
-0.024384
-9.83941e-06
0.000357041
-3.29573e-05
-0.0235446
-0.000452128
0.10063
-1.03196e-06
0.000436044
-0.00194376
-1.52831e-06
9.05735e-06
-0.0138596
-1.3516e-06
-0.00019782
-3.50797e-06
-0.00751043
-0.0207229
-0.00341388
-0.00926864
-0.00360428
0.00378544
-0.0048411
-0.000709537
5.76144e-07
-4.25475e-06
-2.66971e-06
-2.01154e-06
-6.96189e-06
0.00298378
-0.0479753
7.58313e-05
-0.0506872
-0.000904243
-0.0510958
2.91311e-06
-8.58465e-06
0.000300092
-0.116781
-1.79056e-06
-0.047675
-0.0107661
-0.0430082
-0.0538932
-1.56949e-06
-0.00104862
9.656e-06
-0.188728
0.0929043
-6.66442e-06
-0.0401437
-0.0175231
-0.00136405
-3.749e-06
-2.20857e-06
0.00361859
-0.00617779
-4.64691e-06
-0.00300693
-1.56315e-05
9.75201e-06
0.0835433
-1.4746e-06
-1.1816e-05
-6.36957e-05
-2.79476e-06
0.000176089
3.24182e-06
-0.00173585
7.16368e-06
-0.00741927
0.000207694
-9.75409e-05
-0.030714
-0.0267626
-0.00339652
-1.09664e-06
-2.28533e-06
-0.0663539
0.00200512
-0.0270115
-6.94902e-06
-0.00267714
5.21264e-07
-2.98529e-06
0.0388488
-0.00231662
-0.000824715
-9.76829e-06
-0.0125782
-1.2558e-06
-0.0380639
-3.90351e-06
-0.0441531
-1.153e-05
-1.21237e-06
2.79562e-06
0.000224468
-0.126723
-0.00693439
-0.0496261
-5.6506e-06
-3.14093e-06
-0.0404655
-0.0304269
-0.00296835
-2.573e-06
-0.0590304
-0.0401213
-0.0375747
-7.39794e-06
-2.95997e-06
-2.05973e-05
-0.118149
-0.0507914
9.40804e-05
-0.00382937
-2.27516e-05
0.166335
4.97263e-06
-7.50309e-06
7.96966e-06
-2.76504e-05
-3.61738e-06
-0.00182147
-6.82127e-06
-0.00133483
-0.0514378
-0.00476987
-0.0187718
-7.50914e-06
-4.49283e-06
0.0227007
-0.073452
-0.00154479
0.0744357
-3.57782e-05
-4.84475e-06
-4.06455e-06
0.0644655
9.90315e-06
-6.29578e-05
-6.82923e-06
-0.0604847
-0.00580392
-1.32577e-05
-6.04968e-05
-0.00534748
-0.00215755
1.72496e-05
0.162159
-0.0515723
-0.000821489
0.433787
-4.85575e-05
-0.000566158
-0.00756927
-0.0329472
-5.58022e-06
-1.74765e-05
-1.19376e-06
0.00141442
-0.0330408
-0.000174057
-0.0330018
-0.00266962
-9.44531e-06
-8.57488e-07
-0.00360104
-0.0199738
-0.0489396
-0.114096
-0.0218371
-0.0222925
-0.0376246
-0.019415
-1.30011e-05
2.57794e-05
-0.0176276
8.92915e-05
-0.000145637
8.20215e-05
-1.91807e-05
-0.000113607
-0.00430499
-1.40899e-06
-1.53839e-05
0.0116237
-0.0523786
-0.00025144
-8.53235e-05
-4.42369e-06
0.177352
-0.00377135
5.6898e-05
-0.0200882
2.37253e-05
1.19188e-05
1.31573e-05
-1.29062e-05
5.80995e-05
-0.0255508
0.0015487
-1.189e-06
-0.000194532
-0.0317102
-0.0284683
0.0291505
-7.89516e-05
0.00050746
0.00842024
-6.45984e-06
-5.52279e-06
-0.0489189
-1.31093e-06
0.115261
-2.29157e-05
0.00142862
1.2734e-05
1.30962e-05
-0.0328081
-0.00443927
-0.01065
-0.000769495
-1.43854e-06
-7.44184e-05
0.037704
-0.00777431
-4.65712e-05
0.0616332
0.112131
-1.98492e-06
-0.0305315
-2.24244e-05
-5.94473e-06
-5.40314e-06
-0.00010001
0.00974144
-3.06357e-05
1.30031e-05
-0.0105556
-0.0150008
-0.00782549
0.223776
-1.7143e-05
-1.50694e-05
0.118999
-0.0180176
-0.00202419
-0.000118181
0.116977
-1.52964e-05
-0.000433549
-3.2746e-05
-2.91936e-05
-1.69257e-06
-2.29022e-06
2.6822e-06
-0.00728785
-8.87872e-06
-0.00208797
-0.0230557
0.175795
-0.000321239
-6.57083e-06
0.00160401
0.0545043
-0.0499449
-0.00015054
-0.0260789
0.224197
-1.24868e-06
0.294115
-2.0266e-06
0.000801734
0.0120754
5.87322e-05
0.310944
-5.35969e-05
-1.90148e-06
0.000137105
-2.10717e-06
-0.000166339
2.40428e-05
-9.97843e-06
-0.000697824
-3.96677e-05
-5.21409e-05
-0.00138163
0.17415
0.0262432
0.0109215
-0.0195937
-1.40894e-06
-1.18138e-05
0.000689891
-0.0562285
-5.0217e-06
-0.0224351
-1.19673e-05
0.068195
0.0377174
-0.0249026
-0.000581518
-0.00947737
-0.000207111
-0.0054544
-0.00252112
-0.00611034
0.0376985
-6.78204e-07
0.185518
-0.00374889
-0.000740897
0.150952
-0.00788712
-1.03438e-06
-1.27388e-05
5.82967e-07
-2.03897e-05
-6.80004e-05
0.175908
-0.000326525
0.181269
-0.00125927
0.115518
0.160451
0.0694063
-0.00404512
-5.88835e-06
-5.59229e-05
-0.00364751
-0.168633
-0.0371551
0.000372941
-2.63896e-05
-0.0183608
-0.000556695
-6.91297e-05
0.00022325
-0.000320547
-0.00095801
0.0175568
2.25757e-06
-0.0199055
0.0325392
1.83318e-07
1.00042e-05
-0.0120517
-0.0539623
-0.000210035
-0.000122822
-1.54023e-05
1.75761e-06
0.0391938
-0.0121976
-0.0381241
0.000289847
0.05346
-0.0265248
-1.40026e-05
-8.49841e-06
-0.0112044
-0.000124429
0.0403293
-0.00613483
-0.00503182
-0.000175829
0.000306393
-0.0274668
-9.37222e-05
6.38143e-05
-0.0173624
-0.0402062
0.103402
-0.0290676
-0.0172756
-0.000212994
-4.28005e-06
0.00270333
-5.69056e-06
-0.0359199
-0.0485196
8.80392e-05
0.000518636
0.00130019
-0.133776
0.000101217
-1.49286e-05
-2.10127e-05
-0.0280791
-5.157e-06
8.9986e-05
0.0824825
0.126434
-0.154185
0.0293473
0.0273256
-0.00971733
-0.000275167
0.000785004
6.72818e-06
-3.67656e-07
-0.000159122
-6.3746e-07
-0.000132809
-0.000100779
-0.00428134
-0.0874941
-0.00571521
-0.0255885
0.0302075
0.0247874
0.00122506
-0.0496268
-2.666e-05
0.000852485
0.00403108
-0.000138397
0.0453337
-0.001626
-0.00757614
0.00346818
0.00210652
-0.000849287
-0.0021829
0.0214538
0.000113018
-0.0115991
-0.0106217
0.374004
-0.0183502
0.0502681
-0.0115721
-0.0343727
0.000533497
-4.17965e-05
-0.000779162
-3.56953e-05
-0.000711655
-0.0174011
-1.88053e-05
-0.000202377
0.209793
-0.000957434
-0.0253152
-0.00687933
-7.04815e-05
-0.00210974
-8.76103e-06
-4.22792e-06
0.0173552
-5.21547e-06
-0.00088219
0.0452939
0.00161598
0.000265411
0.0072221
-0.00319512
0.00142971
-0.160816
9.91307e-05
-0.00233422
-0.036701
-0.00060204
-0.00458916
-4.72085e-05
-0.00269734
0.000177421
0.0156171
-0.000472534
0.00187469
-0.0226855
-0.0133382
-0.000133499
-0.0199028
-0.00874856
-0.00640066
-9.98407e-05
0.00246403
-0.0710012
-0.000263945
-0.00308497
-0.019142
-0.00363242
-0.000471308
0.160171
-0.0217576
1.06928e-06
0.0033313
-0.0432078
-0.000357472
0.138579
-0.00270981
0.000194287
0.0370744
-0.000622033
0.00269418
0.087742
-0.000289479
0.000258147
-1.18587e-06
-5.00847e-05
-0.00144536
-0.0068155
-0.000350018
-0.0142518
0.0629424
-0.017079
-0.0762615
0.000259908
-0.00144433
-0.000809713
-0.0722407
-4.57028e-05
0.0030801
-8.5006e-05
-0.00607205
-0.000648175
-0.00161429
-0.0891676
0.0765179
-0.0855092
-1.48239e-05
0.14124
-0.00171546
-0.00346605
-0.0305525
-0.0928186
-0.0100288
-6.67907e-06
-0.00137338
0.00267731
-0.00128452
-0.00251671
-0.000136804
0.055067
-0.0403395
-0.0064271
-0.00220964
0.00172744
-0.00659398
-0.00501576
0.000435316
-0.000510991
-0.0012181
0.074844
1.70034e-05
-0.176956
-0.000185191
-0.00250462
-0.00436345
-0.104884
-0.0072963
-0.135442
-1.63537e-05
-1.97078e-05
-0.00842747
0.00395221
-0.000158436
-0.167006
0.0520904
-0.0348971
-6.40174e-06
-0.190381
-0.000252211
-0.205186
-0.0156844
-0.238321
-0.242266
-0.237175
-0.202624
-0.122523
-0.0902486
-0.0594918
-0.0286873
0.00275665
0.093838
0.123805
0.151222
0.197825
-0.00281555
-0.00525299
0.0291423
-0.0227439
7.46039e-05
-0.00225872
-0.0263243
-0.000270606
-0.00104719
-6.29244e-07
-0.00980534
0.00824048