/*--------------------------------*- C++ -*----------------------------------*\
  =========                 |
  \\      /  F ield         | OpenFOAM: The Open Source CFD Toolbox
   \\    /   O peration     | Website:  https://openfoam.org
    \\  /    A nd           | Version:  7
     \\/     M anipulation  |
\*---------------------------------------------------------------------------*/
FoamFile
{
    version     2.0;
    format      ascii;
    class       surfaceScalarField;
    location    "36.5";
    object      phi;
}
// * * * * * * * * * * * * * * * * * * * * * * * * * * * * * * * * * * * * * //

dimensions      [0 3 -1 0 0 0 0];

internalField   nonuniform List<scalar> 
11512
(
137.784
-500.9
363.116
-769.638
3.28641
766.352
410.577
-368.087
-42.49
645.933
258.973
-904.907
1510.69
-1069.31
-441.373
1216.29
-1527.13
310.84
-49.3782
468.352
-418.973
168.43
-841.486
673.056
962.074
-1610.79
648.712
-1764.84
1672.71
92.1336
-542.943
1759.23
-1141.15
1934.87
-793.717
607.69
180.679
-788.37
-25.2665
-1317.64
1342.9
222.129
-1986.97
1021.42
-383.323
-638.096
-190.927
328.711
485.243
190.058
-675.301
1154.4
-1313.85
159.451
-323.428
374.26
-50.832
1008.12
-1320.83
312.712
1221.54
799.553
-2021.09
74.0931
-1644.38
1570.29
-484.419
-1162.51
1646.93
476.26
181.377
-657.637
-181.035
-319.865
497.969
1012.72
1651.77
-1810.07
158.303
-91.9534
-1690
1781.95
-1559.13
654.153
904.973
-308.337
651.566
-343.229
-193.821
-153.883
347.704
1288.14
-1214.05
355.175
-1407.32
1052.14
-1754.37
1754.37
99.9932
1536.35
-1636.35
-1081.31
-477.812
638.129
-687.507
-385.541
941.155
-555.614
1331.94
-1317.3
-14.6399
-1099.65
714.112
624.111
397.308
-407.39
-18.3337
425.723
-458.214
797.059
-338.845
-1618.58
1618.58
1253.59
-1437.89
184.306
-488.812
1710.35
1253.76
-312.607
1660.74
-1161.25
-499.488
60.912
-384.34
2066.11
-1135.72
-930.387
1818.05
-166.28
455.507
155.455
-610.962
-467.003
975.11
-508.107
-1174.02
1274.02
-567.855
970.09
-402.235
398.899
755.503
660.901
-492.471
-435.768
590.319
-154.551
1190.6
-835.424
2308.2
-1080.67
-1227.53
1164.01
-2009.82
845.804
-1606.4
1581.13
440.579
-1581.73
-759.231
1250.76
-491.529
-670.296
361.959
1661.44
-699.367
-1106.93
-870.894
1977.82
695.151
-384.358
-310.793
689.636
564.126
-258.202
1511.79
102.549
-310.013
207.464
-283.756
760.015
-333.519
565.512
-231.994
-323.639
808.881
-316.083
-144.618
460.701
316.527
94.0503
1464.97
-456.849
-993.803
492.954
500.849
267.341
92.9761
-360.317
948.408
-340.718
-1700.76
644.963
1055.8
19.7719
-861.112
841.34
-279.877
592.499
-312.622
157.453
-1093.66
936.204
1051.82
-1067.3
15.4724
372.481
518.316
-890.798
-244.191
699.698
-1103.45
-482.226
1585.67
-678.858
951.533
-272.675
1354.01
-1445.96
-653.745
289.065
364.68
-470.179
-1011.56
1481.74
-537.45
-794.992
1332.44
576.12
-995.952
419.832
-268.744
-317.891
586.635
399.602
-297.053
-1042.19
575.187
955.257
-797.804
-110.257
944.078
-833.82
-209.636
415.308
-205.671
-633.459
-360.344
-386.411
962.531
1856.39
-1856.39
-478.781
-174.964
-946.942
1562.26
-615.321
498.344
-930.403
432.059
-922.841
354.986
-941.908
-1058.08
-1495.06
343.15
1151.91
-271.177
917.11
-329.406
624.173
-294.767
-1941.9
999.995
-1145.36
-349.703
560.839
-1507.78
1728.49
-1725.7
-2.78218
197.822
-611.642
413.82
-1464.83
974.174
490.655
278.881
218.568
-497.449
309.809
-643.328
244.133
-420.443
176.31
2015.04
-878.086
-1136.95
-548.987
141.598
615.37
837.876
-1453.25
-182.4
426.534
431.307
876.53
-1307.84
-904.366
390.884
513.481
-1048.27
1447.17
-1068.91
309.678
748.254
-96.6878
569.246
-294.081
-275.165
1018.91
-525.958
593.285
-1403.75
810.464
-1342.1
238.653
-544.201
264.323
-1184.4
913.222
1947.11
-977.712
-969.398
276.805
1579.58
-2096.63
896.597
1200.04
369.004
-30.0881
-338.916
-223.485
484.005
-260.52
-97.5365
-386.783
484.319
-459.717
143.634
342.027
-129.406
627.75
425.782
376.861
-802.643
-2039.16
1120.58
918.58
459.453
-527.004
67.5515
224.467
-366.731
142.264
1017.58
997.454
1789.16
-252.805
745.921
-456.856
796.322
-1389.3
592.977
361.891
333.26
1058.64
-1038.87
-490.138
-242.162
732.301
469.344
-131.837
-337.506
797.15
-616.47
553.536
-721.301
167.765
503.323
1157.42
-1239.66
702.211
1036.19
-1520.61
-3.13252
-1439.43
1442.56
326.117
823.632
-1149.75
623.121
269.704
-892.825
-2269.24
1142.61
1126.63
-1092.86
-1176.38
196.03
357.506
958.466
-632.349
879.56
-899.191
19.6307
-2099.38
992.454
-231.893
-191.224
423.118
-41.8412
1770.33
-837.881
68.2431
-1029.72
-1066.91
-229.086
453.553
-690.443
211.662
-285.01
-422.56
707.57
1104.02
-1574.2
782.891
-1374.34
591.449
693.767
-434.794
1947.86
-1444.54
-378.278
-1376.09
69.1434
399.208
-534.455
537.741
26.735
-581.573
554.838
566.32
-287.439
-602.498
279.027
323.471
783.1
-357.319
32.9015
336.103
1188.47
-1191.6
167.244
232.358
392.956
-677.966
619.337
-1005.75
-2026.72
2026.72
-268.212
-443.344
711.556
699.157
405.755
-1104.91
578.333
169.921
411.433
371.668
-2199.75
1328.85
-926.191
-679.489
1605.68
-479.138
-705.26
-249.596
552.631
-303.034
827.829
-203.708
-624.12
-457.4
655.222
361.34
-690.746
-378.666
-128.26
506.926
-1333.46
-476.605
639.53
-1118.67
-374.137
-1244.45
844.334
1463.86
298.987
-943.935
644.948
965.093
-340.982
1391.29
-798.009
438.641
-271.397
-326.033
-871.817
573.439
298.377
-337.69
-534.126
313.035
-410.571
-213.183
-148.547
361.729
-392.655
1091.81
434.727
-244.669
-392.037
1358.19
-171.358
-1186.83
-475.061
299.091
175.969
218.453
269.856
-488.31
21.2998
-742.601
592.115
-1729.02
1136.91
1483.62
-868.247
-1047.72
-417.112
-1056.09
573.45
482.635
1385.77
-411.598
929.009
-1411.23
-159.208
-195.917
355.125
-469.005
579.291
-1627.56
427.964
903.976
297.85
295.435
-593.285
568.079
1186.29
1102.37
-711.929
-390.441
397.432
-213.829
-183.603
-1419.45
445.644
737.575
-1183.22
1473.22
-544.209
-484.925
935.502
-450.577
426.146
1186.16
-1612.3
47.2858
-726.144
-147.71
415.05
226.518
-420.34
537.624
481.288
-610.807
60.5461
550.26
1024.54
-1307.67
283.132
666.865
-255.433
468.274
-1447.21
978.933
395.967
1687.44
-523.428
909.122
1037.99
-659.701
-1684.53
758.342
562.322
406.597
-968.919
455.694
78.865
1750.01
-1828.88
1443.73
-379.466
-1064.27
1699.14
-1740.98
-366.449
-533.978
723.464
-189.486
-502.588
178.449
290.895
-372.831
-1225.98
214.428
-764.549
-639.2
-645.729
996.199
-350.47
-654.287
644.493
9.79333
655.134
-923.808
268.674
-767.794
389.902
377.893
-648.014
-692.63
343.591
349.039
-932.268
1400.54
-420.835
888.776
-467.941
-2205.31
5.55745
173.502
-530.44
356.938
143.065
1215.13
-104.55
-585.893
156.374
-592.143
1487.06
-704.17
384.009
-460.417
76.4085
-570.649
570.649
1223.12
395.461
1778
-1228.12
589.293
638.826
849.641
-52.4913
1291.9
774.208
-540.301
1336.62
292.689
299.81
267.752
-801.73
245.65
-703.863
231.004
-443.225
212.221
-246.156
579.448
-333.292
115.302
-361.458
-591.779
-564.431
1156.21
-377.274
553.328
-176.054
-1192.16
2032.04
-839.885
1288.77
-330.309
-406.471
137.727
-1980.09
817.58
1540.07
-849.005
-691.062
1986.97
-877.439
-1109.53
713.631
575.143
-238.783
469.788
-672.847
1149.61
-476.767
-769.785
1201.09
551.718
924.561
-1725.27
800.705
-550.726
-82.1396
632.866
308.126
261.12
405.698
-88.5279
-317.171
896.913
-83.4044
-813.509
929.653
-572.907
-356.747
1576.18
-472.162
891.619
-1627.77
736.154
1068.48
879.387
745.977
-438.69
-307.288
-1059.05
-258.255
567.377
575.446
-1142.82
-468.207
523.904
-55.6962
571.892
-338.923
-232.969
-985.728
564.893
594.607
889.01
-441.771
1096.9
1419.52
-783.813
-635.704
392.11
-922.426
530.316
-1038.5
405.038
565.708
-1050.63
470.973
-549.34
78.3672
484.329
312.73
-522.114
-48.5351
-793.918
-879.723
1673.64
189.759
207.672
-216.272
412.301
-27.0398
-569.27
596.31
497.495
869.41
-1366.91
-519.081
305.898
985.984
-89.0712
836.047
-1064.53
228.479
407.076
845.774
-1386.07
-456.367
833.228
1979.59
-1285.86
-693.727
270.187
609.373
255.966
795.859
92.2239
-973.98
881.756
1673.72
-1089.02
-584.699
-137.898
1887.91
-1866.07
-160.654
483.582
-621.68
138.097
-1012.08
526.578
485.5
-1730.48
538.319
-955.746
845.488
390.512
199.807
587.828
-288.841
-418.351
708.619
256.474
68.566
707.571
-776.137
-1121.91
-907.14
2029.05
-542.534
1114.85
-572.312
-481.824
-342.813
110.92
-1655.83
861.914
-854.992
-606.189
1461.18
-332.173
-294.565
626.739
349.667
-650.369
300.702
251.709
-609.028
335.39
194.062
-529.452
362.773
-612.369
621.573
-271.907
311.844
-456.462
678.955
413.301
-194.848
-400.228
-292.403
1223.77
-2.31512
-1221.46
1039.19
-419.853
559.753
410.337
-1782.36
869.815
912.542
488.664
555.992
-1044.66
-535.839
203.666
-263.576
1181.22
-917.645
-1590.88
1212.6
504.494
-1096.27
382.342
1.66721
429.777
314.123
-743.9
371.476
-615.667
-34.9474
757.3
-722.353
-526.202
795.907
395.199
322.515
527.126
652.175
105.516
-417.161
311.645
1058.94
-645.327
-413.613
494.018
-1664.27
1170.25
-1140.39
1753.22
-612.831
1715.83
-1123.71
-332.792
611.819
-1181.31
1273.53
425.331
-798.827
1608.7
-809.877
-276.577
-198.483
-891.216
1470.91
1814.05
-610.793
-1203.26
-404.525
655.826
-1301.56
-124.832
-57.8133
463.512
-685.156
-354.163
-1236.71
-215.156
466.865
903.414
-557.101
170.319
-1674.66
-71.2364
1745.9
-1076.45
533.917
566.379
-1183.8
617.419
900.839
913.21
630.768
619.992
697.242
238.26
-1143.03
470.188
-394.401
421.136
615.827
-514.489
238.095
-729.091
490.996
707.34
-345.448
-334.493
180.61
-614.578
251.844
362.734
-886.534
-741.239
1087.67
-2145.75
398.362
-682.118
-342.777
-724.52
835.32
584.198
-337.396
319.063
378.364
223.839
639.486
-863.325
524.682
624.932
-551.069
172.403
354.852
-623.065
-1030.6
-863.047
1893.65
-1801.7
157.321
1106.82
-1370.4
1159.9
-714.99
-444.909
-503.849
1349.62
-1495.49
627.868
867.62
-289.213
-210.657
499.87
1428.4
558.566
360.117
-488.377
-481.009
-570.793
1051.8
-421.287
594.789
1582.63
-1129.97
-452.654
-784.593
341.249
654.876
404.063
-1623.42
416.164
1207.26
-180.513
515.904
797.643
784.984
203.549
-699.497
495.948
206.027
209.281
-292.61
-107.557
400.168
502.747
-4.92352
-497.824
-1641.97
594.251
-1608.27
1676.77
-68.5025
12.7031
-1620.97
1069.6
777.86
-348.084
-817.814
-220.683
-1134.48
-239.861
-310.684
682.16
-1812.56
-634.365
1209.81
217.887
757.223
-1331.2
-678.614
-465.572
625.465
-327.615
-1013.28
1350.77
-1932.88
582.119
646.696
1288.17
487.48
-3.47538
717.286
709.09
-1426.38
-634.864
330.726
304.138
440.883
-99.373
-341.51
141.891
320.195
148.573
-468.768
-592.386
1154.71
454.638
-644.261
-461.392
-401.237
862.63
-325.3
166.092
-452.393
155.339
-303.331
-708.747
549.884
-109.002
-574.072
966.182
581.61
-270.212
-311.398
454.925
-778.563
-647.861
457.289
-1129.4
-842.428
1185.58
-569.757
444.973
287.327
-464.576
80.2175
1028.04
-317.842
594.75
-276.908
-509.018
1578.61
-683.177
249.567
364.521
-614.088
227.134
498.431
-36.2356
-462.195
-260.7
-191.692
1022.29
1108.91
564.81
-883.702
948.66
-64.9577
-459.139
169.925
-742.716
320.156
-589.507
325.712
381.627
837.665
-1243.13
405.461
776.185
-811.132
-948.946
-550.355
1499.3
-177.614
473.049
-561.354
267.273
1300.79
789.224
-585.675
1319.97
-680.436
487.016
-667.377
-400.802
-422.958
-377.771
800.729
502.092
-842.81
-470.452
102.475
367.977
-322.698
572.417
727.244
-328.882
-242.219
-172.165
414.384
-487.288
131.311
355.977
1459.77
82.0317
-1541.8
-753.384
1347.99
-1144.74
-466.046
541.918
-177.396
1151.31
-375.129
1083.49
492.695
699.477
-431.725
-884.996
-522.32
-1328.41
-23.1243
984.947
-961.823
591.52
343.442
-934.962
-346.267
-202.72
-674.035
405.524
1621.2
-193.073
379.742
340.864
-720.606
-1839.75
-2106.68
1519.14
587.542
-2035.97
345.975
375.666
530.822
-906.488
-459.962
1019.72
-407.177
-668.593
1075.77
-2030.53
1391.21
639.326
594.164
-1001.34
39.491
431.482
385.923
189.219
249.422
320.817
969.83
874.264
677.552
-324.468
-353.084
-292.333
618.575
-326.242
571.473
530.897
565.262
514.672
-1079.93
-796.193
-699.295
751.316
399.998
-406.543
707.245
-1193.41
1609.58
431.774
-1100.37
-349.76
543.822
-1380.48
878.625
501.86
-711.261
-349.777
-776.07
352.24
423.83
446.984
718.077
-1165.06
1074.29
-585.622
-420.996
669.094
-248.098
255.418
326.192
-467.626
-431.578
899.203
-229.286
568.073
-963.001
394.928
-458.535
600.597
-1681.27
423.637
670.781
-1094.42
519.803
104.37
113.409
-2212.79
540.867
-95.8933
1444.34
1777.09
-217.551
-1559.54
-438.466
1789.23
-1987.04
1194.5
792.544
399.19
346.787
-41.4852
876.805
-1283.03
718.6
-868.863
-821.873
798.748
294.558
76.0975
-370.655
232.595
187.279
-419.873
1558.18
-840.892
-1530.96
-325.43
509.505
-229.308
-280.197
394.295
365.72
263.365
362.101
-10.0099
1002.29
-992.279
376.78
294.525
-671.305
-734.088
1817.33
-1083.24
-341.818
736.113
-1222.52
-413.83
-914.395
482.818
585.263
-784.658
199.395
759.656
-379.427
-380.228
-434.738
-448.964
450.195
1090.39
1239.02
-672.644
799.767
-344.842
379.943
331.613
-234.678
-225.74
-214.303
610.269
407.298
-846.185
438.887
232.412
346.803
-579.214
-421.996
829.294
754.466
-1147.12
891.841
-54.1761
-486.198
279.393
779.248
-96.166
1384.34
1890.5
-46.7064
345.798
-314.734
420.25
-1086.92
1076.91
640.144
375.412
384.243
87.8185
421.687
260.398
505.953
-373.388
-261.477
-564.969
-89.3176
-364.316
360.422
3.89328
-256.055
-288.146
1010.96
-1540.66
529.708
-184.906
-183.181
-385.822
680.347
-1641.26
1591
-963.133
272.235
-673.037
584.316
1224.42
-1808.73
607.393
983.607
321.748
-1123.44
705.091
-283.642
-309.643
1382.08
-1450.34
832.373
617.971
438.694
-642.228
203.534
-392.498
485.276
-92.7783
384.885
117.862
1724.11
455.626
-249.599
557.63
-1704.79
1147.16
-96.3672
392.19
341.832
335.72
-448.343
-615.396
1063.74
411.726
-868.093
-640.888
902.703
570.515
-515.542
-252.252
-437.879
-408.306
-307.311
-827.167
1821.12
-1821.12
-102.315
-1594.78
1697.1
293.145
278.747
-917.148
-555.377
1472.53
-407.975
973.238
-604.137
-1037.83
693.232
398.635
-1091.87
470.866
-159.021
573.063
1220.35
-1793.41
-1037.49
2114.08
-1076.59
-375.985
-294.311
-485.512
826.761
-1755.66
1604.05
151.618
1755.66
-1609.52
-146.141
-244.569
521.063
-276.495
-537.278
1620.77
1569.79
-1983.62
1098.27
-293.266
-270.535
563.8
226.266
-576.026
-704.624
298.081
1342.27
637.319
583.271
480.626
-1063.9
270.528
428.948
875.395
500.064
-1375.46
537.186
-1018.2
1574.92
-563.961
-772.938
-357.164
-139.544
496.709
-489.961
1208.04
-741.255
332.865
366.833
382.672
243.989
-626.661
608.939
831.672
-603.193
261.57
687.09
-515.542
-330.208
-244.014
574.222
1168.52
-677.816
608.22
466.89
-1075.11
-1294.45
1294.45
-385.426
760.839
-278.483
-480.711
759.194
497.631
440.718
-938.349
392.865
-671.348
606.595
-868.723
262.129
-366.771
-491.14
1074.41
-660.22
-711.631
1371.85
-378.315
946.388
-1552.71
675.274
33.1695
-430.975
397.806
-521.791
733.453
263.724
315.724
166.854
304.011
-531.779
248.137
1869.85
-1966.02
261.097
-718.497
456.807
-822.527
365.719
-908.976
1419.48
-510.508
-429.388
-485.007
600.757
1124.18
-1724.94
-713.025
337.04
-461.799
1033.27
-790.526
1052.1
-379.004
-625.125
-501.282
746.932
540.136
-358.759
909.357
-314.506
-172.782
1599.02
-1816.57
-348.815
-614.185
-345.101
476.412
278.349
-605.964
-175.884
1069.1
-789.711
197.555
-300.053
-270.011
570.064
390.774
-886.555
495.781
-483.352
-461.779
-943.935
-364.258
598.071
-233.813
-457.09
-440.39
-352.693
-176.759
-405.815
649.803
-443.916
775.529
-1072.22
623.881
-1405.36
550.363
-28.4297
-1837.58
1866.01
569.913
-449.871
1230.55
-696.63
336.501
-336.501
672.222
-450.077
1037.58
-1641.72
-1158.73
-947.95
290.961
327.614
892.54
716.165
-507.63
-303.539
811.169
1659.42
-1687.85
-434.042
338.967
227.353
1134.35
-526.128
-943.333
1550.48
-607.144
439.902
-250.683
369.815
399.176
-768.991
540.064
467.692
-1007.76
-330.456
663.321
-37.9835
1907.84
1598.42
992.696
-1696.87
726.971
-1176.87
449.903
-492.437
1367.83
837.199
-1341.05
-576.272
283.007
806.474
-399.877
548.907
-1190.53
641.627
-635.152
-1215.53
-695.66
1911.19
-187.315
561.314
-373.999
-182.99
327.004
-514.319
333.111
364.741
-697.852
-1487.25
756.407
730.844
884.075
-1434.43
822.531
-431.647
208.816
-356.526
-608.719
278.511
-651.316
-729.169
698.054
506.524
-1204.58
383.838
-201.509
-182.328
555.401
-957.637
-578.146
-424.733
744.888
-831.304
-1155.74
-1437.94
499.647
938.293
2.59679
-654.056
354.251
299.805
-1320.05
1047.54
272.509
-616.235
-455.988
-665.65
921.615
395.134
-193.591
-201.543
508.233
980.593
-1488.83
980.783
-565.057
167.557
397.5
-414.843
684.218
-423.121
-505.035
159.933
234.21
-1520.07
526.031
548.255
-775.594
253.803
140.316
-454.822
362.058
-823.837
1954.16
-1195.39
-758.771
427.266
-693.184
265.918
326.115
337.61
105.775
-443.384
-576.964
192.887
262.739
-691.691
1374.28
-682.593
423.794
476.25
-1187.51
265.009
1866.78
-1013.59
-853.188
784.859
-549.624
185.366
1402.35
-975.182
-427.168
326.539
-776.616
-616.516
1725.43
608.75
630.273
325.018
-30.4601
263.222
-1138.41
1725.71
-587.299
-1763.53
820.193
1761.49
-1690.99
-70.505
-663.47
269.069
576.003
-732.879
231.598
1402.5
-565.298
382.369
450.859
-1858.61
1420.15
571.424
-446.684
-124.74
196.639
-549.332
-288.134
-193.69
-351.704
693.536
-587.264
230.1
616.792
548.101
-1164.89
1113.57
-1947.49
833.911
153.132
353.794
-1699.45
1661.47
307.496
-739.221
-167.736
376.552
759.502
678.736
-1438.24
1081.38
-1083.69
523.265
-1108.89
-626.242
250.506
375.736
541.077
-289.233
-614.259
-1027.46
287.118
-727.508
-912.321
168.816
159.522
224.316
405.209
285.602
-690.811
-634.892
-834.103
-978.456
487.439
-1064.4
-313.183
489.152
533.836
651.742
-281.798
-124.673
-410.67
732.419
263.279
-1201.29
566.402
1311.79
-552.283
441.366
-1019.51
-390.8
161.105
410.319
1023.3
551.621
-1717.51
1615.2
1634.71
-575.541
-1059.17
1904.7
-1893.63
-11.0684
224.793
-539.528
-361.792
559.347
-771.845
-330.317
-333.152
1020.45
705.339
-1511.4
806.061
333.989
-26.1884
1625.21
-1096.59
418.778
-1247.56
474.618
-61.0568
1520.83
1197.22
-470.252
-489.925
-75.1322
-276.597
736.029
-1951.56
-708.309
359.639
-531.738
172.099
192.379
-510.222
1139.92
671.568
-1811.48
-631.953
185.269
941.907
-1497.28
-210.45
678.873
-468.422
869.716
1130.28
-741.89
1350.64
629.015
-495.104
-133.911
-343.079
1175.45
1042.75
-1979.12
936.375
-1175.53
541.161
1488.68
-585.98
-401.884
-149.185
-1243.57
570.931
1160.64
-104.841
946.111
775.698
-1721.81
-197.462
578.553
-1541.69
963.133
486.954
916.611
-1403.56
625.64
584.17
407.124
-1106.64
592.002
1110.42
1216.54
-452.43
-764.108
-1186.2
-1754.93
-5.86715
-1711.65
-203.87
-438.358
1609.12
-631.664
-977.455
-490.772
1121.54
-1319.58
634.576
685.005
-1363.14
1445.17
-1332.32
590.431
1520.46
-388.581
-589.961
188.077
-1484.52
221.346
176.366
243.013
386.002
438.181
408.368
-846.549
506.298
-938.973
900.515
-1444.72
-714.523
236.789
477.735
-1049.8
457.412
-482.675
865.044
694.902
18.0259
-539.615
165.616
-886.565
-1318.74
-713.045
348.45
364.596
399.972
-721.007
321.035
-478.377
-189.255
-709.936
722.586
1539.77
-593.655
820.267
737.911
1344.75
-844.684
-971.174
-570.512
-794.564
427.311
367.252
-1036.09
-639.664
302.595
337.069
-1433.69
-296.783
-788.808
397.008
391.8
-664.351
417.06
247.291
-689.33
266.209
412.192
487.011
389.134
440.16
478.606
384.024
596.403
-969.234
689.902
464.806
453.468
356.063
-809.531
1630.75
-1079.89
-550.864
-504.588
-289.219
-1030.83
453.676
347.053
409.344
593.777
-1003.12
-1382.47
750.803
-529.933
1147.35
362.375
-42.1803
411.618
-864.08
452.462
-1895.95
301.169
441.316
-725.783
284.466
-188.049
398.663
-210.614
-658.822
302.367
356.455
-671.479
318.395
369.917
390.921
612.574
-1020.55
752.415
662.993
-1415.41
438.564
625.174
339.859
392.689
-732.549
408.646
327.467
599.003
674.002
416.387
603.097
-1032.09
428.992
-1669.95
1187.99
481.962
1696.58
-539.169
619.748
-1146.68
526.934
-642.4
347.834
436.92
-934.133
497.213
766.654
-452.531
349.823
343.713
578.962
-927.778
651.972
-1252.27
600.299
388.752
734.497
-1224.46
769.266
509.569
-1278.84
494.135
404.069
-898.204
-501.669
-936.271
-295.882
628.993
352.233
541.684
-893.918
332.295
331.026
-502.18
1944.74
437.021
-846.825
409.803
-917.679
-807.587
-746.484
366.256
-1228.98
438.459
-1738.45
1609.52
128.93
1748.91
-1604.05
-144.862
-782.721
-589.448
264.134
325.315
-1761.49
1983.62
538.571
791.242
-1329.81
439.976
716.233
690.245
385.491
-1075.74
-68.4985
1617.11
-593.817
389.874
840.673
-649.454
326.611
322.843
-377.325
-297.487
552.905
-214.116
432.683
280.7
-665.498
384.798
263.154
-575.776
-281.082
442.311
-1032.9
590.589
538.04
1092.71
365.776
596.755
312.824
353.593
-666.417
1631.24
-925.905
1692.08
-1520.76
-171.325
-326.294
-821.623
413.317
857.495
-1067.94
-603.736
277.494
-1090.59
1628.63
-1590.2
-76.1256
1666.32
-339.602
-348.703
-368.884
538.158
596.189
-500.243
-26.7608
-549.99
502.735
-281.219
-221.516
1754.13
-1303.94
-622.679
298.083
324.595
398.522
357.187
734.625
-295.065
-398.035
-1748.91
1687.85
459.404
-1100.54
641.133
-42.3609
1657.56
571.242
476.267
-1047.51
104.825
1144.7
-1452.01
-12.1355
-1883.82
226.241
-597.455
306.383
291.072
-955.31
612.533
-897.06
467.672
-1128.21
673.223
454.989
382.845
269.177
-776.808
-306.986
1216.1
886.582
699.092
-1182.83
456.06
726.772
494.28
700.552
-1194.83
-357.827
-244.767
404.289
-959.783
438.23
521.553
21.2422
-1879.85
1079.43
-472.838
-506.035
558.271
-1378.03
819.755
-432.76
798.479
-404.565
500.409
-705.551
1727.84
405.105
-180.79
217.268
-166.67
-242.92
409.589
1895.32
-504.115
-1698.06
1051.14
-602.066
304.579
-1013.07
553.104
-310.767
544.282
905.223
-1449.51
-1103.59
437.942
-20.9314
-1945.09
1710.87
-668.121
-540.592
460.64
-1190.3
729.661
193.211
201.923
-282.62
771.624
699.285
837.492
818.239
-462.176
1084.58
-487.333
474.136
-191.895
-282.241
-1923.69
-714.159
-316.754
-644.78
-6.98643
651.766
462.722
-269.835
567.944
1063.3
-808.515
923.931
1244.07
-424.615
-185.501
-228.904
414.405
962.513
-888.505
-317.855
-1067.37
611.382
1560.31
-803.899
537.662
934.863
-398.027
734.987
-336.96
1130.22
-276.68
340.914
1349.51
-705.912
-216.514
448.207
-1198.5
750.293
-984.294
-124.551
1108.85
441.05
-954.798
513.748
177.662
733.014
483.524
735.971
-96.4853
851.778
-425.193
1182.42
-796.926
552.169
-1465.38
913.215
-1216.65
1800.97
-431.711
-1510.19
879.592
-1401.91
-323.738
-420.162
1457.1
-1525.11
783.872
1491.47
200.02
274.116
-364.719
-1738.45
-285.537
-1013.85
1581.79
-1772.68
1772.68
1569.79
-1004.41
-632.764
-349.047
368.22
605.017
-375.545
-371.805
-1389.79
897.349
1125.13
600.578
1202.68
1789.48
-1216.42
-617.124
270.826
1659.04
-1916.54
257.493
814.971
-1267.62
1545.22
-561.611
792.748
322.098
-355.764
554.93
794.693
672.496
1356.56
-240.461
-444.598
-379.387
497.702
-342.248
471.701
736.337
-310.497
-132.888
-341.554
570.364
-228.81
30.1324
-369.056
1107.43
-1720.26
-451.63
-497.298
-570.84
863.632
696.674
-1596.42
904.733
-451.315
-627.425
-514.212
1251.79
350.797
1723.72
-1702.48
-1659.42
1893.63
-1560.78
840.265
720.516
-388.518
-1797.44
917.713
583.334
819.163
-392.42
1794.34
-680.762
-421.343
683.499
440.23
-1123.73
-1100.73
444.033
753.19
-1617.16
473.175
901.108
174.264
-396.546
222.282
-1599.76
-387.216
-439.381
990.283
-677.173
1442.88
-983.39
1853.11
238.435
-535.787
492.702
-292.682
474.288
893.544
543.139
977.321
-462.569
-427.549
573.988
883.109
-1392.71
-40.9883
1577.27
-839.356
519.935
971.534
-1475.76
-1115.9
1773.89
-1240.77
-533.114
1206.03
-319.04
-886.991
-189.969
449.609
-259.639
-456.897
-247.368
425.394
-178.027
141.068
-385.835
1733.35
-1739.21
-469.12
-530.829
-903.601
439.568
-204.895
-234.673
635.667
-466.962
-359.803
-329.352
689.155
-931.137
397.011
-1167.21
676.434
412.7
-641.628
-432.389
1580.88
-864.713
530.176
-457.665
-570.527
-462.373
373.62
-363.848
-9.77263
-1113.88
417.254
-664.808
-1033.61
1698.42
-608.432
-1423.8
712.168
562.204
-1596.24
1034.03
-404.596
-470.909
160.513
536.729
-1258.2
743.983
539.216
1006
-2133.18
999.988
1133.19
-380.517
420.94
-396.03
-24.9103
1478
-379.633
449.188
1210.47
582.275
906.408
567.282
527.398
-1094.68
161.369
-452.102
-1690.99
247.147
1127.57
-621.448
518.502
1013.71
-1532.21
1092.85
-1643.71
185.919
705.922
555.421
-873.276
-1086.49
-173.515
429.481
-255.966
-587.09
-441.906
-636.753
-629.684
347.064
-1619
939.514
-476.656
212.068
-392.858
531.257
-305.016
-615.443
1197.06
-1286.24
925.446
360.798
-1016.61
-386.483
-761.391
-827.949
1691.58
-476.781
1793.07
-1583.16
-209.915
-1556.62
1018.71
537.902
-729.149
-263.978
445.997
-182.019
-599.597
382.583
271.438
-654.021
-523.907
998.025
627.252
-349.758
-1620.27
1050.51
571.767
1103.53
-1675.3
-427.532
-287.343
-371.479
-747.891
-482.926
-328.424
495.278
1557.97
-995.766
-774.883
1497.44
656.806
-317.839
725.88
1152.37
-1878.25
308.517
320.543
-487.078
-1932.99
1720.38
212.609
735.853
-473.617
-262.236
531.825
1060.82
-1592.65
373.62
-1723.78
-233.21
1752.35
-1580.69
1073.78
506.91
-1725.45
1.66338
-521.609
420.94
1699.45
-1720.38
939.536
624.741
-1564.28
385.091
-218.127
-166.963
-424.5
-264.83
67.6257
95.2013
-359.179
-426.648
-442.075
-401.356
213.308
1510.22
378.863
-217.038
-447.312
460.568
-197.829
334.218
1510.75
995.403
-154.301
-841.102
-1104.08
1704.84
-1728.8
1063.99
-707.237
-1021.56
-1265.08
1844.99
-579.903
1155.06
-1771.16
616.102
272.482
-878.021
1675.76
43.437
-1719.19
-491.152
-1083.05
-1733.35
-981.483
553.934
1019.6
590.227
1133.02
-1723.25
274.09
-451.486
701.504
-383.109
392.44
924.64
681.041
-384.417
-647.673
582.89
1072.54
-1655.43
-404.161
-364.629
768.791
443.488
-1661.47
1520.76
140.708
581.338
-1043.14
544.74
1083.89
-1555.65
994.042
-235.73
222.155
337.193
1904.7
448.886
-70.5652
995.861
722.75
-1718.61
-697.219
1085.34
-1557.5
162.222
-571.146
197.042
263.526
-665.697
-563.287
582.524
1034.59
-711.147
-286.088
-1368.14
674.851
693.291
-410.566
755.9
71.7294
-827.629
561.741
-137.165
1557.31
-208.146
278.95
-774.308
-1932.99
1664.61
1025.71
389.902
311.088
455.566
-929.877
-993.813
-1767.26
633.089
1693.76
505.36
-474.282
1210.62
1087.1
-424.72
1029.74
-976.911
490.312
486.599
700.384
1047.9
-1748.29
481.775
484.408
-1493.96
-745.512
33.5828
778.387
-412.132
-888.963
382.928
-539.132
-801.916
644.948
-577.459
1397.21
1055.14
195.36
234.121
-550.614
1618.52
-773.642
1526.06
-1727.83
575.255
1152.57
540.732
-881.714
-1732.85
1916.54
-183.683
1721.74
179.774
-544.51
374.325
-279.124
-481.355
1211.02
568.266
1128.32
-491.058
426.682
856.12
-458.812
-771.115
431.205
339.91
1419.02
1089.57
-518.191
1422.92
-510.507
-533.554
1044.06
-602.756
489.987
-1204.98
1692.08
1839.58
-687.212
1585.73
-646.199
-1241
717.095
-562.547
205.753
-396.977
453.795
-244.514
-519.406
-1246.71
1870.94
-624.235
1172.98
-553.227
1120.28
-1659.45
1699.22
-573.932
-546.383
-549.818
1720.07
-316.747
-688.033
-473.246
1223.54
-1686.67
-1860.1
613.397
312.341
-936.461
165.755
211.483
-1719.02
1204.15
514.873
1162.85
558.887
-512.181
-465.307
1192.08
179.45
219.213
588.444
1251.13
-539.177
-1238.58
1777.76
-1025.32
999.99
866.789
-204.1
-1659.04
1702.48
-510.063
1411.17
-1732.85
-349.697
11.0185
338.679
-255.764
582.613
-326.848
88.9073
484.532
779.356
-379.383
1257.53
1270.79
-413.294
850.714
-437.397
1817.47
-662.404
1586.56
-1723.72
-412.796
-759.541
308.839
450.702
-560.142
-563.344
79.7146
-1138.76
-985.369
-669.91
1655.28
-943.706
-1189.47
158.802
-429.337
-648.024
705.664
1167.44
650.025
1410.17
-591.008
1636.74
1317.86
-573.879
-487.319
194.637
-503.256
1396.8
1239.79
-564.937
-999.989
891.732
56.9035
-948.635
603.432
-506.113
1403.46
1495
-588.588
-382.132
382.132
-589.446
1623.48
1239.36
-486.167
1134.16
-66.8064
1848.76
-385.994
1489.38
-588.866
-507.651
1347.92
-651.52
1218.24
-566.724
1554.76
-591.631
756.647
576.103
-1332.75
-656.364
284.763
504.461
600.366
-1957.3
-998.602
1586.56
382.834
-382.834
-62.2256
386.074
436.457
400.302
-15.4176
-342.575
906.953
-518.201
-426.237
812.311
-241.483
617.219
-427.773
1548.36
-444.314
-884.098
184.478
223.023
-407.501
601.168
1250.77
-1851.94
926.008
-458.336
-363.848
126.151
-1943.02
1816.87
-445.919
174.522
1181.17
-440.394
-740.776
-297.611
-591.352
-493.772
-396.03
-476.799
255.283
1157.69
-561.504
228.248
-372.205
143.956
-22.41
-107.67
1376.09
-1268.42
34.4506
-599.42
-586.406
-460.838
460.838
-1262.36
1985.11
-1344.38
-211.114
-1822.94
239.785
-1025.75
-974.243
-183.308
-1638.32
708.445
1229.32
-1924.98
365.51
313.835
-679.344
-1850.01
1234.27
615.743
-564.915
564.915
-959.119
-39.898
-1866.07
-558.141
1650.85
-676.695
1636.16
-601.565
-180.208
-1703.61
-581.085
-448.453
-594.805
-473.893
473.893
-1537.81
194.527
1343.28
172.8
223.796
-396.596
488.108
507.295
996.291
-474.738
1751.3
768.752
-428.08
403.17
521.456
1702.04
-594.616
-552.96
1636.85
467.868
1812.75
-645.311
-1804.09
-1938.07
-646.984
-485.134
485.134
-598.924
219.537
-695.106
1018.84
-465.736
-1073.82
-290.58
1579.58
1852.3
1635.34
-1635.34
-269.671
739.985
1761.49
595.788
1275.15
175.392
209.698
587.767
588.283
1603.53
-1603.53
220.49
-355.498
-436.179
458.886
950.216
-459.904
-639.43
-1131
1706.26
278.55
-1655.91
618.084
-285.775
465.549
1744.64
-592.067
-214.69
-421.496
378.732
731.693
1738.57
-613.434
-511.766
-771.306
1960.53
-870.454
-1090.08
1642.75
-705.788
1223.97
-1824.94
600.974
350.302
-886.088
-185.924
-110.219
1097.83
-486.446
139.582
625.615
-1653.07
432.284
620.594
-1804.09
-583.276
1787.43
883.942
-1162.91
1760.49
-597.572
1783.83
-575.528
-1208.3
436.652
923.406
-1739.21
924.694
-1492.54
262.747
1229.79
-830.81
-1254.22
-385.982
77.7565
308.226
581.726
267.461
1030.47
-440.755
844.691
-403.935
820.592
739.854
-1560.45
644.041
1066.31
-24.5323
-663.974
688.507
-1744.33
722.769
704.463
150.532
-1122.67
1936.76
-674.55
-1262.21
-537.172
1665.49
833.506
965.532
-1799.04
1227.86
683.33
-405.785
708.152
823.617
1027.53
-586.475
1761.49
626.419
1773.56
-1185.62
-587.943
-381.141
-343.706
724.847
121.433
-1185.7
1660.55
-540.264
-1437.85
1437.85
1250.57
594.416
1351.52
206.447
-556.186
277.701
-184.725
699.089
1113.66
475.205
-295.755
-869.922
-574.803
1737.55
-1737.55
1013.19
-1013.19
987.332
1025.17
-2012.5
1837.94
-613.974
-581.107
834.516
-947.85
-1052.16
998.26
690.815
-1689.08
-522.114
-360.923
-640.418
-808.425
2042.69
-1246.42
-613.684
1002.97
974.852
1289.77
646.988
324.179
1012.68
223.572
338.6
1186.29
1756.88
-1756.88
671.91
80.2169
-391.615
-997.053
-539.987
1674.14
991.506
1008.49
-1833.28
-221.415
-359.67
611.413