/*--------------------------------*- C++ -*----------------------------------*\
  =========                 |
  \\      /  F ield         | OpenFOAM: The Open Source CFD Toolbox
   \\    /   O peration     | Website:  https://openfoam.org
    \\  /    A nd           | Version:  7
     \\/     M anipulation  |
\*---------------------------------------------------------------------------*/
FoamFile
{
    version     2.0;
    format      ascii;
    class       volVectorField;
    location    "17";
    object      U;
}
// * * * * * * * * * * * * * * * * * * * * * * * * * * * * * * * * * * * * * //

dimensions      [0 1 -1 0 0 0 0];

internalField   nonuniform List<vector> 
117990
(
(1.01898 -0.0427794 -5.74088e-19)
(0.999098 1.19903e-05 -2.72342e-21)
(0.854037 0.0216217 -1.73609e-19)
(0.918677 -0.0474832 3.94044e-20)
(1.06019 -0.0356622 5.27233e-20)
(0.952681 -0.0645111 1.00549e-21)
(0.819522 0.0103736 -1.5256e-18)
(1.11907 -0.0564029 -1.32449e-19)
(0.97891 -0.0281219 -8.53987e-22)
(0.999039 7.65363e-05 5.75358e-22)
(0.982123 -0.0017464 9.77227e-21)
(1.01119 -0.00929731 4.95241e-21)
(0.997814 -0.0561431 5.60603e-20)
(0.508484 -0.0202578 1.39511e-18)
(0.978752 -0.0287955 8.22866e-21)
(0.62213 -0.101523 3.10604e-18)
(0.990851 -0.0230519 3.34405e-21)
(0.974354 -0.0158699 -1.27467e-20)
(1.00878 -0.141455 1.54598e-18)
(1.06026 -0.0343152 1.8932e-19)
(1.11997 -0.0418468 -1.27228e-18)
(0.744895 -0.00286315 -2.2106e-20)
(0.970656 -0.0208548 -1.1453e-20)
(0.902378 -0.0355889 2.25922e-20)
(1.24233 -0.0324809 1.12322e-18)
(0.89765 0.208963 1.6823e-18)
(0.182728 0.203973 -2.61298e-19)
(1.13787 0.00157134 1.01106e-18)
(0.998717 -0.00399055 3.32055e-21)
(1.06616 0.14333 -1.4787e-18)
(0.989934 -0.00367765 7.91642e-21)
(1.05929 0.0954821 3.82931e-19)
(1.08449 -0.0155098 -7.28742e-20)
(0.777089 0.00129327 8.97114e-20)
(1.26862 -0.0323249 4.79969e-19)
(0.895826 -0.0530438 8.96817e-20)
(0.843569 0.101702 2.56844e-19)
(0.990878 -0.0235354 -1.57715e-21)
(0.502224 1.43917 2.71287e-20)
(0.891587 0.0376165 3.42169e-18)
(1.06181 0.0946266 -7.44807e-19)
(0.974014 -0.0164023 -2.38108e-21)
(0.866333 0.0269651 4.00523e-19)
(0.895255 -0.0518917 -6.29691e-20)
(0.98118 -0.126594 5.08304e-20)
(0.510988 -0.0193905 -1.45308e-18)
(1.05436 -0.00553331 6.94753e-19)
(1.12663 -0.00604635 1.69866e-19)
(1.03413 -0.0387745 7.37891e-20)
(1.01111 -0.000971049 -2.2635e-20)
(1.00043 -3.55801e-05 1.048e-24)
(0.814397 -0.0063936 8.1495e-20)
(1.05526 0.0608822 1.15965e-18)
(0.999284 -5.31164e-06 -4.38927e-22)
(0.999739 -0.0356734 -2.61023e-19)
(1.05422 0.0601157 -2.88771e-19)
(1.0963 0.00932729 9.45777e-19)
(0.877255 -0.148071 2.85464e-19)
(0.288098 0.230027 8.49219e-19)
(0.893654 0.0139873 -5.14616e-19)
(0.99441 -0.0139264 -2.93134e-21)
(0.902164 -0.0306498 -2.11015e-20)
(0.947815 -0.00277655 -2.04521e-20)
(0.807073 0.0371329 -4.58161e-20)
(0.995216 -0.00387045 -8.53039e-21)
(1.06005 -0.00102719 -1.43781e-20)
(1.00264 -0.0518502 -2.99375e-19)
(1.09324 0.0488748 9.86155e-19)
(0.310529 0.0971228 6.41231e-19)
(1.1067 0.00904644 4.12045e-19)
(0.80861 0.184191 8.81981e-19)
(0.34139 0.0822107 -1.1104e-18)
(0.896658 0.0388477 1.53981e-18)
(0.728943 -0.0194392 3.30061e-19)
(1.02609 -0.0645972 2.72243e-19)
(0.7814 0.00678237 1.04922e-19)
(0.758703 0.266998 -3.96492e-19)
(0.995885 -0.0572579 1.1339e-19)
(0.995581 -0.23598 -5.4662e-19)
(0.97124 0.163773 9.81371e-20)
(0.965863 0.170243 3.50389e-19)
(0.9963 -7.43742e-05 2.87173e-22)
(1.09663 -0.290173 -4.12775e-19)
(1.15374 -0.00105608 -4.56612e-19)
(0.822134 -0.037523 4.4248e-20)
(1.01077 -0.00903366 4.86631e-21)
(0.843081 0.0400868 2.38292e-19)
(0.999189 -0.00143506 -3.61789e-22)
(0.777278 -0.0271095 1.47341e-21)
(0.999177 -0.00237981 1.58506e-21)
(0.231786 0.804283 -2.45302e-21)
(0.813352 -0.00697222 -5.44534e-20)
(0.998482 -0.00389957 -4.21274e-21)
(0.915527 -0.0511346 6.90563e-20)
(0.968686 -0.0195699 -1.9629e-20)
(1.02532 -0.0035169 9.76653e-21)
(0.972842 -0.00123621 -4.41049e-21)
(1.10134 -0.288191 -3.34703e-20)
(0.872727 0.512936 -3.81509e-20)
(0.775487 -0.0255136 2.07809e-19)
(0.994309 -0.0142442 3.03645e-21)
(1.1219 0.0107017 -9.38879e-19)
(1.04638 -0.0194566 -5.47762e-19)
(1.09705 -0.00364761 -1.76749e-21)
(0.80631 0.184793 5.8863e-19)
(1.11732 -0.13148 -4.71063e-19)
(0.912255 -0.0282618 -9.46069e-19)
(1.04626 -0.180103 -3.48071e-19)
(0.945602 0.036996 -1.28263e-19)
(0.998783 -0.00459421 -2.0165e-21)
(0.869448 0.191954 -7.99501e-19)
(0.973135 -0.00162334 1.76702e-21)
(0.742221 0.277718 2.49044e-19)
(0.971567 0.0303824 7.66156e-19)
(1.24633 0.0507374 -1.63264e-19)
(1.01598 -0.0092951 9.8518e-19)
(0.981896 -0.00147104 -1.80398e-20)
(0.797425 0.173975 -1.14977e-18)
(1.00144 -0.00125399 1.83789e-22)
(0.337585 0.0933241 7.66032e-19)
(0.797571 0.173142 1.64981e-18)
(0.620465 -0.103276 -1.24105e-18)
(0.862071 0.0229624 -1.57415e-19)
(0.468889 0.266516 6.03304e-19)
(0.999127 -0.000142193 -5.42627e-22)
(1.05961 0.148528 1.70784e-18)
(0.903229 -0.0311758 1.79825e-20)
(1.20372 0.131378 -5.24241e-19)
(0.892183 -0.00496752 1.54448e-21)
(1.14228 0.00155049 -8.53447e-19)
(1.03859 -0.0646245 -6.48163e-20)
(1.01724 -0.00258972 7.69862e-21)
(0.756954 0.139462 -7.55748e-19)
(1.01079 -0.00856125 -1.48295e-20)
(1.00157 -0.00110013 8.63773e-23)
(1.01885 -0.00752645 2.42874e-18)
(1.2537 -0.0764031 -3.09038e-19)
(1.08099 -0.0130978 -9.2739e-20)
(1.00189 -0.0356128 3.58848e-19)
(0.903637 -0.0329327 -1.90592e-19)
(0.770099 -0.147632 5.89241e-19)
(1.02815 -0.0161696 5.00244e-19)
(1.00398 -0.000257142 -6.01438e-21)
(1.04143 0.0815529 1.44702e-19)
(1.03539 -0.064161 9.53094e-19)
(1.0003 -6.52579e-05 -7.84675e-25)
(1.07282 0.0131518 5.79766e-23)
(0.901161 -0.0275825 6.48413e-20)
(1.09575 0.0494339 -1.52217e-18)
(1.05037 -0.0432595 -1.81976e-19)
(1.11338 -0.129988 3.59459e-19)
(0.975807 -0.123566 -3.67152e-19)
(0.810738 -0.00740886 -3.40793e-20)
(0.998848 -0.000127722 2.44116e-22)
(0.816396 -0.00584168 4.8084e-20)
(1.09753 -0.0152699 4.40937e-19)
(0.998769 -0.0046994 2.57745e-21)
(0.99427 0.152114 1.20532e-18)
(0.765238 0.00465967 9.32098e-21)
(1.22172 -0.17047 1.83319e-19)
(0.781241 0.0120248 -5.71412e-19)
(1.07346 0.0143736 5.25809e-19)
(0.948651 -0.00245703 -1.51012e-20)
(1.02463 -0.098592 -4.9829e-20)
(0.961596 0.0138599 2.85315e-19)
(0.94235 -0.0304444 -5.3917e-20)
(1.09703 0.00330846 4.62755e-19)
(0.939135 0.0128972 4.46112e-20)
(0.979299 0.156063 -1.76118e-18)
(0.9461 0.0172022 -3.29033e-19)
(0.911036 0.00843788 -4.31713e-19)
(1.05842 -0.00961807 -3.92364e-19)
(0.186804 0.884768 3.15473e-20)
(0.5746 -0.0804021 2.16686e-18)
(0.98745 -0.0876 -4.22431e-20)
(1.10896 0.0311788 -4.29179e-20)
(0.573312 -0.0779245 -4.78653e-19)
(0.94245 -0.0616336 -4.60727e-20)
(1.05278 0.00605986 1.45671e-18)
(1.0336 -0.0410975 1.20544e-19)
(1.10209 0.00507195 8.9086e-20)
(1.0218 -0.0648758 3.11505e-19)
(1.07152 -0.105127 -6.70849e-19)
(1.04237 0.0724331 6.24137e-19)
(0.91562 -0.0347694 2.22342e-18)
(0.977447 -0.0490036 -4.0556e-22)
(0.893197 -0.0409633 -1.78312e-20)
(1.0002 0.00340299 -6.50337e-19)
(1.0629 -0.00843645 1.34655e-18)
(0.25159 0.809033 2.06324e-20)
(0.945491 -0.060875 -1.53748e-20)
(1.03175 -0.0178438 -3.35103e-19)
(1.03904 -0.223639 -9.71318e-19)
(0.846412 0.00372966 -7.54338e-19)
(0.906541 0.207236 -2.22763e-18)
(1.14778 -0.189506 2.1894e-19)
(0.568145 -0.0753841 1.4237e-19)
(0.685968 -0.0010257 -5.09493e-20)
(0.803975 -0.00232002 5.47172e-19)
(0.97915 -0.0165685 4.31281e-19)
(1.03852 0.0612528 8.18078e-19)
(0.905665 -0.186899 9.78409e-19)
(1.10897 0.0105192 2.64246e-19)
(0.999139 -0.00176192 -2.49532e-21)
(0.885603 -0.042481 -1.99849e-21)
(0.796757 -0.0647392 3.81624e-19)
(0.957621 -0.0516679 -1.71765e-20)
(0.995301 -0.00388912 6.5713e-21)
(1.11452 0.0103383 -2.26393e-19)
(1.06008 -0.0797775 -1.32168e-18)
(0.565542 -0.072161 -1.21039e-18)
(0.910901 -0.0178088 -5.88682e-19)
(1.24077 -0.0336648 -8.32378e-19)
(0.999228 -0.00237973 2.07384e-22)
(0.956442 0.02259 9.55375e-19)
(0.847308 0.000617276 3.73552e-19)
(1.04133 0.106632 6.80606e-19)
(1.06069 -0.0132963 7.87182e-19)
(0.505857 -0.0153789 -8.39471e-19)
(0.989444 -0.0159633 1.44395e-21)
(0.972859 -0.0805615 1.57241e-20)
(0.847984 0.0218656 -2.64755e-20)
(1.03456 -0.0320758 -3.45923e-20)
(0.771147 0.00598671 -4.71012e-19)
(0.999281 -4.97087e-05 6.30575e-22)
(1.19976 -0.0827999 8.78923e-19)
(1.02404 0.0167113 -6.64693e-19)
(0.785622 -0.00656708 5.89713e-19)
(1.14682 -0.186828 1.2712e-19)
(1.16856 -0.111763 4.81403e-19)
(1.12881 0.00899237 -9.21762e-20)
(0.973383 -0.13742 -6.66951e-20)
(0.781189 -0.107286 -4.87933e-19)
(0.930021 0.0029574 3.73442e-19)
(1.04299 -0.0627283 -4.35551e-19)
(1.03793 0.0612386 1.2272e-18)
(1.02956 -0.00250826 1.1063e-20)
(1.04484 -0.0232045 5.97829e-19)
(0.944821 -0.00374206 -1.35126e-19)
(0.81188 -0.00913634 -1.0588e-19)
(0.394777 0.650629 -4.04921e-19)
(1.00565 -0.0330591 9.25906e-21)
(1.22675 -0.169261 -2.36514e-19)
(0.886734 0.532979 2.73206e-19)
(0.888951 -0.0045357 -7.9039e-20)
(1.04692 -0.0399763 -3.60478e-20)
(1.07099 0.0687438 1.09768e-18)
(0.778558 0.00364337 1.03458e-18)
(0.938749 0.0131649 1.61023e-20)
(0.7422 -0.124117 5.57596e-19)
(1.00916 -0.154562 -5.03873e-19)
(0.930688 -0.0648336 -3.0643e-21)
(1.06791 0.00917785 -4.16915e-18)
(1.02484 -0.0516023 1.89317e-20)
(1.2134 0.124905 -9.81761e-19)
(1.1018 0.00376864 -6.09747e-19)
(0.602599 0.315328 -9.20618e-19)
(1.15324 0.0024064 4.17683e-19)
(1.02004 -0.000452729 5.24283e-20)
(1.12667 -0.0551597 -1.33775e-20)
(1.10508 0.00739565 -1.42539e-18)
(0.509336 -0.0115329 5.15507e-19)
(1.03965 0.0771847 -8.9499e-19)
(0.718921 1.56519 -4.60419e-20)
(0.943608 0.0376685 -9.88446e-20)
(0.921979 -0.0485875 -1.24573e-19)
(0.478343 0.263978 9.67563e-19)
(0.893546 -0.0124127 8.60378e-20)
(0.773189 0.241062 -4.65481e-19)
(0.765094 0.275432 8.75196e-20)
(0.995455 -0.00211876 -6.45215e-23)
(1.06533 -0.0076171 -3.28782e-19)
(1.03673 -0.041732 3.1271e-19)
(1.00585 -0.0331347 -5.08747e-19)
(0.989615 -0.0601097 2.18195e-19)
(0.838969 0.0380001 1.18531e-19)
(0.979974 -0.129953 -3.82963e-19)
(0.985946 -0.0857733 -2.07005e-20)
(1.00103 -0.0159148 -3.96197e-19)
(1.0487 -0.179003 2.80813e-19)
(1.02503 -0.101584 1.31258e-19)
(0.890298 -0.00376596 -5.97954e-20)
(1.0095 -0.0534762 2.96089e-20)
(0.792519 -0.0587558 -2.0029e-19)
(0.997879 -0.0427507 1.1984e-20)
(1.10573 -9.59812e-05 1.00307e-18)
(1.19208 -0.0983683 5.12287e-19)
(1.07954 0.00520106 -2.14989e-18)
(1.11313 -0.29673 2.42286e-19)
(0.510144 1.34164 1.58371e-20)
(0.976489 -0.129153 -9.43699e-20)
(0.999321 -0.00172232 -1.87673e-21)
(0.281642 0.271265 5.63901e-19)
(0.915213 -0.0144279 -5.73604e-19)
(0.992648 -0.0293062 1.77606e-22)
(1.10696 0.0138749 -6.94183e-19)
(0.930411 -0.0587443 -3.53249e-21)
(1.06326 0.0929414 5.97835e-19)
(1.03049 -0.0480561 -2.37393e-19)
(0.741753 0.294741 2.23835e-19)
(0.548945 -0.0591957 6.51269e-19)
(0.974009 -0.0826354 -1.38312e-19)
(0.0591311 0.458468 -6.44758e-21)
(0.905923 -0.0167286 1.69659e-19)
(1.01546 -0.119417 5.06523e-20)
(1.03701 0.129886 3.47454e-19)
(1.00169 -0.0523139 -6.74951e-20)
(0.784807 -0.00210987 -4.08449e-19)
(1.70415 1.04119 -2.64318e-20)
(1.05493 0.00569695 5.57029e-21)
(0.887992 -0.0620344 -1.52239e-20)
(0.809455 0.0936093 1.19416e-18)
(0.790193 -0.000350994 8.19558e-19)
(0.944197 -0.00296394 4.0805e-19)
(0.989357 -0.0519331 -2.88983e-19)
(1.04981 -0.0207488 1.49438e-19)
(1.04154 -0.220517 -1.52256e-18)
(1.04564 -0.0394162 1.53969e-19)
(0.90569 -0.0382958 -1.00055e-19)
(0.292619 0.294046 -1.43111e-19)
(1.06063 0.0653378 2.36937e-19)
(0.989709 -0.0162745 -1.09457e-20)
(1.10762 0.00897602 -2.07365e-19)
(1.24849 0.0457706 2.95172e-19)
(1.00134 0.150098 -1.35537e-18)
(0.768893 0.0173326 9.69107e-19)
(1.09792 -0.0158109 -6.48254e-19)
(1.06528 0.0799575 7.62246e-19)
(0.543124 -0.055911 -1.26734e-18)
(0.275716 0.261159 -8.83157e-19)
(0.892163 -0.0621794 1.07658e-20)
(0.999278 -0.00178818 3.53802e-21)
(0.979733 -0.0511102 -8.07297e-22)
(0.932082 -0.0635377 1.11587e-20)
(1.25897 0.00644865 2.16841e-19)
(0.949046 -0.0457206 1.38294e-19)
(0.970977 0.154769 7.00453e-19)
(0.995956 -0.00219347 6.42845e-22)
(0.949594 -0.0643164 -5.83157e-22)
(0.889855 -0.0405326 2.55293e-20)
(0.866857 0.0190641 1.54221e-19)
(1.04585 0.111853 -2.57781e-18)
(0.187513 0.198945 1.03597e-19)
(0.804431 0.0350066 -4.21399e-19)
(0.894507 -0.0128584 -6.53652e-20)
(1.068 -0.0377506 -5.67929e-20)
(0.997764 -0.014369 2.46387e-19)
(1.21059 0.118848 -1.21039e-20)
(0.863094 -0.0737174 -1.04334e-18)
(1.01103 -0.0219653 -1.24634e-19)
(0.761025 0.14232 3.98405e-19)
(1.00799 0.0551365 -9.85666e-19)
(1.10601 0.00607179 1.29938e-18)
(0.928332 -0.0553333 -6.8313e-20)
(0.978671 -0.016346 4.76638e-20)
(1.01006 0.0236678 9.01752e-20)
(1.01954 -0.0412029 9.13125e-19)
(1.00039 -0.000166061 -1.0713e-24)
(0.972564 -0.0648784 -7.02829e-20)
(1.04836 -0.0177487 -5.77316e-19)
(0.866712 0.239515 1.3532e-18)
(1.02782 -0.134627 -9.13503e-20)
(0.841839 0.089327 4.8766e-19)
(1.26859 0.0213447 -2.31103e-19)
(0.895092 0.200066 -9.09485e-19)
(1.00022 -0.000186161 -7.69893e-24)
(0.694922 0.000458402 1.03967e-19)
(0.881875 0.0323299 -2.36757e-19)
(1.0373 -0.032748 -3.11077e-19)
(1.00017 -0.000245521 5.88614e-23)
(1.20769 0.10421 2.3322e-19)
(0.458298 -0.198811 -6.24763e-19)
(0.779019 0.00490844 1.01251e-18)
(0.961633 -0.00171343 -2.31118e-20)
(0.757841 0.227588 -7.05433e-19)
(1.07743 -0.0282799 8.13516e-20)
(1.04746 -0.0198846 -3.05492e-19)
(1.01079 -0.000656245 2.00775e-20)
(0.938811 -0.0698987 -4.7123e-21)
(1.05078 -0.0213293 -8.46366e-20)
(0.971158 -0.13755 -5.10556e-19)
(0.946349 0.0325393 2.44451e-19)
(0.967147 0.0296281 1.06684e-18)
(1.04719 -0.0169695 -7.02536e-19)
(1.11418 -0.00327308 -5.35676e-19)
(0.992148 -0.000488177 -1.15463e-20)
(0.774462 -0.0972016 1.02587e-18)
(0.708749 -0.126101 -1.27315e-19)
(1.06226 -0.0369184 -2.04071e-19)
(1.07749 -0.0672914 1.94034e-19)
(1.06015 0.0883917 -2.64633e-18)
(0.940256 0.0535641 -2.01533e-18)
(0.841405 0.0398564 -1.77284e-19)
(1.13358 0.00453597 5.42674e-19)
(0.849177 0.0224233 -2.43208e-20)
(0.934466 -0.0703148 4.11753e-20)
(1.71061 0.990398 1.46358e-20)
(1.0357 -0.0378383 1.56008e-19)
(1.03625 -0.0422723 -5.66423e-19)
(0.815942 0.0377366 -5.1151e-19)
(0.826014 -0.036627 -2.66063e-19)
(0.943239 -0.0590995 -6.28892e-20)
(1.02421 0.0541514 -4.03624e-19)
(0.902275 0.0474564 1.43322e-19)
(1.24566 1.39555 2.54124e-20)
(1.03234 0.0906726 -7.90664e-19)
(1.00156 -0.00116395 -1.87581e-22)
(0.977229 -0.0121988 -1.02252e-19)
(1.04177 0.0821246 2.8987e-19)
(0.718073 -0.00643905 5.1446e-20)
(0.963761 0.0335268 6.01046e-19)
(0.883827 -0.0610579 4.31558e-21)
(1.07125 -0.0362142 -1.58758e-19)
(0.930354 -0.0480697 1.01575e-19)
(0.818376 -0.0350664 -3.51515e-20)
(1.00122 -0.0192128 1.40241e-19)
(1.03819 -0.041957 3.43174e-19)
(1.49905 -0.000470734 -3.68246e-20)
(1.00282 -0.00178985 2.69307e-21)
(1.12122 -0.00406202 -9.01041e-20)
(0.999186 5.85953e-05 -4.66695e-23)
(0.560449 -0.0696271 1.65662e-18)
(1.01568 -0.0141854 1.3598e-20)
(0.963977 0.194682 1.0495e-18)
(0.791406 0.00734478 -4.34148e-19)
(0.979775 0.106559 -8.27549e-19)
(1.04374 0.0829687 5.41373e-19)
(0.957104 0.0911143 -7.89955e-20)
(1.099 0.0100198 1.35559e-18)
(0.970372 -0.0503617 -2.96183e-20)
(1.06925 -0.0277848 -1.62657e-19)
(0.985968 -0.0376596 8.92027e-23)
(0.847343 -0.0452593 3.81512e-21)
(0.788116 0.00187864 -2.36877e-19)
(0.90714 -0.0208911 6.39398e-20)
(0.974322 -0.00976422 -2.44904e-19)
(1.02549 -0.0422788 -3.42316e-19)
(1.01546 -0.0136992 -1.64775e-20)
(0.988817 -0.00612454 -2.97472e-21)
(1.00971 -0.00831621 -1.06893e-20)
(0.990228 -0.0573968 -1.06527e-19)
(1.13978 0.00202359 8.05502e-19)
(1.01815 -0.0368318 7.25512e-19)
(0.810608 0.0403888 5.43986e-19)
(0.997686 -0.0417461 -2.47297e-20)
(1.16844 0.155615 -5.23851e-19)
(1.04703 -0.0408666 4.56784e-19)
(0.989898 -0.00612776 -1.23386e-20)
(0.942558 0.0566659 2.88875e-18)
(1.10418 0.0286409 1.31008e-19)
(0.972888 -0.0911475 3.73467e-18)
(1.00309 -0.00235553 -2.67055e-21)
(1.00195 -0.0345707 0)
(1.07196 -0.0271929 2.42452e-19)
(0.940151 0.00937158 -2.2973e-19)
(0.927227 -0.0338631 6.55489e-20)
(1.22915 -0.0718657 1.93321e-19)
(0.779971 0.00251601 -6.92796e-19)
(0.98957 0.179398 1.82137e-18)
(0.694382 -0.00288463 3.48013e-19)
(1.01715 0.0494001 -2.14797e-19)
(1.04806 -0.0406936 -3.32146e-19)
(1.06191 -0.0365099 2.40626e-19)
(0.956318 -0.168268 -8.54655e-19)
(0.805946 0.0961619 -4.98059e-19)
(1.12634 -0.0397264 7.35537e-19)
(1.07884 -0.0281646 3.73719e-20)
(0.580484 -0.0826888 -2.36936e-18)
(0.694332 -0.00434502 -1.99871e-19)
(1.00311 -0.0024934 1.13549e-21)
(1.11613 -0.00340942 1.07887e-19)
(0.719618 -0.125937 3.16348e-19)
(0.941603 -0.000737527 3.60827e-20)
(0.726501 -0.0206422 -5.8329e-19)
(1.02448 -0.0449801 -1.23962e-19)
(1.01131 0.144988 2.23923e-18)
(0.999115 2.07811e-05 -1.41201e-22)
(1.08291 -0.0251845 -7.36355e-20)
(1.11799 0.0089432 6.87315e-19)
(1.07668 0.0157243 -8.53241e-19)
(1.04901 0.203156 -4.97497e-19)
(0.999903 -6.81962e-05 1.20416e-24)
(0.996 -0.00237524 2.1684e-22)
(1.08112 -0.00103969 -3.61088e-19)
(0.940271 0.00138569 3.92438e-19)
(0.962449 -0.0515484 1.38773e-20)
(0.992455 -0.0314017 -3.04612e-21)
(0.965022 0.167306 -8.73138e-19)
(1.24642 -0.00851685 -1.04072e-18)
(0.728845 0.306992 -9.77501e-20)
(0.968184 -0.0573277 -1.02159e-18)
(0.738266 0.0189424 -1.13246e-19)
(1.01681 -0.138087 3.15622e-19)
(1.04976 0.0429656 1.32053e-18)
(0.935372 -0.0480471 -4.3186e-20)
(1.2129 0.0881437 -3.16108e-19)
(0.644748 -0.105922 -2.22351e-18)
(0.974891 0.0277771 -5.53663e-19)
(1.04488 -0.0235175 -3.20604e-19)
(0.976216 -0.0335852 -1.85907e-19)
(0.91897 -0.0515364 2.03781e-20)
(0.99853 -0.240279 -3.07499e-18)
(0.930761 0.0071637 5.69869e-19)
(0.914294 0.185009 5.69807e-19)
(1.00378 -0.0582471 -4.90917e-19)
(0.98351 0.106793 4.60279e-19)
(0.792323 0.0426621 -1.93374e-19)
(0.871065 0.0178552 4.19687e-19)
(0.367493 0.6681 -1.88108e-20)
(1.03601 0.0568752 1.3084e-18)
(0.935901 -0.0585036 8.43464e-20)
(1.0251 -0.0525824 3.70783e-19)
(1.02136 -0.0497299 -2.87103e-19)
(0.998868 -0.000246291 -3.98508e-21)
(1.0142 -0.0399708 -1.25529e-18)
(0.999638 -0.145869 3.91308e-19)
(1.01157 -0.0313177 -2.4897e-20)
(1.05932 0.0561559 -8.0978e-20)
(0.981191 -0.0433907 1.2688e-21)
(0.981196 -0.0442741 -4.16286e-21)
(1.08591 -0.00420375 -2.76196e-20)
(1.00473 -0.0546953 3.01315e-19)
(1.0467 -0.00488999 -6.11479e-20)
(1.05409 -0.0278317 4.47037e-21)
(0.752018 0.0225835 -3.40141e-19)
(0.940153 -0.0487055 -6.33801e-20)
(0.851411 -0.0441296 -2.18001e-20)
(1.02607 -0.231915 -3.86916e-18)
(0.99274 0.203342 1.36285e-18)
(1.07308 0.00167785 6.90776e-19)
(0.910737 0.00814974 -3.32995e-19)
(0.96836 -0.114514 6.70243e-20)
(1.03752 -0.0413093 -2.03512e-19)
(1.0015 -0.00229822 -3.27721e-22)
(0.999929 -0.000221149 3.95616e-23)
(0.753732 -0.0317263 -1.14609e-19)
(0.642861 -0.10561 2.26763e-18)
(0.881988 -0.0583616 1.74256e-20)
(1.00145 -0.0021913 -8.70621e-22)
(0.781364 0.00208097 -1.70442e-19)
(1.04944 0.111539 2.38139e-18)
(0.325245 0.0942642 -7.70422e-19)
(0.901819 0.210202 -6.36677e-19)
(0.996464 -0.000172142 -2.90041e-21)
(0.78642 0.00434177 -7.76019e-19)
(0.979468 -0.00430576 -7.14469e-19)
(1.00733 -0.000775678 -9.82805e-22)
(0.994429 -0.0167912 1.6949e-21)
(0.774106 -0.004582 1.25994e-19)
(1.08028 -0.000702016 -1.19968e-19)
(1.0482 -0.0386997 -2.62219e-20)
(1.17454 -0.108072 1.06186e-19)
(1.03026 -0.00285745 -3.3833e-20)
(0.877214 -0.112916 -1.00225e-18)
(0.758545 0.0289699 3.44515e-19)
(0.739098 0.019633 -1.91652e-19)
(0.808441 0.0345833 -6.94729e-20)
(1.05711 -0.0280409 -2.39205e-19)
(0.849548 -0.118315 -1.18529e-18)
(1.01613 -0.0304275 3.09314e-20)
(1.00147 -0.000998056 -6.78796e-23)
(1.08899 -0.0291262 2.0527e-19)
(0.864795 0.118839 -4.71059e-19)
(1.16227 -0.114665 2.42482e-18)
(0.970728 0.0249939 1.02593e-18)
(1.01834 -0.0386186 -2.34423e-19)
(0.896886 0.0103926 9.78854e-20)
(0.954793 0.000857541 5.12785e-18)
(1.10659 0.00525768 -1.79747e-18)
(1.01315 -0.0267683 -2.04038e-20)
(1.14231 0.00263886 -7.04938e-19)
(0.861767 0.0250774 -9.05938e-20)
(0.756311 0.243527 -8.86901e-19)
(0.976775 -0.0372508 -2.23637e-19)
(1.1278 0.00402995 -1.78175e-18)
(1.05926 -0.00191409 1.30634e-19)
(0.971639 0.0270515 7.0678e-19)
(1.03862 -0.00368635 -6.18416e-20)
(0.934166 -0.0297808 -4.33393e-20)
(0.798731 0.0387921 5.25758e-20)
(0.91426 0.000411898 5.99805e-19)
(1.01932 -0.000890503 -4.65362e-20)
(0.947031 -0.00662204 -5.30509e-19)
(1.22153 -0.0716534 -3.82292e-19)
(0.985232 0.180441 -1.43499e-18)
(0.950879 -0.0410074 4.11965e-19)
(0.923556 -0.0348791 -9.7586e-20)
(0.807989 0.456992 -1.69328e-19)
(1.00446 -0.000128174 -2.58269e-21)
(1.20982 1.37884 -1.10442e-20)
(0.936386 -0.0474866 -6.78536e-20)
(1.10749 0.0136612 -1.07662e-18)
(0.939836 0.00975792 -2.1981e-19)
(1.09602 -0.00286748 -3.86011e-19)
(0.456597 -0.180345 -1.55965e-18)
(0.897414 0.045836 -1.41864e-18)
(1.18776 -0.135411 1.136e-18)
(0.957947 0.0885349 2.31455e-19)
(0.786792 0.222477 7.86606e-19)
(0.781848 0.275437 -6.81527e-19)
(0.765553 -0.162017 -1.29321e-20)
(1.10792 0.00482284 1.99083e-18)
(0.806328 0.157523 7.43569e-19)
(0.977488 -0.0944943 -2.90193e-18)
(1.04063 -0.036746 -1.14115e-20)
(0.981913 -0.0627422 1.01118e-19)
(1.14206 -0.11584 -2.62594e-18)
(1.00193 -0.00154215 -3.63291e-22)
(0.684917 1.53166 5.71844e-20)
(0.346087 0.0534217 -3.15057e-19)
(0.848159 0.0391997 -3.76181e-19)
(1.05336 -0.0434068 -2.11494e-20)
(1.08149 0.0128317 -2.88018e-19)
(0.930008 -0.0636158 -6.36053e-21)
(1.06999 -0.0272543 -4.87918e-21)
(0.990133 -0.152313 -7.06297e-19)
(1.26579 -0.0354456 8.68477e-19)
(0.989827 -0.000483013 -6.9844e-22)
(1.01694 -0.0303133 -3.08929e-20)
(1.05563 0.0686624 -2.7698e-19)
(1.02851 -0.0527063 2.51829e-20)
(0.0537554 0.443074 1.66511e-20)
(0.805146 0.104035 -8.36106e-19)
(1.00892 0.137929 2.81152e-19)
(0.994711 -0.0169102 -4.65773e-21)
(1.01856 -0.110705 -9.58297e-20)
(0.978167 -0.0887181 -7.39064e-19)
(1.04067 -0.00274885 4.13718e-20)
(1.00948 -0.0143765 6.41333e-19)
(1.07222 0.071764 5.92256e-19)
(1.2614 -0.0526224 -5.62285e-19)
(1.02723 -0.0521224 -9.36126e-20)
(0.99979 -0.000101651 1.83312e-23)
(0.810392 0.157196 5.59229e-19)
(1.00853 -0.0147242 1.13862e-18)
(0.989669 -0.000517447 -1.55698e-20)
(1.09456 1.82557e-05 -1.80661e-19)
(1.07401 -0.0211544 -1.35047e-19)
(0.945281 -0.046657 1.21057e-20)
(0.870261 -0.00321128 3.41953e-20)
(0.339282 1.33896 3.87067e-20)
(0.756572 0.0123299 -7.1121e-20)
(0.931233 -0.0655254 -6.4347e-22)
(0.827859 -0.0338191 -5.0055e-21)
(1.01778 -0.0294667 4.44854e-20)
(0.990689 -0.00647549 8.64674e-21)
(1.02057 -0.0127123 -5.55237e-19)
(0.632981 0.272397 -1.32175e-19)
(0.983492 -0.00470694 6.11767e-21)
(0.758493 0.0296429 4.08951e-19)
(1.0526 -0.0365249 1.86938e-20)
(0.948831 -0.0370935 1.94121e-19)
(0.911473 -0.00312629 -7.9325e-19)
(0.992028 -0.0294779 8.06495e-22)
(1.24732 0.0206371 -4.95171e-19)
(1.05518 0.0188074 -5.25743e-19)
(1.02712 -0.153384 3.60951e-19)
(0.659778 0.269513 3.66541e-19)
(0.964187 -0.0180792 9.08793e-21)
(0.997734 -0.00581167 -2.2743e-21)
(0.971114 -0.0203615 -1.82972e-20)
(0.926741 -0.0336542 -1.78224e-21)
(1.05488 0.0108464 0)
(1.02261 -0.0261946 -3.83873e-19)
(0.69574 0.000557025 -2.40648e-20)
(1.00538 -0.0185441 -2.33617e-18)
(0.66689 -0.114513 1.90195e-18)
(0.663999 -0.112575 -1.64672e-18)
(1.0512 -0.0202165 4.51767e-19)
(1.05961 0.0394575 1.28233e-18)
(1.02493 -0.214918 2.4131e-18)
(0.966374 -0.0210701 8.8808e-21)
(0.946613 -0.00600512 -1.10543e-19)
(0.846403 0.039355 3.58094e-19)
(1.01413 -0.0143095 1.9231e-20)
(1.00866 -0.037401 2.97979e-19)
(1.05392 -0.0355675 -9.08073e-21)
(1.01362 -0.0341954 -6.66802e-19)
(1.03535 -0.167141 -7.15173e-20)
(1.25863 0.0578421 -9.79867e-19)
(0.863709 -0.110778 9.7657e-19)
(0.933936 -0.0592971 -1.38668e-20)
(0.837184 0.0406373 6.25848e-19)
(1.01552 0.0218622 -4.77509e-20)
(1.00159 0.15209 -1.50326e-18)
(1.10552 0.00932271 -2.40272e-19)
(0.984675 -0.0324825 -8.76265e-20)
(1.00093 -4.83344e-06 -5.02684e-23)
(0.968575 -0.0523771 1.274e-18)
(0.805698 0.00188276 2.1321e-20)
(0.537889 -0.0517836 -1.17929e-18)
(1.01897 -0.0279331 -1.97992e-19)
(1.04688 -0.0201756 -2.23133e-18)
(0.998397 -0.0986796 -5.60948e-19)
(1.09149 -0.0296394 8.95784e-20)
(0.130701 0.354879 -4.28869e-19)
(0.941991 -0.00214583 5.79296e-20)
(0.81368 0.000556263 1.54915e-18)
(0.993566 0.00895046 3.90102e-19)
(1.07065 0.0740302 -2.87061e-19)
(0.735593 -0.0401319 -1.33695e-18)
(1.14003 0.00582374 1.35578e-19)
(0.999148 -0.00149071 -1.04002e-21)
(0.971045 -0.0766412 3.89526e-20)
(0.755838 0.0253561 -3.87358e-19)
(0.937139 0.00503801 -5.26401e-19)
(1.09356 -0.00157882 -1.33642e-19)
(1.17981 -0.111741 1.01755e-19)
(1.01822 -0.0294375 -5.07463e-20)
(1.42047 -0.24669 7.79289e-20)
(0.91756 -0.0521827 -8.40963e-20)
(0.998677 -0.00535363 -9.81831e-22)
(1.02355 -0.027316 4.26768e-19)
(1.01387 -0.0310594 1.27082e-20)
(1.26501 -0.0486663 7.72077e-19)
(1.01459 -0.0140641 -1.69686e-20)
(0.953213 0.192389 -3.31825e-19)
(0.8382 0.0352632 9.96133e-20)
(1.14788 0.00174528 -2.57761e-19)
(1.0901 -0.0245562 -3.75602e-19)
(1.02097 0.147791 2.15738e-18)
(1.0747 -0.0273767 -4.69288e-19)
(1.00619 0.0535128 -8.46504e-19)
(1.00003 -0.000307705 2.70235e-23)
(1.01955 -0.0651439 4.25822e-19)
(1.0119 -0.0490737 -1.36558e-19)
(1.05889 -0.0368635 4.0897e-20)
(0.810947 0.00516788 1.59976e-19)
(1.00169 -0.00128525 8.2414e-22)
(0.285001 0.318329 -4.53891e-19)
(1.18835 0.166699 2.29786e-19)
(0.331682 0.0526066 7.04838e-19)
(1.01318 -0.0260631 3.95984e-20)
(1.08224 0.381031 1.40216e-19)
(1.05542 0.0118122 -3.28521e-19)
(1.05989 -0.101667 1.64274e-18)
(1.02295 -0.0453528 6.31329e-20)
(0.980441 -0.000199731 -4.79139e-21)
(1.0531 0.065774 -3.24331e-19)
(1.01171 -0.0103691 -1.10039e-20)
(1.17584 -0.0964237 -5.33129e-19)
(0.97905 -0.00302841 -7.535e-20)
(0.467545 -0.23194 -1.35573e-20)
(0.870408 0.237851 -1.80054e-18)
(1.0112 -0.00968911 8.71598e-21)
(1.11054 -0.289579 2.33075e-19)
(0.990814 0.0315244 -1.69462e-18)
(0.990693 -0.00616845 4.26384e-22)
(1.0407 0.110518 1.84888e-18)
(1.02273 -0.0667831 1.63005e-18)
(0.869069 -0.00469437 2.7704e-20)
(1.04348 -0.0180222 3.84141e-19)
(1.02785 -0.00356463 2.46835e-20)
(1.05866 -0.0101861 -4.68226e-19)
(0.802861 0.0380614 -2.50444e-20)
(0.730464 -0.00315603 3.55023e-20)
(0.908185 0.179745 -7.82661e-19)
(0.97675 0.0254031 -3.81342e-19)
(1.22525 0.104747 1.53552e-18)
(1.22209 0.00900482 1.27179e-18)
(0.842574 -0.00424301 -7.92098e-20)
(1.0017 -0.0274802 -1.96867e-21)
(0.907511 0.182761 -3.19449e-19)
(0.937184 -0.0473959 -4.24485e-20)
(0.735846 0.00961566 -3.2879e-20)
(1.01493 -0.0311995 -7.12547e-21)
(0.990215 0.154705 7.00572e-20)
(0.738522 -0.038278 1.90306e-18)
(1.27443 0.00609575 1.27901e-18)
(1.00231 -0.0565831 1.85571e-19)
(1.00209 -0.0616946 -3.47239e-20)
(0.810897 0.00305025 -7.48216e-20)
(0.277434 0.15496 -4.87914e-19)
(1.01961 -0.108872 -1.92154e-20)
(0.956267 0.161285 -2.74879e-19)
(1.0776 -3.7713e-06 -8.87672e-19)
(1.05352 0.0454834 -1.10894e-18)
(0.985991 -0.00856982 -4.10529e-21)
(0.251919 0.538043 1.80864e-19)
(1.00127 -0.00210389 -4.35581e-22)
(1.06646 -0.0259794 3.05739e-19)
(0.999056 -1.17402e-05 3.02e-22)
(1.20334 1.31047 -5.54082e-20)
(1.12734 -0.0342974 -6.03324e-19)
(0.947594 0.0546917 1.36415e-19)
(0.998833 -0.000291958 4.00774e-22)
(1.18505 -0.142315 -3.05387e-18)
(0.971277 -0.00838805 1.24658e-20)
(1.0097 -0.0375448 2.99897e-19)
(0.958791 -0.0199912 2.99637e-20)
(0.713638 -0.126024 -6.30457e-20)
(0.911151 0.00712496 5.46864e-19)
(0.980223 0.167441 1.09351e-18)
(0.990278 -0.000759557 2.11769e-20)
(1.05599 -0.0775991 4.19962e-19)
(1.01185 -0.0134755 1.15912e-19)
(0.899148 0.0105758 3.79683e-19)
(0.998437 -0.00577372 4.57681e-21)
(1.00001 -0.0622163 -3.66178e-20)
(0.983676 -0.000820988 2.34626e-21)
(1.01156 -0.128662 3.54833e-19)
(1.06555 -0.0383674 1.74258e-19)
(0.93109 -0.0359996 -2.26508e-21)
(0.785068 -0.00239957 -1.05475e-18)
(1.00612 -0.0150021 -1.13692e-22)
(1.01888 -0.0275894 4.14145e-20)
(1.0267 0.0177316 5.01865e-19)
(0.964748 -0.0182203 5.42626e-21)
(0.952673 0.00615358 -2.28037e-18)
(1.07667 0.0879071 2.11048e-18)
(0.184632 0.248976 -7.47455e-21)
(0.743131 0.00550885 9.24946e-20)
(1.10731 -0.119146 -3.67326e-19)
(0.998873 -0.000125018 -2.4914e-22)
(0.793778 0.478863 1.87572e-19)
(1.03385 -0.166851 2.63413e-19)
(1.02613 -0.00367657 3.63097e-20)
(0.885638 -0.0582722 2.21735e-19)
(0.997399 -0.0584551 1.34557e-19)
(0.80345 -0.0764899 -3.26696e-19)
(1.39928 0.605899 2.32115e-20)
(1.03788 -0.00349448 -4.45583e-20)
(1.00664 -0.0538485 -9.40048e-19)
(0.998687 -0.00546891 3.94393e-21)
(0.918113 -0.0385811 5.66278e-20)
(0.972834 -0.0087787 1.21807e-21)
(0.830666 0.140878 -1.0569e-19)
(0.763183 -0.024245 -4.54436e-20)
(1.00905 -0.0177937 -3.10725e-22)
(0.987713 -0.00631293 7.10743e-21)
(1.10742 0.00856478 8.60398e-19)
(0.880864 -0.148131 -1.08503e-19)
(0.940704 -0.0474055 6.68941e-20)
(1.00574 -0.0607589 -8.70692e-20)
(0.91426 0.17904 -9.07651e-20)
(0.904353 -0.184294 6.17584e-19)
(1.06188 -0.036595 1.12914e-19)
(0.407648 -0.0324467 -2.41073e-20)
(1.21919 0.269157 -3.58002e-19)
(0.746964 -0.122707 -5.10595e-19)
(1.00224 -0.0271431 7.78082e-21)
(0.99946 -5.48613e-05 8.98306e-22)
(0.858627 0.12262 6.16929e-19)
(0.789464 -0.0573346 -1.18443e-19)
(1.0066 -0.0149774 -5.0496e-21)
(0.310988 0.164635 9.25698e-19)
(0.942293 -0.0295251 3.30191e-20)
(0.999261 -0.000389215 2.12382e-21)
(1.04531 0.116081 2.26683e-19)
(1.10376 -0.199315 8.90643e-20)
(0.865497 -0.111918 -1.29856e-18)
(0.695442 -0.124265 -2.34258e-19)
(0.937505 0.0233729 4.60526e-19)
(0.72321 -0.00496224 5.75416e-20)
(0.738976 0.00820482 2.7035e-19)
(1.04679 -0.0240553 -4.70888e-19)
(0.885806 0.221835 -8.17704e-19)
(0.985248 -0.0381013 -5.92482e-22)
(0.981325 -0.0870957 -1.38494e-19)
(1.05568 0.127736 1.58425e-19)
(0.991146 -0.03677 2.49614e-21)
(1.21457 0.249571 4.95195e-19)
(1.00415 -0.0286827 9.12162e-19)
(1.00128 0.130379 -2.16842e-18)
(1.0361 -0.0140305 3.30728e-19)
(0.972085 0.00648786 -9.89511e-20)
(1.12687 0.227239 -8.23238e-19)
(1.11639 0.0106693 6.51818e-19)
(1.07687 -0.0709711 -5.25652e-20)
(0.872198 0.0291442 -3.81949e-19)
(0.802323 0.179688 1.56125e-18)
(0.778594 0.22597 5.00105e-19)
(0.746589 0.000405002 2.55804e-20)
(0.998236 -0.10301 -2.55144e-19)
(0.800362 0.108034 1.49165e-19)