/*--------------------------------*- C++ -*----------------------------------*\
  =========                 |
  \\      /  F ield         | OpenFOAM: The Open Source CFD Toolbox
   \\    /   O peration     | Website:  https://openfoam.org
    \\  /    A nd           | Version:  7
     \\/     M anipulation  |
\*---------------------------------------------------------------------------*/
FoamFile
{
    version     2.0;
    format      ascii;
    class       volScalarField;
    location    "18";
    object      p;
}
// * * * * * * * * * * * * * * * * * * * * * * * * * * * * * * * * * * * * * //

dimensions      [0 2 -2 0 0 0 0];

internalField   nonuniform List<scalar> 
7639
(
0.28191
0.00430212
0.503159
0.309309
-0.00161289
-8.30455e-05
0.508544
-0.00958141
-0.000250242
0.13108
-7.87754e-05
0.00424619
-0.0142586
0.0657713
0.136361
-0.0185144
0.296126
-0.0185822
0.00188373
-0.079744
0.0873094
0.00277279
0.0482992
0.252214
-0.0240447
0.298157
-0.00149157
0.0807248
0.210551
0.00443887
-0.0253668
0.789341
0.0475606
-0.00092657
-0.0002168
0.107541
0.00502574
0.490729
-0.00810078
-0.000652254
-0.00739449
-0.0178602
-0.0782873
-0.0574959
-0.000399302
-0.000173211
0.00273148
-0.00828988
-0.000146091
-0.0786629
0.00639057
0.0764903
-0.0302209
-0.00379178
0.106512
-0.00854499
0.00210167
-0.00959365
-0.0386794
-0.000965028
5.42843e-05
0.00820165
0.0660899
0.00469159
-0.00181695
-0.0248165
-0.000208778
4.6496e-06
0.0422048
-0.00775384
-0.000160115
-0.0648007
-0.0232497
-0.0391202
-0.0179578
-0.0545616
0.494774
0.0855588
0.0653742
-0.071711
-0.0136798
0.45365
0.124015
-0.0407319
-0.00266882
-0.00417879
-0.0102368
-0.0293282
-0.00124549
-0.0080803
0.215929
-0.0799596
-0.000273085
0.00209087
-0.00645402
-0.040127
-0.0619421
-0.000140412
-0.00293756
-0.00215805
-0.0662356
0.0738926
-0.00612954
-4.64402e-05
-0.0774301
0.219802
0.680365
-0.0090716
-1.88999e-06
0.0439533
0.290626
-0.0502201
-4.08549e-06
0.0466122
0.220577
0.00078239
-0.06334
0.176271
-0.0469565
-0.0399188
-0.0686313
0.432305
-0.0749406
0.0182188
-0.0670377
-0.00181064
-0.0226985
0.00350936
-0.00191321
-0.0253376
-0.128816
0.0674372
-0.00115112
-0.00145765
-0.042119
0.282014
0.543439
-4.05031e-05
0.0143014
-0.0851054
-0.0370949
-0.0551896
-0.05495
-0.0375362
0.688132
-0.0219754
0.212403
-0.0374664
-0.0509797
0.430794
0.102472
-0.0658806
-0.0027608
0.016332
0.123749
0.451627
-0.0619752
-0.0142048
0.64022
-0.000133183
0.000978701
0.261791
-4.70147e-05
-0.00380566
-0.0072628
0.328575
0.329503
0.665022
-0.00431642
-0.00564459
5.14121e-06
-0.0710936
0.000771138
0.0117241
0.0155369
-0.0502904
-0.0551404
0.142549
-0.000271586
-0.000966109
0.31436
-0.000132123
-0.000232175
0.510435
-0.00203968
-0.0428657
-0.0442243
-0.0368863
-0.0258165
-0.0833777
-5.02805e-05
-0.0598356
0.145826
-0.00618264
0.000109009
0.21737
-0.00233464
-0.0238246
-0.0250221
6.79693e-06
0.00165647
0.290983
0.185399
0.455471
-0.0566648
-0.0451374
-0.103145
0.0877876
0.288306
-0.00042635
4.71343e-05
0.644056
-0.0158556
-0.0011963
-0.057305
-0.0237633
0.407832
0.418453
-0.0598485
0.748455
-0.0021687
-0.018313
-0.0678262
0.105205
-0.095067
0.225325
0.641581
8.64989e-05
0.0191238
0.18812
-0.00763545
0.171921
-0.00106717
0.712922
0.442249
-0.0101805
0.00509419
-0.000607559
0.0997796
-0.000200294
-0.0115185
-0.0803685
-0.000160069
-0.00254987
-0.000858456
0.182012
-4.87422e-05
-0.00838949
-0.0698244
0.78828
0.0591163
0.692145
-0.0001013
-0.0279869
-0.00039238
0.473888
0.00788973
0.545118
0.00254342
0.00139707
0.00888543
0.0917894
0.00107431
-0.000462402
0.000947275
-0.00803861
-0.0426527
-9.51933e-05
-0.0599291
-0.00692065
-0.000296993
-0.0012422
0.518758
-0.0142105
-0.00149771
0.747821
-0.00280187
0.290972
-0.000431942
0.000922711
9.75257e-06
-0.0423071
0.101093
-0.0509279
-0.0389536
-0.000828117
-0.071533
-0.0274628
-0.000371472
0.000918015
-0.00414902
-0.0136938
0.00571681
-0.00237547
-0.0389734
-0.0374146
-0.0384923
-0.0456024
-0.0481796
0.431157
0.450694
-0.00288594
-0.0943696
-1.83472e-05
-0.00449529
-0.0405136
0.245184
0.138834
0.000156293
-0.00413738
-0.0469147
0.200701
-0.00194655
0.00701283
0.00234281
0.0292426
-0.119866
0.399047
-0.0030797
0.00118818
-0.000246216
0.0079056
-0.000119088
-0.0304214
-0.000695246
0.00821378
-0.139739
-0.0478942
0.00345315
0.0171767
-0.0014492
0.0380548
-0.013557
0.0905282
0.188337
-0.129234
-0.0584586
-0.0282435
0.0100314
-0.078276
0.679885
-0.0510652
0.0576677
0.733372
-0.00297103
-0.00336908
-0.067689
-0.0021124
-0.0181374
0.0124414
-0.00534323
-0.00398811
0.197508
-0.000161517
0.00102862
0.000123011
-0.00649713
-0.0130935
-2.17162e-05
-0.00214413
-0.0371107
0.638515
0.00473129
-0.0155603
0.597341
0.378476
0.0799975
-0.0826857
-0.0719122
0.00963766
0.316787
-0.0200186
0.348958
-0.0301394
-0.0836681
0.194017
0.349542
-0.0567668
0.130292
0.214215
0.310001
0.0857547
-0.00582215
-0.00800746
-0.000193607
0.00563563
-0.0204282
0.00187146
-0.000231562
-0.00311456
-0.0714928
0.0773256
-0.02964
-0.00505934
-0.00721729
-0.000704539
-0.0130691
0.00336065
0.173225
-0.00362135
-6.1645e-05
-0.000139367
6.38491e-05
-0.0355945
0.192059
-0.00760835
0.0531923
-0.101161
0.480702
0.00628691
0.0131043
-0.009669
0.50069
-0.002072
0.392036
0.217125
-0.000251381
-0.0327054
-0.00629233
-0.0531457
0.00105826
0.0905493
0.00623613
0.0121689
-0.00168215
0.163854
0.206207
-0.0492502
-0.0371602
-0.00439708
-0.0276508
0.0244124
0.775857
-0.0539532
0.00874924
-3.15491e-06
-0.0234475
-0.00436854
0.0347914
-0.085361
-0.0962142
0.518546
0.184134
-0.0940809
0.227353
0.489219
0.0527935
0.00230582
0.325485
-0.00177822
-0.000388384
-0.0302375
0.000140515
-0.111754
-0.000704442
-0.0388032
0.00369127
0.227141
-0.00343373
-6.40129e-05
-0.0885917
0.00333846
0.0258805
-0.0638896
-0.0831386
-0.0890132
0.190319
0.156834
0.161236
-0.000427959
0.0645275
0.0986242
-0.00106291
-0.0285938
0.00113694
0.0105597
-0.00480496
0.00922838
-0.00154867
0.104159
-5.15022e-05
0.000347748
0.00379855
-0.036701
0.0391633
-0.0367471
-0.0429164
-0.039929
-0.102052
0.0126797
0.313278
-0.111472
-0.0122547
0.721561
-0.0609335
-0.0137566
-0.0426266
-0.0111006
-0.0346572
-0.018172
0.052357
-0.060138
-6.89127e-05
0.0459679
-0.000210881
0.437953
0.0420708
-0.00907103
-0.0243487
-0.000395192
0.455612
0.386843
0.0449564
0.0923192
-0.0641925
0.561771
-0.000151102
0.0305569
-0.0307769
0.154785
0.669245
0.0103782
0.17911
-0.00358961
-0.000426522
0.0742982
-0.116235
0.477069
0.0303537
0.272347
-0.0128931
0.491706
0.366523
-0.0162282
-0.0138028
0.0561989
-0.0847448
-0.000194618
-0.0225036
-0.0816139
-0.0662973
0.0214266
0.0176743
-0.000274616
0.388749
-0.00216746
-0.000226358
-0.0325068
-0.000988905
-0.000464501
0.00635111
0.256116
-0.0799309
0.622662
9.67322e-05
0.249784
-0.0266139
-0.000178932
2.44001e-05
0.207453
0.250286
-0.00750593
0.22991
3.40397e-05
0.242288
-0.128321
-0.0169552
0.514528
-0.0550814
0.081786
-0.0408997
0.237484
0.24388
-0.0276736
-0.0347701
-0.0108743
-0.00529854
-0.000421756
-0.00240416
0.327922
-6.96403e-05
0.235163
-0.0772249
0.408577
0.223775
-0.0833192
0.604017
-0.00302167
0.00855573
-0.0470203
-0.0332078
-0.0116788
-0.0302505
0.047006
0.709178
6.26573e-05
-0.00355189
-0.0495749
7.14411e-06
0.445913
0.00339838
5.86422e-06
0.000332812
0.000681748
-0.0291048
0.0336686
-0.00287491
-0.000188641
-0.0123564
0.00451898
-0.0931066
-0.076908
0.0398459
-5.24082e-05
-0.11706
-0.0219835
0.0737322
0.403945
0.0020999
0.0986778
0.000256908
-0.0211084
0.118615
-0.0116996
0.272433
-0.0216187
0.0350336
0.123099
0.178587
0.00807867
-0.0173625
0.193864
-0.0768149
0.481879
-0.0156618
0.301647
-0.01559
-0.00216405
0.170531
0.00154458
0.114231
0.00350647
5.34976e-06
-0.0983986
0.167243
0.00262465
0.0786788
-0.0205407
-0.117086
0.00448832
-0.0380517
-0.00309265
-0.0148205
-0.069795
-0.043823
-0.0164003
-0.000321842
0.51085
0.0997807
0.0527502
-0.000402872
0.365879
-4.78032e-06
-0.00037225
0.117218
0.00211641
0.138867
0.0795168
0.0308317
-0.0425219
-0.0992513
-0.0788131
0.00239061
-0.0623252
-5.59551e-05
0.00670768
0.26134
-0.026405
-0.00508734
-0.0133958
-0.00359967
-0.000806304
0.732639
-0.0165342
-0.00106228
-1.3998e-05
0.173256
-0.0457645
-0.000652548
-0.00503017
0.200472
0.102241
-0.0561336
-5.95279e-06
0.22217
-0.0261715
0.216799
0.0300429
0.0369399
-0.0461609
-0.000202737
0.120166
0.0907697
-0.0453721
-0.0715604
0.330088
0.0111769
0.184325
-0.00477549
-0.0314948
-0.000762141
-0.00285945
-0.000241505
0.195076
0.262039
-0.00274035
0.0342742
-0.0279392
-0.0585262
-0.0652444
-0.00341502
0.0281842
0.700621
-0.0464596
-0.000133103
0.102256
-0.00681239
0.596643
-0.0203996
-0.0193923
-0.00467744
-0.0222603
-0.0118156
-0.0131332
-0.00618783
0.00271145
0.0386257
0.000167778
-0.135373
-0.0461315
0.420303
-0.054015
0.150682
0.00371958
-0.0452885
-0.0204745
0.258346
-0.0123979
0.000161589
-0.0255988
-0.00944942
0.0321287
-0.0418535
-0.0361512
-0.0324125
-0.0238089
-0.00961018
-0.0699195
4.81288e-06
0.0549645
-0.0618069
0.121788
-0.0514623
0.11372
-0.0743199
0.367497
0.00828638
-0.0475911
-0.0222017
0.631389
-0.111454
-0.0213341
-0.0954614
-0.0388378
-0.0870739
-0.0523229
0.185909
-0.00505867
0.308259
0.0159839
-0.000765795
-0.00226058
0.0909711
0.795557
0.00187595
-0.0269768
0.210179
2.97947e-05
-0.0332916
0.0485914
-0.0014985
0.0162132
-0.00299685
-0.0426119
-0.00552968
3.92453e-05
-0.052496
0.293772
0.003751
-0.0269088
0.00342214
0.209545
-0.000748063
-0.00230923
-0.000699408
-0.00148211
-0.020381
0.00350311
0.00508798
-0.0288464
5.99135e-05
-0.0949177
-0.113837
-0.103685
-0.0241985
0.0266471
-0.000424411
-0.0209747
-0.0686207
-0.026563
0.412121
-0.00236107
-0.0745416
-0.00852521
0.0118456
0.15152
0.000758476
-0.000324864
0.0630922
-0.0308557
0.0264607
-0.0054018
-0.00381325
-0.0633071
-0.000367665
-0.00107189
-0.0218404
0.354641
0.289052
-0.0393947
-0.0598283
0.0132264
0.00695895
-0.0259796
-0.0676288
-0.0175465
-5.23759e-06
-0.0226075
-0.0391731
-0.0737608
0.00699235
-0.0602731
-0.000777926
-0.0054471
0.227845
-0.04433
-1.03999e-05
-0.00514408
-0.0983114
-0.000336493
-0.022167
-0.000122008
0.00706509
-0.0906645
-0.0387631
-6.957e-05
4.13271e-05
0.150303
-0.0500842
0.459376
0.289441
-0.0184825
-0.00113529
-0.0176452
0.000362675
-0.122664
-0.0805537
-0.0738054
-0.0261854
0.266774
0.0139431
0.000444645
0.00957482
-0.100076
0.00352209
-0.0273443
-0.0664704
0.00280499
0.0289249
0.0851594
0.0132118
-0.0355572
-0.0624847
0.220224
-0.0329466
-1.3064e-06
-0.0905912
-0.0720852
-0.0391834
0.00710375
0.00132753
0.0121525
-0.0888105
0.0421031
-0.0419144
0.11617
-0.0458154
0.0101216
0.0253813
0.0183792
-0.0426327
-0.113353
-0.000233095
0.171487
0.242484
0.0104233
0.180098
-0.0683231
0.0579489
-0.0500662
0.232289
0.119079
0.693535
3.1565e-06
0.112734
0.200295
0.0195955
-0.00211696
-0.0227228
-0.0382389
5.3987e-05
-0.0226649
-0.0534041
-0.0248298
-0.0272791
0.00020448
-0.102296
-0.000575846
-0.00127744
0.279501
0.00872725
-0.00845255
0.0267083
0.240366
0.0145907
-0.000614593
-0.0973611
0.0107439
0.434198
0.00171697
-0.0558565
-0.000365306
-0.000815084
0.00932696
-0.0532025
-6.5215e-05
-0.013751
0.0371238
-0.00274979
3.93971e-05
-9.66825e-05
0.176292
-0.041213
0.00905153
-0.00159345
0.0114894
0.0206357
0.0113417
-0.000459205
0.395605
-0.0861484
0.255372
0.33349
-0.000327041
-0.0162896
0.115894
-0.00112332
-0.000416534
-0.000660415
-0.0148311
0.0189553
-0.01398
-0.0238823
-0.0691249
0.195931
-0.0871671
1.1864e-05
-0.0239974
-0.0227845
-0.0429922
-0.00588398
0.00794442
0.0016649
0.0361769
-0.000758037
-0.000378395
-0.0215184
-0.00581721
-0.0305256
-2.85338e-05
-0.0184795
0.0431593
-0.0249652
-0.0306319
-0.0109874
-0.0147478
-0.0115816
-0.00699607
0.0106659
-0.0119603
-0.000172983
-0.00060923
0.029909
-0.0153296
-0.00663877
0.0111654
0.00366171
-0.107721
-0.0139456
0.180516
-0.0157731
-0.0606653
-0.0296614
-0.0278759
-0.0193701
-0.0050774
0.00294427
-0.00476579
-0.017392
-0.0200042
0.212533
0.159646
0.0581974
0.400911
-0.000120626
-0.00445646
-0.0203872
-0.0103147
0.0790754
-0.0249645
0.052914
-0.00575185
0.224263
-0.00265324
-0.0022353
0.0179214
-0.0213683
-0.000340973
-0.0261136
-0.00786382
-0.0256771
-3.92604e-05
-0.00882619
0.00263673
-0.0216945
0.0406908
0.045072
0.0245885
-0.0174464
-0.0381335
0.135349
-0.00177183
-0.00268618
-0.00288318
0.591316
-0.000165357
0.0812838
-0.0261408
-0.0251918
-0.0322601
-0.0478971
-0.0349037
-0.0412682
-0.0225826
-0.00616465
-0.000159888
-0.00573498
-0.0266585
0.116636
0.00223006
0.123127
-0.0397517
-0.0165362
-0.00128613
-0.0350833
-0.000166664
0.17093
-0.0366292
-0.0319419
-0.0291983
-0.00527923
-0.0395201
-0.00231388
-0.0485655
0.120107
-0.0315166
-0.075208
-0.00201145
-0.0329033
-0.0228064
0.0199248
-0.00436308
0.16435
-0.00326207
-0.0235973
-0.000960589
0.184471
-0.0466653
-0.0322429
-0.00438173
-0.0123532
-0.00372757
0.195603
0.00717119
0.177204
-0.00644972
-0.0011554
-0.00174029
-0.00315706
0.146793
-0.0699679
-0.0090255
0.000419525
-0.00963354
-0.0132965
-0.00126898
-0.0173205
-0.0194717
0.070176
-0.0066188
0.00579633
0.582719
-0.0715465
-0.0350271
-0.0671191
3.33467e-05
0.0908171
-0.00476723
-0.0327532
-0.00746641
-0.0429344
0.00561976
-0.000765899
-0.00391806
0.00429669
0.230356
-0.00778004
-0.00244069
-0.00620677
-0.0614394
-0.0109389
-0.0272562
0.00568283
-0.0114456
-0.0117785
-0.00441408
0.233528
-0.0546588
0.00423971
-0.00566499
-0.0336117
-0.0180061
-0.0584506
-0.0019336
0.10828
0.0295967
-0.0103376
-0.00236383
-0.0174399
0.60899
0.231929
-0.0146389
-0.000819339
-0.00323531
0.00470345
-0.00533388
0.0270114
-0.00060586
-0.0199309
-0.00268933
-0.021485
-0.130191
-0.00148054
-0.0143534
-0.00186383
0.370689
-0.00853013
-0.0151471
-0.0350835
-0.00262216
-0.0364554
-0.00907539
0.532268
-0.0139354
-0.0147429
-0.00287471
-0.000678012
-9.82322e-06
-8.18951e-06
-0.013168
-0.000940381
0.095563
-0.000957779
-0.00247724
0.0107461
-0.000380635
-0.0527028
-0.0628806
0.0222833
0.0494472
0.0334472
-0.0122668
-0.0449072
0.106791
0.083971
0.113614
0.142798
-0.0166807
-0.0012069
-0.0077045
-0.0695441
-0.00472604
-0.0191896
-0.0179544
0.370046
-0.0553957
-0.000690609
-6.84155e-05
-0.00200977
-8.70846e-06
0.0113656
-0.000800212
-0.00615181
-0.0563966
0.000685251
0.00346197
-0.000326959
0.0706241
-0.0196754
-0.0455292
-0.00167992
0.380281
0.292275
-0.013069
-0.0738727
-0.0341128
-0.0298665
-0.0184065
-0.00255157
-0.0785717
-0.0372022
-0.0499983
-0.101268
-0.000102115
0.207026
-0.0175844
-0.0125543
-0.0341901
0.0242608
-0.000759236
-0.0109393
-0.00187036
0.0162695
-0.00209654
0.16354
0.000433185
0.0131328
-0.00059397
-0.10154
0.0116264
-0.00108152
0.0105981
0.000496859
-0.0153965
0.12816
0.00165629
-0.00197692
-0.000196072
-0.000816288
-0.000722105
-0.0703607
0.145351
-0.0159172
-0.000394005
0.0119157
-0.000661594
0.263463
-0.0691631
0.276841
-0.0510171
-0.000644931
-0.000433796
-0.00958871
-0.00746632
-0.000901502
-3.23012e-05
0.0319213
0.0366886
-0.000350039
-0.000499852
-0.0246825
-3.85906e-05
0.194075
-0.00130116
-0.0613148
-0.0238485
-0.00838163
-0.0641829
-0.0701546
0.175245
-0.0225583
-0.0252767
-0.000461292
-0.0654324
-0.0257707
-0.0126979
0.0613261
0.410014
-0.0016133
-0.0684031
0.0158345
0.347791
0.0489603
-0.000186504
-0.00795211
-0.00541693
-0.00656224
-0.0558959
0.100841
0.000194667
0.0217476
0.00388788
0.0804953
-0.000742019
-0.000203181
-0.0887384
0.312362
-0.0632269
0.15385
-0.00173983
-0.000303084
-4.60596e-06
-0.0839009
-0.0491809
-0.000505123
0.108636
0.0145636
-0.00706067
0.488024
-0.00058322
-0.00492472
-0.0676896
-0.0278396
-0.0030738
0.156923
-0.0628989
-0.000250819
0.0150116
-0.000276222
-0.000162529
0.154642
0.000598567
-0.000645984
-0.0598088
-0.0302596
-0.00466484
-0.033425
0.00312767
-0.0281636
0.00215129
-0.00465962
-0.0736794
-0.0451514
0.0213995
-0.00125442
0.176696
0.240167
-0.0911522
0.0124143
0.0245977
-0.00568621
0.192452
0.115472
-0.034069
-0.000248197
0.0127226
-0.063677
0.0139408
-0.0338651
-0.00284004
0.0495254
-0.0336404
-0.000210418
-0.000125422
-0.0398098
-0.0309074
-0.0317447
0.0125331
-0.0101169
-0.0519159
-0.000243227
-0.00190451
-0.000319899
-0.0398941
-4.23404e-05
-0.0026148
-0.0495512
-0.093939
0.0792094
-0.00398342
0.00544505
-0.0263215
-0.031118
-0.000201518
-0.0539978
0.05886
0.182206
2.19136e-05
-0.000174111
0.185654
-0.00337484
-0.0856952
-0.0475961
0.00440179
0.000577575
-0.0776967
-0.0299703
0.190255
-0.0649906
-0.00200227
-0.0118815
-0.0602262
-0.000818509
-0.000354839
-0.00125891
-0.0225673
-0.0593614
0.129918
-0.00031349
0.608826
-0.0483674
0.000118719
-0.00134677
0.000286111
0.000332948
-3.03245e-05
0.00014859
-0.0611675
-0.00101399
0.000532929
-0.000295868
0.163594
-0.00752837
-0.000289511
-8.62818e-05
0.410483
-0.026553
-0.0483763
0.00145176
-0.00100677
0.0656944
-0.000160186
-0.0161124
-0.128427
0.00283553
-0.00847734
-0.000153539
-0.000308342
-0.0370107
-0.0657285
0.00943615
-0.106489
-0.063079
-4.81758e-05
0.0272939
0.041051
0.12806
-0.00232514
-0.000238641
-0.0648377
-0.00799679
-0.00071976
-0.0573045
-0.000212385
0.0457698
-0.000160797
-0.00173505
-0.0499089
-0.00285284
-0.0672058
0.552851
-0.00222336
0.000328429
-0.0621313
-0.0597167
0.0119337
0.00613304
-0.000229541
-0.0376894
-0.000139204
0.227199
0.746807
0.0633165
0.00395596
0.00469908
-3.67675e-05
-0.0337981
-0.000102954
-0.00917345
-0.00229561
0.000440396
-0.00446091
-0.0123094
-0.000189811
0.00109822
-0.0105281
-0.000453369
-0.0127259
-0.0205263
-0.0081637
-0.00157272
0.664891
-0.00097852
0.0031716
0.000287341
0.0179588
-0.0577606
0.0125323
-0.000267488
-0.000157189
0.00342073
-0.000174704
-6.34881e-05
-0.0147495
0.000873377
-4.21875e-05
-0.0591877
-0.00304184
-0.064846
-0.00221889
-0.000110013
-0.00415257
-0.00977043
-0.0188698
-0.0281011
0.00300756
0.000635005
-0.000662654
-0.00263669
-0.000133741
0.321318
0.00200586
-3.60596e-05
0.00071328
-0.00271665
-0.000527067
-0.0726516
-0.0630722
-0.000214477
-0.00908897
6.73224e-06
-0.00350609
-0.000118662
0.0444567
-0.000216892
-0.000291784
-0.00467937
-4.96083e-05
0.0175292
-0.000333483
-0.00171387
0.0242538
4.17064e-06
0.445945
-0.0619605
-0.0491016
-4.90801e-05
-3.69749e-05
0.00244797
-0.00160951
-0.0589154
-3.1138e-05
-9.64689e-06
0.000929496
-5.53413e-06
0.000459802
0.000551906
-0.000649154
0.000990398
-0.0609342
0.57084
-0.0395001
0.394317
0.0117705
-0.0208962
-3.47442e-05
-0.00120317
-0.0155245
0.000156559
0.000338689
0.000193438
0.0521822
-0.00183863
-0.000336648
0.589207
-0.000752057
0.000716012
0.00062176
-8.83033e-06
-0.0572785
-0.00289937
0.00144561
0.000132854
-0.000761166
-0.000109559
-0.00128416
-0.0515726
-0.000588382
-0.00215888
-2.93728e-06
-0.000520924
-0.000373015
0.222753
-0.000622735
-0.000416456
-0.0789046
0.00488484
-0.00015077
-0.00180192
-9.87984e-05
0.202877
-0.0825847
-0.000450609
-0.000547808
-0.00253272
-0.000257004
0.0693988
0.126137
0.0235184
0.000612271
-1.24294e-05
-1.99462e-06
0.0634819
0.000299691
-0.0700153
-0.0287891
-0.0199084
-0.119509
0.668604
0.00253139
0.213295
-0.0184429
-0.0353215
0.206452
-0.000505547
-0.074993
-2.50751e-05
-0.0115096
-0.0574951
5.53393e-05
-0.0561598
-0.00129114
-0.00780679
-0.00711034
-0.0505719
-0.0501063
-0.00415923
-0.069574
-0.0520254
-0.000274287
-0.0154167
-0.000100007
-0.0447089
-4.71601e-05
-0.000272949
0.0204154
0.195656
-7.83572e-07
-0.0534724
0.004621
7.66724e-05
-0.0258766
-3.12694e-07
-0.017313
-0.000386942
-0.0458262
0.00013923
-0.000139713
-0.00270767
-0.000103882
0.190825
-0.0368832
0.0660084
-6.55729e-05
0.00078144
-0.0391941
-5.806e-07
-0.0661145
-0.0759299
-0.06461
0.615095
-0.00834558
-3.12945e-05
0.0332494
-0.0493573
-0.00335777
-6.62935e-05
-0.000136017
-0.0556336
0.000136873
0.00110099
-2.09919e-06
0.000174618
-0.0341073
0.0507495
-0.0668015
0.111877
-0.00690028
-2.34549e-06
0.00820764
-0.0581558
-3.53878e-05
-2.59162e-05
0.000385783
6.62292e-05
0.000494537
0.21555
0.0446683
5.69788e-05
4.67608e-06
-0.075956
0.240228
0.209105
-7.19553e-05
-0.043375
-0.0238445
-0.0131535
-0.0563534
-0.0108377
-0.00379747
0.16947
-7.84571e-05
-0.0321684
0.201254
-0.0573778
-4.65785e-05
-0.0710039
-0.000258901
0.312426
0.0356117
-4.61284e-05
-5.29419e-05
0.217202
1.9776e-06
-0.000268259
-0.0148746
4.60471e-07
0.284571
0.00431527
-0.00940136
-0.0744354
-0.00488006
-0.0807197
0.219466
-0.0137693
-0.0354374
0.00124894
-4.02585e-05
-0.00138024
-3.23357e-05
-3.7407e-05
0.028888
0.216638
0.179956
-0.000617473
0.295164
-0.0143074
6.36182e-07
-0.0538808
-4.59765e-05
-0.0338313
0.0369978
-0.0180762
0.00569164
0.00238728
-0.0118088
0.000278144
-0.00220584
0.025077
-0.00373828
-9.04283e-05
2.67949e-05
-9.88326e-05
0.039948
5.07776e-05
-0.0271559
0.312847
-0.00770569
5.07121e-05
-0.00448116
-3.13722e-05
0.0429031
-0.000496463
-0.000105569
-0.000130151
-2.70062e-05
0.252767
-0.000232957
0.272426
-0.0708653
0.000117272
-0.0599943
-0.000686325
0.187957
0.604661
-0.00185439
1.78127e-06
5.43948e-06
-4.05591e-05
0.150504
1.17789e-07
0.00131025
-0.0296698
0.259178
1.68059e-06
6.48654e-06
2.33505e-06
2.20167e-05
-0.0253123
9.66479e-07
0.276016
-0.0199045
-0.000184782
2.80738e-05
-0.00268656
-0.0349749
1.03979e-06
-9.04068e-05
0.198544
3.15977e-05
-0.038462
-0.0570726
0.000145412
3.23312e-07
-0.117905
9.512e-07
0.19219
1.34356e-05
-0.000619414
6.30435e-06
-0.000253472
0.112647
-1.35918e-06
-0.00214999
-9.55292e-07
0.0164887
-0.00438499
-0.00815881
0.00101763
0.184476
-0.000401328
-0.000129774
-0.0112073
-0.0108317
-0.000346071
-0.0001043
-0.00120246
3.35125e-05
0.163634
-0.012962
0.595262
-7.84668e-06
-0.00968729
-0.000251423
0.151241
5.35937e-05
-0.0319924
2.09292e-05
-0.00207382
-0.0400759
-0.000328723
-0.0194944
-0.0579994
0.0064374
-3.23787e-05
-0.0636991
-0.000461676
-0.000438556
-0.00706394
-0.0168792
0.00161456
-0.000103518
-0.000602289
-0.00122153
-0.00168571
2.87119e-06
-0.0015972
0.584148
0.00010268
-0.00419889
-0.0417583
-0.0832529
-0.0728337
-0.0561053
-0.0266063
-0.000733388
-0.0190475
7.79062e-05
-0.000129436
0.583934
-0.000144368
0.194474
-0.000615181
0.000469999
-0.00149923
-0.0699571
-0.000577448
0.000757926
-3.5015e-05
-0.000543373
-4.65241e-05
-0.000125371
-0.0185327
-0.000171319
-6.73004e-05
-0.000129396
0.000142331
-3.02104e-05
-0.0504115
0.229054
-2.02692e-05
-0.000810613
-7.8817e-06
2.75047e-05
-0.00111264
4.47898e-06
-0.00120273
0.000322431
-0.000507482
-0.0737916
-0.000929275
-0.00238174
6.22256e-07
-0.00205288
0.000397825
-2.6028e-05
-2.18529e-05
1.09167e-05
-0.00106132
0.000646375
-0.0522865
-0.0324957
-0.0744676
0.000707357
-0.00242491
-0.0299089
-0.0749766
-0.000142595
0.0197456
0.00868023
-0.00137981
-0.0146982
-0.0650042
0.525483
-0.000576832
-2.89419e-05
0.00109027
4.47718e-05
1.43328e-05
0.0908535
0.00459521
0.105306
-0.0424865
0.510974
-0.000707136
-1.34205e-06
0.000165179
-3.70467e-05
-0.00178285
0.174714
0.263217
-1.82945e-05
-0.000250397
-4.133e-05
0.249082
0.0219627
-0.00707363
9.77539e-06
1.68589e-05
0.00924036
-0.000931444
-0.0810297
-0.0205036
1.12734e-05
0.00442052
-0.0370609
-9.66498e-05
0.00228553
-0.000115312
-0.0537055
-0.00226793
0.16838
1.38147e-05
0.00211347
-0.000176223
1.02399e-05
0.00019032
-0.0279009
1.08068e-05
-0.00121098
1.3504e-05
-0.023909
-0.0533408
-0.00392561
-0.00872372
-0.0107239
0.011626
-0.0108618
-0.00317564
6.65439e-05
0.000105205
1.29663e-05
1.18354e-05
-8.99791e-05
0.0114003
-0.0655812
0.000591366
-0.0495376
-0.00394346
-0.0571707
9.04926e-05
-2.20416e-05
0.00163629
-0.0892163
1.30811e-05
-0.0494339
-0.0180164
-0.0589237
-0.0495172
2.14302e-05
-0.00438992
0.000215897
-0.135883
0.158986
-3.60492e-06
-0.0682855
-0.0268135
-0.0053795
2.96237e-05
-1.90323e-05
0.0319794
-0.0202582
1.31332e-05
-0.0084912
-3.02082e-05
0.000241297
0.145387
-1.70112e-05
-1.83414e-05
-0.000146064
2.73163e-05
0.00111289
9.18498e-05
-0.00659209
0.000261785
-0.0154363
0.00137262
-0.000304868
-0.0378685
-0.0501083
-0.00785132
-2.65309e-05
1.51519e-05
-0.0671223
0.00728796
-0.0553147
1.59812e-05
-0.0064853
-5.8555e-05
1.67507e-05
0.082711
-0.00872953
-0.00354699
-2.1543e-05
-0.0215652
4.58692e-05
-0.0761134
1.77318e-05
-0.0856298
3.92126e-07
-1.30731e-05
8.80804e-05
0.00126826
-0.0850155
-0.0219297
-0.0784782
3.10966e-06
9.30898e-05
-0.0872639
-0.0292517
-0.0104459
-1.50432e-05
-0.0328964
-0.0577604
-0.0876488
-1.3498e-05
-1.95615e-05
-2.23127e-05
-0.0796412
-0.075982
0.000881325
-0.0135669
-9.71993e-05
0.219831
9.90546e-05
-9.69228e-07
0.000164302
-4.14832e-05
-2.17612e-05
-0.00457405
0.000113631
-0.00325518
-0.072876
-0.015983
-0.0669253
2.77297e-05
-8.14505e-05
0.0602096
-0.0556167
-0.00594539
0.131986
-2.82875e-05
-2.99659e-05
-2.72818e-05
0.0951242
0.000191788
-4.40171e-05
-2.21699e-05
-0.0674859
-0.0188048
-1.61438e-05
5.52358e-05
-0.0113795
-0.00797707
0.000500329
0.265661
-0.0667056
0.000160334
0.755311
-6.01668e-05
-0.000930691
-0.0103723
-0.0879561
-7.65491e-06
-2.87278e-05
1.7852e-05
0.00604321
-0.0379615
-0.000475705
-0.0570677
-0.00956676
1.18073e-05
-9.90876e-06
-0.0124567
-0.0041735
-0.0181712
-0.0759286
-0.052947
-0.0455904
-0.00702163
-0.0319866
-0.000101522
0.000409285
0.00889371
0.000646439
-0.000151492
0.000929735
1.0085e-05
-0.000163788
-0.0147809
-2.19749e-05
-5.86965e-05
0.0435263
-0.0243569
-0.00026183
-9.62251e-05
-1.96414e-05
0.291158
-0.00820167
0.000955818
-0.0333393
0.000261851
0.000221826
0.000189874
-8.25512e-05
0.000571019
-0.0444052
0.0207768
-1.75069e-05
-0.000260285
-0.0484024
-0.0371572
0.0590531
-0.000658876
0.00231359
0.0223164
-1.43309e-05
5.19979e-05
-0.0538657
1.77938e-05
0.192453
-1.83113e-05
0.00528021
0.000184576
0.000251411
-0.0798372
-0.00906425
-0.0215717
-0.00305246
2.19633e-05
0.00817229
0.0738441
-0.0149918
-0.000201337
0.112085
0.188392
-3.14117e-06
-0.0602073
-0.000109997
-2.75209e-05
-7.23678e-05
-0.000755007
0.0246599
-3.86577e-05
0.000278982
-0.0294047
-0.0307341
-0.0264442
0.367108
-4.42714e-06
-0.00011016
0.198292
-0.00632559
-0.00475923
-0.000866017
0.195448
2.80685e-05
-0.000456249
2.25346e-05
1.0773e-06
2.62732e-05
2.985e-05
7.51522e-05
-0.0214757
-9.69805e-06
-0.00417884
-0.0520646
0.273302
-0.000238616
-8.0031e-05
0.00591849
0.101101
-0.052807
-0.000992821
-0.0798765
0.364362
3.84477e-05
0.480009
-1.32412e-05
0.00417014
0.0302534
0.000514098
0.521074
-5.6716e-05
-1.48695e-05
0.00143125
2.46342e-05
-0.0011341
0.000299645
-7.17437e-06
-0.00250595
-2.25682e-05
-0.00021575
-0.00416493
0.283749
0.0615893
0.0274207
-0.0512517
-1.23599e-05
-4.32592e-05
0.00423582
-0.0623618
-2.5704e-05
-0.0544539
-8.84013e-05
0.122349
0.0742972
-0.0390673
-0.00174619
-0.0144586
-0.00128539
-0.018027
0.00490786
-0.00907605
0.0765186
-3.9876e-07
0.255666
0.0295576
-0.000798359
0.243423
-0.0162979
-2.20333e-05
4.77417e-06
6.56961e-05
-0.000296835
-0.000188617
0.287624
-0.00128318
0.294988
-0.00140933
0.193154
0.254846
0.108395
-0.00871258
-2.15311e-05
3.68897e-05
-0.0130095
-0.109381
-0.056518
0.00185914
-6.26683e-06
-0.0450863
-0.00045735
-3.57981e-05
0.00124675
-0.00139344
-0.000871288
0.0408539
7.62488e-05
-0.0567122
0.0697188
5.57235e-05
0.000302495
-0.0173253
-0.0666494
-0.000966946
-0.000695355
-9.44502e-06
0.000277263
0.0599025
-0.0205967
-0.0559534
0.00162272
0.0917187
-0.0460379
1.79668e-05
7.21242e-06
0.0218854
-0.000162801
0.0788829
0.00200773
-0.0165959
-0.000530382
0.00203228
-0.0428823
-9.12238e-05
0.000582184
0.00123985
-0.0849573
0.161392
-0.0721659
-0.032369
-0.000263256
-7.3334e-05
0.0084242
3.68453e-05
-0.0858486
-0.0759845
0.000672948
0.00423252
0.00475138
-0.0973343
0.000764546
0.000202073
1.76505e-05
-0.0486694
1.7695e-05
0.000668881
0.143749
0.210109
-0.109194
0.0598861
0.0587819
0.0220975
-0.000259217
0.0147366
0.000131423
7.67179e-06
-0.0001445
-3.94638e-06
-1.83965e-05
-0.00049025
-0.00947577
-0.0599305
-0.0120511
-0.0344691
0.0642438
0.0537956
0.00510189
-0.0730819
0.000163047
0.00581046
0.0141222
-0.000533285
0.0898075
-0.00162018
-0.0134748
0.0151661
0.00690459
0.00122294
-0.0050737
0.0528948
0.00100434
-0.0239849
-0.0201076
0.620644
-0.0298902
0.0967532
0.0221343
-0.0440617
0.00276229
8.75673e-05
-0.00327755
3.43631e-05
-0.00334756
-0.0306036
-0.000112103
-0.000113828
0.310508
-0.00417175
-0.0497146
-0.0229451
0.000209241
-0.00186162
-4.66003e-05
-3.65009e-06
0.0471485
3.01695e-05
-0.00373077
0.090426
0.00783022
0.00138231
0.0230299
-0.0072063
0.00525853
-0.108737
0.00105624
-0.00558443
-0.0656622
-0.00113826
-0.0100558
0.000912509
0.00122496
0.00121408
0.0455894
-0.00046016
0.00709584
-0.0635929
-0.0251711
0.000342993
-0.0633243
-0.0183641
-0.021059
8.42995e-05
0.00832607
-0.0773755
-0.00110589
-0.00609539
-0.0590431
0.000186869
-0.00152855
0.256345
-0.0258724
-6.51118e-05
0.0103953
-0.058872
-0.00137501
0.228887
-0.00281075
0.00124847
0.0722389
-0.0018509
0.0103855
0.151213
2.27015e-05
0.00144571
0.000190756
5.27536e-06
-0.00565351
-0.00891484
-0.000225922
-0.0293281
0.115768
-0.0446969
-0.0805091
0.001436
-0.00413705
-0.000824828
-0.0508723
-4.97567e-06
0.0210661
8.18066e-06
-0.0195135
-0.00250222
-0.00624433
-0.0971964
0.134262
-0.0853138
-8.89891e-05
0.219861
-0.0025034
-0.00322463
-0.0695124
-0.0892716
-0.0191167
-5.34118e-05
-0.00147298
0.00910529
-0.00391578
-0.00594673
0.000501014
0.103379
-0.0506844
-0.0137423
-0.00834407
0.0284533
-0.00310542
-0.00133199
0.00212461
-8.78398e-05
-0.003919
0.132015
0.000958139
-0.118023
-0.000126401
-0.00915728
-0.0045481
-0.0947331
-0.0141945
-0.107563
-0.000103989
-0.000102916
-0.00505468
0.0132354
0.00224462
-0.118473
0.100628
-0.0572432
0.000200012
-0.127349
-4.55343e-05
-0.132575
-0.0308428
-0.150952
-0.159004
-0.165098
-0.168086
-0.160089
-0.147577
-0.129947
-0.101283
-0.0727571
0.0597902
0.106862
0.158019
0.245335
-0.0100175
-0.00918984
0.0707491
-0.0212943
0.00109376
0.0195175
-0.0482159
0.000628297
-0.000897434
-6.58242e-06
-0.0174658
0.0222623
3.63026e-05
-0.000453051
-0.0129901
-0.00695579
-0.147224
-0.0158084
-0.0657838
-5.5561e-05
0.000675858
-8.00102e-05
-0.0604835
-0.0108732
-0.0435607
-0.0126325
0.00215118
0.000229931
0.00591507
-5.28568e-05
-0.0125045
-6.87363e-05
0.000428449
-0.00735106
-0.0141858
-0.000394376
0.000373131
0.0593454
-0.012765
0.0745885
-0.139564
-0.00982089
0.00775693
-0.0228523
0.00460617
-0.026215
-0.00411102
-0.0154005
-0.0154803
0.405119
-0.00170529
5.27623e-05
-0.0072478
-0.0110366
5.22292e-07
0.0969251
-0.00510382
0.376909
-0.170622
-0.0530065
-0.0322942
0.0541426
-0.00610756
-8.12266e-05
-1.28994e-05
-0.00524623
-0.0656367
3.86816e-05
0.400223