/*--------------------------------*- C++ -*----------------------------------*\
  =========                 |
  \\      /  F ield         | OpenFOAM: The Open Source CFD Toolbox
   \\    /   O peration     | Website:  https://openfoam.org
    \\  /    A nd           | Version:  7
     \\/     M anipulation  |
\*---------------------------------------------------------------------------*/
FoamFile
{
    version     2.0;
    format      ascii;
    class       volVectorField;
    location    "18";
    object      U;
}
// * * * * * * * * * * * * * * * * * * * * * * * * * * * * * * * * * * * * * //

dimensions      [0 1 -1 0 0 0 0];

internalField   nonuniform List<vector> 
7639
(
(1.12645 0.153151 6.03061e-21)
(1.03751 -0.0429161 6.49698e-22)
(1.00016 0.128792 -1.5219e-20)
(1.04843 0.0702396 1.97175e-20)
(0.999359 -0.00077613 -3.47901e-23)
(0.999971 -7.39784e-06 -4.65189e-24)
(0.992492 0.104763 -3.04743e-20)
(0.995953 -0.00144764 -6.95346e-24)
(0.999907 -0.000143811 -7.23851e-24)
(1.02229 5.86826e-05 -8.95272e-22)
(0.999973 -8.71176e-06 5.13435e-24)
(1.00175 -0.00102582 -1.34563e-22)
(0.993831 -0.0018243 3.43282e-22)
(1.01648 -0.00186505 -5.56972e-21)
(1.02174 0.000736839 3.793e-21)
(0.993033 -0.0114726 -6.88424e-22)
(1.13275 0.162925 -1.26315e-20)
(0.991735 -0.00231628 -1.19445e-22)
(1.00167 -0.00756206 -3.99196e-23)
(0.977234 -0.0665565 -5.48236e-22)
(1.03074 -0.00689416 -1.86582e-21)
(1.00115 -0.000572693 2.51284e-22)
(1.01513 -0.00313213 4.73866e-22)
(1.01236 0.0305001 -1.02763e-20)
(0.989051 -0.00286746 -5.42049e-22)
(1.11816 0.152284 -6.16863e-21)
(0.999383 -0.000734565 -2.49673e-23)
(1.02061 -0.00200651 2.21103e-21)
(1.00563 0.0150666 -1.29342e-21)
(1.00272 -0.00812342 3.21456e-23)
(0.989533 -0.0119401 -1.23874e-21)
(0.850992 0.0449339 4.76463e-21)
(1.01476 -0.00372578 2.92266e-21)
(0.999636 -0.000311927 4.43523e-23)
(0.999922 -4.45125e-06 8.34024e-26)
(1.02108 -3.79939e-05 1.32153e-21)
(1.00319 -0.00895084 4.03241e-23)
(0.998068 0.101107 -4.8253e-21)
(0.997106 -0.00620388 5.70842e-22)
(0.999747 -4.50294e-05 4.29127e-23)
(0.997395 -0.00639099 -6.50416e-23)
(0.993172 -0.0107336 -2.53853e-22)
(0.991973 -0.076755 2.48134e-21)
(1.10376 -0.0908547 6.20322e-22)
(0.999849 -8.53097e-06 1.42888e-23)
(0.999941 -1.26705e-05 -4.39035e-24)
(1.00107 -0.00047278 -1.53549e-22)
(0.996922 -0.00563608 -3.37551e-22)
(0.99995 -2.31251e-05 -3.61547e-24)
(0.979645 -0.0676217 7.97058e-22)
(1.00255 -0.00091006 1.45986e-22)
(1.02042 -0.000904062 -2.2943e-21)
(0.985808 -0.00339719 -1.81801e-21)
(1.00694 -0.025123 6.34335e-23)
(1.02133 -0.00116598 -7.67462e-22)
(0.996431 -0.00200429 -6.34053e-23)
(1.00158 -0.00707697 8.85759e-23)
(0.99593 -0.00125106 4.70656e-22)
(0.982481 -0.0139521 -2.17207e-21)
(0.999624 -0.000277058 -5.66974e-23)
(1.00003 -1.8081e-05 -4.20733e-24)
(1.00336 -0.000923642 1.63587e-22)
(1.0168 -0.00116775 -1.3154e-21)
(1.00187 -0.000888353 1.36207e-22)
(0.999275 -0.000153718 7.87032e-23)
(0.989927 -0.012417 2.1599e-22)
(0.999927 -0.000144254 5.76592e-24)
(1.00001 -1.78201e-06 2.36023e-25)
(1.19435 0.00864271 1.28062e-21)
(0.997048 -0.00534167 -1.0178e-22)
(0.999945 -1.55015e-05 3.90236e-24)
(0.974979 -0.0400423 -3.98782e-21)
(0.989504 -0.00318534 2.64026e-22)
(0.980562 -0.00412089 3.55795e-22)
(0.992089 -0.00255899 3.74148e-22)
(0.973345 -0.0194131 -4.69073e-22)
(1.00526 0.130425 2.4489e-20)
(1.0289 -0.00643499 2.38302e-21)
(1.07812 -0.0191746 -3.42749e-21)
(0.965147 -0.0319064 -4.96345e-21)
(0.994115 -0.00201967 -5.27015e-22)
(1.00026 0.0619622 2.99181e-20)
(1.03778 0.00171937 5.62805e-21)
(0.980123 -0.00730494 1.63612e-21)
(0.998955 -0.00196616 -5.5718e-23)
(0.998289 -0.000247327 5.72674e-23)
(0.995679 -0.00190677 6.48482e-22)
(0.98634 -0.00380467 1.16956e-21)
(0.999505 -0.000920527 3.74663e-23)
(0.996603 -0.000519844 2.02308e-22)
(1.00597 0.0171815 9.64123e-21)
(1.13567 -0.104914 -1.18828e-21)
(0.9999 -4.24734e-05 -8.8339e-24)
(1.00134 -0.00600209 3.66001e-23)
(0.997307 -0.000798441 1.84088e-22)
(0.980336 -0.00229649 -2.84406e-21)
(0.97665 -0.0399647 2.61976e-22)
(1.0084 -0.0244488 9.24895e-23)
(0.998854 -0.00189485 1.84657e-23)
(0.999136 -0.000147905 2.61149e-23)
(0.963424 -0.0114437 1.20588e-21)
(1.08106 -0.0149221 2.9072e-21)
(0.997457 -0.000907808 -4.59075e-22)
(0.99998 -8.95538e-07 -3.95604e-25)
(1.14757 -0.100056 -1.01872e-21)
(1.03319 0.0279035 -9.09452e-21)
(0.924076 0.0324985 5.39387e-21)
(0.996195 -0.00189275 -2.63264e-22)
(0.999993 -1.39561e-06 1.14384e-25)
(1.02027 -0.0130977 -9.72118e-22)
(1.05161 0.0654255 -2.29024e-20)
(1.00821 -0.0629364 -3.02442e-21)
(0.999992 -2.00206e-06 -1.69091e-25)
(1.02178 -0.0139212 -2.0991e-22)
(1.02928 0.0269936 9.57154e-21)
(1.00032 -0.000447417 -1.12996e-23)
(1.03359 -0.0853513 -1.88401e-22)
(1.03088 0.0143528 -2.17119e-21)
(0.984514 -0.0330329 1.75562e-21)
(0.980314 -0.00501076 -3.72082e-22)
(0.961272 -0.00745414 -2.90484e-21)
(1.00142 0.0383694 -1.94706e-20)
(0.995898 -0.0771385 -3.41153e-21)
(1.00756 -0.00656756 8.23567e-23)
(0.962478 -0.00855224 1.14431e-21)
(0.999286 -0.00106427 8.33923e-23)
(0.990503 -0.00907879 4.11671e-22)
(1.00212 -0.00679287 -6.05834e-23)
(0.999234 -0.000113077 -1.75613e-22)
(0.989604 -0.0110002 2.17026e-23)
(1.13935 -0.143484 -8.06738e-22)
(1.07179 -0.0186904 5.97175e-22)
(0.999549 -0.000419757 4.78333e-24)
(0.999427 -0.000943913 -7.32918e-23)
(0.979243 -0.0066591 4.85824e-22)
(1.04731 0.0576279 8.33313e-21)
(0.994887 0.0323864 3.55698e-20)
(0.999982 -2.24375e-06 -4.75022e-25)
(1.00593 -0.00252628 6.91674e-23)
(0.948416 -0.00896871 -3.59668e-21)
(0.981765 -0.00298865 -1.45716e-21)
(0.985889 -0.0456967 -2.59631e-21)
(0.973577 -0.0209097 6.35387e-22)
(0.981621 -0.00372942 -3.1783e-23)
(0.916414 0.0254589 2.10939e-20)
(1.00547 -0.0375503 -9.57962e-23)
(1.01207 0.0176249 -4.8871e-21)
(0.983973 -0.0167768 -1.12794e-21)
(0.973267 -0.00387261 3.99063e-22)
(1.00135 0.0520922 -9.65141e-21)
(1.02159 0.000788977 3.29734e-21)
(1.12448 -0.096021 2.50355e-23)
(0.998869 -0.00155374 -1.93059e-22)
(1.19305 -0.00578141 -1.56982e-22)
(1.0358 0.00175164 -5.88057e-21)
(1.01328 0.104048 -2.40752e-20)
(0.969422 -0.0224388 1.94393e-21)
(0.993833 -0.00139997 1.1647e-22)
(0.93587 0.0866789 4.67943e-20)
(0.999954 -1.93739e-05 -3.46299e-24)
(1.00095 -0.00630167 -1.87945e-23)
(1.01304 0.0341017 7.44601e-21)
(0.999984 -1.51275e-05 2.5125e-24)
(0.998638 -0.00399227 -2.72147e-22)
(0.99696 -0.000769259 -8.80713e-23)
(1.00464 0.0410057 -2.47131e-21)
(1.00249 0.0334141 9.22752e-21)
(0.92612 0.0955221 1.55874e-20)
(0.998434 -0.00385884 -1.6856e-22)
(0.997648 -0.0002887 -9.99932e-23)
(1.00001 -2.18807e-06 -2.06798e-25)
(0.959141 -0.00451812 -4.9828e-21)
(1.0003 -0.000396092 1.56242e-23)
(1.04003 -0.0402718 -7.70242e-22)
(1.0061 -0.00279972 4.59645e-22)
(0.97386 -0.00459249 8.26886e-22)
(1.14924 -0.0844468 -1.17762e-21)
(1.13956 0.0476299 1.03332e-22)
(0.9999 -5.07252e-05 4.86156e-24)
(0.999617 -0.000489418 -5.09087e-23)
(1.0512 0.0747167 -3.48392e-21)
(0.999954 -1.43283e-05 -1.65481e-24)
(0.999916 -9.39978e-06 2.3445e-24)
(0.993169 0.111868 -2.51144e-20)
(1.03791 -0.0461857 -8.10659e-23)
(1.00146 -0.0515847 -1.66753e-21)
(0.986047 -0.0322448 -2.49296e-21)
(0.982211 -0.00539804 1.07019e-21)
(1.00307 -0.0380591 1.76284e-22)
(0.949585 -0.00759124 1.89003e-21)
(0.999983 -1.38049e-05 -8.65476e-25)
(0.977437 -0.037629 -9.5866e-22)
(1.14819 0.0556913 -4.48683e-21)
(0.997442 -0.00110573 6.59646e-23)
(1.00006 -5.11784e-06 -3.37037e-24)
(1.1045 0.0687299 5.81934e-22)
(0.99906 -0.000302542 1.85591e-22)
(0.990252 -0.0106131 6.57639e-22)
(1.00138 -0.0357357 5.77608e-22)
(1.00001 -1.35923e-06 -9.31411e-26)
(1.00066 -0.00155302 -6.59579e-23)
(1.04279 0.0578243 1.0553e-20)
(1.13436 0.0729402 -6.81502e-21)
(1.00658 0.0913236 -3.24503e-21)
(1.03343 -0.080139 1.40853e-21)
(1.01162 -0.061285 6.81165e-22)
(1.04829 -0.121149 -5.50927e-22)
(1.02099 -0.00266358 6.58444e-21)
(1.03859 0.0541633 -3.41544e-21)
(0.999839 -1.66145e-05 -1.65563e-23)
(1.00003 -1.56377e-05 1.08081e-24)
(0.942778 0.0132894 -2.06921e-20)
(0.99411 -0.0103382 -2.40928e-22)
(0.999531 -0.000375522 -4.73839e-23)
(0.979086 -0.0372587 1.99993e-21)
(0.990054 -0.00955489 -4.80226e-22)
(1.02483 0.0942653 -2.65201e-20)
(1.01978 0.0915377 -5.58981e-21)
(0.983739 -0.0464222 7.04812e-22)
(0.879649 0.0632531 -1.79935e-20)
(0.999127 -0.000344241 -1.36561e-22)
(0.991776 -0.00199392 4.27114e-22)
(0.962139 -0.0104023 1.58471e-21)
(1.03024 -0.00225135 -1.36075e-21)
(0.988801 -0.0929759 -3.05683e-22)
(1.16344 0.13807 -1.1132e-20)
(0.936062 0.0759813 -4.00172e-20)
(1.00005 -8.46092e-05 3.56951e-24)
(1.00754 -0.0061305 2.28869e-22)
(1.02919 0.0172047 1.17833e-20)
(0.997032 -0.00464752 -4.32046e-22)
(1.03346 0.0141695 -1.47647e-21)
(0.999591 -0.00099925 -1.2763e-23)
(0.898334 0.107382 3.16857e-20)
(1.01322 0.0954869 5.36584e-21)
(0.995682 -0.00164362 4.11669e-22)
(1.00277 -0.00680464 -9.72612e-24)
(0.999763 -5.29892e-05 -7.99707e-23)
(1.20004 0.0670566 1.82286e-21)
(0.999927 -8.92355e-06 7.07671e-24)
(0.995826 -0.00851226 2.01226e-22)
(0.954331 -0.0201114 2.15148e-21)
(0.999945 -2.01724e-05 -1.61864e-24)
(0.999037 -0.00228982 -4.74398e-23)
(0.99968 -0.000971578 2.24032e-23)
(1.0815 0.0349108 7.86324e-21)
(0.999984 -1.94582e-05 3.12095e-24)
(0.996461 -0.000400294 2.51105e-25)
(0.966779 -0.03184 5.76028e-21)
(0.852669 0.0336434 -1.05158e-20)
(1.06909 -0.0224977 -8.31992e-22)
(0.91319 0.0723137 2.41931e-20)
(0.999966 -6.62215e-06 -4.21697e-24)
(0.999529 -0.0360102 -4.0013e-23)
(0.999857 -0.000247423 -1.92745e-23)
(1.00692 0.107335 -2.4425e-20)
(1.00305 -0.000617881 -2.11089e-22)
(0.99255 0.0404602 1.15556e-20)
(1.00206 -0.00817135 -1.67179e-22)
(1.00059 -0.00164047 7.00936e-23)
(1.02103 -0.0315374 -2.87602e-22)
(1.02099 -0.00144687 -6.09828e-21)
(1.00044 -0.00026648 3.29794e-23)
(0.999826 -4.3067e-05 4.63178e-25)
(1.00038 -0.000359727 7.37235e-23)
(0.996872 -0.00492279 -3.84688e-22)
(1.00576 -0.0549463 1.93801e-21)
(0.999967 -9.06831e-06 2.84475e-24)
(0.97061 -0.0216099 1.36604e-21)
(0.997113 -0.000887807 -1.65819e-23)
(0.999891 -3.63986e-05 9.36555e-24)
(0.999521 -0.000466068 1.53599e-23)
(0.987306 0.0647903 2.78111e-20)
(0.993807 -0.00065451 1.68656e-22)
(0.999412 -8.70632e-05 -1.59403e-23)
(0.887757 0.0151686 4.00901e-20)
(0.998922 -0.00220318 -1.06814e-22)
(1.093 0.107484 -7.56946e-21)
(0.999841 -0.000228888 3.40391e-23)
(1.00537 -0.0188505 2.05156e-23)
(1.00001 -1.03856e-06 -8.67233e-26)
(0.984914 -0.0268762 -9.97777e-22)
(1.02949 -0.00209582 2.11868e-21)
(1.15857 -0.0804379 2.24162e-21)
(0.982603 -0.015017 1.84118e-21)
(0.999683 -0.000495445 5.92551e-23)
(0.978383 -0.0575323 1.25425e-21)
(0.987219 -0.000366636 7.68886e-22)
(0.99986 -1.61219e-05 1.01436e-24)
(1.00037 -0.000312409 -6.52379e-23)
(0.998371 -0.00284424 1.46505e-22)
(0.994087 -0.00117009 -5.04461e-22)
(1.00243 -0.000770932 -2.48916e-22)
(0.999037 -0.00157719 6.94954e-23)
(0.98111 -0.00684772 2.57548e-22)
(1.00942 -0.0541698 -1.40943e-21)
(0.981234 -0.00575338 1.14211e-21)
(1.10509 -0.0807644 -1.58198e-22)
(0.975351 -0.00624778 -1.44705e-21)
(1.03119 0.125273 2.70475e-21)
(1.02572 0.129327 -1.97978e-20)
(0.998831 -0.000625993 -1.1823e-22)
(1.17266 -0.102553 -5.64592e-21)
(0.999987 -2.84131e-06 -2.76754e-25)
(0.998334 -0.00352293 -1.77865e-22)
(0.979857 -0.00160036 2.91514e-21)
(1.00933 0.0272073 6.15691e-21)
(1.04035 0.0059844 -5.56416e-21)
(1.00008 -2.87798e-05 7.94005e-24)
(0.998425 -0.00332426 -1.20869e-23)
(0.976171 -0.00693562 1.09073e-21)
(1.06146 0.0337551 -3.34671e-21)
(0.999229 -0.000982069 6.17704e-23)
(1.00267 -0.000669015 1.41026e-22)
(1.00098 -0.000810773 -1.23389e-23)
(1.13214 -0.0239282 1.61315e-21)
(1.13148 -0.147849 -4.36013e-21)
(1.06339 0.153451 1.22122e-20)
(0.998759 -0.000197335 -1.15059e-22)
(1.0456 -0.0477617 -1.74628e-22)
(0.999911 -5.49267e-05 -7.83484e-24)
(1.00377 -0.00608539 -4.7718e-22)
(0.999958 -1.10055e-05 -1.19075e-24)
(0.988049 -0.0164881 3.19831e-22)
(0.999733 -6.11961e-05 -1.52127e-23)
(1.00897 -0.0189419 1.10451e-22)
(1.1875 -0.127096 6.25066e-21)
(0.978727 -0.0209513 2.19289e-21)
(1.00638 -0.0184772 -4.35222e-23)
(1.00679 -0.00545775 -2.96608e-22)
(0.999432 -0.000113229 7.1533e-23)
(1.02167 -0.0175566 6.79641e-22)
(0.996779 -0.0152796 3.16763e-22)
(1.07745 -0.00742108 -1.85238e-21)
(1.07461 0.0342602 3.66263e-21)
(1.06563 -0.151519 5.57302e-23)
(1.09654 -0.0947689 -2.05893e-21)
(0.986679 -0.000746392 -8.22341e-22)
(1.00407 -0.00304538 4.51962e-22)
(0.955971 -0.0191532 -8.34948e-22)
(0.915803 0.094441 -4.85956e-20)
(1.08358 -0.0842635 2.18369e-21)
(1.02299 -0.0114709 -2.73372e-21)
(0.889944 0.0685667 -2.43898e-20)
(0.9988 -0.000146594 5.68278e-23)
(0.998629 -0.000774383 -3.6378e-23)
(1.115 -0.0995077 -2.19765e-21)
(0.999152 -0.00170306 -3.80146e-23)
(1.00623 -0.0352373 1.5257e-22)
(1.00472 -0.00155673 1.6001e-22)
(0.997765 -0.000342467 -8.90448e-23)
(0.99836 -0.000290442 -1.4129e-22)
(1.0355 0.0222583 6.89325e-21)
(0.999947 -0.000122924 -9.35999e-25)
(1.00042 -0.000211569 -2.93784e-23)
(1.00006 -1.19109e-05 5.75611e-24)
(0.997259 -0.000544763 4.74975e-22)
(0.994926 -0.00740649 5.3372e-22)
(0.999987 -2.48952e-06 2.21249e-25)
(0.999143 -0.000204599 1.47823e-23)
(0.983309 -0.0132736 6.47416e-22)
(0.941393 0.0197689 1.29498e-20)
(1.00776 -0.0195313 -9.44798e-24)
(0.994181 -0.00967797 8.6229e-22)
(0.957013 0.0740382 5.51578e-21)
(1.00149 0.0364856 1.7033e-20)
(1.06277 -0.0133471 -1.57172e-21)
(1.17236 -0.0901798 1.8604e-21)
(0.95821 -0.00332725 2.7187e-21)
(1.00403 -0.00349373 -2.22715e-22)
(1.01157 0.0470548 -9.54194e-22)
(0.991072 -0.0017701 -1.01875e-21)
(1.06459 0.112349 2.80523e-22)
(1.00222 -0.040563 2.2508e-23)
(1.00541 -0.0906744 -1.20585e-21)
(1.12551 0.0701661 4.32818e-21)
(1.06969 0.119853 -1.05155e-20)
(0.971838 -0.0187404 3.04835e-21)
(1.04102 0.00387598 -3.55608e-21)
(1.17529 0.144333 1.02182e-20)
(1.08432 0.110423 1.47703e-20)
(1.02171 -0.00270584 2.07213e-21)
(0.997602 -0.0011944 1.0376e-22)
(0.996663 -0.00183525 9.0308e-23)
(0.999931 -1.87759e-05 -3.75804e-24)
(1.01183 -0.024801 8.63253e-23)
(0.990828 -0.00148442 2.39887e-22)
(1.00081 -0.00196575 -5.84264e-23)
(0.999917 -1.98151e-05 -6.87823e-24)
(0.998725 -0.000574482 4.60908e-23)
(0.976863 -0.0563071 -2.06836e-21)
(1.12403 0.000222866 1.37472e-21)
(0.98623 -0.00467754 -1.31364e-21)
(0.999193 -0.0102414 3.48239e-22)
(0.996981 -0.000583762 -2.53592e-22)
(1.0426 -0.0485986 -3.10887e-23)
(0.994353 -0.00123295 -8.10918e-22)
(1.00187 -0.00612839 1.77664e-22)
(1.19511 0.123301 1.76829e-21)
(0.998535 -0.000275461 -3.29054e-22)
(0.999983 -3.71979e-05 -2.31631e-24)
(0.999957 -0.00014757 -1.13971e-24)
(1.00004 -8.67191e-05 4.12719e-24)
(0.982971 -0.00603287 6.00759e-22)
(1.03317 0.0201414 -8.12531e-21)
(0.996795 -0.00044556 9.85366e-24)
(1.01957 -0.0093976 1.77861e-21)
(0.992069 -0.0980533 2.29352e-21)
(0.999134 0.0939872 -5.51069e-22)
(1.00318 -0.00623634 1.5717e-22)
(1.00544 -0.00395974 -7.38471e-23)
(0.995943 -0.00205922 -3.27479e-22)
(0.992479 0.0645538 -2.71811e-20)
(0.999169 -0.000102919 4.75425e-23)
(1.0696 0.15927 -6.1125e-21)
(1.00971 0.0185854 -9.47688e-21)
(0.999909 -2.4356e-05 8.0327e-24)
(1.00057 -0.0409595 -1.01945e-21)
(0.997359 -0.000629137 -2.34255e-22)
(0.988115 -0.0467873 3.18769e-21)
(1.00044 -0.000111587 2.93942e-23)
(1.05941 -0.00907662 2.2484e-21)
(1.00534 -0.0137619 -5.64962e-24)
(1.00508 -0.00350472 3.67044e-23)
(0.999331 -0.000132234 -9.51417e-23)
(1.08605 0.0298416 3.69644e-21)
(1.05574 0.0333079 1.28213e-21)
(0.999242 -0.0531837 1.64547e-21)
(0.983805 -0.0155213 -1.24234e-22)
(0.998277 -0.00303365 -1.25932e-22)
(0.997659 -0.0324681 -1.8693e-21)
(1.17765 -0.0110671 -1.19741e-21)
(0.859358 0.0522697 -2.30655e-20)
(1.04811 -0.0832304 -1.44855e-21)
(1.00413 -0.0065913 -7.29505e-23)
(0.999994 -1.79367e-06 -9.84035e-26)
(0.98944 -0.00387043 -1.05558e-21)
(0.998205 -0.000311628 3.05121e-22)
(1.02058 -0.0172446 9.85002e-22)
(0.988712 -0.0791373 -1.00245e-21)
(1.15968 -0.109374 2.15268e-21)
(0.985845 0.0891544 -3.34862e-20)
(1.06483 0.0287309 5.39127e-21)
(1.05453 -0.1161 2.2859e-21)
(1.10776 0.0776338 1.94504e-21)
(0.999392 0.03899 3.21153e-20)
(1.01702 -0.00253639 1.49446e-21)
(1.00097 -0.00189598 1.34072e-22)
(1.03391 0.0638748 5.37021e-21)
(0.999315 -0.0016623 8.45508e-23)
(0.999856 -0.000135955 7.54976e-24)
(0.985623 -0.00156989 3.68144e-22)
(1.00007 -2.76169e-05 1.464e-24)
(1.04887 -0.129484 1.09018e-21)
(1.00264 -0.0149448 -7.03403e-23)
(0.986561 -0.0266425 1.68772e-21)
(1.00151 -0.00130647 6.89852e-23)
(1.09525 0.0671827 1.09914e-20)
(0.998597 -0.000260523 -2.71453e-23)
(0.999981 -2.97479e-05 -1.57144e-25)
(1.00006 -0.0916067 1.30878e-21)
(1.00133 -0.00110993 -4.02908e-23)
(1.09688 -0.0384325 -4.20331e-22)
(0.965195 -0.0107963 5.63608e-22)
(0.950642 -0.0124401 2.758e-22)
(1.22946 -0.0794844 3.55888e-22)
(1.02655 0.0166795 -3.07576e-21)
(1.02089 0.00443612 1.89627e-21)
(1.01972 0.00428894 -7.51117e-22)
(0.99984 -3.54586e-05 2.6413e-24)
(1.13183 -0.00618532 9.24784e-22)
(1.07982 -0.00383333 2.15712e-21)
(0.999595 -0.00053021 2.27402e-23)
(0.986827 -0.00509239 1.5259e-21)
(1.00049 -0.000169188 -3.27199e-23)
(1.00912 -0.0174633 -6.94809e-22)
(1.00562 -0.024065 -5.27318e-23)
(1.00366 -0.00115968 1.50922e-24)
(0.999397 -0.00105337 -1.01239e-22)
(1.18907 0.0565193 -5.57875e-21)
(0.999983 -1.79074e-05 -3.48896e-24)
(1.00017 -8.79005e-05 -8.21188e-24)
(1.00163 -0.000871907 -2.89142e-24)
(0.982338 -0.00259429 1.01465e-21)
(1.01597 -0.010567 1.24065e-21)
(0.986324 -0.0224696 -2.39286e-21)
(0.978353 -0.0039621 -5.87363e-22)
(1.00386 -0.0517298 9.3561e-22)
(0.999847 -0.107914 -2.45425e-21)
(1.02005 -0.0288479 2.21783e-22)
(1.0394 0.0638791 -3.04206e-20)
(1.19007 -0.111568 -4.25539e-21)
(0.994768 -0.0020793 -4.25545e-23)
(0.892947 0.100182 3.78445e-20)
(0.978165 -0.041649 3.47956e-21)
(0.994677 -0.00786409 1.68329e-22)
(0.978888 -0.00328811 9.69751e-22)
(0.99775 -0.0148322 -9.07583e-23)
(0.983422 -0.00190796 1.55351e-21)
(0.992034 -0.00311683 -3.08294e-22)
(1.02312 -0.0133195 -1.86959e-21)
(1.0866 -0.0910811 -5.48827e-22)
(0.99998 -3.49249e-05 -2.89871e-25)
(1.01958 -0.0121896 -2.12767e-22)
(0.999924 -2.40556e-05 -3.9512e-24)
(1.0197 0.107111 6.44463e-21)
(1.20471 0.013346 2.03366e-21)
(0.996182 -0.00157329 1.03285e-22)
(0.988809 -0.00138524 -1.40189e-21)
(0.999853 -4.36922e-05 -1.90697e-23)
(0.998608 0.058335 2.0077e-20)
(1.05099 0.120867 1.43214e-20)
(1.12863 -0.0169281 -7.94231e-22)
(1.22661 0.0926511 -3.94418e-21)
(0.977781 -0.0440863 -1.49728e-21)
(0.99828 0.0125422 -3.09273e-20)
(0.99995 -0.000107925 4.08706e-24)
(1.03827 -0.0304289 1.89888e-21)
(0.985343 -0.00119594 -5.74948e-23)
(1.12772 0.0495307 -1.95773e-21)
(0.924954 0.068925 -2.94132e-20)
(1.17488 -0.0225379 2.70953e-22)
(1.05634 0.0234216 8.92153e-22)
(0.999755 -0.0101673 -5.78879e-23)
(0.999842 -6.78506e-05 -1.74816e-23)
(1.21458 0.064683 1.52669e-21)
(1.14227 -0.128974 9.31572e-22)
(0.996386 0.0666007 -6.04435e-22)
(1.08974 -0.0354881 2.04421e-21)
(1.0399 0.0492033 8.93752e-21)
(0.994456 -0.00185667 -1.44342e-22)
(0.994151 0.0888478 9.04189e-21)
(1.05578 0.112857 4.94326e-21)
(0.992931 -0.00263754 -8.65207e-22)
(0.994083 -0.00247551 -3.2185e-22)
(1.21879 0.0371219 -6.63113e-23)
(0.948939 -0.0114833 -3.79345e-21)
(0.999933 -0.00012593 -6.15648e-24)
(0.989933 -0.00419013 1.35866e-21)
(0.952475 -0.0162497 2.78929e-21)
(0.984082 -0.056789 -4.3865e-22)
(1.00794 -0.0021853 -1.2805e-21)
(1.00678 -0.00494882 8.23329e-23)
(0.999903 -0.000156903 -1.08308e-23)
(1.05501 0.128649 -2.1553e-20)
(1.00011 -0.00919359 1.02532e-23)
(0.999919 -4.74423e-05 3.51085e-24)
(1.01041 -0.0502228 1.09689e-21)
(0.999609 -0.000347853 2.00343e-23)
(0.999825 -6.17703e-05 1.34975e-24)
(1.00405 -0.010089 -8.47141e-23)
(1.08013 0.0719526 1.55897e-20)
(0.998362 -0.0817377 1.80882e-21)
(0.946281 0.0694304 1.71892e-20)
(1.00005 -8.54077e-06 -3.94519e-24)
(1.08862 0.0746513 -1.60951e-20)
(1.00672 -0.0423978 8.21148e-22)
(0.999939 -0.000152582 -1.72152e-24)
(1.00002 -4.9438e-06 -1.06323e-24)
(1.00334 0.0116698 -1.55774e-21)
(1.07051 0.0606316 5.90333e-21)
(0.996897 -0.00193908 8.99588e-23)
(1.06036 0.0449447 -7.75191e-21)
(1.00002 -1.56965e-05 7.666e-25)
(1.06238 0.0514027 -1.06187e-20)
(1.05815 -0.14418 3.01538e-21)
(0.992558 -0.00235865 9.51977e-22)
(0.999077 0.0198295 -4.17402e-20)
(0.979597 -0.0351741 2.32347e-21)
(1.2273 0.0773897 3.3209e-21)
(0.97983 -0.00330676 5.87433e-22)
(1.06895 0.053473 1.38684e-20)
(1.07818 0.063014 -4.28901e-21)
(0.987434 -0.00629579 2.20284e-21)
(0.983652 -0.00758017 -1.61587e-21)
(0.995973 -0.0078971 4.99771e-22)
(0.9978 -0.000582032 -7.69414e-23)
(0.999845 -0.00015183 2.03548e-23)
(0.999951 -0.00876255 -1.81133e-23)
(1.06859 0.103342 -2.51198e-21)
(0.999978 -2.74454e-05 8.62599e-25)
(1.05406 0.0435842 1.02491e-20)
(1.00707 -0.0851911 2.90294e-21)
(1.01003 0.0669722 7.7633e-21)
(1.05234 0.0383019 -1.17466e-20)
(0.950737 -0.0151658 -3.4606e-22)
(0.954628 0.0893282 -3.57957e-20)
(0.998774 -0.000921729 6.44625e-24)
(1.0119 -0.0228827 2.85593e-22)
(1.02771 -0.0715352 7.91585e-22)
(0.984123 -0.00179821 -9.32677e-23)
(0.995065 -0.00262217 4.29405e-22)
(1.00449 -0.0429544 -7.23051e-22)
(1.0465 -0.025301 -1.93393e-22)
(0.902464 0.0620899 4.62831e-20)
(1.00003 -1.52867e-05 4.03994e-24)
(0.998555 -0.000982348 8.82161e-23)
(1.00528 -0.0613344 3.47e-23)
(1.00001 -3.91838e-06 1.09353e-25)
(1.02131 0.11526 3.1719e-21)
(1.00135 -0.000951854 0)
(1.00001 -5.32049e-06 7.516e-26)
(1.00015 -6.91049e-05 1.91705e-23)
(1.00032 -9.33882e-05 4.0372e-25)
(0.988353 -0.0154377 1.6312e-21)
(1.01839 -0.016044 -7.04186e-22)
(0.998833 -0.000715056 1.39445e-22)
(0.999935 -1.32803e-05 7.46107e-24)
(0.994743 -0.00245326 2.38394e-22)
(1.00345 -0.0104864 -5.93088e-23)
(0.980728 -0.0809637 -2.70608e-21)
(0.954881 -0.00518961 2.74322e-22)
(1.01546 -0.00938663 2.19311e-21)
(0.999979 -2.16803e-06 2.55163e-24)
(1.02808 -0.132971 3.39348e-21)
(0.990119 -0.00291874 -5.44895e-22)
(1.19151 0.0399161 -1.28939e-22)
(1.00044 0.0165268 -5.58064e-21)
(1.00098 -0.00285453 3.07851e-23)
(1.16535 0.0372636 -5.72595e-21)
(1.00012 -7.56077e-05 3.86331e-26)
(0.990579 -0.00328388 1.57454e-23)
(1.02198 0.000426162 -3.80053e-21)
(0.995082 -0.00298253 -1.7584e-22)
(1.08754 0.0898662 -9.45259e-22)
(0.99047 -0.00512604 -1.02603e-21)
(1.04027 -0.0287714 -1.69202e-21)
(1.0227 0.00103298 -4.09776e-21)
(1.07138 0.0290016 -2.21561e-21)
(1.00567 -0.0126956 -3.27011e-22)
(0.992431 -0.00336306 2.55914e-23)
(1.11101 0.0600381 6.27789e-21)
(0.978554 -0.0607095 -2.39054e-21)
(1.00602 0.114621 2.6781e-20)
(0.993292 -0.00381492 -1.00196e-21)
(1.1013 0.124996 -2.89735e-22)
(0.993286 -0.00334623 2.67646e-22)
(0.99913 -0.00041416 -9.15582e-24)
(1.05454 0.0200997 2.55284e-21)
(1.0102 -0.0256751 -3.06638e-23)
(1.03403 -0.000752888 5.52724e-21)
(1.00138 -0.000685024 4.47157e-23)
(1.00001 -4.05858e-06 3.44017e-26)
(0.984757 -0.093031 9.80341e-22)
(1.1867 0.112917 -8.21808e-21)
(1.00118 -0.00277085 -4.22815e-23)
(1.17852 0.0311563 4.28258e-22)
(0.99099 -0.00479049 -6.71965e-22)
(1.02186 -0.133002 -1.2079e-21)
(1.03323 -0.0417231 -5.09698e-23)
(0.98594 -0.0238325 1.34606e-21)
(0.998742 -0.000805177 -5.87799e-23)
(0.993506 -0.000844048 -2.02669e-22)
(0.976272 -0.051634 -1.44442e-21)
(0.978198 -0.00709633 2.22132e-21)
(0.992883 -0.00311369 7.07962e-22)
(0.999889 -0.000354842 9.6089e-24)
(0.997369 0.122229 -3.35699e-21)
(1.15447 0.0293872 3.33906e-21)
(1.02064 -0.0104491 -6.84433e-22)
(0.99985 -0.000117951 1.35554e-23)
(1.0513 0.105632 -9.63281e-21)
(1 -1.8958e-05 -8.34712e-26)
(0.999861 -0.000105071 2.69133e-23)
(1.14259 0.0343573 3.34491e-21)
(1.00735 -0.0210869 1.65699e-22)
(1.19216 0.0862736 6.12068e-21)
(1.02079 -0.00324427 1.56197e-21)
(1.01376 -0.0114245 -1.46706e-22)
(1.06011 -0.0779699 9.25662e-22)
(1.01276 -0.106692 2.80691e-21)
(1.21957 -0.0833193 1.53918e-21)
(1.00098 -0.000685196 -9.73099e-23)
(0.966462 -0.0118199 -2.19624e-22)
(0.999986 -4.58045e-05 -7.05357e-25)
(1.00385 -0.00922802 6.00368e-23)
(1.09137 0.0827936 5.74332e-21)
(0.988093 -0.0059115 1.539e-21)
(0.997914 -0.00116811 1.21713e-22)
(1.00872 -0.0346193 -4.52843e-22)
(0.998532 -0.000867024 8.32985e-24)
(0.999701 -0.000871455 2.74114e-23)
(0.894576 0.0143588 8.23952e-21)
(0.992891 -0.0040994 -5.66687e-22)
(0.999596 -0.000580383 -7.86352e-23)
(0.999986 -6.43418e-07 -5.49161e-25)
(1.01699 0.00582228 8.28162e-21)
(0.979371 -0.0196366 -3.36167e-22)
(0.999755 -0.000438947 2.40565e-23)
(0.997925 -0.000675956 1.56962e-22)
(1.02474 0.0192625 3.39675e-21)
(1.06737 -0.00320553 5.4904e-22)
(0.971792 -0.0171067 -1.89379e-21)
(1 -1.1809e-05 -3.16142e-25)
(1.00165 0.0138268 2.2648e-20)
(0.989441 -0.0135004 -1.11464e-21)
(1.09214 0.0588753 -1.10262e-20)
(1.01044 -0.00115052 -1.95149e-21)
(1.01214 -0.00111612 4.46526e-21)
(0.976944 -0.00879194 3.02191e-21)
(0.999928 -5.09481e-05 -2.31848e-24)
(1.02187 -1.60817e-05 -7.57211e-22)
(1.07082 -0.00778355 -6.73841e-22)
(1.20815 -0.0505756 -1.43191e-21)
(1.01236 -0.0837089 6.50567e-22)
(1.06281 0.0967069 7.38842e-21)
(1.0046 -0.00137726 -3.11928e-23)
(1.12166 0.0611501 -8.59634e-21)
(0.999758 -0.0118551 -1.00279e-22)
(1.00799 -0.0476462 -1.94632e-21)
(0.999709 -0.000130987 -2.55695e-23)
(1.00203 -0.0158338 1.36163e-22)
(0.999922 -0.00034138 4.32326e-24)
(1.05273 0.027732 -7.70047e-21)
(1.13434 0.131279 -1.91565e-20)
(0.99889 -0.000951268 4.67805e-23)
(1.01489 -0.0117083 3.03517e-23)
(0.987073 -0.00355102 5.28253e-22)
(1.01842 -0.0764516 2.88134e-22)
(1.01338 -0.0784437 -1.46152e-21)
(0.998609 -0.000684945 9.26444e-23)
(1.03515 -0.0299499 -6.4046e-22)
(0.903958 0.00414966 -1.392e-20)
(1.18474 -0.0602181 -1.31593e-21)
(0.999959 -0.000130864 9.10333e-24)
(1.06172 -0.00418479 -1.94295e-21)
(0.99773 -0.00725243 -2.44506e-22)
(0.993226 0.00317169 2.94226e-20)
(0.990999 -0.00419222 9.34591e-22)
(0.995953 -0.0212733 -2.97529e-22)
(1.01137 -0.0313659 -3.19589e-23)
(0.994792 -0.0218743 -4.26906e-23)
(0.998298 -0.0172094 -6.6902e-22)
(0.994397 -0.00265805 1.63999e-22)
(0.99909 -0.0117041 3.63891e-22)
(1.00149 -0.00516679 -4.77592e-23)
(1.04652 -0.0289627 4.56629e-22)
(1.00008 -2.15725e-05 -1.15717e-23)
(1.09514 -0.151772 -1.66055e-21)
(1.13657 -0.0763269 -6.95358e-22)
(1.03757 0.12693 1.79869e-20)
(0.973158 -0.0162612 2.87996e-21)
(1.1746 0.0863401 -3.2366e-21)
(1.0015 -0.000540195 1.58464e-22)
(1.03901 -0.0759694 -1.76905e-23)
(1.00123 -0.0314165 -7.05276e-22)
(1.02368 0.0364365 9.99095e-21)
(0.994774 -0.00321898 4.07455e-22)
(1.00008 -0.0001456 7.48893e-24)
(0.989918 -0.0140787 1.45744e-21)
(0.996636 -0.00770444 -1.89539e-22)
(1.03336 -0.0271966 1.47617e-21)
(0.97934 -0.00545447 -1.87919e-21)
(0.982844 -0.00705124 5.33145e-22)
(1.09632 -0.0740207 -2.20304e-22)
(0.989071 -0.00232069 -9.17691e-22)
(1.00915 -0.0322557 2.91035e-22)
(0.984532 -0.0600593 1.73986e-21)
(1.00001 -6.22501e-06 5.03441e-26)
(1.05026 -0.0228772 2.65306e-21)
(0.986869 -0.0546749 -4.7e-21)
(1.17228 0.0606747 2.70392e-21)
(1.05703 -0.0829482 -1.74511e-21)
(1.03251 -0.000884853 4.61477e-22)
(1.00345 -0.0811317 -3.74101e-21)
(1.06991 0.137632 4.55704e-21)
(1.02497 -0.0345753 3.94607e-22)
(0.975997 -0.00809733 -1.78828e-21)
(1.00745 -0.0397415 -9.51135e-22)
(0.954399 0.00599687 1.31756e-20)
(1.07575 -0.131763 8.47173e-22)
(0.990511 -0.00388819 -2.84051e-22)
(0.998012 -0.0971747 -2.80111e-22)
(1.01203 -0.0568506 1.33676e-21)
(1.00955 -0.0952357 -4.61276e-22)
(1.0188 -0.0712791 -1.54846e-21)
(1.1066 0.0518747 8.15921e-21)
(0.997932 -0.00134085 8.02652e-24)
(1.0101 0.0449263 3.7784e-21)
(1.00614 -0.00130796 2.28972e-22)
(0.999707 -0.000443547 -3.40898e-23)
(0.999099 -0.00190166 2.30664e-22)
(1.05483 -0.00893535 -6.54704e-22)
(0.850736 0.00500351 4.02374e-22)
(1.0012 -0.00550706 2.38952e-23)
(1.00891 -0.0446545 2.79296e-22)
(1.02538 0.0222397 -5.64013e-21)
(1.00002 -5.93139e-06 -2.01976e-25)
(0.984466 -0.00715093 1.29067e-21)
(1.01838 -0.00939847 1.57628e-21)
(1.05467 -0.0517742 1.25747e-22)
(1.00622 -0.000726463 1.28486e-21)
(0.998808 -0.00167268 4.21059e-23)
(0.986088 -0.0301874 3.39359e-23)
(0.998258 -0.00700007 -7.16951e-23)
(1.00002 -4.41518e-06 2.14266e-24)
(0.981206 -0.0347005 -3.91973e-21)
(1.07319 0.0854175 -2.56453e-21)
(1.01359 -0.0280822 1.48484e-22)
(0.98763 -0.00402645 -9.90775e-22)
(1.00138 -0.000335942 -5.69719e-23)
(1.02874 0.0238512 7.42213e-21)
(0.999712 -0.000529764 -1.55419e-23)
(0.999069 -0.000542322 -4.7934e-24)
(0.999734 -0.000143218 -2.34947e-23)
(0.999438 -0.00178389 -5.90457e-23)
(1.1986 -0.0343363 1.31837e-22)
(1.01975 -0.0332943 3.11434e-22)
(1.00573 -0.0159257 9.50058e-23)
(0.986768 -0.00590221 -4.52485e-22)
(1.00003 -4.2576e-05 2.06457e-24)
(1.0253 -0.109295 3.83125e-21)
(1.15773 -0.123457 4.93675e-23)
(1.02478 -0.116649 -1.81754e-21)
(0.996048 -0.026985 -5.57299e-22)
(1.0109 -0.00826152 1.45908e-21)
(0.999842 -8.27417e-05 1.10627e-23)
(0.99136 -0.00927174 -5.80609e-22)
(0.968193 -0.0338008 -2.26714e-21)
(1.17843 -0.0470482 5.15039e-22)
(1.00783 0.0651531 -2.73082e-22)
(0.999125 -0.00268443 4.71648e-23)
(0.959813 -0.0232675 1.27465e-21)
(0.996467 -0.00229481 -3.91331e-22)
(1.02401 -0.0318722 -2.03189e-23)
(1.12066 0.041121 6.51478e-22)
(1.00034 -0.00011334 -4.51956e-23)
(0.999884 -0.00017827 -4.31551e-24)
(1.22301 0.0481689 2.55194e-22)
(1.15691 -0.0584244 4.90188e-22)
(1.01422 -0.0141574 5.22625e-22)
(0.997791 -0.00146218 2.07343e-22)
(0.998436 -0.000384978 -2.06495e-23)
(0.972861 -0.0349073 5.54591e-22)
(0.99987 -0.000296854 -1.42703e-23)
(1.01155 -0.0290913 3.57099e-23)
(0.990063 -0.00115493 1.90655e-21)
(1.00074 0.0186925 -4.6539e-21)
(1.08059 0.0916178 -1.34976e-21)
(1.03756 -0.0702054 6.78752e-22)
(0.989524 -0.0556345 1.73414e-21)
(1.005 -0.00129086 6.39767e-22)
(1.01023 -0.0217355 -4.04434e-22)
(1.13614 -0.063516 -7.81587e-22)
(0.987897 -0.0611581 -1.06954e-21)
(1.01001 -0.0389897 5.38431e-22)
(0.999999 -5.49664e-06 1.34412e-25)
(1.11491 -0.065244 -9.86382e-22)
(0.980965 -0.00223956 1.76572e-22)
(0.985685 -0.0670518 2.11849e-21)
(1.01359 -0.0259299 -5.40855e-22)
(0.967969 -0.0112556 -3.97333e-22)
(0.9997 -0.000253824 -1.15149e-23)
(0.997757 -0.00109441 -9.25444e-23)
(1.04704 0.0371108 9.07997e-21)
(0.978088 -0.00827143 -6.80611e-22)
(0.999988 -1.60751e-06 6.21944e-25)
(0.997853 -0.000449234 -2.16823e-22)
(1.08311 -0.122766 -5.24061e-21)