/*--------------------------------*- C++ -*----------------------------------*\
  =========                 |
  \\      /  F ield         | OpenFOAM: The Open Source CFD Toolbox
   \\    /   O peration     | Website:  https://openfoam.org
    \\  /    A nd           | Version:  7
     \\/     M anipulation  |
\*---------------------------------------------------------------------------*/
FoamFile
{
    version     2.0;
    format      ascii;
    class       volVectorField;
    location    "16";
    object      U;
}
// * * * * * * * * * * * * * * * * * * * * * * * * * * * * * * * * * * * * * //

dimensions      [0 1 -1 0 0 0 0];

internalField   nonuniform List<vector> 
115546
(
(1.02006 -0.0324079 -3.07958e-24)
(0.99999 -2.89192e-07 -1.05401e-24)
(0.990868 -0.00750298 3.71498e-22)
(0.99772 -0.0024456 -6.47067e-23)
(1.00112 -0.00275218 1.20293e-23)
(0.999393 -0.000907654 1.99564e-23)
(1.00855 0.0787848 -1.24199e-20)
(1.03 -0.0630339 3.03462e-22)
(0.999801 -0.000290101 -1.01858e-24)
(0.99999 -2.16494e-07 2.21315e-25)
(0.999846 -1.41661e-05 7.29568e-24)
(1.0001 -7.77472e-05 4.20829e-24)
(0.99909 -0.00297564 -2.18783e-23)
(0.948263 -0.00339605 -1.38926e-21)
(0.999799 -0.000297694 9.29974e-24)
(0.954436 -0.0154155 -3.1461e-21)
(0.999913 -0.000221736 3.58987e-24)
(0.99976 -0.000154629 -1.16439e-23)
(0.989136 0.0756906 1.49806e-20)
(1.00115 -0.00278684 5.51719e-23)
(1.03378 -0.0641928 2.66645e-21)
(0.99638 -0.000109184 -3.01374e-23)
(0.999717 -0.000209191 -1.13009e-23)
(0.996479 -0.00354216 -4.33117e-23)
(0.93742 0.0212516 1.38188e-20)
(1.0866 0.0182068 4.64346e-21)
(1.23543 0.0224789 3.89618e-22)
(1.01197 -0.00292381 1.36848e-21)
(0.999987 -3.3746e-05 5.75976e-25)
(1.00878 0.132983 -1.44401e-20)
(0.999912 -3.02007e-05 4.84676e-24)
(1.03466 0.00684217 1.19557e-21)
(1.00474 -0.00736437 -3.93238e-23)
(0.990677 -0.0039591 -3.45255e-22)
(0.92896 0.0581523 6.30014e-21)
(0.998742 -0.000761676 1.28271e-22)
(1.01185 0.0873749 2.13978e-21)
(0.999913 -0.000227258 -1.55183e-24)
(1.186 -0.140778 4.64636e-22)
(1.01735 0.0455569 1.97719e-20)
(1.03505 0.00722506 -2.33005e-21)
(0.999756 -0.000160523 -2.26825e-24)
(0.98847 -0.0136758 -7.01174e-22)
(0.998747 -0.000738046 -9.12268e-23)
(0.976313 -0.0364459 -1.12982e-22)
(0.948562 -0.00305493 1.4476e-21)
(1.00387 -0.00898811 2.30329e-22)
(1.00366 -0.000453531 1.24244e-22)
(1.00004 -0.00442022 -2.26985e-24)
(1.0001 -8.64844e-06 -2.00151e-23)
(1.00001 -5.04737e-07 -1.16107e-25)
(0.997751 -0.000101619 9.93323e-23)
(1.02563 0.00800865 3.86353e-21)
(0.999991 -3.02231e-07 -1.7155e-25)
(0.99873 -0.00522878 9.01037e-23)
(1.02537 0.00823359 -1.00138e-21)
(1.02039 0.000403994 2.75831e-21)
(0.973602 -0.0254394 -3.8788e-22)
(1.17477 0.0250097 9.98302e-22)
(0.992985 -0.00927514 7.93111e-22)
(0.999951 -0.000124317 -1.49518e-24)
(0.99642 -0.0037516 3.75031e-23)
(0.999527 -2.73075e-05 -2.08693e-23)
(0.98804 -0.00651612 1.01975e-22)
(0.999956 -3.21843e-05 -4.01989e-24)
(1.00062 -5.18781e-05 -6.23951e-24)
(0.999238 -0.00272267 8.99738e-23)
(1.0264 -0.00296094 2.35293e-21)
(1.25747 0.0564602 -8.64234e-22)
(1.0207 0.000157421 1.13682e-21)
(1.04684 0.0866512 5.65523e-21)
(1.16962 0.0768488 -3.0717e-21)
(1.01744 0.0448807 8.76205e-21)
(0.971591 -0.00237447 -2.68459e-22)
(1.01222 -0.0400645 -2.39454e-22)
(0.981186 -0.00615048 -1.4505e-22)
(1.11478 -0.0247376 -3.18098e-22)
(0.999516 -0.00157892 -3.25597e-23)
(0.997941 0.0526954 -4.81884e-21)
(1.08345 -0.00636678 8.34181e-23)
(1.08404 -0.00505403 6.84098e-22)
(0.999965 -1.80659e-06 1.39482e-25)
(0.976694 -0.0794695 1.68985e-21)
(1.01146 -0.000678973 -6.13946e-22)
(0.997751 -0.000645311 6.11173e-23)
(1.0001 -7.54125e-05 4.1852e-24)
(0.987854 -0.0102178 -4.71154e-22)
(0.999991 -1.21474e-05 -7.24124e-26)
(0.979329 -0.00649006 -5.81472e-24)
(0.999993 -2.01575e-05 1.37551e-25)
(1.19806 -0.0837785 3.20432e-22)
(0.992618 -0.00395465 2.12505e-22)
(0.999986 -3.38484e-05 -8.00317e-25)
(0.999053 -0.000679043 9.52013e-23)
(0.999701 -0.000197163 -1.92872e-23)
(1.00021 -3.17886e-05 7.32716e-24)
(0.999769 -1.01383e-05 -3.78337e-24)
(0.977268 -0.0790622 1.11891e-22)
(1.11724 -0.0823425 3.1336e-22)
(0.979433 -0.00630381 -2.31412e-22)
(0.99995 -0.00012724 1.58984e-24)
(1.01475 -0.0050967 -1.40915e-21)
(1.00162 -0.00813869 -4.35355e-23)
(1.00167 -0.000111657 -5.60153e-25)
(1.04603 0.0853055 3.7609e-21)
(1.00299 -0.0574692 1.25323e-21)
(1.00953 0.0471167 -5.79567e-21)
(0.982356 -0.0505528 1.24022e-21)
(0.995948 -0.0187492 1.21311e-22)
(0.999989 -3.92515e-05 -4.77507e-26)
(1.0988 0.000462896 -1.50626e-21)
(0.999771 -1.32704e-05 1.50114e-24)
(1.11593 -0.0232594 2.06411e-22)
(0.99711 -0.0133544 -5.32326e-22)
(0.85284 0.0509977 -2.84469e-21)
(0.999731 -0.00795997 -1.9661e-22)
(0.999844 -1.19688e-05 -1.34911e-23)
(1.05854 0.0869568 -6.98598e-21)
(1.00002 -1.07344e-05 4.12525e-25)
(1.17031 0.0740615 2.18223e-21)
(1.05811 0.0888027 1.0017e-20)
(0.953988 -0.0157256 1.28502e-21)
(0.991153 -0.00790384 3.20485e-22)
(1.14572 0.00562474 6.62703e-22)
(0.999991 -7.00463e-07 -2.09949e-25)
(1.00894 0.131651 1.66503e-20)
(0.99644 -0.00385387 -3.96962e-23)
(0.921949 0.122415 -8.46723e-21)
(0.998862 -7.0757e-05 1.85895e-24)
(1.01817 -0.000448982 -1.77609e-21)
(1.02947 -0.0397021 1.86995e-23)
(1.00015 -2.02441e-05 6.23512e-24)
(1.08033 0.0979584 -4.3058e-21)
(1.0001 -7.14577e-05 -1.27095e-23)
(1.00002 -9.16885e-06 2.05006e-25)
(0.988369 0.0877427 2.40737e-20)
(0.944721 0.0562028 -3.80672e-21)
(1.00472 -0.00750047 -4.59749e-23)
(0.998807 -0.00526914 -1.27726e-22)
(0.99646 -0.00370483 3.69972e-22)
(1.11131 0.169978 4.6397e-21)
(0.999947 -0.00759738 -6.59721e-23)
(1.00004 -2.64606e-06 -7.63169e-24)
(1.03129 0.0114188 5.01014e-22)
(1.02993 -0.03878 -4.70275e-23)
(1.00001 -5.52325e-07 1.1556e-25)
(1.00763 -0.01051 -5.42127e-25)
(0.996389 -0.00390613 -1.20022e-22)
(1.02619 -0.00271652 -3.63449e-21)
(1.00054 -0.00134763 -4.55587e-23)
(1.00234 -0.0568737 -9.4841e-22)
(0.975923 -0.0364475 8.26852e-22)
(0.992666 -0.00385577 1.35989e-22)
(0.999991 -6.98957e-07 9.51219e-26)
(0.997783 -9.57434e-05 5.80737e-23)
(1.00539 -0.0059105 3.00413e-22)
(0.999989 -4.01236e-05 1.21197e-26)
(1.07935 -0.0238958 1.30389e-21)
(0.982182 -0.000444704 -1.47091e-23)
(1.00109 -0.0780513 -7.35297e-22)
(0.981396 -0.00631775 7.89137e-22)
(1.00754 -0.0103376 3.19154e-22)
(0.999536 -2.53395e-05 -1.53405e-23)
(0.997542 -0.0415282 1.11193e-22)
(0.99561 -0.0113738 -2.59185e-22)
(0.999406 -0.000350904 -6.17884e-23)
(1.01933 -0.00937925 7.1038e-22)
(0.992285 -0.0223546 -6.38826e-23)
(1.08071 -0.0243098 -1.77393e-21)
(0.995021 -0.0113644 3.1616e-22)
(0.993655 -0.00991575 5.71302e-22)
(1.0039 -0.0088353 -1.29476e-22)
(1.20799 -0.0943057 2.26625e-21)
(0.950282 -0.0123503 -2.25473e-21)
(0.997212 -0.0356611 7.14154e-23)
(1.02232 -0.00256581 -8.45037e-23)
(0.950364 -0.0116304 4.98995e-22)
(0.998562 -0.00177187 7.31541e-23)
(1.00554 -0.0106418 5.84481e-22)
(1.00002 -0.00434655 -7.62389e-24)
(1.00927 -0.00719174 9.56288e-23)
(1.01269 -0.0397621 -2.89155e-22)
(0.982848 0.0790301 -6.67242e-21)
(1.02812 0.011099 2.23163e-21)
(1.00887 0.0469144 1.36726e-20)
(0.99975 -0.000549229 -1.19862e-24)
(0.997438 -0.00205069 7.97069e-23)
(1.00004 0.000683236 -2.56788e-21)
(1.01961 -0.0165251 1.40734e-21)
(1.19542 -0.0843662 -1.71816e-21)
(0.998607 -0.00177262 2.25083e-23)
(1.00001 -0.00721979 4.61075e-23)
(0.993138 0.0426892 -9.8067e-21)
(0.984752 -0.0132938 1.40914e-21)
(1.0852 0.0182559 -6.18731e-21)
(0.992309 -0.0672224 -8.59661e-22)
(0.949977 -0.011325 -1.49771e-22)
(0.993307 -0.000175994 -3.56383e-22)
(0.982729 -0.0108035 -1.03118e-21)
(1.00338 -0.0263005 -2.48673e-22)
(1.02125 0.0113566 2.99686e-21)
(1.00186 0.0594372 8.0504e-21)
(1.01068 -0.00708888 2.77989e-22)
(0.999991 -1.74096e-05 -4.99592e-25)
(0.997533 -0.00175403 6.62101e-24)
(0.978302 -0.0119746 -5.48407e-22)
(0.999556 -0.000610584 -2.96971e-23)
(0.999957 -3.24302e-05 3.10005e-24)
(1.02018 -0.00507779 -4.39334e-22)
(1.00962 -0.0464654 2.03228e-21)
(0.950038 -0.01063 1.24917e-21)
(1.01051 0.0466332 -3.55728e-21)
(0.93975 0.0224334 -1.02362e-20)
(0.999993 -2.03397e-05 1.46898e-26)
(0.999402 -0.0195994 -5.78302e-22)
(0.984608 -0.0134703 -6.98239e-22)
(1.05488 -0.0204652 9.74058e-22)
(1.00416 -0.00861744 3.07505e-22)
(0.948338 -0.00235422 8.40026e-22)
(0.999903 -0.000144184 1.04271e-24)
(0.985161 -0.0266483 -3.43489e-23)
(0.98683 -0.0127561 4.61251e-23)
(0.99994 -0.0055861 8.75025e-24)
(0.981468 -0.000571739 4.60248e-22)
(0.999991 -3.72339e-07 2.46151e-25)
(0.962766 0.0751814 1.00338e-20)
(1.0033 -0.0130038 -5.00047e-23)
(0.98191 -0.0094334 -1.0599e-21)
(0.992716 -0.0664388 -4.82548e-22)
(0.970545 0.0345315 5.499e-21)
(1.01341 -0.00354224 -1.3953e-22)
(0.978808 -0.0283986 1.45418e-22)
(1.10375 0.163018 -3.79408e-21)
(0.988857 -0.0213095 -6.20446e-22)
(1.03143 -0.0413653 8.12946e-23)
(1.02102 0.0115196 4.53416e-21)
(1.00025 -2.36549e-05 7.86031e-24)
(1.00049 -0.00656348 3.62273e-24)
(0.990116 -0.0232598 2.24739e-22)
(0.997701 -0.000149749 -1.29291e-22)
(1.17166 -0.0692506 2.89516e-21)
(1.01217 -0.0286806 1.25503e-23)
(1.00153 -0.0789777 9.59904e-22)
(1.11742 -0.0846012 -1.57479e-21)
(0.998821 -6.14218e-05 -9.16859e-23)
(1.00054 -0.00156362 -5.26259e-24)
(1.03129 0.001364 3.03952e-21)
(0.980096 -0.00149744 -9.38902e-22)
(0.99257 -0.0224134 -2.01146e-23)
(0.959427 -0.0263634 -6.78884e-22)
(0.998959 0.0164469 -5.3221e-21)
(0.999139 -0.000931784 -6.95619e-24)
(1.01785 0.00117972 -1.37241e-20)
(1.00002 -0.00183472 -7.59369e-25)
(0.919205 0.115058 -1.52776e-20)
(1.00946 -0.00710752 -5.77341e-22)
(1.13297 -0.0250066 -1.35016e-22)
(1.012 -0.000680313 5.7734e-22)
(1.00017 -3.48122e-06 4.15204e-23)
(1.03025 -0.0642617 5.38043e-23)
(1.00954 -0.00687413 -1.3909e-21)
(0.948649 -0.00200048 -5.15331e-22)
(1.02851 0.0116107 -3.1559e-21)
(1.17211 -0.15204 -9.84427e-22)
(0.995766 -0.0189208 9.69041e-23)
(0.997771 -0.00246566 2.23759e-22)
(1.14327 0.00536875 1.3506e-21)
(0.998867 -0.000163249 9.96145e-23)
(1.11265 -0.0111395 -5.97745e-22)
(1.11559 -0.0353035 -7.16283e-24)
(0.999957 -1.69574e-05 -6.49334e-26)
(1.01975 -0.0161663 -3.49882e-22)
(1.00009 -0.00425788 -5.5995e-24)
(1.01245 -0.0290093 6.80514e-23)
(0.999197 -0.00226914 -8.26272e-23)
(0.987253 -0.0103041 -2.32689e-22)
(0.976964 -0.0342936 8.46017e-22)
(0.997705 -0.0356231 4.83973e-23)
(0.998658 -0.00697373 1.53321e-22)
(0.982939 -0.0505653 -1.03668e-21)
(0.99786 -0.0418644 -2.62391e-22)
(0.998841 -5.37537e-05 -6.90425e-23)
(1.00001 -0.00103255 2.5961e-24)
(0.978505 -0.01176 3.00538e-22)
(1.00001 -0.000478137 4.45894e-24)
(1.00743 -0.00530348 8.69875e-22)
(0.964321 0.0741511 5.75489e-21)
(1.01891 0.000473553 -6.81061e-21)
(0.978174 -0.0823104 -1.01059e-21)
(1.18227 -0.133604 4.15599e-22)
(0.976605 -0.0341044 1.8963e-22)
(0.999992 -1.53942e-05 -3.36504e-25)
(1.17617 0.0120758 5.39054e-22)
(1.01053 0.0459547 -3.4265e-21)
(0.999928 -0.000289381 9.03395e-25)
(1.01163 -0.00687135 -7.9244e-22)
(0.999111 -0.0010502 -5.82396e-23)
(1.03663 0.00603962 1.8203e-21)
(1.00009 -0.00285665 -6.08509e-24)
(1.11825 -0.035478 -5.78676e-23)
(0.949443 -0.00864913 -6.66597e-22)
(0.993744 -0.0322465 2.39709e-22)
(1.25696 -0.0559071 -8.94897e-22)
(0.996014 -0.00518296 -2.28814e-22)
(0.984562 -0.0330783 -1.41206e-22)
(1.07112 -0.00534595 7.14449e-22)
(1.01527 -0.0352238 3.08959e-23)
(0.982008 -0.00928843 7.20046e-22)
(1.09875 -0.167804 -3.54322e-21)
(1.00562 -0.0105184 -4.65108e-24)
(0.998227 -0.00118297 -7.02781e-23)
(1.06784 0.117351 8.1718e-21)
(1.08646 0.138693 5.87522e-21)
(0.990399 -0.0233054 -6.31666e-22)
(0.999024 -0.00299714 1.10804e-22)
(1.00164 -0.0078512 1.6814e-23)
(0.992088 0.044971 -1.54817e-20)
(1.00052 -0.00158342 3.31004e-23)
(0.996567 -0.00355979 1.91316e-22)
(1.17562 0.000864924 -1.25283e-22)
(1.05471 -0.0332441 1.38985e-22)
(0.999905 -0.000147913 -8.01611e-24)
(1.0105 -0.00720418 -2.16649e-22)
(0.855372 0.0483889 5.05034e-21)
(1.0755 0.00168658 -3.22759e-21)
(0.981946 -0.00369455 -1.14977e-21)
(1.00552 -0.00587131 -4.38387e-22)
(1.0336 0.0041768 2.2391e-21)
(0.949043 -0.00830248 1.29532e-21)
(1.17694 0.014527 -8.75134e-22)
(0.998234 -0.00123001 4.98735e-23)
(0.999992 -1.58571e-05 6.20398e-25)
(0.999764 -0.000583064 1.73347e-23)
(0.999125 -0.0010349 9.11262e-23)
(0.878551 0.0144593 3.29473e-21)
(0.9979 -0.00290696 -1.59942e-22)
(1.08456 -0.0188725 8.72904e-22)
(0.99996 -1.64807e-05 2.77531e-25)
(0.999383 -0.000890795 -2.70545e-24)
(0.997423 -0.00200738 -9.92875e-23)
(0.991911 -0.0082041 -3.01766e-22)
(1.05061 -0.00167012 -6.18574e-21)
(1.23928 0.0214215 -1.7961e-22)
(0.988339 -0.00611006 9.92205e-22)
(0.994493 -0.00641512 1.19818e-22)
(1.0011 -0.00206026 -1.81254e-23)
(0.998599 -0.00705826 -9.37396e-23)
(0.911193 0.119815 -2.5827e-22)
(0.979776 -0.0168794 1.8404e-21)
(0.998995 -0.00677442 4.02523e-23)
(1.07854 0.0968026 2.25618e-21)
(1.01551 0.0179855 -4.10825e-21)
(1.00943 -0.00670459 1.25942e-21)
(0.998268 -0.00192936 1.3158e-22)
(1.00302 -0.0264122 -3.20545e-23)
(1.00355 -0.0149955 2.60788e-24)
(1.01969 -0.0317945 -4.20958e-24)
(1 -1.26695e-06 3.98871e-27)
(0.999579 -0.000995834 5.82283e-23)
(1.02347 -0.0242921 -3.99317e-22)
(1.06632 0.0407349 5.44026e-21)
(0.984048 -0.0376553 2.89141e-22)
(1.01042 0.0863833 3.98858e-21)
(0.874124 0.0288626 -3.78795e-21)
(1.10055 -0.0304136 -5.08525e-22)
(1 -1.22582e-06 3.14588e-26)
(0.99108 -0.000232049 -5.87663e-22)
(0.989846 -0.0144744 3.79886e-22)
(1.00003 -0.00555136 2.5362e-23)
(1 -2.0876e-06 -5.04829e-26)
(1.05653 -0.0845178 -9.33532e-22)
(1.17839 0.143724 -2.66552e-21)
(0.980349 -0.00147566 -9.31343e-22)
(0.999666 -1.72615e-05 -2.14854e-23)
(1.11415 -0.0035008 -9.90218e-22)
(1.00267 -0.00377109 3.53128e-23)
(1.00155 -0.00797451 -2.62779e-23)
(1.00009 -6.28286e-06 1.77707e-23)
(0.999177 -0.00100823 -5.10893e-23)
(1.02557 -0.0245169 -8.10327e-23)
(0.97855 -0.0281629 1.07293e-21)
(0.996926 -0.0191085 -2.01674e-22)
(0.996655 -0.0129564 -7.99975e-22)
(1.02369 -0.0247321 -4.52973e-22)
(1.00743 -0.00517481 -4.55862e-22)
(0.999927 -3.9695e-06 -6.75618e-24)
(1.10427 0.159984 7.79281e-21)
(0.957461 -0.0241923 1.486e-22)
(1.00114 -0.00265705 -5.94971e-23)
(1.02333 -0.0540711 -2.89767e-22)
(1.0329 0.00584916 -8.19486e-21)
(1.01784 0.0362177 -1.03519e-20)
(0.987652 -0.0101812 3.51469e-22)
(1.01205 -0.00311835 7.31717e-22)
(0.987007 -0.0127364 4.8261e-23)
(0.998827 -0.00133051 -1.28706e-22)
(1.09655 -0.16596 2.19932e-21)
(1.00036 -0.00073411 4.56447e-23)
(1.00007 -0.00418989 1.28553e-23)
(0.987884 -0.00746537 1.08356e-21)
(0.981304 -0.0131896 4.7939e-22)
(0.998797 -0.00143294 1.43473e-22)
(1.02838 0.149885 -4.14522e-21)
(1.01896 0.0435927 7.88704e-22)
(1.13424 -0.15839 1.02474e-21)
(1.06601 -0.046892 1.2487e-22)
(1.00002 -9.73111e-06 -4.01995e-25)
(0.996797 -0.00745844 7.55312e-23)
(1.05223 -0.0226762 3.72167e-22)
(0.995619 -0.000171641 8.3446e-23)
(0.997695 -0.0150458 -3.79953e-22)
(0.998194 -0.00117053 1.76161e-23)
(1.00116 -0.00205419 -5.33863e-23)
(0.997858 -0.00252897 -1.55417e-22)
(0.997726 -0.000621571 -4.79913e-23)
(0.998643 -0.006852 -5.04214e-23)
(1.00014 -0.00410424 -1.78657e-24)
(1.03454 -0.115533 3.5811e-22)
(1.00003 -1.44481e-05 3.9773e-24)
(1.00721 -0.00488179 -7.73975e-23)
(0.999994 -5.48653e-07 -1.76044e-26)
(0.949661 -0.0103234 -1.71009e-21)
(1.00014 -0.000124983 1.06654e-23)
(1.0078 0.105765 9.47832e-21)
(1.08485 0.136743 -3.08189e-21)
(1.02835 0.0274433 -3.65363e-21)
(1.06502 -0.0460699 -9.30353e-23)
(1.02435 0.0312518 -3.66072e-22)
(1.02048 0.000377438 3.89173e-21)
(0.998901 -0.00234302 1.70097e-23)
(1.00107 -0.00106615 -6.51816e-23)
(0.999861 -0.000408867 1.49768e-25)
(0.997079 -0.00149094 1.11032e-22)
(0.982318 -0.00937405 4.26105e-22)
(0.996069 -0.00509226 -9.21206e-23)
(0.996673 -0.00749133 2.02698e-22)
(1.02117 -0.0312984 6.53359e-24)
(1.00014 -0.000121148 -1.30211e-23)
(0.9999 -5.12583e-05 -1.93739e-24)
(1.00009 -6.98274e-05 -9.40157e-24)
(0.999493 -0.00155253 3.49365e-23)
(1.01833 -0.000528907 1.68061e-21)
(1.01889 -0.0307092 3.47405e-23)
(0.987727 -0.00738383 -1.15575e-21)
(1 -0.000465468 -9.24705e-24)
(1.06503 -0.0823517 1.92492e-21)
(1.00052 -0.00151082 1.02886e-22)
(0.99991 -5.10625e-05 -7.62925e-24)
(1.01812 0.03551 1.47569e-20)
(1.02242 -0.00275876 3.07125e-22)
(1.00149 0.0328691 2.44175e-20)
(1.00003 -1.97767e-05 -3.76562e-24)
(1.00003 -0.000348902 0)
(1.00113 -0.00116005 9.76288e-23)
(0.992681 -0.0228504 3.03988e-22)
(0.996784 -0.00429223 -9.74713e-23)
(1.02273 -0.0773177 -6.93068e-22)
(0.980268 -0.000652768 6.23147e-22)
(1.05492 0.0251471 6.70823e-21)
(0.994806 -0.000131516 7.51449e-22)
(1.03033 0.14975 -2.17567e-21)
(1.00054 -0.00148841 -7.49464e-23)
(1.00111 -0.0026183 6.98984e-23)
(1.00147 0.0460017 -6.39056e-21)
(1.06906 0.115734 -3.39822e-21)
(1.03405 -0.0653239 -1.62448e-21)
(1.00166 -0.00146558 1.72116e-23)
(0.950676 -0.0126501 2.46723e-21)
(0.994755 -0.000165595 -4.31077e-22)
(1.00003 -2.10219e-05 1.61399e-24)
(1.00721 -0.00502568 9.15562e-23)
(0.958084 -0.0249234 -3.75881e-22)
(0.989941 -0.0229079 -5.17411e-23)
(0.971329 -0.0023781 4.73431e-22)
(1.02137 -0.0319578 4.58444e-23)
(1.07434 0.00118655 5.30405e-21)
(0.999995 -6.01043e-07 -3.07457e-26)
(1.0017 -0.00143798 -3.45567e-23)
(1.01465 -0.00531088 1.00662e-21)
(1.02894 -0.0148347 -1.26325e-21)
(1.00002 0.115729 -4.80173e-21)
(0.999999 -1.15267e-06 1.54518e-27)
(0.99996 -1.71861e-05 9.56256e-26)
(1.00111 -0.000101709 -1.68709e-22)
(0.99 -0.0226029 -6.20147e-22)
(0.999602 -0.000601868 2.53529e-23)
(0.999926 -0.000314709 1.98999e-24)
(1.08467 -0.0250544 -8.93329e-22)
(0.915957 0.0142935 -1.36488e-20)
(1.11953 -0.033545 3.93766e-24)
(1.00286 0.038303 -6.19505e-21)
(0.987231 -0.00235748 2.628e-22)
(0.998456 0.0151851 3.41787e-21)
(1.01912 0.00754187 4.66759e-21)
(0.997891 -0.00255904 6.15753e-23)
(1.05466 -0.0845728 1.29442e-21)
(0.957826 -0.0148848 2.14967e-21)
(0.997304 -0.0132176 3.7875e-22)
(1.00046 -0.0064727 1.94588e-24)
(0.997898 -0.00475568 1.1935e-22)
(0.999091 -0.000667844 2.86778e-23)
(0.998854 0.0428687 -2.77614e-20)
(0.989206 -0.0211716 -9.14385e-22)
(1.02004 0.104154 4.77363e-21)
(1.01573 -0.0355956 1.9121e-22)
(1.0285 0.0267807 2.03314e-21)
(0.987684 -0.00618865 4.3707e-22)
(0.992068 -0.00825114 -7.85472e-22)
(1.17486 -0.070346 2.21076e-22)
(1.01949 0.0115999 4.89812e-21)
(0.998314 -0.00193915 -1.48258e-22)
(1.00001 -0.00178041 1.00104e-23)
(0.999988 -0.0018496 -2.42988e-24)
(0.999985 -9.53168e-07 -1.64236e-24)
(1.01756 -0.030942 4.81912e-23)
(0.978369 -0.0413451 -1.09402e-21)
(1.00014 -0.000299652 -1.64429e-23)
(1.04761 -0.0237 -8.04468e-23)
(0.999799 -0.000481649 2.95784e-24)
(0.999797 -0.000492408 -1.82261e-23)
(1.0013 -0.000168371 -1.32681e-23)
(1.01642 -0.0352246 -1.07767e-22)
(1.00042 -3.58513e-05 -3.04625e-23)
(1.0008 -0.00522659 -5.87608e-26)
(0.985387 -0.00270808 5.7593e-22)
(0.997447 -0.00370412 7.97737e-23)
(0.997083 -0.0015401 -3.85877e-22)
(0.991461 0.0576064 -3.73635e-20)
(1.08498 -0.0575023 -1.45955e-21)
(1.00635 -0.00948058 3.87187e-22)
(0.993611 -0.0101001 4.3205e-22)
(0.981486 -0.0257808 -1.41586e-22)
(1.00012 -0.00404116 -6.65576e-25)
(1.00001 -1.9541e-05 -1.19956e-24)
(1 -1.68641e-06 -1.08712e-26)
(0.974422 -0.00497861 9.32429e-23)
(0.958027 -0.0145465 -2.19337e-21)
(0.981594 -0.0179283 -3.29091e-23)
(1.00001 -1.90314e-05 -3.34373e-24)
(0.990662 -0.00408718 6.51195e-22)
(1.04993 -0.00127702 5.74535e-21)
(1.26173 0.0557175 1.06395e-21)
(1.09992 -0.0321062 -3.46949e-22)
(0.999966 -2.2237e-06 -1.35606e-24)
(0.982426 -0.00923267 1.41675e-21)
(1.00309 -0.0250691 4.10891e-22)
(1.00006 -6.33342e-06 -9.89067e-25)
(0.99995 -0.000150672 7.56333e-25)
(0.980378 -0.000486634 -1.14511e-22)
(1.00108 -9.97682e-05 -5.56303e-23)
(1.00037 -0.00337721 -6.39847e-24)
(1.01081 -0.0683063 -3.11703e-22)
(1.00026 -2.43695e-05 -2.34931e-23)
(0.9686 -0.033208 1.546e-21)
(0.985302 -0.00282631 -5.82794e-22)
(0.987275 -0.0024576 4.68181e-22)
(0.9885 -0.006197 1.61912e-22)
(1.00091 -0.00524982 -2.84277e-23)
(0.975801 -0.0185324 1.6877e-21)
(1.00016 -0.000279977 2.05425e-23)
(1.00002 -8.34999e-06 -1.67417e-25)
(1.00319 -0.00328632 1.16592e-22)
(1.05043 0.116712 -3.61077e-21)
(0.972343 0.0327106 2.73262e-20)
(1.00909 0.0321795 5.23881e-21)
(1.01861 -0.0311012 -3.69002e-24)
(0.993186 -0.00861437 -1.55606e-22)
(1.00784 0.0379827 2.80522e-20)
(1.00893 -0.00604172 -1.75153e-21)
(1.00014 -0.000250213 -1.42659e-23)
(1.01629 -0.00087632 -1.30545e-21)
(0.991039 -0.00803034 1.79331e-22)
(1.11421 -0.0121875 -9.23466e-22)
(0.997923 -0.00468316 1.50117e-22)
(1.01991 -0.000488378 -4.18248e-21)
(1.00061 -6.67089e-05 5.62612e-23)
(1.00938 0.0315185 3.54934e-21)
(1.00033 -3.05764e-05 -3.68591e-23)
(0.996729 -0.0046256 5.44847e-23)
(0.987838 -0.00624266 -1.19806e-22)
(1.01195 0.0448571 3.56718e-21)
(1.00016 -6.20726e-06 -3.69831e-23)
(0.990485 -0.0237815 8.38139e-22)
(1.02274 -0.0762694 1.31477e-21)
(1.0563 0.0252625 -5.2969e-21)
(0.996567 -0.0287749 -5.56197e-22)
(0.996685 -0.00425017 1.4014e-22)
(1.11914 -0.0722465 6.04759e-22)
(1.00004 -1.05424e-06 -3.02183e-24)
(1.13581 -0.155891 -4.26393e-22)
(0.997327 -0.0037814 8.55016e-23)
(1.01183 -0.00694104 -1.2493e-21)
(0.992942 -0.0228951 2.81598e-22)
(1.0017 -0.00013801 -2.04498e-22)
(1.17772 0.139363 -6.76832e-21)
(1.0188 0.04437 -8.0313e-21)
(0.965764 0.0595169 1.27493e-20)
(1.02374 0.0309526 1.09044e-21)
(1.06446 0.0651964 3.95626e-21)
(1.1141 -0.0375282 9.82888e-23)
(1.11364 0.172329 -8.08267e-23)
(1.00907 -0.00598603 1.94501e-21)
(1.03751 0.0648204 4.45732e-21)
(1.00163 0.0298551 -1.894e-20)
(1.00031 -0.00340953 -3.1223e-24)
(0.999139 -0.00215416 -4.40876e-23)
(0.977216 0.029546 -2.94966e-20)
(1.00002 -1.32042e-05 -7.20908e-25)
(1.174 -0.149046 1.19624e-21)
(1.25602 0.0725692 1.06661e-22)
(0.988545 -0.0103309 7.3452e-22)
(1.00064 -0.00138198 -6.67796e-24)
(1.02856 -0.0145031 -4.33579e-22)
(0.99912 -0.00100074 -4.71308e-23)
(1.0011 -0.00108182 -1.951e-24)
(0.99063 0.0746859 -6.70282e-21)
(0.931577 0.0592125 1.11083e-20)
(0.99991 -4.92901e-06 -4.35284e-25)
(1.00017 -0.00028012 -2.04523e-23)
(1.05618 -0.0301951 -1.9986e-22)
(1.00007 -0.00169435 1.88858e-24)
(1.26089 -0.0557362 2.13253e-21)
(1.06772 0.113355 -5.60275e-21)
(1.04125 0.0237176 1.09313e-21)
(0.999953 -0.000151644 -2.38762e-24)
(0.993537 -0.0397744 2.33437e-22)
(0.99503 -0.0334723 1.26839e-21)
(1.00035 -3.02541e-05 2.37988e-23)
(1.01034 -0.022234 9.11131e-23)
(1.03129 0.000915446 1.61511e-21)
(0.936803 0.057385 -7.11458e-21)
(1.00004 -0.00176071 -2.17224e-24)
(0.999999 -1.28157e-06 -4.3344e-27)
(1.03768 0.0637682 3.28861e-21)
(1.01008 -0.0219866 1.44772e-22)
(0.999908 -5.79529e-06 -9.82558e-24)
(1.02294 -0.0105414 -2.99025e-22)
(1.00435 -0.00801717 -6.84057e-23)
(0.997896 -0.00277937 -1.39725e-23)
(0.998567 -5.23516e-05 3.99464e-23)
(1.1985 -0.133283 8.578e-22)
(0.989566 -0.00376909 2.65344e-22)
(0.999132 -0.000983871 3.05229e-24)
(0.981538 -0.013215 1.03263e-23)
(1.00017 -0.000270399 2.93949e-23)
(0.999917 -5.35815e-05 5.19497e-24)
(0.999832 -0.0078833 1.10469e-22)
(1.12956 -0.0141987 -6.1752e-23)
(0.999856 -3.92398e-05 4.46358e-24)
(0.985401 -0.00302474 -6.97814e-22)
(1.00047 -0.000648786 6.29985e-24)
(0.996822 -0.0284072 -2.41794e-22)
(1.01181 0.0455048 -4.66794e-21)
(0.999921 -0.000292581 -1.37746e-24)
(0.859367 0.02314 -8.36398e-21)
(1.04844 -0.0522017 3.725e-22)
(0.99713 0.0200643 3.82097e-21)
(1.12672 -0.0148271 3.40476e-22)
(0.999662 -0.000184873 9.08072e-24)
(0.999981 -4.95531e-05 -4.77901e-25)
(0.999722 -0.000202805 -1.78416e-23)
(0.996831 -0.00425754 7.50341e-24)
(1.01632 0.00172342 0)
(0.999582 -0.00653736 7.42577e-23)
(0.990991 -0.000292376 1.39795e-22)
(0.989388 0.0866801 -2.2995e-20)
(0.958993 -0.0163846 -1.92839e-21)
(0.958638 -0.0162221 1.66443e-21)
(1.02582 -0.0238344 3.46342e-22)
(1.04666 -0.0263509 1.26999e-21)
(0.989485 0.0643324 2.32439e-20)
(0.999673 -0.000217832 8.92529e-24)
(0.99075 -0.0238423 1.72698e-22)
(0.988325 -0.0103017 -7.02499e-22)
(1.00013 -0.000123113 1.5198e-23)
(1.01306 -0.0289856 -4.63991e-23)
(1.00047 -0.000623673 -3.06951e-24)
(1.01796 -0.031237 5.95806e-25)
(0.982649 -0.0471341 2.18307e-22)
(0.902854 0.0741083 -1.41911e-20)
(0.967304 -0.0327951 -1.47118e-21)
(0.998635 -0.0015833 2.12186e-23)
(0.987341 -0.00988118 -1.24741e-21)
(1.00365 -0.0147478 2.48523e-24)
(1.07947 -0.0112069 -2.56094e-21)
(1.0207 0.00022468 -6.59469e-22)
(1.00587 -0.0277729 5.2425e-23)
(1.00001 -1.5628e-07 -4.07348e-25)
(1.00292 0.0382593 7.76984e-21)
(0.991508 -0.00453773 -7.16408e-23)
(0.949169 -0.00754928 1.19971e-21)
(0.999292 -0.00616294 5.4647e-23)
(1.02161 -0.0241559 -1.38143e-21)
(0.986586 -0.0308934 1.3598e-21)
(1.00323 -0.00322217 5.11853e-23)
(1.23003 -0.0163722 2.09829e-21)
(0.99947 -2.16012e-05 6.0604e-23)
(1.00889 0.0774348 1.25468e-20)
(0.999601 -0.0114939 -1.27758e-22)
(1.03298 0.00204231 -8.05869e-22)
(0.97219 -0.00488668 1.10144e-21)
(1.01376 -0.00234144 2.04314e-22)
(0.999991 -1.22033e-05 -2.52924e-25)
(0.985411 -0.0264731 -8.34553e-23)
(0.985323 -0.00313693 6.58501e-22)
(0.989732 -0.0219898 8.40811e-22)
(1.02289 -0.0109205 -2.16126e-22)
(1.00984 -0.0688899 -3.2005e-22)
(1.00018 -0.000270394 -3.34052e-23)
(1.00489 -0.119036 -6.32748e-22)
(0.999073 -0.000684581 -1.17644e-22)
(0.999991 -4.45885e-05 1.28126e-25)
(0.999599 -0.00642818 -8.17837e-23)
(1.00015 -0.00028982 8.44205e-24)
(0.934482 0.0566681 9.6699e-21)
(1.00013 -0.000120862 -1.34333e-23)
(1.00838 0.10489 -2.90581e-21)
(0.987086 -0.0104401 -1.97118e-22)
(1.01326 -0.00189558 -3.84189e-22)
(1.00187 -0.0014763 -1.85052e-22)
(1.06161 0.0151887 6.75937e-21)
(1.00259 -0.00381606 -2.17888e-22)
(1.0149 0.0183771 -3.53471e-21)
(1 -2.14346e-06 -2.50493e-26)
(1.01402 -0.0397591 -3.30546e-22)
(0.999176 -0.00314142 4.01005e-23)
(1.0011 -0.0025383 1.02845e-23)
(0.98341 -0.0108417 -3.02681e-22)
(1.00002 -1.09585e-05 1.70043e-24)
(1.17767 -0.00551144 1.61665e-22)
(0.945169 0.12314 3.35262e-21)
(1.25218 0.0728679 -1.5615e-22)
(1.00014 -0.00024366 2.77374e-23)
(1.09215 -0.0883326 -7.82343e-22)
(1.01654 0.00193268 -1.12222e-21)
(0.984416 0.0794453 1.64068e-20)
(1.00004 -0.00287976 -5.73841e-25)
(0.999834 -1.76452e-06 -3.65182e-24)
(1.05492 -0.0296302 -2.75221e-22)
(1.00011 -8.86574e-05 -9.22796e-24)
(0.969477 0.0283889 -6.10667e-21)
(1.00333 -0.0248682 2.45282e-23)
(1.18015 0.153364 -6.973e-23)
(1.06501 0.040455 -7.2241e-21)
(1.0001 -8.14104e-05 7.37589e-24)
(0.978025 -0.0812684 -9.35999e-22)
(1.00706 0.024632 -7.82327e-21)
(0.999917 -5.11863e-05 2.36963e-25)
(1.05581 -0.0208293 2.45761e-21)
(0.997977 0.00744288 1.82219e-20)
(0.998549 -6.62976e-05 3.23816e-23)
(1.00152 -0.00826136 3.76688e-23)
(1.00024 -3.24956e-05 1.77755e-23)
(1.00411 -0.0087843 -1.75305e-22)
(0.987881 -0.0064419 5.47424e-23)
(0.995995 -6.80632e-05 5.08892e-23)
(1.02637 0.107139 -6.44875e-21)
(0.997281 -0.0129544 2.54088e-22)
(0.896677 0.10405 2.51589e-20)
(0.83315 0.0108701 2.30276e-20)
(0.998182 -6.06611e-05 -9.49362e-23)
(1.00003 -0.000264387 -1.31863e-24)
(1.01996 0.102678 -2.70766e-21)
(0.997863 -0.00263424 5.53362e-23)
(0.989382 -0.00257834 1.43129e-22)
(1.00016 -0.000289861 -4.77607e-24)
(1.04305 0.0268386 2.54685e-22)
(0.972415 -0.00488804 -1.57578e-21)
(0.913346 0.0584942 1.76287e-20)
(0.999222 -0.00278463 -5.74355e-23)
(0.999966 -0.000785964 -3.87507e-24)
(0.991525 -0.00464884 2.45578e-22)
(1.26409 0.0321001 2.02508e-21)
(0.993953 -0.0398475 5.10219e-23)
(1.08823 -0.0223747 -2.93187e-22)
(1.03331 -0.024257 -8.64239e-22)
(1.02027 0.00747493 -3.893e-21)
(0.999876 -7.4245e-05 -2.95096e-24)
(1.18743 -0.0483236 -8.68117e-22)
(1.00001 -1.86138e-05 -2.16084e-24)
(1.00101 -0.000886383 1.22974e-22)
(0.999994 -7.87873e-07 6.4958e-26)
(1.1337 -0.152115 -2.46738e-21)
(1.03535 -0.0658239 1.35199e-21)
(1.01738 0.0346382 6.55698e-22)
(0.999985 -1.01016e-06 1.66205e-25)
(0.966798 0.0577883 -3.39815e-20)
(0.999742 -7.7423e-05 1.09673e-23)
(1.01337 -0.0287155 -4.49439e-23)
(0.999605 -0.00021129 3.09014e-23)
(0.957534 -0.0247033 7.4497e-23)
(0.993747 -0.0102601 -6.80686e-22)
(1.07608 0.0118599 2.96415e-21)
(0.999913 -6.27355e-06 1.30377e-23)
(1.00976 -0.0456781 -6.48597e-22)
(1.01087 -0.0221078 3.06776e-23)
(0.993158 -0.00927453 -5.85558e-22)
(0.999987 -4.82049e-05 1.5602e-25)
(0.999951 -0.000779274 -2.82274e-24)
(0.99986 -6.26295e-06 1.58243e-24)
(0.982085 -0.0311752 -9.53116e-22)
(1.00107 -0.00211344 5.33895e-23)
(0.999266 -0.000431156 -2.83341e-24)
(0.980085 -0.000156754 9.49463e-22)
(1.00006 -0.000132082 -9.97826e-26)
(1.00019 -0.000262392 2.68043e-23)
(1.00351 -0.0130024 3.75145e-23)
(0.999667 -0.000186234 5.35718e-24)
(1.00843 0.0377898 -1.23948e-20)
(1.03971 -0.00417459 4.91509e-21)
(1.26737 -0.0122801 1.47918e-22)
(0.983922 -0.000476841 -1.22628e-22)
(1.00524 -0.0561464 8.79004e-22)
(0.999992 -7.09487e-07 -9.74898e-26)
(1.12167 -0.0733666 -7.28953e-22)
(0.982142 -0.0469981 -9.06e-22)
(1.00022 -3.21541e-05 2.67036e-23)
(0.981785 -0.0182408 -4.17873e-22)
(0.999101 -0.00290973 -4.46781e-23)
(0.977801 -0.0128943 4.87664e-22)
(1.09079 -0.126067 -6.94414e-22)
(1.00032 -3.07467e-05 -2.75202e-23)
(1.01686 -0.0355289 3.1515e-22)
(0.999991 -4.60723e-05 -4.64283e-25)
(0.996658 -0.00399448 -9.00265e-23)
(0.999756 -7.9341e-05 1.04211e-24)
(1.03532 0.0571219 -5.9551e-22)
(0.995092 -0.00120218 -2.56002e-22)
(1.00009 -0.00015808 -2.40632e-25)
(0.99989 -5.12848e-05 4.73063e-24)
(1.01574 -0.00751356 1.23328e-21)
(0.973436 -0.0257805 1.44046e-22)
(0.997893 -0.00266321 -8.82919e-23)
(0.999985 -0.00081543 -8.66116e-24)
(1.02529 0.108355 -7.89622e-22)
(1.00224 0.0589412 4.97561e-21)
(1.00113 -0.00251053 3.11896e-23)
(1.16926 0.104103 -9.85566e-23)
(1.07426 -0.0945553 2.05832e-21)
(0.959517 -0.0268309 6.22455e-22)
(1.00003 -0.00026053 5.22023e-24)
(0.999992 -3.32967e-07 3.53764e-25)
(1.05132 0.115016 4.62708e-21)
(0.978174 -0.0110114 1.4923e-22)
(1.00006 -0.000131787 -4.35813e-24)
(1.17036 0.0503405 1.92789e-21)
(0.999408 -0.000337474 3.75306e-23)
(0.999992 -3.9333e-06 6.57134e-25)
(1.0577 -0.00506815 4.63358e-22)
(0.986703 -0.060313 -3.35388e-22)
(0.967729 -0.0327246 1.96026e-21)
(0.955784 -0.0241263 2.69742e-22)
(0.992144 -0.0213078 -6.13866e-22)
(0.995782 -0.000143726 8.92848e-23)
(0.989493 -0.0026869 -1.14834e-21)
(1.00054 -0.00631626 -6.98579e-24)
(1.05438 0.0429252 -3.61565e-21)
(0.999855 -0.000413993 -5.85807e-24)