/*--------------------------------*- C++ -*----------------------------------*\
  =========                 |
  \\      /  F ield         | OpenFOAM: The Open Source CFD Toolbox
   \\    /   O peration     | Website:  https://openfoam.org
    \\  /    A nd           | Version:  7
     \\/     M anipulation  |
\*---------------------------------------------------------------------------*/
FoamFile
{
    version     2.0;
    format      ascii;
    class       surfaceScalarField;
    location    "12.5";
    object      phi;
}
// * * * * * * * * * * * * * * * * * * * * * * * * * * * * * * * * * * * * * //

dimensions      [0 3 -1 0 0 0 0];

internalField   nonuniform List<scalar> 
11512
(
149.853
-503.405
353.552
-757.681
-3.42146
761.102
411.43
-374.464
-36.9661
634.145
270.846
-904.991
1510.77
-1069.43
-441.332
1216.28
-1527.12
310.842
-57.8109
476.305
-418.494
168.922
-841.898
672.976
962.057
-1610.79
648.736
-1761.46
1668.78
92.6738
-542.947
1759.22
-1140.97
1934.8
-793.836
607.331
181.28
-788.61
-24.8243
-1315.05
1339.87
220.871
-1982.33
1023.62
-383.492
-640.132
-178.224
328.076
484.751
190.68
-675.431
1155.47
-1314.07
158.603
-316.069
378.76
-62.6913
1003.63
-1314.66
311.032
1221.6
799.488
-2021.08
72.8655
-1640.82
1567.95
-473.76
-1171.37
1645.13
475.48
182.057
-657.537
-192.767
-310.638
497.957
1012.81
1647.94
-1805.36
157.417
-89.8393
-1691.87
1781.71
-1559.65
652.922
906.73
-308.968
653.596
-344.628
-193.934
-137.857
331.791
1285.09
-1212.23
355.249
-1407.36
1052.11
-1754.29
1754.29
100.435
1531.91
-1632.34
-1080.28
-479.377
641.268
-699.079
-385.449
941.88
-556.431
1331.86
-1317.25
-14.6084
-1100.55
715.099
625.899
397.724
-394.82
-33.8344
428.655
-445.783
774.654
-328.871
-1618.44
1618.44
1253.57
-1437.87
184.307
-488.76
1710.36
1254.94
-313.063
1660.73
-1161.24
-499.498
73.5855
-389.655
2065.82
-1135.41
-930.415
1813.6
-165.655
454.125
156.203
-610.328
-460.51
973.266
-512.757
-1170.58
1271.02
-567.823
970.533
-402.71
400.333
755.133
661.142
-492.22
-438.388
593.521
-155.134
1190.64
-835.395
2308.21
-1080.68
-1227.53
1163.89
-2009.35
845.459
-1602.66
1577.84
440.662
-1581.63
-758.99
1250.6
-491.609
-672.517
363.549
1661.45
-699.395
-1106.93
-870.897
1977.83
678.363
-366.316
-312.047
690.094
564.849
-258.21
1511.78
109.36
-316.68
207.32
-284.888
760.368
-334.372
563.659
-229.286
-324.559
809.31
-319.537
-145.629
465.166
324.62
86.8096
1458.35
-454.719
-979.726
484.471
495.255
273.612
93.6
-367.212
948.792
-341.461
-1701.62
648.925
1052.7
17.2264
-855
837.774
-279.044
593.89
-314.846
157.494
-1093.87
936.373
1051.27
-1066.86
15.5864
373.099
518.22
-891.319
-245.499
699.624
-1103.51
-482.303
1585.81
-677.741
950.568
-272.827
1357.54
-1447.38
-633.705
278.305
355.4
-470.198
-1011.53
1481.73
-538.405
-794.454
1332.86
575.921
-996.025
420.103
-264.261
-316.099
580.36
405.979
-296.619
-1040.05
579.539
955.489
-797.996
-110.353
943.882
-833.529
-206.826
415.435
-208.608
-627.346
-352.38
-386.744
962.665
1856.37
-1856.37
-467.688
-166.017
-952.241
1558.54
-606.294
478.652
-914.894
436.242
-923.312
355.489
-941.908
-1058.08
-1491.5
345.516
1145.99
-280.493
914.638
-315.83
618.675
-302.845
-1941.9
999.992
-1140.53
-350.976
551.838
-1504.08
1728.51
-1725.74
-2.76538
207.428
-604.555
397.128
-1459.77
975.082
484.688
284.726
216.921
-501.647
308.429
-642.801
238.931
-414.438
175.507
2016.54
-860.947
-1155.59
-548.525
153.704
617.047
835.961
-1453.01
-184.023
422.954
431.411
876.59
-1308
-906.812
391.932
514.88
-1047.35
1447.68
-1068.6
309.606
750.645
-97.0492
550.419
-287.489
-262.93
1005.62
-521.147
593.375
-1403.82
810.44
-1342.25
238.739
-544.943
265.899
-1185.01
904.515
1942.57
-992.522
-950.044
276.801
1579.57
-2095.51
895.656
1199.85
361.19
-32.4677
-328.722
-223.633
481.128
-257.495
-106.3
-383.391
489.691
-464.833
145.296
340.025
-130.512
609.165
418.625
383.475
-802.1
-2039.09
1115.68
923.412
461.849
-530.427
68.5777
220.314
-361.651
141.338
1012.33
1004.21
1784.36
-252.452
723.878
-445.573
796.457
-1389.58
593.124
346.39
331.974
1052.81
-1035.59
-500.395
-234.037
734.432
475.158
-133.165
-341.992
796.777
-615.497
560.837
-733.7
172.863
503.331
1157.4
-1240.23
701.822
1044.1
-1517.86
-3.12729
-1439.43
1442.55
326.121
824.134
-1150.26
622.832
269.944
-892.775
-2271.31
1145.51
1125.8
-1110.98
-1160.33
194.685
366.152
958.872
-632.75
878.806
-898.561
19.7544
-2099.39
992.456
-222.51
-188.54
411.049
-41.8674
1770.38
-829.722
72.0417
-1028.85
-1066.66
-229.085
449.398
-669.481
201.794
-268.269
-426.724
694.993
1104
-1574.2
782.873
-1374.39
591.52
696.454
-425.608
1947.85
-1444.52
-378.286
-1376.01
74.8525
401.452
-531.478
528.057
15.6041
-573.055
557.451
570.498
-285.772
-602.951
278.177
324.774
782.952
-364.327
34.4874
326.702
1188.47
-1191.6
173.615
232.364
395.208
-663.477
619.253
-1006
-2026.73
2026.73
-254.396
-449.408
703.804
699.076
405.864
-1104.94
579.93
170.715
404.811
378.14
-2199.76
1328.86
-926.412
-679.34
1605.75
-488.396
-696.612
-260.92
550.439
-289.519
830.528
-196.084
-634.443
-440.862
648.29
369.574
-685.404
-359.431
-132.871
492.301
-1329.55
-475.806
627.229
-1115.62
-374.147
-1244.29
844.339
1463.87
302.367
-921.607
619.24
966.751
-340.852
1391.35
-797.975
444.263
-270.648
-326.882
-874.894
568.361
306.532
-330.133
-544.761
311.509
-417.809
-202.438
-156.106
358.545
-392.779
1091.85
434.675
-243.995
-390.849
1352.43
-169.922
-1182.51
-472.139
282.379
189.76
230.256
251.729
-481.985
13.5189
-747.219
592.127
-1729.03
1136.91
1483.26
-866.215
-1050.04
-409.727
-1056.89
573.832
483.059
1379.68
-404.603
929.076
-1411.38
-167.733
-196.652
364.385
-468.799
580.366
-1627.72
427.918
903.941
279.328
301.18
-580.508
568.055
1186.24
1103.86
-713.427
-390.428
401.617
-213.693
-187.924
-1419.45
445.68
737.819
-1183.5
1473.34
-544.263
-491.432
928.957
-437.525
426.152
1186.15
-1612.3
47.3848
-725.125
-148.504
422.116
205.287
-399.222
530.839
474.778
-611.196
51.6996
559.496
1024.53
-1307.66
283.132
666.119
-261.307
468.313
-1447.23
978.92
407.231
1687.1
-523.211
899.812
1042.75
-661.147
-1684.68
758.27
565.097
398.812
-963.908
454.807
78.8979
1750
-1828.9
1443.7
-379.491
-1064.21
1699.14
-1741.01
-366.797
-523.404
722.597
-199.193
-502.592
180.518
294.64
-373.193
-1225.97
214.437
-764.65
-639.166
-648.535
999.653
-351.119
-652.584
642.516
10.0676
654.948
-923.583
268.635
-726.028
360.686
365.342
-648.186
-689.918
353.057
336.861
-932.251
1400.56
-416.972
887.359
-470.386
-2205.31
5.55739
177.549
-535.424
357.874
142.347
1210.08
-97.721
-571.76
157.381
-595.768
1487.12
-704.249
381.462
-466.183
84.7202
-563.841
563.841
1223.01
395.424
1778.04
-1228.6
589.525
639.074
848.738
-51.9607
1291.87
773.954
-540.402
1336.86
294.522
299.368
275.521
-798.924
239.747
-685.53
229.209
-442.163
212.954
-239.068
580.982
-341.914
123.949
-363.017
-591.689
-564.627
1156.32
-369.947
536.248
-166.301
-1192.15
2032.04
-839.884
1289.41
-330.538
-400.18
135.919
-1982.97
811.609
1531.71
-847.953
-683.76
1986.99
-877.451
-1109.54
713.896
575.514
-240.636
469.846
-676.841
1142.08
-465.237
-769.811
1201.22
551.69
924.635
-1725.29
800.653
-545.132
-74.1169
619.249
296.959
253.46
413.848
-99.9842
-313.863
896.639
-83.5034
-813.136
917.174
-560.82
-356.353
1576.18
-472.181
890.442
-1627.44
736.997
1068.47
879.387
749.11
-441.448
-307.661
-1058.96
-258.295
562.966
578.692
-1141.66
-459.264
507.191
-47.9269
576.585
-342.38
-234.205
-984.98
568.008
595.632
887.63
-441.808
1096.76
1414.05
-778.227
-635.819
394.949
-924.951
530.002
-1023.62
396.278
551.937
-1043.37
456.419
-527.023
70.6037
472.484
302.169
-515.067
-48.7739
-794.316
-878.989
1673.3
190.029
211.588
-226.189
420.874
-29.5958
-553.355
582.951
493.473
868.395
-1361.87
-516.273
313.835
985.564
-88.9246
836.023
-1064.7
228.675
395.007
845.933
-1386.33
-450.138
833.613
1978.87
-1285.05
-693.82
269.858
608.949
255.75
795.525
83.3378
-966.276
882.939
1673.73
-1089.01
-584.723
-137.932
1887.94
-1866.08
-160.653
483.102
-621.277
138.174
-1013.64
527.178
486.464
-1730.47
538.317
-955.712
845.359
392.795
200.726
582.331
-279.964
-422.013
710.21
256.541
65.2183
715.718
-780.937
-1139.05
-889.021
2028.07
-538.982
1102.7
-563.714
-467.668
-329.998
107.488
-1655.48
861.166
-864.735
-598.943
1463.68
-330.71
-294.957
625.667
360.34
-649.462
289.122
243.895
-608.222
318.425
205.7
-524.125
345.906
-606.826
621.184
-260.844
315.668
-461.297
676.713
409.81
-179.554
-387.455
-302.463
1220.66
-2.89488
-1217.77
1039.43
-420.181
559.739
410.794
-1782.34
869.819
912.526
492.264
550.33
-1042.59
-534.172
203.462
-263.394
1181.21
-917.814
-1590.86
1212.57
504.649
-1096.34
387.74
-6.27768
428.481
302.881
-731.362
371.02
-616.519
-33.3688
757.166
-723.797
-525.588
795.532
385.696
321.863
526.875
653.231
89.7057
-402.295
312.589
1058.61
-644.964
-413.649
494.026
-1664.27
1170.24
-1140.38
1753.24
-612.857
1715.84
-1123.71
-334.689
612.867
-1183.64
1266.98
424.979
-798.315
1604.4
-806.081
-258.448
-213.691
-895.163
1470.81
1813.54
-611.112
-1202.43
-405.092
654.12
-1302.65
-124.715
-45.6355
459.483
-681.551
-354.178
-1236.68
-220.835
464.73
903.206
-561.809
178.418
-1674.67
-71.2453
1745.92
-1065.58
526.598
568.646
-1183.49
614.846
901.179
912.364
630.649
619.95
686.101
242.856
-1136
459.159
-401.16
416.764
619.23
-514.704
244.733
-733.522
488.789
690.952
-344.563
-322.153
184.296
-601.098
237.047
364.051
-887.515
-739.924
1087.67
-2145.75
398.124
-683.012
-342.885
-723.976
834.857
579.189
-346.265
312.431
370.231
219.182
649.551
-868.733
528.571
613.507
-534.888
175.457
361.42
-615.816
-1049.96
-844.405
1894.36
-1798.06
157.242
1107.01
-1370.4
1160.06
-725.027
-435.038
-503.913
1349.85
-1495.5
627.899
867.601
-285.946
-210.01
495.956
1428.41
558.572
340.448
-473.318
-483.692
-568.576
1052.27
-421.282
598.831
1582.65
-1129.73
-452.92
-776.536
327.127
654.731
403.882
-1623.42
416.171
1207.25
-193.726
512.151
797.781
784.869
197.875
-685.474
487.599
204.042
211.393
-286.378
-110.138
396.516
485.447
1.24302
-486.69
-1637.87
587.832
-1606.74
1672.88
-66.1399
10.9354
-1617.68
1069.55
762.98
-334.499
-809.865
-213.759
-1134.58
-239.812
-312.283
683.302
-1812.6
-630.311
1209
213.918
759.348
-1330.76
-678.588
-465.658
610.683
-331.356
-1013.27
1350.78
-1932.91
582.13
646.549
1288.25
483.806
-2.67821
717.966
705.269
-1423.24
-638.94
334.427
304.513
438.507
-100.469
-338.039
149.542
299.746
161.891
-461.637
-585.233
1150.33
463.453
-625.566
-461.166
-401.936
863.102
-331.97
164.237
-458.598
161.979
-304
-709.643
545.385
-106.877
-572.921
967.87
576.464
-268.894
-307.57
454.788
-779.347
-647.054
442.889
-1129.4
-837.827
1183.34
-569.771
454.473
279.958
-452.823
86.5062
1028.46
-315.372
591.686
-276.314
-509.041
1578.59
-689.293
238.734
375.57
-614.305
217.848
482.856
-24.9397
-457.917
-258.972
-199.626
1007.48
1108.9
564.831
-875.073
942.64
-67.5662
-454.246
168.301
-732.385
305.66
-597.677
323.633
367.32
826.083
-1236.03
409.949
777.277
-810.645
-948.913
-550.386
1499.3
-163.42
464.6
-543.376
255.887
1303.04
775.406
-577.531
1315.15
-687.918
487.626
-675.981
-410.728
-422.632
-378.679
801.311
501.998
-843.459
-453.279
90.0749
363.204
-318.846
572.442
728.27
-330.146
-239.452
-175.801
415.253
-492.49
140.478
352.012
1458.99
81.2857
-1540.27
-752.025
1347.66
-1144.77
-466.025
542.152
-166.582
1151.5
-374.22
1083.47
492.711
697.77
-422.249
-884.968
-522.395
-1328.4
-25.2609
985.426
-960.165
597.532
330.002
-927.534
-331.1
-217.425
-682
405.528
1621.21
-179.003
371.945
347.714
-719.659
-1839.77
-2106.69
1519.14
587.545
-2038.97
347.098
363.064
536.787
-899.851
-460.391
1020.13
-395.381
-673.37
1068.75
-2030.54
1391.21
639.33
599.628
-995.009
45.6835
410.736
386.679
194.883
249.38
319.436
962.691
866.79
679.158
-324.448
-354.71
-292.178
620.46
-328.282
572.605
531.25
565.083
514.789
-1079.87
-796.169
-699.331
752.303
399.194
-416.19
705.312
-1193.4
1609.58
420.357
-1093.73
-334.018
539.719
-1384.58
873.83
510.753
-715.644
-349.59
-785.263
356.111
429.151
447.172
718.061
-1165.23
1072.67
-580.403
-407.453
662.621
-255.168
252.792
323.672
-467.568
-432.268
899.837
-236.277
560.269
-953.802
393.533
-464.574
600.599
-1681.27
423.85
670.761
-1094.61
523.075
95.5999
113.409
-2212.79
541.367
-86.8941
1444.33
1777.09
-217.551
-1559.54
-438.466
1789.25
-1987.07
1194.51
792.553
401.492
347.618
-37.2101
872.067
-1283.19
718.568
-869.505
-822.984
797.724
306.572
62.9106
-369.482
226.132
179.995
-406.127
1555.05
-837.085
-1530.93
-325.432
486.021
-209.946
-276.074
393.784
366.584
247.936
362.748
-9.63422
1002.2
-992.564
378.316
279.403
-657.719
-734.091
1817.34
-1083.25
-342.962
736.746
-1219.3
-413.042
-915.166
482.898
575.043
-782.836
207.793
760.975
-379.491
-381.484
-428.335
-446.738
449.484
1080.51
1238.63
-669.988
800.601
-345.813
386.479
317.326
-246.378
-219.805
-208.845
616.076
408.215
-847.221
439.007
217.287
355.263
-572.551
-421.922
830.137
754.412
-1147.19
886.793
-60.7102
-489.718
276.603
776.209
-96.0195
1384.27
1890.5
-62.4944
344.873
-320.5
410.206
-1086.69
1077.05
626.252
376.604
384.371
71.1675
414.853
263.721
497.381
-373.767
-265.172
-562.955
-89.6282
-362.839
366.75
-3.91138
-258.164
-286.78
1010.96
-1540.71
529.749
-192.607
-181.856
-387.799
667.202
-1636.14
1591.01
-963.11
261.363
-672.09
584.321
1224.42
-1808.74
607.423
983.586
307.194
-1122.57
700.553
-288.896
-291.611
1378.08
-1447.55
828.244
619.303
422.876
-628.908
206.032
-371.832
479.334
-107.502
376.096
109.351
1724.12
456.913
-252.871
557.639
-1704.79
1147.15
-94.8497
396.04
343.316
335.842
-448.632
-615.339
1063.97
417.143
-867.281
-640.848
902.753
570.586
-488.728
-237.3
-437.963
-409.258
-307.398
-827.183
1821.1
-1821.1
-104.16
-1591.85
1696.01
295.148
281.437
-917.136
-555.438
1472.57
-408.221
973.303
-596.891
-1040.98
688.583
391.322
-1079.9
475.102
-159.434
573.066
1220.35
-1793.41
-1046.06
2115.48
-1069.42
-376.631
-295.887
-490.993
818.121
-1753.32
1602.41
150.918
1753.32
-1606.96
-146.36
-243.68
522.723
-279.043
-537.294
1620.77
1565.96
-1979.01
1084.86
-291.183
-256.577
547.76
236.339
-570.357
-702.191
286.001
1342.05
636.814
581.896
482.702
-1064.6
277.85
419.919
875.356
500.114
-1375.47
535.286
-1018.98
1574.96
-563.998
-776.872
-366.421
-122.847
489.267
-490.124
1208.19
-742.278
332.054
367.57
368.312
252.173
-620.485
604.651
831.838
-603.163
264.174
678.466
-488.728
-326.779
-232.133
558.912
1168.51
-674.258
609.251
466.807
-1076.06
-1286.71
1286.71
-385.308
761.912
-282.328
-478.985
761.312
491.455
445.288
-936.742
391.904
-674.232
609.804
-869.902
260.098
-367.507
-493.208
1075.1
-661.054
-711.055
1372.11
-376.704
936.972
-1552.73
675.276
33.4705
-415.468
381.998
-511.226
713.02
255.098
325.884
167.569
307.533
-521.552
232.655
1869.82
-1965.84
266.194
-707.056
452.288
-823.615
371.327
-916.007
1416.02
-500.008
-430.092
-485.074
600.773
1124.19
-1724.96
-715.516
338.886
-461.792
1034.4
-781.481
1045.65
-376.902
-626.867
-489.326
729.073
539.444
-357.387
908.598
-308.365
-184.125
1599.03
-1816.58
-346.543
-607.259
-339.745
480.223
262.511
-593.867
-178.222
1064.14
-787.533
208.619
-290.712
-281.308
572.02
393.745
-881.395
487.651
-484.317
-454.386
-921.607
-348.896
578.045
-229.149
-452.173
-429.351
-335.073
-189.052
-392.375
644.548
-448.39
765.716
-1072.51
623.881
-1409.07
544.339
-28.1335
-1836.61
1864.74
569.986
-449.962
1218.73
-692.131
305.067
-305.067
671.805
-441.808
1041.53
-1638.42
-1158.74
-947.954
291.006
329.454
888.266
716.129
-496.934
-302.858
799.792
1658.63
-1686.76
-434.092
344.744
225.754
1135.17
-525.921
-943.336
1550.48
-607.147
444.459
-249.576
379.987
384.965
-764.951
533.919
471.565
-1005.48
-331.802
663.856
-37.9686
1907.79
1593.37
992.706
-1696.95
726.928
-1176.97
450.041
-492.484
1367.84
837.371
-1341.28
-560.256
269.073
800.875
-402.063
551.657
-1190.16
638.501
-636.731
-1215.53
-695.669
1911.2
-196.484
550.857
-354.373
-173.145
303.901
-500.385
330.874
369.223
-700.097
-1485.06
757.3
727.759
884.048
-1434.43
824.463
-432.531
214.352
-362.856
-592.706
265.927
-646.822
-737.761
698.318
506.591
-1204.91
389.704
-205.628
-184.077
555.451
-958.161
-570.164
-427.951
733.612
-831.307
-1155.76
-1437.96
499.676
938.285
11.3213
-637.39
340.589
296.802
-1316.28
1047.31
268.97
-616.221
-456.291
-665.772
921.522
400.786
-198.978
-201.808
508.273
980.586
-1488.86
979.207
-561.814
166.234
395.58
-402.849
676.129
-409.935
-509.064
169.32
234.304
-1519.35
529.639
543.028
-755.538
244.312
150.746
-459.111
368.068
-822.455
1954.16
-1195.39
-758.772
418.084
-676.165
258.081
322.865
330.344
117.337
-447.681
-571.029
191.729
265.184
-691.757
1374.31
-682.549
424.095
465.551
-1181.19
264.56
1866.77
-1013.59
-853.185
784.647
-531.853
182.957
1402.35
-975.162
-427.191
332.872
-774.681
-616.536
1725.44
610.893
627.741
324.854
-18.2824
268.676
-1138.4
1725.72
-587.317
-1763.53
820.197
1758.13
-1688.5
-69.6362
-662.682
261.522
570.345
-716.073
226.747
1402.7
-565.328
388.139
445.474
-1858.63
1420.16
551.732
-432.406
-119.326
206.739
-541.812
-283.953
-183.715
-351.5
694.816
-581.429
215.008
612.019
551.06
-1163.08
1113.59
-1947.52
833.932
159.608
332.694
-1699.4
1661.43
314.285
-736.534
-168.127
382.479
756.224
679.762
-1435.99
1077.6
-1080.5
526.227
-1106.63
-629.246
251.346
377.9
526.299
-289.252
-606.294
-1032.13
294.247
-723.598
-912.32
179.025
160.952
228.752
392.738
292.667
-685.405
-631.834
-834.126
-978.476
490.643
-1061.67
-294.726
484.486
534.97
648.373
-278.684
-121.496
-412.591
719.785
270.246
-1200.54
568.701
1310.15
-553.925
443.882
-1014.05
-385.561
157.125
394.607
1023.3
551.659
-1717.01
1612.85
1632.27
-566.504
-1065.77
1904.23
-1892.93
-11.2951
208.874
-529.374
-348.28
556.899
-767.746
-323.882
-338.799
1025.98
701.24
-1505.45
804.215
333.307
-26.1883
1625.21
-1086.29
412.027
-1240.52
463.652
-60.6355
1519.62
1197.31
-470.378
-487.798
-74.0163
-267.446
736.039
-1951.57
-709.637
354.931
-535.412
180.481
191.051
-506.423
1139.93
671.578
-1811.5
-611.287
178.881
941.908
-1497.35
-210.515
678.852
-468.337
881.926
1118.07
-739.601
1350.49
609.419
-487.005
-122.414
-345.811
1174.06
1044.67
-1981.13
936.463
-1173.96
543.648
1488.78
-586.032
-384.478
-150.41
-1242.86
572.871
1162.43
-109.735
946.152
775.69
-1721.84
-206.878
578.603
-1541.74
963.142
487.005
916.577
-1403.58
622.15
586.853
393.121
-1106.63
590.555
1108.78
1215.65
-452.266
-763.38
-1186.2
-1754.94
-7.08267
-1709.92
-203.969
-424.939
1608.5
-629.98
-978.522
-490.847
1121.5
-1318.96
635.914
683.043
-1362.49
1443.78
-1331.65
592.052
1520.51
-390.696
-572.478
188
-1482.51
233.729
176.384
228.282
381.137
438.798
399.332
-838.13
506.382
-938.96
900.585
-1444.85
-699.703
233.894
465.808
-1045.28
460.047
-477.235
865.374
697.021
24.9009
-527.652
173.279
-886.567
-1318.75
-714.643
348.656
365.986
402.18
-723.28
321.1
-477.371
-189.381
-709.18
720.987
1539.78
-593.628
816.683
738.369
1344.74
-844.63
-971.189
-570.556
-796.438
428.505
367.933
-1036.4
-641.62
302.781
338.839
-1433.69
-296.78
-790.066
397.19
392.876
-652.36
404.359
248.001
-679.694
269.759
412.843
486.994
389.973
440.164
478.476
384.626
596.276
-969.469
682.072
468.258
453.105
356.384
-809.489
1630.75
-1079.87
-550.881
-504.64
-286.356
-1029.93
453.486
347.824
409.721
593.742
-1003.46
-1381.86
751.881
-532.489
1147.33
358.407
-58.6608
412.418
-865.031
452.613
-1896.19
304.342
440.786
-725.686
284.9
-189.21
403.898
-214.688
-662.062
305.593
356.469
-673.405
318.695
371.012
390.9
612.493
-1020.71
752.898
662.581
-1415.48
438.828
625.143
339.007
392.651
-731.658
408.336
328.41
603.514
673.989
406.52
596.312
-1023.42
427.104
-1671.95
1192.51
479.445
1696.58
-539.178
620.353
-1147.37
527.013
-641.978
347.021
437.516
-934.829
497.313
753.871
-450.99
351.166
343.65
571.296
-917.839
652.119
-1253.17
601.053
375.796
734.513
-1224.64
769.311
509.715
-1279.03
486.372
406.379
-892.751
-501.704
-936.258
-300.084
630.958
352.605
541.5
-894.104
331.846
332.01
-502.184
1944.74
436.686
-846.749
410.062
-917.77
-807.518
-748.01
366.526
-1220.18
438.697
-1735.08
1606.96
128.117
1747.4
-1602.41
-144.99
-783.776
-591.719
264.22
327.499
-1758.13
1979.01
538.69
791.316
-1330.01
440.136
716.18
690.155
385.633
-1075.79
-69.5444
1617.15
-593.852
385.744
832.985
-648.402
325.527
322.874
-378.801
-297.294
550.086
-219.053
435.974
279.491
-664.799
385.308
263.021
-577.867
-281.559
442.66
-1033.28
590.616
538.054
1092.7
366.046
596.619
310.827
351.802
-662.629
1625.03
-923.794
1692.09
-1520.75
-171.342
-328.698
-822.797
413.539
857.429
-1067.94
-606.042
277.76
-1090.58
1628.63
-1586.18
-78.3271
1664.51
-341.823
-350.614
-370.624
538.073
597.099
-503.228
-27.1988
-549.848
505.108
-284.076
-221.032
1749.47
-1299.99
-624.085
297.892
326.193
403.929
357.302
734.553
-294.631
-399.354
-1747.4
1686.76
459.651
-1100.8
641.149
-43.2264
1656.07
571.139
476.383
-1047.52
103.888
1144.71
-1452.11
-14.6352
-1881.55
226.065
-597.727
307.401
290.326
-955.22
612.335
-897.938
467.846
-1128.44
673.243
455.202
369.73
268.757
-765.691
-312.677
1216.97
886.624
699.189
-1182.88
456.162
726.714
494.472
700.57
-1195.04
-361.212
-249.167
410.12
-960.411
438.743
521.668
21.2399
-1879.87
1080.94
-471.137
-499.213
558.364
-1378.21
819.844
-428.327
799.653
-405.695
498.55
-713.288
1720.77
410.03
-181.278
214.913
-167.291
-247.181
414.472
1895.33
-504.119
-1693.57
1051.32
-600.22
302.927
-1013.56
553.166
-313.307
544.35
905.201
-1449.55
-1103.6
437.829
-20.8511
-1944.99
1712.77
-668.1
-540.171
460.789
-1190.42
729.634
193.932
206.853
-280.832
770.729
700.08
837.731
817.763
-461.379
1084.79
-478.1
476.902
-191.297
-285.605
-1923.57
-713.825
-318.236
-642.52
-6.56029
649.081
464.971
-273.242
565.486
1059.55
-805.297
924.51
1244.23
-425.607
-189.756
-232.747
422.503
953.942
-888.464
-323.412
-1067.71
611.422
1558.46
-801.164
537.721
934.853
-394.474
736.726
-342.252
1130.29
-275.394
334.046
1349.68
-706.363
-218.588
448.322
-1198.57
750.244
-994.268
-112.478
1106.75
441.278
-955.496
514.218
175.718
732.423
483.222
743.711
-94.1595
852.581
-426.024
1182.39
-796.761
552.244
-1465.47
913.229
-1216.65
1800.97
-431.71
-1510.19
879.565
-1401.96
-310.907
-420.454
1457.21
-1524.59
784.668
1491.47
199.864
277.037
-358.318
-1735.08
-292.665
-1010.6
1576.09
-1768.32
1768.32
1565.96
-1004.46
-633.741
-341.774
368.412
604.891
-371.463
-366.092
-1389.8
897.319
1125.13
600.595
1202.66
1789.48
-1216.42
-613.683
273.674
1659.06
-1916.56
257.493
814.817
-1267.74
1545.22
-561.638
783.737
318.959
-343.005
555.043
794.804
667.737
1360.34
-226.165
-445.325
-363.618
496.278
-340.075
471.855
736.33
-301.554
-146.127
-333.184
570.126
-236.942
30.0298
-372.409
1107.42
-1720.28
-439.855
-489.582
-569.461
864.185
694.279
-1596.46
904.708
-451.931
-622.899
-514.254
1252.07
337.765
1723.74
-1702.5
-1658.63
1892.93
-1560.78
840.232
720.545
-374.728
-1796.84
917.847
583.405
819.295
-395.024
1794.37
-680.785
-414.949
680.572
430.989
-1111.56
-1101.06
444.154
753.151
-1617.17
473.226
901.08
173.759
-399.758
225.999
-1597.37
-384.957
-431.853
990.258
-674.158
1442.92
-972.808
1854.73
242.74
-542.57
495.724
-295.859
474.329
893.511
543.189
977.322
-463.098
-427.97
574.079
883.13
-1392.7
-40.9902
1574.45
-836.085
519.96
971.511
-1475.83
-1115.9
1772.81
-1243.27
-529.542
1206.12
-319.116
-887.007
-189.351
452.815
-263.464
-457.418
-251.433
429.428
-177.994
143.153
-392.32
1731.73
-1738.81
-460.396
-530.862
-903.572
442.222
-203.717
-238.504
633.701
-457.992
-360.461
-314.205
674.666
-931.527
386.767
-1167.21
676.367
416.499
-636.853
-440.828
1577.11
-860.98
530.19
-458.106
-570.538
-462.738
362.13
-351.609
-10.5209
-1104.15
412.021
-664.834
-1033.62
1698.46
-601.397
-1423.96
712.904
562.241
-1596.27
1034.02
-389.521
-478.95
150.72
535.381
-1258.48
744.223
539.24
1005.98
-2133.18
999.987
1133.19
-362.787
410.255
-385.004
-25.2512
1478.04
-371.067
449.592
1205.07
582.342
906.442
567.403
527.682
-1095.09
162.938
-442.287
-1688.5
256.371
1127.55
-615.986
518.538
1013.71
-1532.24
1092.84
-1643.72
190.791
696.002
548.798
-872.21
-1086.45
-169.698
426.275
-256.577
-586.808
-430.931
-636.813
-626.826
345.994
-1619.01
939.674
-476.919
216.158
-397.436
533.828
-307.763
-607.667
1197.15
-1277.12
924.685
352.436
-1027.19
-368.044
-758.781
-825.674
1689.86
-477.097
1794.87
-1583.78
-211.095
-1556.62
1018.7
537.924
-726.906
-257.418
439.852
-182.433
-593.415
384.476
272.726
-657.202
-524.067
989.845
629.518
-351.758
-1620.26
1050.49
571.783
1103.52
-1675.31
-415.159
-290.937
-371.125
-745.947
-472.956
-331.864
499.433
1558
-995.754
-774.964
1497.46
661.203
-316.458
725.882
1152.36
-1878.24
290.282
306.741
-487.296
-1932.7
1720.25
212.456
738.077
-475.206
-262.871
531.844
1060.81
-1592.65
362.13
-1724.56
-233.211
1752.36
-1580.68
1073.76
506.92
-1724.96
0.400675
-521.799
410.255
1699.4
-1720.25
939.603
624.736
-1564.34
378.725
-218.323
-160.401
-412.309
-267.385
69.9117
94.9305
-352.349
-429.856
-440.046
-406.919
217.709
1510.22
378.94
-216.588
-435.772
460.52
-195.336
321.021
1510.75
996.469
-161.088
-835.381
-1104.09
1704.86
-1728.83
1064
-707.266
-1021.57
-1265.08
1844.99
-579.907
1155.07
-1771.18
616.116
270.154
-878.03
1675.77
43.4372
-1719.21
-491.174
-1083.03
-1731.73
-981.841
553.871
1019.58
590.243
1133.02
-1723.26
285.271
-451.853
703.337
-384.642
378.982
924.758
680.994
-381.571
-641.845
582.909
1072.53
-1655.44
-402.413
-367.881
770.293
428.077
-1661.43
1520.75
140.683
582.537
-1044.33
544.752
1083.88
-1555.66
994.025
-236.451
231.379
325.52
1904.23
427.635
-78.256
995.856
722.752
-1718.61
-697.149
1085.32
-1557.5
163.039
-571.047
195.395
265.124
-658.667
-561.51
582.56
1034.59
-711.052
-274.959
-1368.63
675.256
693.375
-412.326
763.521
69.5635
-833.085
561.895
-137.165
1557.33
-212.987
273.345
-772.71
-1932.7
1664.62
1031.22
360.686
301.54
452.331
-930.104
-993.463
-1767.26
635.822
1693.77
508.02
-474.416
1210.75
1087.11
-424.959
1029.85
-978.609
491.842
486.767
700.37
1047.94
-1748.31
484.063
483.806
-1493.97
-746.757
33.33
779.82
-413.294
-887.157
387.945
-539.173
-802.112
619.24
-577.516
1397.36
1055.16
192.393
233.882
-550.637
1618.51
-773.242
1526.14
-1727.84
575.268
1152.57
542.571
-883.423
-1732.87
1916.56
-183.686
1721.74
179.573
-544.497
365.071
-270.141
-481.489
1211.12
568.272
1128.31
-491.266
431.363
858.053
-460.329
-774.325
428.997
345.328
1419.03
1089.59
-518.245
1422.95
-510.596
-533.298
1043.89
-602.774
478.171
-1203.2
1692.09
1839.57
-687.214
1585.78
-646.176
-1241.2
717.131
-562.6
199.614
-388.154
451.914
-240.521
-519.418
-1246.71
1870.94
-624.238
1173.51
-553.16
1120.27
-1659.45
1696.07
-573.955
-546.313
-549.826
1720.07
-316.985
-688.062
-473.354
1223.6
-1685.26
-1860.11
613.401
303.827
-938.271
165.964
211.648
-1719.03
1204.15
514.88
1162.85
558.888
-512.004
-465.407
1192.12
180.912
222.986
588.445
1251.13
-539.179
-1238.58
1777.76
-1025.37
999.988
866.787
-204.101
-1659.06
1702.5
-510.113
1411.19
-1732.87
-357.186
13.7612
343.424
-261.42
586.222
-324.802
77.9921
490.369
781.532
-379.352
1257.52
1270.79
-413.366
851.79
-438.252
1817.48
-662.415
1586.57
-1723.74
-412.801
-747.188
307.348
439.84
-560.159
-563.385
79.7377
-1138.69
-985.419
-669.899
1655.32
-943.704
-1189.47
160.264
-416.841
-648.073
705.654
1167.44
650.036
1410.33
-591.036
1636.74
1318.11
-573.884
-491.004
195.145
-503.296
1396.81
1240.17
-564.909
-999.985
892.905
55.8475
-948.753
603.431
-506.158
1403.48
1495.08
-588.633
-362.344
362.344
-589.478
1623.5
1239.43
-486.28
1134.15
-70.1045
1851.81
-389.494
1489.49
-588.901
-507.685
1347.92
-652.055
1218.71
-566.656
1554.81
-591.67
751.586
574.822
-1326.41
-655.297
279.801
495.605
600.36
-1957.29
-988.83
1586.57
365.966
-365.966
-67.4029
387.011
437.452
384.302
-8.20655
-332.563
898.632
-522.836
-426.957
813.968
-241.903
619.803
-432.233
1547.91
-444.345
-884.06
183.6
226.261
-409.861
601.17
1250.77
-1851.94
926.804
-458.958
-351.609
126.151
-1943.03
1816.88
-451.365
180.717
1181.2
-440.476
-740.72
-303.007
-584.151
-493.52
-385.004
-478.756
257.724
1158.41
-561.309
231.861
-378.864
147.003
-22.8742
-107.679
1376.01
-1268.33
34.5962
-597.552
-586.427
-450.301
450.301
-1262.35
1985.1
-1344.36
-214.285
-1824.79
241.016
-1025.75
-974.242
-183.471
-1638.22
708.121
1229.32
-1924.99
367.83
314.025
-681.854
-1850.02
1234.27
615.746
-560.906
560.906
-959.109
-40.0464
-1866.08
-558.156
1650.85
-676.909
1636.18
-601.595
-176.314
-1705.24
-583.726
-445.648
-594.819
-464.724
464.724
-1537.81
194.526
1343.28
170.078
225.095
-395.173
494.036
502.434
996.858
-475.19
1751.29
769.156
-420.85
395.598
521.458
1702.06
-594.638
-552.972
1636.85
469.069
1812.77
-645.322
-1804.11
-1938.07
-646.995
-477.34
477.34
-590.982
227.364
-692.124
1019.27
-466.106
-1073.37
-289.386
1579.57
1852.3
1635.35
-1635.35
-277.645
740.024
1761.5
595.792
1275.15
170.566
208.159
579.356
592.259
1603.5
-1603.5
220.521
-355.45
-436.038
457.517
951.597
-459.755
-639.409
-1130.99
1706.26
278.904
-1652.89
611.912
-289.503
469.076
1744.65
-592.08
-214.824
-418.933
380.261
728.516
1738.58
-613.449
-511.773
-774.973
1960.54
-870.456
-1090.08
1642.76
-705.125
1223.97
-1824.95
600.981
335.2
-877.77
-185.607
-103.867
1098.14
-486.715
132.382
618.706
-1650.83
437.047
610.39
-1804.11
-583.282
1787.43
884.022
-1162.91
1760.49
-597.582
1783.83
-575.536
-1208.3
437.987
930.578
-1738.81
924.677
-1494
263.565
1230.44
-832.268
-1254.23
-377.083
74.6967
302.386
581.737
268.045
1028.63
-442.789
846.672
-403.883
820.984
739.374
-1560.36
643.998
1066.36
-24.1329
-662.764
686.897
-1744.36
722.795
701.502
150.56
-1122.66
1936.76
-674.554
-1262.21
-537.179
1665.49
831.031
964.918
-1795.95
1227.86
683.338
-405.479
711.072
839.668
1028.18
-586.899
1761.5
626.362
1773.56
-1185.61
-587.951
-381.119
-330.103
711.223
121.449
-1185.66
1660.54
-540.273
-1437.8
1437.8
1250.57
594.418
1351.51
206.482
-564.651
282.417
-188.817
699.101
1113.67
481.04
-300.128
-870.003
-574.845
1738.41
-1738.41
998.806
-998.806
987.333
1025.17
-2012.5
1837.95
-613.98
-581.113
824.709
-947.851
-1052.16
998.316
690.786
-1689.1
-515.067
-349.987
-645.021
-808.428
2042.7
-1246.42
-613.688
1002.97
974.854
1289.77
646.991
324.536
1012.69
230.706
338.743
1186.24
1756.88
-1756.88
671.799
79.7618
-387.332
-997.055
-539.992
1674.14
989.118
1010.88
-1833.29
-221.628
-362.098
608.254
-351.883