/*--------------------------------*- C++ -*----------------------------------*\
  =========                 |
  \\      /  F ield         | OpenFOAM: The Open Source CFD Toolbox
   \\    /   O peration     | Website:  https://openfoam.org
    \\  /    A nd           | Version:  7
     \\/     M anipulation  |
\*---------------------------------------------------------------------------*/
FoamFile
{
    version     2.0;
    format      ascii;
    class       volScalarField;
    location    "27";
    object      p;
}
// * * * * * * * * * * * * * * * * * * * * * * * * * * * * * * * * * * * * * //

dimensions      [0 2 -2 0 0 0 0];

internalField   nonuniform List<scalar> 
7807
(
0.25208
-0.0175232
0.365331
0.229797
-0.00085539
-1.01136e-05
0.359008
-0.00474975
-0.000100432
0.089802
-9.83721e-06
0.00166212
-0.00725055
0.0416383
0.0937858
-0.0150862
0.264008
-0.0097619
-0.00160981
-0.0924055
0.0567425
0.00100973
0.0291735
0.178292
-0.0128133
0.260587
-0.000796167
0.0525998
0.148801
-0.000394769
-0.0186936
0.494269
0.0285173
-0.000383331
-3.60325e-05
0.0724387
-0.000231246
0.34794
-0.0063636
-0.000175977
-0.00613127
-0.01422
-0.10199
-0.0718723
-8.26401e-05
-2.81352e-05
0.000989184
-0.0063733
-2.8185e-05
-0.0920699
0.00274418
0.0495501
-0.0162197
-0.0139761
0.0715904
-0.00455594
-0.00138494
-0.00458837
-0.0275732
-0.000377055
7.58303e-06
0.00368925
0.0419685
0.00189221
-0.000588594
-0.0187984
-8.61448e-05
1.13461e-08
0.0731334
-0.00598912
-2.57353e-05
-0.0631933
-0.0124608
-0.0214424
-0.00950027
-0.0397139
0.361166
0.0554949
0.0430117
-0.0603486
-0.00702456
0.308431
0.0853919
-0.024296
-0.00176952
-0.00167092
-0.00532084
-0.0158482
-0.000747629
-0.00340104
0.152355
-0.0805333
-6.30861e-05
-0.000862131
-0.00297094
-0.0199472
-0.0603339
-0.0111221
-0.00185599
-0.000740657
-0.0394382
0.051353
-0.00285727
-3.7157e-06
-0.0694094
0.157411
0.419075
-0.00476519
-7.37016e-08
0.0236948
0.216096
-0.0701331
-6.07844e-07
0.0254505
0.157496
0.000180814
-0.091105
0.124582
-0.0459966
-0.0229387
-0.0384194
0.29356
-0.0971262
0.00841814
-0.0372375
-0.00104269
-0.0160826
-0.000356375
-0.000623619
-0.0186183
-0.135424
0.0437786
-0.000512026
-0.000841798
-0.0249361
0.208404
0.35325
-3.146e-06
0.0070321
-0.05176
-0.0197509
-0.0606481
-0.0412542
-0.0206197
0.418616
-0.0329977
0.149953
-0.0289742
-0.0263459
0.293133
0.0687799
-0.0693078
-0.00169671
0.0518546
0.0849998
0.325295
-0.0468784
-0.00694783
0.428795
-2.45041e-05
-0.001621
0.184994
-8.44219e-06
-0.00319264
-0.00332984
0.229822
0.230351
0.446668
-0.00336095
-0.00240221
5.24203e-08
-0.0341847
0.000179473
-0.0104174
0.00775861
-0.0260334
-0.0463219
0.134715
-6.89248e-05
-0.000473698
0.235521
-2.02945e-05
-3.83451e-05
0.363851
-0.0229939
-0.0568611
-0.0437779
-0.0213076
-0.0360184
-0.0523231
-8.42548e-06
-0.0576944
0.141459
-0.00299521
1.87978e-05
0.180978
-0.000917446
-0.0175269
-0.0336266
6.548e-07
0.000317807
0.213553
0.171567
0.322628
-0.0841582
-0.0649179
-0.147991
0.0578086
0.209984
-8.96069e-05
6.62097e-06
0.39307
-0.0128871
-0.000506411
-0.0556619
-0.0169205
0.29673
0.301612
-0.0655801
0.480436
-0.000859987
-0.00935274
-0.0400188
0.0705442
-0.126626
0.220581
0.423755
5.54328e-06
0.00913277
0.133316
-0.00547902
0.121725
-0.000704249
0.48179
0.316879
-0.00510992
0.000548501
-0.000163026
0.135164
-3.17235e-05
-0.00959625
-0.0541296
-2.99261e-05
-0.00185959
-0.000606929
0.142595
-1.02422e-05
-0.00352533
-0.0592778
0.489362
0.0353999
0.452015
-1.2217e-05
-0.0358962
-0.000177833
0.339994
0.00350741
0.354421
-0.00143715
0.000160856
-0.00866957
0.0607962
0.000318568
-0.000114681
0.000256352
-0.00582073
-0.0589678
-1.181e-05
-0.0451474
-0.00319125
-6.88609e-05
-0.000557055
0.346995
-0.00650214
-0.000460104
0.443667
-0.00192557
0.237662
-0.000183433
-0.00747755
9.35342e-07
-0.0391374
0.0673657
-0.0365059
-0.0285702
-0.000416499
-0.0785598
-0.0133803
-7.20756e-05
0.000246012
-0.00289794
-0.00664845
0.00241722
-0.00150046
-0.0232956
-0.053483
-0.0220558
-0.0580196
-0.0278813
0.321964
0.33488
-0.00128552
-0.0696593
-1.3448e-06
-0.00338911
-0.0198519
0.17337
0.0968871
2.91715e-05
-0.00313733
-0.0271693
0.150179
-0.00106033
0.00308326
0.000783075
0.0340813
-0.151629
0.316098
-0.00118835
-0.0208574
-6.4437e-05
0.00243754
-1.93202e-05
-0.0248877
-0.00019241
-0.0028189
-0.101213
-0.0378978
-0.00563279
0.00813003
-0.000441875
0.0181324
-0.0145162
0.0646633
0.145383
-0.188308
-0.0798106
-0.013693
0.00439515
-0.0534287
0.454454
-0.0696547
0.033909
0.471897
-0.0011492
-0.00157075
-0.0800756
-0.00143384
-0.0292519
0.00602007
-0.00221313
-0.0015722
0.141553
-6.80918e-05
0.000300978
2.01768e-05
-0.00274696
-0.00981843
-1.80019e-06
-0.000774276
-0.0263837
0.399403
-0.00540304
-0.0123779
0.397004
0.261728
0.0526842
-0.0565507
-0.0345119
0.00409622
0.222954
-0.00983018
0.271323
-0.0407891
-0.115248
0.173662
0.27486
-0.0408469
0.0900782
0.219312
0.248508
0.0560473
-0.00286579
-0.00421941
-3.88371e-05
-0.00737659
-0.00998474
0.000324362
-4.70169e-05
-0.00137645
-0.0770096
0.0712871
-0.0168531
-0.00683922
-0.00323084
-0.0228344
-0.00640267
-0.000224437
0.190537
-0.00141319
-1.79438e-05
-7.01097e-05
-6.97313e-07
-0.0207841
0.137123
-0.00344647
0.0313145
-0.138637
0.338883
0.00144195
0.00608118
-0.00511839
0.335655
-0.000706347
0.313504
0.153321
-5.10369e-05
-0.0430641
-0.00269961
-0.0594273
0.000316884
0.0612708
-0.00159215
0.00556461
-0.000583126
0.128997
0.15296
-0.0637413
-0.027951
-0.00310235
-0.0338376
0.0487853
0.485184
-0.0822961
0.00274108
-3.77793e-07
-0.0131433
-0.00177884
0.0158865
-0.110197
-0.0828959
0.358227
0.138351
-0.134631
0.191246
0.325777
0.0325084
0.000547182
0.236187
-0.0012688
-0.000136008
-0.0139541
2.66113e-05
-0.162669
-0.00649498
-0.0361012
0.00133092
0.185128
-0.00139391
-1.61392e-05
-0.121507
0.00120043
0.0132879
-0.0385586
-0.046838
-0.0267892
0.134666
0.109112
0.112344
-0.00010729
0.0624093
0.0722623
-0.00051957
-0.0164521
0.000349618
-0.000625079
-0.0136624
0.00423181
-0.000922136
0.12767
-9.97094e-06
7.96063e-05
0.0014677
-0.0193488
0.02122
-0.0323877
-0.0236169
-0.053937
-0.143507
-0.00443223
0.229186
-0.0853061
-0.00638512
0.482183
-0.0605582
-0.0103398
-0.0233964
-0.0126415
-0.0174402
-0.0100228
0.0295823
-0.0769828
-1.85765e-05
0.0253348
-4.2264e-05
0.319074
0.0834827
-0.00459348
-0.0114861
-9.803e-05
0.308534
0.296049
0.0436784
0.140891
-0.0657678
0.359358
-6.07315e-05
0.00840677
-0.014667
0.140641
0.43555
0.0345031
0.131911
-0.00583793
-0.000116534
0.124455
-0.113764
0.323109
0.0157363
0.198026
-0.00665964
0.342082
0.281172
-0.00869821
-0.00740995
0.0991055
-0.0480919
-7.76349e-05
-0.0127731
-0.0510627
-0.0756212
0.0113543
0.00853917
-0.000110429
0.300468
-0.00452276
-5.69882e-05
-0.048592
-0.000419827
-0.000125193
5.33487e-06
0.201779
-0.107159
0.410339
1.67543e-05
0.200515
-0.0392536
-8.22464e-05
2.98207e-06
0.146504
0.192826
-0.00402965
0.172547
4.31599e-06
0.182963
-0.180515
-0.0090082
0.338235
-0.052616
0.131333
-0.0218498
0.181519
0.190613
-0.0167831
-0.021345
-0.0088253
-0.00237127
-0.000151078
-0.0044228
0.255572
-1.63712e-05
0.174828
-0.10662
0.285663
0.165214
-0.0510843
0.409411
-0.00149589
-0.00452501
-0.0712506
-0.0176049
-0.00640637
-0.0424624
0.0224382
0.457655
9.51873e-06
-0.00175258
-0.066763
3.90438e-07
0.327297
0.00124335
-1.40423e-07
7.36925e-05
0.000190032
-0.0232814
0.0152938
-0.00134071
-3.16108e-05
-0.00667059
-0.00139164
-0.117727
-0.0427621
0.0220392
-4.30912e-06
-0.176718
-0.0118973
0.105093
0.276601
0.000152432
0.111217
5.25239e-05
-0.0115129
0.0805504
-0.0066454
0.219263
-0.012921
0.0119188
0.0838009
0.135731
-2.9585e-06
-0.00968476
0.165342
-0.0882432
0.34794
-0.00912764
0.250615
-0.008786
-0.000896938
0.124698
-0.0105404
0.0774704
0.00130332
-7.51174e-08
-0.132969
0.183804
0.000484204
0.0998407
-0.0122046
-0.177281
-0.0159976
-0.033913
-0.00147436
-0.00689004
-0.0733153
-0.0256229
-0.00910444
-0.000191897
0.36863
0.105449
0.030653
-0.000132859
0.277773
-3.57981e-06
-0.000119456
0.115363
-0.00772683
0.156851
0.0515294
0.0153091
-0.0679341
-0.143836
-0.0300199
0.000820772
-0.0381046
-1.94132e-05
0.000677578
0.211083
-0.0159744
-0.00252197
-0.025437
-0.00171196
-0.000550738
0.440854
-0.00970493
-0.000531323
-2.44636e-07
0.121337
-0.0352739
-0.00033487
-0.0022525
0.141976
0.0722549
-0.039038
-2.50494e-06
0.15708
-0.020232
0.174645
0.0169752
0.0215733
-0.0280064
-5.2149e-05
0.0816226
0.0637871
0.00598164
-0.0996523
0.25404
0.00532593
0.161138
-0.00732894
-0.0459552
-0.000248528
-0.00824209
-0.000160266
0.143511
0.234455
-0.00138591
0.0175377
-0.0155548
-0.0838657
-0.0914998
-0.00152887
0.00660177
0.428434
-0.0132487
-6.37903e-05
0.0714362
-0.0062843
0.368922
-0.0117235
-0.0212684
-0.0177177
-0.0236201
-0.0144065
-0.00714288
-0.0080728
-0.000221927
0.0150184
3.16258e-05
-0.169435
-0.0400131
0.317065
-0.0375403
0.162421
0.00143977
-0.0714871
-0.0280088
0.183908
-0.00710738
1.65193e-05
-0.0203387
-0.00794592
0.0100445
-0.0235328
-0.0219562
-0.0446749
-0.0123532
-0.0216857
-0.0822795
-1.29419e-10
0.0297767
-0.071577
0.13648
-0.0787423
0.0770639
-0.100582
0.291245
-0.0104166
-0.0285969
-0.0346519
0.385227
-0.142966
-0.0120721
-0.131196
-0.0566908
-0.122368
-0.0762524
0.155678
-0.00260441
0.217128
0.00811478
-0.000378068
-0.0015822
0.0609699
0.480061
-0.000804187
-0.0411517
0.14923
3.89266e-06
-0.0204233
0.0280739
-0.0228451
0.00827345
-0.00184202
-0.0412876
-0.00547561
5.05994e-06
-0.0505833
0.229153
-0.0103645
-0.0149982
0.00132603
0.149096
-0.000408067
-0.00101749
-0.000232553
-0.00118045
0.0231575
-0.0135627
-0.003259
-0.0172145
6.18467e-06
-0.136709
-0.100536
-0.154543
-0.0278072
0.0135387
-0.000123819
-0.0150926
-0.0594709
0.00404188
0.286465
-0.00193923
-0.0540438
-0.0047139
-0.00669183
0.133248
0.000217213
-0.000132759
0.108411
-0.0107854
0.0114166
-0.00281169
-0.00154831
-0.0571455
-0.000186972
-0.0142028
-0.010434
0.246109
0.229318
-0.0636608
-0.0705879
0.00645838
-0.00502064
-0.0240962
-0.0810088
-0.0308082
-1.29079e-06
-0.0285105
-0.0204935
-0.0888768
-0.00712215
-0.0375532
-0.000300652
-0.00265715
0.166812
-0.0269679
-1.09852e-06
-0.00217941
-0.130029
-8.14103e-05
-0.0369071
-5.20774e-05
-0.00024537
-0.114181
-0.0624549
-3.91447e-05
5.81697e-06
0.104252
-0.0625378
0.308777
0.240142
-0.0317821
-0.00100091
-0.0274551
8.63388e-05
-0.135246
-0.113575
-0.0363953
-0.0153198
0.233922
0.000810274
5.9014e-05
-0.00251601
-0.146015
0.00137417
-0.0438573
-0.0581252
-0.00818023
0.0146017
0.0555874
-0.000874574
-0.024502
-0.09354
0.156303
-0.0513504
-1.39799e-07
-0.129549
-0.051863
-0.0600746
-0.00151754
0.000424276
-0.00294786
-0.118748
0.0227719
-0.0226868
0.108873
-0.0691412
0.000581711
0.0119768
-0.000971165
-0.0242041
-0.146259
-0.000146248
0.120058
0.172117
0.00490184
0.187967
-0.0930254
0.0344863
-0.0633275
0.165125
0.0809527
0.458621
-9.90289e-08
0.0793006
0.146285
0.0102731
-0.000949356
-0.011111
-0.0433799
3.93258e-06
-0.0133173
-0.0626377
-0.0120321
-0.0157909
4.10341e-05
-0.117178
-0.000321551
-0.000408037
0.196759
0.00113869
0.0478156
0.0121169
0.169813
0.00233082
-0.000463318
-0.13511
0.00182148
0.297359
0.00057508
-0.0640727
-0.000249602
-0.000290444
-0.000898829
-0.0787533
-2.03377e-05
-0.00618907
0.0181952
-0.000913854
4.7927e-06
-4.78221e-05
0.123587
-0.0621124
0.00247069
-0.000546787
0.00356094
0.0107669
0.00289776
-0.000273574
0.310193
-0.121087
0.181345
0.266043
-7.83588e-05
0.0370207
0.08655
-0.000464863
-0.00019578
-0.000545478
-0.0327132
0.000739937
-0.0240009
-0.0306108
-0.073477
0.139346
-0.126861
1.12449e-06
-0.0146583
-0.0191125
-0.0239051
-0.00251511
0.00204531
0.000550243
0.0196186
-0.000232633
-0.00027177
-0.0145293
-0.00297555
-0.0189191
-2.61386e-06
-0.011088
0.0239113
-0.0476203
-0.0544454
-0.00597387
-0.00825626
-0.00600388
-0.00337617
-0.00548583
-0.00588368
-4.95848e-05
-0.000352226
0.0139048
-0.00818893
-0.00337308
0.00384304
-0.00332809
-0.155282
-0.00819695
0.126715
-0.00805349
-0.0503195
-0.0274312
-0.017472
-0.0110827
-0.00236632
0.000481327
-0.00233912
-0.00883782
-0.0109156
0.160584
0.121528
0.0322042
0.276838
-2.29224e-05
-0.00401771
-0.0105964
-0.00591316
0.0683059
-0.01458
0.028169
-0.0049576
0.177407
-0.00140465
-0.00127556
-0.0023599
-0.0301577
-0.000144134
-0.0286763
-0.00375231
-0.0143929
-7.4182e-06
-0.00416267
0.000901522
-0.013388
0.0174351
0.0271409
0.0134779
-0.0100678
-0.0239268
0.0930546
-0.00111283
-0.00118218
-0.0011991
0.398599
-0.00012007
0.0520526
-0.0140582
-0.0154689
-0.0171123
-0.0456229
-0.0196014
-0.0255812
-0.0153282
-0.00330676
-4.4055e-05
-0.0026597
-0.0141708
0.079082
0.000796777
0.129329
-0.0249445
-0.0100268
-0.000433943
-0.0222572
-4.23389e-05
0.119555
-0.0233042
-0.0198754
-0.0183933
-0.00507129
-0.030619
-0.000864315
-0.0304548
0.0815241
-0.0187
-0.089282
-0.000777904
-0.019486
-0.0141682
0.0105356
-0.00226219
0.114736
-0.00135404
-0.0119125
-0.000515352
0.12959
-0.0293332
-0.0183357
-0.00186751
-0.00732625
-0.00194426
0.160054
-0.0147797
0.179647
-0.00517292
-0.000671875
-0.000671744
-0.00165853
0.153186
-0.051058
-0.00521641
0.000104723
-0.012627
-0.0265352
-0.000918613
-0.0252532
-0.0117639
0.044791
-0.0032358
-0.00341626
0.368223
-0.0493873
-0.0178242
-0.0469383
4.21815e-06
0.0598715
-0.0022539
-0.0178147
-0.00416041
-0.0264954
0.000525303
-0.000344179
-0.00169065
0.00174133
0.162642
-0.00354466
-0.00114355
-0.00320832
-0.0546016
-0.00574483
-0.0143437
0.00127634
-0.00569695
-0.00540274
-0.00220313
0.166384
-0.0348943
0.00163471
-0.00248663
-0.0189116
-0.00867836
-0.0366399
-0.00113772
0.0726287
0.0153652
-0.00572372
-0.00128113
-0.0106499
0.419081
0.163775
-0.0079237
-0.000272036
-0.00162966
-0.0106022
-0.00288285
0.0140384
-0.0003019
-0.0259099
-0.00113296
-0.0110118
-0.112352
-0.000975631
-0.0153851
-0.000769068
0.262016
-0.00544851
-0.00778108
-0.0543731
-0.000971598
-0.0199637
0.0383228
0.369102
-0.00792411
-0.00873726
-0.0011289
-0.000420075
-4.3369e-06
-1.14453e-06
-0.00741785
-0.000421806
0.0870239
-0.000588125
-0.00111106
0.00401666
-0.000113728
-0.0337752
-0.0760463
0.0120243
0.03018
0.0192583
0.0214083
-0.0658549
0.0715581
0.0551179
0.0767892
0.0986307
-0.00849432
-0.000553196
-0.00661172
-0.0849792
-0.00210197
-0.0106053
0.00409545
0.289687
-0.0664018
-0.000244051
-3.55748e-05
-0.000736278
-2.80718e-06
0.000923233
-0.000450518
-0.00541493
-0.0355669
0.000191779
0.00117187
-0.000107202
0.043995
-0.0102999
-0.0697108
-0.00116673
0.262758
0.248257
-0.0078184
-0.104372
-0.0200196
-0.0158193
-0.0106938
-0.00126832
-0.0981548
-0.0490926
-0.0390287
-0.100236
-6.20054e-05
0.15815
-0.0321291
-0.00613201
-0.0465195
0.0123277
-0.000313455
-0.00632722
-0.000736076
0.00302869
-0.00163933
0.139539
0.000109518
0.00644288
-0.000178003
-0.125924
0.00536705
-0.000919443
-0.00884788
8.27047e-05
-0.00749894
0.0931709
-0.00502656
-0.000870435
-5.47611e-05
-0.000346895
-0.000275701
-0.0460255
0.100558
-0.0161901
-0.000105166
0.00219125
-0.000306955
0.185944
-0.047777
0.214883
-0.0331571
-0.000209441
-0.000249256
-0.00559783
-0.00362159
-0.000540391
-3.34423e-06
0.0164556
0.0202647
-0.000101504
-0.00032347
-0.01393
-3.64307e-06
0.136583
-0.000658263
-0.0397457
-0.0141119
-0.00400665
-0.0431277
-0.0528354
0.122796
-0.0386308
-0.0135721
-0.000139365
-0.0415643
-0.0134035
-0.0209222
0.0774119
0.293548
-0.00058751
-0.0453003
0.00165677
0.264241
0.0286284
-4.61244e-05
-0.00447487
-0.00254072
-0.00355644
-0.027482
0.0684847
-5.94707e-06
0.00255511
0.000416719
0.0540717
-0.000268832
-0.000109928
-0.117457
0.240385
-0.0405713
0.12076
-0.00151615
-9.62353e-05
-5.0512e-07
-0.119784
-0.02386
-0.000263131
0.0813619
0.00728483
-0.00376049
0.326
-0.000423885
-0.00297233
-0.049182
-0.0457204
-0.0012963
0.109184
-0.086657
-5.6398e-05
-0.000127347
-0.000144021
-5.04491e-05
0.113359
-0.0143783
-0.000196559
-0.0342226
-0.01816
-0.00196405
-0.0531151
0.00116894
-0.0146953
0.000570402
-0.00244455
-0.0504449
-0.0288003
0.00115319
-0.00067534
0.127632
0.169659
-0.130824
0.00327232
0.0127742
-0.00310738
0.135542
0.0839532
-0.0181092
-7.82432e-05
0.00406696
-0.0334106
-0.00220176
-0.0245235
-0.00152714
0.0249413
-0.0216838
-4.65348e-05
-4.3888e-05
-0.0619398
-0.0289999
-0.0172376
0.00448998
-0.0238512
-0.0365617
-0.00011662
-0.00122168
-0.000151495
-0.0391848
-6.7868e-06
-0.00124506
-0.0661538
-0.132689
0.0885001
-0.00210566
0.0022757
-0.0182131
-0.0178101
-6.30118e-05
-0.0269015
0.0835489
0.127958
2.40856e-06
-3.77827e-05
0.13051
-0.00179953
-0.115342
-0.0231418
0.00179438
-3.25982e-06
-0.0428235
-0.0528145
0.133915
-0.0338504
-0.00084331
-0.0151069
-0.0513679
-0.000377419
-9.56923e-05
-0.000621614
-0.0425203
-0.0353659
0.116811
-9.29535e-05
0.388103
-0.0513696
2.95148e-06
-0.00100113
2.59601e-05
3.513e-05
-6.52377e-06
1.77305e-05
-0.0352787
-0.000562089
0.00014137
-7.88415e-05
0.114161
-0.0038017
-8.28216e-05
-3.56424e-05
0.31603
-0.0169206
-0.0698751
0.000269752
-0.000463012
0.0388894
-5.6156e-05
-0.0179949
-0.165499
0.00106734
-0.00760492
-3.74292e-05
-0.000108088
-0.0256034
-0.0873026
0.00438877
-0.151763
-0.0915172
-6.49235e-06
0.0152255
0.0243983
0.0875307
-0.000981011
-6.73724e-05
-0.0452928
-0.00406291
-0.000459849
-0.0344218
-6.15546e-05
0.0219649
-0.000109516
-0.000636046
-0.0297584
-0.0025029
-0.0421917
0.374386
-0.00137301
7.58734e-05
-0.0538056
-0.0677963
0.00455879
0.0026468
-5.29755e-05
-0.0228094
-4.46303e-05
0.160642
0.444065
0.0534917
0.00157916
0.00182632
-7.62855e-06
-0.0236964
-3.7795e-05
-0.0116233
-0.00116487
7.37274e-05
-0.00200814
-0.0106131
-4.2974e-05
0.000307676
-0.0117377
-0.000145911
-0.0104222
-0.0128913
-0.0222853
-0.00129157
0.402841
-0.000775574
0.00121581
6.34626e-05
0.00933529
-0.0327329
0.00583426
-8.73298e-05
-3.51658e-05
0.000802392
-5.63408e-05
-2.67323e-05
-0.0125807
0.000259385
-5.86421e-06
-0.0386069
-0.00274931
-0.0350427
-0.00105974
-2.0164e-05
-0.00177869
-0.0207163
-0.014408
-0.0319528
0.00114603
0.000139095
-0.00028159
-0.000966628
-4.89051e-05
0.231858
0.000707836
-5.73729e-06
7.13443e-05
-0.00153159
-0.000354403
-0.0391842
-0.0358808
-0.000121691
-0.00506991
-1.14574e-06
-0.00343601
-2.49176e-05
0.0266464
-7.02844e-05
-0.000159094
-0.00431655
-1.5301e-05
0.00900111
-0.000119416
-0.000720872
0.0132495
-1.78287e-06
0.314284
-0.0417361
-0.0319
-1.20534e-05
-5.00043e-06
0.00066173
-0.000633119
-0.0482528
-4.83907e-06
-2.40577e-06
0.000234525
-5.30336e-07
0.000115119
0.000149565
-0.000253969
0.000300788
-0.0362315
0.39873
-0.0408031
0.28818
0.00568024
-0.0179071
-6.04709e-06
-0.000413597
-0.00957867
2.15434e-05
7.98902e-05
3.67411e-05
0.0395211
-0.001654
-0.000210114
0.366523
-0.000210426
0.000107278
0.000171809
-1.03394e-06
0.00976126
-0.00166261
0.000474101
1.69106e-05
-0.000754802
-1.79528e-05
-0.00127003
-0.0347015
-0.000194751
-0.00211463
4.46706e-08
-0.00328989
-9.50665e-05
0.157405
-0.000224481
-0.00034768
-0.0395871
0.00202061
-9.10398e-05
-0.000808843
-1.56381e-05
0.143068
-0.055482
-0.000444071
-0.000166581
-0.00269843
-0.000203891
0.0425078
0.0907746
0.00637643
5.02112e-05
-1.54467e-06
-7.80934e-08
0.0367947
6.7706e-05
-0.0338276
-0.0352673
-0.0142023
-0.0515617
0.415355
0.000928558
0.166879
-0.0133958
-0.023579
0.145648
-0.000139125
-0.048733
-4.46561e-06
-0.00695301
-0.0283617
8.34115e-06
-0.0557891
-0.000475649
-0.0230484
-0.00673448
-0.0245302
-0.0310015
-0.0043789
-0.0557483
-0.0256549
-4.68656e-05
-0.00719734
-5.27127e-05
-0.0223889
-5.47113e-06
-5.50622e-05
-0.00056584
0.13788
-6.64564e-08
-0.0359466
0.00174235
1.08832e-05
-0.0216705
-1.58249e-06
-0.00791485
-0.000205699
-0.0226793
2.4349e-05
-3.95559e-05
-0.00204486
-8.77306e-05
0.134317
-0.0241762
0.0523129
-2.95889e-05
0.000225721
-0.0189069
-4.19538e-07
-0.0438814
-0.0468409
-0.0364971
0.394167
-0.00491985
-4.32909e-06
0.0180294
-0.0252824
-0.0031872
-4.95807e-05
-3.40281e-05
-0.0336714
1.87743e-05
0.000338015
-3.00255e-07
2.24658e-05
-0.0168061
0.093974
-0.0957559
0.0778932
-0.00391636
-5.20565e-08
0.00161561
-0.0586537
-3.0619e-06
-4.18656e-06
9.45017e-05
1.06692e-05
0.000130299
0.20857
0.0256456
8.79527e-06
-1.1157e-06
-0.0437532
0.170217
0.149887
-5.59586e-06
-0.0276863
-0.020386
-0.0115895
-0.0323081
-0.00971357
-0.00190314
0.118516
-2.89412e-05
-0.0206437
0.142338
-0.0379447
-2.19008e-05
-0.039163
-7.6038e-05
0.264859
0.0176178
-2.85189e-05
-1.38919e-05
0.158099
-3.77019e-07
-9.7693e-05
-0.0072232
-4.23109e-06
0.217257
0.000463475
-0.00448445
-0.0396856
-0.00269203
-0.0929865
0.155534
-0.0226931
-0.0581429
0.000400412
-1.0357e-05
-0.000887526
-1.611e-05
-1.14564e-05
0.00764216
0.152931
0.126281
-0.00027904
0.208387
-0.0170507
-1.82655e-06
-0.0273387
-1.98436e-05
-0.0224835
0.0188304
-0.0155751
0.0019729
0.000856431
-0.00576724
1.06396e-05
-0.00117363
0.0106468
-0.00148861
-3.95767e-05
3.09436e-06
-1.86596e-05
0.0233625
4.96212e-06
-0.0256573
0.219252
-0.0050517
7.79967e-06
-0.00209707
-1.19936e-05
0.0532566
-0.000122526
-2.28229e-05
-1.56604e-05
-5.46466e-06
0.178382
-0.000106936
0.207407
-0.0567825
1.51545e-05
-0.0481516
-0.000593047
0.132246
0.372238
-0.000671144
1.03575e-07
-2.90678e-06
-8.9114e-06
0.116456
-2.16018e-07
0.00034686
-0.0141249
0.194138
-1.08353e-06
-1.85736e-06
2.35176e-07
2.38695e-06
-0.0160419
-1.3837e-07
0.246135
-0.0167467
-2.84142e-05
3.71195e-06
-0.00105597
-0.0181983
5.24908e-08
-1.46988e-05
0.1401
4.36286e-06
-0.0252835
-0.0794855
2.5545e-05
-2.07351e-07
-0.17795
-2.24365e-08
0.139313
1.57655e-06
-0.00025722
-7.1047e-07
-4.16885e-05
0.07597
-1.15462e-06
-0.00107314
-2.69361e-06
0.00409215
-0.00272184
-0.0036883
-0.00178862
0.129642
-0.000319261
-3.98663e-05
-0.00537055
-0.00542996
-6.89916e-05
-6.83754e-05
-0.000643143
1.84217e-06
0.154487
-0.0106267
0.410735
-2.2794e-06
-0.00531134
-0.000187672
0.111633
6.02162e-06
-0.0235588
2.19698e-06
-0.000972252
-0.0259209
-8.49902e-05
-0.0121549
-0.0397054
0.00185402
-1.45586e-05
-0.0668791
-9.5909e-05
-0.000408026
-0.00362652
-0.0237859
0.000370558
-8.00903e-05
-0.000229424
-0.00116811
-0.000742421
-2.76697e-06
-0.000658976
0.368873
1.71846e-05
-0.00188106
-0.0270248
-0.0409288
-0.0474992
-0.0293522
-0.0174583
-0.00069564
-0.0240488
1.15431e-05
-3.5121e-05
0.387095
-3.0814e-05
0.153924
-0.000142794
8.8965e-05
-0.000579481
-0.100867
-0.000202921
-0.00138075
-1.00422e-05
-0.000175154
-2.59555e-05
-3.00158e-05
-0.00899405
-6.24925e-05
-4.53531e-05
-2.83912e-05
-2.88542e-05
-1.06282e-05
-0.0374215
0.213877
-3.68015e-06
-0.000206798
-8.42463e-05
3.18086e-06
-0.000377702
-6.67405e-07
-0.000435447
4.31836e-05
-0.000150736
-0.0454534
-0.000356565
-0.00138076
-9.38261e-07
-0.00195349
9.49796e-05
-3.04069e-06
-4.62379e-06
7.00447e-07
-0.000293208
0.00014637
-0.0379348
-0.0262561
-0.0432898
-0.000504383
-0.00250133
-0.0511996
-0.0410819
-2.11018e-05
0.00734492
0.00304815
-0.000394229
-0.00899852
-0.0317981
0.36801
-0.000155925
-5.35524e-06
0.00016449
4.69275e-06
1.01923e-06
0.0601716
0.000936213
0.0706255
-0.0432406
0.347079
-0.000174334
-7.61325e-07
2.76967e-05
-8.94567e-06
-0.000551447
0.129867
0.185858
-5.16675e-06
-8.83213e-05
-1.44261e-05
0.175822
0.00379977
-0.0100859
5.99906e-07
1.70582e-06
0.00406287
-0.000247981
-0.0610095
-0.0132924
-4.18404e-06
0.0015375
-0.0302874
-2.00044e-05
0.00065888
-4.69031e-05
-0.0328718
-0.000743783
0.122332
9.62689e-07
0.000721175
-0.00200442
8.50931e-08
3.22427e-05
-0.0184052
2.96419e-07
-0.000346566
-1.2003e-06
-0.0111425
-0.0299768
-0.00403769
-0.0104573
-0.00517787
0.00541958
-0.00650123
-0.00113854
9.58595e-06
8.4832e-06
-5.07053e-07
-8.8342e-08
-1.6221e-05
0.00459042
-0.0587369
0.00014911
-0.056514
-0.00143422
-0.0591255
1.48025e-05
-1.05171e-05
0.000516059
-0.100665
2.6109e-07
-0.0539649
-0.0135822
-0.0152265
-0.0590784
1.61401e-06
-0.00164727
3.59468e-05
-0.173152
0.110749
-6.38913e-06
-0.0523007
-0.0217777
-0.00210593
5.89873e-07
-3.82339e-06
0.0108672
-0.0092702
-2.34394e-06
-0.00424755
-1.88039e-05
3.88509e-05
0.101338
-2.9419e-06
-1.34425e-05
-8.31667e-05
1.23435e-06
0.000320842
1.52909e-05
-0.00265496
3.83123e-05
-0.00982984
0.000386068
-0.00013794
-0.0363376
-0.0353175
-0.00458041
-3.51744e-06
1.33619e-07
-0.0751009
0.00300339
-0.0366373
-4.28051e-06
-0.003644
-4.67543e-06
-2.76753e-07
0.0532384
-0.00355783
-0.0012999
-1.16558e-05
-0.016078
5.13112e-06
-0.0521224
-1.00802e-06
-0.0600468
-1.09942e-05
-2.31089e-06
1.4388e-05
0.000389304
-0.120078
-0.0102961
-0.0635294
-4.5278e-06
8.10946e-06
-0.0571436
-0.0338665
-0.00446761
-3.73404e-06
-0.0554389
-0.0496508
-0.0545575
-8.27752e-06
-4.58193e-06
-2.31574e-05
-0.115436
-0.0639125
0.00020521
-0.0058176
-3.39493e-05
0.203169
1.76246e-05
-6.88419e-06
2.81702e-05
-3.28403e-05
-5.44937e-06
-0.0024941
6.80618e-06
-0.00181224
-0.0638062
-0.00715339
-0.0309297
-3.6635e-06
-1.25869e-05
0.034122
-0.0759048
-0.0023782
0.0908931
-4.01139e-05
-7.57474e-06
-6.49066e-06
0.0918087
3.35541e-05
-7.14286e-05
-8.70965e-06
-0.0702277
-0.00863777
-1.46359e-05
-5.73677e-05
-0.00710148
-0.00328259
7.67181e-05
0.18823
-0.0622729
-0.000837743
0.482371
-5.74466e-05
-0.000712282
-0.00914689
-0.0506428
-5.76528e-06
-2.05317e-05
1.41248e-06
0.00223473
-0.038395
-0.000239895
-0.0430242
-0.00403176
-7.4212e-06
-1.6806e-06
-0.00540806
-0.0182462
-0.0399237
-0.105025
-0.0310655
-0.0300233
-0.024728
-0.0244901
-2.39334e-05
7.47669e-05
-0.0114174
0.000172282
-0.000172259
0.000197748
-1.79003e-05
-0.000139371
-0.00648626
-3.37634e-06
-2.18133e-05
0.0204047
-0.0467854
-0.000297977
-0.000101388
-6.01784e-06
0.204759
-0.00501725
0.000174835
-0.0254917
5.63233e-05
3.93362e-05
3.62656e-05
-2.1777e-05
0.000127313
-0.0329919
0.00552413
-2.7317e-06
-0.000236946
-0.0396741
-0.0341341
0.0369341
-0.00015611
0.000824096
0.0115426
-7.45283e-06
9.51112e-07
-0.0563471
1.31247e-06
0.135591
-2.50366e-05
0.00214314
3.53816e-05
4.40484e-05
-0.047878
-0.00583928
-0.0140888
-0.00118984
1.80889e-06
0.00118311
0.0473627
-0.0101303
-7.08021e-05
0.0755691
0.132482
-1.93301e-06
-0.0412311
-3.50068e-05
-8.42043e-06
-1.26787e-05
-0.000189498
0.0131617
-3.56113e-05
4.69342e-05
-0.0151797
-0.0200416
-0.0119441
0.256045
-1.73418e-05
-2.71236e-05
0.13983
-0.0174166
-0.00273149
-0.000222744
0.137702
-1.16043e-05
-0.000514262
-3.11751e-05
-2.95613e-05
2.19644e-06
2.07203e-06
1.26489e-05
-0.0105935
-9.38231e-06
-0.0027214
-0.0321579
0.20611
-0.000369331
-1.47718e-05
0.00240618
0.0672986
-0.0568522
-0.000271086
-0.0409062
0.256613
4.12868e-06
0.332498
-3.04473e-06
0.0013537
0.0163499
0.000121764
0.350671
-6.24434e-05
-3.10763e-06
0.000318411
1.55137e-06
-0.00030783
6.08138e-05
-1.01734e-05
-0.00104042
-4.35178e-05
-7.84199e-05
-0.00197881
0.201451
0.0360803
0.014752
-0.0285342
-2.40931e-06
-1.62758e-05
0.00124927
-0.0649939
-7.29381e-06
-0.0319187
-2.14346e-05
0.0832957
0.0475313
-0.0312883
-0.000824455
-0.011677
-0.000364573
-0.00815704
-0.00165183
-0.00751058
0.0484515
-5.31492e-07
0.222406
0.0112663
-0.000878592
0.177517
-0.0104524
-3.04025e-06
-1.17531e-05
9.47956e-06
-5.22573e-05
-9.21038e-05
0.202903
-0.000496485
0.209364
-0.00149684
0.136025
0.188358
0.0952857
-0.00537847
-7.70124e-06
-5.48312e-05
-0.00557785
-0.166817
-0.0466312
0.000619117
-2.754e-05
-0.0260538
-0.000643355
-7.69419e-05
0.000385788
-0.000502593
-0.00111406
0.0233149
1.24019e-05
-0.0298481
0.0429174
7.70215e-06
4.64065e-05
-0.0147063
-0.0643826
-0.000333049
-0.000207606
-1.62252e-05
3.42603e-05
0.0655294
-0.0154252
-0.0473802
0.00050176
0.0770151
-0.0343799
-1.16285e-05
-7.00351e-06
-0.000524568
-0.000150734
0.0616903
-0.00542579
-0.00750937
-0.000248002
0.000571458
-0.0345012
-0.000109602
0.000135646
-0.014566
-0.056339
0.129533
-0.0423587
-0.0225524
-0.000256845
-1.16192e-05
0.00385094
-5.45533e-07
-0.0526165
-0.0619371
0.000171005
0.00107789
0.00194413
-0.137283
0.000194751
8.24617e-06
-1.89633e-05
-0.0362017
-2.23987e-06
0.000173446
0.0993888
0.148635
-0.155374
0.0373414
0.0355819
-0.000315778
-0.000322461
0.00336041
2.32804e-05
7.89104e-07
-0.000185354
-8.73482e-07
-0.000142952
-0.000161767
-0.0057261
-0.0867914
-0.00758601
-0.0308427
0.0393049
0.0322797
0.0019112
-0.062285
-9.08411e-06
0.00164248
0.00603095
-0.000207751
0.0584777
-0.00190369
-0.00967776
0.00574235
0.00304604
-0.000717957
-0.00294271
0.0297548
0.000241054
-0.0154583
-0.0138191
0.418575
-0.0231437
0.0639187
0.000624939
-0.0408959
0.0009025
-3.35774e-05
-0.00122434
-3.29024e-05
-0.00116732
-0.0223448
-3.1351e-05
-0.000227879
0.245401
-0.00152386
-0.0339183
-0.0103909
-5.0313e-05
-0.00242687
-1.34522e-05
-3.98806e-06
0.0251078
-8.74274e-07
-0.00138061
0.0588748
0.00269642
0.000445654
0.0106628
-0.00428796
0.00215026
-0.157486
0.000232651
-0.0031662
-0.0484281
-0.000774553
-0.00613347
6.14154e-05
-0.00249376
0.000333455
0.0234341
-0.000555479
0.00284026
-0.0339353
-0.0173722
-0.000100025
-0.031143
-0.0116518
-0.00963415
-9.54703e-05
0.00360643
-0.0821387
-0.000408503
-0.00401968
-0.0295402
-0.00357732
-0.000683636
0.187813
-0.0254606
-4.73607e-06
0.00476685
-0.0527171
-0.000541946
0.162086
-0.003168
0.000357059
0.0464629
-0.00088414
0.00413596
0.104929
-0.000303765
0.000446797
2.17246e-05
-5.17698e-05
-0.00223074
-0.00818096
-0.000397597
-0.0190179
0.0788835
-0.024689
-0.0876481
0.000448676
-0.00203893
-0.000953339
-0.0728918
-4.83516e-05
0.0067882
-8.89119e-05
-0.00902771
-0.000991408
-0.00248974
-0.0618077
0.0961679
-0.0966659
-2.45653e-05
0.169489
-0.00211431
-0.00398299
-0.0433552
-0.103971
-0.0130446
-1.20466e-05
-0.00162233
0.00393089
-0.00183915
-0.00340861
-8.43128e-05
0.0690013
-0.0479944
-0.00856536
-0.0033952
0.00823659
-0.00693108
-0.00513897
0.000718866
-0.000547799
-0.00177394
0.0937222
0.000133664
-0.172965
-0.000211617
-0.00380841
-0.00507291
-0.115358
-0.00951418
-0.143968
-2.78175e-05
-3.13049e-05
-0.00898025
0.00579279
0.000118761
-0.171762
0.0679976
-0.0447035
1.71443e-05
-0.192266
-0.000272416
-0.204732
-0.0207119
-0.229612
-0.230737
-0.222809
-0.182278
-0.0948355
-0.059637
-0.0269199
0.00618538
0.0394608
0.134411
0.165176
0.19346
0.241125
-0.00424539
-0.00669911
0.0435155
-0.0252821
0.000211879
0.00234421
-0.0345537
-0.000203839
-0.00120847
-1.15945e-06
-0.0125551
0.0113678
1.18143e-06
-0.000693624
-0.00545973
-0.0170392
-0.229741
-0.0203859
-0.0498172
-0.000130028
1.21465e-05
-6.76718e-06
-0.0742664
-0.00783938
-0.0341418
-0.0169026
0.000649633
-0.000195101
0.00244011
-6.08937e-06
-0.0277983
-0.000122112
8.50419e-05
-0.0113567
-0.00614518