/*--------------------------------*- C++ -*----------------------------------*\
  =========                 |
  \\      /  F ield         | OpenFOAM: The Open Source CFD Toolbox
   \\    /   O peration     | Website:  https://openfoam.org
    \\  /    A nd           | Version:  7
     \\/     M anipulation  |
\*---------------------------------------------------------------------------*/
FoamFile
{
    version     2.0;
    format      ascii;
    class       volVectorField;
    location    "29";
    object      U;
}
// * * * * * * * * * * * * * * * * * * * * * * * * * * * * * * * * * * * * * //

dimensions      [0 1 -1 0 0 0 0];

internalField   nonuniform List<vector> 
7807
(
(1.08193 0.142645 6.12909e-21)
(1.06329 -0.0437444 1.04283e-21)
(0.995133 0.117057 -1.32107e-20)
(1.03921 0.0743837 1.83693e-20)
(0.999073 -0.00114428 -3.54191e-23)
(0.999955 -1.04822e-05 -4.77108e-24)
(0.989983 0.0973061 -2.63277e-20)
(0.993966 -0.00219871 -6.96267e-24)
(0.999866 -0.000210793 -7.34147e-24)
(1.0263 0.0014162 -8.59459e-22)
(0.999958 -1.25741e-05 5.26374e-24)
(1.00252 -0.00141905 -1.36681e-22)
(0.990726 -0.00280594 3.49578e-22)
(1.02226 -0.00194027 -5.49072e-21)
(1.02548 0.00177723 3.63812e-21)
(0.990341 -0.0179102 -7.03369e-22)
(1.08467 0.148878 -1.29046e-20)
(0.987469 -0.00362732 -1.21505e-22)
(1.00285 -0.0109474 -4.14189e-23)
(0.986756 -0.118613 -6.03299e-22)
(1.03913 -0.00403008 -1.88046e-21)
(1.00167 -0.000857753 2.55507e-22)
(1.02042 -0.00358982 4.72876e-22)
(1.01155 0.03365 -9.518e-21)
(0.983216 -0.00459265 -5.51997e-22)
(1.07707 0.141045 -6.16418e-21)
(0.999119 -0.00108744 -2.50903e-23)
(1.02619 -0.00192102 2.17282e-21)
(1.00538 0.0162842 -1.21655e-21)
(1.00448 -0.0116023 3.37378e-23)
(0.984738 -0.0191304 -1.25643e-21)
(0.86256 0.0426442 4.00044e-21)
(1.02021 -0.00437204 2.91264e-21)
(0.999466 -0.00045617 4.48794e-23)
(0.999884 -7.58153e-06 8.55693e-26)
(1.02631 0.000540854 1.2715e-21)
(1.00514 -0.0126879 4.1887e-23)
(0.994825 0.0946331 -4.20393e-21)
(0.995897 -0.00930556 5.78539e-22)
(0.999626 -6.73083e-05 4.35687e-23)
(0.99638 -0.00956778 -6.54635e-23)
(0.990456 -0.0167885 -2.58667e-22)
(1.02093 -0.12593 2.75303e-21)
(1.16867 -0.0384959 3.64589e-22)
(0.999777 -1.39953e-05 1.44674e-23)
(0.999911 -1.79649e-05 -4.44601e-24)
(1.00159 -0.000696761 -1.56026e-22)
(0.995661 -0.00851501 -3.42924e-22)
(0.999925 -3.4031e-05 -3.65257e-24)
(0.99215 -0.118754 8.76008e-22)
(1.00368 -0.00123932 1.48651e-22)
(1.02591 -0.00108011 -2.25611e-21)
(0.977958 -0.00556538 -1.8593e-21)
(1.0144 -0.034877 6.9004e-23)
(1.02685 -0.000191049 -7.52774e-22)
(0.994721 -0.00302257 -6.43449e-23)
(1.00272 -0.010175 9.03748e-23)
(0.993922 -0.00190412 4.78061e-22)
(0.973485 -0.0235503 -2.23314e-21)
(0.999445 -0.000406023 -5.73333e-23)
(1.00005 -2.65357e-05 -4.5877e-24)
(1.0048 -0.00135356 1.66336e-22)
(1.02249 -0.00124113 -1.29464e-21)
(1.00273 -0.00123565 1.38349e-22)
(0.998926 -0.00022059 7.98664e-23)
(0.985478 -0.0198321 2.16262e-22)
(0.999893 -0.000210574 5.78878e-24)
(1.00002 -2.92111e-06 2.50711e-25)
(1.15939 0.0812222 2.63475e-21)
(0.995866 -0.00806595 -1.04564e-22)
(0.999917 -2.20777e-05 3.94527e-24)
(0.967859 -0.0714095 -4.28543e-21)
(0.983961 -0.00508895 2.69507e-22)
(0.969187 -0.00705276 3.65796e-22)
(0.988041 -0.00400002 3.81001e-22)
(0.958477 -0.0347144 -4.85953e-22)
(0.999213 0.118514 2.12415e-20)
(1.03722 -0.00405414 2.3896e-21)
(1.09336 0.004134 -4.31063e-21)
(0.946636 -0.05978 -5.30588e-21)
(0.991176 -0.00310039 -5.36598e-22)
(0.999607 0.0601905 2.61219e-20)
(1.04403 0.00786459 5.59156e-21)
(0.968685 -0.0124912 1.68352e-21)
(0.998479 -0.00289199 -5.74161e-23)
(0.997474 -0.000369287 5.83794e-23)
(0.993563 -0.00290146 6.58162e-22)
(0.978852 -0.00621427 1.19608e-21)
(0.999289 -0.00134761 3.80493e-23)
(0.994943 -0.000779559 2.05797e-22)
(1.00566 0.018485 9.01412e-21)
(1.20049 -0.0179205 -5.73689e-22)
(0.99985 -6.16025e-05 -8.93835e-24)
(1.0022 -0.00863454 3.7868e-23)
(0.996006 -0.00119281 1.87057e-22)
(0.968766 -0.00392305 -2.9292e-21)
(0.970812 -0.0707364 3.11613e-22)
(1.01634 -0.0334418 8.5965e-23)
(0.998316 -0.0027903 1.87615e-23)
(0.998719 -0.000220778 2.64414e-23)
(0.938978 -0.0215655 1.25507e-21)
(1.09388 0.00961375 3.57379e-21)
(0.996234 -0.0013556 -4.66214e-22)
(0.999971 -1.47388e-06 -4.1136e-25)
(1.20255 -0.00506674 -5.0477e-22)
(1.03253 0.0340027 -8.59075e-21)
(0.931327 0.0304903 4.5485e-21)
(0.994361 -0.00285795 -2.67867e-22)
(0.999991 -2.8824e-06 1.11482e-25)
(1.02882 -0.0149625 -9.93937e-22)
(1.04255 0.0706957 -2.13364e-20)
(1.03666 -0.0903045 -3.18025e-21)
(0.999988 -3.40346e-06 -1.67947e-25)
(1.0307 -0.0153405 -2.17163e-22)
(1.02901 0.0324098 9.03546e-21)
(1.00048 -0.000652659 -1.16258e-23)
(1.09208 -0.10071 -1.50355e-22)
(1.03287 0.0195858 -2.07255e-21)
(0.981989 -0.0554072 1.83707e-21)
(0.968828 -0.00857726 -3.82934e-22)
(0.934496 -0.0141735 -3.02373e-21)
(1.0011 0.0296084 -1.70097e-20)
(1.02841 -0.123251 -3.7888e-21)
(1.01113 -0.0089452 8.36169e-23)
(0.936878 -0.016177 1.19219e-21)
(0.998959 -0.00156901 8.44882e-23)
(0.986049 -0.0144566 4.22374e-22)
(1.00338 -0.00967328 -6.17212e-23)
(0.998867 -0.000163033 -1.78145e-22)
(0.984797 -0.0176298 2.23045e-23)
(1.24121 -0.0308573 -5.30462e-22)
(1.0874 0.0013942 7.34624e-22)
(0.999337 -0.000622237 4.85392e-24)
(0.999167 -0.00138004 -7.42433e-23)
(0.967116 -0.0114537 5.01034e-22)
(1.03994 0.0636134 7.86283e-21)
(0.996274 0.0252499 3.05296e-20)
(0.999973 -2.78569e-06 -4.87459e-25)
(1.00827 -0.00355856 6.99464e-23)
(0.909372 -0.0180568 -3.79085e-21)
(0.971197 -0.00508571 -1.49323e-21)
(0.989784 -0.0764924 -2.75633e-21)
(0.959211 -0.0373443 6.59011e-22)
(0.970983 -0.00633514 -3.25255e-23)
(0.924097 0.0238477 1.78234e-20)
(1.01743 -0.0539167 -9.82432e-23)
(1.01175 0.0203079 -4.59176e-21)
(0.976469 -0.0279963 -1.16587e-21)
(0.956434 -0.00689488 4.12523e-22)
(1.00087 0.0460692 -8.45082e-21)
(1.02677 0.00101415 3.20327e-21)
(1.18685 -0.0225152 2.46312e-22)
(0.998378 -0.00230821 -1.98002e-22)
(1.16511 0.0730883 3.77178e-22)
(1.04184 0.00733133 -5.81388e-21)
(1.00706 0.097887 -2.11613e-20)
(0.952046 -0.041047 2.02597e-21)
(0.990719 -0.00216517 1.18996e-22)
(0.94159 0.0803484 3.9587e-20)
(0.999931 -2.89768e-05 -3.49473e-24)
(1.00169 -0.00913681 -2.09012e-23)
(1.01167 0.03699 6.86148e-21)
(0.999976 -2.24201e-05 2.52954e-24)
(0.998099 -0.00588819 -2.75941e-22)
(0.995481 -0.00115626 -8.94994e-23)
(1.00352 0.0385244 -2.24585e-21)
(1.00174 0.0270975 8.35631e-21)
(0.932993 0.0881952 1.3121e-20)
(0.99777 -0.0057048 -1.70656e-22)
(0.996515 -0.00043809 -1.01983e-22)
(1.00002 -3.68526e-06 -2.23336e-25)
(0.930244 -0.00865535 -5.18903e-21)
(1.00047 -0.000582357 1.60672e-23)
(1.06508 -0.0393335 -1.22605e-21)
(1.00862 -0.00384143 4.68101e-22)
(0.957541 -0.00816022 8.52255e-22)
(1.19144 0.00490855 -7.93464e-23)
(1.11228 0.0809195 2.19055e-22)
(0.999852 -7.60164e-05 4.91389e-24)
(0.999445 -0.000714684 -5.16887e-23)
(1.04069 0.0783807 -3.23041e-21)
(0.999931 -2.04553e-05 -1.67883e-24)
(0.999875 -1.43646e-05 2.37641e-24)
(0.990189 0.103159 -2.17207e-20)
(1.06609 -0.0474564 1.53199e-22)
(1.01856 -0.0775656 -1.75225e-21)
(0.984286 -0.0535177 -2.60619e-21)
(0.97208 -0.00910972 1.09908e-21)
(1.01395 -0.0558026 1.76689e-22)
(0.911662 -0.0152467 1.99735e-21)
(0.999974 -2.04499e-05 -8.76333e-25)
(0.971281 -0.0661466 -1.03275e-21)
(1.11491 0.08866 -5.89916e-21)
(0.996217 -0.00165181 6.69887e-23)
(1.00009 -7.70808e-06 -3.65392e-24)
(1.08215 0.084749 6.24506e-22)
(0.998612 -0.000448901 1.87711e-22)
(0.985782 -0.0169212 6.75042e-22)
(1.01032 -0.0530217 5.78009e-22)
(1.00002 -2.48594e-06 -9.77303e-26)
(1.00101 -0.00224988 -6.62906e-23)
(1.03605 0.0629764 9.75723e-21)
(1.10107 0.0952296 -7.8509e-21)
(1.00249 0.0871377 -2.84309e-21)
(1.08637 -0.0936781 1.38002e-21)
(1.04066 -0.0855395 7.37774e-22)
(1.15029 -0.128003 -5.41921e-22)
(1.02657 -0.00206525 6.44724e-21)
(1.03326 0.0591171 -3.18168e-21)
(0.999761 -2.53606e-05 -1.68044e-23)
(1.00004 -2.3663e-05 1.17959e-24)
(0.948823 0.0125453 -1.75518e-20)
(0.991838 -0.0160284 -2.43699e-22)
(0.99931 -0.00055415 -4.7915e-23)
(0.974101 -0.0648663 2.11543e-21)
(0.985379 -0.0152731 -4.94259e-22)
(1.01706 0.0909899 -2.36596e-20)
(1.01324 0.0883476 -5.01239e-21)
(0.986576 -0.0787234 7.6033e-22)
(0.890021 0.0593128 -1.51363e-20)
(0.998713 -0.000507832 -1.38235e-22)
(0.987516 -0.00313386 4.35169e-22)
(0.936426 -0.0197244 1.6477e-21)
(1.03693 0.000872513 -1.35265e-21)
(1.03075 -0.15693 -3.74123e-22)
(1.10433 0.139356 -1.28253e-20)
(0.941871 0.0707495 -3.38953e-20)
(1.00007 -0.000124088 3.93276e-24)
(1.01108 -0.00822553 2.3145e-22)
(1.03058 0.0222782 1.1216e-20)
(0.995765 -0.00700001 -4.37543e-22)
(1.03582 0.019995 -1.41794e-21)
(0.999413 -0.00146593 -1.26818e-23)
(0.90829 0.0992529 2.66082e-20)
(1.00761 0.0909993 4.65438e-21)
(0.993555 -0.00250575 4.17916e-22)
(1.00431 -0.00970923 -1.02356e-23)
(0.99965 -7.65714e-05 -8.10773e-23)
(1.13899 0.111103 2.95674e-21)
(0.999892 -1.21218e-05 7.14947e-24)
(0.994273 -0.0129163 2.08157e-22)
(0.922637 -0.0396405 2.2827e-21)
(0.999917 -3.00423e-05 -1.63867e-24)
(0.998608 -0.00337521 -4.79344e-23)
(0.999542 -0.00142288 2.2585e-23)
(1.07425 0.0526637 8.07353e-21)
(0.999977 -2.90191e-05 3.11056e-24)
(0.994726 -0.00059992 2.47405e-25)
(0.949633 -0.0591876 6.1509e-21)
(0.864075 0.0319147 -8.83344e-21)
(1.08668 -0.00393893 -9.9219e-22)
(0.921215 0.0673407 2.04262e-20)
(0.999947 -9.2779e-06 -4.31682e-24)
(1.00745 -0.0541244 -4.02275e-23)
(0.99979 -0.000363747 -1.92e-23)
(1.00169 0.100149 -2.12796e-20)
(1.00448 -0.000919039 -2.14375e-22)
(0.994398 0.0354622 9.9278e-21)
(1.00344 -0.0117167 -1.72526e-22)
(1.0009 -0.00241591 7.01977e-23)
(1.03651 -0.0380455 -3.63373e-22)
(1.02646 -0.00101134 -5.97264e-21)
(1.00066 -0.000389996 3.39718e-23)
(0.99974 -6.3251e-05 4.6756e-25)
(1.00058 -0.000525694 7.58607e-23)
(0.995547 -0.00743219 -3.9134e-22)
(1.02746 -0.0797539 1.98471e-21)
(0.99995 -1.24008e-05 2.91277e-24)
(0.954031 -0.0392272 1.43092e-21)
(0.995713 -0.00132639 -1.69171e-23)
(0.999837 -5.31445e-05 9.47701e-24)
(0.99929 -0.000689338 1.55044e-23)
(0.988423 0.0619562 2.40095e-20)
(0.990671 -0.00101122 1.71745e-22)
(0.999126 -0.000123336 -1.61623e-23)
(0.897194 0.0142387 3.37808e-20)
(0.998428 -0.003246 -1.08436e-22)
(1.0665 0.109423 -7.4326e-21)
(0.999766 -0.000336082 3.40625e-23)
(1.01022 -0.0262979 3.03971e-23)
(1.00002 -2.08235e-06 -9.24877e-26)
(0.9806 -0.0447779 -1.03905e-21)
(1.03629 0.000389406 2.09315e-21)
(1.19274 0.0153343 -3.42013e-22)
(0.973872 -0.0253367 1.8944e-21)
(0.999535 -0.000722408 5.99383e-23)
(0.983135 -0.101201 1.3335e-21)
(0.980205 -0.000601884 7.86359e-22)
(0.999792 -2.27379e-05 9.79779e-25)
(1.00056 -0.000460123 -6.71192e-23)
(0.997669 -0.0042339 1.48666e-22)
(0.991119 -0.00180918 -5.145e-22)
(1.00345 -0.00111227 -2.53474e-22)
(0.998614 -0.002324 7.15748e-23)
(0.970327 -0.0116361 2.64708e-22)
(1.03271 -0.0765017 -1.45796e-21)
(0.970446 -0.0097716 1.17211e-21)
(1.1604 -0.0302896 -7.11581e-23)
(0.960302 -0.0110193 -1.48867e-21)
(1.01973 0.115607 2.37257e-21)
(1.01533 0.118493 -1.74583e-20)
(0.998275 -0.000926982 -1.19944e-22)
(1.21637 0.0150449 -1.59795e-21)
(0.999981 -3.80005e-06 -2.80901e-25)
(0.99763 -0.00524455 -1.81321e-22)
(0.967914 -0.00274316 2.99385e-21)
(1.00865 0.0300408 5.69073e-21)
(1.04521 0.0131795 -5.46635e-21)
(1.00011 -3.93721e-05 8.54868e-24)
(0.997778 -0.00494459 -1.21482e-23)
(0.961795 -0.0121721 1.12222e-21)
(1.05763 0.0458421 -3.27613e-21)
(0.998872 -0.00144573 6.26289e-23)
(1.0039 -0.000907213 1.43367e-22)
(1.00143 -0.00118483 -1.25605e-23)
(1.13913 0.0307781 3.62037e-21)
(1.24143 -0.0446828 -3.39263e-21)
(1.04181 0.13803 1.10481e-20)
(0.998164 -0.000299823 -1.16491e-22)
(1.07653 -0.0443215 -7.34517e-22)
(0.999869 -8.16142e-05 -7.91397e-24)
(1.00568 -0.00856879 -4.92109e-22)
(0.999937 -1.63969e-05 -1.20917e-24)
(0.983187 -0.0267501 3.34382e-22)
(0.999602 -9.04364e-05 -1.54412e-23)
(1.01548 -0.0255682 1.15353e-22)
(1.24054 0.019482 2.29271e-21)
(0.968383 -0.0363016 2.28184e-21)
(1.0116 -0.0255158 -4.77758e-23)
(1.00993 -0.00739947 -3.01877e-22)
(0.999159 -0.000160723 7.25712e-23)
(1.03162 -0.0197112 7.00576e-22)
(0.996804 -0.0231429 3.22469e-22)
(1.0873 0.0145835 -2.14892e-21)
(1.0687 0.0502749 3.69924e-21)
(1.20842 -0.132791 1.01159e-22)
(1.16619 -0.049374 -1.44007e-21)
(0.979318 -0.00122051 -8.40256e-22)
(1.0059 -0.00427337 4.58703e-22)
(0.925716 -0.0374546 -8.80019e-22)
(0.923712 0.087334 -4.09548e-20)
(1.14449 -0.0523572 1.24542e-21)
(1.03147 -0.0117479 -2.76074e-21)
(0.899764 0.064128 -2.05126e-20)
(0.998227 -0.000227798 5.75903e-23)
(0.99798 -0.0011442 -3.69085e-23)
(1.18404 -0.0340333 -1.34309e-21)
(0.998788 -0.00251672 -3.86502e-23)
(1.01747 -0.0500998 1.47172e-22)
(1.00674 -0.00207764 1.60631e-22)
(0.996688 -0.00051149 -9.09099e-23)
(0.99758 -0.00042716 -1.43831e-22)
(1.03632 0.028786 6.56758e-21)
(0.999923 -0.000180126 -8.78594e-25)
(1.00063 -0.000317971 -3.024e-23)
(1.0001 -1.58098e-05 6.24904e-24)
(0.995929 -0.000805861 4.81496e-22)
(0.992787 -0.0113764 5.4316e-22)
(0.99998 -2.85787e-06 2.21089e-25)
(0.998731 -0.000300982 1.48727e-23)
(0.974784 -0.0222732 6.65552e-22)
(0.947435 0.0187109 1.09657e-20)
(1.01387 -0.0266992 -2.24847e-23)
(0.991878 -0.0150232 8.75593e-22)
(0.96069 0.0692872 4.695e-21)
(1.00089 0.0285499 1.51206e-20)
(1.07598 0.00221558 -1.74198e-21)
(1.20675 0.0205948 3.86229e-22)
(0.928385 -0.00639324 2.82825e-21)
(1.00586 -0.00494309 -2.26822e-22)
(1.01 0.0494263 -8.35632e-22)
(0.986412 -0.00278103 -1.03945e-21)
(1.04577 0.108965 3.12055e-22)
(1.01382 -0.0599999 1.91446e-23)
(1.05642 -0.13629 -1.35e-21)
(1.0959 0.0916247 4.87231e-21)
(1.04862 0.11494 -9.74931e-21)
(0.955643 -0.0337819 3.16706e-21)
(1.04637 0.0109208 -3.53196e-21)
(1.10976 0.14415 1.19914e-20)
(1.06015 0.110041 1.40894e-20)
(1.02771 -0.00221985 2.03026e-21)
(0.996459 -0.00178201 1.05312e-22)
(0.995066 -0.00276756 9.16683e-23)
(0.999896 -2.92486e-05 -3.78483e-24)
(1.0213 -0.0327152 1.02251e-22)
(0.986013 -0.00233421 2.44425e-22)
(1.00121 -0.0028206 -5.83508e-23)
(0.999875 -2.94804e-05 -6.97192e-24)
(0.998127 -0.000848016 4.68196e-23)
(0.979471 -0.100085 -2.20506e-21)
(1.12082 0.0426739 1.87167e-21)
(0.978725 -0.00766109 -1.34273e-21)
(0.999534 -0.0150681 3.54512e-22)
(0.995509 -0.000886153 -2.58229e-22)
(1.07342 -0.0476837 -3.08569e-25)
(0.991525 -0.00189627 -8.24973e-22)
(1.00299 -0.00877481 1.82435e-22)
(1.12304 0.137245 1.92686e-21)
(0.997839 -0.000406081 -3.34176e-22)
(0.999974 -5.54946e-05 -2.26504e-24)
(0.999938 -0.000217234 -1.11708e-24)
(1.00006 -0.000126973 4.67841e-24)
(0.973407 -0.0101189 6.16813e-22)
(1.03451 0.0263711 -7.77556e-21)
(0.99523 -0.00067545 1.01553e-23)
(1.02682 -0.0103786 1.78684e-21)
(1.04144 -0.162288 2.72416e-21)
(0.996086 0.0888255 -4.57206e-22)
(1.00483 -0.00878449 1.62504e-22)
(1.00779 -0.00547107 -7.52232e-23)
(0.993973 -0.0031171 -3.32367e-22)
(0.993126 0.0614066 -2.34884e-20)
(0.998771 -0.000157928 4.81799e-23)
(1.04593 0.142261 -5.5856e-21)
(1.00915 0.0210154 -8.86227e-21)
(0.999864 -3.61898e-05 8.13923e-24)
(1.01135 -0.0612477 -1.04664e-21)
(0.996075 -0.000931765 -2.37819e-22)
(0.994298 -0.0772284 3.37168e-21)
(1.00066 -0.000170672 3.03219e-23)
(1.07058 0.00499259 2.46549e-21)
(1.00904 -0.0191671 -6.03378e-24)
(1.0073 -0.00496855 3.89156e-23)
(0.99901 -0.00019442 -9.6349e-23)
(1.07959 0.0498456 3.905e-21)
(1.05271 0.0440042 1.27696e-21)
(1.01638 -0.081202 1.73144e-21)
(0.975968 -0.0259443 -1.27262e-22)
(0.99754 -0.00452302 -1.28007e-22)
(1.00333 -0.0494165 -1.918e-21)
(1.16009 0.0629179 -3.29727e-21)
(0.87069 0.0494226 -1.93688e-20)
(1.10701 -0.0843122 -1.42818e-21)
(1.00626 -0.00924607 -7.53092e-23)
(0.999992 -3.81065e-06 -9.32145e-26)
(0.983898 -0.00619238 -1.07684e-21)
(0.997345 -0.000466498 3.10559e-22)
(1.03019 -0.020029 1.01704e-21)
(1.01747 -0.132569 -1.13035e-21)
(1.216 0.00104872 8.32301e-22)
(0.985215 0.0838949 -2.8884e-20)
(1.06199 0.042387 5.38381e-21)
(1.15069 -0.114503 2.37504e-21)
(1.08215 0.0917576 2.0786e-21)
(0.999524 0.0303877 2.77864e-20)
(1.02222 -0.00280104 1.48916e-21)
(1.00144 -0.00272789 1.34244e-22)
(1.02777 0.0669645 4.9249e-21)
(0.999019 -0.00245127 8.59991e-23)
(0.999787 -0.000201556 7.61438e-24)
(0.977609 -0.00255773 3.75633e-22)
(1.00011 -3.8704e-05 1.57836e-24)
(1.16235 -0.136003 1.37619e-21)
(1.00546 -0.0214095 -6.60238e-23)
(0.983238 -0.0439287 1.74309e-21)
(1.00221 -0.00186093 6.95719e-23)
(1.07602 0.0813887 1.11915e-20)
(0.997934 -0.000385471 -2.75604e-23)
(0.999971 -4.44026e-05 -1.56179e-25)
(1.0487 -0.14332 1.48434e-21)
(1.00196 -0.00160992 -4.07238e-23)
(1.12103 -0.0016805 -5.14958e-22)
(0.942234 -0.0201701 5.85591e-22)
(0.914186 -0.0248176 2.95523e-22)
(1.2179 0.0658769 -7.91366e-23)
(1.02776 0.0212811 -2.9285e-21)
(1.02371 0.00628943 1.80332e-21)
(1.02221 0.00591579 -7.22812e-22)
(0.999761 -5.21026e-05 2.67312e-24)
(1.12948 0.0420437 1.42502e-21)
(1.08768 0.0192261 2.4987e-21)
(0.999401 -0.000776721 2.29189e-23)
(0.979729 -0.0083084 1.55998e-21)
(1.00072 -0.00024661 -3.37522e-23)
(1.01526 -0.0234639 -7.34587e-22)
(1.01219 -0.0339464 -4.67854e-23)
(1.00523 -0.00161192 1.19698e-24)
(0.999121 -0.00154602 -1.0255e-22)
(1.13735 0.102746 -9.07238e-21)
(0.999974 -2.65857e-05 -3.4972e-24)
(1.00024 -0.000131621 -8.63075e-24)
(1.00233 -0.00126422 -2.99719e-24)
(0.972181 -0.00438629 1.0393e-21)
(1.02266 -0.0126391 1.26084e-21)
(0.981729 -0.0370363 -2.47081e-21)
(0.965394 -0.00687976 -6.06704e-22)
(1.02266 -0.0762332 9.81308e-22)
(1.06669 -0.170869 -2.93296e-21)
(1.03408 -0.0349348 2.6609e-22)
(1.03236 0.0676751 -2.80715e-20)
(1.23014 0.0251884 -1.68278e-21)
(0.992182 -0.00319316 -4.28627e-23)
(0.903176 0.0929087 3.17568e-20)
(0.974347 -0.073117 3.69569e-21)
(0.992433 -0.0120871 1.70246e-22)
(0.966318 -0.00569557 9.96509e-22)
(0.998145 -0.0222806 -9.38907e-23)
(0.973983 -0.00318069 1.59121e-21)
(0.987981 -0.00487856 -3.14069e-22)
(1.03198 -0.0138386 -1.90898e-21)
(1.15422 -0.0558324 -2.96696e-22)
(0.999969 -5.17639e-05 -2.85203e-25)
(1.02757 -0.0136614 -2.1211e-22)
(0.999887 -3.60317e-05 -4.00109e-24)
(1.01196 0.10079 5.67155e-21)
(1.16108 0.0879637 6.06664e-21)
(0.994331 -0.00237801 1.05174e-22)
(0.982795 -0.00221699 -1.43182e-21)
(0.999781 -6.44208e-05 -1.93323e-23)
(0.998711 0.0545476 1.74648e-20)
(1.03493 0.113856 1.30151e-20)
(1.13242 0.0328822 -1.92608e-21)
(1.14452 0.130267 -7.43626e-21)
(0.974698 -0.0776433 -1.59704e-21)
(0.998576 0.00911265 -2.64126e-20)
(0.999928 -0.000159311 4.04981e-24)
(1.05756 -0.0284964 2.23803e-21)
(0.977133 -0.00195162 -5.80729e-23)
(1.10385 0.0783346 -2.26019e-21)
(0.931886 0.0641694 -2.48791e-20)
(1.16438 0.0554309 3.73497e-21)
(1.05584 0.0351462 9.0215e-22)
(1.00035 -0.0148965 -5.79677e-23)
(0.999765 -0.000100385 -1.76547e-23)
(1.14684 0.114367 3.07868e-21)
(1.22689 -0.0233545 4.88599e-22)
(0.995966 0.0645162 -5.44757e-22)
(1.11297 -0.00345034 3.50828e-21)
(1.03514 0.0548351 8.27495e-21)
(0.9917 -0.00285597 -1.46922e-22)
(0.992232 0.0840941 7.83437e-21)
(1.03921 0.108342 4.57973e-21)
(0.989357 -0.00410746 -8.80259e-22)
(0.991146 -0.00380991 -3.27075e-22)
(1.1582 0.103644 1.11769e-22)
(0.910633 -0.0230423 -4.01648e-21)
(0.999902 -0.00018501 -6.13136e-24)
(0.984706 -0.0066789 1.38549e-21)
(0.918352 -0.0322281 2.95286e-21)
(0.992911 -0.0965017 -4.67133e-22)
(1.01119 -0.00280641 -1.29569e-21)
(1.00992 -0.00671493 8.31736e-23)
(0.999856 -0.000230321 -1.0949e-23)
(1.0373 0.119882 -1.95673e-20)
(1.00073 -0.0135038 9.57385e-24)
(0.99988 -7.10126e-05 3.54535e-24)
(1.03176 -0.0700044 1.08916e-21)
(0.999427 -0.000510499 2.02818e-23)
(0.99974 -8.98869e-05 1.36559e-24)
(1.00655 -0.0141823 -8.67627e-23)
(1.06363 0.0814172 1.53502e-20)
(1.03638 -0.128646 2.02924e-21)
(0.951263 0.0648385 1.4566e-20)
(1.00008 -1.16941e-05 -4.29995e-24)
(1.06945 0.0853439 -1.59915e-20)
(1.02171 -0.0605797 8.28879e-22)
(0.999912 -0.000226634 -1.7184e-24)
(1.00003 -7.36541e-06 -1.15691e-24)
(1.00292 0.0119458 -1.46144e-21)
(1.05877 0.0705526 5.74891e-21)
(0.995419 -0.0029178 9.12618e-23)
(1.05385 0.0551898 -7.47557e-21)
(1.00003 -2.38171e-05 8.41386e-25)
(1.05399 0.0611162 -1.0338e-20)
(1.19235 -0.137687 3.28837e-21)
(0.988765 -0.00368639 9.68597e-22)
(0.999252 0.0146136 -3.59236e-20)
(0.974213 -0.0609238 2.45171e-21)
(1.14874 0.12379 7.22606e-21)
(0.967931 -0.00567036 6.09523e-22)
(1.05908 0.064375 1.34718e-20)
(1.06418 0.0741277 -4.16109e-21)
(0.980814 -0.0102349 2.25191e-21)
(0.974679 -0.012656 -1.65849e-21)
(0.994421 -0.0120022 5.07673e-22)
(0.996742 -0.000870048 -7.82255e-23)
(0.99977 -0.000224183 2.04122e-23)
(1.00044 -0.0129358 -1.74018e-23)
(1.0498 0.102802 -2.32069e-21)
(0.999967 -4.06237e-05 8.58343e-25)
(1.04885 0.052723 9.88759e-21)
(1.05373 -0.126035 3.18069e-21)
(1.00717 0.0673772 6.81613e-21)
(1.04849 0.0476147 -1.12601e-20)
(0.914742 -0.0302685 -3.61254e-22)
(0.958265 0.082893 -3.04541e-20)
(0.998203 -0.00136512 6.58032e-24)
(1.02071 -0.0300488 3.10948e-22)
(1.07143 -0.0872564 7.86603e-22)
(0.975144 -0.00299004 -9.73237e-23)
(0.992659 -0.00401129 4.35992e-22)
(1.01858 -0.0625597 -7.41241e-22)
(1.06463 -0.0183077 -2.31461e-22)
(0.911266 0.0580416 3.90176e-20)
(1.00005 -2.24964e-05 4.40323e-24)
(0.997875 -0.00145684 8.94819e-23)
(1.03087 -0.0901194 5.1034e-23)
(1.00002 -5.92239e-06 1.18354e-25)
(1.0127 0.107292 2.78862e-21)
(1.00199 -0.00139197 0)
(1.00001 -7.83757e-06 8.36986e-26)
(1.00022 -0.000102406 2.02014e-23)
(1.00046 -0.000142301 4.17016e-25)
(0.983489 -0.0250062 1.66996e-21)
(1.02734 -0.0189129 -7.31794e-22)
(0.998283 -0.00106477 1.4143e-22)
(0.999901 -2.03961e-05 7.52119e-24)
(0.992164 -0.00376232 2.42256e-22)
(1.00581 -0.0147981 -6.25706e-23)
(1.00449 -0.142931 -3.08855e-21)
(0.922017 -0.0101688 2.86222e-22)
(1.02178 -0.0112876 2.20749e-21)
(0.999969 -3.24863e-06 2.61073e-24)
(1.14209 -0.16901 4.12032e-21)
(0.984931 -0.00465336 -5.55326e-22)
(1.14431 0.0950045 -4.92185e-22)
(1.00028 0.0117243 -4.97024e-21)
(1.0015 -0.00410837 3.11086e-23)
(1.13134 0.0837303 -8.55011e-21)
(1.00018 -0.00011088 2.73097e-26)
(0.985678 -0.00521146 1.62346e-23)
(1.02664 0.00100058 -3.67653e-21)
(0.992703 -0.00456442 -1.78536e-22)
(1.06555 0.0960513 -9.20737e-22)
(0.985623 -0.0081396 -1.04629e-21)
(1.05895 -0.0253566 -1.94735e-21)
(1.02704 0.00176749 -3.94934e-21)
(1.06782 0.0446326 -2.28455e-21)
(1.00931 -0.0175699 -3.40008e-22)
(0.988615 -0.00525041 2.6098e-23)
(1.08916 0.0805154 6.89095e-21)
(0.985333 -0.106887 -2.65222e-21)
(1.0005 0.105939 2.33749e-20)
(0.989983 -0.00592402 -1.01903e-21)
(1.06961 0.12234 -1.46863e-22)
(0.989946 -0.00519408 2.72202e-22)
(0.998719 -0.000611569 -9.26209e-24)
(1.05532 0.0315002 2.53524e-21)
(1.01934 -0.0345222 -4.63614e-23)
(1.04095 0.00410861 5.4822e-21)
(1.00205 -0.000973663 4.52933e-23)
(1.00001 -6.14858e-06 3.81534e-26)
(1.02293 -0.161142 1.1454e-21)
(1.121 0.130648 -1.05804e-20)
(1.00177 -0.00398475 -4.32965e-23)
(1.14091 0.0856714 8.02973e-22)
(0.986428 -0.00757713 -6.8478e-22)
(1.13247 -0.178899 -1.60798e-21)
(1.0574 -0.0446965 -1.7885e-23)
(0.981428 -0.0394181 1.38934e-21)
(0.998154 -0.0011904 -5.97111e-23)
(0.990208 -0.00130955 -2.06474e-22)
(0.975607 -0.0921819 -1.53731e-21)
(0.965342 -0.0122914 2.28576e-21)
(0.989311 -0.00484827 7.20167e-22)
(0.999839 -0.000520344 9.42741e-24)
(0.993142 0.111705 -2.87933e-21)
(1.12807 0.0750215 5.18698e-21)
(1.02833 -0.0114606 -6.84084e-22)
(0.999779 -0.000174452 1.36789e-23)
(1.03659 0.102446 -8.81845e-21)
(1.00001 -2.84929e-05 -3.0914e-26)
(0.999796 -0.00015553 2.71981e-23)
(1.11893 0.0735138 4.54812e-21)
(1.01377 -0.0291048 1.86526e-22)
(1.1303 0.118292 8.63841e-21)
(1.02664 -0.00289596 1.53652e-21)
(1.01998 -0.014225 -1.49803e-22)
(1.11612 -0.0675325 7.50875e-22)
(1.08459 -0.152848 3.23249e-21)
(1.21836 0.0576014 -2.89717e-22)
(1.00144 -0.000996702 -9.91411e-23)
(0.944719 -0.0219416 -2.27242e-22)
(0.999979 -6.79802e-05 -6.86804e-25)
(1.00612 -0.0129025 6.16699e-23)
(1.06973 0.091841 5.71336e-21)
(0.981861 -0.0095647 1.57226e-21)
(0.996925 -0.00174122 1.23589e-22)
(1.02085 -0.0480815 -4.3191e-22)
(0.997837 -0.00128579 8.48788e-24)
(0.99957 -0.00127978 2.73279e-23)
(0.903603 0.0135096 6.95845e-21)
(0.989372 -0.0063843 -5.76657e-22)
(0.999402 -0.000848087 -7.91696e-23)
(0.99998 -7.28796e-07 -5.70965e-25)
(1.01875 0.00736284 7.86079e-21)
(0.969217 -0.0338995 -3.46236e-22)
(0.999643 -0.000640005 2.41488e-23)
(0.99693 -0.00101225 1.59488e-22)
(1.02542 0.0235536 3.20661e-21)
(1.07576 0.0139876 5.74887e-22)
(0.955265 -0.0308514 -1.96637e-21)
(1 -1.80926e-05 -2.65414e-25)
(1.0012 0.0118674 2.11577e-20)
(0.984868 -0.0216677 -1.13683e-21)
(1.07588 0.0744274 -1.12431e-20)
(1.01444 -0.00139146 -1.96211e-21)
(1.01665 -0.0014001 4.4756e-21)
(0.963314 -0.0153589 3.11339e-21)
(0.999894 -7.53769e-05 -2.33928e-24)
(1.02632 0.000441079 -7.17333e-22)
(1.08133 0.011323 -7.94586e-22)
(1.1952 0.0622601 2.25773e-21)
(1.06052 -0.118731 6.53765e-22)
(1.04637 0.0971256 6.94522e-21)
(1.00645 -0.00192404 -3.17093e-23)
(1.09629 0.0844166 -9.46852e-21)
(1.0006 -0.0174116 -9.97053e-23)
(1.02666 -0.0677117 -1.99263e-21)
(0.999568 -0.000192604 -2.58312e-23)
(1.00479 -0.0228924 1.27708e-22)
(0.999888 -0.000498878 4.06382e-24)
(1.0514 0.0383485 -7.48948e-21)
(1.08931 0.130996 -1.98822e-20)
(0.998375 -0.00140447 4.74817e-23)
(1.02163 -0.0142904 3.85313e-23)
(0.980046 -0.00577777 5.41265e-22)
(1.06291 -0.102297 2.71196e-22)
(1.05717 -0.109787 -1.593e-21)
(0.997945 -0.00101555 9.40173e-23)
(1.05377 -0.0294636 -7.67532e-22)
(0.912165 0.00394613 -1.17559e-20)
(1.19181 0.0430043 1.36422e-21)
(0.999941 -0.000193285 8.95811e-24)
(1.0707 0.0107564 -2.06881e-21)
(0.99701 -0.0108514 -2.47483e-22)
(0.995151 0.0023698 2.5043e-20)
(0.986403 -0.00662877 9.5242e-22)
(0.996841 -0.0325493 -3.04384e-22)
(1.02334 -0.042207 -3.52143e-23)
(0.995262 -0.033768 -4.77641e-23)
(0.999473 -0.0257292 -6.77702e-22)
(0.991638 -0.0040824 1.66952e-22)
(0.999545 -0.0173026 3.65719e-22)
(1.00236 -0.00742839 -4.93877e-23)
(1.06654 -0.0223688 5.31234e-22)
(1.00012 -2.91324e-05 -1.24601e-23)
(1.22983 -0.0909573 -1.24636e-21)
(1.17803 -0.000353065 3.96843e-23)
(1.02447 0.11733 1.605e-20)
(0.957584 -0.0291063 2.98209e-21)
(1.12124 0.113925 -4.40853e-21)
(1.00219 -0.000757908 1.61293e-22)
(1.08977 -0.0836345 -3.43498e-23)
(1.0084 -0.0465112 -7.17414e-22)
(1.022 0.0407517 9.23675e-21)
(0.992241 -0.00493614 4.13881e-22)
(1.00012 -0.000213467 8.0907e-24)
(0.98576 -0.022524 1.48282e-21)
(0.995398 -0.0116513 -1.92497e-22)
(1.05017 -0.0268641 1.637e-21)
(0.967204 -0.00938344 -1.93346e-21)
(0.973281 -0.0118374 5.47363e-22)
(1.14726 -0.0321376 1.42894e-22)
(0.98323 -0.00373248 -9.41084e-22)
(1.02048 -0.0444408 2.68172e-22)
(0.995578 -0.102037 1.89697e-21)
(1.00001 -9.46521e-06 6.088e-26)
(1.06766 -0.0136368 2.98954e-21)
(0.996572 -0.0912634 -5.02416e-21)
(1.12717 0.0994696 4.10608e-21)
(1.11748 -0.0756817 -1.49245e-21)
(1.03923 0.00352179 4.64638e-22)
(1.04419 -0.122974 -4.10284e-21)
(1.04719 0.12732 4.25873e-21)
(1.04328 -0.0402142 5.03572e-22)
(0.961592 -0.0142239 -1.84261e-21)
(1.0214 -0.0562133 -9.38933e-22)
(0.959938 0.00565197 1.11722e-20)
(1.19034 -0.100345 7.34462e-22)
(0.985612 -0.00617311 -2.89448e-22)
(1.05087 -0.154692 -3.20877e-22)
(1.03817 -0.0786909 1.33583e-21)
(1.06738 -0.139224 -6.14274e-22)
(1.05897 -0.0944312 -1.58901e-21)
(1.08851 0.0733334 8.76673e-21)
(0.996957 -0.00200072 8.14024e-24)
(1.00861 0.0467505 3.44823e-21)
(1.00865 -0.00182412 2.325e-22)
(0.999572 -0.00064734 -3.4373e-23)
(0.998718 -0.00279211 2.35713e-22)
(1.06609 0.00318509 -7.45844e-22)
(0.862147 0.004762 3.37997e-22)
(1.00196 -0.00794976 2.51976e-23)
(1.0262 -0.0627603 2.86572e-22)
(1.02561 0.0269327 -5.32578e-21)
(1.00003 -8.71512e-06 -2.19045e-25)
(0.976001 -0.0118703 1.32273e-21)
(1.02531 -0.0107348 1.58648e-21)
(1.08934 -0.0427976 5.99961e-22)
(1.00878 -0.000936912 1.30469e-21)
(0.998267 -0.00249043 4.29218e-23)
(0.983649 -0.0500246 3.05241e-23)
(0.997776 -0.0104122 -7.29218e-23)
(1.00004 -6.95158e-06 2.34238e-24)
(0.976865 -0.0594998 -4.13328e-21)
(1.05592 0.0903372 -2.45636e-21)
(1.02503 -0.0365878 1.45486e-22)
(0.980976 -0.00652791 -1.01311e-21)
(1.002 -0.000507692 -5.78806e-23)
(1.02895 0.0289068 7.01762e-21)
(0.999582 -0.000785037 -1.57074e-23)
(0.998633 -0.000801756 -4.84243e-24)
(0.999605 -0.000210702 -2.36669e-23)
(0.999207 -0.00262474 -5.98052e-23)
(1.18185 0.0631375 2.22724e-21)
(1.03557 -0.0409756 4.93041e-22)
(1.0101 -0.0221661 1.03038e-22)
(0.979696 -0.00964101 -4.62435e-22)
(1.00005 -6.28006e-05 2.2522e-24)
(1.10612 -0.142245 4.31667e-21)
(1.22729 -0.00633779 8.74762e-23)
(1.11515 -0.152758 -2.0816e-21)
(0.998791 -0.0413806 -5.69587e-22)
(1.01571 -0.0106761 1.482e-21)
(0.999766 -0.000122648 1.11605e-23)
(0.987412 -0.0146628 -5.94534e-22)
(0.952907 -0.0624241 -2.40968e-21)
(1.1805 0.044774 3.73157e-22)
(1.00558 0.0653823 -2.46121e-22)
(0.998767 -0.0039513 4.77042e-23)
(0.934076 -0.0447796 1.34772e-21)
(0.994785 -0.00346222 -3.97139e-22)
(1.04062 -0.0371588 -6.28475e-23)
(1.10185 0.0702882 8.83647e-22)
(1.00049 -0.000164387 -4.71497e-23)
(0.999827 -0.000264796 -4.3104e-24)
(1.15603 0.110372 8.15809e-22)
(1.17597 0.0248698 -6.9903e-23)
(1.02102 -0.0177923 5.39198e-22)
(0.996747 -0.00218262 2.10332e-22)
(0.997685 -0.00057855 -2.09178e-23)
(0.961928 -0.0629268 5.89349e-22)
(0.99981 -0.000435481 -1.41093e-23)
(1.02261 -0.038832 9.73407e-23)
(0.984793 -0.00183506 1.94157e-21)
(1.00044 0.0138336 -4.12471e-21)
(1.06027 0.0959859 -1.27451e-21)
(1.08299 -0.0775804 5.82952e-22)
(1.00168 -0.0913382 1.86042e-21)
(1.00718 -0.00169868 6.4676e-22)
(1.01807 -0.0290501 -4.42903e-22)
(1.16795 0.00668362 1.06847e-21)
(1.00218 -0.10192 -1.16665e-21)
(1.02479 -0.0537972 5.27117e-22)
(0.999998 -9.13422e-06 1.25728e-25)
(1.15461 -0.0103231 3.1594e-22)
(0.969855 -0.00381433 1.83231e-22)
(1.00237 -0.113585 2.32551e-21)
(1.02414 -0.0336148 -6.36717e-22)
(0.947446 -0.0207271 -4.12937e-22)
(0.999558 -0.000369372 -1.15831e-23)
(0.996692 -0.00163207 -9.39329e-23)
(1.04391 0.0453916 8.69547e-21)
(0.965259 -0.0143426 -6.99974e-22)
(0.999983 -2.5868e-06 6.08867e-25)
(0.996814 -0.000676073 -2.20374e-22)
(1.18466 -0.0844924 -4.67614e-21)
(0.999815 -6.34882e-05 2.86545e-23)
(1.02967 -0.0600038 -1.68403e-22)
(0.999946 -0.000153808 -6.38662e-25)
(1.00806 -0.0164799 -1.66875e-24)