/*--------------------------------*- C++ -*----------------------------------*\
  =========                 |
  \\      /  F ield         | OpenFOAM: The Open Source CFD Toolbox
   \\    /   O peration     | Website:  https://openfoam.org
    \\  /    A nd           | Version:  7
     \\/     M anipulation  |
\*---------------------------------------------------------------------------*/
FoamFile
{
    version     2.0;
    format      ascii;
    class       surfaceScalarField;
    location    "20";
    object      phi;
}
// * * * * * * * * * * * * * * * * * * * * * * * * * * * * * * * * * * * * * //

dimensions      [0 3 -1 0 0 0 0];

internalField   nonuniform List<scalar> 
43924
(
-594.9
666.104
-71.2043
1063.46
-1072.45
8.98965
-335.082
382.492
-47.41
228.087
-259.231
31.144
-498.56
498.56
222.23
-264.664
42.4339
-368.201
364.689
3.51223
25.5202
-562.429
536.909
663.528
-833.456
169.928
-1009.28
1102.25
-92.9716
553.841
-143.357
-410.484
-531.129
536.618
-5.489
-687.865
582.678
105.186
-859.816
868.877
-9.06127
264.812
60.3906
-325.203
385.947
-10.4883
-375.458
814.614
-666.855
-147.759
-405.382
402.176
3.20628
161.271
314.777
-476.048
290.814
-357.471
66.6569
-594.072
81.6582
512.414
724.396
-60.8682
50.0794
-385.161
136.566
-489.548
352.982
234.618
-125.191
-109.427
1067.77
-4.31347
659.869
-681.017
21.148
-279.367
-1.00644
280.373
302.904
-38.0918
-441.538
543.839
-102.301
951.605
-248.922
-702.683
-671.377
759.302
-87.9249
241.642
-224.741
-16.901
478.273
-69.1423
-409.13
130.868
-410.235
267.907
-431.176
163.269
435.004
-584.369
149.365
291.706
-37.3171
-254.389
824.252
-978.666
154.414
1061.55
-237.299
-1018.11
1035.66
-17.5519
403.577
-93.4694
-310.108
704.018
110.596
191.161
-308.028
116.867
1228.47
-777.704
-450.768
-591.254
149.715
539.003
-538.681
-0.322003
230.507
645.522
-876.029
224.3
537.278
-761.577
-109.246
544.25
-370.943
168.924
202.02
-15.2435
-224.66
239.903
-664.993
-6.38373
240.091
-17.8617
424.34
-38.3938
-275.03
-55.5379
330.568
524.865
-499.919
-24.946
-34.2565
-559.816
-462.955
41.2782
421.677
-298.392
-26.0547
324.446
799.509
17.578
-817.087
-409.161
570.431
-16.9383
-239.026
255.964
-215.123
483.03
-323.868
437.082
-113.214
261.73
239.106
-500.837
496.758
-126.788
-369.969
428.44
-47.1848
-381.255
-449.474
-28.906
478.38
-986.641
-31.4695
1060.83
6.94069
300.308
282.273
-582.581
-242.396
546.513
-304.118
170.537
81.3111
-251.848
-432.227
381.945
50.2824
-372.968
376.953
-3.98409
295.655
-164.952
-130.703
-251.167
-61.6436
312.811
-699.3
16.5429
682.757
407.537
-93.5479
-313.989
-255.418
255.418
85.4204
-762.649
677.228
-662.235
67.3347
-947.222
848.224
98.9984
-312.41
-55.7906
-45.636
215.753
-170.117
522.395
-136.908
-385.487
-644.562
-43.3028
652.495
-69.8166
101.969
80.2744
-182.244
-354.233
88.6975
265.536
-310.62
59.4532
845.744
-621.444
564.734
-592.831
28.0974
228.256
-97.1945
-131.061
-361.622
134.704
226.918
-19.2853
250.171
-230.886
-846.699
847.391
-0.692599
-28.5917
-161.919
190.51
271.305
5.38553
-276.691
-711.452
12.1524
-267.178
284.007
-16.8291
778.741
20.7686
426.953
-630.737
203.784
202.628
-217.871
-755.904
817.063
-61.1583
645.106
-717.129
72.0228
74.6913
577.804
943.848
-846.973
-96.8752
-218.614
237.694
-19.08
199.686
41.9558
351.618
119.37
-470.989
1009.09
-256.884
-752.208
18.9214
563.481
-582.402
-13.0496
-587.239
600.289
539.142
-238.833
106.78
426.842
-533.622
-303.317
408.235
-104.919
76.75
-814.828
738.078
-698.125
455.729
-23.9688
-191.251
215.22
19.8218
-855.432
835.61
-303.988
320.418
-16.4305
-36.2045
297.935
24.1149
-890.716
866.601
-357.131
336.967
20.1649
-88.3028
-317.08
9.26618
-283.934
274.667
703.424
-786.437
83.013
726.18
-860.274
134.094
-146.771
337.932
183.137
112.517
197.248
-205.605
8.35657
281.407
-307.371
25.964
-127.927
554.88
624.668
326.937
148.651
77.1497
-225.801
277.546
-317.123
39.5769
197.263
-230.198
32.9356
-26.284
297.59
-344.02
-13.1117
1.43693
-188.802
187.365
225.315
-63.6147
-161.7
181.123
827.969
-198.075
-739.276
937.351
-101.169
-397.391
522.746
16.2567
225.353
-225.332
-0.0206895
254.765
-201.879
-52.8864
14.3309
-229.972
215.641
-394.959
631.518
-236.558
52.7408
506.801
-559.542
984.07
-886.411
-97.6593
790.932
-787.094
-3.83849
-572.087
-238.597
810.684
-146.078
722.127
-576.049
455.967
-443.817
-12.1494
-221.005
2.57833
218.427
30.6267
-761.833
731.206
-169.927
-201.016
-248.736
234.727
14.0095
241.274
-13.1874
27.8744
1020.88
-572.445
-448.435
735.195
-933.27
-400.119
96.8021
16.5472
208.767
16.4566
-778.225
761.769
-90.3906
-856.832
417.88
-452.507
34.6268
-106.638
832.818
54.6281
-736.268
681.64
-211.712
-9.29272
277.546
1.29005
242.269
-243.56
-432.874
432.874
82.9772
679.274
-762.251
-315.644
48.4653
-579.227
598.148
325.496
-294.211
-31.2854
-777.833
-63.2714
841.104
-143.765
445.701
-301.936
436.409
85.9859
428.558
-443.249
14.6915
241.246
-43.9837
-209.296
-327.515
536.811
501.591
-381.534
-120.058
-328.562
17.1679
311.395
785.159
-81.7346
-520.979
-78.997
599.976
-661.096
661.096
-125.847
501.61
-375.764
95.0074
-343.47
248.462
-919.613
347.526
307.017
-358.926
51.9085
436.855
19.1118
810.037
-491.421
-318.616
916.107
-66.0671
-850.04
78.4149
149.841
-847.151
614.157
232.994
-23.0714
261.579
-238.508
-212.326
221.101
-8.77508
-42.1096
-489.02
874.882
-890.118
15.2358
-63.0608
429.885
-12.0055
787.97
-791.196
3.22644
244.837
-19.4844
17.3612
-235.975
822.132
-963.82
141.688
247.666
-341.971
94.3049
570.715
-570.715
899.944
-93.2433
-806.701
594.286
73.0712
-667.358
54.7513
-326.38
271.629
-203.998
275.793
-71.7947
-471.127
327.362
53.8884
734.081
-393.095
529.661
258.287
-179.872
-683.968
-176.306
484.427
-630.505
453.66
-501.268
47.607
-896.238
1030.41
-134.168
-580.713
555.758
24.955
505.747
-582.416
76.6686
128.83
731.766
-860.596
211.325
530.683
-742.009
723.341
505.13
321.972
739.579
326.314
-232.331
-93.9835
-296.234
296.234
371.235
-402.267
31.0317
-28.2086
1089.04
270.285
-324.122
53.8379
529.954
-477.214
-297.429
-562.387
551.746
-565.823
14.0765
-29.4392
904.321
252.834
-275.906
-209.598
191.244
18.3538
499.047
-587.829
88.7822
-197.723
959.031
-761.308
588.809
-83.0621
771.53
-383.901
-387.628
339.432
-48.6173
472.002
548.878
-204.517
158.881
-743.853
59.8847
-932.486
36.2473
477.758
47.1073
-679.838
891.164
-692.755
-63.149
189.984
-200.934
10.9503
-74.012
915.189
-841.177
-38.0513
-817.794
855.845
185.228
-183.791
36.4939
166.743
-203.237
-9.45488
-365.99
375.444
320.577
-311.31
-604.386
209.426
-242.693
444.09
-201.397
908.549
-678.042
303.557
22.7573
276.729
16.6933
-293.422
-567.109
166.168
400.941
460.974
-32.4167
521.78
-731.076
-361.657
-11.311
647.088
-746.154
99.0656
-223.768
154.07
69.6974
-656.273
638.983
17.2906
214.434
-213.144
75.5261
182.76
-742.809
825.786
-326.998
320.275
6.72274
68.0629
-363.636
295.573
235.79
-206.643
-29.1473
526.681
-328.745
-197.936
7.64312
-346.911
339.268
-497.44
484.39
-77.0877
285.821
-208.734
-660.425
157.032
503.393
-347.717
-13.9049
653.83
6.03856
445.834
-21.4934
-165.405
14.5228
150.882
-21.7139
723.55
-701.836
-852.294
981.124
321.322
-149.099
-172.223
677.332
-775.125
97.7932
423.528
348.002
706.425
59.5452
-765.97
818.098
81.8463
548.954
-526.19
-22.7644
1093.71
-1012.31
-81.4053
5.30468
-296.912
291.607
287.65
-10.9207
93.9324
140.686
210.646
-13.3975
194.491
-201.074
6.58258
145.395
148.068
-293.462
-305.476
285.062
20.4146
-161.04
-296.219
457.259
420.671
-546.518
-320.919
195.671
-195.276
-0.394994
193.716
1009.47
-563.745
-445.729
525.952
-109.149
-416.803
135.272
509.834
77.537
471.417
21.5089
-691.051
712.005
-20.9535
47.0561
-548.069
501.013
-86.1505
-247.719
333.87
-449.165
39.2658
409.899
-140.566
-336.093
476.659
780.006
-1.26511
22.8601
183.635
-371.671
188.036
160.704
-237.791
-920.697
849.124
71.573
-297.475
305.96
-8.48457
668.485
-83.482
-585.003
1047.02
-603.807
-443.21
193.911
-193.955
0.0440291
259.004
-111.986
-147.018
-421.972
418.37
3.60211
663.505
-31.8548
-631.651
-693.334
2.28289
372.888
34.6488
-566.965
447.263
119.702
582.814
-578.338
-4.47579
-855.761
44.3924
811.368
856.37
33.1984
-889.569
-424.735
284.169
-202.682
37.2773
-322.049
528.463
-206.413
-171.213
-38.3844
754.995
-793.046
-144.567
181.061
537.664
-174.295
-363.369
-123.614
-309.26
222.252
-223.539
1.2869
619.528
43.977
683.478
-608.786
20.0284
-301.814
281.786
837.396
-876.352
38.956
-308.008
13.7968
954.575
-957.841
3.26594
52.1468
213.397
-265.544
680.261
-33.1728
568.016
-592.8
24.7837
-829.148
848.97
184.138
-208.107
786.347
212.166
746.865
157.421
191.203
-348.624
-299.482
-8.4398
822.906
-69.2659
-753.64
595.867
-131.385
-464.482
240.802
-71.878
85.1977
411.56
71.6578
-275.656
473.864
-503.929
30.065
142.796
-349.202
206.406
137.737
388.944
54.8473
861.259
653.031
-773.292
120.261
-22.8031
977.378
-249.318
-31.2342
280.553
-218.538
208.548
9.98937
-0.332655
170.87
48.6253
452.966
335.204
-344.659
-357.324
33.4554
-337.184
38.7926
838.349
-58.3433
73.265
-244.598
171.334
-955.145
22.6597
-918.542
-36.6036
-486.067
56.0338
430.034
-731.544
900.144
-168.6
-203.138
-57.3577
260.495
-115.241
-75.6051
190.846
-152.931
-47.6705
200.601
-136.379
229.592
-93.2126
853.457
409.048
-225.413
139.525
-12.7173
-567.996
-879.116
-41.5807
444.613
151.254
191.013
-513.062
200.744
-1107.02
906.273
29.2221
201.171
-230.393
-12.6234
-199.702
418.929
26.9045
89.1719
701.76
281.739
14.2055
-295.944
-472.963
579.743
728.743
72.8789
-801.622
-778.126
-8.31113
800.512
-855.009
54.4971
297.852
-258.59
-39.2612
82.0464
239.275
850.75
-864.974
14.2243
978.83
-862.149
-116.68
939.08
-943.649
4.56844
-395.199
-171.766
-5.76959
-872.932
549.257
323.676
-186.048
162.197
23.8507
-243.665
389.059
141.05
91.9671
-233.017
756.839
259.473
-276.411
431.709
94.2422
782.475
-695.761
-86.7144
-52.7222
-106.648
-89.1376
195.786
-309.154
260.616
48.5377
862.465
-838.35
-21.8778
379.994
-358.117
-336.105
-7.91475
570.138
-583.797
13.6593
369.021
-327.362
-41.6587
-828.485
731.203
97.2815
-905.78
831.768
142.326
116.679
-406.65
277.176
129.474
468.562
-454.142
-14.4203
621.396
-622.663
1.2678
518.141
-44.2771
-318.907
-134.921
453.828
22.2056
-271.524
-73.8478
-245.842
319.689
544.286
563.929
-1108.21
-900.868
849.215
51.6531
-3.19393
-405.246
419.256
-14.0098
432.225
-399.911
-32.3139
671.646
-844.601
172.955
711.08
-881.347
170.266
-503.477
-156.948
-440.294
76.843
363.451
305.947
-6.59955
-299.347
-326.301
173.37
474.49
79.3511
-719.69
-108.795
5.29369
189.197
-303.504
300.544
2.95931
52.6911
-351.268
298.577
490.603
39.2333
-529.836
-230.179
300.948
-70.7684
-896.196
-19.6397
915.836
-194.16
-39.5701
233.73
6.62791
-845.205
838.577
804.709
-118.442
-686.267
334.113
140.669
-214.517
-874.879
-21.3172
808.522
40.6016
-7.16297
540.366
-188.747
-507.666
-13.7813
521.448
-801.993
913.795
-111.802
314.033
-245.97
-395.342
309.191
-30.2357
590.73
63.1007
384.269
-241.473
300.415
509.622
-14.8093
26.9797
342.041
-776.306
84.5012
691.805
456.876
94.8704
-128.139
-32.4039
160.543
-851.808
-23.071
71.8123
331.765
-199.323
227.773
-28.4502
50.0438
-280.223
-257.875
277.066
-19.1915
-18.9353
29.536
-513.298
483.762
-611.024
-135.13
-23.7097
303.169
-279.46
-330.292
449.662
599.388
447.63
-1102.78
430.487
672.289
329.614
0.357387
-329.971
-231.989
-168.667
400.656
-524.725
550.245
-661.201
-18.2365
679.437
99.1091
90.252
-189.361
-44.2499
799.245
838.818
-862.516
23.6978
807.511
-154.48
39.5124
-601.941
-326.262
-20.6484
556.815
57.817
-614.632
440.39
20.5841
-349.589
393.45
-43.8612
-853.559
-3.79717
857.356
-27.8177
-823.99
301.079
-276.011
-25.0681
625.208
-3.81232
569.33
-407.628
-161.703
-217.434
276.443
-59.0087
-88.5764
-268.747
-421.168
-41.7866
894.289
-183.209
-820.502
88.958
-629.335
18.3104
-540.208
51.092
489.116
820.551
-39.629
-780.922
-260.321
123.942
-0.58472
-356.06
356.645
858.413
-186.767
308.208
-2.26154
636.606
-68.5897
494.183
-3.58096
801.399
-712.227
-1045.13
-57.6415
445.071
23.491
528.417
36.3171
729.741
-699.114
795.971
-38.4604
-757.51
195.46
-224.052
276.033
-15.4172
-118.195
211.078
-196.747
474.968
15.6247
-490.593
576.494
-98.675
-477.819
-459.697
422.077
37.6207
128.902
672.497
1.71642
-93.0599
-763.074
856.134
80.2098
-669.375
589.166
227.912
-304.837
76.9249
-740.404
647.344
91.7713
712.938
-504.408
1048.69
239.667
-166.402
-274.307
-177.595
249.772
-72.1769
210.823
-261.728
50.9049
-180.458
321.508
-9.16325
-326.942
-51.1802
5.65475
-411.128
405.473
-47.5609
-162.159
-195.312
-30.7339
368.45
-337.716
-870.852
944.467
-73.6153
45.5052
-528.155
482.65
31.7467
-250.284
-755.876
106.231
649.645
356.057
-225.189
819.405
1.14616
-3.42145
218.74
-215.319
433.313
136.018
-117.679
-322.615
815.876
-201.719
-95.2042
-914.078
613.883
-331.61
130.036
45.5143
654.437
-569.017
495.56
-17.287
342.902
-35.8846
339.172
-421.611
82.4384
199.864
-247.028
47.1641
46.6407
250.912
-297.553
335.959
-497
-3.42692
761.957
-806.207
537.769
-62.8014
-105.372
736.943
-631.571
-269.651
304.696
-35.0452
-68.2772
296.189
206.767
-190.22
-282.37
12.7187
-1058.68
587.004
471.674
-35.8874
-76.1622
178.132
-310.105
295.476
14.6298
-676.035
692.492
268.734
-273.643
4.90859
-474.407
178.188
-502.604
-556.074
241.412
-278.729
847.164
-946.595
99.431
-343.978
17.7159
485.421
-627.029
141.609
-2.35594
810.878
231.241
-260.066
28.8244
-319.155
-553.777
-37.5337
294.06
-25.3251
342.286
-114.962
-227.324
-20.2468
-840.067
860.314
-875.958
484.068
391.889
-56.2903
735.564
-457.176
36.0083
-145.525
-126.762
272.287
875.736
-819.58
-56.1561
393.922
-322.11
796.702
3.81056
105.137
87.4434
-192.58
-580.555
1024.4
-443.843
146.715
-195.565
48.8497
-758.968
-144.993
903.961
130.361
211.926
853.513
-31.3811
813.473
-736.723
503.779
-418.581
8.22957
-247.255
46.4184
149.778
-196.197
307.132
233.234
-24.8489
-1098.2
619.197
479.002
7.91361
891.692
-60.5462
-831.145
-430.619
623.092
-192.473
57.1528
756.32
23.4141
-531.081
-590.533
-18.3308
608.864
413.177
146.605
-559.782
-264.715
-522.379
279.086
63.8155
-179.17
-76.2482
-406.522
352.914
53.6076
-790.665
299.244
201.434
-262.696
61.2621
222.035
-249.634
27.5995
430.405
-424.75
725.731
51.8804
-777.611
-203.423
41.5049
820.023
20.791
-840.814
-354.637
15.9058
338.731
118.64
860.19
-410.239
451.517
411.613
-72.4406
-954.467
99.6928
854.774
789.098
102.594
-38.0406
237.904
50.6832
381.542
896.854
133.552
28.3286
-485.505
28.6737
-826.808
798.135
696.631
-764.616
67.9853
636.302
465.952
769.012
-56.0326
-712.98
196.656
-49.9407
76.4742
339.494
-415.969
-735.242
792.395
264.138
172.945
-273.508
168.031
105.477
-111.172
-426.856
538.028
-32.306
-216.43
1004.41
-573.926
84.9244
-288.062
208.755
-212.176
-102.465
-156.765
30.6042
820.146
-163.073
499.033
-599.65
753.833
-154.183
682.554
-704.268
-391.556
377.774
-442.573
-180.09
39.5693
348.792
-11.4499
-337.343
-46.2883
808.246
-505.247
-623.367
1128.61
288.052
-235.171
215.886
9.36007
197.407
-248.986
123.795
-885.29
908.949
-23.6591
-269.405
255.151
14.2536
74.3449
708.13
3.36435
765.648
635.957
-16.4287
-15.1096
-512.752
470.851
41.9003
933.077
17.1537
-950.231
-311.364
-43.2727
-0.479247
-234.787
795.01
-69.2795
529.019
-623.147
94.1273
-761.922
-84.7765
36.2726
261.579
886.526
10.3283
-490.938
440.977
49.9613
-950.455
-94.6798
45.8351
-385.362
339.527
-193.349
216.311
-22.9619
246.117
-35.2938
-39.8207
1050.3
-313.222
-737.078
579.613
-50.5942
47.897
-264.837
-61.5432
-692.065
774.57
-82.5042
-78.6342
-7.11308
229.148
504.835
-5.78795
92.7909
-870.624
-93.6892
214.123
-120.434
-192.89
216.382
-23.4921
-681.799
570.626
-449.569
479.105
342.342
51.5802
-460.847
424.969
35.8779
577.5
431.974
498.53
-460.002
-38.5276
477.444
-308.906
-168.538
-199.821
34.8692
350.883
-21.6172
-329.265
-252.494
74.8988
-324.841
288.637
-219.034
-636.727
-691.534
-81.7582
260.238
-58.8041
661.116
197.297
6.9572
227.77
816.074
-85.1346
-730.939
329.005
-142.145
647.071
-504.926
239.331
-296.689
-99.1653
512.343
-750.765
7.95651
-118.698
-105.07
500.006
-94.6829
782.476
-687.793
-199.881
218.975
-19.095
-27.569
-241.836
829.591
-737.819
223.112
-428.064
-406.219
834.283
861.377
-200.261
-43.8908
787.236
-743.345
597.406
-6.67642
17.7696
-608.303
281.012
136.233
-417.245
-404.21
480.685
-21.6265
-318.445
340.071
-617.219
66.0903
551.129
-144.148
514.014
-369.865
-479.381
409.99
-483.39
73.3997
105.398
-179.83
74.4317
-181.868
339.289
-175.065
-186.593
728.068
-31.4367
102.303
581.174
-611.056
648.917
-37.8609
269.202
-292.911
-810.314
-52.2021
97.1602
-433.253
590.119
460.181
-615.802
173.229
416.954
-845.018
381.893
-681.894
28.6538
653.24
-198.94
247.355
-48.4141
-816.295
886.704
-70.4096
-48.5099
-432.241
480.751
1005.36
-405.611
-599.749
-69.1213
-785.888
10.7296
290.349
-950.465
207.421
743.044
-857.713
-92.7514
-173.604
-12.4444
-777.767
731.479
-131.344
-295.257
426.601
-17.3014
-265.663
282.964
160.4
647.111
234.601
154.164
-388.765
-902.87
154.578
748.292
541.195
-580.971
39.7758
604.542
58.5992
-663.141
-44.1514
673.94
-639.864
-34.0756
353.361
-23.747
-20.6976
221.594
-200.896
608.357
65.5828
14.1994
-792.326
721.539
-777.572
-177.013
223.432
323.296
154.148
140.89
-315.955
204.326
-208.521
4.1954
342.482
-199.882
-142.599
592.094
43.8631
-747.289
800.913
-53.6239
-402.341
-102.16
504.501
-14.6041
-288.899
251.297
56.5117
-307.808
251.275
-100.954
-150.321
418.372
-466.882
-61.716
-740.277
-411.072
90.941
144.849
505.632
-441.874
-63.7583
-228.391
257.613
-204.468
196.407
8.06157
19.5748
-223.477
203.902
-322.837
379.643
-56.8061
211.113
-7.88551
-203.228
450.441
554.919
-263.143
555.562
-473.904
140.954
-231.813
90.8595
-202.887
-9.91848
212.805
701.284
-96.7427
245.488
-169.962
-357.672
277.721
79.9507
-427.415
-16.1171
443.532
-352.099
449.259
312.908
-323.42
10.5116
-17.462
33.7347
470.044
462.832
35.6979
34.0019
-461.417
185.135
6.10844
-339.33
-4.6482
-370.841
297.36
73.4815
342.603
-63.5164
673.072
221.217
-231.979
251.553
-289.828
306.996
99.0048
657.909
-756.914
-736.312
-25.9339
762.246
29.7747
161.898
16.7783
-339.616
-690.702
621.117
69.5853
125.182
-174.237
169.771
4.46638
426.465
-145.453
-239.407
-175.39
414.797
-166.228
-346.524
221.704
-17.3784
-261.122
115.597
91.5211
-185.21
-1009.54
696.318
-348.116
348.116
851.463
242.252
-35.2871
-509.098
-500.441
210.498
326.12
528.155
42.5597
546.012
-51.8289
268.179
-243.353
-24.8253
-629.423
662.339
-32.9159
-50.2756
-532.719
-46.5078
-637.571
714.796
-77.225
84.3846
-493.545
-353.201
539.462
6.55081
528.518
19.4438
-547.961
746.953
-647.438
7.57393
-112.996
-66.1901
179.186
-413.997
89.1556
313.093
-33.9033
-279.19
-154.735
-47.9472
-302.739
289.814
12.9255
-291.679
74.2451
868.916
-195.844
-333.791
49.8579
767.759
-1.20195
-766.557
584.189
-659.054
74.865
-922.855
830.375
92.4804
-23.8092
-637.391
110.028
298.208
-23.8171
-261.555
285.372
-784.606
21.9573
-204.267
-291.584
267.767
-466.166
511.671
-238.681
264.859
-26.1774
-304.322
299.695
4.62681
-810.003
704.631
995.979
-148.815
-167.275
303.179
-251.032
361.8
-170.597
413.841
-309.294
-104.547
288.101
54.5015
812.453
-92.2009
-720.252
184.181
-681.621
-753.056
669.505
83.5509
5.46901
-617.433
624.023
-6.58985
65.6426
179.845
-97.3596
518.031
-270.063
291.976
-21.9123
379.228
-458.39
79.1622
-608.662
649.253
-40.5908
585.544
44.5206
-630.065
242.457
-222.333
-20.1238
556.167
-23.8007
-532.367
233.047
-122.061
-110.986
-126.955
-49.0682
176.023
954.544
-945.532
-9.01163
-575.498
-388.323
-46.5142
-755.925
802.439
-897.641
834.37
-583.591
359.827
223.763
605.1
-623.431
-15.3536
672.531
-657.177
22.8426
144.696
-167.538
-70.6746
-280.593
-855.977
-66.8788
15.4592
366.486
334.086
-739.698
198.392
-13.2571
-230.07
230.07
409.043
-142.039
-267.003
-911.246
25.9561
-3.29675
-27.7496
-476.107
503.857
-753.724
-80.6857
487.17
-406.485
-252.406
-408.69
432.677
-10.6001
-58.1914
259.362
156.09
186.392
-541.426
398.069
-169.012
403.612
339.977
-51.8751
762.485
-707.857
-284.524
-8.20055
270.941
-946.894
-3.56085
5.6101
927.467
533.134
-448.749
-835.694
573.128
262.566
0.496083
261.011
-261.507
350.207
-6.17623
-344.031
-462.203
31.5834
-834.82
748.544
86.2764
-130.534
-180.83
195.583
41.1394
-236.723
213.075
126.901
-800.992
17.7839
-590.289
324.977
265.312
38.6221
242.785
362.661
-325.608
-37.0534
-383.905
394.879
-10.9741
847.418
-513.332
-455.042
312.897
-323.857
192.337
131.52
423.382
-720.81
568.423
-27.228
811.248
-807.884
79.4965
153.551
-828.454
810.894
17.5605
-794.506
47.2174
-472.163
-527.846
1042.65
-186.28
931.099
-835.178
-95.9217
-521.121
-463.315
984.436
-48.7813
-256.695
55.3542
226.532
-234.408
7.87571
-22.2305
-56.0713
733.404
468.159
-32.7141
-435.445
-368.86
-198.248
17.1247
-90.5296
-251.442
-154.963
419.632
-264.669
-925.982
925.982
93.0216
-805.154
486.538
-510.966
69.2199
441.746
-211.903
-194.747
169.641
-163
-378.426
-552.118
389.118
601.99
58.6915
192.583
422.05
-929.594
507.544
-25.1399
306.879
-222.522
-263.546
-217.003
415.257
-91.9609
-182.15
-141.707
-65.4908
-835.377
452.53
-518.14
65.6106
16.9942
-693.196
774.553
-81.3575
415.785
-421.255
5.46927
247.453
-568.25
529.733
38.5166
104.755
116.174
-220.929
196.487
-217.185
378.935
-708.788
329.853
110.541
758.336
169.686
239.357
-68.6964
-492.417
464.668
293.089
-307.716
14.6269
416.602
-37.3737
354.056
-384.79
-23.0134
-367.642
390.655
-38.0143
-269.357
318.744
12.4214
-331.166
-422.246
267.283
-389.003
41.0878
631.094
-749.535
-410.163
532.477
-313.593
-91.6531
976.651
-866.11
-492.728
-312.311
805.039
294.522
39.89
290.221
-330.111
-453.908
140.08
-270.615
-51.858
451.261
-563.987
112.726
47.4275
613.668
-185.906
72.9099
323.618
-284.996
708.747
-329.812
268.725
-180.027
24.1478
364.914
-389.062
-28.7882
-297.533
-4.28084
-257.712
251.928
5.78405
0.675543
552.926
-529.512
37.8138
-891.591
113.365
798.571
-1.86871
330.097
-117.022
525.488
328.707
-854.195
598.4
239.949
670.078
-764.761
-746.016
104.02
641.996
275.784
62.1834
-337.967
188.347
-181.282
-7.06548
24.8865
274.486
572.906
-196.25
34.4061
161.843
-156.925
-606.884
763.809
-340.501
360.053
-19.5519
-251.824
293.45
-41.6253
-148.739
-175.384
-255.83
213.343
42.487
920.092
-920.092
-87.3907
727.063
-639.672
294.609
-212.563
345.318
-68.1415
-657.722
190.781
28.1893
-218.971
45.5294
-586.453
540.924
34.5969
-236.474
201.877
908.224
-913.942
5.71807
300.919
-674.477
373.558
344.815
-298.98
52.0312
310.63
-350.747
876.236
557.124
-105.863
-73.0546
-244.069
-400.431
324.098
76.3323
219.145
-345.933
333.736
-500.116
166.38
-245.814
46.8733
-873.295
-73.5993
33.2425
-726.438
317.261
-182.557
796.384
-773.237
-23.1472
431.047
49.4785
-480.526
-685.613
610.684
74.929
-244.589
208.98
35.6093
321.222
-28.1331
-426.137
-254.88
876.407
-832.866
-43.5403
-357.748
658.666
131.5
-533.841
-864.643
11.0847
-56.6328
-599.321
655.953
42.1703
-136.996
-136.512
-917.809
410.44
507.369
193.785
2.62157
450.386
-34.6007
543.446
272.849
-262.824
-10.0257
-334.952
-6.13733
341.089
-549.258
440.012
-5.04057
-199.966
205.007
232.631
-41.8499
-92.7707
353.82
-261.049
-356.264
6.6745
435.153
-10.1839
61.9195
-809.344
747.425
-664.3
664.3
50.5259
188.805
-88.3172
-505.311
593.628
-854.474
938.104
-83.6304
741.12
55.2647
-14.1461
-834.524
848.67
324.579
-342.017
17.438
325.401
14.8199
-340.221
584.134
-636.946
52.8114
45.9048
308.042
-353.947
-213.825
-116.586
330.412
197.58
-9.23235
106.061
-710.332
604.272
-760.007
267.279
351.63
-311.74
793.738
59.7751
-77.4119
-433.554
343.014
-390.199
-680.998
101.133
579.864
314.034
-278.49
-35.5441
-531.529
614.352
-82.8235
-82.0044
-362.993
444.997
409.448
-382.468
-595.521
-322.288
600.729
-724.732
124.003
-406.9
-428.793
837.856
-39.754
-645.859
125.529
455.679
-581.208
563.567
-644.814
81.2469
35.4587
-237.338
11.1089
-693.003
-322.032
321.447
6.79538
570.574
-692.729
122.155
-344.51
-430.616
-3.77723
-684.584
698.194
-13.6099
763.075
-164.675
645.657
-102.974
-542.683
212.727
292.905
291.108
-298.01
6.90212
807.723
-935.883
128.16
-649.311
-96.7051
-290.575
20.5117
-327.108
84.7831
242.324
-56.5963
640.731
84.281
-250.396
166.115
358.065
-335.986
-22.0793
-338.395
-251.894
-13.1434
203.127
-25.8543
-175.08
230.213
135.69
-365.903
-272.07
319.951
-47.8816
587.984
-676.301
24.3463
288.747
-264.655
-62.4528
-289.945
-293.645
-711.341
540.689
170.652
-111.15
-153.513
-163.973
66.7784
-578.626
536.441
42.1843
576.956
-1098.08
-25.1253
-1014.9
-140.766
366.16
49.0971
-22.8674
-51.3996
-758.194
126.623
850.774
-844.146
617.401
-76.7121
1.86073
589.245
-591.105
-281.335
-166.073
447.407
-40.4669
-204.122
6.02351
199.162
-211.152
11.9904
-994.737
232.904
448.446
-114.71
19.6926
-627.997
608.304
298.304
-364.98
26.0064
338.973
59.7507
573.435
-633.185
-103.507
771.053
-667.546
-669.429
-195.546
-725.952
38.5813
687.371
-35.1347
568.245
-533.11
922.551
-914.185
-8.36593
561.67
-618.303
-611.188
-23.6912
634.879
-396.338
124.269
272.131
-267.812
-4.31976
801.239
-772.566
-96.1057
730.905
-634.799
460.054
10.7976
-434.103
-669.92
604.141
65.7785
399.048
-92.2403
-564.033
-51.4448
-11.4093
-399.719
-23.4261
210.038
-186.612
24.1984
327.432
-360.8
364.638
-3.83799
745.467
-791.981
124.846
135.649
214.797
-226.783
11.9862
684.147
-775.298
91.1501
-321.086
-676.847
-15.2182
794.767
74.1495
291.125
120.488
811.05
-16.2837
-32.2239
-1030.03
174.598
3.94284
18.9895
-567.058
158.73
-135.888
-1082.23
-242.705
237.664
70.1913
224.418
-107.741
-467.133
574.874
-2.50293
-477.528
480.031
838.93
-31.2066
570.093
75.5643
-38.1541
-205.023
243.177
740.722
-784.613
-149.46
379.673
-402.668
443.869
-41.2005
-679.26
723.23
-43.9706
282.404
-360.53
17.0604
394.377
-146.245
-248.132
174.903
-511.688
466.184
45.5032
4.98271
-461.755
460.764
0.990587
613.811
-596.041
32.3869
-160.515
591.562
-295.458
57.508
441.052
41.59
607.241
-648.831
-82.4675
-142.273
192.327
16.653
31.2018
-392.356
27.3762
-412.96
10.2913
251.525
-253.638
2.11255
711.257
-682.603
-485.395
84.3445
401.05
-42.2992
626.488
-17.2298
-206.247
914.266
-141.78
-772.487
518.882
537.486
-1056.37
-289.228
-18.8003
291.306
4.1698
10.2646
274.797
-690.028
-2.40875
692.436
592.097
-749.021
-210.607
194.819
15.7885
-522.9
-27.1264
-642.249
3.91199
137.042
-137.525
-428.298
-107.502
191.783
16.0434
-633.559
617.516
-38.9371
-497.755
536.692
-256.301
302.206
-69.3244
626.139
-727.536
753.427
-25.8911
217.727
-482.442
243.106
-259.017
15.9109
9.58812
-838.099
28.0958
239.444
-453.269
908.664
-918.455
9.79091
636.6
13.9812
-650.581
-54.2908
-538.509
-807.25
840.449
117.694
-206.832
897.673
-78.2684
242.32
-15.7873
-60.3731
-715.982
776.355
-87.4913
-597.093
-18.265
546.783
-670.106
20.7949
209.07
-232.414
23.3437
-237.864
2.77766
235.087
-558.899
533.52
25.3794
-213.922
86.9669
62.7207
86.7336
-149.454
-880.251
314.683
20.5009
-335.184
54.9768
637.882
-692.858
-341.666
366.131
-24.4651
-648.85
-21.2559
-667.145
766.15
-896.587
127.494
769.093
-146.624
-169.019
-445.679
64.1448
-457.089
-615.362
263.636
-4.16297
-291.097
291.455
-0.358614
176.137
-71.3812
-423.09
393.956
29.1342
-954.879
972.032
-283.594
98.611
184.983
136.55
22.1798
522.203
855.576
-875.823
276.957
-37.6817
365.337
-509.485
-789.285
811.261
-21.9756
-346.792
-183.709
530.501
133.354
-175.686
42.3321
426.691
-524.051
744.611
-681.232
-63.379
-260.184
-29.0432
329.085
-77.788
316.607
-292.261
332.43
-652.044
-17.8755
5.50899
633.474
-371.741
146.551
20.6541
-891.506
547.663
-390.631
608.144
368.507
423.784
8.89238
744.635
-805.008
-40.3237
-18.0157
827.283
70.3903
421.146
-499.87
78.7237
233.885
-193.47
-40.4149
-185.795
206.481
-20.6866
-11.9522
343.528
-331.576
-617.318
658.908
436.255
249.176
-219.803
-29.3732
366.243
509.493
313.192
-334.809
707.469
104.984
76.8817
-600.293
523.411
639.834
-35.6922
38.3853
-930.38
113.896
816.484
216.866
-256.437
-252.363
-793.304
732.261
61.0429
5.27089
814.212
-819.483
928.182
-928.182
-378.359
17.5584
602.826
37.0075
-109.157
-21.831
-191.997
213.828
437.622
27.8643
-465.486
-435.693
21.7815
413.912
186.539
972.168
-453.286
-231.025
40.5665
190.458
-627.124
630.839
-3.71443
426.424
-470.295
43.8708
-430.838
-4.85515
47.5762
-764.525
716.949
-636.814
-61.3111
-549.653
518.515
31.1377
-372.66
284.083
22.3729
-237.097
214.725
-155.615
-127.98
-29.1658
222.871
-30.5441
48.5139
293.377
-279.171
-71.7589
791.608
367.364
-52.6814
-769.213
32.9006
-890.028
814.426
75.6018
120.813
281.363
379.351
159.79
-754.109
858.668
330.813
187.065
-517.878
-165.382
594.453
-644.043
49.5905
480.004
54.919
-534.923
636.14
-342.063
-294.077
-476.942
-115.889
-781.142
677.635
27.8958
-684.99
657.094
-711.331
108.514
602.817
-764.733
21.5052
30.5166
508.618
-87.4714
-517.265
354.192
552.179
-587.314
-35.4251
-67.8212
232.426
-164.605
45.8645
-683.435
-234.675
-236.119
168.298
-30.6192
265.567
-107.979
-157.588
158.065
-8.44529
-636.178
720.679
-28.6096
194.827
-166.217
869.869
-629.169
11.7363
135.668
187.95
1.00832
397.593
-398.602
-222.964
-195.937
418.901
180.937
763.53
379.785
-355.637
-842.362
7.5421
626.409
-609.866
-0.530683
-810.231
810.762
589.552
16.0919
-605.644
844.287
45.764
-890.051
311.498
-11.8036
125.439
-406.773
426.064
9.08888
-255.416
335.219
-79.8022
195.246
381.702
-90.5775
611.366
-55.5159
-555.85
-755.799
781.217
-25.418
12.8695
646.552
-659.421
-645.54
114.011
-7.0894
-442.468
604.027
34.5429
323.522
-30.8627
190.544
-91.4345
-336.892
1.93983
95.9652
742.965
3.91986
-278.132
274.212
-423.372
-506.222
-57.4485
-757.751
815.2
261.491
-48.0942
191.628
-261.569
69.9415
197.485
-95.1107
-223.112
-516.877
-581.323
-791.956
-18.358
-168.651
-815.758
776.445
39.3122
-34.5162
469.831
-435.315
59.7819
821.339
-881.12
199.12
-136.399
774.551
26.3612
-220.406
198.575
20.5634
-307.438
286.874
575.727
-573.866
-646.52
134.928
511.592
-558.414
588.556
-30.142
32.4248
258.683
-665.199
-441.818
608.542
45.82
-654.362
-721.933
606.759
-679.214
72.4549
-153.432
-42.817
450.091
-484.348
-846.416
851.686
105.579
-307.745
-588.842
-642.442
593.288
49.1537
183.099
-77.7004
-43.7906
458.348
177.792
-569.708
56.4103
514.235
-527.31
13.0753
73.1277
-717.671
644.543
268.053
-16.528
-314.231
166.72
147.511
-568.881
588.324
-131.452
470.721
-339.269
681.427
-86.9738
1.26658
-318.423
317.156
-446.866
-442.773
889.639
-144.585
245.321
-100.735
-101.398
-579.6
-569.361
416.502
152.859
402.088