/*--------------------------------*- C++ -*----------------------------------*\
  =========                 |
  \\      /  F ield         | OpenFOAM: The Open Source CFD Toolbox
   \\    /   O peration     | Website:  https://openfoam.org
    \\  /    A nd           | Version:  7
     \\/     M anipulation  |
\*---------------------------------------------------------------------------*/
FoamFile
{
    version     2.0;
    format      ascii;
    class       volVectorField;
    location    "20";
    object      U;
}
// * * * * * * * * * * * * * * * * * * * * * * * * * * * * * * * * * * * * * //

dimensions      [0 1 -1 0 0 0 0];

internalField   nonuniform List<vector> 
29540
(
(1.00776 -0.0103963 3.51333e-23)
(1.00827 0.0035056 1.6003e-22)
(0.993183 -0.0024607 -2.18489e-22)
(0.976584 -0.0352237 7.31526e-23)
(0.998192 -3.85921e-05 3.0849e-23)
(0.968289 -0.0213169 -1.06511e-22)
(1.03795 -0.065005 1.3944e-22)
(1.01003 -0.0158287 -3.49016e-24)
(1.00149 -0.00145066 4.9353e-24)
(1.00014 -3.6614e-05 1.27992e-24)
(1.01096 -0.0211936 -6.16031e-25)
(0.998228 -0.0122522 -7.81521e-23)
(0.999644 -0.000145034 4.23311e-24)
(0.999977 -7.95039e-06 1.16126e-25)
(1.15141 0.074877 3.41315e-22)
(0.995522 -0.00143761 3.33509e-23)
(0.999881 -0.000632657 -1.91046e-24)
(1.11586 -0.0179738 -2.43925e-23)
(0.998418 -0.00133265 -1.05221e-23)
(0.991951 -0.000591472 -4.86941e-23)
(0.999362 -0.000203512 -1.44276e-23)
(1.00141 -0.00144772 1.73006e-23)
(0.993117 -0.00260333 2.41438e-22)
(0.998414 -0.000126638 1.35846e-23)
(0.89492 0.105931 7.51259e-23)
(1.009 0.00276667 8.58527e-22)
(0.999616 -4.35819e-05 9.64755e-24)
(0.947319 0.0890828 -5.03781e-21)
(1.15661 0.0742144 -9.54413e-22)
(0.999342 -0.00673461 -1.50555e-23)
(1.01143 -0.00853381 2.50481e-23)
(1.02932 -0.00650877 -1.87219e-22)
(0.977627 -0.0811259 7.28666e-22)
(0.998201 -0.0169688 3.88887e-23)
(0.945298 0.0848731 4.04374e-21)
(1.00175 -0.0243517 1.0866e-22)
(1.06196 0.0371652 -2.68472e-22)
(0.979131 -0.0199016 2.88101e-22)
(1.00396 -0.000617717 -6.73274e-23)
(1.00382 -0.000435222 1.27917e-22)
(1.00032 -0.000122411 -3.97271e-24)
(0.991141 -0.0221166 -2.75517e-22)
(0.999895 -0.00061478 -2.44698e-26)
(1.01516 -0.0550516 -4.48717e-22)
(1.00003 -4.10937e-06 -2.55748e-25)
(0.999484 -0.00683438 1.12964e-23)
(0.998043 -0.0091041 -2.19314e-23)
(1.00006 -6.29488e-05 6.47549e-25)
(1.00246 -0.00272597 -7.04138e-23)
(1.06155 0.0346594 -1.09975e-22)
(1.08174 -0.0852219 1.03819e-22)
(0.979258 -0.0311958 -3.33503e-22)
(1.02927 -0.0057618 6.57902e-23)
(0.96926 -0.0211821 -1.74703e-22)
(0.995631 -0.0014761 -2.93001e-23)
(1.15939 0.0627576 -5.78128e-22)
(0.997503 -0.00165974 1.04174e-23)
(0.999344 -0.00022441 1.82765e-23)
(0.999614 -0.0160624 -5.41214e-23)
(1.00511 -0.0437574 -1.98519e-22)
(0.999951 -5.34165e-06 2.73455e-25)
(0.998473 -0.00136515 -2.16647e-24)
(1.23096 -0.0251422 -1.14245e-22)
(1.00207 -0.0238263 -5.95324e-23)
(1.06189 0.0981801 2.26849e-21)
(0.918618 0.0291585 1.00682e-20)
(0.998705 -0.0201566 -1.04572e-22)
(0.994515 -0.0101256 9.99474e-23)
(0.93904 0.0185889 4.03629e-21)
(1.00034 -0.000115786 2.56995e-24)
(1.0103 0.00333109 -1.17023e-21)
(0.988204 0.0731536 2.77689e-21)
(1.00232 -0.00675595 -2.72923e-23)
(0.914121 0.123164 2.79406e-21)
(0.994083 -0.000465134 1.54164e-22)
(1.09002 -0.0521558 -7.28935e-24)
(1.22631 0.125229 9.44423e-22)
(0.980201 -0.011328 6.88846e-23)
(0.999963 -1.65605e-05 -7.75968e-25)
(1.00096 -0.0357624 -1.96821e-22)
(0.969827 -0.000499095 -1.15915e-22)
(1.01967 0.0347585 6.88603e-22)
(1.0079 -0.0108501 -1.06235e-22)
(1 -4.62549e-05 6.30339e-26)
(1.04002 -0.0638406 -2.14147e-22)
(1.13915 -0.168463 -7.48872e-22)
(1.03565 0.0860024 -4.32729e-21)
(0.99963 -0.000142909 -3.83178e-24)
(0.999655 -0.000129259 -1.1227e-24)
(0.953732 -0.0265694 -4.60305e-22)
(0.993426 -0.0383315 3.70393e-22)
(0.980115 -0.0118667 7.75036e-23)
(1.00231 -0.00281678 1.20536e-23)
(1.04699 -0.0114141 -1.06407e-22)
(0.950235 -0.0112927 -3.80671e-22)
(1.04572 0.104801 2.16179e-21)
(0.993688 -0.0496068 6.0063e-22)
(1.00035 -0.000285992 6.4225e-24)
(0.976411 -0.0441221 -6.45479e-22)
(1.14674 0.101121 1.80772e-21)
(0.999961 -1.62454e-05 1.13505e-24)
(0.981198 -0.00740187 -4.11698e-22)
(0.999953 -6.55856e-06 -1.41244e-25)
(1.0357 -0.0174865 -5.29058e-22)
(0.978313 -0.0310233 2.22835e-22)
(1.03058 0.00989655 1.19841e-21)
(1.00344 0.0687181 4.17353e-21)
(0.999669 -0.000130849 -9.50507e-24)
(0.999996 -5.14063e-05 -1.61347e-26)
(0.988678 -0.0798692 -3.45333e-23)
(0.976409 -0.0799284 -6.55613e-22)
(1.03049 -0.0339786 3.60231e-23)
(1.00001 -1.42154e-06 4.59012e-26)
(0.99913 -0.00455299 -3.89789e-23)
(0.999913 -0.00162856 1.56336e-24)
(0.990978 0.074805 1.80683e-23)
(1.03925 0.0501515 -1.49094e-21)
(0.991376 -0.00526057 -1.66035e-22)
(1.00002 -5.06131e-05 5.9992e-26)
(1.00256 -0.00669066 -2.09253e-23)
(1.23268 -0.114143 2.46354e-21)
(1.00566 0.0108766 1.88556e-21)
(1.13333 -0.0785073 -7.20851e-22)
(0.916914 0.0356712 -9.54758e-21)
(1.00081 -0.000265531 -1.63415e-23)
(1.13198 -0.0568139 7.07311e-23)
(1.11513 -0.013844 -1.40132e-22)
(1.00858 -0.0426476 1.48031e-22)
(1.00295 -0.00259211 -6.27529e-23)
(1.00002 -0.000325619 8.68661e-26)
(1.01511 -0.0535978 1.57556e-22)
(1.2302 0.117957 4.60577e-22)
(1.00598 0.13358 5.18864e-21)
(1.13196 -0.0957945 -2.32991e-22)
(1.03446 -0.0170843 4.44914e-22)
(1.0111 -0.0081901 4.73646e-22)
(1.07581 0.173974 3.63184e-22)
(0.980439 -0.000544852 6.05631e-22)
(1.05101 -0.162321 2.02947e-21)
(1.148 0.0952141 -1.3812e-21)
(1.13242 -0.0518058 -5.83786e-23)
(0.958821 -0.00339565 -4.92762e-22)
(0.964834 -0.0294349 1.43504e-22)
(1.00001 -1.26261e-06 -1.95685e-26)
(0.999992 -2.49037e-06 6.10004e-26)
(0.998145 -6.38306e-05 -2.44087e-23)
(0.998188 -0.00892734 4.48245e-23)
(0.982737 -0.0627396 -4.98312e-22)
(1.06836 -0.133779 9.09969e-22)
(1.27381 0.0317739 -2.43852e-22)
(1.02302 -0.0157662 2.40376e-22)
(1.013 -0.0154179 7.82996e-23)
(1.00032 -0.000463087 9.88648e-24)
(0.999903 -0.000164224 1.09956e-24)
(1.00173 0.0246272 -4.16057e-21)
(1.00039 -0.00113709 1.15249e-24)
(0.994998 -0.00825085 8.76146e-26)
(1.0907 0.176284 -1.0432e-21)
(1.00481 0.0440789 -4.50372e-21)
(1.08474 -0.0832188 -2.12876e-22)
(0.971175 -0.00190011 2.01113e-22)
(0.97732 -0.0345818 5.10148e-22)
(1.16054 0.068068 1.54459e-22)
(0.999963 -3.40072e-05 2.4581e-25)
(0.999991 -2.39832e-06 -2.29003e-26)
(0.991334 -0.00552957 5.88642e-23)
(0.965675 -0.0288974 -7.71115e-22)
(1.00004 -0.000167061 -6.16479e-25)
(1 -4.91007e-05 2.11103e-26)
(0.99502 -0.00373057 -1.94861e-23)
(1.00003 -0.000315973 -7.01864e-26)
(1.00422 -0.00447155 -3.51319e-23)
(1.08626 0.179986 1.22558e-21)
(0.980716 -0.00028544 -4.98864e-22)
(1.019 -0.0874098 -2.01597e-22)
(0.996294 -7.19585e-05 9.92641e-23)
(1.00155 -0.00200762 3.67339e-24)
(0.980706 -0.00726814 6.96434e-22)
(0.99935 -0.0045466 -3.54598e-24)
(1.14111 -0.0714654 4.26595e-22)
(0.999984 -7.40861e-06 3.77708e-25)
(1.00805 -0.0293435 -7.59816e-23)
(1.03794 0.087862 1.54685e-21)
(0.994755 -0.00940952 -5.91519e-24)
(1.04828 -0.157869 -1.87336e-21)
(1.02976 0.0428 -1.3123e-21)
(0.995386 -0.00205935 -1.43758e-22)
(0.986777 -0.0108948 1.80918e-22)
(1.0028 -0.00260275 9.56609e-23)
(0.999398 -0.00628127 -2.18532e-23)
(0.999795 -5.49908e-06 1.09868e-24)
(1.00414 -0.0134683 1.5642e-23)
(0.912373 0.0178186 3.98377e-21)
(1.00118 0.0205874 3.20158e-21)
(0.989594 -0.0044285 4.72266e-24)
(0.995219 -0.00813335 -6.24001e-23)
(0.979417 0.0402879 -3.75231e-21)
(1.0124 0.027289 5.90463e-22)
(0.95121 -0.0111957 4.6346e-22)
(1.00085 -0.000357856 -1.27932e-23)
(1.04335 -0.0821525 2.96946e-22)
(0.974191 -0.0579648 6.59814e-22)
(0.998417 -0.0125178 3.74607e-23)
(1.00062 -0.000782415 -2.03334e-23)
(1.07893 0.178416 5.17811e-22)
(0.995178 -0.00374108 -1.31088e-23)
(1.00495 -0.00401998 -3.9431e-23)
(0.981724 -0.0621908 6.60439e-22)
(0.988476 -0.0815617 8.8592e-23)
(0.999973 -3.80061e-06 9.24179e-26)
(0.978932 0.106881 -4.61481e-21)
(0.999244 -1.717e-05 -2.37464e-25)
(1 -3.95139e-05 1.81806e-26)
(0.999601 -0.000152135 1.6338e-24)
(0.995434 -0.0387802 -1.36795e-22)
(1.22517 0.00202743 2.29236e-22)
(1.00884 -0.0288276 8.2645e-24)
(1.0048 -0.00375246 -2.70363e-23)
(0.998431 -0.000174685 3.3698e-23)
(0.952028 -0.0124995 -8.45495e-23)
(1.00002 -0.000346315 -1.45607e-25)
(1.00035 -0.0011597 1.2274e-25)
(0.99831 -0.000147954 -2.22497e-23)
(1.02237 0.000774411 1.10729e-21)
(0.998064 -0.0028747 -7.01551e-24)
(0.999153 -0.00423144 1.15801e-23)
(1.02147 -0.00125722 5.41234e-22)
(1.00009 -0.000283272 9.75204e-25)
(1.00003 -3.50883e-06 6.67799e-26)
(1.00365 -0.000443219 1.37684e-23)
(0.981775 -0.0228193 -2.61421e-22)
(0.98278 -0.000282976 -2.40602e-22)
(0.996519 -0.000273883 -1.0577e-22)
(1.01111 0.00260745 9.67807e-22)
(0.98869 -0.00080853 1.14692e-22)
(1.01323 -0.0149234 -7.63653e-23)
(0.999977 -8.87105e-06 3.27431e-25)
(0.997851 -0.00189568 -4.01675e-23)
(1.00058 -0.000775976 2.19839e-23)
(1.04378 -0.0793371 2.92318e-22)
(1.00837 -0.135214 1.34125e-21)
(0.998993 -9.06806e-05 1.75696e-23)
(1.00034 -0.000412019 -7.62162e-24)
(0.999084 -0.0041282 -3.95677e-24)
(1.0025 -0.00597305 -5.18788e-23)
(0.992111 -0.000436657 -2.06414e-22)
(0.999965 -3.23459e-05 -1.57366e-26)
(1.13772 -0.162811 -1.68231e-21)
(1.00003 -0.000354274 1.57563e-25)
(1.02211 0.000735098 -7.79633e-22)
(0.997582 -0.00166314 -2.09861e-23)
(1.00011 -0.000274499 4.14356e-25)
(1.02974 0.010314 -7.617e-22)
(0.971165 -0.0550923 -6.9586e-22)
(1.00018 -3.11054e-05 4.21147e-24)
(1 -9.0775e-06 1.12607e-26)
(0.958718 -0.00243021 -5.61517e-22)
(1.00272 -0.123114 -2.06997e-22)
(0.993704 -0.00591565 -1.55663e-23)
(1.00774 -0.0434594 -3.87366e-23)
(1.02365 -0.0163907 -3.94446e-23)
(1.0433 0.0848141 1.9214e-22)
(1.00006 -5.94315e-05 1.7926e-25)
(0.982125 -0.0223785 2.47591e-22)
(1.18428 -0.0975326 9.73486e-22)
(0.962659 0.0570512 9.19604e-23)
(0.994703 -0.0091929 4.67952e-23)
(1.02863 0.0413295 1.59612e-21)
(1.09098 -0.0486937 2.11902e-24)
(0.999907 -0.00179209 -1.62848e-24)
(0.832961 0.0501532 5.96967e-21)
(0.999604 -0.000320063 -1.10151e-23)
(1.01773 -0.0895349 -2.63224e-22)
(0.95278 -0.0125146 5.65975e-22)
(1.00165 -0.00189822 -2.02179e-23)
(1.17937 -0.0336155 -1.42074e-22)
(0.993781 -0.000673543 -1.22916e-22)
(1.00844 0.144788 3.59744e-21)
(0.997468 -0.00019219 9.66885e-24)
(0.987117 -0.0117601 -9.46806e-24)
(0.999846 -0.00162788 -9.4845e-24)
(1.12853 0.136313 4.43437e-22)
(0.999783 -0.0127401 9.64941e-24)
(1.04246 0.105663 1.34663e-22)
(0.999627 -3.35023e-05 -4.22609e-24)
(0.995747 -0.00136715 -4.61737e-23)
(0.962438 0.131406 -2.37228e-21)
(1.02604 -0.000326225 -9.15132e-22)
(1.02131 -0.000878412 6.28843e-22)
(0.978065 -0.0287199 6.22656e-22)
(0.999888 -2.40911e-05 1.11141e-24)
(1.00243 -0.00576213 -5.93891e-24)
(0.999879 -0.000691494 -3.4281e-24)
(1 -3.74312e-05 1.51109e-26)
(1.04814 0.00163901 2.49179e-22)
(1.00003 -3.90194e-06 6.43413e-27)
(0.985489 -0.0103879 4.27517e-22)
(1.17887 -0.0972794 -8.94152e-22)
(0.892582 0.110728 -5.87643e-21)
(1.00921 0.133989 -7.98742e-21)
(0.974355 -0.048067 2.14617e-22)
(0.989272 -0.0214202 1.53052e-22)
(0.983598 -0.00108994 1.14671e-22)
(1.02429 -0.030574 1.2565e-22)
(1.00458 -0.0132989 -2.87966e-23)
(0.986676 -0.0114122 -2.49888e-22)
(0.974304 -0.0526949 9.40293e-23)
(1.04166 0.0873119 -2.90314e-21)
(0.999456 0.0190262 6.0554e-21)
(0.999059 -0.000110607 9.69139e-24)
(1.00492 0.0693535 -5.75043e-21)
(1.04717 0.000473138 8.38341e-23)
(1.13892 -0.0776612 2.07073e-22)
(1.00999 -0.0121902 3.6694e-23)
(1.00059 -0.0117699 -4.47765e-23)
(1.01399 -0.0406955 -9.6167e-23)
(0.996053 -0.00132301 -1.0894e-22)
(0.998043 -0.000482175 -7.11158e-24)
(0.999956 -5.19564e-06 1.44374e-24)
(0.999274 -0.00643176 3.23113e-23)
(1.07367 -0.0462641 1.83408e-23)
(1.12965 0.141844 -7.57593e-22)
(1.00119 -0.00102569 9.52292e-24)
(0.979935 -0.0186823 -3.43474e-22)
(1.01143 -0.0125483 -1.15783e-22)
(0.999971 -1.22382e-05 -1.25569e-25)
(0.974328 -0.0503023 -3.39612e-22)
(0.868698 0.0861795 -2.65011e-21)
(0.995428 -0.00351756 1.61759e-22)
(0.999173 -0.00338193 1.04511e-23)
(1.01044 -0.0120771 -2.26977e-23)
(1.00083 -0.0347304 2.46094e-22)
(1.08007 0.0222469 3.08785e-22)
(0.999545 -0.00730237 -5.51544e-24)
(0.999976 -3.93498e-05 8.12181e-25)
(1.00001 -1.99472e-06 2.27827e-26)
(0.998017 -0.000439126 -7.90566e-24)
(0.960424 0.130386 3.43242e-21)
(1.03787 -0.0262464 1.05379e-22)
(1.01172 -0.135317 -3.45228e-22)
(1 -9.09874e-06 5.99251e-28)
(1.00004 -0.125026 1.35465e-22)
(1.069 -0.00826158 -3.36429e-22)
(0.996204 -0.000120217 -4.99339e-23)
(0.954557 -0.00458293 -6.89523e-22)
(0.999236 -0.00332408 -1.043e-23)
(0.999677 -0.000146492 -6.94182e-25)
(0.982732 -0.0202581 -7.42682e-23)
(1.00068 -0.000858203 -9.83552e-24)
(1.14647 -0.0703599 -3.76024e-22)
(1.00695 -0.000833448 -2.83704e-22)
(1.21474 0.082862 -4.15462e-22)
(0.999932 -0.00176896 2.11279e-24)
(1.00306 -0.0105336 9.38487e-24)
(1.00547 0.00961381 -2.55074e-21)
(1.22649 -0.108855 -9.89608e-22)
(1.00031 -0.000435735 -5.81384e-24)
(1.00033 -0.000386303 5.70614e-25)
(0.993892 0.0891219 2.85663e-22)
(0.994143 -0.0391369 -7.41652e-23)
(0.999422 -0.0071884 6.74537e-24)
(1.01147 0.0305478 3.11318e-22)
(0.97165 0.0203726 7.36838e-21)
(1.08087 -0.0890216 -3.58774e-22)
(0.998749 -0.0194585 -3.18449e-23)
(1.22043 0.00514861 -2.2731e-22)
(0.99943 -5.44936e-05 -7.28427e-24)
(0.993563 -0.00309263 4.35695e-23)
(0.997521 -0.000201692 -2.72049e-23)
(1.01372 0.0258565 1.63886e-24)
(0.99999 -0.000568474 2.20697e-25)
(1.00671 -0.00101172 2.89886e-22)
(1.08861 -0.135993 2.23797e-23)
(1.00359 0.125787 8.0541e-21)
(0.917243 0.127131 -1.29176e-21)
(0.995526 -0.00205495 5.63635e-24)
(0.993524 -0.00577552 4.66991e-23)
(1.05917 0.101304 -1.81708e-21)
(1.00523 -0.0451061 2.86767e-22)
(0.999957 -6.16723e-06 -1.4084e-24)
(1.26143 0.0739244 2.31152e-22)
(1.02192 0.00123326 -3.32315e-22)
(1.02154 0.0012499 -2.25264e-22)
(0.995581 -0.0100319 -6.74235e-23)
(1.01447 -0.00160428 -4.47072e-22)
(0.951879 0.116256 1.16563e-21)
(1.06149 -0.138585 -2.68843e-22)
(0.981337 0.115006 1.23804e-21)
(0.995537 0.113693 -2.09695e-21)
(0.999998 -4.92024e-05 5.05769e-26)
(1.07118 -0.0448307 -2.40692e-23)
(1.06383 -0.134952 1.72162e-22)
(0.997973 -0.00289927 1.84515e-23)
(1.00122 -0.0011024 -1.57051e-23)
(0.966789 0.0235876 1.76569e-21)
(1.03919 -0.02711 -1.35675e-22)
(1.00021 -5.70398e-05 9.56964e-25)
(0.983755 -0.043479 -7.53391e-22)
(0.973463 -0.0593519 -3.10592e-22)
(0.995839 -0.00140566 6.49017e-23)
(0.99991 -0.000159452 -1.38092e-24)
(1.05409 0.126224 -3.05476e-22)
(1.03881 0.0481776 2.498e-21)
(1.00004 -0.00038763 -5.47019e-26)
(1.00307 -0.00279699 1.23372e-23)
(1.00396 -0.0028085 6.68614e-23)
(1.13546 -0.12587 1.13092e-21)
(0.978142 -0.027954 -5.52048e-22)
(1.00005 -0.000459839 -4.10266e-25)
(0.999989 -1.57544e-06 -3.4623e-26)
(1.00037 -0.000126855 1.51537e-24)
(1.07873 0.0237792 -2.95819e-23)
(0.979156 -0.0191989 -2.76216e-22)
(1.00247 0.0480408 1.31066e-21)
(0.959967 -0.0321467 3.53607e-22)
(0.989865 -0.021356 -1.59608e-22)
(0.982294 -0.000846149 -4.81583e-22)
(1.01285 0.0293151 -1.53291e-21)
(1.22228 -0.0226642 -3.67562e-23)
(0.999089 -0.000117631 1.77541e-23)
(1.00596 -0.00460509 -7.15644e-23)
(1.00064 -0.00084958 1.11507e-23)
(0.980228 0.126788 -3.21131e-21)
(0.980686 -0.0174774 1.47478e-22)
(1.00082 -0.000215932 -5.34642e-24)
(0.99433 -0.00275939 -5.86136e-23)
(1.138 -0.0484783 -3.89663e-23)
(0.999603 -0.00784763 -1.42878e-23)
(0.991216 -0.0094579 -3.24066e-23)
(1.00018 -0.000109066 -2.91815e-24)
(1.00018 -4.13039e-05 -1.29031e-25)
(0.865145 0.0921612 4.16261e-21)
(0.993824 -0.00100323 -7.65788e-23)
(0.996362 -0.00363823 6.60854e-23)
(0.999711 -0.00144047 -8.25479e-24)
(0.999445 -4.15115e-05 -9.98542e-25)
(1.04996 0.0823113 -9.67994e-22)
(1.09287 -0.139379 6.84923e-23)
(0.987485 -0.0318389 9.56056e-23)
(1.00001 -1.6007e-06 -2.31723e-26)
(1 -3.00527e-05 1.37203e-26)
(0.979945 -0.0180622 3.89119e-22)
(0.994885 -0.00147283 1.55559e-23)
(0.996083 -0.00168607 -8.90496e-24)
(1.01121 -0.0042986 1.38278e-22)
(1.00445 -0.00190351 2.40559e-23)
(0.999977 -0.0130596 -1.72187e-23)
(1.11014 -0.0321665 1.90322e-22)
(0.986106 -0.00331948 -9.68342e-23)
(0.983223 0.112675 -1.0059e-21)
(1.0103 -0.0211406 -2.86629e-23)
(1.00019 -0.000109501 3.2451e-24)
(0.973867 -0.0471096 3.2282e-23)
(0.9865 -0.0281462 -3.33703e-22)
(1.17063 -0.0253491 -1.90244e-24)
(0.997774 -0.00477597 -1.96939e-23)
(0.9897 -0.0375541 -1.16678e-22)
(0.999984 -4.36966e-06 2.07898e-25)
(0.930112 0.0922932 -4.03349e-21)
(1.01202 -0.00179991 2.51071e-22)
(1.00006 -0.000186232 -9.96382e-25)
(0.912276 0.0243866 -5.13298e-21)
(0.986702 -0.0319371 2.21951e-22)
(0.999983 -5.08697e-06 3.31029e-26)
(1.00111 -0.00100291 4.635e-24)
(0.973744 -0.0492441 -1.89713e-22)
(1.02938 -0.0327389 4.03151e-23)
(1.04033 -0.0130348 3.06035e-22)
(0.999993 -2.65021e-06 4.88892e-26)
(0.993796 -0.000511369 6.11051e-23)
(1.01481 -0.0399091 1.65871e-22)
(0.995954 -0.00129016 8.99121e-23)
(0.999642 -3.8561e-05 -2.29017e-23)
(0.993687 -0.0031943 1.26357e-24)
(0.976067 0.0416907 4.3872e-22)
(0.994426 -0.00983105 -8.37655e-23)
(0.991582 -0.00927354 2.37612e-23)
(1.00212 0.0282579 -1.28948e-21)
(0.997892 -0.00179059 2.10348e-23)
(0.974582 0.128623 -4.14762e-22)
(0.999982 -5.1172e-06 -1.05872e-25)
(0.991421 -0.0215949 6.41632e-23)
(0.981873 -0.0592771 7.44174e-22)
(0.990389 -0.0378787 1.97619e-22)
(1.16849 -0.106519 2.64427e-22)
(0.999059 -0.00442248 2.61506e-23)
(1.00666 -0.0195623 9.20095e-24)
(0.999929 -0.00190426 4.5106e-25)
(0.986749 -0.0165933 -1.89243e-22)
(1.03014 -0.0355521 9.67008e-24)
(0.999973 -1.17062e-05 6.35378e-25)
(1.00001 -9.07737e-07 -4.00809e-26)
(0.995142 -0.00032961 4.1415e-23)
(0.981011 0.0783242 2.85357e-21)
(1.0096 -0.0163613 1.32458e-22)
(1.00199 -0.00283737 -1.95366e-23)
(0.951057 -0.0233649 4.93924e-22)
(1 -8.15263e-06 1.36627e-27)
(1.00076 -0.000936929 -1.7862e-23)
(0.999972 -0.000542059 -2.58284e-25)
(1.01075 -0.0157553 1.49265e-22)
(0.987044 -0.0122781 3.32093e-23)
(0.999703 -0.000227771 2.88583e-24)
(0.994801 -0.00878056 3.11464e-23)
(0.99052 -0.00547254 -3.47495e-23)
(1.00079 -0.000129305 -1.47219e-24)
(0.999982 -5.92635e-06 -6.62132e-26)
(1.19921 -0.0717021 -8.61681e-22)
(0.99974 -0.00141704 8.84119e-24)
(1.0661 -0.0122296 2.56728e-22)
(1.01889 0.122454 7.7482e-21)
(1.05416 0.100161 -1.67732e-21)
(1.00002 -0.0164852 -6.39659e-23)
(1.00436 -0.00172205 -7.96313e-24)
(1.01475 -0.00127874 2.7354e-22)
(0.999966 -0.0019474 -5.11496e-25)
(0.998184 -0.0083115 3.18858e-23)
(1 -1.3669e-05 2.05924e-26)
(0.992758 0.114105 -1.55274e-22)
(0.990443 -0.0124194 4.59398e-23)
(1.01097 -0.00395721 -9.8721e-23)
(0.986414 -0.00344867 1.98148e-22)
(1.00269 -0.010344 1.03739e-24)
(0.997907 -0.00470067 4.26621e-23)
(0.999919 -0.000163369 3.23436e-25)
(1.00001 -8.48177e-07 -2.13777e-25)
(0.996485 -0.00362503 -4.80762e-23)
(1.04698 -0.0129262 -1.67606e-22)
(1.0051 0.0460172 2.05426e-22)
(1.00095 -0.000383908 -2.1743e-23)
(0.977598 -0.0443041 -1.68171e-22)
(0.980664 -0.0169473 -6.67415e-23)
(0.993947 -0.00040234 -2.28885e-22)
(1.26483 0.0307119 1.54034e-22)
(0.998992 -0.000773339 -1.05503e-23)
(1.00269 -0.0116979 -2.41483e-23)
(0.995774 -0.00221605 4.51053e-23)
(0.999926 -0.00015747 2.72908e-25)
(0.973655 -0.0515023 2.1361e-22)
(1.00243 0.0423712 -2.04311e-21)
(1.0291 0.0373363 -1.63743e-21)
(0.982665 -0.0114128 -3.20482e-23)
(1.00184 0.0404619 -8.87392e-23)
(1.00007 -0.000174848 1.92143e-24)
(1.00001 -1.17566e-06 6.6506e-26)
(1.25436 0.0705548 -1.32433e-22)
(1.17792 -0.0274842 1.46968e-22)
(0.914798 0.0940275 -1.97367e-22)
(0.993801 -0.0640159 5.53045e-22)
(0.982479 -0.00116793 -1.49198e-22)
(1.13803 -0.0426539 6.76142e-23)
(1.0009 -0.000400979 2.4621e-23)
(0.995614 -0.00298373 2.58826e-23)
(1.00036 -0.000134952 -1.44725e-24)
(0.991784 -0.000559925 -5.02542e-23)
(0.990815 -0.0101692 -6.73396e-23)
(0.999997 -2.69134e-05 -1.36448e-25)
(0.999311 -2.66377e-05 4.15913e-24)
(1.00312 0.122773 -7.32804e-21)
(0.999899 -0.000562709 3.12154e-24)
(0.937975 0.0850002 4.84463e-21)
(1 -1.29851e-05 -1.55857e-26)
(1.25658 -0.0597623 -9.82003e-22)
(1.06591 -0.0141517 -5.54897e-22)
(1.11049 -0.0287128 -2.12497e-22)
(1.00081 -0.000381121 1.47465e-24)
(1.00015 -3.35909e-05 2.5876e-24)
(0.985102 0.073799 -4.25319e-21)
(1.06889 -0.010454 1.11221e-21)
(0.981295 -0.0602949 -6.86702e-22)
(1.02047 0.0365343 7.47707e-22)
(0.99785 -0.0166259 2.74018e-23)
(0.989697 -0.00417247 -5.11323e-23)
(0.99686 -0.000173282 -2.73911e-23)
(1.13958 0.173359 -3.469e-21)
(0.981293 -0.0203013 2.38893e-22)
(1.02482 -0.0293684 -8.69652e-23)
(0.995007 -0.00870887 -1.77846e-23)
(1 -8.10885e-06 -5.0978e-28)
(0.999002 -0.000729956 -8.96658e-24)
(1.00465 -0.00483739 4.189e-23)
(0.985896 -0.00613593 2.5548e-22)
(0.983102 -0.0115174 4.76791e-23)
(0.966735 -0.0295152 -7.53071e-23)
(0.985746 -0.00650488 -1.93321e-22)
(1.01623 0.00235027 1.31398e-22)
(0.998351 -0.00011157 5.58029e-25)
(0.954728 -0.0269452 2.57709e-22)
(0.989193 -0.000709767 -7.09974e-23)
(1.00003 -0.000168916 2.59228e-25)
(0.990555 -0.000570135 -4.93788e-23)
(1.02505 -0.0317376 -1.31306e-22)
(1.01559 0.00253231 -7.26197e-22)
(0.979798 -0.0203425 -5.98582e-23)
(0.999987 -5.81654e-07 -9.58542e-28)
(0.986453 -0.0125287 4.99891e-23)
(1.00147 -0.0119062 4.68894e-24)
(1.00108 -0.000931749 5.94847e-24)
(1.07677 -0.147237 -7.80275e-22)
(1.00184 0.0405312 -4.7642e-21)
(1.0007 -0.000925554 1.65807e-23)
(0.990715 -0.000429549 7.0945e-25)
(1.07365 -0.0866481 1.34058e-23)
(1.02269 0.000140166 1.10861e-21)
(0.989533 0.0311747 -4.66209e-22)
(1.00144 -0.00197656 5.30113e-24)
(0.999851 -0.0171606 1.99735e-23)
(1.10479 0.122757 -5.48293e-22)
(1.01445 0.0228973 -3.7951e-21)
(0.992226 -0.0215737 1.70268e-22)
(1.00373 -0.00281079 -7.48783e-24)
(0.963036 -0.0346701 3.57328e-22)
(0.999998 -4.00991e-06 2.50427e-26)
(0.963686 -0.00148384 -2.59654e-22)
(1.00007 -5.54513e-05 3.63102e-25)
(1.071 -0.0865578 -8.34545e-22)
(0.999974 -2.75767e-06 -7.03878e-26)
(1.00002 -4.95027e-05 2.09075e-25)
(0.999451 -0.0191575 -2.40256e-23)
(1.23684 -0.0188567 3.00015e-22)
(1.03455 0.157775 3.38303e-21)
(1.0277 -0.0329632 -1.98244e-22)
(1.01088 -0.0126448 7.71267e-23)
(0.999999 -3.04996e-06 -6.43435e-27)
(0.995263 -0.0035411 -8.75531e-23)
(1.00007 -1.68423e-05 -2.70939e-25)
(0.99756 -0.00190517 3.00471e-23)
(1.00002 -4.61008e-05 -1.62493e-25)
(1.04061 -0.011369 -9.53542e-22)
(0.999633 -0.000376798 -1.13134e-23)
(1.05439 0.0497422 1.62755e-21)
(0.999902 -0.000174345 -2.13803e-24)
(0.990069 -0.00408042 -8.61826e-23)
(0.969195 -0.000805496 5.7572e-22)
(0.996699 -0.000235435 -3.51812e-23)
(0.983259 0.0427131 4.4864e-21)
(0.986773 -0.000555845 1.38869e-22)
(1.0096 -0.084356 4.60008e-23)
(0.995727 -0.0031303 1.33977e-22)
(1.02088 -0.00234973 -2.2955e-22)
(0.975684 -0.0447565 7.72473e-22)
(1.01575 -0.00119381 -7.64225e-22)
(1.02645 -0.0611369 -1.86331e-23)
(0.999989 -1.23098e-06 9.10379e-27)
(0.999035 -0.0161794 2.21045e-23)
(0.996911 -0.000228605 4.2923e-24)
(1.0002 -7.37912e-05 1.95306e-24)
(1.00007 -1.41295e-05 4.54491e-25)
(1.14549 0.176195 3.78938e-21)
(0.996211 -0.0016921 7.50364e-23)
(1.02265 0.000790223 1.26704e-21)
(1.00033 -0.0175971 2.43701e-23)
(1.00067 -0.000243036 5.69129e-24)
(1.01914 -0.00718928 -8.39227e-22)
(1.00013 -3.1417e-05 -5.72687e-24)
(0.999981 -2.7451e-06 -9.45709e-27)
(0.964107 -0.00197716 1.99715e-22)
(0.99729 -0.000966424 3.39797e-23)
(1.00002 -4.49022e-05 2.44831e-25)
(1.06602 0.0982602 1.21803e-21)
(0.880601 0.0750643 -7.31625e-21)
(0.999836 -0.000184633 5.32293e-24)
(0.970514 -0.00163132 -1.55809e-22)
(1.00001 -1.16574e-06 4.7471e-26)
(0.948415 0.113642 -4.67977e-21)
(1.2656 -0.0624448 -1.33873e-21)
(0.976602 -0.0360554 -6.27849e-22)
(1.00004 -0.000444815 -4.70692e-25)
(1.02399 -0.0282775 2.10308e-22)
(1.02558 -0.00276718 -3.17093e-22)
(1.02666 -0.000400949 9.41498e-23)
(1.04128 -0.0137327 -1.18599e-22)
(0.999716 -0.00151889 -1.38961e-24)
(0.999897 -0.00067429 2.69912e-24)
(0.989061 -0.0123071 -1.47075e-22)
(1 -7.13801e-06 -1.05872e-26)
(1.00001 -9.39549e-07 -1.21543e-26)
(0.980682 -0.0199134 -1.41135e-22)
(0.994856 -0.049119 -2.93433e-22)
(0.967664 -0.0290258 -1.94238e-23)
(0.900898 0.106473 -1.53608e-22)
(1.00016 -2.03412e-05 -2.39124e-24)
(1.00753 -0.0634134 -6.13908e-22)
(1.00578 -0.00432079 -7.35353e-23)
(0.999982 -2.90413e-06 1.08233e-25)
(0.999195 -0.00314854 -2.27099e-23)
(1.00003 -0.000377288 -2.79187e-25)
(0.9964 -0.0101977 5.09995e-23)
(1.00004 -8.31947e-06 2.73284e-25)
(1.02798 -0.0603345 -4.25117e-23)
(1.01543 -0.00145645 7.42124e-22)
(0.97623 0.126165 1.09701e-21)
(1.02042 -0.00219943 8.60998e-22)
(0.999784 -0.000180566 4.20556e-24)
(1.00036 -0.000312515 -5.5919e-24)
(1.13208 -0.131066 -1.15633e-21)
(1.02256 0.000610689 -1.01821e-21)
(0.997602 -0.00031289 3.07646e-23)
(1.00001 -1.18501e-06 1.00521e-25)
(1.08167 0.0833623 -1.96243e-21)
(1.03987 -0.153679 -3.26122e-22)
(0.994114 -0.0627365 -2.39658e-22)
(0.988901 -0.000603652 -3.74897e-23)
(0.999983 -1.78083e-05 2.10029e-25)
(0.999786 -0.000170324 -2.46519e-24)
(1.04262 -0.157913 9.11308e-22)
(0.996251 -0.0395398 -8.02569e-23)
(1.03486 0.0258151 2.32545e-22)
(0.98257 0.108586 4.19247e-21)
(1.00914 -0.0821512 3.42417e-22)
(0.999017 -6.73151e-05 -5.52352e-24)
(0.999984 -8.3165e-06 -2.46364e-25)
(0.970609 -0.0379399 6.14258e-22)
(0.975381 -0.0760474 -7.96784e-22)
(0.999843 -0.000191055 2.84877e-24)
(1.0072 -0.0190625 5.6276e-23)
(0.992498 -0.0210143 -2.98291e-23)
(0.996406 -0.00181498 2.95614e-23)
(0.998071 0.0339333 -3.52615e-21)
(0.999001 -0.000437661 1.97847e-23)
(1.03966 -0.0475241 -1.30181e-23)
(1.22809 0.131472 -1.09731e-21)
(0.994022 -0.00260196 -8.61267e-23)
(0.912686 0.0886105 -7.18095e-22)
(0.920549 0.041653 2.18709e-21)
(0.999976 -4.17079e-05 -8.15965e-25)
(0.999979 -0.000592363 -2.29126e-25)
(0.98693 -0.000738255 -8.84374e-23)
(1.01042 -0.0039192 -1.786e-22)
(0.971709 -0.00150822 3.27298e-22)
(1.00406 -0.00349026 -7.6912e-23)
(0.994236 -0.00261159 8.03191e-23)
(0.999559 -0.000401491 -8.61954e-24)
(0.957537 0.114126 -8.35716e-22)
(1.05475 0.0472647 -2.52393e-21)
(1.00177 -0.00191813 1.3603e-23)
(0.840025 0.0473738 -1.48413e-21)
(1.00001 -1.01506e-06 -6.83052e-26)
(1.02158 0.0052606 -1.7896e-21)
(0.987126 -0.0759304 5.41526e-22)
(1.00938 -0.0637465 2.39354e-22)
(1.00007 -0.000169801 -9.87425e-26)
(0.970399 -0.000825472 2.66503e-22)
(1.01946 0.00477124 1.00715e-21)
(1.01015 -0.004199 1.47925e-22)
(1.02521 -0.00182185 4.40821e-22)
(0.999652 -3.01441e-05 1.61627e-23)
(0.999629 -0.000401528 1.02454e-23)
(1.01745 -0.0392307 4.4476e-23)
(0.997335 -0.00104196 -9.68713e-23)
(0.990179 -0.00923658 -1.58969e-22)
(0.999294 -0.00285426 1.3437e-24)
(1.07795 0.0305919 1.21461e-21)
(0.998803 -0.0168454 -1.52056e-23)
(0.996149 -0.00384738 1.56602e-24)
(0.94881 -0.0197171 -7.4183e-22)
(0.99631 0.0889915 4.68496e-22)
(1.09502 -0.0464938 -5.92462e-23)
(1.01869 -0.00687319 6.72458e-22)
(0.999691 -0.000147066 3.06967e-24)
(0.999605 -0.000262475 1.38669e-24)
(0.986194 -0.016373 3.82396e-22)
(1.00078 -0.00100833 -1.33131e-23)
(0.997992 -0.000552022 -5.50617e-24)
(0.999984 -1.7069e-05 -7.91129e-26)
(0.999745 -0.00154769 2.87701e-25)
(1.01895 0.00440871 -3.91698e-22)
(0.984319 0.0771505 -4.09737e-21)
(0.999901 -1.25924e-05 6.59656e-25)
(1.17198 0.154526 -2.91793e-21)
(0.999996 -3.36477e-05 5.90246e-26)
(0.997482 -0.00225574 4.09847e-23)
(0.999993 -7.71318e-05 8.83257e-26)
(1.00409 -0.0030207 -3.40663e-23)
(1.19899 -0.0785089 6.82167e-22)
(0.999969 -3.49021e-05 6.9197e-26)
(0.999968 -3.74865e-05 4.86961e-25)
(0.959187 -0.0324594 -3.49682e-22)
(1 -7.06978e-06 -2.06026e-27)
(1.04411 -0.0139666 9.91342e-22)
(0.989166 -0.0327289 3.04572e-22)
(0.999982 -0.00052096 2.61291e-25)
(1.07865 0.0618251 -1.50682e-21)
(1 -2.40148e-05 -3.38043e-26)
(0.999691 -3.12817e-05 1.41384e-23)
(0.999931 -2.8855e-05 2.34786e-26)
(0.996287 -0.00385784 -2.47408e-23)
(0.999737 -0.00123386 -4.25891e-24)
(0.995234 -0.000249338 -2.79109e-23)
(0.991807 -0.0920743 -6.28268e-23)
(0.999767 -0.00120181 2.83178e-24)
(1.00327 -0.0028102 -2.64788e-23)
(0.999981 -1.99881e-06 -4.05826e-26)
(1.03681 0.154518 -6.39507e-21)
(1.03814 -0.0481892 -3.81232e-23)
(1.09809 -0.0478227 2.36256e-23)
(0.973625 -0.00452862 3.55984e-22)
(0.982803 -0.00328841 -6.4811e-23)
(0.999265 -0.00307978 3.74492e-23)
(1.00227 -0.00213722 3.69711e-23)
(1.04493 0.0619722 6.94125e-22)
(0.985946 -0.0289253 4.54464e-23)
(1.12529 0.101128 7.15216e-22)
(0.967314 -0.0101398 -6.49799e-22)
(0.997393 -0.00217746 -3.87064e-23)
(0.999993 -3.28121e-06 -8.81451e-26)
(0.99563 -0.00222296 -5.43461e-23)
(1.01189 0.14662 1.66873e-21)
(1.0708 0.0720941 -3.5334e-22)
(0.984938 -0.0432786 2.53759e-22)
(0.956373 -0.00428459 1.51925e-22)
(1.04194 0.146198 1.70147e-21)
(0.993486 -0.000458048 7.21547e-23)
(0.984587 -0.0691743 4.26627e-23)
(0.999994 -7.36449e-05 1.56977e-25)
(0.988306 -0.032821 3.814e-22)
(0.999357 -0.000181262 -2.05509e-23)
(0.851668 0.0806609 -4.30648e-21)
(0.981426 -0.0563584 -5.75252e-22)
(0.999933 -2.58533e-05 1.21644e-24)
(0.953624 -0.0138184 -4.01105e-23)
(0.98573 -0.030664 2.24525e-23)
(1.032 0.0690679 2.53499e-21)
(0.99802 -0.0006025 -5.20068e-23)
(0.984372 -0.0294842 -1.3652e-22)
(0.998035 -0.00851718 -4.44905e-23)
(0.999542 -0.0185188 -4.99325e-23)
(0.999027 -0.0004452 -1.34585e-23)
(1.03073 0.0675469 -3.07e-21)
(1.00607 -0.130881 5.86449e-22)
(0.986391 -0.0130397 -1.11401e-22)
(0.9895 -0.0114538 2.34783e-24)
(0.990153 -0.00385369 -3.49893e-23)
(1.00409 -0.00165197 -3.12392e-23)
(1.04371 0.141983 6.61126e-21)
(0.986421 -0.0105821 5.05375e-23)
(1.01396 0.0348371 1.62989e-21)
(1.00209 -0.00171726 2.81289e-23)
(1.17514 -0.106166 -1.98859e-23)
(0.93518 0.0911607 7.27706e-22)
(0.993358 -0.000357571 -2.50034e-22)
(0.999824 -3.31071e-05 2.75842e-24)
(1.04811 0.0849732 7.58834e-22)
(1.0001 0.11748 -6.1262e-21)
(1.01701 -0.0378023 -5.1558e-23)
(1.06542 -0.045423 8.69088e-24)
(0.996217 -0.0105741 -5.68584e-23)
(0.974021 -0.00409701 -2.11124e-22)
(1.10151 0.11969 2.20069e-21)
(0.969617 -0.0380173 1.04966e-22)
(0.999982 -1.71033e-05 2.74904e-25)
(0.994345 -8.82984e-05 -1.27729e-22)
(1.00003 -4.55378e-06 2.7808e-25)
(0.996586 -0.00021135 9.58381e-23)
(0.999981 -1.80227e-05 -4.30359e-25)
(0.998249 -0.0118854 7.62728e-23)
(0.999265 -2.95844e-05 7.32928e-24)
(0.997878 -0.00445581 4.96758e-24)