/*--------------------------------*- C++ -*----------------------------------*\
  =========                 |
  \\      /  F ield         | OpenFOAM: The Open Source CFD Toolbox
   \\    /   O peration     | Website:  https://openfoam.org
    \\  /    A nd           | Version:  7
     \\/     M anipulation  |
\*---------------------------------------------------------------------------*/
FoamFile
{
    version     2.0;
    format      ascii;
    class       volScalarField;
    location    "1";
    object      p;
}
// * * * * * * * * * * * * * * * * * * * * * * * * * * * * * * * * * * * * * //

dimensions      [0 2 -2 0 0 0 0];

internalField   nonuniform List<scalar> 
30084
(
0.15364
1.44851
-0.143189
-0.53409
-0.0394711
-0.61644
0.0792862
0.160095
0.0332748
0.00298232
0.136238
-0.0666575
-0.00786056
-0.000405409
1.99072
-0.0959218
-0.00277427
1.11583
-0.0353978
-0.167458
-0.0141258
0.0311782
-0.143711
-0.0348027
3.89432
1.43852
-0.00840087
3.46982
1.97618
-0.0241462
0.2603
0.772913
-0.733858
-0.0887093
3.48549
-0.0646734
1.70829
-0.44043
0.0917152
0.0889645
0.00702589
-0.244592
-0.00247537
-0.10341
0.000509123
-0.0204722
-0.0577535
0.00120514
0.0550169
1.67321
0.292752
-0.476619
0.791605
-0.600301
-0.0938846
1.88535
-0.0550912
-0.0145074
-0.0566614
-0.152195
-0.000997934
-0.0343446
1.38559
-0.0538131
2.44267
3.6877
-0.0955298
-0.130809
3.55357
0.00735361
1.42563
3.02371
0.0428811
3.78857
-0.124103
0.643703
2.22564
-0.40041
-0.000748554
-0.156304
-0.565297
1.83255
0.152489
4.49816e-05
0.109381
0.191248
2.49614
-0.00813459
-0.00760939
-0.839109
-0.291707
-0.40159
0.0508969
0.846155
-0.868495
2.59237
-0.35494
0.00773815
-0.57329
2.18225
-0.0007907
-0.377057
-0.000973581
0.617488
-0.49074
1.26955
2.71678
-0.00732332
-8.42795e-05
-0.596822
-0.744141
0.308997
4.52502e-05
-0.0239339
-0.00300131
2.98273
1.99223
-0.184583
0.000389071
0.0485308
0.937777
1.52429
0.689663
3.69563
0.0179179
0.848391
1.15074
-0.0935886
0.0667289
0.000345246
-0.0904282
2.1861
3.09949
0.563554
0.61059
0.253083
2.90836
-0.385994
-0.449207
2.13798
0.888175
-0.737951
-0.68845
3.23337e-05
-3.20636e-05
-0.0403814
-0.0538795
-0.57704
-0.138697
1.7539
0.445608
0.231373
0.00701386
-0.00215285
1.8934
0.00850501
-0.116545
2.85416
2.16944
0.332675
-0.544255
-0.519688
1.92961
-0.000776717
-3.59518e-05
-0.18499
-0.673515
0.000830102
2.11599e-05
-0.107599
0.000577807
0.0945437
2.89216
-0.381724
-0.299478
-0.079157
0.034013
-0.38544
-0.0187397
0.780536
-0.000244866
0.00990907
2.49332
-0.123336
-0.450555
1.92582
-0.0988604
-0.285051
0.0621801
-0.0206904
-0.00447854
0.0548248
3.72875
1.87282
-0.218496
-0.112391
3.25766
1.73102
-0.853842
0.0188576
-0.00991509
-0.664987
-0.0628106
0.0135827
2.9205
-0.104452
0.112784
-0.58832
-0.612215
-0.00049737
3.21509
-0.0164597
3.05022e-06
-0.00870147
-0.263879
1.5267
0.0254209
0.109921
-0.0344074
-0.845069
0.000392691
0.00763019
-0.0370535
1.0541
-0.0444864
-0.0229104
0.742828
0.00203897
0.000474822
0.0851334
-0.405996
-0.343709
-0.0747324
1.41311
-0.232827
0.239657
-0.000427314
-0.0483157
0.0126227
0.0163209
-0.698903
-0.0217526
0.0075433
-0.0248014
0.0496503
-0.164144
-0.000733227
0.211421
0.000645636
1.06819
-0.0535907
0.00233209
1.28441
-0.693899
0.00405426
3.82263e-06
-0.740099
-0.691281
-0.14003
-0.111298
0.446574
2.4135
0.00126139
-0.395608
0.827256
3.33411
-0.125086
1.90592
0.681928
-0.00290634
4.25413
-0.00876448
-0.328231
-0.833256
0.0363961
1.19451
-0.130539
3.14192
-0.054179
-0.280103
-0.00418311
2.47079
-0.0364266
2.62406
-0.00818647
-0.091402
3.43551
0.943923
0.74054
-0.485806
-0.00244768
0.0478918
-0.00294855
2.30194e-05
1.09542
0.000605621
-0.30671
0.796854
3.92546
3.07686
-0.619286
-0.274226
-0.330004
0.256073
0.0626128
-0.288181
-0.640021
2.45425
2.99772
-0.0203348
2.68993
1.06905
0.726415
0.193568
-0.0138813
-0.00103152
-0.0854035
-0.0429341
-0.000913112
-0.0243371
0.590523
2.5085
0.0267834
-0.42232
0.224589
-0.000558931
-0.629204
4.04802
-0.0994248
-0.0208606
0.205426
-0.1516
1.48996
-0.0207388
-0.000499512
4.20744e-05
-0.0434427
3.45127
0.505024
-0.669509
1.38062e-05
-0.731269
1.02256
-0.0809178
-0.801145
-0.019205
-0.00717602
-0.381166
0.0150663
0.815116
0.170004
2.01033
-0.00187525
0.0443523
1.51349
0.94061
0.00693325
0.0073608
2.98557
-0.285436
-0.0232631
1.79279
3.36025
0.260393
-0.0916585
1.54262
-0.0126655
-0.135742
-0.0531107
1.70162
-0.000348252
0.163492
0.0103282
3.08391
3.77095
-0.0962134
-0.142948
2.48418
-0.160764
-0.0008852
1.96792
1.10354
1.11969
-0.110152
0.401421
3.48071
-0.232206
3.2247
3.08622
-5.24213e-05
0.588602
-0.190719
-0.0464405
0.0272716
3.38119
0.507098
0.00460896
-0.46468
-0.680504
-0.0898381
-0.00197947
2.71841
1.96276
0.000716115
0.0688043
0.0910064
0.38951
-0.481918
0.000975879
-3.93841e-05
0.00823779
1.51386
-0.437755
2.49282
-0.766109
-0.263515
-0.352797
1.76495
1.381
-0.0197187
0.135964
0.0140101
3.27936
-0.406384
0.0181965
-0.120785
0.937855
-0.0213382
-0.19688
0.00389148
0.00400158
4.0832
-0.13014
-0.0803322
-0.00716826
-0.0123777
2.34789
0.0265983
-0.34794
8.11377e-05
9.72209e-06
-0.420954
-0.108015
-0.0855213
0.282286
0.104679
-0.0329606
0.958061
-0.282843
3.19421
0.122313
0.00413052
-0.622966
-0.347174
1.22963
-0.0537892
-0.344576
-0.000233185
3.6217
0.315383
0.00140033
3.72836
-0.36111
-0.000248503
0.0245837
-0.632807
0.308904
0.760084
-2.56786e-05
-0.13002
0.016428
-0.0871105
-0.00785837
-0.133753
3.27788
-0.131498
-0.189516
1.95729
-0.0476172
3.33536
-0.000275883
-0.237474
-0.570843
-0.334143
0.689117
-0.0254474
0.0648594
-0.00284708
-0.301033
0.285595
-0.00052556
0.000111717
-0.103343
3.12234
0.147892
0.0430908
-0.869926
1.88428e-05
0.0166498
-0.000773054
0.176199
-0.282287
-0.00658296
-0.121292
-0.201501
0.0174733
-0.000291899
1.0228
-0.00638582
0.959131
2.93397
2.50037
-0.0508418
0.103071
0.412089
-0.00182209
-0.0529326
-5.3819e-07
3.11246
-0.219381
0.278224
-0.277171
0.0362689
-0.0506133
-0.00177487
0.000134084
-0.0781782
0.818926
2.20875
0.0212584
-0.556418
-0.406199
-0.127136
1.74147
-0.0223776
0.0305771
-0.0915769
-0.00162667
-0.643765
2.38124
1.83189
-0.358219
2.33087
0.00140833
6.96287e-05
1.94373
1.23341
3.73479
-0.441856
-0.350211
0.982597
0.0201424
-0.095292
0.00784612
-0.17127
-0.205851
-6.87529e-05
-0.0150504
3.06796
-0.00243258
3.5451
7.81265e-06
1.27123
0.934345
0.990195
0.0179704
0.00317184
3.06746
0.994823
-0.586898
1.85745
-0.0929486
-0.21643
-0.0678153
2.66385
-0.405653
0.279725
-0.11619
2.71971e-05
-0.0220948
0.103533
-0.290149
-0.350277
-0.660534
-0.293586
1.32067
-0.0361753
-0.826963
-0.223662
0.000653869
-0.196691
0.255233
1.33835
-0.430775
-6.67278e-05
-0.294014
0.00419912
0.0240739
-0.150774
2.49084
0.0154693
-0.193466
0.232672
0.946122
3.23104
0.0313797
-0.0586094
2.45705
1.64657
-0.222151
0.0849404
-0.729245
-1.13227e-05
-0.66316
0.00143898
0.204921
-0.000474199
0.000447305
-0.076846
1.43411
3.03563
0.281459
0.210647
-2.5046e-06
-0.102541
0.0014874
-0.0543018
0.000451153
0.795066
-0.00815923
1.90899
-0.00220502
-0.208989
-0.575769
-0.0711731
3.22318
-0.269887
-0.380041
-0.0930565
0.66668
-0.588154
0.445683
-0.0160305
-2.84099e-05
-0.0678852
-0.0666112
0.00422546
0.00143189
2.6624
-0.0828124
1.02063
-0.0506464
0.014845
0.504271
0.00283098
-0.000297811
-0.656539
-0.059049
0.000502978
2.42169
3.96075
-0.00361415
-0.5543
0.000102305
3.50473
1.28159
-0.535618
0.0006764
0.279652
0.823401
0.94533
0.756387
-0.00724147
-0.00246487
-0.244154
2.92319e-05
4.04203e-05
-0.413977
-0.337739
-0.6458
3.85176
0.00344233
-0.262183
0.132312
-0.00026959
-0.0203909
0.00049817
-0.0939263
0.000722691
0.00848605
0.432571
3.31005
0.64875
-0.00478637
0.00794024
0.340628
1.00068
-0.0518811
0.000148707
2.20413
-0.50329
-0.427516
-0.228944
-0.000307396
-0.00475263
-0.502674
-0.256587
1.59704
3.18458
-0.37124
-0.0212786
-0.000254286
-0.631873
-0.739576
-0.003481
0.0782281
-0.215332
-0.0787084
2.99746
-0.0216851
0.26498
2.26367
-0.126469
3.74307
3.67241
-0.00050452
-0.000621228
-0.266784
0.26037
-0.535457
0.0917144
-0.122374
-0.00978083
3.43261
1.87406
0.0392393
4.20686
7.82416e-05
1.23731
-0.593146
-0.24218
0.0016172
-0.555779
1.27093
0.250435
0.861466
-0.0076913
-0.008299
0.0616783
-0.0581462
-0.214791
-0.0181321
1.60454
-0.0770793
-0.0849268
-0.89524
2.95513
0.734087
0.494868
-0.00688907
-0.00878793
-0.310024
0.0170511
-0.0440891
-0.000290335
-0.00633101
1.27429
3.08138
-0.00217616
2.47774
-7.64176e-05
-0.0565829
-0.000142158
0.0937348
0.984277
-0.00064747
-0.000665087
-0.779815
3.66192e-05
0.775843
-0.327779
-0.000544776
1.98346
-5.56223e-06
-0.00686539
-0.001497
-0.0820288
-0.00641866
-0.101472
-0.631731
-0.00570217
0.0736274
-0.000302454
3.00312
0.243403
0.742768
-0.504317
-0.347125
-0.0188107
0.050531
2.12726
-0.359376
2.22872
-0.611816
-0.0584483
-3.80204e-05
-0.094378
3.12356
2.12404
-0.446989
-0.77412
2.92284
-0.136315
-0.587519
-0.000144753
-0.341581
-0.0142582
4.15254
-0.561077
-0.00146093
-0.822868
-0.370403
2.32447
-0.0435565
-0.389013
-0.0565312
-0.0719194
-0.0212725
2.31595
-0.700141
-0.295657
-0.23309
-0.207332
0.095886
2.88568
-0.290724
1.86093
0.0470233
0.725704
3.57603
-0.138835
-0.00389218
2.38657
3.06799
0.0693045
0.536585
-0.0992494
-0.497628
2.4464
-0.645848
-0.000340208
-0.119348
0.000570123
-0.0735055
-0.000360756
-0.0631647
-0.0160162
-0.0513784
0.492342
-0.0100742
-0.00839364
-0.0172263
2.00113
-0.0347735
-0.0527562
-0.0486124
1.78391
0.0893034
-0.00604694
3.0944
3.63221
-0.303408
3.45124
-0.265981
2.91554
0.0916218
-0.0778502
0.0432329
-0.00761099
0.000255556
0.0432309
-0.181403
-0.304189
1.83336
-0.350067
-0.308615
-0.0150752
0.58993
-0.337497
0.110191
-5.48496e-05
0.283187
1.97968
3.01431
0.66309
-0.20126
1.52162
-0.0052637
0.545068
-0.271727
0.0109956
-0.810686
0.0667544
2.91256
-0.0328694
-0.00857248
-0.00194836
-0.58409
-0.0185922
4.15848
4.25472
0.187914
-0.000528876
0.132026
-0.000255673
1.0717
-0.0085255
0.342727
3.9783
1.26825
0.00027256
-0.121475
-5.46216e-05
-0.73173
-0.527304
3.37878
0.0036066
0.180987
0.069508
0.00446215
-0.0351481
-0.00466335
-0.0900291
-0.473137
-0.341141
0.149734
1.95159
-0.196822
0.0997422
-0.301944
-0.0246438
-0.390817
0.000171473
0.000679405
-0.0335871
0.438537
-0.304588
-0.231044
-0.0548367
0.0411814
0.02247
2.70932
-0.190595
-4.1522e-05
-0.790972
3.16906
0.530801
-0.175434
1.35672
2.14808e-05
-0.0101378
-0.417002
-0.000426934
-0.0067043
-0.000264993
4.20406
0.133753
0.0545648
6.75161e-06
3.14274e-05
-8.03942e-05
-1.38478e-05
-0.336902
3.08557
-0.521745
-0.00682127
-0.00235856
-0.0647988
3.32591
-0.593052
3.19933
0.734449
1.48667
-0.00197657
3.28129
-0.0321723
-0.133418
0.540936
0.167594
0.181954
1.85544
-0.59977
3.24188
2.72456
-0.110988
-0.37121
0.239008
-0.422889
-7.82745e-06
-0.0135513
0.0400572
0.86954
-0.0924381
-0.337948
-0.0463148
3.85985
-0.59876
-0.000442221
-0.000376683
3.40135
-0.0701317
0.0578917
-0.188052
-0.0321316
-0.212283
-0.136814
0.614471
1.56101
0.758382
-0.141285
-0.19805
0.001194
-0.0813395
-0.00479722
-0.110357
-0.000360989
0.000772507
-0.130219
-0.279747
3.21797
0.00922808
-0.0027692
-0.0209467
-0.00432176
3.07601
0.540804
-0.000452396
-0.30985
-0.0630155
-0.0489372
-0.383039
-0.463779
0.0958811
0.797355
-0.608617
0.00100205
0.082514
-0.18952
-0.000123907
-0.000828161
1.24614
1.00095
0.902723
-0.712667
-0.574671
0.00719948
3.59553
0.00107891
-0.156516
3.11351
-0.238029
-0.501885
5.08831e-05
0.00213238
-0.495363
-0.12816
0.0189248
-0.46739
2.16737
2.8039
0.00921333
0.0034834
2.23459
-0.171171
-0.00013148
-0.0197696
-0.392386
-0.282012
-0.10812
-0.00752229
2.48055
0.000185694
0.890254
2.55687
0.000478637
0.215725
-0.005939
-0.499596
-0.185211
-0.00878698
0.34498
0.00273339
2.16174
0.0186681
0.288429
0.622022
3.91454
2.8635
-0.764346
-0.0918668
4.98641e-05
1.12819
-0.170415
1.65937
2.9337
-0.462754
0.294434
-0.203669
-0.0772514
1.45844
-0.002374
3.41532
0.329017
0.000623579
0.000494862
0.00127182
-0.153763
-0.213388
0.00893097
1.26012
1.5511
-0.70263
0.00894484
0.000853532
-0.27056
-0.00044312
-0.0330567
-0.124355
-0.00672796
1.0777
0.0593874
-0.0154833
-0.0439867
-0.182967
2.86138
2.92378
0.453413
-5.54739e-05
-0.00621158
2.25168
-0.00515402
-0.129672
-0.002273
-0.226063
-0.72668
-0.00226226
-0.00256407
-0.34993
0.0169923
-0.000805133
-0.0149048
2.09259
-0.398594
-0.000380076
1.02367
2.89777
3.00515
0.00739406
-0.23563
-0.104534
3.15662
-0.677966
-0.691556
0.14238
-0.146488
0.342544
-0.293894
2.99894
1.1015
-0.00195059
-0.623148
-0.877137
-0.0422446
-1.43002e-05
-0.0197234
1.93883
-0.00204939
0.214826
-0.0441335
-0.0132468
0.103407
0.319275
-0.00202601
-0.00134119
-0.0424264
-0.474224
-0.396048
-0.720713
2.14707
-0.00179736
-0.0029908
-0.376468
-0.268634
0.118156
0.149738
0.00081573
0.772062
1.47652
0.207616
0.280436
-0.00694645
-0.148292
1.22768
0.0144925
-0.000572875
-0.0961915
-0.0446049
-0.00800726
-0.116004
-0.00921139
2.70685
-0.0986657
-0.63824
-0.260807
-0.117167
0.130238
3.49936
-0.507288
-0.00129415
3.26362
1.60814
0.0858711
-0.0641958
0.0837072
0.872911
1.53861
0.00385166
-0.0172431
3.95611
2.42764
2.89698
-0.492919
-0.0153408
-0.0134736
-0.000394964
-0.0141231
2.77904
0.863736
0.148941
-0.00302111
-0.00392559
0.633805
3.69534
3.08054
0.838643
-0.0308702
-0.748063
-0.0268052
-0.00790441
-0.165213
0.217118
-0.308172
-0.038481
0.0100494
-0.750879
-0.502815
0.326238
-0.269915
0.00745299
-0.293028
-0.00215983
-0.0747823
-0.00750235
2.95975
0.000545868
2.92043e-05
-0.0920873
-0.219884
-0.32423
0.423246
0.000529547
-0.788573
0.787915
1.84103
4.15509
-0.0502483
-0.270156
0.344686
-0.0230196
1.26225
-0.00649489
0.117373
-0.00207568
2.51805
0.439153
0.118165
1.55577
1.16918
0.0164796
0.0425207
4.2443e-05
3.25321
-1.99329e-06
-0.516438
0.00367864
0.0194381
1.77109
1.05607
-0.645461
-0.442686
-0.0440541
4.22246
-0.705697
5.06797e-05
-0.168375
-0.000424071
-0.0803759
1.07495
1.83001
0.00971791
-0.392249
-0.100601
1.45682
1.32948
-0.362401
3.89981
-0.105368
0.00073006
-0.223102
3.98051
0.0319199
0.949652
-0.464545
1.59144
0.0205667
0.4673
-0.901877
0.0744684
0.587655
-0.0703383
2.21965
-0.289065
-0.210608
-0.00857899
-0.00861819
3.56442
-5.30194e-05
-0.0483465
-0.00033287
-0.087108
0.00384974
-0.0769767
2.47985
3.86538e-06
-0.0110474
1.85171
-0.555171
-0.21501
0.0125392
3.04188
-0.42684
1.63697
-0.127686
1.50896
0.085762
-0.00801625
0.6293
0.00840917
3.6502
-0.283072
-0.00121995
0.0245487
1.39988
-0.119857
-0.00748975
-0.00134546
-0.551577
-0.0278713
-0.102672
-0.705279
2.59307e-05
-0.78736
0.00480921
2.84511
-0.107183
1.46013
0.0543193
-0.0399031
2.47013
-0.360542
-0.186693
-0.0466731
-0.531708
2.53268
2.67605
-0.151263
-0.000239541
-0.16686
0.0505766
0.000129411
1.07376
2.98439
0.137508
0.0172613
0.166301
-0.800638
-0.00179322
0.943937
0.577282
0.883001
0.14475
0.304408
-0.00411189
1.67541
0.533891
-0.555192
-0.01081
0.302316
1.46441
0.00873698
-0.831895
1.99629
-0.323937
-0.837005
-0.894826
-0.244394
-0.271523
0.5676
1.99061
-0.478242
-1.00326e-05
0.00985617
0.506019
-0.0189976
0.208527
-5.2261e-05
-0.0618796
0.0431569
-0.000735558
0.603796
-0.00551381
1.21165
-0.340162
-0.0309212
-0.0745556
-0.0925205
-0.667661
-0.0632611
-0.0109967
0.230767
0.844035
0.0568444
-0.370648
-0.0318826
0.334303
-0.101865
-0.210916
-0.869775
-0.172671
-0.000357731
-0.166409
3.2371
0.000339709
1.98926
-0.110384
3.83796
0.52807
-0.536055
-3.07721e-06
0.0183282
-0.780584
-0.000201345
-0.029283
-4.5728e-05
-0.688042
0.0494055
-0.514677
-0.255107
-0.00133755
2.37378
2.28294
-0.389675
0.00488908
-0.00184385
-1.66477e-05
-0.000603603
3.60164
-0.0143113
0.0247778
0.236373
0.010351
-0.00640934
-0.893334
-0.00284311
0.553336
0.0622393
-0.0229456
-0.00797129
-0.288306
-0.459879
1.75437
1.34574
-0.00174767
-0.142304
0.00595515
0.0272835
-0.00499571
1.44805
-0.052866
4.26769
-0.0723919
-0.0157873
0.790207
-0.208501
2.82425
-0.467028
-0.123005
-0.141654
0.198999
-0.0395572
8.77091e-05
-0.0896936
2.60291
-0.502256
-0.035428
-0.475695
-0.305473
1.4892
-0.00550027
2.45392
0.0397787
-0.654864
-0.00575966
0.145846
0.509284
0.0504184
2.86303
-0.00512137
0.356028
0.917163
0.00562584
-0.00142212
3.7645
0.883558
0.0031729
0.333722
0.336133
0.0014297
0.0231403
-0.242887
-0.595115
-0.106723
2.70262
0.0531111
2.12412
-0.00429424
3.09192
-0.82088
-0.0575488
0.0686355
0.341057
-0.599494
-0.170122
-0.0938856
0.000558847
3.96556
-0.253108
0.00897887
0.22727
-0.453229
2.89215
0.0329719
-0.180002
-0.000582104
1.28529
0.0896216
-0.438445
0.00894337
-0.0382504
-0.319162
0.000404288
-0.59366
-0.0169395
-0.163987
-0.73381
2.42287
-0.111953
1.03097
-0.163265
-0.329195
-0.000300339
0.00160964
-0.0416644
0.000421513
-0.124167
1.08579
-0.0230175
1.14317e-05
3.6013
0.0557122
0.00368265
-0.00042099
-0.0229872
2.82538
-0.61834
3.96432
1.76364
0.252822
2.41835
-5.57295e-05
-0.150766
-0.00924
-0.0272987
1.82272
-0.107521
4.04307
2.28279
-0.63364
2.31427
0.106957
-0.15637
0.0247772
-0.104851
-0.044183
-0.595825
-0.660558
-0.0332811
2.31165
-0.108206
0.00155567
-0.0477832
-0.00736617
-0.401703
-0.00181738
-0.0139384
-0.000282201
1.56038
-0.101806
2.37175
0.330019
-0.0308486
-0.32044
-0.220127
0.767559
-0.034062
-0.0118629
-0.764664
-0.504959
0.173863
-0.499008
-0.0497046
0.265954
0.0491245
0.000376415
1.4114
-0.000440125
0.608142
-0.00895989
3.76223e-05
0.0219105
-0.00747858
-0.0136284
-0.175817
1.87294
1.4754
-0.227181
-0.139899
0.032183
-0.0568149
-0.113533
0.000845251
-0.00547255
0.00763641
1.16592
-0.0899166
-0.620027
-0.425278
-0.020547
-0.174803
-0.0496846
-0.0189081
0.0595065
-0.139498
2.20296
-0.673058
0.0775585
0.0399543
-0.418441
3.9213
-0.109532
-0.0316868
0.0874712
0.864287
0.0448012
0.059156
2.32245
-0.00405835
0.503841
-0.2285
-0.414487
0.0708967
-0.0419255
-0.0619123
0.457109
-0.0404085
-0.00697295
0.0579697
0.0291836
-0.00259449
0.47214
-0.103343
-0.0224736
-5.48156e-05
1.57287
-0.0004168
-0.304194
0.838467
-0.231565
0.00156067
1.1513
-0.271176
1.67599
-0.000559373
-0.0442752
1.53263
0.00194908
0.055462
-0.0508118
0.117371
-0.233887
-0.373573
-0.0844484
-0.0300508
0.111335
0.229009
1.79959
-0.00206532
1.19389
-0.46299
-0.0371977
-0.0773095
0.00445907
-0.390989
0.000826142
3.2699
2.2164
-0.00548564
-0.237047
0.00293956
-0.0247091
-0.0507964
-0.081767
1.56898
1.95606
0.487133
0.114622
-0.856804
0.453491
1.07581
1.26484
-0.593083
0.240157
2.10597
-0.105446
3.00304
-0.0102364
-0.12163
-0.492542
-0.00102909
-0.00835483
-0.000420821
2.98432
-0.114382
0.00297229
-0.17354
-0.0357522
-0.00359608
-0.146362
2.62748
0.0115777
0.124706
-0.278869
-0.00540129
-0.0507939
-0.00879876
4.07511
0.00233618
0.000301582
-0.0203298
-0.151864
1.66562
0.00595213
0.2895
0.844264
-0.0017317
0.0240959
-0.848204
1.4248
-0.167639
1.21971e-05
0.00378015
0.312349
0.366105
2.63673
0.967618
-0.401137
1.39535e-05
-0.419968
-0.0289847
-0.137678
-0.132869
1.70289
3.18217
-0.00114622
1.47335
2.16687
-0.106797
0.120729
-0.222214
-0.0572105
0.00120942
-0.457419
-0.0931472
-0.0012838
-0.00595309
-0.0169969
-0.0208855
-0.00736975
2.61569
2.87956
2.19035
-4.33974e-05
-0.260976
1.02871
1.09737
3.30973
-0.00536292
-0.225764
-0.205854
2.86292
-0.210883
-0.099509
0.318985
1.50528
0.00330885
-0.00544608
-0.257052
-0.282525
1.65035
0.807789
-0.364382
-0.234958
1.76681
0.235801
-0.51924
0.0773007
1.18187
1.86753
-0.00381266
-0.0067451
1.35571
0.00226931
0.689861
0.344434
-5.45728e-05
2.83985
-0.112102
-0.0484385
4.10696
-0.412355
-0.0640048
-0.41849
-0.0245293
3.16632
0.0127183
3.91892
-0.00143861
0.148395
4.02694
0.0756289
3.18945
-0.0629744
5.13755e-05
-0.14538
3.32975
-0.0169304
-0.0728732
-0.0873899
-0.010888
-0.230359
3.25583
1.24586
9.17062e-05
0.232804
-0.0407642
0.332747
-0.00959138
0.252056
-0.0285791
-0.0051237
3.12463
3.36463
3.13801
-0.582081
1.28044
0.00162348
-0.653498
2.41448
0.216079
0.00266381
-0.35599
0.00652167
-0.00110053
3.3187
0.00138244
0.0468705
-0.0206081
-0.0944163
3.15266
3.30244
3.32867
0.132349
0.00528112
1.9927
0.0830396
0.350546
-0.0986059
0.000772672
-0.0325154
-0.000222077
-0.0495171
-0.00802396
-0.0608372
-0.000677238
1.4734
0.0230986
-0.5612
-0.0978291
-0.815466
-0.177688
-0.00825325
2.92212
-0.116787
-2.5572e-05
-0.000286502
3.89437
0.000320053
0.125798
0.685311
-0.197218
2.62456
-0.0572439
-0.489497
-0.40634
-0.00536158
0.00137543
2.21567
3.32804
-0.0166555
-0.202608
-0.00247543
3.34911
3.79906
-0.015558
-0.0685302
0.210483
0.0352081
-0.268079
0.000742492
0.11127
-0.411512
0.694606
2.99332
-0.0161974
0.311628
1.54361
0.985391
-0.498961
0.313282
3.71178
1.89597
-0.618348
3.41159
-0.00625811
3.31215
-0.0686908
2.90016
0.921839
-0.0552561
0.493268
0.0263146
0.192697
-0.840588
-0.00720387
-0.255234
2.99275
-0.280052
0.387496
-0.0157532
0.835767
1.86099
-0.0982913
0.981292
0.00780517
-0.0392836
-0.260752
-0.0233147
0.0218888
-0.0949449
-0.00534338
0.0264235
2.90844
0.0253407
-0.173018
-0.620572
-0.31523
-0.728627
-0.650279
0.0458853
-1.72079e-05
-1.61571e-05
2.31899
-0.429361
0.000667406
0.13027
1.65873
-0.632503
-0.160135
0.00126653
-0.0201206
-0.517814
1.57681
-0.0776006
-0.00509513
-0.516818
-0.204621
4.01119
1.09745
0.773894
-0.479657
-1.83192e-05
-0.0717411
0.676936
-0.00382401
0.00021065
1.62726
1.06791
0.00672791
-0.0089836
0.125679
-0.293651
0.114873
0.0977741
-0.160786
0.000592029
2.76583
0.00638522
-0.00675018
-0.00245014
-0.0022771
-0.00159542
0.83158
0.0109319
-0.0298238
-0.100702
-0.0459005
0.313873
-0.0576439
-0.45609
-0.109424
3.14138
2.72148
-0.00513294
-0.0152449
1.03675
-0.00861812
-0.186145
1.03385
1.55908
-0.0101067
0.218685
0.424385
0.0142034
1.38992
-0.00104324
0.0791832
0.259443
0.150173
-0.151315
0.503577
0.000805053
0.0216506
0.00301976
-0.000465064
-0.0145663
-0.101214
-0.134052
-0.307882
0.982831
0.451062
0.0965941
-0.55097
0.146586
0.118172
0.140447
0.000643627
3.24024
-0.0854369
-0.0340331
0.428331
4.05601
7.09254e-05
1.30314
5.02674e-05
0.200021
-0.0668595
-0.222695
1.61936
-0.0412092
-0.000254371
2.14323
0.714099
-0.00569424
0.530581
-8.15929e-05
1.47574
0.0936828
-0.289855
-0.00142532
2.21347
0.297806
-0.214551
0.000438424
1.53493
2.58345
-0.0115961
-0.000293144
-0.373668
-0.0924943
0.202635
0.328844
3.32142
2.21102
0.00504867
2.89378
2.26232
-0.0290099
-0.611738
-0.272629
-0.137299
-0.437544
1.91981
0.00854712
3.47537
1.48188
0.130876
0.00101885
0.00661773
9.96721e-05
-0.00564385
-0.0285213
3.71521
0.000112295
0.766949
0.277267
-0.00226179
3.53776
3.81669
1.76835
1.96729
0.915394
0.0254888
-0.00283963
-0.110526
-9.46866e-05
-0.01105
-0.600187
-0.000171107
-0.0136551
3.57555
-0.116477
-0.000165293
3.6271
0.00481398
-0.375521
-0.714278
-0.0131982
-0.581332
-0.00230992
1.81132
0.0342144
-0.150076
0.0197178
-0.00646305
-0.0038776
-0.00218179
-0.676985
-0.619067
1.385
0.0295601
0.0439566
2.1323
0.000785526
3.96066
-0.00539806
-0.942261
0.0230157
0.0166165
0.503373
0.536141
6.52118e-05
-0.0418812
0.00110388
-0.00671511
0.00865563
0.809129
0.481434
2.61067
-0.256442
-0.000946213
0.00174582
0.926119
2.96475
-0.0449358
-0.0631358
3.91837
-0.0275996
-0.210983
0.0111171
1.05061
-0.203222
-0.0856175
1.4133
0.0135395
-0.00241532
0.0167632
0.798026
3.95479
3.20475
-0.246934
-0.294467
-0.0633877
0.0158612
0.000299919
0.723042
1.88118
9.34825e-05
-0.0731509
-0.000153109
0.00142234
3.10714
-1.76776e-06
-0.630867
-0.439649
-0.534903
0.681898
8.17181e-05
0.101879
-0.0590478
2.94018
0.475783
0.0505305
-0.305699
0.00647557
2.93068
1.78425
0.118767
0.708093
3.62109
-0.635284
-0.542428
-0.0188355
-0.0697872
-0.00373369
0.362322
-0.000588337
1.46953
0.0295521
1.91154
-0.331735
-8.25252e-06
0.628047
-0.00159206
-4.02093e-06
-0.00735729
3.86404
3.73397
2.81942
0.00061967
1.98177
3.27392
-0.00957921
0.0320407
-0.0848618
1.15657
3.37002
-0.280205
1.122
-0.0239791
-0.686013
-0.778309
4.15676
-0.00593067
3.23443
0.83685
1.64926
0.00124441
0.0021683
0.0550758
-0.0884551
0.820275
-0.000477088
0.000700542
3.1518
-0.444098
0.00298679
3.28435
-0.0223242
0.00159903
2.92679
-0.0563391
-0.0152946
1.02212
1.79037
0.00323213
-0.00121647
0.0365516
-0.0401523
3.16997
3.85377
2.54286
4.05764
1.75124
-0.480165
3.64168
-0.000712606
-0.0321115
1.89677
-0.0343293
-0.0064028
-0.000929784
3.30354
0.572596
-0.00633359
3.7603
0.71441
2.532
0.434391
-0.0266677
-0.204766
1.65671
0.769153
3.34748
-0.207998
-0.00765882
3.09262
3.08621
0.141925
2.61394
-0.356037
-0.0768723
-0.087917
-0.00625484
-0.0013047
3.10736
-0.61775
0.799953
0.0113468
1.42427
-0.324752
-0.0749346
-0.00959114
-0.0310106
3.40197
-0.00780138
-0.171818
-0.0297209
3.41024
-0.185976
0.198505
-0.0743523
0.013862
1.36295
-0.222446
3.40919
1.88661
4.0609
2.02816
-0.637759
0.305554
-0.0174302
0.360687
0.70417
3.19778
3.37712
3.67424
2.77969
3.12208
-0.00351865
3.52774
-0.000256158
0.000717465
-0.489607
3.78655
0.482253
2.1789
7.26491e-05
-0.021471
0.413156
-0.296982
3.13646
-0.00660825
-0.0754705
2.81847
0.0102887
-0.0421078
3.96626
0.45964
-0.254779
0.13619
-0.00519419
1.29835
1.89231
4.10431
1.6388
1.07488
0.0465531
-0.00225224
0.0899775
1.64682
0.0820271
0.00131909
0.0273187
1.96216
-0.0144286
3.28674
-0.558961
3.30112
0.0647742
-0.222354
3.62147
-0.0524434
1.14468
-0.00390577
-0.0127065
-0.686573
-0.224343
-0.373067
-0.094489
0.329626
-0.0304159
-0.740701
3.33697
0.00265978
0.00754206
-0.194728
1.13344
-0.170333
-0.602461
7.6926e-05
0.0462317
0.466206
-0.000952913
-0.549595
1.04842
3.30461
-0.410864
3.31932
-0.133353
1.32355
1.99019
-0.356
2.84239
-0.016248
1.3122
0.0224005
0.785908
1.69709
1.4751
-0.276674
0.0608385
-0.00659783
1.50448
-0.000748392
-0.0011913
-0.00997983
0.345483
0.199853
0.148494
2.91443
1.50328
3.91205
2.75589
-0.0147478
-0.334749
-0.00153542
-0.462637
-0.0101481
0.0565102
0.00626563
-0.267778
2.55134
3.17572
-0.00275743
0.000227326
1.02852
-6.07614e-05
-0.0875347
-0.00166625
1.33646
-0.356372
1.56427
-0.57672
0.000424331
-0.134618
-0.394993
-0.205223
-0.15778
-0.540046
0.830091
-0.00152641
-0.000273917
0.0201759
-0.00125327
0.897705
1.54786
0.400146
3.6989
0.443401
-0.55486
-0.911096
-0.00417787
0.480937
-0.00112752
3.15224
0.888689
3.55229
0.00141932
-0.320548
-0.0656213
0.505337
2.22032
3.02734
-0.0731465
0.41318
-0.0188788
-0.158211
-0.0768456
-0.0584412
0.942119
0.015294
-0.0557064
-0.195649
2.44879
0.761997
4.51149e-05
-0.0083875
-0.0594294
-0.00577969
1.17869
-0.00633052
-0.12656
1.44205
0.000778698
2.13012
0.000875568
-2.72089e-05
-0.731907
-0.0863953
0.00162639
-0.218487
0.00174256
3.68776
0.120512
-0.240228
3.36966
1.09582
-0.312978
2.87298
-0.0264967
-0.0174613
-0.0198813
0.848864
4.2847
-0.0145333
-0.00580253
3.40237e-05
0.0755581
-0.011868
0.23993
0.0588649
-0.204749
-0.589809
0.180324
0.108802
-0.179126
-0.00507397
0.4334
3.01736
-0.0171517
-0.131369
-0.00214877
2.90291
0.552279
2.97558
0.00416265
-0.00801102
-0.224806
3.68613
1.24572
-0.276236
-0.0011895
0.305816
1.27908
0.0786703
1.74037
-0.481786
0.209814
-0.554898
3.01445
-0.129249
1.96574
-0.0305371
4.13198
-0.410435
-0.104144
3.45545
-0.42763
1.38023
-0.602243
1.49674
0.061783
0.477364
2.46471
0.466822
-0.486176
-0.0919668
-0.0707232
-0.0280601
0.43934
-0.0128788
-0.533576
-0.280926
0.0190766
-0.662975
-0.826106
-0.000306437
1.7316
-0.087125
1.86809
3.56427
2.83359
-0.543261
-0.700044
0.00442036
-0.3706
-0.0350421
4.00819
-0.348079
-0.3003
2.78817
0.444747
-0.370782
2.18785
-0.365155
-0.00616829
-0.111578
0.0972002
0.00673534
2.90746
-0.0258432
1.19315
2.8427
-0.0545808
1.86839
-0.546841
-0.00349257
0.0645276
1.11789
2.82269
-0.0241015
0.902722
-0.66305
0.781101
-0.220929
2.8193
0.294892
0.109504
-0.0232649
0.00178462
3.28977
-0.0225079
-0.155908
-0.000969227
1.66848
-0.000551128
-0.355672
0.0141001
-0.125318
0.00648174
-0.0913283
1.95691
-0.0376184
0.00886291
0.00625521
-0.0396446
0.912983
-0.000720747
-0.000184187
-0.0808969
-0.0997924
-0.212531
0.0778184
-0.0181167
0.69191
0.711453
-0.0123597
0.00971526
-0.00183063
3.26137
-0.040078
-0.0648618
2.97824
-0.174695
2.84412
0.575881
3.25797
1.81006
1.03545
-0.0141708
0.129671
0.741303
0.251416
-0.0415685
0.00182009
0.0808033
-0.475295
-0.00891514
-0.0789086
-0.0758666
-0.0831092
-0.000243224
-0.0313735
0.000636245
-0.000668285
0.00830785
2.51536
1.89661
-0.105074
-0.0264766
-0.439315
-0.200017
2.41637
3.01055
-0.437677
0.0194817
1.68398
0.111631
0.00569732
-0.733432
6.97188e-10
1.04475
1.37845
-0.00619653
-0.35282
0.00200848
-0.0753282
-0.0734317
1.17616
0.242826
-0.523781
-0.000366086
0.103746
0.0166747
-0.334872
0.0532383
3.2577
0.00322365
-0.0371814
-0.312168
2.16016
2.46718
2.75966
0.668312
0.000547009
0.0633428
-0.00607477
-0.0139439
-0.00906095
0.84572
1.7422
-0.113932
-0.0539522
2.52027
-0.0393899
-0.0538941
-0.574515
1.13567
-0.0090227
0.804102
-0.132359
0.92472
1.44867
-0.580912
0.00449285
-0.0163259
0.941476
0.0127735
-0.000597299
1.80234
-0.00377275
2.85297
2.61715
-0.87147
2.36371
0.375521
-0.0353293
-0.460774
2.79969
-0.195106
2.28475
0.519483
-0.00547613
0.348034
0.01297
1.46962
1.47073
-0.0184762
0.916887
-0.069403
0.0509856
2.40153
-0.0123403
-0.00734194
-0.00129231
-0.0690635
2.11528
-0.054841
-0.116401
-0.0500329
1.58612
3.63404
0.00651855
1.70858
1.5123
-0.00577527
-0.685815
0.263427
2.11677
-0.0894892
-0.140869
2.33552
2.38575
-0.251675
2.28799
-0.693454
2.66159
1.43314
-0.693888
-0.00021555
-0.0674979
0.695137
-0.166228
1.63198
-2.30773e-06
2.89574
-0.0144958
2.20651
0.0163678
-0.696721
2.10735
0.000563247
-0.00223042
-0.0513533
-0.0331627
-0.411913
-0.0128174
0.487779
-0.279082
3.13339
0.00897029
-0.248966
2.11686
-0.0867957
2.48931
0.432659
-0.0483401
2.15434
1.36622
-0.669829
-0.304199
2.71152
6.30862e-05
0.00933114
1.14388
-0.633936
-0.160079
-0.0125671
-0.000332288
-0.3819
2.84787
0.162719
-0.0563644
-0.0741931
2.42039
-0.263076
2.2321
4.1965
-0.00472665
-0.00283141
-2.41643e-05
-0.000504737
0.000556241
-0.0352954
0.271801
2.77112
-0.343297
1.28042
-0.0270136
0.502337
-0.0965156
-0.246391
0.490193
0.014172
0.953224
-0.108514
2.36662
-0.129631
-0.176638
1.21537
0.728419
0.688088
1.87889
1.04353
-0.0114984
-0.509688
-0.00613145
2.85783
3.91254
0.263447
-0.328642
-0.0425054
-0.177621
3.12802
-0.0926438
-0.0376571
-0.418786
3.093
1.21179
0.0670044
-0.00956365
-0.330397
2.75565
0.296365
2.38006
2.15636
-0.597565
2.14331
-0.650028
3.77352
1.51366
-0.167281
0.54753
-0.314471
-0.0704847
-0.00371992
2.15599
1.96798
1.94196
2.82106
-0.0900313
-0.0121353
3.00496
-4.57984e-06
0.243502
-0.177894
1.26416
-0.000203647
2.63113
2.39635
0.49246
-0.042094
0.886712