/*--------------------------------*- C++ -*----------------------------------*\
  =========                 |
  \\      /  F ield         | OpenFOAM: The Open Source CFD Toolbox
   \\    /   O peration     | Website:  https://openfoam.org
    \\  /    A nd           | Version:  7
     \\/     M anipulation  |
\*---------------------------------------------------------------------------*/
FoamFile
{
    version     2.0;
    format      ascii;
    class       volVectorField;
    location    "1";
    object      U;
}
// * * * * * * * * * * * * * * * * * * * * * * * * * * * * * * * * * * * * * //

dimensions      [0 1 -1 0 0 0 0];

internalField   nonuniform List<vector> 
30084
(
(1.00479 -0.005926 3.90905e-22)
(1.00518 0.00193937 1.32904e-21)
(0.995707 -0.0014059 -2.24734e-21)
(0.986155 -0.0250855 7.42151e-22)
(0.99882 -1.86978e-05 3.10771e-22)
(0.978884 -0.015617 -1.17258e-21)
(1.03311 -0.033401 -4.22672e-22)
(1.00681 -0.00951542 -4.06215e-23)
(1.00094 -0.000851542 5.07187e-23)
(1.00009 -2.38533e-05 1.35605e-23)
(1.00789 -0.0126457 2.82464e-23)
(0.999468 -0.00749315 -6.81244e-22)
(0.999773 -0.000100833 4.15291e-23)
(0.999984 -4.93135e-06 1.03145e-24)
(1.04672 0.0496555 5.34874e-21)
(0.997133 -0.000960404 3.38974e-22)
(0.999903 -0.000389585 -1.7627e-23)
(1.05814 0.0106387 -5.43538e-22)
(0.999058 -0.000927598 -1.06679e-22)
(0.994761 -0.000400537 -5.03693e-22)
(0.999611 -0.00010479 -1.44096e-22)
(1.00093 -0.000925695 1.78145e-22)
(0.995585 -0.00152034 2.48311e-21)
(0.999041 -6.37359e-05 1.37516e-22)
(0.960078 0.0326226 4.4628e-22)
(1.00542 0.00133689 7.12528e-21)
(0.999751 -1.96744e-05 9.40852e-23)
(0.978704 0.0295216 -3.02925e-20)
(1.04864 0.0503618 -1.38003e-20)
(1 -0.0041855 -1.31508e-22)
(1.00743 -0.00434215 2.59578e-22)
(1.01721 -0.0033357 -1.85556e-21)
(0.99479 -0.0594286 6.54803e-21)
(0.999865 -0.0108328 3.23664e-22)
(0.977696 0.0271114 2.43223e-20)
(1.00175 -0.0154353 6.17717e-22)
(1.02534 0.0215927 -2.44926e-21)
(0.986887 -0.0139095 3.06929e-21)
(1.00262 -0.00030975 -6.83228e-22)
(1.00244 -4.48965e-05 1.29441e-21)
(1.00021 -9.78869e-05 -4.09206e-23)
(0.995001 -0.0146288 -2.57969e-21)
(0.999917 -0.000375077 -2.73151e-25)
(1.01536 -0.0327669 -1.44361e-21)
(1.00002 -1.59512e-06 -2.85414e-24)
(0.999755 -0.00434473 1.05775e-22)
(0.998688 -0.00561206 -1.91292e-22)
(1.00003 -4.10891e-05 7.20635e-24)
(1.00149 -0.00182966 -7.29604e-22)
(1.02459 0.0210699 -1.01148e-21)
(1.06479 -0.0308812 -4.56781e-22)
(0.987821 -0.022091 -3.37706e-21)
(1.01595 -0.00220436 6.45987e-22)
(0.979708 -0.0155683 -1.92605e-21)
(0.997176 -0.001059 -2.98099e-22)
(1.05236 0.0489897 -8.68118e-21)
(0.998322 -0.00107006 1.04675e-22)
(0.999588 -0.000130491 1.82384e-22)
(1.00046 -0.0100096 -3.98919e-22)
(1.00707 -0.0271947 -1.09752e-21)
(0.999967 -6.92978e-06 2.47489e-24)
(0.999052 -0.000902308 -2.16517e-23)
(1.09476 0.0444225 4.04575e-21)
(1.0019 -0.0150934 -3.09626e-22)
(1.01644 0.0422655 1.79931e-20)
(0.969474 0.00892045 5.77339e-20)
(0.999615 -0.0129151 -8.0516e-22)
(0.996909 -0.00647803 9.84279e-22)
(0.976122 0.00689468 2.3289e-20)
(1.00022 -9.72374e-05 2.64751e-23)
(1.00601 0.00216738 -9.7166e-21)
(0.992308 0.0263237 1.74079e-20)
(1.00146 -0.00453922 -3.27059e-22)
(0.965631 0.0383649 1.64265e-20)
(0.996182 -0.000386556 1.57163e-21)
(1.05729 -0.0118072 1.34822e-21)
(1.05808 0.0775323 2.06079e-20)
(0.987109 -0.00768214 7.45679e-22)
(0.999977 -1.12287e-05 -7.00493e-24)
(1.00275 -0.0226831 -1.24684e-21)
(0.97937 -0.000412883 -1.30105e-21)
(1.00788 0.0151916 5.41631e-21)
(1.00524 -0.00601146 -1.18017e-21)
(1 -2.85855e-05 -3.55702e-25)
(1.03408 -0.0328294 8.23409e-22)
(1.13263 -0.0381347 6.99557e-22)
(1.00747 0.0339597 -3.18241e-20)
(0.999759 -0.00010167 -3.73687e-23)
(0.99978 -8.49677e-05 -1.09587e-23)
(0.968293 -0.0207479 -5.3156e-21)
(0.998834 -0.0255582 3.07434e-21)
(0.986993 -0.00808903 8.28295e-22)
(1.00138 -0.00180939 1.26552e-22)
(1.02605 -0.00278106 -1.17165e-21)
(0.964696 -0.00894645 -4.39453e-21)
(1.01005 0.0425833 1.62379e-20)
(1.0006 -0.0332509 4.84645e-21)
(1.00022 -0.000171115 6.72192e-23)
(0.987095 -0.0319481 -6.2313e-21)
(1.04173 0.0567871 2.19075e-20)
(0.999975 -1.13691e-05 1.02449e-23)
(0.987655 -0.00523508 -4.43716e-21)
(0.99997 -8.89037e-06 -1.27279e-24)
(1.02158 -0.0060048 -6.17824e-21)
(0.98714 -0.0220702 2.29951e-21)
(1.01532 0.00550548 1.04558e-20)
(0.999956 0.023832 2.78298e-20)
(0.999789 -8.84671e-05 -9.32549e-23)
(0.999995 -3.10123e-05 -7.22707e-26)
(1.00251 -0.0558784 -2.59785e-22)
(0.993697 -0.0588497 -5.88378e-21)
(1.02067 -0.0170277 9.28275e-22)
(1.00001 -1.26555e-06 5.25219e-25)
(0.999517 -0.00280965 -3.78778e-22)
(1.00002 -0.00107456 1.61497e-23)
(0.993994 0.026601 2.17239e-23)
(1.01305 0.0235695 -1.1655e-20)
(0.994496 -0.00332517 -1.73e-21)
(1.00001 -3.18211e-05 8.03417e-25)
(1.00181 -0.00416544 -2.42134e-22)
(1.12801 0.0260807 -1.60568e-20)
(1.00374 0.00508836 1.5396e-20)
(1.08436 -0.00642072 9.58894e-21)
(0.969576 0.0108244 -5.48365e-20)
(1.00052 -0.000162963 -1.67304e-22)
(1.0763 0.00061836 -2.87401e-21)
(1.05611 0.0113839 -2.90821e-21)
(1.0093 -0.0264254 6.0968e-22)
(1.00179 -0.00164214 -6.44221e-22)
(0.999987 -0.000195673 2.22301e-24)
(1.01494 -0.0318422 5.03078e-22)
(1.05998 0.0766248 1.14874e-20)
(0.993944 0.0479933 3.51735e-20)
(1.09103 -0.0136719 2.09858e-21)
(1.01968 -0.0063132 5.2218e-21)
(1.00745 -0.00342532 4.94704e-21)
(1.01031 0.0673485 2.77845e-21)
(0.987069 -0.000193253 6.62185e-21)
(1.08297 -0.0904569 6.67223e-21)
(1.04294 0.0553991 -1.6485e-20)
(1.0742 0.00237922 3.09066e-21)
(0.971262 -0.00250776 -5.71529e-21)
(0.976881 -0.0221763 1.53386e-21)
(1.00001 -1.07553e-06 -2.18941e-25)
(0.999995 -1.51058e-06 5.09829e-25)
(0.99881 -1.21766e-05 -2.45628e-22)
(0.998788 -0.00566313 3.94774e-22)
(0.995158 -0.0446021 -4.48339e-21)
(1.07866 -0.0628085 1.02958e-21)
(1.08752 0.0683858 1.64296e-20)
(1.01412 -0.00746278 2.67474e-21)
(1.00766 -0.0086132 9.27128e-22)
(1.00019 -0.000266199 1.04004e-22)
(0.999933 -9.82231e-05 1.00492e-23)
(0.999673 0.0150377 -3.1717e-20)
(1.00022 -0.000737054 1.1994e-23)
(0.996787 -0.00540442 2.50506e-24)
(1.01473 0.0698515 -8.56563e-21)
(1.00107 0.0193399 -3.26646e-20)
(1.06567 -0.0287207 1.74508e-21)
(0.980421 -0.00134995 2.26688e-21)
(0.986668 -0.024624 5.14822e-21)
(1.05203 0.0507448 2.25898e-21)
(0.999976 -2.11855e-05 2.20098e-24)
(0.999994 -1.20561e-06 -1.94805e-25)
(0.994526 -0.00359277 6.15451e-22)
(0.977531 -0.0215536 -8.40656e-21)
(1.00003 -0.000110312 -7.54002e-24)
(1 -3.14263e-05 -3.08165e-25)
(0.99675 -0.00247777 -1.94344e-22)
(0.999991 -0.000198795 -1.85613e-24)
(1.00248 -0.0026025 -3.68729e-22)
(1.01341 0.0703904 1.01454e-20)
(0.987295 8.01098e-05 -5.45651e-21)
(1.0268 -0.0534913 -7.55501e-22)
(0.997572 -2.49632e-05 1.0033e-21)
(1.00096 -0.001225 3.77406e-23)
(0.987149 -0.00507193 7.51097e-21)
(0.999666 -0.00282402 -3.28304e-23)
(1.08487 -0.000407938 -7.68986e-21)
(0.99999 -4.47711e-06 3.31293e-24)
(1.00729 -0.0179698 1.17798e-22)
(1.00803 0.0339952 1.14218e-20)
(0.99714 -0.0058531 -5.92292e-23)
(1.07856 -0.0886526 -6.18077e-21)
(1.00968 0.0200766 -1.0223e-20)
(0.996989 -0.00137875 -1.4571e-21)
(0.991755 -0.00735488 1.91433e-21)
(1.00194 -0.0017318 9.82441e-22)
(0.999523 -0.00399869 -1.78236e-22)
(0.999862 -6.00314e-06 1.05941e-23)
(1.00271 -0.00864214 3.05987e-22)
(0.968085 0.00510367 2.27378e-20)
(1.00047 0.0142784 2.44101e-20)
(0.993333 -0.00286602 5.16406e-23)
(0.99699 -0.00528466 -6.11475e-22)
(0.988842 0.0135768 -2.25387e-20)
(1.00633 0.0120774 4.67659e-21)
(0.965393 -0.00873236 5.39051e-21)
(1.0005 -0.000263501 -1.31196e-22)
(1.04138 -0.0422599 4.4255e-23)
(0.987432 -0.0422428 6.20265e-21)
(0.999626 -0.00782476 3.31154e-22)
(1.0004 -0.000505026 -2.08269e-22)
(1.01059 0.0686596 4.12601e-21)
(0.996912 -0.00255631 -1.33532e-22)
(1.00311 -0.00240387 -4.06356e-22)
(0.994307 -0.0442954 5.92888e-21)
(1.00279 -0.0573433 6.6973e-22)
(0.999981 -2.26893e-06 8.17107e-25)
(0.987442 0.0370079 -2.93637e-20)
(0.999517 -1.95258e-05 -2.29008e-24)
(1 -2.48202e-05 -6.19299e-26)
(0.999733 -0.000103292 1.58659e-23)
(1.00009 -0.0254266 -1.09564e-21)
(1.08496 0.0482032 -1.41187e-20)
(1.00734 -0.0175838 9.36393e-23)
(1.0029 -0.002157 -2.7921e-22)
(0.999036 -0.000117816 3.40482e-22)
(0.966017 -0.00974688 -9.09669e-22)
(1.00004 -0.000211941 -1.66289e-24)
(1.0002 -0.000777344 1.12636e-24)
(0.998941 -7.96021e-05 -2.24954e-22)
(1.01153 -0.000879184 9.754e-21)
(0.998725 -0.00187995 -6.86257e-23)
(0.999553 -0.00268863 1.12408e-22)
(1.01145 -0.000723987 5.02221e-21)
(1.00005 -0.000188528 1.10366e-23)
(1.00002 -1.35754e-06 7.3827e-25)
(1.0024 -0.000368523 1.43484e-22)
(0.988403 -0.0158455 -2.61936e-21)
(0.988543 -0.000249849 -2.6024e-21)
(0.9978 -0.000137469 -1.07486e-21)
(1.00655 0.00124397 8.05664e-21)
(0.992591 -0.000516339 1.20879e-21)
(1.00813 -0.00882619 -8.63859e-22)
(0.999985 -4.63407e-06 2.92586e-24)
(0.998597 -0.00117739 -4.0975e-22)
(1.0004 -0.000492161 2.25419e-22)
(1.04063 -0.0405182 -4.74092e-23)
(1.03759 -0.0932234 7.78287e-21)
(0.999355 -4.5615e-05 1.72783e-22)
(1.0002 -0.000251608 -8.01853e-23)
(0.999628 -0.00250879 -3.90558e-23)
(1.00171 -0.00344034 -5.83585e-22)
(0.994972 -0.000278952 -2.1391e-21)
(0.999974 -1.86342e-05 -1.56928e-25)
(1.12817 -0.036871 2.34455e-21)
(1.00003 -0.000228744 2.22965e-24)
(1.01138 -0.000673148 -6.86835e-21)
(0.998396 -0.00115529 -2.1147e-22)
(1.00006 -0.000172485 4.55264e-24)
(1.0147 0.0058017 -6.65287e-21)
(0.984649 -0.040671 -6.78494e-21)
(1.00011 -2.30045e-05 4.4191e-23)
(1 -5.49952e-06 5.57716e-27)
(0.971159 -0.00182429 -6.53399e-21)
(1.02712 -0.0857333 -1.18865e-21)
(0.996189 -0.00383049 -1.58553e-22)
(1.00858 -0.026727 -1.80111e-22)
(1.01462 -0.00792803 -4.39781e-22)
(1.01133 0.0366649 1.38176e-21)
(1.00003 -3.91315e-05 1.9843e-24)
(0.988651 -0.0154034 2.50612e-21)
(1.10961 0.00945141 -9.68818e-21)
(0.983524 0.018411 5.75368e-22)
(0.99732 -0.00562018 4.63778e-22)
(1.00993 0.0184394 1.24121e-20)
(1.05618 -0.00988471 9.71676e-22)
(0.999805 -0.00111461 -1.09903e-23)
(0.943537 0.0140302 3.27213e-20)
(0.999748 -0.000200021 -1.08141e-22)
(1.02699 -0.0555667 -1.23031e-21)
(0.966596 -0.00970585 6.45609e-21)
(1.00105 -0.00117938 -2.07244e-22)
(1.08417 0.0249125 1.00919e-20)
(0.996088 -0.000490971 -1.25849e-21)
(0.993454 0.0513558 2.4279e-20)
(0.998355 -0.000157093 9.51012e-23)
(0.991939 -0.00785662 -9.92308e-23)
(0.999882 -0.00110972 -8.63337e-23)
(1.03056 0.0638476 4.73272e-21)
(1.00058 -0.00756289 7.35775e-23)
(1.00882 0.042083 9.56612e-22)
(0.999762 -5.7397e-06 -4.11211e-23)
(0.997288 -0.00100819 -4.68743e-22)
(0.980506 0.0440729 -1.49224e-20)
(1.0139 0.000438537 -8.35763e-21)
(1.01176 -5.3922e-05 5.81888e-21)
(0.98671 -0.0201163 6.40959e-21)
(0.999926 -1.53288e-05 1.06192e-23)
(1.00175 -0.00312759 -6.85079e-23)
(0.999917 -0.000416774 -3.11726e-23)
(1 -2.31938e-05 -1.14236e-26)
(1.0244 0.00483023 2.55864e-21)
(1.00002 -1.94637e-06 7.81748e-26)
(0.99077 -0.00715831 4.53263e-21)
(1.10806 0.00691418 8.53665e-21)
(0.959154 0.0336188 -3.36991e-20)
(0.994947 0.0484264 -5.41205e-20)
(0.986196 -0.0349781 2.10084e-21)
(0.993767 -0.0147091 1.46338e-21)
(0.989282 -0.000709748 1.24309e-21)
(1.01665 -0.0161222 2.60299e-21)
(1.00341 -0.00832771 -4.37297e-22)
(0.991587 -0.00766863 -2.64107e-21)
(0.986755 -0.0384008 9.05155e-22)
(1.01128 0.0368473 -2.17381e-20)
(0.999584 0.0171058 3.74068e-20)
(0.999404 -6.18223e-05 9.53089e-23)
(1.00185 0.0247281 -3.84859e-20)
(1.02371 0.00403367 9.55478e-22)
(1.08628 -0.00375862 -2.67593e-21)
(1.0071 -0.00710036 4.01861e-22)
(1.00037 -0.00740658 -2.25659e-22)
(1.01254 -0.0246597 -4.4976e-23)
(0.997516 -0.000951273 -1.10855e-21)
(0.998817 -0.000331498 -7.23087e-23)
(0.999971 -6.80179e-06 1.31231e-23)
(0.999217 -0.00393908 2.64995e-22)
(1.04574 -0.0123522 4.52655e-22)
(1.02962 0.065612 -7.62146e-21)
(1.00068 -0.000568537 9.86016e-23)
(0.98739 -0.0128383 -3.66782e-21)
(1.00733 -0.00708599 -1.28379e-21)
(0.99998 -8.5343e-06 -1.13429e-24)
(0.98645 -0.0366423 -3.31232e-21)
(0.952928 0.0257131 -1.47204e-20)
(0.997105 -0.00230922 1.63094e-21)
(0.999328 -0.00201759 9.73917e-23)
(1.00696 -0.00708964 -2.50568e-22)
(1.00271 -0.0216981 1.60311e-21)
(1.03365 0.0160178 3.38002e-21)
(0.999981 -0.00443055 -4.87177e-23)
(0.999984 -2.27025e-05 7.02311e-24)
(1.00001 -1.28064e-06 2.68128e-25)
(0.998818 -0.000295526 -8.03946e-23)
(0.979877 0.0434353 2.15525e-20)
(1.02307 -0.0112176 1.56698e-21)
(1.04026 -0.0918386 -2.25762e-21)
(1 -5.63793e-06 -1.52868e-26)
(1.02556 -0.0881583 8.65972e-22)
(1.03591 0.00290405 -4.54944e-21)
(0.99759 -3.24839e-05 -5.06368e-22)
(0.967955 -0.00339371 -8.01188e-21)
(0.9994 -0.00206581 -9.79727e-23)
(0.999795 -9.39447e-05 -6.82345e-24)
(0.98937 -0.0140616 -7.69186e-22)
(1.00043 -0.000531675 -1.00842e-22)
(1.08633 0.00200274 7.23346e-21)
(1.00422 -0.000737246 -2.85382e-21)
(1.06232 0.065237 -9.8023e-21)
(0.999748 -0.00114445 1.43626e-23)
(1.00215 -0.006418 1.34246e-22)
(1.00323 0.00461625 -2.09217e-20)
(1.12426 0.0244954 7.19054e-21)
(1.00018 -0.000248941 -6.12078e-23)
(1.00019 -0.000228489 6.04433e-24)
(0.994442 0.0330889 1.86742e-21)
(0.999279 -0.025738 -6.33044e-22)
(1 -0.00436479 5.96284e-23)
(1.00566 0.0133553 2.44025e-21)
(0.987291 0.00646604 4.35789e-20)
(1.06497 -0.0327776 1.7414e-21)
(0.99973 -0.0122412 -2.75083e-22)
(1.08262 0.0475315 1.40458e-20)
(0.999644 -2.47954e-05 -7.30603e-23)
(0.996025 -0.00208942 4.48432e-22)
(0.998368 -0.000130627 -2.70631e-22)
(1.00631 0.0110359 4.10322e-23)
(0.999984 -0.000347243 1.01904e-24)
(1.00411 -0.000916905 2.91608e-21)
(1.09062 -0.0524653 5.70678e-23)
(0.993318 0.0452524 5.35909e-20)
(0.966558 0.040264 -7.66367e-21)
(0.997082 -0.00132133 5.17582e-23)
(0.996079 -0.00386831 4.79022e-22)
(1.01518 0.0436292 -1.43752e-20)
(1.00743 -0.0279934 1.55685e-21)
(0.999973 -6.9988e-06 -1.28007e-23)
(1.07431 0.0740133 2.39994e-20)
(1.01176 -0.000376343 -2.90188e-21)
(1.01107 4.40576e-05 -1.94586e-21)
(0.997338 -0.00640923 -6.38452e-22)
(1.00841 -0.00200338 -4.37611e-21)
(0.978416 0.0379349 7.13316e-21)
(1.07641 -0.0695409 -5.1013e-22)
(0.987231 0.040144 7.85768e-21)
(0.992213 0.040969 -1.37611e-20)
(0.999996 -3.11595e-05 2.18551e-25)
(1.04401 -0.0123542 -1.68598e-21)
(1.07661 -0.0664348 2.68966e-22)
(0.9986 -0.00183666 1.82889e-22)
(1.00073 -0.000602086 -1.62252e-22)
(0.985312 0.00738348 1.03879e-20)
(1.02469 -0.0107209 -2.06992e-21)
(1.00014 -2.88355e-05 9.96161e-24)
(0.992528 -0.0304432 -6.96644e-21)
(0.987046 -0.0435091 -2.94168e-21)
(0.997329 -0.00106239 6.59457e-22)
(0.999938 -0.000101076 -1.26822e-23)
(1.00925 0.0502603 -2.5604e-21)
(1.01415 0.0227905 1.98412e-20)
(1.00003 -0.000235399 -5.71528e-25)
(1.002 -0.00169733 1.26782e-22)
(1.0024 -0.00156451 6.86648e-22)
(1.10701 -0.0246265 -3.76167e-21)
(0.986651 -0.0195138 -5.70336e-21)
(1.00004 -0.000271731 -5.30888e-24)
(0.999992 -3.87701e-07 -3.05448e-25)
(1.00024 -9.57236e-05 1.56333e-23)
(1.03237 0.0168263 -3.3904e-22)
(0.986743 -0.0132927 -2.94193e-21)
(1.00006 0.0208164 8.9872e-21)
(0.973313 -0.0245307 3.85523e-21)
(0.993937 -0.0145311 -1.55336e-21)
(0.98843 -0.00070121 -5.2725e-21)
(1.00633 0.0127867 -1.19901e-20)
(1.09186 0.0422889 8.76873e-22)
(0.999423 -7.08302e-05 1.74826e-22)
(1.00376 -0.00278817 -7.32877e-22)
(1.00041 -0.000542595 1.14319e-22)
(0.985968 0.0437306 -2.04559e-20)
(0.98788 -0.0120089 1.57762e-21)
(1.00051 -0.000145448 -5.46291e-23)
(0.996458 -0.00178856 -5.99016e-22)
(1.07553 0.00595926 5.49993e-21)
(0.99994 -0.00474476 -1.19691e-22)
(0.994536 -0.00630287 -3.31096e-22)
(1.00012 -7.10298e-05 -3.0617e-23)
(1.00011 -2.21427e-05 -1.36097e-24)
(0.951691 0.0271883 2.31167e-20)
(0.995984 -0.000736757 -7.8459e-22)
(0.997633 -0.00244229 6.57762e-22)
(0.99974 -0.000887168 -7.59208e-23)
(0.999652 -1.34906e-05 -1.00022e-23)
(1.014 0.0356597 -7.49077e-21)
(1.09448 -0.0523857 -7.2145e-24)
(0.993542 -0.021981 8.75445e-22)
(1.00001 -1.0936e-06 -2.64936e-25)
(1 -1.84206e-05 -7.54022e-27)
(0.987423 -0.0123744 4.15054e-21)
(0.996677 -0.000948438 1.57821e-22)
(0.997514 -0.00107657 -9.14848e-23)
(1.00613 -0.00165378 1.39109e-21)
(1.00249 -0.000830534 2.46799e-22)
(1.0006 -0.00770575 -1.1966e-22)
(1.0598 0.00297727 8.1004e-21)
(0.990849 -0.00228088 -1.02879e-21)
(0.98803 0.0390472 -6.40005e-21)
(1.00837 -0.0122922 -5.18141e-22)
(1.00012 -6.94029e-05 3.401e-23)
(0.985686 -0.0343713 3.21559e-22)
(0.992537 -0.019177 -3.20956e-21)
(1.07806 0.0246816 6.08171e-21)
(0.998429 -0.00300943 -1.92235e-22)
(0.996308 -0.0254202 -1.04258e-21)
(0.99999 -2.32467e-06 1.83324e-24)
(0.971622 0.0301026 -2.37007e-20)
(1.00692 -0.000821733 2.4799e-21)
(1.00004 -0.000119708 -1.14071e-23)
(0.968267 0.00778617 -2.93368e-20)
(0.993217 -0.0222931 2.07348e-21)
(0.999989 -3.03851e-06 2.95393e-25)
(1.00073 -0.000602656 4.7775e-23)
(0.985833 -0.0359284 -1.87505e-21)
(1.02019 -0.0158999 8.75454e-22)
(1.02168 -0.00354759 3.39338e-21)
(0.999995 -1.22084e-06 4.12261e-25)
(0.996117 -0.00028496 6.21854e-22)
(1.01232 -0.0235265 -2.8533e-22)
(0.997396 -0.000970097 9.14673e-22)
(0.999766 -1.56603e-05 -2.239e-22)
(0.996062 -0.00217702 1.48323e-23)
(0.987703 0.0129573 2.62644e-21)
(0.996758 -0.00613899 -8.26462e-22)
(0.994718 -0.00617332 2.45173e-22)
(1.00078 0.0162603 -9.68584e-21)
(0.998727 -0.00109345 2.16894e-22)
(0.983973 0.0441201 -2.61498e-21)
(0.999989 -2.80398e-06 -9.37476e-25)
(0.99509 -0.0142072 6.08783e-22)
(0.993096 -0.0421926 6.37407e-21)
(0.996744 -0.0255889 1.73229e-21)
(1.10925 -0.00106044 -1.91677e-21)
(0.99953 -0.00270947 2.54153e-22)
(1.00456 -0.0116558 3.42584e-22)
(1.00009 -0.00115327 4.19599e-24)
(0.99186 -0.0113014 -1.94626e-21)
(1.02143 -0.0185673 4.28304e-22)
(0.999981 -7.53872e-06 5.6909e-24)
(1.00001 -1.00178e-06 -4.74897e-25)
(0.996952 -0.000191012 4.24629e-22)
(0.989908 0.028671 1.78897e-20)
(1.00614 -0.00947554 1.7357e-21)
(1.00121 -0.00175843 -2.02879e-22)
(0.966021 -0.0183771 5.76519e-21)
(1 -4.9819e-06 -5.27798e-26)
(1.00048 -0.00057333 -1.8322e-22)
(0.999977 -0.000330523 -2.6158e-24)
(1.00765 -0.00895438 1.80066e-21)
(0.991894 -0.00821424 3.49182e-22)
(0.999815 -0.00014309 2.8343e-23)
(0.996366 -0.00562636 2.95095e-22)
(0.993953 -0.00353691 -3.65749e-22)
(1.00049 -8.26903e-05 -1.50108e-23)
(0.999988 -3.50235e-06 -5.881e-25)
(1.10304 0.0209917 1.0408e-20)
(0.99979 -0.000911328 8.12623e-23)
(1.03551 -0.000410617 3.60564e-21)
(0.998353 0.0455652 5.31612e-20)
(1.01336 0.0426431 -1.2968e-20)
(1.00071 -0.0103428 -4.62805e-22)
(1.00236 -0.000759224 -8.1917e-23)
(1.0083 -0.00119118 2.68129e-21)
(1.00006 -0.00123735 -4.79879e-24)
(0.998897 -0.00522171 2.90166e-22)
(0.999999 -8.14264e-06 -1.72018e-26)
(0.9916 0.0407555 -1.06901e-21)
(0.994292 -0.00822231 4.65056e-22)
(1.00584 -0.00153643 -9.91847e-22)
(0.991191 -0.00240341 2.10984e-21)
(1.0021 -0.0062211 1.14403e-23)
(0.998611 -0.0030592 4.20703e-22)
(0.99995 -0.000101691 2.87429e-24)
(1.00001 -2.24622e-08 -2.44485e-24)
(0.997743 -0.0024148 -4.78356e-22)
(1.0265 -0.00435297 -1.95163e-21)
(1.00263 0.0204174 1.47085e-21)
(1.00058 -0.000251919 -2.22602e-22)
(0.988138 -0.0317916 -1.62825e-21)
(0.987911 -0.0116663 -7.15222e-22)
(0.996106 -0.000333964 -2.33756e-21)
(1.08599 0.0659344 -1.04381e-20)
(0.999393 -0.000490882 -1.06534e-22)
(1.00178 -0.00716454 -4.35116e-22)
(0.997281 -0.00142579 4.58595e-22)
(0.999949 -9.8454e-05 2.48966e-24)
(0.9861 -0.0376403 2.07624e-21)
(1.0016 0.0215147 -1.41922e-20)
(1.01115 0.0171603 -1.29597e-20)
(0.988665 -0.00815071 -3.42791e-22)
(0.999539 0.0218817 -6.66207e-22)
(1.00004 -0.000110503 2.22292e-23)
(1.00001 -9.97711e-07 7.67789e-25)
(1.07395 0.0720499 -8.86189e-21)
(1.08113 0.0260002 -6.93529e-21)
(0.96739 0.0299024 -1.20826e-21)
(1.00281 -0.0432507 4.01279e-21)
(0.988517 -0.000951199 -1.60116e-21)
(1.07343 0.00847054 -7.76761e-21)
(1.00058 -0.000303595 2.52019e-22)
(0.997222 -0.00194363 2.62884e-22)
(1.00023 -0.000114572 -1.49439e-23)
(0.994706 -0.000429574 -5.20902e-22)
(0.994267 -0.00671409 -6.89687e-22)
(0.999998 -1.63254e-05 -6.95974e-25)
(0.999567 -1.92872e-05 4.12659e-23)
(0.993694 0.044316 -4.87959e-20)
(0.999927 -0.000348767 2.91519e-23)
(0.975407 0.0270522 2.87215e-20)
(1 -8.39791e-06 1.46731e-26)
(1.11141 0.0454518 1.19143e-20)
(1.03622 -0.00113777 -7.55748e-21)
(1.05846 0.00405268 -8.9363e-21)
(1.00051 -0.000334892 1.51512e-23)
(1.00009 -2.07726e-05 2.7321e-23)
(0.990726 0.0257562 -2.67536e-20)
(1.03697 0.00161274 1.47465e-20)
(0.992847 -0.042961 -5.86649e-21)
(1.00852 0.0170607 5.79046e-21)
(0.999682 -0.010383 2.30542e-22)
(0.993428 -0.0026554 -5.40512e-22)
(0.998033 -0.00019304 -2.78851e-22)
(1.0282 0.075052 -3.58233e-20)
(0.988526 -0.0142693 2.49797e-21)
(1.01684 -0.0152409 -1.64531e-21)
(0.996604 -0.00576686 -1.67379e-22)
(1 -4.9129e-06 -5.21015e-27)
(0.999389 -0.000436647 -9.00576e-23)
(1.00269 -0.00284329 4.42255e-22)
(0.990962 -0.00406881 2.74035e-21)
(0.988975 -0.00820661 5.07328e-22)
(0.978385 -0.0219672 -8.10373e-22)
(0.990912 -0.00441729 -2.07239e-21)
(1.00966 0.00134974 1.10431e-21)
(0.99897 -4.9726e-05 5.59202e-24)
(0.968982 -0.0210152 2.95795e-21)
(0.993009 -0.000421784 -7.51969e-22)
(1.00001 -0.000114212 3.81444e-24)
(0.993992 -0.000352394 -5.2214e-22)
(1.01743 -0.0167221 -2.99487e-21)
(1.00935 0.00146316 -6.10461e-21)
(0.987413 -0.0143836 -6.35488e-22)
(0.99999 -8.38089e-07 -8.26293e-27)
(0.991456 -0.00836098 5.21812e-22)
(1.00106 -0.00711121 -1.32633e-23)
(1.00067 -0.000556925 6.09609e-23)
(1.09042 -0.0661135 -8.92522e-22)
(1.00038 0.02159 -3.25479e-20)
(1.00046 -0.000582597 1.70044e-22)
(0.994073 -0.00021293 7.01049e-24)
(1.06078 -0.0332863 -2.23682e-22)
(1.0119 0.000294483 9.90224e-21)
(0.993663 0.0117939 -2.79358e-21)
(1.00092 -0.00123295 5.45803e-23)
(1.00072 -0.0108694 1.47425e-22)
(1.02475 0.0559571 -4.88146e-21)
(1.00793 0.0102118 -3.03544e-20)
(0.995675 -0.0141413 1.58723e-21)
(1.00236 -0.00168181 -7.69304e-23)
(0.976121 -0.0262351 3.8426e-21)
(0.999999 -2.40007e-06 1.43828e-25)
(0.974955 -0.00129302 -2.99424e-21)
(1.00004 -3.68444e-05 3.97201e-24)
(1.05977 -0.0342023 3.16834e-21)
(0.999983 -1.20087e-06 -6.31012e-25)
(1.00001 -3.16566e-05 2.62477e-24)
(1.00016 -0.011944 -1.69598e-22)
(1.09432 0.0477173 -9.21513e-21)
(1.00035 0.0582442 2.41377e-20)
(1.01934 -0.0169226 -4.86077e-21)
(1.00722 -0.0073699 8.54158e-22)
(1 -1.24581e-06 -2.95347e-26)
(0.996958 -0.00235265 -8.83349e-22)
(1.00005 -8.07126e-06 -2.8913e-24)
(0.998433 -0.00123498 3.05516e-22)
(1.00001 -2.90628e-05 -2.04397e-24)
(1.02258 -0.00327473 -1.05955e-20)
(0.999774 -0.000238488 -1.11283e-22)
(1.02087 0.0251602 1.36612e-20)
(0.999948 -0.000109313 -2.02682e-23)
(0.99376 -0.00258346 -9.12079e-22)
(0.979001 -0.000582947 6.50549e-21)
(0.997929 -7.20108e-05 -3.58477e-22)
(0.990978 0.015174 2.6954e-20)
(0.99145 -0.00051465 1.49475e-21)
(1.0191 -0.0537381 2.22164e-22)
(0.997307 -0.00200355 1.3563e-21)
(1.01182 -0.000906997 -2.1685e-21)
(0.986588 -0.0324464 7.46163e-21)
(1.00938 -0.000903348 -7.40551e-21)
(1.02534 -0.0342776 -2.26826e-23)
(0.999992 1.90042e-07 8.26862e-26)
(0.999867 -0.0102354 1.71119e-22)
(0.998082 -0.000247003 4.36656e-23)
(1.00013 -5.1063e-05 2.03201e-23)
(1.00004 -7.09149e-06 4.90936e-24)
(1.02935 0.0766487 3.92844e-20)
(0.997585 -0.00109401 7.69851e-22)
(1.01209 0.00181226 1.12193e-20)
(1.00075 -0.0108945 1.714e-22)
(1.00043 -0.000171099 5.82407e-23)
(1.01069 -0.0024031 -8.32728e-21)
(1.00008 -1.23647e-05 -6.106e-23)
(0.999988 -1.58134e-06 -8.52892e-26)
(0.9753 -0.00168425 2.30622e-21)
(0.998336 -0.000616665 3.46002e-22)
(1.00002 -2.88256e-05 2.9672e-24)
(1.01693 0.0424821 1.00728e-20)
(0.957166 0.0224857 -4.1308e-20)
(0.999906 -0.000127851 5.04846e-23)
(0.979938 -0.00117246 -1.75756e-21)
(1.00001 -7.15094e-07 5.50781e-25)
(0.977255 0.0371549 -2.83548e-20)
(1.11396 0.0479842 1.42998e-20)
(0.986315 -0.0257002 -6.35398e-21)
(1.00004 -0.000271002 -5.93994e-24)
(1.01602 -0.0147444 3.65723e-21)
(1.01331 1.82085e-05 -2.97079e-21)
(1.01415 0.000469997 8.49771e-22)
(1.02166 -0.00402106 -1.35907e-21)
(0.999944 -0.000979127 -1.41938e-23)
(0.999922 -0.000435425 2.43021e-23)
(0.993405 -0.00824566 -1.52034e-21)
(1 -4.22064e-06 -3.39583e-25)
(1.00001 -1.99123e-07 -1.38806e-25)
(0.98806 -0.0140667 -1.48815e-21)
(1.00125 -0.032931 -2.24207e-21)
(0.979031 -0.0215154 -2.12378e-22)
(0.962213 0.0332029 -7.35562e-22)
(1.0001 -9.59962e-06 -2.52355e-23)
(1.01304 -0.0400983 -3.36657e-21)
(1.00361 -0.00253134 -7.55908e-22)
(0.999989 -1.73265e-06 9.66784e-25)
(0.999476 -0.00194428 -2.21261e-22)
(1.00004 -0.000235554 -3.74326e-24)
(0.997937 -0.00636579 4.83949e-22)
(1.00002 -5.15934e-06 3.01476e-24)
(1.02601 -0.0333823 1.20513e-23)
(1.00943 -0.00124032 7.19848e-21)
(0.984606 0.0432185 6.94538e-21)
(1.01127 -0.000967568 8.12137e-21)
(0.999868 -0.000108466 4.08355e-23)
(1.00022 -0.000204297 -5.8494e-23)
(1.10838 -0.0278811 3.68886e-21)
(1.01159 0.000978502 -9.0191e-21)
(0.998458 -0.000209715 3.0982e-22)
(1.00001 1.48908e-07 1.14782e-24)
(1.02384 0.0404946 -1.71691e-20)
(1.07038 -0.0911973 -1.15726e-21)
(1.0027 -0.0423458 -1.68791e-21)
(0.992817 -0.000347904 -4.00066e-22)
(0.999989 -1.07653e-05 1.76822e-24)
(0.999871 -9.90576e-05 -2.39226e-23)
(1.07488 -0.092433 3.41731e-21)
(1.00073 -0.025878 -6.17615e-22)
(1.01567 0.0124287 1.86308e-21)
(0.988616 0.0375454 2.66194e-20)
(1.01811 -0.0524425 1.90736e-21)
(0.999382 -2.81122e-05 -5.42469e-23)
(0.999989 -4.71944e-06 -2.16017e-24)
(0.982012 -0.0279474 6.36801e-21)
(0.99166 -0.05618 -7.11738e-21)
(0.999909 -0.000121479 2.71776e-23)
(1.00537 -0.0118982 1.08046e-21)
(0.99587 -0.0137065 -2.63707e-22)
(0.997718 -0.00116047 3.02703e-22)
(0.998204 0.0172002 -2.19186e-20)
(0.999352 -0.00033482 1.94742e-22)
(1.02963 -0.022675 1.0555e-21)
(1.05689 0.0796803 -2.11971e-20)
(0.996231 -0.00175295 -8.80112e-22)
(0.967052 0.0281039 -4.25128e-21)
(0.969335 0.0143324 1.25562e-20)
(0.999986 -2.51038e-05 -7.02895e-24)
(0.999988 -0.000362291 -1.46986e-24)
(0.991588 -0.000654362 -9.52716e-22)
(1.00628 -0.00281227 -1.7895e-21)
(0.980805 -0.00104995 3.66817e-21)
(1.00249 -0.00205782 -7.92817e-22)
(0.996393 -0.0017476 8.21114e-22)
(0.999718 -0.000277265 -8.46048e-23)
(0.979949 0.0374463 -5.12377e-21)
(1.02049 0.0247159 -2.12068e-20)
(1.0011 -0.00115794 1.39623e-22)
(0.945527 0.0136892 -8.23734e-21)
(1.00001 -7.62883e-07 -7.91264e-25)
(1.01143 0.00285966 -1.53527e-20)
(1.00082 -0.0534978 4.29486e-21)
(1.01424 -0.039905 1.28823e-21)
(1.00005 -0.00010652 -1.14751e-24)
(0.979838 -0.000677043 2.99548e-21)
(1.00939 0.00166251 8.54809e-21)
(1.00609 -0.00324748 1.48599e-21)
(1.01377 -0.000133 4.07273e-21)
(0.999773 -6.49092e-06 1.58337e-22)
(0.99977 -0.000260665 1.00832e-22)
(1.01428 -0.0225489 -3.25393e-22)
(0.99834 -0.000700261 -9.82641e-22)
(0.993872 -0.00630986 -1.62981e-21)
(0.999543 -0.00177907 1.31347e-23)
(1.03158 0.0206153 1.21267e-20)
(1.0001 -0.0108354 -1.20473e-22)
(0.997476 -0.00255035 1.42398e-23)
(0.964053 -0.0155732 -8.77732e-21)
(0.995231 0.0332862 3.0764e-21)
(1.0553 -0.00549727 -7.25576e-21)
(1.01022 -0.00280527 6.67183e-21)
(0.999803 -9.65565e-05 3.01583e-23)
(0.999752 -0.000161842 1.35766e-23)
(0.991475 -0.0111966 3.9608e-21)
(1.00049 -0.000631993 -1.36521e-22)
(0.998773 -0.000351862 -5.60001e-23)
(0.999988 -1.01175e-05 -6.51903e-25)
(0.99993 -0.000992542 3.25527e-24)
(1.00901 0.00145473 -3.3131e-21)
(0.990827 0.0266036 -2.57052e-20)
(0.999937 -9.73462e-06 6.27148e-24)
(1.0391 0.0747474 -3.64957e-20)
(0.999998 -2.09915e-05 3.04895e-25)
(0.998435 -0.00143672 4.19414e-22)
(0.999996 -4.42466e-05 6.05653e-25)
(1.00251 -0.00175884 -3.49954e-22)
(1.10618 0.0196691 -7.95726e-21)
(0.999982 -1.92334e-05 6.21038e-25)
(0.99998 -2.29732e-05 4.31806e-24)
(0.972685 -0.0247916 -3.8098e-21)
(1 -4.21544e-06 -2.50673e-26)
(1.02375 -0.0029135 1.15508e-20)
(0.994873 -0.0222381 2.74441e-21)
(0.999977 -0.000312418 2.37517e-24)
(1.02697 0.0342375 -1.34408e-20)
(0.999999 -1.48029e-05 -5.59994e-26)
(0.999802 -1.12116e-05 1.395e-22)
(0.999958 -1.73383e-05 2.38678e-25)
(0.997609 -0.00266746 -2.45056e-22)
(0.999831 -0.000757327 -4.10096e-23)
(0.996976 -8.6966e-05 -2.86185e-22)
(1.00869 -0.0645887 -5.04929e-22)
(0.999847 -0.000737897 2.6966e-23)
(1.00206 -0.0016569 -2.7206e-22)
(0.999988 -1.2056e-06 -3.64132e-25)
(1.00126 0.0574881 -4.59081e-20)
(1.02932 -0.0235271 2.77807e-21)
(1.05727 -0.00553893 -1.1577e-21)
(0.98228 -0.0032287 3.9895e-21)
(0.988541 -0.00228913 -7.08537e-22)
(0.999505 -0.00191216 3.63429e-22)
(1.00143 -0.00128514 3.79624e-22)
(1.01499 0.0286293 5.44612e-21)
(0.992138 -0.0197941 4.38048e-22)
(1.03468 0.0530663 7.28704e-21)
(0.977728 -0.00764144 -7.35005e-21)
(0.998377 -0.00138941 -3.95476e-22)
(0.999995 -1.81736e-06 -7.35183e-25)
(0.997181 -0.00142609 -5.53169e-22)
(0.99451 0.0524989 1.13761e-20)
(1.02326 0.0338978 -3.05493e-21)
(0.993215 -0.0301029 2.29324e-21)
(0.969354 -0.00312603 1.76419e-21)
(1.00371 0.0555129 1.23349e-20)
(0.995834 -0.000306783 7.44852e-22)
(0.997484 -0.0491521 3.36696e-22)
(0.999997 -3.97316e-05 6.92476e-25)
(0.994325 -0.0224355 3.48512e-21)
(0.999611 -0.000126 -2.04906e-22)
(0.948384 0.0236248 -2.40532e-20)
(0.99253 -0.0401028 -5.10596e-21)
(0.999959 -1.38489e-05 1.13786e-23)
(0.967313 -0.0106814 -4.8108e-22)
(0.992377 -0.0206775 2.18438e-22)
(1.00741 0.0277553 1.87427e-20)
(0.998791 -0.000379332 -5.30697e-22)
(0.991162 -0.0201194 -1.32194e-21)
(0.998809 -0.00536444 -3.9997e-22)
(1.00026 -0.0114277 -3.67575e-22)
(0.999385 -0.000320051 -1.32439e-22)
(1.00745 0.0271931 -2.26775e-20)
(1.03367 -0.0909721 3.55172e-21)
(0.991311 -0.0085821 -1.16537e-21)
(0.993604 -0.00755113 2.31139e-23)
(0.993825 -0.00241028 -3.68734e-22)
(1.00257 -0.00125549 -3.18565e-22)
(1.00475 0.0542998 4.86855e-20)
(0.991489 -0.00724671 5.33113e-22)
(1.00638 0.0150742 1.2529e-20)
(1.00131 -0.00106538 2.8886e-22)
(1.11111 0.00219196 -1.10004e-22)
(0.973045 0.029367 4.14351e-21)
(0.995783 -0.000281459 -2.56702e-21)
(0.999888 -2.05888e-05 2.66942e-23)
(1.01328 0.0368573 5.8299e-21)
(0.993287 0.0427486 -4.04592e-20)
(1.01369 -0.0216286 5.89798e-22)
(1.0418 -0.0142977 8.74274e-22)
(0.997681 -0.00686507 -5.29115e-22)
(0.982532 -0.00288438 -2.35846e-21)
(1.02416 0.0548753 1.9981e-20)
(0.981414 -0.0281559 1.16532e-21)
(0.999987 -9.87734e-06 2.38608e-24)
(0.99637 -5.10895e-05 -1.30917e-21)
(1.00002 -5.24161e-06 3.07777e-24)
(0.997816 -5.82295e-05 9.73939e-22)