/*--------------------------------*- C++ -*----------------------------------*\
  =========                 |
  \\      /  F ield         | OpenFOAM: The Open Source CFD Toolbox
   \\    /   O peration     | Website:  https://openfoam.org
    \\  /    A nd           | Version:  7
     \\/     M anipulation  |
\*---------------------------------------------------------------------------*/
FoamFile
{
    version     2.0;
    format      ascii;
    class       surfaceScalarField;
    location    "32.5";
    object      phi;
}
// * * * * * * * * * * * * * * * * * * * * * * * * * * * * * * * * * * * * * //

dimensions      [0 3 -1 0 0 0 0];

internalField   nonuniform List<scalar> 
44078
(
-595.087
672.184
-77.097
1069.84
-1075.76
5.91787
-333.958
380.323
-46.3646
218.993
-257.365
38.3719
-497.817
497.817
212.473
-258.91
46.4369
-391.375
375.241
16.1336
34.2071
-572.147
537.94
664.922
-834.188
169.265
-1009.41
1102.36
-92.9486
564.626
-155.208
-409.419
-534.575
535.083
-0.507935
-687.615
582.547
105.068
-859.802
868.858
-9.05562
283.583
64.0914
-347.675
384.173
-9.94947
-374.223
814.301
-666.934
-147.367
-425.552
422.729
2.82259
160.342
314.831
-475.173
288.952
-354.956
66.0036
-593.832
81.7259
512.106
725.012
-60.0896
48.9306
-382.889
136.313
-488.878
352.565
203.999
-76.8744
-127.125
1072.62
-2.77824
659.681
-680.793
21.1126
-301.43
37.7784
263.651
322.766
-39.1829
-444.629
543.83
-99.2008
958.469
-246.236
-712.233
-686.382
774.408
-88.0253
254.362
-220.264
-34.0987
483.094
-77.3868
-405.707
92.4979
-393.928
259.439
-430.988
171.549
461.13
-607.082
145.951
290.403
-43.3244
-247.079
826.488
-981.919
155.431
1064.7
-238.212
-1018.46
1035.91
-17.4476
397.183
-84.8415
-312.342
704.099
110.202
181.806
-313.621
131.815
1228.5
-777.723
-450.774
-590.957
146.328
535.184
-538.697
3.51281
230.465
645.588
-876.052
226.739
537.116
-763.855
-102.875
564.006
-396.164
184.673
211.491
-6.63885
-226.491
233.13
-678.046
-8.33625
236.224
-23.7502
422.927
-38.7542
-291.169
-60.075
351.244
523.343
-499.106
-24.2365
-34.3717
-559.46
-467.016
48.3308
418.685
-293.505
-39.3809
332.886
799.475
17.5796
-817.054
-409.137
569.479
-16.1988
-246.837
263.036
-224.717
484.156
-360.398
463.104
-102.706
255.136
208.094
-463.23
493.805
-119.004
-374.801
429.588
-51.7739
-377.814
-430.284
-14.7211
445.005
-986.903
-31.5583
1068.61
4.01035
337.471
242.091
-579.562
-247.099
548.932
-301.833
190.949
42.6343
-233.583
-429.983
380.149
49.8338
-394.68
396.011
-1.33129
309.533
-162.829
-146.703
-249.755
-57.3282
307.083
-699.27
16.529
682.741
404.134
-83.5201
-320.614
-248.12
248.12
63.3024
-760.364
697.062
-667.705
72.6172
-947.208
848.243
98.9646
-322.038
-69.3363
-42.089
232.417
-190.328
532.601
-114.636
-417.965
-644.391
-43.2236
652.279
-69.7326
90.9183
83.0868
-174.005
-360.429
101.095
259.334
-304.811
55.0558
847.907
-621.168
583.751
-610.509
26.7582
215.964
-89.5975
-126.367
-394.109
164.524
229.586
-33.8512
260.185
-226.334
-846.811
847.708
-0.896687
-39.1351
-152.322
191.457
292.205
6.72683
-298.932
-711.433
12.1625
-261.189
280.214
-19.0249
778.712
20.7626
433.274
-646.704
213.43
204.238
-210.876
-767.288
834.852
-67.5633
674.9
-712.908
38.0082
74.5965
577.683
943.822
-846.983
-96.8387
-206.93
245.237
-38.3065
194.253
60.1097
352.835
132.469
-485.304
1009.1
-256.888
-752.214
16.6743
564.638
-581.312
-11.9509
-587.93
599.88
542.46
-204.989
132.823
425.765
-558.588
-302.517
405.397
-102.881
76.7093
-814.819
738.109
-701.218
454.119
-13.7975
-205.216
219.013
27.1374
-861.846
834.708
-324.036
340.294
-16.258
-16.8934
272.029
23.9163
-891.199
867.283
-376.637
356.504
20.1335
-92.0445
-333.507
23.1568
-297.532
274.375
706.292
-787.624
81.3311
726.002
-860.302
134.3
-163.608
345.414
182.899
126.634
221.515
-208.562
-12.9528
301.676
-327.243
25.5664
-136.073
569.347
632.432
326.037
154.316
103.449
-257.765
272.806
-311.503
38.6977
211.656
-258.273
46.6169
-28.3
320.505
-363.541
-13.096
2.13977
-181.624
179.484
215.353
-54.6871
-160.666
181.126
827.976
-198.071
-739.273
937.344
-101.051
-396.766
523.085
12.099
238.189
-222.312
-15.8773
281.95
-216.455
-65.4944
8.55295
-228.365
219.812
-397.364
642.757
-245.393
44.9729
516.131
-561.104
984.161
-886.809
-97.3515
790.812
-787.072
-3.73974
-567.257
-242.958
810.215
-145.268
722.006
-576.738
451.722
-442.765
-8.95658
-260.15
16.1609
243.989
7.32836
-751.431
744.103
-185.165
-210.999
-241.728
228.682
13.0463
241.242
-22.2494
31.5976
1020.85
-572.448
-448.399
735.192
-933.263
-396.636
94.1195
8.57282
206.78
16.6005
-778.344
761.744
-90.3502
-856.857
415.128
-450.731
35.6037
-106.864
832.866
51.8026
-736.97
685.167
-238.713
-21.4367
272.806
19.6596
243.298
-262.958
-431.54
431.54
81.8783
680.853
-762.732
-310.51
49.3201
-580.406
597.081
344.568
-313.041
-31.5271
-777.827
-63.2641
841.091
-157.656
455.366
-297.711
464.788
67.8126
430.532
-440.87
10.3378
271.925
-60.2689
-189.474
-352.917
542.39
499.328
-380.498
-118.83
-327.281
21.1027
306.179
786.685
-80.3921
-518.304
-82.4574
600.762
-660.985
660.985
-134.287
506.581
-372.295
97.2645
-318.695
221.431
-919.717
352.46
305.337
-355.327
49.9907
436.293
15.4293
793.433
-459.596
-333.837
933.129
-85.4759
-847.653
71.7922
144.172
-847.694
614.832
232.863
-35.9904
281.623
-245.633
-202.074
223.704
-21.6295
-47.4391
-487.136
875.763
-890.446
14.6839
-84.3975
428.661
-13.5332
789.738
-795.764
6.0261
244.258
-6.06904
34.3531
-241.284
822.116
-963.798
141.682
278.589
-337.312
58.7231
570.362
-570.362
899.932
-93.2135
-806.718
594.041
73.1162
-667.157
66.3388
-332.635
266.296
-212.541
285.447
-72.9066
-480.853
323.197
51.6854
738.053
-392.64
528.953
244.506
-172.714
-684.202
-176.1
485.163
-630.431
453.074
-500.538
47.4643
-908.581
1045.8
-137.215
-578.684
555.284
23.3998
507.113
-581.461
74.3488
130.214
743.163
-873.377
211.136
530.88
-742.016
723.359
505.138
322.712
741.988
319.09
-230.713
-88.3773
-291.685
291.685
370.234
-401.052
30.8181
-27.0234
1095.63
267.823
-320.86
53.0365
531.653
-486.68
-297.43
-562.373
551.256
-564.403
13.1471
-28.8876
904.65
259.989
-295.98
-239.561
201.962
37.599
498.664
-587.327
88.663
-197.468
959.155
-761.687
588.432
-81.3196
772.638
-381.962
-390.677
337.129
-48.1774
471.971
548.877
-219.959
177.87
-743.831
59.6292
-946.155
37.5746
477.041
46.3021
-680.032
891.168
-708.107
-59.1812
181.224
-203.421
22.1974
-73.9894
915.31
-841.321
-38.0613
-817.788
855.85
178.045
-175.906
62.2651
164.875
-227.14
-6.69513
-365.74
372.435
330.821
-307.664
-615.924
218.56
-279.2
466.568
-187.369
908.573
-678.109
303.686
15.4042
298.136
10.6488
-308.785
-564.416
194.116
370.301
459.266
-28.7339
547.087
-736.561
-380.056
-14.6242
645.968
-746.16
100.192
-180.909
135.014
45.8949
-655.975
638.871
17.1037
235.988
-216.328
68.8318
175.674
-744.591
826.47
-341.331
336.361
4.96904
67.9051
-361.735
293.83
256.891
-201.949
-54.9417
525.574
-328.104
-197.47
11.6998
-345.727
334.027
-496.631
484.681
-87.3837
315.273
-227.89
-663.751
162.823
500.928
-357.426
-36.683
653.631
6.05027
443.861
-20.9337
-190.077
43.7507
146.326
-22.6222
736.324
-713.702
-865.194
995.408
318.491
-153.646
-164.844
677.28
-775.049
97.7682
426.323
346.315
706.055
59.9236
-765.979
818.113
81.8189
566.444
-541.197
-25.2471
1093.74
-1012.33
-81.4096
1.39752
-291.061
289.664
303.161
-5.02496
65.2021
138.797
212.733
8.78189
197.968
-194.629
-3.33835
137.292
152.297
-289.589
-300.869
281.124
19.7454
-173.552
-294.954
468.506
417.859
-552.146
-315.582
198.923
-187.142
-11.7811
185.588
1010.35
-568.472
-441.88
525.537
-109.025
-416.511
168.811
506.089
81.5213
484.923
20.5321
-701.432
716.825
-15.3926
40.8786
-544.807
503.928
-102.5
-243.951
346.451
-447.299
38.5576
408.741
-140.098
-335.712
475.811
779.975
-1.26278
25.5256
187.14
-387.947
200.806
177.013
-264.396
-921.043
850.198
70.8447
-290.685
305.064
-14.3787
678.422
-90.7216
-587.7
1046.99
-603.8
-443.192
197.258
-186.431
-10.8268
224.85
-121.133
-103.717
-419.602
417.38
2.22158
661.728
-30.2008
-631.527
-697.661
-3.77098
380.269
23.865
-588.45
467.868
120.582
585.843
-577.702
-8.14086
-855.761
44.4187
811.342
856.379
33.1965
-889.575
-423.948
283.85
-205.787
15.7107
-325.038
543.783
-218.745
-177.605
-61.9559
754.991
-793.052
-136.86
199.125
559.041
-180.955
-378.086
-123.287
-308.253
212.852
-212.755
-0.0972551
619.593
42.1347
683.261
-608.664
26.3757
-301.355
274.979
838.271
-876.676
38.4051
-325.111
12.0703
960.217
-963.061
2.84419
46.8172
230.068
-276.885
680.126
-34.1573
572.767
-591.916
19.1493
-826.943
854.08
197.591
-211.389
786.693
211.946
747.209
194.449
164.76
-359.209
-294.09
-5.11462
839.341
-90.9866
-748.355
587.54
-140.126
-447.415
256.948
-72.2754
77.2017
416.603
73.4552
-285.996
473.663
-503.683
30.0199
140.654
-346.879
206.224
137.378
388.196
74.7937
858.335
653.218
-773.107
119.889
-22.0138
982.231
-271.006
-37.887
308.893
-210.72
220.301
-9.58062
36.9304
154.018
47.6126
451.715
334.47
-341.165
-376.577
16.1794
-344.927
51.4218
838.321
-58.346
63.3204
-246.177
182.856
-967.834
21.6781
-931.768
-36.0651
-486.039
60.2716
425.768
-740.209
909.687
-169.478
-233.647
-23.1371
256.784
-134.025
-75.6919
209.717
-128.206
-74.8736
203.08
-172.149
237.223
-65.0738
853.472
427.484
-240.344
147.925
-11.4244
-567.26
-880.213
-40.8302
424.966
162.574
202.023
-527.062
200.828
-1107.22
906.397
16.3115
208.18
-224.492
2.51908
-204.593
417.593
26.2678
89.0513
701.761
288.306
38.3434
-326.649
-473.77
606.593
728.925
72.6512
-801.576
-781.175
-6.44855
803.954
-856.821
52.8673
319.695
-281.017
-38.6781
87.647
230.844
850.97
-864.889
13.9193
978.822
-862.141
-116.681
939.438
-943.917
4.47859
-415.776
-172.674
-0.281857
-872.742
562.642
310.101
-175.359
159.901
15.4583
-246.398
383.69
138.58
90.6694
-229.25
753.865
269.697
-285.896
431.42
94.1163
784.816
-700.714
-84.1013
-52.1758
-132.819
-65.6366
198.456
-302.928
260.931
41.9978
862.937
-839.021
-20.6714
377.721
-357.05
-353.804
-9.73765
573.054
-582.544
9.48972
364.649
-327.075
-37.5736
-828.651
731.271
97.3802
-905.894
831.904
142.918
81.932
-404.482
275.425
129.057
465.996
-453.031
-12.9654
620.614
-622.59
1.97599
517.905
-44.2418
-355.708
-119.399
475.107
26.6858
-297.692
-62.9395
-250.013
312.953
544.29
563.936
-1108.23
-900.858
849.227
51.6312
2.13537
-403.717
417.191
-13.4734
430.523
-398.955
-31.5685
674.641
-851.778
177.137
712.233
-884.458
172.225
-500.765
-162.986
-463.077
81.0258
382.051
301.569
-5.63896
-295.93
-326.236
198.029
476.832
87.7944
-719.764
-108.888
15.1436
182.824
-296.416
302.362
-5.94642
53.5119
-367.782
314.27
488.244
40.8857
-529.13
-238.43
300.602
-62.1719
-896.186
-19.636
915.822
-153.932
-71.2259
225.158
5.583
-852.176
846.593
804.7
-118.313
-686.387
305.359
146.05
-208.99
-874.865
-21.3216
808.886
41.3122
2.62895
554.783
-201.948
-523.309
-10.3827
533.692
-801.987
913.791
-111.805
312.487
-244.582
-407.064
304.564
-29.7062
590.572
63.0589
381.75
-241.096
276.075
517.358
-11.282
23.2218
341.427
-772.328
75.8667
696.461
455.694
95.5613
-104.195
-61.9728
166.168
-851.798
-23.0668
64.2037
332.979
-186.26
229.697
-43.4368
40.2295
-278.659
-278.263
292.925
-14.662
-16.8232
20.8783
-511.62
490.742
-612.028
-134.132
-18.0523
297.979
-279.927
-332.954
465.423
599.381
447.611
-1102.79
430.493
672.296
328.358
0.209155
-328.567
-192.904
-203.619
396.523
-523.976
558.183
-661.296
-20.0164
681.312
99.6794
80.334
-180.013
-44.2588
799.249
839.744
-862.844
23.1
807.342
-154.123
33.0614
-605.208
-320.8
-24.9274
556.762
57.6681
-614.43
435.524
23.7419
-348.034
389.786
-41.7525
-854.172
-3.66503
857.837
-27.8225
-823.976
310.738
-289.952
-20.7859
625.219
-4.60474
592.071
-423.407
-168.664
-206.619
290.397
-83.7777
-74.2975
-302.28
-417.955
-49.0612
897.299
-185.066
-829.494
89.2854
-629.098
17.0699
-536.898
46.8994
489.999
820.543
-39.6196
-780.924
-277.602
105.453
4.49898
-356.327
351.828
865.469
-190.828
305.011
-3.44193
636.846
-64.0786
494.284
-6.0403
801.301
-712.249
-1045.15
-57.6428
444.164
21.832
543.977
39.7737
721.661
-714.333
796.788
-38.8005
-757.987
187.76
-226.895
271.511
-10.5802
-117.496
212.488
-203.935
474.847
15.1851
-490.032
575.225
-93.0854
-482.139
-457.637
421.039
36.5983
128.79
672.511
12.4914
-78.2888
-772.174
850.463
60.7222
-673.468
612.746
221.483
-299.978
78.4949
-733.929
655.641
91.6505
713.05
-504.414
1048.7
242.54
-179.219
-287.819
-191.461
226.352
-34.8906
199.232
-263.8
64.5678
-177.884
316.464
-8.68603
-345.118
-50.9066
4.4558
-409.019
404.563
-47.4649
-160.902
-194.054
-26.5218
363.905
-337.383
-870.862
944.457
-73.595
45.4605
-527.849
482.388
60.5113
-271.231
-755.613
105.867
649.747
341.747
-249.249
819.409
1.13424
-8.6697
225.577
-216.907
449.658
142.412
-123.877
-339.2
816.422
-201.59
-95.2403
-914.175
603.745
-361.655
135.634
57.9981
655.796
-592.493
494.203
-11.1097
339.719
-34.3819
338.224
-420.491
82.2671
226.624
-278.258
51.6334
53.0614
243.481
-296.542
335.893
-509.445
-7.24114
761.955
-806.214
537.255
-62.4086
-108.868
740.349
-631.48
-267.789
300.589
-32.7998
-70.6388
292.122
197.192
-188.619
-278.018
10.2296
-1069.23
594.028
475.207
-35.8044
-78.4189
169.337
-307.114
292.871
14.2428
-675.966
692.566
266.692
-271.345
4.65371
-486.437
191.483
-509.035
-560.199
233.896
-277.22
847.155
-946.585
99.4303
-342.598
21.7981
489.738
-625.81
136.072
-2.99645
811.883
252.123
-288.923
36.7996
-309.815
-562.927
-36.9321
291.726
-25.0348
362.77
-117.168
-245.602
-20.2929
-853.169
873.462
-872.397
465.767
406.63
-55.0846
735.938
-461.694
43.7392
-149.761
-146.044
295.805
879.228
-837.211
-42.0176
388.718
-324.514
798.228
5.72526
109.284
76.9848
-186.269
-580.55
1024.4
-443.847
141.144
-188.533
47.3895
-759.04
-144.955
903.995
133.125
229.645
853.495
-31.3787
813.467
-736.758
500.384
-423.183
7.72918
-254.566
77.215
147.568
-224.783
306.039
248.744
-19.2396
-1098.2
619.194
479.005
9.05898
891.734
-60.5352
-831.198
-430.419
621.665
-191.246
57.1145
756.352
21.4064
-544.716
-590.48
-18.1115
608.591
441.772
139.538
-581.31
-264.808
-522.265
277.958
61.7606
-173.791
-74.329
-405.37
352.022
53.3476
-783.023
323.427
198.951
-259.615
60.6635
217.57
-261.656
44.0861
428.299
-423.843
735.591
53.8327
-789.424
-200.851
48.5295
829.881
20.5332
-850.414
-377.408
29.9276
347.481
118.64
860.183
-406.268
454.598
410.581
-72.3569
-954.652
99.7681
854.884
789.145
102.589
-39.1721
265.796
49.8266
380.697
910.949
134.847
21.052
-482.746
28.8953
-827.366
798.471
703.127
-775.43
72.303
636.386
465.978
769
-56.0298
-712.97
189.909
-48.766
75.8479
339.034
-414.882
-735.276
792.391
293.489
169.615
-237.812
167.536
70.2757
-111.28
-426.706
537.986
-31.0643
-210.664
1004.42
-573.931
44.4444
-278.091
207.858
-216.528
-106.992
-150.373
30.9
820.07
-175.337
511.23
-609.593
767.327
-157.734
694.654
-717.276
-401.301
390.919
-443.273
-179.317
39.1213
348.576
-16.2913
-332.285
-46.2959
808.251
-505.253
-623.371
1128.62
286.957
-243.914
210.062
1.66071
195.532
-221.603
144.728
-885.396
909.071
-23.6746
-284.292
255.121
29.1708
72.0592
712.756
3.36132
765.639
634.477
-14.8836
-14.9068
-509.997
472.532
37.4647
933.108
17.1485
-950.256
-319.788
-57.6201
0.3867
-237.015
806.916
-71.3253
529.003
-623.006
94.0032
-762.28
-84.5313
35.0371
284.658
899.921
11.0284
-489.909
440.168
49.7406
-950.466
-94.6794
36.3149
-403.021
366.706
-207.305
245.273
-37.9679
251.912
-52.6798
-39.2905
1050.28
-313.207
-737.076
579.495
-50.492
64.6202
-259.825
-72.8103
-699.954
796.253
-96.2989
-47.6464
-25.4285
242.998
504.426
-5.76179
92.7832
-870.61
-83.6705
206.837
-123.167
-204.269
213.056
-8.78715
-681.765
570.485
-457.909
478.787
344.198
44.5191
-459.109
424.082
35.0272
565.251
445.101
497.975
-459.641
-38.3341
497.741
-314.223
-183.518
-211.231
48.4023
348.623
-20.5482
-328.075
-230.135
38.6741
-287.331
270.437
-219.061
-636.7
-691.708
-81.3992
257.328
-58.3766
668.949
196.52
7.05462
221.628
817.596
-83.0428
-734.553
327.952
-141.872
646.738
-504.865
262.438
-285.575
-88.2683
530.041
-751.271
6.68014
-84.8412
-96.068
500.01
-99.515
794.838
-695.323
-192.089
228.037
-35.9486
-43.4278
-240.864
829.583
-737.933
217.056
-429.874
-414.35
844.224
868.168
-199.219
-45.0386
801.129
-756.09
597.235
-6.66371
17.5168
-607.996
277.973
150.145
-428.119
-403.579
479.427
-25.5314
-313.299
338.83
-615.949
64.4682
551.481
-143.652
534.571
-390.918
-483.654
407.31
-481.824
74.5148
104.33
-170.274
65.944
-159.155
353.605
-182.018
-198.038
738.863
-35.7352
102.192
581.069
-610.939
648.654
-37.7151
269.26
-287.312
-811.284
-51.5596
96.7139
-432.426
590.118
460.165
-615.713
172.44
424.322
-854.197
410.842
-681.834
28.6422
653.192
-225.071
272.015
-46.9439
-816.307
886.691
-70.3848
-47.4073
-431.963
479.37
1005.36
-405.653
-599.708
-67.2643
-789.556
5.33125
305.407
-950.453
207.438
743.014
-857.676
-92.7768
-169.184
-6.17503
-777.773
731.477
-137.984
-301.391
439.375
-5.56291
-270.991
276.554
160.075
647.266
258.532
154.432
-412.965
-902.861
154.56
748.301
541.071
-580.817
39.7462
604.52
58.5759
-663.096
-45.721
673.341
-639.92
-33.4207
351.95
-23.5921
-41.5676
240.616
-199.048
608.521
64.8201
12.4465
-793.622
721.529
-777.559
-177.155
254.37
329.391
168.35
150.3
-332.319
200.098
-202.905
2.80633
337.206
-197.437
-139.769
592.257
42.2195
-749.42
801.732
-52.3125
-436.859
-84.7172
521.576
-5.42236
-290.994
269.532
64.8876
-334.419
242.68
-95.249
-147.431
418.067
-465.475
-61.7121
-740.274
-410.025
120.736
136.155
535.664
-456.896
-78.7685
-233.358
249.67
-195.074
188.573
6.50143
46.0645
-253.941
207.877
-320.951
377.625
-56.6742
220.176
-23.1884
-196.988
450.475
554.885
-255.576
555.313
-473.587
136.379
-191.997
55.6176
-193.506
-23.2966
216.803
701.242
-96.7222
232.758
-163.926
-357.072
270.006
87.0665
-419.71
-39.9157
459.626
-351.714
448.428
304.779
-323.569
18.7905
-13.8133
26.2588
474.125
462.521
35.454
58.2616
-477.972
216.067
-14.1047
-333.813
-8.78496
-366.559
298.246
68.3137
339.844
-61.8863
676.451
220.847
-238.033
284.097
-284.386
305.489
122.809
651.811
-774.619
-738.233
-24.7394
762.972
24.8979
187.816
16.7698
-337.721
-690.594
621.04
69.5537
110.86
-197.851
164.98
32.8711
436.635
-158.661
-244.952
-188.441
433.393
-161.299
-348.697
216.087
-15.9883
-283.627
133.865
97.3088
-180.979
-1009.52
696.316
-346.467
346.467
851.482
242.261
-35.1355
-509.08
-500.442
207.439
327.644
527.849
42.5137
543.828
-49.5434
286.351
-264.183
-22.1678
-629.279
662.028
-32.7493
-50.35
-531.498
-48.9081
-633.996
735.454
-101.459
83.5171
-492.654
-352.531
539.293
4.53455
537.405
34.7453
-572.15
750.332
-646.691
6.7706
-98.4869
-90.4561
188.943
-391.478
104.147
307.943
-30.6773
-277.266
-139.533
-66.2539
-298.787
287.018
11.769
-304.744
98.1248
871.657
-195.206
-339.301
41.7697
769.727
-2.60216
-767.125
584.115
-658.805
74.6899
-922.868
830.387
92.4807
-22.1007
-639.195
110.423
294.974
-21.0673
-259.867
280.935
-804.445
44.081
-201.016
-286.769
265.702
-465.911
511.371
-258.403
281.212
-22.809
-297.78
301.519
-3.73819
-814.792
705.924
995.969
-148.814
-180.399
316.365
-269.548
358.97
-194.21
435.597
-322.077
-113.52
284.655
55.1888
817.243
-82.2028
-735.041
184.787
-681.418
-763.46
682.095
81.3643
6.22351
-616.816
625.2
-8.38387
59.2881
173.47
-104.834
522.693
-263.627
309.364
-45.7366
378.731
-457.815
79.0847
-608.498
649.019
-40.5213
586.288
43.4195
-629.707
253.135
-217.464
-35.6716
557.5
-26.5036
-530.996
193.872
-85.5216
-108.35
-98.2732
-43.0777
141.351
960.585
-951.09
-9.49466
-575.486
-388.312
-45.3529
-760.021
805.374
-897.626
834.362
-608.345
375.201
233.144
605.019
-623.13
-10.7539
677.834
-667.08
55.5036
113.543
-169.046
-73.1808
-294.601
-855.99
-66.8778
15.4716
364.677
334.027
-739.679
211.982
4.0845
-224.111
224.111
392.588
-103.263
-289.325
-911.381
25.9854
-2.47628
-20.6035
-483.162
503.765
-753.824
-80.4594
486.477
-406.017
-252.369
-408.617
430.829
-9.79024
-47.4368
255.617
153.025
184.181
-550.975
395.768
-165.799
424.331
337.451
-52.7958
763.752
-711.95
-282.989
-4.6476
269.856
-946.905
-3.56159
5.61835
927.49
532.167
-448.65
-849.282
577.999
271.284
14.8269
254.686
-269.513
350.424
-11.4348
-338.989
-460.929
30.5096
-835.964
749.689
86.2752
-123.119
-196.669
220.614
47.7071
-268.321
212.669
124.782
-800.985
17.778
-582.147
338.31
243.837
42.16
259.516
359.482
-323.691
-35.7911
-402.684
415.447
-12.7634
847.401
-513.374
-454.816
312.943
-317.54
188.702
128.838
423.366
-720.796
568.282
-27.2116
811.235
-807.874
82.0428
111.829
-831.076
815.71
15.3655
-795.386
45.966
-472.164
-527.851
1042.66
-186.28
931.083
-835.192
-95.8906
-521.122
-463.31
984.432
-47.8389
-253.03
39.3721
223.317
-227.228
3.91081
-21.4725
-56.0545
733.335
471.36
-38.9264
-432.433
-348.113
-216.303
30.8233
-58.6036
-278.709
-165.293
441.033
-275.74
-926.192
926.192
92.1959
-797.387
463.549
-510.289
69.0118
441.277
-210.552
-193.93
182.532
-174.15
-376.826
-561.793
387.643
607.81
54.2263
188.453
429.501
-928.913
499.412
-45.7969
334.103
-225.886
-260.153
-211.022
434.294
-104.903
-178.496
-139.045
-65.4671
-835.391
452.329
-517.877
65.5475
18.4561
-705.895
788.428
-82.5332
415.66
-419.073
3.41256
243.846
-566.159
529.684
36.4752
64.11
136.411
-200.521
191.53
-233.098
378.947
-708.778
329.83
110.532
758.326
145.394
247.194
-68.4695
-491.872
471.269
291.246
-305.095
13.8491
416.123
-37.3923
353.53
-380.052
-20.2954
-367.341
387.636
-38.858
-288.385
335.516
13.5694
-349.086
-442.816
277.523
-386.035
36.8297
631.202
-749.515
-409.283
530.616
-311.865
-91.8527
976.634
-866.101
-492.8
-312.27
805.07
291.44
34.1499
290.727
-324.877
-442.896
156.045
-279.165
-51.5148
450.235
-563.557
113.322
47.4109
613.574
-200.606
102.119
345.895
-303.735
708.737
-329.79
272.845
-171.749
23.3725
364.425
-387.797
-26.8661
-290.718
-10.6366
-250.38
248.246
2.13412
3.37905
566.152
-544.746
53.1482
-891.583
113.239
801.775
-3.54658
327.764
-115.095
525.495
328.697
-854.192
598.383
239.937
677.601
-777.116
-762.534
107.397
655.137
293.207
63.0475
-356.255
181.441
-173.889
-7.55223
36.1912
274.749
572.959
-208.65
61.7798
146.87
-156.539
-607.148
763.686
-335.944
365.954
-30.0104
-277.281
286.231
-8.94943
-147.091
-173.769
-254.272
206.145
48.1277
920.102
-920.102
-87.0265
726.984
-639.958
292.962
-205.315
343.599
-68.1739
-658.337
187.397
26.314
-213.711
19.6352
-587.314
567.679
47.0368
-272.382
225.345
908.6
-914.22
5.61974
301.469
-674.702
373.233
363.358
-327.043
50.5105
308.972
-350.737
876.232
556.774
-106.538
-71.9034
-239.6
-399.253
317.041
82.2118
225.753
-344.757
328.756
-500.146
171.39
-271.057
45.9855
-873.306
-73.5987
33.6628
-739.557
337.756
-173.233
796.371
-773.267
-23.1043
431.282
60.2072
-491.489
-685.424
610.586
74.8387
-272.357
217.982
54.3749
318.674
-27.4278
-426.013
-254.78
885.13
-840.031
-45.0988
-357.382
658.851
118.159
-555.018
-865.196
11.0239
-52.3299
-608.478
660.808
47.6505
-141.78
-96.0318
-920.564
392.716
527.849
185.283
3.2895
448.483
-32.8227
543.451
281.819
-275.349
-6.47021
-332.989
-5.66497
338.654
-564.973
462.098
15.9205
-235.736
219.815
227.645
-40.2474
-106.354
376.504
-270.15
-352.634
4.60027
433.59
-9.50786
52.8204
-813.583
760.762
-664.241
664.241
82.2161
180.222
-95.633
-506.645
602.278
-854.502
938.124
-83.6225
741.152
55.2196
-14.1021
-834.593
848.695
322.745
-339.766
17.0204
323.925
12.554
-336.479
585.127
-636.69
51.5628
47.3052
324.374
-371.679
-220.394
-126.047
346.441
189.999
-8.5583
108.732
-711.538
602.806
-760.046
267.246
345.97
-311.821
793.724
59.7709
-77.2237
-433.065
339.527
-391.3
-682.388
103.749
578.639
331.447
-292.123
-39.3242
-529.914
617.11
-87.1966
-81.5283
-362.616
444.144
405.062
-381.84
-607.877
-312.687
620.186
-722.295
102.109
-409.657
-439.626
837.869
-39.6808
-645.743
101.676
483.168
-584.843
563.54
-644.662
81.1225
46.1125
-262.568
11.1128
-692.947
-317.019
321.518
-10.0161
570.391
-692.672
122.28
-344.465
-430.583
4.58204
-686.054
697.745
-11.6908
763.051
-164.668
645.15
-102.561
-542.589
233.23
302.434
284.191
-294.836
10.6452
807.726
-935.854
128.128
-662.318
-100.216
-315.214
51.5863
-327.96
62.5501
265.41
-55.398
640.525
104.622
-276.523
171.901
356.495
-334.721
-21.7748
-366.548
-215.599
-24.2971
205.521
-37.2757
-166.145
227.772
149.53
-377.301
-270.159
318.134
-47.9746
592.032
-687.665
21.2591
286.684
-289.98
-37.9798
-301.507
-306.838
-711.293
540.762
170.531
-112.489
-146.422
-155.058
65.4605
-576.919
536.132
40.7864
576.951
-1098.07
-23.692
-1015.29
-140.901
374.761
59.5328
-21.6345
-51.3535
-761.182
129.701
857.918
-852.335
617.337
-76.5757
1.85808
589.216
-591.074
-290.37
-160.267
450.637
-60.7328
-211.624
12.968
186.888
-211.256
24.3684
-997.771
246.34
449.182
-120.425
19.5727
-627.864
608.291
299.356
-364.745
31.1741
333.571
65.2742
573.64
-638.914
-100.879
773.54
-672.66
-669.647
-195.242
-737.704
37.8291
699.875
-26.1168
578.698
-552.581
928.856
-919.951
-8.90513
570.326
-622.656
-611.179
-23.4398
634.619
-393.886
123.727
280.952
-279.414
-1.5381
801.757
-772.862
-95.6706
730.699
-635.028
456.797
15.735
-433.242
-669.595
604.127
65.4674
399.798
-92.0448
-563.93
-57.6439
-10.2368
-398.782
-42.8851
239.83
-196.945
18.5418
327.429
-358.897
363.077
-4.17988
749.488
-794.841
94.3171
162.467
209.757
-220.946
11.1893
684.17
-775.214
91.0444
-331.62
-697.727
-2.22723
796.169
75.4884
290.48
120.101
813.648
-17.4792
-31.9041
-1030.11
168.261
3.92898
24.1046
-568.911
150.668
-95.1644
-1081.99
-255.522
271.442
75.5208
217.441
-107.333
-467.08
574.413
-2.35802
-477.372
479.73
838.905
-31.1795
569.974
75.1756
-56.2878
-220.579
276.867
752.873
-797.912
-163.07
390.842
-414.214
446.669
-32.4545
-679.375
722.964
-43.5887
301.436
-330.733
12.0383
389.042
-113.529
-275.513
178.835
-511.025
465.727
45.2979
3.65969
-459.407
465.791
-6.38383
613.528
-596.011
44.3255
-171.985
603.267
-290.545
57.3826
440.435
40.1967
608.42
-648.616
-65.8169
-154.447
219.334
-1.35265
32.9543
-386.633
21.8887
-415.699
1.4848
248.518
-250.298
1.77984
711.196
-682.553
-483.124
82.5691
400.555
-42.1522
626.267
-44.4301
-209.511
914.255
-141.73
-772.524
518.882
537.491
-1056.37
-305.886
-7.73501
288.617
4.254
10.2883
270.836
-696.459
-6.13649
702.595
592.338
-748.877
-219.743
187.556
32.1862
-539.285
-7.889
-665.579
28.8377
107.542
-136.406
-427.996
-107.821
212.443
21.9346
-644.014
622.079
-37.9688
-497.957
535.925
-269.921
317.226
-69.1977
625.959
-732.806
755.363
-22.5571
217.636
-482.444
273.904
-279.33
5.42527
5.33373
-840.107
25.3146
254.2
-474.594
920.144
-931.256
11.1124
637.971
12.3275
-650.298
-48.9924
-542.924
-807.258
840.455
141.613
-207.249
897.667
-78.2583
235.512
-12.1952
-60.4812
-716.032
776.513
-89.588
-596.467
-32.8007
570.205
-685.562
23.2445
201.642
-240.615
38.9736
-231.725
0.102791
231.622
-557.043
533.488
23.5549
-174.892
76.6184
47.9839
96.5162
-144.5
-880.259
314.277
17.6903
-331.967
54.8931
637.915
-692.808
-336.925
373.938
-37.013
-661.949
-23.6134
-660.187
782.996
-897.029
127.828
769.202
-142.643
-167.866
-443.494
62.9966
-457.582
-618.177
272.227
-2.53018
-285.281
287.788
-2.50756
160.424
-96.3137
-420.859
392.751
28.1072
-954.91
972.058
-318.646
109.402
209.245
99.7226
50.9454
526.232
868.658
-888.951
276.33
-45.4861
385.32
-528.973
-790.001
811.762
-21.7616
-350.41
-195.029
545.439
128.48
-166.065
37.5848
424.782
-529.616
757.911
-690.563
-67.3478
-262.078
-43.8087
355.295
-85.763
311.61
-290.351
327.999
-652.016
-17.5782
5.66287
633.208
-352.027
102.777
20.633
-891.495
550.165
-387.342
608.138
368.496
422.799
8.03035
744.696
-805.177
-38.9599
-9.72234
827.286
70.3818
420.993
-499.657
78.6645
239.268
-189.333
-49.9351
-197.317
234.579
-37.2617
-2.52235
338.982
-336.459
-618.556
658.753
431.528
255.041
-211.594
-43.4472
356.806
522.422
312.112
-332.66
722.827
94.4168
83.792
-606.634
522.842
639.536
-35.4088
34.5218
-930.819
114.234
816.585
194.417
-265.643
-246.956
-793.226
732.279
60.9478
5.1029
815.03
-820.133
934.553
-934.553
-376.592
17.695
602.816
36.7205
-109.057
-40.7762
-189.58
230.356
437.321
27.5777
-464.899
-432.449
18.6439
413.805
189.407
972.174
-453.292
-219.346
35.1019
184.244
-627.685
630.617
-2.93199
455.807
-472.176
16.3687
-430.382
-2.06714
38.1237
-770.543
732.419
-635.837
-65.3811
-548.198
518.331
29.8669
-391.173
316.876
39.0761
-250.645
211.569
-174.099
-144.547
-27.3584
235.755
-16.4211
35.4766
325.916
-287.573
-71.1408
791.599
364.344
-50.0674
-770.042
31.8091
-890.017
814.447
75.5707
127.112
295.617
356.057
186.403
-759.017
859.272
326.738
198.621
-525.36
-160.057
594.427
-643.991
49.5634
496.072
56.1768
-552.249
651.201
-353.622
-297.58
-492.465
-118.044
-784.03
683.15
23.5357
-689.855
666.319
-711.216
108.483
602.734
-762.417
17.0293
47.9559
508.42
-87.4275
-530.167
354.83
570.846
-596.963
-35.3166
-64.0606
221.007
-156.946
72.9809
-706.977
-229.087
-224.308
160.248
-26.5779
288.081
-110.344
-177.737
180.261
-5.54855
-640.943
716.81
-47.263
217.986
-170.723
869.86
-630.5
13.6837
144.692
201.203
0.990481
397.319
-398.309
-220.17
-208.943
429.113
180.918
763.539
378.623
-355.251
-843.749
7.78495
626.383
-609.854
-1.73791
-820.857
822.595
589.514
15.9716
-605.485
854.367
47.6221
-901.989
305.678
-4.15931
118.754
-409.124
425.226
8.36432
-254.405
334.028
-79.6232
186.428
380.793
-90.3131
610.513
-53.8859
-556.628
-759.396
787.537
-28.1411
12.1604
660.577
-672.738
-647.303
117.389
-5.06646
-442.013
613.967
34.131
322.364
-28.7093
182.717
-83.0379
-334.37
1.38148
95.9369
742.969
2.26211
-275.561
273.299
-425.412
-503.501
-57.4229
-757.776
815.199
274.047
-43.9797
188.767
-273.021
84.2538
179.046
-93.3349
-217.056
-516.874
-581.325
-792.25
-19.0336
-159.633
-815.746
776.437
39.3091
-34.2162
469.226
-435.009
59.7799
821.332
-881.112
190.847
-142.863
776.605
25.1268
-237.245
196.468
19.3475
-303.62
284.272
575.696
-573.838
-648.522
109.657
538.865
-589.726
588.119
1.60726
27.8199
256.371
-665.296
-441.929
608.528
45.7714
-654.299
-721.944
606.742
-679.196
72.4541
-133.743
-74.9068
449.791
-484.163
-847.268
852.371
108.773
-308.12
-588.909
-642.248
593.197
49.0511
174.73
-70.4001
-42.8099
464.64
186.561
-576.846
65.2264
514.402
-526.523
12.1215
73.4279
-717.631
644.204
264.709
-16.1909
-307.376
164.342
143.034
-577.279
612.024
-136.251
494
-357.749
681.377
-86.9492
-0.867774
-315.504
316.372
-447.146
-442.72
889.866
-146.687
262.509
-115.822
-103.929
-578.459
-589.391
436.501
152.89
409.536
-46.181