/*--------------------------------*- C++ -*----------------------------------*\
  =========                 |
  \\      /  F ield         | OpenFOAM: The Open Source CFD Toolbox
   \\    /   O peration     | Website:  https://openfoam.org
    \\  /    A nd           | Version:  7
     \\/     M anipulation  |
\*---------------------------------------------------------------------------*/
FoamFile
{
    version     2.0;
    format      ascii;
    class       surfaceScalarField;
    location    "23";
    object      phi;
}
// * * * * * * * * * * * * * * * * * * * * * * * * * * * * * * * * * * * * * //

dimensions      [0 3 -1 0 0 0 0];

internalField   nonuniform List<scalar> 
11512
(
144.482
-500.375
355.893
-760.471
-1.02799
761.499
408.122
-370.733
-37.3887
635.813
267.116
-902.929
1510.86
-1069.36
-441.499
1216.29
-1527.13
310.84
-57.6491
472.541
-414.892
168.476
-841.951
673.475
962.106
-1610.81
648.705
-1760.98
1668.27
92.7099
-542.944
1759.23
-1140.67
1934.45
-793.778
608.138
180.756
-788.894
-24.8536
-1314.59
1339.45
220.983
-1981.97
1022.59
-382.486
-640.105
-182.511
326.993
485.682
190.154
-675.836
1155.07
-1313.33
158.261
-316.174
375.452
-59.2784
1003.94
-1314.99
311.053
1221.52
799.305
-2020.82
73.0132
-1640.34
1567.33
-475.329
-1168.73
1644.06
476.74
181.451
-658.191
-187.508
-312.867
498.103
1012.76
1647.52
-1805
157.483
-89.4593
-1691.07
1780.53
-1558.86
652.319
906.542
-307.482
652.529
-345.046
-193.423
-153.758
347.181
1284.79
-1211.77
355.163
-1407.38
1052.22
-1754.37
1754.37
100.027
1531.92
-1631.94
-1079.52
-479.345
637.168
-694.817
-384.626
941.297
-556.672
1331.95
-1317.31
-14.6379
-1100.01
715.384
625.911
396.68
-397.122
-28.6371
425.759
-450.184
781.942
-331.758
-1618.57
1618.57
1253.59
-1437.9
184.306
-488.619
1710.14
1254.78
-313.481
1660.75
-1161.26
-499.489
69.8062
-385.98
2065.41
-1135.12
-930.283
1813.13
-165.605
455.941
155.514
-611.455
-461.106
972.328
-511.223
-1170.48
1270.51
-568.305
970.627
-402.322
400.476
754.594
661.137
-492.661
-436.635
592.806
-156.171
1190.65
-835.483
2308.19
-1080.66
-1227.53
1163.71
-2008.88
845.171
-1602.29
1577.43
440.658
-1581.33
-759.221
1250.78
-491.555
-671.541
364.058
1661.46
-699.35
-1106.93
-870.893
1977.82
683.428
-372.756
-310.672
689.574
565.205
-258.203
1511.79
108.626
-314.366
205.74
-284.056
760.797
-333.776
565.742
-231.966
-323.923
809.604
-316.963
-147.008
463.971
320.615
87.5068
1458.78
-454.845
-983.075
486.557
496.518
272.922
91.408
-364.33
949.077
-340.939
-1700.14
650.306
1049.84
17.6393
-855.728
838.089
-280.702
594.089
-313.386
157.129
-1093.74
936.608
1051.82
-1067.29
15.4747
372.644
518.766
-891.409
-244.496
700.437
-1103.67
-482.12
1585.79
-678.786
951.485
-272.699
1356.18
-1445.64
-640.626
281.763
358.863
-470.182
-1011.57
1481.75
-538.525
-793.864
1332.39
576.31
-996.237
419.927
-268.54
-317.769
586.309
403.439
-294.813
-1039.26
578.153
955.301
-798.172
-110.261
944.062
-833.801
-210.349
416.673
-206.324
-628.557
-354.518
-386.511
962.821
1856.39
-1856.39
-471.469
-169.157
-950.289
1557.85
-607.556
497.578
-929.45
431.872
-923.419
355.114
-941.91
-1058.08
-1491.1
344.657
1146.44
-277.51
913.323
-319.207
618.443
-299.236
-1941.9
999.994
-1140.58
-350.517
553.083
-1503.37
1728.5
-1725.62
-2.88031
202.741
-605.073
402.332
-1459.63
974.118
485.514
283.594
215.851
-499.445
310.347
-644.123
244.254
-420.504
176.251
2015.17
-873.423
-1141.75
-546.202
149.08
616.602
835.641
-1452.24
-182.654
426.908
431.219
876.758
-1307.98
-906.419
392.579
513.84
-1046.66
1447.13
-1068.89
309.665
750.409
-97.8806
557.864
-290.256
-267.607
1008.68
-522.127
593.282
-1403.84
810.554
-1342.21
238.538
-545.452
264.749
-1182.61
905.095
1945.52
-980.771
-964.749
276.805
1579.58
-2094.86
895.308
1199.55
368.807
-29.9933
-338.814
-223.497
483.884
-260.386
-104.431
-382.48
486.912
-463.253
146.289
342.245
-129.173
626.751
419.359
381.345
-800.704
-2037.82
1115.86
921.96
460.187
-529.821
69.6342
224.34
-366.515
142.176
1017.59
997.587
1784.14
-252.228
731.241
-449.478
796.711
-1389.62
592.913
351.829
331.599
1053.29
-1035.65
-496.736
-233.76
730.496
473.66
-134.303
-339.357
797.324
-616.569
558.768
-723.766
164.998
503.325
1157.42
-1239.78
701.258
1041.5
-1516.83
-3.13436
-1439.43
1442.56
325.583
824.376
-1149.96
623.294
269.746
-893.04
-2269.6
1141.73
1127.88
-1098.2
-1171.4
200.121
358.648
958.499
-632.916
879.521
-899.155
19.6338
-2099.38
992.453
-231.6
-191.069
422.669
-41.7633
1770.26
-831.066
70.5948
-1028.38
-1066.49
-229.162
453.502
-676.605
205.136
-274.014
-424.07
698.085
1104.04
-1574.22
783.002
-1374.43
591.428
694.047
-426.931
1947.87
-1444.54
-378.279
-1376.09
74.3019
398.239
-531.419
530.391
18.5494
-573.805
555.255
568.303
-284.709
-603.578
279.696
323.883
781.422
-362.063
32.8821
335.925
1188.47
-1191.61
172.677
230.762
393.209
-667.223
619.622
-1006.13
-2026.71
2026.71
-258.581
-446.192
704.773
699.24
405.787
-1105.03
578.858
171.551
405.192
376.23
-2199.75
1328.85
-926.485
-679.084
1605.57
-485.414
-697.191
-255.934
549.726
-293.792
826.575
-195.283
-631.292
-446.007
648.748
365.973
-685.18
-366.717
-129.605
496.322
-1329.64
-475.365
629.058
-1114.47
-374.138
-1244.43
844.33
1463.86
298.341
-942.369
644.028
965.803
-339.892
1391.37
-798.09
441.848
-269.171
-327.561
-871.103
567.368
303.734
-329.84
-541.263
310.28
-414.711
-214.031
-148.415
362.446
-392.681
1091.92
434.884
-244.73
-393.004
1352.56
-170.081
-1182.48
-470.397
286.612
183.785
224.578
258.079
-482.657
23.5966
-747.363
592.097
-1729.01
1136.91
1482.48
-865.878
-1048.75
-410.884
-1056.73
573.317
483.415
1379.96
-405.845
929.216
-1411.34
-159.001
-199.364
358.365
-469.307
580.373
-1627.03
427.968
903.978
286.053
297.788
-583.841
568.077
1186.29
1103.29
-713.644
-389.65
400.794
-216.217
-184.578
-1419.46
445.312
738.054
-1183.37
1473.29
-544.079
-488.518
929.511
-440.993
426.145
1186.16
-1612.3
47.2844
-726.071
-146.375
419.296
226.029
-419.453
532.533
476.151
-614.397
61.6356
552.762
1024.54
-1307.67
283.132
664.806
-259.614
468.253
-1447.23
978.976
403.407
1686.75
-523.037
908.011
1037.51
-661.012
-1684.51
758.028
563.694
400.296
-963.99
454.507
78.8039
1749.97
-1828.77
1443.74
-379.472
-1064.27
1699.12
-1740.88
-367.158
-525.154
720.907
-195.753
-502.589
181.564
292.096
-372.944
-1226
214.43
-764.55
-639.286
-651.402
998.021
-346.619
-654.167
644.369
9.79855
655.122
-923.789
268.668
-766.58
389.396
377.184
-648.425
-688.506
348.459
340.048
-932.313
1400.57
-416.865
886.569
-469.705
-2205.31
5.55783
177.419
-533.7
356.281
142.246
1210.32
-100.231
-576.374
158.247
-594.882
1487.13
-704.129
379.842
-462.343
82.5011
-570.464
570.464
1223.11
395.458
1777.93
-1228.52
589.167
639.355
849.795
-52.4706
1291.63
773.776
-540.128
1336.84
293.231
300.857
272.568
-797.721
241.172
-691.356
231.41
-443.819
212.409
-239.538
577.673
-338.134
121.035
-360.573
-591.92
-564.472
1156.39
-372.341
542.331
-169.99
-1192.16
2032.04
-839.886
1289.36
-330.862
-406.195
137.654
-1980.75
812.015
1532.72
-847.626
-685.095
1986.96
-877.429
-1109.53
713.531
575.831
-239.275
470.685
-674.852
1142.68
-467.83
-769.996
1201.21
551.623
924.616
-1725.07
800.459
-546.263
-76.9926
623.256
301.072
256.792
408.972
-95.5823
-313.39
896.897
-83.4056
-813.491
919.77
-564.144
-355.625
1576.2
-472.162
889.903
-1626.82
736.915
1068.48
879.388
747.777
-441.424
-306.353
-1059.05
-258.26
563.057
577.715
-1140.77
-462.432
513.618
-51.1863
574.699
-342.286
-232.413
-984.107
567.243
595.392
887.088
-441.785
1096.91
1414.14
-778.793
-635.347
394.841
-923.932
529.09
-1027.13
398.574
555.4
-1043.92
460.829
-535.853
75.0237
475.754
306.189
-521.938
-48.5261
-794.195
-878.612
1672.81
192.094
208.701
-215.654
415.775
-27.9147
-558.706
586.62
493.915
867.988
-1361.9
-520.701
306.67
985.958
-89.0612
836.264
-1064.74
228.472
399.483
846.136
-1386.26
-450.741
832.086
1978.3
-1284.67
-693.625
270.181
609.34
255.971
795.844
85.2162
-966.973
881.757
1673.73
-1089.05
-584.685
-137.855
1887.82
-1866.05
-160.657
483.606
-621.705
138.099
-1013.27
526.431
486.843
-1730.48
538.319
-955.801
845.54
391.203
201.603
586.875
-288.533
-421.05
710.057
255.746
72.3845
708.002
-780.387
-1126.58
-901.796
2028.37
-539.451
1105.22
-565.774
-472.573
-342.422
110.822
-1654.96
860.764
-862.445
-599.039
1461.48
-332.158
-294.682
626.84
355.535
-647.328
291.793
244.997
-607.061
323.214
200.429
-523.643
351.225
-607.159
618.976
-263.441
313.097
-460.105
676.993
409.695
-185.116
-390.454
-298.052
1220.42
-2.68923
-1217.73
1039.55
-419.925
560.174
410.453
-1782.37
869.819
912.547
491.057
550.782
-1041.84
-535.784
203.626
-263.126
1180.93
-917.8
-1590.88
1212.6
504.556
-1096.48
384.539
-4.69766
428.149
306.424
-734.572
372.29
-616.786
-32.8764
756.405
-723.528
-526.19
795.936
388.351
322.614
527.182
653.269
95.875
-406.928
311.053
1058.96
-645.319
-413.639
494.013
-1664.27
1170.26
-1140.42
1753.23
-612.811
1715.82
-1123.72
-333.471
613.167
-1182.1
1267.32
425.294
-798.021
1604.22
-806.203
-263.827
-206.569
-890.1
1470.28
1812.94
-611.093
-1201.85
-404.653
649.642
-1301.04
-124.824
-49.7832
458.756
-681.639
-354.166
-1236.72
-219.053
464.05
903.533
-558.752
176.272
-1674.6
-71.2093
1745.81
-1067.66
528.208
568.165
-1182.62
614.46
900.991
911.954
630.784
619.992
688.657
240.853
-1136.39
461.535
-398.043
416.592
618.434
-514.991
243.248
-731.253
488.006
695.908
-344.079
-334.291
180.534
-604.629
242.465
362.163
-887.381
-739.437
1087.67
-2145.75
399.112
-683.168
-342.799
-724.491
834.229
579.911
-341.525
312.888
373.174
216.302
647.049
-863.35
526.658
616.024
-539.63
172.914
358.046
-616.627
-1035.25
-858.248
1893.5
-1797.61
157.264
1107.01
-1370.13
1157.64
-721.57
-436.065
-503.644
1349.78
-1495.52
627.867
867.648
-289.048
-210.605
499.652
1428.4
558.559
348.15
-477.755
-483.269
-568.103
1051.37
-419.649
597.068
1582.4
-1129.45
-452.95
-777.343
331.151
654.876
404.082
-1623.42
416.16
1207.26
-187.717
510.931
797.749
784.646
199.392
-689.341
489.949
206.947
209.726
-293.198
-107.686
400.884
491.87
-1.52778
-490.343
-1637.48
588.733
-1606.08
1672.59
-66.509
11.2713
-1617.36
1069.6
767.116
-338.967
-811.368
-215.763
-1134.51
-239.921
-311.173
683.463
-1812.45
-630.374
1208.09
214.21
758.118
-1330.33
-678.55
-465.452
614.874
-328.822
-1013.28
1350.76
-1932.85
582.092
646.375
1288.07
487.34
-3.4563
717.394
705.455
-1422.85
-637.225
334.16
303.065
440.822
-99.4066
-341.416
147.102
306.099
155.594
-461.693
-586.399
1150.09
460.444
-632.422
-461.793
-401.469
863.261
-327.346
168.346
-455.499
160.686
-304.485
-708.789
549.735
-108.913
-572.061
966.903
581.322
-270.118
-311.204
455.606
-779.528
-646.669
447.839
-1129.41
-838.033
1182.69
-569.761
450.381
280.115
-456.35
83.5943
1028.59
-317.707
594.58
-276.873
-509.025
1578.63
-682.556
241.048
370.559
-611.607
220.853
487.75
-29.6541
-458.095
-257.731
-197.768
1019.23
1108.93
564.801
-876.552
943.15
-66.5981
-458.897
169.85
-734.379
310.309
-590.801
323.715
372.192
828.365
-1236.47
408.108
777.021
-809.897
-948.963
-550.362
1499.32
-168.829
466.617
-550.013
259.757
1299.95
779.052
-579.659
1314.33
-685.267
487.285
-673.798
-406.281
-423.424
-378.078
801.501
502.67
-843.609
-459.043
94.9784
364.065
-323.191
572.408
728.366
-329.254
-243.674
-172.86
416.534
-488.971
137.761
351.21
1458.42
81.2222
-1539.64
-751.72
1347.11
-1144.74
-466.066
539.775
-169.216
1150.74
-373.724
1083.5
492.697
696.629
-424.061
-885.072
-522.31
-1328.43
-25.3628
985.009
-959.646
594.02
333.571
-927.591
-334.971
-211.231
-674.978
405.52
1621.19
-183.323
373.022
345.365
-718.387
-1839.77
-2106.68
1519.14
587.54
-2037
345.93
366.201
533.774
-899.975
-460.039
1020.21
-398.009
-671.073
1069.08
-2030.53
1391.21
639.322
596.873
-994.881
41.7348
419.094
386.181
194.028
247.82
318.921
963.074
867.344
679.088
-325.49
-353.599
-293.462
620.372
-326.909
572.85
530.444
565.393
514.736
-1080.13
-796.223
-699.292
752.079
398.665
-411.835
703.628
-1193.42
1609.58
422.743
-1093.82
-338.445
538.874
-1381.44
872.418
509.023
-713.644
-351.36
-780.988
357.753
423.236
446.986
718.288
-1165.27
1071.86
-580.804
-411.309
662.953
-251.644
255.294
326.028
-468.157
-431.757
899.914
-234.039
562.126
-955.446
393.32
-459.066
600.598
-1681.26
423.654
671.002
-1094.66
520.48
97.9628
113.408
-2212.79
538.574
-88.1928
1444.12
1777.09
-217.552
-1559.54
-438.441
1789.2
-1986.97
1194.47
792.501
401.594
346.183
-38.2049
872.434
-1283.25
718.778
-869.625
-822.538
797.175
301.036
66.6423
-367.679
232.327
187.085
-419.412
1554.67
-837.277
-1530.96
-325.43
494.112
-218.019
-276.092
394.807
365.989
253.503
361.372
-9.32153
1001.82
-992.5
376.638
284.633
-661.27
-734.062
1817.31
-1083.24
-342.188
736.995
-1218.95
-412.99
-915.193
483.435
576.894
-781.131
204.237
760.941
-380.352
-380.588
-429.749
-446.802
449.319
1082.06
1237.86
-669.698
800.715
-345.109
383.154
321.619
-242.262
-220.08
-207.855
611.262
407.567
-847.222
439.655
221.993
350.783
-572.777
-422.637
830.204
754.577
-1147.26
887.267
-58.9022
-488.477
276.913
776.377
-95.9269
1384
1890.5
-56.4507
343.062
-317.015
412.89
-1086.31
1076.98
630.14
375.79
385.151
78.8998
415.212
262.18
499.318
-372.224
-265.002
-564.838
-89.329
-361.001
363.683
-2.68199
-256.636
-288.816
1011.02
-1540.69
529.667
-190.385
-180.348
-386.054
670.687
-1636.05
1591.03
-963.161
263.559
-669.84
584.313
1224.42
-1808.73
607.396
983.632
312.03
-1121.54
700.491
-285.815
-298.026
1377.9
-1447.06
828.363
618.692
428.268
-632.419
204.151
-378.525
479.158
-100.633
379.122
112.749
1723.92
457.491
-250.545
557.624
-1704.79
1147.17
-94.5063
393.571
342.323
336.765
-448.394
-615.663
1064.06
415.281
-866.022
-641.082
902.873
570.422
-514.855
-251.724
-438.677
-408.544
-307.246
-827.262
1821.12
-1821.12
-103.847
-1591.41
1695.26
292.978
281.721
-917.24
-555.333
1472.57
-408.058
973.451
-597.813
-1039.67
689.327
393.017
-1082.34
474.129
-161.031
573.061
1220.35
-1793.41
-1040.24
2114.44
-1074.2
-375.197
-296.344
-488.115
819.266
-1752.77
1601.83
150.934
1752.77
-1606.47
-146.299
-245.511
522.788
-277.277
-537.277
1620.78
1565.61
-1978.6
1087.9
-291.314
-261.857
553.17
231.703
-570.148
-700.651
288.816
1341.68
636.617
581.114
482.636
-1063.75
275.28
421.349
875.431
500.077
-1375.51
534.737
-1018.01
1574.93
-563.914
-774.938
-361.493
-128.903
490.395
-489.938
1208.23
-741.6
333.324
367.113
372.231
248.356
-620.586
603.934
831.811
-603.339
262.908
680.242
-514.855
-327.471
-236.514
563.985
1168.54
-674.642
609.451
466.098
-1075.55
-1293.45
1293.45
-386.178
761.968
-281.936
-478.106
760.042
492.111
443.676
-935.788
390.992
-672.927
609.298
-868.76
259.462
-366.955
-493.124
1074.24
-661.119
-710.555
1371.67
-376.56
938.686
-1552.7
675.27
32.2935
-421.038
388.744
-514.612
719.748
256.33
321.343
168.959
305.17
-523.929
238.115
1869.58
-1965.51
263.306
-709.313
452.156
-821.938
369.781
-913.734
1415.19
-501.457
-429.531
-485.661
600.727
1124.19
-1724.92
-714.377
339.18
-461.059
1033.91
-783.355
1046.26
-379.374
-626.934
-493.237
734.409
540.246
-358.795
907.392
-308.551
-180.42
1599.02
-1816.57
-346.585
-608.861
-339.616
477.377
268.061
-596.883
-176.361
1064.37
-787.457
203.902
-292.551
-276.334
568.885
392.329
-881.615
489.287
-484.785
-455.339
-942.369
-355.019
584.609
-229.591
-451.544
-431.748
-340.435
-183.207
-395.973
644.329
-445.867
767.486
-1072.58
624.183
-1406.8
544.353
-28.1201
-1836.08
1864.2
569.891
-449.656
1221.04
-692.833
336.096
-336.096
671.271
-443.107
1039.9
-1637.71
-1158.73
-947.948
292.117
328.254
888.485
715.738
-499.961
-302.264
802.225
1658.1
-1686.22
-434.323
343.686
224.617
1134.72
-525.267
-943.332
1550.47
-607.142
442.345
-248.317
375.554
388.488
-764.042
534.582
470.196
-1004.78
-330.914
664.238
-37.9089
1907.49
1592.98
992.808
-1696.94
727.102
-1177.03
449.929
-492.443
1367.87
837.545
-1341.19
-565.462
274.149
801.164
-400.869
551.01
-1189.23
638.223
-636.663
-1215.54
-695.651
1911.19
-191.269
552.402
-361.133
-176.839
312.48
-503.749
330.247
368.234
-698.482
-1484.58
756.744
727.833
884.096
-1434.46
824.079
-431.5
213.747
-360.122
-597.864
270.393
-645.089
-736.352
698.535
506.224
-1204.76
387.797
-202.532
-185.265
555.903
-958.225
-571.661
-425.828
736.137
-831.293
-1155.68
-1437.96
499.636
938.32
7.57348
-642.741
345.241
297.5
-1315.86
1046.5
269.363
-616.56
-456.016
-665.733
921.704
398.281
-198.226
-200.056
508.2
980.648
-1488.85
978.258
-564.866
167.502
397.365
-405.577
677.187
-413.88
-506.04
166.424
234.297
-1518.97
528.472
543.389
-761.983
247.371
147.406
-455.957
365.966
-821.305
1954.16
-1195.39
-758.77
421.086
-681.448
260.361
325.923
330.694
113.591
-444.285
-571.642
193.996
263.496
-691.691
1374.33
-682.644
423.884
467.601
-1181.25
266.152
1866.78
-1013.59
-853.188
784.917
-537.745
182.727
1402.36
-975.193
-427.172
330.551
-773.659
-616.504
1725.44
610.483
627.379
323.004
-21.9672
265.878
-1138.43
1725.71
-587.284
-1763.52
820.19
1757.62
-1687.9
-69.7205
-660.745
262.702
570.452
-721.071
227.834
1402.6
-565.058
386.378
445.707
-1858.57
1420.13
558.82
-438.037
-120.783
201.873
-542.308
-285.112
-187.461
-352.549
694.872
-581.453
219.96
612.3
550.022
-1162.32
1113.62
-1947.45
833.83
155.663
340.659
-1699.11
1661.2
311.642
-735.703
-166.235
379.982
756.214
679.22
-1435.43
1077.74
-1080.43
525.168
-1105.97
-628.623
252.216
376.408
530.448
-287.982
-607.222
-1030.49
291.319
-723.068
-912.32
173.878
162.323
225.474
395.817
289.55
-685.367
-631.615
-834.018
-978.433
489.446
-1061.09
-299.7
483.485
534.364
648.326
-281.617
-124.577
-410.94
722.97
266.981
-1199.73
568.111
1309.6
-553.39
442.615
-1014.28
-390.53
157.674
401.146
1023.35
551.584
-1716.05
1612.2
1631.25
-567.614
-1063.64
1903.74
-1892.39
-11.3506
214.544
-531.559
-351.658
555.56
-768.066
-324.727
-336.019
1024.03
701.685
-1505.75
804.066
337.107
-26.1899
1625.21
-1088.13
413.485
-1240.99
466.056
-60.6538
1519.08
1197.36
-470.255
-489.773
-75.0933
-270.27
736.019
-1951.55
-709.607
354.626
-532.646
178.02
192.31
-510.017
1139.91
671.556
-1811.47
-618.62
180.583
941.998
-1497.33
-210.459
678.885
-468.426
873.505
1126.5
-739.267
1349.75
615.996
-488.964
-127.032
-345.117
1173.48
1042.48
-1979.74
937.255
-1173.26
542.883
1488.74
-585.865
-391.041
-148.589
-1242.12
572.422
1160.5
-110.666
946.081
775.584
-1721.66
-204.127
578.496
-1541.71
963.219
486.964
916.657
-1403.62
621.99
586.099
397.104
-1106.64
591.898
1108.24
1216.48
-452.41
-764.069
-1186.2
-1754.93
-6.84872
-1709.2
-202.946
-429.473
1607.87
-629.604
-978.266
-490.801
1121.59
-1318.32
635.65
682.669
-1362.09
1443.31
-1330.96
591.697
1520.49
-388.133
-577.864
186.823
-1481.35
228.521
176.369
233.863
382.133
438.053
401.628
-839.681
506.301
-939.029
900.704
-1444.78
-703.86
234.19
469.67
-1045.22
458.819
-477.568
863.946
695.404
23.5386
-530.222
169.089
-886.565
-1318.74
-714.53
349.499
365.03
402.324
-722.251
319.927
-478.781
-189.265
-709.89
720.489
1539.65
-593.569
816.742
737.929
1344.78
-844.707
-971.278
-570.437
-796.149
427.537
368.612
-1036.48
-641.438
303.788
337.65
-1433.69
-296.783
-790.008
397.898
392.109
-655.323
408.457
246.866
-681.486
267.605
412.38
487.534
389.403
440.801
479.029
384.232
596.688
-969.631
683.229
466.864
453.714
356.184
-809.898
1630.76
-1079.9
-550.861
-504.523
-286.487
-1029.38
454.206
347.295
409.446
594.116
-1003.56
-1381.26
751.657
-532.024
1146.48
357.666
-51.5673
411.815
-865.019
453.203
-1895.05
303.641
441.599
-726.171
284.572
-187.224
401.831
-214.607
-660.59
305.375
355.216
-673.204
319.606
370.291
391.677
612.787
-1020.84
752.928
662.174
-1415.1
438.631
625.426
339.99
392.739
-732.73
409.238
327.758
601.252
673.046
409.012
597.775
-1024.86
427.082
-1669.67
1191.89
477.778
1696.59
-539.17
620.589
-1147.03
526.445
-642.76
348.078
437.046
-934.846
497.8
757.185
-450.762
350.295
344.576
573.165
-919.75
651.464
-1252.78
601.311
379.229
734.724
-1224.66
769.506
509.513
-1279.02
488.004
405.108
-893.112
-501.648
-936.308
-299.262
629.509
352.345
541.935
-894.28
332.873
331.365
-502.179
1944.74
437.204
-847.107
409.902
-917.774
-807.301
-747.887
367.298
-1221.42
438.065
-1734.7
1606.47
128.23
1746.87
-1601.83
-145.038
-783.786
-591.517
265.441
326.076
-1757.62
1978.6
538.471
791.499
-1329.97
440.016
716.377
690.358
385.532
-1075.89
-72.9861
1617.13
-593.776
386.481
834.56
-649.75
326.826
322.924
-377.764
-297.519
552.813
-218.264
434.115
281.092
-666.128
385.036
264.402
-577.789
-282.309
442.369
-1033.33
590.963
538.039
1092.72
365.861
596.961
312.744
353.467
-666.211
1625.28
-923.599
1691.92
-1520.57
-171.352
-327.115
-822.73
414.186
857.538
-1068
-605.767
278.858
-1090.6
1628.64
-1585.94
-77.9053
1663.84
-340.326
-349.32
-369.417
537.391
597.327
-501.697
-28.1239
-550.013
504.861
-282.133
-222.728
1749.25
-1299.93
-624.164
299.013
325.151
400.501
357.214
734.708
-295.909
-398.387
-1746.87
1686.22
459.431
-1100.85
641.417
-43.0861
1655.29
571.334
476.314
-1047.65
104.807
1144.83
-1452.08
-14.1699
-1880.88
227.584
-598.35
306.715
291.635
-955.421
612.622
-897.913
468.382
-1128.48
673.491
454.99
373.399
268.256
-768.217
-309.385
1216.67
886.756
699.036
-1182.94
456.09
726.849
494.272
700.801
-1195.07
-358.768
-245.98
408.302
-960.412
438.299
522.113
21.2498
-1879.82
1079.78
-470.479
-500.056
558.138
-1378.14
820.003
-428.353
798.134
-404.857
498.531
-706.549
1725.78
408.686
-183.212
217.222
-169.047
-244.09
413.138
1895.32
-504.112
-1693.1
1051.42
-602.258
304.74
-1013.6
553.564
-311.637
544.267
905.296
-1449.56
-1103.76
438.031
-20.8222
-1944.69
1711.28
-668.802
-540.695
460.654
-1190.47
729.82
192.057
206.224
-282.637
770.209
700.068
837.947
818.391
-462.208
1084.86
-479.342
476.542
-193.193
-283.35
-1923.22
-714.268
-317.258
-644.617
-6.97276
651.59
464.915
-270.919
565.568
1059.72
-805.357
924.579
1244.24
-424.832
-190.702
-227.006
417.708
959.757
-888.544
-321.549
-1067.75
611.733
1557.86
-801.12
537.634
934.939
-394.214
735.232
-341.018
1130.37
-276.77
336.779
1349.64
-705.3
-218.631
448.232
-1198.62
750.392
-991.169
-113.731
1104.9
441.689
-955.417
513.727
175.703
732.982
483.497
738.424
-91.3751
852.617
-425.364
1182.52
-796.99
552.108
-1465.44
913.335
-1216.65
1800.97
-431.712
-1510.19
879.672
-1401.98
-315.064
-419.508
1457.18
-1523.95
784.514
1491.49
201.491
275.051
-358.633
-1734.7
-289.363
-1010.82
1576.39
-1767.89
1767.89
1565.61
-1004.47
-633.912
-342.367
368.279
605.172
-372.348
-366.222
-1389.83
897.39
1125.15
600.567
1202.75
1789.48
-1216.42
-613.627
271.722
1659
-1916.47
257.47
814.595
-1267.54
1545.24
-561.607
785.571
319.654
-347.15
554.793
794.988
672.085
1356.29
-230.669
-444.71
-368.275
497.722
-342.208
471.696
736.53
-302.825
-141.46
-334.412
568.748
-234.336
28.5455
-370.832
1107.45
-1720.27
-442.666
-490.754
-568.451
863.751
694.113
-1596.49
904.795
-451.41
-623.234
-513.919
1251.97
341.658
1723.69
-1702.44
-1658.1
1892.39
-1560.82
840.29
720.531
-380.071
-1796.3
917.687
583.154
819.449
-393.611
1794.29
-680.671
-416.743
680.716
433.234
-1113.95
-1100.13
444.046
753.311
-1617.18
473.176
901.159
176.046
-399.265
223.219
-1596.84
-385.125
-434.076
990.3
-674.009
1442.93
-980.022
1853.53
239.639
-539.103
495.227
-293.736
474.296
893.577
543.096
977.397
-462.612
-427.696
573.927
883.251
-1392.71
-40.9881
1574.07
-836.141
519.938
971.553
-1475.8
-1115.9
1771.73
-1241.97
-529.759
1206.09
-318.991
-887.102
-191.497
452.312
-260.815
-457.075
-248.55
428.517
-179.966
144.057
-390.037
1730.98
-1737.83
-462.017
-530.833
-903.624
442.042
-206.324
-235.718
635.668
-460.71
-359.308
-319.468
678.776
-928.555
387.292
-1167.29
676.488
415.684
-637.154
-437.092
1576.89
-861.15
530.178
-457.699
-570.922
-462.41
373.428
-363.651
-9.77747
-1105.85
413.014
-664.75
-1033.66
1698.41
-602.603
-1423.48
712.923
562.182
-1596.25
1034.07
-395.138
-475.226
153.697
534.961
-1258.33
744.415
539.215
1006.02
-2133.18
999.989
1133.19
-368.43
420.735
-395.833
-24.9023
1478.04
-373.315
449.291
1210.94
582.192
906.546
567.7
527.36
-1095.06
164.212
-444.384
-1687.9
252.276
1127.58
-616.526
518.473
1013.76
-1532.23
1092.86
-1643.72
189.197
698.07
549.667
-871.216
-1086.52
-173.522
429.759
-256.237
-587.142
-433.518
-636.823
-629.642
347.005
-1618.78
939.695
-476.665
213.129
-396.341
533.512
-305.928
-609.168
1197.14
-1278.32
923.933
354.389
-1019.98
-374.559
-758.542
-825.515
1689.27
-476.786
1793.53
-1582.67
-210.862
-1556.63
1018.73
537.9
-726.621
-263.806
445.872
-182.066
-594.224
383.028
273.406
-656.433
-523.862
991.095
629.215
-350.358
-1620.28
1050.52
571.761
1103.55
-1675.31
-418.386
-290.659
-369.932
-745.612
-476.026
-329.433
498.392
1557.98
-995.801
-775.177
1497.45
659.037
-315.352
725.88
1152.37
-1878.25
295.95
311.378
-487.064
-1932.33
1719.93
212.397
737.652
-474
-263.653
531.822
1060.84
-1592.66
373.428
-1723.37
-233.209
1752.35
-1580.7
1073.78
506.912
-1723.99
0.622622
-521.582
420.735
1699.11
-1719.93
939.658
624.56
-1564.22
385.22
-218.282
-166.938
-416.027
-265.458
69.538
95.1229
-358.928
-429.338
-439.422
-404.6
217.376
1510.24
378.83
-215.9
-439.423
461.827
-198.332
325.197
1510.77
995.788
-153.68
-842.108
-1104.1
1704.83
-1728.77
1064.02
-707.168
-1021.6
-1265.09
1844.99
-579.901
1155.07
-1771.15
616.077
272.349
-878.149
1675.71
43.4463
-1719.15
-491.153
-1083.07
-1730.98
-981.967
554.271
1019.62
590.219
1133.04
-1723.26
280.312
-449.528
703.13
-383.524
383.674
924.82
680.749
-381.911
-642.946
582.885
1072.56
-1655.45
-401.683
-367.471
769.155
433.439
-1661.2
1520.57
140.635
582.705
-1043.76
544.741
1083.9
-1555.68
994.068
-237.421
227.497
328.063
1903.74
436.02
-74.6254
995.863
722.751
-1718.61
-697.329
1085.35
-1557.52
164.587
-571.513
197.797
264.03
-660.075
-561.345
582.493
1034.63
-711.199
-278.873
-1368.38
675.48
692.904
-412.648
761.515
65.9946
-827.51
561.661
-137.156
1557.29
-212.543
273.251
-772.294
-1932.33
1664.62
1029.64
389.396
304.446
452.739
-930.006
-993.217
-1767.27
635.243
1693.77
507.716
-474.241
1210.77
1087.13
-424.792
1029.96
-977.893
492.048
485.845
700.247
1047.93
-1748.18
483.951
482.952
-1493.99
-746.331
32.6875
779.687
-412.389
-886.176
386.12
-538.874
-802.316
644.028
-577.29
1397.29
1055.14
195.575
234.184
-550.608
1618.52
-772.869
1525.8
-1727.83
575.248
1152.58
542.737
-882.63
-1732.77
1916.47
-183.696
1721.74
181.393
-544.008
373.939
-278.816
-481.345
1211.16
568.267
1128.32
-491.142
429.824
857.442
-460.762
-772.261
428.165
344.095
1418.87
1089.59
-518.174
1422.97
-510.54
-533.548
1044.09
-602.747
479.817
-1201.39
1691.92
1839.58
-687.211
1585.67
-646.007
-1241.22
717.358
-562.466
205.671
-396.74
454.568
-244.842
-519.926
-1246.71
1870.94
-624.232
1173.2
-552.606
1120.29
-1659.46
1695.56
-573.927
-545.724
-549.814
1720.07
-317.005
-688.027
-473.254
1223.65
-1684.68
-1860.1
613.394
303.407
-934.699
167.701
213.094
-1719.03
1204.15
514.871
1162.86
558.887
-511.773
-465.324
1192.17
178.858
222.973
588.444
1251.13
-539.176
-1238.58
1777.76
-1025.37
999.99
866.79
-204.114
-1659
1702.44
-510.055
1411.21
-1732.77
-354.908
15.2041
339.704
-260.303
584.212
-323.909
80.0488
487.319
780.601
-378.276
1257.53
1270.85
-413.312
851.718
-437.532
1817.45
-662.38
1586.54
-1723.69
-412.789
-750.38
307.424
442.955
-559.798
-563.291
79.7154
-1138.76
-985.458
-669.752
1655.21
-943.707
-1189.47
159.209
-421.066
-648.306
705.632
1167.45
650.003
1410.24
-590.791
1636.75
1317.98
-573.56
-490.233
196.497
-503.258
1396.84
1239.96
-564.481
-999.989
892.784
55.424
-948.208
603.436
-506.111
1403.5
1495.03
-588.484
-381.849
381.849
-589.418
1623.49
1239.47
-486.163
1134.16
-69.5246
1850.06
-389.077
1489.42
-588.717
-507.656
1347.95
-652.283
1218.43
-566.148
1554.78
-591.564
752.231
574.617
-1326.85
-654.894
280.894
498.157
600.207
-1957.3
-990.772
1586.54
382.576
-382.576
-66.447
387.6
436.478
390.477
-11.3554
-342.576
899.637
-520.408
-425.973
813.574
-242.958
619.366
-431.198
1547.06
-444.321
-884.113
186.136
223.882
-410.019
601.168
1250.78
-1851.94
926.773
-458.391
-363.651
126.152
-1943.01
1816.86
-448.727
179.556
1181.24
-440.408
-740.832
-301.073
-585.102
-492.844
-395.833
-478.717
255.989
1158.04
-560.709
229.121
-376.993
147.872
-22.405
-107.67
1376.09
-1268.42
34.4491
-599.287
-586.389
-460.618
460.618
-1262.36
1985.11
-1344.39
-212.871
-1823.51
240.842
-1025.75
-974.242
-185.063
-1637.85
707.847
1229.32
-1924.97
367.938
312.783
-680.721
-1850.01
1234.27
615.741
-564.796
564.796
-959.181
-39.8828
-1866.05
-558.138
1650.86
-677.142
1636.16
-601.528
-176.884
-1704
-583.284
-445.933
-594.794
-473.696
473.696
-1537.81
194.526
1343.28
173.619
224.199
-397.818
487.317
508.471
996.853
-474.74
1751.3
768.714
-427.733
402.83
520.912
1702.05
-594.593
-552.958
1636.86
469.519
1812.74
-645.293
-1803.98
-1938.07
-646.954
-484.958
484.958
-591.758
223.483
-692.361
1019.3
-465.735
-1072.77
-288.041
1579.58
1852.3
1635.34
-1635.34
-273.48
739.611
1761.49
595.786
1275.15
175.564
209.656
580.424
590.872
1603.53
-1603.53
221.875
-354.313
-435.156
459.605
951.001
-458.952
-639.667
-1131.01
1706.26
279.895
-1652.35
612.684
-287.019
468.413
1744.64
-592.059
-214.833
-418.177
379.761
728.478
1738.57
-613.421
-511.763
-773.393
1960.53
-870.453
-1090.08
1642.77
-705.898
1223.97
-1824.94
600.97
338.978
-878.081
-185.97
-110.095
1098.16
-486.427
133.19
619.503
-1650
435.593
612.608
-1803.98
-583.274
1787.43
884.185
-1162.92
1760.49
-597.564
1783.83
-575.525
-1208.31
437.095
925.802
-1737.83
924.757
-1493.99
265.072
1228.91
-831.021
-1254.23
-385.611
77.649
307.962
581.719
269.008
1028.09
-442.95
845.819
-402.869
820.93
738.987
-1559.92
643.861
1066.28
-24.5128
-663.885
688.398
-1744.3
722.701
701.382
150.525
-1122.69
1936.75
-674.548
-1262.21
-537.173
1665.5
830.951
964.493
-1795.44
1227.86
683.322
-404.319
709.693
828.599
1028.08
-586.391
1761.49
626.626
1773.56
-1185.62
-587.938
-380.317
-334.697
715.015
121.434
-1185.7
1660.55
-540.264
-1437.84
1437.84
1250.57
594.414
1351.56
206.424
-560.997
279.756
-188.348
699.074
1113.67
478.818
-299.96
-870.142
-574.641
1737.21
-1737.21
1011.68
-1011.68
987.331
1025.17
-2012.5
1837.94
-613.969
-581.106
826.742
-947.849
-1052.16
998.324
690.625
-1688.95
-521.938
-352.326
-642.555
-808.423
2042.69
-1246.42
-613.68
1002.97
974.851
1289.77
646.986
325.366
1012.68
226.99
337.651
1186.29
1756.87
-1756.87
671.983
80.1857
-391.39
-997.052
-539.988
1674.15
990.739
1009.26
-1833.28