/*--------------------------------*- C++ -*----------------------------------*\
  =========                 |
  \\      /  F ield         | OpenFOAM: The Open Source CFD Toolbox
   \\    /   O peration     | Website:  https://openfoam.org
    \\  /    A nd           | Version:  7
     \\/     M anipulation  |
\*---------------------------------------------------------------------------*/
FoamFile
{
    version     2.0;
    format      ascii;
    class       volScalarField;
    location    "3.5";
    object      p;
}
// * * * * * * * * * * * * * * * * * * * * * * * * * * * * * * * * * * * * * //

dimensions      [0 2 -2 0 0 0 0];

internalField   nonuniform List<scalar> 
7807
(
1.28607
0.136625
1.6022
1.12505
-0.0072563
-0.000318407
1.5813
-0.0453793
-0.00100568
0.526508
-0.000297807
0.0198923
-0.0677471
0.281748
0.544924
-0.0829897
1.3084
-0.0894543
0.0116433
-0.345228
0.391277
0.0130188
0.215395
0.911081
-0.116652
1.30605
-0.00663332
0.342857
0.79024
0.0242577
-0.12017
2.18071
0.212968
-0.0041203
-0.000884463
0.439722
0.0265696
1.54136
-0.0371223
-0.00286868
-0.0333409
-0.0811454
-0.288089
0.180341
-0.00171188
-0.000689063
0.0128574
-0.0373579
-0.00057278
-0.331931
0.0299282
0.326028
-0.147817
0.0086215
0.437476
-0.0402681
0.0129541
-0.0457201
-0.186967
-0.00432882
0.000340195
0.0382735
0.282253
0.0219252
-0.00835694
-0.116614
-0.000818131
3.77638e-05
0.727547
-0.0345308
-0.000635303
-0.295082
-0.112544
-0.195516
-0.0860976
-0.270759
1.58382
0.381846
0.451629
-0.351245
-0.0650256
1.42231
0.535142
-0.201489
-0.0123437
-0.0192776
-0.0485848
-0.1432
-0.00554829
-0.0378677
0.806069
0.225637
-0.00114291
0.0115696
-0.0301772
-0.198364
-0.282651
0.0246804
-0.0136236
-0.0100055
-0.342003
0.483337
-0.0287121
-0.000169718
0.273127
0.836079
1.91912
-0.042688
-6.721e-06
0.211618
1.07913
-0.140675
-1.3326e-05
0.224913
0.832947
0.00387447
-0.0886145
0.695019
-0.206686
-0.197896
-0.35604
1.3715
-0.265
0.0862484
-0.347389
-0.00821799
-0.10609
0.0188824
-0.00881022
-0.117758
0.12119
0.441355
-0.00516684
-0.00656694
-0.208803
1.04911
1.60866
-0.0001459
0.066173
-0.450832
-0.18525
-0.229144
-0.270922
-0.186508
1.93998
-0.0584226
0.796697
-0.176646
-0.258785
1.36813
0.421263
0.226575
-0.012528
0.672662
0.531718
1.46569
-0.305831
-0.0674176
1.85968
-0.000517759
0.00658658
0.937358
-0.000162697
-0.0168665
-0.0340958
1.11486
1.11922
1.91037
-0.0195447
-0.0260296
4.25384e-05
-0.371524
0.0038753
0.163755
0.0718279
-0.254318
0.329473
0.868302
-0.00113225
-0.0042503
1.14761
-0.000517059
-0.000957102
1.59387
0.12153
-0.138443
-0.193005
-0.18143
-0.0781144
-0.441478
-0.000177409
-0.271437
0.900045
-0.0289463
0.000633757
1.00103
-0.010757
-0.110239
-0.0813802
4.81397e-05
0.00800466
1.06422
0.990444
1.45964
-0.0672387
-0.112889
-0.151128
0.371532
1.0427
-0.0018396
0.000298704
1.84535
-0.0716712
-0.00538633
-0.258471
-0.110955
1.36807
1.38383
-0.24754
2.08517
-0.0099825
-0.088657
-0.351192
0.450498
-0.352833
1.18801
1.8586
0.000555619
0.0900486
0.730609
-0.0350697
0.68481
-0.00469451
2.02624
1.43667
-0.0484518
0.0261806
-0.00265724
0.93212
-0.000808542
-0.0507695
-0.416487
-0.000633545
-0.0116333
-0.00370581
0.831537
-0.000161912
-0.0393723
-0.338987
2.17411
0.406663
1.95951
-0.000390546
-0.0959833
-0.00163523
1.51242
0.0369964
1.61851
0.0149068
0.00681229
0.0950243
0.384984
0.00525234
-0.00200299
0.00467494
-0.0368815
-0.123176
-0.000364892
-0.295238
-0.0324359
-0.00124365
-0.00562699
1.56973
-0.0671248
-0.00682162
2.05549
-0.0129103
1.19509
-0.00182368
0.0195292
6.78267e-05
-0.188577
0.433201
0.369971
-0.186839
-0.00362957
-0.311795
-0.133155
-0.00158195
0.0045868
-0.0188875
-0.0645991
0.0267845
-0.0108205
-0.192351
-0.0975119
-0.19029
0.220764
-0.242128
1.4598
1.49628
-0.0133488
0.322134
-6.58699e-05
-0.0201492
-0.202234
0.891972
0.589313
0.000876774
-0.0183401
-0.235492
0.834175
-0.00888766
0.032616
0.0111435
0.53346
0.0709414
1.44796
-0.0143488
0.150987
-0.00101186
0.0388141
-0.000461526
-0.139853
-0.00307793
0.0543101
0.283013
-0.228662
0.030834
0.0808409
-0.00658202
0.194589
-0.054596
0.521512
0.831881
-0.174155
0.138371
-0.137841
0.0469972
-0.403838
1.95078
0.137292
0.269039
2.04808
-0.0137951
-0.0156
0.183238
-0.00962616
-0.0420786
0.0571103
-0.0247051
-0.0184
0.768497
-0.000593895
0.00507008
0.000719044
-0.0303122
-0.0598885
-7.78166e-05
-0.00990615
-0.178769
1.84291
0.0386809
-0.0707472
1.75775
1.23875
0.454405
0.358749
-0.377948
0.0455029
1.08443
-0.0958297
1.29156
-0.093899
-0.257274
0.988313
1.3066
-0.282239
0.562193
1.19212
1.22563
0.36503
-0.0272855
-0.0376732
-0.000782926
0.0546843
-0.0979787
0.00896808
-0.000955309
-0.0143102
-0.31951
0.637665
-0.14485
-0.0182713
-0.0338972
0.128744
-0.0618983
0.0177731
1.10623
-0.0168026
-0.000194013
-0.000482194
0.000445447
-0.174972
0.751022
-0.0356
0.243123
-0.352718
1.51578
0.0315472
0.0615654
-0.0457482
1.52832
-0.00957103
1.44513
0.81104
-0.0010449
-0.106464
-0.0294662
-0.215663
0.00523086
0.48055
0.0370435
0.0573729
-0.00768286
0.787657
0.838611
-0.161622
-0.176244
-0.0200027
-0.0966123
0.643346
2.15121
-0.00603799
0.0431873
-9.28905e-06
-0.113663
-0.0202069
0.178345
-0.314787
0.270513
1.59103
0.791312
-0.104288
1.04123
1.49667
0.234457
0.0109974
1.1433
-0.00796952
-0.00165006
-0.148334
0.000788759
-0.175378
0.00590174
-0.174187
0.0173649
1.00591
-0.0159072
-0.000212828
-0.290517
0.0155717
0.389571
-0.328137
-0.436188
0.500394
0.735107
0.61604
0.630974
-0.00184615
0.616837
0.554429
-0.0047644
-0.139653
0.00556328
0.063269
-0.00108188
0.0427571
-0.00700141
0.896698
-0.000176841
0.00181407
0.0176991
-0.180268
0.183731
-0.166869
-0.215184
-0.122614
-0.338463
0.104273
1.12024
0.325418
-0.0584157
2.04469
-0.274594
-0.0631434
-0.210893
-0.0443161
-0.169865
-0.0872062
0.250124
0.121032
-0.000228518
0.219306
-0.000860087
1.4441
0.759408
-0.0426164
-0.117927
-0.00169262
1.42404
1.37253
0.559579
0.991713
-0.284168
1.65019
-0.000553706
0.21776
-0.15105
0.881818
1.9083
0.599182
0.753394
-0.0124983
-0.0018356
0.917103
0.168139
1.48077
0.387426
1.00056
-0.0612287
1.53584
1.32276
-0.0777676
-0.0657764
0.828855
-0.448138
-0.000750823
-0.109101
-0.426298
-0.273584
0.0990145
0.0831627
-0.00112931
1.3879
-0.00647487
-0.000920757
-0.0754595
-0.00441394
-0.00200767
0.0337687
1.05429
-0.267468
1.80882
0.00056405
1.05288
-0.0692234
-0.000675057
0.000161945
0.784127
1.00771
-0.0353095
0.92045
0.000226169
0.963849
-0.18316
-0.0810864
1.55062
-0.249137
0.949265
-0.202264
0.964739
1.00805
-0.134569
-0.170473
-0.0488889
-0.0246246
-0.00179928
-0.0079987
1.23896
-0.000239635
0.922173
-0.230338
1.32907
0.882708
-0.437534
1.77261
-0.0139418
0.0650277
-0.0610571
-0.162643
-0.0556619
-0.0877285
0.30161
1.99674
0.000382408
-0.0164619
-0.151546
5.54783e-05
1.46662
0.0158717
5.39947e-05
0.00175341
0.00341532
-0.135357
0.173918
-0.01325
-0.000764419
-0.0588632
0.0271115
-0.365623
-0.40254
0.184635
-0.000193226
-0.277665
-0.106175
0.834919
1.30109
0.0107882
0.824924
0.00137915
-0.102072
0.479753
-0.0556158
1.12897
-0.104357
0.240333
0.496967
0.787585
0.0445267
-0.0834795
0.949496
-0.321328
1.53967
-0.0748874
1.24558
-0.0747349
-0.00994021
0.720713
0.0359021
0.493346
0.0166548
4.72124e-05
-0.378189
1.08214
0.0126977
0.803229
-0.0988972
-0.307168
0.122374
-0.172951
-0.0142494
-0.07015
-0.313214
-0.218271
-0.0786032
-0.00126675
1.60056
0.791215
0.243787
-0.00171817
1.30686
3.70211e-05
-0.00157817
0.810392
0.0278545
0.993341
0.338705
0.147388
0.0683621
-0.27276
0.472377
0.011329
-0.318918
-0.000158661
0.0345091
1.09123
-0.127973
-0.0237849
-0.0187246
-0.0167156
-0.00347127
2.01947
-0.0792596
-0.0047905
-5.24602e-05
0.670534
-0.221017
-0.00279246
-0.0234439
0.764785
0.538271
-0.280755
1.27715e-05
0.828459
-0.12323
0.963644
0.136622
0.165971
-0.23061
-0.000816422
0.48529
0.510753
0.552978
-0.195182
1.22683
0.0514982
0.942663
-0.0173068
-0.0812785
-0.00336922
-0.00341227
-0.000891584
0.797742
1.20536
-0.0126144
0.163962
-0.135782
-0.133709
-0.170393
-0.0159107
0.202499
1.97616
0.480742
-0.000457024
0.523376
-0.0296366
1.71845
-0.0984868
-0.0779873
0.0193154
-0.0896079
-0.0447702
-0.06272
-0.024111
0.0142133
0.273437
0.000939374
-0.0568323
0.326962
1.44182
-0.268928
1.00373
0.0175192
-0.0202484
-0.0655655
0.93679
-0.0590587
0.000938528
-0.119533
-0.0421391
0.212182
-0.207079
-0.177194
0.224952
-0.115863
-0.00404541
-0.281531
4.83885e-05
0.343205
-0.249731
0.913088
0.0322412
0.488162
-0.236084
1.37231
0.104599
-0.238124
-0.0522346
1.80956
-0.0600478
-0.10308
-0.31845
-0.0907878
-0.250728
-0.110666
0.909477
-0.0236166
1.06197
0.0740809
-0.00332536
-0.010256
0.467886
2.1817
0.010414
-0.0631744
0.79673
0.000193399
-0.162669
0.222786
0.172275
0.0750783
-0.0137614
-0.187629
-0.0235291
0.000251911
-0.235952
1.14107
0.0545572
-0.131055
0.0159889
0.797309
-0.00324508
-0.0106087
-0.00307724
-0.00655789
0.590563
0.0729683
0.0342528
-0.140598
0.00038601
-0.216144
0.226174
-0.245303
-0.0930877
0.124404
-0.00182089
-0.0980935
-0.331732
0.51615
1.33311
-0.0105164
-0.379571
-0.0401417
0.113707
0.845567
0.00376862
-0.00135302
0.86736
0.440813
0.131045
-0.0252908
-0.0178198
-0.299119
-0.00150153
0.0324626
-0.105325
1.18121
1.15474
-0.00271554
-0.234159
0.0611851
0.0542448
0.372124
-0.263729
-0.0283149
-5.05961e-06
0.31452
-0.191907
-0.294171
0.0655808
-0.30658
-0.0034358
-0.0254412
0.884722
-0.220386
-3.49684e-05
-0.0240471
-0.0055098
-0.00142757
-0.0387328
-0.000420159
0.0387694
-0.3522
-0.0214391
-0.000177302
0.000261448
0.592256
-0.173617
1.42942
1.20467
0.266189
-0.00493511
-0.045859
0.00188001
0.0613288
-0.211696
0.408884
-0.12724
1.20571
0.0829313
0.00236732
0.0637316
-0.178216
0.0164949
-0.0489022
-0.319451
0.0354915
0.136286
0.364264
0.0855457
-0.171736
-0.0401328
0.824882
-0.0593794
-3.23927e-06
-0.228562
-0.367355
-0.0685979
0.0426279
0.0064302
0.0881234
-0.323327
0.199876
-0.211423
0.776247
-0.0752873
0.0560878
0.121337
0.140612
-0.214447
0.0135819
-0.000863485
0.664175
0.888645
0.0485911
1.09149
-0.209689
0.266333
-0.168741
0.861732
0.497406
1.97439
3.66615e-05
0.548987
0.804367
0.0904913
-0.00971946
-0.110036
0.273994
0.000363877
-0.109625
-0.206046
-0.120621
-0.132597
0.00112476
0.11512
-0.00242173
-0.00585286
0.985656
0.0457438
0.699552
0.130715
0.877809
0.081014
-0.00257809
-0.0746021
0.0564675
1.38048
0.00827653
-0.222403
-0.00144935
-0.00360711
0.0553829
-0.0813966
-0.000203819
-0.064967
0.183919
-0.0127032
0.00025945
-0.000300031
0.680062
0.111359
0.0449422
-0.00727176
0.0567272
0.0957685
0.0573372
-0.00188901
1.42258
-0.0254981
0.925527
1.27758
-0.0013797
0.658495
0.604888
-0.00504346
-0.00173693
-0.00278753
0.22676
0.131157
-0.0305702
-0.0813199
-0.307063
0.759692
-0.171432
8.34417e-05
-0.115915
-0.10358
-0.214822
-0.0271644
0.0393601
0.0080503
0.167796
-0.00335882
-0.00150629
-0.102133
-0.0272358
-0.148581
-0.000101191
-0.0886708
0.201806
0.119432
0.0368338
-0.0521931
-0.0704615
-0.0550305
-0.032803
0.0896584
-0.056836
-0.000676537
-0.00258085
0.146402
-0.073169
-0.0311532
0.0545819
0.0253256
-0.373166
-0.0664578
0.695071
-0.0751248
-0.293909
-0.131186
-0.134931
-0.0932275
-0.023663
0.0145907
-0.0222106
-0.0825461
-0.0963287
0.879116
0.739178
0.327985
1.29813
-0.000462751
-0.0194705
-0.0980119
-0.0488223
0.608113
-0.121002
0.343915
-0.025497
0.965928
-0.0121764
-0.0101905
0.153315
-0.0646977
-0.00141872
-0.104622
-0.03695
-0.124636
-0.00013123
-0.0414784
0.0124541
-0.104353
0.24199
0.200282
0.112187
-0.0837712
-0.187263
0.540377
-0.00798233
-0.0123655
-0.0133114
1.74738
-0.000548256
0.430797
-0.126754
-0.121959
-0.15824
-0.215518
-0.171479
-0.203605
-0.107362
-0.0288779
-0.000619853
-0.0267612
-0.128537
0.485446
0.0105489
0.878811
-0.195883
-0.0790131
-0.0058597
-0.171492
-0.000654634
0.664862
-0.179618
-0.15587
-0.141735
-0.0227627
-0.186624
-0.010712
-0.243027
0.487287
-0.153983
-0.309509
-0.0092383
-0.161218
-0.109909
0.0918116
-0.020299
0.64032
-0.0151567
-0.113791
-0.00425703
0.708348
-0.232564
-0.157826
-0.0203427
-0.0586494
-0.0172729
0.91627
0.203495
1.05431
-0.0289082
-0.00515167
-0.00794973
-0.0145626
0.966119
-0.354293
-0.0425732
0.0021443
-0.0351924
-0.0115585
-0.00561936
-0.0516166
-0.0936505
0.300024
-0.0310868
0.0395392
1.68741
-0.366463
-0.173102
-0.340988
0.000219792
0.383956
-0.0222382
-0.160652
-0.0350595
-0.212732
0.0294774
-0.00336141
-0.0181655
0.0200806
0.849511
-0.0365991
-0.0111923
-0.0291326
-0.291032
-0.0520424
-0.133034
0.0283247
-0.0544825
-0.055904
-0.020575
0.86774
-0.275623
0.019798
-0.0263358
-0.165154
-0.0856627
-0.296889
-0.00879041
0.455765
0.138109
-0.0490394
-0.0108283
-0.0835362
1.7991
0.856858
-0.0699403
-0.00364099
-0.0149633
0.0652799
-0.0249201
0.125199
-0.0025915
-0.0686518
-0.0124199
-0.104242
0.227784
-0.00662595
-0.0580869
-0.0085223
1.23781
-0.0399556
-0.0722016
0.183186
-0.0121168
-0.179384
0.641268
1.62421
-0.0666143
-0.0704203
-0.0132783
-0.0029063
1.19975e-05
-2.62053e-05
-0.0627941
-0.00418216
0.690069
-0.00419034
-0.011387
0.0520419
-0.00162316
-0.264505
-0.24047
0.102069
0.218979
0.151171
0.569632
-0.0994354
0.446775
0.354274
0.460409
0.566533
-0.0798333
-0.00550098
-0.034266
-0.269951
-0.0219574
-0.0923803
0.494868
1.35632
-0.211232
-0.00302531
-0.000179196
-0.00923112
-1.6397e-06
0.0635458
-0.00347622
-0.0270719
-0.285174
0.00341672
0.016414
-0.00137697
0.41957
-0.094963
0.00603506
-0.00749225
1.24198
1.24714
-0.0621982
-0.186314
-0.167168
-0.146536
-0.0886152
-0.011717
-0.302265
-0.117381
-0.240806
0.170132
-0.000309112
0.877792
-0.0208753
-0.0599818
-0.1029
0.112518
-0.00333238
-0.0519263
-0.00857468
0.0911818
-0.00938946
0.858033
0.00220721
0.0609844
-0.00259487
0.0325107
0.0537677
-0.00470362
0.12346
0.00264233
0.423755
0.609825
0.0171274
-0.00904819
-0.000781609
-0.00359494
-0.00316234
-0.362331
0.576149
0.365012
-0.00168629
0.0631238
-0.00286952
0.944213
-0.352973
1.0939
-0.255238
-0.00282554
-0.00177775
-0.0453358
-0.0350295
-0.00392531
-0.000113743
0.150577
0.168566
-0.0014833
-0.0020811
-0.119881
-0.000138562
0.739035
-0.00585551
-0.311662
-0.115609
-0.0395837
-0.32647
-0.353912
0.676574
-0.031007
-0.122829
-0.00198616
-0.335118
-0.124665
0.310743
0.716362
1.35328
-0.0073531
-0.350932
0.0944248
1.2602
0.222128
-0.000744582
-0.0374337
-0.0253266
-0.030798
-0.284687
0.495136
0.00115373
0.148978
0.0197123
0.472154
-0.00326568
-0.000760749
0.00909669
1.17928
-0.322144
0.745021
-0.0076852
-0.0012661
-1.56074e-05
-0.20133
-0.247272
-0.00212142
0.593981
0.0676407
-0.0331093
1.4963
-0.00244246
-0.0228684
-0.341757
-0.040001
-0.0142165
0.614598
-0.177433
-0.00103796
0.0975045
-0.00108762
-0.000624651
0.680051
0.051596
-0.00283572
-0.306659
-0.147841
-0.0216595
-0.0486355
0.0145609
-0.136497
0.0101818
-0.021736
-0.37852
-0.224306
0.161114
-0.00568003
0.729109
0.88132
-0.152945
0.0631876
0.113313
-0.0266265
0.735695
0.58209
-0.168659
-0.00101331
0.063063
-0.328711
0.100766
-0.16136
-0.013068
0.29936
-0.163979
-0.000856016
-0.000452095
-0.0552715
-0.136201
-0.15561
0.0609601
0.267853
-0.257831
-0.000962276
-0.00856331
-0.00130382
-0.173672
-0.000148364
-0.0120274
-0.148174
-0.277868
0.737353
-0.0185198
0.0257565
-0.125336
-0.152378
-0.000800378
-0.275057
0.75022
0.70005
0.000147805
-0.000694297
0.711993
-0.0156091
-0.29572
-0.239089
0.0205871
0.00298392
-0.413965
0.0617457
0.72767
-0.337217
-0.0091814
-0.0439343
-0.288808
-0.00360319
-0.00151093
-0.00565734
0.155993
-0.30279
0.793112
-0.00131826
1.76284
0.278736
0.000736186
-0.00596756
0.00158222
0.00180832
-8.96183e-05
0.000866668
-0.314518
-0.00447859
0.00267896
-0.00124101
0.637272
-0.0352833
-0.00120818
-0.000270804
1.4339
-0.128205
0.102802
0.00702418
-0.00449559
0.362781
-0.000605629
-0.0643092
-0.0418737
0.0132616
-0.0371394
-0.00059762
-0.00129246
-0.179181
-0.21264
0.0438691
-0.0988706
-0.0740849
-0.000174002
0.124256
0.183118
0.513965
-0.0107084
-0.00097482
-0.328073
-0.0376371
-0.00309291
-0.291044
-0.000854432
0.267358
-0.000540252
-0.00794389
0.407519
-0.0126043
-0.345361
1.659
-0.010063
0.0017205
-0.297433
-0.243694
0.0578331
0.0288398
-0.000938863
-0.185523
-0.000519124
0.83986
2.0807
0.557444
0.0185159
0.0220988
-0.000116418
-0.162559
-0.000351052
-0.0349778
-0.0105366
0.00232405
-0.0207558
-0.0545283
-0.000764041
0.00532659
-0.0426609
-0.00194515
-0.0560215
-0.0985198
0.0137205
-0.00695961
1.88945
-0.00426353
0.0148567
0.00151577
0.0830236
-0.294543
0.0587095
-0.00110129
-0.000617946
0.0167382
-0.000677162
-0.000175325
-0.0654268
0.00428682
-0.000150194
-0.299459
-0.0132494
-0.33608
-0.010172
-0.000418177
-0.0192695
-0.0103704
-0.086809
-0.108866
0.0139866
0.00327189
-0.00287638
-0.0122816
-0.000485199
1.12375
0.00950688
-0.000123834
0.00362576
-0.0124688
-0.00220117
-0.378754
-0.324418
-0.000799521
-0.0429685
8.44574e-05
-0.0151264
-0.000451014
0.197852
-0.000868989
-0.00114714
-0.0203564
-0.000141973
0.0810788
-0.00141012
-0.00782167
0.110732
7.62293e-05
1.42978
-0.313766
-0.24473
-0.000154517
-0.000129717
0.0116037
-0.00734315
-0.285129
-0.00010534
-1.4465e-05
0.00455032
-1.78177e-05
0.00235097
0.00275523
-0.00281911
0.00485554
-0.311366
1.71234
-0.167167
1.33365
0.0547378
-0.0940172
-0.000116349
-0.00543596
-0.0740601
0.000903898
0.00176649
0.00107756
0.484049
-0.00806706
-0.00132734
1.70588
-0.00332983
0.00362444
0.00309581
-2.95094e-05
0.573458
-0.0133517
0.00696311
0.000783494
-0.00321417
-0.000419365
-0.00555473
-0.256718
-0.00256638
-0.00927596
-9.23813e-06
0.00144188
-0.00157942
0.826787
-0.00271641
-0.00166834
-0.414427
0.0229771
-0.000518057
-0.00824049
-0.000374048
0.768752
-0.429138
-0.00180306
-0.00238264
-0.0107237
-0.000944852
0.325763
0.594172
0.345817
0.00313816
-4.15604e-05
-7.06735e-06
0.369162
0.00158534
-0.362465
-0.101849
-0.0932798
0.414211
1.88296
0.0119207
0.923588
-0.0861212
-0.17185
0.77687
-0.0021877
-0.387975
-7.88481e-05
-0.0545477
-0.294349
0.000339691
-0.249866
-0.00584876
0.0213344
-0.0306245
-0.255941
-0.251469
-0.0174675
-0.342317
-0.26488
-0.00114915
-0.0728303
-0.000309063
-0.222915
-0.000171087
-0.00114213
0.172182
0.746789
-7.36253e-07
-0.267518
0.0218081
0.000464047
-0.118566
3.67534e-05
-0.0826553
-0.00157982
-0.230142
0.000805344
-0.000529001
-0.01224
-0.000277073
0.728663
-0.180247
0.53355
-0.000178526
0.00386772
-0.193602
5.2389e-06
-0.33748
-0.395205
-0.332871
1.78142
-0.0392835
-0.000108309
0.153141
-0.247406
-0.014629
-0.000144182
-0.000519414
-0.28231
0.00080442
0.00541777
-3.98182e-06
0.00100009
-0.167279
0.810668
-0.14719
0.533941
-0.0323909
-8.11415e-06
0.0419349
-0.258095
-0.000125998
-8.50278e-05
0.00198706
0.000396859
0.00248767
1.14604
0.2034
0.000346888
6.8276e-05
-0.399046
0.879717
0.808108
-0.000277259
-0.214537
-0.108036
-0.0576325
-0.287079
-0.0473884
-0.0176478
0.657012
-0.000246441
-0.156385
0.765149
-0.289238
-0.000100521
-0.370289
-0.0010664
1.29523
0.17358
-7.94359e-05
-0.000165893
0.848527
2.35987e-05
-0.00110699
-0.0703907
7.9629e-05
1.09254
0.0220548
-0.0442137
-0.394275
-0.0227631
-0.34158
0.820339
-0.0339864
0.0803816
0.00610236
-0.000117291
-0.00616895
-4.39881e-05
-9.49942e-05
0.190387
0.811441
0.692758
-0.00266329
1.02452
-0.0549195
4.79221e-05
-0.274024
-0.000104156
-0.16417
0.178706
-0.0805448
0.0273683
0.011148
-0.0561102
0.00154351
-0.0100818
0.125528
-0.0174574
-0.000283268
0.000181002
-0.000370188
0.179166
0.000336873
-0.118565
1.07273
-0.0359277
0.000310878
-0.0208341
-5.79775e-05
0.628039
-0.00215896
-0.000393926
-0.000513916
-8.02381e-05
0.914661
-0.000922187
1.05408
-0.356123
0.000703669
-0.290609
-0.00290398
0.72008
1.74872
-0.00850894
1.49443e-05
9.92756e-05
-0.00012802
0.723451
4.75048e-06
0.00635954
-0.143756
1.00266
4.16394e-05
9.37895e-05
1.7679e-05
0.000152221
-0.121956
1.14964e-05
1.24051
-0.0896803
-0.000742759
0.000182223
-0.0124255
-0.17387
8.57597e-06
-0.000338737
0.758752
0.000204166
-0.188613
-0.153618
0.000824849
5.93145e-06
-0.221297
8.00594e-06
0.77241
9.02082e-05
-0.00267034
7.21735e-05
-0.00105497
0.462159
1.93823e-05
-0.00983852
5.10096e-05
0.0881149
-0.0202934
-0.0383429
0.0069762
0.708194
-0.00160807
-0.000480134
-0.0531652
-0.0513911
-0.00146255
-0.000309552
-0.0053608
0.000246319
0.950229
-0.0584372
1.7637
-4.27399e-06
-0.0458132
-0.000927057
0.679602
0.000347383
-0.151837
0.000144178
-0.00949694
-0.19709
-0.00139081
-0.0934076
-0.291227
0.0316862
-5.09251e-05
-0.280658
-0.00200292
-0.0017596
-0.0331764
-0.0535706
0.00782031
-0.000289449
-0.00261369
-0.00530661
-0.00768315
8.05554e-05
-0.00726666
1.69787
0.000594035
-0.019485
-0.206239
-0.443276
-0.376112
-0.284524
-0.12786
-0.00310274
-0.0684406
0.000466981
-0.000486045
1.72156
-0.000562057
0.879147
-0.00270536
0.00247575
-0.00681545
-0.134738
-0.00250673
0.00519522
-9.02e-05
-0.00235726
-8.8825e-05
-0.000474676
-0.0888599
-0.000653107
-0.000157055
-0.000496198
0.000908084
-5.91766e-05
-0.246773
1.15047
-6.0622e-05
-0.00360032
0.00020299
0.000187198
-0.00501662
5.68885e-05
-0.00542906
0.00175709
-0.00219114
-0.384043
-0.00413691
-0.0108847
3.01653e-05
-0.00886219
0.00204914
-9.14903e-05
-5.94701e-05
8.3178e-05
-0.00475686
0.00336354
-0.258329
-0.150274
-0.38975
0.00387016
-0.010336
0.149667
-0.39326
-0.000565456
0.0988397
0.0422186
-0.00624198
-0.069973
-0.337546
1.61804
-0.00253953
-9.13552e-05
0.0053931
0.000299607
0.000108838
0.379701
0.022932
0.431381
-0.181939
1.56354
-0.0031238
1.26533e-05
0.000935826
-0.000108731
-0.0081398
0.752785
0.939952
-3.2025e-05
-0.00102026
-0.000101086
0.902997
0.139718
-0.0251147
7.3455e-05
0.000118521
0.0431904
-0.00415338
-0.415295
-0.097918
0.000147901
0.0210246
-0.172822
-0.000357812
0.0108858
-0.00039557
-0.271045
-0.0105627
0.711161
0.000103024
0.00999851
0.00099661
9.19601e-05
0.00106166
-0.134481
9.09826e-05
-0.00544313
0.000137901
-0.114638
-0.271172
-0.0166234
-0.034189
-0.0509734
0.0536033
-0.051378
-0.0147891
0.00040757
0.000652543
0.000125067
0.000109322
-0.000334321
0.0548139
-0.312471
0.00303639
-0.195866
-0.0183374
-0.248279
0.000529803
-1.27372e-05
0.00784482
0.127282
0.000111591
-0.20345
-0.0832627
0.498495
-0.185324
0.000161313
-0.0202971
0.00119285
-0.0387847
0.622298
7.09944e-05
-0.34145
-0.124238
-0.0249567
0.000231151
-5.21987e-05
0.196157
-0.0971991
0.000146333
-0.0399221
-2.31188e-05
0.0013229
0.596427
-5.12518e-05
2.23696e-05
-0.000504687
0.000210221
0.00540521
0.000538224
-0.0304309
0.0014372
-0.0733651
0.00665017
-0.00124769
-0.167125
-0.247162
-0.036875
-9.15804e-05
0.000131423
-0.285331
0.0343794
-0.277677
0.000177024
-0.0303742
-0.000219086
0.000149468
0.423344
-0.0410239
-0.0164888
-3.76069e-06
-0.10065
0.000302558
-0.391486
0.000164472
-0.444079
0.000118105
-3.6985e-05
0.000516963
0.00612007
-0.0819713
-0.105808
-0.395393
9.87495e-05
0.000588421
-0.455917
-0.110927
-0.0495197
-2.88791e-05
-0.00402688
-0.275448
-0.465247
2.35734e-05
-4.62031e-05
3.16268e-05
-0.145589
-0.376047
0.00433689
-0.0641554
-0.00033
1.11187
0.000570721
9.00181e-05
0.000930386
-4.66896e-05
-5.02678e-05
-0.0212889
0.00070164
-0.0150206
-0.356373
-0.0758514
-0.349621
0.000245259
-0.00030349
0.325876
-0.160078
-0.0275648
0.546644
3.46935e-05
-7.91616e-05
-7.28706e-05
0.722501
0.00106915
6.4878e-06
-2.51284e-05
-0.300115
-0.0897169
3.94295e-05
0.000499688
-0.0537542
-0.0373187
0.00258774
0.951924
-0.313965
0.00140743
2.09506
-0.000101313
-0.00405357
-0.0453252
-0.476145
4.05326e-05
-9.20285e-06
0.000131526
0.0288771
-0.162663
-0.00199109
-0.282533
-0.04521
0.000168593
-2.86438e-05
-0.0590629
0.0281167
0.128951
-0.00592497
-0.268005
-0.225741
0.230696
-0.149676
-0.000372595
0.00216894
0.13397
0.00327032
-0.000453987
0.00460122
0.000190844
-0.000526479
-0.0698467
-7.22637e-05
-0.000164613
0.246083
0.0521654
-0.000946687
-0.000222256
-3.17637e-05
1.02048
-0.0384339
0.00474136
-0.157159
0.0014062
0.00121884
0.00105181
-0.000285911
0.00296116
-0.21536
0.115535
-5.56353e-05
-0.000955739
-0.230268
-0.166724
0.257429
-0.00290415
0.0108512
0.102977
1.30524e-05
0.000370551
-0.231351
0.000134796
0.737954
5.79394e-05
0.0247602
0.00102374
0.00136877
-0.420301
-0.0425435
-0.103092
-0.0141891
0.000160572
0.0418643
0.317455
-0.0708006
-0.000792101
0.46452
0.721518
2.17693e-05
-0.303328
-0.000391362
-5.86366e-05
-0.000263901
-0.00334469
0.113018
-2.59094e-05
0.00151502
-0.141563
-0.148975
-0.128026
1.21702
0.00011296
-0.000407508
0.753512
0.00348253
-0.022128
-0.00385476
0.742565
0.000273227
-0.00182566
0.000286022
0.000171159
0.000190305
0.000218623
0.000444084
-0.103765
5.27389e-05
-0.0192023
-0.262328
1.04657
-0.000819405
-0.000293116
0.0278501
0.421694
-0.220531
-0.00443757
-0.418517
1.21734
0.000260331
1.5015
-2.68825e-05
0.0199269
0.138764
0.00266225
1.58402
-7.31902e-05
-3.66389e-05
0.00695716
0.000187006
-0.00509017
0.00159542
7.12769e-05
-0.0115529
7.26092e-05
-0.000857815
-0.0193825
1.00454
0.298718
0.125445
-0.25924
-3.13187e-05
-0.000103194
0.0205032
-0.272914
-5.66521e-05
-0.275745
-0.000315498
0.503908
0.320995
-0.184593
-0.00795256
-0.0645656
-0.00583017
-0.0860116
0.0288751
-0.0405584
0.342845
1.30165e-05
1.16179
0.343765
-0.00336539
0.92316
-0.0776603
-7.43764e-05
0.000146754
0.000402599
-0.00124725
-0.000711449
1.00822
-0.00578871
1.03096
-0.00600302
0.736732
0.96856
0.708361
-0.0409255
-2.86309e-05
0.00040029
-0.0617323
-0.284905
-0.272401
0.00884652
0.000126628
-0.225237
-0.00179525
5.86767e-05
0.00603403
-0.00633593
-0.0035916
0.185201
0.000452458
-0.289733
0.324635
0.000349583
0.00164739
-0.0770339
-0.307629
-0.00432967
-0.00307095
8.17826e-05
0.00152813
0.648204
-0.0950179
-0.267255
0.00776778
0.628882
-0.2243
0.00021805
0.000139463
0.238772
-0.000513627
0.557556
0.0208818
-0.0790877
-0.00225564
0.00970031
-0.203405
-0.000187475
0.00301183
0.0578065
-0.442746
0.792676
-0.375676
-0.155504
-0.000961282
-0.000269841
0.0391374
0.000283424
-0.453078
-0.379674
0.00344133
0.0207698
0.0221886
-0.311619
0.00390723
0.00117558
0.000235884
-0.236272
0.000174478
0.00341137
0.575333
0.790665
-0.302012
0.260601
0.263996
0.215252
-0.00092095
0.0784697
0.000745069
5.32351e-05
-0.000414477
-4.44104e-06
0.000167671
-0.00211499
-0.0446398
-0.122989
-0.0570698
-0.155213
0.289723
0.240686
0.0241669
-0.361253
0.000992027
0.0285165
0.0671576
-0.00229681
0.410528
-0.00671453
-0.0626626
0.0737918
0.032152
0.00689528
-0.0236455
0.254576
0.0049401
-0.115277
-0.0951718
1.81812
-0.140143
0.432612
0.270432
-0.196532
0.0129195
0.000637255
-0.0153513
0.000354432
-0.0155985
-0.145364
-0.000408572
-0.000251909
1.20801
-0.0193288
-0.24676
-0.110638
0.00123008
-0.00746783
-0.000134494
4.89931e-05
0.234104
0.000244368
-0.0173786
0.419474
0.0380552
0.00665554
0.109949
-0.0337891
0.0249822
-0.222117
0.00521308
-0.0260821
-0.329282
-0.0050288
-0.0474809
0.00455994
0.00941668
0.00589183
0.231791
-0.00182869
0.0335746
-0.326197
-0.119214
0.00190302
-0.32663
-0.0878274
-0.101485
0.000649375
0.0389428
-0.348099
-0.00497527
-0.0281744
-0.304513
0.00498683
-0.00694165
0.965047
-0.10986
-0.000248101
0.0481813
-0.277093
-0.00623088
0.846312
-0.0116794
0.00605511
0.305943
-0.00848559
0.0496876
0.595949
0.000417666
0.00694648
0.00108729
0.000234962
-0.0261924
-0.0386732
-0.000744097
-0.141859
0.509505
-0.223748
-0.360108
0.00692583
-0.0192264
-0.00345862
-0.120433
0.000172546
0.111461
0.000288396
-0.0932099
-0.0115624
-0.0289673
0.382843
0.612519
-0.3764
-0.000310175
0.924852
-0.0110531
-0.0129982
-0.35942
-0.385047
-0.0904151
-0.000176652
-0.00621585
0.0426843
-0.0181581
-0.0278265
0.00264015
0.449503
-0.22864
-0.0652995
-0.0391938
0.175693
-0.00795519
-0.000930025
0.010037
-6.72432e-05
-0.0182313
0.59445
0.00475883
-0.246016
-0.00032534
-0.0431957
-0.018577
-0.398342
-0.0669606
-0.418317
-0.000376154
-0.000363562
-0.0152108
0.0632448
0.0112722
-0.414838
0.483641
-0.280688
0.00114786
-0.410361
8.62115e-05
-0.392285
-0.14879
-0.280807
-0.223996
-0.14877
0.0340463
0.335575
0.44136
0.538255
0.635578
0.729464
0.989682
1.06968
1.14702
1.2766
-0.0473391
-0.042443
0.403247
-0.0806155
0.00539488
0.124285
-0.236603
0.00325473
-0.00363576
-1.79866e-05
-0.0816544
0.102605
0.000269463
-0.00175734
-0.0615371
-0.00290195
-0.334202
-0.0564712
-0.329144
-6.05125e-06
0.00345875
-0.0003114
-0.221824
-0.0503105
-0.208248
-0.0446606
0.0102581
0.00138625
0.0278027
-0.000193355
0.00420363
-7.51914e-05
0.0022633
-0.0239011
-0.0670501
-0.00126213
0.00198218
0.259123
-0.0594725
0.389434
-0.368849
-0.0333813
0.906236
-0.109588
0.0221645
-0.124601
-0.0189764
-0.0728066
-0.068391
1.30783
-0.00698434
0.000426134
-0.0336659
-0.0505291
1.89329e-05
0.40789
-0.0226709
1.24435
0.227949
-0.270937
-0.156202
0.297337
-0.0254992
-0.000288132
-4.53655e-05
-0.0243956
-0.284541
0.000348764
1.39693
-0.0161416
-0.0283139
-0.000429254
-0.00223404
-0.0333423
0.819342
0.0843198
0.578548
0.00388888
-0.0830953
-3.83667e-05
0.153076
-0.0421682
0.111049
-0.0113469
-0.0317145
-0.00376236
0.00781395
0.0698164
-7.23385e-05
-0.0521068
0.00342013
-0.00230366
0.00279757
-0.0211849
0.0014199
0.671623
-0.0615931
0.0228119
-0.106375
0.350092
-0.159297
-0.0630667
0.266994
-0.10685
0.791913
0.100244
-0.019867
-0.294116
-0.00383289
-0.000280706
0.00265112
0.000546759
-0.0121207
0.0260088
0.000529653
-0.0749087
0.124336
-0.018003
0.000263256
-0.0192617
-0.247514
0.686207
-0.18669
-0.269376
0.047674
0.448198
-0.00729953
0.462826
-0.0681472
0.0308256
0.202289
-0.335343
0.53128
-0.000309093
-0.167973
0.00682078
-0.00873474
-5.37267e-05
-0.0349333
0.556347
0.00539694
0.990558
-0.120613
0.193772
-0.0917295
0.000949839
-0.00780499
0.348001
-0.156052
1.00646
0.223236
0.138351
0.765705
-0.242325
-0.0247892
-0.369834
0.00444811
-0.197321
0.708864
-0.0166674
1.34894
-0.00767807
0.453138
0.000600329
0.491569
0.668056
0.0240797
-0.114682
-0.0021629
-3.45454e-05
0.0308624
0.0126432
-0.227093
-0.207003
-0.0328057
-0.235803
0.731645
0.298132
-0.188597
-0.0879644
0.000138919
0.0247106
1.15064
0.0270093
0.739788
-0.341037
0.0311798
0.000515849
0.0023451
-0.117302
-0.00657604
-0.0148696
-0.180938
-0.00358868
0.0205471
-0.168952
-0.226768
1.06346
-1.89423e-05
-0.102065
0.00111893
-0.146927
-0.00205931
-0.321107
0.588791
-0.19048
-0.133276
-0.00810207
-0.0870041
-0.0037738
-0.0299805
0.413012
-0.152278
-0.000107435
-0.0386858
-0.0212602
-0.00210557
-0.0132885
0.070889
-0.0612957
-0.195725
-0.000228028
0.691407
-0.143378
0.0404818
-0.00214884
-0.0453231
-0.00213376
0.0321955
0.00172876
-0.136375
-0.000567445
-0.216578
0.0165509
9.12761e-05