/*--------------------------------*- C++ -*----------------------------------*\
  =========                 |
  \\      /  F ield         | OpenFOAM: The Open Source CFD Toolbox
   \\    /   O peration     | Website:  https://openfoam.org
    \\  /    A nd           | Version:  7
     \\/     M anipulation  |
\*---------------------------------------------------------------------------*/
FoamFile
{
    version     2.0;
    format      ascii;
    class       volVectorField;
    location    "3.5";
    object      U;
}
// * * * * * * * * * * * * * * * * * * * * * * * * * * * * * * * * * * * * * //

dimensions      [0 1 -1 0 0 0 0];

internalField   nonuniform List<vector> 
7807
(
(1.04252 0.0875871 2.69068e-20)
(1.03544 -0.0274803 1.18324e-20)
(0.993769 0.0651431 -4.87569e-20)
(1.0215 0.0437887 7.24911e-20)
(0.999393 -0.000630091 -1.56852e-22)
(0.999974 -8.9417e-06 -1.77129e-23)
(0.990431 0.0548473 -9.44129e-20)
(0.996641 -0.00124725 -3.43063e-23)
(0.999909 -0.000124898 -2.92038e-23)
(1.01626 -0.00130088 -3.57773e-21)
(0.999976 -1.00671e-05 1.95182e-23)
(1.00148 -0.000939996 -6.29652e-22)
(0.994755 -0.00174332 1.63177e-21)
(1.01079 -0.00128319 -2.39574e-20)
(1.01527 3.63824e-05 1.51055e-20)
(0.994094 -0.00980533 -3.11238e-21)
(1.04319 0.092675 -5.66857e-20)
(0.992978 -0.00219023 -5.73685e-22)
(1.00167 -0.00596445 -2.43305e-22)
(0.989364 -0.0648673 -2.34674e-21)
(1.0221 -0.00117888 -8.3694e-21)
(1.00096 -0.000405504 1.18182e-21)
(1.01148 -0.00254511 2.11576e-21)
(1.00753 0.0189051 -3.73067e-20)
(0.99063 -0.00272755 -2.6346e-21)
(1.03966 0.0860753 -2.66036e-20)
(0.99938 -0.000595318 -1.12972e-22)
(1.01591 -0.000240654 9.39389e-21)
(1.00426 0.0100384 -4.88278e-21)
(1.0021 -0.00658375 2.02918e-22)
(0.9919 -0.0106421 -5.84213e-21)
(0.924372 0.0218058 1.3161e-20)
(1.01026 -0.00277744 1.30366e-20)
(0.99969 -0.000264082 1.97742e-22)
(0.999931 -8.39977e-07 3.88509e-25)
(1.01452 0.000495086 5.31163e-21)
(1.00309 -0.00711233 2.33441e-22)
(0.992174 0.0520764 -1.51856e-20)
(0.998121 -0.00541969 2.59551e-21)
(0.999775 -3.30762e-05 1.88304e-22)
(0.998064 -0.00546868 -3.02718e-22)
(0.994417 -0.00881697 -1.18909e-21)
(1.00692 -0.0711281 8.89328e-21)
(1.10133 -0.0315866 -1.8388e-21)
(0.999866 -3.02019e-06 6.10715e-23)
(0.999948 -1.31478e-05 -1.74368e-23)
(1.00081 -0.000368679 -7.22474e-22)
(0.9973 -0.00444667 -1.53173e-21)
(0.999957 -2.09125e-05 -1.41531e-23)
(0.992202 -0.0652513 3.3617e-21)
(1.00212 -0.000821504 6.82329e-22)
(1.01586 0.000595504 -9.77082e-21)
(0.987777 -0.00326761 -8.8854e-21)
(1.00788 -0.0208174 5.91743e-22)
(1.01348 -0.00118603 -3.2276e-21)
(0.996997 -0.00176488 -2.98727e-22)
(1.00103 -0.00607056 5.05085e-22)
(0.996707 -0.00103249 2.22719e-21)
(0.985092 -0.0128487 -1.04825e-20)
(0.999697 -0.000237345 -2.53878e-22)
(1.00003 -1.62102e-05 -2.60769e-23)
(1.00281 -0.000634456 7.64461e-22)
(1.01176 -0.000907869 -5.60701e-21)
(1.00157 -0.000848668 6.37187e-22)
(0.999402 -0.000153134 3.62623e-22)
(0.992017 -0.0111796 1.06402e-21)
(0.999941 -0.00013127 2.25703e-23)
(1.00001 -1.48515e-06 1.80113e-24)
(1.1001 0.0517651 1.65341e-20)
(0.997246 -0.00439598 -4.41996e-22)
(0.999953 -1.39424e-05 1.54893e-23)
(0.980836 -0.0389519 -1.82756e-20)
(0.990968 -0.0029712 1.27908e-21)
(0.983063 -0.00373344 1.76691e-21)
(0.993209 -0.00239474 1.79552e-21)
(0.976883 -0.018697 -2.31867e-21)
(0.995901 0.0663914 7.82442e-20)
(1.02067 -0.00135598 1.06012e-20)
(1.05631 0.000596609 -2.40834e-20)
(0.969922 -0.0321006 -2.42115e-20)
(0.994964 -0.00189011 -2.50561e-21)
(0.998654 0.0310439 9.43462e-20)
(1.02381 0.00466339 2.43973e-20)
(0.982473 -0.00691164 8.08791e-21)
(0.999135 -0.00167705 -2.53183e-22)
(0.998498 -0.000206286 2.64217e-22)
(0.996434 -0.0016399 3.07438e-21)
(0.988212 -0.00363557 5.71768e-21)
(0.999563 -0.000785986 1.69473e-22)
(0.997126 -0.000484046 9.50033e-22)
(1.00427 0.0114733 3.58807e-20)
(1.12422 -0.0200262 3.47037e-21)
(0.999917 -3.84247e-05 -3.70118e-23)
(1.00126 -0.00509564 1.99617e-22)
(0.997711 -0.00069156 8.61573e-22)
(0.982467 -0.0023256 -1.40964e-20)
(0.982589 -0.0385188 1.2472e-21)
(1.00863 -0.0197892 -1.17048e-22)
(0.999167 -0.00165299 8.44776e-23)
(0.999302 -0.000101091 1.21272e-22)
(0.966481 -0.0114949 6.21567e-21)
(1.0575 0.00460118 1.92694e-20)
(0.997876 -0.000809906 -2.1489e-21)
(0.999982 -1.7841e-07 -1.50051e-24)
(1.12732 -0.0114389 2.3119e-21)
(1.01928 0.018014 -3.46304e-20)
(0.957709 0.0166047 1.53585e-20)
(0.996756 -0.00167648 -1.23782e-21)
(0.999994 -1.32993e-06 3.73814e-25)
(1.01651 -0.00788313 -4.75651e-21)
(1.02566 0.0415367 -8.41942e-20)
(1.01824 -0.0531782 -8.37055e-21)
(0.999993 -1.28388e-06 -5.53006e-25)
(1.01828 -0.00774655 -1.04205e-21)
(1.01655 0.0179215 3.63805e-20)
(1.00025 -0.000359813 -5.66638e-23)
(1.04731 -0.0616026 1.18417e-22)
(1.01979 0.0103754 -8.48916e-21)
(0.98889 -0.030456 7.68166e-21)
(0.982728 -0.00454478 -1.83186e-21)
(0.964182 -0.00759532 -1.50632e-20)
(1.00044 0.027532 -6.13756e-20)
(1.01099 -0.06968 -1.22647e-20)
(1.00576 -0.00481925 4.07777e-22)
(0.965463 -0.00867282 5.94044e-21)
(0.9994 -0.000876886 3.77886e-22)
(0.991806 -0.00786991 1.91046e-21)
(1.00203 -0.00591378 -3.49584e-22)
(0.999357 -0.000134353 -8.08312e-22)
(0.991193 -0.00957012 9.26289e-23)
(1.15256 -0.0342016 5.28148e-22)
(1.05193 -0.000855612 4.04171e-21)
(0.99962 -0.000333573 2.14466e-23)
(0.999504 -0.000809426 -3.28976e-22)
(0.981636 -0.00634881 2.40645e-21)
(1.02401 0.0337314 3.14349e-20)
(0.994551 0.02149 1.05856e-19)
(0.999984 -2.6049e-06 -1.74841e-24)
(1.00539 -0.00184243 3.19678e-22)
(0.950877 -0.00907392 -1.90702e-20)
(0.983973 -0.00259431 -7.22012e-21)
(0.992602 -0.0422619 -1.0663e-20)
(0.97722 -0.0201304 3.14044e-21)
(0.983908 -0.00336911 -1.59101e-22)
(0.95513 0.0135376 5.91304e-20)
(1.00861 -0.0309359 -3.14909e-22)
(1.00857 0.0109075 -1.84023e-20)
(0.986587 -0.0156933 -5.32671e-21)
(0.976049 -0.00393575 2.01514e-21)
(0.999643 0.0291696 -3.06255e-20)
(1.01554 0.00231707 1.35244e-20)
(1.11461 -0.021523 2.54065e-21)
(0.998946 -0.00130126 -8.79629e-22)
(1.10478 0.0450345 3.42904e-21)
(1.0234 0.00383972 -2.5247e-20)
(1.00131 0.054841 -7.82382e-20)
(0.973028 -0.0219181 9.68516e-21)
(0.994767 -0.00118445 5.50033e-22)
(0.964513 0.0408139 1.35568e-19)
(0.999959 -1.56322e-05 -1.3297e-23)
(1.00086 -0.00520203 -1.6157e-22)
(1.00835 0.0213867 2.66738e-20)
(0.999986 -1.28752e-05 8.60924e-24)
(0.998888 -0.00345194 -1.19975e-21)
(0.99748 -0.000686191 -4.12397e-22)
(1.00308 0.0231858 -8.61043e-21)
(1.00199 0.0247836 3.16591e-20)
(0.958604 0.0465555 4.49017e-20)
(0.998907 -0.00339483 -7.64297e-22)
(0.997939 -0.000220604 -4.61085e-22)
(1.00001 -3.65627e-07 -1.66951e-24)
(0.961943 -0.00487921 -2.60649e-20)
(1.00022 -0.00032383 7.79128e-23)
(1.03812 -0.0251213 -1.38094e-20)
(1.00555 -0.00209952 2.13993e-21)
(0.976529 -0.00461055 4.17001e-21)
(1.1201 -0.00331249 6.67377e-21)
(1.067 0.0496928 1.32928e-21)
(0.999914 -3.97177e-05 2.02689e-23)
(0.999647 -0.000427569 -2.23941e-22)
(1.02027 0.0453834 -1.27365e-20)
(0.99996 -1.3935e-05 -6.45999e-24)
(0.999927 -7.06371e-06 9.67204e-24)
(0.990466 0.0571736 -7.84298e-20)
(1.03577 -0.0295064 4.77997e-21)
(1.00915 -0.0441512 -5.31289e-21)
(0.990297 -0.0295779 -1.08859e-20)
(0.984383 -0.00500618 5.26404e-21)
(1.0066 -0.0322317 4.94444e-22)
(0.952093 -0.0075752 1.00007e-20)
(0.999986 -1.2416e-05 -3.06114e-24)
(0.982832 -0.0360732 -4.33853e-21)
(1.0697 0.0555279 -2.97106e-20)
(0.997841 -0.000966857 3.08735e-22)
(1.00005 -2.80726e-06 -1.96592e-23)
(1.04764 0.0514334 2.81267e-21)
(0.999209 -0.000244978 8.56196e-22)
(0.991637 -0.00951344 3.05692e-21)
(1.00515 -0.0306873 1.71406e-21)
(1.00001 -2.0998e-06 -7.40452e-25)
(1.00049 -0.00135949 -3.17169e-22)
(1.02147 0.0340266 3.82092e-20)
(1.05693 0.0581923 -3.65849e-20)
(0.998114 0.0478154 -1.04659e-20)
(1.04451 -0.0576932 1.70211e-21)
(1.02005 -0.0506024 2.06915e-21)
(1.07923 -0.0851023 -4.85079e-22)
(1.01497 -0.00304907 2.77359e-20)
(1.01911 0.0350273 -1.24772e-20)
(0.999859 -1.26711e-05 -7.16751e-23)
(1.00003 -1.2598e-05 6.89492e-24)
(0.968914 0.00661283 -5.94537e-20)
(0.995349 -0.00865369 -1.11023e-21)
(0.999613 -0.000306904 -2.13591e-22)
(0.984409 -0.0353985 8.94532e-21)
(0.99136 -0.00829632 -2.21768e-21)
(1.00774 0.0498585 -8.91973e-20)
(1.00452 0.0486204 -1.8892e-20)
(0.990358 -0.043516 2.99424e-21)
(0.937356 0.0313215 -5.01535e-20)
(0.999272 -0.000295433 -6.28523e-22)
(0.993043 -0.00173763 2.04084e-21)
(0.965141 -0.0104908 8.2111e-21)
(1.02217 0.00186602 -5.88908e-21)
(1.01003 -0.0883038 -1.25565e-21)
(1.05756 0.0884956 -5.96736e-20)
(0.964746 0.0360097 -1.16153e-19)
(1.00004 -7.24296e-05 2.1941e-23)
(1.00575 -0.00490938 1.05534e-21)
(1.01816 0.0125818 4.57215e-20)
(0.997507 -0.00390988 -1.98967e-21)
(1.02121 0.0111443 -5.83842e-21)
(0.999651 -0.000832024 -5.40144e-23)
(0.945822 0.051884 9.01673e-20)
(1.00168 0.0501993 1.68716e-20)
(0.996475 -0.00136156 1.95556e-21)
(1.00273 -0.00542297 -4.79737e-23)
(0.999785 -6.07329e-05 -3.50669e-22)
(1.08346 0.0714281 1.58863e-20)
(0.999935 -1.27661e-05 2.85185e-23)
(0.996369 -0.00735798 8.86716e-22)
(0.957573 -0.0208921 1.11534e-20)
(0.999952 -1.65258e-05 -6.43585e-24)
(0.999253 -0.00190787 -2.17671e-22)
(0.999732 -0.000831491 9.89231e-23)
(1.04192 0.0292969 3.52455e-20)
(0.999987 -1.61668e-05 1.03165e-23)
(0.997007 -0.00038354 1.01631e-24)
(0.971464 -0.0317861 2.80579e-20)
(0.924684 0.0158885 -2.89484e-20)
(1.05167 -0.00397369 -5.41927e-21)
(0.951953 0.0349141 6.86367e-20)
(0.99997 -7.94355e-06 -1.62089e-23)
(1.00392 -0.0312585 -1.73797e-22)
(0.999879 -0.000202654 -7.98881e-23)
(0.997868 0.0565868 -7.77237e-20)
(1.00227 -0.000391908 -9.84476e-22)
(0.992817 0.0197932 3.48681e-20)
(1.00219 -0.00708021 -9.67918e-22)
(1.00041 -0.0012927 3.39658e-22)
(1.01979 -0.0232974 -3.25483e-21)
(1.01483 -0.00177272 -2.56934e-20)
(1.00036 -0.000219711 1.61853e-22)
(0.999851 -3.92933e-05 1.8604e-24)
(1.00031 -0.000299852 3.65664e-22)
(0.99738 -0.00415583 -1.75514e-21)
(1.01326 -0.0465156 5.30745e-21)
(0.999972 -1.01798e-05 1.09707e-23)
(0.974148 -0.0210519 6.74839e-21)
(0.997586 -0.000827258 -7.71863e-23)
(0.9999 -3.85865e-05 3.92294e-23)
(0.99962 -0.000378792 6.9464e-23)
(0.988687 0.0339032 8.44115e-20)
(0.994684 -0.000587742 7.98266e-22)
(0.999518 -0.000110446 -7.25446e-23)
(0.939742 0.00749475 1.11029e-19)
(0.999186 -0.0018927 -4.91813e-22)
(1.03685 0.065425 -3.12762e-20)
(0.999867 -0.000197657 1.44241e-22)
(1.00586 -0.0162351 6.16308e-22)
(1.00001 -5.1483e-07 -6.07469e-25)
(0.988265 -0.0247755 -4.51949e-21)
(1.02216 0.00236555 9.03088e-21)
(1.12228 0.00340401 -1.6865e-20)
(0.985193 -0.0137303 8.84728e-21)
(0.999749 -0.0004462 2.59563e-22)
(0.988006 -0.0551338 5.58406e-21)
(0.988825 -0.000268631 3.73511e-21)
(0.999875 -2.21471e-05 3.73346e-24)
(1.00028 -0.000253123 -3.23727e-22)
(0.998611 -0.00234729 6.65581e-22)
(0.9948 -0.000965481 -2.38605e-21)
(1.00221 -0.000565117 -1.16981e-21)
(0.999197 -0.00139564 3.15377e-22)
(0.983416 -0.00640535 1.26662e-21)
(1.01663 -0.0438242 -4.06331e-21)
(0.983562 -0.00534122 5.64988e-21)
(1.09589 -0.0262199 6.47267e-22)
(0.977938 -0.00597706 -7.27087e-21)
(1.0079 0.0662081 8.90074e-21)
(1.00512 0.0682654 -6.58919e-20)
(0.999058 -0.000535311 -5.45393e-22)
(1.13966 0.000522508 1.89568e-20)
(0.999989 -2.69129e-06 -1.00867e-24)
(0.998561 -0.00280923 -7.98907e-22)
(0.982172 -0.00159175 1.45017e-20)
(1.00564 0.0157166 2.22391e-20)
(1.02706 0.00615363 -2.34277e-20)
(1.00007 -2.88218e-05 4.44632e-23)
(0.998544 -0.00279289 -5.23052e-23)
(0.978807 -0.00661409 5.47895e-21)
(1.03341 0.0258976 -1.36898e-20)
(0.999372 -0.00084498 2.82743e-22)
(1.00222 -0.000668897 6.55755e-22)
(1.00083 -0.000635968 -5.86495e-23)
(1.08417 0.0153957 2.48701e-20)
(1.15221 -0.0437072 1.60974e-21)
(1.01805 0.0809588 4.37604e-20)
(0.998973 -0.000105128 -5.36563e-22)
(1.04371 -0.0288599 -1.19305e-20)
(0.999925 -4.93088e-05 -3.21193e-23)
(1.00336 -0.00490279 -2.34084e-21)
(0.999963 -8.35385e-06 -4.59032e-24)
(0.990036 -0.014886 1.48481e-21)
(0.999775 -5.13148e-05 -6.7289e-23)
(1.00849 -0.0147751 5.66861e-22)
(1.15788 0.00132131 -1.52893e-20)
(0.981805 -0.0197246 1.04829e-20)
(1.00633 -0.0155282 -3.63379e-22)
(1.00558 -0.00418457 -1.39564e-21)
(0.999519 -0.000129988 3.24606e-22)
(1.01839 -0.0124117 3.39885e-21)
(0.997501 -0.012999 1.26789e-21)
(1.05328 0.00856947 -1.07268e-20)
(1.03847 0.0285791 1.59165e-20)
(1.11596 -0.096034 -3.02579e-22)
(1.09968 -0.0373314 3.26813e-21)
(0.988487 -0.000611585 -4.0029e-21)
(1.00335 -0.00244434 2.11324e-21)
(0.959176 -0.019765 -4.31932e-21)
(0.954508 0.0461741 -1.39146e-19)
(1.08335 -0.0381035 -7.48628e-21)
(1.01743 -0.00697309 -1.26557e-20)
(0.941458 0.0335382 -6.85651e-20)
(0.998973 -4.7975e-05 2.64498e-22)
(0.998852 -0.000678079 -1.68549e-22)
(1.11235 -0.0288847 4.18009e-21)
(0.99928 -0.00139736 -1.70868e-22)
(1.00866 -0.0288961 2.62639e-22)
(1.00397 -0.00145775 7.27237e-22)
(0.998053 -0.000362932 -4.09285e-22)
(0.998533 -0.000332528 -6.53654e-22)
(1.01981 0.0174564 2.67149e-20)
(0.999954 -0.000108397 -2.19375e-24)
(1.00033 -0.000161756 -1.44002e-22)
(1.00006 -1.34644e-05 3.35273e-23)
(0.997711 -0.000602377 2.224e-21)
(0.995569 -0.00620066 2.45804e-21)
(0.999988 -2.97468e-06 7.8173e-25)
(0.999293 -0.000180807 6.8864e-23)
(0.985735 -0.012164 3.12902e-21)
(0.969637 0.00913704 3.69647e-20)
(1.00777 -0.0162094 -4.75785e-22)
(0.99537 -0.00774816 3.91639e-21)
(0.975585 0.0367182 1.61669e-20)
(1.00051 0.0273737 5.57232e-20)
(1.04527 -0.00119511 -8.72195e-21)
(1.13268 0.00508905 -7.47091e-21)
(0.961113 -0.00362862 1.42251e-20)
(1.00344 -0.00266695 -1.04868e-21)
(1.00516 0.0264975 -3.05261e-21)
(0.992331 -0.00176068 -4.87549e-21)
(1.02309 0.0636381 1.47929e-21)
(1.0065 -0.0350341 2.13323e-23)
(1.02495 -0.0794744 -3.74331e-21)
(1.05417 0.0565129 2.2355e-20)
(1.02434 0.0677228 -3.89937e-20)
(0.975258 -0.018212 1.51986e-20)
(1.02968 0.00513761 -1.54132e-20)
(1.06045 0.0918365 5.62276e-20)
(1.03299 0.065616 5.77954e-20)
(1.01499 -0.00182656 8.79075e-21)
(0.998011 -0.00105044 4.86034e-22)
(0.99718 -0.00158249 4.24926e-22)
(0.999939 -1.24969e-05 -1.52912e-23)
(1.01174 -0.0192311 8.37276e-22)
(0.992217 -0.00147369 1.1512e-21)
(1.00067 -0.00176598 -2.78537e-22)
(0.999927 -1.68415e-05 -2.84981e-23)
(0.998872 -0.000523393 2.12122e-22)
(0.986222 -0.0544062 -9.13712e-21)
(1.07339 0.0240992 1.02388e-20)
(0.988061 -0.004319 -6.41806e-21)
(0.999543 -0.00897734 1.32378e-21)
(0.997506 -0.000439267 -1.18221e-21)
(1.04296 -0.0296222 4.49188e-22)
(0.995106 -0.0011235 -3.85488e-21)
(1.00159 -0.0049243 9.18477e-22)
(1.07107 0.0893745 8.98851e-21)
(0.998716 -0.000257801 -1.53087e-21)
(0.999986 -3.06043e-05 -7.03496e-24)
(0.999963 -0.000129874 -3.89328e-24)
(1.00003 -7.65176e-05 2.86246e-23)
(0.985104 -0.00563823 2.94659e-21)
(1.01896 0.0143451 -3.18623e-20)
(0.997293 -0.000333771 4.54715e-23)
(1.0149 -0.00616829 8.14669e-21)
(1.01465 -0.0923072 7.99736e-21)
(0.994236 0.0479743 -1.50789e-21)
(1.0028 -0.00541786 7.82082e-22)
(1.00484 -0.00286896 -3.47494e-22)
(0.996648 -0.00184388 -1.55365e-21)
(0.994767 0.0341372 -8.27862e-20)
(0.999302 -2.78707e-05 2.20085e-22)
(1.02049 0.0837537 -2.24269e-20)
(1.00763 0.0109989 -3.52906e-20)
(0.999922 -2.12853e-05 3.33796e-23)
(1.00544 -0.0358066 -3.47098e-21)
(0.997847 -0.000650566 -1.09338e-21)
(0.99499 -0.0425173 1.30087e-20)
(1.00035 -7.35135e-05 1.44486e-22)
(1.04109 0.00145224 1.20988e-20)
(1.00512 -0.0110916 -3.67147e-23)
(1.00429 -0.00245891 1.84423e-22)
(0.999421 -0.00010303 -4.35133e-22)
(1.0486 0.0270684 1.7582e-20)
(1.02992 0.0252498 5.42872e-21)
(1.00704 -0.0462527 5.55842e-21)
(0.98629 -0.0142653 -6.04202e-22)
(0.998544 -0.00252002 -5.74937e-22)
(1.00036 -0.0277122 -6.48819e-21)
(1.10074 0.0376105 -2.22604e-20)
(0.928414 0.0259816 -6.36563e-20)
(1.0576 -0.0550582 -6.65996e-22)
(1.00342 -0.00546613 -3.73209e-22)
(0.999995 -9.02042e-07 -2.94789e-25)
(0.990901 -0.00351338 -5.11618e-21)
(0.998466 -0.000245501 1.41091e-21)
(1.0185 -0.0109999 4.97775e-21)
(1.00409 -0.0745818 -3.85445e-21)
(1.13769 -0.00944482 -5.98804e-21)
(0.988419 0.0460518 -1.02706e-19)
(1.03638 0.0233827 2.30001e-20)
(1.08126 -0.0766806 2.74042e-21)
(1.04751 0.0563043 9.32639e-21)
(0.998802 0.0266291 9.82755e-20)
(1.01375 -0.00218942 6.64265e-21)
(1.00078 -0.00160551 6.38687e-22)
(1.01479 0.0361405 1.89737e-20)
(0.999413 -0.00143688 3.80846e-22)
(0.999879 -0.000109425 3.18889e-23)
(0.987531 -0.00166637 1.80167e-21)
(1.00007 -2.51263e-05 8.2947e-24)
(1.08556 -0.0913397 2.46879e-21)
(1.00284 -0.0125396 -6.02253e-23)
(0.990194 -0.0242606 7.51901e-21)
(1.00124 -0.001171 3.24736e-22)
(1.04352 0.0487511 4.8403e-20)
(0.998758 -0.000210585 -1.26502e-22)
(0.999984 -2.42645e-05 -6.88875e-25)
(1.02023 -0.082705 4.27094e-21)
(1.00112 -0.000861632 -1.88515e-22)
(1.07332 -0.00336043 -2.62976e-21)
(0.968195 -0.010773 2.87844e-21)
(0.95326 -0.0131424 1.49623e-21)
(1.14511 0.0387162 -2.09025e-21)
(1.01676 0.0108727 -1.19306e-20)
(1.01462 0.00273029 7.3772e-21)
(1.01351 0.00260127 -3.01077e-21)
(0.999861 -3.19533e-05 1.1143e-23)
(1.07914 0.0239855 8.25755e-21)
(1.05378 0.0106672 1.25075e-20)
(0.999668 -0.000434105 1.02257e-22)
(0.988639 -0.0046652 7.45501e-21)
(1.00043 -0.000134685 -1.60791e-22)
(1.00825 -0.0135303 -4.10508e-21)
(1.00713 -0.0189529 2.58398e-23)
(1.0032 -0.00100939 9.17114e-24)
(0.999507 -0.000902733 -4.58237e-22)
(1.08326 0.0658884 -4.8475e-20)
(0.999986 -1.58311e-05 -1.19991e-23)
(1.00014 -6.60044e-05 -4.28969e-23)
(1.00148 -0.000645469 -1.28788e-23)
(0.984306 -0.00232679 5.03364e-21)
(1.01277 -0.00736027 5.88822e-21)
(0.989198 -0.0203032 -1.08959e-20)
(0.980808 -0.00357049 -2.91898e-21)
(1.01145 -0.0437204 2.97225e-21)
(1.0278 -0.0989846 -8.26183e-21)
(1.01864 -0.0203581 1.98981e-21)
(1.01925 0.0366907 -1.09395e-19)
(1.15104 0.00669694 8.95221e-21)
(0.995598 -0.0018012 -2.05461e-22)
(0.943606 0.0484715 1.06568e-19)
(0.984183 -0.0396426 1.57556e-20)
(0.995591 -0.00647339 7.74933e-22)
(0.981103 -0.00292913 4.83527e-21)
(0.998827 -0.0128837 -3.75213e-22)
(0.985318 -0.00186287 7.66971e-21)
(0.993171 -0.00284551 -1.47921e-21)
(1.01828 -0.0100929 -8.95906e-21)
(1.08885 -0.0403516 1.90677e-21)
(0.999983 -3.03396e-05 -9.64959e-25)
(1.01508 -0.00895891 -9.48606e-22)
(0.999932 -2.13463e-05 -1.61719e-23)
(1.00425 0.0565193 2.10349e-20)
(1.10079 0.0567903 3.80457e-20)
(0.996707 -0.00139457 4.85129e-22)
(0.990299 -0.00140701 -6.78921e-21)
(0.99987 -3.95149e-05 -8.16749e-23)
(0.996434 0.0305829 6.24496e-20)
(1.01606 0.0656059 5.09581e-20)
(1.08096 0.0167548 -1.35366e-20)
(1.08826 0.0856144 -4.12951e-20)
(0.98411 -0.0423144 -6.56971e-21)
(0.999397 0.013189 -9.04737e-20)
(0.999957 -8.92815e-05 1.48753e-23)
(1.03391 -0.017512 1.34836e-20)
(0.987369 -0.00126161 -2.85548e-22)
(1.06185 0.0473818 -1.07628e-20)
(0.958554 0.0341168 -8.38487e-20)
(1.10375 0.0324253 3.03783e-20)
(1.03376 0.0202852 3.90258e-21)
(1.00016 -0.00882212 -1.89562e-22)
(0.999869 -5.81818e-05 -7.52316e-23)
(1.08929 0.0735115 1.71786e-20)
(1.14198 -0.0271168 -1.64181e-21)
(0.996452 0.0343844 -2.11299e-21)
(1.06716 -0.00525306 2.47168e-20)
(1.02171 0.031042 3.22354e-20)
(0.995221 -0.00159134 -6.85784e-22)
(0.993274 0.046043 2.8198e-20)
(1.01918 0.0626611 1.82005e-20)
(0.994046 -0.00236378 -4.14458e-21)
(0.994944 -0.00222843 -1.53708e-21)
(1.09905 0.0678963 9.53912e-22)
(0.951497 -0.0121822 -2.0037e-20)
(0.999941 -0.000104838 -2.32139e-23)
(0.991381 -0.00378597 6.58291e-21)
(0.955455 -0.0170422 1.45884e-20)
(0.993504 -0.0530405 -1.95178e-21)
(1.00641 -0.00210718 -5.899e-21)
(1.00489 -0.00383147 3.99292e-22)
(0.999912 -0.000127102 -4.4343e-23)
(1.01674 0.0699059 -7.66808e-20)
(1.0005 -0.00729606 3.25549e-23)
(0.999929 -3.9308e-05 1.43048e-23)
(1.01598 -0.0409863 2.04423e-21)
(0.999668 -0.000291934 8.99338e-23)
(0.99985 -5.51526e-05 5.74294e-24)
(1.00371 -0.00843466 -4.50591e-22)
(1.0369 0.0470008 6.4489e-20)
(1.01445 -0.0735444 6.06057e-21)
(0.969092 0.0342574 4.9794e-20)
(1.00005 -1.11389e-05 -2.31066e-23)
(1.03917 0.0510757 -6.77147e-20)
(1.01069 -0.0351015 2.15502e-21)
(0.999952 -0.000124347 -6.67486e-24)
(1.00002 -3.45529e-06 -7.11041e-24)
(1.00266 0.00715773 -5.90681e-21)
(1.03346 0.041066 2.38343e-20)
(0.997419 -0.00168723 4.22476e-22)
(1.03154 0.0314678 -3.06717e-20)
(1.00002 -1.2909e-05 5.07122e-24)
(1.03178 0.0348938 -4.29425e-20)
(1.10383 -0.095982 4.16554e-21)
(0.993667 -0.00207674 4.55546e-21)
(0.99971 0.0198651 -1.25435e-19)
(0.984546 -0.0332543 1.04828e-20)
(1.09148 0.0814926 4.10816e-20)
(0.981992 -0.0031939 2.8887e-21)
(1.03433 0.0370792 5.58326e-20)
(1.03717 0.0433728 -1.71979e-20)
(0.989187 -0.00568779 1.06965e-20)
(0.985801 -0.00701209 -7.91896e-21)
(0.99677 -0.00653692 2.25195e-21)
(0.998111 -0.000483047 -3.57917e-22)
(0.999874 -0.000128996 8.67221e-23)
(1.00049 -0.00682515 -5.665e-23)
(1.02616 0.059953 -9.17313e-21)
(0.999981 -2.37547e-05 2.99935e-24)
(1.02816 0.0302859 4.06053e-20)
(1.02423 -0.0736908 8.42242e-21)
(1.00271 0.0323199 2.49474e-20)
(1.02832 0.0276062 -4.59757e-20)
(0.953582 -0.0160048 -1.79319e-21)
(0.971565 0.0435235 -1.05277e-19)
(0.998965 -0.000763365 3.03139e-23)
(1.01127 -0.0178016 1.89066e-21)
(1.03743 -0.0530684 1.30177e-21)
(0.986017 -0.0016256 -4.45761e-22)
(0.995889 -0.00228456 2.04465e-21)
(1.00917 -0.0366465 -2.06219e-21)
(1.03661 -0.0123762 -1.40846e-21)
(0.947396 0.0293966 1.30581e-19)
(1.00003 -1.52616e-05 2.49065e-23)
(0.998786 -0.000822402 4.09582e-22)
(1.01505 -0.0521197 6.89986e-23)
(1.00001 -3.08605e-06 8.83498e-25)
(1.00348 0.0611898 1.03388e-20)
(1.00102 -0.000781887 0)
(1.00001 -3.27685e-06 6.68228e-25)
(1.00011 -5.6598e-05 1.0047e-22)
(1.00029 -6.08688e-05 2.02845e-24)
(0.990391 -0.0136243 7.57157e-21)
(1.01388 -0.0114395 -3.60212e-21)
(0.999015 -0.000559001 6.42824e-22)
(0.99995 -9.08097e-06 3.0222e-23)
(0.995539 -0.00214898 1.13608e-21)
(1.00282 -0.00886596 -3.5745e-22)
(0.996358 -0.0787196 -1.05506e-20)
(0.957478 -0.00533087 1.44547e-21)
(1.01207 -0.00655771 1.00896e-20)
(0.999982 -1.82884e-06 9.40358e-24)
(1.07012 -0.107691 9.09319e-21)
(0.991523 -0.00254644 -2.6347e-21)
(1.08894 0.0601264 -3.10426e-21)
(1.00047 0.0208025 -1.83438e-20)
(1.00075 -0.00249062 1.55746e-22)
(1.08044 0.0519505 -4.59337e-20)
(1.00009 -6.47024e-05 -6.54742e-26)
(0.991988 -0.00293816 7.56636e-23)
(1.01502 0.000556573 -1.54397e-20)
(0.995854 -0.00254684 -8.37779e-22)
(1.0375 0.0559959 -3.801e-21)
(0.99187 -0.00456257 -4.95945e-21)
(1.03446 -0.0178232 -1.12165e-20)
(1.01652 0.00265712 -1.65523e-20)
(1.03992 0.0264204 -9.98354e-21)
(1.00514 -0.0103447 -1.75925e-21)
(0.993575 -0.00303415 1.22863e-22)
(1.05199 0.0488917 3.14343e-20)
(0.988249 -0.0585499 -1.00645e-20)
(0.996799 0.0590474 8.56887e-20)
(0.994303 -0.00330989 -4.79265e-21)
(1.03785 0.0745712 -2.25468e-22)
(0.994344 -0.00296012 1.28041e-21)
(0.999262 -0.00034533 -4.18082e-23)
(1.03268 0.0198994 1.07603e-20)
(1.01052 -0.0205548 -6.4174e-22)
(1.02272 0.00257996 2.38765e-20)
(1.00101 -0.000614073 2.10539e-22)
(1.00001 -2.28288e-06 3.07788e-25)
(1.00564 -0.0902085 3.72014e-21)
(1.06953 0.0841364 -5.1625e-20)
(1.00098 -0.00240959 -2.03341e-22)
(1.08669 0.0533825 4.73068e-21)
(0.992287 -0.00423231 -3.23605e-21)
(1.06382 -0.111689 -2.41486e-21)
(1.03138 -0.0273685 5.77116e-22)
(0.98912 -0.0216414 6.10064e-21)
(0.998923 -0.0006844 -2.70918e-22)
(0.994433 -0.000726893 -9.58465e-22)
(0.98455 -0.049968 -6.44544e-21)
(0.980766 -0.00677953 1.10615e-20)
(0.993933 -0.00277016 3.39307e-21)
(0.999907 -0.000292925 3.75086e-23)
(0.992028 0.0622105 -1.03177e-20)
(1.07807 0.0461022 2.84243e-20)
(1.01686 -0.00696525 -3.05879e-21)
(0.999875 -9.92195e-05 5.7687e-23)
(1.01816 0.0589925 -3.45507e-20)
(1 -1.56972e-05 1.35045e-24)
(0.999882 -8.44258e-05 1.14112e-22)
(1.0716 0.0448836 2.37615e-20)
(1.00812 -0.0167327 1.33629e-21)
(1.07756 0.0768669 4.38919e-20)
(1.01539 -0.00299392 6.67107e-21)
(1.01177 -0.00855178 -7.53048e-22)
(1.06496 -0.0450506 -1.24229e-21)
(1.03861 -0.0916556 7.51517e-21)
(1.14467 0.0329452 -9.17604e-21)
(1.00079 -0.000596006 -4.59732e-22)
(0.96951 -0.0117258 -1.15184e-21)
(0.999989 -3.78203e-05 -2.0457e-24)
(1.00366 -0.0079338 3.10432e-22)
(1.0398 0.0559391 2.43294e-20)
(0.989709 -0.0053139 7.45778e-21)
(0.998274 -0.00100426 5.68717e-22)
(1.01082 -0.0275872 -6.43161e-22)
(0.998789 -0.000732871 3.86736e-23)
(0.999754 -0.000717978 1.17298e-22)
(0.943093 0.00635994 2.30009e-20)
(0.993988 -0.00359276 -2.71765e-21)
(0.999707 -0.000509568 -3.53407e-22)
(0.999987 -8.32788e-07 -2.04233e-24)
(1.01183 0.00373171 3.20128e-20)
(0.98255 -0.0182044 -1.67167e-21)
(0.999795 -0.000383648 1.03122e-22)
(0.99827 -0.000588244 7.30794e-22)
(1.01587 0.0129931 1.29264e-20)
(1.04556 0.00679217 2.61198e-21)
(0.975108 -0.0165975 -9.41085e-21)
(1 -9.77218e-06 4.86009e-25)
(1.00181 0.0114813 8.43008e-20)
(0.991666 -0.0119974 -5.22475e-21)
(1.044 0.044454 -4.87464e-20)
(1.00835 -0.00120444 -8.84266e-21)
(1.00952 -0.000844395 2.00586e-20)
(0.979628 -0.00837043 1.50998e-20)
(0.999939 -4.54997e-05 -9.34631e-24)
(1.01556 -0.000199603 -2.94889e-21)
(1.04773 0.00500334 -4.08003e-21)
(1.12611 0.0377079 2.28111e-20)
(1.02866 -0.0699313 1.34988e-21)
(1.02404 0.0564799 2.79101e-20)
(1.00412 -0.00100475 -1.36893e-22)
(1.05651 0.0524948 -4.32312e-20)
(1.00044 -0.0100312 -3.4803e-22)
(1.0134 -0.039446 -5.19177e-21)
(0.999755 -0.000110754 -1.13237e-22)
(1.00239 -0.0130396 9.52455e-23)
(0.999934 -0.000294377 1.35438e-23)
(1.02926 0.0212127 -3.11528e-20)
(1.04839 0.0817827 -8.72912e-20)
(0.999071 -0.000818883 2.16286e-22)
(1.01193 -0.00824753 2.76848e-22)
(0.988774 -0.00324373 2.56479e-21)
(1.03161 -0.0609429 2.65959e-22)
(1.02761 -0.0646518 -4.21981e-21)
(0.998896 -0.000578943 4.29456e-22)
(1.03031 -0.0175622 -4.81791e-21)
(0.951348 0.00114407 -3.89898e-20)
(1.12286 0.0225871 1.7938e-20)
(0.999965 -0.00010778 3.16789e-23)
(1.04194 0.00529385 -9.66784e-21)
(0.998211 -0.00606026 -1.06923e-21)
(0.993244 0.00188057 8.4942e-20)
(0.992334 -0.00374448 4.5117e-21)
(0.997986 -0.0185824 -1.19369e-21)
(1.01234 -0.024384 -1.99958e-22)
(0.996517 -0.0192105 -2.06105e-22)
(0.999238 -0.0149886 -2.5501e-21)
(0.995271 -0.00237181 7.81806e-22)
(0.999973 -0.00996378 1.43139e-21)
(1.0013 -0.00438567 -2.43821e-22)
(1.03778 -0.015566 3.06049e-21)
(1.00007 -2.55107e-05 -6.49053e-23)
(1.1349 -0.0721526 8.2231e-22)
(1.1095 -0.00671875 5.14254e-21)
(1.01029 0.0671971 6.16605e-20)
(0.976335 -0.015652 1.43489e-20)
(1.07139 0.0726261 -2.21667e-20)
(1.00125 -0.000497802 7.42888e-22)
(1.04861 -0.0520021 -2.25381e-22)
(1.00398 -0.0264504 -2.33981e-21)
(1.014 0.0225734 3.60405e-20)
(0.995607 -0.00278319 1.93777e-21)
(1.00007 -0.000121753 4.27155e-23)
(0.99205 -0.0123756 6.80932e-21)
(0.997308 -0.00650899 -8.52474e-22)
(1.02819 -0.017362 9.17509e-21)
(0.98163 -0.00511058 -9.33025e-21)
(0.984995 -0.0065754 2.6091e-21)
(1.08752 -0.0250497 3.48879e-21)
(0.990621 -0.00200946 -4.41354e-21)
(1.01061 -0.0257052 1.52604e-22)
(0.994265 -0.0562851 6.90519e-21)
(1.00001 -5.63542e-06 5.4151e-25)
(1.03756 -0.00989144 1.60564e-20)
(0.995796 -0.0507064 -1.8807e-20)
(1.07696 0.06259 2.17478e-20)
(1.06528 -0.0505789 1.34683e-21)
(1.02116 0.00210796 2.05285e-21)
(1.01938 -0.0710636 -1.17858e-20)
(1.02313 0.0748759 1.72963e-20)
(1.02404 -0.0242476 4.16416e-21)
(0.978661 -0.00776867 -8.93351e-21)
(1.01073 -0.0325137 -2.11179e-21)
(0.973117 0.00268964 3.77365e-20)
(1.10685 -0.0726565 -7.52067e-22)
(0.991852 -0.00347346 -1.37037e-21)
(1.02046 -0.0890977 -9.20655e-22)
(1.01884 -0.045574 2.85552e-21)
(1.03056 -0.0821591 -1.88589e-21)
(1.02991 -0.0563997 -3.25873e-21)
(1.05195 0.044524 3.96227e-20)
(0.998266 -0.00111969 3.77844e-23)
(1.00368 0.0258642 1.3265e-20)
(1.00517 -0.000940175 1.05977e-21)
(0.999746 -0.000374117 -1.48383e-22)
(0.999185 -0.00163603 1.05072e-21)
(1.03862 0.00145736 -3.852e-21)
(0.923872 0.00220705 1.09893e-21)
(1.00107 -0.00452419 1.44057e-22)
(1.01333 -0.0366183 7.83314e-22)
(1.01549 0.0140152 -2.14724e-20)
(1.00002 -5.61518e-06 -1.26944e-24)
(0.986472 -0.00657605 6.31147e-21)
(1.01467 -0.00622724 7.25107e-21)
(1.0512 -0.0280027 8.59949e-21)
(1.00515 -0.000776619 5.94686e-21)
(0.998952 -0.001283 1.9477e-22)
(0.990089 -0.0278545 2.66079e-22)
(0.998613 -0.00591288 -2.821e-22)
(1.00002 -3.01228e-06 1.36515e-23)
(0.986051 -0.0325927 -1.75952e-20)
(1.03088 0.0534532 -1.00108e-20)
(1.01361 -0.0215544 3.82313e-22)
(0.989323 -0.00366751 -4.81991e-21)
(1.00117 -0.000206697 -2.67539e-22)
(1.01795 0.0165416 2.83597e-20)
(0.999765 -0.000423908 -6.86963e-23)
(0.999204 -0.000446758 -2.1524e-23)
(0.999777 -0.000127012 -1.03201e-22)
(0.999519 -0.00148257 -2.60875e-22)
(1.11571 0.0384339 1.70892e-20)
(1.01996 -0.0257285 6.49542e-21)
(1.00576 -0.012774 7.04077e-22)
(0.988559 -0.00533292 -2.20157e-21)
(1.00003 -3.60485e-05 1.31491e-23)
(1.05182 -0.0874651 8.5977e-21)
(1.14492 -0.0157729 4.52331e-22)
(1.05592 -0.0950119 -4.1939e-21)
(0.998641 -0.0233647 -2.19976e-21)
(1.00886 -0.00601047 6.79599e-21)
(0.999868 -6.74348e-05 4.75264e-23)
(0.99262 -0.00821712 -2.7157e-21)
(0.973151 -0.0335228 -1.09609e-20)
(1.11409 0.0247633 6.06149e-22)
(1.0013 0.032028 -8.94964e-22)
(0.999281 -0.00224009 2.08503e-22)
(0.963446 -0.0236812 6.50705e-21)
(0.997016 -0.00199025 -1.84217e-21)
(1.02259 -0.0226518 -1.14051e-21)
(1.06058 0.0423739 4.54029e-21)
(1.0003 -9.53064e-05 -2.25093e-22)
(0.999906 -0.000137042 -1.76132e-23)
(1.09765 0.0724984 5.07263e-21)
(1.10935 0.0105271 -3.40372e-21)
(1.01354 -0.0107702 2.55766e-21)
(0.998175 -0.00124911 9.70437e-22)
(0.998719 -0.000260739 -9.6265e-23)
(0.977841 -0.0339007 2.65847e-21)
(0.999894 -0.000245533 -5.78646e-23)
(1.01201 -0.0228402 2.17539e-21)
(0.991511 -0.00104654 9.20923e-21)
(1.00054 0.0220392 -1.5143e-20)
(1.03353 0.0558057 -5.07187e-21)
(1.04491 -0.0480243 -4.60201e-22)
(0.998412 -0.0508514 7.09523e-21)
(1.00392 -0.00111866 2.95372e-21)
(1.00987 -0.0169544 -2.87491e-21)
(1.10373 -0.00145584 1.6284e-20)
(0.997935 -0.0566069 -4.29009e-21)
(1.01277 -0.0310318 1.09808e-21)
(0.999999 -4.93388e-06 2.45767e-25)
(1.09367 -0.0124266 1.12046e-20)
(0.982891 -0.00216816 8.66225e-22)
(0.997567 -0.0630546 8.65434e-21)
(1.01306 -0.0200196 -5.00741e-21)
(0.97092 -0.0110742 -2.03374e-21)
(0.99976 -0.000226743 -5.0647e-23)
(0.998104 -0.000941034 -4.32417e-22)
(1.0254 0.0260848 3.54453e-20)
(0.980661 -0.00784982 -3.3957e-21)
(0.99999 -1.16847e-06 2.07456e-24)