/*--------------------------------*- C++ -*----------------------------------*\
  =========                 |
  \\      /  F ield         | OpenFOAM: The Open Source CFD Toolbox
   \\    /   O peration     | Website:  https://openfoam.org
    \\  /    A nd           | Version:  7
     \\/     M anipulation  |
\*---------------------------------------------------------------------------*/
FoamFile
{
    version     2.0;
    format      ascii;
    class       surfaceScalarField;
    location    "25";
    object      phi;
}
// * * * * * * * * * * * * * * * * * * * * * * * * * * * * * * * * * * * * * //

dimensions      [0 3 -1 0 0 0 0];

internalField   nonuniform List<scalar> 
11380
(
164.917
-582.959
418.042
-789.441
21.571
767.87
471.14
-375.244
-95.8966
706.753
242.569
-949.322
1510.02
-1069.37
-440.655
1216.25
-1527.09
310.841
29.3305
457.956
-487.286
169.302
-840.015
670.713
961.876
-1610.68
648.809
-1786.27
1693.16
93.1117
-542.947
1759.19
-1143.14
1936.8
-793.665
604.235
181.41
-785.644
-27.6894
-1328.56
1356.25
225.038
-2011.31
1020.79
-387.111
-633.676
-222.569
387.486
481.441
190.567
-672.008
1153.34
-1316.48
163.145
-327.302
373.596
-46.2941
1013.68
-1339.57
325.889
1221.79
800.609
-2022.4
78.399
-1658.71
1580.31
-535.212
-1139.71
1674.92
471.255
181.858
-653.113
-205.827
-377.132
497.282
1012.74
1666.84
-1829.71
162.875
-117.007
-1683.28
1800.29
-1561.09
660.03
901.063
-313.069
651.613
-338.545
-182.329
-76.8379
259.167
1299.53
-1221.13
355.419
-1407.11
1051.7
-1754.21
1754.21
103.025
1552.93
-1655.95
-1087.43
-473.662
683.883
-654.552
-389.597
942.1
-552.504
1331.65
-1317.07
-14.581
-1099.98
710.385
619.98
400.807
-410.908
-11.7545
422.663
-496.39
805.333
-308.943
-1618.29
1618.29
1253.51
-1437.82
184.308
-489.61
1711.4
1251.64
-309.54
1660.69
-1161.18
-499.508
55.2749
-382.577
2068.93
-1137.99
-930.935
1836.01
-169.173
449.005
155.962
-604.967
-480.084
981.276
-501.192
-1187.7
1290.72
-565.61
968.579
-402.968
394.497
758.839
659.906
-490.604
-437.46
586.827
-149.368
1190.48
-835.062
2308.25
-1080.72
-1227.54
1165.29
-2013.42
848.125
-1622.06
1594.37
440.386
-1583.52
-758.556
1250.08
-491.52
-669.526
356.457
1661.4
-699.519
-1106.93
-870.905
1977.84
734.907
-367.758
-367.149
690.949
560.692
-258.22
1511.73
95.5543
-307.044
211.49
-284.508
755.764
-332.072
557.49
-225.418
-324.191
805.632
-319.265
-137.907
457.172
312.875
158.265
1483.86
-470.18
-1019.17
487.335
531.834
260.8
98.4855
-359.285
945.532
-341.297
-1712.15
580.788
1131.36
15.2563
-876.526
861.269
-273.645
586.942
-313.297
159.22
-1093.88
934.657
1050.14
-1065.81
15.6647
373.128
515.901
-889.03
-245.033
694.039
-1102.48
-482.944
1585.43
-676.133
948.717
-272.584
1348.76
-1465.76
-653.66
253.385
400.275
-470.215
-1011.44
1481.65
-534.367
-799.133
1333.5
574.568
-994.376
419.808
-260.589
-313.096
573.685
397.202
-301.647
-1048
567.918
955.641
-796.421
-110.44
943.464
-833.025
-199.632
406.415
-206.783
-666.386
-352.783
-386.717
961.285
1856.35
-1856.35
-516.927
-136.733
-951.765
1600.18
-648.41
401.271
-828.861
427.59
-921.174
355.564
-941.9
-1058.08
-1503.62
336.113
1167.5
-261.467
968.219
-340.632
626.344
-285.711
-1941.89
999.99
-1159.82
-343.798
591.116
-1542.88
1728.48
-1726.21
-2.27131
176.874
-600.185
423.31
-1495.02
988.711
506.305
272.508
224.068
-496.576
303.187
-635.259
231.542
-404.42
172.878
2025.69
-842.77
-1182.91
-544.84
133.932
612.213
844.744
-1456.96
-182.058
413.599
432.014
875.542
-1307.56
-900.704
385.809
514.896
-1053.72
1448.22
-1068.07
309.514
744.038
-92.4247
571.126
-335.554
-235.572
1042.65
-555.315
593.528
-1403.49
809.959
-1341.93
239.446
-538.037
264.391
-1231.21
969.742
1930.95
-1013.39
-917.57
276.795
1579.55
-2102.93
900.87
1202.05
351.451
-33.7325
-317.719
-222.284
476.366
-254.081
-90.159
-392.212
482.371
-456.625
137.36
335.206
-134.389
535.66
436.164
368.06
-804.224
-2058.67
1146.49
912.184
461.097
-522.698
61.6006
215.659
-355.568
139.909
952.083
1073.6
1809.28
-256.351
745.625
-492.241
794.721
-1388.39
593.674
346.431
388.476
1076.1
-1060.85
-464.94
-325.114
790.053
464.881
-125.765
-339.117
794.137
-612.727
487.578
-736.83
249.251
503.333
1157.36
-1240.15
705.785
1023.27
-1558.48
-3.10878
-1439.42
1442.53
328.691
821.241
-1149.93
621.286
269.862
-891.148
-2275.82
1192.77
1083.05
-1130.98
-1144.84
102.093
385.485
959.25
-630.558
877.522
-897.357
19.8355
-2099.4
992.464
-216.039
-184.988
401.027
-42.2603
1770.74
-844.02
54.5792
-1034.48
-1068.44
-226.713
442.372
-688.911
171.984
-281.071
-477.229
758.3
1103.9
-1574.11
782.298
-1374.03
591.735
728.271
-485.702
1947.8
-1444.47
-378.28
-1375.93
20.3093
437.647
-530.281
551.852
36.9199
-589.608
552.688
565.41
-292.903
-596.372
273.478
322.894
785.244
-349.08
34.8291
316.622
1188.47
-1191.58
160.766
236.435
450.049
-731.12
617.706
-1004.42
-2026.8
2026.8
-287.62
-482.511
770.132
698.518
405.822
-1104.34
579.413
164.626
421.687
363.556
-2199.77
1328.87
-925.286
-681.114
1606.4
-470.974
-760.234
-293.274
614.505
-321.231
875.349
-285.295
-590.054
-471.768
648.642
350.456
-691.088
-391.192
-105.16
496.352
-1349.87
-479.845
694.145
-1165.12
-374.132
-1244.16
844.371
1463.88
308.123
-874.103
565.98
965.331
-345.351
1391.05
-797.526
436.73
-275.963
-321.292
-918.987
639.226
279.761
-410.409
-508.577
317.028
-407.187
-125.081
-170.898
295.98
-392.84
1091.36
432.902
-242.335
-381.69
1374.38
-168.089
-1206.3
-469.981
300.39
169.591
279.144
286.729
-565.873
-67.7341
-669.096
592.238
-1729.12
1136.88
1487.86
-875.646
-1058.02
-436.999
-1054.91
574.912
479.995
1415.31
-426.598
928.132
-1411.08
-205.821
-121.92
327.741
-466.887
576.358
-1630.08
427.814
903.832
283.986
369.376
-653.362
568.021
1186.19
1101.34
-707.442
-393.897
390.355
-203.805
-186.55
-1419.4
447.462
735.771
-1183.23
1473.12
-544.993
-515.131
987.658
-472.527
426.169
1186.13
-1612.29
47.4435
-723.577
-152.664
413.464
149.849
-332.178
566.24
476.411
-517.389
-12.1391
529.528
1024.5
-1307.63
283.13
670.475
-248.788
468.478
-1447.17
978.694
358.769
1690.09
-524.798
847.18
1083.78
-656.451
-1685.01
759.721
554.631
421.385
-976.016
459.409
79.2179
1750.26
-1829.48
1443.56
-379.492
-1064.07
1699.25
-1741.51
-363.958
-543.324
723.222
-179.898
-502.59
171.432
293.449
-373.09
-1225.88
214.447
-764.797
-638.69
-563.774
981.344
-417.57
-650.225
639.988
10.2375
654.657
-923.232
268.574
-624.418
301.227
323.191
-646.415
-768.481
375.744
392.737
-932.006
1400.48
-430.8
894.699
-463.899
-2205.33
5.55599
166.738
-527.055
360.317
140.626
1233.76
-72.865
-616.046
151.103
-588.563
1486.86
-704.565
387.921
-459.57
71.6492
-559.563
559.563
1222.92
395.372
1778.47
-1227.32
590.425
636.891
845.544
-51.4075
1293.11
775.817
-541.411
1336.13
293.185
293.757
258.088
-801.412
215.86
-712.25
224.213
-435.411
211.199
-312.603
641.591
-328.989
86.8827
-399.485
-590.853
-564.729
1155.58
-415.885
555.151
-139.266
-1192.14
2032.02
-839.882
1287.4
-328.154
-395.234
134.645
-1992.45
852.748
1573.73
-868.678
-705.049
1987.08
-877.516
-1109.57
714.712
572.692
-239.167
463.379
-695.979
1199.45
-503.474
-768.8
1200.81
552.096
924.476
-1726.27
801.792
-604.757
-48.6928
653.45
290.547
280.579
447.418
-71.5413
-375.876
896.062
-83.5949
-812.467
941.548
-597.145
-344.403
1576.11
-472.214
897.299
-1631.48
734.18
1068.43
879.373
744.68
-433.208
-311.472
-1058.75
-258.319
578.071
569.523
-1147.59
-516.756
520.49
-3.73367
570.241
-333.229
-237.011
-989.903
559.103
592.514
895.345
-441.73
1096.39
1432.73
-799.859
-632.875
385.847
-920.45
534.603
-1064.68
398.295
589.823
-1104.95
444.516
-546.094
101.578
466.278
339.054
-510.754
-48.8096
-793.359
-883.577
1676.94
181.173
209.182
-280.287
382.38
7.34155
-596.955
589.613
511.859
869.43
-1381.29
-434.036
308.955
984.86
-88.7978
834.928
-1063.92
228.995
436.683
844.385
-1385.8
-466.275
834.335
1984.47
-1290.11
-694.354
269.295
608.227
255.331
794.81
107.714
-1006.47
898.752
1673.7
-1088.87
-584.829
-138.168
1888.43
-1866.16
-160.639
482.006
-620.138
138.132
-1010.05
528.564
481.483
-1730.45
538.314
-955.246
844.806
392.303
194.525
550.8
-242.676
-411.832
705.573
259.759
-17.4766
741.375
-723.899
-1157.23
-869.016
2026.25
-571.864
1143.45
-571.582
-488.749
-321.416
105.376
-1659.24
865.879
-811.615
-665.834
1477.45
-328.283
-294.064
622.346
362.54
-716.952
354.411
261.841
-610.921
339.144
183.81
-522.954
378.654
-671.929
690.839
-328.299
314.351
-452.258
697.202
483.71
-204.566
-461.457
-307.024
1235.93
1.34975
-1237.28
1038.02
-420.315
557.683
410.895
-1782.27
869.798
912.474
481.87
567.785
-1049.65
-531.081
202.798
-265.378
1182.66
-917.282
-1590.78
1212.5
504.559
-1095.41
381.591
6.3304
478.581
304.774
-783.354
366.244
-611.278
-41.0587
760.954
-719.896
-524.369
794.232
411.268
320.112
525.432
649.086
84.5119
-459.115
374.603
1057.7
-644.29
-413.415
494.063
-1664.27
1170.2
-1140.22
1753.21
-612.99
1715.91
-1123.67
-333.193
606.671
-1197.37
1305.08
424.348
-798.494
1621.83
-823.335
-278.934
-191.047
-939.848
1473.66
1818.29
-609.914
-1208.37
-405.272
744.559
-1308.33
-124.605
-96.4215
543.839
-709.917
-354.186
-1236.59
-209.069
470.91
901.814
-555.713
163.501
-1675.01
-71.3812
1746.4
-1103.65
531.788
561.966
-1187.53
625.565
900.767
917.521
630.307
619.768
727.964
259.694
-1190.55
494.575
-388.465
425.385
612.2
-512.605
229.341
-725.965
496.624
744.05
-397.62
-253.118
176.281
-615.418
272.652
342.766
-884.479
-747
1087.66
-2145.74
394.089
-678.597
-342.73
-723.076
836.071
596.663
-332.038
320.283
418.418
312.186
583.065
-895.252
549.691
649.762
-540.052
148.86
393.966
-681.586
-1082.43
-817.085
1899.52
-1815.85
157.136
1106.35
-1371.72
1207.53
-705.462
-502.071
-505.003
1349.39
-1495.38
627.951
867.432
-283.029
-208.645
491.675
1428.46
558.621
367.47
-472.63
-475.834
-578.05
1053.88
-426.247
592.984
1583.79
-1132.01
-451.781
-848.478
365.967
654.288
403.417
-1623.42
416.199
1207.22
-171.866
511.01
797.428
786.366
178.975
-707.405
528.43
197.074
209.342
-275.531
-109.728
385.259
492.819
39.5263
-532.345
-1672.18
614.162
-1625.19
1698.2
-73.0139
15.9853
-1641.18
1069.43
813.585
-335.004
-853.202
-211.479
-1134.58
-239.458
-311.778
678.023
-1813.18
-644.744
1214.27
225.872
755.404
-1334.47
-678.943
-466.386
673.187
-389.201
-1013.25
1350.83
-1933.11
582.282
647.977
1288.82
478.522
-2.15648
715.786
720.703
-1436.49
-632.985
324.587
308.398
433.651
-100.605
-333.046
133.614
320.348
139.529
-459.877
-607.05
1161.68
447.299
-656.022
-458.763
-401.748
860.511
-303.204
97.3828
-451.24
149.593
-299.604
-710.442
538.514
-104.863
-580.095
965.942
570.87
-266.748
-304.122
451.287
-775.479
-647.959
473.62
-1129.35
-857.171
1193.28
-569.771
436.321
353.732
-493.616
125.858
1026.28
-312.884
587.727
-274.843
-509.039
1578.47
-760.064
307.946
371.627
-679.573
208.827
535.072
1.00557
-536.078
-265.109
-186.131
986.615
1108.79
564.911
-899.863
953.479
-53.6157
-450.135
167.106
-802.273
325.044
-585.123
375.114
368.936
866.908
-1288.16
421.257
774.559
-815.618
-948.774
-550.401
1499.17
-156.041
525.417
-560.931
225.377
1325.35
802.639
-623.664
1374.19
-680.046
486.769
-627.662
-409.006
-419.696
-378.32
798.017
499.068
-840.366
-482.939
67.4502
415.489
-309.264
572.526
724.031
-329.942
-229.286
-174.054
403.341
-485.737
125.571
360.165
1464.63
84.5826
-1549.21
-758.831
1351.34
-1144.79
-465.895
605.171
-233.544
1154.22
-379.659
1083.38
492.728
700.122
-442.034
-884.559
-522.555
-1328.27
-16.9132
985.385
-968.471
632.694
376.649
-1009.34
-351.205
-193.635
-686.572
405.553
1621.25
-215.784
389.642
332.005
-721.647
-1839.74
-2106.71
1519.16
587.558
-2043.18
359.898
408.391
558.31
-966.701
-460.629
1018.31
-439.173
-689.521
1128.69
-2030.57
1391.22
639.357
618.312
-1057.48
11.1932
433.322
385.935
183.082
253.648
379.031
1026.7
934.96
674.136
-319.786
-354.351
-286.846
614.392
-327.545
567.657
533.682
564.024
514.379
-1078.4
-795.986
-699.398
749.783
404.434
-421.284
775.695
-1193.36
1609.56
462.631
-1152.15
-355.671
539.481
-1398.12
938.315
459.803
-727.924
-339.014
-741.189
274.055
467.134
447.45
717.012
-1164.46
1079.3
-597.431
-433.282
666.158
-232.876
249.785
321.084
-464.95
-432.362
897.312
-221.278
591.992
-977.396
385.404
-446.175
600.598
-1681.31
424.078
669.663
-1093.74
515.171
111.173
113.414
-2212.81
596.624
-160.303
1445.41
1777.1
-217.546
-1559.55
-438.592
1789.42
-1987.44
1194.66
792.781
393.984
350.696
-52.5295
888.6
-1282.38
717.649
-866.699
-820.685
803.772
290.066
79.1809
-369.247
220.986
173.829
-394.816
1568.48
-852.697
-1530.91
-325.431
504.024
-239.474
-264.55
390.236
365.528
247.021
426.166
-12.4803
1004.34
-991.856
437.083
285.4
-722.483
-734.231
1817.49
-1083.25
-342.453
732.688
-1236.99
-418.964
-912.457
480.095
642.871
-855.342
212.471
756.76
-375.341
-381.419
-454.309
-445.555
456.175
1139.51
1242.92
-680.958
797.104
-345.816
423.619
346.513
-229.862
-229.708
-289.798
648.567
408.159
-843.767
435.608
269.28
389.342
-658.622
-418.783
826.942
753.78
-1146.62
922.606
-55.6982
-480.217
278.618
797.486
-97.0029
1385.83
1890.52
-42.8707
343.261
-382.023
466.535
-1089.41
1076.93
684.104
376.357
380.403
98.0368
405.987
248.436
519.434
-377.698
-255.287
-560.524
-89.7011
-368.334
358.933
9.4013
-256.98
-281.057
1010.64
-1540.66
530.019
-147.849
-227.395
-439.932
725.332
-1655.66
1590.89
-962.935
327.207
-736.213
584.343
1224.41
-1808.75
607.455
983.431
318.368
-1127.7
715.866
-343.296
-310.066
1398.8
-1459.47
844.257
615.21
461.264
-641.569
180.305
-396.205
476.523
-80.3175
409.816
83.0026
1725.09
447.685
-250.611
557.683
-1704.79
1147.11
-102.047
427.087
342.821
331.315
-448.807
-613.935
1062.74
403.716
-869.991
-639.846
901.982
571.142
-431.591
-192.826
-434.372
-409.395
-307.845
-826.731
1821.09
-1821.09
-98.5258
-1614.41
1712.94
297.391
272.849
-916.663
-555.75
1472.41
-408.133
972.157
-629.716
-1042.46
728.603
396.071
-1124.67
466.588
-152.236
573.08
1220.34
-1793.42
-1051.25
2114.61
-1063.36
-380.365
-289.162
-519.512
885.478
-1765.44
1611.66
153.782
1765.44
-1620.13
-145.316
-237.878
515.626
-277.748
-537.323
1620.71
1588.17
-2007.14
1126.9
-341.304
-237.55
578.854
214.456
-570.127
-768.445
347.16
1344.65
639.814
590.027
475.59
-1065.62
261.315
438.806
875.117
500.114
-1375.23
543.783
-1019.62
1574.93
-564.291
-793.59
-413.25
-151.167
564.417
-490.479
1207.49
-738.765
328.189
365.849
390.395
231.568
-621.962
604.85
831.392
-602.397
249.098
704.381
-431.591
-378.123
-215.409
593.532
1168.38
-707.581
604.785
470.317
-1075.1
-1279.35
1279.35
-381.579
757.935
-271.591
-487.348
758.938
508.256
433.047
-941.303
397.968
-669.559
600.942
-870.058
269.116
-367.63
-486.365
1076.39
-657.691
-715.53
1373.22
-368.813
960.805
-1552.81
675.296
-5.66341
-399.936
405.6
-567.216
739.2
327.649
313.943
160.342
306.246
-590.269
246.973
1871.09
-1968.09
243.506
-715.274
465.245
-823.479
358.235
-902.024
1455.84
-553.819
-430.365
-482.092
600.948
1124.14
-1725.08
-712.262
331.898
-465.106
1032.76
-811.741
1060.84
-370.868
-620.04
-533.801
749.661
536.349
-354.491
911.973
-318.786
-166.951
1599.04
-1816.58
-337.049
-640.348
-349.984
475.555
272.434
-661.635
-154.154
1085.23
-806.608
188.277
-364.305
-276.873
641.178
382.093
-892.161
510.069
-477.044
-472.219
-874.103
-383.339
583.341
-200.002
-450.8
-450.956
-357.702
-165.252
-415.901
647.469
-483.433
829.945
-1071.2
622.397
-1409.12
597.502
-29.3881
-1842.8
1872.19
570.2
-451.139
1255.77
-723.977
243.946
-243.946
675.809
-460.332
1043.25
-1672.97
-1158.74
-947.972
285.951
328.441
906.069
715.759
-530.323
-287.653
817.976
1664.26
-1693.64
-432.754
332.102
233.308
1134.41
-529.624
-943.344
1550.5
-607.16
438.607
-255.525
386.67
447.823
-834.493
551.695
460.238
-1011.93
-330.861
659.05
-38.3081
1909.4
1634.37
992.17
-1696.73
726.223
-1176.35
450.127
-492.528
1367.64
835.908
-1340.91
-596.151
254.847
815.7
-394.315
543.775
-1194.26
650.489
-631.564
-1215.52
-695.726
1911.25
-169.592
550.634
-381.041
-142.513
333.591
-503.183
339.202
358.587
-697.789
-1495.45
755.47
739.976
883.907
-1434.31
819.906
-434.097
203.011
-355.675
-629.961
251.838
-713.079
-685.039
696.338
508.174
-1204.51
380.087
-204.822
-175.266
553.106
-956.074
-593.923
-469.445
794.489
-831.372
-1156.06
-1437.92
499.781
938.143
42.478
-675.352
327.228
348.124
-1331.68
1050.06
281.624
-614.607
-456.597
-665.351
920.683
394.14
-188.304
-205.836
508.506
980.306
-1488.81
984.742
-558.234
164.76
393.475
-468.672
681.871
-438.365
-503.216
153.231
233.877
-1523.99
519.521
559.78
-791.777
224.56
133.903
-452.688
353.196
-825.416
1954.16
-1195.38
-758.779
465.29
-703.784
238.494
319.604
341.384
99.7125
-441.096
-589.417
185.223
262.462
-691.858
1374.09
-682.23
424.085
506.58
-1234.5
258.646
1866.76
-1013.59
-853.177
783.674
-539.078
155.739
1402.27
-975.067
-427.205
317.251
-777.583
-616.628
1725.42
604.372
638.551
324.574
-34.508
248.589
-1138.3
1725.72
-587.421
-1763.56
820.216
1782.1
-1709.44
-72.6609
-663.381
274.915
645.024
-740.569
206.769
1402.46
-566.553
374.412
459.923
-1858.86
1420.27
560.95
-475.948
-85.0018
183.853
-541.555
-325.611
-163.139
-347.162
689.983
-669.133
255.883
628.074
542.569
-1170.64
1113.39
-1947.74
834.357
132.924
363.428
-1701.01
1662.7
297.52
-739.554
-172.408
375.419
769.565
677.028
-1446.59
1095.31
-1093.96
517.193
-1114.62
-622.701
245.294
377.407
545.416
-272.763
-645.824
-1027.14
276.296
-727.252
-912.322
154.429
152.487
227.6
416.032
273.856
-689.887
-643.756
-834.565
-978.618
480.633
-1070.05
-317.375
486.966
530.419
662.865
-275.687
-119.548
-459.26
777.628
250.257
-1205.76
562.004
1318.28
-548.713
432.831
-1026.75
-380.55
126.621
434.329
1023.03
551.899
-1732.05
1633.52
1666.48
-613.986
-1052.49
1908.31
-1898.13
-10.1789
227.517
-609.54
-368.084
556.361
-786.235
-335.273
-328.108
1020.66
712.681
-1534.9
822.223
249.241
-26.1812
1625.22
-1126.88
419.299
-1291.45
497.86
-62.3434
1526.97
1196.78
-470.559
-485
-73.2338
-246.959
736.101
-1951.62
-705.283
364.994
-530.262
165.267
189.987
-502.871
1139.97
671.647
-1811.62
-625.652
149.704
941.46
-1497.21
-210.547
678.688
-468.141
889.986
1110.01
-749.548
1353.92
645.026
-548.902
-96.1248
-336.72
1180.98
1072.34
-1982.6
910.264
-1181
536.261
1488.66
-586.678
-418.148
-121.904
-1248.03
567.073
1175.68
-44.3224
946.352
776.238
-1722.59
-190.719
578.96
-1541.69
962.734
487.037
916.292
-1403.33
635.16
579.107
415.766
-1106.58
588.58
1114.97
1214.87
-452.023
-762.848
-1186.2
-1754.93
-2.93409
-1729.11
-176.578
-464.991
1613.49
-637.987
-975.508
-490.79
1121.1
-1323.85
631.748
692.106
-1366.67
1451.25
-1336.69
587.142
1520.42
-435.847
-580.93
162.783
-1516.01
229.382
176.39
207.675
437.352
470.942
408.569
-879.51
506.495
-938.666
899.749
-1444.74
-721.167
214.874
506.292
-1057.01
449.962
-492.342
866.754
694.585
13.2568
-529.325
148.283
-886.57
-1318.76
-709.951
344.236
365.715
394.534
-720.135
325.601
-471.473
-189.347
-708.011
729.016
1540.37
-594.021
831.383
737.1
1344.53
-844.415
-970.699
-570.995
-791.697
428.9
362.797
-1034.92
-636.026
297.792
338.233
-1433.68
-296.776
-786.197
393.364
392.833
-666.358
438.419
227.939
-688.977
250.612
412.83
484.482
389.779
437.163
476.2
384.311
594.649
-967.739
704.518
457.163
451.1
355.781
-806.881
1630.71
-1079.78
-550.923
-505.041
-298.105
-1033.58
450.587
347.43
409.773
592.04
-1001.81
-1386.68
748.693
-524.971
1150.54
356.983
-36.6345
412.559
-861.924
449.365
-1909.92
295.507
438.214
-722.6
284.385
-192.369
397.126
-204.756
-657.382
296.599
360.782
-668.118
313.767
370.58
387.355
611.302
-1019.43
750.948
666.081
-1417.03
438.881
623.861
336.664
391.424
-728.088
404.899
327.79
625.22
711.75
427.764
625.486
-1047.82
422.336
-1694.76
1155.63
539.13
1696.54
-539.188
617.182
-1146.54
529.355
-638.282
344.218
437.736
-932.408
494.671
800.732
-495.958
350.416
339.568
602.732
-939.781
654.664
-1251.92
597.256
415.448
733.423
-1223.9
768.198
510.204
-1278.4
509.307
394.41
-903.717
-501.865
-936.059
-290.16
629.362
352.416
539.915
-892.332
328.182
330.868
-502.197
1944.73
435.127
-844.709
409.582
-917.439
-808.829
-743.619
362.2
-1242.87
431.131
-1751.5
1620.13
131.377
1755.99
-1611.66
-144.327
-780.188
-584.96
258.677
326.283
-1782.1
2007.14
539.359
790.154
-1329.51
440.185
715.397
689.438
385.6
-1075.04
0.18661
1617.14
-594.107
384.978
870.787
-643.557
322.245
321.312
-378.636
-295.411
545.196
-208.535
432.603
275.369
-658.1
382.731
257.305
-570.602
-276.801
442.881
-1031.72
588.838
538.083
1092.62
365.936
595.349
308.022
349.649
-657.67
1653.69
-941.01
1692.9
-1521.68
-171.223
-327.655
-819.238
409.843
857.083
-1067.63
-599.804
272.259
-1090.5
1628.58
-1613.61
-71.7627
1685.37
-341.127
-350.075
-370.326
541.535
592.873
-500.217
-22.4809
-549.423
497.79
-282.807
-214.983
1776.63
-1320.45
-618.373
293.33
325.042
396.658
357.329
734.028
-289.932
-399.383
-1755.99
1693.64
459.882
-1099.66
639.776
-40.7357
1674.26
570.478
476.215
-1046.69
102.726
1144.08
-1451.93
-5.58383
-1904.34
220.042
-592.108
305.873
286.235
-954.193
611.463
-895.123
464.758
-1127.48
671.963
455.516
402.046
255.628
-785.952
-362.753
1215.36
885.822
699.603
-1182.4
456.158
726.245
494.799
699.381
-1194.18
-414.661
-248.143
400.63
-958.285
439.129
519.156
21.1991
-1880.06
1080.2
-479.26
-516.794
559.152
-1377.91
818.756
-441.198
799.433
-405.794
507.447
-720.653
1707.27
400.217
-172.617
211.775
-159.119
-246.178
405.297
1895.35
-504.139
-1717.12
1050.18
-594.506
299.095
-1011.67
551.04
-311.956
544.531
904.808
-1449.34
-1102.53
437.18
-21.2651
-1946.83
1721.19
-648.851
-538.732
460.953
-1189.77
728.816
197.547
196.593
-277.708
776.523
697.133
835.411
815.386
-459.604
1083.74
-522.225
468.833
-184.93
-283.903
-1925.68
-712.468
-316.739
-639.576
-6.2921
645.868
456.396
-271.173
572.634
1081.06
-818.418
922.218
1243.63
-425.873
-117.287
-289.767
407.054
948.75
-888.193
-307.415
-1066.36
609.764
1568.1
-812.626
537.95
934.463
-405.621
735.329
-329.708
1129.62
-272.754
377.977
1349.31
-708.818
-211.632
448.374
-1198.06
749.684
-962.937
-194.417
1157.35
438.574
-953.501
514.927
152.706
731.988
482.883
749.369
-166.304
849.723
-426.316
1181.64
-796.038
552.654
-1465.31
912.659
-1216.63
1800.98
-431.705
-1510.19
879.139
-1401.69
-317.745
-465.609
1456.96
-1529.31
782.306
1491.36
193.5
275.333
-369.313
-1751.5
-275.056
-1029.26
1601.9
-1791.23
1791.23
1588.17
-1004.25
-629.665
-352.976
368.281
603.876
-423.514
-377.03
-1389.59
897.066
1125.04
600.677
1202.14
1789.49
-1216.41
-626.654
271.466
1659.33
-1916.93
257.608
816.465
-1268.25
1545.13
-561.701
799.843
343.604
-372.508
555.866
793.522
621.158
1405.09
-279.791
-445.758
-386.274
492.513
-336.551
472.119
735.372
-313.934
-127.162
-351.142
571.73
-220.588
35.5201
-368.749
1107.29
-1720.28
-479.734
-508.165
-572.42
863.342
704.754
-1596.23
904.369
-452.312
-638.436
-515.778
1251.55
360.5
1723.92
-1702.72
-1664.26
1898.13
-1560.56
840.056
720.502
-412.457
-1801.64
918.06
584.386
818.076
-382.855
1794.63
-681.243
-464.549
716.105
442.902
-1159.01
-1103.02
444.279
752.503
-1617.1
473.302
900.786
166.006
-389.976
223.97
-1617.58
-393.733
-479.224
990.136
-686.027
1442.76
-966.149
1856.13
241.098
-561.52
488.028
-294.528
474.348
893.297
543.477
976.943
-463.613
-427.824
574.501
882.464
-1392.69
-40.994
1586.97
-849.868
519.981
971.382
-1475.74
-1115.89
1793.18
-1244.31
-548.871
1205.96
-319.46
-886.496
-182.162
443.911
-261.749
-457.204
-250.125
420.432
-170.307
134.979
-383.122
1750.17
-1753.11
-480.063
-530.895
-903.414
432.773
-195.976
-236.797
629.334
-502.076
-413.659
-316.955
730.614
-982.553
473.976
-1166.77
675.983
407.104
-653.45
-441.238
1592.85
-877.089
530.206
-458.563
-568.643
-463.077
355.898
-345.055
-10.8433
-1140.19
416.214
-665.161
-1033.43
1698.59
-624.182
-1425.61
710.079
562.404
-1596.23
1033.83
-425.191
-487.333
157.345
570.618
-1258.21
742.431
539.283
1005.85
-2133.16
999.979
1133.18
-387.126
404.25
-378.91
-25.3396
1477.94
-382.261
449.669
1139.45
582.849
905.811
565.553
528.256
-1093.81
154.452
-463.257
-1709.44
236.766
1127.46
-633.991
518.739
1013.47
-1532.2
1092.75
-1643.67
197.943
724.663
566.788
-874.203
-1086.21
-164.781
418.093
-253.312
-585.912
-453.397
-636.576
-621.491
343.783
-1620.13
939.02
-477.261
214.381
-386.998
526.683
-306.641
-632.344
1196.88
-1327.27
953.14
374.134
-1033.85
-396.401
-769.617
-835.657
1699
-477.523
1800.34
-1594.41
-205.929
-1556.55
1018.58
537.968
-736.711
-250.53
430.832
-180.303
-612.887
384.572
266.112
-650.684
-524.521
1010.89
623.67
-351.411
-1620.19
1050.42
571.837
1103.44
-1675.28
-439.63
-281.29
-376.092
-754.932
-514.398
-331.176
491.518
1557.97
-995.567
-773.646
1497.43
655.388
-323.286
725.884
1152.34
-1878.22
311.271
311.673
-487.703
-1935.61
1722.28
213.332
732.891
-475.31
-257.581
531.889
1060.71
-1592.59
355.898
-1734.7
-233.217
1752.37
-1580.63
1073.7
506.928
-1740.06
5.36076
-522.218
404.25
1701.01
-1722.28
939.102
625.636
-1564.74
368.263
-214.392
-153.871
-442.761
-246.216
60.279
94.0484
-344.578
-421.14
-448.918
-400.056
207.686
1510.12
379.225
-194.008
-472.35
451.788
-189.326
335.229
1510.66
965.801
-195.409
-770.392
-1104.01
1704.96
-1729.02
1063.86
-707.644
-1021.37
-1265.06
1844.98
-579.921
1155.04
-1771.3
616.262
266.051
-877.425
1676.03
43.3941
-1719.43
-491.202
-1082.91
-1750.17
-979.968
552.144
1019.46
590.308
1132.94
-1723.25
274.783
-508.327
698.408
-384.64
413.035
924.052
682.349
-376.515
-671.307
582.966
1072.44
-1655.4
-410.614
-358.877
769.491
428.665
-1662.7
1521.68
141.026
577.651
-1042.76
544.769
1083.81
-1555.57
993.87
-230.399
214.112
342.249
1908.31
461.437
-54.769
995.839
722.75
-1718.59
-696.492
1085.22
-1557.43
155.172
-569.072
189.475
262.313
-686.29
-556.582
582.766
1034.37
-710.615
-267.921
-1368.13
672.769
695.36
-402.759
707.618
148.439
-856.058
562.485
-137.214
1557.48
-202.508
284.837
-780.614
-1935.61
1664.59
1011.27
301.227
300.758
499.974
-929.695
-995.983
-1767.26
629.866
1693.75
500.107
-474.827
1210.2
1086.98
-424.923
1028.8
-975.929
485.731
490.199
701.038
1047.86
-1748.9
476.748
489.194
-1493.83
-744.407
36.9649
775.758
-413.558
-891.309
374.515
-540.5
-800.411
565.98
-578.432
1397.19
1055.19
187.095
230.999
-550.699
1618.47
-776.525
1527.47
-1727.83
575.326
1152.51
535.698
-881.049
-1733.31
1916.93
-183.626
1721.72
172.738
-546.889
357.749
-263.701
-481.743
1210.56
568.274
1128.27
-491.068
419.631
854.341
-453.535
-770.278
437.367
332.911
1419.79
1089.5
-518.415
1422.78
-510.429
-532.838
1043.27
-602.844
547.243
-1252.71
1692.9
1839.56
-687.223
1586.2
-647.101
-1240.44
715.917
-563.081
193.06
-378.048
442.638
-233.297
-516.946
-1246.7
1870.96
-624.259
1173.17
-555.986
1120.22
-1659.41
1711.69
-574.014
-549.282
-549.862
1720.07
-315.832
-688.138
-473.472
1223.16
-1693.54
-1860.12
613.423
390.642
-980.696
158.683
205.22
-1719.02
1204.12
514.901
1162.83
558.889
-513.788
-465.472
1191.72
183.778
213.348
588.449
1251.11
-539.19
-1238.57
1777.76
-1025.17
999.983
866.78
-204.025
-1659.33
1702.72
-510.236
1411.02
-1733.31
-308.949
-46.666
355.615
-249.314
581.791
-332.477
143.696
495.53
778.251
-383.717
1257.5
1270.46
-413.381
848.558
-438.716
1817.59
-662.551
1586.71
-1723.92
-412.843
-787.914
347.665
440.249
-561.871
-563.715
79.7518
-1138.5
-985.054
-670.674
1655.73
-943.695
-1189.47
203.923
-441.473
-646.764
705.808
1167.43
650.163
1410.22
-592.148
1636.7
1317.89
-575.46
-482.905
188.377
-503.347
1396.64
1239.83
-567.06
-999.977
889.278
61.4668
-950.745
603.399
-506.242
1403.31
1495.03
-589.216
-352.207
352.207
-589.662
1623.49
1238.97
-486.465
1134.11
-54.2876
1854.57
-377.859
1489.44
-589.692
-507.71
1347.77
-649.113
1218.41
-569.297
1554.8
-592.064
773.55
573.923
-1347.47
-683.978
267.047
535.593
601.149
-1957.28
-1016.86
1586.71
357.154
-357.154
-55.4893
381.458
438.448
372.713
37.1035
-278.062
962.417
-546.969
-428.818
810.276
-236.272
613.679
-417.2
1563.69
-444.353
-883.912
175.595
223.372
-398.967
601.176
1250.76
-1851.93
924.281
-459.523
-345.055
126.145
-1943.06
1816.92
-444.533
168.57
1180.88
-440.526
-740.354
-288.516
-602.793
-497.451
-378.91
-471.195
256.212
1157.63
-564.753
231.472
-368.305
136.833
-23.0124
-107.687
1375.93
-1268.25
34.6567
-595.181
-586.547
-444.276
444.276
-1262.33
1985.08
-1344.28
-199.336
-1827.53
233.125
-1025.75
-974.245
-176.659
-1640.38
710.687
1229.32
-1925.05
360.132
318.278
-678.41
-1850.03
1234.27
615.76
-558.325
558.325
-958.793
-40.0258
-1866.16
-558.195
1650.82
-675.06
1636.19
-601.821
-193.069
-1711.27
-577.399
-487.156
-594.893
-459.373
459.373
-1537.81
194.531
1343.28
162.982
221.44
-384.422
521.032
444.768
994.956
-475.8
1751.28
768.549
-414.541
389.201
524.055
1702.07
-594.783
-553
1636.81
460.941
1812.85
-645.428
-1804.69
-1938.07
-647.164
-472.699
472.699
-592.471
206.197
-720.893
1017.67
-466.633
-1077.55
-294.94
1579.55
1852.29
1635.39
-1635.39
-322.811
740.151
1761.53
595.809
1275.15
164.045
204.218
622.424
593.709
1603.48
-1603.48
214.727
-360.003
-440.232
449.408
949.482
-463.751
-638.224
-1130.93
1706.25
273.595
-1682.48
640.013
-287.824
460.562
1744.65
-592.143
-211.36
-485.618
374.004
740.968
1738.58
-613.539
-511.802
-784.869
1960.55
-870.464
-1090.08
1642.68
-702.428
1223.95
-1824.97
601.013
395.346
-956.867
-184.803
-100.429
1096.96
-487.196
143.734
652.615
-1679.76
425.556
618.724
-1804.69
-583.305
1787.42
882.92
-1162.86
1760.5
-597.637
1783.83
-575.565
-1208.26
428.495
936.636
-1753.11
924.342
-1466.23
216.342
1249.89
-831.754
-1254.22
-370.068
72.4241
297.644
581.789
262.268
1036.87
-435.524
843.68
-408.155
819.764
743.011
-1562.77
644.818
1066.59
-23.8739
-660.901
684.775
-1744.54
723.166
713.337
150.52
-1122.57
1936.79
-674.572
-1262.21
-537.19
1665.46
841.903
968.955
-1810.86
1227.86
683.39
-410.379
706.978
855.163
1026.4
-587.823
1761.53
625.26
1773.56
-1185.57
-587.988
-436.552
-332.994
769.546
121.457
-1185.52
1660.52
-540.291
-1437.76
1437.76
1250.55
594.429
1351.32
206.647
-571.355
278.988
-180.503
699.195
1113.66
473.237
-289.459
-869.032
-575.71
1747.74
-1747.74
974.462
-974.462
987.341
1025.17
-2012.52
1837.96
-614.012
-581.13
869.095
-947.858
-1052.17
998.081
691.693
-1689.77
-510.754
-396.864
-660.621
-808.443
2042.71
-1246.41
-613.714
1002.98
974.862
1289.78
647.008
319.772
1012.69
266.875
342.727
1186.19
1756.9
-1756.9
671.209
79.3335
-383.455
-997.063
-539.997
1674.11
988.319
1011.68
-1833.32
-216.026
-361.373
609.178