/*--------------------------------*- C++ -*----------------------------------*\
  =========                 |
  \\      /  F ield         | OpenFOAM: The Open Source CFD Toolbox
   \\    /   O peration     | Website:  https://openfoam.org
    \\  /    A nd           | Version:  7
     \\/     M anipulation  |
\*---------------------------------------------------------------------------*/
FoamFile
{
    version     2.0;
    format      ascii;
    class       volVectorField;
    location    "36";
    object      U;
}
// * * * * * * * * * * * * * * * * * * * * * * * * * * * * * * * * * * * * * //

dimensions      [0 1 -1 0 0 0 0];

internalField   nonuniform List<vector> 
115546
(
(1.02572 -0.0396292 1.97917e-22)
(0.999987 -5.69842e-07 -2.02908e-25)
(0.988678 -0.00932961 2.13451e-22)
(0.997169 -0.00302906 -3.57089e-23)
(1.00139 -0.00340354 4.53988e-24)
(0.999244 -0.00112226 9.79098e-24)
(1.01074 0.0969559 -8.69077e-21)
(1.03999 -0.0774698 3.17024e-22)
(0.999747 -0.000363602 -3.21785e-25)
(0.999987 -4.90233e-07 4.23312e-26)
(0.999799 -1.87577e-05 2.74617e-24)
(1.00013 -9.85441e-05 2.48087e-24)
(0.998875 -0.00368404 -1.34763e-23)
(0.934961 -0.00433118 -7.49277e-22)
(0.999745 -0.000372874 3.2431e-24)
(0.942807 -0.019623 -1.74939e-21)
(0.99989 -0.00028043 1.98392e-25)
(0.999695 -0.000196794 -4.51236e-24)
(0.988933 0.093094 1.07601e-20)
(1.00143 -0.00344647 2.48823e-23)
(1.04482 -0.0786566 2.9542e-21)
(0.995496 -0.000134947 -1.63957e-23)
(0.999645 -0.000264668 -4.43474e-24)
(0.995637 -0.00438872 -2.46721e-23)
(0.931029 0.025823 1.03349e-20)
(1.10445 0.0262771 1.97957e-21)
(1.27272 0.04317 1.46997e-21)
(1.01471 -0.00354844 7.39454e-22)
(0.999982 -4.38845e-05 -4.19902e-25)
(1.01004 0.158904 -1.00991e-20)
(0.999888 -3.84094e-05 1.67147e-24)
(1.04176 0.00969505 7.09284e-22)
(1.00589 -0.00906744 -1.7157e-23)
(0.988421 -0.00492041 -1.94445e-22)
(0.919882 0.0699297 4.72462e-21)
(0.998429 -0.000942947 6.1127e-23)
(1.01442 0.106712 1.4951e-21)
(0.999889 -0.000287098 -4.97755e-26)
(1.22965 -0.153776 5.33341e-22)
(1.0195 0.0576603 1.33599e-20)
(1.04221 0.0101932 -1.37814e-21)
(0.999691 -0.000204002 -9.24314e-25)
(0.985703 -0.0170824 -4.08854e-22)
(0.998434 -0.000914058 -4.34252e-23)
(0.970723 -0.0461907 -7.43394e-23)
(0.935343 -0.00389599 7.80608e-22)
(1.00485 -0.0110786 7.54924e-23)
(1.00453 -0.000554223 6.26246e-23)
(1.00006 -0.00547083 -4.26414e-24)
(1.00012 -1.08141e-05 -1.18531e-23)
(1.00001 -1.15346e-06 -9.13747e-26)
(0.997188 -0.000125727 4.95237e-23)
(1.03041 0.0107622 2.37952e-21)
(0.999989 -3.27278e-07 -3.22194e-26)
(0.998435 -0.00646835 5.96056e-23)
(1.03007 0.0110232 -6.22907e-22)
(1.02424 0.0006371 1.68904e-21)
(0.967162 -0.0321644 -2.21481e-22)
(1.20756 0.040877 -9.92184e-22)
(0.991322 -0.0115247 4.74238e-22)
(0.999937 -0.000156789 1.81132e-25)
(0.995564 -0.00465069 2.12841e-23)
(0.999388 -3.545e-05 -8.74005e-24)
(0.98515 -0.00811302 5.84102e-23)
(0.999943 -4.12083e-05 -1.02753e-24)
(1.00077 -6.41008e-05 -3.11789e-24)
(0.99906 -0.00336845 5.5804e-23)
(1.0321 -0.00290408 1.3461e-21)
(1.28926 0.0828628 -3.6712e-21)
(1.02475 0.000301478 6.88695e-22)
(1.05484 0.10623 3.67277e-21)
(1.19728 0.100519 -5.19069e-22)
(1.0196 0.0568194 5.91678e-21)
(0.964538 -0.00299212 -1.48814e-22)
(1.01625 -0.0495845 -2.33554e-22)
(0.976598 -0.00770278 -8.16187e-23)
(1.14139 -0.0234816 2.9729e-22)
(0.999403 -0.00195303 -1.92054e-23)
(0.998729 0.0513794 -3.44774e-21)
(1.10214 -0.0036475 -4.42587e-23)
(1.10277 -0.00198765 2.12134e-22)
(0.999954 -2.81043e-06 4.24942e-26)
(0.973076 -0.101956 1.23612e-21)
(1.01407 -0.000816842 -3.33573e-22)
(0.997198 -0.000797403 3.07631e-23)
(1.00012 -9.55029e-05 2.48401e-24)
(0.98493 -0.0127414 -2.72729e-22)
(0.999988 -1.57016e-05 2.36187e-26)
(0.974272 -0.00814085 -1.76078e-24)
(0.999991 -2.57066e-05 -2.70063e-25)
(1.24244 -0.0849439 4.61058e-22)
(0.990836 -0.00491078 1.19722e-22)
(0.999981 -4.4033e-05 4.75416e-25)
(0.998818 -0.000838319 4.49014e-23)
(0.999624 -0.000249994 -7.70239e-24)
(1.00027 -3.98664e-05 3.94969e-24)
(0.999698 -1.29719e-05 -1.49475e-24)
(0.973773 -0.10139 6.04032e-23)
(1.14955 -0.0933896 4.15667e-22)
(0.974402 -0.00790745 -1.28233e-22)
(0.999936 -0.000160309 -2.82738e-25)
(1.01811 -0.0061256 -7.65725e-22)
(1.00204 -0.0100574 1.37301e-23)
(1.00208 -0.00014059 -2.36103e-25)
(1.05392 0.104647 2.45588e-21)
(1.00542 -0.0720982 1.00715e-21)
(1.00993 0.0571344 -3.96516e-21)
(0.978769 -0.0641606 8.3296e-22)
(0.995125 -0.0233703 8.37275e-23)
(0.999986 -5.02333e-05 5.56672e-25)
(1.12023 0.00571516 -2.90054e-22)
(0.999702 -1.70027e-05 5.89241e-25)
(1.14265 -0.0215658 -1.74294e-22)
(0.996486 -0.0165928 -3.62526e-22)
(0.829875 0.0604788 -2.17548e-21)
(0.999702 -0.00985103 -1.7541e-22)
(0.999797 -1.58957e-05 -5.10646e-24)
(1.06845 0.106816 -4.44887e-21)
(1.00002 -1.38209e-05 2.90565e-25)
(1.19821 0.0973231 4.3345e-22)
(1.0679 0.108958 6.33966e-21)
(0.94224 -0.0200229 7.23584e-22)
(0.989037 -0.00982813 1.85106e-22)
(1.17564 0.0155286 -5.57524e-22)
(0.99999 -6.05383e-07 -3.17255e-26)
(1.01024 0.157383 1.16286e-20)
(0.995587 -0.00477768 -2.28614e-23)
(0.910189 0.145097 -6.24818e-21)
(0.998555 -8.58265e-05 8.97654e-25)
(1.02208 -0.000516567 -1.02484e-21)
(1.03785 -0.0482298 4.68301e-23)
(1.00019 -2.56402e-05 3.5309e-24)
(1.09342 0.12021 -2.5728e-21)
(1.00012 -9.05932e-05 -7.55783e-24)
(1.00002 -1.17662e-05 1.45155e-25)
(0.98766 0.106719 1.72533e-20)
(0.938693 0.0681607 -2.83255e-21)
(1.00588 -0.00923516 -2.0011e-23)
(0.998532 -0.00651705 -8.41841e-23)
(0.995613 -0.00459209 2.10684e-22)
(1.12547 0.20338 2.55752e-21)
(0.999964 -0.0093999 -6.58448e-23)
(1.00005 -3.40026e-06 -4.9543e-24)
(1.03735 0.0152619 3.08853e-22)
(1.03838 -0.0470559 -4.98471e-22)
(1.00001 -1.18869e-06 9.11327e-26)
(1.00951 -0.0129046 -2.26304e-25)
(0.995525 -0.00484326 -6.78403e-23)
(1.03182 -0.00262019 -2.08349e-21)
(1.00068 -0.00166777 -2.04128e-23)
(1.00456 -0.0713797 -7.65818e-22)
(0.970235 -0.0462019 5.22372e-22)
(0.990895 -0.00478819 7.65597e-23)
(0.99999 -7.96047e-07 1.51842e-26)
(0.997227 -0.000118715 2.84996e-23)
(1.00668 -0.00726073 1.45992e-22)
(0.999986 -5.11355e-05 -7.55334e-25)
(1.09842 -0.0253396 -1.31869e-22)
(0.977831 -0.000556782 -8.35056e-24)
(1.00427 -0.0985429 -5.82642e-22)
(0.976862 -0.00791018 4.43981e-22)
(1.00939 -0.0126965 1.38513e-22)
(0.999399 -3.28631e-05 -6.43397e-24)
(0.997742 -0.0520741 8.38345e-23)
(0.994599 -0.0141344 -1.64104e-22)
(0.999254 -0.000439394 -2.67151e-23)
(1.02382 -0.0111612 3.72311e-22)
(0.990587 -0.0279505 -4.26598e-23)
(1.10011 -0.025761 3.14335e-22)
(0.993867 -0.0141276 1.99837e-22)
(0.992158 -0.0123227 3.46299e-22)
(1.00487 -0.0108907 -4.18546e-23)
(1.25291 -0.0958529 3.05425e-21)
(0.93751 -0.0157458 -1.23509e-21)
(0.997123 -0.044637 5.21161e-23)
(1.02707 -0.00273185 -4.44909e-23)
(0.937613 -0.0148238 2.73065e-22)
(0.998215 -0.00219209 3.90825e-23)
(1.00693 -0.0130972 2.03298e-22)
(1.00004 -0.00538068 -9.11885e-24)
(1.01147 -0.00878841 4.99032e-23)
(1.01683 -0.0491892 -3.05177e-22)
(0.981682 0.0966248 -4.78943e-21)
(1.03342 0.0147278 1.38311e-21)
(1.00906 0.0559138 9.36816e-21)
(0.999692 -0.000684739 -5.27844e-25)
(0.996815 -0.0025411 4.21804e-23)
(1.00002 0.00041783 -1.66816e-21)
(1.02446 -0.0199273 5.86274e-22)
(1.23975 -0.0861179 -2.41559e-21)
(0.998272 -0.00219268 1.22117e-23)
(1.00004 -0.00893099 4.50703e-23)
(0.994632 0.0403782 -7.13334e-21)
(0.98106 -0.0166337 8.12898e-22)
(1.10275 0.0262703 -2.66766e-21)
(0.992312 -0.0851929 -6.47477e-22)
(0.937118 -0.0144366 -8.29058e-23)
(0.991686 -0.000218455 -2.00932e-22)
(0.978537 -0.0135169 -5.94164e-22)
(1.00461 -0.0326495 -2.26898e-22)
(1.02472 0.0147765 1.89252e-21)
(1.00288 0.0706642 5.7089e-21)
(1.01319 -0.00862515 1.41999e-22)
(0.999987 -2.26776e-05 1.92447e-25)
(0.996935 -0.00217165 3.62808e-24)
(0.973009 -0.0150488 -3.12026e-22)
(0.999443 -0.000762242 -1.36259e-23)
(0.999945 -4.15023e-05 7.92899e-25)
(1.02466 -0.00591435 -2.45936e-22)
(1.01328 -0.0577973 1.83169e-21)
(0.937196 -0.013548 6.82572e-22)
(1.01105 0.0572892 -2.42708e-21)
(0.933845 0.0272991 -7.66091e-21)
(0.999992 -2.59533e-05 -3.817e-26)
(0.999454 -0.0243616 -4.52368e-22)
(0.980881 -0.0168581 -4.04653e-22)
(1.06821 -0.0228159 2.89235e-22)
(1.0052 -0.0106164 1.15384e-22)
(0.93506 -0.00300144 4.55035e-22)
(0.999878 -0.000182262 2.17468e-25)
(0.981684 -0.033485 -2.16397e-23)
(0.983657 -0.0159355 2.46119e-23)
(0.999938 -0.00690193 5.41917e-24)
(0.976935 -0.000715242 2.56577e-22)
(0.999989 -4.12983e-07 4.58793e-26)
(0.958952 0.0912697 7.35609e-21)
(1.00419 -0.0160666 3.55168e-23)
(0.977518 -0.0118102 -6.10621e-22)
(0.992785 -0.0841584 -3.65344e-22)
(0.970624 0.0416791 4.07016e-21)
(1.01646 -0.00427528 -7.66884e-23)
(0.973729 -0.0358278 8.70116e-23)
(1.11739 0.195353 -2.15733e-21)
(0.986252 -0.0266986 -3.86447e-22)
(1.0404 -0.0502016 2.8668e-22)
(1.02442 0.0149643 2.86004e-21)
(1.00032 -2.9665e-05 4.17769e-24)
(1.00063 -0.00811214 -2.93525e-23)
(0.987865 -0.0291233 1.4392e-22)
(0.997127 -0.000185247 -6.43331e-23)
(1.21263 -0.0711772 4.55701e-21)
(1.01569 -0.0353347 3.57721e-24)
(1.00489 -0.0997009 7.6862e-22)
(1.14997 -0.096108 -2.17529e-21)
(0.998505 -7.41501e-05 -4.16935e-23)
(1.00067 -0.00193333 -1.36368e-24)
(1.03786 0.00277165 1.76711e-21)
(0.975217 -0.00187599 -5.1886e-22)
(0.990947 -0.0280195 -1.31342e-23)
(0.949199 -0.0335851 -3.84009e-22)
(0.999272 0.0121651 -3.8938e-21)
(0.998927 -0.00115425 -3.42879e-24)
(1.0208 0.00154911 -8.59944e-21)
(1.00003 -0.00226921 -1.07204e-24)
(0.907105 0.136478 -1.13297e-20)
(1.01169 -0.0086771 -2.91316e-22)
(1.16324 -0.0221857 1.59225e-21)
(1.01472 -0.000831858 3.13864e-22)
(1.00021 -4.39936e-06 2.31422e-23)
(1.04039 -0.0790009 5.42039e-23)
(1.0118 -0.00840113 -7.01876e-22)
(0.935457 -0.00255056 -2.79086e-22)
(1.03386 0.0153881 -1.95395e-21)
(1.21462 -0.169141 -1.15129e-21)
(0.9949 -0.0235861 6.5684e-23)
(0.997232 -0.00305379 1.23976e-22)
(1.17282 0.0150685 -5.13302e-22)
(0.99857 -0.000197883 4.49862e-23)
(1.13775 -0.00722961 1.08768e-22)
(1.14327 -0.0362001 -1.51279e-22)
(0.999945 -2.14015e-05 -3.17158e-26)
(1.02462 -0.0194824 -1.44514e-22)
(1.00012 -0.00527178 -1.45364e-23)
(1.01605 -0.0357321 1.77721e-22)
(0.999006 -0.00280866 -4.96815e-23)
(0.98418 -0.0128537 -1.34142e-22)
(0.971502 -0.0434101 5.1422e-22)
(0.997748 -0.0445741 3.66637e-23)
(0.998357 -0.0086383 1.07072e-22)
(0.979514 -0.0641585 -7.02801e-22)
(0.99816 -0.052483 -1.98914e-22)
(0.998528 -6.51451e-05 -3.11044e-23)
(1.00002 -0.00128091 9.62878e-25)
(0.973261 -0.0147767 1.69613e-22)
(1.00001 -0.000594415 2.86076e-24)
(1.00919 -0.00650289 4.34284e-22)
(0.960793 0.0901615 4.21551e-21)
(1.0222 0.000643855 -4.23619e-21)
(0.975152 -0.105553 -7.26256e-22)
(1.22627 -0.14613 5.01397e-22)
(0.971047 -0.0431757 1.16224e-22)
(0.999989 -2.01566e-05 1.74858e-25)
(1.21035 0.025847 -8.2121e-22)
(1.01104 0.0564536 -2.33927e-21)
(0.999914 -0.000363386 -5.36525e-26)
(1.01435 -0.00835638 -4.10055e-22)
(0.998894 -0.00129959 -2.96472e-23)
(1.04424 0.00882538 1.06512e-21)
(1.00011 -0.00353631 4.0073e-24)
(1.14649 -0.036165 -4.3497e-22)
(0.93644 -0.0110209 -3.66057e-22)
(0.992632 -0.0404205 1.66502e-22)
(1.29732 -0.0443707 -1.35983e-21)
(0.995057 -0.00643348 -1.2907e-22)
(0.981039 -0.041682 -8.86071e-23)
(1.08715 -0.00322491 2.61634e-22)
(1.01985 -0.0433877 4.0903e-23)
(0.977641 -0.0116278 4.09459e-22)
(1.132 -0.199644 -3.63704e-21)
(1.00703 -0.0129415 -3.47378e-24)
(0.997797 -0.00146181 -3.62415e-23)
(1.07829 0.14224 5.13176e-21)
(1.09889 0.16726 3.51621e-21)
(0.988224 -0.0291754 -4.0291e-22)
(0.998792 -0.00371101 6.84744e-23)
(1.00207 -0.0097017 -6.6816e-25)
(0.9936 0.0446796 -1.12734e-20)
(1.00065 -0.00195798 1.37277e-23)
(0.995746 -0.00440974 1.08021e-22)
(1.21074 0.0126414 2.30441e-22)
(1.06878 -0.0385787 -6.35428e-23)
(0.999881 -0.000187115 -1.77138e-24)
(1.01298 -0.00876701 -1.10745e-22)
(0.832879 0.0573971 3.8476e-21)
(1.09202 0.00562535 -1.37655e-21)
(0.977542 -0.00462295 -6.43122e-22)
(1.00684 -0.0072102 -2.11979e-22)
(1.04057 0.0063773 1.31051e-21)
(0.935932 -0.0105806 7.08828e-22)
(1.21099 0.0288485 1.22878e-21)
(0.997807 -0.00151985 2.57293e-23)
(0.999989 -2.07748e-05 -3.31927e-25)
(0.99971 -0.000726942 7.09045e-24)
(0.998911 -0.00128066 4.64844e-23)
(0.860588 0.0172008 2.50822e-21)
(0.997401 -0.00359794 -8.95006e-23)
(1.10438 -0.0188124 -1.12019e-23)
(0.999948 -2.05348e-05 6.38817e-26)
(0.99923 -0.00110198 -1.28831e-24)
(0.996796 -0.0024871 -5.26953e-23)
(0.989982 -0.0101946 -1.76034e-22)
(1.06188 9.04064e-05 -3.07595e-21)
(1.27658 0.0422245 -6.16306e-22)
(0.985521 -0.00760665 5.65194e-22)
(0.99318 -0.00796097 7.00918e-23)
(1.00137 -0.00254492 -8.21073e-24)
(0.998285 -0.00874141 -6.6112e-23)
(0.897702 0.141925 -1.9732e-22)
(0.974848 -0.0212249 1.0577e-21)
(0.998774 -0.00838917 2.90504e-23)
(1.09136 0.118821 1.33948e-21)
(1.01726 0.022968 -2.66031e-21)
(1.01166 -0.00819498 6.34709e-22)
(0.997849 -0.00239013 7.17837e-23)
(1.00416 -0.0327978 -2.98447e-23)
(1.00454 -0.0185321 -9.31634e-24)
(1.02523 -0.0388772 -3.21783e-22)
(1.00001 -2.00771e-06 3.45572e-27)
(0.999479 -0.00123217 2.95713e-23)
(1.02959 -0.0293623 -7.37956e-23)
(1.07901 0.0523105 3.14673e-21)
(0.98049 -0.0475507 1.86865e-22)
(1.0128 0.105569 2.7835e-21)
(0.855231 0.0343077 -2.85788e-21)
(1.1247 -0.0315705 7.62567e-22)
(1.00001 -1.98136e-06 2.68564e-26)
(0.988923 -0.000288063 -3.32222e-22)
(0.987424 -0.0180788 2.27516e-22)
(1.00004 -0.00685735 3.02152e-23)
(1 -3.21518e-06 -5.08094e-26)
(1.07496 -0.102242 -1.02896e-21)
(1.20071 0.17624 -7.91408e-22)
(0.975534 -0.00184886 -5.16584e-22)
(0.999564 -2.20372e-05 -8.58284e-24)
(1.13896 0.00206322 1.50398e-22)
(1.00331 -0.00464729 1.52214e-23)
(1.00195 -0.00985497 5.97251e-24)
(1.00012 -7.9287e-06 1.053e-23)
(0.998975 -0.00124785 -2.55906e-23)
(1.0322 -0.0295323 -2.59536e-23)
(0.973402 -0.0355344 6.45794e-22)
(0.996352 -0.0238019 -1.44371e-22)
(0.995913 -0.0160988 -5.27866e-22)
(1.02988 -0.0299047 -6.83293e-23)
(1.0092 -0.00634303 -2.25306e-22)
(0.999904 -4.82198e-06 -2.36435e-24)
(1.11815 0.191959 4.43949e-21)
(0.946676 -0.0308281 8.38384e-23)
(1.00142 -0.00328654 -2.7298e-23)
(1.031 -0.0666109 -3.11888e-22)
(1.03961 0.00838972 -4.87825e-21)
(1.01992 0.0459984 -6.88664e-21)
(0.984677 -0.0126967 2.03131e-22)
(1.0148 -0.00378788 3.96139e-22)
(0.983878 -0.01591 2.93348e-23)
(0.998542 -0.00164492 -6.73851e-23)
(1.12944 -0.197795 2.24631e-21)
(1.00046 -0.000909422 2.19025e-23)
(1.0001 -0.00518832 2.7791e-23)
(0.984958 -0.00929683 6.15172e-22)
(0.976758 -0.0165413 2.74536e-22)
(0.998505 -0.00177246 7.62928e-23)
(1.03216 0.178662 -2.77269e-21)
(1.02145 0.0552273 5.28249e-22)
(1.17339 -0.18304 1.12673e-21)
(1.08375 -0.0546477 8.53183e-22)
(1.00002 -1.25016e-05 -2.80323e-25)
(0.996053 -0.0092444 4.7441e-23)
(1.06508 -0.0256966 9.14451e-23)
(0.994554 -0.000212472 4.55992e-23)
(0.997235 -0.0187051 -2.68398e-22)
(0.997756 -0.00144638 9.05955e-24)
(1.00144 -0.00253837 -2.42966e-23)
(0.997342 -0.00313265 -8.54587e-23)
(0.997167 -0.000767979 -2.39e-23)
(0.998337 -0.00848761 -3.52951e-23)
(1.00018 -0.00508029 -1.2921e-23)
(1.04982 -0.143271 3.26161e-22)
(1.00004 -1.84071e-05 2.6546e-24)
(1.00892 -0.00598629 -3.90986e-23)
(0.999994 -1.40703e-06 5.12823e-28)
(0.936716 -0.0131581 -9.34643e-22)
(1.00018 -0.000157073 6.03759e-24)
(1.00947 0.127664 6.61243e-21)
(1.09711 0.164996 -1.84943e-21)
(1.03317 0.0351333 -2.35049e-21)
(1.08245 -0.053684 -5.92301e-22)
(1.02817 0.0398352 -2.37136e-22)
(1.02435 0.000591139 2.37597e-21)
(0.998636 -0.00289963 9.89078e-24)
(1.00133 -0.00131861 -3.1652e-23)
(0.999828 -0.000511893 8.22282e-26)
(0.996371 -0.00184615 5.8362e-23)
(0.978027 -0.0117311 2.42529e-22)
(0.995125 -0.00632108 -5.24546e-23)
(0.995898 -0.00928658 1.26475e-22)
(1.02705 -0.0381932 1.33484e-22)
(1.00018 -0.000152252 -7.41872e-24)
(0.999871 -6.59449e-05 -6.51414e-25)
(1.00011 -8.81376e-05 -5.66542e-24)
(0.999373 -0.00191964 2.04316e-23)
(1.02227 -0.000612074 9.70062e-22)
(1.02418 -0.0375579 -2.14888e-22)
(0.984764 -0.00919473 -6.57132e-22)
(1.00001 -0.000578777 -5.91275e-24)
(1.08537 -0.0987115 2.28908e-21)
(1.00065 -0.00186832 4.34322e-23)
(0.999885 -6.55097e-05 -2.45909e-24)
(1.02026 0.0450967 9.81322e-21)
(1.0272 -0.00294928 1.79275e-22)
(1.00115 0.0244924 1.68622e-20)
(1.00004 -2.5351e-05 -2.51679e-24)
(1.00004 -0.000435176 0)
(1.0014 -0.00143382 4.69864e-23)
(0.991095 -0.0285644 1.97155e-22)
(0.996013 -0.00532341 -5.70901e-23)
(1.03182 -0.0960564 -6.38217e-22)
(0.975431 -0.000818995 3.4394e-22)
(1.06586 0.0330819 3.89405e-21)
(0.993547 -0.000163269 4.18503e-22)
(1.03438 0.178538 -1.45182e-21)
(1.00068 -0.00184098 -3.16314e-23)
(1.00138 -0.00323991 3.17722e-23)
(1.00137 0.0390404 -4.49609e-21)
(1.07973 0.140404 -2.13458e-21)
(1.04524 -0.0800627 -1.77598e-21)
(1.00205 -0.00180779 8.57745e-24)
(0.938014 -0.0161256 1.35139e-21)
(0.993483 -0.000205687 -2.40495e-22)
(1.00004 -2.69022e-05 1.07873e-24)
(1.00892 -0.00616412 4.56863e-23)
(0.947476 -0.0317563 -2.12222e-22)
(0.987643 -0.0286908 -3.29064e-23)
(0.964208 -0.00299795 2.60883e-22)
(1.02733 -0.0390034 7.95074e-23)
(1.09066 0.00494457 2.2331e-21)
(0.999994 -1.66399e-06 9.38074e-27)
(1.00211 -0.00177373 -1.67515e-23)
(1.01799 -0.00638225 5.46865e-22)
(1.03589 -0.0174016 -5.78499e-22)
(1.00032 0.13893 -3.3824e-21)
(0.999998 -2.09852e-06 2.01395e-27)
(0.999948 -2.13154e-05 2.23511e-26)
(1.00138 -0.00012457 -8.33458e-23)
(0.987714 -0.0283051 -3.99804e-22)
(0.999503 -0.000751591 1.1213e-23)
(0.999911 -0.000395915 -1.3098e-24)
(1.10494 -0.0263652 1.6934e-22)
(0.905229 0.0171904 -1.02785e-20)
(1.14786 -0.0336787 1.7339e-22)
(1.00244 0.0316999 -4.2372e-21)
(0.98413 -0.00293882 1.46933e-22)
(0.998892 0.0113593 2.50616e-21)
(1.02218 0.00983612 2.94182e-21)
(0.997384 -0.00316947 3.35517e-23)
(1.07263 -0.102492 1.41134e-21)
(0.947116 -0.0189196 1.17684e-21)
(0.996726 -0.0164193 2.59234e-22)
(1.00059 -0.00800065 1.70327e-23)
(0.997402 -0.00589463 7.36776e-23)
(0.998867 -0.000825332 1.36754e-23)
(0.999455 0.0355286 -1.9928e-20)
(0.986689 -0.0265205 -5.7282e-22)
(1.02354 0.126061 3.28376e-21)
(1.02044 -0.0438285 2.8561e-22)
(1.03337 0.0343049 1.30928e-21)
(0.984705 -0.0077065 2.48313e-22)
(0.990176 -0.0102522 -4.60029e-22)
(1.21632 -0.0721219 3.36374e-22)
(1.02251 0.0150154 3.10576e-21)
(0.997906 -0.00240212 -8.08148e-23)
(1.00002 -0.00220213 -3.273e-24)
(0.999988 -0.00228801 5.83998e-24)
(0.99998 -1.34198e-06 -3.67298e-25)
(1.02253 -0.0379175 4.26834e-22)
(0.973415 -0.0524373 -6.93259e-22)
(1.00017 -0.000374458 -9.12854e-24)
(1.05944 -0.0272376 -9.90145e-24)
(0.999753 -0.000601403 1.17436e-24)
(0.999751 -0.000614444 -6.75991e-24)
(1.00162 -0.000209891 -6.50146e-24)
(1.02129 -0.0433334 -1.70122e-22)
(1.00052 -4.43084e-05 -1.55394e-23)
(1.00101 -0.00645317 -3.83728e-25)
(0.981834 -0.00338046 3.20427e-22)
(0.996836 -0.00458597 4.58601e-23)
(0.996376 -0.00190702 -2.04236e-22)
(0.992462 0.0684588 -2.70588e-20)
(1.10793 -0.0661396 -3.05618e-21)
(1.00791 -0.011655 1.66134e-22)
(0.992103 -0.0125547 2.60469e-22)
(0.97705 -0.0324515 -8.46097e-23)
(1.00015 -0.00500307 6.35364e-24)
(1.00002 -2.52663e-05 -9.04517e-25)
(1 -2.52058e-06 -1.66587e-26)
(0.968098 -0.00625697 5.09178e-23)
(0.947373 -0.0184876 -1.20044e-21)
(0.97712 -0.022527 -1.92849e-23)
(1.00002 -2.46284e-05 -2.51318e-24)
(0.988402 -0.00507952 3.67015e-22)
(1.06101 0.000537936 2.88006e-21)
(1.29302 0.0821634 4.46249e-21)
(1.12403 -0.0337008 5.16667e-22)
(0.999955 -3.34501e-06 -3.92595e-25)
(0.978162 -0.0115529 8.10459e-22)
(1.00421 -0.031111 3.7787e-22)
(1.00008 -7.813e-06 -6.13148e-25)
(0.999936 -0.000189874 -5.80172e-25)
(0.975569 -0.000611464 -6.31108e-23)
(1.00135 -0.000122749 -2.74015e-23)
(1.00046 -0.00417459 -3.23603e-24)
(1.01604 -0.0854313 -2.66777e-22)
(1.00032 -3.04507e-05 -1.24387e-23)
(0.96092 -0.0422062 9.4421e-22)
(0.981729 -0.00352744 -3.24325e-22)
(0.984186 -0.00306349 2.61169e-22)
(0.985721 -0.00771409 9.22145e-23)
(1.00115 -0.00648124 -4.08106e-24)
(0.969878 -0.0233694 9.75169e-22)
(1.0002 -0.000350952 1.13197e-23)
(1.00002 -1.07003e-05 -1.18668e-25)
(1.00395 -0.00405301 5.51933e-23)
(1.05825 0.141058 -2.3639e-21)
(0.972829 0.0391047 2.01593e-20)
(1.00888 0.0384689 3.50802e-21)
(1.02384 -0.038053 7.71273e-23)
(0.991567 -0.0106984 -9.21768e-23)
(1.00743 0.0433406 1.88967e-20)
(1.01102 -0.00737656 -8.98257e-22)
(1.00017 -0.000313133 -7.92963e-24)
(1.01987 -0.00105242 -7.40417e-22)
(0.988896 -0.00998703 1.02576e-22)
(1.13972 -0.008362 4.80989e-22)
(0.997432 -0.00580459 9.11548e-23)
(1.02406 -0.000551316 -2.46e-21)
(1.00077 -8.29669e-05 2.79297e-23)
(1.00925 0.0379919 2.37119e-21)
(1.00041 -3.78733e-05 -1.90258e-23)
(0.995944 -0.00573912 3.12863e-23)
(0.984898 -0.00777348 -6.78339e-23)
(1.01271 0.0557971 2.4356e-21)
(1.00021 -7.7648e-06 -2.0645e-23)
(0.988343 -0.0297725 5.32201e-22)
(1.03176 -0.0947216 1.22723e-21)
(1.06753 0.0332836 -3.07106e-21)
(0.99611 -0.0359545 -4.04648e-22)
(0.995888 -0.00527184 8.07112e-23)
(1.15091 -0.0808771 9.35718e-22)
(1.00006 -1.32526e-06 -1.9383e-24)
(1.17525 -0.179896 -4.7015e-22)
(0.996688 -0.00468264 4.93042e-23)
(1.01459 -0.00842936 -6.50175e-22)
(0.991426 -0.0286165 1.87878e-22)
(1.00212 -0.00017358 -1.01024e-22)
(1.20048 0.171407 -2.15028e-21)
(1.02127 0.0561876 -5.41521e-21)
(0.96331 0.072947 9.36816e-21)
(1.02741 0.0394548 7.10752e-22)
(1.07598 0.0814086 2.42027e-21)
(1.14166 -0.0390391 1.18278e-21)
(1.12793 0.20605 -4.64569e-23)
(1.0112 -0.00730436 9.97755e-22)
(1.04412 0.080545 2.94552e-21)
(1.00133 0.0216973 -1.30746e-20)
(1.00039 -0.00421481 -1.06847e-24)
(0.998932 -0.00266587 -2.57505e-23)
(0.978601 0.033955 -2.17622e-20)
(1.00003 -1.70668e-05 -5.01705e-25)
(1.21682 -0.165352 1.39219e-21)
(1.28588 0.100516 1.32357e-21)
(0.985793 -0.012879 4.25872e-22)
(1.0008 -0.00171039 -3.08432e-24)
(1.03541 -0.0169997 -2.02002e-22)
(0.998904 -0.00123919 -2.41405e-23)
(1.00136 -0.00133718 -7.86206e-25)
(0.990653 0.0919984 -4.79632e-21)
(0.922962 0.0712451 8.28744e-21)
(0.999882 -6.67837e-06 -1.50848e-25)
(1.00021 -0.000351179 -1.12639e-23)
(1.07042 -0.0347196 4.9248e-23)
(1.00009 -0.0020953 4.66264e-25)
(1.30042 -0.0436334 3.1961e-21)
(1.07829 0.137624 -3.52785e-21)
(1.04921 0.0308685 6.6833e-22)
(0.999939 -0.000191172 1.43772e-24)
(0.99259 -0.0499816 1.62984e-22)
(0.994293 -0.041937 9.07256e-22)
(1.00045 -3.7825e-05 1.22439e-23)
(1.01317 -0.0273609 -6.84629e-23)
(1.03788 0.00220387 9.4234e-22)
(0.929239 0.0692641 -5.31425e-21)
(1.00006 -0.0021777 1.17849e-24)
(0.999999 -2.23525e-06 -7.91692e-27)
(1.04433 0.0792963 2.17173e-21)
(1.01285 -0.0270587 -1.28604e-22)
(0.99988 -7.82489e-06 -3.54214e-24)
(1.0283 -0.0124112 -1.55374e-22)
(1.00542 -0.00987509 -2.94558e-23)
(0.997394 -0.00344084 -8.07354e-24)
(0.998196 -6.43544e-05 1.86018e-23)
(1.24253 -0.142846 1.05877e-21)
(0.987039 -0.00468825 1.50113e-22)
(0.998919 -0.0012185 1.46277e-24)
(0.97705 -0.0165704 5.49515e-24)
(1.00022 -0.000338746 1.61319e-23)
(0.999894 -6.84709e-05 1.59958e-24)
(0.999827 -0.00975352 9.97277e-23)
(1.15824 -0.00952154 1.86235e-22)
(0.999815 -5.08757e-05 1.63031e-24)
(0.981853 -0.00377547 -3.88267e-22)
(1.00059 -0.000806714 3.08206e-24)
(0.996422 -0.0354864 -1.77669e-22)
(1.01259 0.0565612 -3.17175e-21)
(0.999905 -0.000367562 6.64545e-25)
(0.837779 0.0274828 -6.40669e-21)
(1.06234 -0.0625506 7.15898e-22)
(0.997902 0.0155993 2.79481e-21)
(1.1549 -0.0105063 -2.82509e-22)
(0.99957 -0.000232557 3.69937e-24)
(0.999977 -6.28536e-05 2.95293e-25)
(0.999651 -0.00025672 -6.9869e-24)
(0.996072 -0.00527969 5.50214e-24)
(1.01878 0.00225437 0)
(0.999504 -0.00808953 6.17075e-23)
(0.988813 -0.00036326 7.88799e-23)
(0.988857 0.105539 -1.64679e-20)
(0.948601 -0.0208175 -1.08843e-21)
(0.948151 -0.0206127 9.39637e-22)
(1.03249 -0.0286752 7.51108e-23)
(1.05843 -0.0305629 1.6355e-22)
(0.989936 0.0795081 1.67683e-20)
(0.999589 -0.000275142 3.54986e-24)
(0.988679 -0.0298452 1.08298e-22)
(0.985518 -0.0128439 -4.07126e-22)
(1.00016 -0.000154431 8.65331e-24)
(1.01681 -0.0356621 -1.0638e-22)
(1.0006 -0.000775752 -1.50024e-24)
(1.02304 -0.0382651 2.0519e-22)
(0.979012 -0.0597499 1.39313e-22)
(0.888638 0.0882049 -1.06357e-20)
(0.959274 -0.0417033 -8.88238e-22)
(0.998304 -0.00195827 1.14357e-23)
(0.984289 -0.0123237 -7.19705e-22)
(1.00465 -0.0182249 7.26193e-24)
(1.09767 -0.00981918 -6.19257e-22)
(1.02472 0.000386497 -3.99074e-22)
(1.00778 -0.0344167 5.0328e-23)
(1.00001 -3.53515e-07 -3.08185e-25)
(1.00249 0.0319739 5.31717e-21)
(0.989458 -0.00563768 -4.03399e-23)
(0.936096 -0.00961868 6.57702e-22)
(0.999137 -0.00762571 3.94612e-23)
(1.02728 -0.0292828 -2.20281e-22)
(0.983551 -0.0388564 8.69914e-22)
(1.004 -0.00397331 2.42959e-23)
(1.27098 -0.00203013 4.47574e-21)
(0.999313 -2.85289e-05 2.58157e-23)
(1.01112 0.0954196 8.77819e-21)
(0.999568 -0.0142371 -1.06544e-22)
(1.03992 0.0037101 -4.63467e-22)
(0.965294 -0.00615348 6.14914e-22)
(1.01687 -0.00282503 1.12066e-22)
(0.999988 -1.57356e-05 3.48253e-26)
(0.981996 -0.0332593 -5.29181e-23)
(0.981755 -0.00391584 3.6632e-22)
(0.987365 -0.027539 5.30581e-22)
(1.02824 -0.012877 -1.10183e-22)
(1.01484 -0.0862319 -2.72001e-22)
(1.00023 -0.000338647 -1.82629e-23)
(1.01232 -0.150566 -5.25715e-22)
(0.998843 -0.000845528 -5.59035e-23)
(0.999989 -5.63512e-05 4.12292e-25)
(0.999524 -0.00795378 -6.81018e-23)
(1.00019 -0.000362994 4.67841e-24)
(0.926509 0.0683296 7.20379e-21)
(1.00017 -0.000151497 -7.64387e-24)
(1.01015 0.126676 -2.01574e-21)
(0.983971 -0.0130265 -1.13514e-22)
(1.01627 -0.00228903 -2.10506e-22)
(1.00232 -0.00182027 -8.98376e-23)
(1.07444 0.0212777 3.57423e-21)
(1.00321 -0.0047036 -9.96189e-23)
(1.01648 0.0234341 -2.29348e-21)
(1 -3.24697e-06 -2.49002e-26)
(1.0185 -0.0491218 -3.71445e-22)
(0.998982 -0.00389136 2.54989e-23)
(1.00137 -0.00313848 4.82401e-24)
(0.979384 -0.0135583 -1.72557e-22)
(1.00002 -1.41797e-05 1.18503e-24)
(1.21364 0.0053501 1.36625e-21)
(0.937126 0.146327 2.46329e-21)
(1.28245 0.100766 -2.86203e-21)
(1.00018 -0.000304888 1.54289e-23)
(1.11942 -0.103464 -9.80483e-22)
(1.01907 0.00253069 -7.07139e-22)
(0.983437 0.0971619 1.1796e-20)
(1.00005 -0.00356486 -2.43922e-24)
(0.999783 -2.38002e-06 -1.38491e-24)
(1.06883 -0.0341039 2.15653e-23)
(1.00013 -0.000111937 -5.43106e-24)
(0.96966 0.0341073 -4.51568e-21)
(1.0045 -0.0308524 2.00825e-23)
(1.2015 0.186799 -1.88203e-23)
(1.07745 0.0519234 -4.17585e-21)
(1.00013 -0.000103022 4.34664e-24)
(0.974901 -0.104212 -6.64349e-22)
(1.00654 0.0283787 -5.16952e-21)
(0.999894 -6.54498e-05 5.83525e-26)
(1.06937 -0.0232138 6.06835e-22)
(0.998514 0.00561203 1.34142e-20)
(0.998174 -8.15677e-05 1.49366e-23)
(1.00192 -0.0102105 -5.67316e-24)
(1.0003 -4.05753e-05 9.47276e-24)
(1.00514 -0.0108221 -6.38386e-23)
(0.984952 -0.00802139 3.12442e-23)
(0.995019 -8.39348e-05 2.68279e-23)
(1.03076 0.129599 -4.39192e-21)
(0.996694 -0.0160903 1.74333e-22)
(0.88096 0.123299 1.88375e-20)
(0.806719 0.0128821 1.76141e-20)
(0.997721 -7.48968e-05 -4.58518e-23)
(1.00003 -0.000332039 -8.91509e-25)
(1.02348 0.124361 -1.86574e-21)
(0.997351 -0.00326183 3.0193e-23)
(0.986809 -0.00320773 7.99202e-23)
(1.0002 -0.000363184 -2.65731e-24)
(1.05133 0.0347495 1.51733e-22)
(0.965578 -0.00615348 -8.83456e-22)
(0.901324 0.0699166 1.32187e-20)
(0.99904 -0.00344523 -3.62828e-23)
(0.99996 -0.000976552 -1.88948e-24)
(0.98948 -0.00577533 1.38896e-22)
(1.29776 0.0560316 4.7827e-21)
(0.993123 -0.0500603 3.13813e-23)
(1.10909 -0.0227771 6.19772e-23)
(1.04179 -0.0288237 -2.18751e-22)
(1.02366 0.00979361 -2.44812e-21)
(0.999841 -9.48485e-05 -1.02008e-24)
(1.22862 -0.0443483 -1.59366e-21)
(1.00002 -2.40808e-05 -1.64461e-24)
(1.00126 -0.00109855 5.92058e-23)
(0.999994 -1.79623e-06 -2.09162e-26)
(1.17295 -0.175813 -2.7431e-21)
(1.04691 -0.0805985 1.49519e-21)
(1.01933 0.0439954 4.32544e-22)
(0.99998 -1.52332e-06 3.81031e-26)
(0.964633 0.0709086 -2.49786e-20)
(0.999671 -0.000100231 4.29228e-24)
(1.01719 -0.0353111 -1.21126e-22)
(0.999498 -0.000264957 1.2781e-23)
(0.946773 -0.0314821 4.20573e-23)
(0.992273 -0.0127539 -4.13381e-22)
(1.09209 0.0180036 1.33687e-21)
(0.999886 -8.4133e-06 4.67246e-24)
(1.01341 -0.0567902 -5.83335e-22)
(1.01383 -0.0271846 -6.60691e-24)
(0.991538 -0.0115222 -3.5033e-22)
(0.999984 -6.09033e-05 -1.30864e-24)
(0.999941 -0.000968811 -1.43829e-24)
(0.999818 -8.29609e-06 5.98538e-25)
(0.977882 -0.0393028 -5.99744e-22)
(1.00134 -0.00261069 2.40584e-23)
(0.999084 -0.000536125 -1.32145e-24)
(0.975202 -0.000197016 5.31643e-22)
(1.00007 -0.00016582 -6.37497e-26)
(1.00023 -0.000329016 1.4402e-23)
(1.00445 -0.0160605 -2.67186e-23)
(0.999577 -0.000234594 2.1677e-24)
(1.00805 0.044148 -8.33769e-21)
(1.04857 -0.00361706 2.59334e-21)
(1.30414 0.00642376 3.15504e-22)
(0.980005 -0.000594656 -6.79739e-23)
(1.00821 -0.070294 7.25134e-22)
(0.99999 -8.63906e-07 -1.62625e-26)
(1.15408 -0.0819801 -1.11034e-21)
(0.978361 -0.0595902 -5.96827e-22)
(1.00028 -4.00435e-05 1.43737e-23)
(0.977358 -0.0229194 -2.45002e-22)
(0.998888 -0.00360169 -2.80572e-23)
(0.972381 -0.0162154 2.76811e-22)
(1.12093 -0.150175 -7.42277e-22)
(1.0004 -3.84054e-05 -1.42721e-23)
(1.02186 -0.0436885 5.24951e-22)
(0.999989 -5.82451e-05 -1.64827e-24)
(0.995855 -0.00495252 -5.09448e-23)
(0.999689 -0.000102877 4.10624e-25)
(1.04153 0.0714381 -3.89485e-22)
(0.993903 -0.00148995 -1.40724e-22)
(1.00011 -0.000199266 -1.11195e-25)
(0.999858 -6.58861e-05 1.63375e-24)
(1.01937 -0.00902619 6.54188e-22)
(0.966957 -0.032601 8.60067e-23)
(0.997389 -0.00329763 -4.78328e-23)
(0.999985 -0.00101193 -4.19832e-24)
(1.0295 0.130975 -5.36699e-22)
(1.00317 0.0694316 3.52684e-21)
(1.00141 -0.00310334 1.28913e-23)
(1.19461 0.131547 -3.24822e-23)
(1.09786 -0.112995 2.3624e-21)
(0.949319 -0.0341838 3.51956e-22)
(1.00004 -0.000327222 3.54021e-24)
(0.999989 -2.82615e-07 6.01836e-26)
(1.05933 0.139128 3.01043e-21)
(0.972846 -0.0138369 8.28573e-23)
(1.00008 -0.000165406 -2.76178e-24)
(1.20028 0.0700209 -1.01122e-22)
(0.999256 -0.000423059 1.61768e-23)
(0.99999 -5.55264e-06 3.1854e-26)
(1.07075 -0.00370963 1.93948e-22)
(0.984766 -0.0765869 -2.36451e-22)
(0.959812 -0.0416029 1.18418e-21)
(0.944534 -0.0307689 1.50905e-22)
(0.990389 -0.0266416 -3.95852e-22)
(0.994755 -0.000178751 4.83416e-23)
(0.986947 -0.00334236 -6.4962e-22)
(1.00069 -0.00780444 1.87855e-23)
(1.06463 0.0545678 -2.21295e-21)
(0.999821 -0.000518117 -1.72827e-24)