/*--------------------------------*- C++ -*----------------------------------*\
  =========                 |
  \\      /  F ield         | OpenFOAM: The Open Source CFD Toolbox
   \\    /   O peration     | Website:  https://openfoam.org
    \\  /    A nd           | Version:  7
     \\/     M anipulation  |
\*---------------------------------------------------------------------------*/
FoamFile
{
    version     2.0;
    format      ascii;
    class       volScalarField;
    location    "7";
    object      p;
}
// * * * * * * * * * * * * * * * * * * * * * * * * * * * * * * * * * * * * * //

dimensions      [0 2 -2 0 0 0 0];

internalField   nonuniform List<scalar> 
117990
(
24.5313
-0.0442156
9.34717
2.63909
8.62962
-0.0492142
40.9632
19.1989
-0.301452
-0.0461363
-0.497174
0.39059
5.74678
78.0421
-0.293553
73.7014
-0.0942046
-0.530069
39.8508
8.73261
19.1468
-4.78842
-0.555987
3.9014
39.7628
35.9062
15.1493
22.8932
-0.0891328
36.7221
-0.329259
36.1255
16.5701
5.22444
38.4049
-1.59358
40.5485
-0.0864484
-5.92313
41.7645
36.2156
-0.530778
15.0396
-1.63896
26.2583
78.1865
16.5987
11.718
9.20298
0.353005
-0.000174519
-3.43341
36.8094
-0.0239396
9.08323
36.9009
34.9845
38.1012
27.0562
10.6209
-0.109888
4.10842
-1.02911
11.1806
-0.199746
3.68192
5.54238
32.9555
15.5146
34.0523
40.5132
34.1927
41.7152
62.3685
21.5762
27.1826
27.1939
3.05413
41.0324
33.2511
33.3469
-0.191045
25.4457
22.335
-2.99526
0.374409
13.3626
-0.0625266
35.8314
-0.0615207
1.24105
4.20258
-0.092415
-1.26966
-0.600829
0.852169
-0.648122
24.8761
12.8748
35.8113
-0.111367
25.3678
14.0359
7.5525
40.6105
19.5285
41.9517
18.4973
18.3185
-0.0748607
33.436
-0.642322
27.3318
15.7343
32.7757
12.7971
-0.501309
40.3722
0.024738
34.097
40.2544
73.8233
9.57143
28.5224
-0.00811032
37.1246
4.22987
30.385
-1.95298
28.6263
23.8822
0.566993
38.6508
0.372019
0.025826
39.3832
38.9634
16.6446
9.21647
4.07458
26.4631
12.6179
0.103089
37.0967
24.18
-0.000258366
20.7813
4.27145
33.0003
5.4478
19.3776
27.1272
4.10224
-0.00802919
-3.38692
16.5602
-0.0724017
30.8548
33.001
19.7265
26.1601
20.6564
-1.01433
18.7811
14.1157
-0.987404
27.5564
18.9677
30.688
13.9774
11.6879
16.5268
-2.42731
75.3493
19.0279
31.7204
75.5932
1.94044
18.9598
9.08647
21.1062
21.685
39.3194
37.2101
41.9505
-0.0736126
1.47439
39.6185
26.482
1.46357
1.99765
12.2925
40.2133
17.4845
36.0485
18.6733
75.7154
-1.466
18.9141
21.2283
38.0186
41.4295
22.2847
-0.0724285
0.817974
28.8979
-0.454868
-0.19458
29.1849
20.4492
76.0185
41.9311
39.7956
-0.0597805
19.2257
17.7373
31.5819
16.6656
78.1325
-0.219467
18.3044
15.4087
10.5862
36.8739
-0.0253353
38.1081
18.2352
20.6573
18.5162
39.83
24.1911
22.4407
28.511
18.2462
23.6871
38.1063
1.02274
11.972
18.6731
-3.49309
9.13374
22.969
19.671
12.1019
-2.01055
5.80655
34.9534
41.7834
18.9803
59.1418
40.1515
-0.491159
37.0349
5.11671
31.945
21.2459
24.5689
22.8233
0.649012
19.054
21.2729
78.2933
37.2751
-6.24127
18.3814
2.75676
28.8361
-1.91807
30.7372
24.4082
-0.207127
26.5765
9.06731
23.0288
4.28214
13.9338
25.3416
19.1631
11.2108
17.9329
18.8212
-1.98122
2.68842
28.5547
0.49223
18.855
38.2963
36.4738
24.4763
-4.88713
26.2653
-0.0653998
24.6887
41.9033
0.0406986
23.0027
-0.0930063
35.9681
7.11308
24.0541
77.1458
18.3931
-1.37475
6.22451
16.719
33.792
22.8291
20.5077
1.38508
18.9739
-0.722761
37.2848
33.6904
18.7247
5.66246
13.8476
40.2009
5.80236
3.95819
22.5471
29.0761
-0.208653
22.1476
32.8473
34.5046
29.8157
16.741
35.6175
77.316
24.9305
-0.53214
-0.0658076
0.0227349
-0.134252
36.8287
3.97748
31.4473
-0.198877
-0.140996
1.3654
9.55864
34.8651
14.3234
10.4599
7.09097
7.75741
11.2661
29.3438
23.9799
11.1869
38.8279
39.5185
21.1427
1.94434
21.1238
19.4461
24.566
-0.000950937
0.861069
26.2924
40.0254
15.5396
40.5611
35.3063
27.2883
-0.000858459
3.64904
15.286
10.6111
-0.00392864
16.1433
30.685
40.9389
-0.821925
31.8486
11.7182
13.8798
0.346322
-0.103175
26.7694
23.0879
18.42
15.4278
26.2551
18.8242
-0.312782
29.1709
62.5799
8.57371
20.5615
35.94
41.1345
13.5226
22.9553
15.2612
0.748997
1.71329
3.34197
8.97267
12.0756
21.155
1.15447
30.5759
41.6028
-2.20736
24.7315
0.026248
10.4309
31.0523
-4.88321
16.8479
-0.803175
7.86377
3.02122
-3.06785
11.0738
8.95164
13.6852
0.0696562
18.518
-0.000898907
76.2012
0.575321
38.8914
34.055
39.7389
25.0636
40.3597
34.8244
3.85444
6.40421
0.00345234
-0.263503
19.9018
6.17237
10.4005
24.8981
0.561871
-0.340825
0.332931
2.92119
28.833
24.6185
12.1789
0.463461
15.9704
5.69441
-0.312319
41.0639
31.6601
41.8477
0.0769483
0.387166
6.67676
18.9748
5.17377
18.7632
41.9944
38.5925
-4.39678
30.9396
5.68954
8.47385
41.7024
37.4011
19.0148
8.2845
75.2799
-4.30837
0.0775971
18.5744
61.3515
18.6324
62.9572
24.7987
34.446
-0.00311234
8.34258
25.294
29.6104
38.994
-0.00221345
-0.196949
5.81539
18.6313
-0.358577
0.0626965
30.2291
38.8802
24.2531
41.8077
11.0939
39.9672
37.6934
3.15668
16.2299
71.0178
15.6559
11.8625
7.53519
-1.21912
41.0528
18.2918
39.222
22.8654
39.6227
11.3822
9.57764
8.27529
38.3419
2.02505
4.99282
5.09002
-0.0882108
24.2381
21.1702
0.684505
30.3673
-0.0555685
-0.0439071
6.50546
23.0645
2.22244
10.9709
17.3274
4.83627
-0.083592
40.4091
21.019
19.2415
11.8975
20.8071
8.84722
0.0143321
-0.00216106
56.0451
71.0813
21.4506
0.0128751
5.39431
34.9166
14.6077
26.903
-0.187487
19.72
21.1372
0.216889
-0.0817483
41.7113
5.68404
8.33516
19.8297
1.06051
42.2079
17.6257
10.9551
10.3185
11.0855
34.4596
0.775234
0.0231537
12.1699
37.5355
39.8311
41.0272
24.4884
9.96186
41.5173
20.5409
0.649755
26.7338
9.76654
30.304
7.44103
30.9935
3.68427
40.9626
1.51929
5.84766
11.2065
41.8387
0.62965
18.7359
18.7394
38.5576
19.0112
5.00586
15.1075
0.128427
-2.24
4.84078
23.1863
18.9736
7.66223
30.8883
41.662
39.1929
40.3754
40.7639
24.1301
25.906
20.6848
41.7821
41.852
8.3132
3.83855
39.8437
0.0378759
-6.15431
17.5435
12.8925
5.74853
29.64
-0.275328
6.51247
39.9669
38.4608
-0.35725
0.804738
29.849
4.90945
-1.56434
37.6601
38.9099
-0.0725412
17.6084
18.5198
1.69013
23.1662
34.8399
38.7425
5.00814
-0.00279196
41.8064
23.0932
-0.361469
28.9302
16.5493
3.72481
-2.36941
-6.31115
6.05394
-0.313177
20.7727
0.821134
-0.291974
12.791
27.422
-0.452327
17.196
3.69135
19.0148
41.8733
0.0257749
34.1762
22.473
39.9562
27.6988
-0.694682
-0.0946312
-0.551308
5.14609
37.6144
11.336
3.78278
39.4815
68.652
69.2337
26.9213
29.7961
40.2172
-0.634453
18.7819
13.0331
0.526484
23.2119
3.66089
24.3037
17.714
35.5011
44.0364
1.49301
13.6967
19.39
32.804
34.2198
21.6508
0.000340364
41.782
5.47241
77.625
10.7251
25.9245
17.2564
12.1831
9.09906
-1.118
41.0915
15.2684
35.1449
60.2982
24.4698
-0.0642097
18.3097
17.4682
18.5138
28.8111
19.8605
0.853773
16.8614
-1.23053
-0.0622452
11.2487
0.728192
38.6861
0.537572
38.9866
14.1584
24.0431
8.69175
36.585
11.6659
39.5845
-0.00379105
21.8535
6.28135
8.39061
18.1284
0.0314748
21.1751
30.954
18.2864
0.650208
13.1905
37.5656
39.4245
7.0761
-0.523648
29.9475
0.409297
39.8565
21.2031
30.2934
40.0343
0.392771
24.5428
40.4455
-0.295044
31.5714
39.796
-2.38965
14.063
0.96207
16.693
11.3249
-4.94487
38.9834
15.4851
30.7935
33.6504
-2.86539
0.278205
39.4067
3.32115
5.48954
0.75802
39.2587
59.8005
37.3242
5.62581
1.42164
5.61599
11.4727
17.8095
30.521
28.3208
37.4753
-0.370528
11.625
0.00820288
6.01387
-0.00395983
-1.90939
18.9698
41.0203
-0.090759
39.301
-0.644103
23.3483
-0.772971
62.0087
12.1748
35.789
-0.348596
20.5123
23.3342
10.6653
-0.0729621
1.31567
-0.470263
18.2726
7.77327
-1.15314
42.7254
0.264483
0.87626
18.3969
-0.683397
41.5059
34.2664
3.58644
23.2965
19.8814
-0.00966603
14.6066
18.1787
0.884225
21.3315
5.6313
29.7801
6.00106
1.44562
23.1146
-0.0612352
4.58039
-0.614544
41.866
-1.24404
0.392378
-0.36674
25.9506
38.0913
3.44991
1.64114
38.8025
41.4818
8.40594
33.7807
13.2608
58.7278
0.28843
-0.0137773
37.7024
30.7476
0.27815
31.7937
-0.997684
-0.0344346
34.2987
18.2086
43.4976
64.061
18.8893
-4.93171
5.34956
11.7915
40.3905
-0.00787659
18.0392
33.5427
0.11172
13.687
22.6921
39.0612
14.2074
13.857
35.1366
29.2856
20.4779
15.066
41.2299
31.9446
1.53612
18.1748
37.7822
-1.37698
-0.582946
17.6902
6.95685
10.5153
32.6792
-4.95926
-0.0330742
-6.29452
9.79655
16.5504
39.5892
16.2709
22.9219
1.25542
39.2942
15.135
34.2686
15.2285
37.0879
35.2255
18.3706
36.9939
40.188
-0.610396
34.2343
39.8076
17.7061
2.30869
19.1851
39.333
23.5677
24.5312
41.3104
7.16888
3.7053
-2.23242
0.852009
27.5916
32.7791
0.8593
40.4368
35.8364
28.8295
-1.97126
26.2608
62.7955
18.0125
41.5857
35.5756
1.12562
31.5331
62.2952
3.2017
35.6805
65.3082
-1.39331
34.2641
0.715368
39.6517
8.07526
37.9065
26.8787
-1.89841
41.1086
-1.18292
20.4138
15.0809
-0.360966
14.8352
14.9373
12.1081
18.8371
4.76448
2.07533
30.7754
15.3271
-0.588465
18.3435
77.7158
40.7262
27.9301
42.7351
-3.33834
6.12499
40.9482
22.1479
-0.0618287
2.02624
18.413
1.42492
15.4336
-1.89429
34.5504
-4.26039
28.8158
55.6832
34.7639
28.5157
6.01788
8.77099
-3.66423
29.856
18.1349
0.000312092
-1.40639
-0.581754
35.1654
4.91289
-0.00665261
15.4306
12.8521
19.0742
37.7335
35.7518
13.3031
18.9229
5.73245
37.0764
17.4667
35.5811
4.82222
20.0658
19.5703
8.9133
-0.346466
0.804309
-0.0861905
18.8595
-1.16605
13.741
1.53558
34.1931
0.0180339
1.96736
0.150706
37.6534
14.3315
41.0839
28.8595
36.721
-0.692953
15.4865
41.0739
26.6333
15.15
32.4797
-0.374848
6.92903
-5.81583
27.1528
0.0192544
23.427
12.2841
18.8998
18.6092
39.7999
9.75271
-6.04355
37.6797
11.6276
10.2518
5.89817
-0.00615468
-0.325358
-1.27066
30.3662
-0.68599
3.94156
12.4308
39.9647
37.9186
20.5083
0.367963
15.934
29.5846
10.5073
0.345514
12.5353
26.9533
0.0587971
4.98466
29.2931
42.3842
11.68
72.6318
35.1112
16.5795
0.547942
64.6728
27.3024
2.42273
0.0925097
-5.6524
-1.98541
12.1786
-0.0763069
-3.23976
30.9143
30.2985
16.7173
17.4163
11.6881
-0.106947
37.815
-0.599903
23.0477
38.6641
-0.171558
25.7656
6.72833
38.972
32.4339
17.8847
39.0946
35.2792
12.1681
27.2331
0.379176
2.08446
71.2121
-1.9526
-0.352322
24.0861
-0.935976
-0.146081
10.5719
-0.466432
18.5059
17.9706
3.26303
-0.433675
-1.57389
3.21367
-0.0959554
37.3741
28.7885
20.6977
-1.05634
64.6852
18.0914
30.5098
11.0384
11.6151
39.5043
33.7902
30.1501
18.5954
3.38283
0.0480584
30.9039
40.9023
28.123
-0.0892881
-6.43357
0.357859
0.0808834
37.8498
1.65194
31.2597
-1.19934
41.8564
20.8743
11.4763
21.7824
-0.0347636
39.8074
-1.04779
5.12344
32.3944
39.8297
34.53
1.62015
4.10541
35.1737
-0.0248572
35.2982
5.1271
41.8018
33.5628
12.5358
8.9857
0.0682052
34.098
15.4532
15.4817
16.3662
13.0082
1.26792
23.3234
-2.94843
31.0086
37.5481
9.57083
39.7836
36.4458
-5.26179
-4.8154
29.149
13.8282
30.7231
38.193
31.0451
12.3531
0.00970914
8.43338
18.3733
16.8157
20.5948
33.6597
41.7682
1.76341
38.6131
-0.0374608
19.5095
3.72504
41.2413
75.0753
-0.168517
39.7242
-0.0584773
4.88963
-0.0960276
-0.00245022
-0.00201267
41.2981
9.00025
18.9558
13.9492
3.96494
49.2501
39.0318
9.68032
3.33725
-0.792889
-0.0961105
1.90742
24.8751
28.6638
39.5941
-4.76593
37.6812
15.1048
19.3254
26.4379
1.88024
31.4952
0.041729
3.98318
1.94545
12.5157
-3.04296
40.1426
3.60179
0.000254605
14.5484
4.77237
41.5817
-0.0652546
3.49715
3.41097
18.7231
23.3833
17.0333
80.2356
35.6198
39.1683
-1.98466
3.73638
18.7484
-1.13529
36.6796
17.2247
-3.29362
25.7643
-4.55801
2.14984
14.414
-0.453688
9.85586
48.4595
8.59212
30.4441
41.762
39.393
40.7227
-0.0497802
4.43558
0.0382368
32.7971
28.3199
38.648
11.2253
17.5967
42.9044
18.0703
22.2854
11.4122
27.87
17.8805
0.023604
35.0161
-0.784629
37.4456
31.0739
29.5837
0.341301
3.69441
24.3212
-0.0104083
36.8729
6.82205
20.273
25.5592
29.7112
40.8668
19.3758
42.3826
38.8498
21.9388
-1.17065
28.9723
30.7809
5.91169
30.3267
0.187928
23.5973
25.5135
9.60484
34.0963
0.397281
37.7973
39.303
-0.0722434
4.07956
0.0854727
36.0012
5.02363
19.6278
3.94339
23.6577
35.6217
6.14964
19.9023
5.01505
16.6354
11.0643
-0.0640336
1.3654
22.2566
60.8136
15.3511
-0.0545679
22.19
-1.15502
5.57759
25.8591
40.4566
10.0333
21.7292
38.6627
10.2374
8.38592
22.1906
8.49598
8.46426
21.714
31.253
18.5682
-4.7176
-1.80698
21.8526
0.354561
-0.558875
0.0831922
35.5462
-1.30604
2.33718
22.894
-0.0122766
6.4255
-0.284668
41.2284
-0.0275523
4.73545
-0.202064
9.74887
40.595
10.913
17.8436
-0.0967189
-0.0481221
20.9944
6.21851
-0.353043
40.6055
18.3521
-1.82582
66.8194
5.04826
1.95133
15.2816
10.4679
-1.15515
30.8374
-0.435369
19.3221
38.5779
-0.340137
21.4188
-0.657645
18.9702
42.1125
26.565
-4.91932
0.312918
10.1627
10.5682
10.8963
23.3726
4.02801
-0.992209
-0.201188
-0.425528
19.184
17.0548
36.3488
9.80444
4.2045
30.0687
37.0607
27.5235
-0.413272
18.5426
22.653
28.6449
25.9733
15.8417
36.0436
36.0207
18.1761
25.0852
38.1402
19.1229
0.330638
69.5588
76.7922
25.0491
12.1348
13.3986
4.1198
30.4986
17.5649
41.1392
19.0883
40.927
61.5134
-0.874692
12.4851
6.02288
0.0318878
-0.0874283
40.739
-0.128932
27.0998
13.4019
21.0787
41.0525
-0.59202
22.0652
28.4847
-0.315151
40.6428
17.4129
-1.04706
28.5793
36.1937
-0.00475148
29.5537
1.84972
29.2286
25.1579
59.0277
39.4462
-1.04463
-0.921393
38.0891
41.1393
41.1551
4.75957
21.8609
41.2239
34.5748
18.0344
-0.00854865
36.9793
20.7269
11.3057
14.2038
38.3333
15.2047
4.14158
28.3864
-0.316574
20.7941
35.3499
41.4773
36.7471
36.7365
36.8442
29.4652
-0.432673
-0.775751
-1.0739
-1.15267
36.7295
37.4456
37.2337
23.7284
-4.87441
18.0678
16.0392
2.53642
5.57436
-0.763413
55.6146
10.4821
28.7939
-0.0256961
0.0243894
3.64323
0.0553065
3.85133
8.4428
25.0937
7.43892
6.54753
33.1923
61.7926
5.71919
-2.00145
5.51142
-1.14103
-0.334544
4.69381
12.7517
0.979772
5.60012
27.4045
-0.0747526
29.1596
22.8639
11.3083
-0.496553
9.8662
28.9989
16.8812
34.0765
21.6138
0.859223
25.3071
15.6362
-1.30058
-0.0237413
0.366792
7.085
39.8699
3.3388
3.78543
6.99906
14.0264
-0.607747
40.331
-1.30674
36.3506
2.13434
-0.818219
0.337967
18.7112
70.8326
39.6548
37.2519
37.1021
1.89507
19.6161
-0.128697
-0.00699154
-0.853544
7.21521
40.8391
23.1141
50.6484
17.4949
40.6522
31.5472
16.8153
0.000129771
30.7574
39.3892
25.9011
-0.0910812
-1.01219
3.14756
41.0926
38.3443
22.7625
25.326
36.3888
4.52842
-0.0895852
-0.0650423
28.9511
4.57703
34.363
-0.0259575
24.9286
9.73861
0.0986198
36.7332
20.7034
34.5172
-1.57965
1.85551
30.1857
23.8875
27.1608
12.3913
4.31102
30.0617
3.77751
23.34
38.7072
37.3287
-1.21494
36.4124
-0.00188065
0.998028
38.4531
13.6544
29.3773
29.2609
5.06705
40.8994
28.244
-0.0599608
72.3968
5.32998
5.47458
-0.454882
-0.187483
55.0564
11.8057
4.20162
15.3186
7.8438
36.8012
39.8894
0.277656
-2.04855
-0.67592
20.8799
-0.491207
0.0918409
-0.0982093
36.2312
22.7633
5.45526
20.6289
30.4257
66.7911
39.186
37.3443
41.341
-0.0581418
-5.06331
31.1381
13.1009
18.2101
-1.32761
39.2873
5.42072
18.0677
3.1383
29.7822
66.1557
28.6157
-0.00132255
33.3377
-0.173811
-0.0192859
28.7454
-1.61876
19.3016
35.6348
15.6569
4.25526
-1.79602
38.6322
41.5478
40.9302
41.9277
57.7296
-2.07282
-0.97967
24.9192
18.4657
9.68827
-0.228395
20.6135
7.94424
17.1942
6.89013
-0.0365639
15.3708
24.9251
40.0856
37.6469
-0.043824
33.6117
3.08643
78.4056
69.9086
14.1263
40.9675
-0.671305
53.8208
28.249
-0.585502
0.179556
31.232
36.8713
17.0416
24.0913
31.8961
12.7801
-0.013028
-0.00960454
31.6802
23.1334
19.1656
-0.981635
34.6876
-0.24068
-0.0050308
-0.868223
8.36667
13.9718
-0.0635046
20.0741
34.2347
38.8927
1.73331
35.9511
6.01675
39.0414
-2.98042
19.8061
0.0899924
29.3632
31.6264
29.8074
35.1919
40.3432
13.5936
18.8172
41.4337
-1.44314
38.3834
8.86665e-06
36.0024
27.034
37.1229
0.345249
-0.0745454
28.3556
37.5175
36.7849
0.0268985
5.33536
34.3628
3.89417
-1.39872
30.1705
22.4566
19.0512
40.2901
-2.0255
26.8696
10.7606
30.6677
-0.446964
39.0122
36.0278
30.6574
-0.87946
36.5165
18.4692
25.5746
35.0263
0.42184
19.7943
25.0332
22.2209
-1.88628
16.9537
12.966
-0.0524878
16.9033
-3.0749
5.19926
17.3962
-1.78544
3.94078
27.537
0.0969643
32.1493
70.0927
37.5373
-0.420338
29.3554
-0.099215
1.01447
12.9023
-0.154714
10.0106
6.43686
70.4379
40.3627
18.932
20.1234
33.7588
42.0774
-0.097899
17.5717
26.3392
27.4399
-0.0721237
35.8306
16.3394
26.6293
0.323243
12.4726
-0.182526
37.3849
-2.13321
37.5773
0.358738
70.4621
-1.27862
-0.0264972
41.7155
-0.204437
39.3712
34.6788
29.3788
-0.6343
39.4448
40.5664
41.9571
40.6348
41.0999
38.2969
-0.0700672
17.2347
39.61
0.701703
27.1174
34.3662
-0.0400867
0.049476
40.1949
28.307
31.1233
15.6896
35.3699
-0.455551
0.496514
17.3362
17.0553
17.5504
41.7557
37.2385
18.958
40.3075
40.6543
26.3272
40.0226
5.97897
40.0843
10.0381
28.9908
5.90355
17.0186
14.1448
20.3311
-0.0680268
19.3857
-0.0854369
39.2747
31.3979
-4.80321
3.55296
20.216
23.4492
-0.194305
11.5261
19.0139
11.814
19.4779
16.9287
-0.860199
11.0655
28.7645
0.30032
27.7364
-0.0926251
36.4453
3.99807
22.5829
0.294167
-2.39465
17.3295
12.3444
23.8092
3.66949
30.9055
19.1953
68.9037
-0.335184
26.8944
28.8254
16.9722
40.3762
1.11889
73.0362
16.7297
10.1059
21.6112
0.0842171
11.7475
12.2423
-3.44693
-0.327687
-1.01019
35.7829
-0.0013577
0.270405
0.12298
-0.102116
-2.05182
39.4376
34.1585
-0.623943
23.6923
-0.102033
22.8843
12.6157
-3.18023
27.9336
-1.76226
37.8741
12.9476
4.30348
12.3269
-1.92711
23.7335
-0.501134
42.1012
5.76325
29.1415
18.5669
-0.0767211
35.7468
-1.03343
17.1752
39.8427
4.03323
18.9463
38.6269
53.2342
18.7269
17.2841
28.442
2.60502
28.0012
-0.163604
16.8083
3.32672
39.929
23.3032
33.3859
28.0685
-4.9484
30.1237
24.7003
23.8198
38.6911
6.5064
21.4365
-4.63649
1.13942
-0.338697
21.4606
33.898
-1.40293
17.1986
16.2864
3.81287
17.1454
-0.536407
0.830672
-1.78676
-0.204046
59.7152
4.56942
37.9645
-0.00604813
-0.798232
0.0881669
30.4282
-0.206209
37.0105
34.7029
39.308
0.734968
14.1347
9.9911
6.82765
2.47242
32.6271
18.6594
18.6231
6.05769
-0.651411
36.6409
24.4207
20.5502
-1.16534
3.61389
31.9256
-0.353759
12.6987
28.7395
39.1402
36.2085
-3.31764
2.34104
13.9886
-0.365903
0.0948619
18.8019
-0.00398078
16.2833
15.2491
-0.0416481
0.0299046
23.2245
21.7655
18.3178
28.6267
0.0488248
32.9598
22.3535
19.57
0.28825
39.5013
-0.629258
40.7337
-0.851123
21.9224
-0.0277132
12.9204
39.8123
12.6164
22.2456
18.4433
0.211769
29.0836
5.30296
23.713
18.4585
11.9904
34.4919
28.7406
23.0249
33.1953
2.07675
0.0525686
-0.399648
18.6768
-0.0975805
5.38045
30.1391
39.9262
31.2143
-0.97992
34.4682
10.1372
3.43594
23.8447
28.1754
21.7278
0.028166
32.5297
24.1517
25.1173
73.8077
76.5707
17.1068
-0.0589068
5.53842
3.35806
40.7404
20.4377
24.1757
21.1888
30.0991
23.5499
38.8253
-0.175667
20.2791
10.0386
0.00159686
4.03329
30.9339
3.85022
73.4194
24.2032
28.9124
39.9926
0.8345
-0.00212409
0.0340794
18.2864
28.308
18.7667
-3.29509
6.57072
2.66567
36.9845
-0.164873
24.3017
-0.993891
10.2641
9.73595
2.72505
34.6245
19.4211
12.2078
24.1939
32.4964
18.2814
41.3443
38.7562
38.8748
18.569
11.9956
50.0917
23.8446
37.7269
18.7285
0.0866337
-4.78954
-0.00390923
73.5355
-0.704517
1.03825
-4.89162
29.2683
-0.334509
-0.0871664
28.7146
16.2164
0.000836025
-0.0276235
4.63213
4.97135
0.0400422
27.1305
10.3321
18.6488
32.5998
19.27
21.6964
26.1216
16.454
0.395294
-0.583891
41.9234
2.80732
18.532
0.0800808
18.2096
18.2869
0.471335
24.9485
17.3872
12.5773
40.354
-0.17527
16.3361
-0.919167
10.3583
-0.637722
-3.6253
40.6447
9.55056
-0.00984714
38.8005
3.29522
-0.701481
7.91514
4.24075
28.1487
18.3931
-0.374859
-1.71158
26.3197
17.8628
0.0601568
16.5252
17.2479
27.0559
20.4592
21.4237
39.4372
12.7576
32.527
37.1373
-0.648635
10.9859
41.9636
0.000419844
33.496
21.9269
-0.00349431
38.739
40.2895
5.3367
30.436
50.9592
27.8764
3.72618
15.722
-0.00388649
3.07428
33.8368
16.9883
18.713
-1.82467
50.9145
2.98655
-0.451854
-0.348231
28.6486
39.6263
22.2477
-0.00273036
0.104381
7.73986
-1.6311
16.8994
38.7639
70.4694
15.5468
16.4114
11.2619
34.7557
0.0349454
29.7742
13.1936
40.7175
5.48014
31.594
-1.84286
-0.908898
3.47191
-0.058514
-0.0807979
33.3799
1.22262
34.284
-0.161766
28.9317
-0.120604
19.8152
15.1256
24.608
74.0772
21.6618
-0.0745095
35.0465
18.7068
23.8794
35.4234
71.2046
18.7948
17.9582
-3.78928
36.0202
13.1585
34.7847
13.4561
18.8865
0.264269
38.4559
24.4206
-0.322431
-0.0544343
36.9652
-1.06182
31.8229
29.8059
12.4151
-0.145082
12.7686
39.6422
35.548
3.90827
38.6034
34.2621
27.3247
0.600989
-1.83729
25.1757
40.2772
17.9435
13.3625
-1.04826
0.0746109
15.6629
25.7205
29.0009
34.9029
10.9065
7.33005
18.7086
18.5395
21.3151
30.9116
24.3823
24.5064
5.91949
-0.074501
24.0206
18.8682
6.56144
-0.441662
37.1215
38.6486
42.0328
36.1777
18.3394
38.1489
-0.442765
39.6582
15.7578
12.197
-0.0892832
26.5414
26.8302
-1.0453
4.48779
41.4194
41.3743
6.05591
40.1466
40.1818
30.5348
17.1918
19.9469
-3.0079
38.6841
15.6429
-0.528782
-0.0122966
-0.566142
18.3492
1.59322
12.4662
18.3158
8.50171
-1.09431
37.2509
22.1019
41.5504
30.1713
39.0541
20.8743
-0.0402763
32.0409
5.01429
1.29367
38.9804
36.4927
36.3515
30.8493
13.2787
26.9555
18.0597
0.0141669
29.6016
-0.687327
19.2427
13.8951
19.4274
-0.0263954
17.3433
34.6887
0.000175221
29.1445
32.238
-0.550931
-0.449759
-1.15878
38.1872
35.3941
-0.00705357
-1.25995
0.0722165
-0.404747
6.44424
-1.23805
2.24969
2.20375
0.845691
1.17926
-0.571675
-0.546069
24.1351
-0.0379844
-0.033132
21.3911
20.7392
24.4391
41.6732
22.6312
2.82001
3.12091
-0.00143519
9.73465
16.5065
13.6036
17.2971
-0.518897
41.6265
31.4019
38.5345
18.0367
24.3265
17.2812
20.8776
0.0249065
19.387
13.9852
0.375829
20.5239
21.1424
-0.0902942
33.0443
36.9236
0.0877297
40.3634
28.3341
12.9794
13.4604
-0.0952156
33.9093
16.255
-0.00713365
31.8102
-0.0930549
-1.07194
35.9025
71.4197
1.52225
9.89368
-0.0318451
21.2395
5.95671
39.0222
28.2315
0.064718
0.240162
4.6574
22.6607
1.44938
14.7634
1.45519
63.687
36.4708
4.67397
-0.12439
-0.78541
19.922
29.3889
39.8461
21.5568
34.1986
6.33821
48.7105
67.4983
34.0386
41.0925
-2.81051
0.854823
20.0266
-0.0903357
39.9189
38.0559
33.963
52.5145
34.5894
36.094
34.8179
40.8237
39.314
29.5618
9.49289
41.9028
58.3034
-1.3991
16.375
24.9547
2.00529
18.8605
-0.406368
16.3416
19.3307
6.76213
21.2676
0.0713375
30.4215
12.776
25.2179
-0.0819712
0.59286
-0.187792
-0.0219309
37.6807
36.2722
9.79365
-0.505444
21.3309
-0.0703501
0.0848051
0.869671
-0.470734
7.26731
65.722
11.588
36.4372
-1.73598
33.7433
28.571
15.8638
5.87259
1.76214
24.9605
52.4357
-1.16669
-0.0185723
9.69331
17.8978
18.1061
28.0079
6.76487
31.3085
30.0117
3.74436
4.72054
33.3283
0.444848
-1.05792
-0.119143
-0.00646168
-0.19816
25.9361
35.549
40.2022
34.8464
-0.281469
-0.117193
-0.535668
19.916
33.5919
28.318
60.2822
35.8102
-0.180762
3.2097
20.3654
12.8978
19.0863
16.855
18.9691
22.2855
7.72685
29.323
8.51027
0.833062
4.34959
30.5896
10.7415
12.6248
80.2003
8.31329
41.9363
40.1128
37.5371
41.9623
36.0221
22.896
1.44276
10.3776
35.6322
38.4458
0.661224
-0.0542749
13.9347
16.5024
-0.884261
21.2936
17.3899
23.6661
40.8858
-1.11242
30.0255
21.9677
19.3668
32.0075
22.1103
13.0338
23.9518
16.2577
23.3695
3.35353
27.6234
-0.568154
23.1459
41.5751
21.5983
6.37191
0.653652
39.3636
10.7158
19.7644
15.6627
-0.0683838
41.96
33.9213
22.4217
5.91085
12.8879
15.409
0.822992
70.8539
19.6524
17.4325
9.92447
7.68092
0.0713825
-0.290769
27.0228
-0.0578272
18.7775
23.1505
16.9924
-0.386152
1.88045
0.284905
7.92616
29.186
18.763
29.0418
19.6948
22.4748
3.34541
2.5025
32.9723
3.39134
-3.52385
35.6172
2.51263
39.7214
39.8342
-2.40678
37.4567
4.00348
18.4202
-2.52404
-1.95052
22.1431
50.8848
6.37154
23.1296
6.62152
38.6252
16.4249
12.9019
-0.529793
0.542423
41.6283
40.2786
19.1607
41.9648
-1.50789
39.7997
15.9185
7.79069
31.3316
30.7158
-0.238281
-1.11664
40.8895
17.1437
-0.0843028
39.2348
36.5582
21.731
28.6899
41.5984
39.6859
9.81783
18.7113
0.611202
10.1845
11.6044
6.96932
21.293
0.280969
3.4754
16.6645
29.1556
38.035
21.542
40.7319
51.7285
2.29992
12.8318
24.419
2.73818
32.7274
4.52401
-1.50281
37.7126
20.6671
59.5354
-0.81064
32.0909
19.2065
-0.0578247
11.3925
-0.236282
9.68434
41.1688
37.4575
39.2231
13.3958
26.1841
-0.453074
-0.232049
1.01014
39.4817
-5.80712
11.3696
-0.230625
40.262
31.2401
0.130643
10.577
34.3977
-1.13271
17.684
-0.969645
8.1914
24.3248
38.2657
37.9391
32.6238
-0.256643
20.7195
4.86494
17.1871
-0.264261
13.0332
0.0534352
22.63
0.378471
40.7633
18.7822
18.4837
40.1361
-0.199792
41.4836
-1.80902
40.831
-0.00624128
39.8426
13.4908
25.7071
25.6539
33.9647
38.6242
36.9101
38.8274
72.5481
30.5549
9.64381
19.9748
0.448957
50.0312
40.5356
-0.471219
29.1003
24.0482
-0.40808
38.9274
29.2079
28.9645
-1.37506
-2.64973
24.1992
20.3534
24.1569
28.292
6.90962
29.5629
26.8845
30.1092
29.9527
25.8005
9.41658
-0.510909
54.5193
28.4605
16.8415
-0.00166405
10.1469
39.8526
39.6444
16.4561
19.1868
34.0392
-0.228675
29.7355
30.1503
38.5525
29.383
19.1957
38.765
2.77669
31.0838
40.7937
-1.06074
4.61113
28.4891
-0.517033
-0.232401
19.2406
-0.000133732
-2.06974
-0.475578
39.9804
30.7625
22.9047
-0.0503242
41.0747
9.37312
0.0595822
40.662
18.3942
28.0149
17.1235
41.5414
0.454268
-0.0393073
-0.632896
41.0584
37.0499
18.5442
30.939
33.3717
2.2434
27.4294
59.7627
38.0308
28.0124
20.9084
14.3196
18.4495
33.4968
19.4407
-0.300331
27.0307
35.5531
37.5959
17.7951
28.7225
36.125
33.1767
-0.158273
18.2525
27.6706
33.9768
0.0665577
41.915
29.3782
41.308
-1.4707
38.0253
35.8094
-1.72708
19.7297
18.4364
30.06
2.02377
4.01104
15.7452
30.4695
57.2835
4.84872
30.2217
2.45709
3.4364
8.97065
59.8333
2.63987
14.1326
22.2973
15.7488
8.46439
2.12446
0.490743
1.76676
34.411
13.2888
37.5237
0.0668385
19.8006
1.24333
15.4427
-0.20217
29.9981
0.0720855
0.0518159
33.6864
23.4241
11.4797
30.2131
18.37
40.4601
-0.133151
12.6667
32.1877
8.84639
30.5563
3.07186
5.86787
4.88612
10.093
30.5601
35.5367
23.042
20.98
21.0617
4.67033
8.28801
-0.0585395
-0.487396
15.1165
17.1562
13.5196
20.0422
0.0522868
40.7241
9.49067
-3.0752
18.2088
-0.291094
37.9928
25.3064
64.3001
20.3766
20.4861
41.6045
26.4199
30.2944
2.11396
36.723
18.7835
-0.804503
39.4863
2.02345
6.18154
-1.17418
30.6159
5.77532
39.6265
14.3741
13.7205
6.9124
36.3814
41.6142
15.8937
6.78374
-0.373509
16.7384
37.7152
-2.82896
18.8075
23.1639
-0.0414863
40.7908
-3.11302
-1.23777
26.8374
33.3424
-0.693017
17.4512
0.0852015
30.1915
31.135
31.4803
5.11047
31.6899
21.6742
41.1788
0.0623064
55.0423
15.7975
7.86214
7.67069
28.354
17.3152
7.4474
-0.00621776
34.7445
-0.00562429
25.7462
5.44338
30.1162
34.0726
34.7454
0.792049
33.7673
39.5653
2.88329
10.5871
9.99184
20.5739
-0.000743598
29.9844
40.5093
13.1619
0.0285607
25.001
3.77327
21.2011
23.1499
30.5071
36.9201
21.1316
57.152
32.5013
0.576767
7.43026
-1.86959
-0.59285
38.7626
24.9031
0.670184
67.435
-2.92471
15.4142
0.409926
17.6272
34.0993
0.0260618
0.133901
9.4282
-2.09739
-0.411783
15.3615
21.7783
3.10751
36.5522
-0.822543
5.67892
26.9124
18.1343
-0.937892
8.13376
10.8955
15.1944
31.1691
5.61141
15.3606
41.6394
16.8203
79.0144
18.1142
-0.307353
1.72647
19.3005
40.2121
62.6218
9.73259
-1.78562
25.951
33.7089
5.35784
0.327987
0.0586413
34.4952
0.392104
29.3653
0.963399
64.9138
0.772017
39.5911
-0.371813
-1.02657
-0.16154
15.3899
5.66181
15.4624
2.62745
38.4797
26.3793
37.1851
40.2896
34.8297
7.14034
38.2432
7.3391
15.7172
18.0177
9.03048
0.404295
-0.0781359
39.1611
31.9067
-0.43892
23.4187
33.4253
-0.0636836
19.783
-0.872592
30.3688
38.2895
35.6116
24.7122
20.5658
13.8849
14.1933
9.96342
0.956346
14.1954
13.312
0.856468
7.25231
22.3133
-2.65926
68.0575
17.2552
-1.15001
37.1435
24.9936
40.7195
38.457
10.977
23.6071
6.18032
-0.0410651
38.8981
24.6301
32.1103
13.254
34.8425
51.9482
-0.0907303
13.9969
18.2847
24.4934
-0.189863
38.0213
17.1829
31.699
-0.0046749
27.1884
-0.375768
15.1836
22.3562
31.1927
9.1677
0.721949
1.90048
35.6167
28.3159
-2.82798
-0.242015
18.8149
35.0794
29.8615
29.4944
31.6775
37.7674
18.1748
9.15953
22.8329
12.7883
25.5612
41.4854
1.79979
73.2653
36.5265
0.593969
16.949
43.2997
12.2817
9.09114
1.50415
22.3814
7.56759
19.4155
9.39475
19.232
20.9605
28.3619
36.4075
39.1283
-0.262974
40.7034
34.7965
31.9907
10.8763
-1.1526
31.679
38.4373
40.963
-0.0542602
22.5856
32.8711
33.8507
-2.79097
0.377495
20.2
14.0703
-0.305671
-1.82962
12.4038
3.70512
12.9088
1.82951
-0.886708
26.2056
1.56162
33.6466
-0.521515
-0.806671
23.2554
15.4252
18.0859
24.866
1.93129
5.21573
18.0429
34.1078
19.1138
28.8026
39.5331
19.5466
3.43863
4.0592
31.7518
-0.649391
36.5899
22.7939
4.96141
19.4481
16.3703
24.1619
30.8892
39.8498
38.5885
-4.60266
28.7372
16.3911
5.96993
5.18516
0.0493908
18.355
-2.84489
24.4328
0.187196
71.2567
21.8269
28.5756
37.8671
72.7787
0.00758708
39.8121
-1.2026
0.172333
21.9437
16.3342
-0.545181
38.3441
71.9238
30.9924
6.0772
12.1389
40.202
11.1518
73.227
-0.0311506
-0.296284
32.2581
38.9983
12.832
24.0521
40.0656
3.36383
-0.457802
71.8038
18.1277
-0.79434
-0.722855
38.502
-1.10513
35.0812
-0.319314
21.7625
-1.03305
30.4127
6.48937
9.94881
8.10279
32.7035
2.12988
18.4148
28.3446
-0.225444
13.8647
36.604
25.864
29.1683
-0.0875351
34.727
5.07489
26.3598
40.5679
38.3684
-1.29964
39.1834
3.38238
-1.30295
-0.129481
13.4403
58.3794
39.4385
-1.77528
9.63351
29.2132
18.6389
40.9654
35.5321
38.5674
-0.0827652
29.497
16.8831
21.874
2.8517
-0.0796045
38.3476
1.83595
77.7484
39.9284
-0.0152401
35.1717
40.8986
18.1237
-4.88621
16.6888
25.1298
40.2026
17.8244
6.58507
40.6829
-0.374052
30.4225
40.5673
17.275
9.8034
27.3241
26.2314
29.3028
31.2653
21.5622
30.8926
17.1239
-1.30323
32.4302
-0.11405
37.5869
5.59225
30.7333
24.8454
40.1954
0.365746
21.2687
18.0062
2.24624
57.0558
29.7755
0.119723
36.731
23.0943
3.8453
4.49366
25.942
1.16136
10.1196
20.8295
-0.318752
3.48079
21.1945
-4.39798
38.3457
-0.000411255
27.0506
-0.26371
19.6701
40.2401
3.77906
40.1863
-0.518768
-0.000420266
18.252
-0.561247
-0.356975
28.8695
39.7313
19.454
5.23181
13.7856
17.7068
0.00726516
26.9428
-0.0668871
22.9173
21.1065
5.4408
-0.185263
-0.563921
-0.159187
39.894
24.4767
19.4986
36.8949
-0.00706084
-1.01259
-0.0140138
32.6775
23.2239
10.0962
19.3804
-1.83628
0.0617436
3.90995
4.54667
-0.0584711
32.4179
28.4053
35.9383
-2.83242
-0.715159
19.9864
40.668
47.935
0.0222368
36.009
35.0762
31.7328
2.02299
-3.10693
13.7582
39.8679
24.6478
15.3734
17.7967
7.82851
33.7966
33.6045
22.1074
15.7274
31.3054
28.4453
16.5825
6.93672
16.6357
33.4684
5.8336
0.577553
38.7448
45.9788
-0.387095
35.7276
56.4993
41.5045
37.0362
13.3641
34.5827
3.33276
2.0536
18.7626
27.6106
0.0147514
40.2704
37.9016
-0.851501
21.7898
8.17899
9.65625
-0.983775
32.2497
74.7758
39.8795
-0.380866
39.7131
20.8031