/*--------------------------------*- C++ -*----------------------------------*\
  =========                 |
  \\      /  F ield         | OpenFOAM: The Open Source CFD Toolbox
   \\    /   O peration     | Website:  https://openfoam.org
    \\  /    A nd           | Version:  7
     \\/     M anipulation  |
\*---------------------------------------------------------------------------*/
FoamFile
{
    version     2.0;
    format      ascii;
    class       volScalarField;
    location    "34";
    object      p;
}
// * * * * * * * * * * * * * * * * * * * * * * * * * * * * * * * * * * * * * //

dimensions      [0 2 -2 0 0 0 0];

internalField   nonuniform List<scalar> 
29540
(
0.00977499
0.138191
-0.0101198
-0.0402494
-0.00289783
-0.0413973
-0.0325938
0.00861758
0.002344
0.000191283
0.0042289
-0.00583112
-0.000611973
-4.65937e-05
0.0883071
-0.00693574
-0.000251846
0.0118679
-0.00256318
-0.0119405
-0.00105594
0.00220264
-0.010289
-0.00252285
0.579735
0.137287
-0.000655484
0.479732
0.0753866
-0.00207236
0.018362
0.0582178
-0.065595
-0.0084878
0.487518
-0.0105079
0.144342
-0.0304155
0.00671502
0.00643875
0.000485413
-0.0200826
-0.000228308
-0.0316257
2.30852e-05
-0.00190176
-0.00519146
6.27851e-05
0.00384188
0.140386
-0.0560869
-0.0353363
0.060393
-0.0398592
-0.00679504
0.0738918
-0.00407998
-0.00108843
-0.00623818
-0.0246637
-9.96371e-05
-0.00249448
-0.0888788
-0.00940013
0.238375
0.546277
-0.010345
-0.00998977
0.519437
0.00050957
0.135804
0.396563
0.00248228
0.539568
-0.00894121
-0.0222152
0.0395442
-0.0267676
-7.79157e-05
-0.0207782
-0.0365417
0.187985
0.00975636
-1.86679e-05
-0.0306556
-0.172831
0.271819
-0.000635461
-0.000591775
-0.0522937
-0.027799
-0.0271553
0.0035184
0.051562
-0.0537816
0.273679
-0.0367371
0.000525211
-0.0455755
0.12017
-8.16281e-05
-0.0253117
-9.66144e-05
0.036529
-0.0360104
0.112526
0.335259
-0.000570235
-2.99456e-05
-0.0665781
-0.0644682
0.00436812
1.3015e-06
-0.00189717
-0.000224201
0.385634
0.200888
-0.0129798
5.8437e-06
0.00295555
-0.171732
0.148198
-0.0678381
0.542228
0.0012697
-0.0475642
0.0167361
-0.0212933
0.00471341
-1.79719e-05
-0.029688
0.0254328
0.372753
-0.0872199
0.0362259
0.0178575
0.285798
-0.0257597
-0.130301
0.112497
-0.0409983
-0.0454346
-0.0472338
9.59203e-07
-4.93711e-06
-0.00295899
-0.00487662
-0.0510173
-0.10699
-0.0786755
0.0283433
0.0134215
0.000470868
-0.000192746
0.200358
0.000553953
-0.00909426
0.261858
0.243683
-0.0560011
-0.035085
-0.0391581
0.0802798
-8.2028e-05
-5.3287e-06
-0.0130789
-0.0455576
3.09371e-05
-2.05689e-05
-0.00802261
-2.76222e-06
0.00653673
0.267143
-0.0252174
-0.0628177
-0.00576622
0.00239356
-0.0263645
-0.00156302
-0.0634391
-2.98248e-05
-0.00771121
0.268213
-0.00925735
-0.129513
0.197644
-0.00719457
-0.0197713
0.00444066
-0.00207332
-0.000365503
0.00139879
0.552448
0.196867
-0.015179
-0.00871268
0.45676
0.175324
-0.0533393
0.00132651
-0.0527046
-0.0551283
-0.00564617
0.000956265
0.280764
-0.00770033
0.00798302
-0.0503653
-0.0684079
-5.54693e-05
0.420851
-0.0012515
-2.04002e-05
-0.000683493
-0.0268667
-0.0742089
-0.0064323
0.0077764
-0.00250496
-0.053907
4.13276e-07
0.000484591
-0.00270247
0.0926595
-0.00335218
-0.00179395
0.0611524
0.000110926
2.1156e-05
0.0061522
-0.0311171
-0.0233036
-0.00539251
0.134217
-0.0161522
0.0143498
-4.85396e-05
-0.0034959
0.000891196
-0.0497839
-0.102637
-0.00164872
0.00050473
-0.0018559
0.00313996
-0.0115533
-7.87611e-05
-0.168479
1.71073e-05
0.0942408
-0.00393865
0.000132523
0.114522
-0.0544966
0.000266266
-7.5328e-06
-0.0454696
-0.0987613
-0.0100041
-0.0229085
0.0280415
0.256406
6.71523e-05
-0.0293935
-0.103818
0.468906
-0.00925623
0.194462
-0.0175995
-0.000346244
0.664525
-0.000679043
-0.0651112
-0.0533233
0.00257921
-0.0564849
-0.00925526
0.376732
-0.00402352
-0.0196555
-0.000367742
0.177889
-0.00391906
0.280203
-0.000636861
-0.00664305
0.449415
0.0791882
0.0611025
-0.0349487
-0.000210068
0.00306611
-0.000263963
-1.85764e-05
0.0810892
2.85212e-05
-0.0212286
-0.106014
0.587719
0.368896
-0.0481808
-0.0217017
-0.02217
0.00529835
0.0023631
-0.0201076
-0.0513701
0.262945
0.401263
-0.00153445
0.328848
0.0786934
-0.0703155
0.0124507
-0.0026113
-0.0157345
-0.00616281
-0.00308272
-9.14755e-05
-0.00239675
-0.0078215
0.183006
0.00187025
-0.0291382
0.0144395
-6.14097e-05
-0.0497082
0.618985
-0.00728858
-0.0017743
0.0133188
-0.0194372
0.0950044
-0.00187703
-5.95088e-05
8.63839e-07
-0.00310417
0.452594
0.020627
-0.105991
-6.71022e-06
-0.104478
0.052474
-0.00586096
-0.0495871
-0.00162621
-0.000558594
-0.0272539
0.00106017
-0.0650517
0.0124874
0.0205841
-0.000286359
0.00195131
0.14699
-0.168731
0.000460362
0.000491561
0.379998
-0.0280603
-0.00200757
0.184289
0.478022
-0.0668791
-0.00957252
-0.066682
-0.000949124
-0.00961977
-0.00393827
0.171252
-6.7284e-05
0.0120113
-0.113578
0.380294
0.529838
-0.00699033
-0.0102607
0.248715
-0.0255976
-8.90114e-05
-0.0320797
0.0981713
0.0999922
-0.00876623
0.0306609
0.470944
-0.118257
0.422204
0.387732
-2.72794e-05
-0.00652379
-0.107089
-0.00353962
0.00191152
0.482826
0.020386
0.000312472
-0.039341
-0.0560706
-0.00651458
-0.000180207
0.281883
0.196698
2.08356e-05
0.00488265
0.00647971
-0.123936
-0.03494
3.85035e-05
-5.18943e-06
0.000570741
0.100973
-0.0301619
0.299482
-0.0519607
-0.0211254
-0.0231139
0.179925
-0.0770515
-0.00149087
0.00967965
0.000986806
0.42459
-0.0278946
0.00128972
-0.00865886
-0.0386485
-0.00205783
-0.0141782
0.000255228
0.000262381
0.628444
-0.00935637
-0.00602675
-0.000617669
-0.000927427
0.240275
-0.115729
-0.0295904
2.684e-06
-1.75056e-05
-0.0287777
-0.00786983
-0.0061201
0.0207411
0.00743705
-0.00378922
-0.00512533
-0.0195888
0.413874
0.00385745
0.000272409
-0.0476705
-0.0277141
-0.0381819
-0.00419662
-0.0293758
-2.78607e-05
0.518439
0.0237721
6.9772e-05
0.55257
-0.0303719
-2.96578e-05
0.00174147
-0.0491879
0.00604924
0.0473541
-4.24771e-06
-0.00920578
-0.0141218
-0.0063284
-0.000613331
-0.00953295
0.462219
-0.00992144
-0.0137525
0.210372
-0.00337631
0.441278
-3.24477e-05
-0.0195135
-0.0539829
-0.0289685
-0.115318
-0.00196846
0.000241452
-0.00023309
-0.0217177
0.00194271
-5.81702e-05
3.88178e-06
-0.00736315
0.414543
0.00734374
0.00299783
-0.0531643
-5.67765e-06
0.00117257
-9.45034e-05
0.0100901
-0.0198593
-0.000513684
-0.00974905
-0.014208
0.00123713
-3.43293e-05
-0.11257
-0.000557256
0.0459994
0.347048
0.255016
-0.00600739
0.00730581
0.0315449
-0.000163636
-0.00456108
-1.1468e-05
0.391888
-0.0159462
0.0204506
-0.0189732
0.00153408
-0.00389211
-0.000163773
4.85501e-06
-0.00583354
0.0476448
0.248093
0.00150059
-0.0435288
-0.0274145
-0.00919323
-0.0741432
-0.00164769
0.000658967
-0.00662631
-0.00015334
-0.0506259
0.27921
0.183962
-0.0249783
0.272146
7.13007e-05
2.22751e-06
-0.0260992
-0.0488303
0.539266
-0.0514184
-0.0233253
-0.0315618
0.00142971
-0.00692232
0.000543297
-0.0121986
-0.014899
-2.23634e-05
-0.00113604
0.376143
-0.000217047
0.499489
-1.02211e-05
-0.145422
0.0421934
-0.00095217
0.00126847
0.000203947
0.405729
0.0484648
-0.0550044
0.192112
-0.00853732
-0.0149305
-0.00488997
0.18104
-0.0285686
0.00758572
-0.0093382
-4.95588e-06
-0.00163109
0.00708453
-0.0197223
-0.0244454
-0.0448457
-0.0199199
0.122927
-0.00263886
-0.0527965
-0.0154379
1.42779e-05
-0.0136126
0.0043287
0.125212
-0.029948
-8.56273e-06
-0.0206228
-0.00119922
0.00170161
-0.121749
0.298701
0.00109163
-0.0134554
-0.0533246
0.0816392
0.45141
0.00220589
-0.0066458
0.20069
0.163362
-0.018397
0.00605447
-0.0486958
-4.1735e-06
-0.0410208
8.0811e-05
-0.0515022
-5.27027e-05
1.04367e-05
-0.00860229
-0.0888647
0.34009
0.0043963
0.0135021
-2.54224e-06
-0.00753827
8.68515e-05
-0.00395528
1.10408e-05
0.0514066
-0.000630087
0.177088
-0.000190252
-0.0143564
-0.0366891
-0.00511287
0.447965
-0.0182371
-0.061862
-0.00677777
0.0538049
-0.0472675
0.0345859
-0.030497
-3.69365e-06
-0.00710551
-0.00478403
0.000282144
8.23585e-05
0.177025
-0.00593742
0.0893646
-0.0063664
0.00104882
0.0378611
0.000179277
-3.42366e-05
-0.0403948
-0.0042437
1.51287e-05
0.230692
0.593658
-0.000296929
-0.0354355
3.26909e-06
0.480474
-0.156111
-0.0395565
2.14266e-05
0.00850335
0.0669017
0.0789119
0.0458349
-0.000532022
-0.000230665
-0.0175217
-4.07009e-06
1.10201e-06
-0.028986
-0.036169
-0.0441732
0.566251
0.000223215
-0.0413698
0.00943492
-3.1336e-05
-0.0016196
8.7196e-06
-0.0075808
3.53318e-05
-0.0290176
0.0334376
0.434849
0.0522152
-0.000383434
0.00053655
-0.127138
0.0874799
-0.00380606
5.32847e-06
0.189304
-0.122702
-0.0499992
-0.0156927
-3.97254e-05
-0.000379182
-0.125943
-0.0268366
0.148939
0.411444
-0.0605238
-0.00159942
-3.13054e-05
-0.0462508
-0.0646462
-0.000286546
0.00155409
-0.0178057
-0.00566609
0.401641
-0.00164737
-0.00998952
0.0519587
-0.00905944
0.542189
0.542861
-5.94428e-05
-8.51043e-05
-0.0179406
0.0192647
-0.0345191
0.00648848
-0.0087703
-0.000753528
0.463675
0.172522
0.0027694
0.656612
2.54053e-06
0.112826
-0.0616162
-0.041249
8.66573e-05
-0.0356622
0.117452
0.0183937
0.0710638
-0.000597599
-0.00064023
-0.0108036
-0.00420827
-0.0153918
-0.00140397
0.114754
-0.00780264
-0.00641256
-0.0533913
0.372247
-0.0137471
0.0371837
-0.000537171
-0.0006762
-0.0223236
0.00120209
-0.00316441
-3.8077e-05
-0.000463794
0.117884
0.407344
-0.000188159
0.120346
-2.50188e-05
-0.0040816
-3.67984e-05
0.00666767
-0.119449
-7.06335e-05
-7.28285e-05
-0.0534215
-3.45764e-06
0.0464772
-0.0281305
-8.02469e-05
0.169363
-1.65678e-05
-0.000533397
-0.000136269
-0.00614899
-0.000522612
-0.00726121
-0.0712025
-0.00046832
0.00522888
-3.4678e-05
0.333318
-0.0108952
-0.0165493
-0.0324619
-0.0238723
-0.00150073
0.00357906
0.215096
-0.0286621
0.149038
-0.0393776
-0.00421438
-6.07508e-06
-0.00682813
0.369328
0.188225
-0.0388672
-0.0478466
0.3194
-0.00974787
-0.0570651
-3.63009e-05
-0.0292043
-0.00106155
0.636293
-0.0503109
-0.000133414
-0.052131
-0.0294542
0.25191
-0.00312639
-0.0304782
-0.00486945
-0.00804418
-0.00160204
0.251429
-0.100685
-0.0210048
-0.0166643
-0.0142153
0.00690154
0.312948
-0.0201178
0.193928
0.00333248
-0.118661
0.509926
-0.00989263
-0.000317183
0.247908
0.381528
-0.00942908
-0.00567986
-0.00817477
-0.0321419
0.203047
-0.0458574
-4.22867e-05
-0.0085254
2.66136e-05
-0.00530601
-4.45939e-05
-0.00603761
-0.00121329
-0.00387683
-0.121086
-0.00077285
-0.000653697
-0.00146267
0.208091
-0.00251318
-0.00389261
-0.00369123
0.167189
0.00633074
-0.000502495
0.366211
0.535183
-0.0206968
0.462969
-0.0182854
0.345403
0.00656215
-0.0189068
0.00306003
-0.000591354
9.81571e-06
0.00301034
-0.0129693
-0.0205681
0.188485
-0.0236026
-0.0208898
-0.00113416
-0.11986
-0.0265582
0.00774768
-6.94899e-06
0.00544343
0.0292321
0.386468
-0.00432513
-0.014179
0.146582
-0.000464416
0.0413387
-0.0186556
0.000652268
-0.0516244
0.00281974
0.346771
-0.00241624
-0.000667557
-0.000190024
-0.053643
-0.00159308
0.641223
0.663114
0.0138707
-5.84862e-05
0.00954352
-3.08346e-05
0.0510838
-0.000659406
0.0244402
0.578425
-0.0319749
1.06065e-05
-0.00871012
-3.17958e-05
-0.099103
-0.0340118
0.468556
0.000235772
0.0133474
0.00218643
0.000299049
-0.00255521
-0.000376845
-0.00647152
-0.0387355
-0.0234861
0.00536392
0.164478
-0.01382
0.00697822
-0.0208139
-0.00218065
-0.0278798
6.25262e-06
3.25403e-05
-0.00243055
0.0300901
-0.0350105
-0.0169436
-0.00395173
0.00293781
-0.0335377
0.199675
-0.0130687
-6.38108e-06
-0.0486967
0.429106
-0.0822418
-0.0124459
0.0395357
-2.56561e-05
-0.000773293
-0.0285164
-4.8572e-05
-0.000519375
-3.09353e-05
0.657838
0.00959658
0.00386324
-1.31958e-07
5.83583e-07
-2.72857e-05
-3.0586e-06
-0.0224619
0.382637
-0.0340908
-0.000561559
-0.000201261
-0.00618169
0.467695
-0.0525662
0.419363
-0.00160713
0.142617
-0.000161797
0.461833
-0.00235987
-0.00964958
-0.0077491
0.00649556
0.00785315
0.187043
-0.0388339
0.4549
0.277095
-0.00869026
-0.02924
-0.0102017
-0.0288496
-1.9253e-05
-0.00101155
0.00284045
0.0707795
-0.00677145
-0.0225846
-0.00348889
0.560586
-0.0710872
-5.17792e-05
-4.35398e-05
0.475368
-0.00504612
0.00118192
-0.0131352
-0.00233696
-0.0154498
-0.00989554
-0.0831444
0.0321044
0.0034404
-0.0101661
-0.0144116
5.3304e-05
-0.00584271
-0.00171947
-0.00795479
-4.18998e-05
3.22431e-05
-0.0229884
-0.0202631
0.450063
-0.0361065
-0.000240075
-0.00159237
-0.000349565
0.364099
-0.0755652
-5.23802e-05
-0.0296453
-0.0045543
-0.00367755
-0.0276279
-0.0308377
0.00661051
0.0528876
-0.0629912
4.25982e-05
0.00588061
-0.0129557
-2.04649e-05
-8.36204e-05
0.113602
0.0822158
-0.057114
-0.0438007
-0.0516504
0.000491742
0.489253
3.94034e-05
-0.0187422
0.398076
-0.0165189
-0.0350265
1.66697e-06
0.000118759
-0.035059
-0.00909984
0.00133182
-0.0299022
0.230611
0.23882
0.000640507
0.000212535
0.192199
-0.0121503
-2.07294e-05
-0.0014966
-0.026401
-0.0215398
-0.0111887
-0.00282337
0.130076
6.78006e-06
0.0731168
0.270271
1.07518e-05
0.00608573
-0.000467132
-0.0812994
-0.0129746
-0.000681085
0.026159
0.00015518
0.220763
0.00132544
0.0201333
-0.00730311
0.587195
0.369884
-0.0470855
-0.00672183
1.5425e-06
-0.0990561
-0.0120495
0.139552
0.307914
-0.0299165
-0.0310319
-0.0143355
-0.00554367
0.139242
-0.000203816
0.454625
0.0214279
2.87582e-05
1.20719e-05
6.95437e-05
-0.0108986
-0.014978
0.000572895
-0.000859435
0.0856416
-0.0435707
0.000315823
3.89724e-05
-0.0197656
-4.96258e-05
-0.00242841
-0.0096176
-0.000698257
-0.0362315
0.00339002
-0.00117245
-0.00315746
-0.0133567
0.370245
0.380568
0.0314006
-2.51142e-05
-0.000486865
0.244794
-0.000410331
-0.115991
-0.000195659
-0.0164455
-0.0654627
-0.000205572
-0.000219011
-0.0273766
0.00105724
-8.13066e-05
-0.00112048
0.181919
-0.027795
-5.2856e-05
0.0842995
0.346937
0.359019
0.000470787
-0.101209
-0.00749114
0.425875
-0.0534696
-0.0548188
-0.0148754
-0.0102482
0.0228688
-0.0202119
0.359495
0.0547167
-0.000170753
-0.0415414
-0.0524659
-0.00312848
-3.48705e-06
-0.00152789
0.206287
-0.000188939
-0.011149
-0.00327535
-0.000982326
0.00708347
0.0240251
-0.000175282
-0.00012394
-0.0070691
-0.0820423
-0.0283583
-0.0597442
0.239165
-0.00238674
-0.000252559
-0.0297577
-0.0190518
0.00732456
0.0107356
2.26399e-05
0.0620629
0.131369
0.0153484
0.0193465
-0.000539323
-0.0104823
-0.0889613
0.00101946
-8.21838e-05
-0.00760531
-0.00320113
-0.000623695
-0.00909075
-0.000712549
0.192432
-0.00715428
-0.109355
-0.0190754
-0.0084172
0.00938855
0.478064
-0.0327767
-0.000127964
0.459355
0.151605
0.00613757
-0.00461591
0.00594754
-0.0572024
0.149943
0.000252888
-0.00295053
0.578963
0.28785
0.302274
-0.0345922
-0.00114109
-0.00100672
-5.17527e-05
-0.00106852
0.257645
0.0715367
-0.0134953
-0.00609477
-0.000322909
-0.0754639
0.551003
0.401435
0.0682324
-0.00226365
-0.0462369
-0.00486034
-0.000608936
-0.0195645
0.00737307
-0.0209004
-0.00280385
0.000657914
-0.0724915
-0.0817007
0.0246632
-0.0194377
-0.00537041
-0.0197065
-0.000186836
-0.00550371
-0.000580547
0.328688
1.4776e-05
-1.12123e-07
-0.0293779
-0.0151633
-0.0217771
0.0314032
-1.71981e-06
-0.0682808
0.0479309
0.18607
0.624148
-0.00366235
-0.107244
0.0236124
-0.00167375
-0.00447183
-0.000506365
0.00809734
-0.000178746
0.223593
-0.125731
0.00834861
0.0884745
0.105582
0.00109329
0.00172605
9.03813e-07
0.42047
-9.96019e-06
-0.0336632
0.000238686
0.00122718
0.163606
0.0881845
-0.0611916
-0.0292092
-0.00328572
0.663255
-0.0604431
1.40906e-06
-0.0120384
-6.15519e-05
-0.0157675
0.0901423
0.189473
0.000673649
-0.0264775
-0.00730539
0.138829
-0.0773812
-0.024482
0.563878
-0.00768333
3.59406e-05
-0.136079
0.588064
0.000912476
0.0819232
-0.0338715
0.117123
0.00145636
0.0194192
-0.0537249
0.00353919
0.045057
-0.0295356
0.137485
-0.019905
-0.0149851
-0.000660331
-0.000664584
0.506551
-2.17131e-05
-0.00486644
-3.96127e-05
-0.00627189
0.000252007
-0.00571312
0.21419
-9.06219e-06
-0.000829197
-0.0594803
-0.119564
-0.0200812
0.000841924
0.411475
-0.0463201
0.161687
-0.00912485
0.144831
0.00474201
-0.000619049
-0.123886
0.00057694
0.519473
-0.0214504
-0.000121352
0.00174781
0.132664
-0.00865621
-0.000581534
-0.000130586
-0.0766135
-0.00204614
-0.00775111
-0.0586706
6.50585e-08
-0.0499184
0.000279453
0.351119
-0.0081043
0.138406
0.00323273
-0.00292047
0.252952
-0.0551946
-0.140404
-0.00346284
-0.0804587
0.262048
0.277048
-0.0108138
-2.84297e-05
-0.0119442
0.0035837
-1.17719e-05
0.0133694
0.385938
0.00985623
0.00122101
0.00301216
-0.0507393
-0.000158667
0.0595518
0.0360087
0.0551
0.0103386
0.021667
-0.000334338
0.167831
-0.126006
-0.123611
-0.000816148
0.0106969
0.130763
0.000606894
-0.0518845
0.209171
-0.0362691
-0.0529097
-0.0526939
-0.0988241
-0.0981224
0.0432248
0.214495
-0.096242
-1.83536e-05
0.000573647
-0.0705953
-0.00142636
-0.00102421
-2.08201e-05
-0.00446654
0.0030879
-7.64823e-05
0.0481822
-0.000436237
0.110564
-0.0263268
-0.00636126
-0.00535935
-0.00658987
-0.0535248
-0.00453766
-0.000879535
0.0168991
0.0656264
0.00318812
-0.0249636
-0.00233367
0.0225357
-0.00730875
-0.0147938
-0.0527276
-0.0121922
-4.84292e-05
-0.0117217
0.456678
5.99743e-06
0.00089509
-0.053519
0.552504
0.0397045
-0.0345061
-3.30941e-06
0.00129241
-0.0689747
-2.41865e-05
-0.00214078
-5.87603e-06
-0.0595739
0.00350159
-0.073946
-0.0175133
-0.000123531
0.26822
0.260248
-0.0273225
0.000333474
-0.000164077
-1.79374e-05
-6.51403e-05
0.491587
-0.00106764
0.00176756
0.0173745
0.000721838
-0.000499721
-0.0532952
-0.000243777
0.034164
-3.53348e-05
-0.0016737
-0.000617407
-0.0194691
-0.0313886
0.164432
0.0513989
-0.000155148
-0.0102609
0.000397985
-0.0840314
-0.000591155
0.111231
-0.00936788
0.657861
-0.0166684
-0.00117345
0.0635747
-0.0146764
0.345833
-0.031848
-0.00871076
-0.0100597
0.0147033
-0.00290526
-9.30672e-06
-0.00654129
0.300866
-0.0326388
-0.00257465
-0.0312947
-0.0205426
0.142896
-0.000434486
0.2678
-0.00553372
-0.0521296
-0.000453349
0.0104377
0.0366163
-0.0102068
0.321653
-0.000405946
0.0270058
0.0766012
0.000340729
-0.000137318
0.539247
0.0423682
-0.0014868
0.0235381
0.00864314
7.39267e-05
-0.0867168
-0.0173463
-0.107653
-0.00857391
0.334751
0.00302293
0.0766995
-0.000347261
0.401369
-0.0513374
-0.00417764
0.00488795
0.0255054
-0.0562873
-0.118403
-0.0067187
1.52825e-05
0.60121
-0.0173565
0.000616372
-0.0544896
-0.0298435
0.331287
0.00233668
-0.0126827
-6.30451e-05
0.0247456
0.00630254
-0.0290227
0.000610527
-0.00278506
-0.0213936
1.6835e-05
-0.0391664
-0.001284
-0.0115979
-0.0480294
0.287565
-0.00805991
-0.0179315
-0.047474
-0.0256273
-5.38955e-05
8.79144e-05
-0.00309188
1.78296e-05
-0.00876164
-0.108136
-0.00168027
-2.04549e-05
0.530862
0.00393303
0.000228669
-5.52646e-05
-0.00174028
0.316059
-0.0390075
0.602779
0.179562
0.0175003
0.279412
-2.40301e-05
-0.0118755
-0.000711826
-0.00201081
0.188668
-0.00822562
0.600316
0.250007
-0.04339
0.266235
0.00643576
-0.0112982
0.00174545
-0.0527714
-0.00319185
-0.03918
-0.041431
-0.00245042
0.260328
-0.00789111
8.90205e-05
-0.00347515
-0.000570574
-0.0257414
-0.000161699
-0.00104855
-3.36563e-05
0.151309
-0.120691
0.269288
0.0215456
-0.00224474
-0.0281712
-0.0161445
0.0637215
-0.00248468
-0.000891691
-0.0484195
-0.0352318
0.00383017
-0.0322514
-0.00362446
-0.00178486
0.000773576
4.7305e-06
0.125247
-5.62476e-05
0.0486135
-0.000688142
1.20321e-06
0.00156115
-0.000578839
-0.00101895
-0.012896
0.147949
0.141393
-0.0157165
-0.0100941
0.00227632
-0.00410848
-0.00812485
-0.000158298
-0.000432046
0.0005189
0.104474
-0.00726692
-0.0445345
-0.0446032
-0.0021774
-0.0221706
-0.016264
-0.00141928
0.00417955
-0.0098766
0.235916
-0.0563311
0.00389796
0.000404045
-0.0300769
0.590755
-0.0080471
-0.00538577
0.00614792
0.0723276
0.00316769
-0.00875371
0.261673
-0.000329829
0.0359519
-0.0201308
-0.050512
0.00506244
-0.00307148
-0.00446373
0.0341809
-0.00294435
-0.00054331
-0.00415773
0.00193705
-0.000221453
0.0185171
-0.00753057
-0.00168472
-2.29824e-05
0.15322
-5.64167e-05
-0.0271502
0.0696017
-0.0211105
7.51064e-05
0.103533
-0.0403445
0.16717
-7.3985e-05
-0.00327472
0.0219749
0.000116549
0.00390882
-0.00368067
0.00839937
-0.0164714
-0.0249837
-0.00785135
-0.00220238
0.00791966
0.0169938
-0.0757248
-0.000179357
0.108439
-0.0308824
-0.00274271
-0.00559418
0.000296926
-0.0571916
4.21233e-05
0.461952
0.194092
-0.00043096
-0.0171259
-5.09167e-05
-0.00179996
-0.00504187
-0.0177564
0.154068
0.0938389
-0.00596792
0.0081443
-0.053719
0.0269742
-0.0174773
-0.0228689
-0.0386423
0.00924407
0.194621
-0.0076562
0.388042
-0.000785483
-0.0086864
-0.0411777
-0.000103555
-0.000646105
-4.72911e-05
0.384967
-0.00824559
0.000182277
-0.0123874
-0.00529041
-0.000294193
-0.0104472
0.26349
0.000720753
0.00865464
-0.025994
-0.000457081
-0.0037056
-0.000685047
0.609936
0.00014349
1.19777e-05
-0.0016817
-0.0118262
-0.0191711
0.000397228
0.00108881
0.0664002
-0.0001612
0.00154636
-0.0535757
-0.0603396
-0.049219
-7.65193e-08
0.00023553
-0.024381
0.0253475
0.309563
0.083774
-0.0259494
9.49457e-08
-0.048255
-0.00212337
-0.0100162
-0.00969887
0.170919
0.44104
-0.000110311
0.140873
0.231513
-0.00767047
-0.0322983
-0.0199347
-0.0154138
6.47636e-05
-0.030439
-0.00698344
-0.000133091
-0.000471738
-0.00129818
-0.00154274
-0.000572164
0.30029
0.314035
0.148504
-5.61722e-06
-0.0179082
-0.0388317
0.0955732
0.468538
-0.00042035
-0.0156814
-0.0142579
0.274362
-0.0148702
-0.00775918
-0.0281129
0.145354
0.000205996
-0.000439575
-0.0208421
-0.0414576
0.104073
0.00834041
-0.0357961
-0.0197935
-0.0518978
0.0152914
-0.0384656
0.00550788
-0.100542
0.0722134
-0.000309323
-0.000532203
0.0577086
0.000137585
-0.004709
0.0258838
-2.57741e-05
0.229356
-0.00855256
-0.00352706
0.629175
-0.0277576
-0.00960583
-0.0295377
-0.00238277
0.436638
0.000873812
0.593273
-0.000135166
-0.0317849
0.603886
0.00541232
0.433663
-0.00453445
-2.84513e-05
-0.0255356
0.43919
-0.00128743
-0.00523425
-0.00640165
-0.00082624
-0.0167914
0.445123
0.0878256
-1.27467e-05
0.0152596
-0.00296683
0.0238075
-0.000739319
0.0187821
-0.00208862
-0.000412622
0.420922
0.453723
0.426494
-0.0380608
-0.0888872
8.69426e-05
-0.041141
0.27731
0.0104328
0.000159053
-0.0638956
0.000436328
-0.000106395
0.452088
7.62103e-05
0.00327029
-0.00155717
-0.00737559
0.43145
0.444062
0.460613
0.00932143
0.00034524
0.197876
0.00600595
0.0144746
-0.0071055
3.85729e-05
-0.00235757
-2.64811e-05
-0.0036016
-0.000621267
-0.00465825
-8.18054e-05
0.135179
0.00164817
-0.0618947
-0.00732965
-0.0506887
-0.0125237
-0.000643744
0.33727
-0.00834955
-3.60042e-05
-4.17289e-05
0.58275
1.27713e-05
0.00900133
0.0412592
-0.0137418
0.285415
-0.00413172
-0.0317004
-0.0275469
-0.000466874
7.70305e-05
0.249911
0.456478
-0.00124405
-0.0184756
-0.000211671
0.448454
0.55897
-0.00116382
-0.00523973
0.015455
0.00230751
-0.0186262
2.42501e-05
0.00801815
-0.0283386
0.041467
0.335889
-0.00121932
0.0230946
0.0397233
-0.0250021
-0.0324888
0.0224746
0.540996
0.157063
-0.0380618
0.453969
-0.000496676
0.467808
-0.00627178
0.374504
0.0556126
-0.00398993
0.0223198
0.00187786
0.0140641
-0.0512679
-0.000556303
-0.0176465
0.368452
-0.0203286
0.0129779
-0.00119604
-0.0786237
0.148728
-0.00719112
-0.175758
0.000525974
-0.00290123
-0.0180556
-0.00171293
0.00149851
-0.00681888
-0.000422497
0.00188874
0.370425
0.00160294
-0.0120613
-0.0438298
-0.0219648
-0.0447875
-0.0692514
0.00325466
-5.19445e-06
-3.37921e-05
0.2379
-0.0496124
3.14299e-05
-0.0799483
0.159733
-0.0445648
-0.0114297
7.13829e-05
-0.00151184
-0.0334195
0.108647
-0.00740093
-0.0004047
-0.0333329
-0.0152752
0.607063
0.0953567
0.0524352
-0.0405755
-2.97214e-06
-0.00517418
0.0530798
-0.000321474
7.83461e-06
0.14547
0.0793355
0.000455955
-0.000702124
0.00387831
-0.0336246
0.00789531
0.00577352
-0.011401
2.69601e-05
0.236881
0.000425707
-0.000546137
-0.000209612
-0.000195971
-0.00014668
0.0677478
0.000673155
-0.0021823
-0.00725884
-0.00393522
0.0222624
-0.00415392
-0.0302236
-0.0078739
0.405077
0.325479
-0.000409522
-0.00116924
0.076518
-0.000662372
-0.017449
0.0190803
-0.0310958
-0.0007753
0.0162071
0.0319224
0.000944998
0.0461547
-0.000103877
0.00574618
-0.0314507
0.0105796
-0.0110489
0.0394227
3.8116e-05
-0.000689988
0.000178292
-5.87774e-05
-0.00131229
-0.0072826
-0.00956154
-0.0216225
0.0138091
0.0269595
0.0070962
-0.0521593
0.00717843
0.0029842
0.00994778
3.04633e-05
0.446235
-0.006224
-0.00249199
-0.0528278
0.615429
2.08565e-06
-0.00469965
-2.0116e-05
-0.0603356
-0.0048208
-0.0164238
0.14474
-0.00300604
-6.06507e-05
0.0821989
0.0586175
-0.000448655
0.0406617
-1.90221e-05
0.139984
0.00390901
-0.0208562
-0.000134884
0.201197
0.0220933
-0.0148123
8.76216e-06
0.144561
0.286636
-0.000869956
-5.11059e-05
-0.0263943
-0.00662811
-0.0021995
0.0122911
0.470108
0.25043
0.000331752
0.303028
0.206167
-0.0021332
-0.0382566
-0.0306438
-0.0128322
-0.0457433
0.0151179
0.000579405
0.490473
0.115421
0.00925669
4.41052e-05
0.000442699
3.28546e-06
-0.000448974
-0.00208596
0.528788
-1.34565e-05
0.063757
0.0207618
-0.000195142
0.484258
0.559339
0.167818
0.202502
-0.109707
0.00180383
-0.000239498
-0.00803608
-1.97822e-05
-0.000840121
-0.114577
-4.88283e-05
-0.00163305
0.498935
-0.00841825
-2.50084e-05
0.523937
0.000311719
-0.0246399
-0.0495663
-0.000997704
-0.0674323
-0.000197945
0.067523
0.00242664
-0.0134916
0.00140168
-0.000516216
-0.000316145
-0.000189428
-0.110736
-0.0426264
0.130869
0.00196419
-0.00906309
0.194186
3.68957e-05
0.587271
-0.000451871
-0.0561137
0.00162248
0.00117594
0.0395882
0.0413085
-1.78741e-05
-0.00307563
5.74501e-05
-0.000521336
0.000590223
0.0662308
0.0378084
0.292875
-0.0400914
-9.34251e-05
0.000102363
0.0795353
0.311081
-0.00323483
-0.00455335
0.588278
-0.00204355
-0.0145878
0.000510823
0.0242304
-0.0411947
-0.00614994
0.134245
0.00094404
-0.000208594
0.0011881
-0.0750023
0.575033
0.445574
-0.016987
-0.0320894
-0.00473227
0.00111856
2.71593e-06
0.0592524
0.157762
-1.39038e-05
-0.0052538
-2.35882e-05
7.33471e-05
0.415247
-6.76884e-07
-0.0609851
-0.0477585
-0.0825391
0.053793
-1.02182e-05
0.00719457
-0.00456889
0.378476
-0.0271018
0.00361981
-0.0215597
0.000431332
0.316113
0.182627
0.00742562
0.0304268
0.505107
-0.0455947
-0.0432564
-0.00141132
-0.00504111
-0.000307944
0.0102077
-7.56064e-05
0.140692
0.00207895
0.143047
-0.025371
-3.01453e-06
0.0381237
-0.000146775
-1.99463e-05
-0.000580696
0.572567
0.547921
0.25843
2.642e-05
0.101468
0.46575
-0.000732564
0.000434964
-0.00604215
0.0251006
0.441879
-0.0193953
0.0988033
-0.001946
-0.0438414
-0.0491112
0.638636
-0.000460851
0.4432
0.0691692
0.164062
5.16391e-05
0.000130821
0.00382468
-0.00642736
0.0629698
-5.92379e-05
3.14597e-05
0.434547
-0.0920124
0.000185263
0.457844
-0.00170042
8.71922e-05
0.35347
-0.00562615
-0.00117227
-0.0984805
0.0717938
0.000207403
-0.000119098
0.00238322
-0.0029185
0.430295
0.56874
0.232365
0.622825
-0.000638687
-0.0316179
0.511048
-7.91423e-05
-0.00238054
0.0248161
-0.00253341
-0.000497711
-9.21613e-05
0.455504
-0.00110734
-0.000494609
0.5527
0.0586992
0.148847
0.0321925
-0.0019745
-0.0147323
0.100513
0.0511156
0.452408
-0.0184193
-0.000591513
0.412818
0.367369
0.00899406
0.303527
-0.0287998
-0.00554655
-0.00691851
-0.000487077
-0.000123417
0.418619
-0.0438319
-0.0415813
0.000444439
0.126057
-0.0217211
-0.0171374
-0.00077965
-0.00309963
0.474393
-0.000603465
-0.0124221
-0.00217327
0.464452
-0.0140226
0.0145151
-0.00533652
0.000974387
0.124721
-0.0153447
0.487732
-0.0263656
0.620061
0.220347
-0.0402272
0.0229635
-0.00131155
-0.00831605
-0.109634
0.43769
0.470594
0.534098
0.262766
0.423853
-0.00029835
0.501885
-3.9028e-05
3.2504e-05
-0.0328397
0.546003
0.0377698
0.194185
-2.83077e-05
-0.00157442
-0.116301
-0.0270539
0.429584
-0.000515774
-0.00545117
0.257571
0.000717255
-0.00306595
0.599151
0.0348092
-0.0356289
-0.174664
-0.000416784
-0.0169907
-0.0508641
0.628416
-0.0363109
-0.0239813
0.00282451
-0.000193425
-0.0125281
0.15729
0.00289849
7.46236e-05
-0.104538
0.20875
-0.00108824
0.442257
-0.0554271
0.44848
-0.0322554
-0.0161979
0.50807
-0.00380923
-0.0485211
-0.000317582
-0.00097449
-0.0421312
-0.0156378
-0.0246997
-0.00693288
-0.0116919
-0.106498
-0.0469492
0.444515
0.000157308
0.000509039
-0.0146147
0.0861371
-0.105833
-0.0396922
-1.42678e-05
-0.111064
0.0331851
-9.76264e-05
-0.0657901
-0.170572
0.45347
-0.0870376
0.438959
-0.00964214
0.0565538
0.213644
-0.0236864
0.235626
-0.0013374
0.0384635
-4.38834e-06
0.0641986
0.153692
0.140578
-0.0197695
0.00422353
-0.000526123
0.144738
-7.73603e-05
-0.000114907
-0.000764108
-0.0207288
0.00896907
0.01032
0.366571
0.105367
0.580357
0.334776
-0.00111451
-0.0219535
-0.000145033
-0.033166
-0.000984634
0.00400941
0.000423038
-0.0250469
0.287093
0.442216
-0.000231053
8.47978e-06
-0.0316861
-2.75247e-05
-0.00639974
-0.000154705
0.0858698
-0.0240139
0.152686
-0.0707331
7.46074e-06
-0.00954824
-0.0268113
-0.0191759
-0.0113022
-0.0346517
0.0128161
-0.000137723
-4.14419e-05
0.00141639
-0.000122215
0.0428205
-0.0284707
0.0264694
0.534872
0.0307932
-0.107471
-0.0553745
-0.000337693
0.0367018
-0.000111535
0.411013
0.0735471
0.49329
7.52502e-05
-0.0222087
-0.00472387
0.0328225
0.0631399
0.366312
-0.00528027
0.0147431
-0.00135577
-0.0141427
-0.00553894
-0.00422835
0.0797548
0.00106883
-0.00688749
-0.0139249
0.140936
0.0340704
-1.28613e-06
-0.000648925
-0.00430121
-0.000452445
0.0692946
-0.000495224
-0.027525
0.0953995
3.89929e-05
0.200137
4.52215e-05
-3.90209e-06
-0.0656851
-0.0168325
9.38306e-05
-0.015364
8.58902e-05
0.517055
0.00855981
-0.0162887
0.479812
0.0961397
-0.0210111
0.359892
-0.00193884
-0.00133311
-0.00147221
0.0538502
0.661099
-0.00107064
-0.000458808
-1.85452e-05
0.00537134
-0.000901468
0.0178382
0.00420811
-0.0141557
-0.0390876
0.012613
0.00694862
-0.0128963
-0.000404441
-0.0542406
0.34386
-0.00129127
-0.00937971
-0.000186668
0.369696
0.0350085
0.340338
0.000275312
-0.000621597
-0.0164105
0.537293
0.109749
-0.0190975
-0.000114298
0.0214347
0.0284896
-0.0308467
0.148574
-0.0312403
0.0121552
-0.11136
0.36742
-0.0122441
0.198299
-0.00221932
0.623799
-0.0272713
-0.00751372
0.485007
-0.0284124
0.126099
-0.119004
0.144172
0.00440709
0.0341783
0.271477
0.0348718
-0.0314558
-0.00661428
-0.00534267
-0.014457
-0.0292779
-0.00115711
-0.0384406
-0.0188423
0.00128802
-0.0428435
-0.0532407
-4.41917e-05
0.00739385
-0.00624516
-0.0135322
0.486787
0.309685
-0.0348681
-0.0465379
0.000283769
-0.065988
-0.00334978
0.603732
-0.0234822
-0.0201602
0.306075
0.0337013
-0.0274306
0.136381
-0.024451
-0.000487308
-0.00797877
0.00682157
0.000401994
0.325453
-0.00189665
0.1077
0.247928
-0.00391491
0.194575
-0.0826917
-0.00028649
0.00451425
0.0250489
0.275149
-0.00177096
0.0452477
-0.047022
0.037309
-0.0155902
0.317198
-0.0110089
-0.0853162