/*--------------------------------*- C++ -*----------------------------------*\
  =========                 |
  \\      /  F ield         | OpenFOAM: The Open Source CFD Toolbox
   \\    /   O peration     | Website:  https://openfoam.org
    \\  /    A nd           | Version:  7
     \\/     M anipulation  |
\*---------------------------------------------------------------------------*/
FoamFile
{
    version     2.0;
    format      ascii;
    class       volVectorField;
    location    "34";
    object      U;
}
// * * * * * * * * * * * * * * * * * * * * * * * * * * * * * * * * * * * * * //

dimensions      [0 1 -1 0 0 0 0];

internalField   nonuniform List<vector> 
29540
(
(1.00913 -0.0120998 1.21663e-22)
(1.00834 0.00411782 6.25708e-22)
(0.992028 -0.00289918 -7.4459e-22)
(0.972796 -0.042113 2.31538e-22)
(0.997914 -4.50806e-05 1.09335e-22)
(0.962579 -0.0256099 -3.32305e-22)
(1.04659 -0.0749498 7.07818e-22)
(1.01188 -0.0183804 -1.17781e-23)
(1.00173 -0.0016957 1.76214e-23)
(1.00015 -4.16712e-05 4.28897e-24)
(1.01308 -0.0246195 -5.52651e-24)
(0.997993 -0.0144014 -2.92477e-22)
(0.999597 -0.000166778 1.57688e-23)
(0.999978 -8.19287e-06 5.78173e-25)
(1.16927 0.0907415 8.45656e-22)
(0.994783 -0.00168619 1.15245e-22)
(0.999862 -0.000736552 -7.58175e-24)
(1.13439 -0.0160512 -4.1322e-23)
(0.998164 -0.001555 -3.73931e-23)
(0.990598 -0.000694857 -1.63564e-22)
(0.99927 -0.000236628 -5.24919e-23)
(1.00163 -0.0016915 6.15975e-23)
(0.991951 -0.0030665 8.18619e-22)
(0.998171 -0.000148023 4.81141e-23)
(0.883869 0.118894 2.76889e-22)
(1.00922 0.0032682 3.3653e-21)
(0.999568 -5.04628e-05 3.58261e-23)
(0.942579 0.101379 -1.93127e-20)
(1.17509 0.0902886 -2.4309e-21)
(0.999239 -0.00789399 -5.62588e-23)
(1.01336 -0.00989387 8.93646e-23)
(1.03392 -0.00694941 -6.80749e-22)
(0.975849 -0.0972473 2.37921e-21)
(0.998027 -0.0199435 1.49386e-22)
(0.940463 0.0966157 1.58586e-20)
(1.00236 -0.0285714 4.49272e-22)
(1.07026 0.0446859 -9.75412e-22)
(0.975518 -0.0237316 9.55009e-22)
(1.0046 -0.000722403 -2.43912e-22)
(1.00444 -0.000518885 4.64663e-22)
(1.00036 -0.000140121 -1.40104e-23)
(0.989805 -0.0261557 -9.91623e-22)
(0.999878 -0.000715924 -7.96603e-26)
(1.01931 -0.0643584 -1.91317e-21)
(1.00003 -4.29618e-06 -6.28659e-25)
(0.999411 -0.00800899 4.13811e-23)
(0.997755 -0.0106947 -8.30536e-23)
(1.00006 -7.21818e-05 1.86731e-24)
(1.00288 -0.00318278 -2.51158e-22)
(1.0699 0.0417786 -4.00771e-22)
(1.09898 -0.0960418 5.23999e-22)
(0.97588 -0.037219 -1.09507e-21)
(1.03386 -0.00610098 2.40764e-22)
(0.963737 -0.0254267 -5.55583e-22)
(0.994911 -0.00172968 -1.01506e-22)
(1.17886 0.0775817 -1.5032e-21)
(0.997098 -0.00194377 3.7037e-23)
(0.999249 -0.000260796 6.64925e-23)
(0.999679 -0.0188521 -2.14854e-22)
(1.00694 -0.0514093 -8.03806e-22)
(0.99995 -5.75416e-06 1.20961e-24)
(0.998227 -0.00159355 -7.74571e-24)
(1.26241 -0.0158368 -9.80662e-22)
(1.00273 -0.0279451 -2.53068e-22)
(1.06878 0.113541 8.26531e-21)
(0.911784 0.0331627 4.05495e-20)
(0.998697 -0.0236908 -4.06888e-22)
(0.993605 -0.011924 3.56559e-22)
(0.935248 0.0212282 1.63455e-20)
(1.00038 -0.000132323 9.05311e-24)
(1.01077 0.00391926 -4.58449e-21)
(0.988271 0.0849388 1.11928e-20)
(1.00274 -0.00788846 -9.01532e-23)
(0.90496 0.13832 1.00225e-20)
(0.993099 -0.000544586 5.31493e-22)
(1.10658 -0.057021 -1.97658e-22)
(1.24551 0.149175 1.2028e-21)
(0.9767 -0.0135032 2.26404e-22)
(0.999963 -1.8114e-05 -3.56268e-24)
(1.00177 -0.0420866 -7.73147e-22)
(0.96428 -0.000597162 -3.65792e-22)
(1.02139 0.0412495 2.69634e-21)
(1.00929 -0.0126255 -3.65972e-22)
(1 -5.20372e-05 1.15867e-24)
(1.04897 -0.0734605 -1.10357e-21)
(1.16917 -0.187392 -3.15914e-21)
(1.03988 0.0996667 -1.65023e-20)
(0.999581 -0.000164553 -1.42207e-23)
(0.99961 -0.000148503 -4.16243e-24)
(0.945094 -0.0321978 -1.31496e-21)
(0.9929 -0.0453619 1.3576e-21)
(0.976604 -0.0141435 2.54266e-22)
(1.00269 -0.00328823 4.27483e-23)
(1.05467 -0.0119281 -3.6856e-22)
(0.940672 -0.0137045 -1.10453e-21)
(1.05069 0.120613 7.78972e-21)
(0.993602 -0.0587719 2.1431e-21)
(1.0004 -0.000332421 2.24563e-23)
(0.972839 -0.0527993 -2.04758e-21)
(1.16278 0.119641 5.0839e-21)
(0.999961 -1.78527e-05 5.22323e-24)
(0.977862 -0.00881681 -1.36372e-21)
(0.999952 -7.02907e-06 -6.23157e-25)
(1.0418 -0.019512 -1.78199e-21)
(0.974749 -0.0370347 7.13355e-22)
(1.03469 0.0122698 4.54539e-21)
(1.00425 0.0800385 1.66798e-20)
(0.999626 -0.000150078 -3.54425e-23)
(0.999996 -5.87167e-05 -1.38598e-25)
(0.989034 -0.0951552 -1.23667e-22)
(0.974313 -0.0958839 -2.14448e-21)
(1.03641 -0.0389337 5.36054e-23)
(1.00001 -1.7007e-06 7.41899e-26)
(0.998987 -0.00533669 -1.44267e-22)
(0.999896 -0.00190047 6.17113e-24)
(0.991135 0.0869593 8.33735e-23)
(1.0441 0.0591515 -5.72988e-21)
(0.9899 -0.00620974 -5.61151e-22)
(1.00002 -5.705e-05 4.42107e-26)
(1.00301 -0.00781655 -7.09441e-23)
(1.26669 -0.115393 1.18775e-20)
(1.00532 0.0120758 7.41232e-21)
(1.15835 -0.084661 -4.39595e-21)
(0.909739 0.0405506 -3.75052e-20)
(1.00093 -0.000310501 -5.84315e-23)
(1.15527 -0.0596513 6.72152e-22)
(1.13333 -0.0113752 -2.85146e-22)
(1.01099 -0.0499483 6.19639e-22)
(1.00344 -0.00302132 -2.25804e-22)
(1.00002 -0.000376893 -2.55719e-25)
(1.01919 -0.0626327 6.84176e-22)
(1.24998 0.141494 4.7751e-22)
(1.00631 0.151537 1.67804e-20)
(1.1579 -0.104713 -1.28083e-21)
(1.04036 -0.0190785 1.49882e-21)
(1.01297 -0.00952733 1.69896e-21)
(1.08199 0.197434 1.17978e-21)
(0.976965 -0.000653676 1.89453e-21)
(1.06798 -0.188431 7.72171e-21)
(1.16446 0.113143 -3.95067e-21)
(1.15548 -0.0538849 -6.57086e-22)
(0.951029 -0.00410499 -1.4566e-21)
(0.958572 -0.0354418 4.35584e-22)
(1.00001 -1.49549e-06 -3.33253e-26)
(0.999992 -3.14285e-06 3.88127e-25)
(0.997859 -7.48899e-05 -8.53172e-23)
(0.997923 -0.0104834 1.7017e-22)
(0.981094 -0.0749461 -1.66754e-21)
(1.08669 -0.15376 3.85899e-21)
(1.29969 0.0499366 -2.97823e-21)
(1.02699 -0.0179712 8.28475e-22)
(1.01536 -0.0178379 2.61107e-22)
(1.00037 -0.000539639 3.43099e-23)
(0.99989 -0.00018907 4.48259e-24)
(1.00147 0.0207029 -1.64878e-20)
(1.00045 -0.00132486 4.03775e-24)
(0.99417 -0.0097123 1.03886e-25)
(1.09815 0.200274 -3.32553e-21)
(1.00444 0.0436342 -1.79977e-20)
(1.1024 -0.0934839 -1.18357e-21)
(0.965894 -0.00227696 6.24607e-22)
(0.973654 -0.0413179 1.67204e-21)
(1.17977 0.0836239 3.95732e-22)
(0.999962 -3.86109e-05 1.13403e-24)
(0.999992 -3.14639e-06 -1.45612e-25)
(0.989849 -0.00652629 2.02354e-22)
(0.95957 -0.0347782 -2.39476e-21)
(1.00004 -0.000192571 -1.48143e-24)
(1 -5.56226e-05 5.60142e-25)
(0.994187 -0.00438469 -6.80032e-23)
(1.00003 -0.000365747 2.23651e-25)
(1.00495 -0.00522198 -1.25018e-22)
(1.09317 0.204217 3.73006e-21)
(0.977295 -0.000346555 -1.60383e-21)
(1.0255 -0.102392 -8.28684e-22)
(0.995698 -8.44486e-05 3.46243e-22)
(1.00181 -0.0023441 1.30813e-23)
(0.97728 -0.00866223 2.25216e-21)
(0.999243 -0.00532736 -1.33859e-23)
(1.16676 -0.075902 2.82071e-21)
(0.999985 -7.90813e-06 2.00644e-24)
(1.0099 -0.0342779 -3.85451e-22)
(1.0424 0.101781 5.82285e-21)
(0.993879 -0.0110844 -2.04565e-23)
(1.06458 -0.183425 -7.38944e-21)
(1.03324 0.0506763 -5.08121e-21)
(0.994619 -0.00241641 -5.04383e-22)
(0.984486 -0.0129166 6.19e-22)
(1.00325 -0.00303542 3.42966e-22)
(0.999313 -0.00736219 -8.614e-23)
(0.999775 -6.15793e-06 4.22251e-24)
(1.00495 -0.0157209 3.37352e-23)
(0.904837 0.0202453 1.5749e-20)
(1.0009 0.0167709 1.27167e-20)
(0.987805 -0.00523408 1.55961e-23)
(0.994427 -0.00957269 -2.25021e-22)
(0.980366 0.044127 -1.54072e-20)
(1.01283 0.0321295 2.32342e-21)
(0.941857 -0.0135816 1.365e-21)
(1.00098 -0.000415179 -4.56695e-23)
(1.05387 -0.0947525 1.3406e-21)
(0.97066 -0.069538 2.14681e-21)
(0.998217 -0.0147082 1.396e-22)
(1.00071 -0.000911504 -7.24514e-23)
(1.08526 0.202345 1.60293e-21)
(0.994371 -0.00439501 -4.5886e-23)
(1.00578 -0.00468564 -1.41948e-22)
(0.979837 -0.0743252 2.17219e-21)
(0.988883 -0.0972127 3.05709e-22)
(0.999973 -3.84952e-06 4.44942e-25)
(0.977101 0.121806 -1.75386e-20)
(0.999139 -1.97078e-05 -8.61294e-25)
(0.999999 -4.38744e-05 3.03793e-25)
(0.999548 -0.000175837 6.04221e-24)
(0.995305 -0.0458337 -5.04663e-22)
(1.25455 0.0140662 2.68035e-21)
(1.01082 -0.0336517 2.80904e-23)
(1.0056 -0.0043741 -9.71846e-23)
(0.998191 -0.000203494 1.19736e-22)
(0.942858 -0.015156 -2.61097e-22)
(1.00003 -0.000400847 -3.78764e-25)
(1.0004 -0.00135049 4.20774e-25)
(0.998051 -0.00017275 -7.88246e-23)
(1.02539 0.00115421 4.24153e-21)
(0.997746 -0.00336772 -2.56837e-23)
(0.999011 -0.00495695 4.28656e-23)
(1.0247 -0.00132705 2.03854e-21)
(1.0001 -0.000327569 2.99603e-24)
(1.00003 -3.64087e-06 1.63833e-25)
(1.00424 -0.000520712 4.91552e-23)
(0.978721 -0.0271703 -8.31275e-22)
(0.979753 -0.000334512 -7.86634e-22)
(0.995959 -0.00032112 -3.66952e-22)
(1.01174 0.00308279 3.78709e-21)
(0.986749 -0.000956035 3.8172e-22)
(1.0156 -0.017247 -2.59972e-22)
(0.999978 -9.14774e-06 1.62075e-24)
(0.9975 -0.00222073 -1.43813e-22)
(1.00067 -0.000904344 7.82128e-23)
(1.05421 -0.0914214 1.34021e-21)
(1.01599 -0.159698 4.74381e-21)
(0.998846 -0.000105313 6.29413e-23)
(1.00039 -0.000479974 -2.65338e-23)
(0.998929 -0.00483768 -1.4425e-23)
(1.00294 -0.00697982 -1.76947e-22)
(0.990785 -0.000512812 -6.98696e-22)
(0.999964 -3.66205e-05 -5.93773e-26)
(1.16761 -0.181184 -7.17019e-21)
(1.00004 -0.000410063 1.82595e-25)
(1.02509 0.00109033 -2.98829e-21)
(0.997189 -0.00194619 -7.47492e-23)
(1.00012 -0.000317809 1.33458e-24)
(1.0337 0.0127247 -2.8884e-21)
(0.966925 -0.0661989 -2.15488e-21)
(1.00021 -3.57661e-05 1.44056e-23)
(1 -8.90061e-06 1.73409e-25)
(0.950903 -0.00293726 -1.65603e-21)
(1.00841 -0.145771 -7.55428e-22)
(0.992633 -0.00696561 -5.47117e-23)
(1.01004 -0.050946 -1.62491e-22)
(1.02774 -0.0186738 -1.35474e-22)
(1.04841 0.0983567 7.31104e-22)
(1.00006 -6.80642e-05 5.27013e-25)
(0.979126 -0.0266345 8.43438e-22)
(1.21684 -0.101918 5.17192e-21)
(0.960968 0.0657467 3.66618e-22)
(0.993811 -0.0108323 1.64841e-22)
(1.03194 0.0489974 6.23151e-21)
(1.10752 -0.0529586 -1.11612e-22)
(0.999894 -0.00209152 -7.3111e-24)
(0.815425 0.0559349 2.10118e-20)
(0.999546 -0.00037084 -4.08442e-23)
(1.02412 -0.10497 -1.03262e-21)
(0.943769 -0.0151667 1.6958e-21)
(1.00192 -0.00221568 -7.22843e-23)
(1.20735 -0.0295699 -1.90709e-21)
(0.992744 -0.000788802 -4.19534e-22)
(1.00879 0.163882 1.19971e-20)
(0.99707 -0.000223499 3.39854e-23)
(0.984895 -0.0139412 -3.25402e-23)
(0.99982 -0.00189941 -3.69498e-23)
(1.14113 0.15771 1.32158e-21)
(0.999821 -0.0149572 3.79105e-23)
(1.04706 0.121522 4.97104e-22)
(0.99958 -3.90028e-05 -1.5641e-23)
(0.995047 -0.00160098 -1.60968e-22)
(0.958348 0.148379 -7.47397e-21)
(1.02983 3.28391e-05 -3.44749e-21)
(1.02451 -0.000950777 2.37417e-21)
(0.9744 -0.0342963 2.00458e-21)
(0.999879 -2.68853e-05 4.45884e-24)
(1.00285 -0.00674093 -1.98293e-23)
(0.999858 -0.000804596 -1.37274e-23)
(1 -4.13844e-05 2.19168e-25)
(1.05549 0.00324711 8.80792e-22)
(1.00003 -4.21245e-06 2.17556e-26)
(0.98296 -0.0123245 1.44648e-21)
(1.211 -0.102247 -4.87769e-21)
(0.881209 0.124159 -1.91564e-20)
(1.00985 0.152043 -2.67422e-20)
(0.970506 -0.0576217 6.67417e-22)
(0.987582 -0.0253516 5.33218e-22)
(0.98072 -0.00129336 3.75664e-22)
(1.02901 -0.0351743 2.63455e-22)
(1.00545 -0.0155201 -8.11742e-23)
(0.984372 -0.0135323 -8.54575e-22)
(0.970604 -0.0631898 2.97146e-22)
(1.04653 0.101137 -1.08651e-20)
(0.999503 0.0153851 2.49085e-20)
(0.998923 -0.000128517 3.46434e-23)
(1.00579 0.0810074 -2.28134e-20)
(1.05442 0.00185934 2.86084e-22)
(1.16468 -0.0832279 1.24848e-21)
(1.01173 -0.0141385 1.27813e-22)
(1.00076 -0.0138006 -1.95198e-22)
(1.01731 -0.0474255 -4.56244e-22)
(0.995404 -0.00154856 -3.81555e-22)
(0.997736 -0.000562077 -2.50877e-23)
(0.999955 -5.43857e-06 6.48083e-24)
(0.999172 -0.0075408 1.26049e-22)
(1.08733 -0.0511918 2.97025e-23)
(1.14209 0.163819 -2.2498e-21)
(1.00139 -0.00120299 3.39866e-23)
(0.976459 -0.0222665 -1.14109e-21)
(1.01344 -0.014514 -4.01515e-22)
(0.999972 -1.29444e-05 -5.96476e-25)
(0.970548 -0.0603083 -1.06387e-21)
(0.854906 0.0965041 -9.73952e-21)
(0.994663 -0.00413172 5.68337e-22)
(0.99904 -0.00395946 3.91087e-23)
(1.01226 -0.0139886 -7.96366e-23)
(1.00158 -0.0408689 9.76664e-22)
(1.09147 0.0282504 1.02788e-21)
(0.999483 -0.00856233 -2.06665e-23)
(0.999975 -4.46758e-05 4.08406e-24)
(1.00001 -2.42845e-06 2.58118e-26)
(0.997706 -0.000512092 -2.77405e-23)
(0.956157 0.147221 1.07992e-20)
(1.04473 -0.0296015 3.0936e-22)
(1.01999 -0.159589 -1.20915e-21)
(1 -8.88648e-06 3.06488e-26)
(1.00537 -0.148213 4.79676e-22)
(1.08005 -0.00729657 -1.02685e-21)
(0.995592 -0.000141324 -1.71644e-22)
(0.945875 -0.00555242 -2.04856e-21)
(0.999113 -0.00389074 -3.94609e-23)
(0.999635 -0.000168081 -2.59885e-24)
(0.979806 -0.024093 -2.51365e-22)
(1.00079 -0.00100092 -3.50391e-23)
(1.17277 -0.0741953 -2.52793e-21)
(1.00809 -0.000946855 -1.03713e-21)
(1.23746 0.102828 -5.29449e-22)
(0.999926 -0.00206433 9.42957e-24)
(1.00363 -0.0123233 2.75664e-23)
(1.00514 0.0106728 -1.00242e-20)
(1.2609 -0.110169 -4.86852e-21)
(1.00036 -0.000508039 -2.01897e-23)
(1.00038 -0.000450104 1.9728e-24)
(0.993927 0.102715 1.09248e-21)
(0.993783 -0.0463007 -2.68903e-22)
(0.999335 -0.00842907 2.53352e-23)
(1.0117 0.0356669 1.22585e-21)
(0.972207 0.0225753 3.01573e-20)
(1.09823 -0.100498 -1.77036e-21)
(0.998735 -0.0228718 -1.20954e-22)
(1.24928 0.0172056 -2.67957e-21)
(0.999353 -6.33713e-05 -2.63831e-23)
(0.992473 -0.00363724 1.48277e-22)
(0.997131 -0.000235098 -9.48312e-23)
(1.01444 0.0306384 1.90415e-24)
(0.999987 -0.000661163 1.33121e-24)
(1.00781 -0.00115293 1.05948e-21)
(1.11049 -0.154789 9.52212e-23)
(1.00386 0.142959 2.62472e-20)
(0.908358 0.142849 -4.42705e-21)
(0.994782 -0.00241165 2.04394e-23)
(0.992421 -0.00679829 1.63314e-22)
(1.06568 0.116949 -6.57292e-21)
(1.00715 -0.0530062 1.15945e-21)
(0.999956 -6.50686e-06 -6.317e-24)
(1.28437 0.0951591 -1.9912e-21)
(1.02479 0.00165003 -1.27595e-21)
(1.02434 0.00163136 -8.68855e-22)
(0.994864 -0.0118029 -2.45756e-22)
(1.01678 -0.00178747 -1.64843e-21)
(0.947008 0.131503 4.29521e-21)
(1.07893 -0.159872 -1.05166e-21)
(0.979584 0.130764 4.30545e-21)
(0.99523 0.129575 -7.49235e-21)
(0.999997 -5.60408e-05 4.46958e-25)
(1.08437 -0.0496353 9.73664e-23)
(1.08143 -0.155478 6.90295e-22)
(0.997642 -0.00339766 6.67869e-23)
(1.00142 -0.00128993 -5.59736e-23)
(0.966728 0.0266298 7.21106e-21)
(1.04629 -0.0305694 -3.87753e-22)
(1.00024 -6.59922e-05 3.30928e-24)
(0.981568 -0.0517974 -2.56086e-21)
(0.969841 -0.0712357 -1.01424e-21)
(0.995154 -0.00164517 2.26383e-22)
(0.999898 -0.000183522 -5.62622e-24)
(1.05944 0.144434 -1.04994e-21)
(1.04359 0.0568743 9.60278e-21)
(1.00004 -0.000449846 -2.20138e-25)
(1.00358 -0.00326264 4.43372e-23)
(1.00462 -0.00327947 2.41011e-22)
(1.16387 -0.139171 5.44478e-21)
(0.97448 -0.0333786 -1.81626e-21)
(1.00005 -0.000534746 -8.91701e-25)
(0.99999 -2.17923e-06 -1.98733e-25)
(1.00043 -0.00014567 5.34674e-24)
(1.0899 0.0299264 -9.71391e-23)
(0.975541 -0.0228951 -9.13752e-22)
(1.00246 0.0440809 5.26328e-21)
(0.952758 -0.0388254 1.03087e-21)
(0.988287 -0.0252693 -5.6139e-22)
(0.97917 -0.00100279 -1.50018e-21)
(1.01335 0.0345311 -6.03874e-21)
(1.25326 -0.0138043 -2.65724e-22)
(0.998956 -0.000136669 6.34718e-23)
(1.00697 -0.00536781 -2.57675e-22)
(1.00073 -0.000990212 3.97031e-23)
(0.978099 0.143645 -1.08273e-20)
(0.977338 -0.0208164 4.90252e-22)
(1.00095 -0.000252363 -1.91301e-23)
(0.993375 -0.00324629 -2.03519e-22)
(1.16165 -0.0496395 -8.54417e-22)
(0.999561 -0.00920323 -5.5833e-23)
(0.989722 -0.0111655 -1.13488e-22)
(1.0002 -0.000125657 -9.91753e-24)
(1.0002 -4.80967e-05 -4.37971e-25)
(0.850883 0.103077 1.46705e-20)
(0.992797 -0.00117548 -2.60785e-22)
(0.995754 -0.00426583 2.3508e-22)
(0.999664 -0.00168278 -3.17154e-23)
(0.99937 -4.84673e-05 -3.62344e-24)
(1.05589 0.0956617 -3.63268e-21)
(1.11558 -0.158398 2.96343e-22)
(0.985681 -0.0377792 3.37566e-22)
(1.00001 -1.76929e-06 -4.23168e-26)
(0.999999 -3.30754e-05 1.99181e-25)
(0.976462 -0.0215278 1.29049e-21)
(0.99404 -0.00172973 5.3695e-23)
(0.995435 -0.00197665 -3.1137e-23)
(1.01307 -0.00499806 5.03308e-22)
(1.00519 -0.00223126 8.67524e-23)
(1.00006 -0.0153263 -6.89451e-23)
(1.12861 -0.0326996 -1.50447e-22)
(0.98369 -0.00392668 -3.18688e-22)
(0.981716 0.128268 -3.66061e-21)
(1.01229 -0.0245866 -7.2688e-23)
(1.00021 -0.000126172 1.10472e-23)
(0.96989 -0.0564898 9.80357e-23)
(0.984424 -0.0334188 -1.16524e-21)
(1.19698 -0.0208803 -7.81627e-22)
(0.997411 -0.00560334 -7.14378e-23)
(0.988447 -0.044541 -4.00592e-22)
(0.999984 -5.45364e-06 1.08796e-24)
(0.923385 0.104468 -1.51511e-20)
(1.01397 -0.0020998 9.24291e-22)
(1.00007 -0.00021496 -2.89742e-24)
(0.904641 0.0276794 -2.04297e-20)
(0.98475 -0.0379061 7.48409e-22)
(0.999984 -6.00806e-06 1.69013e-25)
(1.00129 -0.00117509 1.65325e-23)
(0.969815 -0.0590596 -5.84412e-22)
(1.03506 -0.0375376 8.20023e-23)
(1.04703 -0.014115 1.05621e-21)
(0.999994 -3.15584e-06 3.29039e-25)
(0.99276 -0.000600581 2.07431e-22)
(1.01825 -0.046484 8.52099e-22)
(0.99529 -0.00150964 3.1308e-22)
(0.999598 -4.47058e-05 -8.50094e-23)
(0.992619 -0.00375648 3.96112e-24)
(0.976697 0.0467457 1.78296e-21)
(0.993499 -0.0115823 -2.96633e-22)
(0.990154 -0.0109443 8.29297e-23)
(1.00165 0.0243736 -5.11555e-21)
(0.997546 -0.00209737 7.4801e-23)
(0.971835 0.145538 -1.34413e-21)
(0.999983 -5.92002e-06 -5.49284e-25)
(0.990128 -0.0255317 2.30421e-22)
(0.979914 -0.0708081 2.55597e-21)
(0.989282 -0.0449073 6.8631e-22)
(1.20002 -0.113832 1.36633e-21)
(0.998902 -0.00518388 9.66887e-23)
(1.00802 -0.0228372 -1.04109e-24)
(0.999911 -0.0022239 1.76473e-24)
(0.984517 -0.0196696 -6.46475e-22)
(1.03605 -0.0407804 -8.48573e-24)
(0.999973 -1.22866e-05 3.09567e-24)
(1.00001 -8.95337e-07 -7.06502e-26)
(0.994343 -0.000388775 1.41674e-22)
(0.980254 0.0905392 1.12576e-20)
(1.0114 -0.019018 4.17609e-22)
(1.00232 -0.00331658 -6.93152e-23)
(0.941791 -0.0283555 1.40923e-21)
(1 -7.87369e-06 9.29434e-26)
(1.00087 -0.00109371 -6.36614e-23)
(0.999967 -0.00063005 -9.70477e-25)
(1.01272 -0.0182852 4.91503e-22)
(0.984815 -0.0145552 1.14069e-22)
(0.999662 -0.000262318 1.07769e-23)
(0.993943 -0.0103407 1.12579e-22)
(0.988892 -0.00646515 -1.18694e-22)
(1.00091 -0.000151301 -5.27305e-24)
(0.999982 -6.50434e-06 -3.39713e-25)
(1.23177 -0.0711563 -5.07968e-21)
(0.999698 -0.00165476 3.41613e-23)
(1.07686 -0.01201 7.66208e-22)
(1.02078 0.139575 2.69683e-20)
(1.06016 0.115593 -6.07878e-21)
(1.00017 -0.0193417 -2.55908e-22)
(1.00509 -0.00202428 -2.86972e-23)
(1.01712 -0.00142316 1.01019e-21)
(0.999956 -0.00227403 -2.00397e-24)
(0.99791 -0.00976452 1.20319e-22)
(1 -1.47768e-05 3.37176e-25)
(0.992156 0.129992 -5.4382e-22)
(0.988834 -0.0146802 1.61188e-22)
(1.01282 -0.00461324 -3.59979e-22)
(0.984051 -0.00407747 6.63638e-22)
(1.00319 -0.0121092 3.61979e-24)
(0.997565 -0.00551221 1.55973e-22)
(0.999908 -0.000187999 1.34812e-24)
(1.00001 -1.03986e-06 -4.33472e-25)
(0.995898 -0.00425005 -1.71203e-22)
(1.0547 -0.0136701 -5.60408e-22)
(1.00467 0.0457572 8.16257e-22)
(1.0011 -0.000447375 -7.77484e-23)
(0.974258 -0.0529863 -5.43735e-22)
(0.977303 -0.0201871 -2.16096e-22)
(0.992939 -0.00047062 -7.777e-22)
(1.29163 0.0483373 1.88116e-21)
(0.998833 -0.000901134 -3.7808e-23)
(1.00322 -0.0136884 -5.64292e-23)
(0.995071 -0.0026 1.58384e-22)
(0.999916 -0.000181128 1.1283e-24)
(0.969783 -0.0617796 6.68521e-22)
(1.00204 0.037569 -8.24065e-21)
(1.03245 0.0443526 -6.36449e-21)
(0.97963 -0.0135679 -1.04335e-22)
(1.00151 0.0355121 -3.49387e-22)
(1.00007 -0.00020178 5.44932e-24)
(1.00001 -9.96804e-07 1.22227e-25)
(1.27824 0.0912794 5.35009e-22)
(1.20532 -0.0227683 1.54828e-21)
(0.906244 0.106072 -7.29856e-22)
(0.994357 -0.0759671 1.98894e-21)
(0.979392 -0.00138493 -4.85005e-22)
(1.16129 -0.0429561 1.26933e-21)
(1.00104 -0.000465882 8.80257e-23)
(0.994881 -0.00350241 9.06626e-23)
(1.0004 -0.000154575 -5.11206e-24)
(0.990401 -0.000656996 -1.65826e-22)
(0.989254 -0.0120125 -2.35655e-22)
(0.999995 -2.94642e-05 -1.22836e-24)
(0.999215 -3.05544e-05 1.50348e-23)
(1.00338 0.139658 -2.56494e-20)
(0.999882 -0.000654188 1.25927e-23)
(0.932309 0.0965585 1.901e-20)
(1 -1.38279e-05 -2.58366e-25)
(1.28894 -0.0520875 -5.39929e-21)
(1.07669 -0.0142382 -1.66763e-21)
(1.12887 -0.0287377 1.47146e-22)
(1.00093 -0.000441178 5.24478e-24)
(1.00016 -3.82704e-05 8.74484e-24)
(0.984911 0.0856592 -1.71229e-20)
(1.08001 -0.00982518 3.42252e-21)
(0.979271 -0.0720685 -2.32264e-21)
(1.02228 0.043286 2.92724e-21)
(0.997607 -0.0195502 1.03545e-22)
(0.987926 -0.00493247 -1.72563e-22)
(0.996358 -0.000201313 -9.4525e-23)
(1.1512 0.198445 -9.83781e-21)
(0.978095 -0.0241685 8.06558e-22)
(1.02958 -0.0337448 -2.02942e-22)
(0.994183 -0.0102508 -6.47297e-23)
(1 -7.88424e-06 -1.27077e-27)
(0.998845 -0.00085096 -3.21567e-23)
(1.00544 -0.00564868 1.48728e-22)
(0.983428 -0.00727328 8.48364e-22)
(0.980147 -0.0136878 1.56809e-22)
(0.960857 -0.0354975 -2.33467e-22)
(0.98325 -0.0077109 -6.43617e-22)
(1.01778 0.0028173 5.09405e-22)
(0.998099 -0.000130577 1.97648e-24)
(0.946311 -0.0326352 7.31265e-22)
(0.987343 -0.000839521 -2.36656e-22)
(1.00003 -0.000194628 3.19833e-25)
(0.988951 -0.000674048 -1.63679e-22)
(1.02995 -0.0365125 -2.39469e-22)
(1.01703 0.00301634 -2.81817e-21)
(0.976317 -0.0242434 -1.99286e-22)
(0.99999 -5.62206e-07 -5.28982e-27)
(0.984118 -0.0148593 1.7164e-22)
(1.0018 -0.0139535 2.59867e-23)
(1.00125 -0.00109029 2.12607e-23)
(1.09732 -0.168804 -3.26938e-21)
(1.00175 0.0346631 -1.92265e-20)
(1.00081 -0.00107986 5.90698e-23)
(0.98914 -0.000508815 2.21726e-24)
(1.08965 -0.0981889 7.80062e-23)
(1.0259 0.000257908 4.22741e-21)
(0.990764 0.0303426 -1.92188e-21)
(1.00167 -0.00230802 1.88496e-23)
(0.999979 -0.0201395 7.94847e-23)
(1.11559 0.141949 -1.79726e-21)
(1.01532 0.0271611 -1.48916e-20)
(0.991077 -0.0254919 6.14476e-22)
(1.00435 -0.00327887 -2.69803e-23)
(0.956521 -0.0418031 1.06403e-21)
(0.999998 -3.79965e-06 2.66694e-25)
(0.956894 -0.00178261 -7.52069e-22)
(1.00007 -6.33465e-05 1.10083e-24)
(1.08655 -0.0982953 -4.03101e-21)
(0.999975 -2.71864e-06 -3.48174e-25)
(1.00002 -5.57076e-05 3.13567e-25)
(0.999554 -0.0225059 -9.60557e-23)
(1.26798 -0.00832375 2.3544e-21)
(1.03716 0.178666 1.10569e-20)
(1.03309 -0.0378584 -3.23991e-22)
(1.01278 -0.0146361 2.67272e-22)
(0.999999 -2.81887e-06 -8.30527e-26)
(0.994471 -0.00416047 -3.06805e-22)
(1.00008 -1.94845e-05 -8.44422e-25)
(0.99716 -0.00223145 1.07001e-22)
(1.00002 -5.16913e-05 -2.38165e-25)
(1.04727 -0.0121644 -3.28941e-21)
(0.999579 -0.000436397 -4.20099e-23)
(1.0613 0.0589139 6.05124e-21)
(0.999889 -0.000200526 -8.5057e-24)
(0.988363 -0.0048223 -2.92317e-22)
(0.963519 -0.000967315 1.7615e-21)
(0.99617 -0.000277003 -1.22016e-22)
(0.984362 0.0458472 1.84567e-20)
(0.984481 -0.000654668 4.42913e-22)
(1.0142 -0.0993252 1.7971e-22)
(0.995012 -0.00367449 4.70761e-22)
(1.02403 -0.00260764 -8.5564e-22)
(0.971996 -0.0535914 2.34737e-21)
(1.01824 -0.00133929 -2.83185e-21)
(1.03287 -0.0709837 -8.35831e-23)
(0.99999 -1.77996e-06 5.23135e-26)
(0.999004 -0.0189977 8.69789e-23)
(0.996417 -0.000265673 1.48643e-23)
(1.00022 -8.50413e-05 6.71361e-24)
(1.00007 -1.6567e-05 1.37455e-24)
(1.15737 0.20165 1.06523e-20)
(0.995586 -0.00198317 2.6269e-22)
(1.02572 0.00104301 4.84733e-21)
(1.00055 -0.0206492 9.83247e-23)
(1.00077 -0.000283164 2.0276e-23)
(1.02223 -0.00819144 -3.06408e-21)
(1.00014 -3.60021e-05 -1.90026e-23)
(0.999982 -3.49611e-06 -4.84527e-26)
(0.957401 -0.0023757 5.80465e-22)
(0.996852 -0.0011312 1.18862e-22)
(1.00003 -5.02811e-05 4.59023e-25)
(1.07338 0.113736 4.35338e-21)
(0.868346 0.0842827 -2.72388e-20)
(0.999814 -0.000212441 2.05015e-23)
(0.965101 -0.00195627 -4.87013e-22)
(1.00001 -1.16911e-06 9.14853e-26)
(0.943243 0.128539 -1.75193e-20)
(1.29704 -0.0541774 -7.03416e-21)
(0.972833 -0.0431096 -1.88827e-21)
(1.00004 -0.000516957 -9.94017e-25)
(1.02857 -0.0324949 5.3558e-22)
(1.02947 -0.00287216 -1.18527e-21)
(1.03055 -1.75414e-05 3.55701e-22)
(1.04818 -0.014882 -3.99634e-22)
(0.999666 -0.00177373 -5.03794e-24)
(0.99988 -0.000784415 1.0905e-23)
(0.987197 -0.0145644 -5.10116e-22)
(1 -6.99001e-06 2.66489e-25)
(1.00001 -9.0998e-07 -2.3497e-26)
(0.977362 -0.0237153 -4.73135e-22)
(0.994974 -0.0581486 -1.07157e-21)
(0.961963 -0.0348879 -5.97788e-23)
(0.890538 0.119598 -5.94846e-22)
(1.00017 -2.33731e-05 -8.10094e-24)
(1.01063 -0.0745948 -2.39983e-21)
(1.00675 -0.0050364 -2.64667e-22)
(0.999983 -3.85278e-06 5.55168e-25)
(0.999063 -0.00368624 -8.50492e-23)
(1.00003 -0.000437375 -4.26766e-25)
(0.995832 -0.0119902 1.86286e-22)
(1.00004 -9.25737e-06 7.30896e-25)
(1.03467 -0.0699701 -1.9959e-22)
(1.01787 -0.00163485 2.745e-21)
(0.973709 0.142894 3.77687e-21)
(1.02353 -0.00246111 3.21827e-21)
(0.999755 -0.000207869 1.59408e-23)
(1.00041 -0.0003628 -1.95712e-23)
(1.16024 -0.145416 -5.4494e-21)
(1.02568 0.00079873 -3.89957e-21)
(0.997226 -0.000364822 1.07286e-22)
(1.00001 -1.56422e-06 2.05006e-25)
(1.0913 0.0974632 -6.9264e-21)
(1.05445 -0.179186 -1.25459e-21)
(0.99466 -0.0744074 -8.89873e-22)
(0.986998 -0.000714453 -1.24874e-22)
(0.999985 -1.84437e-05 1.12478e-24)
(0.999757 -0.000195969 -9.32671e-24)
(1.05792 -0.183929 3.4823e-21)
(0.996299 -0.0467105 -2.97499e-22)
(1.03927 0.0310305 9.00143e-22)
(0.981057 0.123768 1.58006e-20)
(1.01353 -0.0967306 1.31487e-21)
(0.998874 -7.83591e-05 -1.97821e-23)
(0.999985 -8.69138e-06 -1.3037e-24)
(0.965717 -0.0455409 1.82626e-21)
(0.972897 -0.0912709 -2.52958e-21)
(0.999821 -0.000220091 1.10461e-23)
(1.00863 -0.0222293 1.30683e-22)
(0.991387 -0.0248244 -1.08976e-22)
(0.995812 -0.00212747 1.03821e-22)
(0.998472 0.029236 -1.44519e-20)
(0.998849 -0.000507212 7.0429e-23)
(1.04775 -0.0543603 -1.9675e-22)
(1.24649 0.156001 -1.68862e-21)
(0.993015 -0.00306072 -2.96827e-22)
(0.903991 0.0999844 -2.68972e-21)
(0.913813 0.0473278 8.5628e-21)
(0.999974 -4.72734e-05 -4.11775e-24)
(0.999975 -0.000689374 -1.20953e-24)
(0.984666 -0.000870165 -2.83745e-22)
(1.01215 -0.00451246 -6.52054e-22)
(0.966534 -0.00180739 1.01649e-21)
(1.00473 -0.00407134 -2.76232e-22)
(0.993264 -0.00307149 2.77751e-22)
(0.999493 -0.00046511 -3.18268e-23)
(0.953316 0.129287 -3.09747e-21)
(1.06178 0.0560791 -9.42238e-21)
(1.00206 -0.00223886 4.86388e-23)
(0.823323 0.0528996 -5.36829e-21)
(1.00001 -7.75938e-07 -1.26255e-25)
(1.0242 0.00642694 -6.87485e-21)
(0.98698 -0.0905169 1.86912e-21)
(1.01284 -0.0749 9.40621e-22)
(1.00008 -0.000195983 -2.67881e-25)
(0.964965 -0.000987563 8.34897e-22)
(1.02176 0.00583948 3.88971e-21)
(1.01183 -0.00482387 5.38888e-22)
(1.02898 -0.00177531 1.65952e-21)
(0.999609 -3.50452e-05 5.99307e-23)
(0.999573 -0.000465087 3.80528e-23)
(1.02132 -0.0455901 2.58863e-22)
(0.996903 -0.00121899 -3.41688e-22)
(0.988497 -0.0109095 -5.54147e-22)
(0.999178 -0.00334059 5.04173e-24)
(1.08876 0.037675 4.23797e-21)
(0.998737 -0.0197855 -5.92208e-23)
(0.995506 -0.00451424 5.85698e-24)
(0.939011 -0.0239575 -2.06921e-21)
(0.996561 0.10261 1.78892e-21)
(1.11212 -0.050177 6.09914e-22)
(1.02173 -0.00784792 2.46402e-21)
(0.99965 -0.000168571 1.14877e-23)
(0.999549 -0.000304046 5.1619e-24)
(0.983856 -0.0194149 1.29751e-21)
(1.0009 -0.0011772 -4.74591e-23)
(0.997675 -0.000643945 -1.94236e-23)
(0.999985 -1.74265e-05 -4.25223e-25)
(0.9997 -0.00180741 9.61891e-25)
(1.02114 0.00537532 -1.51506e-21)
(0.983909 0.0893913 -1.6427e-20)
(0.999893 -1.38367e-05 2.66886e-24)
(1.18699 0.179041 -7.21758e-21)
(0.999995 -3.71026e-05 5.10588e-25)
(0.997066 -0.00264398 1.45611e-22)
(0.999993 -8.81672e-05 5.33832e-25)
(1.00477 -0.00352519 -1.22747e-22)
(1.23184 -0.078775 3.88187e-21)
(0.999968 -3.94567e-05 3.14857e-25)
(0.999967 -4.23492e-05 2.29357e-24)
(0.951828 -0.0392257 -9.84571e-22)
(1 -7.02021e-06 1.45499e-27)
(1.05147 -0.015052 3.30367e-21)
(0.987697 -0.0388021 1.08799e-21)
(0.999978 -0.000605453 1.11921e-24)
(1.08856 0.0731402 -5.306e-21)
(0.999999 -2.65598e-05 -4.3735e-25)
(0.999654 -3.61982e-05 5.26422e-23)
(0.999926 -3.26992e-05 8.47449e-26)
(0.995666 -0.00452373 -8.81612e-23)
(0.999694 -0.00144008 -1.63112e-23)
(0.994452 -0.000295116 -9.52532e-23)
(0.993452 -0.109549 -2.14638e-22)
(0.999728 -0.00140221 1.09176e-23)
(1.00381 -0.0032785 -9.51822e-23)
(0.999982 -2.60618e-06 -2.05688e-25)
(1.03973 0.175141 -2.1448e-20)
(1.04598 -0.0552187 -5.22226e-22)
(1.1157 -0.0515717 2.57956e-22)
(0.968825 -0.00541872 1.09756e-21)
(0.979779 -0.00390872 -2.04251e-22)
(0.999145 -0.00360547 1.40461e-22)
(1.00264 -0.00249821 1.32397e-22)
(1.05039 0.072658 2.63809e-21)
(0.983786 -0.0343576 1.58434e-22)
(1.13912 0.118746 2.2767e-21)
(0.961288 -0.0121816 -1.96543e-21)
(0.996963 -0.00255221 -1.3716e-22)
(0.999993 -3.78422e-06 -5.87714e-25)
(0.994903 -0.00260866 -1.90929e-22)
(1.01253 0.165958 5.49976e-21)
(1.07943 0.0845773 -1.25959e-21)
(0.982971 -0.0515234 8.78217e-22)
(0.948073 -0.00518691 4.49427e-22)
(1.04559 0.166113 5.83886e-21)
(0.992398 -0.000536554 2.45213e-22)
(0.983606 -0.0825484 1.4739e-22)
(0.999993 -8.43772e-05 1.23437e-24)
(0.986678 -0.0389304 1.34883e-21)
(0.999265 -0.000210047 -7.46899e-23)
(0.835998 0.0900905 -1.53894e-20)
(0.979262 -0.0673182 -1.9234e-21)
(0.999928 -2.94088e-05 5.11215e-24)
(0.944801 -0.0167417 -1.15586e-22)
(0.983568 -0.0364367 7.39165e-23)
(1.03581 0.0806963 9.6522e-21)
(0.997707 -0.000702853 -1.83169e-22)
(0.981928 -0.0350651 -4.71404e-22)
(0.997737 -0.0100074 -1.68042e-22)
(0.999648 -0.0217531 -1.98958e-22)
(0.99888 -0.000516193 -4.81267e-23)
(1.03437 0.0789846 -1.17313e-20)
(1.01296 -0.154762 2.08625e-21)
(0.984052 -0.0154673 -3.80456e-22)
(0.987708 -0.0135506 8.23776e-24)
(0.988462 -0.00455524 -1.17768e-22)
(1.00477 -0.00191599 -1.13135e-22)
(1.04764 0.161525 2.2794e-20)
(0.984063 -0.0125466 1.71985e-22)
(1.01463 0.0410455 6.42831e-21)
(1.00243 -0.00200332 1.00839e-22)
(1.20733 -0.112784 -7.7421e-23)
(0.929082 0.10335 2.83775e-21)
(0.992248 -0.000418052 -8.48659e-22)
(0.999806 -3.73375e-05 1.06393e-23)
(1.05376 0.0986029 2.8394e-21)
(1.00017 0.133789 -2.08336e-20)
(1.02074 -0.0439265 -3.29261e-22)
(1.07772 -0.0506361 -6.85256e-23)
(0.995623 -0.0124289 -2.08585e-22)
(0.969298 -0.00490226 -6.51224e-22)
(1.11207 0.138468 7.13968e-21)
(0.964525 -0.0456605 3.02189e-22)
(0.999983 -1.784e-05 1.43381e-24)
(0.993406 -0.000104027 -4.3804e-22)
(1.00003 -4.79962e-06 7.11687e-25)
(0.996038 -0.000248819 3.31119e-22)
(0.999982 -1.90301e-05 -2.22987e-24)
(0.998026 -0.013968 2.82588e-22)
(0.999162 -3.39169e-05 2.65199e-23)
(0.997532 -0.00522563 1.811e-23)
(1.17648 -0.131603 -9.7033e-22)