/*--------------------------------*- C++ -*----------------------------------*\
  =========                 |
  \\      /  F ield         | OpenFOAM: The Open Source CFD Toolbox
   \\    /   O peration     | Website:  https://openfoam.org
    \\  /    A nd           | Version:  7
     \\/     M anipulation  |
\*---------------------------------------------------------------------------*/
FoamFile
{
    version     2.0;
    format      ascii;
    class       volScalarField;
    location    "26";
    object      p;
}
// * * * * * * * * * * * * * * * * * * * * * * * * * * * * * * * * * * * * * //

dimensions      [0 2 -2 0 0 0 0];

internalField   nonuniform List<scalar> 
30084
(
0.0164826
0.185279
-0.0162812
-0.0637879
-0.00459726
-0.06854
-0.0236811
0.0160662
0.0037814
0.000332822
0.010855
-0.00837982
-0.000934534
-5.46543e-05
0.214416
-0.0110872
-0.000353378
0.0920292
-0.00405859
-0.0192063
-0.00164666
0.00355263
-0.0165129
-0.00400863
0.625218
0.184154
-0.00100395
0.53337
0.207263
-0.00299331
0.0293377
0.0896478
-0.10155
-0.0118859
0.539932
-0.0127521
0.211816
-0.0492903
0.0106001
0.0101928
0.000803578
-0.0303672
-0.000316166
-0.0337304
5.28736e-05
-0.0026787
-0.00756915
0.000126762
0.00620285
0.206829
-0.0281058
-0.0561281
0.0924688
-0.0661553
-0.0108531
0.197881
-0.00644604
-0.00169645
-0.00826165
-0.0300645
-0.000129755
-0.00394152
0.0823593
-0.0111516
0.319765
0.593132
-0.0140194
-0.0154886
0.567526
0.000841786
0.182432
0.453383
0.00436532
0.589916
-0.0143493
0.0280733
0.218508
-0.0438342
-9.75669e-05
-0.0266591
-0.0611921
0.243734
0.0164944
-4.95358e-06
-0.0200444
-0.124
0.342483
-0.000971205
-0.000902987
-0.0895479
-0.0401415
-0.0443671
0.00571004
0.0913275
-0.0927244
0.350191
-0.0524825
0.000871824
-0.0721993
0.244235
-0.000102886
-0.0415084
-0.0001255
0.0656811
-0.0574474
0.158619
0.394834
-0.000868475
-2.13032e-05
-0.0971575
-0.101309
0.0218533
4.41163e-06
-0.00283192
-0.000312156
0.443561
0.264753
-0.0208087
3.43755e-05
0.00509434
-0.0058059
0.196787
0.00660884
0.590172
0.00205777
0.0321293
0.0981229
-0.0243329
0.0075626
1.25673e-05
-0.0312872
0.210576
0.441111
-0.0188138
0.0648663
0.0284919
0.378805
-0.0424038
-0.157076
0.237095
0.0411354
-0.0775592
-0.0784501
3.23673e-06
-4.69483e-06
-0.00470117
-0.00709045
-0.0779976
-0.107299
0.133425
0.0482315
0.0239054
0.000787994
-0.000270449
0.254867
0.000935378
-0.0140618
0.362939
0.301254
-0.0233773
-0.0586826
-0.062263
0.204222
-0.000102235
-5.15033e-06
-0.0209569
-0.0755731
8.14918e-05
-7.46685e-06
-0.012698
3.70577e-05
0.0105703
0.367682
-0.0415733
-0.0771287
-0.00921466
0.00387738
-0.0431031
-0.00229193
0.0185095
-3.32405e-05
-0.00626869
0.340214
-0.0144334
-0.156888
0.257263
-0.0114784
-0.0318075
0.00711029
-0.00290455
-0.000542382
0.00390933
0.599571
0.251083
-0.0244822
-0.013474
0.508421
0.228292
-0.0917681
0.00215124
-0.0468362
-0.0865691
-0.00803487
0.00155871
0.377212
-0.0122136
0.0127588
-0.0775305
-0.0989651
-6.66089e-05
0.47958
-0.00195393
-8.97232e-06
-0.00104645
-0.0378058
0.105798
-0.00419853
0.0124278
-0.00397676
-0.0923661
3.58068e-05
0.000825149
-0.00428777
0.130456
-0.0052247
-0.00269517
0.0894265
0.000213375
4.91082e-05
0.00974092
-0.0490461
-0.0381548
-0.00862674
0.180586
-0.0261546
0.0251292
-5.70973e-05
-0.00552503
0.00145322
-0.0425876
-0.155673
-0.00258996
0.000842712
-0.00282407
0.00532804
-0.0186379
-9.75213e-05
-0.111959
6.30003e-05
0.132422
-0.00622593
0.000247399
0.160826
-0.0864866
0.000454459
-2.86739e-06
-0.0776755
-0.14782
-0.0159014
-0.0263992
0.0481292
0.327997
0.00013346
-0.0465941
0.00451702
0.520521
-0.0144897
0.253567
0.0334861
-0.000455463
0.707807
-0.00104074
-0.082262
-0.0912926
0.00416244
0.0688028
-0.0149097
0.445501
-0.00639961
-0.0314899
-0.000523346
0.294436
-0.00516672
0.356104
-0.000975112
-0.0106002
0.509068
0.114728
0.0892594
-0.0558122
-0.000299341
0.00518324
-0.000372546
-6.60138e-06
0.128549
6.3199e-05
-0.0342902
0.00120156
0.631803
0.437393
-0.0764011
-0.0334196
-0.0363206
0.0194809
0.00530467
-0.0322939
-0.0811174
0.3345
0.456546
-0.00241087
0.38902
0.125069
0.0102073
0.0209294
-0.00301263
-0.0141437
-0.00983686
-0.00491718
-0.000117875
-0.00338117
0.0361084
0.300744
0.00303053
-0.04714
0.0243169
-7.42887e-05
-0.0786903
0.662569
-0.0115661
-0.00264229
0.0223278
-0.0249833
0.16759
-0.00261192
-6.8275e-05
3.92659e-06
-0.0049585
0.512124
0.0471508
-0.155785
-1.66188e-06
-0.15523
0.106377
-0.0093852
-0.0850266
-0.00241729
-0.000849865
-0.0435347
0.00172624
0.023452
0.0195575
0.193318
-0.000353089
0.00406855
0.195294
-0.00209648
0.000772946
0.000821762
0.439925
-0.0399077
-0.00285189
0.238105
0.528666
-0.0364123
-0.0129821
0.110695
-0.00147436
-0.0154724
-0.00626078
0.223903
-6.37874e-05
0.0188146
-0.0934459
0.445455
0.581974
-0.0111455
-0.0163186
0.328572
-0.03126
-0.000114253
0.175298
0.137307
0.139564
-0.0133937
0.04671
0.526788
-0.128104
0.480897
0.450413
-1.74648e-05
0.0362291
-0.120149
-0.00550918
0.00309284
0.533136
0.0474308
0.000526574
-0.0602579
-0.0886902
-0.0103918
-0.000250584
0.364008
0.259722
7.06389e-05
0.00782764
0.0103395
-0.0668432
-0.0557343
9.99602e-05
-5.34334e-06
0.00094074
0.173001
-0.0488539
0.357931
-0.0872234
-0.0323079
-0.0381335
0.233582
0.0864314
-0.00233993
0.0154462
0.00160805
0.484884
-0.0451981
0.00208983
-0.0138694
0.0491997
-0.00279992
-0.0224768
0.000437578
0.0004484
0.670911
-0.0150103
-0.00948766
-0.000909628
-0.00143961
0.313933
-0.0935064
-0.044937
8.0203e-06
-7.06761e-06
-0.0465825
-0.0125901
-0.00977183
0.0323577
0.0118317
-0.00487628
0.0660058
-0.0318156
0.47368
0.00988301
0.000465212
-0.0759607
-0.042651
0.0827197
-0.00644187
-0.0439852
-3.16127e-05
0.568364
0.0365945
0.00014463
0.59965
-0.0465416
-3.36601e-05
0.00281421
-0.0779284
0.0233485
0.0826563
-3.71728e-06
-0.0148375
-0.0113835
-0.0100923
-0.000936835
-0.0153028
0.51353
-0.015428
-0.0217478
0.266057
-0.0053611
0.498978
-3.71183e-05
-0.0294303
-0.082059
-0.0430131
-0.0196184
-0.00296544
0.00364951
-0.000321493
-0.0344193
0.0182715
-6.99856e-05
1.08394e-05
-0.0118271
0.470998
0.0142946
0.00487338
-0.091549
-9.1837e-07
0.00190663
-0.000108227
0.0183272
-0.0317954
-0.000779644
-0.0150188
-0.0228031
0.00200622
-3.92713e-05
0.0229583
-0.000814331
0.0964534
0.416084
0.333334
-0.00776025
0.0116347
0.0480007
-0.00020716
-0.00668875
-5.3944e-06
0.454447
-0.025159
0.0319059
-0.0308763
0.00332778
-0.00599082
-0.000225196
1.31586e-05
-0.00918317
0.0866486
0.305647
0.00242748
-0.0685184
-0.044527
-0.0147427
0.134586
-0.00259423
0.00221858
-0.0105613
-0.000208574
-0.0803777
0.336821
0.241921
-0.0405019
0.330617
0.000146542
6.70183e-06
0.174177
0.0777136
0.588476
-0.0722008
-0.0383293
0.0571835
0.00231056
-0.011016
0.000896574
-0.0196251
-0.0235865
-1.55775e-05
-0.00177262
0.441714
-0.000301221
0.551131
-4.02997e-06
0.0495674
0.0917041
0.0710489
0.00205632
0.000353572
0.462104
0.101337
-0.0833282
0.248337
-0.0121113
-0.0241115
-0.00781736
0.311933
-0.045956
0.0226396
-0.0143849
1.43783e-07
-0.00256726
0.0114829
-0.0320835
-0.0396026
-0.074215
-0.0324227
0.16737
-0.00418558
-0.0901793
-0.0250012
5.64347e-05
-0.0220155
0.0185305
0.170038
-0.0484305
-9.22673e-06
-0.0330421
-0.000748773
0.00275139
-0.125502
0.356921
0.00177585
-0.0217373
-0.0266643
0.116337
0.503702
0.00357755
-0.00869488
0.304547
0.215079
-0.027616
0.00966735
-0.0812424
-2.55432e-06
-0.0696602
0.000155114
-0.0282232
-6.30244e-05
4.13592e-05
-0.0113918
0.0885338
0.41716
0.0200132
0.0228007
-1.17894e-06
-0.0119618
0.000163321
-0.00626419
4.18668e-05
0.0875013
-0.000964263
0.245405
-0.000268535
-0.0232091
-0.0616182
-0.00818202
0.500486
-0.0297604
-0.0795479
-0.0107721
0.0795929
-0.0744273
0.0523383
-0.0287016
-3.7801e-06
-0.00963041
-0.00765659
0.00047928
0.000156168
0.31012
-0.00947381
0.126216
-0.00804767
0.00170528
0.0583774
0.000313832
-3.96804e-05
-0.0685947
-0.00677617
4.80706e-05
0.314306
0.639415
-0.000436664
-0.0593927
9.71608e-06
0.534935
0.0470656
-0.0626543
7.07582e-05
0.0234252
0.0988327
0.114651
0.0814449
-0.00081064
-0.000319419
-0.0278262
6.3124e-07
3.75206e-06
-0.0468051
-0.0512645
-0.0729723
0.613514
0.000384445
-0.0527123
0.015041
-3.60239e-05
-0.00243775
4.95977e-05
-0.0114622
7.60748e-05
-0.0256684
0.0506755
0.493391
0.0773612
-0.000572928
0.00089149
-0.0764285
0.123728
-0.00605357
1.46315e-05
0.276474
-0.158387
-0.0706589
-0.0254655
-4.35296e-05
-0.000566813
-0.164842
-0.0373681
0.204036
0.471498
-0.078043
-0.00251577
-3.48785e-05
-0.0749382
-0.100449
-0.000420207
0.00549445
-0.0266884
-0.00902632
0.456667
-0.00258443
0.00788734
0.229046
-0.0145232
0.591296
0.589887
-6.81536e-05
-9.27833e-05
-0.0292975
0.0300034
-0.0576965
0.0103939
-0.0140577
-0.00115927
0.519604
0.240153
0.00447062
0.69991
7.5424e-06
0.155807
-0.0910122
-0.0512925
0.000170794
-0.0597538
0.16106
0.0287333
0.103943
-0.00091213
-0.000979744
-0.00553691
-0.00670528
-0.024541
-0.00211624
0.187736
-0.0107031
-0.0100912
-0.0925059
0.432915
0.0467253
0.0573262
-0.000815707
-0.00103751
-0.0354663
0.00195393
-0.00504465
-4.15989e-05
-0.000702002
0.16153
0.463967
-0.000266035
0.272628
-1.74917e-05
-0.006464
-2.97386e-05
0.0106411
0.0117537
-8.54447e-05
-8.83929e-05
-0.0894169
1.50979e-06
0.0836444
-0.0423534
-8.46313e-05
0.24886
-7.90509e-06
-0.000810478
-0.000185854
-0.00968747
-0.000772425
-0.0116495
-0.105339
-0.00068772
0.00837548
-4.02561e-05
0.411404
0.00526132
0.045928
-0.0541543
-0.0389286
-0.00225008
0.00575714
0.283037
-0.0442095
0.261421
-0.0661237
-0.00667911
-5.55951e-06
-0.0108904
0.439762
0.268896
-0.058997
-0.0818689
0.398332
-0.0156695
-0.0856088
-2.94343e-05
-0.044169
-0.00165682
0.680493
-0.0766868
-0.000181514
-0.0892019
-0.0451032
0.318484
-0.00498327
-0.0472735
-0.00715693
-0.010595
-0.00251481
0.317446
-0.153126
-0.0335605
-0.0265003
-0.0229895
0.0109442
0.392282
-0.0324329
0.249151
0.00535402
-0.0151044
0.560156
-0.0159175
-0.000467436
0.321117
0.445481
-0.00378577
0.0322699
-0.0123235
-0.0535598
0.304583
-0.0749397
-4.73353e-05
-0.0136979
5.9615e-05
-0.00848215
-5.01982e-05
-0.0085347
-0.00189469
-0.00598807
-0.0488852
-0.00119073
-0.00100099
-0.00212194
0.268366
-0.00396976
-0.00618934
-0.00568543
0.229496
0.0101356
-0.000737455
0.436715
0.582384
-0.033602
0.519329
-0.029699
0.413945
0.0104249
-0.0207108
0.0049338
-0.00090217
2.56583e-05
0.00489546
-0.0207132
-0.0334799
0.243938
-0.0386986
-0.0340204
-0.00176989
-0.0350593
-0.0410272
0.0124253
-7.49625e-06
0.021123
0.191267
0.446125
0.0423679
-0.0228131
0.196446
-0.000667013
0.0632911
-0.0303213
0.00118765
-0.0882322
0.00592475
0.414421
-0.00382652
-0.0010235
-0.000231475
-0.0810971
-0.00229806
0.68531
0.707654
0.0216594
-7.06648e-05
0.0150625
-3.47594e-05
0.10958
-0.00101037
0.0388088
0.628166
0.0873387
2.75038e-05
-0.0139909
-2.13005e-05
-0.154987
-0.0568157
0.521478
0.000404495
0.0208527
0.00563934
0.000506424
-0.00405692
-0.000561127
-0.0103274
-0.0595276
-0.0382851
0.0126099
0.24368
-0.022245
0.0112172
-0.0335918
-0.00304957
-0.0447111
1.69837e-05
7.11771e-05
-0.00383393
0.0487988
-0.0481681
-0.0266199
-0.00627002
0.00470561
-0.0270647
0.323262
-0.0211344
-6.00452e-06
-0.0834529
0.483853
-0.0191203
-0.0199952
0.129128
-1.19093e-05
-0.00119399
-0.0468212
-5.7004e-05
-0.000788496
-3.55029e-05
0.700417
0.0152365
0.00620775
4.25323e-07
2.94392e-06
-1.91105e-05
-2.28399e-06
-0.0368726
0.446978
-0.0565956
-0.000829808
-0.000286409
-0.00868822
0.519251
-0.080198
0.477845
0.0504723
0.190253
-0.000206132
0.513466
-0.00373443
-0.0154548
0.0312975
0.0146088
0.0165891
0.24568
-0.0650728
0.506882
0.361816
-0.0132983
-0.0447425
0.00542654
-0.0473957
-9.20491e-06
-0.00157369
0.00458189
0.104308
-0.0107061
-0.0370661
-0.00538044
0.609003
-0.104017
-5.9217e-05
-5.06887e-05
0.527448
-0.00806874
0.0041384
-0.0212025
-0.00371088
-0.0244651
-0.0156587
-0.011311
0.147406
0.0558858
-0.016118
-0.0227794
0.00011912
-0.00931506
-0.00168398
-0.0127626
-4.84995e-05
7.82526e-05
-0.0274636
-0.032091
0.502295
-0.030534
-0.000338453
-0.00247109
-0.000518644
0.434236
-0.0146659
-6.03751e-05
-0.0433216
-0.00724253
-0.00567842
-0.0440084
-0.0508468
0.0107026
0.0886997
-0.0930796
0.000100504
0.009388
-0.0209755
-1.85526e-05
-0.000106492
0.156917
0.120997
0.0347448
-0.0746704
-0.0786167
0.000816104
0.544174
0.000104103
-0.0246727
0.458894
-0.0267557
-0.0566816
4.91694e-06
0.000229278
-0.056343
-0.0146381
0.00216088
-0.0498367
0.294045
0.348019
0.00105277
0.000377442
0.280469
-0.0195156
-1.93093e-05
-0.0023218
-0.0434066
-0.0333074
-0.0154654
-0.00294939
0.276947
1.8427e-05
0.107196
0.346219
4.39188e-05
0.0174614
-0.000704572
-0.114333
-0.0209288
-0.001046
0.0401294
0.000287956
0.288868
0.0021461
0.0323817
0.0366338
0.63293
0.426684
-0.0805249
-0.0106388
4.79042e-06
0.043901
-0.0193987
0.205053
0.392366
-0.0497285
-0.00617611
-0.0230166
-0.00883772
0.187553
-0.000290097
0.51218
0.0356311
6.47383e-05
4.57341e-05
0.000136448
-0.0175273
-0.0240641
0.000996073
0.102275
0.170168
-0.0741179
0.00076887
8.85773e-05
-0.0311781
-5.90599e-05
-0.00384387
-0.0148586
-0.000893322
0.0688272
0.00596456
-0.00182963
-0.00503056
-0.0210587
0.427095
0.437536
0.0507835
-1.61127e-05
-0.000735931
0.308472
-0.000615304
-0.113444
-0.000277597
-0.0260099
-0.10186
-0.00028771
-0.000313118
-0.0423392
0.00184007
-0.00010325
-0.00174437
0.262796
-0.0449842
-5.72774e-05
0.123876
0.413532
0.427375
0.000827232
-0.116286
-0.0120187
0.480818
-0.084806
-0.0869392
-0.00402473
-0.0165273
0.0375038
-0.0327505
0.427262
0.113921
-0.000237452
-0.0687588
-0.0909615
-0.00488697
-2.42585e-06
-0.00230881
0.261424
-0.000261925
0.00292397
-0.00512019
-0.00153042
0.0114901
0.0369599
-0.000245282
-0.000167481
-0.00826277
-0.111675
-0.0452779
-0.0941545
0.296237
-0.00229727
-0.000365188
-0.0461197
-0.030323
0.0125985
0.0170978
7.65115e-05
0.0922562
0.18523
0.0239243
0.0313239
-0.000819559
-0.0168715
0.0614083
0.00166035
-8.77478e-05
-0.011591
-0.00510077
-0.00095134
-0.0139944
-0.00109414
0.319773
-0.0113938
-0.157335
-0.0300551
-0.0135131
0.0148328
0.532645
-0.0546677
-0.000168907
0.510896
0.206446
0.00976664
-0.00738667
0.00948423
0.0337508
0.198787
0.000432253
-0.00350198
0.627778
0.346008
0.386939
-0.0556613
-0.00178317
-0.00156821
-5.65012e-05
-0.00165965
0.355437
0.104356
-0.00246501
-0.00549273
-0.00047226
-0.00381039
0.597159
0.459831
0.100761
-0.0035803
-0.0789545
-0.00553703
-0.000930501
-0.0259542
0.0186897
-0.0340006
-0.00445266
0.00113466
-0.112142
-0.113672
0.0379148
-0.0308038
-0.00416294
-0.0322141
-0.000263925
-0.00867791
-0.000885907
0.406045
5.0858e-05
2.32643e-06
-0.0315855
-0.024553
-0.0356641
0.0487123
3.93423e-05
-0.10827
0.0848142
0.243628
0.670891
-0.00578614
-0.123557
0.0382434
-0.0026102
0.101443
-0.000768223
0.0131172
-0.000251503
0.318924
-0.0579627
0.0133728
0.171285
0.146445
0.00184175
0.00378666
3.85971e-06
0.480819
-4.5377e-06
-0.0558767
0.000412173
0.0021155
0.226584
0.128501
-0.0928358
-0.048235
-0.00507934
0.706183
-0.0962855
4.76289e-06
-0.019185
-6.55661e-05
-0.0181434
0.131139
0.244093
0.00110656
-0.0433849
-0.0116634
0.186088
0.0794587
-0.0400442
0.613314
-0.0122612
7.70159e-05
-0.151894
0.635797
0.00254667
0.116648
-0.0541712
0.188307
0.00235745
0.0437121
-0.0931757
0.00700859
0.0686163
-0.0306181
0.254877
-0.0322097
-0.0238695
-0.00101153
-0.00101895
0.55742
-1.40428e-05
-0.00666006
-4.5636e-05
-0.0100002
0.000432977
-0.009
0.310944
-3.74718e-06
-0.00128491
0.151355
-0.160355
-0.0289251
0.00142417
0.46606
-0.0657964
0.213482
-0.0146448
0.194651
0.00870384
-0.000945672
-0.0312268
0.00095394
0.570175
-0.0331636
-0.000158981
0.00281871
0.178723
-0.0138789
-0.000885435
-0.000173448
-0.106813
-0.00323479
-0.0120439
-0.0930777
2.14766e-06
-0.0851215
0.000503068
0.412812
-0.0125972
0.187495
0.00560981
-0.00457209
0.33002
-0.0722813
-0.146406
-0.00536196
-0.115354
0.339432
0.358222
-0.0173554
-3.23878e-05
-0.0190393
0.005753
5.2018e-06
0.0893211
0.44399
0.0156604
0.00198081
0.0122559
-0.0866022
-0.000220326
0.103897
0.0621825
0.0969031
0.0165099
0.0344457
-0.000494387
0.219875
-0.0443636
-0.167319
-0.00126246
0.0264236
0.183874
0.000998632
-0.0890902
0.268678
-0.0505299
-0.0907702
-0.0913946
-0.105064
-0.108658
0.0660721
0.269809
-0.127081
-8.92711e-06
0.00106458
-0.0148203
-0.00223976
0.0111964
-1.3744e-05
-0.00710072
0.00493797
-9.55214e-05
0.0717495
-0.000656662
0.152491
-0.0408172
-0.00703383
-0.00853968
-0.0105876
-0.0844053
-0.00726779
-0.00128661
0.0264821
0.0995001
0.00567973
-0.0408828
-0.00369361
0.036813
-0.0117211
-0.0237736
-0.0907473
-0.019635
-5.1816e-05
-0.0187981
0.50871
3.09754e-05
0.182648
-0.0526861
0.601505
0.0610402
-0.0576967
-1.50526e-06
0.00209892
-0.10966
-2.73449e-05
-0.00338559
-6.21078e-06
-0.0938738
0.00562942
-0.102176
-0.0284351
-0.000166878
0.330944
0.319571
-0.0441895
0.000559686
-0.000227699
-9.4534e-06
-7.98712e-05
0.546674
-0.00166598
0.0028491
0.0271863
0.00118152
-0.000756744
-0.0922063
-0.000325004
0.0593764
0.00331763
-0.00261676
-0.000943041
-0.031789
-0.0516061
0.225575
0.134181
-0.000214958
-0.0163277
0.000668428
-0.0637231
-0.000706866
0.173104
-0.0109464
0.70257
-0.0186881
-0.0018359
0.0944518
-0.0235492
0.407974
-0.0523823
-0.0140271
-0.016177
0.0229358
-0.00452435
3.10255e-06
-0.0103915
0.366887
-0.0542011
-0.00408904
-0.0517241
-0.0335987
0.190559
-0.00065308
0.337158
-0.00243286
-0.0823615
-0.000683035
0.0166216
0.058111
-0.00565859
0.395902
-0.000608909
0.0413936
0.111226
0.000601661
-0.000183751
0.588762
0.0899709
-0.00109535
0.0376133
0.0268398
0.000149635
-0.0661296
-0.0275794
-0.151934
-0.0130375
0.393821
0.00533788
0.221999
-0.000515023
0.460351
-0.0880563
-0.00668087
0.00779758
0.039399
-0.0851015
-0.124355
-0.0107822
5.16657e-05
0.646502
-0.028176
0.00101751
-0.0311413
-0.0493235
0.403397
0.00377289
-0.0204348
-7.69423e-05
0.116721
0.0101317
-0.0478479
0.00100915
-0.00442337
-0.0350386
4.10054e-05
-0.0649642
-0.00200455
-0.018575
-0.0803016
0.345684
-0.0129245
0.069458
-0.0523269
-0.0396561
-4.9761e-05
0.000171356
-0.00478984
4.28447e-05
-0.0141181
0.0348433
-0.00263039
-8.20869e-06
0.578004
0.00632435
0.000405396
-6.06363e-05
-0.00273622
0.390295
-0.0657959
0.647907
0.23239
0.028227
0.340668
-1.54452e-05
-0.0181129
-0.00109331
-0.00317728
0.24307
-0.0127479
0.647661
0.313988
-0.0714881
0.325395
0.0112672
-0.0179533
0.00282057
-0.0533441
-0.00507595
-0.0651321
-0.0700048
-0.00387835
0.321677
-0.0126
0.000168503
-0.00550856
-0.000869907
-0.0426682
-0.000224178
-0.00163046
-3.82474e-05
0.202223
-0.12095
0.331339
0.0358923
-0.00352806
-0.0420087
-0.0253875
0.0927523
-0.00394178
-0.00138252
-0.0823834
-0.0570023
0.0131292
-0.0537572
-0.00577295
0.0142561
0.00322013
3.30066e-05
0.176721
-6.24275e-05
0.0722972
-0.00105664
3.57326e-06
0.00252078
-0.000881906
-0.00158824
-0.0203044
0.228178
0.188964
-0.0252214
-0.0160547
0.00367583
-0.00657823
-0.0130435
-2.98706e-05
-0.000650231
0.000863259
0.145643
-0.0110108
-0.0720634
-0.0640652
-0.00289131
-0.029237
-0.0166868
-0.00222968
0.00672957
-0.0158936
0.299887
-0.0882551
0.00746704
0.00245099
-0.0478791
0.636573
-0.0127802
-0.00625901
0.00988465
0.104895
0.00509962
-0.00382902
0.323311
-0.000487354
0.0571531
-0.0296465
-0.0702579
0.00806827
-0.00481161
-0.00711243
0.0528226
-0.00468021
-0.0008248
-0.000248635
0.0032287
-0.000316783
0.0432848
-0.0120212
-0.00265247
-1.48576e-05
0.204533
-6.22977e-05
-0.0401669
0.101413
-0.0307037
0.000160705
0.143945
-0.0522905
0.21977
-8.17397e-05
-0.00507748
0.138588
0.000213571
0.00629274
-0.00583503
0.0133092
-0.0262764
-0.0409393
-0.011237
-0.00348405
0.0126122
0.0264176
0.139045
-0.000252426
0.149943
-0.0509263
-0.00426364
-0.00894846
0.000503291
-0.0755622
8.78448e-05
0.513521
0.279535
-0.000648671
-0.0271188
0.000164272
-0.00281051
-0.00698202
-0.0201049
0.20366
0.212187
0.0277103
0.0129753
-0.0922739
0.0480014
0.0751895
0.0913293
-0.06461
0.0213988
0.27127
-0.0122528
0.446656
-0.00121101
-0.0139668
-0.0639929
-0.000133061
-0.000989038
-5.60811e-05
0.443428
-0.0132229
0.000325863
-0.0197124
-0.00636018
-0.000431472
-0.016788
0.347805
0.00122476
0.0139886
-0.0377949
-0.000630867
-0.00589954
-0.00105139
0.656295
0.000256474
3.05226e-05
-0.00246186
-0.0181153
0.140627
0.000671454
0.0179381
0.100072
-0.000214933
0.00262613
-0.091922
0.097282
-0.054563
9.57814e-07
0.000416416
0.00154341
0.0408241
0.374015
0.119122
-0.0429115
1.20587e-06
-0.0680941
-0.00336608
-0.0158209
-0.0152909
0.22384
0.493911
-0.000145782
0.189632
0.294347
-0.0123024
-0.0202116
-0.0294231
-0.0164311
0.000128904
-0.0501468
-0.0108472
-0.000169034
-0.000709225
-0.00202627
-0.00242774
-0.000871229
0.367325
0.392493
0.256812
-5.96292e-06
-0.029089
0.0601809
0.135517
0.519771
-0.000632675
-0.025121
-0.0230521
0.369709
-0.0238491
-0.0119198
-0.00116761
0.194303
0.000364469
-0.000647267
-0.0317389
-0.0531608
0.187504
0.0629533
-0.0516753
-0.0294787
0.143127
0.0255716
-0.0612947
0.00879993
0.0516281
0.195014
-0.000453996
-0.000805947
0.139062
0.000247423
0.0446688
0.0398978
-1.62901e-05
0.34619
-0.0132743
-0.00561709
0.673688
-0.045496
-0.0116088
-0.0471605
-0.00325993
0.489918
0.00143409
0.638679
-0.000181557
-0.017657
0.649349
0.00861345
0.487963
-0.00722865
-1.20598e-05
-0.0304169
0.497514
-0.00201157
-0.00834759
-0.0101359
-0.00127874
-0.0264375
0.499269
0.144201
1.77867e-06
0.0253423
-0.00471374
0.0377399
-0.00113689
0.0291138
-0.00331383
-0.000607365
0.475788
0.509706
0.480605
-0.0635664
0.0695128
0.000171103
-0.069415
0.339091
0.0206858
0.000289038
-0.0810634
0.000730399
-0.000139888
0.506819
0.000148026
0.00530021
-0.00244142
-0.0113074
0.485112
0.50015
0.513749
0.0149728
0.000589483
0.263095
0.00950741
0.0322468
-0.0113802
8.17209e-05
-0.00370982
-3.01518e-05
-0.00570982
-0.000949937
-0.00719852
-9.46953e-05
0.186867
0.00265861
-0.0909637
-0.011411
-0.0869543
-0.0201743
-0.000985349
0.40881
-0.0134067
-1.6682e-05
-4.25287e-05
0.628549
3.2421e-05
0.014309
0.0738454
-0.022186
0.359466
-0.00653896
-0.0527937
-0.0450108
-0.000635897
0.000148533
0.307368
0.51054
-0.00194598
-0.0267605
-0.000302216
0.505025
0.606441
-0.0018153
-0.00811057
0.0242219
0.00387604
-0.0300637
7.38271e-05
0.0126904
-0.0462053
0.0745915
0.412304
-0.0018941
0.035826
0.149378
0.0619725
-0.0538723
0.0355361
0.589389
0.23456
-0.0644761
0.511421
-0.000748679
0.518994
-0.00892291
0.432057
0.0996721
-0.00630991
0.0473526
0.00302414
0.0220939
-0.0878974
-0.000847511
-0.0285692
0.4327
-0.0322237
0.0334976
-0.00186213
0.0185045
0.227378
-0.0113551
-0.000180587
0.00087527
-0.00450553
-0.0292346
-0.00269606
0.00247527
-0.0109291
-0.000634316
0.00304046
0.429241
0.00272295
-0.0195047
-0.0714027
-0.035455
-0.0764349
-0.103254
0.00523635
-3.60404e-06
-2.0372e-05
0.310577
-0.0699235
6.95268e-05
-0.0565382
0.214841
-0.072781
-0.0182339
0.000137743
-0.0023706
-0.0557877
0.182178
-0.0104725
-0.000605995
-0.0556423
-0.0237913
0.652395
0.135466
0.0866705
-0.0627639
-2.58013e-06
-0.00827369
0.0799367
-0.000472074
2.09846e-05
0.205552
0.125173
0.000759686
-0.00107695
0.00989738
-0.0460165
0.012798
0.0101905
-0.0183576
6.12176e-05
0.344283
0.00071367
-0.000772436
-0.000298504
-0.000278113
-0.000199669
0.0997596
0.00115054
-0.003451
-0.0116181
-0.00574074
0.0354613
-0.00658978
-0.049869
-0.0126256
0.465134
0.389032
-0.000613269
-0.00181455
0.121028
-0.00101507
-0.0250362
0.0891092
0.126297
-0.00119743
0.0252217
0.0491086
0.00159835
0.136058
-0.000133939
0.00908601
-0.00954624
0.0169689
-0.0174954
0.0593339
8.37831e-05
0.000496934
0.000326168
-6.56045e-05
-0.00184254
-0.0116698
-0.0153181
-0.0346728
0.0817917
0.0477535
0.0111726
-0.0786718
0.0141579
0.00877166
0.0159296
6.7085e-05
0.499559
-0.00988554
-0.00394857
-0.00481157
0.660629
6.77416e-06
0.103415
-5.65328e-06
-0.0373712
-0.00767716
-0.0257197
0.204147
-0.00477553
-5.29896e-05
0.226034
0.0858612
-0.000676446
0.0619677
-1.46738e-05
0.189621
0.00841168
-0.0330886
-0.000180773
0.282551
0.0343033
-0.0239745
3.97789e-05
0.196849
0.356688
-0.0013484
-4.93644e-05
-0.0425393
-0.0106274
0.00993947
0.0293105
0.521243
0.307719
0.000563565
0.387097
0.289705
-0.00337184
-0.0645882
-0.0419622
-0.0184344
-0.0656952
0.179512
0.000960737
0.541908
0.177756
0.0148226
0.000104872
0.000742151
9.72075e-06
-0.000673542
-0.00328027
0.579167
3.11822e-06
0.0927567
0.0320793
-0.000275974
0.538857
0.606741
0.228408
0.262746
0.0200468
0.00291126
-0.00034521
-0.0128367
-1.60692e-05
-0.00130049
-0.158808
-3.57268e-05
-0.00208791
0.551435
-0.0134606
-2.4728e-05
0.573126
0.00053284
-0.040652
-0.0820616
-0.00154815
-0.0974051
-0.000281089
0.18744
0.00390905
-0.0194752
0.00226755
-0.000777001
-0.000464694
-0.000267044
-0.165151
-0.0700959
0.176631
0.00327018
-0.00497957
0.273288
8.15145e-05
0.634131
-0.000630077
-0.0977242
0.00262369
0.00190819
0.059498
0.062745
-2.82984e-06
-0.00478289
0.000117528
-0.000791534
0.000976537
0.0972919
0.0569283
0.362232
-0.0513228
-0.00012054
0.000190364
0.113492
0.395826
-0.00514924
-0.00725282
0.63413
-0.00322822
-0.0235962
0.0010626
0.0936345
-0.0492868
-0.00980924
0.180587
0.00154119
-0.000295282
0.0019268
0.0150574
0.624556
0.498041
-0.0275505
-0.0444611
-0.00738742
0.00181814
2.60232e-05
0.0868814
0.233578
1.47375e-06
-0.00837442
-2.31948e-05
0.000148948
0.470829
-3.27122e-07
-0.0921883
-0.0681058
-0.113201
0.0806999
2.21641e-06
0.0115163
-0.00703786
0.436424
0.0109091
0.00578011
-0.034532
0.000724306
0.396902
0.235823
0.0126867
0.0677097
0.557494
-0.0744027
-0.06776
-0.00221111
-0.0080549
-0.000448618
0.0298525
-8.38761e-05
0.189091
0.00335583
0.229449
-0.0394834
-1.79021e-06
0.066983
-0.00019958
-9.23821e-06
-0.000881458
0.61967
0.59568
0.358521
6.31784e-05
0.21799
0.517331
-0.00112944
0.00210483
-0.00966356
0.104508
0.501034
-0.0313409
0.139109
-0.00290927
-0.0738654
-0.0836732
0.683466
-0.000696495
0.496943
0.101045
0.216059
0.000123659
0.000237585
0.00621356
-0.0102193
0.0962034
-6.66108e-05
7.20734e-05
0.487812
-0.121185
0.000330157
0.510234
-0.0026704
0.000169987
0.419296
-0.00776796
-0.00175953
0.0336741
0.187229
0.000359293
-0.000156411
0.00401162
-0.00463995
0.484638
0.616027
0.3255
0.667406
0.155941
-0.0523741
0.562863
-9.58206e-05
-0.00368536
0.180996
-0.00392967
-0.000754039
-0.000118675
0.508937
0.0371175
-0.00074969
0.600168
0.0859463
0.287894
0.0499663
-0.00311888
-0.0234384
0.186367
0.0855294
0.508053
-0.0270097
-0.000903323
0.468361
0.437012
0.0152043
0.368686
-0.0442389
-0.00887928
-0.0105581
-0.00073714
-0.000164725
0.47334
-0.0714284
0.0325619
0.000978227
0.178244
-0.0356046
-0.0194007
-0.00112749
-0.00424581
0.526904
-0.000921767
-0.0196646
-0.00342154
0.519297
-0.0218102
0.0227922
-0.00851085
0.00158614
0.17272
-0.0248537
0.537812
0.16275
0.664641
0.276432
-0.0678661
0.0353717
-0.00203947
0.0161716
-0.0127404
0.491445
0.523091
0.58268
0.358148
0.478008
-0.000431089
0.552479
-3.8798e-05
7.40711e-05
-0.0542579
0.595216
0.0569089
0.276312
-5.50393e-06
-0.00246239
-0.0525388
-0.0396888
0.483153
-0.000782416
-0.00871637
0.358234
0.00117599
-0.00480457
0.644536
0.0533433
-0.0461803
-0.134854
-0.000621633
0.0964731
0.15722
0.672751
0.129478
0.0712277
0.0048681
-0.000274139
-0.00530482
0.212653
0.00690971
0.000143336
-0.0877733
0.265479
-0.00169159
0.498196
-0.0825419
0.503451
-0.0232639
-0.025738
0.559931
-0.00603864
0.0670722
-0.00046756
-0.00150678
-0.0717228
-0.0252156
-0.0406596
-0.0109307
0.0117165
-0.0965858
-0.07958
0.501746
0.000286656
0.00084728
-0.0227668
0.134417
-0.107748
-0.0659901
-3.89677e-08
-0.0921286
0.0528128
-0.000124123
-0.0947231
0.0126822
0.507361
-0.111684
0.496884
-0.0152873
0.135062
0.270662
-0.0389484
0.349321
-0.0019841
0.124742
0.00118564
0.0944038
0.215129
0.189745
-0.0315084
0.00685854
-0.000750208
0.194088
-9.73351e-05
-0.000151813
-0.00118041
0.00605533
0.0185622
0.0166201
0.42695
0.175314
0.626882
0.396902
-0.00173319
-0.0361218
-0.000195952
-0.0531112
-0.00135677
0.00641222
0.000707579
-0.0362924
0.3551
0.495139
-0.000333004
2.26731e-05
0.063511
-1.75021e-05
-0.0101417
-0.000211279
0.150867
-0.0392805
0.201953
-0.10164
3.80797e-05
-0.0153734
-0.0440252
-0.0275965
-0.0181442
-0.0579429
0.0674499
-0.000188498
-4.15692e-05
0.00230113
-0.000160942
0.0914933
0.123966
0.0437382
0.584033
0.0494965
-0.146458
-0.0960967
-0.000498539
0.0560215
-0.000145052
0.469886
0.107435
0.546112
0.000150174
-0.0359058
-0.00752672
0.055222
0.227995
0.433102
-0.00835962
0.036643
-0.00212987
-0.0206485
-0.00884055
-0.00673271
0.11491
0.00174101
-0.00877858
-0.0223015
0.277665
0.0746159
3.06023e-06
-0.000993864
-0.00685082
-0.000682138
0.12924
-0.000749619
-0.0317102
0.165184
8.24275e-05
0.275825
9.33174e-05
-3.75573e-06
-0.100571
-0.019369
0.000176507
-0.024661
0.00017456
0.568981
0.0136568
-0.026529
0.530439
0.135662
-0.0343881
0.420219
-0.00305548
-0.00208235
-0.00231038
0.0933032
0.705941
-0.00165978
-0.000681051
-5.6621e-06
0.00860547
-0.00139469
0.0276953
0.00670941
-0.0228982
-0.0646689
0.0201937
0.0116885
-0.0204335
-0.000605839
-0.00599185
0.418388
-0.00200851
-0.015057
-0.000262897
0.428349
0.0597772
0.413908
0.000468734
-0.000949112
-0.025956
0.585738
0.15513
-0.0308699
-0.000151128
0.0343611
0.118481
-0.0219007
0.216276
-0.0519901
0.0217629
-0.153039
0.433107
-0.0174365
0.260687
-0.00349228
0.670143
-0.0448603
-0.0120355
0.536904
-0.046784
0.174767
-0.166697
0.193078
0.00703486
0.0540717
0.339914
0.0539436
-0.0523714
-0.0105947
-0.00824832
-0.0137576
0.00593424
-0.00163079
-0.0617282
-0.0308066
0.00214803
-0.0718002
-0.0906767
-4.54746e-05
0.156618
-0.00996935
0.164516
0.541744
0.387021
-0.0583349
-0.0778961
0.000492226
-0.0827046
-0.00468282
0.649393
-0.038384
-0.0329748
0.382044
0.0516445
-0.0434019
0.25114
-0.0401768
-0.000724207
-0.0128044
0.0109582
0.000702089
0.400926
-0.00298479
0.149629
0.354946
-0.00625734
0.250069
-0.112053
-0.000419181
0.0073009
0.0995262
0.367462
-0.00278827
0.0923923
-0.077072
0.0780371
-0.0250046
0.390562
0.00955475
-0.0648261
-0.00333506
0.000195737
0.494551
-0.00271134
-0.0325667
-0.000125166
0.218446
-7.4513e-05
-0.0506922
-0.00211642
-0.140938
0.000697248
-0.0110799
0.216926
-0.00429074
0.00100999
0.000675147
-0.00451946
0.0674302
-9.36899e-05
-3.00058e-05
-0.00930933
-0.0115311
-0.0246937
0.00886536
-0.00211112
0.0803505
0.0847713
-0.0014122
0.00111044
-0.000226718
0.488218
-0.0046276
-0.00758556
0.42685
-0.0200192
0.395309
0.0556118
0.503261
0.239164
0.121285
-0.00165746