/*--------------------------------*- C++ -*----------------------------------*\
  =========                 |
  \\      /  F ield         | OpenFOAM: The Open Source CFD Toolbox
   \\    /   O peration     | Website:  https://openfoam.org
    \\  /    A nd           | Version:  7
     \\/     M anipulation  |
\*---------------------------------------------------------------------------*/
FoamFile
{
    version     2.0;
    format      ascii;
    class       volScalarField;
    location    "20";
    object      p;
}
// * * * * * * * * * * * * * * * * * * * * * * * * * * * * * * * * * * * * * //

dimensions      [0 2 -2 0 0 0 0];

internalField   nonuniform List<scalar> 
30084
(
0.0195391
0.208748
-0.0189212
-0.0734921
-0.00519663
-0.0803409
-0.0184631
0.0194783
0.00453535
0.000475166
0.0139356
-0.00946685
-0.000966168
-3.31659e-05
0.251896
-0.0127829
-0.000281657
0.116097
-0.00457906
-0.0222918
-0.00178022
0.00426669
-0.0191602
-0.0045219
0.682633
0.207473
-0.00104555
0.586086
0.245007
-0.00332275
0.0342574
0.103558
-0.113147
-0.0132463
0.592523
-0.0133256
0.241267
-0.0576306
0.0124189
0.0119625
0.00104034
-0.034567
-0.000239526
-0.0332195
9.95844e-05
-0.00293259
-0.00845676
0.000222408
0.00736695
0.235665
-0.015717
-0.0648387
0.106649
-0.0776978
-0.0125047
0.233937
-0.00733502
-0.00183586
-0.00901119
-0.0313791
-9.91359e-05
-0.00443818
0.115686
-0.0115291
0.360193
0.647596
-0.0153765
-0.0178349
0.620134
0.00108513
0.205594
0.499724
0.00531281
0.646987
-0.0165948
0.045009
0.262289
-0.0515157
-6.67808e-05
-0.0285517
-0.0721909
0.273339
0.0195339
5.0495e-05
-0.0142122
-0.105424
0.382753
-0.00100723
-0.000931163
-0.106231
-0.0447318
-0.0520463
0.00680284
0.107527
-0.109958
0.392334
-0.0576909
0.00112801
-0.0821762
0.284294
-7.19421e-05
-0.0486713
-9.51933e-05
0.07769
-0.0664666
0.180194
0.43715
-0.000892104
3.43785e-05
-0.105009
-0.113209
0.0291553
1.01627e-05
-0.00313069
-0.00022934
0.489473
0.297476
-0.0242092
0.000101321
0.00614056
0.0235041
0.221366
0.0269039
0.64535
0.00251557
0.0545032
0.122644
-0.0243592
0.0089375
0.000126973
-0.0305913
0.253988
0.489874
0.000445131
0.076698
0.0332456
0.427021
-0.0497454
-0.152354
0.276565
0.0637321
-0.0922448
-0.0914696
7.48883e-06
-9.3908e-07
-0.00532233
-0.00789532
-0.0874136
-0.099248
0.172566
0.0568371
0.0286074
0.00103513
-0.000216621
0.285034
0.00122531
-0.0161023
0.410957
0.335156
-0.0102625
-0.0692725
-0.0716423
0.240959
-6.38867e-05
-1.28501e-06
-0.0243702
-0.0884407
0.00018837
4.88981e-05
-0.0146119
0.000155451
0.0124657
0.416314
-0.0488611
-0.0777454
-0.0105844
0.00465168
-0.0503699
-0.00249764
0.0402928
-1.68274e-05
-0.00519171
0.380603
-0.0166925
-0.152549
0.288559
-0.0132324
-0.0371152
0.00839684
-0.00312816
-0.000530421
0.00524065
0.654896
0.280825
-0.0285321
-0.0154321
0.557637
0.256226
-0.108618
0.0026282
-0.0417884
-0.097878
-0.00902849
0.00193696
0.425955
-0.0140733
0.0149784
-0.0873622
-0.107188
-4.39048e-05
0.528896
-0.00212783
4.07565e-05
-0.00109156
-0.0417782
0.140702
-0.00280903
0.0145944
-0.00448229
-0.108868
0.000149816
0.00109763
-0.00483987
0.148302
-0.0059007
-0.00297894
0.1024
0.000355554
9.35304e-05
0.0114413
-0.0563722
-0.0446245
-0.0099111
0.203597
-0.0304823
0.0300308
-3.47642e-05
-0.00627953
0.00181258
-0.0372142
-0.158783
-0.00286151
0.00109914
-0.00314862
0.00638901
-0.0216814
-5.95084e-05
-0.093906
0.00018255
0.150452
-0.00708248
0.000394945
0.182578
-0.0987341
0.000624115
1.3384e-05
-0.0924092
-0.152193
-0.0184319
-0.0268777
0.0568114
0.367192
0.000229875
-0.0538223
0.0298122
0.570683
-0.0167966
0.284559
0.0511836
-0.000360186
0.770521
-0.00108393
-0.0831527
-0.10752
0.00497843
0.0976685
-0.0172968
0.494988
-0.00729259
-0.0366867
-0.000461517
0.337957
-0.005638
0.398664
-0.00101363
-0.0121997
0.562142
0.131043
0.102178
-0.0648752
-0.000268509
0.00620833
-0.000302851
4.21076e-05
0.148357
0.000116578
-0.0399971
0.0257665
0.689622
0.485803
-0.087332
-0.0382214
-0.0425462
0.0255539
0.00677995
-0.0376369
-0.0922516
0.374305
0.502745
-0.00265737
0.431047
0.144458
0.0310953
0.0247339
-0.00301394
-0.0124054
-0.0113166
-0.00558742
-8.81623e-05
-0.00366851
0.0504786
0.34482
0.00366415
-0.0551936
0.0287457
-4.77051e-05
-0.0897531
0.721841
-0.0133289
-0.00287277
0.0263567
-0.0268799
0.195027
-0.00286574
-2.64055e-05
9.90574e-06
-0.00564082
0.565408
0.0577561
-0.158201
1.4741e-05
-0.160337
0.126436
-0.0107985
-0.100894
-0.00261518
-0.000870773
-0.0506266
0.00213395
0.0458369
0.0227678
0.233601
-0.000235452
0.00510056
0.219525
0.0269281
0.00101818
0.00107388
0.48612
-0.0443258
-0.00316373
0.266872
0.5793
-0.024394
-0.0142971
0.145543
-0.00158136
-0.0179809
-0.00712881
0.251454
4.89094e-05
0.021932
-0.0824878
0.493432
0.639259
-0.0128419
-0.018904
0.369418
-0.032709
-8.48582e-05
0.216529
0.155947
0.158389
-0.0153194
0.0539918
0.579892
-0.121126
0.530198
0.498261
3.75384e-05
0.0504846
-0.11229
-0.00622266
0.0037339
0.583961
0.0580871
0.000709661
-0.0681243
-0.10023
-0.0119559
-0.000194716
0.408428
0.291938
0.000194164
0.00923987
0.0121562
-0.0478229
-0.0646828
0.00023202
-2.09293e-06
0.00120268
0.200579
-0.0571757
0.396968
-0.101749
-0.0368736
-0.0448947
0.262014
0.119222
-0.00257452
0.0180988
0.0019952
0.535323
-0.0529702
0.00255289
-0.0160644
0.0724809
-0.00303348
-0.026057
0.00060655
0.000617184
0.730587
-0.0173609
-0.010874
-0.000898391
-0.00154158
0.352413
-0.0819779
-0.0508363
1.79057e-05
3.52329e-05
-0.0546959
-0.014532
-0.0112544
0.0376174
0.0139007
-0.00527048
0.0879504
-0.0371006
0.522733
0.0126296
0.000639774
-0.0871227
-0.0487868
0.111246
-0.00728694
-0.0498343
-1.73844e-05
0.622389
0.0424098
0.00026578
0.654908
-0.0526911
-1.8566e-05
0.00340404
-0.0891904
0.0304929
0.0971277
1.32121e-07
-0.0172195
-0.00935759
-0.011605
-0.000969647
-0.0177622
0.562857
-0.0178079
-0.0251744
0.297046
-0.00610825
0.549833
-2.11396e-05
-0.0334907
-0.0908592
-0.0486407
0.00366041
-0.00329573
0.00531801
-0.000239829
-0.0399385
0.0252234
-4.42058e-05
2.37629e-05
-0.01367
0.518754
0.0174753
0.0058222
-0.109007
1.42507e-05
0.00234518
-4.15675e-06
0.0220004
-0.0370271
-0.000789505
-0.0171545
-0.0265308
0.00245474
-2.24019e-05
0.0513658
-0.000788558
0.115497
0.462265
0.374306
-0.00837664
0.0136804
0.0554623
-0.000105219
-0.00748182
1.80735e-05
0.502751
-0.0291598
0.0370993
-0.0360838
0.00418534
-0.00678126
-0.000165667
2.85618e-05
-0.0105226
0.102522
0.341125
0.00295019
-0.0783987
-0.0523744
-0.0170437
0.173326
-0.00287506
0.00304718
-0.0121671
-0.000147347
-0.0917116
0.374426
0.271821
-0.0471939
0.367138
0.000266646
1.51995e-05
0.214871
0.106791
0.644273
-0.0781061
-0.0449809
0.0809723
0.00281133
-0.0127032
0.00115073
-0.0227849
-0.0273364
2.20728e-05
-0.00192196
0.489562
-0.000225757
0.604475
1.85004e-05
0.0830314
0.110416
0.0934449
0.0025158
0.000500921
0.509039
0.120974
-0.0925531
0.278343
-0.0136137
-0.0281318
-0.0089644
0.359306
-0.0535631
0.0290847
-0.0164218
1.54389e-05
-0.00284339
0.0135468
-0.0375643
-0.0461281
-0.0868146
-0.0379685
0.189129
-0.00472093
-0.106373
-0.0291578
0.000160214
-0.0256686
0.0246393
0.192048
-0.0565543
-4.79588e-06
-0.0384978
-0.00042285
0.00333257
-0.11585
0.395808
0.0021915
-0.0253238
-0.0162287
0.132536
0.55287
0.00430259
-0.00943128
0.346828
0.241734
-0.0314087
0.0113729
-0.0953022
3.42649e-06
-0.0828333
0.000255854
-0.0184199
-4.13609e-05
0.0001094
-0.012417
0.122704
0.46579
0.0266897
0.0269664
3.18803e-06
-0.0137866
0.000259495
-0.00714326
0.000108405
0.102454
-0.000996877
0.277554
-0.000215
-0.027104
-0.0729137
-0.00939644
0.549375
-0.0348392
-0.0825173
-0.0124164
0.0913508
-0.084694
0.0603722
-0.0258178
-1.41871e-06
-0.0105883
-0.00878528
0.000654409
0.000250123
0.357594
-0.0109027
0.143558
-0.00862005
0.00210281
0.0675264
0.000452287
-2.39166e-05
-0.0816763
-0.00775843
0.000115571
0.354601
0.698189
-0.000403774
-0.0702313
2.18324e-05
0.588094
0.0809723
-0.0725515
0.000196071
0.029807
0.113258
0.131017
0.0959082
-0.000812413
-0.000241533
-0.0323189
1.4452e-05
8.83485e-06
-0.0545938
-0.0560353
-0.0852276
0.670646
0.000538326
-0.0549771
0.0176213
-2.12218e-05
-0.00265872
0.00016767
-0.0130691
0.000137048
-0.0223216
0.058503
0.543972
0.0888231
-0.000557173
0.00115266
-0.057896
0.140751
-0.00689207
3.16933e-05
0.314084
-0.155302
-0.0762219
-0.029741
-1.68397e-05
-0.000551396
-0.161196
-0.0411478
0.230687
0.520573
-0.0809098
-0.00277967
-1.73633e-05
-0.0865348
-0.112481
-0.000384645
0.00742296
-0.0303504
-0.0103756
0.502599
-0.00285411
0.0153996
0.273122
-0.0168248
0.647195
0.644166
-2.50603e-05
1.54387e-05
-0.0343301
0.0348738
-0.068113
0.0122283
-0.0162831
-0.00121867
0.571897
0.271704
0.00534071
0.761649
1.69365e-05
0.17646
-0.0993989
-0.0530862
0.000294638
-0.0706028
0.18212
0.0334277
0.118945
-0.000942473
-0.00101363
-0.00275657
-0.00766564
-0.0284844
-0.00229205
0.216407
-0.0118124
-0.0115707
-0.110685
0.478721
0.0643638
0.0663312
-0.000831964
-0.00108204
-0.0411587
0.00240056
-0.00573347
-1.53984e-05
-0.000687203
0.182645
0.511105
-0.000234431
0.318502
2.58807e-05
-0.00738431
3.65338e-05
0.0125062
0.0400951
-4.6685e-05
-4.82839e-05
-0.104178
1.54737e-05
0.0984672
-0.0478692
2.31765e-05
0.282937
2.83084e-05
-0.000828651
-0.000150395
-0.0111132
-0.000751137
-0.0134521
-0.113059
-0.000654307
0.00987618
-2.45774e-05
0.459617
0.0123397
0.0638416
-0.0639799
-0.0454072
-0.00243932
0.00683599
0.317985
-0.0505653
0.301223
-0.0780488
-0.00763471
-4.54094e-07
-0.0125549
0.489173
0.305112
-0.0664345
-0.0972371
0.445452
-0.0181551
-0.0944508
3.56164e-05
-0.049939
-0.00179244
0.741951
-0.0857808
-0.000146555
-0.10534
-0.0517435
0.355961
-0.00566214
-0.0542227
-0.00802046
-0.0115394
-0.00277593
0.354732
-0.156603
-0.0390306
-0.0308128
-0.0268599
0.0128446
0.438885
-0.0378476
0.279063
0.00636539
0.00879455
0.613485
-0.0184567
-0.000448545
0.3601
0.492949
-0.00097176
0.0454096
-0.0140018
-0.0632373
0.346543
-0.0869853
-2.05147e-05
-0.0158517
0.000110704
-0.00973825
-2.27193e-05
-0.00950649
-0.00206093
-0.00678885
-0.0284364
-0.00125573
-0.00104152
-0.00229775
0.300836
-0.00447195
-0.00704783
-0.00642907
0.259328
0.0119263
-0.000708316
0.485484
0.636046
-0.039301
0.571981
-0.0346775
0.459794
0.0122483
-0.0206232
0.0058781
-0.000927268
5.30269e-05
0.00584518
-0.0240128
-0.0392184
0.273541
-0.045319
-0.0398316
-0.00191923
-0.0131829
-0.0470202
0.0145947
-3.94436e-06
0.0277547
0.230806
0.492666
0.0583043
-0.0265151
0.221385
-0.000622188
0.0731655
-0.0354161
0.00154836
-0.104071
0.00745178
0.460227
-0.00430133
-0.00106719
-0.000123452
-0.0903478
-0.0024927
0.746585
0.770485
0.0251889
-4.71414e-05
0.017619
-1.84186e-05
0.130792
-0.0010493
0.0452448
0.688482
0.116421
5.6512e-05
-0.0161899
4.808e-05
-0.159166
-0.0670656
0.572447
0.000562589
0.0242747
0.00729619
0.000686794
-0.00457535
-0.000551598
-0.0119046
-0.0677678
-0.0446365
0.0159756
0.27724
-0.0258681
0.013202
-0.0392141
-0.00335818
-0.0519902
3.63445e-05
0.000129803
-0.00431247
0.057021
-0.0522353
-0.0307958
-0.00716244
0.00560369
-0.0233055
0.370836
-0.024693
-8.81596e-07
-0.0991843
0.531918
-0.000725307
-0.0232228
0.156574
5.84792e-05
-0.00126087
-0.0546803
-3.41301e-05
-0.000804478
-2.05812e-05
0.76182
0.0178335
0.00736034
1.42493e-06
7.42734e-06
3.04004e-05
9.62428e-07
-0.0432584
0.495006
-0.0667051
-0.00081397
-0.000255647
-0.00965846
0.569291
-0.0898197
0.526944
0.0677192
0.214036
-0.000103082
0.563185
-0.00419349
-0.0178609
0.0447112
0.0183055
0.0205574
0.276009
-0.0767188
0.556374
0.406612
-0.0152493
-0.0514461
0.0122741
-0.0553908
3.4155e-05
-0.00169489
0.00546738
0.119556
-0.0123436
-0.0434651
-0.00607871
0.666644
-0.11087
-2.61567e-05
-3.0074e-05
0.578467
-0.00926004
0.00557809
-0.0246962
-0.00417614
-0.0283229
-0.0181162
0.00866937
0.179043
0.0732236
-0.0186606
-0.0263666
0.000236799
-0.0107167
-0.00151724
-0.0147663
-2.75965e-05
0.000165841
-0.0283784
-0.0372004
0.551234
-0.0268209
-0.000268722
-0.00271227
-0.000505308
0.482662
0.00352669
-2.8213e-05
-0.0481223
-0.00829483
-0.00642698
-0.0510987
-0.059742
0.0126143
0.10363
-0.101703
0.000211989
0.0110488
-0.0245264
2.23965e-06
-7.77358e-05
0.177722
0.138456
0.0586583
-0.0888696
-0.0879469
0.00106049
0.599033
0.000241564
-0.0267208
0.506926
-0.0311848
-0.0661232
1.12934e-05
0.000386635
-0.0656282
-0.0169641
0.00263966
-0.0589725
0.329047
0.395989
0.00133552
0.00056381
0.318565
-0.0226606
7.91546e-07
-0.00254159
-0.0508459
-0.0383426
-0.0170668
-0.00279909
0.322489
3.9458e-05
0.122722
0.387714
0.000119815
0.0224963
-0.000707666
-0.11639
-0.0243651
-0.0010937
0.0464633
0.000460492
0.324381
0.002618
0.0378799
0.0519441
0.690744
0.471078
-0.0957282
-0.0122715
1.08465e-05
0.0734522
-0.0225455
0.233621
0.440196
-0.0587298
0.00376258
-0.0267887
-0.0101604
0.211503
-0.000259706
0.564585
0.0419316
0.000120848
0.000120756
0.000230778
-0.0203349
-0.028017
0.00130929
0.129692
0.199091
-0.088055
0.00108442
0.000178202
-0.0360905
-3.82185e-05
-0.00432034
-0.0170758
-0.000869543
0.0944138
0.00722549
-0.00198657
-0.00571637
-0.024359
0.471416
0.483134
0.0593073
3.24725e-05
-0.000743063
0.344631
-0.00060418
-0.104843
-0.000246549
-0.0301433
-0.113256
-0.000227415
-0.000283064
-0.0485847
0.00230372
-7.49663e-05
-0.00188868
0.298633
-0.0525229
-1.2699e-05
0.141673
0.458995
0.474628
0.00110982
-0.110502
-0.0138855
0.528839
-0.0967387
-0.0990495
0.000918467
-0.0192029
0.0440265
-0.0382556
0.474376
0.135665
-0.000175072
-0.0807807
-0.108697
-0.00551898
1.71188e-06
-0.00251508
0.292135
-0.000198452
0.00926062
-0.00579089
-0.00164798
0.013548
0.042821
-0.00018526
-0.000135519
-0.00856851
-0.113327
-0.0526588
-0.106417
0.329942
-0.00203001
-0.000323322
-0.0527987
-0.0352824
0.0150218
0.0200095
0.000207276
0.105883
0.210201
0.0278118
0.0366972
-0.000829826
-0.0195736
0.0921648
0.00205214
2.29627e-05
-0.0132544
-0.0057976
-0.000977402
-0.0160519
-0.00114485
0.36757
-0.0131482
-0.158472
-0.0347823
-0.0156306
0.0173551
0.585638
-0.0645188
-0.000102811
0.560286
0.233168
0.0114875
-0.00847185
0.0111738
0.0568193
0.223492
0.000596639
-0.00358567
0.687248
0.38429
0.434236
-0.0649455
-0.00193751
-0.00169051
-1.39589e-05
-0.00179025
0.402105
0.119378
0.00249868
-0.00497821
-0.000422777
0.0158754
0.651609
0.507209
0.115457
-0.00401482
-0.0938081
-0.00567282
-0.000957369
-0.028136
0.0236237
-0.0398004
-0.00503313
0.00146929
-0.123044
-0.116133
0.0439055
-0.0357448
-0.00342606
-0.0377341
-0.000232021
-0.00994567
-0.000910015
0.45354
0.000130793
7.43483e-06
-0.0308732
-0.0286375
-0.0417795
0.0564805
0.00016691
-0.120873
0.0998517
0.273624
0.733359
-0.00657988
-0.118205
0.0447754
-0.00288842
0.129022
-0.000777216
0.0154245
-0.000195778
0.361541
-0.0381919
0.0156908
0.200189
0.166
0.0022963
0.00480706
9.80404e-06
0.530853
1.59623e-05
-0.0659024
0.0005785
0.0026248
0.256324
0.146772
-0.102676
-0.0567337
-0.00573666
0.767941
-0.107713
1.12127e-05
-0.0222724
1.00526e-05
-0.0185808
0.149675
0.27347
0.00140414
-0.0508503
-0.0134577
0.209677
0.111397
-0.0468883
0.671956
-0.01415
0.000138034
-0.140116
0.69516
0.00339482
0.132867
-0.0627258
0.216634
0.00286763
0.0535659
-0.111485
0.0086929
0.0791978
-0.0293261
0.295025
-0.0376218
-0.0277371
-0.00104767
-0.00106052
0.610876
2.5417e-05
-0.00732865
-2.54299e-05
-0.0115176
0.000602365
-0.0103128
0.353161
1.58179e-05
-0.00136659
0.191494
-0.158789
-0.0323948
0.00180433
0.512904
-0.0718552
0.24006
-0.0169762
0.219447
0.0105712
-0.000972575
-0.00859415
0.00122704
0.625074
-0.0382648
-9.40617e-05
0.00340458
0.201523
-0.0160404
-0.000903332
-0.000109699
-0.111881
-0.00361673
-0.0138205
-0.104877
6.38856e-06
-0.100571
0.000725882
0.457131
-0.0144624
0.211632
0.00676791
-0.00516086
0.370459
-0.0753429
-0.133415
-0.00606889
-0.118422
0.38081
0.401887
-0.0201015
-1.82837e-05
-0.022103
0.00682978
6.08006e-05
0.112426
0.489834
0.0183295
0.00242541
0.0163069
-0.102321
-0.000184782
0.121846
0.073298
0.113636
0.0193321
0.0401846
-0.000478119
0.246855
-0.0232041
-0.165065
-0.00134002
0.033164
0.208584
0.00127159
-0.105518
0.300965
-0.054962
-0.107148
-0.109686
-0.100086
-0.104216
0.0763512
0.301491
-0.127311
3.14414e-05
0.00140192
0.0024938
-0.0024611
0.0165577
2.2988e-05
-0.00813116
0.00586995
-6.43181e-05
0.0824713
-0.00065044
0.172676
-0.0469284
-0.00710856
-0.00981045
-0.0122266
-0.0960483
-0.00833906
-0.00133694
0.030838
0.114531
0.00689304
-0.0479029
-0.0041473
0.0431732
-0.0135355
-0.0276826
-0.108302
-0.022824
-9.96776e-06
-0.0218438
0.558174
8.58181e-05
0.223288
-0.0502852
0.659043
0.0706331
-0.0681313
4.40323e-06
0.00257018
-0.121789
-1.50286e-05
-0.00379155
-2.96502e-06
-0.105007
0.00668628
-0.106573
-0.033209
-0.00013486
0.368777
0.355855
-0.0515183
0.000748491
-0.000184942
2.79087e-05
-5.47064e-05
0.601599
-0.00180297
0.00343912
0.0316293
0.00149058
-0.000765507
-0.11036
-0.000236712
0.0700624
0.004927
-0.00289788
-0.000968133
-0.0372085
-0.0602853
0.254917
0.160856
-0.00017979
-0.018926
0.000888093
-0.0559357
-0.000648456
0.198791
-0.011358
0.766396
-0.0188908
-0.00199895
0.108356
-0.027417
0.452033
-0.0612212
-0.0162692
-0.0187522
0.0266787
-0.00510812
4.10443e-05
-0.0119707
0.408162
-0.0639674
-0.00461334
-0.060906
-0.0393489
0.214348
-0.000650567
0.376734
-0.000783636
-0.0938297
-0.00068422
0.0194577
0.0675431
-0.00321672
0.441688
-0.000597986
0.0478921
0.127112
0.000841375
-0.000119025
0.645176
0.107389
-0.000783355
0.0439086
0.0344524
0.000266498
-0.0581776
-0.0320712
-0.1527
-0.0148747
0.435901
0.00647758
0.262576
-0.000501302
0.507959
-0.104238
-0.0076472
0.00920269
0.0456785
-0.0943695
-0.115378
-0.012442
0.000130811
0.704969
-0.0329183
0.00130185
-0.0206663
-0.0580379
0.44942
0.00452386
-0.023767
-5.22192e-05
0.143336
0.0119309
-0.0562556
0.00129097
-0.00499974
-0.0410561
8.05129e-05
-0.0764402
-0.0021869
-0.0215752
-0.0946197
0.383759
-0.0149338
0.0934146
-0.0514874
-0.0455525
4.64756e-05
0.000291432
-0.00540564
8.3396e-05
-0.0163827
0.0641006
-0.00291494
4.47842e-05
0.631318
0.00749736
0.000594078
-1.06573e-05
-0.00303166
0.43551
-0.077971
0.706255
0.260907
0.0330682
0.378992
2.99712e-05
-0.0207411
-0.00114357
-0.00354923
0.272365
-0.0146129
0.708282
0.350589
-0.0835201
0.362022
0.0134952
-0.0207964
0.00341232
-0.050679
-0.00576326
-0.0766091
-0.0830663
-0.00435964
0.358528
-0.014548
0.000272892
-0.00626114
-0.000895545
-0.050501
-0.000182281
-0.00175866
-2.10813e-05
0.227755
-0.110214
0.369069
0.0422098
-0.00395308
-0.0473419
-0.029375
0.106105
-0.00444051
-0.00147635
-0.0974049
-0.0664975
0.0173101
-0.0634464
-0.00657352
0.0209884
0.00445833
0.000101141
0.200625
-1.39316e-05
0.0830703
-0.00110394
8.46888e-06
0.00305597
-0.000900238
-0.00171375
-0.0234666
0.260863
0.212696
-0.0294919
-0.0185873
0.00441121
-0.00753407
-0.0150811
0.000130076
-0.000643871
0.00112233
0.165245
-0.0125415
-0.0836045
-0.0702428
-0.00308985
-0.0314069
-0.0162854
-0.00245072
0.00797579
-0.0184316
0.335419
-0.0996244
0.00918505
0.00347301
-0.0557104
0.694497
-0.014756
-0.00646991
0.0116459
0.119873
0.00607191
-0.00132653
0.360308
-0.000470471
0.0665008
-0.0334846
-0.0753413
0.0095105
-0.00544005
-0.00814415
0.0611775
-0.00529897
-0.000834606
0.00175842
0.00391819
-0.000268986
0.0533184
-0.0138715
-0.00293908
2.75704e-05
0.230303
-1.71301e-05
-0.0451878
0.115995
-0.0345033
0.000307664
0.163271
-0.0549686
0.247
8.05213e-06
-0.00574073
0.170235
0.000330996
0.00746138
-0.00664198
0.0156005
-0.0306368
-0.0480515
-0.012601
-0.00390485
0.0147981
0.0306917
0.178974
-0.000219994
0.169873
-0.0597724
-0.00480122
-0.0102828
0.000683232
-0.0792402
0.000153929
0.563123
0.317216
-0.000648822
-0.0314597
0.000366143
-0.00311952
-0.00771563
-0.0204545
0.228855
0.248879
0.0398543
0.015222
-0.109209
0.0569526
0.0998914
0.119959
-0.0760934
0.0267347
0.306749
-0.0141439
0.49281
-0.00127915
-0.0161726
-0.0723304
-7.68848e-05
-0.00102642
-3.61662e-05
0.489311
-0.0152808
0.000487856
-0.0228839
-0.00667095
-0.000409763
-0.0194574
0.391026
0.0015782
0.0164303
-0.0422832
-0.000577259
-0.0067186
-0.00109882
0.71711
0.00038089
6.19031e-05
-0.00269296
-0.0207873
0.176127
0.000905003
0.0250353
0.115081
-0.000127587
0.00322174
-0.108597
0.130141
-0.053585
2.91716e-06
0.000606217
0.0112754
0.0477094
0.415735
0.135637
-0.0507094
3.18904e-06
-0.0736472
-0.00377434
-0.018289
-0.0176689
0.251447
0.542596
-0.000110951
0.213834
0.329292
-0.0142128
-0.0140088
-0.0331083
-0.0163219
0.00022222
-0.0589097
-0.0124457
-7.15027e-05
-0.000696183
-0.0022095
-0.00268307
-0.000889002
0.408934
0.438955
0.295916
-2.70915e-06
-0.0339758
0.085102
0.154162
0.56976
-0.000631581
-0.0293593
-0.0268656
0.417436
-0.0277558
-0.0136472
0.00897678
0.218856
0.000534883
-0.000611765
-0.0361824
-0.0561633
0.217541
0.0810107
-0.0572853
-0.0335673
0.181576
0.0302134
-0.070775
0.0103654
0.0820558
0.230833
-0.000413019
-0.000809318
0.165525
0.000370051
0.0612013
0.0462328
3.5362e-05
0.395264
-0.015233
-0.00639229
0.734266
-0.0533955
-0.0122968
-0.0550834
-0.00353808
0.538157
0.00179674
0.696415
-0.000123419
-0.0108604
0.708929
0.0101528
0.536413
-0.00827965
7.77523e-05
-0.0314879
0.548489
-0.00219425
-0.00958579
-0.0116884
-0.00135823
-0.0306217
0.548735
0.166907
5.03145e-05
0.029896
-0.0053382
0.0439843
-0.00119395
0.0338005
-0.00371653
-0.000568184
0.52341
0.560915
0.528364
-0.0748063
0.101099
0.000294054
-0.0823199
0.377418
0.0252734
0.000444559
-0.0831396
0.000957366
-0.000104867
0.557119
0.000247976
0.00631475
-0.00268988
-0.0129272
0.533155
0.550446
0.564039
0.0175536
0.000810075
0.296031
0.0111645
0.0398005
-0.0131295
0.000145102
-0.00416586
-1.68574e-05
-0.00649585
-0.000981905
-0.00819755
-8.25429e-06
0.211527
0.00321666
-0.0982637
-0.0131002
-0.103083
-0.0234586
-0.00102396
0.455245
-0.015505
9.57553e-05
-2.2739e-06
0.685802
6.54476e-05
0.0167598
0.0870482
-0.0258444
0.401805
-0.00747066
-0.06229
-0.0527758
-0.000580425
0.000246375
0.342292
0.560961
-0.00212423
-0.0301014
-0.000272423
0.555978
0.662815
-0.00197178
-0.00924602
0.0282094
0.00466679
-0.0350615
0.000191189
0.0148673
-0.0539979
0.0880378
0.460205
-0.00205578
0.0415909
0.180362
0.0853222
-0.0635717
0.0414108
0.644606
0.267287
-0.0768027
0.563424
-0.000743069
0.569042
-0.00999332
0.477458
0.117344
-0.00720477
0.0575896
0.00364313
0.025756
-0.104827
-0.000870832
-0.0333357
0.479284
-0.0373295
0.0419912
-0.0020226
0.0421069
0.259754
-0.013091
0.0300004
0.00113522
-0.0050818
-0.0341043
-0.0029917
0.00302973
-0.0126075
-0.000630215
0.0036613
0.474095
0.00334567
-0.0227347
-0.0830208
-0.0413078
-0.0909417
-0.111794
0.00622836
3.11339e-06
6.91918e-05
0.348568
-0.0755157
0.000128027
-0.0462763
0.242225
-0.0846264
-0.0211751
0.000225278
-0.00260946
-0.065848
0.210565
-0.011685
-0.000598462
-0.0656892
-0.0274499
0.71169
0.154144
0.101088
-0.0708166
1.14516e-07
-0.00950027
0.0920058
-0.000441416
4.42822e-05
0.233054
0.144446
0.000990299
-0.00112672
0.0127503
-0.0499838
0.0150625
0.0122451
-0.0213215
0.000115184
0.391528
0.000942083
-0.000743881
-0.000247952
-0.000247249
-0.000145622
0.11431
0.00149223
-0.00386643
-0.0134216
-0.00641715
0.0413882
-0.00753404
-0.0586088
-0.014586
0.513499
0.431771
-0.000598186
-0.00196432
0.139801
-0.00105164
-0.0280367
0.111136
0.160225
-0.00126538
0.0293135
0.0568548
0.00201019
0.163842
-7.92917e-05
0.0106667
-0.000270625
0.0199017
-0.0202165
0.0683484
0.000156668
0.00116447
0.000502691
-1.36266e-05
-0.00195607
-0.0134705
-0.0177695
-0.0404192
0.103063
0.0566436
0.0130675
-0.0871812
0.0173206
0.011487
0.0186532
0.000123088
0.548697
-0.0113782
-0.00444414
0.00900303
0.720584
1.56185e-05
0.132002
5.48372e-05
-0.0271528
-0.00880045
-0.0297293
0.231531
-0.00540866
6.28535e-05
0.266739
0.0983456
-0.000671585
0.0715437
1.28636e-05
0.21403
0.0105344
-0.0384095
-0.000121055
0.319943
0.0398225
-0.0279574
0.000110734
0.222357
0.398131
-0.00143782
2.87377e-05
-0.0495082
-0.01226
0.0152495
0.0365124
0.571738
0.342512
0.000764311
0.434347
0.327769
-0.00377338
-0.0766934
-0.0456967
-0.0206419
-0.0720845
0.218415
0.00123564
0.594133
0.203958
0.0173842
0.000227262
0.000979013
2.17567e-05
-0.000657213
-0.00366651
0.634887
5.97998e-05
0.106106
0.0372107
-0.000232929
0.592491
0.663408
0.257862
0.294753
0.0460248
0.00351565
-0.000300551
-0.0148301
1.05407e-05
-0.00138267
-0.158699
7.54311e-05
-0.00216993
0.605327
-0.0155693
-3.25325e-06
0.627196
0.000729333
-0.0478527
-0.095529
-0.00166337
-0.104567
-0.000246907
0.222367
0.00468036
-0.0219688
0.00276012
-0.000771641
-0.000426426
-0.000225126
-0.166817
-0.0818084
0.199242
0.00396912
-0.00282323
0.309368
0.000152635
0.693519
-0.000577751
-0.11682
0.00318208
0.00233961
0.0685333
0.0724019
5.63326e-05
-0.00540737
0.000209894
-0.000805203
0.001252
0.111451
0.0655957
0.404035
-0.0536121
-8.73218e-05
0.000301189
0.129321
0.444235
-0.00585103
-0.00830689
0.692031
-0.00360656
-0.0275065
0.00140677
0.11569
-0.050019
-0.0112968
0.203549
0.00191807
-0.000235244
0.00236088
0.0379379
0.684194
0.546616
-0.0321698
-0.0486162
-0.00842802
0.00223592
8.01773e-05
0.0995401
0.265962
5.46582e-05
-0.00961919
-2.51923e-06
0.000266835
0.518233
3.93629e-07
-0.10167
-0.0743059
-0.117131
0.0928399
4.15078e-05
0.0135364
-0.00799292
0.48168
0.0245632
0.00685039
-0.0402188
0.000957752
0.444315
0.264584
0.0151041
0.0822188
0.612124
-0.0861389
-0.0772855
-0.00242632
-0.00924134
-0.000395054
0.0379515
7.43154e-06
0.213169
0.00403903
0.263137
-0.0454667
2.37966e-06
0.0790863
-0.000144236
3.72263e-05
-0.00089454
0.677031
0.651139
0.406078
0.000124703
0.254838
0.567193
-0.00118914
0.00294859
-0.0111355
0.128605
0.552923
-0.0365742
0.158081
-0.00320051
-0.0873005
-0.0990023
0.744951
-0.000702396
0.546011
0.115621
0.24276
0.00026328
0.000363461
0.0073835
-0.0117742
0.110895
-1.61054e-05
0.000138398
0.535863
-0.120967
0.000493476
0.56001
-0.00295279
0.000288605
0.46511
-0.00854996
-0.00188718
0.061252
0.221577
0.00050788
-9.80111e-05
0.00482994
-0.00525426
0.532869
0.673276
0.368227
0.727023
0.192364
-0.0616195
0.617693
-4.09026e-05
-0.00412807
0.219142
-0.0044151
-0.00076587
-8.6193e-05
0.558997
0.0507373
-0.000755322
0.655935
0.0984451
0.333774
0.0579299
-0.00348049
-0.0271841
0.216739
0.0999467
0.558991
-0.0304964
-0.000930564
0.515598
0.485664
0.0180404
0.410155
-0.0504945
-0.0102091
-0.0120546
-0.000744409
-0.000117854
0.520716
-0.082944
0.0531791
0.00134616
0.202399
-0.0417385
-0.0195557
-0.00114934
-0.004622
0.57818
-0.00095069
-0.0227741
-0.00383064
0.57101
-0.0251318
0.0265548
-0.00977748
0.00196681
0.195627
-0.0289946
0.58904
0.202407
0.724503
0.308627
-0.0804394
0.0410014
-0.0022228
0.0257778
0.0101894
0.540021
0.57402
0.637379
0.404633
0.525629
-0.000374152
0.605334
7.15345e-07
0.000142111
-0.0636012
0.65182
0.0655717
0.313278
0.000112405
-0.00271945
-0.0343078
-0.0445388
0.530893
-0.00079603
-0.0100148
0.405722
0.0014812
-0.00544482
0.703079
0.0616971
-0.0489461
-0.116773
-0.000597064
0.125543
0.198
0.733281
0.165199
0.0963279
0.00588283
-0.000240162
-0.00172924
0.23993
0.00881518
0.00023335
-0.0770135
0.296883
-0.00182686
0.548286
-0.090815
0.553629
-0.0186115
-0.0297885
0.614459
-0.00687861
0.0947998
-0.000430768
-0.00161398
-0.0854207
-0.0293725
-0.0477785
-0.0125955
0.0208733
-0.0866779
-0.0941544
0.552763
0.000440957
0.00110083
-0.0262497
0.154736
-0.101199
-0.077603
4.96909e-05
-0.0804896
0.0614757
-6.92635e-05
-0.101142
0.0434141
0.557438
-0.111658
0.547666
-0.0176857
0.160941
0.302571
-0.0457132
0.398214
-0.00214056
0.151333
0.0018629
0.108166
0.243815
0.214053
-0.0365952
0.00813537
-0.000720602
0.218742
-6.96218e-05
-0.000105519
-0.00124662
0.0162998
0.0228621
0.0195209
0.472133
0.202449
0.684868
0.439968
-0.00187435
-0.0425112
-0.000135467
-0.0617357
-0.00139774
0.00759729
0.000932379
-0.0405972
0.395857
0.543744
-0.00030474
4.76822e-05
0.0880468
4.00167e-05
-0.0116992
-0.00015211
0.175548
-0.0460194
0.226984
-0.108089
0.000110096
-0.0178327
-0.0514852
-0.0309079
-0.0210286
-0.0684837
0.0856777
-0.000155772
5.90777e-07
0.00280884
-9.81492e-05
0.109144
0.157731
0.0513329
0.639276
0.0577832
-0.146553
-0.114321
-0.000463943
0.064726
-8.78068e-05
0.518318
0.122898
0.599696
0.000262839
-0.0418794
-0.00862715
0.0648916
0.270884
0.480555
-0.00959197
0.0456019
-0.00234394
-0.0232907
-0.0101573
-0.00769753
0.131141
0.00215102
-0.00943563
-0.0259014
0.322156
0.0900527
1.38361e-05
-0.00103115
-0.00783438
-0.000686006
0.151616
-0.000759101
-0.0320482
0.191546
0.000145947
0.311548
0.000162005
-8.97558e-07
-0.112451
-0.0199009
0.000283829
-0.0287106
0.000309115
0.624707
0.0160145
-0.0310557
0.581278
0.154239
-0.0402805
0.46477
-0.00340773
-0.00227443
-0.00254474
0.109343
0.769779
-0.00178772
-0.000653428
4.63983e-05
0.0101423
-0.00148674
0.0321687
0.00793195
-0.0267002
-0.0760606
0.0236507
0.0138811
-0.0236834
-0.00059074
0.00812074
0.46653
-0.0021879
-0.0174512
-0.000221694
0.473159
0.0704229
0.461274
0.000641286
-0.000974332
-0.0300702
0.640593
0.176321
-0.0360345
-0.000105983
0.0401606
0.144736
-0.0169593
0.246262
-0.0613321
0.0260925
-0.152445
0.480241
-0.0194789
0.2929
-0.00391372
0.731714
-0.0527211
-0.0139066
0.588923
-0.0549666
0.197944
-0.165927
0.21755
0.00831383
0.0628996
0.379553
0.0624761
-0.0618181
-0.0122156
-0.00942441
-0.0129351
0.0190316
-0.00172319
-0.0716164
-0.0361105
0.00265129
-0.0847271
-0.10679
-2.6342e-06
0.192423
-0.0114843
0.203534
0.596007
0.432722
-0.0689307
-0.0913643
0.00069345
-0.0851034
-0.00514081
0.708818
-0.0449528
-0.0386315
0.426925
0.0597303
-0.0501666
0.290697
-0.0471056
-0.000701258
-0.0147991
0.0128966
0.000959904
0.447484
-0.00332469
0.169625
0.403367
-0.00715725
0.280086
-0.116475
-0.000396701
0.00864384
0.122966
0.414312
-0.00309766
0.110126
-0.0894159
0.0936706
-0.029095
0.435618
0.0178606
-0.0543189
-0.00356448
0.000301863
0.544803
-0.00299713
-0.0337369
-7.18814e-05
0.245427
-3.37687e-05
-0.056143
-0.00136651
-0.128972
0.000946174
-0.0126477
0.253152
-0.00483736
0.00128589
0.000918665
-0.00510574
0.0880309
-6.63534e-05
9.57837e-06
-0.0107049
-0.0133091
-0.0285116
0.0104396
-0.00231274
0.0928561
0.0973558
-0.00150031
0.0014039
-0.00016466
0.538122
-0.00523589
-0.00865715
0.473435
-0.0231765
0.440755
0.0674669
0.552767
0.268665
0.139941
-0.00178743
0.00141045
0.0996645
0.0301466
-0.00543788
0.000312708
0.0108284
-0.0651702
-0.00111072
-0.0104485
-0.0100809
-0.0113971
-9.48242e-07
-0.00404059
0.000128313
-6.06378e-05
0.00121148
0.389706
0.261507
-0.01394
-0.00345584
-0.065351