/*--------------------------------*- C++ -*----------------------------------*\
  =========                 |
  \\      /  F ield         | OpenFOAM: The Open Source CFD Toolbox
   \\    /   O peration     | Website:  https://openfoam.org
    \\  /    A nd           | Version:  7
     \\/     M anipulation  |
\*---------------------------------------------------------------------------*/
FoamFile
{
    version     2.0;
    format      ascii;
    class       surfaceScalarField;
    location    "10";
    object      phi;
}
// * * * * * * * * * * * * * * * * * * * * * * * * * * * * * * * * * * * * * //

dimensions      [0 3 -1 0 0 0 0];

internalField   nonuniform List<scalar> 
172499
(
201.333
55.2698
-256.603
-473.775
102
371.775
-111.265
-77.7753
189.04
113.037
-278.472
165.434
-435.727
323.63
112.097
138.25
-337.142
198.892
-150.962
286.1
-135.139
-82.4218
193.139
-110.718
-363.396
351.937
11.4585
-465.118
-8.65642
-229.984
354.493
-124.509
494.989
-360.234
-134.754
-169.703
341.151
-171.448
90.3203
-91.4032
1.08295
-43.9979
-319.398
-107.275
61.9057
45.3693
-456.097
86.482
369.615
-411.586
77.0161
334.569
-122.97
286.236
-163.265
-331.929
-103.798
-74.1513
181.143
-106.992
199.224
-197.159
-2.06524
392.824
-290.277
-102.547
160.033
-313.422
153.39
-233.46
203.809
29.6514
-116.839
223.554
-106.715
66.6482
70.7724
-137.421
-207.339
461.193
-253.853
-263.257
-175.895
439.152
-53.8563
100.414
-46.5572
427.825
-342.032
-85.7929
-244.409
-67.9391
312.348
-267.553
405.5
-137.947
-101.171
-76.3046
177.475
-78.6775
-96.9461
175.624
182.21
95.4584
-277.668
-222.451
89.388
133.063
-99.6748
-356.422
112.679
-144.013
31.3337
113.834
202.601
-316.435
157.199
-401.608
-57.5927
-353.993
-130.929
-36.2185
167.148
-119.049
301.259
-39.9209
102.873
-62.9521
-2.42251
92.7428
264.438
65.0656
-329.504
543.277
-303.289
-239.988
397.748
-148.117
-249.631
414.127
-534.07
119.943
-390.721
478.201
-87.4801
279.937
-101.754
-178.183
-470.718
328.391
142.327
-504.399
451.003
53.3965
-118.87
-166.348
285.218
-315.252
-155.466
552.795
-364.475
-188.321
-133.191
81.7616
51.4294
84.0835
74.3596
-158.443
128.402
-230.187
101.786
-515.355
327.473
187.882
-186.316
331.202
-144.886
346.024
-129.406
-216.618
-105.142
186.143
-81.0002
295.889
87.1784
-383.067
9.42097
-401.2
391.779
-351.722
197.179
154.543
-218.099
397.108
-179.01
77.8907
-142.293
64.4025
-534.001
253.794
280.207
-110.019
200.267
-90.2476
195.115
-149.82
-45.2952
367.26
-253.425
-135.574
68.345
67.2294
-93.5508
-92.0038
185.555
80.9535
-165.101
84.1473
-203.499
48.5191
154.98
202.459
-403.022
200.563
-248.224
-139.702
387.926
-289.929
215.796
74.1336
-76.7463
-213.183
429.787
-432.785
2.99723
41.5179
-84.7457
43.2278
-305.369
556.376
-251.006
-137.357
240.91
-103.553
342.475
152.513
-109.504
178.195
-68.6904
-324.473
472.878
-148.405
105.979
-118.42
12.4411
-86.6949
441.523
-354.828
131.896
-5.1265
-126.769
202.72
-20.2572
-182.463
206.536
-469.794
221.348
50.1662
-271.514
-420.585
315.214
105.37
-574.942
416.868
158.074
261.981
-321.824
59.8428
95.1607
-53.6428
84.6639
-159.851
75.1872
0.262839
105.716
-314.483
-200.872
198.912
-433.29
234.378
327.875
-178.41
-149.465
-485.288
499.178
-13.8903
101.529
-211.548
168.709
-91.7135
-76.9951
-503.716
313.899
189.818
-37.5662
101.698
-64.132
-142.807
225.305
-82.4979
-311.339
-71.1341
382.473
-121.533
229.913
-108.379
-54.6622
316.644
-172.949
-30.5505
134.701
106.461
-241.162
-110.457
46.68
63.7767
204.895
-345.55
140.655
-307.589
77.6048
-90.0113
216.55
-126.538
363.998
-541.564
177.567
48.2943
146.821
-208.637
118.626
-67.2783
-39.9967
-223.334
115.095
108.24
45.0106
-167.617
122.606
-230.664
532.61
-301.946
-111.835
57.9792
-265.048
78.7322
-116.256
73.8123
42.4442
-181.108
-41.7015
222.81
-505.204
507.919
-2.7151
-105.953
233.805
-127.852
567.157
-287.753
-279.404
-171.918
182.816
-10.8985
538.948
-196.472
-329.438
480.844
-151.406
-121.459
227.577
-106.118
-260.215
180.381
79.8336
62.22
-329.773
148.304
-267.174
182.76
148.442
84.1458
49.7936
-133.939
-190.951
341.073
-150.121
502.978
-504.538
1.55904
378.593
-196.959
-181.634
-264.916
158.963
141.96
-532.681
437.735
-330.994
-106.74
-115.688
-149.36
-450.134
232.035
-226.778
-167.454
394.232
108.316
60.3929
54.7037
-94.6247
7.67575
195.044
-567.956
273.279
294.677
133.179
146.758
-359.439
426.951
-67.5116
-412.192
100.853
-66.6626
217.829
-151.167
133.365
-133.529
0.164375
-152.286
110.437
41.849
151.053
-70.0991
138.054
299.681
158.367
187.657
-188.602
147.689
40.9136
263.903
-144.184
-119.72
139.927
173.426
-313.353
443.281
-257.958
-185.322
-59.6393
-106.625
166.264
-187.652
120.989
-241.638
124.464
117.174
-241.803
156.607
85.1962
-101.318
365.757
-95.3106
-27.5958
122.906
26.6432
61.8907
-88.5339
-71.034
-83.476
154.51
218.62
-434.828
216.209
-72.988
99.6311
193.847
85.696
-279.543
114.924
-333.209
218.284
277.351
120.397
-287.997
-131.639
419.636
-191.553
98.0018
144.346
-258.202
113.857
-206.044
413.475
-207.431
-269.818
-233.898
-162.518
384.877
-222.359
95.3428
-261.942
166.6
311.676
188.324
-135.479
323.9
-188.421
124.034
7.86148
-105.997
299.844
-338.797
189.34
149.458
451.576
-164.766
-286.809
-203.419
116.471
86.9487
-230.256
113.417
71.5895
-130.794
59.204
21.257
-94.245
-173.013
163.875
9.13857
56.4591
-147.451
90.9921
82.112
138.38
-220.492
-567.149
387.49
179.659
-192.697
361.474
-168.777
362.103
57.085
-419.188
481.284
-479.315
-1.969
-338.614
169.058
169.556
136.12
-91.216
-44.9044
369.985
-271.404
-98.5807
-87.2988
383.188
-212.19
-195.925
408.115
98.692
-208.654
109.962
-69.4836
90.7406
44.3192
269.58
15.6098
-249.07
-384.204
297.509
-162.198
-64.9036
227.101
-85.8257
-117.594
-99.2529
250.821
-151.568
-183.764
-136.45
320.214
80.3429
-82.7654
-123.597
-261.437
385.035
131.681
7.80799
-139.489
135.64
-0.906423
-134.734
135.584
-329.621
194.037
-75.8196
139.549
-63.7292
-73.5441
-430.855
-181.666
20.1374
161.529
-199.098
-81.76
280.859
185.321
-68.535
-116.786
137.832
-66.2422
-348.739
98.0427
250.696
-0.0858434
-411.734
411.82
68.0764
-118.168
50.0911
46.5606
-127.487
80.9261
84.8191
-176.704
91.8852
-235.469
122.213
113.256
-225.594
-341.555
-641.836
285.482
356.355
392.503
-205.076
-187.427
-54.3246
159.977
-105.652
239.854
-166.381
-73.4722
-43.6443
146.931
-103.287
-292.486
164.87
127.616
-116.261
-36.0243
150.627
-65.9626
278.286
-217.295
-60.9905
-234.765
407.617
-172.851
444.861
-219.557
-225.304
135.232
-86.769
-48.4629
-162.654
103.015
-63.7397
-33.5813
97.3211
199.429
285.847
-485.276
-370.584
241.012
129.572
226.038
-528.979
302.941
387.353
-236.779
-150.575
119.741
-77.1051
-42.6357
-5.73041
-282.266
-72.8825
174.719
-101.837
-560.411
298.632
261.78
503.677
-503.677
-185.694
103.272
369.695
-375.425
-3.8993
84.2422
-477.528
271.484
-125.647
121.998
3.64881
40.0233
-182.83
258.073
-145.036
-103.453
148.464
179.604
-279.999
100.395
102.722
95.1043
-197.826
-99.2574
204.462
-105.205
415.217
-131.529
-283.687
-325.902
190.423
427.965
-150.614
-221.302
-71.1844
141.691
177.606
-319.297
-188.717
104.225
84.4922
43.8657
-99.7061
55.8404
-170.338
99.3037
-248.496
297.855
-49.3583
76.8995
-114.466
-121.983
-66.6189
97.1777
184.52
-404.783
220.262
69.4731
66.6474
456.569
-254.327
-202.242
172.661
205.779
-378.44
61.9243
-243.59
495.937
-505.903
9.96564
117.151
-69.7851
-47.3659
98.2198
-147.434
49.2139
109.136
-65.2703
-500.323
66.1269
434.196
-164.717
28.6153
136.102
365.205
-320.886
-258.62
409.613
-150.993
-479.53
302.428
177.102
364.311
-244.492
-119.818
-138.437
-212.801
351.238
-161.71
345.163
-183.453
-227.383
128.126
-69.8511
-22.9264
92.7775
109.13
-192.573
83.4436
-59.6559
130.341
-70.6855
309.137
-193.226
-115.911
84.5062
39.7708
-124.277
-127.513
278.704
-151.192
-251.702
164.554
87.1485
112.474
72.8473
98.6153
-125.895
27.28
-171.959
286.883
-91.9511
-187.591
279.542
120.27
18.5053
-138.776
-97.4353
159.621
-62.1856
-152.161
97.8364
-330.378
160.675
-180.38
346.339
-165.959
340.13
111.445
177.672
-412.437
272.961
-112.928
-175.829
120.866
54.9632
-5.07329
-177.085
182.158
262.767
-386.364
-58.1278
420.23
-34.3889
-76.0677
180.643
71.096
-251.739
-143.411
59.9112
83.4996
-367.557
8.11742
194.755
-410.207
215.452
29.5594
-99.4105
-149.248
-15.4688
194.196
-286.147
-432.876
-67.447
141.645
229.481
-371.126
219.123
145.187
127.301
-59.0909
-68.2098
172.427
101.93
-274.357
-253.382
165.432
87.95
80.3371
-357.612
277.275
353.012
-214.762
243.403
-148.06
84.1274
107.828
-191.955
-131.359
266.317
-134.958
125.733
-59.085
91.8546
-182.174
90.3197
266.179
-89.0949
-177.084
-170.21
-212.948
383.158
-174.846
-73.6502
-72.374
-31.8796
104.254
79.3016
49.1814
-128.483
320.563
-173.446
-147.117
-211.022
39.1044
-507.96
346.272
161.689
364.066
5.62865
170.404
-290.448
120.045
184.823
-102.711
182.236
89.4269
-271.663
-49.2931
250.626
-105.321
-299.56
404.881
-171.215
388.661
-217.445
-113.51
261.262
-147.752
-172.014
279.936
-107.922
145.428
-97.456
-47.972
-147.981
-74.4694
-140.703
83.2215
57.4813
270.216
-154.794
-115.422
-438.08
332.759
-161.095
163.843
-2.74818
-186.099
111.419
74.68
303.907
-168.323
-168.961
473.04
-304.079
197.215
-88.4619
-108.753
63.123
85.9855
-149.109
73.1176
62.1144
25.6753
229.909
-255.584
93.2488
104.086
-197.335
62.9704
305.91
-368.88
147.495
510.423
-96.296
225.883
95.7577
-321.641
-140.089
297.368
-157.279
136.352
-68.2751
213.485
-118.906
-94.5787
-80.1652
202.785
-122.62
137.826
-251.336
395.507
-222.846
-371.336
369.345
1.99147
137.737
-91.1764
-58.0431
-38.3033
96.3464
488.834
-165.204
-64.1506
184.07
-119.919
-228.101
425.141
-197.04
272.515
175.874
-448.389
68.2585
-177.763
-453.544
246.204
-21.8233
157.464
-324.844
187.507
137.337
3.23251
95.3828
-316.509
-132.018
448.527
267.674
160.291
-75.6694
-84.2531
159.922
97.4679
2.04503
-99.513
-242.235
354.69
-112.455
121.413
-116.776
-4.63723
-161.036
388.826
-227.791
-124.056
129.28
-5.22441
55.9265
120.917
-176.843
142.046
-471.485
-170.055
261.523
-91.4675
-97.0346
247.122
-150.087
-133.506
197.882
-64.3757
254.556
-161.869
-92.6875
-274.684
87.0925
237.42
-407.63
-39.3194
214.086
-174.767
-225.9
88.5434
196.459
101.395
381.728
-114.054
79.7121
-133.404
53.692
353.32
69.9323
-423.252
-196.615
406.112
-209.497
-232.839
-267.158
22.8009
-92.2845
601.497
-379.293
-222.204
-41.7028
130.148
-88.4457
-157.763
60.328
301.295
-389.383
88.0876
-134.878
190.804
-392.911
378.111
14.8
329.009
223.787
147.847
157.146
-304.992
-504.628
382.521
122.107
-352.544
426.178
-73.6339
-99.3873
252.829
-153.442
180.349
-67.8757
129.094
180.042
125.578
-295.633
-125.234
269.093
-143.859
382.808
218.689
336.285
-330.411
-5.87352
325.154
-529.544
204.39
341.509
-139.05
-102.473
-402.731
63.1988
-215.16
151.961
80.5409
-156.21
357.415
99.1546
179.69
-81.4968
-98.1937
238.064
169.552
134.615
233.665
-368.281
-103.265
375.78
412.022
-193.402
-408.826
17.7295
391.096
-291.196
-180.978
472.174
421.577
-291.814
-129.763
489.647
-249.426
-240.221
-69.3958
-93.2582
-59.9513
272.565
-212.613
59.0269
81.7685
-140.795
84.1364
-141.687
57.5509
157.969
154.113
-312.083
-185.172
31.3415
153.83
32.3549
89.0581
412.065
-174.001
374.949
113.885
-262.63
-153.054
415.683
-32.8415
153.112
-173.45
99.2986
-161.021
-219.953
380.974
-25.3319
87.2227
-37.9953
-147.176
166.34
-457.536
198.892
-34.0592
-56.8208
90.88
217.793
-57.8164
-90.9045
-44.6698
-259.386
134.151
-102.501
283.145
-324.718
499.955
-175.238
261.333
-422.353
396.405
-197.493
104.328
194.376
-298.704
-141.9
67.6016
74.2989
-367.321
488.641
-121.32
307.41
-227.073
554.546
-227.469
-327.077
115.001
102.792
358.797
-116.905
-241.892
-271.762
434.524
-162.762
138.168
-242.894
104.726
-162.635
32.3832
130.252
-151.025
-76.3584
154.203
-395.72
241.516
10.9729
-119.67
108.697
453.775
-192.307
-261.468
303.125
-475.833
172.708
-227.659
188.339
90.5004
106.714
102.385
-5.55997
-96.8248
253.89
-119.189
249.964
142.539
322.783
-180.759
-142.025
-326.898
217.373
109.526
-486.817
399.876
86.9411
184.429
-99.6096
-110.62
187.775
-77.1549
-179.917
-71.7847
347.046
-45.7509
119.174
10.7444
-129.918
-117.63
201.758
-128.273
84.6291
-528.144
360.197
167.947
311.542
-141.138
226.467
160.886
161.238
-398.016
-474.62
238.1
236.52
-247.465
162.884
84.581
112.51
-41.7307
-70.7789
-219.041
-203.106
422.147
101.008
145.94
-246.948
-407.094
282.538
124.556
-272.188
-134.906
-561.502
373.418
188.084
-282.62
102.702
585.923
-299.768
-286.155
-148.493
-177.065
325.558
-132.761
137.831
-5.0705
-165.593
274.867
-109.274
-254.543
155.155
-413.691
306.257
107.434
104.147
91.4629
-195.61
-369.976
194.386
175.59
-112.144
-129.659
142.5
-104.43
-38.0696
276.347
105.382
573.968
-316.413
-257.555
253.318
-519.76
266.441
56.3219
-118.07
61.7481
96.1055
6.2792
-62.0978
145.942
-83.8438
272.972
300.996
72.5823
-173.753
-287.087
155.729
116.804
-38.9131
114.008
156.209
347.272
82.5148
108.5
71.8492
40.0171
-187.433
147.416
365.264
-514.242
148.978
-60.9255
326.108
-265.182
-34.1051
118.242
174.673
379.873
-147.067
359.034
-211.967
64.6756
-163.724
99.048
-340.981
-300.855
-64.5782
-35.1408
99.719
6.71003
-139.471
-107.538
118.511
177.295
-85.4407
179.439
-327.931
-138.96
79.3865
59.5736
-351.848
-87.7191
439.568
-338.279
521.844
-183.566
108.7
-370.547
261.846
51.631
-140.662
89.0305
-110.315
-238.424
289.223
111.678
-400.901
176.317
-113.119
250.34
-141.649
-108.691
553.743
-189.226
-364.516
-369.2
52.0883
317.111
331.654
90.7382
-422.392
-477.669
497.645
-19.9759
-146.158
-77.1763
-92.7777
195.5
142.604
180.179
248.887
-534.076
285.189
376.925
-367.504
460.83
-171.607
552.946
-298.804
-254.142
-224.029
245.331
-21.3028
-51.9105
171.084
-91.063
-257.878
348.941
56.7802
446.897
-66.034
-86.1271
141.835
-82.8081
318.84
-160.87
130.929
57.5157
-188.444
166.868
-226.819
-67.5794
-98.5103
166.09
552.663
-552.663
-3.07817
-120.978
281.223
-168.695
-112.528
-308.426
-171.105
-162.358
92.9627
-366.296
-118.991
-75.6953
138.818
206.224
-294.638
183.164
111.474
9.61901
-402.53
130.339
102.641
-232.98
87.6194
116.843
130.914
-46.768
-66.5506
-302.649
71.9
-246.133
174.233
-17.1656
-391.66
-298.324
151.258
-132.216
-183.975
316.191
110.816
237.254
-348.07
-328.357
500.847
-172.49
-89.6306
-36.0159
-71.0604
102.206
-31.1459
-100.003
181.795
-81.7919
227.888
169.399
-397.287
315.603
-211.275
405.869
-186.745
-304.334
-200.294
149.438
-272.408
-165.311
86.6336
-412.923
308.097
104.826
83.9649
-435.813
90.3049
148.519
-238.824
-222.075
-153.22
375.296
39.8797
-99.5356
127.65
-160.492
-114.184
-225.069
339.253
-301.838
240.913
-99.6268
-53.3213
152.948
-188.249
108.468
79.7807
358.206
-517.235
159.029
318.727
-211.711
-107.016
155.88
288.981
82.8359
82.0031
-164.839
387.217
-160.75
146.88
-514.201
254.286
-182.386
156.401
162.326
-64.6921
-348.231
216.29
-375.671
159.381
408.066
-236.736
-171.329
75.263
-260.439
185.176
-228.891
-10.115
239.006
64.7597
-154.656
89.8966
84.0861
-161.671
77.5853
193.554
212.315
-48.52
145.988
-334.273
418.238
135.777
234.105
-369.882
-104.7
309.596
76.3969
105.074
-181.471
41.7816
-314.682
272.9
-139.645
146.355
278.655
-458.014
179.359
-91.9681
222.897
274.142
-455.239
196.619
-97.9533
-0.207025
98.1604
36.7849
121.2
-157.985
217.233
236.542
-112.67
189.067
339.913
-28.4541
-311.459
-124.028
444.717
-320.689
101.941
290.883
44.7585
227.806
316.176
134.05
-450.226
328.117
-268.13
-59.9868
-32.3872
-128.708
-208.461
87.0017
-77.8963
-30.6317
108.528
13.3443
-91.2405
-313.369
173.28
-75.2307
-174.67
249.901
194.842
123.068
-317.91
-222.595
-47.5839
270.179
-153.19
87.1557
81.645
-181.648
-84.0098
-318.658
402.668
-78.1272
-143.175
517.583
-238.928
-71.1477
73.0692
54.0264
-127.096
-171.8
81.3412
90.4586
72.9124
-92.2088
19.2964
105.989
172.942
-278.93
-187.33
106.529
80.8012
-136.391
318.627
-97.5023
-124.887
222.389
-326.127
-207.873
-243.385
128.441
114.945
-229.281
527.004
-297.722
442.753
-288.549
-72.4584
-94.5887
167.047
-75.2537
104.813
-183.878
323.459
-139.581
-118.703
268.597
-149.894
163.054
-68.0745
-94.9797
-250.839
359.54
140.644
-84.4381
-56.2055
-274.135
280.046
-5.91101
-276.371
125.41
196.606
9.84462
-206.45
-196.869
386.064
-189.195
125.87
-61.2932
-64.577
226.981
-467.559
240.578
-497.837
173.364
164.892
-33.211
-140.502
0.857586
-190.199
88.8979
101.301
-149.249
365.54
144.767
-80.0917
80.8945
-415.167
-43.6932
-66.6553
110.348
-105.55
-509.237
357.368
151.87
248.873
79.2436
-305.714
-160.78
466.493
-82.4751
298.798
99.1291
-140.832
-55.2141
-133.503
-232.54
-242.753
475.292
-198.122
-242.947
441.068
-283.976
271.237
12.7387
313.374
-250.404
-298.074
-209.886
340.839
-509.799
98.5528
96.7
-195.253
-383.29
212.171
171.119
157.485
217.465
-78.2494
143.249
-65
-330.358
526.165
-195.808
-183.754
132.171
51.5822
-131.996
46.0349
85.9615
51.7331
-122.793
-63.8945
395.549
92.029
63.8043
-155.833
502.178
-186.002
-119.228
263.573
-318.661
156.952
-287.039
287.039
-148.148
238.453
-548.83
281.575
267.255
-241.518
-93.6941
335.213
187.136
-147.119
-122.516
129.442
-6.9255
-249.227
77.2128
123.353
-483.588
41.9193
75.2317
-134.995
-313.432
448.427
-232.468
368.245
-246.941
147.688
499.856
-242.722
-257.134
-191.379
-37.5121
149.577
-327.987
-568.44
398.476
169.964
-285.082
-157.053
-203.664
37.8678
165.796
-47.5381
-114.711
162.249
134.255
119.635
-69.8811
113.209
-43.3278
-1.00638
65.142
-64.1356
223.044
-222.09
-0.953318
212.862
-337.854
124.992
65.4778
-176.098
-72.7533
-154.905
105.325
-199.726
94.4009
-393.433
-264.039
333.025
-68.9859
84.3569
41.5133
-17.1735
-120.693
137.867
-150.339
-201.383
155.802
-386.675
230.873
-174.028
101.57
86.6135
46.7255
-133.339
38.5651
-138.192
-155.059
236.62
-81.5611
153.635
107.919
-261.554
-154.661
-287.096
441.756
171.14
-421.701
250.562
105.385
-154.447
49.0625
-540.727
308.916
231.811
465.185
-323.421
-141.764
-501.516
176.798
-123.401
120.323
-68.9763
-104.474
308.038
-411.303
-344.524
-130.096
-161.67
-132.968
-380.725
155.943
224.782
-212.707
134.58
-46.3012
307.284
-260.983
-92.1023
-241.55
129.406
172.578
101.477
-274.055
258.812
-454.481
195.669
196.069
-97.3769
-316.339
104.628
224.087
-95.6852
-327.569
-112.148
439.717
383.579
-227.777
-331.862
336.484
-4.62201
-70.8436
123.435
-52.5915
-380.315
167.367
-312.459
126.483
185.976
133.239
-133.239
-194.922
-256.087
451.009
471.55
-390.655
65.1472
-264.246
3.97841
335.934
335.035
218.708
-239.496
-47.4186
286.915
124.426
6.1516
-130.578
-73.4282
139.792
-66.3635
-181.643
111.877
69.7665
-323.009
-244.947
-162.051
94.4713
116.863
-43.794
-272.625
-302.316
-145.339
83.2412
132.567
208.584
74.0038
34.166
-108.17
-45.0691
135.32
-90.2511
379.76
173.186
-168.806
-113.814
-336.29
-172.947
-156.329
-100.524
256.853
-69.3761
-272.675
342.051
-347.589
186.118
161.471
-91.7016
-104.035
195.737
337.815
-505.058
167.244
209.174
-354.63
145.456
233.849
-412.642
178.793
-80.3362
-52.8549
-237.993
165.24
166.816
-395.129
228.313
-148.003
100.465
-379.868
187.171
-205.563
363.048
-75.0423
140.322
-65.2793
90.1905
-140.364
50.1734
27.997
-91.7367
-154.003
366.866
483.499
-465.548
-17.9517
-97.3707
149.002
-78.3696
136.003
-57.6336
260.893
-455.815
-56.0389
161.412
-105.373
-149.31
289.237
390.878
-507.238
116.36
229.386
75.7513
-305.138
50.8156
-101.953
51.1376
-35.3088
108.221
58.9951
33.7697
-92.7648
-40.9657
141.995
-101.029
-10.7944
160.943
-150.149
177.009
-71.684
387.13
-137.166
-69.508
273.617
-204.109
-303.722
-48.8222
182.433
-102.683
-79.7499
195.418
-301.197
105.779
-239.839
-147.191
387.03
-83.0343
173.225
-273.53
160.868
112.662
230.165
-354.569
124.404
-324.234
203.541
120.693
252.288
-134.062
-118.226
-134.066
67.4579
66.608
183.351
-395.541
-107.31
-74.3315
181.641
-45.3383
-135.137
180.475
94.2736
-242.3
148.026
-111.247
204.496
186.303
-98.743
-87.5602
-58.76
-109.828
168.588
-41.061
168.711
-163.808
-117.517
281.325
-304.799
-8.65104
313.45
51.081
-109.539
58.4577
169.363
96.8163
117.23
106.857
-88.8516
99.1883
-10.3367
-203.664
-55.6411
446.519
-2.74591
115.425
377.367
13.1807
-390.548
388.343
-326.123
-475.895
177.821
56.0114
50.1023
-106.114
-143.345
-32.4841
83.0561
-259.92
176.864
116.613
-380.652
-176.268
-34.468
263.854
-68.2217
264.827
256.827
156.648
-409.031
212.162
-144.178
65.9282
388.423
-162.385
238.664
-102.342
-136.322
259.05
-328.426
301.568
-182.802
-118.767
182.656
-170.937
-11.7192
115.991
-64.9105
-215.29
-235.555
450.844
-193.216
33.8876
159.329
492.51
-485.75
-6.76012
238.646
-67.8031
-170.843
243.871
246.038
-489.908
268.629
-174.355
-164.781
301.047
-136.265
-159.613
307.46
-135.021
220.385
-85.364
-189.726
-148.888
70.0643
-149.26
79.1952
104.329
-201.831
352.11
119.44
-244.757
-168.933
-61.9198
-109.88
117.051
-43.0471
-172.472
275.609
-103.137
-64.1633
148.247
117.676
-44.1668
-73.5087
-137.244
78.4837
-581.34
374.642
206.697
60.5086
-136.073
75.5643
-178.829
261.885
-66.8794
132.09
-65.2108
72.2827
45.3928
-142.794
363.771
-220.977
-123.057
-99.5162
222.573
-57.6957
-38.4211
96.1167
337.905
-145.234
-192.671
239.792
-82.9226
-156.869
-379.821
-311.407
-164.488
-54.7058
-95.0093
149.715
120.04
-309.561
189.522
140.041
-69.9764
-120.165
-3.23637
172.642
-420.865
312.337
-94.9643
-162.764
98.6133
-169.107
82.5614
86.5461
338.87
-129.696
160.2
-128.417
-31.7836
-79.6009
-89.5066
62.5766
-129.042
66.4652
98.5575
-167.534
115.63
-64.204
-104.339
168.543
-89.5697
222.214
-132.644
118.128
-37.3108
-80.8176
-269.329
-35.4699
122.559
90.9262
-86.0646
10.8109
-99.4583
211.095
-111.637
-97.0563
99.9846
-2.92831
-99.887
-78.0848
-96.0404
174.125
483.728
-385.856
-97.8724
421.49
-113.453
138.039
-101.254
-425.696
463.888
-38.1927
-178.732
305.469
-126.736
-236.135
301.282
99.6064
86.6967
-71.0776
-115.022
-93.0331
272.637
-145.341
294.456
-149.115
40.0431
56.9711
-97.0142
-294.403
156.859
137.544
117.492
-61.1706
-82.1099
-67.7099
-218.921
-187.132
406.053
139.436
344.293
-456.137
258.015
239.878
-239.878
-71.8515
82.3109
-10.4594
185.185
-105.671
-79.5148
246
-540.001
294.001
183.053
154.851
-252.706
356.477
-103.771
122.293
-61.7839
-204.059
130.187
73.8719
156.959
330.238
-487.197
254.229
-119.974
-317.492
161.609
155.883
90.4238
-182.095
91.6708
281.585
155.543
-437.128
-225.632
102.575
89.6395
-159.405
69.7653
138.317
-179.283
-169.966
397.853
-181.762
107.01
74.752
174.167
-105.865
-68.3027
-93.7846
368.784
-275
332.705
-165.837
-36.8548
106.427
-69.5723
180.441
178.398
-358.839
-207.309
-248.828
-90.7756
349.587
98.3091
-184.434
86.1253
-204.917
399.407
-194.49
155.943
-65.5188
318.739
-219.371
-99.3681
137.676
-57.9642
-219.859
-156.147
81.1045
-620.248
303.835
132.81
493.629
-501.546
7.91676
208.663
189.517
-398.18
114.671
45.5295
-375.705
-111.112
147.706
-152.779
13.792
-297.768
-24.3445
-120.145
144.489
159.344
-296.205
136.861
126.222
273.654
-132.652
88.2017
44.4501
48.1207
-183.258
38.1725
-73.0912
34.9187
263.402
95.395
262.611
-173.84
-88.7711
143.059
-78.299
-393.667
274.17
119.497
-260.074
-360.173
185.5
53.1465
144.653
-455.547
310.894
-62.7837
-79.519
142.303
33.7665
-125.485
91.7181
287.367
212.489
-2.65993
380.027
-76.4046
-67.6083
427.313
-145.728
76.1645
-129.124
52.9591
-463.811
260.245
203.566
-201.785
-245.474
447.259
-366.488
566.488
-200
280.976
146.849
-173.823
249.796
-75.9727
-160.847
261.854
351.991
-277.087
-74.9046
-179.744
290.795
-111.051
-185.252
-153.545
-104.784
-175.631
280.415
84.1242
34.3357
-118.46
185.999
-81.8525
440.446
-378.736
-61.7096
-181.8
111.628
70.1719
83.893
267.339
-351.232
119.326
-32.7125
347.479
92.9665
-66.2035
155.843
-101.515
-31.1368
-225.966
514.173
-288.206
4.25568
191.666
-195.922
223.773
-391.526
167.753
-81.3685
-41.5191
122.888
289.079
98.0501
-84.0031
-21.4037
105.407
-132.505
115.528
16.9767
-184.795
123.947
60.8472
182.851
384.306
98.5
-39.5048
-269.225
-124.442
228.551
-443.841
413.729
-509.86
96.1304
66.6542
223.157
-31.8255
-191.332
127.402
-64.8253
80.9065
-408.475
-77.6661
-88.726
166.392
101.132
-8.84935
-92.2822
-113.815
41.4414
121.05
133.507
152.825
-328.97
176.145
-91.9938
162.162
-70.1678
152.421
-357.338
356.26
-236.22
341.87
-82.8201
-360.285
-200.126
-288.639
471.534
-182.894
429.264
-324.295
-104.969
-9.20886
-341.12
350.329
-336.297
-176.413
512.71
-154.245
-8.39011
68.7814
-30.6089
-504.547
262.322
242.226
-165.199
-95.0158
-74.4417
-59.6242
-46.98
152.365
-93.8151
168.175
-554.679
382.755
171.924
97.6868
-161.891
-24.1131
89.936
-65.8229
181.455
-146.384
195.526
-317.056
121.53
322.478
-255.5
-66.9782
87.4115
-397.456
310.044
215.612
-98.3825
114.541
255.444
-91.1907
-97.0584
109.188
-58.3728
474.826
-299.292
-175.534
-267.308
364.01
-96.7021
-119.655
192.032
282.794
-417.836
31.869
385.967
-288.316
-189.212
140.73
-218.391
77.6607
-130.855
-79.0798
209.934
107.624
210.944
-318.569
40.8043
-265.619
-238.929
-90.7305
-32.3858
123.116
-203.861
326.197
-122.335
480.952
-175.043
411.918
-65.6467
-298.558
171.045
94.8604
6.27116
-272.526
-33.7896
306.315
57.2255
-373.734
-408.887
137.126
129.475
-16.8951
-112.58
171.006
-275.904
104.897
-108.891
262.526
-458.715
334.687
-75.6876
-78.9687
497.272
-149.793
-240.509
406.757
-166.248
218.59
-343.856
125.267
470.076
-111.87
55.2227
64.5181
-309.24
135.417
352.949
-199.189
-153.761
-172.618
296.666
-124.048
133.49
347.463
167.764
-269.226
101.462
389.87
-107.332
362.741
127.53
-490.271
329.135
-226.137
-102.998
473.69
-502.616
28.9255
123.993
-79.5143
-44.4788
338.308
-227.491
-10.962
-86.9913
-80.5996
-182.347
262.947
40.5575
-120.969
80.4118
-146.214
64.1044
-307.189
474.402
-167.213
-87.2729
-51.6872
-194.637
198.892
106.816
43.988
-125.98
81.9924
288.604
3.47774
-292.082
-142.77
90.1689
52.6014
-100.812
454.132
180.421
121.147
-145.016
304.36
-236.838
156.673
335.483
52.8597
-158.955
-158.537
16.7925
226.61
-249.272
80.4661
-141.233
241.125
-99.8921
57.0233
-132.719
413.369
-204.706
-370.693
376.746
-6.05315
-131.774
494.515
67.6052
-138.899
71.2941
129.554
-68.4723
-141.884
210.356
-151.898
186.188
-71.5175
72.326
21.255
-93.581
63.9966
-126.897
62.9004
-253.204
156.17
-98.8684
-69.1282
167.997
-267.755
-293.874
127.188
166.686
118.226
-84.4599
52.4225
-113.351
60.9281
55.3976
-186.252
142.398
136.306
-112.154
265.641
-153.486
-139.082
86.7717
52.3098
-77.6116
198.338
-120.727
-375.361
212.843
-181.767
362.208
152.173
-271.303
119.129
248.11
168.873
-416.983
-54.3708
-32.2218
86.5926
331.455
97.8087
334.592
-148.134
-186.458
-157.667
406.188
-248.521
165.141
-70.9642
325.728
-254.763
327.681
121.68
-449.361
474.561
333.033
137.781
-470.815
249.317
-456.626
190.659
-28.0453
-162.614
-338.359
184.076
154.283
-124.136
15.6408
108.495
90.9824
18.6338
-109.616
-63.0385
-78.862
12.8209
-383.513
-356.338
213.544
61.3147
192.761
-254.076
-377.994
307.03
222.418
123.25
-345.668
-56.6707
108.041
-51.3699
-100.707
-148.535
249.242
568.706
-257.03
63.2251
135.999
-138.487
-280.226
418.713
-122.537
170.658
-222.182
384.187
-162.005
-357.451
43.3699
314.081
-178.045
-279.157
457.202
-65.4714
-66.525
-564.249
366.717
197.532
300.742
-182.256
-118.486
-124.005
346.422
-167.836
68.9677
111.363
-189.029
148.773
89.8907
-162.73
-490.524
250.994
239.53
-168.508
88.9068
-266.341
97.6462
-297.69
-283.65
-58.2002
-243.638
95.815
-332.217
236.402
-203.477
-173.697
65.2477
108.45
-245.813
-70.5267
-113.937
-39.1732
153.11
-50.6312
-43.9713
94.6025
-317.278
223.493
19.3501
-89.6107
70.2606
158.224
-190.05
153.753
-365.528
211.775
4.6829
-277.209
-191.693
316.492
-124.799
-239.004
252.796
106.449
-132.971
-89.5142
222.485
401.072
-410.281
111.068
-71.0254
285.348
189.69
-475.039
-80.6291
-87.8786
-78.437
272.633
364.754
-367.414
95.5842
-4.60186
409.821
-125.712
-284.109
105.791
164.833
-270.624
142.132
-48.3669
-122.882
171.249
274.111
-123.224
-150.888
347.786
42.0844
126.451
-85.8931
-501.727
173.37
67.8088
-134.688
-131.726
69.5602
62.1655
-53.2671
163.721
-110.454
-141.325
-77.2686
218.594
27.4128
-97.4344
70.0216
-124.646
43.2775
176.43
-186.515
10.0852
229.662
-280.974
51.3121
-218.709
77.3837
-87.8871
-77.2137
-54.375
-66.0524
120.427
142.566
186.257
199.807
-225.534
179.233
175.294
-132.816
-42.4783
-376.405
268.673
107.732
232.635
-84.1159
336.169
161.103
335.107
103.032
-438.139
-130.212
-134.704
-537.843
251.049
286.794
223.305
-307.052
83.7465
142.52
120.091
-95.237
58.3822
-38.1319
97.5806
-59.4487
-270.932
-219.396
490.328
-412.293
442.24
-29.9465
-267.125
104.927
-128.288
-457.197
-21.3893
478.586
209.711
243.181
-452.891
-123.829
-188.63
-148.422
-145.981
98.1498
-25.8238
-337.313
135.528
-31.7455
169.913
-125.271
-273.55
172.604
100.945
83.6378
67.4148
-130.954
-144.322
275.275
136.593
-92.6049
416.393
-294.49
-121.903
-135.216
353.806
-211.181
-47.021
457.156
24.1275
-114.468
-75.6074
190.075
454.652
-0.196345
-454.455
-90.543
324.588
-234.045
117.154
82.3563
-199.51
-374.324
222.18
152.144
-130.662
-108.13
-165.419
141.655
-74.0498
-107.934
290.259
-182.325
138.787
141.252
-280.039
-150.615
-53.4436
-246.269
-177.067
423.336
116.701
476.437
-332.689
-143.748
-153.931
148.31
-93.4761
-54.834
34.9539
-91.7747
203.449
-271.671
294.413
-352.613
-403.907
345.779
193.612
-317.441
230.828
181.237
438.25
-204.401
-233.066
163.558
94.8738
82.4216
-92.9997
109.083
-162.35
-271.015
289.836
-18.821
-277.126
-21.1988
77.2897
-141.118
63.8282
115.947
286.304
-159.116
247.262
-137.739
-109.523
-79.2408
136.264
-269.924
120.59
-189.062
311.173
-62.5242
-248.648
-259.381
469.092
484.794
-148.624
-370.111
267.218
102.893
-22.2828
476.934
-221.076
415.831
-86.0423
-203.209
289.251
104.918
-263.235
158.317
11.8741
290.554
-334.611
-247.387
581.998
147.572
-348.096
200.525
-292.786
392.824
-100.038
-117.5
450.533
352.389
-126.506
176.376
-89.5767
369.59
-280.013
-78.6504
-64.1198
-242.014
155.09
86.9247
176.728
149.469
61.6165
-59.7141
-279.825
339.539
-386.132
-78.9869
-133.164
-197.83
-337.976
230.042
-412.892
412.892
167.341
-336.663
169.322
180.031
-340.307
160.277
231.764
79.4082
53.6303
38.9136
-92.5439
218.247
-371.467
287.7
-465.744
241.603
-38.8172
145.145
158.762
72.758
197.945
-270.703
125.205
-75.7507
-49.4541
-71.8619
-293.45
365.312
112.458
-183.39
70.932
-68.6657
182.918
-114.253
331.924
4.36085
-78.3489
80.394
-276.315
321.631
-45.3164
43.2408
147.418
93.1405
17.8449
-110.985
-315.623
-41.8282
36.1209
-169.627
-193.199
-130.079
323.278
259.12