/*--------------------------------*- C++ -*----------------------------------*\
  =========                 |
  \\      /  F ield         | OpenFOAM: The Open Source CFD Toolbox
   \\    /   O peration     | Website:  https://openfoam.org
    \\  /    A nd           | Version:  7
     \\/     M anipulation  |
\*---------------------------------------------------------------------------*/
FoamFile
{
    version     2.0;
    format      ascii;
    class       surfaceScalarField;
    location    "1";
    object      phi;
}
// * * * * * * * * * * * * * * * * * * * * * * * * * * * * * * * * * * * * * //

dimensions      [0 3 -1 0 0 0 0];

internalField   nonuniform List<scalar> 
176195
(
203.494
48.4734
-251.967
-473.774
102
371.774
-111.01
-79.5136
190.524
113.833
-279.122
165.289
-435.017
323.76
111.256
138.052
-337.235
199.183
-167.052
281.42
-114.368
-88.3456
190.607
-102.261
-363.4
352.016
11.3842
-465.117
-8.65663
-230.015
354.532
-124.517
494.953
-360.238
-134.715
-170.46
341.349
-170.889
94.0014
-95.4558
1.45443
-43.9119
-319.488
-111.234
65.484
45.7501
-456.09
86.4155
369.675
-411.637
76.9872
334.65
-145.438
287.44
-142.002
-332.013
-103.004
-80.4449
178.362
-97.9169
199.826
-197.743
-2.08361
392.898
-290.387
-102.51
161.101
-314.378
153.276
-261.006
220.959
40.0465
-108.812
208.75
-99.938
52.4616
68.3863
-120.848
-206.541
457.034
-250.493
-263.27
-175.888
439.158
-66.4693
96.4675
-29.9982
427.843
-342.057
-85.7866
-236.223
-67.1793
303.403
-268.748
404.133
-135.385
-101.356
-77.4165
178.772
-108.556
-88.5898
197.146
182.202
95.7295
-277.931
-212.015
68.2458
143.769
-99.613
-356.477
95.6039
-133.618
38.0136
91.6575
209.718
-301.376
153.725
-389.949
-57.554
-354.083
-130.356
-38.5132
168.869
-119.346
301.548
-44.4852
105.768
-61.2831
-2.75528
96.7566
265.92
62.5836
-328.503
541.696
-302.231
-239.465
397.412
-147.091
-250.321
414.104
-534.035
119.931
-390.72
478.2
-87.4794
280.45
-101.922
-178.529
-461.756
320.369
141.387
-504.4
451.003
53.3963
-117.859
-167.337
285.195
-307.206
-154.551
543.488
-358.427
-185.062
-135.811
81.3368
54.4744
71.5478
70.4608
-142.009
130.567
-231.678
101.111
-515.379
327.455
187.923
-186.309
332.254
-145.945
346.159
-129.45
-216.709
-106.967
187.967
-81.0002
295.904
87.1687
-383.072
9.39072
-400.988
391.597
-351.98
196.719
155.261
-212.094
388.422
-176.328
61.0959
-123.241
62.1448
-524.784
249.385
275.399
-116.004
190.099
-74.0951
172.305
-131.141
-41.1633
352.376
-260.719
-138.76
69.7579
69.0021
-85.0944
-95.7801
180.875
82.816
-167.673
84.8568
-191.532
50.5488
140.983
202.124
-403.135
201.012
-265.942
-115.506
381.447
-274.56
201.226
73.3338
-75.2923
-199.267
429.788
-432.785
2.99746
49.2326
-86.7483
37.5157
-302.376
551.32
-248.944
-137.734
241.35
-103.616
342.478
152.475
-111.958
179.958
-67.9996
-324.475
472.878
-148.403
107.191
-120.538
13.3469
-86.6877
441.52
-354.832
126.74
-12.7987
-113.941
203.454
-19.723
-183.731
206.526
-469.796
221.676
50.013
-271.689
-420.678
315.335
105.343
-574.846
416.811
158.035
262.034
-321.883
59.8494
99.1467
-49.9141
70.8813
-148.708
77.8272
-0.392672
107.584
-314.46
-200.919
194.724
-427.96
233.236
327.626
-180.136
-147.49
-484.665
498.502
-13.8376
81.8216
-197.826
167.074
-84.6623
-82.4114
-502.231
298.69
203.541
-32.3547
100.757
-68.4019
-146.144
225.951
-79.807
-311.329
-71.147
382.476
-110.37
214.026
-103.655
-54.6662
316.7
-158.465
-33.0674
137.289
104.398
-241.687
-136.334
47.8434
88.4906
206.932
-346.026
139.093
-307.624
77.609
-71.5888
196.83
-125.241
363.999
-541.563
177.564
43.9298
128.375
-188.061
116.473
-70.859
-40.3751
-224.904
114.826
110.078
46.5087
-154.641
108.132
-230.664
532.611
-301.946
-106.097
39.6276
-265.879
79.5697
-124.061
60.207
63.8544
-181.288
-41.724
223.012
-497.909
500.459
-2.54969
-97.1336
227.782
-130.648
567.096
-287.715
-279.381
-163.379
163.592
-0.212392
538.913
-196.435
-329.44
480.844
-151.404
-143.865
228.659
-84.7938
-271.92
205.98
65.94
59.8437
-328.592
149.183
-267.041
182.794
149.46
76.4199
35.5649
-111.985
-189.284
341
-151.716
502.971
-504.532
1.56041
368.369
-194.11
-174.259
-258.602
161.468
141.958
-532.678
436.329
-327.56
-108.769
-116.617
-149.262
-440.403
228.309
-227.121
-166.924
394.045
112.617
54.4566
53.2379
-97.7231
7.09733
196.356
-567.956
273.278
294.678
133.407
147.043
-356.161
425.286
-69.1247
-412.196
100.867
-69.5266
208.243
-138.716
135.301
-135.435
0.13364
-153.886
105.415
48.4713
153.357
-70.5408
139.672
296.657
158.423
187.736
-186.841
150.077
36.7639
264.904
-146.605
-118.299
139.9
173.583
-313.484
435.933
-250.999
-184.934
-55.8083
-110.267
166.075
-180.204
110.677
-243.11
127.154
115.956
-242.706
158.572
84.1341
-98.6645
364.584
-79.0464
-34.4471
113.493
26.7394
65.5386
-92.2779
-66.2921
-87.545
153.837
213.541
-426.915
213.374
-77.1541
103.893
194.469
85.2936
-279.763
118.099
-333.145
215.046
278.06
119.352
-284.171
-132.866
417.037
-188.037
102.942
118.549
-247.648
129.099
-197.865
402.948
-205.084
-252.527
-249.705
-162.366
384.897
-222.532
95.0311
-262.36
167.328
311.974
188.026
-128.236
317.476
-189.24
111.106
15.6343
-105.673
300.142
-338.768
190.714
148.054
447.977
-144.372
-303.605
-206.179
116.583
89.5954
-215.307
106.495
78.1102
-131.462
53.3519
21.1472
-98.3013
-173.959
164.787
9.17233
58.5961
-149.936
91.3397
77.4901
141.325
-218.815
-557.812
378.218
179.594
-217.118
362.894
-145.776
356.914
58.9344
-415.849
481.281
-479.318
-1.96248
-339.338
169.092
170.246
138.289
-93.7649
-44.5241
370.057
-271.596
-98.461
-87.2886
383.192
-207.246
-194.718
401.964
103.847
-208.15
104.303
-73.3827
94.5299
21.2128
277.478
6.97534
-267.981
-384.2
297.513
-158.963
-68.5336
227.497
-88.3894
-117.789
-100.469
242.305
-141.836
-185.276
-133.837
319.112
83.6973
-86.4526
-123.554
-261.504
385.058
136.107
4.36665
-140.474
138.473
-2.57925
-135.894
137.358
-330.196
192.838
-77.0073
141.635
-64.6278
-73.5443
-430.855
-203.771
43.5139
160.257
-195.663
-84.559
280.222
187.659
-68.6129
-119.046
139.139
-61.0291
-354.917
87.4887
267.428
-1.51194
-406.655
408.167
66.1572
-119.612
53.4544
31.823
-104.618
72.7951
87.993
-178.315
90.3216
-230.297
125.223
105.075
-224.649
-333.162
-641.71
285.415
356.295
391.889
-206.135
-185.754
-50.4048
159.233
-108.829
240.3
-166.722
-73.5785
-48.857
136.852
-87.9946
-291.417
159.891
131.526
-111.626
-42.2602
139.143
-68.2617
278.552
-217.516
-61.0357
-235.296
407.58
-172.284
433.55
-214.035
-219.515
137.404
-88.3224
-49.0812
-162.094
106.285
-63.6149
-36.9146
100.529
210.534
274.666
-485.199
-370.831
241.373
129.457
222.208
-520.91
298.702
387.429
-237.427
-150.002
125.165
-100.339
-24.8261
-3.63438
-280.537
-60.9845
159.358
-98.3738
-555.046
296.007
259.04
503.616
-503.616
-182.93
94.5842
368.545
-372.179
-4.20553
87.9029
-464.732
266.867
-111.275
117.005
-5.72966
37.1469
-183.291
258.7
-144.867
-91.1835
137.692
179.805
-280.265
100.461
90.4279
92.7856
-183.213
-98.9567
191.251
-92.2945
415.221
-131.525
-283.696
-319.644
191.407
427.669
-149.608
-216.29
-75.1265
141.165
178.295
-319.459
-190.973
104.217
86.7568
41.3034
-100.74
59.4364
-169.454
103.162
-249.676
297.933
-48.2574
81.7097
-114.064
-125.563
-61.2785
97.2634
184.848
-404.839
219.991
69.4745
68.8145
456.52
-254.452
-202.068
173.842
203.133
-376.975
41.0542
-244.825
488.102
-497.769
9.66693
120.118
-66.6639
-53.4542
82.5998
-136.492
53.8926
110.247
-68.9434
-500.322
66.1245
434.198
-150.563
30.0782
120.485
350.732
-329.519
-258.717
409.627
-150.91
-475.242
301.508
173.734
364.599
-244.511
-120.088
-133.252
-207.403
340.655
-162.517
345.232
-182.715
-212.981
114.024
-73.5907
-23.1115
96.7022
105.477
-193.022
87.5453
-61.7246
118.929
-57.2039
310.139
-193.014
-117.124
82.2716
43.8918
-126.163
-123.638
264.874
-141.236
-249.919
158.813
91.1057
114.64
73.0195
100.108
-116.332
16.2242
-168.785
286.884
-91.8236
-188.114
279.938
97.6545
27.4722
-125.127
-95.2717
140.78
-45.5084
-151.81
101.405
-330.626
160.166
-182.038
346.101
-164.063
355.648
92.3282
177.107
-412.403
273.688
-112.587
-160.328
105.258
55.0696
-11.6279
-165.461
177.089
262.828
-386.382
-59.8588
416.773
-32.0529
-104.281
172.984
64.993
-237.977
-145.572
61.1669
84.4055
-365.967
9.80562
188.95
-398.761
209.811
30.1658
-103.756
-132.434
-18.1289
194.738
-286.561
-432.876
-67.4458
141.489
229.675
-371.164
219.083
145.516
153.784
-67.6782
-86.1057
173.356
101.365
-274.721
-239.628
152.218
87.4095
80.3445
-357.62
277.276
353.07
-215.018
243.724
-148.693
86.1675
107.444
-193.611
-124.616
255.416
-130.8
108.658
-56.1962
93.4427
-183.932
90.4892
267.031
-88.4715
-178.56
-169.401
-213.371
382.772
-174.301
-75.3746
-94.0992
-11.7896
105.889
82.4516
48.0776
-130.529
320.736
-174.838
-145.897
-190.236
26.8564
-499.642
346.559
153.083
360.788
7.75643
171.092
-290.917
119.825
183.003
-105.513
185.037
85.7577
-270.795
-41.9908
245.485
-105.321
-299.56
404.881
-170.97
388.692
-217.722
-117.01
257.786
-140.776
-166.186
263.599
-97.4134
147.482
-95.5705
-51.9119
-157.952
-54.0632
-169.117
92.9481
76.1687
252.579
-139.614
-112.965
-438.08
332.758
-162.257
165.046
-2.78874
-187.658
110.518
77.1394
304.374
-167.015
-168.962
473.041
-304.08
190.098
-92.6662
-97.4314
53.4183
72.1975
-125.616
74.4292
62.9744
25.6892
229.967
-255.656
89.9085
92.7334
-182.642
61.3737
305.978
-367.352
145.588
510.39
-96.2863
226.293
95.5168
-321.81
-132.529
290.914
-158.384
137.886
-71.7284
213.952
-122.042
-91.9099
-77.7213
202.118
-124.397
131.735
-248.745
393.825
-219.984
-371.349
369.359
1.99028
115.466
-83.6432
-58.0429
-41.5872
99.6301
488.043
-164.283
-70.6778
182.458
-111.78
-220.902
413.505
-192.603
254.157
183.491
-437.648
67.6871
-179.645
-449.585
243.045
-20.3348
158.808
-325.143
187.989
137.154
12.6392
87.4688
-316.621
-131.726
448.348
268.318
159.351
-77.5424
-83.9622
161.505
100.166
0.561303
-100.728
-242.753
354.984
-112.231
101.738
-109.118
7.37978
-137.997
374.398
-236.401
-107.57
122.372
-14.8019
62.274
110.575
-172.849
142.044
-471.484
-172.034
262.226
-90.1923
-98.3015
238.999
-140.698
-134.013
198.594
-64.5807
254.848
-159.8
-95.048
-275.068
86.954
237.852
-407.254
-38.7148
214.144
-175.429
-226.351
88.6169
197.849
100.084
381.343
-113.025
68.0439
-128.719
60.6749
353.32
69.9264
-423.246
-197.43
404.206
-206.777
-232.84
-267.157
22.9394
-96.322
601.445
-379.222
-222.223
-60.1546
130.92
-70.7651
-138.853
43.5811
286.241
-379.118
92.8766
-122.179
184.453
-392.189
367.659
24.5304
323.467
220.021
147.366
157.887
-305.253
-504.066
382.366
121.7
-352.662
426.19
-73.528
-99.2681
253.313
-154.045
182.559
-67.9193
130.359
179.78
124.631
-296.665
-129.541
266.751
-137.21
382.74
218.705
336.295
-330.438
-5.85674
325.158
-529.511
204.353
341.664
-139.54
-101.211
-396.698
56.1191
-210.726
154.606
80.5809
-158.123
357.516
99.0039
173.162
-86.2113
-86.9511
238.517
169.063
134.606
233.693
-368.299
-112.65
366.807
404.287
-190.746
-394.891
2.72262
392.168
-291.199
-180.97
472.168
421.505
-291.871
-129.634
489.139
-248.8
-240.339
-65.5341
-96.5595
-60.9255
273.644
-212.718
66.5557
73.3324
-139.888
85.4124
-143.961
58.5481
154.066
143.13
-297.196
-185.958
31.4634
154.495
14.3499
87.3885
412.025
-173.509
375.008
113.035
-284.675
-124.644
409.319
-40.239
137.894
-171.584
91.1386
-160.274
-220.008
380.282
-25.334
90.8726
-38.1264
-147.832
166.33
-457.529
196.396
-37.3637
-56.7154
94.0791
220.153
-60.9199
-92.8646
-45.8954
-255.683
126.142
-95.1054
268.09
-324.718
499.957
-175.239
261.393
-421.668
391.25
-196.527
107.001
186.95
-293.951
-135.044
79.8667
55.1774
-367.319
488.639
-121.319
307.417
-227.072
554.062
-227.303
-326.759
113.727
106.426
358.843
-116.763
-242.08
-271.869
434.543
-162.674
135.451
-230.499
95.0478
-180.636
31.1248
149.511
-136.279
-76.7022
132.276
-384.243
251.967
11.4534
-121.067
109.613
454.568
-199.505
-255.063
300.408
-467.945
167.537
-227.749
189.034
96.1906
93.907
104.819
-4.34321
-100.476
254.406
-117.118
250.693
141.195
323.418
-180.408
-143.01
-327.145
217.69
109.455
-490.857
384.244
106.613
185.978
-97.9851
-120.842
181.609
-60.7667
-173.273
-76.646
337.656
-51.4148
121.051
10.015
-131.066
-117.229
203.397
-121.089
72.2319
-518.803
357.315
161.488
311.96
-140.868
226.997
160.432
160.737
-398.164
-474.618
238.101
236.517
-245.703
156.708
88.9958
113.012
-38.5131
-74.4986
-218.91
-203.18
422.09
102.388
136.176
-238.564
-407.108
282.657
124.451
-272.323
-134.786
-560.906
373.08
187.826
-279.974
106.701
585.728
-299.656
-286.073
-147.02
-178.452
325.472
-134.054
139.458
-5.40375
-166.663
275.388
-108.725
-255.061
155.793
-412.704
329.641
83.063
91.3416
94.2216
-185.563
-368.315
195.751
172.564
-110.968
-131.738
144.77
-103.791
-40.9797
276.784
104.559
573.966
-316.408
-257.558
253.32
-519.76
266.44
58.104
-120.71
62.6063
99.5448
5.27414
-61.1614
147.958
-86.7963
272.967
300.999
73.7308
-175.087
-275.819
151.203
100.486
-39.3903
102.163
150.416
347.273
82.5146
110.59
71.9695
44.9615
-188.921
143.96
365.254
-514.224
148.969
-60.8566
326.091
-265.235
-34.6847
120.097
174.486
379.576
-147.96
358.998
-211.039
56.2578
-161.03
104.772
-340.907
-300.803
-69.0397
-33.0806
102.12
7.12634
-141.181
-108.438
119.891
178.939
-85.4968
180.639
-327.659
-141.792
82.6408
59.151
-351.69
-87.8089
439.499
-338.28
521.844
-183.564
109.586
-370.202
260.616
33.6058
-124.377
90.7713
-98.2128
-256.704
272.887
123.115
-396.002
171.577
-115.458
251.417
-140.927
-110.491
543.845
-171.598
-372.247
-365.187
49.6525
315.535
331.689
90.6429
-422.332
-471.654
491.053
-19.3987
-146.154
-78.7506
-89.4684
179.896
142.033
181.385
245.125
-525.534
280.409
376.733
-367.342
454.129
-181.242
552.805
-298.716
-254.089
-223.939
246.286
-22.3472
-51.574
172.625
-68.007
-265.164
333.171
56.7707
446.845
-62.3372
-89.4726
141.735
-75.1795
303.94
-149.874
135.309
53.1649
-188.474
166.5
-227.426
-71.4748
-85.0961
156.571
552.651
-552.651
6.23074
-113.801
281.855
-169.795
-112.06
-303.87
-171.372
-161.727
96.1925
-365.776
-118.889
-64.1291
117.547
214.379
-303.527
171.635
131.893
-0.147753
-392.041
128.727
87.4
-216.127
87.7575
103.494
109.001
-32.5809
-64.209
-300.978
51.0899
-225.854
174.764
-1.32645
-393.564
-298.565
150.605
-131.707
-184.637
316.344
100.189
254.537
-354.726
-328.359
500.844
-172.485
-86.0629
-25.2123
-56.1466
88.0444
-31.8978
-102.241
183.436
-81.195
228.143
168.857
-397
310.232
-203.231
406.157
-187.075
-304.342
-199.724
123.638
-269.076
-183.649
75.0924
-412.944
308.114
104.83
84.051
-435.741
91.9948
137.489
-229.484
-222.58
-152.711
375.291
29.0155
-90.7401
102.864
-143.103
-104.847
-221.239
326.086
-301.815
240.959
-95.8546
-57.0979
152.952
-188.97
104.825
84.1447
358.117
-517.09
158.973
317.317
-207.432
-109.885
151.584
281.966
109.162
69.2866
-178.449
387.281
-160.284
146.878
-514.197
236.344
-185.254
151.897
165.42
-64.6924
-348.251
209.166
-368.908
159.743
406.531
-233.885
-172.646
74.6016
-260.625
186.023
-229.155
-10.1334
239.289
67.7874
-142.142
74.3541
85.295
-163.076
77.7814
193.496
212.662
-47.7921
147.958
-334.125
418.176
135.768
234.133
-369.901
-102.697
309.629
75.5847
91.6884
-167.273
41.7708
-314.708
272.937
-140.955
148.081
278.733
-457.812
179.079
-88.0565
223.366
282.725
-455.261
196.544
-119.047
-6.24973
125.297
27.5623
124.013
-151.575
227.995
226.573
-99.3548
174.94
340.046
-28.513
-311.533
-124.014
444.718
-320.704
101.909
290.989
45.5389
228.105
312.427
131.624
-444.051
328.784
-267.421
-61.3633
-32.5784
-129.679
-207.817
63.9517
-81.9216
-30.3403
112.262
12.496
-94.4176
-307.244
174.714
-78.9984
-163.366
242.364
217.037
98.3389
-315.376
-222.595
-47.659
270.254
-152.868
90.5311
81.1244
-183.366
-83.9392
-318.672
402.611
-70.5477
-145.743
517.375
-238.642
-74.1263
68.9016
58.5477
-127.449
-189.84
75.0368
114.803
77.2412
-94.402
17.1608
105.713
173.402
-279.115
-189.311
108.822
80.4886
-132.675
317.712
-95.7192
-115.036
210.755
-320.494
-204.29
-242.115
131.758
110.356
-229.282
527.002
-297.721
434.537
-302.261
-72.2433
-95.7597
168.003
-79.0626
109.228
-185.021
323.192
-138.172
-121.455
265.086
-143.631
163.497
-64.9237
-98.5729
-249.496
359.083
125.982
-69.4055
-56.5769
-274.256
280.174
-5.91736
-267.931
100.879
198.744
7.30381
-206.047
-191.647
375.77
-184.123
128.813
-63.1031
-65.7095
225.331
-462.528
237.197
-497.838
173.363
166.687
-30.5798
-142.189
1.23445
-191.905
92.15
99.7553
-149.598
358.764
141.068
-84.8098
80.9745
-415.099
-51.974
-57.1236
109.098
-105.469
-509.238
357.383
151.855
248.098
80.6858
-305.563
-160.857
466.421
-74.4865
298.801
79.9364
-140.091
-57.0984
-133.875
-230.845
-239.515
470.36
-197.291
-243.049
440.339
-270.722
257.706
13.0168
312.055
-250.682
-299.929
-199.713
340.838
-509.799
91.3949
100.924
-192.319
-383.434
211.543
171.891
158.362
216.646
-80.6035
145.256
-64.653
-330.359
526.164
-195.805
-166.648
114.697
51.9512
-137.223
63.8253
73.3975
49.459
-105.606
-63.8017
395.491
78.7684
69.2529
-148.021
495.141
-182.715
-140.443
258.992
-318.916
156.399
-287.073
287.073
-137.232
229.226
-548.795
281.525
267.27
-262.776
-83.9889
346.765
188.538
-143.577
-102.718
108.634
-5.91584
-234.836
68.6504
123.315
-483.553
49.4362
70.6819
-123.732
-319.776
443.509
-232.494
368.262
-239.069
138.599
501.118
-246.584
-254.534
-191.615
-37.5408
147.694
-327.83
-568.333
398.415
169.918
-283.94
-158.541
-204.349
38.0109
166.338
-26.6009
-120.235
146.836
137.021
117.385
-94.631
122.884
-28.2531
-4.68525
88.4595
-83.7743
223.379
-222.416
-0.962486
212.939
-337.848
124.909
45.4932
-166.335
-72.1304
-155.618
106.541
-201.493
94.9524
-393.372
-258.079
318.253
-60.1733
86.0031
42.8095
-0.355322
-147.774
148.13
-149.795
-202.185
155.536
-386.608
231.072
-175.124
102.881
69.4552
47.0899
-116.545
42.5623
-138.417
-142.119
223.713
-81.5942
145.527
110.565
-256.093
-149.267
-284.425
433.691
171.126
-421.728
250.602
103.663
-141.118
37.4549
-540.725
308.918
231.806
464.782
-323.382
-141.4
-501.517
176.798
-107.499
113.73
-75.813
-95.7705
290.535
-403.184
-344.52
-130.099
-182.659
-120.868
-380.805
155.957
224.848
-208.283
137.736
-46.377
307.413
-261.036
-95.4066
-242.735
131.767
161.944
96.3183
-258.262
258.824
-454.504
195.679
195.101
-91.2544
-315.949
108.516
225.379
-94.8116
-327.585
-112.134
439.719
383.522
-227.985
-331.893
336.517
-4.62353
-69.2819
125.435
-56.1526
-379.907
166.536
-312.62
126.438
186.182
135.383
-135.383
-194.855
-256.128
450.983
471.539
-390.564
67.8033
-263.467
4.0367
336.01
338.862
204.982
-230.582
-47.9525
278.535
114.616
-1.5614
-113.055
-74.4264
141.603
-67.1762
-180.752
105.421
75.3315
-323.009
-244.947
-151.917
80.4423
117.768
-48.8662
-272.591
-302.255
-147.36
86.1985
131.986
209.363
76.446
33.6274
-110.073
-53.2812
130.119
-76.8382
379.675
173.129
-162.495
-117.479
-336.305
-172.933
-155.839
-101.624
257.463
-69.3634
-272.749
342.112
-330.132
165.027
165.105
-91.8621
-104.651
196.513
337.851
-505.029
167.177
209.209
-354.662
145.454
228.454
-407.278
178.825
-83.821
-51.9902
-238.117
165.987
166.52
-395.055
228.534
-129.996
103.395
-378.681
161.563
-204.588
362.95
-64.7044
121.439
-56.7343
94.5434
-132.628
38.0843
31.0942
-94.7091
-153.914
366.853
483.5
-465.548
-17.9524
-99.9334
133.539
-78.7466
138.371
-59.6245
260.931
-455.786
-52.6305
144.218
-91.5872
-149.466
289.367
390.878
-507.238
116.36
221.835
69.9132
-291.748
57.8194
-104.69
46.8706
-33.6541
110.895
59.1111
37.1065
-96.2176
-38.1378
141.405
-103.268
-10.8032
161.489
-150.686
178.508
-71.967
386.262
-135.569
-57.8701
257.081
-199.211
-303.721
-48.9409
183.061
-99.2676
-83.7936
183.439
-287.328
103.889
-239.97
-147.087
387.057
-70.9648
165.508
-271.587
155.495
116.092
226.933
-341.742
114.809
-324.508
201.807
122.701
252.885
-136.229
-116.656
-129.962
56.9299
73.0317
182.221
-389.467
-99.8459
-79.9494
179.795
-47.7026
-134.271
181.974
74.6967
-223.573
148.877
-99.6341
189.543
187.494
-99.16
-88.3336
-64.106
-106.087
170.193
-47.3046
150.169
-163.96
-117.533
281.493
-304.843
-8.65429
313.497
60.5911
-111.028
50.4369
170.821
96.2107
119.316
106.063
-114.215
112.271
1.94414
-204.349
-55.6402
446.518
-12.7335
108.337
377.648
12.3182
-389.966
385.608
-325.764
-469.284
169.355
44.8557
59.6279
-104.484
-127.025
-33.3028
82.7431
-260.089
177.346
106.561
-364.64
-178.059
-30.9357
252.77
-65.7339
264.477
252.652
150.296
-398.187
206.54
-146.385
65.7819
382.436
-160.228
217.759
-85.2662
-132.493
259.121
-328.485
286.261
-171.579
-114.682
201.096
-184.176
-16.9205
116.841
-56.2499
-215.023
-235.687
450.71
-191.406
40.3317
151.074
490.926
-483.803
-7.12268
231.72
-61.0371
-170.683
241.715
242.752
-484.467
251.245
-176.548
-165.899
301.562
-135.663
-160.296
307.661
-135.591
220.999
-85.4081
-189.809
-149.53
57.2413
-129.784
72.5431
95.4695
-191.189
352.032
119.506
-265.81
-146.894
-52.8186
-137.021
119.046
-42.5997
-172.701
275.877
-103.175
-61.2103
132.758
120.392
-45.2996
-75.0925
-139.467
75.3612
-581.897
363.539
218.358
68.9922
-123.468
54.4754
-179.31
262.053
-68.8335
134.359
-65.525
73.835
46.5571
-142.411
363.827
-221.416
-113.09
-92.793
205.883
-57.8394
-41.7264
99.5658
338.433
-145.628
-192.805
224.899
-79.744
-145.155
-379.768
-313.603
-155.681
-58.3245
-80.6465
138.971
112.25
-297.422
185.172
121.234
-63.9925
-113.289
5.78994
146.834
-412.776
312.563
-94.8729
-162.61
91.9327
-162.799
87.4167
75.3821
338.895
-129.686
161.939
-129.996
-31.943
-84.5957
-78.2031
49.747
-123.266
73.5188
89.3856
-165.199
115.192
-64.582
-105.092
169.674
-90.3137
212.232
-121.919
110.005
-25.5966
-84.4087
-269.372
-35.4711
125.755
88.1961
-89.8069
10.7443
-100.218
198.518
-98.2996
-96.6425
102.506
-5.86362
-102.694
-78.4304
-96.5245
174.955
483.223
-385.691
-97.5323
412.117
-121.582
130.623
-103.061
-425.696
463.888
-38.1928
-179.349
305.839
-126.491
-232.751
300.555
100.004
87.49
-73.4726
-114.185
-93.077
272.882
-139.546
279.398
-139.852
28.2902
61.8544
-90.1446
-285.366
156.631
128.735
120.028
-61.9239
-70.8392
-60.3022
-213.605
-186.606
400.211
138.987
344.237
-455.322
258.031
240.359
-240.359
-98.9627
94.1806
4.78216
185.735
-102.058
-83.6773
246.001
-540.002
294.001
183.523
154.91
-252.773
356.537
-103.765
114.197
-45.2045
-205.633
130.653
74.9798
156.959
330.238
-487.197
255.012
-117.991
-317.348
159.971
157.377
78.6723
-175.666
96.9939
279.132
149.98
-429.112
-209.007
95.9168
76.2403
-148.731
72.4903
141.246
-179.384
-169.443
397.586
-185.497
95.8341
89.6632
176.417
-106.033
-70.3846
-90.7365
359.794
-269.057
333.508
-167.008
-44.7978
107.931
-63.1327
181.64
175.126
-356.766
-206.464
-248.858
-90.7804
349.605
99.133
-185.564
86.4309
-205.094
399.489
-194.395
149.653
-70.9804
318.882
-219.562
-99.32
131.9
-63.8564
-220.088
-135.333
70.629
-620.246
303.838
132.611
493.616
-501.536
7.9194
201.121
188.405
-389.526
116.117
45.8225
-361.984
-128.874
138.505
-150.133
12.1587
-282.881
-30.5078
-102.267
132.775
161.21
-295.589
134.379
98.9279
285.316
-135.729
88.1511
47.5781
50.436
-184.707
57.1279
-99.0617
41.9338
263.53
95.3134
263.363
-175.216
-88.1465
131.964
-64.1763
-386.7
271.482
115.218
-260.078
-360.168
184.985
46.735
143.424
-454.028
310.604
-56.055
-83.9293
139.984
35.5407
-127.766
92.225
293.192
207.926
-1.81447
379.462
-62.4362
-71.1814
419.122
-139.99
64.8799
-124.172
59.2919
-463.01
259.176
203.834
-201.857
-245.047
446.904
-366.488
566.488
-200
280.997
146.846
-173.789
250.013
-76.2237
-150.967
253.355
352.061
-277.146
-74.9147
-180.589
291.183
-110.595
-186.65
-152.118
-79.3707
-198.636
278.007
66.6131
47.6337
-114.247
175.024
-83.6826
440.399
-378.814
-61.585
-175.351
100.18
75.1708
80.6916
264.723
-345.415
104.462
-35.0072
347.565
92.8342
-69.2958
145.536
-102.142
-33.5871
-225.966
514.169
-288.203
5.28298
191.619
-196.902
216.898
-384.217
167.319
-82.7914
-42.0637
124.855
289.677
96.5851
-86.0744
-23.0829
109.157
-153.921
143.022
10.899
-179.899
113.184
66.715
182.823
384.273
101.958
-42.8467
-266.682
-120.018
228.686
-443.709
413.726
-509.851
96.1244
69.5275
223.36
-31.8286
-191.531
120.1
-70.3528
80.8935
-408.479
-77.9757
-89.1849
167.161
104.401
-10.9313
-93.4701
-119.14
25.0412
123.422
131.427
155.064
-328.345
173.28
-93.2704
163.889
-70.6184
152.321
-357.416
343.966
-231.716
341.929
-82.8077
-356.597
-198.449
-287.908
463.443
-175.535
429.271
-324.307
-104.964
-8.94274
-337.09
346.032
-335.635
-176.604
512.239
-174.272
-6.36365
93.2098
-36.0819
-501.505
261.025
240.48
-190.569
-81.3516
-87.7679
-42.1937
-35.8629
139.526
-80.2644
150.725
-554.638
382.758
171.879
98.4173
-162.999
-24.6234
92.3201
-67.6967
181.636
-146.39
188.803
-313.377
124.574
322.587
-255.592
-66.9945
87.4104
-397.454
310.044
216.856
-97.5405
114.42
255.637
-95.4853
-93.4844
111.207
-53.3873
474.918
-299.091
-175.827
-267.332
364.039
-96.7069
-109.554
192.316
282.602
-417.834
31.8687
385.965
-282.566
-182.166
127.094
-205.081
77.9873
-135.708
-71.1385
206.847
107.567
211.167
-318.735
44.1184
-264.291
-237.213
-76.2599
-28.7965
105.056
-205.186
326.328
-121.142
479.405
-173.426
404.792
-58.2331
-283.444
159.805
96.1587
8.24266
-268.997
-36.4383
305.436
56.9322
-373.554
-408.905
137.035
131.276
-17.0917
-114.184
179.937
-263.976
84.039
-111.081
256.609
-458.717
334.704
-62.1346
-80.0069
497.232
-149.668
-240.624
406.781
-166.157
213.069
-330.64
117.571
469.949
-111.833
39.195
85.97
-309.518
135.729
339.481
-180.247
-159.234
-175.881
296.26
-120.38
132.176
347.228
163.302
-268.33
105.028
389.854
-107.197
361.291
128.988
-490.279
329.266
-226.238
-103.028
473.32
-502.242
28.922
127.136
-100.096
-27.0403
344.931
-244.741
-8.5528
-110.494
-80.228
-182.871
263.099
50.3352
-118.416
68.0809
-128.245
57.406
-307.194
474.401
-167.207
-87.5227
-54.269
-194.623
199.906
113.628
25.4098
-103.325
77.9152
289.213
1.99293
-291.206
-126.093
73.6089
52.4838
-100.806
454.126
169.069
117.192
-142.602
303.813
-237.02
159.299
334.97
50.6373
-160.565
-156.784
16.389
227.335
-246.739
84.2443
-141.581
241.543
-99.9619
48.2076
-112.337
404.483
-203.362
-369.343
376.361
-7.01776
-132.887
494.178
68.7783
-141.012
72.2333
120.613
-68.6666
-142.404
211.071
-152.011
188.185
-72.0683
103.58
5.78249
-109.362
74.0972
-117.933
43.8359
-244.996
146.694
-100.78
-68.7191
169.499
-267.758
-294.295
128.385
165.91
120.152
-84.6117
48.4424
-113.75
65.3078
48.5593
-184.267
132.614
132.261
-90.5865
247.661
-157.074
-123.336
71.2571
52.0788
-69.1469
180.293
-111.146
-375.379
213.013
-178.408
360.048
153.145
-272.019
118.873
229.283
177.333
-406.615
-57.7894
-32.2973
90.0867
331.467
97.8035
320.607
-147.135
-173.472
-157.588
406.195
-248.607
164.701
-70.9645
325.726
-254.761
327.681
121.678
-449.359
474.559
314.077
151.301
-465.378
249.322
-455.786
193.463
-31.8483
-161.615
-338.23
185.83
152.4
-112.875
5.54725
107.328
94.3279
17.8162
-112.144
-74.6502
-60.3939
13.7982
-383.141
-356.412
214.002
61.1004
193.299
-254.4
-377.993
307.029
222.821
122.939
-345.76
-63.1089
109.711
-46.6026
-103.627
-140.292
243.918
568.781
-256.807
63.4359
136.39
-132.385
-278.035
410.421
-121.706
172.142
-223.351
382.301
-158.95
-350.416
39.5737
310.843
-177.891
-279.182
457.073
-50.5188
-86.7041
-564.246
366.72
197.527
301.225
-183.126
-118.099
-123.674
346.495
-169.395
68.6155
111.95
-189.925
128.326
89.4327
-163.515
-490.523
250.997
239.526
-162.04
77.444
-266.973
97.1779
-291.412
-290.485
-58.1337
-243.682
95.35
-332.052
236.702
-203.741
-176.543
68.8744
107.669
-241.826
-74.1224
-113.091
-41.6072
154.698
-52.7308
-45.6028
98.3336
-309.168
218.431
-1.29554
-77.8303
79.1258
158.391
-190.22
153.276
-365.367
212.091
7.71344
-276.711
-191.965
316.699
-124.734
-228.514
240.672
106.99
-133.218
-89.6556
222.874
396.311
-405.254
98.6117
-70.3215
285.402
189.512
-474.914
-85.8943
-76.1454
-78.2628
273.001
365.003
-366.818
97.6324
-3.30445
409.303
-124.8
-284.503
107.078
155.276
-262.354
145.757
-27.8269
-131.986
159.813
259.103
-123.178
-135.925
347.88
41.9736
122.965
-72.6293
-501.725
173.366
68.247
-137.081
-133.945
71.6417
62.3029
-49.4811
148.552
-99.0706
-140.316
-78.9201
219.236
36.6268
-100.8
64.173
-126.691
43.8997
174.285
-188.524
14.2387
225.611
-280.592
54.9811
-219.419
79.1023
-88.7113
-78.9615
-63.1934
-58.1588
121.352
142.564
181.539
194.23
-225.633
179.256
163.519
-112.913
-50.6065
-370.027
261.795
108.232
224.598
-87.1087
336.249
160.984
335.222
102.733
-437.956
-132.912
-125.69
-537.842
251.045
286.797
213.985
-292.853
78.8684
143.852
119.511
-98.4442
53.6464
-32.2681
96.4659
-64.1978
-266.51
-216.31
482.82
-419.344
440.055
-20.7107
-267.205
108.241
-130.386
-452.79
-21.872
474.663
208.938
240.154
-449.092
-123.791
-188.828
-147.866
-137.5
119.47
-15.8905
-337.108
135.251
-26.1032
161.554
-115.066
-271.591
167.112
104.48
84.3079
69.0488
-129.768
-145.584
275.352
116.534
-91.1237
416.356
-294.572
-121.785
-127.025
340.095
-217.6
-30.0484
457.156
24.1241
-114.74
-76.5446
191.285
454.648
-0.200409
-454.448
-87.1139
313.5
-226.387
118.519
82.1205
-200.64
-372.979
219.097
153.882
-131.584
-112.03
-159.561
143.773
-74.9945
-107.146
289.948
-182.802
141.361
137.73
-279.091
-151.318
-54.3143
-246.556
-174.909
421.466
115.55
476.438
-332.704
-143.734
-154.376
150.95
-94.2466
-56.7031
38.226
-94.9414
205.927
-271.661
294.471
-352.605
-401.715
341.856
193.82
-317.611
231.258
180.767
432.122
-203.668
-216.355
158.484
96.4821
82.4574
-96.6419
98.1584
-147.639
-271.385
288.928
-17.5424
-276.698
-21.8667
76.5163
-143.211
66.6945
115.009
286.58
-158.196
245.888
-132.684
-113.204
-67.639
115.847
-269.19
121.052
-189.718
311.436
-62.4361
-249
-256.326
465.264
484.753
-148.504
-370.18
267.316
102.864
-22.28
476.928
-215.559
404.509
-86.0374
-203.378
289.415
104.596
-263.58
158.984
13.3984
288.11
-334.611
-247.386
581.997
146.875
-347.89
201.015
-292.795
392.833
-100.038
-129.499
443.577
352.632
-126.339
177.669
-89.5681
369.594
-280.026
-75.1951
-50.8976
-224.04
148.548
75.4923
178.037
148.291
53.6476
-59.6515
-279.877
339.529
-386.131
-78.9862
-128.731
-198.829
-337.749
230.603
-412.91
412.91
143.359
-332.982
189.623
182.068
-339.606
157.538
232.11
79.3262
53.8508
42.2452
-96.096
218.7
-371.411
287.712
-465.603
242.833
-40.7144
146.76
157.613
72.7799
198.049
-270.829
125.583
-94.3312
-31.2522
-71.8532
-293.493
365.346
101.894
-177.576
75.6821
-47.7772
161.277
-113.499
331.949
4.34618
-80.0647
80.626
-276.425
321.698
-45.2732
47.0983
146.365
96.4236
16.9275
-113.351
-312.088
-38.3282