/*--------------------------------*- C++ -*----------------------------------*\
  =========                 |
  \\      /  F ield         | OpenFOAM: The Open Source CFD Toolbox
   \\    /   O peration     | Website:  https://openfoam.org
    \\  /    A nd           | Version:  7
     \\/     M anipulation  |
\*---------------------------------------------------------------------------*/
FoamFile
{
    version     2.0;
    format      ascii;
    class       volScalarField;
    location    "7";
    object      p;
}
// * * * * * * * * * * * * * * * * * * * * * * * * * * * * * * * * * * * * * //

dimensions      [0 2 -2 0 0 0 0];

internalField   nonuniform List<scalar> 
30084
(
0.0434794
0.419649
-0.0415781
-0.154483
-0.0114193
-0.175514
0.00390895
0.0453379
0.00965016
0.000882238
0.0361202
-0.0196892
-0.00227422
-0.00011576
0.556753
-0.0278441
-0.0007593
0.295689
-0.0101373
-0.0486553
-0.00406927
0.00906226
-0.0419371
-0.0100172
1.23579
0.417039
-0.00244637
1.08459
0.549164
-0.00714397
0.0741722
0.220585
-0.219565
-0.0262998
1.09235
-0.0217577
0.496203
-0.125591
0.026521
0.0256677
0.0020612
-0.0712415
-0.000673859
-0.0424658
0.000151141
-0.00617298
-0.0173312
0.00036266
0.015838
0.485142
0.0486232
-0.137367
0.226408
-0.170523
-0.0272159
0.524263
-0.0159295
-0.00418187
-0.0170994
-0.0504803
-0.000288691
-0.00981303
0.347885
-0.0182567
0.719888
1.17305
-0.02911
-0.0383045
1.12745
0.00214919
0.413659
0.935606
0.0119472
1.18865
-0.0361788
0.15727
0.607412
-0.113852
-0.00021488
-0.0498669
-0.160233
0.540789
0.0433412
2.1109e-05
0.013082
-0.0299018
0.748125
-0.00235961
-0.00219867
-0.237016
-0.08724
-0.114546
0.0146516
0.238687
-0.245364
0.772626
-0.108254
0.00226413
-0.167889
0.615834
-0.000227567
-0.107266
-0.000281333
0.174064
-0.141226
0.368696
0.83059
-0.00211328
-1.45583e-05
-0.187192
-0.221637
0.0810116
1.33587e-05
-0.00682435
-0.00072619
0.919951
0.590331
-0.0530103
0.00012183
0.0136301
0.200773
0.442778
0.153251
1.17323
0.00518774
0.201796
0.307288
-0.0339124
0.0191967
0.000125423
-0.0379214
0.594049
0.939922
0.111429
0.171807
0.0720013
0.855255
-0.109776
-0.185112
0.601963
0.215975
-0.20758
-0.197144
1.01204e-05
-8.25861e-06
-0.0117077
-0.0161121
-0.172132
-0.0904181
0.456764
0.126154
0.0652736
0.00206648
-0.000614823
0.559853
0.00249702
-0.0342365
0.832935
0.649622
0.0603424
-0.154031
-0.150343
0.537669
-0.000221553
-9.10795e-06
-0.0532916
-0.192177
0.000256482
1.532e-05
-0.0315357
0.000189761
0.0270318
0.843967
-0.108286
-0.109926
-0.0230674
0.00986993
-0.11013
-0.00541614
0.179942
-7.02609e-05
-0.00138168
0.746061
-0.036244
-0.186023
0.57046
-0.0287716
-0.0811752
0.0179486
-0.00630626
-0.00130099
0.0141722
1.18674
0.552458
-0.0625481
-0.0328707
1.02574
0.50864
-0.241516
0.00546567
-0.0287999
-0.196392
-0.0186079
0.00398764
0.856762
-0.0305003
0.0323154
-0.174386
-0.191772
-0.000142694
0.9923
-0.00480421
7.70207e-06
-0.00253684
-0.079692
0.391276
0.0036169
0.0315042
-0.0099203
-0.239896
0.000148786
0.00223311
-0.0106714
0.304746
-0.0127659
-0.00653105
0.21364
0.000613687
0.00014097
0.024639
-0.118142
-0.0980275
-0.0216685
0.410118
-0.0668283
0.0681591
-0.000121586
-0.0137524
0.00371881
-0.0206138
-0.239268
-0.00638275
0.00222154
-0.00699553
0.0140182
-0.047579
-0.000209471
-0.0187649
0.000219933
0.308795
-0.0154137
0.000698074
0.372983
-0.202707
0.00119448
1.78665e-06
-0.208088
-0.234661
-0.040255
-0.0394612
0.126523
0.721291
0.000378633
-0.114278
0.184082
1.04914
-0.0366531
0.56345
0.169061
-0.000804356
1.37272
-0.00252955
-0.119126
-0.2366
0.0105577
0.298722
-0.0379341
0.95117
-0.0159025
-0.0799566
-0.00114899
0.70839
-0.0110432
0.783407
-0.00238117
-0.0265106
1.05775
0.27202
0.213029
-0.139284
-0.000707254
0.0135625
-0.000802407
1.3072e-05
0.315025
0.000180622
-0.0873512
0.175123
1.2468
0.932527
-0.180473
-0.0796058
-0.093839
0.0689887
0.017048
-0.0820798
-0.187773
0.734352
0.936794
-0.00595709
0.820847
0.307255
0.163186
0.0548581
-0.00484031
-0.00751308
-0.0246396
-0.0123522
-0.000263285
-0.00738621
0.150606
0.720455
0.00774823
-0.120579
0.0637846
-0.000159136
-0.183995
1.29522
-0.0289324
-0.00608846
0.058333
-0.0476607
0.42224
-0.00609903
-0.000138552
1.32704e-05
-0.01249
1.06333
0.138912
-0.233357
3.8702e-06
-0.24832
0.28657
-0.0235998
-0.225875
-0.00556359
-0.00206782
-0.109197
0.00440738
0.190647
0.0488226
0.547187
-0.000515951
0.0122896
0.439222
0.203314
0.00203918
0.00216343
0.917744
-0.08564
-0.00682057
0.527853
1.06165
0.0357883
-0.0274385
0.397569
-0.00363518
-0.0395428
-0.0155436
0.499885
-5.85968e-05
0.0470767
-0.0500424
0.939583
1.17959
-0.0279148
-0.0412146
0.734647
-0.0530657
-0.000255752
0.527525
0.3196
0.324202
-0.0325108
0.115029
1.08037
-0.123729
0.994409
0.944457
-6.71074e-06
0.150041
-0.108963
-0.0134047
0.00789387
1.06877
0.139611
0.00135764
-0.13708
-0.20099
-0.0259823
-0.000566415
0.807309
0.580076
0.000240564
0.0198077
0.0261232
0.0461221
-0.138379
0.000318086
-1.00245e-05
0.00239786
0.430555
-0.124807
0.758295
-0.21935
-0.0764603
-0.100014
0.519285
0.349342
-0.00577454
0.0389412
0.00410771
1.00813
-0.11607
0.00526613
-0.0351428
0.231827
-0.00625294
-0.0564969
0.00114976
0.00117885
1.30835
-0.0378233
-0.0234505
-0.00202352
-0.00354828
0.697562
-0.046472
-0.10279
2.45796e-05
8.28912e-06
-0.119979
-0.0316226
-0.0245613
0.0807443
0.0300049
-0.0100949
0.245629
-0.0811783
0.9833
0.0324506
0.0012184
-0.181087
-0.101299
0.314728
-0.0155468
-0.101198
-6.73618e-05
1.13947
0.0904371
0.000422207
1.18654
-0.106711
-7.21751e-05
0.00713383
-0.184357
0.0819185
0.214784
-6.06054e-06
-0.0377966
-0.00170387
-0.0252152
-0.00228161
-0.0389683
1.03311
-0.0384511
-0.0544304
0.580345
-0.0134863
1.02928
-8.06561e-05
-0.0689964
-0.173206
-0.0983098
0.139092
-0.00723081
0.0163291
-0.000720438
-0.0860604
0.0736114
-0.000150146
3.26697e-05
-0.0299224
0.968837
0.0413601
0.0124805
-0.245033
6.13536e-06
0.00485837
-0.000182331
0.0502313
-0.0806034
-0.00189328
-0.0361636
-0.0579918
0.00505489
-8.49307e-05
0.234422
-0.00179026
0.265996
0.8883
0.741751
-0.0154781
0.0295393
0.117989
-0.000429825
-0.0154937
8.91859e-07
0.952928
-0.0630199
0.0796037
-0.0793541
0.0101075
-0.0145637
-0.000506023
3.97818e-05
-0.0227165
0.22991
0.663338
0.00616128
-0.162092
-0.115652
-0.0371015
0.455023
-0.00643285
0.00818773
-0.0264809
-0.000465014
-0.188171
0.720391
0.540205
-0.102535
0.704444
0.000424337
2.09222e-05
0.521939
0.312231
1.17737
-0.139465
-0.0995069
0.246407
0.00585313
-0.0276538
0.00229147
-0.0497403
-0.0591768
-1.53049e-05
-0.00437186
0.933846
-0.000662311
1.11222
3.18481e-06
0.304175
0.257259
0.255705
0.00522574
0.000936554
0.9511
0.276807
-0.177604
0.549623
-0.0275641
-0.0618401
-0.0196138
0.759307
-0.116047
0.0759203
-0.0346257
8.26814e-06
-0.00636111
0.0294989
-0.0828292
-0.10018
-0.188497
-0.0837411
0.383045
-0.0104148
-0.234614
-0.0640539
0.000201734
-0.0564574
0.0679566
0.388452
-0.122978
-1.74503e-05
-0.0838415
0.000552161
0.00699734
-0.103064
0.756857
0.00452273
-0.0556118
0.0362082
0.273275
1.0183
0.00911479
-0.0175983
0.712738
0.482227
-0.0646612
0.0243928
-0.207823
-2.3257e-06
-0.186577
0.000430494
0.0292056
-0.000136909
0.000138498
-0.0232457
0.361916
0.908613
0.0740268
0.0598729
-8.35744e-08
-0.0299048
0.000445528
-0.0156069
0.000139303
0.224839
-0.00234706
0.560514
-0.00062248
-0.0597378
-0.162821
-0.0205762
1.01303
-0.0769887
-0.12938
-0.0270165
0.191553
-0.172571
0.127684
-0.0196485
-7.15473e-06
-0.0204138
-0.0192653
0.00124793
0.000428502
0.757619
-0.0237813
0.295031
-0.0155333
0.00430741
0.144036
0.000837793
-8.77329e-05
-0.184494
-0.0170398
0.000154016
0.711624
1.26144
-0.00103941
-0.156701
3.02552e-05
1.09105
0.304641
-0.154245
0.000233131
0.0765274
0.236713
0.27228
0.213202
-0.00198052
-0.000667889
-0.0700638
9.73269e-06
1.21048e-05
-0.118482
-0.10359
-0.184483
1.21869
0.00101456
-0.0881781
0.0378944
-7.87404e-05
-0.00578167
0.000178049
-0.0276567
0.000216022
-0.012295
0.124025
1.02029
0.186409
-0.00137728
0.00232255
0.0300127
0.289101
-0.0150618
4.46369e-05
0.641646
-0.197956
-0.135239
-0.0655232
-8.7653e-05
-0.00136667
-0.201309
-0.0777295
0.466237
0.980258
-0.126558
-0.00622655
-7.26189e-05
-0.182518
-0.22054
-0.000999659
0.0205919
-0.0624937
-0.0226134
0.935413
-0.0063472
0.0632294
0.622444
-0.036796
1.1815
1.16747
-0.000138711
-0.000134352
-0.0760362
0.0745883
-0.151504
0.0262728
-0.0356184
-0.0028236
1.06532
0.549227
0.0113613
1.35658
2.33785e-05
0.358988
-0.182761
-0.0828794
0.000485102
-0.157257
0.369013
0.0715944
0.247944
-0.00222608
-0.00238377
0.0115836
-0.0167929
-0.0618497
-0.00505171
0.458277
-0.0229449
-0.0249165
-0.251227
0.906001
0.1878
0.141488
-0.00198276
-0.00253184
-0.088683
0.00497212
-0.0126601
-8.33615e-05
-0.00171655
0.369949
0.955173
-0.000629143
0.694977
-1.67013e-05
-0.0161567
-3.11232e-05
0.0268792
0.219551
-0.000184173
-0.00018901
-0.223714
1.13339e-05
0.218717
-0.0966583
-0.000120604
0.578919
2.48669e-06
-0.00197607
-0.000430253
-0.0239977
-0.0017633
-0.0293983
-0.198721
-0.00155824
0.0211748
-8.9514e-05
0.897988
0.0565415
0.188998
-0.142649
-0.0990957
-0.00530928
0.0145902
0.630806
-0.104924
0.636993
-0.173277
-0.0166948
-9.96979e-06
-0.0273379
0.943296
0.621353
-0.132397
-0.218078
0.872588
-0.039655
-0.178541
-3.15945e-05
-0.100865
-0.00410203
1.33118
-0.167796
-0.000419759
-0.233136
-0.107993
0.695829
-0.0125074
-0.113134
-0.0166155
-0.021611
-0.00619207
0.693094
-0.238434
-0.084615
-0.067015
-0.0592657
0.0275323
0.860787
-0.0827834
0.550177
0.0135913
0.149744
1.12412
-0.040368
-0.00112413
0.710733
0.936696
0.014252
0.136606
-0.0293244
-0.140827
0.710437
-0.185634
-9.49351e-05
-0.0346498
0.000169882
-0.0212773
-0.000101271
-0.0191111
-0.00466694
-0.0146402
0.0793134
-0.00290531
-0.00243735
-0.00497408
0.593602
-0.00989094
-0.0153823
-0.0138354
0.52268
0.0256046
-0.00166
0.934675
1.15357
-0.0863909
1.06812
-0.0761506
0.883064
0.0262769
-0.0281681
0.0125084
-0.00219184
7.64953e-05
0.0125246
-0.0521882
-0.0865152
0.541037
-0.0997828
-0.087764
-0.00436836
0.108409
-0.0982044
0.0315007
-1.53142e-05
0.0752608
0.539516
0.928246
0.17022
-0.057872
0.444689
-0.00146546
0.155847
-0.0778054
0.00326452
-0.22982
0.0182617
0.883065
-0.00950102
-0.0024924
-0.000447127
-0.175243
-0.0053572
1.33601
1.37312
0.0538484
-0.000151229
0.037898
-7.3748e-05
0.299072
-0.00245803
0.0977976
1.25808
0.325494
8.18052e-05
-0.035363
-5.21941e-06
-0.246191
-0.149175
1.05719
0.00106227
0.0519763
0.0188104
0.00131365
-0.010123
-0.00135177
-0.0259647
-0.138601
-0.0973687
0.0404899
0.568395
-0.056554
0.0285442
-0.0858058
-0.00711687
-0.112103
5.15536e-05
0.000202987
-0.00953877
0.124333
-0.094434
-0.0661896
-0.0157029
0.011928
-0.010491
0.776255
-0.0545794
-1.08588e-05
-0.222713
0.987565
0.104309
-0.0507441
0.370054
1.68401e-05
-0.00292465
-0.119236
-0.000121124
-0.0019249
-7.72728e-05
1.35572
0.0383461
0.0157557
1.64785e-06
9.72885e-06
-1.63847e-05
-3.53234e-06
-0.0957007
0.941815
-0.147864
-0.00188223
-0.00068069
-0.019347
1.04662
-0.176691
0.988288
0.190502
0.42919
-0.000440823
1.03484
-0.00926905
-0.0388113
0.137232
0.0455712
0.0501361
0.548041
-0.169961
1.02421
0.807188
-0.0325615
-0.107966
0.0552522
-0.120903
3.359e-06
-0.00388305
0.0116103
0.250064
-0.0268753
-0.0960601
-0.0131121
1.21695
-0.190773
-0.000124912
-0.000108288
1.06562
-0.0202617
0.0152619
-0.0542316
-0.00927554
-0.0611344
-0.0393996
0.126761
0.424544
0.198696
-0.0406314
-0.0569474
0.000362399
-0.0233698
-0.00189855
-0.0322872
-0.000103245
0.000237918
-0.0441421
-0.0800909
1.01489
-0.0155252
-0.000757658
-0.00597982
-0.00125199
0.929146
0.108878
-0.000128181
-0.0930725
-0.0181325
-0.0138667
-0.109809
-0.131751
0.0273816
0.226251
-0.187285
0.000307271
0.0237165
-0.0543109
-3.49641e-05
-0.000237784
0.361594
0.288436
0.216637
-0.200352
-0.171987
0.00211243
1.11571
0.000351304
-0.0483733
0.956485
-0.0683522
-0.143146
1.65205e-05
0.000659039
-0.141551
-0.0371426
0.00547672
-0.132061
0.64586
0.812542
0.00268141
0.00104719
0.650573
-0.0495211
-3.64959e-05
-0.00562863
-0.111792
-0.0810839
-0.0327922
-0.00354413
0.698443
5.63554e-05
0.2561
0.762565
0.000149304
0.0588928
-0.00170793
-0.173496
-0.0534585
-0.00255656
0.0989705
0.000832527
0.642542
0.0054062
0.0823135
0.157856
1.24693
0.886686
-0.215124
-0.0267448
1.46112e-05
0.269914
-0.0493576
0.480843
0.870243
-0.130982
0.0614627
-0.0585918
-0.0221747
0.425452
-0.000686533
1.05663
0.0927175
0.00018608
0.000153156
0.000380982
-0.0444437
-0.0612782
0.00267625
0.333165
0.43632
-0.197818
0.00246722
0.000261047
-0.0774748
-0.000128926
-0.00953794
-0.0365465
-0.00190208
0.27434
0.0164183
-0.00450708
-0.0126222
-0.052602
0.886144
0.907358
0.129032
-9.49596e-06
-0.00178645
0.673255
-0.00148277
-0.0927699
-0.000657198
-0.0650871
-0.218376
-0.000642718
-0.000740266
-0.10167
0.00492166
-0.000231003
-0.00427314
0.610587
-0.114298
-0.000105326
0.294806
0.879366
0.910856
0.0022344
-0.117429
-0.0303397
0.983073
-0.198244
-0.202426
0.0290042
-0.0421717
0.0968062
-0.0838801
0.909577
0.308675
-0.000546477
-0.177204
-0.246322
-0.0120152
-3.54475e-06
-0.00552504
0.573075
-0.00058195
0.0481851
-0.0125935
-0.0037937
0.0294727
0.0914165
-0.000568175
-0.000386108
-0.0138913
-0.16653
-0.113501
-0.21312
0.641653
-0.0018612
-0.000857628
-0.109717
-0.0766823
0.0336124
0.0429962
0.000269819
0.222015
0.428945
0.0594526
0.0799794
-0.00198535
-0.042823
0.301692
0.00421129
-0.00011623
-0.0282305
-0.0127952
-0.00229425
-0.0342438
-0.00266127
0.773249
-0.0286423
-0.226996
-0.0746664
-0.0341344
0.0373663
1.08752
-0.14353
-0.000366952
1.02964
0.469996
0.0246677
-0.0185889
0.0240309
0.209299
0.446722
0.00113464
-0.0060206
1.25223
0.737158
0.859139
-0.140624
-0.00439983
-0.00387145
-0.000108598
-0.00405377
0.812969
0.248647
0.0313117
-0.0042668
-0.00108517
0.13498
1.1777
0.951939
0.241224
-0.00888831
-0.210622
-0.00901009
-0.00226419
-0.0510833
0.0598098
-0.0876435
-0.0110929
0.00300808
-0.229233
-0.174461
0.0934772
-0.0771934
-0.000850917
-0.0833817
-0.000624288
-0.0215403
-0.00215855
0.885509
0.000170106
8.13872e-06
-0.0386033
-0.0629395
-0.0921825
0.120893
0.000192685
-0.235578
0.221859
0.543238
1.32589
-0.0143715
-0.129509
0.0978238
-0.00645071
0.333282
-0.00186725
0.0334688
-0.000586139
0.734796
0.0624751
0.0338063
0.437747
0.338831
0.00482437
0.0117469
1.31258e-05
0.999907
2.72287e-07
-0.146309
0.00108767
0.00562495
0.518151
0.304597
-0.195359
-0.125552
-0.0124262
1.36427
-0.210812
1.51412e-05
-0.0485936
-0.000113145
-0.0281148
0.310159
0.540015
0.00285366
-0.111844
-0.0293016
0.421575
0.334144
-0.103087
1.22894
-0.0307784
0.000218488
-0.1291
1.2622
0.00874813
0.274051
-0.133656
0.456502
0.00595882
0.128849
-0.253103
0.0208092
0.16809
-0.0331294
0.630859
-0.0824915
-0.0604004
-0.00245548
-0.00248412
1.12079
-1.03882e-05
-0.0144982
-9.65356e-05
-0.0251011
0.00113768
-0.0222826
0.721336
1.488e-06
-0.00316994
0.488212
-0.210725
-0.0641128
0.00372406
0.95291
-0.132049
0.479537
-0.0371698
0.441039
0.0243632
-0.00229291
0.11919
0.00248087
1.14742
-0.0813264
-0.000345627
0.00711301
0.406287
-0.034944
-0.00214106
-0.000381921
-0.181929
-0.00804224
-0.0296791
-0.208932
7.06324e-06
-0.222874
0.00142588
0.869071
-0.0310471
0.426254
0.0151592
-0.0112951
0.733393
-0.120482
-0.117348
-0.0131569
-0.181559
0.752837
0.794573
-0.0437795
-6.9331e-05
-0.0482324
0.0146049
4.57093e-05
0.28494
0.920239
0.039399
0.00499126
0.0448493
-0.226703
-0.00051624
0.268099
0.162981
0.25012
0.0415736
0.086859
-0.00119016
0.491141
0.0908388
-0.214525
-0.00310561
0.0831464
0.42531
0.00254731
-0.235075
0.592714
-0.100139
-0.237156
-0.250536
-0.111636
-0.119726
0.162415
0.590644
-0.176306
2.35807e-06
0.00293551
0.101546
-0.00554372
0.0527386
-1.07735e-05
-0.0177864
0.0124966
-0.000211058
0.173307
-0.00158606
0.351313
-0.0986264
-0.0106082
-0.0214102
-0.0268088
-0.195738
-0.0183274
-0.00302207
0.0660652
0.241866
0.0157209
-0.105438
-0.00917693
0.0946741
-0.0295652
-0.0605791
-0.244582
-0.0499829
-9.90186e-05
-0.0478435
1.02573
0.000104379
0.535845
-0.0548721
1.20698
0.150861
-0.15163
2.56904e-07
0.00533768
-0.234428
-5.79347e-05
-0.00842085
-1.20298e-05
-0.205575
0.0142751
-0.171116
-0.0730092
-0.000385007
0.714611
0.687774
-0.111814
0.0014365
-0.000528449
-2.38091e-07
-0.000172786
1.11893
-0.00411939
0.00718316
0.0677101
0.00303336
-0.00184004
-0.250653
-0.000709813
0.156142
0.0154596
-0.0064709
-0.00227808
-0.0821073
-0.131343
0.513907
0.371395
-0.000503292
-0.041265
0.00175188
-0.0308625
-0.00140639
0.417128
-0.0181975
1.37302
-0.0271402
-0.00453449
0.227021
-0.0599728
0.861024
-0.133445
-0.0357063
-0.0409859
0.057064
-0.0111764
2.92292e-05
-0.0260406
0.787255
-0.142258
-0.0102068
-0.134903
-0.0868578
0.429667
-0.00158165
0.735972
0.00786628
-0.191763
-0.0016564
0.0418359
0.145488
0.0090534
0.859215
-0.00147168
0.101976
0.264193
0.00167346
-0.000405278
1.18271
0.245577
3.84761e-05
0.0951711
0.0899717
0.00042906
-0.0331292
-0.0697237
-0.215098
-0.0314141
0.827299
0.0146903
0.589242
-0.00124324
0.954493
-0.231999
-0.016795
0.019777
0.0976327
-0.180831
-0.106754
-0.0272226
0.000172654
1.26806
-0.0724263
0.00263972
0.0317167
-0.128504
0.870725
0.00957374
-0.052063
-0.000166341
0.347171
0.025668
-0.124387
0.00262085
-0.0110258
-0.0906644
0.000119316
-0.168392
-0.00490937
-0.0472131
-0.208325
0.734986
-0.0325737
0.264093
-0.0657782
-0.0955473
-6.4216e-05
0.000482341
-0.0117496
0.000123909
-0.0359907
0.255485
-0.00650951
1.06858e-05
1.1449
0.0160606
0.00111042
-0.000114013
-0.0067379
0.847651
-0.174561
1.26895
0.518031
0.0720084
0.730708
-1.03077e-05
-0.0437697
-0.00266279
-0.00789193
0.537806
-0.0312439
1.2845
0.683689
-0.180923
0.698197
0.0304103
-0.0452203
0.00719194
-0.0539322
-0.0126943
-0.168943
-0.18623
-0.00961643
0.695151
-0.0316583
0.00046513
-0.0137262
-0.00212506
-0.113447
-0.000521135
-0.00399657
-8.13901e-05
0.45648
-0.0894626
0.714388
0.0931754
-0.00874161
-0.0948909
-0.0632423
0.220934
-0.00982207
-0.00340403
-0.216265
-0.143951
0.0469447
-0.141183
-0.0144124
0.0666568
0.0125834
0.000118749
0.409764
-0.00011964
0.174637
-0.00258021
1.20739e-05
0.00635219
-0.00213767
-0.00392337
-0.0506095
0.541322
0.426633
-0.0650146
-0.0405049
0.00934376
-0.016582
-0.0329427
0.000262937
-0.00157319
0.00225062
0.337678
-0.0265187
-0.178255
-0.130587
-0.00614415
-0.0554069
-0.0202479
-0.0055256
0.0171436
-0.0403421
0.657404
-0.199188
0.0216655
0.0100321
-0.120061
1.25188
-0.0320749
-0.0105092
0.0250456
0.24899
0.0129558
0.0119965
0.69848
-0.00117346
0.143633
-0.0676942
-0.131735
0.0204063
-0.0118933
-0.0178327
0.130676
-0.0116714
-0.00199249
0.0133373
0.00841821
-0.000739591
0.129554
-0.030182
-0.00656043
-1.05438e-05
0.460998
-0.000115068
-0.0902107
0.241378
-0.0688269
0.00049338
0.333688
-0.0901886
0.492173
-0.000141806
-0.0124724
0.412924
0.000580654
0.0159867
-0.0145464
0.0336406
-0.0670486
-0.106121
-0.0254891
-0.00865874
0.031928
0.0655538
0.469803
-0.000596211
0.346143
-0.131571
-0.0105033
-0.0224579
0.00131155
-0.129103
0.000247438
1.03402
0.646273
-0.00157793
-0.0680394
0.000826086
-0.00694241
-0.015377
-0.0300815
0.457075
0.548197
0.123297
0.0328523
-0.242492
0.128256
0.277276
0.327513
-0.1682
0.0663377
0.619048
-0.0308063
0.925966
-0.00295616
-0.0353803
-0.145436
-0.000289929
-0.00240797
-0.000123356
0.919813
-0.0333208
0.000889389
-0.0498963
-0.0113857
-0.0010373
-0.0424647
0.777314
0.00333693
0.0355681
-0.0832676
-0.00140191
-0.0147158
-0.00256154
1.29765
0.000689936
9.00585e-05
-0.00583674
-0.0440889
0.442271
0.0017731
0.0741967
0.242398
-0.000455581
0.00694022
-0.24038
0.364859
-0.0679651
3.09029e-06
0.00113582
0.0704437
0.103896
0.799467
0.27928
-0.113498
3.9464e-06
-0.132035
-0.00840356
-0.0396872
-0.0383269
0.500332
1.00211
-0.000329072
0.430039
0.645863
-0.0310306
0.0155693
-0.066344
-0.022033
0.000363093
-0.129907
-0.0268096
-0.000320971
-0.00168285
-0.00497273
-0.00601681
-0.00211148
0.790312
0.859868
0.625929
-1.14601e-05
-0.0746872
0.25842
0.317178
1.04572
-0.00154303
-0.0646533
-0.0589965
0.839768
-0.0606523
-0.0291416
0.0699209
0.43913
0.000986996
-0.00148305
-0.0748131
-0.0934391
0.467621
0.213332
-0.109957
-0.0692017
0.465313
0.0669811
-0.149681
0.0222365
0.286094
0.518664
-0.00107644
-0.00192611
0.376416
0.000669728
0.177503
0.0986847
-8.44212e-06
0.818173
-0.0326138
-0.0140244
1.31673
-0.117585
-0.0210249
-0.119714
-0.00721323
0.99455
0.00373127
1.25311
-0.000408346
0.023368
1.28108
0.0218008
0.995164
-0.0181285
2.69278e-05
-0.0492471
1.02791
-0.00494779
-0.020936
-0.0254908
-0.00314065
-0.0660115
1.01708
0.356764
3.30273e-05
0.0660583
-0.011755
0.0949856
-0.00276951
0.072136
-0.00829242
-0.00139351
0.973374
1.04461
0.980232
-0.165121
0.317952
0.00048619
-0.184357
0.728804
0.0600947
0.000798547
-0.125063
0.00190229
-0.000315879
1.03389
0.000414325
0.0135298
-0.0060004
-0.0275596
0.987431
1.0255
1.04194
0.03785
0.0015773
0.589542
0.0239937
0.0968675
-0.0286377
0.000231287
-0.00920884
-6.38559e-05
-0.014229
-0.00231178
-0.0176408
-0.000176958
0.42908
0.00670013
-0.175584
-0.0282111
-0.230176
-0.0513779
-0.002398
0.880831
-0.0338667
2.73756e-05
-7.87933e-05
1.23871
9.58929e-05
0.0360628
0.193706
-0.0567193
0.786007
-0.0163343
-0.138549
-0.115979
-0.00139512
0.00041212
0.664163
1.03908
-0.0047971
-0.0602588
-0.000716099
1.03737
1.20392
-0.00446038
-0.0198361
0.0604159
0.0100678
-0.0766996
0.000242294
0.0319756
-0.117816
0.196362
0.896736
-0.00461692
0.0891277
0.42227
0.24979
-0.141357
0.0893671
1.17398
0.550206
-0.173766
1.05378
-0.00178265
1.04489
-0.0203664
0.89841
0.260388
-0.0157663
0.136534
0.00762835
0.055243
-0.236459
-0.00207308
-0.0730998
0.912442
-0.0802698
0.105273
-0.00454954
0.192592
0.538046
-0.0284624
0.213722
0.00229214
-0.0110935
-0.0747291
-0.00668251
0.00639198
-0.0275371
-0.0015366
0.00766017
0.893895
0.00726107
-0.0500662
-0.177952
-0.0899406
-0.204853
-0.201664
0.013274
-4.32247e-06
7.50819e-06
0.689482
-0.13491
0.000199206
-0.00394054
0.485997
-0.181399
-0.0462854
0.000378882
-0.00583533
-0.146482
0.448774
-0.0233876
-0.00146529
-0.146192
-0.0587254
1.28146
0.317245
0.219864
-0.141834
-3.99077e-06
-0.02078
0.194102
-0.00110776
6.33324e-05
0.474061
0.306626
0.00196073
-0.00261644
0.0332111
-0.090735
0.0327457
0.0277375
-0.0466455
0.000176647
0.8023
0.00187099
-0.00177592
-0.000695839
-0.000658365
-0.000454323
0.238943
0.00315622
-0.00857756
-0.0293093
-0.0133907
0.089596
-0.0164961
-0.129419
-0.0318211
0.966845
0.826723
-0.00147225
-0.00440713
0.297411
-0.00246542
-0.0555477
0.277156
0.411274
-0.00293462
0.0626378
0.121262
0.00418805
0.381773
-0.000294092
0.02291
0.0519089
0.0429935
-0.0437479
0.144216
0.000241561
0.00484369
0.000917974
-0.000126443
-0.00417344
-0.0293947
-0.0389317
-0.0880175
0.261823
0.127531
0.0277688
-0.16682
0.0410468
0.0307691
0.0401363
0.00019235
1.01467
-0.0247493
-0.00981513
0.0911338
1.29643
2.1122e-05
0.343329
2.56574e-05
0.0218605
-0.0192264
-0.063795
0.47128
-0.0118975
-2.72597e-05
0.595758
0.205333
-0.00163541
0.151869
-2.1435e-05
0.431018
0.025867
-0.0829057
-0.000404749
0.648209
0.0852942
-0.0614387
0.000136405
0.448472
0.775601
-0.00332193
-7.41957e-05
-0.107099
-0.0268053
0.0506565
0.0903911
1.05003
0.663317
0.00148795
0.858843
0.662535
-0.00837056
-0.17239
-0.0836565
-0.0410883
-0.134265
0.51948
0.00251167
1.09201
0.427075
0.0374635
0.000319703
0.00194399
2.98168e-05
-0.00160169
-0.00812469
1.16562
4.11785e-05
0.220875
0.0793527
-0.000647614
1.09977
1.20684
0.518546
0.582836
0.210591
0.0074017
-0.000811009
-0.0323018
-2.52049e-05
-0.00319244
-0.219567
-1.33745e-05
-0.00419873
1.11732
-0.0339702
-4.60409e-05
1.14508
0.00141842
-0.106418
-0.204938
-0.00378657
-0.183432
-0.000665154
0.502083
0.00992702
-0.0444862
0.00571356
-0.00183392
-0.00110045
-0.000625506
-0.240095
-0.176866
0.402114
0.00852838
0.00796179
0.6261
0.000235375
1.25816
-0.0014057
-0.264598
0.00668779
0.00480729
0.144399
0.153464
2.98602e-05
-0.0118057
0.000334825
-0.0019289
0.00253261
0.232695
0.138202
0.785444
-0.086353
-0.000271565
0.000521193
0.26695
0.879165
-0.0128963
-0.0181753
1.24892
-0.00800894
-0.0604172
0.0030809
0.283555
-0.0727848
-0.0246364
0.409986
0.00396773
-0.000679951
0.00485507
0.182507
1.24933
1.00787
-0.0707149
-0.0899582
-0.0182013
0.0045924
9.30254e-05
0.207936
0.546416
3.48557e-05
-0.0210082
-4.33583e-05
0.000427601
0.965692
-6.76566e-07
-0.19186
-0.136227
-0.182135
0.195619
2.80707e-05
0.0291832
-0.0171179
0.905991
0.111101
0.0146021
-0.0874146
0.00190151
0.873044
0.524337
0.0337232
0.194637
1.13066
-0.182922
-0.158592
-0.00544977
-0.0202039
-0.00102462
0.0975305
-0.000148136
0.428562
0.00857372
0.550274
-0.0959297
-1.86375e-06
0.176652
-0.000453229
4.89159e-06
-0.0021058
1.22721
1.18342
0.823424
0.000185331
0.557256
1.03969
-0.00277267
0.00825727
-0.0243483
0.312722
1.03891
-0.0800682
0.324519
-0.0068742
-0.19398
-0.220067
1.33473
-0.00170066
1.0111
0.240859
0.48386
0.000395366
0.000644684
0.0158736
-0.0256383
0.234955
-0.000130361
0.000209581
0.990485
-0.165327
0.000895758
1.0323
-0.00656943
0.000478588
0.88937
-0.0168076
-0.00422301
0.241559
0.497628
0.000953132
-0.000344764
0.0104423
-0.0115834
0.989089
1.2223
0.744335
1.30211
0.46979
-0.136282
1.13884
-0.000198427
-0.00905118
0.515866
-0.00967883
-0.00183862
-0.000267302
1.03381
0.146696
-0.00182002
1.1916
0.205487
0.716211
0.12399
-0.00774242
-0.0589572
0.468499
0.218279
1.04032
-0.0616507
-0.00220438
0.961188
0.933936
0.040199
0.790898
-0.104285
-0.02233
-0.0256714
-0.00179511
-0.000372982
0.968384
-0.177327
0.191365
0.00311376
0.413595
-0.0922361
-0.0279346
-0.00261011
-0.00925691
1.06613
-0.00224605
-0.0493882
-0.00848111
1.06065
-0.0536917
0.0568937
-0.0213513
0.00405868
0.397123
-0.0637363
1.07787
0.50191
1.30054
0.602939
-0.18003
0.0874896
-0.00497189
0.0895311
0.145898
1.0001
1.05854
1.16169
0.815101
0.975707
-0.000974228
1.11007
-7.01248e-05
0.000215083
-0.139489
1.19202
0.138273
0.636801
6.23363e-05
-0.00608019
0.0594021
-0.0883554
0.982912
-0.00190353
-0.0218817
0.822692
0.00299226
-0.0119489
1.26641
0.13138
-0.0826192
-0.0479879
-0.00146921
0.337835
0.500434
1.31525
0.42944
0.274791
0.0130775
-0.000648553
0.0175755
0.482234
0.0223166
0.000394757
-0.0436407
0.582376
-0.00415073
1.02124
-0.170526
1.02839
0.000722045
-0.0642111
1.13279
-0.0150462
0.287535
-0.00111015
-0.00366492
-0.192932
-0.0642938
-0.105866
-0.027381
0.0802165
-0.0613573
-0.20938
1.03317
0.000794626
0.00221119
-0.0561173
0.32661
-0.0990031
-0.170907
2.91292e-05
-0.0424077
0.132863
-0.000268146
-0.174827
0.235326
1.03226
-0.153084
1.02558
-0.0384821
0.366895
0.592399
-0.101126
0.821002
-0.0046699
0.357871
0.00571333
0.225928
0.495207
0.430699
-0.0791983
0.0175024
-0.00173403
0.439431
-0.000214729
-0.000340362
-0.00289611
0.0802673
0.055196
0.0423485
0.893554
0.430361
1.24142
0.839233
-0.00425171
-0.0946977
-0.000437534
-0.132646
-0.00297079
0.0162847
0.00183865
-0.0799294
0.768222
1.00247
-0.000795745
6.86196e-05
0.260236
-6.38846e-06
-0.0255304
-0.000475957
0.379831
-0.101327
0.453624
-0.184558
0.000132946
-0.0390716
-0.112777
-0.0612034
-0.0458221
-0.152692
0.220749
-0.000439288
-7.45723e-05
0.00586003
-0.000354719
0.249303
0.407258
0.113046
1.1675
0.125773
-0.203211
-0.256706
-0.00118469
0.13754
-0.000319003
0.973106
0.255963
1.10848
0.000426007
-0.0913796
-0.0188684
0.143236
0.612824
0.919553
-0.0208781
0.112842
-0.00532203
-0.0471319
-0.0221566
-0.0168565
0.271684
0.00446211
-0.0171043
-0.0564205
0.692452
0.210592
1.33018e-05
-0.00241913
-0.017149
-0.00166048
0.334083
-0.00182197
-0.046023
0.411086
0.000233029
0.626894
0.000262108
-6.2331e-06
-0.219169
-0.0303889
0.000486079
-0.0627552
0.000520102
1.153
0.034494
-0.0687309
1.06504
0.316973
-0.0889172
0.880212
-0.00758104
-0.00511302
-0.00570713
0.240366
1.37829
-0.0040645
-0.00158243
1.71669e-05
0.0217144
-0.00340344
0.0686894
0.0169735
-0.0587031
-0.167366
0.0512664
0.0307929
-0.0514143
-0.00145641
0.0915509
0.906281
-0.00489869
-0.0381821
-0.000616247
0.892335
0.156365
0.894621
0.00122612
-0.0022898
-0.064891
1.16652
0.361352
-0.0789557
-0.000339611
0.0871875
0.346949
0.00467017
0.505908
-0.136393
0.0595879
-0.206794
0.917013
-0.038598
0.581362
-0.00866714
1.31954
-0.11656
-0.0303634
1.08426
-0.121394
0.401931
-0.224494
0.436833
0.0178163
0.135751
0.739999
0.133386
-0.137633
-0.0266734
-0.0203167
-0.0133545
0.100105
-0.00371881
-0.153065
-0.0799704
0.00558545
-0.187684
-0.234709
-8.43367e-05
0.46619
-0.0250514
0.499458
1.10781
0.846814
-0.153609
-0.199434
0.00132069
-0.129295
-0.0104202
1.27871
-0.0989424
-0.0853648
0.834299
0.127145
-0.106795
0.621597
-0.103916
-0.00168289
-0.0323193
0.0278265
0.00196689
0.871589
-0.00739336
0.3459
0.82521
-0.0157659
0.552266
-0.184133
-0.00100701
0.0185606
0.301325
0.830208
-0.00690941
0.251189
-0.190656
0.216689
-0.0635025
0.846782
0.0711883
-0.0133693
-0.00699067
0.000530729
1.01834
-0.00665194
-0.0528868
-0.000273405
0.488231
-0.000154866
-0.107503
0.00195249
-0.106249
0.00191408
-0.0268566
0.55136
-0.0106238
0.00257571
0.0018501
-0.011209
0.237858
-0.0002066
-4.90834e-05
-0.0233358
-0.0290146
-0.0610597
0.0223805
-0.00519659
0.197807
0.204333
-0.00343556
0.00282915
-0.000516406
1.00778
-0.0115306
-0.0186788
0.905148
-0.0501919
0.855689
0.159367
1.02159
0.533692
0.296999
-0.00406695
0.0270696
0.211851
0.0703368
-0.0119656
0.000543131
0.023195
-0.137287
-0.00259164
-0.0227819
-0.0220238
-0.0242245
-6.69109e-05
-0.00894526
0.000190614
-0.000191254
0.00241625
0.756937
0.546313
-0.0304765
-0.00768311
-0.130153
-0.0574714
0.684833
0.928814
-0.136038
0.00569096
0.491981
0.0159393
0.00168969
-0.207188
6.8062e-07
0.301833
0.401726
-0.00177984
-0.0999145
0.00059829
-0.021664
-0.0212707
0.272805
0.0672015
-0.148086
-0.000102061
0.0297385
0.00482659
-0.0948469
0.0154009
1.03331
0.00104372
-0.0107042
-0.0887494
0.64504
0.749568
0.820918
0.170508
0.000163645
0.0182696
-0.00172047
-0.00386765
-0.00261274
0.243794
0.510638
-0.0332845
-0.0718284
0.758869
-0.0113501
-0.0153986
-0.163472
0.252711
-0.00262364
0.228849
-0.0386422
0.266756
0.391295
-0.164953
0.00140949
-0.0102646
0.271558
0.00373964
-0.000170356
0.476893
-0.00108902
0.858471
0.746832
-0.245443
0.6967
0.10681
-0.00994893
-0.133231
0.809012
-0.0561853
0.672877
0.132734
-0.00156988
0.0967677
0.00310237
0.425355
0.407567
-0.00518001
0.264217
-0.0200704
0.0147248
0.718469
-0.00356614
-0.00210334
-0.000370026
-0.0293261
0.630945