/*--------------------------------*- C++ -*----------------------------------*\
  =========                 |
  \\      /  F ield         | OpenFOAM: The Open Source CFD Toolbox
   \\    /   O peration     | Website:  https://openfoam.org
    \\  /    A nd           | Version:  7
     \\/     M anipulation  |
\*---------------------------------------------------------------------------*/
FoamFile
{
    version     2.0;
    format      ascii;
    class       volScalarField;
    location    "28";
    object      p;
}
// * * * * * * * * * * * * * * * * * * * * * * * * * * * * * * * * * * * * * //

dimensions      [0 2 -2 0 0 0 0];

internalField   nonuniform List<scalar> 
115546
(
-0.00816816
-3.44924e-06
-0.0121141
-0.00286473
0.00126041
-0.000611161
0.287846
-0.0421975
-0.000135783
-3.74028e-06
-0.000162288
0.000222866
-0.00133673
-0.0479909
-0.000137101
-0.0462094
-6.90595e-06
-0.000215917
0.341901
0.00130563
-0.0438521
-0.00418178
-0.000248434
-0.00459425
0.465367
0.0546578
-0.0927088
0.0190834
1.24003e-05
0.329785
-7.85804e-05
0.0791411
0.00431078
-0.011603
0.471538
-0.00130783
0.28683
-4.57388e-06
-0.195921
0.194941
0.0796185
-0.000218783
-0.016432
-0.0013095
-0.0399697
-0.0481138
0.00217138
0.0049215
-0.000545569
0.000211677
1.90484e-06
-0.0024561
0.0889934
-1.8852e-06
-0.00237731
0.0902486
0.0722519
-0.0347297
-0.0228874
-0.0105311
8.48034e-06
-0.00474746
-0.000514407
-0.0152272
-2.68388e-05
0.000888771
-0.00110411
0.0523587
-0.0961315
0.0659839
0.211982
0.0337867
0.192196
-0.0312529
-0.0209772
-0.0227475
-0.0187925
-0.000575506
0.321744
0.0258992
0.0269141
-2.97488e-05
-0.0746831
0.0187202
-0.00244784
0.000217376
-0.0162844
2.95021e-06
-0.0236942
1.26445e-05
-0.130627
-0.00924804
1.16964e-05
-0.000971612
-0.000274245
0.000389438
-0.000251561
-0.0748838
-0.091947
-0.0236276
7.79378e-06
0.0237203
-0.000125255
0.00224757
0.212463
-0.0418864
0.211001
-0.0442613
-0.0126829
2.23207e-05
0.0207269
-0.000249053
-0.0168836
-0.00802364
0.590534
-0.00242118
-0.000162948
0.191286
5.15249e-05
0.0317903
0.193742
-0.0478626
-0.0119955
-0.00864421
-5.28656e-07
0.327706
-0.00467046
0.47715
-0.00117818
0.0395163
-0.0137843
0.000293309
0.168313
0.000217038
5.14818e-05
0.346928
0.446572
0.0041529
-0.00227682
-0.00469512
0.173041
-0.00182387
9.9492e-05
0.0930353
-0.0124707
2.40327e-06
0.00661131
-0.00476123
0.0532848
0.000685605
-0.0414916
-0.0412049
-0.00917317
-6.08829e-07
-0.00240672
0.00612686
2.36768e-05
0.000978775
-0.0215732
-0.0611288
-0.0223516
0.00656224
-0.000503972
-0.028099
-0.00855871
-0.000573332
0.0261619
-0.0177631
0.0004853
-0.00928012
-0.0100405
0.00238768
-0.172855
-0.048213
-0.0243681
0.0499147
-0.0482411
-0.00170661
0.00321104
-0.000537739
0.011476
-0.0206972
0.355191
0.0954271
0.211836
-0.000168528
-0.00306067
0.118644
0.0138806
-0.128384
-0.00168065
-0.0016383
0.367509
-0.0206294
0.056735
-0.0554936
-0.0483848
-0.00826646
-0.0218923
-0.0118941
0.103327
0.290042
0.0139275
6.06696e-06
-0.00296597
-0.0265508
-0.000420554
-2.49546e-05
0.03697
-0.0284189
-0.0479942
0.208928
0.46309
1.35831e-05
-0.00973878
-0.0208977
0.0161808
0.00288997
-0.0485347
-4.52438e-05
-0.0273102
-0.0185844
-0.00117671
-0.0219933
-2.00846e-06
0.408334
-0.00089092
-0.0228888
-0.054618
0.416439
0.0220377
-0.0312447
0.185459
-0.0203618
-0.0153623
0.104161
0.000440969
-0.000668817
-0.0197895
-0.0024838
-0.113787
-0.00766329
-0.0615543
-0.0954266
-0.00124143
0.00062469
0.0658824
-0.023129
-0.0174599
-0.0447328
0.376777
-0.000934644
0.0889346
-5.08536e-05
0.483544
0.011816
-0.0390149
0.019859
0.000325558
-0.043807
0.0120332
-0.0481613
0.0962228
-0.190387
-0.0131758
-0.00279551
-0.00609512
-0.00117698
-0.00554633
-0.0341672
-3.19097e-05
0.0146249
-0.000432553
-0.00754811
-0.00108421
-0.0170522
-0.0359257
-0.0240508
-0.00317339
-0.0445687
-0.0287213
-0.00122422
7.58924e-05
-0.0257611
0.000133026
0.00924754
0.403422
0.0833606
-0.0712233
-0.18403
-0.0362223
6.72926e-06
-0.0278176
0.205888
2.93498e-05
0.015812
-0.000997731
0.0753029
-0.000147166
-0.0352712
-0.048398
-0.0236364
-0.166301
-0.00550678
-0.0307895
0.0343093
-0.0127533
-0.0226034
-0.165022
0.00336411
-0.00200502
0.209301
0.193564
-0.0197057
-0.00144041
7.77029e-05
0.36759
0.000588664
-0.0044414
-0.0433103
-0.00517268
-4.0221e-05
0.0135127
0.587039
0.0440831
-0.0216416
0.00639467
0.0723711
-0.0489699
-0.0282097
-0.00201148
7.02083e-06
-0.000156074
-0.000971239
0.549972
-0.00269824
0.00587272
-2.87822e-05
-0.000618262
-0.00304813
-0.0113129
0.0501332
-0.106688
-0.0148172
-0.00782245
0.0012832
-0.0033413
0.49415
-0.0262311
-0.0026686
0.168055
0.125293
0.0119542
-0.0021387
-0.012473
-0.00230177
-0.00762123
1.91239e-06
-0.00040509
0.00503409
0.113127
-0.0339311
0.289457
0.553327
-0.0182295
2.0371e-06
-0.0112496
-0.0158001
-0.00105695
3.49428e-06
-0.0665705
0.0670983
-0.0230407
-0.000358927
0.00407011
0.0029844
-0.000108869
0.000207806
-0.000875791
0.00631614
-0.031414
-0.0118683
-0.0080547
0.00459908
0.00936644
-7.11161e-05
0.181796
-0.0456961
0.00131992
-0.0337334
0.0773308
0.16741
-0.0165068
0.0191602
-0.0182878
-0.00134068
-0.165197
0.000536605
-0.000424861
-0.0153142
-0.0238414
-0.00140851
0.289618
0.186274
-0.182064
-0.0256175
5.20725e-05
-0.00555296
0.013135
-0.00515715
-0.00823293
-0.00203432
0.00135196
-0.00260359
-0.00249853
-0.0030773
-0.000327849
-0.0988392
8.03574e-05
0.00922864
-3.72406e-08
-0.0484826
0.00029162
0.314549
0.195959
0.134345
-0.0253894
0.146829
0.0710837
-0.00144419
0.00141912
-4.73741e-05
-0.00336545
-0.0222575
-0.00545711
-0.00573993
-0.0057964
0.000287765
-8.42404e-05
0.000202147
-0.000597089
0.040297
-0.00688668
-0.0157581
0.000125088
-0.0671814
0.000612169
-7.14918e-05
0.165541
0.0492307
0.225301
8.56938e-05
0.000165012
0.0014636
-0.0174846
-0.00455523
-0.0601157
-0.0228719
0.100311
-0.00626816
0.289947
0.000638828
0.00126787
0.266473
0.204439
-0.0450872
0.00211144
-0.0478438
-0.00626697
8.64322e-05
0.00915034
-0.04543
-0.0204648
-0.0315948
-0.00692182
0.0438799
2.48595e-07
0.00215319
0.0233154
0.024778
0.332197
9.14979e-07
-2.77713e-05
0.00152328
-0.0205867
-0.0003492
2.86371e-05
9.95412e-05
0.496125
-0.0344817
0.209753
-0.0152927
0.390369
0.0984903
-0.00258544
-0.0679487
-0.0426516
-0.00773578
-0.000662198
-0.00329336
-0.000944935
0.327786
-0.0199499
0.282629
-0.013522
0.132674
-0.0154967
-0.0110645
-0.110966
0.106879
-0.0020503
-3.88171e-05
-0.000104711
-9.10946e-06
-0.00715413
-0.0396752
0.000286035
0.0118613
-0.000111711
-0.000113462
0.00175296
-0.0124293
0.000652415
5.07831e-05
-0.0177298
-0.00345713
-0.00337352
0.345631
-0.045732
0.00539151
-0.0100191
-0.0283364
-0.000327576
5.05313e-05
9.05342e-07
-0.0280384
-0.0423628
-0.0251926
4.94284e-05
-0.0116683
0.0517683
-0.107657
-0.0170431
-2.82376e-05
-0.0221168
-0.0118367
0.000154254
2.17296e-05
-0.0224748
0.00147953
9.84675e-05
-0.0512473
0.000450907
-0.0428569
-0.0179042
-0.0152334
-0.0145792
0.000230086
-0.0309054
0.000322595
4.91575e-05
0.00370657
0.237505
0.413054
0.164708
-0.00780641
-0.00984781
0.181884
0.0116949
0.00028613
0.0318555
-0.0120546
-0.0105872
-0.00322985
0.0498324
0.000884668
0.16267
0.000538599
-0.00445033
-0.0153897
0.200281
0.000316161
-0.0197589
-0.059268
0.0981169
-0.0197131
-0.00438248
-0.0795108
0.000112618
-0.180838
-0.00364765
0.0162122
-0.0172838
0.00229067
0.068539
0.188906
0.40516
0.146872
0.154179
-0.0361451
0.174927
0.012029
0.199966
0.228721
-5.096e-05
-0.00112977
0.410667
6.1326e-05
-0.193492
-0.0866989
-0.0155415
0.0008148
0.0250078
-0.000973185
0.00143859
0.337061
0.465878
-8.93133e-05
0.000330469
0.000327671
4.94626e-05
-0.169794
0.206604
0.111309
2.63765e-05
-0.0293588
-0.0239943
0.000569825
-0.00171828
0.0649316
0.457485
-1.71083e-06
1.12113e-06
0.197682
-0.0019269
-9.20465e-05
0.028639
0.00358145
-0.00263847
-0.00151457
-0.194943
-0.0129913
-0.000952197
-0.0236663
0.000339286
-6.24498e-05
-0.00222361
-0.0222533
-0.000138371
-0.0177311
0.000681776
-0.0190299
0.202785
2.06435e-05
0.583931
-0.0307378
0.390085
-0.0190174
-0.000329122
1.6912e-05
-0.000244263
-0.00454117
0.0950381
-0.00195669
-0.0112361
0.344449
-0.0437143
-0.043916
0.00731538
0.00687807
0.344186
-0.000289192
-0.0195907
-0.0157879
0.000266738
-0.00822254
0.000696477
-0.0065944
-0.0413998
0.510276
-0.0437549
-0.00158949
-0.0167853
-0.00190819
0.0201353
0.067041
-0.0113394
7.05749e-06
0.207515
-0.0106714
-0.04916
-0.00197988
0.00428383
-0.0276364
0.00380953
-0.117447
-0.00057973
0.285667
-0.00447619
0.0670981
-0.0310396
0.0236039
2.43879e-06
-0.02703
-0.0177874
-0.0200004
0.0277602
-0.0512895
0.000347932
-0.100927
-0.000967155
2.84545e-05
-0.00187276
0.00030509
0.462766
0.000272984
0.312146
-0.0171674
0.0225775
0.00237239
0.0736683
0.00280687
0.126914
3.63344e-06
-0.0196333
-0.00125237
0.00112884
-0.0209339
5.63332e-05
-0.0575714
0.435904
-0.0846157
0.000286675
-0.0845657
0.0945375
0.352752
-0.000258816
-0.000176107
0.00119389
0.000231244
0.419917
-0.0113319
0.0598754
0.114458
0.000223563
-0.0706897
0.146582
-6.33928e-05
0.0155616
0.407719
-0.0015115
-0.000287418
0.000420146
0.00272764
-0.0153187
-0.00462524
0.27281
-0.00760643
0.519483
0.610882
-0.00194081
0.000142367
0.283046
-0.00260656
-0.0133961
0.000313976
0.116227
-0.0311412
0.493671
-0.00116703
6.79026e-05
-0.0107241
-0.127714
-0.0292677
-0.00134982
0.0096505
0.0962739
-0.000103184
-0.0978227
4.63337e-05
0.00132862
2.8148e-07
-0.176457
-0.0460501
0.163819
-9.6587e-06
0.405097
-0.000262577
-0.00780373
-0.000382391
-0.045798
-0.00999972
0.0577815
-8.68411e-05
-0.0280154
-0.00137124
-0.0102515
2.50217e-05
4.8536e-05
-0.000147451
-0.0317121
0.00125017
-0.000721382
-0.0236869
0.000168571
0.000347022
-0.000587334
-0.000321168
0.180197
0.0495808
-0.147061
-0.0194306
-0.0395779
-6.73169e-07
-0.0834694
-0.0419724
0.000399175
-0.0251694
-0.00133031
-0.0269329
-0.126347
0.000526915
-0.0124444
2.94731e-05
-0.00435789
-0.000241803
0.188202
-0.00582273
0.000214221
-9.73092e-05
0.0227519
-0.0358387
-0.00258966
8.86856e-05
0.275678
0.286686
0.0011972
0.0491294
-0.0874011
-0.0446425
0.000148176
-9.95665e-07
0.233883
-0.0261197
0.000175023
0.00717223
-0.000569218
-6.53645e-07
0.0429007
-0.0540955
-0.0436168
-0.0465455
-0.0172493
-0.00489614
-0.0130668
-0.000464606
0.133828
-6.0557e-05
-0.0247795
0.0310167
1.58803e-05
-0.0808501
-0.0081281
0.115575
-0.00057121
-0.00740438
0.367406
0.037812
-0.0323317
-0.0161034
0.204797
0.00477536
-0.00969312
-0.0276715
0.203555
-0.000780281
-0.000214603
-0.0930557
-0.00764224
-0.0100796
0.543759
-0.00475744
-4.65828e-07
-0.204384
0.00188955
0.00426469
0.126635
-0.111686
-0.0419175
-0.00156846
0.117241
-0.0165887
0.0434453
-0.00420295
0.0934154
0.0683346
-0.0212022
0.0886714
0.172171
-0.000240761
0.0402525
0.462313
-0.0912407
0.000401741
-0.0406942
0.114291
-0.0123884
0.024156
0.201529
-0.00308232
-0.00145922
-0.00396046
-0.00301548
-0.0132521
0.0199371
0.00034365
0.345521
0.509592
-0.0267095
-0.00127295
-0.0282325
-0.030684
-0.0287019
0.193755
0.273201
-0.00158123
-0.024818
-0.0306056
-0.000652315
0.0469556
-0.0460687
-0.00210111
0.0352762
0.000295869
0.127987
-0.115113
0.101432
-0.0235133
-0.174955
0.317172
-0.000925372
-0.0349385
-0.0738633
-9.32842e-05
-0.0175222
-0.0744128
-0.113839
-0.0474399
-0.00356645
-0.0101762
0.00220399
-0.117227
-0.000215282
-0.011715
-0.0487851
0.148151
-0.0420378
-0.0437408
-0.00701471
0.00135225
0.161779
-0.0330128
-5.52439e-06
-0.00195969
-0.000223019
-0.00953086
-0.0159474
-0.0011524
0.0455817
-0.190842
0.00338972
-0.027749
0.0308677
0.0324841
0.00130124
0.00245527
-0.00266254
0.566825
-0.0249429
2.2156e-06
-0.00206508
-0.000224854
0.274685
-0.0104528
5.22827e-07
-0.00742089
-0.00132701
-0.0459381
0.0995883
0.0499257
-0.0889859
-0.0172918
0.000836843
0.367053
-0.0204892
0.0745806
-0.00448365
-0.0782763
0.00709061
0.00253431
-8.37414e-05
-0.00913041
-9.18055e-05
-0.0477106
-0.00071282
-0.0990161
6.94377e-05
0.0555604
5.2472e-05
-0.00201705
0.000123849
0.101287
-0.0171986
0.327497
-0.00607736
0.0754126
-0.165918
-0.00060355
0.322956
-0.0311189
-0.0160807
0.620683
-0.000349278
-0.00719817
-0.187729
0.0250763
5.36029e-05
-0.0130646
0.00474214
-0.0347112
-0.0206889
0.407211
0.0018986
-0.189983
0.0991181
-0.111227
0.00314819
0.00138569
-4.24607e-07
-7.6244e-05
-0.00121551
0.0126324
-0.000278538
-0.00240938
-0.00165704
0.349891
0.32638
-0.0487502
0.000114199
-0.068144
0.0382111
-0.132283
0.000113814
-0.0920143
-0.0315732
7.28025e-05
-0.00388151
0.0305652
-0.0230478
-0.000504182
-0.0426029
0.553791
-0.0632568
0.000287653
-0.0465545
0.0256107
0.000421945
9.37732e-05
-0.184988
-0.00117639
-0.113809
2.37477e-05
-0.00678881
-0.0314023
0.492139
-0.00820201
0.0038961
-0.0161854
-0.000103698
0.100085
-0.000234959
0.0204485
0.111403
-2.03591e-05
0.0281752
0.00154408
0.494361
0.618684
0.0107504
0.442416
0.372078
-0.0948453
-0.0236726
0.000219615
-0.0102478
-0.0341832
-0.00116932
-8.86882e-05
-0.000813262
-0.000445969
-1.82737e-05
-0.00991313
-0.000406295
-0.0244613
-0.0530064
4.78973e-05
-0.000127132
-0.170831
4.8682e-05
-1.0136e-05
0.0973017
-0.0118932
-0.0280781
-0.000689836
-0.0463083
0.0110262
0.0368994
-0.00250683
0.00311801
0.12553
0.0338508
-0.0311337
0.000576479
0.000519986
1.97778e-05
-0.0206451
0.279945
0.00840139
1.92901e-05
-0.18641
0.000123318
1.90246e-05
0.0921163
0.000558399
0.482799
-0.00124601
0.201548
-0.00579079
0.00306992
-0.00657298
-9.25516e-05
0.122706
-0.00052637
0.00131961
0.445654
0.408163
0.57533
-0.00168979
-0.146003
0.034566
2.93101e-05
-0.0308183
-0.00383354
0.199622
0.249261
0.00215615
-0.129496
7.94044e-05
0.0385548
-0.000399669
-0.00808945
0.0041103
-0.00136346
-0.00307026
-0.0118563
-0.0023314
0.070927
0.0998341
0.00171375
0.122087
-0.022103
-0.191924
-0.00488798
0.029574
-0.0171545
0.570963
0.318403
0.0124527
-0.015466
4.75442e-05
-0.000376373
-0.0203299
-0.0411225
-0.0295023
0.0323245
0.190251
-0.164944
0.0777061
-0.00015749
0.00724455
-0.00431259
0.171354
-0.0471509
-1.97701e-05
0.12282
-9.19797e-06
5.95273e-06
-9.35734e-06
1.14808e-06
9.10253e-07
0.173102
0.00261185
-0.0217524
-0.000697538
-0.152731
-0.0342034
0.332037
0.00177612
-0.000619807
-0.00209951
-9.41938e-06
-0.000466515
-0.0668378
0.00999772
0.118085
-0.00410617
0.0995234
-0.0159548
0.00613098
0.0188823
0.000545801
0.438879
6.45157e-05
-0.00254701
-0.00043288
-0.0156868
-0.00686052
0.170236
-0.00265394
4.18436e-05
-0.0765302
-0.00373039
0.194136
2.71072e-05
0.000118021
9.75084e-05
-0.0267324
-0.00129641
-0.0195955
-0.0456487
0.0750271
0.323735
-0.00116877
0.000157035
0.000723869
-0.000881579
0.0754655
-0.0414077
-0.00230307
0.0282464
-0.193449
0.000568514
-0.0773487
-0.00197041
0.00203573
-0.0338249
-0.000194675
0.0160133
0.192789
0.299813
0.142194
-9.5106e-05
-0.144371
6.17747e-05
-0.0251279
-0.0255013
0.0711879
-0.00709836
-0.0955885
-0.0232327
-0.0285415
-0.00318214
-0.00706004
-0.0230335
-0.0873412
4.97113e-05
0.0656468
-0.000379289
0.244479
0.0389714
-0.00124663
0.00012128
0.000607715
-0.011988
3.50688e-05
0.0786153
-0.00705501
-0.0810845
-0.0571927
0.0439363
0.343941
-0.00939129
-0.0232171
0.109002
0.0167508
-0.000744875
0.00413715
0.580409
0.00136277
0.00174628
-0.16482
-0.00896634
-0.0221421
-0.00269196
0.246875
0.000154739
0.0909029
0.356435
5.80905e-06
-0.0102039
8.9366e-05
0.0706494
-0.00913953
0.00589814
-0.00467185
-0.00926395
-0.0219561
6.97108e-05
-0.00110652
-0.0106737
0.00731102
-0.00265216
2.88788e-05
-0.0015959
-0.0249532
-0.0455491
-0.00400653
2.959e-05
0.0132775
-0.000745063
0.000630173
0.0222905
0.135893
-0.0143882
-0.020206
0.0719677
-0.000462758
-6.40725e-06
-0.0258393
-0.000230674
-0.000290867
-0.0120742
0.0688083
3.87982e-05
-0.00487959
-0.00154119
0.0167182
0.000129516
-0.000243615
8.79765e-05
0.0719129
-0.000749672
-0.00254346
0.0155312
-7.63131e-07
0.000176616
-5.99385e-05
0.170883
-0.000867176
-0.00439046
-2.80641e-05
-0.114578
0.122354
-0.00245214
-0.0887949
1.53016e-05
-3.91949e-06
0.00673928
0.000105003
-8.84493e-05
0.326309
0.00312221
-0.00150612
-0.0473231
0.000108287
0.00056339
-0.00825641
-0.00101703
-0.00059809
0.425788
-0.000132752
-0.0431928
0.206744
-8.32965e-05
-0.0231697
-0.000302138
-0.0215678
-0.0327327
0.019567
-0.00514888
-0.000309251
-0.00500467
-0.105142
-0.00225967
-0.0122711
0.000752515
-0.000485401
-3.03043e-05
-0.000128212
-0.0528169
-0.0197331
0.0823153
0.00205369
-0.0101944
0.559932
0.0923278
-0.0425279
-0.000121588
-0.0202017
-0.0258238
0.0357309
-0.0394726
-0.068757
0.0712133
0.0784636
-0.0139275
-0.0389131
0.319919
-0.0428139
0.000200662
-0.0467141
-0.0482826
-0.00486324
0.00527377
-0.0170265
-0.00110097
0.0168566
-0.0267184
0.279821
-0.0347526
0.285172
-0.0297109
-0.000402328
0.0022502
-2.14097e-05
5.68268e-05
1.94559e-05
0.149832
-1.57309e-05
-0.0220076
-0.00013991
0.00699604
-0.0322204
-0.000230123
-0.00995017
-0.0232938
-7.20909e-05
0.139128
0.00412094
-0.000613421
-0.0221136
0.0634926
-2.30835e-07
0.0374575
0.000586684
0.175694
-0.0349695
-0.0305514
-0.0229349
-0.000605547
-0.000433882
0.0965062
0.170404
0.168592
-0.00393782
-0.0244356
0.277012
0.0424013
0.00568271
-6.32524e-07
0.0911464
0.0153757
-0.000155128
-0.0854634
0.346589
-0.0160592
0.000544238
0.509833
-7.19857e-05
-0.00574889
0.0697661
0.18028
0.0769771
0.0768602
0.379331
0.243951
-0.00013183
-0.000377579
-0.000689314
-0.00059582
0.0798139
-0.0217605
0.297173
-0.0128816
-0.00489117
-0.0137868
-0.066795
0.000457358
0.000660252
-0.000370781
-0.0278047
-0.00089704
0.00600848
3.15671e-05
5.08422e-05
0.000133179
1.9986e-05
0.000525147
-0.119362
-0.00452828
-0.132789
-0.120097
0.539008
-0.0296602
-0.000182329
-0.00129141
-0.126739
-0.000586334
-8.00814e-05
-0.0103808
-0.00165601
-0.000389283
-0.00516571
0.0258485
-7.07976e-06
0.00383168
0.00260357
-0.000254881
-0.000175527
0.00235259
0.00299584
-0.0308016
0.0330299
-0.0506783
-0.00903558
-0.0105619
-0.034477
-0.000753215
3.25238e-05
0.000161598
-0.00319032
0.124237
-0.141013
-0.00421042
-0.00746473
-0.0793811
-0.000277916
0.348663
-0.00825477
0.0613287
0.00056921
-0.000355554
0.000127421
-0.0546948
-0.0478552
0.343262
0.367695
0.0932506
-0.0101685
-0.0247325
-1.56302e-05
3.74762e-05
-0.00578851
-0.11788
0.159063
-0.0785855
-0.0257932
-0.0268962
0.127024
0.00812638
-0.103662
1.91646e-06
0.03944
0.129045
0.00365605
2.38119e-06
-0.00586114
-0.00313632
0.166809
0.0687653
0.00220374
-0.0107803
0.559792
-0.00900233
3.37181e-06
2.79652e-05
0.00652566
-0.0101689
0.0679893
2.97817e-05
-0.0574542
0.00172303
9.68536e-05
0.405613
-0.00575736
0.069036
-0.00636786
0.000583973
0.010701
-0.056591
0.206328
-0.0154909
-0.00932044
0.421419
0.000522164
0.0192416
0.0768456
0.295272
-0.000748632
0.0657777
8.92491e-07
0.00043025
0.0990283
-0.00844231
-0.00232621
0.0370097
0.000144334
0.160514
-0.0505698
1.42255e-05
-0.0420887
-0.00136597
-0.00510701
-0.000138443
-2.48005e-05
-0.027923
-0.10356
0.000579324
-0.00379225
0.00138523
0.0771768
0.318888
0.000176575
-0.00136683
-0.000270867
-0.0288054
-0.000160727
9.67257e-05
-1.07207e-05
0.314709
-0.00817346
0.000652439
-0.031338
-0.0221884
-0.0433299
0.32101
0.242451
0.174871
1.51041e-05
-0.180647
-0.0293944
-0.00632384
-0.0398275
-0.000763488
0.127211
-0.0124374
0.00589325
-0.000601184
0.0122625
-0.0430554
0.00963652
3.12095e-06
0.029582
-2.50925e-05
-0.000164576
0.0115427
-0.000936651
-0.0261419
0.545061
-0.00811918
0.00105066
-0.00176005
0.11045
0.182977
0.340193
0.195068
-0.0446094
-0.0013905
-0.000470401
-0.0158846
-0.0230168
0.00174115
-4.01151e-05
-0.0510897
0.00124434
-0.0189198
-0.00740445
-2.86478e-06
-0.0868551
0.0107165
0.383851
0.0981187
-3.30329e-06
0.0249509
0.000594789
-0.0413985
-0.0445311
-0.00927479
0.325914
-0.000309872
-0.0272781
-0.0150983
-0.000262794
0.000137133
-0.0225912
0.0898672
-0.028699
-0.0273962
0.00958885
-0.0887526
-9.15409e-07
3.59586e-05
0.00676433
0.00339791
-0.0215697
-0.000465954
0.199448
-5.91163e-05
-3.46032e-07
-0.000510963
0.00224406
-0.00843987
-5.63052e-06
-0.0190376
0.0345241
0.109665
-0.00166496
0.273037
-0.0129659
0.111336
-0.00678565
0.0060884
9.18415e-05
0.012477
0.008302
0.0443551
0.475324
0.142983
-0.00744285
0.000576037
0.17105
-0.00631012
0.210566
2.46616e-06
0.0456636
0.120136
0.376104
0.000207059
1.46274e-05
0.226862
0.36242
0.0810418
5.3221e-05
-0.137517
0.0514212
-0.00249301
-0.000799243
0.0028907
0.0189268
0.00618495
0.282088
-0.00132852
-0.030521
-0.00220678
0.00120695
-0.000949449
0.330556
0.0762062
-0.00455287
-0.000509534
0.0631238
-0.0574917
0.0034995
-0.0254724
0.000237738
-0.0246475
0.0110011
-0.00973091
-0.00175274
-0.0433323
-0.00628074
-1.16223e-06
-0.0816308
-0.00212818
0.000193361
0.00736183
-0.00108401
-0.00262043
0.0190352
5.2992e-06
0.01165
-0.034464
0.243619
-0.000125281
0.513187
1.15862e-05
-0.00528268
0.00523564
-1.83301e-05
-0.00489712
-0.00131749
-0.0442622
0.143864
-0.0174262
-0.0552565
-0.0300617
0.233538
1.24795e-05
-0.0927469
0.0302274
-0.0190446
1.56476e-05
0.554045
0.00430838
0.00645187
-0.00280122
-0.00182787
-2.39213e-05
0.245763
-0.00398126
0.0967924
0.000212658
-0.0347599
-0.000739611
-8.5645e-07
0.264455
-3.09851e-05
0.126218
0.442009
0.209194
-0.00582191
0.115572
0.121637
0.217252
0.27855
0.168803
0.397473
5.70961e-06
-0.020403
0.120311
-0.000338157
0.197668
-0.0297251
-3.1393e-06
-0.000141209
-0.0228666
0.515412
0.00272183
0.00397162
0.0726918
-0.000141816
0.000119517
0.00615189
-0.020167
0.00624729
0.202686
0.493095
-0.0195684
0.287244
-0.0284087
0.0263624
0.331788
-9.36371e-06
0.17643
-0.0047402
0.0184828
0.00129741
-0.0825472
-0.00873574
-0.0335141
6.56597e-06
-0.0153031
1.99947e-05
0.124785
0.516098
-0.196281
0.000682515
-0.0341907
-0.0261304
-3.05597e-05
0.00479138
-0.0215564
0.00498471
-0.0220106
-0.019443
-0.000401592
0.000330987
0.0333492
0.000188778
-0.0239433
2.31826e-05
0.0812103
-0.00107999
-0.0260024
0.0001861
-0.00404758
-0.027707
-0.0101896
-0.0413794
0.000614232
0.0494591
-0.0255904
-0.0468985
-8.25527e-05
0.0324042
0.0332502
-0.0623525
0.278558
-0.00499162
-0.0473211
0.00722427
-0.00350835
0.00410461
8.85768e-05
-0.112249
-0.015308
-0.00245019
-8.03468e-05
-0.000536689
0.068673
-9.39268e-08
-0.000331235
0.000109608
-1.00437e-05
-0.00135348
0.322772
0.582789
-0.000246794
-0.00664183
-1.02067e-05
-0.0405232
0.00241671
-0.00706112
0.0158543
-0.0010766
0.0992554
0.00217434
-0.000965106
-0.00109826
-0.00399238
-0.000600436
-0.000175745
0.235946
-0.001472
0.508321
-0.0177205
1.27904e-05
0.074179
-0.000517006
-0.0196765
0.123612
-0.00265995
-0.0175989
0.487482
-0.0270881
0.000730611
-0.0594769
0.0387582
-0.00504308
-0.0185784
-2.0286e-05
-0.0199208
0.000638781
0.35601
-0.00970703
-0.0214166
0.0163236
-0.00489788
-0.00803532
-0.0129689
-0.0153309
0.111562
0.000943551
-0.0831034
-0.00482072
-0.0014468
-0.000326484
0.00403244
-0.02937
-0.000800209
-0.0578492
0.00445059
0.000697485
-0.028807
-0.000201862
-0.000317024
-0.00109332
-3.15061e-05
-0.0454859
0.000968178
0.100182
3.84831e-05
-0.000347256
9.19216e-05
0.446874
-3.17284e-05
-0.0412289
0.0283613
0.114129
0.00034264
-0.00359261
0.00245797
0.00159448
-0.0108969
-0.0295266
-0.0271627
-0.0174361
-0.00447846
-0.000268737
0.0755707
0.0239092
-0.0283328
-0.000711491
-0.155113
-0.0289735
-9.01889e-05
-0.00587212
0.0365115
0.486902
0.313072
-0.00229794
-0.154013
-0.00892158
-0.000348178
-0.00012879
-0.0198089
-2.06944e-07
-0.0745381
-0.0182164
-3.25288e-06
5.30622e-05
-0.0319563
0.00842007
-0.0238897
0.0333797
7.60601e-05
-0.0292952
0.013404
-0.0241225
0.000183892
-0.0282601
-0.000294939
0.145236
-0.000396455
-0.0370034
-9.98464e-07
-0.00191629
-0.0228954
-0.100799
-0.00927396
-0.0228107
0.000151142
-0.0049999
-0.00891632
-0.01927
-0.0523595
0.00384876
0.0388819
0.519653
0.00289047
0.0196246
0.000351118
7.76614e-05
-0.000113707
-0.0296551
2.17391e-05
-0.00111052
0.0644294
0.44916
0.479569
-0.000478621
0.237375
-0.00515984
0.000650836
7.53842e-05
-0.0156965
-0.0275347
5.18784e-05
0.0202261
-0.0143306
-0.0774239
-0.047394
-0.048212
-0.0186437
2.93487e-05
0.000743583
-0.0055287
0.152769
-0.0280619
-0.0367961
-0.024869
0.473471
-0.00729525
0.109546
-2.54289e-05
-0.0257306
-0.00342308
4.2957e-05
0.000865618
0.000752965
-0.00269196
-0.0475996
-0.0017977
0.0183815
0.315757
-0.00515475
2.30091e-06
3.00671e-05
-0.0205978
0.0272569
-0.0199428
-0.00682584
0.000981322
0.00046885
0.0817458
-1.85509e-05
-0.0147754
-0.000482889
-0.00539837
-0.00258906
-0.00275404
0.0627584
0.00677175
0.00462177
0.0216484
0.617966
-0.0533749
0.17515
0.0728143
-0.0340591
-0.0447932
0.00394647
-0.0341007
-0.0145004
0.100407
-0.0136331
8.99706e-05
-0.00417407
-2.04576e-07
-0.0422576
-0.00177783
-0.00136467
-0.00454181
0.206597
-0.000123421
-8.75021e-06
0.0105808
-0.0998974
1.10095e-05
2.92558e-05
0.000995887
-0.140225
1.06605e-05
-0.0308543
-0.00082434
-0.0213224
-0.0213155
-0.0678721
-0.0114937
0.119239
-0.0316648
0.000215044
-0.00051339
0.210138
-0.00525659
0.011738
8.75109e-05
-0.0176444
-0.0178037
0.000116604
-0.0121524
-0.0181038
0.0024691
0.332939
-2.16559e-05
-0.0985602
-0.000529524
-0.00074817
-0.000255625
-0.00259779
0.152559
0.00333627
2.27816e-07
0.0874838
-0.00854953
-0.000302892
-0.113531
-0.00102063
0.0266329
-0.0438717
-0.000103399
-0.00104415
-0.0297497
-0.0206861
7.32512e-05
-0.110261
-0.0203373
0.00794487
-0.0283096
0.00773202
0.324565
-0.00565758
0.0201477
0.0937923
-0.000306773
-9.33857e-05
0.198146
7.42606e-06
0.60575
-0.010464
-1.82854e-07
0.111924
0.144789
-0.147369
0.000784625
-0.0256476
0.0276053
-0.00413877
0.00834186
5.82949e-08
-0.00540245
0.035066
-0.0190167
-0.0131373
-0.00168609
-0.0342346
-0.00314975
-0.00189107
-8.81549e-05
0.0363797
0.475518
-0.0252892
-1.72888e-08
7.30487e-06
0.00100495
-0.000937124
-0.111335
0.111967
-0.0348887
-0.0185955
-0.0727743
-0.10327
0.450543
5.93027e-05
0.00663775
0.00465433
-0.0358937
0.00140289
0.0525628
-0.00167368
-0.000528244
-0.0055369
-3.45846e-06
1.89189e-05
0.0280036
-0.00123197
0.196841
-2.21031e-05
0.0367636
-0.00663684
-0.0231788
-0.0179704
-0.0179632
-0.0475267
0.00805759
5.24796e-06
0.0467378
-0.072261
-0.0064556
0.0729523
-0.0340869
-0.0129049
-0.0265745
-0.181335
0.0758105
-0.126086
0.0449692
0.000418346
-0.0176799
0.000170104
0.10849
0.00901652
-0.000119102
-1.97924e-06
0.0810612
-0.000567509
0.03357
0.172874
-0.118127
-1.78029e-05
-0.0164863
0.343699
0.0726604
-0.00437157
0.110197
0.0579275
0.0342965
0.000294448
-0.00111509
0.0116707
0.144585
-0.0278895
1.95591e-05
-0.000523889
8.49806e-05
-0.0366556
-0.0332708
0.0367817
0.0311742
-0.0150383
-0.115645
-0.0300788
-0.0557917
-0.0300295
0.276148
0.0234622
-0.0576261
-0.00114661
1.41397e-05
-0.00578427
-0.0712227
0.0014261
-0.000136194
0.0932397
0.0808617
-0.0232526
0.082136
0.00318681
0.347891
-0.000902088
0.127741
-0.0760648
-0.0010779
4.52321e-06
0.0247264
-0.0221406
-0.000526047
-0.00915362
0.177589
0.193854
-0.0127882
0.328045
0.128105
-0.0220544
-0.0198086
-0.0399836
-0.00235721
0.10745
-0.0368501
-0.000181585
-8.81538e-07
-0.000498258
-0.0241063
-0.00365069
-0.016554
-0.0571483
-0.120827
-0.000636825
0.364414
-0.0101232
0.19013
0.520949
0.114689
-0.0488716
-2.12026e-06
-0.0212298
0.00127011
-0.00538543
0.336577
0.0850194
0.0714082
0.451491
0.00478307
0.0285808
-0.026562
3.78463e-05
0.247916
-0.00309567
-0.0413317
-0.0169664
0.00556318
2.89752e-05
-0.0608512
0.042757
1.87587e-06
0.515529
0.0557437
-0.000216951
-0.000135842
-0.00071018
0.201802
0.0520267
-4.63602e-07
-0.000724661
8.16804e-05
-0.00011069
0.0011205
-0.000710763
-0.00519691
-0.00255024
-0.00136722
-0.00542382
-0.000255692
-0.000213841
0.0227603
-2.8876e-06
-2.58402e-07
-0.0465657
-0.0304334
-0.00184363
0.267425
-0.0276406
-0.000370077
-0.00552464
2.28462e-09
0.00278224
-0.0390235
-0.0814555
-0.0874655
-0.000189067
0.197319
0.00138814
0.100236
0.0110426
-0.01376
-0.0157224
-0.0064381
4.89896e-05
0.00596466
-0.0855688
0.00021902
-0.0281283
-0.0313652
1.35426e-05
0.549431
0.0906314
-0.000743642
-0.0355934
0.0897466
-0.0165643
-0.00733562
1.61818e-05
-0.0215705
-0.0122336
-4.92262e-07
0.0536547
1.88254e-05
-0.000631726
-0.0257058
-0.0476269
-0.00362415
-0.0046641
-1.57237e-07
-0.0362146
0.00135491
0.112714
-0.0220683
9.30702e-06
-0.00371881
-0.000735617
-0.0489799
-0.139104
-0.0826357
-0.00587556
-0.0427169
0.0820641
0.000799773
5.45594e-06
-0.00181277
-0.0226113
-0.00812303
0.415976
-0.0286606
0.587586
0.000127278
-0.0260441
-0.0471421
0.241381
0.324277
-0.00714157
-0.000998515
-0.0397606
1.39083e-05
0.447025
0.202807
0.0655254
-0.0269616
0.0453586
0.0815816
0.420119
0.157834
0.159895
-0.0375053
-0.109049
0.190923
-0.0459858
-0.00078059
-0.0834048
0.0154877
0.000558201
-0.017621
-0.000117173
0.00344145
-0.00236196
0.00150973
-0.0184445
8.99187e-05
-0.0212545
-0.0895524
-0.0378377
2.10077e-05
-0.00289205
-2.37078e-05
4.10789e-05
0.0977145
-0.0416663
-0.00998275
-0.000221081
0.00739719
6.96089e-06
-8.4e-06
-0.000296407
-0.000159441
-0.118986
-0.0325544
-0.000672175
0.0730883
-0.00105807
-0.0332957
0.0324531
-0.00607933
-0.00120829
9.03246e-05
0.00531171
-0.0268791
-0.00119955
4.29672e-05
0.00278968
-0.0536213
-0.0196431
0.0282867
0.000195237
-0.0212429
0.512241
0.000658271
0.000828441
0.0282699
-0.000276603
-0.000553813
7.93421e-06
-4.42615e-07
-3.52475e-05
0.0114329
-0.0413313
0.37275
0.550384
-0.00017944
9.79585e-06
-0.00018332
-0.0414516
0.624564
-0.0107003
-0.0462317
-0.0280718
-2.386e-05
0.000609723
-0.0333105
-0.00172922
-0.0444601
0.00821104
-0.0772635
-0.0412352
0.00102884
0.469997
-0.107647
0.000380511
-0.00104467
0.00609575
-0.0149469
-0.114592
-0.04497
-0.0061034
0.244744
0.347832
0.0970886
0.216081
0.0545319
-0.0483148
-0.0057712
0.00325752
0.0418217
-0.0227625
0.00031416
-1.33598e-06
-0.0847046
-0.104872
-0.000407384
-0.0184648
-0.0435704
-0.044783
0.338548
-0.00116712
-0.0208767
-0.0105437
-0.0240285
0.0512671
0.0182184
0.00300722
-0.00182555
-0.0119147
-0.0098201
-0.0079583
-0.0229713
-0.00305927
-0.0446488
0.182858
-0.0252932
-0.0110601
-0.00293466
0.123258
-0.108643
-0.0407209
-0.0691784
7.27887e-06
0.20719
0.0358345
-0.0281171
0.00134446
-0.0167792
-0.0104818
-0.00130491
-0.034625
-0.00931787
-0.0854381
-0.00453588
0.00138573
8.71427e-05
-9.85759e-05
0.0241995
-4.81797e-06
-0.0126988
-0.0272608
-0.0282394
-0.000111916
0.000112542
0.000182981
0.0012869
-0.00852991
0.0121194
-0.0370302
-0.0422118
-0.0487176
-0.00765547
-0.00167562
0.426369
-0.00785471
-0.00249757
0.273187
-0.0110852
0.253785
0.41298
-0.00678615
0.0877408