/*--------------------------------*- C++ -*----------------------------------*\
  =========                 |
  \\      /  F ield         | OpenFOAM: The Open Source CFD Toolbox
   \\    /   O peration     | Website:  https://openfoam.org
    \\  /    A nd           | Version:  7
     \\/     M anipulation  |
\*---------------------------------------------------------------------------*/
FoamFile
{
    version     2.0;
    format      ascii;
    class       volScalarField;
    location    "16.5";
    object      p;
}
// * * * * * * * * * * * * * * * * * * * * * * * * * * * * * * * * * * * * * //

dimensions      [0 2 -2 0 0 0 0];

internalField   nonuniform List<scalar> 
7807
(
2.05881
1.69009
2.226
2.07038
0.984201
0.303649
2.26127
1.25945
0.631598
1.78581
0.262883
1.11181
1.32763
1.62006
1.79568
1.44386
2.06473
1.38633
1.36674
1.62724
1.73381
1.03034
1.56103
1.99566
1.42133
2.06772
0.970833
1.66806
1.92862
1.3879
1.46911
2.31536
1.56196
0.841964
0.50547
1.73402
1.40401
2.24834
1.3374
0.719281
1.33939
1.43667
1.63412
1.73455
0.630372
0.409672
1.02039
1.32636
0.402863
1.62856
1.17465
1.65451
1.45668
1.56758
1.73374
1.24859
1.35547
1.25765
1.51461
0.839387
0.326551
1.22075
1.61944
1.12219
0.868162
1.47035
0.621095
0.053338
1.88877
1.31586
0.395569
1.59446
1.40702
1.50896
1.37026
1.55836
2.21569
1.72541
1.80677
1.59363
1.31635
2.31141
1.81007
1.50994
1.13756
1.10133
1.27442
1.44425
0.989436
1.16675
1.93772
1.74401
0.544922
1.32454
1.1945
1.45866
1.59415
1.57064
1.13743
0.945352
1.5647
1.81866
1.18467
0.201515
1.75645
1.95388
2.54809
1.2549
0.0154317
1.6243
2.05104
1.64018
0.0249001
1.63756
1.95282
0.866467
1.67084
1.88371
1.57381
1.52481
1.58026
2.29588
1.63875
1.43711
1.55592
1.03314
1.43989
1.35105
0.913197
1.46132
1.71041
1.8007
0.892337
1.00172
1.52335
2.04213
2.60177
0.204249
1.33868
1.67623
1.50517
1.60154
1.56058
1.5108
2.54345
1.60245
1.93263
1.51776
1.52183
2.28724
1.72116
1.74718
1.10895
1.86976
1.80593
2.20729
1.57157
1.32218
2.3622
0.37876
1.33125
2.01061
0.235256
1.252
1.21739
2.11409
2.11673
2.34543
1.25
1.18341
0.0632131
1.51554
0.85211
1.69831
1.35363
1.49774
1.77378
1.9415
0.551608
0.887506
2.07504
0.348498
0.482148
2.25122
1.69024
1.62175
1.57068
1.49983
1.5986
1.69416
0.235684
1.58873
1.94982
1.18725
0.416675
1.99212
0.993458
1.45323
1.58996
0.0631528
1.08327
2.0529
1.98045
2.23091
1.67101
1.64351
1.66133
1.68786
2.04867
0.616344
0.304959
2.44791
1.42771
0.887185
1.58708
1.44734
2.17075
2.18607
1.60136
2.33191
0.975783
1.38837
1.57608
1.75874
1.63806
2.02667
2.38339
0.523286
1.43371
1.90141
1.29923
1.87963
0.996892
2.32476
2.20871
1.2707
1.36115
0.71047
1.94892
0.499803
1.38942
1.59352
0.416151
1.1588
0.986178
1.94176
0.260587
1.19044
1.59088
2.28759
1.78818
2.37306
0.308374
1.5873
0.738087
2.22461
1.2107
2.5713
1.38075
1.09242
1.64014
1.69626
0.855794
0.647532
0.861243
1.30865
1.63069
0.293615
1.56756
1.20081
0.557652
0.909067
2.40949
1.3034
0.873465
2.48844
1.15611
2.05498
0.733511
1.52536
0.0864037
1.55344
1.74758
1.78521
1.51744
0.878373
1.62006
1.46897
0.617194
0.847427
1.20805
1.3126
1.15377
1.10042
1.50835
1.63638
1.49952
1.74394
1.54883
2.16751
2.17945
1.04684
1.76474
0.078827
1.2394
1.4759
1.98465
1.83654
0.488467
1.22733
1.531
1.9481
1.02851
1.18607
1.0276
1.8348
1.6951
2.12928
1.06185
1.70664
0.537764
1.35911
0.373419
1.50231
0.735623
1.54781
1.74615
1.54722
1.52815
1.41185
0.82885
1.63452
1.4729
1.83108
1.94391
1.65173
1.72472
1.47497
1.29917
1.59739
2.33881
1.72208
1.65685
2.37436
1.07377
1.08067
1.73494
1.1066
1.59819
1.29671
1.16121
1.09403
1.9221
0.584661
0.841966
0.442605
1.1824
1.38085
0.116383
0.963204
1.50832
2.35673
1.54267
1.42002
2.39416
2.19604
1.80021
1.7741
1.53468
1.30752
2.09361
1.35867
2.09984
1.60275
1.64518
1.98254
2.09832
1.56079
1.82388
2.02454
2.06859
1.68777
1.17963
1.23639
0.481517
1.58766
1.38057
1.12265
0.534854
1.05659
1.61946
1.869
1.4598
1.40863
1.21617
1.69949
1.32433
1.33393
1.99823
1.04538
0.357562
0.61509
0.517568
1.48912
1.9122
1.27129
1.62407
1.63494
2.25413
1.35156
1.3504
1.26742
2.39113
0.938946
2.12282
1.94008
0.517144
1.60112
1.17164
1.60499
0.833849
1.80722
1.48574
1.33565
0.946106
1.92495
1.95126
1.62002
1.5139
1.219
1.57403
1.86329
2.37499
1.68624
1.37578
0.0269958
1.41867
1.11317
1.62317
1.63203
1.75086
2.30597
1.93033
1.67108
2.00362
2.42316
1.57663
1.12486
2.0938
1.09647
0.668051
1.37213
0.4691
1.65589
1.48224
1.55171
1.11341
1.99772
1.10564
0.328308
1.64073
1.09041
1.79363
1.57168
1.5645
1.81148
1.90285
1.8367
1.84422
0.676352
1.86208
1.84323
0.905462
1.45258
0.849849
1.54094
1.55759
1.24192
1.02145
1.9402
0.257165
0.647757
1.09037
1.48783
1.58043
1.53589
1.5375
1.62619
1.64195
1.63446
2.07825
1.757
1.30315
2.33073
1.59688
1.39021
1.52542
1.46835
1.45673
1.37727
1.65159
1.72057
0.352235
1.62091
0.474011
2.18947
1.89973
1.24979
1.35435
0.611922
2.32997
2.12949
1.8426
1.95724
1.60002
2.77338
0.562149
1.70368
1.42376
1.94755
2.39282
1.84962
1.91556
1.40736
0.641681
1.94094
1.72455
2.34362
1.79061
2.02902
1.31178
2.2799
2.11484
1.35629
1.32585
1.91614
1.58396
0.597803
1.41269
1.58902
1.61849
1.40288
1.40717
0.651126
2.12748
1.39349
0.515404
1.63269
0.858329
0.658436
1.43042
2.0211
1.63853
2.40379
0.395701
2.01608
1.61478
0.629647
0.187868
1.92401
2.01119
1.22997
1.98326
0.274243
1.99938
1.65254
1.36726
2.51504
1.58224
1.94746
1.51419
1.99607
2.00675
1.45218
1.48858
1.37905
1.17046
0.686654
1.38492
2.08376
0.32325
1.98683
1.64536
2.21327
1.971
1.59523
2.35224
1.0721
1.58125
1.66745
1.52244
1.30222
1.61134
1.73694
2.35727
0.337637
1.09875
1.63723
0.0829099
2.18632
1.0825
0.0955699
0.632758
0.754397
1.49577
1.61101
1.05189
0.428914
1.30845
1.43219
1.63057
1.63152
1.57253
0.191948
1.64264
1.40823
1.91974
2.24482
1.19252
1.92169
0.60009
1.39782
1.75803
1.3069
2.03908
1.4115
1.71155
1.76864
1.92818
1.47745
1.37031
1.97379
1.61943
2.22264
1.35744
2.06326
1.35356
0.980827
1.90172
1.58296
1.78694
1.07175
0.0804433
1.63392
1.99305
1.19085
1.91244
1.40205
1.64043
1.68187
1.54215
1.06803
1.31915
1.61334
1.51898
1.36053
0.788974
2.23687
1.91354
1.63152
0.660617
2.11715
0.225038
0.641397
1.92184
1.54975
1.96768
1.66798
1.55431
1.70377
1.64185
1.80647
1.0177
1.56137
0.386687
1.41462
2.02735
1.44441
1.15897
1.60342
1.09578
0.966838
2.41392
1.36754
0.916255
0.0550125
1.86553
1.5427
0.847513
1.15074
1.91787
1.8321
1.55838
0.153498
1.94816
1.47998
1.9849
1.46122
1.50134
1.52855
0.501524
1.7604
1.82401
1.83328
1.65068
2.08651
1.27721
1.96895
1.43597
1.62594
0.767641
1.48868
0.775832
1.93427
2.04026
1.06115
1.57158
1.46164
1.6567
1.65059
1.07993
1.6937
2.35772
1.81174
0.593069
1.82421
1.35575
3.45158
1.39809
1.51985
1.60445
1.52324
1.49123
1.31995
1.43249
1.30031
1.73012
0.496615
1.67348
1.77339
2.15602
1.55351
1.97327
1.07212
1.68122
1.57642
2.00676
1.31814
0.630007
1.48182
1.3715
1.68989
1.50062
1.49476
1.74773
1.42107
1.59891
1.62022
0.0982109
1.75319
1.61628
1.94773
1.69559
1.78204
1.64349
2.11058
1.65659
1.53719
1.61113
2.5866
1.68051
1.40357
1.63971
1.64181
1.64591
1.65607
1.96198
1.16278
2.08085
1.34371
0.85877
1.12375
1.79934
2.29815
1.30866
1.62261
1.93424
0.213908
1.48194
1.60729
1.72029
1.34301
1.12458
1.56455
1.34692
0.253732
1.58014
2.05433
1.60496
1.44286
1.05003
1.93495
0.886353
1.00192
0.755305
1.10281
1.84546
1.6362
1.50709
1.45753
0.412088
1.65295
1.73856
1.64601
1.55141
1.50238
0.648063
1.43502
1.59246
1.82409
2.22633
1.1801
1.59067
1.25353
1.65165
1.93754
0.773262
0.683193
1.92578
1.80478
1.56283
1.17542
1.08592
1.58863
0.762883
1.59932
1.383
2.15815
2.05196
1.68105
1.61866
1.30733
1.56822
1.78513
1.62264
1.61597
0.0747152
1.77114
1.51123
1.6283
1.5993
1.56969
0.803466
1.16737
1.9736
1.52543
0.0444521
1.15454
1.68966
0.589443
1.62748
0.548476
1.46188
1.62865
1.67485
0.542931
0.263147
1.82198
1.62796
2.35931
2.0532
1.75765
1.09271
1.58948
0.637019
1.69987
1.65244
1.79278
1.4406
2.04319
1.56793
0.83108
1.56163
1.65737
1.05132
1.63756
1.59002
1.56295
1.5292
1.68919
1.58729
1.49913
1.67939
1.9487
1.64691
0.0124508
1.65253
1.58801
1.65493
1.49972
0.876297
1.60548
1.63696
1.60353
1.5758
1.91264
1.66201
1.50572
1.5214
1.65813
1.61984
1.68688
0.755085
1.86177
1.98226
1.25907
1.99776
1.64278
1.64878
1.63175
1.96772
1.78057
2.35177
0.0842607
1.83215
1.93747
1.38276
0.99126
1.39829
1.76033
0.426693
1.41676
1.61221
1.41723
1.44856
0.535106
1.71302
0.854327
0.870583
2.03824
1.45353
1.87293
1.54593
1.97684
1.54776
0.955613
1.6759
1.48349
2.27626
0.924432
1.60919
0.848684
0.790433
1.52715
1.66766
0.380241
1.28808
1.61057
0.945593
0.29635
0.556983
1.87012
1.71573
1.40334
0.898291
1.4363
1.40197
1.46076
0.841881
2.12663
1.68614
2.00183
2.08512
0.58227
1.86194
1.85872
0.871961
0.757898
0.993145
1.74503
1.6411
1.5851
1.57164
1.61511
1.91584
1.66034
0.105908
1.43002
1.47725
1.5217
1.18131
1.38685
0.915946
1.55515
0.761354
0.867999
1.4267
1.18357
1.46906
0.118255
1.38709
1.59766
1.71396
1.68862
1.29035
1.34252
1.292
1.20741
1.62303
1.29372
0.495601
0.873779
1.57419
1.34576
1.20316
1.41006
1.48032
1.63395
1.34015
1.87855
1.35214
1.57772
1.52429
1.45559
1.3891
1.15356
1.22906
1.14653
1.37511
1.39147
1.96512
1.90892
1.73907
2.22498
0.36782
1.29332
1.39409
1.28897
1.8611
1.43286
1.75796
1.31493
1.98932
1.06621
1.06116
1.67409
1.5849
0.69978
1.54865
1.22078
1.44029
0.21532
1.2367
1.04908
1.41522
1.69846
1.54092
1.42164
1.37393
1.50358
1.79247
1.05607
1.02897
1.03349
2.36834
0.741887
1.78337
1.45172
1.43878
1.48155
1.57256
1.49801
1.51515
1.43519
1.19976
0.473749
1.17416
1.49758
1.77139
0.965004
1.93922
1.50918
1.37145
0.872835
1.49153
0.465818
1.86303
1.49847
1.47652
1.46381
1.33373
1.52372
0.987019
1.53574
1.76399
1.47273
1.62651
0.95434
1.4777
1.4245
1.38228
1.14076
1.84873
1.06686
1.43552
0.918337
1.88511
1.53265
1.48037
1.13432
1.32267
1.11701
1.9671
1.72695
1.98928
1.30902
0.970862
0.926253
1.09205
1.96381
1.58503
1.27068
0.659359
1.48425
1.61204
1.052
1.57186
1.39661
1.63592
1.19922
1.52064
2.86051
1.58457
1.4674
1.57849
0.258514
1.6983
1.14334
1.48918
1.23498
1.51852
1.37904
0.833891
1.10723
1.09444
1.96113
1.20872
1.02351
1.19558
1.58457
1.28533
1.43643
1.33362
1.2855
1.24442
1.13696
1.97071
1.55147
1.12522
1.15986
1.47677
1.37387
1.55865
1.05028
1.75397
1.52045
1.28414
1.05577
1.38123
2.31951
1.9638
1.3381
0.784177
1.08761
1.61611
1.17947
1.49287
0.827917
1.55904
1.02393
1.3897
1.73358
1.04563
1.48177
0.951224
2.15942
1.28504
1.33856
1.73447
1.13757
1.47435
1.86019
2.30198
1.33602
1.35092
1.01719
0.911392
0.217811
0.0491279
1.32447
0.863642
1.88613
0.959542
1.0183
1.38344
0.634408
1.54865
1.62147
1.4021
1.5593
1.48106
1.84063
1.65011
1.74622
1.67299
1.74519
1.80727
1.35635
0.914374
1.35217
1.62653
1.13854
1.38426
1.81981
2.11271
1.61658
0.761071
0.520796
0.945051
0.146935
1.51999
0.904297
1.32879
1.55784
0.745343
1.11881
0.627878
1.78707
1.38349
1.68935
1.07953
2.19721
2.05775
1.33371
1.65331
1.48704
1.473
1.38335
1.0449
1.62851
1.61264
1.55162
1.73041
0.623133
1.96222
1.62413
1.29569
1.61514
1.47398
0.810296
1.30036
0.944668
1.56134
1.14785
1.94369
0.659816
1.30288
0.71256
1.69729
1.31101
1.07552
1.66687
0.819594
1.80215
1.85881
1.48768
0.97484
0.509247
0.828067
0.784557
1.58282
1.81357
1.78572
0.623332
1.49804
0.821528
2.01342
1.58179
2.0386
1.54379
0.736492
0.822052
1.28228
1.21451
0.941559
0.140093
1.54649
1.54659
0.614341
0.880234
1.42849
0.16372
1.90221
0.945158
1.56427
1.42663
1.2319
1.57127
1.58751
1.86805
1.63478
1.42706
0.667496
1.56891
1.43029
1.77143
1.88798
2.18511
0.910886
1.57761
1.58102
2.10258
1.59904
0.479717
1.247
1.16403
1.21139
1.5585
1.8072
0.759247
1.65312
1.30796
1.80924
0.778685
0.693328
1.69374
2.07132
1.57062
1.91122
1.15335
0.607579
0.0198283
1.65379
1.53348
0.815548
1.85528
1.32197
1.21838
2.40255
0.936909
1.19285
1.58105
1.64444
1.04961
1.83442
1.64783
0.524412
1.59959
0.727531
0.503308
1.88509
1.61985
0.72908
1.57121
1.46586
1.12359
1.65337
1.05263
1.46126
1.0914
1.15385
1.58904
1.52752
1.66995
0.963743
1.90337
1.97711
1.66292
1.47534
1.46415
1.19183
1.89861
1.84948
1.47114
0.573378
1.45245
1.5347
1.61716
1.49777
1.08169
1.7317
1.48681
0.485965
0.497029
1.66097
1.53112
1.4628
1.42708
1.75791
1.55059
0.687159
1.07316
0.722256
1.5608
0.199466
1.03999
1.63147
1.64398
1.89649
1.13117
1.13709
1.46051
1.46714
0.538502
1.55847
1.8966
1.88067
0.172028
0.451594
1.88668
1.10681
1.63892
1.51844
1.09381
0.977903
1.57957
1.69683
1.89473
1.54879
0.969348
1.50213
1.57899
0.85149
0.607795
0.932935
1.7249
1.55968
1.91962
0.600773
2.53719
1.76009
0.623222
1.06899
0.767746
0.788885
0.20467
0.592175
1.61317
0.935365
0.702968
0.573755
1.84693
1.22008
0.580414
0.490744
2.14082
1.45051
1.71486
1.06267
0.880376
1.7543
0.532463
1.50532
1.67264
1.00916
1.37586
0.444274
0.634827
1.50546
1.6408
1.23802
1.66933
1.67713
0.206368
1.4414
1.52134
1.77701
0.996566
0.544647
1.57456
1.23175
0.929778
1.56296
0.531078
1.7116
0.721184
0.919509
1.79181
1.22629
1.57592
2.36087
1.08317
0.615242
1.58326
1.61176
1.40054
1.15691
0.507801
1.49986
0.48928
1.95615
2.47809
1.84439
1.0723
1.14699
0.221116
1.49484
0.482843
1.47362
1.03417
0.7981
1.12709
1.41215
0.471915
0.899018
1.4575
0.673807
1.39572
1.40983
1.61765
1.12016
2.46208
1.04095
1.02994
0.6073
1.36169
1.56463
1.32808
0.594111
0.436036
1.21858
0.524673
0.454192
1.43003
0.790158
0.191971
1.56372
1.24098
1.60708
1.01275
0.349683
1.1089
1.59006
1.43364
1.5632
1.02703
0.828236
0.797069
0.974782
0.518549
2.09045
0.943648
0.185237
0.964902
1.08702
0.899497
1.57602
1.55236
0.713892
1.26589
0.200951
1.28422
0.377221
1.5405
0.559687
0.748594
1.3062
0.341026
1.36404
0.654761
0.941743
1.42202
0.216666
2.23212
1.56854
1.53905
0.28857
0.172
1.11175
0.918737
1.57311
0.160227
0.115917
0.890995
0.00140777
0.681405
0.703214
0.772849
0.813412
1.58232
2.29545
1.57
2.1551
1.28077
1.47161
0.192045
0.858066
1.36531
0.575496
0.616254
0.523332
1.82192
1.16996
0.809301
3.72718
0.764559
0.931696
0.725106
0.0444124
1.83926
1.1019
0.886645
0.553098
1.0647
0.343235
1.14333
1.54635
0.724276
1.2163
-0.0452512
1.37227
0.628928
1.94872
0.748781
0.925144
1.60959
1.11406
0.679664
0.964275
0.318596
1.9165
1.60318
0.981598
0.699634
1.26092
0.835919
1.70475
1.85051
1.7767
0.945309
0.0574688
0.0105904
1.76
0.594211
1.56721
1.58109
1.4258
1.79009
2.46508
0.987614
1.97531
1.42045
1.49651
1.92255
0.672577
1.59213
0.150798
1.31618
1.558
0.30535
1.58961
0.874427
1.62614
1.36785
1.52904
1.54144
1.32535
1.58629
1.55824
0.513049
1.32953
0.579192
1.53919
0.195542
0.535622
1.68469
1.90418
0.00971515
1.55107
1.15957
0.421222
1.49177
0.144061
1.36953
0.782924
1.54209
0.462369
0.45985
1.17586
0.707852
1.89592
1.50096
1.83754
0.476384
0.768474
1.48554
0.0260892
1.57519
1.60049
1.56874
2.49812
1.26369
0.153411
1.5288
1.52082
1.27056
0.609019
0.430203
1.55074
0.536691
0.8357
0.0236744
0.61413
1.4909
1.91108
1.66009
1.8238
1.22794
0.00464869
1.41461
1.59429
0.1887
0.143318
0.638028
0.328818
0.682015
2.01572
1.58183
0.304975
0.176731
1.60545
1.9779
1.94002
0.243984
1.52223
1.48615
1.42327
1.54769
1.40576
1.11325
1.85758
0.446564
1.47942
1.91759
1.55853
0.439251
1.56459
0.566442
2.07138
1.59723
0.506418
0.311351
1.9578
0.0487139
0.621974
1.32939
0.295721
2.04526
1.32606
1.24694
1.61932
1.17088
1.6211
1.94628
1.5763
1.70562
0.856727
0.272454
1.02709
0.401795
0.302667
1.67765
1.93909
1.87646
0.802899
2.06154
1.50843
0.168824
1.53304
0.417027
1.48951
1.59383
1.4563
1.25252
0.994087
1.34592
0.801365
1.03926
1.55008
1.12169
0.512663
0.218883
0.33638
1.52897
0.389995
1.52013
2.09033
1.2781
0.284363
1.1303
0.333457
1.86107
0.669486
0.364969
0.376581
0.181663
1.99663
0.667036
2.0319
1.59501
0.514679
1.57118
1.0118
1.89063
2.80978
0.933131
0.0245449
0.280172
0.243616
1.90322
0.0122158
0.968051
1.43667
2.017
0.12692
0.240785
0.0251014
0.194221
1.44214
0.0241737
2.04935
1.46231
0.460671
0.197098
1.01699
1.51624
0.0122246
0.306738
1.90945
0.228263
1.50757
1.64684
0.49572
0.0112858
1.64469
0.012401
1.92333
0.109624
0.778783
0.161056
0.485886
1.74925
0.0958439
1.01802
0.209032
1.54082
1.18454
1.22624
1.3447
1.8845
0.906276
0.467647
1.28911
1.28387
0.600266
0.644618
0.948209
0.34309
1.96419
1.40748
2.31878
0.12215
1.27223
0.816077
1.88574
0.37507
1.49358
0.179073
0.996861
1.51194
0.589637
1.40043
1.56149
1.32353
0.379139
1.6073
0.614527
0.962766
1.21365
1.56325
1.05148
0.687059
0.754547
1.12651
0.948038
0.256529
0.92526
2.82643
0.435046
1.11646
1.51797
1.60759
1.58278
1.55403
1.45383
1.04734
1.55027
0.406282
0.438173
2.41637
0.41214
1.9581
0.69866
0.784586
0.904504
1.66251
0.730265
1.30101
0.279837
0.705455
0.484214
0.408061
1.38696
0.554099
0.587171
0.399387
0.772258
0.31039
1.54988
2.02163
0.134688
0.765663
0.777394
0.234062
0.846553
0.13567
0.861463
0.754331
0.680237
1.58151
0.8272
1.07672
0.101827
1.20095
0.67076
0.121355
0.165668
0.12288
0.830458
0.814854
1.55285
1.50784
1.5826
1.18469
1.24632
1.72409
1.58521
0.374783
1.52618
1.34884
0.850374
1.35504
1.57226
2.28297
0.698305
0.174703
1.02363
0.351532
0.161761
1.69157
1.29857
1.72676
1.57317
2.34737
0.740259
0.0713701
0.544751
0.250194
0.916708
1.91519
2.01242
0.203706
0.601914
0.348139
1.99078
1.63569
1.46686
0.104271
0.154115
1.27106
0.795278
1.60346
1.41366
0.365106
1.1858
1.52481
0.344343
1.07989
0.526707
1.55342
0.96532
1.89597
0.145994
0.98406
1.30864
0.169474
0.583263
1.46211
0.15343
0.867305
0.288053
1.39466
1.55026
1.31157
1.45151
1.27368
1.30091
1.30503
1.06962
0.383522
0.546597
0.248721
0.209015
0.314655
1.37371
1.59115
0.751263
1.60225
1.07809
1.5963
0.414287
0.341227
0.951906
1.72032
0.193115
1.59439
1.42441
1.81396
1.60992
0.241364
1.11911
0.621652
1.67511
1.83915
0.334125
1.58486
1.48975
1.16316
0.358233
0.142305
1.67258
1.38198
0.326932
1.23837
0.446982
0.659525
1.83473
0.11191
0.409576
0.658514
0.319696
0.885516
0.392123
1.18853
0.696403
1.36944
0.955546
0.70352
1.55485
1.54501
1.25185
0.129287
0.233001
1.61726
1.24162
1.55492
0.387733
1.21598
0.217869
0.272493
1.77667
1.21034
1.08956
0.364115
1.4496
0.336015
1.58976
0.31157
1.6118
0.440023
0.0956425
0.399247
0.893941
1.67627
1.41103
1.60336
0.318942
0.50664
1.60807
1.56949
1.27161
0.157293
1.67392
1.57632
1.62568
0.326208
0.173191
0.514389
1.66322
1.60115
0.905129
1.28234
0.461184
2.01178
0.408124
0.356978
0.529883
0.550854
0.196496
1.15802
0.585595
1.11154
1.59937
1.34213
1.54667
0.432987
0.284474
1.73318
1.64317
1.19424
1.80826
0.616611
0.234677
0.211864
1.89478
0.568039
0.715359
0.295543
1.6087
1.3796
0.432264
0.764365
1.32075
1.22256
0.847803
2.01703
1.59612
1.19443
2.29832
0.652171
1.02313
1.39432
1.67992
0.287996
0.469575
0.185685
1.24253
1.56387
0.796476
1.5658
1.24998
0.425145
0.0705285
1.2923
1.61359
1.71382
1.69256
1.54273
1.53006
1.74518
1.49703
0.373214
0.762468
1.67967
0.741993
0.842929
0.939424
0.544356
0.782907
1.31287
0.121006
0.409772
1.69272
1.68819
0.932073
0.7494
0.226883
2.05689
1.26854
0.972249
1.50434
0.571985
0.607041
0.538989
0.367439
0.792883
1.53498
1.58778
0.10443
0.874915
1.55406
1.54514
1.59928
0.719179
0.982847
1.43624
0.30331
0.461134
1.59427
0.201423
1.89893
0.536517
1.15688
0.525098
0.644632
1.60886
1.29636
1.42271
1.03954
0.225608
1.43885
1.65446
1.37771
0.567547
1.75391
1.89297
0.136708
1.56505
0.453519
0.265005
0.282023
0.756552
1.44506
0.572915
0.681736
1.43506
1.47469
1.37766
2.16872
0.49981
0.394684
1.90852
1.58487
1.17537
0.779998
1.90397
0.529585
1.01829
0.645812
0.602552
0.265186
0.304118
0.350785
1.38707
0.372007
1.18995
1.54445
2.03319
0.988368
0.302812
1.19027
1.72652
1.59656
0.81913
1.56789
2.15578
0.312494
2.28413
0.132897
1.19734
1.50142
0.740794
2.38322
0.673343
0.126454
1.03198
0.280799
0.837426
0.652686
0.394717
1.00768
0.638223
0.589184
1.12023
2.04367
1.69556
1.47334
1.54236
0.102454
0.371631
1.22646
1.60234
0.242205
1.56275
0.359852
1.77913
1.6612
1.52962
0.969604
1.41072
0.866317
1.36951
1.45723
1.36142
1.69877
0.0543974
2.03242
1.77463
1.09923
1.99211
1.37948
0.113089
0.462199
0.36802
0.529378
0.651294
2.05052
0.879175
2.05972
1.17557
1.89982
2.0085
1.89298
1.28011
0.272645
0.743699
1.24444
1.63787
1.5704
0.961176
0.58057
1.5289
1.07128
0.736171
0.880253
0.882431
1.14944
1.55588
0.376158
1.52352
1.69831
0.344336
0.718233
1.447
1.60027
0.818887
0.744533
0.47715
0.732436
1.86992
1.43951
1.57187
0.964525
1.86814
1.54104
0.506461
0.402764
1.73143
0.803196
1.845
1.50085
1.36513
0.790522
1.06025
1.53979
0.769957
0.77861
1.62943
1.60028
1.92633
1.59026
1.48796
0.894099
0.275337
1.21723
0.417814
1.60075
1.60054
0.787166
1.25449
1.11617
1.64078
0.823083
0.724534
0.566263
1.54391
0.349899
0.773804
1.81692
1.93088
1.6377
1.60616
1.63319
1.7168
0.950985
1.52613
0.476944
0.0663476
0.862433
0.054704
0.869479
0.692731
1.28696
1.66063
1.33178
1.53199
1.65816
1.60811
1.19346
1.59856
0.738216
1.30604
1.40854
0.742014
1.75177
1.22187
1.37599
1.45925
1.17891
1.26092
1.18795
1.66127
0.926277
1.43683
1.42146
2.34746
1.49308
1.75913
1.7465
1.55839
1.08861
0.730325
1.04506
0.66701
1.0566
1.48657
0.424261
0.920027
2.06935
1.09484
1.54289
1.37746
0.864003
1.26658
0.317666
0.249031
1.65461
0.395985
1.10222
1.76014
1.3312
0.889547
1.50453
1.24463
1.1365
1.64914
0.95971
1.19619
1.57839
1.01657
1.2984
1.03497
1.38989
0.934487
1.66141
1.03611
1.25178
1.58319
1.45247
0.971085
1.58019
1.39493
1.3932
0.856832
1.25145
1.6164
0.85017
1.24664
1.58775
1.41188
0.93769
2.00982
1.52376
0.239511
1.28061
1.58196
0.894575
1.96015
1.28946
0.921345
1.63824
0.985348
1.35687
1.82434
1.01356
0.929907
0.65216
0.70175
1.18231
1.38732
1.00672
1.46689
1.79996
1.51299
1.62179
0.916597
1.12348
1.11627
1.65205
0.680832
1.56805
0.797473
1.39939
1.00232
1.1945
1.77823
1.8558
1.62514
0.388912
1.97904
1.19574
1.33107
1.57482
1.62882
1.41232
0.283126
1.19123
1.28059
1.10718
1.20835
1.00914
1.76128
1.57509
1.34883
1.22156
1.66013
1.45297
1.43331
0.995337
1.09521
1.10453
1.84687
1.00455
1.6432
0.900936
1.24482
1.35194
1.63037
1.36772
1.63581
0.402722
0.432029
1.47178
1.38186
1.22367
1.6319
1.79951
1.56762
0.68877
1.62518
0.976534
1.62328
1.4776
1.62396
1.62856
1.63992
1.68032
1.75909
1.78995
1.81817
1.84664
1.8748
1.9537
1.97898
2.0027
2.04379
1.26498
1.33134
1.7743
1.54689
0.992472
1.62364
1.54173
1.09167
1.16565
0.0534345
1.41093
1.44529
0.381025
1.0886
1.27064
1.57492
1.61797
1.53636
1.58081
0.83016
0.997138
0.25036
1.62442
1.34877
1.53824
1.52175
1.04857
1.00203
1.17841
0.234367
1.6296
0.810383
0.74826
1.48917
1.30617
1.17205
0.726072
1.59706
1.36617
1.76178
1.62038
1.50583
1.92854
1.42808
1.21593
1.46437
1.17164
1.33644
1.44057
2.23943
1.23708
0.631784
1.2663
1.36412
0.0597242
1.71966
1.28858
2.17989
1.7273
1.58583
1.48516
1.71944
1.37266
0.337962
0.0786745
1.20512
1.61247
0.609772
2.14234
1.12613
1.26411
1.06025
0.717928
1.39178
1.90171
1.70959
1.82437
0.809191
1.3852
0.0615841
1.51971
1.41042
1.4345
1.65009
1.23256
1.28724
1.16518
1.39938
0.0927251
1.42762
1.16846
0.765991
0.72201
1.66719
1.08437
1.8711
1.33809
1.24431
1.6718
1.78151
1.66047
1.44429
1.71737
1.3922
1.9273
1.70476
1.16675
1.56518
1.21261
0.309415
0.756362
0.471592
1.30348
1.22395
0.709343
1.45995
1.46367
1.13556
0.888567
1.14888
1.55326
1.87474
1.54549
1.57776
1.2593
1.78397
0.999
1.81283
1.36346
1.18831
1.57335
1.59783
1.79842
0.331119
1.50769
0.879244
1.1295
0.957669
1.2614
1.83063
1.15834
2.03718
1.44895
1.73375
1.40828
1.16211
1.35101
1.70625
1.65407
2.02384
1.67988
1.49203
1.91301
1.55769
1.23879
1.58437
1.28551
1.51607
1.88899
1.16294
2.07029
1.28106
1.74551
0.563539
1.76987
1.8818
1.58986
1.44036
0.644356
0.0572413
1.22193
1.28375
1.53628
1.52716
1.24931
1.53525
1.89631
1.70155
1.63915
1.47486
1.11218
1.18179
2.00836
1.21323
1.90429
1.59695
1.21089
0.837323
1.05584
1.50228
0.915246
1.22021
1.60519
0.777391
1.28152
1.61322
1.56266
1.99597
0.0061143
1.48897
0.983286
1.48366
0.699302
1.59493
1.8253
1.59738
1.51438
1.32319
1.39886
1.19729
1.25892
1.71858
1.55111
0.153921
1.42555
1.38966
0.771489
1.34442
1.4341
1.3616
1.52355
0.269226
1.87852
1.55408
1.32222
0.747322
1.34272
0.723661
1.68087
0.820251
1.48216
1.04265
1.53296
1.24755
1.27874
1.45838
0.675203
1.35963
1.27676
1.90667
0.988236
1.30811
1.28612
1.27175
1.8227
1.40679
1.68587
1.48722
1.03853
1.81358
1.62508
1.0201
0.445887
1.65049
1.56878
1.27445
1.51651
1.50595
0.938944
1.72398
1.5042
1.40536
1.35308
2.08584
1.50138
1.70245
1.54692
0.679626
0.175307
1.40385
1.4105
1.91052
1.36524
1.58056
0.674567
2.31931
2.25652
0.933273
1.9647
2.34599
1.52726
0.131077
1.88713
1.87083
1.15267
1.48523
1.06698
0.184828
1.8578
1.75451
0.187566
1.59381
1.03133
1.59689
1.78404
1.53744
1.57219
1.51295
1.12273
1.00053
1.33209
1.75241
1.56412
1.95413
1.31108
1.69997
1.42801
0.565464
1.42561
1.18139
1.85124
1.38465
1.86435
1.13917
1.6284
1.53423
1.85762
1.40373
1.25463
1.54698
0.71948
1.42538
1.80442
1.42131
1.89244
1.43811
1.44863
1.6324
1.72821
1.6426
1.45184
0.866011
1.53471
0.922449
1.37408
1.25113
1.57274
1.45413
1.59928
1.13737
1.64721
1.55575
1.5285
1.74341
1.80244
1.14555
0.0882382
1.29396
1.9543
0.372818
1.22769
1.36385
0.679581
1.51553
1.44549
1.15323
0.920711
0.913361
0.711837
1.52631
1.46509
1.53264
1.57095
1.15354
2.1085
1.63395
1.53569
1.54574
1.02866
0.695493
1.45046
0.899722
1.32369
2.12648
1.88447
1.86067
1.18773
1.3891
1.01203
1.65451
1.83807
1.79557
1.87411
1.89066
1.46927
0.867834
1.06608
1.6414
1.48325
1.90432
0.233935
1.30939
-0.240146
1.5202
1.58165
0.939064
1.52386
1.54164
1.5858
1.88338
1.85534
1.73857
1.86253
1.75383
1.75484
0.257249
1.51595
1.53112
1.65781
1.49994
1.53755
1.74058
1.65897
0.898456
1.57151
1.80603
1.85328
1.63623
1.84023
1.47256
1.48372
1.64245
1.24178
2.26214
0.454798
1.6176
1.68359
1.41543
1.24292
1.56732
2.29904
1.49724
1.68256
1.25778
1.62398
0.689795
2.01633
1.56588
1.50988
1.62569
1.6
1.67504
2.19479
2.08312
1.201
0.741258
1.16771
0.703143
1.53471
1.20509
1.67473
0.264577
1.04202
1.77657
2.17129
1.51179
0.024577
2.35016
1.62426
1.71168
1.13611
1.87169
1.59486
1.71344
1.87585
0.11234
1.84092
1.52315
0.576302
1.67393
1.65466
1.68215
2.20813
2.21057
1.29654
1.62858
0.898399
1.52019
1.53339
0.40855
1.86895
1.62474
1.52891
1.7166
1.30139
0.225787
1.27011
1.49749
2.07576
1.54317
1.06979
0.486534
1.20201
0.372623
1.51946
1.55236
1.31434
1.56028
1.57091
1.56084
0.0922543
1.57967
1.19955
1.62921
1.67481
0.424808
0.0102106
2.24636
2.14439
2.33479
2.03701
1.60613
1.14573
1.60661
1.58177
0.667181
2.12062
1.72206
0.805747
1.82386
1.78353
1.75136
1.63272
1.58999
1.98978
1.62992
1.68103
1.24089
1.63783
1.64325
1.77693
1.80192
1.83138
1.85867
1.96223
1.98978
1.77925
1.58221
2.42979
1.27597
1.75298
1.56783
1.20941
1.77662
1.67932
1.34443
1.60548
1.63301
1.58192
0.509573
1.56445
2.17803
1.73277
2.14466
2.06852
2.33198
1.68207
1.63138
2.20915
1.60172
1.94027
0.816645
1.17905
0.889312
1.58961
1.77722
1.6885
1.6001
1.68525
1.58348
1.767
1.54428
1.78347
1.58958
0.913053
1.46988
1.62673
1.27964
1.64014
1.46535
2.56941
0.117346
1.74517
1.25777
1.38211
1.22036
1.76188
1.10895
1.59382
0.318428
1.25735
1.77572
1.55557
1.45289
1.44041
0.261466
1.76833
1.88672
1.56275
1.55013
1.75898
1.26649
1.07277
1.89788
0.194294
1.67467
1.51947
1.61184
0.0857851
0.896284
0.197387
1.60262
1.89048
0.142384
1.30294
0.44962
1.68467
1.49972
0.549386
1.53421
1.61337
2.2571
0.417508
1.70629
0.949169
0.809613
0.817789
1.91268
1.65917
1.58732
1.58731
2.0393
1.51913
1.86722
0.0593405
2.06433
1.79556
0.122252
1.62674
1.74482
0.658155
0.396324
1.53424
1.54523
2.30243
0.453803
1.55069
1.54295
0.221033
1.61802
1.02694
1.50469
1.95925
1.51849
1.50311
1.3054
1.26382
2.08375
2.16197
1.0168
1.63723
1.543
2.05239
1.65711
0.665164
1.72892
1.63061
1.63623
0.899251
1.54767
1.80489
1.58839
1.71028
1.57432
1.60071
1.57871
1.60808
0.219517
1.49839
2.31933
0.892023
1.36398
1.24453
2.61717
1.7907
0.0106393
0.0243296
1.90363
1.90211
1.41685
1.6018
1.58756
0.278467
1.46003
1.47447
1.87315
1.15287
1.99903
1.47521
1.6613
2.19629
0.615305
1.48956
1.65771
1.68061
1.46367
1.32298
2.13379
1.65656
1.79429
1.57891
1.6126
0.478835
1.92882
1.10886
0.660053
1.58185
1.76176
0.997365
1.40191
1.61799
1.8293
1.18648
1.54892
1.08186
1.47648
0.684364
1.64751
1.1191
1.78163
1.5445
1.91601
1.33362
0.347554
0.882766
2.31337
0.26317
1.58693
1.57482
2.11054
1.69405
0.945432
1.41861
1.56281
1.58641
1.69876
1.58079
1.82235
1.38357
1.82836
1.53162
1.43607
2.12664
1.17251
1.46753
1.93316
1.84432
2.39182
1.58719
1.5162
0.853876
1.60367
1.63166
1.8066
1.37251
1.51987
0.82462
1.52037
1.13167
1.71182
1.52126
1.66583
1.00764
1.53107
0.804889
1.81076
1.54138
0.881811
0.329588
1.73581
2.32211
1.68604
1.49545
1.38251
1.23369
2.15786
1.54773
0.113532
1.65133
1.63563
0.06668
1.34459
1.52845
1.33615
1.19977
1.81954
2.1055
2.07114
1.55965
1.13544
1.57041
0.638607
1.97116
2.28497
0.431305
1.32986
1.74091
2.29548
0.17788
2.1062
2.30501
1.5639
1.16519
1.37042
2.12298
1.2832
1.60306
2.45121
1.22501
2.13777
1.47131
1.45263
2.27362
1.91207
2.1356
2.08404
1.07887
0.0977082
1.93944
1.70652
1.3535
1.70113
1.71104
1.60578
1.48206
2.11855
1.20947
1.26621
1.63732
1.71297
1.4801
1.60819
1.67025
2.08744
1.6512
1.47246
2.26154
1.05379
0.294899
1.6591
1.57505
1.67573
0.56235
1.29703
0.163678
1.70074
1.56031
0.225689
0.958661
1.06418
0.595001
1.73041
1.35738
1.23972
1.44246
1.58248
1.32951
1.14543
2.08568
1.50833
1.51058
0.9251
1.36263
0.496502
1.59482
1.82036
1.70359
1.916
1.26979
1.79866
1.93733
1.99137
1.47494
2.25777
1.47288
2.09348
1.6323
0.0797414
1.51815
1.51172
1.49189
1.86569
1.57178
0.951957
2.2187
1.25142
1.87383
1.53124
1.84663
1.72251
1.14241
1.51896
1.60571
1.00827
0.799603
1.35104
1.55426
1.21297
1.22143
1.60197
1.92152
1.28118
1.50985
0.0460733
2.40427
2.3263
1.27942
0.926535
1.50901
1.51659
1.58708
0.601676
1.76317
1.5632
0.792312
0.766844
1.62188
0.833669
1.5004
1.56943
2.11312
1.59121
2.1843
0.811958
1.34676
1.39325
1.84333
1.77954
1.62909
1.15792
1.39732
2.06191
1.53294
0.920304
0.28664
1.14965
0.0854289
1.6723
1.41471
1.48207
1.1524
1.88799
0.490627
1.18193
2.01052
2.03129
1.47305
0.959748
1.97895
0.594328
0.851726
1.76726
0.878045
2.46071
1.52485
2.10641
1.67216
0.30008
1.26652
2.23611
2.14009
1.41877
1.445
1.21877
1.84968
1.79708
1.36698
0.957509
1.69689
1.59272
0.105477
1.55306
1.57641
1.58973
1.22971
2.44515
1.40137
1.47616
1.57901
0.863732
0.153459
0.98563
1.45634
2.13179
1.67032
0.350823
0.810277
1.62114
2.24927
0.56025
0.784527
1.73582
1.59785
2.19978
1.50437
2.1633
2.13507
0.528023
2.07506
2.12336
1.52543
1.74799