/*--------------------------------*- C++ -*----------------------------------*\
  =========                 |
  \\      /  F ield         | OpenFOAM: The Open Source CFD Toolbox
   \\    /   O peration     | Website:  https://openfoam.org
    \\  /    A nd           | Version:  7
     \\/     M anipulation  |
\*---------------------------------------------------------------------------*/
FoamFile
{
    version     2.0;
    format      ascii;
    class       surfaceScalarField;
    location    "16.5";
    object      phi;
}
// * * * * * * * * * * * * * * * * * * * * * * * * * * * * * * * * * * * * * //

dimensions      [0 3 -1 0 0 0 0];

internalField   nonuniform List<scalar> 
11512
(
155.843
-509.458
353.615
-759.17
-16.0718
775.242
424.751
-390.288
-34.4629
648.873
270.328
-919.201
1546.97
-1096.59
-450.379
1208.98
-1522.3
313.318
-57.0611
496.986
-439.925
173.556
-863.266
689.709
979.461
-1645.33
665.869
-1776.53
1686.93
89.6048
-566.206
1775.19
-1167.18
1979.73
-812.552
619.54
183.809
-803.349
-23.1348
-1337.41
1360.54
225.6
-2002.13
1050.83
-390.071
-660.761
-174.716
330.558
494.359
187.933
-682.293
1185.08
-1344.8
159.721
-313.695
388.801
-75.1057
1026.17
-1332.44
306.272
1249.38
818.185
-2067.57
70.4888
-1667.81
1597.32
-500.32
-1157.74
1658.06
481.943
174.926
-656.869
-199.227
-310.231
508.345
1038.62
1674.24
-1830.22
155.984
-103.846
-1687.65
1791.5
-1596.25
664.45
931.799
-313.079
670.918
-357.839
-121.802
-113.418
235.221
1305.95
-1235.46
367.512
-1440.75
1073.24
-1231.99
1231.99
96.8965
1553.74
-1650.63
-1101.82
-494.433
666.076
-723.137
-392.752
965.359
-572.607
1291.55
-1284.01
-7.54131
-1128.24
735.492
645.591
405.241
-391.981
-47.9469
439.928
-437.18
775.723
-338.543
-1087.13
1087.13
1241.39
-1395.92
154.524
-500.139
1749.52
1287.92
-322.556
1696.52
-1184.67
-511.852
87.19
-400.885
2112.57
-1160.64
-951.939
1840.46
-166.215
450.685
143.282
-593.966
-459.065
991.341
-532.276
-1187.52
1284.41
-582.138
996.09
-413.952
413.785
771.291
671.802
-498.246
-448.94
612.78
-163.84
1219.93
-852.415
2354.01
-1102.7
-1251.3
1190.38
-2054.74
864.367
-1627.39
1604.26
451.17
-1618.35
-697.698
1206.2
-508.502
-691.05
377.971
1697
-717.542
-1128.03
-887.812
2015.84
677.74
-367.913
-309.827
707.041
580.874
-265.959
1507.35
122.291
-330.522
208.231
-290.831
772.774
-314.822
512.446
-197.624
-332.094
826.453
-326.423
-155.341
481.764
338.765
85.9863
1478.21
-452.043
-989.337
496.607
492.73
289.932
91.0939
-381.026
971.263
-351.723
-1737.41
627.324
1110.08
27.6023
-869.376
841.773
-286.798
607.653
-320.855
162.265
-1121.21
958.947
944.197
-960.723
16.5266
383.6
531.436
-915.036
-247.61
698.295
-1128.09
-495.478
1623.57
-551.576
815.789
-264.213
1353.5
-1457.34
-634.719
287.186
347.533
-483.398
-1026.78
1510.18
-554.06
-810.796
1364.86
587.831
-1014.1
426.271
-145.625
-232.968
378.593
421.091
-298.801
-1059.97
600.91
979.537
-817.272
-106.95
841.533
-734.583
-201.126
407.473
-206.347
-627.448
-361.889
-396.904
984.735
1370.13
-1370.13
-461.355
-173.365
-948.884
1571.59
-622.707
385.032
-831.907
446.874
-947.904
365.765
-956.521
-1077.61
-1520.57
360.762
1159.81
-278.627
927.5
-308.036
626.615
-318.579
-1976.22
1019.7
-1155.63
-364.942
569.409
-1518.29
1765.93
-1764.81
-1.11843
225.369
-616.996
391.627
-1474.28
976.08
498.205
299.982
216.408
-516.39
309.961
-624.783
202.908
-332.591
129.682
2035.79
-838.395
-1197.39
-560.205
168.224
634.74
850.594
-1485.33
-168.062
370.97
443.414
896.532
-1339.95
-933.825
406.33
527.495
-1068.17
1481.96
-919.344
221.647
774.075
-103.156
547.648
-277.545
-270.103
1015.55
-518.947
610.767
-1437.73
826.961
-1374.82
246.729
-550.092
263.294
-1199.48
920.856
1996.28
-1123.64
-872.643
274.026
1096.1
-2140.84
913.569
1227.27
242.03
-18.4637
-223.566
-190.488
377.829
-187.341
-119.894
-385.224
505.119
-481.506
155.082
321.958
-67.6107
452.643
417.099
402.046
-819.145
-2048.65
1130.73
917.924
472.938
-548.894
75.9565
170.139
-257.689
87.5499
979.942
1055.85
1807.69
-253.955
726.241
-439.055
814.886
-1423.52
608.634
349.139
328.601
1067.82
-1040.22
-514.062
-243.652
757.714
493.684
-142.228
-351.456
769.603
-585.794
610.188
-796.899
186.711
516.968
1179.55
-1270.7
716.641
1036.04
-1536.36
2.31989
-1470.04
1467.72
333.341
845.462
-1178.8
631.803
265.608
-897.411
-2276.49
1170.33
1106.17
-1129.77
-1146.73
218.272
391.916
982.606
-649.265
750.605
-764.739
14.1342
-2140.12
1012.09
-105.289
-119.282
224.571
-44.4561
1810.38
-842.069
82.8981
-1049.88
-1090.96
-197.414
367.553
-671.705
210.351
-270.575
-427.533
698.108
1123.28
-1606.68
798.602
-1406.98
608.382
706.254
-435.926
1964.07
-1447.1
-363.139
-868.847
79.1709
417.815
-544.056
527.984
2.66791
-575.027
572.359
586.926
-286.943
-607.166
284.976
322.19
799.444
-382.344
20.3793
221.651
1214.38
-1212.06
187.066
234.025
395.76
-666.335
633.876
-1030.78
-2068.88
2068.88
-256.817
-452.911
709.728
718.254
411.279
-1129.53
594.476
179.599
403.069
396.375
-2242.64
1354.83
-947.462
-695.442
1642.9
-486.283
-713.2
-262.723
553.204
-290.481
859.136
-211.697
-647.439
-434.766
660.134
388.133
-696.17
-351.036
-145.975
497.011
-1344.92
-485.306
646.233
-1132.52
-356.789
-730.337
860.886
1493.12
256.352
-477.423
221.071
991.678
-346.087
1424.99
-814.22
459.403
-272.337
-339.35
-898.91
585.33
313.58
-345.074
-553.836
313.908
-433.803
-211.312
-139.242
350.554
-403.514
1121.77
422.718
-234.785
-369.188
1375.15
-180.756
-1194.4
-480.146
275.676
204.471
234.87
248.58
-483.451
10.7195
-807.619
606.4
-1765.95
1159.55
1515.73
-880.986
-1049.9
-424.385
-1084.58
587.882
496.699
1394.34
-418.258
949.793
-1445.27
-171.422
-221.275
392.697
-479.666
597.219
-1665.39
426.265
865.289
279.223
300.897
-580.12
530.075
701.912
1132.86
-735.103
-397.758
411.567
-221.429
-190.138
-1450.63
456.906
755.851
-1212.76
1508.43
-558.638
-490.147
935.939
-445.793
438.667
1207.23
-1645.9
22.7379
-574.314
-147.887
437.819
92.9943
-214.797
528.601
486.952
-662.849
59.016
603.833
1001.24
-1254.21
252.968
678.484
-275.415
482.074
-1480.47
998.394
422.424
1725.01
-534.637
851.847
1144.44
-680.346
-1723.86
776.395
585.047
394.766
-979.813
462.774
82.5384
1787.41
-1869.95
1419.51
-391.467
-1028.04
1735.74
-1780.2
-377.541
-522.723
737.578
-214.854
-521.057
191.982
301.702
-382.298
-1247.59
220.815
-785.588
-652.14
-625.326
1041.75
-416.422
-489.269
482.171
7.09841
590.431
-785.7
195.269
-297.682
89.0866
208.595
-664.307
-698.816
359.599
339.216
-950.425
1432.5
-417.755
903.841
-486.087
-2248.41
5.7669
189.71
-553.78
364.07
151.654
1223.5
-103.011
-568.695
166.359
-615.299
1521.76
-723.158
383.717
-479.257
95.5406
-148.68
148.68
724.285
362.841
1818.28
-1259.33
604.09
655.239
809.62
-40.0166
1321.71
790.862
-554.526
1369.41
297.205
310.448
291.668
-814.391
250.632
-687.813
226.303
-422.867
196.563
-242.437
595.558
-353.121
131.014
-373.451
-605.569
-579.711
1185.28
-363.96
535.761
-171.801
-1195.71
2059.9
-864.185
1321.87
-339.263
-191.932
46.3068
-1988.07
830.33
1546.95
-848.392
-698.558
2028.98
-896.731
-1132.25
731.393
590.476
-238.995
465.299
-677.07
1153.51
-476.436
-787.491
1230.91
564.377
945.607
-1764.77
819.163
-541.637
-80.3084
621.946
300.288
247.36
424.567
-107.125
-317.442
786.277
-75.2811
-710.996
925.917
-556.236
-369.681
1608.56
-485.283
907.635
-1664.12
756.48
1095
869.067
770.287
-458.401
-311.886
-1017.06
-266.953
566.697
598.65
-1165.35
-450.749
506.081
-55.3322
594.49
-357.459
-237.032
-1005.59
587.84
611.913
903.813
-449.941
1040.37
1436.97
-783.173
-653.798
410.898
-950.532
539.633
-1035.88
408.431
563.506
-1053.65
464.928
-524.155
59.2273
481.204
294.519
-125.491
-23.1894
-813.794
-896.993
1710.79
199.314
212.253
-237.765
456.037
-42.3931
-547.697
590.09
492.437
890.216
-1382.65
-536.066
324.754
833.874
-47.597
855.709
-1091.42
235.71
387.699
865.739
-1420.27
-450.481
852.527
2022.97
-1312.69
-710.282
250.252
500.353
243.24
700.957
97.5488
-982.114
884.565
1709.33
-1109.17
-600.161
-142.573
1929.98
-1905.33
-163.548
466.967
-590.705
123.738
-1041.46
539.655
501.803
-1717.14
521.421
-967.072
860.121
402.022
210.758
513.079
-256.727
-438.898
731.047
260.631
57.6368
775.13
-832.767
-1161.61
-870.233
2031.84
-535.44
1112.59
-577.147
-466.971
-134.289
28.9998
-1692.63
878.831
-844.212
-628.467
1472.68
-296.12
-286.595
582.715
369.194
-661.382
292.189
237.86
-620.204
312.136
221.096
-533.233
348.589
-611.312
631.16
-261.967
323.151
-478.491
677.574
410.683
-175.813
-390.171
-308.644
1239.78
-8.26259
-1231.52
1065.27
-431.391
573.401
422.689
-1800.42
865.843
934.573
510.826
552.347
-1063.17
-453.432
157.312
-269.317
1208.73
-939.409
-1580.41
1217.27
517.35
-1122.92
399.382
-15.6657
425.732
309.082
-734.813
382.257
-629.867
-28.8839
773.048
-744.164
-483.379
748.987
381.861
317.133
492.486
671.163
86.7911
-400.198
313.407
994.112
-586.189
-407.923
507.304
-1699.38
1192.08
-1162.1
1790.77
-628.673
1752.41
-1146.01
-341.651
626.627
-1184.47
1282.02
332.41
-818.381
1631.78
-813.397
-250.715
-229.431
-934.834
1504.85
1853.74
-626.199
-1227.54
-416.468
726.113
-1351.44
-77.811
-39.824
464.391
-695.155
-363.74
-1216.67
-233.321
471.181
893.239
-577.598
192.374
-1711.52
-73.6052
1785.13
-1077.1
541.657
586.943
-1209.51
622.569
922.74
930.996
629.934
576.266
694.693
241.246
-1149.09
472.024
-417.309
419.977
639.296
-527.935
260.601
-755.37
494.769
690.755
-341.617
-272.121
158.703
-605.729
225.726
380.003
-910.77
-753.345
1107.07
-2184.68
411.171
-702.002
-336.381
-624.342
854.849
582.122
-360.605
312.658
362.396
241.635
675.466
-917.101
527.555
625.951
-539.707
188.671
364.806
-621.623
-1127.36
-802.606
1929.96
-1829.11
161.305
1132.81
-1402.13
1177.95
-725.844
-452.101
-516.954
1382.69
-1527.97
645.194
882.772
-172.697
-159.137
331.833
1458.53
570.445
332.878
-478.853
-500.884
-575.945
1076.83
-427.149
616.859
1619.28
-1154.9
-464.386
-784.871
331.96
593.786
400.326
-1657.9
428.484
1229.41
-208.858
520.994
816.588
802.696
208.24
-692.607
484.366
205.008
202.465
-247.944
-98.1441
346.088
485.302
-2.77729
-482.524
-1652.05
602.147
-1616.21
1688.63
-72.4219
15.3401
-1631.55
1062.72
765.869
-340.137
-814.019
-221.86
-1163.06
-243.924
-319.463
701.72
-1854.1
-636.036
1234.69
211.287
780.054
-1360.65
-694.097
-478.29
610.669
-331.446
-1031.37
1379.26
-1975.18
595.922
661.219
1318.52
379.113
-1.28356
737.17
711.844
-1449.01
-658.087
349.598
308.489
354.878
-85.0772
-269.801
162.551
292.518
176.146
-468.663
-586.096
1171.14
464.745
-622.55
-472.218
-413.884
886.102
-355.818
184.396
-473.429
174.628
-314.511
-726.947
430.593
-75.7146
-581.823
992.721
380.734
-196.814
-183.92
468.599
-800.693
-663.196
438.81
-1150.59
-844.941
1205.7
-583.144
468.885
288.829
-452.281
84.3682
1055.47
-208.92
434.535
-225.615
-524.194
1586.91
-757.465
240.982
386.605
-627.587
224.232
480.89
-23.5291
-457.361
-259.575
-213.854
876.359
1129.69
579.64
-883.057
959.954
-76.8971
-233.324
60.6275
-736.96
309.427
-652.129
319.779
370.976
841.375
-1247.98
406.602
798.202
-827.086
-962.37
-567.432
1529.8
-162.482
463.379
-542.494
264.949
1353.44
782.612
-574.372
1332.61
-686.378
499.045
-693.199
-420.4
-434.7
-388.504
823.205
515.854
-867.578
-452.435
90.9319
361.503
-266.408
587.83
749.857
-338.686
-234.387
-172.592
406.98
-506.411
153.381
353.031
1490.35
81.2839
-1571.64
-765.828
1377.74
-1171.66
-473.667
552.304
-165.7
1178.04
-379.84
1102.88
505.681
711.664
-419.996
-902.984
-537.767
-1353.84
-31.6352
1009.31
-977.678
603.641
336.081
-939.723
-325.403
-234.803
-749.982
413.958
1654.92
-181.23
369.294
365.298
-734.592
-1879.64
-2148.58
1548.78
599.799
-2042.18
354.527
371.367
540.71
-912.077
-472.933
1046.33
-405.841
-675.32
1081.16
-2070.61
1417.72
652.893
602.658
-1008.5
59.5931
405.335
391.753
207.992
251.411
318.408
974.025
876.792
699.864
-336.502
-363.362
-303.75
639.828
-336.077
589.986
542.875
576.399
512.993
-1089.39
-810.491
-717.475
772.347
405.695
-424.011
716.2
-1215.26
1643.75
432.804
-1108.12
-328.166
549.262
-1410.89
905.382
505.503
-716.29
-332.531
-840.827
381.241
459.586
459.356
734.947
-1194.3
1094.33
-583.509
-402.711
673.75
-271.039
192.542
188.192
-480.06
-444.441
924.501
-250.91
557.512
-965.991
408.478
-477.05
612.772
-1715.47
435.321
686.675
-1122
538.385
88.2302
115.841
-2255.96
556.361
-87.476
1477.81
1811.36
-220.971
-1590.39
-448.131
1827.39
-2031.32
1220.65
810.67
416.914
353.373
-27.7592
882.608
-1315.07
735.354
-893.944
-844.57
812.935
321.976
53.2627
-375.239
105.38
114.681
-220.062
1583.66
-846.49
-1044.42
-325.707
483.105
-199.047
-284.059
402.912
369.862
249.319
361.349
-8.13368
1024.91
-1016.78
377.354
281.895
-659.248
-749.369
1855.45
-1106.08
-352.219
755.131
-1235.53
-415.102
-940.518
496.077
581.671
-792.94
211.269
783.787
-392.558
-391.23
-424.288
-458.769
451.397
1091.06
1265.85
-678.905
823.476
-354.877
388.371
321.357
-262.336
-216.921
-215.392
637.816
419.106
-871.504
452.398
215.989
362.054
-578.043
-434.972
854.078
772.715
-1176.23
893.859
-52.4846
-507.628
289.365
778.457
-97.7879
1416.3
1927.2
-75.1091
350.785
-322.913
409.704
-1110.97
1102.84
626.673
386.686
397.101
59.304
423.801
278.031
497.212
-379.305
-278.782
-409.406
-79.8634
-365.535
379.539
-14.0041
-260.573
-289.518
1031.31
-1575.94
544.631
-202.424
-187.864
-387.115
669.01
-1663.32
1624.9
-979.707
265.873
-686.274
597.547
1247.4
-1844.94
624.321
1000.58
310.993
-1146.28
707.379
-290.168
-289.952
1395.77
-1474.86
837.638
637.222
414.877
-635.162
220.285
-365.173
487.9
-122.727
372.374
112.928
1763.79
459.807
-254.799
571.658
-1740.39
1168.73
-92.5028
400.441
351.594
348.271
-460.444
-630.07
1090.51
435.265
-885.747
-656.098
922.535
585.896
-153.46
-144.221
-451.593
-419.911
-317.148
-845.912
1333.67
-1333.67
-100.152
-1604.73
1704.88
299.727
294.763
-935.715
-571.147
1506.86
-418.207
994.605
-612.651
-1039.4
687.663
403.455
-1091.12
492.106
-168.956
585.646
1243.27
-1828.92
-1051.68
2115.34
-1063.66
-382.694
-308.355
-493.999
825.959
-1787.15
1634.59
152.555
1787.15
-1636.74
-150.407
-251.702
535.49
-283.788
-550.854
1653.74
1584.79
-1999.89
1096.09
-287.058
-259.415
546.473
252.266
-580.432
-714.794
290.783
1372.7
650.275
590.591
499.356
-1089.95
293.976
417.688
891.853
514.874
-1406.73
542.524
-1043.41
1610.5
-579.195
-775.953
-372.528
-118.761
491.289
-503.268
1238.21
-763.016
338.806
359.489
363.44
267.795
-631.235
615.706
853.244
-617.534
279.296
680.658
-153.46
-321.8
-235.728
557.529
1190.61
-673.641
626.987
476.323
-1103.31
-1023.64
1023.64
-397.638
784.324
-296.613
-484.543
781.155
492.603
463.499
-956.102
396.945
-693.558
630.684
-890.756
260.072
-378.09
-509.983
1100.57
-678.935
-725.756
1404.69
-390.329
947.841
-1585.76
689.027
46.1883
-422.676
376.487
-504.999
715.35
258.236
337.322
177.469
314.637
-522.353
232.185
1912.55
-2010.34
281.803
-716.568
454.308
-842.876
388.568
-910.424
1431.18
-520.759
-441.778
-498.741
615.385
1147.08
-1762.46
-735.187
352.493
-471.178
1061.16
-783.486
1062.78
-361.489
-645.401
-483.703
734.335
501.502
-326.576
927.868
-307.228
-199.183
1631.22
-1852.19
-360.917
-605.074
-339.558
492.938
263.488
-594.934
-190.852
1078.81
-789.443
223.859
-291.624
-290.338
581.961
409.891
-896.274
486.383
-490.697
-453.847
-477.423
-340.714
582.236
-241.523
-459.573
-426.258
-328.76
-204.473
-387.726
655.521
-450.298
771.655
-1099.28
638.839
-1411.64
567.428
-28.0537
-1876.33
1904.38
586.044
-461.318
1233.42
-691.764
57.7346
-57.7346
685.921
-440.616
1039.45
-1652.1
-1181.13
-967.444
302.58
337.248
897.444
734.334
-493.058
-315.832
808.89
1694.65
-1722.7
-443.983
361.781
225.145
1163.75
-536.762
-962.285
1581.69
-619.401
458.519
-250.527
385.385
391.246
-776.63
535.515
490.012
-1025.53
-337.796
676.601
-39.058
1951.61
1608.86
1013.38
-1736.54
743.69
-1206.61
462.919
-507.501
1399.35
856.975
-1373.93
-559.628
272.57
810.898
-416.132
570.246
-1216.32
646.073
-655.965
-1239.17
-710.903
1950.07
-211.94
559.096
-347.156
-180.098
293.712
-505.651
332.806
385.235
-718.041
-1513.93
776.703
737.225
898.537
-1465.97
848.389
-442.059
228.065
-375.952
-592.349
270.548
-683.167
-727.718
715.636
518.984
-1234.62
405.098
-209.966
-195.132
569.521
-983.473
-569.922
-428.708
738.135
-848.867
-1182.45
-1470.47
513.336
957.135
10.9432
-637.467
347.088
290.378
-1338.17
1070.88
267.285
-630.985
-468.298
-675.551
918.791
414.375
-211.665
-202.71
522.998
1000.12
-1523.12
999.015
-379.185
127.198
251.987
-407.556
686.641
-404.838
-522.939
183.382
239.914
-1552.61
548.968
545.367
-757.386
252.387
164.728
-471.955
385.632
-839.479
1990.47
-1217.3
-773.172
411.518
-679.188
267.67
191.252
328.915
130.996
-459.911
-573.161
197.796
262.011
-710.935
1405.72
-694.782
435.198
479.856
-1196.15
274.916
1907.21
-1037.07
-870.141
763.245
-535.125
194.411
1427.45
-989.191
-438.259
349.723
-790.339
-632.018
1761.71
630.02
635.828
330.173
-8.19628
283.93
-1160.08
1762.17
-602.089
-1799.14
836.857
1774.29
-1701.68
-72.6137
-675.713
258.404
575.588
-720.823
237.12
1436.43
-579.456
406.025
446.501
-1898.76
1450.63
553.476
-423.89
-129.586
221.963
-550.723
-279.212
-187.758
-363.924
715.518
-585.898
213.37
616.378
569.958
-1186.34
1136.76
-1990.75
853.988
173.563
323.447
-1738.9
1699.84
330.944
-750.94
-167.974
396.039
765.616
698.054
-1463.67
1090.07
-1098.33
544.77
-1128.28
-649.402
262.582
386.82
526.825
-301.1
-623.6
-1028.5
310.655
-736.913
-929.311
193.923
171.487
233.611
388.016
308.965
-696.981
-639.265
-853.718
-1000.38
508.824
-1081.98
-286.192
490.662
551.569
654.134
-154.086
-37.8456
-412.09
723.083
286.024
-1226.2
586.932
1336.38
-570.76
461.285
-1031.21
-229.801
168.148
385.328
1043.79
566.713
-1725.57
1625.42
1645.91
-586.236
-1059.67
1946.61
-1934.56
-12.0541
207.144
-530.057
-343.627
567.486
-773.106
-323.53
-352.183
1022.31
717.104
-1522.61
805.504
366.068
-25.9217
1657.14
-1098.42
424.777
-1254.59
478.639
-60.7441
1551.1
1227.64
-483.948
-346.293
-32.8917
-276.295
752.139
-1991.31
-731.244
355.421
-549.809
194.387
79.7206
-288.64
1163.94
686.45
-1850.39
-612.482
188.592
961.309
-1532.46
-218.497
677.312
-458.815
890.088
1109.91
-750.814
1380.83
608.354
-484.266
-124.088
-360.28
1197.92
1059.23
-1982.4
923.17
-1197.83
561.795
1523.85
-601.318
-376.731
-162.977
-1269.57
590.669
1189.89
-79.8047
968.055
793.535
-1761.59
-222.177
594.345
-1577.45
983.107
501.792
934.267
-1436.06
628.479
606.206
389.095
-1127.72
442.154
1132.05
650.296
-343.95
-306.346
-1209.73
-1792.1
-4.49526
-1721.08
-217.59
-417.572
1644.37
-640.061
-1004.3
-505.904
1135.84
-1347.62
653.972
693.652
-1391.86
1473.14
-1360.43
609.613
1555.65
-398.749
-576.699
199.969
-1496.66
240.989
179.855
231.027
377.327
434.717
410.443
-845.16
522.002
-957.47
920.656
-1479.29
-705.355
245.195
460.16
-1063.58
477.486
-478.803
884.829
714.909
33.847
-534.663
187.506
-903.312
-1345.1
-736.347
361.239
375.108
417.61
-743.1
325.49
-446.566
-178.116
-586.623
733.595
1574.71
-606.657
826.449
757.211
1372.3
-857.422
-991.577
-585.876
-819.967
438.841
381.126
-1062.38
-661.642
314.653
346.99
-1433.28
-283.854
-813.195
409.971
403.224
-659.331
398.111
261.22
-688.981
284.143
424.786
499.715
400.843
453.235
490.25
395.851
609.948
-992.247
684.79
486.354
459.071
357.108
-816.178
1664.56
-1099.76
-564.803
-519.077
-285.22
-1052.95
466.735
356.47
420.832
607.884
-1028.72
-1412.24
772.177
-550.492
1173.06
363.934
-71.4162
423.595
-889.534
465.939
-1903.42
298.694
446.879
-727.914
281.035
-190.551
417.931
-227.379
-681.003
319.439
361.564
-694.206
330.844
381.078
403.246
627.456
-1045.66
772.055
676.774
-1448.83
450.349
640.164
336.161
361.962
-698.123
419.615
335.516
604.726
674.884
416.176
594.938
-1036.91
441.974
-1698.12
1186.94
511.179
1732.68
-553.127
637.285
-1176.3
539.019
-633.372
346.777
449.581
-960.155
510.574
757.785
-448.703
359.382
356.136
570.011
-930.928
666.964
-1284.91
617.943
382.792
751.658
-1254.93
787.189
523.215
-1310.4
485.153
423.083
-908.236
-515.878
-954.594
-314.082
646.888
363.039
551.777
-914.816
342.619
333.982
-515.049
1982.77
443.839
-857.802
413.963
-938.227
-826.542
-770.456
379.226
-1238.11
454.621
-1765.56
1636.74
128.825
1783.44
-1634.59
-148.854
-806.47
-610.599
275.647
334.953
-1774.29
1999.89
552.757
809.603
-1362.36
452.374
732.906
706.451
395.282
-1101.73
-65.6965
1653.15
-609.355
399.072
834.348
-618.25
322.887
295.363
-388.076
-257.513
450.055
-231.761
448.169
279.208
-644.148
364.94
274.247
-595.102
-292.472
454.491
-1059.43
604.942
551.266
1113.3
374.269
610.465
256.829
227.255
-484.084
1645.63
-928.526
1730.61
-1555.57
-175.042
-336.352
-846.431
426.52
871.082
-1089.58
-625.528
289.451
-1110.9
1662.17
-1601.41
-73.3323
1674.74
-349.881
-359.062
-379.553
549.415
614.334
-517.065
-31.8292
-555.792
520.301
-289.93
-230.371
1768.83
-1317.44
-641.769
308.975
332.794
416.105
369.573
752.195
-304.522
-409.217
-1783.44
1722.7
471.778
-1128.16
656.381
-41.1491
1666.57
584.383
479.864
-1064.25
88.242
1169.44
-1486.59
-9.45267
-1893.97
236.513
-601.313
304.241
297.073
-955.139
618.759
-922.909
481.132
-1156.48
689.1
467.382
375.661
280.855
-773.912
-315.209
1247.84
905.841
717.73
-1215.04
473.899
741.146
507.628
717.01
-1224.64
-362.749
-254.84
426.327
-985.948
450.644
535.304
21.1811
-1919.94
1107.62
-476.935
-500.115
572.722
-1411.49
838.768
-429.972
818.54
-416.093
503.048
-976.361
1852.72
425.109
-191.498
182.299
-177.354
-252.781
430.135
1932.64
-514.92
-1716.82
1077.81
-547.239
289.726
-1039.89
566.955
-320.186
560.153
923.468
-1483.62
-1122.28
446.732
-20.7763
-1989.56
1717.23
-657.997
-534.372
473.704
-1220.19
746.487
195.004
219.372
-258.761
786.173
718.681
854.922
788.943
-431.835
1111.94
-495.986
491.25
-199.738
-291.511
-1967.45
-715.122
-322.105
-461.933
-2.13426
464.067
475.487
-277.691
578.55
1067.08
-815.874
949.297
1274.87
-436.46
-204.918
-246.092
451.011
948.319
-904.935
-340.737
-1094.51
626.213
1589.27
-812.563
553.078
953.784
-396.233
754.942
-358.708
1158.82
-263.51
325.983
1382.32
-721.719
-228.813
462.85
-1229.93
767.077
-994.432
-136.758
1131.19
453.411
-980.767
527.356
186.638
288.4
361.896
780.616
-105.15
876.83
-437.136
1200.19
-804.909
567.091
-1500.11
933.015
-1239.25
1836.79
-437.321
-1538.9
897.576
-1435.34
-315.89
-418.923
1491.74
-1558.5
805.157
1522.86
209.607
281.642
-358.212
-1765.56
-308.154
-1017.65
1596.19
-1793.61
1793.61
1584.79
-1029.51
-651.921
-340.959
376.261
618.344
-366.918
-366.427
-1421.78
914.276
1146.68
615.487
1229.69
1824.48
-1238.83
-619.991
275.749
1695.07
-1958.48
263.412
833.387
-1297.77
1578.04
-577.459
797.599
314.988
-336.565
569.344
813.349
642.272
1389.57
-223.844
-456.97
-358.469
434.2
-290.918
484.836
753.378
-299.022
-160.888
-329.329
581.699
-252.37
26.0552
-383.514
1129.02
-1757.7
-448.926
-489.756
-580.239
885.674
703.592
-1633.39
922.457
-464.078
-627.874
-526.906
1282.76
342.947
1760.61
-1739.43
-1694.65
1934.56
-1594.65
854.747
739.906
-366.977
-1836.31
939.316
598.141
838.29
-411.121
1834.33
-697.563
-410.297
680.675
444.365
-1125.04
-1126.44
457.212
770.426
-1650.61
487.509
918.207
181.87
-409.203
227.333
-1609.3
-392.837
-426.801
1005.61
-682.643
1476.55
-965.915
1856
247.755
-548.477
512.064
-302.457
489.309
910.044
558.452
997.202
-475.374
-440.47
589.309
902.428
-1393.42
-39.8618
1604.01
-846.796
534.82
988.038
-1510.65
-1119.39
1783.16
-1243.58
-539.586
1236.23
-328.791
-907.439
-197.201
466.28
-269.079
-470.977
-257.178
444.33
-187.152
153.171
-408.011
1742.83
-1747.32
-459.396
-547.149
-918.82
452
-209.526
-242.473
552.192
-453.153
-358.517
-316.846
675.363
-959.834
405.998
-1195.09
689.187
429.625
-641.566
-448.921
1604.76
-870.427
542.834
-470.367
-584.335
-475.098
65.6623
-62.3679
-3.29447
-1116.87
425.109
-681.24
-1054.97
1736.21
-602.298
-1457.34
731.581
576.912
-1631.59
1054.68
-382.288
-485.848
158.065
536.628
-1289.23
762.323
554.24
1023.8
-2169.16
1012.15
1157.02
-356.8
82.752
-73.9326
-8.81947
1512.24
-379.302
461.999
1172.5
597.677
926.175
581.533
541.092
-1122.63
173.546
-440.285
-1701.68
272.079
1146.44
-619.455
533.064
1033.77
-1566.83
1113.27
-1678.08
184.283
709.576
550.922
-891.66
-1105.34
-144.082
375.342
-231.26
-578.878
-427.948
-651.265
-534.988
276.227
-1656.48
961.034
-489.321
219.193
-410.69
551.184
-314.672
-608.125
1226.07
-1292.66
927.644
365.021
-1034.08
-361.099
-769.758
-838.66
1724.33
-489.569
1798.48
-1590.05
-208.436
-1589.57
1037.24
552.326
-738.01
-186.775
337.773
-150.998
-595.631
393.222
284.719
-677.94
-537.915
1003.42
649.466
-360.016
-1652.12
1068.98
586.11
1124.36
-1710.47
-410.957
-304.858
-376.144
-758.266
-468.235
-339.333
516.802
1592.49
-1015.58
-793.015
1531.46
680.451
-318.67
742.89
1170.26
-1913.15
283.427
310.493
-500.101
-1976.35
1759.68
216.677
760.269
-486.593
-273.676
545.802
1080.4
-1626.2
65.6623
-1730.53
-238.19
1786.97
-1611.81
1095.75
516.056
-1733.66
3.12562
-535.538
82.752
1738.9
-1759.68
960.467
640.207
-1600.67
300.827
-181.219
-119.608
-407.15
-281.831
64.8253
53.1914
-239.966
-446.203
-444.554
-420.957
230.405
1540.43
390.318
-229.225
-430.105
453.188
-191.177
326.045
1542.28
1092.55
-211.918
-880.634
-1126.44
1741.83
-1767.38
1086.14
-724.462
-1042.92
-1287.49
1881.07
-593.584
1178.37
-1809.17
630.803
193.691
-897.284
1711.89
44.3635
-1756.25
-504.509
-1102.17
-1742.83
-1007.19
566.717
1037.77
604.867
1154.51
-1759.38
295.782
-461.481
724.737
-393.894
372.501
945.544
697.359
-395.693
-641.219
597.676
1092.66
-1690.33
-406.382
-383.015
789.398
431.516
-1699.84
1555.57
144.275
599.961
-1071.14
557.206
1104.96
-1589.18
1011.72
-247.381
245.794
321.692
1946.61
419.26
-90.1707
1009.66
740.088
-1749.75
-713.309
1104.81
-1590.09
172.956
-584.498
198.5
254.688
-658.978
-579.129
597.818
1055.33
-721.192
-278.317
-1402.32
692.623
709.701
-415.873
803.943
89.7847
-893.727
576.397
-140.262
1590.89
-225.953
270.762
-786.325
-1976.35
1699.38
1022.08
89.0866
308.776
449.009
-952.607
-1014.84
-1802.54
655.804
1729.23
525.796
-487.382
1240.76
1109.87
-436.46
1054.8
-1004.51
508.047
496.459
716.812
1070.95
-1787.76
500.982
491.739
-1526.86
-766.811
31.7084
802.758
-423.531
-905.294
405.18
-552.491
-821.438
221.071
-592.188
1430.96
1078.02
179.257
196.085
-565.768
1652.96
-789.904
1561.96
-1763.96
589.468
1174.49
560.769
-906.856
-1771.34
1958.48
-187.134
1752.55
188.588
-556.862
178.305
-125.114
-494.785
1241.27
581.427
1151.25
-503.525
449.065
881.876
-476.635
-794.982
433.141
361.841
1451.47
1112.82
-533.431
1455.89
-516.173
-489.924
1006.1
-617.819
497.987
-1223.83
1730.61
1874.17
-703.907
1622.38
-661.916
-1271.92
734.007
-577.64
150.302
-269.584
422.436
-219.972
-532.829
-1270.22
1907.91
-637.688
1202.69
-565.408
1141.81
-1694.94
1726.14
-588.961
-558.361
-563.51
1755.59
-325.23
-706.409
-487.757
1254.83
-1720.49
-1897.1
626.882
325.654
-973.093
175.251
222.134
-1754.5
1226.02
528.483
1182.74
569.813
-523.663
-480.975
1222.12
182.306
235.625
602.135
1272.03
-551.071
-1261.01
1812.08
-1048
1040.72
866.486
-208.052
-1695.07
1739.43
-525.225
1443.43
-1771.34
-378.306
16.4599
361.846
-275.965
602.676
-326.711
83.8965
501.433
802.89
-385.281
1278.86
1297.61
-426.526
875.884
-449.364
1855.97
-677.604
1620.35
-1760.61
-421.823
-751.561
301.503
450.058
-573.592
-578.737
71.6753
-1088.74
-1007.09
-685.89
1692.98
-956.032
-1213.13
156.175
-415.59
-663.288
720.994
1190.77
665.204
1444.1
-605.812
1676.43
1350.01
-587.684
-507.889
205.432
-518.59
1428.63
1270.7
-578.076
-969.193
917.26
53.7477
-971.008
597.723
-521.19
1435.47
1530.11
-603.939
-66.0638
66.0638
-604.646
1659.32
1270.67
-500.245
1155.37
-62.1321
1853.63
-394.021
1524.65
-603.991
-523.725
1378.47
-669.546
1248.84
-579.293
1590.46
-607.348
755.667
592.078
-1347.75
-654.053
290.791
491.821
615.289
-1993.1
-1000.77
1620.35
66.1546
-66.1546
-76.8858
400.855
447.534
386.636
-14.2623
-318.828
907.891
-525.099
-436.044
836.899
-252.787
639.607
-424.788
1555.51
-459.652
-894.185
190.01
222.995
-413.005
615.192
1272.23
-1887.42
952.068
-470.936
-62.3679
128.668
-1982.78
1854.11
-465.92
193.584
1208.86
-455.295
-753.565
-318.605
-586.689
-503.349
-73.9326
-490.477
260.107
1187.57
-573.238
236.772
-395.498
158.725
-8.27021
-107.13
868.847
-761.717
18.7287
-428.135
-601.486
-95.4861
95.4861
-1264.02
2004.11
-1323.8
-227.578
-1826.96
236.91
-1044.45
-992.604
-193.252
-1676.06
723.449
1253.39
-1964.3
382.507
318.273
-700.78
-1886.53
1257.74
628.783
-151.881
151.881
-978.489
-12.734
-1905.33
-571.99
1685.29
-693.772
1672.35
-617.024
-185.263
-1708.71
-602.668
-442.785
-609.448
-103.947
103.947
-1568.57
199.168
1369.4
166.843
204.252
-371.096
561.624
530.928
1022.93
-487.621
1784.88
788.134
-227.825
219.006
533.147
1738.76
-609.737
-566.429
1671.39
474.248
1850.76
-659.996
-1844.95
-1973.77
-662.093
-109.995
109.995
-600.609
242.14
-692.095
1045.39
-478.437
-1096.81
-291.292
1096.1
1887.22
1669.11
-1669.11
-281.476
758.271
1797.78
608.796
1299.11
145.924
154.903
598.387
589.478
1097.83
-1097.83
230.998
-360.593
-443.736
433.945
976.468
-468.421
-654.615
-1152.46
1741.93
290.404
-1665.65
626.251
-296.175
484.763
1780.98
-606.485
-182.288
-423.071
394.102
737.951
1775.07
-628.388
-525.088
-774.737
1997.89
-887.614
-1110.27
1677.59
-665.657
1247.13
-1861.87
614.741
343.918
-892.395
-186.001
-28.9089
1125.47
-499.261
126.465
634.571
-1663.07
454.857
618.396
-1844.95
-597.341
1823.36
904.035
-1184.99
1796.89
-611.898
1819.9
-589.402
-1230.5
454.657
936.343
-1747.32
943.114
-1481.51
241.314
1240.2
-852.585
-1277.73
-193.393
44.8478
148.545
595.988
279.591
1048.24
-458.987
869.534
-410.547
841.058
755.126
-1596.18
658.655
1090.87
-7.01676
-511.401
518.418
-1783.41
740.493
710.604
114.768
-1143.89
1975.14
-688.895
-1286.24
-551.485
1702.74
843.503
985.728
-1829.23
1251.67
698.405
-411.448
730.887
853.273
1054.83
-601.422
1797.78
641.345
1809.7
-1207.74
-601.967
-377.548
-333.747
711.295
117.857
-1145.9
1695.99
-554.181
-916.686
916.686
1272.51
608.56
1377.97
214.527
-568.159
290.855
-199.761
714.666
1136.1
497.649
-315.343
-889.72
-589.574
1744.19
-1744.19
607.171
-607.171
1006.76
1044.92
-2051.67
1874.85
-627.723
-595.301
832.949
-965.921
-1072.51
1020.44
707.209
-1727.65
-125.491
-359.341
-649.158
-824.742
2082.48
-1269.91
-627.189
1022.18
993.66
1314.75
660.384
336.661
1031.97
234.854
343.903
701.912
1792.62
-1792.62
684.018
30.0312
-213.952
-1016.2
-557.377
1712.75
987.764
1012.24