/*--------------------------------*- C++ -*----------------------------------*\
  =========                 |
  \\      /  F ield         | OpenFOAM: The Open Source CFD Toolbox
   \\    /   O peration     | Website:  https://openfoam.org
    \\  /    A nd           | Version:  7
     \\/     M anipulation  |
\*---------------------------------------------------------------------------*/
FoamFile
{
    version     2.0;
    format      ascii;
    class       volVectorField;
    location    "3";
    object      U;
}
// * * * * * * * * * * * * * * * * * * * * * * * * * * * * * * * * * * * * * //

dimensions      [0 1 -1 0 0 0 0];

internalField   nonuniform List<vector> 
29659
(
(1.00819 -0.0107921 1.18867e-21)
(1.01082 0.00365873 4.43065e-21)
(0.992706 -0.00257074 -6.6449e-21)
(0.975536 -0.0387004 1.98119e-21)
(0.998049 -3.77071e-05 9.47283e-22)
(0.965758 -0.0236654 -3.09229e-21)
(1.04307 -0.0640304 1.80033e-22)
(1.01082 -0.0167245 -1.20789e-22)
(1.00161 -0.00151744 1.58245e-22)
(1.00015 -3.96571e-05 4.25286e-23)
(1.01204 -0.0223485 5.37583e-23)
(0.998342 -0.0129191 -2.14803e-21)
(0.999617 -0.000162517 1.28791e-22)
(0.999974 -8.1815e-06 3.17044e-24)
(1.14174 0.0469897 1.28402e-20)
(0.995173 -0.00155961 1.00935e-21)
(0.999851 -0.000671111 -5.31309e-23)
(1.1074 -0.0161854 -1.33192e-21)
(0.998335 -0.00146694 -3.24409e-22)
(0.991315 -0.000658463 -1.45929e-21)
(0.999324 -0.000205345 -4.44039e-22)
(1.00155 -0.00154872 5.56973e-22)
(0.992607 -0.00273575 7.30232e-21)
(0.99832 -0.000125684 4.18685e-22)
(0.868612 0.142138 1.47764e-21)
(1.01127 0.00286615 2.38358e-20)
(0.999585 -4.1883e-05 2.92281e-22)
(0.939674 0.111057 -1.12009e-19)
(1.14505 0.0452272 -3.24931e-20)
(0.999482 -0.00716293 -4.1294e-22)
(1.01244 -0.00849624 8.02053e-22)
(1.03124 -0.00764774 -5.78059e-21)
(0.981073 -0.0897221 1.77444e-20)
(0.998514 -0.0181137 1.02664e-21)
(0.936039 0.105226 9.20225e-20)
(1.0021 -0.0258562 2.19057e-21)
(1.06447 0.0332306 -7.57303e-21)
(0.977784 -0.0217627 8.62935e-21)
(1.00447 -0.000625809 -2.15108e-21)
(1.00418 -0.000283815 4.06679e-21)
(1.00035 -0.000153585 -1.27526e-22)
(0.99081 -0.0238279 -7.73472e-21)
(0.999872 -0.000648869 -9.4582e-25)
(1.01836 -0.0569002 -6.39348e-21)
(1.00003 -3.40366e-06 -9.02675e-24)
(0.999507 -0.00730109 3.3006e-22)
(0.997885 -0.00962306 -5.98451e-22)
(1.00006 -6.93141e-05 2.26555e-23)
(1.00257 -0.00298892 -2.26859e-21)
(1.0631 0.031262 -3.13204e-21)
(1.08757 -0.0752559 -2.13928e-22)
(0.978371 -0.034208 -9.31756e-21)
(1.03029 -0.00649658 2.02615e-21)
(0.966887 -0.0235318 -5.19627e-21)
(0.995287 -0.00162825 -8.90496e-22)
(1.1442 0.0381051 -2.09475e-20)
(0.997281 -0.00178167 3.16833e-22)
(0.9993 -0.000232967 5.61838e-22)
(0.999836 -0.0170478 -1.30618e-21)
(1.00695 -0.0459682 -3.85777e-21)
(0.999945 -8.59702e-06 7.58462e-24)
(0.998377 -0.00148816 -6.66858e-23)
(1.17925 -0.0165459 6.87389e-21)
(1.00236 -0.025286 -1.14019e-21)
(1.07681 0.0908352 5.63278e-20)
(0.895193 0.0366221 2.29025e-19)
(0.998744 -0.0215565 -2.59812e-21)
(0.994323 -0.0108346 2.99968e-21)
(0.919677 0.0236124 9.22034e-20)
(1.00037 -0.00015192 8.25911e-23)
(1.01247 0.00402638 -3.24952e-20)
(0.987153 0.0818942 6.5972e-20)
(1.00248 -0.00736993 -9.80001e-22)
(0.89874 0.16509 5.78327e-20)
(0.993635 -0.000525542 4.6887e-21)
(1.08905 -0.0455774 2.74899e-21)
(1.19591 0.0541275 3.89868e-20)
(0.978715 -0.0122832 2.08941e-21)
(0.999961 -1.86678e-05 -2.15578e-23)
(1.00191 -0.0379135 -4.1792e-21)
(0.967118 -0.000577403 -3.49614e-21)
(1.02204 0.0339475 1.84023e-20)
(1.00862 -0.0112189 -3.57086e-21)
(1 -4.88344e-05 -1.16054e-24)
(1.04492 -0.0628198 1.05657e-22)
(1.16027 -0.119708 -2.95346e-21)
(1.04578 0.0850138 -1.07085e-19)
(0.9996 -0.000162874 -1.1576e-22)
(0.999629 -0.000141737 -3.40144e-23)
(0.949615 -0.0300937 -1.29611e-20)
(0.994307 -0.0411972 9.41188e-21)
(0.978597 -0.012884 2.31068e-21)
(1.0024 -0.00307366 3.94757e-22)
(1.04779 -0.0121056 -3.49585e-21)
(0.945222 -0.0128756 -1.0768e-20)
(1.0627 0.10246 5.10417e-20)
(0.995429 -0.053284 1.44855e-20)
(1.00038 -0.000300456 2.10683e-22)
(0.975916 -0.0487127 -1.63553e-20)
(1.14601 0.0657149 5.28186e-20)
(0.999958 -1.87826e-05 3.14935e-23)
(0.979748 -0.00810722 -1.24709e-20)
(0.999948 -1.10142e-05 -3.90457e-24)
(1.03709 -0.0171479 -1.81915e-20)
(0.97731 -0.0340704 6.22047e-21)
(1.03252 0.00890753 3.39383e-20)
(1.00692 0.0711756 1.02115e-19)
(0.999644 -0.000143734 -2.88907e-22)
(0.999995 -5.34943e-05 -2.08789e-25)
(0.993104 -0.0868034 -7.57818e-22)
(0.979575 -0.088599 -1.5966e-20)
(1.03222 -0.0343024 2.3559e-21)
(1.00001 -1.78815e-06 1.63728e-24)
(0.999113 -0.00482484 -1.1604e-21)
(0.999961 -0.00178467 4.53182e-23)
(0.991768 0.0830339 2.86841e-22)
(1.04258 0.0482559 -3.89397e-20)
(0.99076 -0.00562044 -4.99586e-21)
(1.00002 -5.40542e-05 2.53275e-24)
(1.00282 -0.00718103 -7.3169e-22)
(1.19172 -0.0579392 -1.64512e-20)
(1.00788 0.0111258 5.1672e-20)
(1.12665 -0.0589566 1.43292e-20)
(0.89352 0.0451962 -2.12114e-19)
(1.00087 -0.000282292 -5.1866e-22)
(1.1223 -0.0438955 -5.30144e-21)
(1.10653 -0.0132323 -7.10546e-21)
(1.01063 -0.0447974 2.41243e-21)
(1.00314 -0.00283075 -2.00976e-21)
(1 -0.00034113 7.61448e-24)
(1.01812 -0.055375 2.25364e-21)
(1.19587 0.0498928 2.11986e-20)
(1.02876 0.150946 1.02882e-19)
(1.12938 -0.0716865 2.61388e-21)
(1.03521 -0.0169542 1.53828e-20)
(1.01217 -0.00763166 1.53272e-20)
(1.12601 0.154269 7.64433e-21)
(0.978835 -0.000533162 1.76485e-20)
(1.08411 -0.156929 2.50341e-20)
(1.14503 0.0616228 -4.02301e-20)
(1.12174 -0.0403114 5.94968e-21)
(0.954873 -0.00375919 -1.44092e-20)
(0.962195 -0.0329259 3.89134e-21)
(1.00001 -1.64269e-06 -6.81686e-25)
(0.999991 -2.43229e-06 1.54514e-24)
(0.998007 -5.97863e-05 -7.41628e-22)
(0.998009 -0.00947215 1.2397e-21)
(0.984697 -0.0687307 -1.25763e-20)
(1.08945 -0.122279 7.99698e-21)
(1.19907 0.00767802 2.72931e-20)
(1.02419 -0.0160365 8.03328e-21)
(1.0134 -0.0161005 2.77e-21)
(1.00034 -0.000472238 3.27602e-22)
(0.999892 -0.000171809 3.09623e-23)
(1.00149 0.0348943 -1.09467e-19)
(1.0004 -0.00123999 3.74163e-23)
(0.994611 -0.00887801 6.07246e-24)
(1.14045 0.147512 -2.2617e-20)
(1.00604 0.0482315 -1.15851e-19)
(1.08975 -0.07291 2.10937e-21)
(0.968635 -0.00209988 6.01002e-21)
(0.976347 -0.0379872 1.41133e-20)
(1.14635 0.0411192 5.26982e-21)
(0.999959 -3.67007e-05 6.79699e-24)
(0.99999 -2.16385e-06 -5.83581e-25)
(0.990743 -0.005934 1.80726e-21)
(0.963147 -0.032227 -2.20087e-20)
(1.00004 -0.00018312 -2.39007e-23)
(1 -5.23239e-05 -1.028e-24)
(0.994635 -0.0040188 -5.79895e-22)
(1 -0.000336633 -6.39119e-24)
(1.00436 -0.0046539 -1.14139e-21)
(1.13914 0.153089 2.55633e-20)
(0.97915 -0.000220017 -1.49483e-20)
(1.02734 -0.0901069 -2.98527e-21)
(0.995991 -7.08332e-05 3.03836e-21)
(1.00166 -0.00213315 1.17171e-22)
(0.979146 -0.00794273 2.06167e-20)
(0.999344 -0.00483303 -1.01724e-22)
(1.13104 -0.0524323 -1.2397e-20)
(0.999983 -7.76009e-06 1.02432e-23)
(1.00942 -0.0309317 -3.19558e-22)
(1.04864 0.0860721 3.79312e-20)
(0.994624 -0.00995645 -1.82903e-22)
(1.07955 -0.153471 -2.40281e-20)
(1.03174 0.0420701 -3.4449e-20)
(0.995036 -0.00222323 -4.40446e-21)
(0.985909 -0.0118083 5.54911e-21)
(1.00314 -0.00285048 3.05456e-21)
(0.99925 -0.00670417 -5.66904e-22)
(0.999773 -6.77672e-06 3.30044e-23)
(1.00442 -0.0144961 8.43422e-22)
(0.886641 0.0223047 8.85728e-20)
(1.00187 0.0334036 8.44524e-20)
(0.988829 -0.00473757 1.4778e-22)
(0.994883 -0.00874618 -1.86276e-21)
(0.968868 0.0454913 -8.89042e-20)
(1.01526 0.027025 1.59261e-20)
(0.946297 -0.0126953 1.34655e-20)
(1.00088 -0.000430359 -4.07595e-22)
(1.05122 -0.0801973 2.22402e-21)
(0.974493 -0.0640345 1.66338e-20)
(0.998566 -0.0132596 1.04532e-21)
(1.00068 -0.000854125 -6.56025e-22)
(1.13157 0.156408 1.0561e-20)
(0.994825 -0.00405718 -4.02628e-22)
(1.00531 -0.00423627 -1.2638e-21)
(0.983511 -0.0681656 1.63184e-20)
(0.993097 -0.0887713 1.89454e-21)
(0.999969 -4.29861e-06 2.4966e-24)
(0.984982 0.126497 -1.04238e-19)
(0.999185 -2.31648e-05 -7.11855e-24)
(1 -4.20265e-05 -2.05013e-25)
(0.999564 -0.000166327 4.89838e-23)
(0.996439 -0.0415073 -3.38744e-21)
(1.17617 -0.00372635 -2.48632e-20)
(1.01005 -0.0303832 2.79196e-22)
(1.00506 -0.0039015 -8.68668e-22)
(0.998334 -0.000190703 1.03956e-21)
(0.947229 -0.0141804 -2.28534e-21)
(1.00004 -0.000367285 -5.58185e-24)
(1.00036 -0.0012814 2.98232e-24)
(0.998193 -0.000149265 -6.84304e-22)
(1.02339 -0.00105417 3.19678e-20)
(0.997891 -0.00309303 -2.10654e-22)
(0.99916 -0.0045296 3.43946e-22)
(1.02226 -0.00170813 1.61592e-20)
(1.0001 -0.000313996 3.51252e-23)
(1.00003 -2.66076e-06 2.33663e-24)
(1.00401 -0.000531616 4.55193e-22)
(0.980551 -0.0249474 -6.94953e-21)
(0.981372 -0.000333507 -7.24267e-21)
(0.996261 -0.000277394 -3.22851e-21)
(1.0135 0.00270781 2.69459e-20)
(0.987796 -0.000870026 3.43212e-21)
(1.01388 -0.0159093 -2.60093e-21)
(0.999974 -8.88577e-06 8.95285e-24)
(0.997682 -0.00201543 -1.24581e-21)
(1.00065 -0.000834813 7.10061e-22)
(1.05105 -0.0773877 2.029e-21)
(1.02819 -0.145007 2.30898e-20)
(0.998916 -9.01185e-05 5.32438e-22)
(1.00035 -0.000433764 -2.53722e-22)
(0.999112 -0.00436694 -1.18103e-22)
(1.00273 -0.00621899 -1.76203e-21)
(0.991523 -0.000480405 -6.25151e-21)
(0.999959 -3.35e-05 -4.75056e-25)
(1.15642 -0.116642 -5.14311e-21)
(1.00005 -0.000385178 7.68953e-24)
(1.02321 -0.000973579 -2.25197e-20)
(0.997367 -0.00181006 -6.42104e-22)
(1.00011 -0.000294965 1.43554e-23)
(1.03158 0.00944495 -2.15886e-20)
(0.970848 -0.0611051 -1.74369e-20)
(1.0002 -3.66074e-05 1.37909e-22)
(1 -9.39595e-06 1.49768e-26)
(0.954743 -0.00270068 -1.64547e-20)
(1.01784 -0.1328 -3.65152e-21)
(0.993343 -0.0063519 -4.76213e-22)
(1.00969 -0.0456032 -6.81491e-22)
(1.02496 -0.0167619 -1.31715e-21)
(1.05363 0.0832236 4.61656e-21)
(1.00006 -6.55036e-05 6.21321e-24)
(0.980977 -0.0244037 7.15619e-21)
(1.16351 -0.0601127 -1.19937e-20)
(0.952707 0.0667058 2.17063e-21)
(0.994623 -0.00971005 1.41444e-21)
(1.0305 0.040147 4.22035e-20)
(1.08934 -0.0425826 2.06326e-21)
(0.999794 -0.00191625 -3.13343e-23)
(0.782496 0.0651523 1.17058e-19)
(0.999574 -0.000342068 -3.34627e-22)
(1.02657 -0.0926549 -4.34707e-21)
(0.94808 -0.0141718 1.62456e-20)
(1.00177 -0.00202465 -6.45145e-22)
(1.15159 -0.0239578 1.9086e-20)
(0.993335 -0.000741051 -3.71529e-21)
(1.03678 0.163129 7.30759e-20)
(0.997268 -0.000220305 2.87269e-22)
(0.986268 -0.0126959 -2.89136e-22)
(0.999817 -0.00178489 -2.57981e-22)
(1.14671 0.0963227 1.17029e-20)
(1.00009 -0.0132659 2.42744e-22)
(1.05959 0.104326 3.13342e-21)
(0.999598 -2.56966e-05 -1.27716e-22)
(0.995429 -0.00152172 -1.4037e-21)
(0.970999 0.16484 -4.45183e-20)
(1.02733 -0.000678967 -2.68989e-20)
(1.02237 -0.000648682 1.87628e-20)
(0.976908 -0.0314059 1.73831e-20)
(0.999877 -2.63811e-05 3.30411e-23)
(1.00273 -0.00585721 -2.07258e-22)
(0.999868 -0.000725587 -9.22492e-23)
(1 -3.95885e-05 -3.85771e-26)
(1.04869 0.00119963 7.76302e-21)
(1.00003 -3.83406e-06 2.30458e-25)
(0.984481 -0.0113242 1.29738e-20)
(1.16041 -0.0613758 1.07443e-20)
(0.865513 0.149272 -1.08919e-19)
(1.03295 0.14999 -1.63851e-19)
(0.973937 -0.053096 5.4423e-21)
(0.988801 -0.0232882 4.2286e-21)
(0.982321 -0.00118331 3.46963e-21)
(1.0259 -0.0312636 6.88257e-21)
(1.00506 -0.0142683 -1.25344e-21)
(0.985773 -0.0123459 -7.65726e-21)
(0.974205 -0.0581788 2.37273e-21)
(1.05299 0.0858681 -7.12155e-20)
(0.999294 0.0484745 1.46029e-19)
(0.998991 -0.000114752 2.9302e-22)
(1.0097 0.0722513 -1.39947e-19)
(1.04754 -0.000100996 2.80476e-21)
(1.13053 -0.0572255 -3.94574e-21)
(1.01115 -0.01276 1.21855e-21)
(1.00058 -0.012515 -8.34536e-22)
(1.01619 -0.0425685 -8.00466e-22)
(0.995772 -0.00146436 -3.33295e-21)
(0.997932 -0.000530623 -2.19959e-22)
(0.999951 -9.0514e-06 4.03713e-23)
(0.999068 -0.00680436 8.34813e-22)
(1.0735 -0.0419442 1.09971e-21)
(1.15024 0.099573 -1.84802e-20)
(1.00121 -0.00101821 3.08321e-22)
(0.97864 -0.0203455 -1.03961e-20)
(1.01221 -0.01318 -3.88875e-21)
(0.999968 -1.39527e-05 -3.47068e-24)
(0.974057 -0.0555522 -8.63328e-21)
(0.830661 0.115015 -5.42927e-20)
(0.995106 -0.00380202 4.91998e-21)
(0.999032 -0.00354527 2.97978e-22)
(1.01143 -0.0127545 -7.63606e-22)
(1.00174 -0.0366966 5.3941e-21)
(1.07887 0.0167535 9.69259e-21)
(0.999676 -0.00768433 -1.5385e-22)
(0.999974 -4.00072e-05 2.14344e-23)
(1.00001 -2.11499e-06 8.30266e-25)
(0.997904 -0.00047784 -2.42853e-22)
(0.96764 0.164026 6.42466e-20)
(1.03887 -0.0260609 4.35359e-21)
(1.03203 -0.144117 -6.60164e-21)
(1 -9.554e-06 -5.07665e-26)
(1.01526 -0.135619 2.49483e-21)
(1.068 -0.00910166 -1.26183e-20)
(0.995915 -0.000121318 -1.5154e-21)
(0.950072 -0.00510259 -2.02371e-20)
(0.999093 -0.00350779 -3.00734e-22)
(0.999653 -0.000158409 -2.11606e-23)
(0.981713 -0.0220972 -2.20026e-21)
(1.00073 -0.000917146 -3.16259e-22)
(1.13453 -0.0507847 1.17717e-20)
(1.00737 -0.00119142 -9.00877e-21)
(1.17982 0.0376515 -2.00331e-20)
(0.99977 -0.0019049 4.08203e-23)
(1.00335 -0.0111376 3.90706e-22)
(1.00715 0.00988318 -7.0099e-20)
(1.18766 -0.0569096 8.01102e-21)
(1.00032 -0.000442959 -1.93098e-22)
(1.00034 -0.000400851 1.9182e-23)
(0.998994 0.100943 6.60607e-21)
(0.995083 -0.0419321 -1.93071e-21)
(0.999587 -0.00756616 1.88223e-22)
(1.01429 0.0304697 8.33291e-21)
(0.959477 0.0232751 1.72602e-19)
(1.08728 -0.0787129 9.77635e-22)
(0.998784 -0.0206884 -8.6163e-22)
(1.17386 -0.00198988 2.48799e-20)
(0.999393 -5.08048e-05 -2.23261e-22)
(0.993151 -0.00334653 1.33252e-21)
(0.997319 -0.000222346 -8.22743e-22)
(1.01586 0.0250309 1.05884e-22)
(0.999982 -0.00060102 1.91154e-24)
(1.00718 -0.0014138 9.20469e-21)
(1.10795 -0.11616 2.65511e-22)
(1.02239 0.142346 1.58643e-19)
(0.904338 0.170953 -2.56895e-20)
(0.995187 -0.00220409 1.63738e-22)
(0.993158 -0.00624524 1.43246e-21)
(1.07506 0.0948752 -4.46573e-20)
(1.00721 -0.047349 5.4911e-21)
(0.999954 -9.39066e-06 -3.93827e-23)
(1.19914 0.0256745 4.26906e-20)
(1.02357 -0.000316612 -9.53619e-21)
(1.02271 0.000233691 -6.4256e-21)
(0.995353 -0.0107234 -1.9777e-21)
(1.01521 -0.00269195 -1.38583e-20)
(0.951705 0.146586 2.51363e-20)
(1.08451 -0.129464 -2.618e-21)
(0.990339 0.136389 2.54518e-20)
(1.00805 0.130528 -4.50888e-20)
(0.999996 -5.20266e-05 6.78104e-25)
(1.07107 -0.0409032 -3.81605e-21)
(1.0857 -0.125332 1.6172e-21)
(0.997782 -0.00309733 5.55839e-22)
(1.00128 -0.00110414 -5.05945e-22)
(0.953523 0.0269839 4.11019e-20)
(1.04052 -0.0266284 -5.66274e-21)
(1.00024 -5.54432e-05 3.09305e-23)
(0.984075 -0.0474358 -1.97363e-20)
(0.973787 -0.0657167 -7.91864e-21)
(0.995525 -0.00157527 1.97504e-21)
(0.999899 -0.000170244 -3.91253e-23)
(1.07942 0.12095 -7.38525e-21)
(1.04231 0.0465327 6.60579e-20)
(1.00004 -0.00040843 -1.69023e-24)
(1.00335 -0.00296264 3.94458e-22)
(1.00418 -0.00285501 2.13872e-21)
(1.14073 -0.0924399 -2.07895e-22)
(0.976935 -0.0305514 -1.58032e-20)
(1.00006 -0.000477555 -1.68398e-23)
(0.999987 -9.12047e-07 -9.18985e-25)
(1.0004 -0.000156113 4.85488e-23)
(1.07749 0.0183484 -9.85651e-22)
(0.97775 -0.0209422 -8.26905e-21)
(1.00356 0.0585191 3.26573e-20)
(0.956792 -0.0361499 9.39053e-21)
(0.989366 -0.0231446 -4.54748e-21)
(0.980908 -0.000974545 -1.4064e-20)
(1.01581 0.0290118 -4.09922e-20)
(1.17476 -0.015582 1.46027e-21)
(0.999023 -0.00012344 5.36726e-22)
(1.0064 -0.0048907 -2.27339e-21)
(1.00069 -0.000919479 3.58582e-22)
(0.992959 0.152519 -6.41782e-20)
(0.979437 -0.0190442 4.48251e-21)
(1.00087 -0.000238478 -1.68899e-22)
(0.993955 -0.00296678 -1.79907e-21)
(1.12548 -0.0371518 1.0881e-20)
(0.999675 -0.0082612 -3.83052e-22)
(0.990654 -0.0102207 -9.79768e-22)
(1.0002 -0.000118916 -9.5311e-23)
(1.00019 -4.03144e-05 -4.22816e-24)
(0.825646 0.123477 8.19446e-20)
(0.993335 -0.00110886 -2.3056e-21)
(0.996083 -0.00395981 1.99471e-21)
(0.999656 -0.00153827 -2.26643e-22)
(0.999407 -3.7049e-05 -3.05457e-23)
(1.05984 0.0786999 -2.44119e-20)
(1.11262 -0.117496 4.38068e-22)
(0.987324 -0.0346019 2.57828e-21)
(1.00002 -1.83311e-06 -8.30903e-25)
(1 -3.15833e-05 -2.83876e-26)
(0.978649 -0.0196535 1.17271e-20)
(0.994485 -0.00157835 4.74547e-22)
(0.995798 -0.00181272 -2.73769e-22)
(1.01133 -0.00384328 4.35998e-21)
(1.00452 -0.00173454 7.71262e-22)
(1.00025 -0.0136195 -4.03398e-22)
(1.10373 -0.0274814 1.81724e-20)
(0.985007 -0.00362649 -2.88968e-21)
(0.992037 0.132375 -2.16737e-20)
(1.01161 -0.0221003 -1.40171e-21)
(1.00021 -0.000118511 1.05796e-22)
(0.97332 -0.0520946 8.20713e-22)
(0.986105 -0.0304852 -9.40827e-21)
(1.14546 -0.0193374 1.22339e-20)
(0.997564 -0.00511172 -5.80867e-22)
(0.990256 -0.0405811 -2.99963e-21)
(0.999982 -4.20089e-06 5.6488e-24)
(0.916318 0.118571 -8.63752e-20)
(1.01253 -0.00168445 7.83173e-21)
(1.00007 -0.000201916 -3.57662e-23)
(0.887166 0.0309427 -1.15142e-19)
(0.986551 -0.0348308 5.85392e-21)
(0.999982 -5.12076e-06 9.2108e-25)
(1.00121 -0.00104213 1.48676e-22)
(0.973314 -0.054429 -4.8106e-21)
(1.03112 -0.0328496 2.2818e-21)
(1.04053 -0.0131723 1.01515e-20)
(0.999992 -2.16975e-06 1.25605e-24)
(0.993362 -0.000534255 1.82578e-21)
(1.01678 -0.0415793 5.25652e-22)
(0.995648 -0.00144135 2.73534e-21)
(0.999613 -3.33717e-05 -6.9416e-22)
(0.993279 -0.0034637 4.39419e-23)
(0.965874 0.0463857 1.03213e-20)
(0.994192 -0.0104436 -2.51681e-21)
(0.991025 -0.0100148 7.2484e-22)
(1.00332 0.0384243 -3.36481e-20)
(0.997773 -0.0019029 6.55992e-22)
(0.986129 0.157146 -7.92082e-21)
(0.999981 -4.95329e-06 -2.89839e-24)
(0.991067 -0.0232283 1.81227e-21)
(0.983088 -0.0649404 1.79029e-20)
(0.991006 -0.0408997 5.04729e-21)
(1.15661 -0.069706 -2.06538e-21)
(0.999066 -0.00468488 7.7766e-22)
(1.00716 -0.0204997 8.66971e-22)
(1.00002 -0.00201826 1.15506e-23)
(0.985962 -0.0180113 -5.60124e-21)
(1.03228 -0.0360559 1.01979e-21)
(0.999969 -1.31036e-05 1.75317e-23)
(1.00002 -1.43343e-06 -1.48207e-24)
(0.994786 -0.000341276 1.25624e-21)
(0.980246 0.0908286 6.63731e-20)
(1.01013 -0.017113 5.08608e-21)
(1.0021 -0.0030116 -6.30497e-22)
(0.946502 -0.0265411 1.40597e-20)
(1 -8.42571e-06 -1.68453e-25)
(1.00081 -0.000994042 -5.73108e-22)
(0.999962 -0.000572287 -8.28018e-24)
(1.01174 -0.0163871 5.34218e-21)
(0.986201 -0.0132517 1.01608e-21)
(0.999684 -0.000243559 8.76801e-23)
(0.994318 -0.00937884 9.04173e-22)
(0.989834 -0.00586943 -1.07012e-21)
(1.00084 -0.000136873 -4.65078e-23)
(0.99998 -5.89643e-06 -1.82302e-24)
(1.16721 -0.0437462 1.52516e-20)
(0.999684 -0.00152535 2.43417e-22)
(1.06565 -0.0129676 9.97359e-21)
(1.03907 0.13191 1.65309e-19)
(1.06951 0.095437 -4.06456e-20)
(1.00029 -0.0175414 -1.52479e-21)
(1.00431 -0.00152524 -2.56205e-22)
(1.01529 -0.00197262 8.50748e-21)
(1.00003 -0.00209374 -1.32855e-23)
(0.998059 -0.0088455 9.03086e-22)
(0.999999 -1.43303e-05 -9.36129e-26)
(1.00483 0.131708 -3.37242e-21)
(0.989929 -0.0133924 1.38689e-21)
(1.01085 -0.00343198 -3.11503e-21)
(0.985393 -0.00377562 6.0369e-21)
(1.00302 -0.0108576 3.47708e-23)
(0.997717 -0.00506594 1.28076e-21)
(0.999912 -0.00017402 8.90832e-24)
(1.00002 -3.79172e-07 -7.7327e-24)
(0.99623 -0.00393478 -1.45258e-21)
(1.04798 -0.0137407 -5.72555e-21)
(1.00853 0.0511764 5.31849e-21)
(1.001 -0.00042609 -6.93095e-22)
(0.97732 -0.0487663 -4.39426e-21)
(0.979418 -0.0184647 -1.9829e-21)
(0.993491 -0.000453494 -6.87921e-21)
(1.19537 0.00772409 -1.74489e-20)
(0.998937 -0.000831279 -3.25614e-22)
(1.00283 -0.0123906 -1.22275e-21)
(0.99546 -0.00237667 1.38393e-21)
(0.999917 -0.00016812 7.72387e-24)
(0.973387 -0.0569248 5.40167e-21)
(1.00512 0.05663 -5.16697e-20)
(1.03142 0.0361976 -4.3672e-20)
(0.981349 -0.0125243 -9.48222e-22)
(1.00214 0.0556145 -2.27398e-21)
(1.00007 -0.000188174 6.97265e-23)
(1.00001 -1.63244e-06 2.40085e-24)
(1.19549 0.0251792 -1.59823e-20)
(1.15013 -0.0204254 -1.29918e-20)
(0.895971 0.123084 -4.17919e-21)
(0.996803 -0.0688472 1.19263e-20)
(0.98109 -0.00133365 -4.40345e-21)
(1.12484 -0.0329274 -1.53354e-20)
(1.00098 -0.000477598 7.84496e-22)
(0.995307 -0.00321526 7.92555e-22)
(1.00039 -0.000175183 -4.62969e-23)
(0.991146 -0.000644761 -1.48119e-21)
(0.990222 -0.0109626 -2.04518e-21)
(0.999997 -2.80963e-05 -2.17908e-24)
(0.999264 -3.06225e-05 1.26852e-22)
(1.02096 0.138708 -1.55427e-19)
(0.999885 -0.000599282 8.95155e-23)
(0.926403 0.106716 1.09359e-19)
(1 -1.40243e-05 6.7761e-26)
(1.19331 -0.030578 1.6442e-20)
(1.06574 -0.0144949 -2.0792e-20)
(1.10356 -0.0248995 -1.9989e-20)
(1.00087 -0.000489447 4.72425e-23)
(1.00016 -3.63853e-05 8.53463e-23)
(0.983345 0.0828211 -1.0118e-19)
(1.06818 -0.0111494 4.09104e-20)
(0.982521 -0.0660969 -1.62122e-20)
(1.0237 0.0371402 1.97412e-20)
(0.998118 -0.0176472 7.30153e-22)
(0.988955 -0.00443955 -1.55554e-21)
(0.996632 -0.000217662 -8.33329e-22)
(1.17313 0.114319 -8.2171e-20)
(0.980195 -0.0222068 7.14126e-21)
(1.02639 -0.029963 -4.43118e-21)
(0.994537 -0.00937564 -5.16973e-22)
(1 -8.31842e-06 -1.88482e-26)
(0.998942 -0.000771237 -2.75344e-22)
(1.00478 -0.00502377 1.36699e-21)
(0.984881 -0.00663666 7.78884e-21)
(0.981838 -0.0126338 1.41403e-21)
(0.964368 -0.0328962 -2.11244e-21)
(0.984741 -0.00706638 -5.90657e-21)
(1.01932 0.00249458 3.66225e-21)
(0.998239 -0.00010751 1.70646e-23)
(0.950698 -0.0305183 7.14651e-21)
(0.988362 -0.000745415 -2.13886e-21)
(1.00003 -0.00018664 1.22782e-23)
(0.989846 -0.000596792 -1.48115e-21)
(1.02675 -0.0324199 -7.79546e-21)
(1.01843 0.00273538 -2.02627e-20)
(0.978543 -0.0222908 -1.7892e-21)
(0.999984 -8.75715e-07 -2.4663e-26)
(0.985555 -0.0135173 1.51478e-21)
(1.00153 -0.0124776 -3.38059e-24)
(1.00116 -0.000977213 1.90101e-22)
(1.1021 -0.131069 -6.8026e-21)
(1.00324 0.0584594 -1.19361e-19)
(1.00077 -0.000992266 5.31946e-22)
(0.990006 -0.000432657 2.19103e-23)
(1.08056 -0.0777595 -3.22523e-22)
(1.02369 0.000181626 3.22232e-20)
(0.981422 0.0387601 -1.107e-20)
(1.00155 -0.00211143 1.69629e-22)
(1.00014 -0.0183083 4.82932e-22)
(1.12295 0.0964614 -1.30697e-20)
(1.01786 0.0225493 -1.02869e-19)
(0.991943 -0.0231781 4.75962e-21)
(1.00402 -0.00294974 -2.39365e-22)
(0.960479 -0.0388526 9.593e-21)
(0.999998 -4.0826e-06 4.50237e-25)
(0.960312 -0.00173312 -7.42814e-21)
(1.00007 -6.11928e-05 1.24136e-23)
(1.07832 -0.0782661 3.53991e-22)
(0.999971 -2.57651e-06 -1.94893e-24)
(1.00002 -5.3279e-05 8.25621e-24)
(0.999554 -0.0202759 -5.66618e-22)
(1.18197 -0.0134082 -1.51515e-20)
(1.07524 0.164511 6.89842e-20)
(1.02945 -0.0333546 -1.25334e-20)
(1.01177 -0.0133588 2.58636e-21)
(0.999999 -2.50045e-06 -9.54484e-26)
(0.994911 -0.00383145 -2.65732e-21)
(1.00008 -1.54042e-05 -8.99663e-24)
(0.997383 -0.00205862 9.30517e-22)
(1.00002 -4.93348e-05 -6.42357e-24)
(1.04145 -0.0117677 -3.1693e-20)
(0.99961 -0.00040439 -3.44375e-22)
(1.05911 0.0458695 4.3539e-20)
(0.999904 -0.000188286 -6.19715e-23)
(0.989386 -0.00434784 -2.64733e-21)
(0.966447 -0.000892373 1.69961e-20)
(0.996461 -0.000220583 -1.0755e-21)
(0.974271 0.0493468 1.06358e-19)
(0.985758 -0.000650663 4.08648e-21)
(1.01674 -0.0883749 7.67459e-22)
(0.995434 -0.00336179 4.09555e-21)
(1.02224 -0.00243691 -6.90808e-21)
(0.975113 -0.049422 1.87535e-20)
(1.01691 -0.00159375 -2.34711e-20)
(1.03113 -0.0619169 -1.93899e-22)
(0.999987 -3.40096e-07 2.43738e-25)
(0.999158 -0.017255 5.51024e-22)
(0.996695 -0.000286379 1.30657e-22)
(1.00021 -8.35601e-05 6.31107e-23)
(1.00007 -1.30052e-05 1.52432e-23)
(1.17783 0.112683 8.93753e-20)
(0.995932 -0.00182331 2.30842e-21)
(1.02407 0.00180044 3.66461e-20)
(1.00052 -0.0186591 5.69326e-22)
(1.00073 -0.000277252 1.80003e-22)
(1.01973 -0.00665018 -2.60606e-20)
(1.00014 -2.64869e-05 -1.91459e-22)
(0.999979 -2.78042e-06 -2.63061e-25)
(0.960799 -0.00229354 5.74657e-21)
(0.997112 -0.00103667 1.04612e-21)
(1.00003 -4.82809e-05 9.29356e-24)
(1.08057 0.0890865 3.08367e-20)
(0.847057 0.0990306 -1.53698e-19)
(0.999829 -0.000203611 1.55084e-22)
(0.96791 -0.0018071 -4.69734e-21)
(1.00001 -1.25054e-06 1.73552e-24)
(0.945954 0.143994 -1.01882e-19)
(1.19737 -0.0308075 1.88733e-20)
(0.975627 -0.0396085 -1.60421e-20)
(1.00005 -0.000470765 -1.89281e-23)
(1.02542 -0.0289127 9.99023e-21)
(1.02619 -0.002181 -9.47401e-21)
(1.02789 -0.00074761 2.74166e-21)
(1.04135 -0.0140711 -4.00078e-21)
(0.999773 -0.00163719 -4.20942e-23)
(0.999879 -0.00072655 7.21138e-23)
(0.98846 -0.0133003 -4.47546e-21)
(1 -7.1986e-06 -1.05505e-24)
(1.00001 -3.90972e-07 -4.34572e-25)
(0.979521 -0.0218069 -4.23382e-21)
(0.996607 -0.0527368 -6.79178e-21)
(0.96538 -0.0323092 -5.51591e-22)
(0.877324 0.142502 -2.9644e-21)
(1.00017 -1.90681e-05 -7.88153e-23)
(1.01173 -0.0666514 -1.15658e-20)
(1.00618 -0.00455066 -2.34475e-21)
(0.999981 -2.88052e-06 2.98674e-24)
(0.999115 -0.00333951 -6.76047e-22)
(1.00005 -0.00040352 -1.22118e-23)
(0.996208 -0.0108315 1.50019e-21)
(1.00004 -8.93988e-06 9.45135e-24)
(1.03256 -0.0609454 -2.96652e-22)
(1.01673 -0.0019866 2.27803e-20)
(0.987413 0.152959 2.23023e-20)
(1.02134 -0.0022625 2.59469e-20)
(0.999772 -0.000189213 1.26074e-22)
(1.00038 -0.000341909 -1.83456e-22)
(1.14004 -0.0969532 -1.12066e-22)
(1.02348 0.00137064 -2.9482e-20)
(0.997415 -0.000339632 9.33073e-22)
(1.00002 -1.70481e-07 3.6268e-24)
(1.08995 0.0711869 -5.13161e-20)
(1.06918 -0.153161 -4.28863e-21)
(0.997 -0.0674461 -5.17818e-21)
(0.988054 -0.000634744 -1.14184e-21)
(0.999981 -1.87753e-05 5.48107e-24)
(0.999773 -0.000177331 -7.36672e-23)
(1.07389 -0.156267 1.2284e-20)
(0.99734 -0.0422811 -1.91806e-21)
(1.03769 0.0239049 6.22454e-21)
(0.990369 0.127384 9.38083e-20)
(1.01584 -0.086148 6.29227e-21)
(0.998949 -6.34596e-05 -1.67184e-22)
(0.999981 -8.63873e-06 -6.66534e-24)
(0.969006 -0.0421456 1.58393e-20)
(0.977729 -0.0843777 -1.86186e-20)
(0.999837 -0.000206189 8.39243e-23)
(1.00795 -0.0202266 2.93407e-21)
(0.992244 -0.0225614 -8.09289e-22)
(0.996147 -0.00194924 9.10012e-22)
(0.996155 0.0542446 -8.49501e-20)
(0.998926 -0.000498832 5.92937e-22)
(1.0427 -0.0467748 2.2072e-21)
(1.19848 0.055805 -3.87423e-20)
(0.993604 -0.00281807 -2.62436e-21)
(0.892521 0.115791 -1.5484e-20)
(0.897461 0.0535466 4.82449e-20)
(0.999975 -4.41024e-05 -2.13946e-23)
(0.999976 -0.000626532 -3.8496e-24)
(0.985945 -0.00085356 -2.62163e-21)
(1.011 -0.00468398 -5.60993e-21)
(0.969228 -0.00165088 9.70229e-21)
(1.00429 -0.00363877 -2.45876e-21)
(0.993847 -0.00282808 2.4594e-21)
(0.999527 -0.00044748 -2.61277e-22)
(0.958781 0.142031 -1.80759e-20)
(1.05856 0.0437516 -6.78727e-20)
(1.00189 -0.00202898 4.34594e-22)
(0.791838 0.0620113 -3.00777e-20)
(1.00001 -1.31586e-06 -2.47314e-24)
(1.02361 0.00486112 -5.04406e-20)
(0.990988 -0.0826864 1.21866e-20)
(1.01368 -0.066798 4.46577e-21)
(1.00008 -0.000181255 -3.56382e-24)
(0.967777 -0.000949063 7.99944e-21)
(1.02033 0.00362618 2.82167e-20)
(1.01078 -0.0052316 4.64821e-21)
(1.0264 -0.00181336 1.31003e-20)
(0.999622 -2.4501e-05 4.89865e-22)
(0.999605 -0.00043482 3.12226e-22)
(1.01953 -0.0405448 -4.09685e-22)
(0.997157 -0.00113344 -2.98637e-21)
(0.989552 -0.0100334 -4.81446e-21)
(0.999237 -0.00304439 4.0176e-23)
(1.07766 0.0250837 3.59486e-20)
(0.999081 -0.0180245 -3.88156e-22)
(0.995853 -0.00416082 4.33221e-23)
(0.943869 -0.02243 -2.1011e-20)
(1.0021 0.100254 1.08424e-20)
(1.09168 -0.0397151 -1.5575e-20)
(1.01899 -0.0064056 2.0954e-20)
(0.999667 -0.00015963 9.35233e-23)
(0.999576 -0.00027992 4.20374e-23)
(0.985356 -0.0177957 1.13416e-20)
(1.00084 -0.00107926 -4.25821e-22)
(0.997866 -0.0005984 -1.69743e-22)
(0.999981 -1.78957e-05 -2.01266e-24)
(0.999776 -0.00166652 9.59836e-24)
(1.01979 0.0034028 -1.09466e-20)
(0.983829 0.0872723 -9.69035e-20)
(0.999893 -1.46098e-05 1.95098e-23)
(1.1813 0.0873502 -7.66344e-20)
(0.999997 -3.56786e-05 9.62063e-25)
(0.997315 -0.00241964 1.26737e-21)
(0.999993 -7.92893e-05 1.81653e-24)
(1.00434 -0.00312172 -1.08919e-21)
(1.16839 -0.0471805 -1.12807e-20)
(0.999968 -3.51371e-05 1.92807e-24)
(0.999966 -3.94741e-05 1.33712e-23)
(0.955893 -0.0365201 -8.96131e-21)
(1 -7.1155e-06 -8.43517e-26)
(1.04442 -0.0137852 3.35757e-20)
(0.989219 -0.0354558 8.18738e-21)
(0.999971 -0.000546187 7.3909e-24)
(1.08274 0.0536218 -3.99678e-20)
(1 -2.52044e-05 -1.8507e-25)
(0.999667 -2.77516e-05 4.30586e-22)
(0.999927 -3.00989e-05 7.63259e-25)
(0.99601 -0.00421332 -7.46681e-22)
(0.999711 -0.00130961 -1.2298e-22)
(0.994873 -0.00023962 -8.43939e-22)
(0.998787 -0.0999888 -1.43983e-21)
(0.999743 -0.0012761 8.08747e-23)
(1.00351 -0.0029439 -8.45819e-22)
(0.999979 -1.98267e-06 -1.12831e-24)
(1.07553 0.159657 -1.34317e-19)
(1.04142 -0.0475733 5.62205e-21)
(1.09444 -0.0406333 -2.22592e-21)
(0.971396 -0.00497121 1.05183e-20)
(0.98136 -0.00360741 -1.91061e-21)
(0.999193 -0.00327528 1.11137e-21)
(1.00244 -0.00223986 1.18112e-21)
(1.05097 0.0596273 1.79571e-20)
(0.985513 -0.0313398 1.28122e-21)
(1.13069 0.0723692 1.92992e-20)
(0.964433 -0.0113546 -1.8964e-20)
(0.997217 -0.00233346 -1.1954e-21)
(0.999992 -3.10048e-06 -2.25081e-24)
(0.995303 -0.00238318 -1.66965e-21)
(1.04194 0.163836 3.37046e-20)
(1.07829 0.0633526 -9.32833e-21)
(0.985302 -0.0471144 6.59027e-21)
(0.952113 -0.00473994 4.4454e-21)
(1.07611 0.147933 3.68794e-20)
(0.992999 -0.000492381 2.19091e-21)
(0.98737 -0.0756635 9.5493e-22)
(0.999994 -7.31534e-05 1.93736e-24)
(0.988319 -0.0356261 1.02946e-20)
(0.99932 -0.00020092 -6.29791e-22)
(0.80715 0.107462 -8.69003e-20)
(0.9824 -0.061692 -1.40635e-20)
(0.999928 -2.59151e-05 3.51337e-23)
(0.94906 -0.0156244 -1.20089e-21)
(0.985414 -0.0331709 6.39115e-22)
(1.03786 0.0676129 6.29334e-20)
(0.997895 -0.000650182 -1.61e-21)
(0.983834 -0.0319713 -3.82123e-21)
(0.997884 -0.00905553 -1.24585e-21)
(0.999681 -0.0195688 -1.20588e-21)
(0.99896 -0.000498767 -4.052e-22)
(1.03664 0.0664012 -7.6449e-20)
(1.02415 -0.140884 1.05099e-20)
(0.98547 -0.0140409 -3.36886e-21)
(0.988891 -0.0123387 6.94804e-23)
(0.989473 -0.00409878 -1.05884e-21)
(1.00438 -0.0019996 -9.95793e-22)
(1.07583 0.142478 1.45731e-19)
(0.985517 -0.0115095 1.54735e-21)
(1.01697 0.0346707 4.30529e-20)
(1.00223 -0.00183468 9.01287e-22)
(1.16048 -0.0677314 -3.02801e-22)
(0.922831 0.115718 1.59363e-20)
(0.992871 -0.000395506 -7.53435e-21)
(0.999811 -3.4618e-05 8.30138e-23)
(1.05873 0.0820675 1.89452e-20)
(1.01514 0.133746 -1.2604e-19)
(1.01893 -0.0390434 9.58107e-22)
(1.06612 -0.0420282 1.95233e-21)
(0.995981 -0.0113751 -1.63702e-21)
(0.971819 -0.00447803 -6.21714e-21)
(1.11922 0.0951567 5.3517e-20)
(0.967959 -0.0422916 2.8882e-21)
(0.999979 -1.77207e-05 7.38346e-24)
(0.993918 -9.16433e-05 -3.88602e-21)
(1.00003 -7.1523e-06 9.66675e-24)
(0.996326 -0.000193762 2.9135e-21)
(0.999978 -1.9267e-05 -1.14198e-23)
(0.998132 -0.0125724 2.00546e-21)
(0.999209 -3.87832e-05 2.23028e-22)
(0.9977 -0.00476702 1.52304e-22)
(1.14671 -0.0847642 3.02751e-22)