/*--------------------------------*- C++ -*----------------------------------*\
  =========                 |
  \\      /  F ield         | OpenFOAM: The Open Source CFD Toolbox
   \\    /   O peration     | Website:  https://openfoam.org
    \\  /    A nd           | Version:  7
     \\/     M anipulation  |
\*---------------------------------------------------------------------------*/
FoamFile
{
    version     2.0;
    format      ascii;
    class       volScalarField;
    location    "18.5";
    object      p;
}
// * * * * * * * * * * * * * * * * * * * * * * * * * * * * * * * * * * * * * //

dimensions      [0 2 -2 0 0 0 0];

internalField   nonuniform List<scalar> 
19930
(
0.000657469
-0.0045318
0.00625065
-6.53302e-05
-0.0032656
-0.00362352
-0.0900691
0.436786
-0.0408017
0.416246
-0.0836423
0.115119
-0.0284373
0.000522947
-0.00146473
-7.07432e-05
-0.0732802
0.257103
-0.0592075
-0.00373752
-0.0372342
0.125305
0.408708
-0.106181
0.00430782
0.934775
-0.000362881
-0.0260528
-0.131155
-0.0605141
-0.000555066
1.16596
0.294566
-0.0141551
-0.000680977
-0.00069562
0.483071
8.18063e-05
-0.00263202
0.206998
0.0129258
0.390348
0.714123
-0.000512087
0.938693
-0.0127015
0.40386
0.01699
8.53453e-05
-0.0266933
-0.000719362
0.0439186
-0.0815877
-0.00142656
-0.102888
-0.0210224
-0.0188155
-0.000887018
-0.0172539
-0.0695735
1.03508
-0.0105138
-0.00283184
0.368257
0.000242142
-0.00366946
0.917464
-0.00386694
-0.00173653
0.923719
-0.00221346
-0.0937853
-0.00134505
-0.0202654
0.931931
-0.0173113
0.908072
-0.0218438
0.205972
0.844539
-0.00324178
-0.00155472
-0.1288
-0.0378671
-0.0097439
0.723552
-0.024037
1.31004
0.373303
1.00315
0.355279
-0.000142441
-0.000134253
1.24434
0.000600933
-0.00236138
1.25907
-0.00155157
-0.0722306
0.538784
1.01661
-0.00991419
1.0474
-0.0484541
0.0973032
-0.0095565
0.804752
-0.020583
-0.00392441
0.717078
-0.14018
-0.0901118
-0.0152538
0.00385129
-0.0104898
-2.13083e-05
0.670072
-0.00308906
-0.0659936
0.828436
-0.000137052
-0.040718
0.220127
-0.0221187
-0.0141038
0.257825
0.198926
-0.0252004
1.18557
0.692171
-0.0317577
-0.0252331
0.0131114
-0.00186348
0.823292
0.0852389
0.0547068
-0.0399104
-0.00792556
-0.0500331
-0.0441841
-0.0221317
-0.111145
1.06458
0.0466581
0.835297
0.269212
-0.0112082
0.184247
-0.000381374
-0.0103236
0.90815
-0.000117741
-0.0329315
-0.00147907
0.268841
0.742886
-0.111986
-0.0225695
-0.0301077
-0.11453
-0.0816819
-0.000710238
0.0575558
0.16354
1.29511
-0.00904577
-0.118073
-0.0174349
0.478516
0.0470495
0.959844
0.632957
-0.0133709
1.35197
0.275101
0.000159478
1.00341
-0.00646938
0.757737
0.853774
8.04502e-05
1.06863
0.652918
-0.00349945
-0.0243832
-0.00081111
0.508543
-0.0501509
1.19459
0.209527
-0.0313713
0.556127
0.00826829
-0.0235496
0.123027
1.0594
-0.00334296
-0.00402982
1.21286
0.0724248
-0.0892341
-0.0688009
1.1639
1.09912
-0.0201851
-0.0157084
0.0459155
-0.0208698
0.000445149
0.905329
0.996802
-0.0130752
-0.0279082
0.745948
0.930926
0.000814296
0.828122
-0.0122687
-0.00065018
-0.0234811
0.75428
1.11038
0.363187
0.71722
-0.00900929
-0.0144169
-2.3711e-05
0.000736183
-0.00255445
0.217465
-0.0487291
0.792319
-0.0488829
0.75485
-0.0226583
-0.00406767
0.95057
1.27317
0.742158
0.89793
-0.0272187
0.434149
-0.0204655
0.108177
-0.00267696
-0.128016
0.020842
0.0455043
8.77392e-05
-0.00377558
1.12469
0.193415
-0.00374998
-0.0323619
-0.0466495
-0.103921
0.417068
-0.0470085
-0.01094
-0.0297346
-0.0122007
0.000280706
-0.0219207
-0.0777497
1.06102
-0.0236021
-0.01398
0.766201
1.09058
-0.0237658
-0.000380613
-0.0346105
0.918808
-0.138052
1.02644
-3.43425e-05
-0.0296135
0.682692
0.899609
-0.0235052
-0.0171372
1.18013
-0.0662182
-0.0331537
1.03692
1.18364
-0.0259997
0.68974
0.13031
0.833505
0.607909
-0.000377114
-0.0366058
0.501952
0.000188391
-0.0591088
0.0230283
-0.145254
0.0679423
0.0453171
-8.17666e-05
-0.00109889
0.994935
-0.00429072
-0.0721466
-0.0339964
0.14165
-0.0102065
0.744341
0.09202
-0.0317373
-0.0238465
0.448905
0.149162
-7.76999e-05
1.00617
0.694993
0.991885
-0.0910684
0.000253736
1.1678
-0.00179426
-0.021655
0.132862
0.00905427
-0.0258098
-0.0768696
0.750013
1.24417
0.863288
0.150543
1.37129
-4.37296e-05
-0.012608
0.90029
-0.112219
0.501158
-0.0189033
0.927512
0.0931797
-0.0011347
0.0915588
0.666775
-0.105864
1.05739
0.605751
7.49118e-05
0.0067949
0.334758
0.276962
0.00158739
0.632232
-0.014848
1.34856
-0.0437386
-0.012269
-0.00416353
0.849203
0.644441
-0.0121431
0.4561
1.00159
-0.0044807
0.639905
0.723931
1.35597
-0.00137372
0.202267
0.0166964
-0.0242756
0.000128579
0.945196
0.384181
-0.00790046
0.944692
0.168478
-0.018533
0.425952
0.168769
0.205222
1.35207
-0.0351239
0.110481
0.990227
-0.0329659
0.105079
-0.0733359
0.327218
-0.0054182
0.379958
-0.00770725
0.107755
-0.00164887
0.412623
0.979985
0.648329
-0.130922
-0.0112329
1.14705
1.15354
-0.00253688
-0.0279181
0.815953
-0.067415
-0.011101
0.42999
-0.0049866
1.41233
-0.0174418
0.223122
-0.0045859
0.98947
0.596722
0.0507983
-0.0192194
-0.0299823
0.0746506
-0.00164737
0.821829
-0.0976117
0.396146
1.32969
-0.0979772
-0.0101488
-0.00275194
0.020324
-0.0157911
-0.0149404
0.498155
-0.000550717
-0.0239023
-0.00078326
-0.0530204
-0.0205526
6.32275e-05
-0.0303972
0.10907
-0.117522
-0.0160147
-0.0215846
0.0370594
0.0584565
-0.0287785
-0.0191263
-0.00175917
-0.00258211
-0.0744236
-4.31454e-05
-0.0191149
0.161523
0.636997
0.062633
0.000116472
1.21543
9.58822e-05
-0.000565946
0.0115504
-0.0262956
-0.03412
1.08785
-0.0141193
0.139201
-0.0624954
-0.0674049
0.420501
-0.0215488
-0.0351987
-0.0558247
9.88927e-05
-0.0407045
1.24372
-0.100544
-0.0333917
0.50635
-0.0277077
0.607485
0.175278
-0.00197001
0.000446398
0.711974
1.31052
-0.105886
0.243572
0.0879773
-0.0268266
-0.0278942
0.810724
0.0808674
-0.126135
-0.0691661
-0.00880603
0.0280092
1.14431
0.18994
-9.12315e-05
1.05343
-0.0148523
-0.0375447
0.65941
-0.00163593
-0.00454894
4.64388e-06
-0.000332946
-0.0168717
-2.68305e-05
0.228743
-0.136466
0.830658
0.000280098
-0.00149355
-0.0285978
-1.17057e-05
-0.109448
-0.124389
-0.00153838
-0.0303597
-0.0254906
0.658683
0.960183
-0.00154109
-0.000778096
-0.0476023
0.984252
-0.0106963
1.00247
-0.00761297
1.33162
0.666227
0.303154
1.27553
-0.0877842
-0.00186435
0.0180221
-0.0093008
0.953355
0.809653
-0.0104231
-0.119382
0.0929897
-0.0195665
-0.000387652
-0.129112
-3.69235e-05
0.680618
-0.0227008
-0.0304595
-0.0120148
-0.0232901
0.239784
0.0742307
0.000511172
-0.0112778
-2.05014e-05
1.32881
1.12917
-0.000107597
-0.011552
0.000825987
0.802984
-0.026673
0.0816909
-0.0309436
0.881305
0.292066
-0.0182448
1.39728
0.0225079
0.841399
-0.00605315
-0.0785457
1.05136
-0.0113016
1.33255
0.760501
1.35563
-0.0018786
-0.00173439
-0.0378159
0.0299842
-0.00135537
-0.0323338
0.855141
0.893704
0.65622
0.971758
1.31715
0.310856
0.982235
0.654385
-0.00476079
0.727381
-0.0337839
-0.0305411
-0.000287721
-0.0208483
-0.085169
0.491342
0.0591291
0.843398
-0.0192773
0.122449
0.801571
-0.00879992
-0.0185747
-3.54421e-05
-0.000265578
0.493862
-0.0335955
-0.0271263
-0.000305834
-0.000950071
0.0828603
0.000154125
0.00231459
1.33144
0.264675
0.377706
-0.0113894
0.767215
0.0310227
-0.0097825
-0.0116846
-0.00109918
3.33624e-05
-0.00173293
-0.0120142
-0.0783046
0.442729
0.00327029
-0.0162184
-6.42107e-06
0.887303
-0.0536591
-0.102894
-0.0110391
0.0680396
-0.0260397
-0.0138923
0.802693
1.19308
0.54868
-0.00690011
0.576662
-0.0108938
-0.0233991
0.328454
-9.75477e-05
-0.0138734
0.20917
0.319006
-0.017832
0.785144
1.09348
0.774684
-0.0271816
-0.0214073
-0.00859849
0.174589
0.72554
-0.00029108
1.0473
-0.0223032
-0.0799596
0.031773
1.23831
0.431653
0.82329
-0.128783
1.28554
-0.0162476
-0.022559
1.36775
0.0405891
-0.0660403
0.829013
0.884401
-0.0227935
0.712775
0.981737
0.878274
0.716204
0.851332
0.628301
-0.00391658
-0.0164493
-0.00216731
-0.0700188
0.978351
-0.0649935
0.154818
0.220363
-0.029213
0.0152039
0.182068
1.00178
0.0264071
-0.00120697
0.0325262
-0.0266198
-0.0704146
-0.0884834
-0.0735763
0.7063
1.0256
0.0458293
0.992121
1.32059
0.00101895
-0.000829618
-0.00225181
-0.00922695
0.514848
1.33304
0.196107
0.755574
-0.013703
0.540827
0.550653
-0.11879
-0.0175589
-0.0280979
0.142854
-0.0134274
0.0133203
-0.0256703
-0.0309663
0.80368
-0.00137315
-0.0172119
0.878737
0.0126931
1.17918
-0.040112
0.647189
-0.0846278
-0.033612
1.04067
1.18337
0.976822
-0.0143812
1.1985
-0.0249702
1.0249
0.0190598
0.966976
-0.0256357
-8.04036e-05
0.972667
1.04009
1.02177
0.974401
0.50725
0.115634
0.563693
-0.066105
0.974381
0.781748
-0.0329188
0.0627128
-0.00412078
-0.0884739
0.768732
-0.0267339
-0.0119707
1.00194
0.988657
-0.0298799
0.949291
-0.0826659
0.0757397
-0.000536172
1.01326
1.03757
1.31938
0.996087
0.000228629
-0.0147196
-0.000271469
-0.0366778
1.17217
0.326892
0.729879
-0.0293632
0.657057
0.00268716
1.17659
-0.0327631
0.998392
-0.000695656
1.13537
1.21068
-0.0153594
0.131511
1.1257
0.000381076
1.24138
-0.018327
0.000509477
-0.0177055
0.852369
0.240093
-0.0514241
0.938889
1.24496
0.556673
0.0240979
-0.0304576
0.0109554
0.983647
1.20474
1.38191
0.325924
-0.00319975
-0.00731298
0.758369
-0.002494
-0.00403907
-0.00317732
-0.0131981
-0.0743567
-0.104874
1.06471
-0.0128021
-0.000218953
0.751667
0.259573
-0.00405042
0.125885
-0.000840473
0.256617
0.783291
0.961163
-0.0944296
0.173164
-0.00595972
-0.029383
-0.000530783
0.993161
1.07738
-0.129512
-0.120058
-0.106987
-0.0333689
0.953206
-0.0248507
-0.0695498
-0.0883287
-0.0145176
1.27709
-0.101216
0.0042698
1.00802
-0.000586372
0.101953
-0.0187205
-0.0802742
-8.99038e-05
-0.00111944
1.26948
0.620605
-0.127491
-0.0573401
0.629598
0.931989
0.772905
-0.0721508
-0.025823
-0.0210142
-0.024598
0.718106
-0.0107342
-0.0301889
0.000102065
-0.0157659
0.000145171
-0.0851863
0.861581
-0.0694748
0.988097
0.955949
-0.029346
-0.0151997
1.30886
0.649882
0.032964
-0.0169761
0.545733
-0.0280482
0.523295
1.27053
0.38712
-0.0104687
-0.0190313
0.859063
-0.0307668
-0.0627676
-0.0319093
1.10526
-0.0226633
-0.0443194
0.528866
0.302263
0.762251
-0.0188811
0.37012
-0.0297276
1.00392
-0.0906792
0.1551
-0.0322139
-0.0344145
-0.000206788
0.000158901
-0.000568267
1.10169
-0.0425614
0.589628
0.0643499
-0.0410168
-0.0680394
0.337037
1.31927
1.14665
-0.0534637
0.294783
-0.0133949
0.0279136
-0.0106256
0.226381
-0.0281725
-0.00223012
0.725602
-0.0353114
0.000401621
1.09301
0.790783
1.01446
0.0263179
-0.0764299
-0.0118769
0.33644
-0.00332614
-0.000127755
1.11847
0.0798164
0.262966
-0.0439673
0.000107143
-0.0102879
-0.000876299
0.231963
-0.000608032
-0.0195913
-0.00902175
-0.0268637
1.16425
8.04388e-06
-0.0351877
-0.0219901
1.2142
0.00360099
-1.58142e-05
-0.089973
0.240576
0.693804
-0.0144067
-0.0132029
-0.0204551
0.738045
-0.0180686
0.326645
-0.103258
-0.100269
0.16385
0.603316
0.135038
0.270243
5.3274e-05
0.773533
1.22694
-0.00864904
0.491402
-0.0435001
1.26152
1.19702
-0.0716559
0.0282845
-0.012839
0.587129
-0.000354119
0.971254
1.34919
-0.00148473
0.135351
0.307334
-0.0012439
-0.000486898
-0.0107516
1.32216
-0.012116
-0.0371749
0.970584
-0.00378948
0.565758
1.01157
-0.0206433
1.13134
-0.0257233
-0.0159078
1.02388
0.338457
0.759989
0.000129842
1.01031
0.205521
0.96202
-0.0601895
-0.00956378
0.146695
1.12154
1.02594
1.14923
0.988892
-0.0830615
-0.0196775
-0.0112247
0.645692
0.965693
1.2216
-0.0255845
0.488714
1.24601
0.874263
-0.00119895
-0.0260444
-0.0103403
0.157734
-0.0359415
1.0787
0.400495
0.961899
0.169936
-0.0189519
0.969088
-0.0432925
0.694976
-0.0746869
0.036189
-0.0133104
-0.0681899
-0.0554092
1.20713
-0.0515028
-0.023447
-0.0479143
0.290009
0.0546742
-0.0217487
0.0585385
-0.00744897
-0.0614149
0.704765
0.347041
0.808839
-0.114739
1.01527
-0.0642071
-0.000868179
-0.0111675
-0.0121399
-0.0964265
-0.109286
-0.00377111
0.333593
1.15774
0.183757
0.0741909
-0.028475
-0.0584436
0.474683
-0.0201378
1.2587
0.357961
-0.00117703
-0.0176522
0.0151636
-0.0614335
-0.0189439
-0.022927
-0.00609074
-0.0833983
0.327625
1.18587
1.06047
0.247992
0.000215693
-0.0245814
0.000265888
-0.0104289
0.743945
-0.000353089
0.682933
-0.059808
-0.0140418
1.16766
1.20087
-0.00101985
0.982027
1.04832
0.141022
-0.0110843
0.266229
0.742087
1.19795
0.546285
-0.0614056
1.16253
0.13899
-0.0338806
-0.0383038
-0.0718391
1.23487
-0.0156244
1.00572
0.389881
1.14226
-0.0274017
0.624046
0.554441
-0.0735686
1.031
-0.00296386
1.11237
-0.000436027
0.450875
0.702544
0.617524
-0.00256563
-0.0212738
-0.00221832
-0.0278262
0.480027
-0.0195905
0.571022
0.44627
1.33263
-0.00675682
1.12107
-0.00749044
-0.00746431
0.0222078
0.977788
0.0883279
-0.040449
0.0740656
0.75198
-0.00531808
1.29867
-0.00311138
-0.0534202
0.0346571
-0.01292
0.995272
-0.0388918
1.06756
0.791655
0.19693
0.046305
0.179042
-0.00107319
0.0341974
1.08404
-0.0351466
-0.0324753
0.39967
0.0520284
0.0125343
0.0449543
-0.00861585
1.16141
-0.0219929
0.0226255
-0.0591347
-0.0281634
0.956233
1.33873
-0.0199956
-0.06232
-0.000790517
0.12377
-0.000981251
0.137722
1.20686
1.13955
-0.0110109
0.257925
-0.00035992
-0.0285509
0.787992
-0.00988577
0.359321
-0.0157697
1.30443
0.716048
-0.0730233
-0.0121164
-0.0286696
1.30083
-0.0245755
-0.00110055
-0.00539811
0.170034
-0.0659644
-0.0117708
0.103754
1.16222
-0.0856214
1.24932
1.38574
-0.0203554
-0.0331854
-0.000719509
-5.64161e-05
-0.0362222
-0.0322011
1.28512
-0.0142913
9.39088e-05
0.698701
-0.0533364
0.778502
-0.000787979
-0.0553232
0.696686
0.721761
-0.0707291
-0.0212128
-0.0581639
0.903598
-0.0235103
0.432612
-0.0277109
-0.0110092
-0.0273048
-0.00928928
-0.00408922
-0.0866948
-0.0828198
-0.0947604
0.00165888
0.140516
-0.000973207
-0.0247019
-0.0598952
-0.016022
-0.02514
1.16711
0.0565569
-0.0256381
-0.014114
0.874067
2.08774e-05
0.735408
-0.0523031
1.62815e-05
-0.000317586
0.762854
0.452356
-0.0304004
-0.0289792
-0.0311978
0.542843
-0.000442921
0.714841
0.856377
-0.00840426
-0.0343707
0.177619
0.207002
-0.0575856
0.128322
0.781586
-0.0140918
0.673803
-0.0311548
0.0126553
0.632548
1.20277
0.0257012
-0.00463695
0.952043
0.521444
-0.0169425
-0.0377197
-0.098547
0.0192085
-0.0145221
-0.00308867
0.867259
-0.107915
-0.0422166
0.84597
-0.0555397
-0.025798
0.279775
-0.000945334
0.233869
0.700878
-0.00900355
0.600227
-0.0124203
1.14101
-0.0624379
-0.000451472
9.30427e-05
-0.0264898
-0.000747085
-0.0136049
0.22728
-0.0378785
-0.00429872
-0.028976
-0.0156206
0.305117
0.995867
0.000191688
-0.0123158
-0.00884111
0.591637
-0.0576814
-0.0167024
-0.0149407
0.11275
0.308171
-0.0129916
-0.00569409
-0.0635054
0.765268
0.806527
0.106513
0.724979
1.03409
-0.0107835
0.627857
0.21021
0.0234903
-0.0149138
0.00540569
1.35349
-0.0102735
-0.0692413
-0.0257773
0.725758
-0.00684706
-0.00214811
-0.0261529
-0.0297991
-0.00112944
0.999307
0.367401
0.571006
0.867876
0.734358
-0.00549953
0.251641
0.553826
0.00392124
0.969433
0.274022
0.356886
3.86081e-06
0.525042
-0.0387513
0.243204
0.428323
-0.0814143
0.1454
0.103574
-0.0193932
-0.00372835
-0.0115867
0.212023
1.18355
0.202181
-0.000121015
0.474658
-0.0127826
0.399562
0.303217
-0.00661464
-0.020929
0.533869
0.965785
0.116508
-0.027296
-0.0152915
0.355868
0.669256
-0.0232831
0.845897
-0.017619
0.236812
-0.00261762
1.08422
-0.000680209
-0.000905948
-0.00331378
-0.015221
-0.0779391
-0.00649433
0.596283
0.817045
0.000433378
0.369025
0.00042409
-0.00642873
1.52246e-05
0.335151
-0.0101302
0.298258
2.56859e-05
0.689196
-0.0201994
0.82866
-0.109825
0.917171
-0.0262846
-0.00684874
0.000401553
0.97809
-0.0282054
0.0405098
0.184773
0.00213122
0.814905
-0.00637186
-0.00896523
-0.0154119
-0.00157785
1.00669
-0.00348397
-0.0163528
-0.0135558
-5.27635e-05
-0.00706662
0.843818
-0.000613237
-0.0262316
-0.00322176
-0.00183151
0.758484
-0.129615
0.0591172
-0.0381777
-0.00114311
-0.0116828
-0.0691379
-0.0148815
-0.00108021
-0.00636754
0.406814
-0.000430003
-0.0116656
-0.061906
0.202083
0.935381
-0.00509446
-0.000388514
-0.0210996
-0.0277609
0.656181
0.814458
1.01376
3.48832e-05
0.271901
-0.023597
-0.0204347
0.337962
-0.0212378
-0.00620123
-0.0065021
-0.00801209
-0.014478
-0.0138853
-0.00748506
-0.00231758
0.0111409
0.686712
0.00292755
0.481066
0.122838
0.0752509
0.375413
0.232249
0.577233
0.031551
0.515191
-0.00105744
-0.0143144
0.471024
-0.0357251
0.744266
0.70012
-0.0186915
-0.0239604
-0.000426012
-0.0147962
-0.0324133
-0.00869796
-0.00847458
-0.011845
-0.00727585
-0.0177785
-0.0224215
-0.00684022
-0.00391219
-0.0305429
0.578014
-0.0161696
-0.000248609
-0.0224458
-0.00412486
-0.0195022
0.821908
0.800277
0.295378
1.08185
-0.00761927
-0.0392149
-0.0159755
-0.00274629
-0.00420097
-6.74385e-05
2.17967e-05
0.276881
0.0892884
-5.37513e-05
-0.0809614
0.176096
0.356115
-0.0402855
-0.00682469
-0.00799305
-0.00375067
-0.000924856
-0.00228166
-0.0192871
-0.0329273
1.13163
-0.00289037
-0.0317961
-0.0146427
-0.0237794
-0.00490315
-0.00633519
-0.000941856
-0.00641592
-0.0183288
-0.0173035
-0.0371165
0.0474926
-0.00959055
0.357071
-0.0140235
-0.000615171
-0.0375925
0.739544
0.772827
0.545778
0.0158017
-0.0861129
-0.0287268
-0.0959242
-0.0280732
-0.0954882
-0.0241325
-0.0909152
-0.0013168
-0.00918841
-2.76905e-05
0.101446
-0.00104269
0.000388903
-0.0126762
1.19414
-0.0191684
-0.0920463
1.10931
1.14867
-0.00868107
1.11965
1.04324
0.681071
-0.00374982
-0.123294
1.15107
0.000299944
-0.000438624
-0.00877967
-0.0146584
-0.0045268
-0.0171987
-0.0144473
-0.0153579
-0.0124589
-0.0187828
0.000362114
-0.0394348
-0.00556044
1.30211
-0.00922775
-0.00618333
1.29483
-0.00245635
1.218
1.13441
0.67539
-0.00761643
1.30321
0.0890145
0.894042
0.00258489
-0.000661498
-0.0085911
-0.0160888
0.0652003
0.987109
-0.000496134
-0.000694392
-0.014815
-8.51649e-05
-0.133211
0.34811
-2.06167e-05
0.728934
-0.0410932
-0.00381578
-0.0255146
-0.00775858
0.117901
-0.00308531
1.14983
-0.000870486
1.04501
0.00115665
-0.0185794
9.07265e-05
-0.0189336
-0.00967014
-0.0181466
0.88839
0.9696
2.68158e-05
1.15305
-0.0251491
-0.00212393
-0.0225814
1.05804
-0.120741
0.00016838
-0.000489237
-0.00126628
-0.000861989
0.000122226
-0.00114911
1.16567
0.000196594
-0.000798898
-0.0159773
1.26185
1.38702
-0.000456672
-0.0283093
0.744986
1.27912
-0.0308737
-0.0140157
-3.26724e-05
0.0174209
1.00939
0.737355
-0.00109902
-0.00952676
-0.0239841
1.08125
-0.0776154
-0.0130828
-0.010095
-0.00782334
-0.0215216
0.798366
9.0306e-05
1.10991
-0.00111479
1.23134
-0.0014852
1.13684
-0.00821236
0.0926256
-0.0196676
4.42063e-05
-0.000678859
-0.00539476
-0.0113164
-0.00969252
-0.000800034
-0.0025134
-0.000376187
-0.0234332
-0.000834654
-0.00862503
-0.00834501
-0.00203783
0.148274
-0.000845843
0.731157
-0.0140136
-0.0125457
-0.00307189
-0.10177
1.2826
-0.00715495
-0.00656839
-0.00741837
-0.0261629
-0.00836227
0.653345
0.79374
0.000167288
-0.00726673
-0.0477267
0.190288
1.10635
-0.0218753
0.664016
0.842547
2.5597e-05
-0.031199
-0.00810818
-0.00098851
0.000394545
5.46334e-05
-0.000806507
-0.00217556
-0.0045319
0.00045782
-0.0183846
0.00768239
0.2244
-0.0659599
0.713547
0.0669147
-0.0799387
3.81274e-05
-0.000645287
0.984005
-0.0017304
-0.0252311
0.000103138
-0.0194951
-0.0106845
0.53132
0.0845303
1.17561
-0.000584787
-0.00137214
-0.015346
0.260319
-0.000522863
1.10787
0.069438
-0.0104284
-0.00299796
-0.055073
0.00737222
0.627734
0.0498307
1.0124
-0.0248632
-0.00022671
-0.0015364
-0.00796084
-0.000243343
-0.000450633
-0.000987211
-0.0121086
-0.000408967
-0.0223333
2.41507e-05
-0.0238203
-0.0667798
-2.98287e-05
0.00011532
-0.000692526
-0.000621599
-0.000269177
-0.00610585
0.0279877
-0.000799965
0.0744825
-0.00514456
0.75355
-0.0193946
-0.0508869
1.20435e-05
-0.0483281
-0.0325788
-0.0166751
-0.00449488
3.10711e-05
-0.00368984
4.7487e-05
-0.054849
-0.0180756
0.148033
-0.0973038
-0.000602652
0.0743613
-0.0908957
0.796812
0.518262
0.642894
0.000202323
-0.00250132
0.000121105
-0.00162694
1.02995
0.679832
-0.00238807
-0.00377173
0.448696
0.698194
1.19262
-0.000518748
-0.00150754
-0.0082832
-2.15662e-05
-0.00052644
5.13407e-05
-0.00329493
-0.00280158
0.749338
-0.0212685
-0.000894692
0.00144478
-0.00101838
-0.0397776
-0.000108003
0.272836
-0.00112558
0.227824
-0.0295711
-0.0186634
0.170035
0.103881
-0.000491846
0.223245
1.1
-0.0261258
0.782897
-0.0175981
-0.00124001
0.869281
-0.00209351
0.582587
-0.000804518
-0.0224353
-0.0580731
-0.00213459
-0.00804746
-0.000883691
-0.000298504
0.0214604
4.72075e-05
-0.00754144
-0.0154226
1.12579
-0.0194184
-0.000918953
0.730138
1.35232e-05
-0.000669062
-0.00841794
-0.00143618
1.08913
-0.000348042
-0.000774166
-0.00896744
0.127161
-0.024444
-0.000784779
0.000390739
0.0389001
-0.000435399
-0.000571915
0.954703
1.25328
-0.00188319
-7.16491e-05
-0.00189153
0.803881
-0.000349819
-0.000602052
-3.12062e-05
2.24495e-05
-0.0539353
-0.00114743
-0.000761563
-0.108448
-0.0011637
-0.0538905
0.000342308
-0.00038316
0.00213356
0.88294
0.940183
-0.00815057
0.496259
0.0606401
6.50711e-05
0.711264
-0.00831466
-0.000843271
-0.00124595
-0.058935
-0.000490127
0.00266253
-3.52945e-05
-0.0289172
0.16358
-0.0106954
-0.00836562
0.10061
0.511052
0.162231
-6.37616e-05
-9.92221e-07
-0.0054319
0.254905
-0.00445515
-0.0653221
0.000161154
0.700682
-0.1195
0.883134
0.390829
-0.00384862
0.252956
-2.02152e-06
0.741598
-0.00289372
-0.0261932
-5.03784e-05
-0.00075466
-0.00236407
-0.00326027
-0.00206995
-0.00547979
0.19814
-0.000403389
0.359079
-0.000801011
-0.000453596
7.53596e-05
0.0423236
0.00021011
-0.00339002
-4.85847e-05
-0.00137841
0.294657
-0.00667788
-0.00252891
-0.00280661
0.0857427
-0.00334666
-0.000620997
-0.000656079
0.833199
0.918003
0.98397
-0.000510308
0.929269
0.816623
0.932527
-3.82219e-05
0.00021401
-0.000486717
0.337447
0.58739
-0.0760198
-0.027183
-0.00932495
-0.0101178
0.074377
-0.00215047
-5.85122e-05
0.643912
-0.000917568
-0.00258892
0.000153643
-0.00274444
0.942074
-0.0304618
-0.000824791
2.9511e-05
1.05736
0.765508
-0.0198261
0.232513
-0.00202525
-0.0278609
-0.00326291
-0.0360579
-0.0425849
-0.0444373
0.21196
-0.00547387
0.103222
-0.000362744
0.902036
-0.018787
-0.00720768
0.663488
0.00802918
-0.00961564
-0.00992521
-0.0723015
0.207923
-0.00731915
0.000304369
0.678436
-0.000527154
-0.0111417
0.0695075
-0.000384244
-0.000296275
-0.000838406
-0.017583
-0.00735241
0.0565973
0.000143557
0.0443072
-0.0186972
0.0353001
0.0272604
-0.00568543
-0.00953798
0.0212632
-0.0147516
-0.00280703
-0.00164523
0.484027
-0.00330058
-1.53443e-05
-5.79357e-06
-0.0172588
-0.034136
-0.000101828
0.396713
0.850476
-0.0159541
-0.00923368
-0.00590676
-0.000164808
0.000153126
-0.00820671
0.000209803
0.0591215
-0.00030255
0.00412167
-0.018043
-0.00798894
-0.00071524
-0.000233625
0.427253
-0.00028231
0.0797859
0.547884
-0.0191422
-0.0290562
-0.00740182
0.000153215
0.064699
-0.0166878
-0.0101541
0.0480025
0.190246
-4.25253e-05
0.0340759
0.3006
-0.00019609
0.180954
-0.0077143
-0.0153507
0.667925
-0.00206393
-0.00025156
-0.00043912
0.497002
-0.113566
-0.0226427
-0.0101558
-0.00585031
0.000116679
-0.010673
-0.0126888
0.152545
1.00562
1.16237
0.738926
-0.000170384
0.42883
0.134122
-0.00950358
-0.0104411
0.443553
-0.0203599
-0.136755
-0.000263901
-0.0091466
0.580232
8.61929e-06
-0.0622356
-0.0065852
-0.0297287
-0.000600357
0.734301
-0.0243586
0.691179
-0.0119554
-0.004979
-0.00697032
0.000263351
0.634102
-0.0116319
-0.000470605
-2.04028e-05
-0.072963
0.0269947
0.168458
-0.00900443
-0.000994969
0.268435
-6.22344e-08
0.404867
0.147594
-0.000645157
0.443384
-0.0473608
-0.000179009
-0.00876671
0.000445537
-0.000952671
-0.00840568
0.460141
-0.0227297
-0.00118326
-0.0479191
-0.00497961
0.599642
0.926166
-0.000551084
-0.0126129
0.000135731
-0.0046776
0.55727
0.00602166
-0.000741669
0.367593
0.0998597
0.756544
-0.010125
-0.000686407
0.396857
-0.00534685
-0.0145969
0.0106844
1.02361
-0.0351126
-0.0102464
-0.000862009
-0.0044074
1.01379
-0.021469
1.21275
0.260169
-0.00744762
0.000549437
-0.0249047
-0.0290647
-0.00025947
-0.0110715
0.993391
-2.33429e-05
-0.021746
1.01457
0.000421844
-0.0118935
-0.00029647
0.00010164
-0.000302521
0.0440183
-0.00842988
0.000246365
-0.0819557
-0.000522371
-0.00025505
-0.000199922
-4.26296e-05
-0.0270959
-0.000230853
0.000682084
-0.0210499
-0.0186004
1.20512
0.0638922
-0.00868696
0.000427278
-3.84328e-05
-0.0115451
-0.000159049
0.190031
0.655525
-0.000166614
-0.0233772
-0.00893539
0.106946
-0.00247609
1.28281
-0.00114729
0.000701634
0.438576
0.00178412
-0.000258458
-0.0226997
0.718731
0.000495351
0.618692
0.740734
-0.0126555
-0.0240026
0.902282
-0.0105423
0.000771874
-0.023331
0.334765
0.190345
-0.0301512
-0.000129942
0.960903
0.000613242
0.00612173
0.000600581
0.000786799
1.12864
-0.00167131
-0.000142217
-0.0130761
0.304095
1.21812
0.709997
1.30384
-0.00198332
1.11427
-0.000151881
0.512479
0.000857784
0.000170664
0.262459
-0.0172667
0.16746
-0.000348637
-0.0314241
1.23124
-0.0172592
-0.0312549
-0.00174457
0.00069507
0.160762
-0.00125839
-0.0200489
-0.00024248
-0.0226344
0.000123547
1.24732
-0.00775167
-0.0127867
0.117164
-0.0781965
0.255991
0.565788
-0.000335779
-0.0831034
0.35205
0.779941
1.28413
1.46997e-05
-0.0891514
-0.0810708
0.000744673
0.403573
0.457114
-0.0871757
1.02493
0.1898
0.264028
-0.00726377
0.675172
-0.0158881
-0.000613254
-0.000142855
-0.000272738
0.000451468
-0.00137153
-0.00967128
-0.000125095
-0.000728957
0.000684635
4.99556e-05
0.367232
-0.0361799
-3.31905e-06
1.24095
-0.00050498
-0.000126751
0.917637
1.28515
-0.0216031
-0.0131061
0.893272
-0.00344779
1.0954
0.0973251
-9.47669e-05
-0.0555911
-0.0262143
-0.0020941
-0.000655666
0.599745
-4.9724e-05
-0.000370623
1.03971
0.000469209
-0.00193768
-0.0392909
-0.00988316
-0.0143651
-0.00040947
0.076158
-0.0146661
-0.000243162
-0.0159821
0.000450539
0.480233
3.02572e-05
-1.27644e-05
0.000424633
0.998537
-0.00357099
-0.000680822
-0.000515316
-0.00139501
0.956976
0.00256838
0.166797
0.889548
0.000306603
1.14589
0.8275
-0.000707952
-0.0556314
-0.000483491
-0.0089382
1.09651
-0.00230141
0.000558247
-0.000165914
-0.0167736
0.00057563
0.000587828
-0.000465663
1.1327
-0.000161345
0.753744
-0.0180613
-0.0604953
-0.000176232
-0.0414788
-0.00178019
0.9282
0.952091
0.117934
-0.0011845
-0.0346873
-0.0558436
0.248423
0.160347
0.355728
-0.0741913
-0.045597
-0.0189892
-0.000186827
-0.000954593
0.00067619
-0.00201597
-0.00140713
-0.00169917
-0.00129446
0.000333334
-0.0118067
-0.004037
-0.0017475
-0.0168841
-0.000408496
-0.00243657
-0.000231231
1.39539
0.153643
-0.00358402
-0.00241514
-0.00295108
-0.000180439
-0.000508283
-0.00248429
-0.00205495
-0.0303957
-0.000122297
-0.0190797
-0.000802006
0.000690725
-0.000351053
-0.017201
-0.0306745
-0.00305141
0.99865
-0.0129982
0.724941
-0.0331946
1.06416
-0.0259996
-0.0280362
-0.0294237
-0.0304758
-0.0308692
-0.0325174
-0.0327724
-0.000327986
-0.0336335
-0.033129
0.940778
-0.0349105
-0.027215
-0.0341668
-0.000595454
-0.0556801
-0.00865779
-0.000175494
-0.00467613
-0.00011694
-0.00104001
0.0370637
0.000750851
0.179283
0.79454
-0.00670865
-0.000996573
-0.0147125
-0.00260542
-0.00435112
-0.008038
-0.0127503
0.000142119
1.26403
-0.00564868
-0.0142553
-0.00576517
0.000753482
-0.00378526
-0.000961693
-0.0250254
-0.00517365
-0.000267987
-0.002101
0.0248026
-0.000225664
-0.000259245
-0.00656998
0.0160038
-0.000427937
-0.00127444
-0.000688215
-0.000201612
-0.000460516
-0.00189105
-0.000404744
-0.00015082
-0.00164855
-0.000265174
0.919362
-6.72876e-06
-0.000300843
0.000883254
-0.00181567
-0.000408346
-0.000438001
0.36746
-0.00764393
0.773908
-0.00260683
-7.86739e-05
-0.000215255
0.692653
-0.0570875
-0.000408344
-0.000201473
-9.06577e-05
-0.00563325
-0.00209619
-0.0559851
6.77551e-05
-0.029456
4.72906e-05
-0.000148651
-0.000168857
-0.00317453
-0.00112352
-0.0395824
0.894676
-0.0344502
-0.00459088
-0.000137581
-6.23916e-05
-0.020154
-0.000219969
-0.00707371
-0.000669961
-0.000490526
-0.000631278
-0.00900206
-0.005574
-0.0889476
8.05229e-05
-0.000197964
-0.0115241
0.000102861
-0.00383935
-0.00162138
-0.00135116
-2.67352e-05
1.10697
0.000113373
1.31575
-0.00853256
-0.00219241
0.000907729
-0.000211499
-0.000290845
0.00411771
-0.000435125
-0.0528034
-0.000498471
-0.101654
-0.00468487
0.000171788
-0.000279384
-0.00340408
1.11472
-0.00040796
-0.0198276
-9.46546e-05
0.877805
-0.0325592
-0.0518648
-0.000280185
-0.0828898
-0.00309751
-0.098126
-0.0186
-0.000337493
-0.000846229
1.20098
-0.0487976
-0.00292057
-0.00258912
-0.000133994
0.749072
0.875088
-0.000123774
0.000456155
0.44689
-0.000328166
-0.00619648
-9.80573e-05
-0.000635776
-0.0267048
-0.0225637
-0.101255
0.008736
-0.0011046
-0.000292192
-0.000261225
-0.0422016
-0.0155771
0.454133
-0.0092166
-0.000156357
0.803088
-0.00577067
-0.000617772
-0.0342647
-0.00235362
-0.00136377
-0.000342395
-0.00623861
-0.00133386
-0.0153691
-0.000284236
-0.000935447
0.463249
-0.00623611
0.431025
1.04415
-0.00305225
-0.00485897
-0.06628
-0.00662023
1.22141
0.000636207
-2.59946e-05
-0.000155655
0.655207
1.1267
0.271078
0.00632341
-0.0237242
-0.000277489
-0.0145586
-0.000712801
-0.00089894
-0.00423536
0.682506
-0.0211874
-0.000498054
-0.00182476
-0.00162166
0.102195
0.679067
-0.0184546
-0.011412
-0.00189236
-0.000850465
-0.00044776
1.08096
-0.00129063
0.000247393
2.35756e-05
0.000662191
-0.0128255
0.11556
-0.00706631
-0.00733706
-0.0193951
9.11184e-05
0.00152946
0.513039
-0.0194835
-7.19806e-05
-4.07269e-05
0.716929
-0.0023126
0.142064
0.898887
-0.000744101
-0.000169738
0.115133
0.474901
0.228178
0.358787
-0.0346915
5.04211e-05
-0.000514405
0.659964
-0.00565444
-0.00167837
-0.0311941
-0.00958248
-0.0531691
-0.0218569
-0.00279741
-0.000543679
0.606789
-0.00197378
-0.0178752
0.947513
-0.0172054
0.877765
5.40525e-05
-0.0161365
0.821974
1.22703
-0.00743057
-0.00649844
-0.00828445
-3.79558e-05
-0.00396269
0.788812
-0.00123056
-0.0236982
-0.00328206
-0.000105469
-0.00104269
-0.00212701
4.76342e-05
0.505143
6.86564e-05
-0.00641003
-0.00164444
-0.000806178
-0.000100854
0.266527
0.613203
-0.0249082
-0.027332
-0.0295952
1.2164e-05
-0.000923472
9.10271e-05
-0.0289383
-0.0305654
0.388682
0.748811
-0.0316016
0.323148
-0.00518401
-0.0407032
-0.00515822
-0.0317131
0.28512
0.208111
-0.0328789
0.000551401
0.79853
0.419279
-0.004178
-0.000336761
0.000273414
1.10041
-0.000959658
-0.000269648
-0.00199427
-0.000311316
-0.000196213
-0.00106752
-0.000413057
0.000402661
0.198725
-0.0337894
-0.000285555
-0.0184754
-0.0217613
-0.0061923
-0.0216706
-0.0249035
-0.000180056
0.000716146
-0.00235693
-0.0141132
0.733365
-0.000719738
-0.00285832
0.00541935
-0.000173157
1.04399
0.676276
-0.0224879
-0.00094371
-0.00130224
-0.00124604
-0.000339459
0.759949
0.0138726