/*--------------------------------*- C++ -*----------------------------------*\
  =========                 |
  \\      /  F ield         | OpenFOAM: The Open Source CFD Toolbox
   \\    /   O peration     | Website:  https://openfoam.org
    \\  /    A nd           | Version:  7
     \\/     M anipulation  |
\*---------------------------------------------------------------------------*/
FoamFile
{
    version     2.0;
    format      ascii;
    class       volVectorField;
    location    "18.5";
    object      U;
}
// * * * * * * * * * * * * * * * * * * * * * * * * * * * * * * * * * * * * * //

dimensions      [0 1 -1 0 0 0 0];

internalField   nonuniform List<vector> 
19930
(
(0.997057 -0.000300446 5.31443e-24)
(0.988405 -0.00086906 2.91972e-22)
(1.0289 -0.00390915 -3.71559e-23)
(1.00032 -4.08967e-05 -1.9927e-24)
(1.00083 -0.00965249 7.56704e-23)
(1.00046 -0.0102473 -7.37108e-23)
(1.02602 -0.173588 -8.44285e-22)
(1.196 0.0732089 -1.68954e-20)
(1.00341 -0.0862196 -2.17636e-21)
(1.20333 0.0690481 1.21368e-20)
(1.03946 -0.159212 -2.47999e-21)
(1.32794 0.0090019 -2.67826e-22)
(0.984928 -0.0551678 -3.5033e-22)
(0.9969 -0.000358061 -6.10635e-24)
(0.995615 -0.00360888 6.9255e-23)
(1.00031 -5.21496e-05 -1.93491e-24)
(1.28707 -0.118616 -1.05248e-21)
(1.16161 -0.00187155 -9.23422e-21)
(0.997341 -0.127788 -1.55285e-21)
(0.990904 -0.000420606 -2.55546e-22)
(1.01459 -0.100186 2.85304e-21)
(1.32664 0.0128752 -4.46065e-22)
(1.21203 0.0742343 -8.85927e-21)
(1.11196 -0.21593 -1.82385e-21)
(1.02681 -0.0017482 5.40365e-24)
(1.00617 0.18501 -3.60399e-20)
(1.00989 -0.00288094 6.63722e-24)
(0.993301 -0.0598973 1.17287e-21)
(1.16081 -0.217971 -1.50865e-21)
(0.999619 -0.129528 5.40479e-21)
(0.998677 -0.00237027 -1.05972e-24)
(0.870327 0.0355075 6.03132e-20)
(1.29176 0.0763289 5.44307e-21)
(0.991906 -0.0349678 1.30283e-22)
(1.00008 -0.001766 8.46691e-24)
(0.998743 -0.00255521 -3.97396e-24)
(1.20478 0.104043 -1.82738e-20)
(0.999889 -3.63011e-06 -3.18088e-24)
(1.01604 -0.0210392 6.56749e-23)
(1.16902 -0.0116721 -3.007e-21)
(1.04557 -0.00942704 4.29782e-23)
(1.30053 0.149948 1.0063e-20)
(1.07255 0.0776747 -9.68812e-21)
(1.00883 -0.00334399 -5.48475e-24)
(1.00383 0.177065 1.45217e-20)
(0.975489 -0.00168918 1.93875e-22)
(1.1539 0.00871252 -2.80142e-20)
(1.31065 -0.0538418 -1.40864e-22)
(0.999559 -0.00011443 -2.32031e-24)
(0.972848 -0.0481004 1.82299e-22)
(0.999977 -0.00188082 -2.12059e-23)
(1.08738 -0.0111865 1.82725e-21)
(1.18216 -0.160638 4.20983e-21)
(1.00043 -0.00415687 -2.99721e-23)
(1.21652 -0.175514 -1.12752e-21)
(0.947927 -0.0189842 -1.54051e-22)
(0.978251 -0.032422 5.02092e-23)
(0.998548 -0.0030671 1.7771e-24)
(1.00995 -0.0512098 -1.2943e-21)
(1.2861 -0.113113 8.68614e-22)
(0.943984 0.066176 3.17116e-20)
(0.965827 -0.00477982 3.62162e-22)
(0.988351 -0.00369387 -9.03099e-23)
(1.21688 0.0558922 -7.30781e-22)
(0.999322 -0.000105005 1.50917e-23)
(0.99541 -0.00866552 3.42209e-24)
(0.998737 0.123685 9.40637e-22)
(0.994861 -0.00904954 5.62695e-23)
(1.1268 -0.101825 -4.87453e-23)
(1.02092 0.184705 1.339e-20)
(1.04341 -0.0477131 -8.57823e-23)
(1.27931 -0.144097 -1.96111e-21)
(0.996027 -0.00361248 -1.65049e-23)
(0.983533 -0.0405382 1.12919e-21)
(0.999515 0.024747 -1.37222e-20)
(1.07578 -0.0998466 7.98676e-22)
(1.01787 0.171355 6.14728e-21)
(0.956397 -0.00561029 1.2604e-22)
(1.16569 -0.0107514 1.91026e-21)
(1.00838 0.0679768 1.94481e-20)
(0.996344 -0.00900701 1.68566e-22)
(1.00244 -0.00490009 -2.6157e-23)
(1.14296 -0.214924 1.20897e-21)
(1.00463 -0.0836856 1.81234e-21)
(0.968978 -0.00380193 -3.99354e-22)
(1.0675 0.0738833 4.66018e-20)
(0.987902 -0.0516382 -6.59132e-22)
(0.766613 0.124078 5.82814e-21)
(1.20881 0.0540004 -7.19353e-21)
(0.97285 0.194777 2.35265e-20)
(1.17327 0.0184939 -1.03109e-20)
(1.00039 -7.62976e-05 2.19278e-24)
(1.00005 -0.000340639 1.00665e-23)
(0.889321 0.0112387 -1.71188e-20)
(1.31103 -0.0605044 1.00076e-22)
(0.988868 -0.00388023 -4.67159e-23)
(0.910593 0.00725147 2.62066e-20)
(0.999475 -0.00495716 2.38612e-23)
(1.04451 -0.154912 -1.07651e-21)
(1.12354 0.0203917 -1.16912e-20)
(0.966212 0.202058 -6.98429e-20)
(0.974947 -0.0112907 4.09348e-23)
(0.941543 0.187003 -7.74255e-20)
(1.17276 -0.145948 3.97145e-21)
(1.12362 -0.00485717 -5.13715e-21)
(1.10438 -0.102636 4.00962e-22)
(1.08361 0.190331 2.36553e-20)
(1.16622 -0.124005 7.28455e-22)
(0.988208 -0.000493774 -1.97291e-22)
(1.13255 0.202406 4.9969e-21)
(1.16755 -0.22322 -5.13279e-21)
(1.02132 -0.172273 -1.92994e-21)
(0.977482 -0.0255326 4.1266e-22)
(1.03683 -0.0245763 -1.4095e-22)
(1.07908 -0.0931182 2.16159e-22)
(1.00009 -9.57581e-05 -2.44316e-24)
(1.11547 0.118545 2.1847e-20)
(0.996925 -0.00843071 -6.494e-23)
(1.16226 -0.155186 8.91145e-22)
(1.00666 0.0552427 -4.56588e-20)
(1.00038 -5.58119e-05 4.02888e-25)
(1.02632 -0.105559 1.79714e-21)
(1.19888 -0.00939717 -3.8137e-21)
(1.01046 -0.0584632 -1.77003e-21)
(0.991811 -0.0331767 -1.14213e-22)
(1.16332 -0.0022957 4.70645e-21)
(1.32317 0.0456096 -9.16646e-21)
(0.993124 -0.057691 9.58326e-22)
(0.855609 0.0422577 -1.77522e-20)
(1.10959 0.125202 1.17353e-20)
(0.988877 -0.0661396 -9.08702e-22)
(0.972522 -0.0462758 -5.78904e-22)
(1.04578 -0.00489811 1.89836e-22)
(1.01514 -0.0193369 -9.96476e-24)
(1.06731 0.180962 -3.27333e-20)
(1.11807 -0.008463 -1.34274e-21)
(1.30754 -0.0318025 -1.08118e-21)
(1.0177 -0.101123 -1.20749e-21)
(0.980334 -0.0114242 3.8547e-22)
(0.989525 -0.0872047 4.0216e-21)
(1.02199 -0.10824 3.21799e-22)
(0.981905 -0.0418291 -1.11314e-21)
(1.27593 -0.153248 -1.72146e-21)
(0.935818 0.207067 -2.45575e-20)
(1.23948 -0.0726367 8.3656e-22)
(1.06739 0.188018 2.97116e-20)
(1.33204 0.085183 -1.29757e-21)
(0.967749 -0.0118818 -3.19524e-22)
(1.31593 0.0332113 -6.80028e-21)
(1.01117 -0.00386515 -8.98168e-24)
(0.967319 -0.010857 6.29969e-22)
(1.02311 0.179887 1.4933e-21)
(1.00007 -0.000292795 -6.42675e-24)
(1.0034 -0.077478 6.98496e-22)
(1.00238 -0.00440666 4.48465e-23)
(1.33405 0.0923048 6.39193e-21)
(1.06045 0.0786807 -4.90169e-21)
(1.10782 -0.210981 7.875e-21)
(0.943647 -0.021975 3.18972e-22)
(0.983999 -0.0564385 7.37718e-22)
(1.21886 -0.185245 1.55114e-21)
(1.03094 -0.168743 1.31364e-21)
(0.998495 -0.00283526 -4.36557e-24)
(1.24029 -0.0660612 -1.50136e-21)
(1.15089 -0.00894452 -8.35551e-22)
(0.773567 0.129721 1.39273e-20)
(0.976192 -0.011451 2.66756e-22)
(1.13539 -0.219908 4.84881e-22)
(1.07081 -0.101067 -9.12833e-22)
(1.20131 0.0989255 -1.10217e-20)
(1.30942 -0.0352285 4.2937e-22)
(0.985204 0.140859 1.44128e-20)
(1.19882 0.213624 3.08839e-20)
(0.989088 -0.0304569 2.23109e-23)
(0.80792 0.0333812 -2.0915e-20)
(1.29544 0.0711913 6.27821e-21)
(0.996394 -0.000745183 -4.58072e-24)
(0.976525 0.0166489 -3.69103e-20)
(1.08616 -0.0926052 -7.36632e-23)
(1.12282 0.218528 1.00387e-20)
(1.06234 0.203962 -1.51359e-20)
(0.999834 -3.05892e-06 3.87941e-24)
(0.922513 0.141901 9.76108e-22)
(1.17244 0.184845 2.75904e-20)
(0.990219 -0.000700483 1.75497e-23)
(0.941783 -0.0157197 1.70212e-21)
(1.04311 -0.0446036 9.46928e-23)
(1.13109 0.014504 -3.02247e-21)
(1.16538 -0.148859 -1.39711e-21)
(0.846081 0.110654 1.80479e-20)
(1.31704 0.0458636 -3.4816e-21)
(1.25588 -0.117135 -4.08384e-22)
(1.11713 0.0159513 2.33078e-20)
(1.1279 -0.0947153 6.48525e-22)
(0.944412 -0.0230812 8.13924e-22)
(1.30359 -0.00424041 -3.72725e-21)
(0.925485 0.149484 -1.1469e-21)
(1.28878 -0.0779695 1.92008e-22)
(0.992424 -0.000271833 -6.12868e-24)
(0.836413 0.109366 -1.77337e-20)
(1.28706 -0.0425327 -3.6696e-21)
(1.23671 -0.158689 1.38871e-21)
(1.18365 -0.153302 -3.49589e-21)
(0.864299 0.126806 -2.16335e-20)
(0.90414 0.131448 4.98504e-20)
(0.964075 -0.0260888 -3.55775e-22)
(1.00015 -0.0430344 -1.07717e-22)
(1.08753 -0.00660811 -2.47652e-22)
(0.948284 -0.0205299 -7.95047e-22)
(0.998534 -0.000137802 2.09851e-23)
(1.00274 0.126359 -6.72546e-21)
(0.973752 0.0501937 -1.3256e-20)
(0.967172 -0.0150237 5.52106e-22)
(0.955293 -0.0355784 5.08412e-22)
(1.1229 0.209645 1.50374e-20)
(0.998192 0.0419571 2.08506e-20)
(0.998532 -6.46709e-05 -4.97782e-23)
(1.00393 0.0455847 -3.10294e-20)
(1.17206 -0.120574 3.17818e-22)
(1.0163 -0.0170317 6.73602e-23)
(1.0039 -0.062578 1.20068e-22)
(1.07964 0.124151 -2.4431e-21)
(0.915652 0.234773 2.31662e-20)
(1.16918 0.0174044 1.36289e-20)
(1.13028 0.191531 -2.44022e-20)
(0.979084 -0.0113767 -6.54878e-22)
(1.0024 -0.0425676 -5.22146e-22)
(1.00013 -0.00010469 7.69619e-26)
(0.998969 -4.75367e-05 7.88317e-24)
(1.00067 -0.00808207 1.51841e-22)
(1.19432 -0.0103744 1.72005e-21)
(1.12849 -0.147682 -9.10532e-22)
(1.08504 0.182837 -3.01351e-20)
(0.996851 -0.102445 1.09952e-21)
(1.04739 0.0649151 1.82657e-20)
(0.989424 -0.0498921 -1.17087e-22)
(1.0985 -0.0973557 -3.17938e-22)
(0.989727 0.137027 2.548e-20)
(0.89563 0.00883263 8.90455e-20)
(1.07923 0.116606 4.21874e-20)
(1.02192 0.164576 -3.80026e-20)
(0.953635 -0.0348038 -4.49831e-22)
(1.2689 0.143724 -6.8397e-21)
(1.01161 -0.0567407 1.93701e-21)
(1.12947 -0.00816508 1.06109e-20)
(0.99674 -0.00760492 -1.1433e-22)
(1.25331 -0.179239 -4.63298e-21)
(1.18791 -0.0975305 1.42898e-21)
(1.09596 -0.0337899 2.78246e-21)
(0.999584 -8.77882e-05 2.77394e-24)
(0.986223 -0.00068401 2.45733e-22)
(0.905875 0.241256 -3.57256e-20)
(1.24068 -0.00519888 2.24056e-20)
(1.01537 -0.0226313 -1.26369e-22)
(0.969623 -0.0519812 -1.08165e-21)
(1.12376 -0.141887 3.09617e-22)
(1.05916 -0.189584 3.29254e-21)
(1.29431 0.158083 -1.35192e-21)
(0.990817 -0.0863219 -1.11347e-21)
(0.971126 -0.00209213 -3.81508e-22)
(0.995276 -0.0680762 1.35533e-21)
(0.992739 -0.0294296 -1.38549e-22)
(0.999252 -8.00266e-05 -7.06031e-25)
(0.988522 -0.047595 6.00101e-22)
(1.03464 -0.169404 -6.03751e-22)
(0.932734 0.198361 4.62449e-20)
(1.30214 -0.0827734 -4.88753e-22)
(0.979206 -0.0243971 -7.69413e-22)
(1.04311 0.0687085 -2.8278e-20)
(0.909063 0.141305 -5.99289e-21)
(0.988495 -0.0536897 1.27605e-22)
(1.00071 -0.000290306 -1.3951e-23)
(1.00235 -0.0803964 -1.2594e-21)
(0.998309 0.116084 7.83476e-21)
(1.22589 -0.205583 -2.68572e-21)
(0.948392 0.0611171 -4.75995e-20)
(1.00005 -0.000112035 1.15724e-24)
(0.957175 -0.0390738 8.95583e-22)
(1.17425 0.230283 2.52788e-21)
(0.998986 0.039785 4.18855e-20)
(1.02997 -0.0797464 -3.16256e-22)
(0.979681 -0.0310027 5.17835e-22)
(0.868292 0.217348 3.87953e-20)
(1.23635 -0.14233 3.24431e-22)
(1.24819 -0.117207 4.259e-22)
(0.951535 0.188596 3.16854e-20)
(0.852135 0.125437 -3.70065e-21)
(0.987076 -0.0554181 -3.95603e-22)
(1.17529 0.23769 -1.70619e-20)
(1.18376 -0.0394655 -4.47209e-21)
(1.01177 0.0683985 -5.30903e-20)
(1.14664 0.118798 1.26311e-20)
(1.00073 -0.000212755 1.75557e-23)
(1.30789 -0.0843699 7.05353e-22)
(1.1891 0.100399 6.74039e-21)
(0.996254 -0.000649948 -6.18743e-24)
(0.994913 -0.107687 -4.43324e-22)
(1.28162 -0.0674215 -3.74917e-22)
(1.12387 -0.208986 -1.38649e-21)
(1.28163 -0.0449077 2.2231e-21)
(1.20234 -0.0810541 -1.02066e-21)
(1.00012 -0.000189275 -2.18265e-24)
(0.999571 -0.00350012 6.3302e-23)
(0.982108 0.223682 -5.49235e-20)
(1.0014 -0.0145059 -3.17913e-23)
(1.0038 -0.129075 -1.26769e-21)
(0.989391 -0.0713114 1.36364e-22)
(1.32153 0.0140826 -3.16257e-21)
(0.96853 -0.00465375 -7.02716e-23)
(1.12846 0.223957 1.7211e-20)
(1.24264 -0.0497684 3.93016e-21)
(0.992791 -0.0684482 7.88452e-22)
(0.953628 -0.00674596 -3.4945e-22)
(1.20428 0.0896922 1.16605e-21)
(1.29559 0.00369843 3.08137e-21)
(1.00008 -0.000193536 -2.05756e-24)
(0.957593 0.135058 4.66993e-20)
(1.1116 0.13256 5.73924e-21)
(0.983102 0.03538 -1.14939e-20)
(1.22177 -0.167808 -1.4683e-21)
(0.99936 -7.66083e-05 -1.21103e-23)
(0.871185 0.207999 -2.58941e-21)
(0.996912 -0.00526873 -9.42698e-23)
(0.992651 -0.0527951 2.53613e-22)
(1.29769 -0.00300938 -1.29443e-21)
(1.2823 -0.075224 1.26598e-23)
(0.980633 -0.0553398 -9.54641e-22)
(1.23195 -0.150662 1.9404e-21)
(1.05516 0.0754692 7.33798e-21)
(0.893234 0.010929 3.2125e-20)
(1.04893 0.184574 -3.95585e-20)
(1.22481 -0.0278564 -6.61834e-21)
(0.784971 0.0446289 4.52082e-21)
(1.00035 -1.00227e-05 -1.18734e-24)
(0.990561 -0.0289123 -1.50567e-22)
(1.00006 0.0231551 5.53781e-20)
(1.17406 -0.195707 5.35879e-22)
(1.18401 0.0957962 -1.62493e-20)
(0.985651 -0.0410854 -4.60952e-22)
(1.00864 0.170869 3.83517e-20)
(1.21958 -0.0559934 2.87113e-21)
(1.00018 -0.00380421 3.87466e-23)
(1.21239 -0.0572193 -2.51245e-21)
(1.11217 0.10952 -2.81427e-20)
(1.1383 -0.192811 -2.27689e-23)
(0.936209 0.0157989 -8.71262e-21)
(1.18928 0.185931 3.87687e-21)
(0.999289 -0.000340744 -1.07553e-24)
(1.03912 -0.0222924 -4.40511e-22)
(1.25972 0.0717828 6.55919e-21)
(1.16256 -0.00043806 1.78711e-20)
(0.997823 -0.000108648 5.49544e-23)
(1.19443 0.205736 -2.77308e-20)
(1.01241 -0.0505448 -1.56084e-22)
(0.744441 0.124404 -2.18982e-21)
(1.01824 -0.106264 -2.31986e-21)
(0.966541 -0.0136559 2.24788e-22)
(0.986936 -0.000799313 -2.71852e-22)
(1.05385 0.191385 4.38184e-20)
(1.16749 0.178869 -4.37681e-20)
(0.972447 -0.0029298 1.67097e-22)
(1.19546 0.0830765 4.15453e-21)
(0.970149 0.184765 -1.35204e-20)
(1.00148 -0.0155627 -4.54815e-23)
(1.08539 0.00997413 7.06919e-21)
(1.04764 0.031541 -2.04445e-20)
(0.757527 0.0681879 2.98756e-20)
(0.997327 -0.00441439 2.84046e-23)
(1.29026 0.025688 -8.29613e-21)
(1.1806 -0.0999907 -2.68366e-22)
(0.946439 -0.0185002 -2.81829e-22)
(0.999569 -7.06997e-05 -2.27797e-24)
(0.999482 0.0131372 3.3929e-20)
(1.30852 0.150779 5.72291e-21)
(1.27266 -0.0931773 1.2545e-21)
(1.00393 0.218501 -1.38818e-20)
(1.22316 -0.0213139 3.23504e-21)
(0.976501 -0.0319771 3.66296e-22)
(1.26582 0.133519 -5.1746e-21)
(1.15038 -0.00509549 -2.80083e-21)
(1.23266 -0.00307829 6.87324e-21)
(0.768135 0.074698 -7.78727e-20)
(1.02185 -0.0937665 8.11464e-22)
(1.2956 -0.0147291 1.54995e-21)
(0.980101 0.0453272 -2.99763e-20)
(0.968252 -0.0527857 9.81439e-22)
(1.17041 -0.0475698 3.77871e-22)
(1.05123 -0.156354 2.50822e-21)
(1.25645 0.0655679 -2.93224e-21)
(0.993915 -0.000202074 -3.99937e-22)
(1.15851 0.00851123 -3.00488e-21)
(1.2767 -0.0881181 -3.73431e-22)
(1.29346 -0.0197438 3.54009e-21)
(1.00135 -0.00485887 1.08793e-22)
(1.15041 0.00680226 2.97537e-20)
(0.994129 0.0286422 -2.85839e-20)
(1.10412 0.0747752 5.06878e-20)
(1.12567 -0.204721 -5.40928e-21)
(0.994033 -0.0277968 3.08075e-22)
(0.872451 0.116192 -2.50787e-20)
(0.872259 0.0409043 -6.4769e-20)
(0.997273 -0.00712358 -2.48626e-23)
(0.958903 -0.0382447 4.08712e-22)
(1.05086 0.133325 5.83418e-21)
(1.00738 -0.135696 -1.03328e-21)
(1.09122 -0.0991891 3.3854e-22)
(1.28366 0.155747 2.06885e-20)
(0.98893 -0.000530705 3.39104e-22)
(0.749937 0.0601622 5.16365e-20)
(1.03248 -0.0716836 -7.92011e-23)
(1.29261 0.0401646 2.99394e-21)
(0.990464 -0.0102894 3.40683e-23)
(0.990295 0.028779 -1.22387e-20)
(1.19223 0.176128 -7.78937e-21)
(1.09712 -0.0265927 -2.97712e-21)
(1.10371 -0.109349 -3.34024e-22)
(1.25957 -0.112468 8.43619e-22)
(1.28845 -0.0378504 3.59531e-22)
(0.999644 -0.00538085 6.90118e-25)
(1.03836 0.110195 -1.0763e-20)
(1.28694 -0.14231 4.15283e-21)
(1.20309 0.0592355 1.7745e-20)
(0.750062 0.13162 7.80253e-20)
(1.23219 -0.167884 1.15555e-21)
(1.06916 -0.087224 -7.44929e-22)
(1.00032 -0.00877321 -1.52238e-22)
(1.31482 -0.0504274 7.92495e-22)
(1.29002 -0.0854039 -3.14657e-22)
(0.97601 -0.0248881 1.30585e-21)
(1.24437 0.169069 -2.55056e-21)
(1.00006 -0.00143262 -3.37538e-23)
(0.974224 -0.0428057 -2.01668e-22)
(1.01535 -0.0154466 -8.53984e-23)
(1.2315 -0.134897 6.59955e-23)
(0.989824 -0.0457706 5.0441e-22)
(0.999576 -0.000146088 4.66618e-25)
(0.988204 -0.0589632 1.51693e-21)
(1.30574 -0.00990291 -1.85156e-21)
(1.13693 -0.200987 -2.01267e-21)
(1.04695 -0.0773107 -1.20381e-22)
(0.96254 -0.0267172 -7.34669e-22)
(1.27529 -0.0640989 -1.80214e-21)
(1.19787 -0.0746656 2.33417e-21)
(0.975361 -0.0548674 -4.97798e-22)
(0.947943 -0.00944375 1.08118e-21)
(1.00102 -0.00508073 -1.77919e-23)
(1.13213 -0.106906 1.33408e-22)
(1.01707 -0.147094 -1.59123e-22)
(1.01262 -0.00324734 3.46187e-24)
(1.03371 -0.0766197 9.91613e-22)
(1.28908 0.00540905 -5.06806e-21)
(1.10483 0.0686704 -3.08905e-20)
(1.2484 -0.0619864 8.44754e-22)
(0.999241 -0.000290323 4.20003e-24)
(0.851643 0.231992 -5.74653e-20)
(1.01278 -0.00167054 -1.02632e-23)
(0.999982 -0.0015514 4.03695e-23)
(1.04279 -0.0112574 5.23753e-22)
(0.96275 -0.0386013 -6.66018e-22)
(1.00669 -0.0952401 1.55244e-22)
(0.910457 0.121504 -2.92928e-20)
(1.0237 -0.0584396 8.79575e-23)
(1.17958 -0.0359445 -2.17925e-21)
(1.01494 -0.127756 2.36748e-21)
(1.01168 -0.129444 -3.04493e-21)
(1.2803 0.145583 -1.43602e-20)
(0.99465 -0.0534828 -4.22493e-22)
(0.990504 -0.0824203 6.87406e-22)
(0.996927 -0.106211 1.01846e-21)
(0.999621 -5.02531e-05 5.3225e-24)
(1.17415 -0.137494 -2.07762e-21)
(0.824776 0.22112 -5.38693e-21)
(1.06261 -0.184253 8.62183e-22)
(0.960634 -0.0483923 -1.56469e-22)
(1.23515 0.16196 -2.83361e-22)
(0.981751 -0.0522898 -9.96999e-23)
(1.14216 0.111436 -1.05852e-20)
(1.3215 0.0326125 -5.55128e-22)
(0.996441 -0.00563328 1.50819e-22)
(0.998405 -0.000200567 -1.73319e-23)
(1.09833 0.122998 3.50703e-21)
(0.763719 0.164057 2.53197e-20)
(1.04731 -0.180227 2.22806e-22)
(1.32431 0.0733342 1.27627e-21)
(1.31373 -0.0158441 -4.24207e-21)
(0.96648 -0.043173 -2.93349e-22)
(0.966447 -0.0452975 -6.92458e-22)
(1.05561 0.138836 -1.5814e-21)
(1.11798 -0.0156752 2.03846e-21)
(1.1447 -0.206835 4.19109e-21)
(1.05615 -0.150683 -2.02197e-21)
(0.976861 -0.00175771 4.81335e-23)
(1.06815 -0.01729 1.24289e-21)
(0.870175 0.0625812 -1.1175e-20)
(1.18875 -0.0193163 -1.4224e-20)
(1.00032 -8.55044e-05 2.13699e-24)
(0.937162 0.179703 4.99067e-20)
(1.03581 -0.0686453 -8.8973e-22)
(1.00791 -0.0971059 1.778e-21)
(1.18014 0.222774 -1.50003e-20)
(1.01804 -0.0251659 -1.13225e-22)
(0.989671 -0.00984324 -1.13536e-22)
(0.999322 -0.000492617 2.97822e-25)
(1.16595 -0.107743 4.01995e-23)
(0.964189 -0.0205789 -5.44894e-22)
(1.00033 -1.56236e-05 2.11577e-24)
(1.32791 0.0707407 -3.21479e-21)
(1.23018 -0.198868 -1.84628e-21)
(1.03359 0.108287 -1.87484e-20)
(0.999202 -0.000114608 -3.90871e-24)
(1.00029 -0.00455177 -1.73588e-23)
(0.980616 -0.0535815 -4.76579e-22)
(1.00001 -9.27287e-05 1.98939e-25)
(1.04747 -0.185178 -1.14756e-21)
(1.16223 -0.208243 -1.96875e-21)
(0.999696 -0.00456214 1.28365e-23)
(1.00676 -0.0766878 -5.32761e-22)
(0.943101 -0.0155514 4.11951e-22)
(1.16192 0.200267 -1.83178e-21)
(0.998153 0.216872 1.12102e-20)
(0.996866 -0.00480583 2.97382e-23)
(1.00336 -0.00117991 1.55793e-23)
(0.993918 -0.100525 -2.66928e-21)
(0.983498 0.197149 3.66464e-20)
(1.00472 -0.0352618 4.95552e-22)
(0.959917 0.125957 -1.15768e-21)
(0.981274 -0.0125118 -4.7138e-23)
(0.743097 0.100643 -2.12531e-20)
(1.07622 0.0234882 -3.86248e-21)
(1.22494 0.0329001 -1.6436e-20)
(0.795184 0.130622 -2.28941e-20)
(1.28915 -0.13271 1.51552e-22)
(0.989625 -0.00316171 -2.32118e-23)
(1.17351 -0.0958913 3.19334e-22)
(1.00919 -0.0366181 -5.57359e-23)
(0.999216 0.192639 9.04852e-21)
(1.04814 0.119606 2.52389e-20)
(0.969619 -0.00851105 2.46517e-22)
(1.2487 -0.172615 5.04315e-21)
(1.15002 -0.0452835 -3.10867e-22)
(1.06531 -0.0914867 -7.23354e-22)
(0.995136 -0.000328836 -1.3229e-23)
(1.25025 -0.188091 4.5791e-21)
(1.00031 -3.19961e-05 3.03181e-24)
(1.15257 0.196428 9.66076e-21)
(0.941771 -0.0145934 -1.54867e-21)
(0.991021 -0.0660829 -2.66351e-22)
(0.995974 -0.0320946 3.08377e-22)
(1.00622 -0.0616916 1.93897e-21)
(1.28513 0.0404915 9.78251e-22)
(1.24912 -0.0554721 -3.0548e-21)
(0.998142 -6.39995e-05 -4.29576e-23)
(1.02692 -0.0564102 -6.51179e-22)
(0.99988 -0.000143959 9.19317e-25)
(0.747108 0.0932608 1.57627e-20)
(0.880935 0.0561992 2.28502e-20)
(0.994691 -0.00116126 -6.31198e-24)
(0.971487 -0.013554 -2.86315e-22)
(1.03682 -0.0422442 5.4693e-23)
(1.05359 0.125129 1.08378e-20)
(0.94039 -0.0232127 -8.47887e-22)
(1.3182 -0.0159468 -8.58613e-22)
(0.962723 -0.0495188 1.89712e-22)
(1.03872 0.186333 -7.91458e-22)
(1.2328 0.0337712 -1.77709e-21)
(0.963274 -0.0223882 -3.81869e-22)
(0.769956 0.0486449 -3.27713e-20)
(1.05977 -0.00293882 -1.1305e-21)
(1.06182 0.192359 -2.32807e-20)
(0.992506 -0.0147156 1.86808e-23)
(1.018 -0.155869 4.87204e-21)
(0.948103 0.00953473 -7.29132e-20)
(1.01527 -0.0462148 5.47675e-22)
(0.75786 0.175574 -1.15686e-20)
(1.07832 0.141368 1.35063e-21)
(0.775494 0.0555205 -7.78572e-21)
(0.990173 -0.00326626 1.84714e-23)
(0.991408 -0.00061358 5.88677e-23)
(1.02626 -0.100798 -5.18438e-22)
(1.19022 -0.0897764 -2.09523e-21)
(1.01666 -0.0249178 1.20899e-22)
(1.02634 -0.0913429 -1.73063e-22)
(1.04493 0.170337 2.14279e-21)
(1.04147 0.204158 7.36729e-21)
(1.07836 0.00432684 8.04824e-24)
(0.98964 0.190476 -2.62426e-20)
(0.778153 0.189887 6.2467e-21)
(1.28361 0.0759456 1.12613e-20)
(0.997849 0.0151241 -4.91373e-20)
(1.09348 0.0589237 -9.86122e-21)
(1.00574 -0.018767 -3.36855e-22)
(1.09372 0.128757 -1.15213e-21)
(0.988972 -0.0817303 -5.96094e-22)
(0.96444 -0.0484044 4.97863e-22)
(0.998654 -0.00134738 1.93032e-24)
(1.05831 -0.0905084 1.6557e-21)
(1.10308 -0.176637 -6.07083e-22)
(1.15378 0.0506068 7.58225e-21)
(1.10138 -0.0128575 3.70232e-21)
(1.0063 0.0622872 3.85996e-21)
(1.00918 -0.0533367 1.18794e-21)
(1.15933 -0.0356746 2.02647e-21)
(1.00855 0.0480147 -4.42221e-21)
(1.01043 -0.038424 6.84255e-22)
(1.09898 -0.112901 7.78638e-22)
(0.999916 -0.000173437 -5.92789e-26)
(1.00051 -0.000241797 3.03814e-24)
(1.14943 0.0459064 -3.76361e-23)
(0.991647 -0.0710114 -7.67373e-22)
(0.970438 -0.0453879 7.88573e-22)
(1.00056 -0.000230288 -4.48922e-24)
(1.00012 -0.00316556 2.47365e-23)
(1.14698 -0.0500327 -5.47794e-22)
(0.999385 -7.59891e-05 6.99065e-24)
(1.30534 -0.0645329 -1.52489e-22)
(0.752642 0.0744018 4.11664e-20)
(1.32562 0.082719 5.4693e-22)
(1.22064 0.0627392 -6.3209e-22)
(0.965338 -0.00827868 -3.78536e-22)
(1.10311 0.191594 8.08247e-21)
(1.31389 -0.0438807 -6.46086e-22)
(1.0053 -0.0328984 -2.8944e-23)
(0.972172 -0.0150792 -2.83356e-22)
(0.997318 -0.00409011 1.05505e-25)
(0.999261 -0.000439069 -9.91031e-25)
(1.00202 -0.0051654 -4.10835e-23)
(0.996627 -0.0341025 2.65833e-22)
(1.03359 -0.157359 2.66237e-21)
(1.2215 0.100152 2.04872e-20)
(1.21515 -0.101618 6.52052e-23)
(0.961701 -0.00402241 1.06261e-22)
(0.999889 -0.000103193 1.79007e-26)
(1.01033 0.113261 2.58384e-20)
(1.2804 -0.110522 2.02716e-21)
(1.26614 -0.154535 1.25123e-21)
(1.01778 -0.0476395 -6.10584e-22)
(1.30289 -0.030922 1.94362e-21)
(1.0557 -0.0934408 -5.10215e-22)
(0.982079 -0.000918854 -7.65257e-23)
(1.00523 0.0402582 2.21191e-20)
(0.952483 0.00176994 -9.72407e-20)
(1.23682 0.215499 -1.74015e-20)
(0.989034 -0.000434699 -2.38554e-22)
(1.23001 0.220195 1.40802e-20)
(0.966 -0.00596128 1.42234e-22)
(0.984747 -0.0490395 -6.13301e-22)
(1.30395 0.103027 -1.19954e-20)
(1.0003 -0.000105358 4.03051e-24)
(0.989454 -0.0322801 -7.88257e-23)
(1.29461 0.0288946 2.90484e-21)
(1.2681 0.073148 1.28555e-20)
(0.964636 -0.0241812 -9.23569e-23)
(1.06191 0.123123 1.69859e-21)
(0.926587 0.240533 -2.41384e-21)
(1.03353 0.0593162 -5.02974e-20)
(0.96085 -0.0395243 1.04286e-21)
(0.949046 -0.00932389 -5.18768e-22)
(1.05139 -0.0737909 -1.55061e-22)
(1.15602 -0.0104245 4.54433e-22)
(1.04469 0.0261938 -1.20387e-20)
(0.994958 -0.00157976 -4.65255e-24)
(0.941466 0.0223182 -2.72452e-20)
(0.992031 -0.0503963 1.38417e-21)
(1.02282 -0.156203 -3.31383e-21)
(1.17256 -0.088247 6.16357e-22)
(0.842381 0.237193 8.16485e-20)
(1.23059 0.104845 -1.61819e-20)
(1.04153 0.121722 -2.65404e-20)
(1.17239 -0.205083 1.03677e-21)
(0.914469 0.00528913 -4.3915e-20)
(0.966138 -0.020336 5.46614e-22)
(0.986229 -0.0472733 4.42791e-22)
(0.823137 0.0258253 1.56037e-20)
(1.09154 -0.0365451 -8.80085e-22)
(1.03558 -0.146794 -4.74294e-22)
(1.05994 0.175066 -5.38342e-21)
(1.03276 0.179122 -1.69415e-20)
(0.976022 -0.0414265 -7.19707e-22)
(1.05436 0.0336943 -2.71293e-20)
(0.986531 0.20625 -4.84125e-21)
(1.03105 0.16432 2.21686e-20)
(1.14564 0.217478 6.48062e-21)
(1.05128 0.177675 3.50944e-20)
(1.142 0.126848 -1.65833e-20)
(0.985589 -0.00400391 1.16385e-22)
(0.967364 -0.0220222 6.68452e-22)
(1.0031 -0.00828061 -2.2297e-23)
(1.00628 -0.127094 3.43432e-21)
(0.985735 0.048525 -6.88107e-21)
(1.01092 -0.134719 1.99473e-21)
(1.30055 0.00873326 -2.26384e-22)
(1.24288 0.0077236 -8.50414e-21)
(0.971128 -0.0524638 5.57586e-22)
(1.2998 -0.0618366 -2.56934e-23)
(1.31234 0.0285681 -2.34577e-21)
(0.982219 0.0204818 -2.11065e-21)
(1.28801 -0.0631594 5.9684e-22)
(0.999712 -0.00381962 -7.12086e-24)
(1.0724 -0.0170593 7.44903e-23)
(0.984038 -0.0528212 3.00071e-22)
(1.24599 -0.141743 1.1766e-22)
(1.26091 -0.147615 -2.56955e-21)
(1.01366 -0.143261 6.63859e-22)
(1.1424 0.206212 3.65047e-21)
(0.965999 0.22928 3.92277e-20)
(1.2114 -0.0803022 1.35512e-21)
(0.993196 0.0182865 2.17761e-20)
(0.75999 0.153184 -2.83876e-20)
(0.998265 -0.000121039 1.35588e-23)
(1.00372 -0.00120419 -9.68864e-25)
(0.996486 -0.00620548 -6.70263e-23)
(0.970629 -0.00899955 8.10885e-23)
(1.19259 0.114605 -1.18734e-20)
(0.822051 0.0294809 -3.37368e-20)
(1.19354 -0.0172663 1.22658e-20)
(1.11356 0.204893 4.87995e-21)
(0.981057 -0.0253466 -3.93922e-22)
(1.23147 0.184756 2.32208e-20)
(1.23771 0.203106 7.38035e-21)
(1.22765 -0.18883 7.13561e-22)
(0.955372 -0.0128927 5.11836e-22)
(0.941741 -0.021959 5.24365e-22)
(1.30668 0.00690528 5.97627e-22)
(1.013 -0.047214 2.45138e-22)
(1.2164 -0.0959189 3.13264e-22)
(0.9684 -0.0420552 1.56761e-22)
(0.949034 -0.040778 -1.4643e-21)
(1.07608 0.176888 3.7809e-20)
(0.991286 -0.00277248 4.70196e-23)
(1.0273 -0.0644434 -1.60438e-22)
(1.04375 0.199824 1.8184e-20)
(1.29412 -0.0661227 8.46705e-22)
(0.86354 0.197301 9.1599e-21)
(1.01417 -0.0926454 -9.06036e-22)
(1.08377 0.0201959 1.26337e-20)
(1.25116 -0.149045 2.77553e-21)
(0.998204 -0.0754774 3.0772e-22)
(0.948806 0.0167441 -9.91096e-21)
(0.976257 0.00111724 6.27036e-20)
(0.978902 0.0628318 -1.06893e-20)
(0.993405 -0.036145 -6.11106e-22)
(0.853917 0.0380191 3.57987e-20)
(0.962914 -0.0364275 5.26509e-22)
(0.950901 0.166111 1.37933e-21)
(1.13505 -0.0906228 -1.65731e-22)
(0.975215 0.0997792 -5.98533e-21)
(0.981109 -0.0502632 3.72551e-22)
(1.00005 -0.000247602 -3.43454e-25)
(0.973617 0.0875193 2.00491e-20)
(0.943447 0.148682 2.366e-20)
(0.959204 0.181123 -3.79231e-20)
(0.974854 0.0755725 -2.33538e-20)
(1.13063 0.00755456 -4.18647e-20)
(1.16885 -0.042277 -1.01096e-22)
(1.162 0.109839 -3.08845e-20)
(1.03302 -0.142133 1.19362e-21)
(0.991959 0.0399629 7.05989e-20)
(1.05724 0.109803 -3.26053e-20)
(1.27248 -0.111032 -2.38324e-21)
(1.10547 -0.0170052 -3.92323e-21)
(0.986028 -0.00380563 6.29453e-23)
(1.2957 -0.130934 -5.73812e-22)
(1.0931 0.178125 -6.15093e-21)
(0.949802 -0.0318401 3.6966e-23)
(0.96588 -0.00507694 -4.14332e-22)
(0.979629 0.01069 -1.41359e-20)
(0.964831 0.108867 -4.33747e-20)
(0.988491 -0.0575127 -6.17825e-22)
(0.984364 0.116428 3.13435e-20)
(1.01537 -0.151792 1.1547e-21)
(1.29765 -0.0330328 -2.95029e-21)
(0.992868 -0.000348128 -1.02439e-23)
(0.953256 0.118935 -2.44932e-20)
(0.939556 0.131265 6.29177e-20)
(0.771198 0.0843069 6.33249e-20)
(0.979093 0.214245 5.08496e-20)
(0.996471 -0.000417817 2.39455e-24)
(0.981229 -0.0274666 2.59484e-22)
(0.998473 -0.00138915 -1.57976e-23)
(0.994145 -0.0787421 -2.47935e-21)
(0.862582 0.151131 -1.31846e-20)
(1.24363 0.0573383 -2.06667e-20)
(1.1206 0.188342 -3.99794e-22)
(0.949537 -0.0391282 9.42125e-22)
(1.09559 0.0643928 3.09823e-20)
(1.0394 -0.041359 -1.04355e-22)
(0.862072 0.174875 1.89788e-20)
(1.0871 -0.118542 -5.0112e-22)
(0.98888 0.0159648 2.41218e-20)
(0.993058 -0.000343559 -1.1562e-23)
(0.883556 0.141066 -4.32368e-20)
(0.84127 0.186694 -5.32451e-20)
(0.979378 -0.0287088 -6.80267e-22)
(1.25503 -0.025055 3.3878e-21)
(0.885854 0.118485 -4.3149e-20)
(0.995856 -0.000634088 -2.70029e-23)
(0.812153 0.0857124 -7.03191e-21)
(1.04731 -0.0818344 1.88846e-22)
(0.995878 -0.000429815 1.73313e-23)
(0.953677 -0.0142062 -3.59591e-22)
(1.06527 0.200429 -2.28747e-20)
(1.25638 0.0241174 -1.07708e-20)
(1.00371 -0.106981 1.56901e-21)
(1.01317 0.207963 1.98457e-21)
(0.828953 0.211453 3.56547e-21)
(1.22921 0.196283 -2.53187e-20)
(1.06409 -0.0128774 -6.59476e-22)
(0.99724 -0.0702635 4.84694e-22)
(1.16577 -0.100774 -2.96025e-22)
(0.968701 0.123239 3.56454e-20)
(0.833898 0.0864314 -4.03816e-21)
(0.759377 0.0802924 4.09851e-21)
(1.23153 0.0483279 3.34183e-21)
(1.00064 -0.0110959 3.29297e-23)
(0.974515 -0.00195862 -6.03196e-24)
(1.10133 0.181994 -2.1804e-20)
(1.00218 -0.00861276 2.48361e-23)
(0.983144 -0.00581759 -7.40223e-25)
(1.00341 -0.0135232 -1.65583e-23)
(0.993411 -0.0315843 -3.00509e-22)
(1.07664 -0.166176 2.18353e-21)
(1.16526 -0.189927 -1.35812e-21)
(0.924543 0.183025 -5.6054e-20)
(1.02055 -0.0528816 2.07577e-23)
(0.998849 -0.00111647 9.20046e-24)
(1.07165 0.111716 -5.43151e-22)
(1.28149 0.0486197 8.60603e-21)
(1.00214 -0.0136849 -3.75692e-23)
(1.29287 -0.00891208 -3.21227e-21)
(1.00203 -0.00144946 3.81094e-24)
(1.23264 0.0180139 1.22571e-21)
(1.03425 0.0626438 3.53136e-20)
(0.978445 0.111978 -6.08061e-20)
(1.13149 -0.186408 1.56462e-21)
(1.24228 -0.0126267 -5.45427e-21)
(0.993443 -0.0150719 -4.97514e-23)
(1.12034 -0.12703 1.29703e-22)
(0.994625 -0.00195199 -1.71499e-24)
(0.962495 0.14085 -6.32639e-20)
(0.919849 0.178198 1.72031e-20)
(1.19273 -0.20378 1.36293e-21)
(1.15487 -0.202632 1.30133e-21)
(1.11866 -0.197685 4.421e-21)
(1.03068 -0.0939913 7.68132e-22)
(1.00213 0.200751 4.16977e-21)
(1.03459 -0.0863593 4.69605e-22)
(1.10006 -0.161866 7.18642e-22)
(1.05974 -0.177271 -1.03831e-21)
(1.11629 -0.112408 -5.2266e-22)
(0.791528 0.0854013 3.43948e-20)
(1.11673 -0.214681 -8.23272e-21)
(1.27533 -0.080498 -2.11349e-23)
(0.966045 0.0379774 1.23862e-20)
(0.994235 -0.000483848 6.26684e-24)
(1.24398 -0.0440909 1.77665e-21)
(1.03812 -0.0782262 -6.85276e-22)
(1.06222 -0.16434 1.78989e-21)
(0.995003 -0.00120743 -3.75272e-24)
(0.999714 -0.00324045 -1.98297e-23)
(0.79329 0.108787 -5.83977e-20)
(1.10956 0.0653125 2.34052e-20)
(1.18707 -0.21027 4.90739e-21)
(1.30458 -0.109375 -6.66981e-22)
(1.1315 0.111633 -1.23194e-20)
(0.991573 0.112785 -4.82052e-21)
(1.06403 0.115388 9.80954e-21)
(1.22156 -0.150918 -2.38145e-21)
(0.981725 -0.0563798 1.03242e-21)
(0.993434 -0.0483661 -3.63749e-22)
(0.985428 -0.0511729 -9.45127e-23)
(1.08742 0.111103 -3.19342e-20)
(0.966207 -0.00643068 3.91204e-22)
(1.00206 -0.0719655 7.2751e-22)
(0.999618 -5.04111e-05 -1.90193e-24)
(0.96924 -0.0216501 -1.1088e-21)
(0.997433 -0.000715454 -3.52417e-25)
(1.09592 -0.177865 1.62672e-21)
(1.05051 0.198701 -2.15861e-20)
(1.04203 -0.147383 6.76385e-22)
(0.977463 0.17828 2.39023e-21)
(0.993742 0.174845 -5.64364e-20)
(0.964502 -0.0463369 -9.47102e-23)