/*--------------------------------*- C++ -*----------------------------------*\
  =========                 |
  \\      /  F ield         | OpenFOAM: The Open Source CFD Toolbox
   \\    /   O peration     | Website:  https://openfoam.org
    \\  /    A nd           | Version:  7
     \\/     M anipulation  |
\*---------------------------------------------------------------------------*/
FoamFile
{
    version     2.0;
    format      ascii;
    class       surfaceScalarField;
    location    "18.5";
    object      phi;
}
// * * * * * * * * * * * * * * * * * * * * * * * * * * * * * * * * * * * * * //

dimensions      [0 3 -1 0 0 0 0];

internalField   nonuniform List<scalar> 
11512
(
155.543
-510.306
354.763
-760.697
-16.1923
776.889
426.5
-391.256
-35.2444
651.642
269.085
-920.726
1549.64
-1098.38
-451.268
1205.23
-1513.17
307.936
-55.3963
498.026
-442.629
173.226
-863.635
690.408
981.19
-1648.18
666.987
-1778.13
1688.77
89.3688
-567.324
1772.55
-1169.05
1982.9
-813.852
618.431
182.348
-800.779
-23.0738
-1339.33
1362.4
226.087
-2004.22
1052.37
-390.603
-661.769
-175.641
331.184
492.713
185.836
-678.549
1186.94
-1346.85
159.911
-314.571
389.314
-74.7424
1028.31
-1334.54
306.222
1251.45
819.473
-2070.93
70.518
-1670.18
1599.66
-503.871
-1155.53
1659.4
478.901
171.829
-650.73
-198.987
-311.319
509.302
1040.34
1676.59
-1832.62
156.027
-105.412
-1686.99
1792.41
-1598.73
665.414
933.318
-313.436
671.837
-358.402
-116.433
-109.378
225.81
1307.82
-1237.3
367.994
-1443.13
1075.14
-1190.78
1190.78
96.5891
1555.9
-1652.49
-1103.46
-495.27
668.453
-723.849
-393.249
966.802
-573.553
1278.39
-1271.13
-7.25253
-1129.96
736.712
646.597
405.774
-393.24
-47.4016
440.641
-438.003
778.145
-340.142
-1047.47
1047.47
1233.07
-1382.17
149.094
-500.903
1752.36
1289.96
-323.155
1699.3
-1186.26
-513.038
86.8266
-401.398
2115.94
-1162.47
-953.473
1842.94
-166.345
445.596
140.018
-585.614
-459.863
992.936
-533.074
-1189.2
1285.78
-583.086
997.602
-414.516
414.499
772.436
669.441
-496.215
-449.464
613.558
-164.094
1221.87
-853.881
2357.99
-1104.58
-1253.41
1192.33
-2058.02
865.69
-1629.64
1606.57
451.928
-1620.97
-684.387
1190.71
-506.324
-692.01
378.574
1699.92
-718.731
-1129.9
-889.268
2019.17
679.527
-369.686
-309.841
708.087
581.871
-266.604
1499.68
122.213
-330.814
208.601
-290.116
769.017
-308.73
500.642
-191.912
-331.835
824.548
-326.809
-155.438
482.247
339.364
87.1363
1480.5
-452.184
-991.653
498.327
493.326
290.127
91.2703
-381.398
970.346
-351.915
-1739.78
623.963
1115.82
28.5683
-871.163
842.595
-285.418
605.504
-320.085
162.307
-1122.92
960.613
924.254
-939.856
15.6023
383.974
532.262
-916.236
-246.239
691.836
-1130.11
-496.179
1626.29
-533.955
793.579
-259.625
1352.73
-1458.14
-636.867
288.782
348.085
-484.283
-1027.57
1511.86
-555.001
-811.981
1366.98
587.84
-1012.24
424.401
-138.864
-224.129
362.993
421.547
-299.334
-1061.71
601.851
981.002
-818.695
-104.706
820.793
-716.088
-197.598
401.535
-203.938
-628.308
-363.345
-397.107
984.947
1329.3
-1329.3
-462.211
-174.655
-948.146
1573.23
-625.088
373.345
-813.061
439.716
-949.302
366.216
-957.958
-1079.5
-1523.12
361.53
1161.59
-277.542
929.184
-309.033
627.96
-318.927
-1979.59
1021.63
-1157.36
-365.753
571.841
-1519.99
1768.93
-1767.73
-1.20331
225.7
-618.681
392.981
-1476.09
976.185
499.908
300.256
216.822
-517.078
306.838
-615.569
196.695
-321.452
124.757
2036.6
-839.374
-1197.22
-561.32
168.08
635.778
851.853
-1487.63
-164.104
360.799
444.011
898.153
-1342.16
-935.212
407.018
528.194
-1069.77
1484.27
-895.125
210.737
775.223
-103.386
549.542
-277.727
-271.816
1017.81
-519.488
611.754
-1440.16
828.408
-1377.1
246.99
-545.911
260.493
-1200.97
923.431
1999.66
-1128.48
-871.179
271.085
1058.21
-2144.19
914.979
1229.21
232.066
-17.6019
-214.465
-184.753
365.018
-180.265
-119.764
-386.011
505.775
-482.007
155.198
315.89
-64.0117
437.356
417.979
402.572
-820.551
-2049.52
1132.54
916.979
473.527
-549.597
76.0698
164.025
-247.69
83.6649
976.86
1059.74
1810.01
-254.108
728.684
-439.902
816.402
-1425.87
609.468
350.777
328.75
1069.65
-1041.08
-514.074
-246.034
760.108
494.126
-142.28
-351.846
758.431
-576.083
611.965
-800.571
188.605
518.361
1180.94
-1272.69
717.688
1034.46
-1538.33
2.26359
-1472.43
1470.16
333.748
846.874
-1180.62
630.005
262.455
-892.46
-2276.44
1172.34
1104.1
-1128.78
-1147.66
218.338
393.628
984.086
-650.338
730.147
-743.444
13.2969
-2143.69
1013.8
-100.174
-114.146
214.32
-44.4355
1813.37
-843.904
83.2069
-1051.46
-1092.73
-191.805
355.83
-674.007
211.796
-272.277
-427.582
699.859
1125.23
-1609.51
800.009
-1409.34
609.332
707.105
-438.02
1959.44
-1441.07
-357.261
-833.518
78.5371
419.489
-545.301
529.109
3.0469
-576.323
573.276
587.722
-287.466
-602.286
283.677
318.609
800.779
-382.8
19.4859
212.581
1216.31
-1214.05
187.118
234.429
395.952
-668.229
634.933
-1032.04
-2072.33
2072.33
-258.389
-452.947
711.335
719.324
410.649
-1129.97
595.278
179.945
403.915
396.864
-2246.36
1357.09
-949.101
-696.465
1645.57
-485.157
-715.816
-262.148
554.033
-291.884
861.822
-214.599
-647.222
-436.101
661.801
388.634
-697.667
-352.412
-146.431
498.843
-1346.58
-486.04
649.355
-1134.51
-349.72
-697.755
862.374
1495.61
247.445
-457.378
209.933
993.131
-346.533
1427.36
-815.607
459.947
-272.83
-339.933
-901.117
587.825
313.292
-347.747
-553.37
314.506
-434.269
-207.538
-135.656
343.194
-404.008
1123.33
416.844
-231.009
-361.702
1377.5
-181.649
-1195.85
-481.251
276.96
204.291
234.6
249.969
-484.569
9.57007
-810.141
607.432
-1768.95
1161.52
1518.05
-882.269
-1049.74
-426.352
-1086.28
588.732
497.546
1396.26
-420.074
951.486
-1447.66
-171.179
-221.237
392.416
-479.661
598.192
-1667.96
424.487
853.899
280.847
300.729
-581.575
519.126
671.653
1134.59
-736.304
-398.291
408.708
-219.493
-189.215
-1452.87
457.462
757.181
-1214.64
1510.94
-559.457
-489.677
937.504
-447.828
439.409
1209.22
-1648.63
21.4094
-555.364
-148.142
438.269
88.513
-204.946
529.329
488.485
-661.331
58.2127
603.118
992.344
-1237.09
244.745
679.615
-275.7
482.815
-1482.98
1000.16
422.419
1727.77
-535.438
846.998
1152.66
-681.433
-1726.68
777.583
586.134
395.472
-981.606
463.43
82.6048
1790.46
-1873.06
1408.39
-390.807
-1017.59
1738.71
-1783.14
-378.191
-523.997
738.932
-214.935
-520.822
192.104
302.022
-382.236
-1248.11
220.538
-786.891
-653.272
-621.458
1044.63
-423.177
-471.422
464.674
6.74765
578.154
-764.117
185.964
-284.261
84.598
199.663
-665.458
-700.372
359.587
340.786
-952.133
1434.95
-418.395
905.243
-486.849
-2252.19
5.82728
189.867
-554.474
364.607
152.36
1225.14
-103.949
-570.058
166.603
-616.067
1524.3
-724.286
384.5
-479.874
95.3738
-140.616
140.616
692.435
355.04
1821.31
-1261.33
604.949
656.377
797.192
-38.7611
1323.8
792.144
-555.248
1371.65
295.448
310.056
291.987
-815.984
251.897
-689.9
222.998
-415.37
192.371
-243.922
597.271
-353.349
130.683
-374.604
-606.834
-580.512
1187.35
-364.467
537.528
-173.06
-1194.2
2059.8
-865.602
1323.98
-339.894
-182.775
43.911
-1988.18
832.66
1549.19
-848.705
-700.488
2032.41
-898.258
-1134.15
732.475
591.505
-236.728
459.727
-676.9
1155.5
-478.601
-788.951
1232.96
565.298
947.207
-1767.67
820.46
-542.25
-81.3757
623.625
301.676
247.866
425.202
-106.712
-318.491
767.261
-73.5352
-693.726
927.986
-557.323
-370.663
1611.4
-486.167
908.989
-1666.71
757.726
1095.58
863.859
771.34
-459.036
-312.304
-1005.03
-266.105
567.59
599.621
-1167.21
-451.332
507.83
-56.4972
595.203
-357.845
-237.359
-1007.16
588.768
612.932
905.116
-446.477
1024.63
1439.33
-784.272
-655.062
411.524
-951.95
540.426
-1038.48
410.168
565.893
-1055.57
467.057
-526.358
59.3012
482.991
295.155
-118.617
-21.999
-815.125
-898.365
1713.49
198.239
210.469
-238.362
456.7
-42.9302
-549.048
591.978
492.927
891.879
-1384.81
-529.085
321.547
811.825
-44.5642
857.381
-1093.21
235.834
388.542
867.279
-1422.53
-451.364
853.936
2026.16
-1314.76
-711.402
245.344
484.803
240.031
684.223
99.5966
-984.303
884.707
1712.28
-1111.11
-601.172
-142.769
1933.22
-1908.51
-163.82
460.762
-580.953
120.191
-1043.05
540.403
502.649
-1706.6
512.399
-962.226
857.52
402.469
211.089
499.698
-252.253
-439.573
732.178
260.952
56.1659
779.922
-836.088
-1160.63
-871.219
2031.84
-535.766
1114.77
-579.008
-468.417
-127.632
27.4585
-1695.3
880.172
-841.057
-632.072
1473.13
-288.812
-282.368
571.18
369.166
-663.029
293.863
238.479
-621.279
313.46
221.117
-534.578
350.442
-612.59
632.592
-263.427
323.433
-478.871
678.031
411.448
-176.848
-391.948
-308.425
1241.55
-8.52462
-1233.03
1066.77
-431.838
574.344
423.258
-1798.97
863.041
935.929
511.666
553.277
-1064.94
-440.267
151.455
-269.67
1210.63
-940.962
-1572.21
1214.94
517.895
-1124.73
399.865
-15.3648
425.96
310.596
-736.555
381.692
-627.931
-28.8682
774.194
-745.326
-472.841
735.297
382.685
314.022
483.17
672.285
87.8267
-401.55
313.724
978.309
-574.583
-403.726
508.235
-1702.27
1194.04
-1164.12
1793.85
-629.726
1755.39
-1147.96
-340.87
624.547
-1184.44
1284.03
320.738
-819.89
1634.32
-814.428
-252.01
-229.241
-938.449
1507.18
1856.65
-627.241
-1229.41
-417.04
733.565
-1355.02
-74.3315
-40.5463
465.748
-696.786
-363.661
-1208.54
-233.546
472.025
885.164
-578.419
192.408
-1714.36
-73.7119
1788.07
-1079.26
543.494
587.881
-1211.38
623.502
924.227
932.425
625.487
565.224
696.653
240.851
-1151.16
474.26
-417.82
420.867
640.131
-528.851
260.844
-756.474
495.63
692.545
-341.768
-263.268
153.89
-607.495
226.483
381.012
-912.278
-754.437
1108.85
-2188.35
411.356
-701.472
-331.819
-608.037
856.32
583.014
-360.93
313.528
362.873
245.069
676.148
-921.217
527.309
628.192
-541.697
189.285
364.781
-623.17
-1128.82
-802.779
1931.6
-1831.79
161.611
1134.7
-1404.37
1179.78
-724.865
-454.914
-517.65
1384.93
-1530.65
646.277
884.375
-165.117
-153.38
318.497
1460.95
571.456
334.359
-480.789
-501.668
-576.814
1078.48
-427.819
617.686
1621.88
-1156.73
-465.148
-786.756
333.809
581.662
396.647
-1660.69
429.269
1231.43
-208.75
522.211
817.944
803.938
209.443
-694.614
485.171
202.533
199.002
-240.501
-95.772
336.273
487.081
-3.53436
-483.547
-1653.74
603.997
-1617.19
1690.33
-73.1408
15.861
-1633.05
1058.67
767.773
-341.814
-815.388
-223.088
-1164.99
-244.355
-319.454
701.145
-1857.13
-637.02
1236.64
211.668
781.269
-1362.75
-695.273
-478.948
612.307
-331.46
-1033.02
1381.58
-1978.49
596.916
662.281
1320.62
366.285
-1.26745
738.44
712.832
-1451.27
-658.964
350.029
308.935
343.363
-82.5583
-260.805
162.609
294.053
175.976
-470.028
-587.086
1173.22
463.963
-624.393
-472.49
-414.381
886.871
-354.634
183.455
-473.991
174.657
-315.075
-727.977
416.041
-72.6779
-582.693
994.218
365.056
-189.317
-175.74
469.158
-800.993
-664.435
440.06
-1152.46
-846.046
1207.58
-584.025
469.253
290.855
-453.513
83.8267
1056.62
-200.203
418.487
-218.285
-524.484
1583.16
-762.921
242.563
386.719
-629.282
225.523
482.351
-24.2672
-458.083
-260.093
-213.898
871.518
1131.64
580.635
-884.687
961.911
-77.2235
-222.371
57.2545
-738.686
311.104
-651.761
319.949
372.595
843.889
-1249.93
406.044
799.453
-828.321
-963.488
-568.357
1531.84
-163.61
464.339
-544.351
266.624
1357.53
784.651
-575.208
1334.88
-685.525
497.856
-693.38
-420.466
-434.686
-388.63
823.316
516.654
-868.569
-454.055
91.9946
362.061
-258.103
588.813
750.305
-338.949
-230.075
-170.433
400.508
-507.107
153.294
353.813
1492.62
81.3685
-1573.99
-766.96
1379.89
-1173.65
-474.527
553.684
-166.965
1179.83
-380.382
1104.8
506.593
712.987
-421
-904.551
-538.578
-1354.3
-31.7246
1010.91
-979.182
603.931
338.041
-941.972
-326.639
-234.681
-753.975
414.65
1657.68
-182.825
370.132
365.763
-735.895
-1882.85
-2152.18
1551.35
600.826
-2042.13
355.139
373.442
540.711
-914.152
-473.581
1047.93
-408.008
-675.208
1083.22
-2074.13
1420.12
654.005
602.595
-1010.6
59.9088
407.148
389.863
208.107
251.84
318.74
976.037
878.752
700.68
-336.944
-363.736
-303.952
640.16
-336.207
590.962
543.632
575.961
508.568
-1084.53
-811.976
-718.675
773.568
406.267
-423.967
717.831
-1217.22
1646.49
435.094
-1110.3
-329.418
550.536
-1412.65
908.967
503.684
-716.066
-325.847
-844.288
381.922
462.365
459.918
736.363
-1196.28
1096.11
-584.447
-403.866
675.342
-271.477
185.483
179.573
-480.87
-445.079
925.949
-251.147
558.284
-967.954
409.67
-470.873
613.804
-1718.38
435.798
688.012
-1123.81
539.269
88.6907
116.034
-2259.73
558.146
-88.8924
1480.23
1814.43
-221.34
-1593.09
-448.881
1830.46
-2034.75
1222.71
812.033
417.518
353.821
-27.6718
883.992
-1317.3
736.787
-895.251
-845.894
814.169
322.069
53.9383
-376.008
100.232
109.704
-209.936
1586.12
-847.683
-1007.49
-321.813
485.315
-200.214
-285.1
402.032
366.985
250.789
361.518
-8.06561
1026.48
-1018.41
377.485
283.461
-660.946
-750.621
1858.58
-1107.96
-352.166
754.198
-1237.11
-415.38
-942.015
496.936
583.553
-794.487
210.933
784.919
-393.214
-391.705
-424.824
-459.863
451.654
1093.2
1267.81
-679.928
824.38
-355.222
388.244
323.091
-262.323
-217.551
-217.219
639.638
419.582
-872.812
453.23
217.417
362.227
-579.644
-435.75
855.331
774.206
-1178.21
895.136
-51.2476
-508.437
290.569
779.082
-97.9224
1418.54
1930.47
-74.5543
351.514
-322.983
410.81
-1112.68
1104.62
628.275
387.13
397.789
60.0897
425.225
278.664
498.225
-379.875
-279.09
-393.794
-77.6279
-366.237
379.944
-13.7077
-259.171
-286.74
1033.12
-1578.6
545.471
-202.27
-188.986
-387.217
670.677
-1665.94
1627.78
-981.504
267.642
-688.108
598.569
1249.48
-1848.05
625.39
1002.39
312.642
-1148.11
708.541
-290.134
-291.442
1397.58
-1477.16
838.858
638.3
416.014
-637.02
221.007
-366.787
489.236
-122.449
373.159
113.922
1766.68
455.572
-253.039
572.687
-1743.36
1170.67
-92.5544
400.728
351.82
348.861
-460.929
-631.21
1092.14
435.902
-887.266
-657.417
924.162
586.781
-145.922
-138.339
-452.382
-420.43
-317.612
-847.375
1292
-1292
-99.652
-1606.11
1705.77
300.104
295.099
-937.367
-572.011
1509.38
-418.082
994.043
-614.736
-1039
688.328
405.071
-1093.4
492.417
-168.984
586.652
1245.35
-1832
-1051.1
2115.1
-1064.01
-383.18
-308.83
-494.009
827.819
-1789.83
1637.05
152.777
1789.83
-1639.17
-150.657
-250.51
533.604
-283.094
-551.869
1656.67
1586.67
-2002.05
1098.5
-287.187
-260.892
548.08
252.45
-581.869
-716.596
292.628
1374.84
651.312
591.448
500.158
-1091.61
294.308
418.679
893.503
515.379
-1408.88
543.351
-1045.02
1613.23
-580.105
-775.673
-372.632
-119.888
492.521
-503.938
1240.3
-764.327
336.994
354.841
364.652
268.116
-632.768
617.102
854.564
-618.729
280.04
681.871
-145.922
-322.011
-237.066
559.077
1192.67
-674.189
628.029
476.971
-1105
-1012.54
1012.54
-398.139
785.27
-297.002
-485.307
782.309
493.522
464.229
-957.751
397.556
-694.559
631.646
-892.1
260.454
-378.597
-510.787
1102.23
-680.071
-726.812
1406.88
-391.448
949.733
-1588.44
690.182
46.9421
-424.805
377.863
-505.838
717.634
259.778
337.493
177.601
314.816
-523.672
233.539
1915.61
-2013.54
282.406
-718.507
455.156
-844.226
389.07
-909.221
1432.94
-523.715
-442.389
-499.625
616.407
1149.04
-1765.45
-736.209
353.029
-471.82
1062.78
-784.763
1064.8
-355.076
-644.822
-484.68
736.577
490.955
-319.125
929.424
-308.021
-199.086
1633.96
-1855.3
-362.141
-605.813
-340.363
493.657
264.994
-596.454
-191.482
1080.5
-789.936
223.897
-292.962
-290.257
583.219
410.693
-897.989
487.296
-487.238
-454.787
-457.378
-341.777
584.576
-242.799
-460.76
-427.349
-330.126
-204.451
-388.885
657.001
-450.337
773.428
-1100.94
640.014
-1411.29
570.237
-28.0876
-1879.25
1907.34
586.929
-461.914
1235.9
-692.41
54.7205
-54.7205
686.911
-441.588
1038.95
-1653.68
-1183.11
-969.063
303.021
337.139
898.693
735.625
-494.031
-316.796
810.827
1697.28
-1725.37
-444.868
362.159
225.563
1165.54
-537.513
-963.896
1584.33
-620.435
459.095
-250.988
385.08
393.401
-778.482
536.46
490.834
-1027.29
-337.008
674.002
-39.0955
1954.71
1610.79
1015.16
-1739.44
745.081
-1208.69
463.605
-508.215
1401.72
858.492
-1376.14
-561.266
274.079
812.359
-416.887
571.149
-1218.22
647.07
-656.398
-1241.27
-712.112
1953.38
-212.194
560.822
-348.629
-181.478
295.282
-507.476
333.374
385.744
-719.118
-1516.28
777.945
738.332
900.185
-1468.54
849.651
-442.634
228.198
-376.341
-594.028
272.017
-687.21
-725.441
716.875
519.676
-1236.55
404.808
-209.971
-194.837
570.477
-984.993
-570.913
-428.788
739.892
-850.333
-1184.41
-1473.01
514.199
958.814
10.284
-639.256
348.806
290.45
-1340.22
1072.58
267.639
-632.097
-468.847
-673.044
913.074
414.844
-211.785
-203.059
523.806
1001.89
-1525.69
1000.69
-363.81
122.721
241.089
-409.406
688.334
-405.928
-523.717
183.354
240.281
-1555.04
549.851
546.263
-759.631
253.793
164.62
-472.641
386.184
-840.971
1993.83
-1219.33
-774.505
412.168
-681.2
269.033
182.728
329.81
130.774
-460.584
-574.109
196.462
259.11
-712.006
1408.09
-696.082
435.561
482.217
-1198.28
274.433
1911.6
-1038.91
-872.695
753.912
-537.167
195.391
1428.05
-989.05
-439.002
350.215
-791.802
-633.105
1764.75
631.032
636.778
330.797
-8.72782
284.469
-1162.07
1765.19
-603.118
-1802.15
838.254
1775.96
-1703.03
-72.9317
-676.957
259.136
577.004
-722.937
238.257
1438.77
-580.278
406.573
447.362
-1901.93
1453.05
555.641
-424.894
-130.747
222.106
-552.232
-279.469
-188.948
-364.138
715.957
-587.322
214.69
617.361
570.895
-1188.26
1138.73
-1994.12
855.395
173.925
324.918
-1741.71
1702.61
331.396
-752.395
-168.269
396.467
766.729
699.201
-1465.93
1091.48
-1100
545.699
-1130.15
-650.238
263.011
387.227
528.434
-301.951
-625.925
-1027.76
311.074
-738.424
-930.919
194.036
171.39
233.418
389.105
309.409
-698.513
-640.233
-855.1
-1002.03
509.71
-1083.82
-287.529
491.82
552.579
654.998
-147.028
-35.7469
-412.197
724.84
286.457
-1228.12
587.884
1338.45
-571.721
462.215
-1033.13
-219.706
169.23
386.411
1045.62
567.609
-1726.36
1626.71
1647.4
-588.925
-1058.48
1949.66
-1937.56
-12.0953
208.42
-531.403
-344.787
568.684
-774.057
-324.334
-352.623
1021.48
718.732
-1524.65
805.921
364.756
-25.9183
1659.88
-1100.59
426.4
-1256.71
481.032
-60.8378
1553.46
1229.74
-484.663
-332.555
-31.2554
-277.732
753.431
-1994.7
-732.163
356.212
-550.635
194.423
75.5094
-275.712
1165.91
687.595
-1853.5
-614.709
189.815
962.999
-1535.01
-217.549
671.841
-454.291
889.201
1110.8
-751.951
1382.98
610.283
-485.107
-125.176
-360.921
1199.78
1060.48
-1982.25
921.768
-1199.75
562.733
1526.39
-602.231
-378.001
-163.696
-1271.56
591.63
1191.87
-76.0474
969.66
794.812
-1764.47
-222.207
595.265
-1580.1
984.831
502.526
936.001
-1438.53
629.451
607.19
390.325
-1129.59
425.913
1133.91
620.955
-331.219
-289.736
-1211.75
-1795.18
-4.16172
-1722.2
-218.481
-418.539
1646.92
-640.995
-1005.92
-505.873
1131.36
-1349.72
655.037
694.678
-1394.03
1475.4
-1362.56
610.607
1558.26
-399.673
-578.779
200.778
-1498.15
240.644
179.942
232.516
377.767
434.598
412.173
-846.771
522.81
-959.174
922.28
-1481.74
-707.341
246.221
461.12
-1065.48
478.393
-479.692
886.265
716
33.6283
-536.415
187.786
-904.83
-1347.36
-737.379
361.891
375.488
418.248
-744.158
325.91
-437.634
-174.413
-569.031
734.641
1577.32
-607.656
827.63
758.493
1372.75
-857.372
-993.318
-586.779
-821.189
439.399
381.79
-1063.93
-662.397
315.194
347.203
-1427.98
-278.616
-814.41
410.689
403.72
-661.126
399.074
262.052
-690.727
284.799
425.418
500.531
401.247
454.084
490.818
396.053
610.73
-992.967
686.005
487.215
457.652
354.227
-811.878
1667.48
-1101.65
-565.829
-519.852
-285.542
-1054.68
467.322
355.993
421.31
608.886
-1030.2
-1414.43
773.438
-551.367
1174.87
364.887
-70.8347
424.138
-890.924
466.786
-1904.04
297.928
444.785
-722.39
277.605
-190.853
418.397
-227.544
-681.952
319.86
362.092
-695.16
331.424
381.387
403.883
628.648
-1046.73
773.321
677.772
-1451.09
450.732
641.408
332.527
354.136
-686.663
419.607
334.591
604.615
675.252
417.951
595.714
-1038.93
443.212
-1699.88
1185.33
514.548
1735.35
-554.414
638.351
-1178.12
539.766
-626.326
343.958
450.232
-961.669
511.437
759.569
-448.973
359.282
356.675
570.875
-933.016
667.92
-1286.9
618.975
384.743
753.073
-1257.01
788.634
523.932
-1312.57
486.017
423.993
-910.009
-516.718
-956.294
-314.468
647.842
362.443
551.935
-914.377
342.19
331.812
-515.882
1986.04
443.096
-854.099
411.003
-939.829
-827.838
-771.607
379.902
-1240.47
455.704
-1768.18
1639.17
129.005
1786.2
-1637.05
-149.151
-807.603
-610.771
276.004
334.766
-1775.96
2002.05
553.531
811.061
-1364.59
453.036
734.31
707.583
395.157
-1102.74
-64.3655
1655.95
-610.33
400.436
835.468
-607.683
318.918
288.764
-388.519
-250.413
435.896
-231.946
448.768
276.449
-634.499
358.05
274.326
-594.412
-292.995
455.049
-1061.03
605.979
552.304
1115.18
373.778
611.168
248.645
217.545
-466.191
1647.94
-929.208
1733.43
-1558.09
-175.338
-336.444
-847.711
427.281
871.575
-1089.12
-626.144
289.936
-1112.78
1665.09
-1603.11
-72.7131
1675.82
-350.139
-359.376
-379.966
550.183
615.359
-517.719
-31.8779
-551.577
519.559
-289.687
-229.871
1770.88
-1319.23
-641.35
309.195
332.155
416.636
369.846
753.485
-304.211
-409.715
-1786.2
1725.37
472.287
-1129.91
657.627
-40.9024
1667.61
584.846
478.113
-1062.96
85.9327
1171.49
-1489.1
-8.77237
-1895.27
236.464
-596.785
301.009
295.776
-948.676
616.858
-924.369
481.979
-1158.33
690.417
467.913
377.482
281.723
-775.754
-315.252
1249.79
907.453
718.837
-1217.13
474.846
742.289
508.268
718.377
-1226.65
-362.915
-255.012
426.402
-987.481
451.271
536.21
21.2403
-1923.17
1109.3
-477.657
-501.082
573.542
-1413.8
840.256
-430.758
819.828
-416.621
503.612
-987.46
1858.98
424.354
-190.936
176.969
-177.128
-252.844
429.972
1935.89
-515.768
-1719.07
1079.38
-535.019
284.605
-1041.49
567.909
-319.978
560.984
925.107
-1486.09
-1120.23
447.191
-20.7766
-1992.76
1717.44
-656.961
-530.017
474.376
-1222.28
747.901
195.326
219.518
-252.841
787.317
719.865
853.705
778.218
-423.992
1113.69
-498.511
490.307
-199.14
-291.167
-1970.59
-710.75
-320.336
-443.993
-2.0683
446.061
473.206
-276.745
579.768
1068.17
-817.077
950.762
1277
-437.022
-204.969
-247.798
452.768
948.904
-906.356
-341.288
-1096.17
627.328
1591.72
-813.772
553.908
955.47
-396.937
756.096
-359.16
1160.62
-259.341
326.351
1384.6
-722.787
-229.163
463.649
-1232.11
768.46
-993.171
-140.604
1133.78
454.193
-982.296
528.103
187.53
272.647
348.308
783.34
-107.191
878.222
-437.694
1196.38
-801.225
567.954
-1502.6
934.65
-1241.32
1839.89
-437.994
-1541.6
899.163
-1437.74
-317.471
-419.084
1494.23
-1560.92
806.482
1525.58
209.45
280.856
-359.097
-1768.18
-308.562
-1018.64
1598.41
-1795.99
1795.99
1586.67
-1031.25
-652.99
-341.867
375.112
618.931
-367.239
-367.281
-1424.19
915.98
1148.64
616.555
1227.37
1827.56
-1240.9
-620.927
274.067
1697.88
-1961.73
263.844
834.688
-1299.84
1580.83
-578.435
799.604
315.17
-337.495
570.131
814.798
640.147
1391.7
-225.095
-457.582
-359.763
422.534
-282.517
485.491
754.81
-299.943
-160.641
-330.141
582.696
-252.555
26.1278
-383.972
1130.98
-1760.7
-450.955
-490.756
-581.288
887.078
704.639
-1636.12
924.114
-464.733
-628.857
-527.617
1284.8
344.64
1763.6
-1742.36
-1697.28
1937.56
-1596.61
856.327
740.287
-367.937
-1839.21
940.842
599
839.77
-411.972
1837.38
-698.654
-410.825
681.226
446.305
-1127.53
-1128.18
457.904
771.84
-1653.52
488.194
919.893
180.981
-406.565
225.584
-1610.54
-393.678
-427.408
1007.36
-683.675
1479.01
-966.659
1855.86
247.226
-548.571
511.921
-302.471
489.969
911.749
559.305
998.959
-476.044
-441.032
590.225
904.008
-1388.45
-39.5353
1606.5
-848.008
535.773
989.803
-1513.17
-1117.36
1784.17
-1243.37
-540.803
1238.31
-329.262
-909.044
-196.366
465.022
-268.656
-471.281
-257.066
443.759
-186.694
153.211
-408.223
1743.93
-1748.09
-460.407
-548.06
-920.482
449.405
-207.891
-241.513
537.41
-453.905
-358.623
-318.434
677.057
-962.665
409.295
-1195.89
690.016
428.207
-642.556
-448.953
1607.24
-871.618
543.891
-471.014
-585.299
-475.729
62.1303
-59.0276
-3.10268
-1119
426.593
-682.337
-1056.8
1739.14
-603.264
-1459.6
732.79
577.849
-1634.36
1056.51
-383.389
-485.854
159.542
537.111
-1291.27
763.652
555.199
1025.63
-2173.18
1013.48
1159.71
-358.196
78.2708
-69.9531
-8.31767
1514.78
-380.79
462.626
1168.68
598.595
927.798
582.552
541.823
-1124.37
173.558
-441.321
-1703.03
272.315
1148.19
-620.437
533.913
1035.58
-1569.49
1115.17
-1681
183.429
711.708
551.939
-893.227
-1106.65
-139.612
365.3
-225.688
-573.564
-429.015
-652.388
-519.779
266.938
-1659.14
962.672
-489.9
218.136
-409.073
551.19
-314.726
-609.136
1228.14
-1295.07
928.172
366.9
-1033.34
-362.49
-770.927
-839.906
1726.98
-490.196
1798.62
-1590.54
-208.077
-1592.36
1039.07
553.29
-739.108
-179.576
325.763
-146.188
-596.605
393.678
285.159
-678.837
-538.634
1005.38
650.3
-360.364
-1654.79
1070.76
587.159
1126.28
-1713.43
-412.057
-305.236
-376.716
-759.396
-469.083
-339.693
517.293
1595.21
-1017.36
-794.461
1534.08
681.38
-319.222
744.05
1172.26
-1916.31
284.784
312.054
-500.702
-1979.52
1762.48
217.031
761.369
-487.206
-274.163
546.778
1082.27
-1629.05
62.1303
-1730.97
-238.585
1789.94
-1614.65
1097.72
516.938
-1734.46
3.48352
-536.229
78.2708
1741.71
-1762.48
962.123
641.189
-1603.31
290.512
-175.492
-115.02
-408.142
-282.585
64.1605
50.6942
-230.27
-446.858
-445.242
-421.43
230.577
1543.13
390.931
-230.111
-431.015
447.036
-187.926
327.694
1545
1096.54
-214.826
-881.717
-1128.38
1744.78
-1770.35
1088.01
-725.616
-1044.73
-1289.65
1884.23
-594.578
1180.38
-1812.24
631.859
186.151
-898.877
1714.77
44.4758
-1759.25
-505.382
-1104.13
-1743.93
-1008.6
567.569
1039.62
605.935
1156.47
-1762.4
295.82
-462.785
725.782
-394.359
373.496
947.167
698.4
-396.97
-641.956
598.731
1094.53
-1693.27
-407.009
-383.561
790.569
433.353
-1702.61
1558.09
144.526
600.955
-1072.77
558.262
1106.82
-1591.98
1013.55
-247.77
245.936
322.748
1949.66
420.88
-90.2469
1011.34
741.16
-1752.5
-714.609
1106.74
-1592.91
172.906
-585.343
196.475
250.562
-659.907
-580.56
598.783
1057.17
-721.043
-279.608
-1404.51
693.798
710.716
-411.829
806.178
92.7924
-898.97
577.189
-140.524
1593.57
-226.104
271.45
-787.48
-1979.52
1702.33
1020.65
84.598
310.204
449.365
-954.133
-1016.45
-1805.53
656.689
1732.21
526.61
-488.054
1242.86
1111.77
-436.758
1055.69
-1006.02
508.883
497.138
717.968
1072.75
-1790.72
501.765
492.452
-1529.56
-767.978
31.6745
803.969
-424.067
-906.894
405.812
-553.258
-822.885
209.933
-593.049
1433.31
1079.84
175.191
190.11
-566.733
1655.98
-791.095
1564.42
-1766.98
590.512
1176.47
561.67
-908.203
-1774.27
1961.73
-187.453
1755.39
188.277
-557.64
169.777
-119.083
-495.498
1243.4
582.307
1153.05
-503.377
449.732
883.186
-477.412
-796.167
433.89
362.277
1453.81
1114.71
-534.22
1458.33
-512.419
-480.606
993.025
-618.899
501.178
-1226.04
1733.43
1877.28
-705.025
1625.07
-662.944
-1274.01
735.377
-578.52
144.681
-258.827
413.614
-214.612
-533.722
-1272.35
1911.12
-638.771
1204.55
-566.202
1143.49
-1697.91
1728.66
-589.982
-559.141
-564.508
1758.55
-325.791
-707.606
-488.557
1257.02
-1723.14
-1900.3
627.951
329.097
-976.32
175.104
222.234
-1757.44
1228.04
529.404
1184.96
570.429
-524.439
-481.846
1224.14
182.585
235.813
603.014
1274.27
-552.024
-1263.12
1815.14
-1049.76
1044.42
867.178
-208.399
-1697.88
1742.36
-525.991
1445.88
-1774.27
-379.049
15.7446
363.305
-276.218
603.52
-327.302
85.8673
501.958
804.058
-385.81
1281.02
1298.57
-426.996
877.23
-449.949
1859.13
-678.748
1623.07
-1763.6
-422.533
-753.315
301.469
451.847
-574.394
-579.636
69.2181
-1074.25
-1008.83
-686.981
1695.81
-957.786
-1215.4
155.929
-416.821
-664.543
722.216
1192.79
666.335
1446.46
-606.693
1677.88
1352.17
-588.516
-508.051
205.58
-519.368
1431.12
1272.68
-578.885
-966.815
918.732
53.755
-972.487
594.107
-521.96
1437.94
1532.66
-604.865
-62.5713
62.5713
-605.63
1662.14
1272.86
-501.024
1157.06
-61.0749
1853.48
-389.926
1527.18
-604.898
-524.504
1380.83
-670.666
1250.78
-580.115
1593.13
-608.297
756.637
593.434
-1350.07
-654.285
292.01
492.641
616.241
-1996.69
-1002.78
1623.07
62.629
-62.629
-76.8588
401.536
448.115
388.405
-15.2458
-313.362
909.825
-525.082
-436.622
838.158
-253.214
640.441
-423.705
1556.24
-460.35
-893.945
188.429
220.166
-408.595
616.196
1274.4
-1890.59
953.567
-471.587
-59.0276
128.883
-1986.12
1857.24
-466.492
193.662
1210.64
-456.01
-754.631
-319.096
-587.798
-504.045
-69.9531
-488.592
258.721
1189.41
-574.05
237.044
-395.826
158.782
-7.82277
-105.113
833.518
-728.405
17.7924
-411.586
-602.504
-90.2753
90.2753
-1262.55
2003.71
-1313.66
-228.138
-1826.93
236.392
-1046.17
-994.34
-193.234
-1678.71
724.58
1255.52
-1967.63
383.07
318.691
-701.761
-1889.69
1259.83
629.859
-143.539
143.539
-980.22
-12.0046
-1908.51
-573.042
1688.22
-694.967
1675.19
-618.024
-186.409
-1708.86
-603.353
-443.111
-610.514
-98.4393
98.4393
-1571.16
199.519
1371.64
163.853
199.31
-363.163
566.19
530.354
1024.51
-488.299
1787.97
789.425
-217.279
208.962
533.887
1741.73
-610.756
-567.501
1674.33
470.541
1853.9
-661.113
-1847.99
-1977.09
-663.198
-104.16
104.16
-602.206
242.443
-692.603
1046.99
-479.083
-1098.48
-291.835
1058.21
1890.46
1671.9
-1671.9
-281.434
759.56
1800.78
609.829
1301.29
141.389
149.123
600.921
588.93
1058.8
-1058.8
231.212
-361.088
-444.351
425.752
977.951
-469.067
-655.897
-1154.4
1744.91
290.924
-1667.1
628.097
-296.125
484.401
1784.02
-607.548
-176.771
-424.081
394.871
739.043
1778.11
-629.471
-526.018
-774.488
2001.2
-889.088
-1112.12
1680.53
-653.711
1249.22
-1865.01
615.798
346.343
-894.914
-184.658
-27.4008
1127.22
-499.892
126.991
636.644
-1664.4
455.507
620.08
-1847.99
-598.369
1826.41
905.655
-1186.97
1799.94
-612.967
1822.95
-590.426
-1232.53
455.667
935.993
-1748.09
944.795
-1479.94
238.953
1240.99
-853.866
-1279.86
-184.271
42.8336
141.437
597.045
280.077
1049.87
-459.702
870.817
-411.115
842.443
756.258
-1598.7
659.677
1092.68
-6.18388
-493.554
499.738
-1786.43
741.695
711.661
109.64
-1145.85
1978.47
-690.073
-1288.4
-552.458
1705.5
844.718
987.269
-1831.99
1253.78
699.598
-412.064
731.924
852.338
1056.48
-602.29
1800.78
642.621
1812.76
-1209.74
-603.016
-377.609
-335.289
712.898
115.107
-1132.69
1698.76
-555.272
-879.35
879.35
1274.65
609.576
1380.37
214.836
-567.809
291.16
-199.889
715.88
1138.02
498.194
-315.61
-891.295
-590.442
1744.61
-1744.61
588.838
-588.838
1008.47
1046.7
-2055.17
1878.02
-628.799
-596.313
834.794
-967.51
-1074.36
1022.17
708.325
-1730.5
-118.617
-361.374
-649.229
-826.119
2085.95
-1272.04
-628.26
1023.85
995.312
1316.97
661.507
337.263
1033.69
234.874
344.356
671.653
1795.62
-1795.62
683.963
28.4887
-204.228
-1017.96
-558.336
1715.4
987.955
1012.05
-1873.19
-232.4
-370.953
620.754
-348.439
1891.14
-1101.69