/*--------------------------------*- C++ -*----------------------------------*\
  =========                 |
  \\      /  F ield         | OpenFOAM: The Open Source CFD Toolbox
   \\    /   O peration     | Website:  https://openfoam.org
    \\  /    A nd           | Version:  7
     \\/     M anipulation  |
\*---------------------------------------------------------------------------*/
FoamFile
{
    version     2.0;
    format      ascii;
    class       surfaceScalarField;
    location    "27";
    object      phi;
}
// * * * * * * * * * * * * * * * * * * * * * * * * * * * * * * * * * * * * * //

dimensions      [0 3 -1 0 0 0 0];

internalField   nonuniform List<scalar> 
11512
(
143.351
-507.351
364
-771.145
2.35892
768.786
418.645
-372.738
-45.9069
650.083
259.938
-910.021
1510.41
-1069.41
-441.003
1216.26
-1527.1
310.842
-43.0908
471.734
-428.643
169.132
-840.956
671.824
961.969
-1610.74
648.772
-1768.25
1676.12
92.132
-542.947
1759.21
-1141.99
1935.75
-793.757
605.717
181.371
-787.087
-25.5146
-1320.28
1345.79
222.639
-1990.89
1022.53
-385.66
-636.873
-188.908
332.26
482.991
190.651
-673.642
1154.63
-1315.43
160.797
-327.104
379.04
-51.9352
1010.38
-1323.91
313.531
1221.69
800.022
-2021.71
74.6249
-1647.68
1573.05
-490.047
-1160.77
1650.82
473.17
182.001
-655.171
-186.458
-320.894
497.626
1012.78
1655.09
-1813.81
158.719
-96.3996
-1688.95
1785.35
-1560.67
656.372
904.3
-311.543
652.835
-341.292
-192.658
-129.328
321.986
1290.75
-1216.12
355.331
-1407.24
1051.91
-1754.25
1754.25
100.148
1539.51
-1639.66
-1083.78
-476.892
646.221
-689.312
-387.633
942.102
-554.468
1331.76
-1317.16
-14.5949
-1100.43
712.793
622.914
399.619
-409.241
-20.977
430.218
-457.021
795.714
-338.693
-1618.37
1618.37
1253.54
-1437.85
184.308
-489.158
1710.85
1253.37
-311.27
1660.71
-1161.21
-499.503
62.2463
-389.351
2067.3
-1136.63
-930.676
1821.7
-166.612
451.244
156.137
-607.382
-469.953
978.56
-508.606
-1176.64
1276.79
-566.7
969.565
-402.864
397.641
756.994
660.529
-491.397
-438.352
589.967
-151.615
1190.57
-835.234
2308.23
-1080.7
-1227.53
1164.58
-2011.27
846.69
-1609.73
1584.21
440.538
-1582.53
-758.777
1250.34
-491.565
-671.253
359.71
1661.42
-699.456
-1106.93
-870.901
1977.83
694.434
-381.356
-313.078
690.609
562.763
-258.216
1511.75
100.218
-311.507
211.289
-284.761
757.931
-333.201
560.175
-226.974
-324.414
807.405
-320.165
-140.492
460.657
320.641
98.0044
1468.21
-457.833
-995.446
493.65
501.797
265.194
97.8045
-362.998
947.126
-341.41
-1703.69
636.221
1067.47
20.1363
-863.324
843.188
-275.797
589.98
-314.183
158.368
-1093.91
935.543
1050.71
-1066.34
15.626
373.137
517.033
-890.17
-245.345
696.589
-1103.01
-482.619
1585.62
-676.929
949.64
-272.711
1353.84
-1450.24
-652.123
288.415
363.708
-470.207
-1011.48
1481.69
-536.561
-796.725
1333.29
575.244
-995.201
419.958
-262.108
-314.445
576.553
401.789
-301.571
-1045.55
575.592
955.58
-797.213
-110.398
943.678
-833.281
-201.892
409.774
-207.882
-634.881
-360.565
-386.74
961.984
1856.36
-1856.36
-478.037
-174.086
-948.147
1566.41
-618.263
468.142
-904.09
435.948
-922.244
355.544
-941.904
-1058.08
-1498.35
343.505
1154.84
-271.938
922.021
-329.954
627.773
-297.819
-1941.9
999.992
-1148.23
-350.119
563.719
-1511.87
1728.51
-1725.97
-2.53777
201.608
-614.26
412.652
-1468.46
975.948
492.515
277.961
222.16
-500.121
305.316
-638.517
233.916
-407.928
174.013
2017.62
-868.139
-1149.48
-553.94
144.699
615.162
839.901
-1455.06
-183.091
417.007
431.715
876.075
-1307.79
-903.732
388.612
515.12
-1050.46
1448.1
-1068.34
309.561
747.236
-94.4011
567.972
-293.31
-274.662
1020.73
-527.083
593.451
-1403.66
810.206
-1342.09
239.089
-541
265.203
-1189.81
917.875
1943.96
-989.176
-954.781
276.798
1579.56
-2098.96
898.015
1200.94
354.714
-33.7266
-320.987
-222.96
478.472
-255.513
-96.6221
-390.93
487.552
-460.27
140.105
337.216
-131.512
599.654
428.61
377.634
-806.245
-2042.59
1123.86
918.731
461.961
-526.279
64.3175
217.399
-357.965
140.566
1004.75
1012.87
1792.82
-253.313
744.384
-455.969
795.589
-1389
593.414
359.646
334.789
1061.19
-1041.05
-491.637
-249.197
740.834
469.135
-128.114
-341.021
795.427
-614.056
550.611
-734.55
183.938
503.332
1157.38
-1240.36
703.799
1036.05
-1526.09
-3.11791
-1439.42
1442.54
327.415
822.744
-1150.16
622.052
269.913
-891.965
-2270.7
1152.2
1118.5
-1103.68
-1167.03
181.867
368.744
959.098
-631.682
878.167
-897.964
19.7969
-2099.39
992.46
-218.122
-186.375
404.498
-42.0435
1770.55
-840.123
68.9778
-1031.3
-1067.65
-227.805
445.204
-688.702
210.665
-282.497
-426.278
708.775
1103.95
-1574.16
782.592
-1374.22
591.628
698.058
-438.12
1947.83
-1444.5
-378.282
-1375.97
65.9736
405.76
-536.359
538.718
26.8395
-585.053
558.214
568.966
-291.005
-599.259
275.415
323.844
786.813
-358.203
34.958
319.756
1188.47
-1191.59
165.614
236.175
396.276
-678.774
618.477
-1005.22
-2026.77
2026.77
-267.284
-447.337
714.62
698.804
405.845
-1104.65
579.935
167.301
414.763
372.05
-2199.76
1328.86
-925.874
-680.204
1606.08
-479.986
-709.827
-254.278
556.014
-301.736
835.902
-211.66
-624.242
-456.432
658.04
364.335
-694.289
-375.689
-131.411
507.1
-1336.22
-477.59
643.7
-1123.69
-374.138
-1244.23
844.355
1463.87
304.097
-916.903
612.805
966.338
-343.424
1391.21
-797.758
440.984
-275.37
-323.798
-879.3
579.882
299.418
-344.264
-535.036
316.807
-413.43
-191.872
-158.418
350.29
-392.812
1091.62
433.762
-243.112
-384.983
1361.44
-171.892
-1189.55
-479.774
298.862
180.912
224.93
266.308
-491.238
1.79614
-736.346
592.181
-1729.08
1136.89
1485.45
-870.284
-1049.33
-419.131
-1055.98
574.438
481.54
1389.19
-413.24
928.613
-1411.23
-172.961
-186.664
359.625
-467.819
578.64
-1629.1
427.868
903.888
294.095
299.614
-593.709
568.038
1186.22
1102.79
-710.453
-392.333
394.264
-206.474
-187.79
-1419.43
446.594
736.81
-1183.4
1473.24
-544.623
-487.696
938.848
-451.152
426.161
1186.14
-1612.3
47.4184
-724.348
-152.302
417.496
197.619
-390.277
538.493
482.24
-598.531
42.6884
555.843
1024.51
-1307.64
283.131
670.43
-255.666
468.394
-1447.21
978.812
397.024
1688.52
-523.94
894.596
1049.36
-659.06
-1684.86
758.982
563.885
408.074
-971.959
456.602
79.0366
1750.14
-1829.18
1443.63
-379.491
-1064.14
1699.21
-1741.25
-365.369
-536.483
727.803
-191.32
-502.591
174.494
294.64
-373.15
-1225.93
214.443
-764.722
-638.935
-633.777
996.825
-363.048
-651.374
641.211
10.1627
654.807
-923.412
268.604
-712.577
352.723
359.854
-647.317
-698.354
348.675
349.679
-932.133
1400.53
-423.515
891.557
-468.042
-2205.32
5.55667
171.251
-531.466
360.214
143.599
1217.84
-103.612
-585.09
153.602
-591.954
1486.99
-704.403
389.062
-465.757
76.695
-561.512
561.512
1222.97
395.398
1778.24
-1228
589.992
638.008
847.091
-51.6641
1292.45
774.85
-540.917
1336.51
293.944
296.036
269.615
-806.098
245.97
-702.991
226.108
-438.172
212.064
-250.446
587.087
-336.642
116.247
-366.693
-591.275
-564.683
1155.96
-377.014
551.878
-174.864
-1192.15
2032.03
-839.884
1288.44
-329.347
-397.326
135.218
-1982.86
822.089
1543.71
-850.76
-692.947
1987.03
-877.481
-1109.55
714.33
574.114
-239.991
466.099
-675.185
1153.49
-478.305
-769.313
1201.03
551.899
924.562
-1725.76
801.195
-552.077
-80.6969
632.773
307.623
260.349
412.735
-91.562
-321.173
896.36
-83.5522
-812.807
931.747
-573.338
-358.409
1576.15
-472.197
893.688
-1629.55
735.867
1068.45
879.38
747.223
-436.984
-310.239
-1058.85
-258.307
570.09
575.601
-1145.69
-468.02
522.756
-54.7361
573.529
-336.95
-236.579
-988.259
564.744
594.463
890.983
-441.77
1096.58
1423.13
-786.148
-636.981
390.468
-923.241
532.774
-1040.33
405.444
566.868
-1054.56
471.877
-547.597
75.7202
484.439
311.275
-512.695
-48.8163
-793.958
-881.079
1675.04
183.651
210.613
-233.851
415.719
-28.4667
-568.092
596.558
499.021
871.011
-1370.03
-505.414
313.542
985.219
-88.8592
835.484
-1064.32
228.837
405.691
845.172
-1386.09
-458.926
836.561
1981.46
-1287.37
-694.087
269.575
608.592
255.541
795.172
93.5104
-977.203
883.693
1673.72
-1088.94
-584.774
-138.031
1888.17
-1866.12
-160.646
482.554
-620.71
138.155
-1011.95
528.043
483.911
-1730.46
538.316
-955.486
845.088
392.919
197.048
579.022
-274.925
-418.169
707.939
258.399
52.7433
719.943
-772.686
-1131.86
-896.324
2028.18
-543.796
1117.12
-573.323
-480.626
-324.302
106.18
-1657.31
863.347
-850.311
-613.74
1464.05
-329.409
-294.515
623.924
354.336
-656.759
302.423
253.995
-612.198
334.576
198.413
-532.988
361.227
-615.505
627.79
-273.454
315.534
-456.025
680.383
416.176
-191.246
-401.901
-296.453
1226.39
-2.32734
-1224.06
1038.74
-420.259
558.698
410.866
-1782.31
869.809
912.501
489.193
558.597
-1047.79
-532.538
203.129
-264.338
1181.91
-917.576
-1590.82
1212.54
504.61
-1095.88
386.527
2.53481
431.632
313.26
-744.892
368.324
-613.668
-37.169
759.262
-722.093
-524.973
794.887
395.388
320.946
526.146
651.376
100.857
-415.753
314.896
1058.17
-644.634
-413.535
494.045
-1664.27
1170.22
-1140.3
1753.22
-612.921
1715.88
-1123.69
-334.02
609.435
-1183.44
1276.95
424.666
-800.128
1612.1
-811.976
-275.049
-204.725
-900.972
1472.33
1815.82
-610.746
-1205.07
-405.211
670.619
-1304.4
-124.66
-56.0599
468.795
-688.744
-354.182
-1236.64
-215.745
469.74
902.512
-561.318
170.388
-1674.84
-71.3058
1746.15
-1078.82
535.026
566.055
-1186.08
620.03
901.1
914.718
630.481
619.861
698.837
240.011
-1147.06
471.872
-397.286
424.126
615.563
-513.67
237.33
-731.622
494.292
706.791
-347.145
-312.859
183.532
-615.083
249.518
365.565
-886.386
-743.169
1087.67
-2145.74
395.917
-680.678
-342.808
-723.531
837.09
586.04
-342.502
321.525
377.792
234.601
637.653
-872.255
526.844
626.646
-550.832
175.143
358.89
-626.173
-1045.22
-850.519
1895.74
-1805.14
157.461
1106.71
-1371.05
1165.71
-716.234
-449.481
-504.458
1349.63
-1495.44
627.925
867.519
-284.315
-209.287
493.602
1428.44
558.596
357.098
-488.509
-480.332
-573.354
1053.69
-425.243
596.494
1583.19
-1130.83
-452.363
-788.409
341.072
654.515
403.654
-1623.42
416.185
1207.23
-185.546
520.122
797.61
785.582
203.502
-699.777
496.275
199.331
210.443
-278.587
-110.362
388.949
500.975
-3.50703
-497.468
-1645.77
596.444
-1611
1680.09
-69.0875
13.0908
-1624.1
1069.49
778.294
-346.661
-819.766
-220.559
-1134.58
-239.644
-312.143
680.467
-1812.87
-636.895
1212.5
219.816
758.743
-1332.46
-678.817
-466.02
625.246
-331.151
-1013.26
1350.8
-1933.01
582.203
647.235
1288.51
480.818
-2.34576
718.175
711.205
-1429.38
-636.433
329.01
307.423
435.769
-100.683
-335.086
142.749
318.18
153.838
-472.019
-594.35
1158.23
455.888
-642.884
-459.916
-401.876
861.791
-328.283
155.322
-455.984
154.414
-301.707
-710.248
541.419
-105.65
-576.961
967.429
573.345
-267.731
-305.614
452.927
-777.341
-649.21
455.972
-1129.37
-844.688
1188.19
-569.771
448.332
292.502
-463.988
82.6323
1027.37
-314.018
589.562
-275.544
-509.04
1578.53
-698.941
251.74
369.413
-621.153
226.217
496.981
-32.3693
-464.611
-264.609
-191.375
1010.82
1108.85
564.87
-885.845
951.305
-65.4596
-451.971
167.656
-745.068
318.791
-596.735
326.851
379.94
840.06
-1246.92
406.861
776.169
-813.338
-948.846
-550.393
1499.24
-174.105
473.719
-559.923
266.613
1306.84
789.984
-586.482
1325.4
-681.696
487.21
-666.37
-405.019
-421.074
-378.543
799.617
500.474
-841.883
-468.155
99.2247
368.931
-312.313
572.482
726.054
-330.137
-232.059
-175.254
407.312
-492.175
132.15
360.025
1461.5
82.6201
-1544.12
-754.983
1349.45
-1144.78
-465.963
548.164
-178.751
1153.12
-376.953
1083.43
492.719
703.103
-433.488
-884.771
-522.472
-1328.34
-21.4855
985.762
-964.276
596.188
344.1
-940.288
-346.368
-207.572
-683.603
405.54
1621.23
-192.221
382.089
342.011
-724.1
-1839.76
-2106.7
1519.15
587.551
-2038.18
349.227
376.86
534.267
-911.126
-460.532
1019.23
-408.818
-671.177
1079.99
-2030.56
1391.21
639.344
597.196
-1006.01
42.7515
429.125
386.331
187.792
253.192
322.875
974.055
878.367
676.5
-321.818
-354.682
-289.054
617.147
-328.094
570.141
532.644
564.552
514.589
-1079.14
-796.081
-699.363
751.227
401.895
-410.731
713.153
-1193.38
1609.57
433.687
-1104.86
-349.202
547.614
-1384.86
885.804
499.054
-713.37
-342.421
-778.64
344.043
434.597
447.315
717.547
-1164.86
1077.28
-588.089
-420.79
672.009
-251.219
251.082
322.263
-466.213
-432.358
898.571
-230.109
569.038
-965.191
396.152
-462.725
600.598
-1681.29
423.967
670.221
-1094.19
523.51
104.263
113.412
-2212.8
547.795
-99.4631
1444.84
1777.1
-217.549
-1559.55
-438.53
1789.33
-1987.24
1194.58
792.663
397.445
349.778
-42.1192
879.209
-1282.8
718.115
-868.089
-822.269
800.784
299.87
75.0098
-374.88
222.832
175.676
-398.508
1561.25
-843.073
-1530.92
-325.432
507.696
-225.27
-282.426
391.853
366.078
260.483
364.764
-10.9725
1003.23
-992.261
379.684
292.223
-671.907
-734.162
1817.41
-1083.25
-342.766
734.619
-1225.16
-414.5
-913.813
481.455
587.988
-790.431
202.443
758.799
-377.229
-381.569
-435.554
-450.291
450.966
1093.71
1241.2
-675.147
798.808
-345.882
383.841
330.779
-237.368
-228.39
-221.221
618.246
408.249
-845.471
437.222
231.172
352.445
-583.617
-420.265
828.514
754.103
-1146.91
894.327
-54.2664
-486.948
280.285
780.901
-96.4929
1385
1890.51
-50.9409
349.803
-319.565
420.422
-1088.01
1077.04
640.167
376.566
382.232
83.1604
424.536
261.722
507.064
-376.893
-259.54
-561.693
-89.6809
-369.334
363.814
5.52013
-257.707
-283.293
1010.8
-1540.68
529.881
-184.539
-188.199
-388.711
680.934
-1644.82
1590.95
-963.024
274.609
-679.628
584.331
1224.41
-1808.74
607.438
983.511
320.064
-1126.53
708.356
-287.66
-306.049
1385.11
-1453.34
834.864
618.48
437.138
-642.759
205.621
-390.339
488.41
-98.0715
384.561
116.414
1724.58
451.232
-251.901
557.661
-1704.79
1147.13
-98.0176
395.767
343.178
333.322
-448.729
-614.638
1063.37
412.598
-871.524
-640.354
902.377
570.859
-481.293
-231.284
-436.061
-409.41
-307.613
-826.963
1821.1
-1821.1
-101.98
-1597.78
1699.76
297.221
276.308
-916.907
-555.59
1472.5
-408.186
972.738
-606.782
-1038.99
694.962
399.334
-1094.3
470.16
-154.627
573.073
1220.34
-1793.41
-1042.1
2114.33
-1072.23
-379.09
-292.163
-489.044
830.116
-1758.46
1606.39
152.07
1758.46
-1612.36
-146.101
-240.072
518.654
-278.582
-537.308
1620.74
1573.05
-1987.55
1100.41
-294.194
-268.232
562.426
230.138
-579.34
-710.509
299.779
1343.26
638.2
586.184
479.401
-1065.58
271.858
431.244
875.24
500.112
-1375.35
539.77
-1020.1
1574.94
-564.14
-775.049
-363.427
-135.72
499.147
-490.304
1207.85
-742.139
329.891
366.698
382.529
247.239
-629.768
612.667
831.623
-602.786
262.584
688.721
-481.293
-330.862
-242.246
573.108
1168.45
-679.488
607.092
468.675
-1075.77
-1288.3
1288.3
-383.288
759.854
-276.899
-484.013
760.912
500.081
441.576
-941.657
395.738
-672.637
605.788
-870.732
264.944
-367.615
-489.96
1076.14
-659.524
-713.211
1372.74
-379.567
948.605
-1552.77
675.286
34.7868
-431.017
396.23
-521.464
732.13
267.136
319.951
162.846
307.314
-532.889
245.23
1870.43
-1966.92
263.899
-720.331
460.057
-825.809
365.752
-909.472
1423.72
-514.249
-430.284
-483.529
600.858
1124.16
-1725.02
-714.214
335.124
-463.599
1033.74
-792.359
1054.94
-373.314
-623.073
-500.658
746.628
537.812
-355.811
912.679
-317.536
-174.639
1599.03
-1816.58
-349.861
-615.33
-348.479
480.629
275.631
-606.782
-177.945
1071.65
-791.369
201.246
-302.373
-274.71
577.083
392.111
-889.35
497.239
-480.063
-464.234
-916.903
-361.897
597.216
-235.319
-460.595
-441.763
-351.335
-181.654
-405.918
653.157
-447.291
778.07
-1071.87
623.141
-1406.68
556.368
-28.675
-1839.48
1868.15
570.088
-450.546
1233.23
-698.206
296.795
-296.795
673.763
-452.242
1038.86
-1645.64
-1158.74
-947.962
288.087
329.06
894.899
717.204
-507.813
-305.03
812.843
1661.17
-1689.85
-433.423
337.893
231.073
1134.95
-527.859
-943.34
1550.49
-607.153
442.17
-254.378
373.731
400.652
-774.383
542.453
468.481
-1010.93
-331.388
661.279
-38.1194
1908.55
1602.58
992.444
-1696.85
726.583
-1176.67
450.086
-492.505
1367.75
836.658
-1341.12
-574.981
280.786
809.304
-401.23
548.622
-1193.06
644.439
-633.961
-1215.53
-695.696
1911.22
-192.019
563.52
-371.501
-182.132
323.143
-515.162
336.014
364.27
-700.284
-1489.94
756.984
732.959
883.98
-1434.37
822.229
-433.617
206.942
-359.245
-607.638
276.776
-659.36
-725.498
697.359
507.389
-1204.75
383.81
-205.987
-177.822
554.262
-957.127
-579.848
-427.859
746.65
-831.342
-1155.9
-1437.94
499.728
938.217
5.56345
-653.087
352.795
300.293
-1323.37
1049.44
273.931
-615.413
-456.457
-665.566
921.106
397.723
-192.16
-205.562
508.388
980.45
-1488.84
984.029
-559.902
165.43
394.472
-416.7
686.594
-422.695
-509.452
160.973
234.156
-1521.52
526.349
550.933
-774.494
253.03
141.776
-459.312
363.121
-827.354
1954.16
-1195.38
-758.776
426.83
-692.544
265.714
321.04
340.782
107.549
-448.331
-579.31
187.393
263.839
-691.806
1374.2
-682.394
424.098
478.505
-1191.87
260.947
1866.77
-1013.59
-853.181
784.164
-548.613
186.717
1402.31
-975.115
-427.198
327.904
-780.145
-616.581
1725.43
608.278
632.924
328.939
-29.0687
265.804
-1138.35
1725.72
-587.368
-1763.55
820.206
1764.91
-1694.06
-70.8585
-668.15
270.864
579.847
-732.622
231.964
1402.59
-565.935
382.801
453.76
-1858.74
1420.21
570.056
-444.915
-125.141
200.759
-552.093
-288.311
-192.315
-349.079
692.257
-591.527
228.1
619.341
548.527
-1167.87
1113.5
-1947.63
834.137
156.746
350.354
-1700.15
1662.03
309.245
-742.733
-172.011
378.954
761.763
679.266
-1441.03
1083.61
-1085.94
523.835
-1111.92
-625.77
247.815
377.954
540.976
-291.458
-617.366
-1028.27
289.237
-731
-912.321
173.181
154.98
228.83
405.845
288.139
-693.985
-637.463
-834.327
-978.544
488.187
-1067.5
-312.55
493.462
534.481
653.712
-277
-120.326
-413.447
733.511
266.091
-1203.75
566.286
1314.19
-552.427
442.637
-1022.49
-382.65
161.987
408.069
1023.17
551.775
-1720.19
1618.2
1638.78
-579.194
-1059.59
1906.13
-1895.33
-10.7978
221.535
-541.1
-362.157
563.403
-773.804
-332.19
-335.959
1021.42
707.033
-1514.74
807.703
321.991
-26.1845
1625.22
-1099.2
419.711
-1251.55
476.501
-61.3654
1522.87
1197.05
-470.47
-486.318
-73.5837
-276.16
736.069
-1951.6
-707.366
363.114
-535.84
172.726
190.49
-504.508
1139.95
671.611
-1811.56
-630.322
185.407
941.691
-1497.28
-210.531
678.774
-468.243
876.157
1123.84
-744.292
1352.57
626.955
-495.699
-131.256
-342.825
1177.69
1049.14
-1980.15
931.013
-1178.26
541.365
1488.72
-586.348
-399.373
-151.459
-1245.88
570.732
1164.18
-96.706
946.24
775.951
-1722.19
-198.204
578.776
-1541.72
962.945
487.022
916.439
-1403.46
628.317
584.179
406.821
-1106.61
589.547
1112.73
1215.27
-452.148
-763.12
-1186.2
-1754.93
-5.59338
-1714.59
-205.533
-437.226
1611.19
-633.669
-977.517
-490.821
1121.3
-1321.58
634.343
687.242
-1364.53
1447.15
-1334.5
590.211
1520.47
-393.935
-589.313
189.94
-1488.67
225.889
176.385
240.192
386.763
439.788
408.888
-848.676
506.437
-938.818
900.18
-1444.8
-714.746
237.625
477.121
-1052.84
458.494
-485.386
868.187
697.387
17.1932
-540.819
169.318
-886.568
-1318.75
-712.197
346.228
365.97
398.167
-722.062
323.895
-473.997
-189.368
-708.597
724.801
1540.06
-593.823
822.549
738.699
1344.64
-844.526
-970.952
-570.77
-794.057
428.891
365.166
-1035.67
-638.618
299.941
338.678
-1433.69
-296.778
-788.091
395.15
392.941
-665.21
416.225
248.985
-691.14
268.446
412.867
485.704
389.919
438.595
477.303
384.488
595.458
-968.608
692.458
465.776
452.069
356.087
-808.156
1630.73
-1079.83
-550.901
-504.836
-290.582
-1032.79
451.964
347.653
409.759
592.887
-1002.65
-1384.37
750.702
-529.424
1149.45
365.627
-47.4463
412.549
-863.471
450.922
-1898.62
300.843
439.435
-724.09
284.655
-192.147
400.438
-208.291
-660.304
300.827
359.478
-670.61
315.928
370.853
389.002
611.899
-1020.08
751.996
664.275
-1416.27
438.862
624.505
337.758
392.034
-729.793
406.488
328.131
601.69
676.592
417.12
604.299
-1034.48
430.176
-1674.99
1184.34
490.644
1696.56
-539.183
618.83
-1147.05
528.222
-640.026
345.511
437.664
-933.627
495.964
767.58
-454.32
350.86
341.397
579.918
-929.778
653.489
-1252.69
599.197
389.323
733.979
-1224.28
768.768
509.958
-1278.73
495.388
405.455
-900.842
-501.783
-936.162
-295.198
631.212
352.517
540.701
-893.218
329.818
331.461
-502.191
1944.73
435.892
-845.722
409.83
-917.623
-808.134
-745.75
364.181
-1232.07
439.708
-1741.68
1612.36
129.314
1751.22
-1606.39
-144.823
-781.942
-587.971
260.934
327.037
-1764.91
1987.55
539.021
790.749
-1329.77
440.162
715.796
689.804
385.619
-1075.42
-58.6968
1617.14
-593.975
390.807
842.425
-645.782
323.71
322.072
-378.876
-296.308
547.39
-212.958
435.119
277.1
-661.06
383.96
259.581
-573.764
-278.937
442.784
-1032.51
589.726
538.068
1092.66
365.996
595.987
309.283
350.66
-659.942
1634.79
-927.762
1692.47
-1521.19
-171.285
-328.391
-820.999
411.589
857.26
-1067.79
-602.647
274.553
-1090.54
1628.61
-1593.62
-75.665
1669.29
-341.713
-350.531
-370.669
539.893
595.059
-502.062
-24.2169
-549.641
500.9
-283.691
-217.208
1757.84
-1306.88
-620.969
295.284
325.685
403.028
357.317
734.298
-291.909
-399.523
-1751.22
1689.85
459.775
-1100.24
640.465
-42.1961
1660.4
570.813
476.303
-1047.12
103.244
1144.41
-1452.02
-11.541
-1887.08
222.318
-594.626
306.643
287.983
-954.713
611.905
-896.536
466.252
-1127.98
672.608
455.367
382.825
270.411
-778.224
-311.354
1216.25
886.229
699.395
-1182.65
456.161
726.486
494.64
699.984
-1194.62
-361.552
-249.44
404.42
-959.364
438.97
520.394
21.2208
-1879.96
1081.32
-475.535
-508.403
558.751
-1378.07
819.318
-435.534
801.286
-405.859
501.426
-711.698
1722.52
403.953
-175.123
213.087
-161.575
-247.347
408.922
1895.34
-504.129
-1701.65
1050.76
-597.046
300.739
-1012.63
552.095
-312.816
544.438
905.012
-1449.45
-1103.07
437.508
-21.0521
-1945.87
1713.22
-664.088
-539.448
460.874
-1190.11
729.233
197.282
200.441
-279.084
773.496
698.832
836.557
816.557
-460.47
1084.28
-490.451
472.151
-187.122
-285.029
-1924.59
-713.145
-317.526
-640.984
-6.41126
647.395
459.814
-272.421
569.308
1065.49
-810.677
923.368
1243.94
-425.849
-179.178
-240.63
419.808
957.899
-888.331
-318.475
-1067.05
610.595
1562.92
-805.934
537.832
934.665
-400.885
737.403
-336.518
1129.97
-273.948
340.624
1349.5
-708.163
-215.079
448.349
-1198.32
749.972
-984.352
-130.581
1114.93
439.916
-954.536
514.62
178.536
732.21
483.058
743.171
-105.517
851.144
-426.249
1182.02
-796.405
552.441
-1465.4
912.954
-1216.64
1800.97
-431.707
-1510.19
879.362
-1401.83
-322.515
-422.377
1457.09
-1526.98
783.816
1491.42
195.77
276.381
-367.676
-1741.68
-288.444
-1015.8
1585.1
-1776.34
1776.34
1573.05
-1004.37
-631.751
-351.763
368.35
604.387
-376.312
-374.867
-1389.7
897.196
1125.09
600.635
1202.41
1789.49
-1216.41
-619.569
272.691
1659.19
-1916.74
257.549
815.613
-1267.98
1545.18
-561.669
794.41
322.709
-354.766
555.449
794.18
662.12
1366.06
-239.082
-445.614
-378.581
494.241
-338.103
471.991
735.86
-312.569
-135.762
-343.884
573.679
-229.794
33.8488
-370.799
1107.36
-1720.28
-452.873
-499.45
-573.994
864.233
698.686
-1596.35
904.544
-452.172
-629.733
-515.019
1251.83
350.211
1723.83
-1702.61
-1661.17
1895.33
-1560.67
840.146
720.523
-386.626
-1799.11
918.036
583.889
818.705
-393.963
1794.5
-681
-421.699
685.407
441.069
-1126.48
-1102.78
444.218
752.835
-1617.14
473.263
900.937
168.308
-393.557
225.248
-1602.63
-388.26
-439.514
990.199
-679.594
1442.84
-977.75
1853.91
242.378
-539.637
491.283
-295.513
474.338
893.408
543.329
977.138
-463.401
-427.906
574.28
882.807
-1392.69
-40.9922
1580.19
-841.489
519.97
971.449
-1475.79
-1115.89
1777.05
-1242.02
-535.029
1206.04
-319.282
-886.762
-184.483
447.436
-262.953
-457.326
-251.28
423.98
-172.699
137.463
-386.903
1736.25
-1741.85
-470.9
-530.878
-903.496
436.384
-198.396
-237.987
631.355
-466.908
-362.107
-327.089
689.196
-938.66
403.624
-1167
676.18
410.687
-644.033
-435.9
1584.05
-866.851
530.198
-458.364
-569.584
-462.926
358.323
-347.544
-10.7792
-1116.47
418.268
-664.99
-1033.53
1698.52
-610.206
-1424.87
711.661
562.318
-1596.25
1033.93
-402.596
-474.604
160.014
538.823
-1258.37
743.354
539.261
1005.92
-2133.17
999.983
1133.19
-378.912
406.689
-381.337
-25.352
1477.99
-379.978
449.646
1196.8
582.588
906.137
566.486
527.983
-1094.47
157.073
-453.496
-1694.06
250.51
1127.51
-623.737
518.636
1013.59
-1532.23
1092.79
-1643.69
186.629
707.698
557.729
-876.204
-1086.33
-166.434
421.218
-254.784
-586.362
-442.861
-636.711
-623.901
344.816
-1619.57
939.369
-477.099
215.657
-390.78
529.786
-307.469
-617.031
1197.02
-1289.99
927.918
362.076
-1022.25
-384.073
-763.77
-829.886
1694.12
-477.325
1795.03
-1585.57
-209.462
-1556.59
1018.64
537.945
-731.373
-252.86
434.185
-181.324
-601.721
384.903
268.925
-653.828
-524.299
1000.45
626.387
-351.833
-1620.23
1050.46
571.809
1103.48
-1675.29
-427.894
-285.719
-374.586
-750.029
-482.782
-332.131
494.977
1557.98
-995.665
-774.321
1497.45
659.25
-321.357
725.883
1152.35
-1878.23
306.756
318.827
-487.51
-1934.09
1721.21
212.88
735.449
-475.554
-259.895
531.866
1060.76
-1592.62
358.323
-1726.13
-233.214
1752.36
-1580.66
1073.73
506.924
-1728.16
2.02503
-522.016
406.689
1700.15
-1721.21
939.366
625.174
-1564.54
371.716
-216.049
-155.667
-424.061
-267.079
66.8715
94.525
-347.385
-425.805
-444.927
-403.554
211.407
1510.17
379.081
-218.431
-446.778
455.18
-191.341
333.203
1510.71
993.914
-167.117
-826.797
-1104.05
1704.91
-1728.92
1063.93
-707.444
-1021.48
-1265.07
1844.98
-579.914
1155.05
-1771.24
616.187
267.751
-877.739
1675.9
43.4166
-1719.31
-491.188
-1082.97
-1736.25
-980.907
553.001
1019.52
590.274
1132.98
-1723.25
278.768
-457.518
700.772
-384.844
391.025
924.434
681.644
-385.428
-649.047
582.937
1072.49
-1655.42
-407.092
-363.489
770.582
442.856
-1662.03
1521.19
140.846
580.145
-1043.74
544.76
1083.85
-1555.62
993.95
-232.851
225.196
338.207
1906.13
445.757
-73.2838
995.848
722.751
-1718.6
-696.828
1085.27
-1557.47
157.642
-570.041
191.514
263.666
-667.169
-564.897
582.658
1034.48
-710.84
-284.798
-1368.45
674.049
694.398
-406.278
754.417
82.5852
-837.002
562.185
-137.19
1557.4
-206.272
282.424
-776.283
-1934.09
1664.6
1024.48
352.723
310.637
456.943
-929.905
-994.682
-1767.26
632.718
1693.76
504.362
-474.624
1210.48
1087.05
-424.946
1029.33
-977.508
488.767
488.741
700.694
1047.9
-1748.6
480.587
486.842
-1493.9
-745.706
35.2533
777.754
-413.573
-892.332
383.928
-539.833
-801.283
612.805
-577.966
1397.28
1055.17
188.932
232.286
-550.668
1618.49
-774.816
1526.81
-1727.83
575.296
1152.54
539.098
-882.522
-1733.08
1916.74
-183.658
1721.73
175.016
-545.703
360.476
-265.951
-481.616
1210.85
568.273
1128.29
-491.168
427.293
856.319
-456.7
-774.04
434.625
339.415
1419.39
1089.55
-518.328
1422.87
-510.514
-533.071
1043.58
-602.808
494.479
-1210.71
1692.47
1839.57
-687.219
1585.99
-646.626
-1240.84
716.54
-562.834
195.086
-381.462
446.125
-235.682
-518.157
-1246.7
1870.95
-624.249
1173.43
-554.597
1120.25
-1659.43
1702.36
-573.983
-547.854
-549.844
1720.07
-316.609
-688.1
-473.412
1223.38
-1688.95
-1860.11
613.412
320.006
-944.247
161.026
207.591
-1719.02
1204.13
514.89
1162.84
558.889
-512.861
-465.439
1191.93
183.548
216.89
588.448
1251.12
-539.185
-1238.58
1777.76
-1025.27
999.986
866.783
-204.064
-1659.19
1702.61
-510.173
1411.11
-1733.08
-349.281
4.86452
344.416
-254.91
585.167
-330.257
91.8364
488.046
780.2
-382.033
1257.51
1270.63
-413.373
850.175
-438.586
1817.53
-662.481
1586.64
-1723.83
-412.821
-760.463
309.782
450.681
-561.014
-563.546
79.7449
-1138.6
-985.247
-670.275
1655.52
-943.7
-1189.47
159.972
-428.204
-647.425
705.736
1167.44
650.098
1410.29
-591.584
1636.72
1318.02
-574.667
-486.326
190.813
-503.321
1396.73
1240.04
-565.989
-999.981
891.349
58.5743
-949.924
603.416
-506.199
1403.4
1495.05
-588.917
-355.501
355.501
-589.566
1623.5
1239.21
-486.372
1134.13
-65.3071
1850.66
-381.728
1489.47
-589.289
-507.698
1347.84
-650.648
1218.63
-567.981
1554.81
-591.862
758.502
577.405
-1335.91
-658.131
285.246
504.739
600.745
-1957.29
-1000.76
1586.64
360.211
-360.211
-61.1918
384.058
438.171
398.605
-14.0434
-325.067
910.505
-521.182
-428.137
812.195
-238.58
616.534
-427.087
1550.94
-444.348
-883.988
177.899
224.874
-402.774
601.173
1250.76
-1851.94
925.558
-459.306
-347.544
126.148
-1943.04
1816.9
-448.882
173.512
1181.04
-440.5
-740.543
-298.66
-593.671
-495.622
-381.337
-474.326
257.118
1158.15
-563.092
232.54
-372.477
139.937
-23.014
-107.683
1375.97
-1268.29
34.6352
-596.328
-586.485
-446.775
446.775
-1262.34
1985.09
-1344.32
-212.121
-1824.33
238.758
-1025.75
-974.244
-179.012
-1639.25
709.345
1229.32
-1925.02
363.738
316.77
-680.508
-1850.02
1234.27
615.753
-559.558
559.558
-958.958
-40.0858
-1866.12
-558.175
1650.84
-676.014
1636.19
-601.704
-181.549
-1705.53
-580.293
-449.826
-594.855
-461.667
461.667
-1537.81
194.529
1343.28
165.002
223.05
-388.051
499.428
494.487
995.927
-475.533
1751.29
769.51
-417.097
391.745
522.779
1702.07
-594.708
-552.986
1636.83
464.205
1812.81
-645.373
-1804.39
-1938.07
-647.078
-474.748
474.748
-601.528
222.947
-696.763
1018.49
-466.395
-1075.53
-294.469
1579.56
1852.29
1635.37
-1635.37
-274.792
740.982
1761.51
595.8
1275.15
165.929
205.786
591.229
589.206
1603.49
-1603.49
216.97
-358.324
-438.409
452.598
950.738
-461.971
-638.822
-1130.96
1706.26
275.856
-1659.47
620.476
-289.025
464.041
1744.65
-592.111
-212.842
-425.54
379.009
733.717
1738.58
-613.493
-511.788
-773.045
1960.54
-870.46
-1090.08
1642.72
-703.737
1223.96
-1824.96
600.997
351.866
-891.503
-185.193
-101.47
1097.56
-486.967
141.672
628.414
-1656.69
432.653
621.845
-1804.39
-583.293
1787.42
883.48
-1162.89
1760.5
-597.609
1783.83
-575.55
-1208.28
437.912
927.769
-1741.85
924.516
-1487.7
254.48
1233.22
-832.897
-1254.22
-372.744
73.1999
299.544
581.763
264.701
1032.72
-439.041
845.477
-406.437
820.459
741.09
-1561.55
644.389
1066.46
-23.9957
-661.82
685.816
-1744.45
722.973
706.612
150.538
-1122.62
1936.77
-674.563
-1262.21
-537.185
1665.48
835.349
966.912
-1802.26
1227.86
683.363
-408.791
709.618
832.973
1027.33
-587.411
1761.51
625.815
1773.56
-1185.59
-587.969
-383.161
-342.05
725.211
121.453
-1185.59
1660.53
-540.282
-1437.78
1437.78
1250.56
594.424
1351.42
206.561
-559.26
281.114
-183.31
699.146
1113.66
476.944
-293.396
-869.533
-575.27
1739.82
-1739.82
997.978
-997.978
987.337
1025.17
-2012.51
1837.96
-613.995
-581.121
836.606
-947.854
-1052.16
998.207
691.225
-1689.43
-512.695
-362.761
-643.253
-808.435
2042.7
-1246.41
-613.701
1002.97
974.858
1289.78
646.999
321.897
1012.69
228.28
341.159
1186.22
1756.89
-1756.89
671.51
79.5486
-385.163
-997.059
-539.995
1674.12
990.333
1009.67
-1833.3
-218.254
-362.039
615.224
-364.714
1849.56