/*--------------------------------*- C++ -*----------------------------------*\
  =========                 |
  \\      /  F ield         | OpenFOAM: The Open Source CFD Toolbox
   \\    /   O peration     | Website:  https://openfoam.org
    \\  /    A nd           | Version:  7
     \\/     M anipulation  |
\*---------------------------------------------------------------------------*/
FoamFile
{
    version     2.0;
    format      ascii;
    class       volScalarField;
    location    "25.5";
    object      p;
}
// * * * * * * * * * * * * * * * * * * * * * * * * * * * * * * * * * * * * * //

dimensions      [0 2 -2 0 0 0 0];

internalField   nonuniform List<scalar> 
7807
(
0.31086
0.0126804
0.459079
0.303877
-0.00175672
-8.62804e-05
0.462098
-0.0104778
-0.000268767
0.134328
-8.12952e-05
0.00465005
-0.0156542
0.0693804
0.139419
-0.0202611
0.321354
-0.020398
0.002212
-0.0926534
0.0945154
0.00304562
0.0516171
0.246541
-0.0265027
0.32092
-0.00162435
0.0848432
0.209384
0.00500394
-0.027757
0.691401
0.050847
-0.00100178
-0.00022912
0.111444
0.00569977
0.448214
-0.00878203
-0.000707
-0.00799935
-0.0194705
-0.0913906
-0.0238724
-0.000429163
-0.000181401
0.00298906
-0.00906141
-0.000152316
-0.0901381
0.00700917
0.0805041
-0.033421
-0.00287761
0.110507
-0.00934103
0.00238429
-0.0104701
-0.0428509
-0.00104171
6.38963e-05
0.00898005
0.0697285
0.0051372
-0.00197024
-0.0271482
-0.000221259
5.85364e-06
0.128576
-0.00850422
-0.00016752
-0.0746041
-0.0256262
-0.0432743
-0.0197329
-0.0610147
0.452343
0.0923877
0.090108
-0.0823106
-0.0150123
0.415647
0.131845
-0.0452898
-0.0029077
-0.00456998
-0.0111951
-0.0324176
-0.0013463
-0.00885102
0.213966
-0.0277784
-0.00029054
0.00239274
-0.00705559
-0.044748
-0.0705078
0.00126053
-0.00320318
-0.00234058
-0.0746628
0.0996619
-0.0066935
-4.75564e-05
-0.0158853
0.220268
0.601262
-0.00993176
-1.86354e-06
0.0486778
0.288202
-0.0540075
-4.19013e-06
0.0517621
0.220347
0.000866343
-0.060569
0.179641
-0.0522418
-0.0443647
-0.0776707
0.39773
-0.0841606
0.0199788
-0.0756326
-0.00196455
-0.0250356
0.00395955
-0.00207858
-0.0279445
-0.0794725
0.0898325
-0.00124745
-0.0015798
-0.0469067
0.279887
0.488178
-4.11612e-05
0.0156575
-0.097579
-0.0409913
-0.0621064
-0.0615658
-0.0415926
0.607408
-0.022167
0.210941
-0.0416773
-0.0568988
0.396597
0.106485
-0.0182484
-0.0030354
0.107269
0.131041
0.417751
-0.0699829
-0.01559
0.56698
-0.000138588
0.00119216
0.255007
-4.75731e-05
-0.00412707
-0.00794012
0.312221
0.313058
0.587224
-0.00468442
-0.00618612
6.58674e-06
-0.0804142
0.000855896
0.021053
0.0170243
-0.0561486
0.00686575
0.192295
-0.000289198
-0.00104883
0.309528
-0.000137776
-0.000245985
0.464109
0.00737172
-0.0468271
-0.0491151
-0.0409749
-0.0268958
-0.0953539
-5.0933e-05
-0.0679114
0.199231
-0.00675276
0.000125344
0.243064
-0.00253294
-0.0263006
-0.0261658
8.35985e-06
0.00180683
0.286646
0.23066
0.419785
-0.0542799
-0.0472215
-0.107948
0.0920215
0.283029
-0.000459237
5.58368e-05
0.570612
-0.0172716
-0.00129401
-0.0648066
-0.0262181
0.383234
0.391088
-0.0681611
0.656717
-0.00235226
-0.0200219
-0.0766262
0.111435
-0.112596
0.276893
0.56831
0.000102297
0.0208893
0.190404
-0.00830543
0.176244
-0.00114738
0.625248
0.409792
-0.0111222
0.00574962
-0.000657658
0.190948
-0.000210803
-0.0126116
-0.0921237
-0.000167231
-0.00276095
-0.00091707
0.202267
-4.90266e-05
-0.00918853
-0.0799855
0.690422
0.0800618
0.61003
-0.000105207
-0.0299205
-0.000417015
0.435169
0.00862324
0.489502
0.00293912
0.00152248
0.0134102
0.0959192
0.00118874
-0.000498523
0.00104779
-0.00875389
-0.0453552
-9.87843e-05
-0.0677898
-0.00756529
-0.000316843
-0.00133997
0.469215
-0.0156171
-0.00162437
0.657649
-0.00303755
0.30337
-0.000460471
0.00169958
1.17935e-05
-0.0471902
0.107037
0.0173307
-0.0432153
-0.000891756
-0.0804061
-0.0303831
-0.000397622
0.00101742
-0.00451923
-0.0150655
0.00627949
-0.00259882
-0.0433075
-0.0378907
-0.042723
-0.0100842
-0.0537784
0.404279
0.418827
-0.00313633
-0.0140873
-1.86185e-05
-0.00491009
-0.0449888
0.240343
0.146354
0.000177979
-0.00453054
-0.0522563
0.211279
-0.00211272
0.00767493
0.00257727
0.0865926
-0.0963832
0.385084
-0.00334811
0.0126511
-0.000261365
0.00882569
-0.000123822
-0.0335755
-0.000752644
0.0100563
-0.0433497
-0.0535947
0.00458001
0.018853
-0.00157138
0.0431047
-0.0146297
0.11398
0.205493
-0.139648
-0.0329769
-0.0311616
0.0109741
-0.0896536
0.598867
-0.0254854
0.0629336
0.644247
-0.00323066
-0.00366968
-0.030037
-0.00230557
-0.0180259
0.0135263
-0.00584971
-0.00435984
0.200744
-0.000169081
0.00113894
0.000140638
-0.00710337
-0.0143126
-2.21413e-05
-0.00232645
-0.0411311
0.565714
0.00615189
-0.0169288
0.532718
0.354074
0.0981846
-0.00137672
-0.0812497
0.0106024
0.30272
-0.0220389
0.343358
-0.0320571
-0.0947466
0.233485
0.345431
-0.0637836
0.138098
0.274174
0.316207
0.0900243
-0.0063531
-0.00875098
-0.000203531
0.00804645
-0.0224876
0.00203173
-0.000245438
-0.00339732
-0.080694
0.125268
-0.0327673
-0.00546918
-0.00788726
0.00913437
-0.0143588
0.00378408
0.245584
-0.00395115
-6.16284e-05
-0.000144608
7.70584e-05
-0.0394586
0.195254
-0.00833121
0.057542
-0.120964
0.439832
0.00703581
0.0144278
-0.0105729
0.454226
-0.00225051
0.380704
0.215182
-0.000267026
-0.0355339
-0.0068676
-0.0586902
0.00117183
0.107446
0.00736142
0.0133876
-0.00182477
0.187131
0.214601
-0.0545129
-0.0412291
-0.00479515
-0.0295204
0.103745
0.679791
-0.0472137
0.00974261
-2.96323e-06
-0.0258375
-0.00477317
0.039476
-0.0999849
-0.0278217
0.469577
0.197534
-0.0940356
0.253676
0.444147
0.0563714
0.00250678
0.314451
-0.00192938
-0.000416525
-0.0333771
0.000160508
-0.121
-0.000292847
-0.0428028
0.00402781
0.248326
-0.00374532
-6.45205e-05
-0.102803
0.00364775
0.0610717
-0.0720388
-0.09569
0.0303414
0.191993
0.159228
0.163319
-0.000460789
0.116112
0.122822
-0.00114885
-0.0315646
0.00125918
0.012486
-0.00390695
0.0100678
-0.00167699
0.1837
-5.19874e-05
0.00039044
0.00416152
-0.0408823
0.0427986
-0.0405652
-0.0476242
-0.0420817
-0.121071
0.0173618
0.305173
-0.028277
-0.0134171
0.63288
-0.0684201
-0.0149984
-0.0476247
-0.0118783
-0.0385371
-0.0199789
0.0576367
-0.0317881
-6.9507e-05
0.0503955
-0.000222646
0.407536
0.139011
-0.00993735
-0.0268586
-0.000424533
0.417201
0.371596
0.0964485
0.195768
-0.0731545
0.502832
-0.000157674
0.0407665
-0.0340022
0.199047
0.591468
0.0892717
0.189801
-0.00380302
-0.000457792
0.179675
-0.0586256
0.434972
0.0626202
0.268931
-0.0141461
0.44818
0.355804
-0.0178028
-0.0151393
0.15461
-0.0974221
-0.000205418
-0.0247604
-0.0934993
-0.0744259
0.0232947
0.0193595
-0.000294551
0.37433
-0.00216185
-0.000239649
-0.0329333
-0.00106985
-0.000499945
0.00712484
0.268039
-0.0915789
0.553277
0.000111523
0.265361
-0.0270107
-0.000188043
2.91555e-05
0.206536
0.259263
-0.00819496
0.237232
4.11452e-05
0.24909
-0.134176
-0.0186265
0.464768
-0.0619647
0.186409
-0.0456621
0.246844
0.25601
-0.0305261
-0.0385154
-0.0118314
-0.00579327
-0.000451363
-0.00242896
0.326702
-7.06019e-05
0.240216
-0.086527
0.380232
0.229095
-0.0956393
0.538226
-0.00329116
0.0110217
-0.0444974
-0.0368696
-0.0127724
-0.0317868
0.0597703
0.624246
7.31388e-05
-0.00386999
-0.052477
8.94529e-06
0.414422
0.00370821
7.82781e-06
0.000372323
0.00076208
-0.0319568
0.0379102
-0.00312898
-0.00019728
-0.0135315
0.00511151
-0.11033
-0.0877704
0.0433575
-5.39068e-05
-0.139421
-0.0242175
0.161082
0.374667
0.00230339
0.167623
0.000289766
-0.0232151
0.122109
-0.0128013
0.285456
-0.0237741
0.0455474
0.126474
0.194502
0.00928064
-0.0190559
0.225894
-0.0888216
0.442019
-0.0171785
0.314888
-0.0170894
-0.00234816
0.181146
0.00348207
0.121365
0.00382641
6.99204e-06
-0.121111
0.239288
0.00289428
0.15576
-0.0225914
-0.141637
0.0124826
-0.0419906
-0.0033702
-0.0162801
-0.0792708
-0.0487826
-0.0180011
-0.000336999
0.464773
0.16163
0.0572778
-0.000432275
0.353865
-1.60252e-06
-0.000399473
0.172131
0.00350232
0.21277
0.0836206
0.0339696
-0.0297465
-0.116796
0.0268874
0.00262703
-0.0701399
-5.5249e-05
0.00752474
0.276359
-0.0291387
-0.00554807
-0.0123615
-0.00391988
-0.000859355
0.64518
-0.0181324
-0.00114297
-1.46275e-05
0.17472
-0.0508138
-0.00069856
-0.00548992
0.201051
0.121362
-0.0629193
-3.71082e-06
0.21989
-0.0286544
0.237256
0.0324622
0.0397339
-0.0514311
-0.000213899
0.123465
0.112125
0.0617975
-0.0777537
0.326538
0.0121838
0.220805
-0.00492399
-0.032197
-0.000821827
-0.00258237
-0.000249624
0.203463
0.29346
-0.00298248
0.0377806
-0.0308931
-0.0606316
-0.0700089
-0.00371341
0.0374505
0.61738
0.041831
-0.000137894
0.119504
-0.00736304
0.531241
-0.0224214
-0.0208975
-0.00262223
-0.0241602
-0.0125685
-0.0143819
-0.00651821
0.00306659
0.0514438
0.000190698
-0.116637
0.0117982
0.396411
-0.060544
0.219256
0.00407304
-0.0402519
-0.0211056
0.253149
-0.0135644
0.000186448
-0.0279815
-0.0102626
0.04055
-0.0466576
-0.040151
0.00165431
-0.0261855
-0.00833313
-0.0799263
6.98667e-06
0.0693173
-0.0695295
0.193217
-0.0412128
0.120461
-0.0831769
0.361071
0.0139239
-0.0531511
-0.0221332
0.560393
-0.0955308
-0.0234757
-0.111956
-0.0390941
-0.0990424
-0.05347
0.215801
-0.00551798
0.295405
0.0174504
-0.000824031
-0.00247522
0.106086
0.696849
0.00215722
-0.0271701
0.210121
3.53982e-05
-0.036888
0.0526424
0.0137855
0.0176985
-0.00328608
-0.0472582
-0.00597633
4.63652e-05
-0.0589368
0.298314
0.00648874
-0.0296874
0.00375137
0.20998
-0.000803348
-0.00250787
-0.000752464
-0.001603
0.078599
0.00732563
0.00626824
-0.0318589
7.08899e-05
-0.105057
-0.044803
-0.121784
-0.0259112
0.0292061
-0.000455218
-0.0230368
-0.0780636
0.058782
0.382707
-0.00255458
-0.0849967
-0.00931752
0.0172794
0.191294
0.000846753
-0.000346521
0.163848
0.0427541
0.0295174
-0.00588914
-0.00414705
-0.0717162
-0.000387922
0.00105063
-0.0240587
0.33383
0.297227
-0.0331485
-0.0665502
0.0143941
0.00903266
0.027551
-0.0764821
-0.0165113
-4.14272e-06
0.0207407
-0.0438559
-0.083861
0.00980761
-0.0678949
-0.000836457
-0.00594769
0.231232
-0.0494149
-1.02965e-05
-0.00560999
-0.0827026
-0.000358883
-0.0211799
-0.000125914
0.00810937
-0.107043
-0.0342275
-6.88762e-05
4.88591e-05
0.152813
-0.0523187
0.419889
0.304326
0.0147997
-0.00122175
-0.0176005
0.000405977
-0.0823624
-0.0885728
0.0190237
-0.0288784
0.294713
0.016511
0.00050513
0.011721
-0.108915
0.00385782
-0.0264646
-0.0756442
0.00441109
0.0317689
0.0896018
0.0161497
-0.0394226
-0.0589944
0.21891
-0.0319713
-1.11662e-06
-0.101018
-0.0819138
-0.0383814
0.00836338
0.00146918
0.0155222
-0.105188
0.0461429
-0.0463402
0.165266
-0.0447207
0.0116886
0.0280054
0.0244007
-0.0472539
-0.0952029
-0.000241055
0.173041
0.238632
0.0113764
0.244733
-0.0757693
0.0629393
-0.0516244
0.229875
0.124428
0.610623
5.05216e-06
0.128196
0.206743
0.0213336
-0.00229582
-0.025018
0.00588647
6.49166e-05
-0.0249525
-0.0589104
-0.0273715
-0.0301338
0.000231954
-0.0648724
-0.000613384
-0.00137886
0.270114
0.00985069
0.103662
0.0295092
0.235949
0.0168587
-0.000650409
-0.0919405
0.0122149
0.399878
0.00189489
-0.0623418
-0.000382168
-0.000880667
0.0110448
-0.0514235
-6.5295e-05
-0.015114
0.0412667
-0.00299489
4.72141e-05
-9.82271e-05
0.17752
-0.021318
0.0100664
-0.0017249
0.0127637
0.0224479
0.0127197
-0.000485604
0.380869
-0.077644
0.250114
0.334261
-0.000348345
0.0928703
0.138489
-0.00121485
-0.000441981
-0.000699043
0.010961
0.0240483
-0.0136924
-0.0254994
-0.0778126
0.197994
-0.0940629
1.44374e-05
-0.0264367
-0.0249077
-0.0477896
-0.00644469
0.00886851
0.00183318
0.0394212
-0.000818906
-0.000396773
-0.0236594
-0.006348
-0.0337509
-2.89642e-05
-0.0202939
0.0471113
-0.00967673
-0.0227232
-0.0120214
-0.0161728
-0.01269
-0.00764926
0.014572
-0.0131147
-0.000181512
-0.000650702
0.0333663
-0.0168282
-0.00724937
0.0123787
0.00448389
-0.134563
-0.0152773
0.181556
-0.0173274
-0.0684601
-0.0324631
-0.0307784
-0.0212952
-0.00554324
0.00329152
-0.00520019
-0.0191687
-0.0220119
0.223237
0.17841
0.0697612
0.37283
-0.000124955
-0.00481192
-0.0224474
-0.0112767
0.121458
-0.027536
0.0684479
-0.00623711
0.241
-0.00288912
-0.0024301
0.0252297
-0.0220896
-0.000362628
-0.0281879
-0.00859994
-0.0283431
-3.9723e-05
-0.00967027
0.00289088
-0.0238674
0.0493218
0.0482339
0.0266679
-0.0191523
-0.0423688
0.138371
-0.0019197
-0.00292014
-0.00313868
0.527799
-0.000167618
0.095288
-0.0288697
-0.0277472
-0.0357153
-0.0533629
-0.0387342
-0.0459565
-0.0248168
-0.00672585
-0.000167316
-0.00626761
-0.0295317
0.121626
0.00244734
0.186172
-0.0441603
-0.0181396
-0.00139027
-0.0388922
-0.00017462
0.172604
-0.040597
-0.0353189
-0.0322331
-0.0056935
-0.0439422
-0.00250626
-0.0541784
0.123648
-0.0348897
-0.0864211
-0.00218208
-0.0364158
-0.0250871
0.0217007
-0.00475836
0.16626
-0.00355016
-0.0260615
-0.00103476
0.18519
-0.0520598
-0.0357233
-0.00478215
-0.0135187
-0.00406501
0.221075
0.0225997
0.236832
-0.00702112
-0.00124333
-0.00188529
-0.00344185
0.210287
-0.0793147
-0.00985658
0.000468782
-0.010148
-0.0119813
-0.00136546
-0.0177979
-0.0213815
0.0739202
-0.00722649
0.00712081
0.519795
-0.0811621
-0.0388383
-0.0758631
4.00595e-05
0.095023
-0.00519997
-0.0362935
-0.00815205
-0.0477944
0.00627575
-0.000825133
-0.00427343
0.00472152
0.226956
-0.00850435
-0.00265378
-0.00677074
-0.0693626
-0.0119643
-0.0300385
0.00635267
-0.0125309
-0.0129197
-0.00481183
0.231381
-0.0611979
0.00464563
-0.00619503
-0.037213
-0.0198241
-0.0656048
-0.00209694
0.113242
0.0323778
-0.0112999
-0.00257025
-0.0191261
0.541405
0.22839
-0.016052
-0.000884182
-0.00352418
0.00781601
-0.00581641
0.029516
-0.000648355
-0.0210883
-0.00292182
-0.0236012
-0.0550368
-0.00159938
-0.0154005
-0.00201955
0.349529
-0.00929852
-0.0166215
-0.00980545
-0.00285426
-0.0404874
0.093801
0.480778
-0.0152591
-0.016148
-0.00312981
-0.000723908
-7.1306e-06
-8.05268e-06
-0.014422
-0.00101812
0.141948
-0.00102613
-0.00269151
0.0119273
-0.000407964
-0.0590362
-0.0707325
0.0242106
0.0527634
0.036067
0.0763382
-0.0457414
0.111439
0.0879989
0.117036
0.145573
-0.0183045
-0.00129718
-0.0083424
-0.0791549
-0.00516128
-0.021092
0.0580244
0.361004
-0.0615501
-0.000742947
-6.76942e-05
-0.00218194
-6.73442e-06
0.0131106
-0.000860754
-0.00667558
-0.0633156
0.000761513
0.00376781
-0.000350495
0.0880018
-0.021606
-0.0358499
-0.00181601
0.355295
0.310625
-0.0142986
-0.0799286
-0.0378262
-0.0329376
-0.0202015
-0.00277633
-0.0913587
-0.0398576
-0.0560488
-0.0468296
-0.000103442
0.220219
-0.0162234
-0.0137372
-0.0360596
0.0265301
-0.000817615
-0.0119554
-0.00202646
0.01885
-0.00227814
0.198347
0.000482996
0.014335
-0.000640871
-0.0767472
0.0126698
-0.00115984
0.0173013
0.000561019
0.0448942
0.144999
0.00235584
-0.00214267
-0.00020681
-0.00088106
-0.00077693
-0.0797391
0.148154
0.0341916
-0.000423217
0.013547
-0.000710099
0.256351
-0.0783842
0.283217
-0.0570119
-0.00069452
-0.000458654
-0.0104691
-0.00816248
-0.0009664
-3.25725e-05
0.0350157
0.0398242
-0.000375266
-0.000529913
-0.0271968
-3.90242e-05
0.194094
-0.00139757
-0.0689705
-0.0262527
-0.00915594
-0.0723309
-0.079464
0.176504
-0.0211806
-0.0278623
-0.000494911
-0.0738358
-0.0284685
0.0270604
0.132762
0.383443
-0.00174706
-0.0772866
0.0187569
0.339282
0.0528178
-0.000196253
-0.0086801
-0.00591277
-0.00715842
-0.0627255
0.114494
0.000227214
0.0276294
0.00436294
0.100834
-0.000799184
-0.000212283
-0.0719182
0.31187
-0.071366
0.177637
-0.00187835
-0.000324293
-4.6224e-06
-0.0920055
-0.0550167
-0.000537316
0.133054
0.0158986
-0.00771306
0.443391
-0.000617204
-0.00536284
-0.0766626
-0.026433
-0.00334749
0.159129
-0.0674996
-0.000266318
0.0183552
-0.000290295
-0.0001702
0.167945
0.00386299
-0.000697395
-0.0671242
-0.0334233
-0.00509206
-0.0316764
0.00342867
-0.0311833
0.0023552
-0.00507979
-0.0839059
-0.0502816
0.0283824
-0.00134713
0.18445
0.235804
-0.0950775
0.0139352
0.0268145
-0.00619754
0.192708
0.134834
-0.0376411
-0.000264059
0.0141274
-0.071669
0.0178113
-0.0375047
-0.0030934
0.0614924
-0.0372243
-0.000222253
-0.000129831
-0.0379988
-0.0338945
-0.035123
0.0138687
0.0215042
-0.0579407
-0.000256924
-0.0020642
-0.00033855
-0.0441137
-4.32473e-05
-0.00284356
-0.0528744
-0.108806
0.144145
-0.00434249
0.00597118
-0.0289435
-0.0344071
-0.000212825
-0.0604189
0.139217
0.18308
2.62262e-05
-0.000182604
0.186319
-0.00368042
-0.0998844
-0.0531622
0.00483053
0.00065512
-0.0876185
-0.0188399
0.190635
-0.0731603
-0.00216969
-0.012556
-0.0679139
-0.000882941
-0.00038035
-0.00135313
-0.00239513
-0.0667017
0.173804
-0.00033545
0.542114
-0.000549465
0.000138907
-0.00145049
0.000328305
0.000379859
-2.98124e-05
0.000171523
-0.068742
-0.00109072
0.000594288
-0.000316134
0.165498
-0.00823403
-0.000309118
-8.73373e-05
0.390507
-0.0292658
-0.0279147
0.00159795
-0.0010926
0.0784404
-0.00016768
-0.0172728
-0.114093
0.00310615
-0.00917976
-0.000160377
-0.000331195
-0.0410287
-0.0722089
0.0103134
-0.106825
-0.0586978
-4.92316e-05
0.0295612
0.0440346
0.131174
-0.0025237
-0.000253375
-0.0732332
-0.00873949
-0.00076812
-0.0644111
-0.000224594
0.055728
-0.000163636
-0.0018789
0.0242074
-0.00308042
-0.0760407
0.496893
-0.00241957
0.000368008
-0.0702659
-0.0671563
0.0132184
0.006733
-0.000243032
-0.0418345
-0.000144828
0.224344
0.655739
0.105575
0.00433557
0.0051536
-3.6745e-05
-0.0373906
-0.000105499
-0.00960499
-0.00249499
0.000499023
-0.00486689
-0.013362
-0.000199736
0.00121622
-0.0112431
-0.000486656
-0.0139945
-0.0225474
-0.00596499
-0.00170522
0.587993
-0.00104744
0.00347316
0.000323421
0.0195854
-0.0649137
0.0136932
-0.000285322
-0.000164315
0.00380225
-0.000183446
-6.28408e-05
-0.0160705
0.000969544
-4.28325e-05
-0.0665838
-0.00329423
-0.0729862
-0.00241049
-0.0001137
-0.0045307
-0.00870298
-0.0206938
-0.0300649
0.00329841
0.000714995
-0.000711396
-0.00285901
-0.000138825
0.310087
0.00220682
-3.64624e-05
0.000802202
-0.00296068
-0.000558713
-0.082549
-0.0710052
-0.000223423
-0.00992644
1.03512e-05
-0.00377174
-0.000122865
0.0475946
-0.00022963
-0.000305921
-0.00505982
-4.90537e-05
0.0191158
-0.000357612
-0.00185407
0.0263504
7.87642e-06
0.411605
-0.0698233
-0.0548773
-4.90783e-05
-3.73888e-05
0.00266703
-0.00174088
-0.0664172
-3.13857e-05
-8.21976e-06
0.00103034
-5.33359e-06
0.000513529
0.000613993
-0.00069685
0.00109886
-0.0686566
0.51118
-0.0434772
0.372561
0.0128583
-0.0228358
-3.4975e-05
-0.00130229
-0.0170036
0.000179694
0.000379506
0.000218888
0.0894222
-0.00198422
-0.000352601
0.525087
-0.000815966
0.000804154
0.000690983
-8.75914e-06
0.0659969
-0.00316709
0.00159777
0.000153608
-0.000810253
-0.000113355
-0.00138179
-0.0577483
-0.00063219
-0.00232428
-2.71667e-06
-0.000526957
-0.000400312
0.220303
-0.000668873
-0.000435603
-0.090159
0.00536515
-0.000155328
-0.00195032
-0.000102172
0.202241
-0.0949578
-0.000470236
-0.000588703
-0.00271261
-0.000264417
0.0765473
0.141641
0.0516875
0.000692812
-1.24197e-05
-1.91115e-06
0.0771667
0.000336452
-0.0795559
-0.0304397
-0.0218593
0.00612272
0.591788
0.00277443
0.229555
-0.0202046
-0.0391055
0.205493
-0.000543627
-0.0854599
-2.4888e-05
-0.0125794
-0.0644895
6.45776e-05
-0.0629659
-0.00139587
-0.00531293
-0.00769456
-0.0564866
-0.0560124
-0.00447529
-0.0796837
-0.058047
-0.000291827
-0.0169554
-0.000101835
-0.0499514
-4.81878e-05
-0.000290551
0.0287503
0.195677
-4.22567e-07
-0.0598293
0.00507175
8.93623e-05
-0.0283175
2.11545e-06
-0.0190194
-0.000408495
-0.0510734
0.000159525
-0.000145355
-0.00293375
-0.00010202
0.191148
-0.0409001
0.10343
-6.49998e-05
0.000867694
-0.0436712
-7.98987e-08
-0.0747266
-0.0865835
-0.0729268
0.54725
-0.00910568
-3.16232e-05
0.0361655
-0.0553113
-0.00360834
-6.45464e-05
-0.000141363
-0.0623132
0.000157556
0.00122057
-1.64625e-06
0.000200116
-0.0378871
0.149545
-0.0696786
0.125778
-0.00752404
-2.20454e-06
0.00912311
-0.0653926
-3.59053e-05
-2.59741e-05
0.000430937
7.69099e-05
0.000550481
0.265655
0.0482514
6.63261e-05
7.84974e-06
-0.0862816
0.236308
0.211093
-7.50677e-05
-0.048318
-0.0260943
-0.0143356
-0.0631546
-0.011767
-0.00413712
0.171049
-7.9135e-05
-0.0355934
0.201448
-0.0643844
-4.4678e-05
-0.0803215
-0.000275589
0.326581
0.0395466
-4.36153e-05
-5.30154e-05
0.220899
2.95445e-06
-0.000287776
-0.0163491
5.0502e-06
0.287201
0.00482115
-0.010308
-0.083895
-0.00531903
-0.0943694
0.217936
-0.0135653
-0.0209256
0.0013882
-3.98073e-05
-0.00149152
-2.95551e-05
-3.62888e-05
0.0363075
0.214707
0.180938
-0.000662169
0.284484
-0.0151641
3.41739e-06
-0.0603309
-4.41298e-05
-0.0374624
0.040794
-0.0197126
0.00630435
0.00261987
-0.0129428
0.000321846
-0.00239773
0.0278732
-0.00406863
-9.17824e-05
3.22237e-05
-0.000101736
0.0429718
6.09524e-05
-0.0296567
0.298834
-0.00838852
5.9292e-05
-0.00489008
-2.92917e-05
0.107592
-0.000535951
-0.00010878
-0.000135948
-2.64825e-05
0.246825
-0.000247538
0.276259
-0.0801898
0.00013612
-0.0680406
-0.000727782
0.188505
0.538304
-0.0020117
2.43215e-06
1.01792e-05
-4.05682e-05
0.172614
3.99691e-07
0.00145329
-0.032899
0.26235
3.97551e-06
1.0689e-05
3.09053e-06
2.66808e-05
-0.027901
1.52915e-06
0.304672
-0.0217297
-0.000193424
3.33933e-05
-0.0029207
-0.0386484
1.46998e-06
-9.30447e-05
0.198488
3.76635e-05
-0.0426364
-0.0605803
0.000166036
6.20667e-07
-0.137065
1.22646e-06
0.198328
1.62366e-05
-0.000664393
9.31767e-06
-0.000269259
0.116469
3.71349e-07
-0.00233734
2.25788e-06
0.0187413
-0.00477134
-0.00892897
0.00123684
0.185206
-0.00042014
-0.000134613
-0.0122877
-0.0118651
-0.000368809
-0.000105523
-0.00129406
4.15364e-05
0.212836
-0.0141067
0.530891
-6.13814e-06
-0.0105918
-0.000258808
0.166262
6.37236e-05
-0.0353441
2.52486e-05
-0.00224996
-0.0445349
-0.00035149
-0.0214131
-0.065201
0.00716316
-2.9778e-05
-0.0717116
-0.000498056
-0.000456936
-0.00771544
-0.0173433
0.00177957
-0.000102594
-0.000646319
-0.00131545
-0.00182294
7.08558e-06
-0.0017276
0.520986
0.000117908
-0.00458202
-0.0463842
-0.0949528
-0.0826527
-0.0631133
-0.029329
-0.000778848
-0.020087
9.03006e-05
-0.000134268
0.521964
-0.000150502
0.214894
-0.000665219
0.000531015
-0.00162163
-0.0722517
-0.000620171
0.000918802
-3.39427e-05
-0.000583655
-4.41635e-05
-0.00012995
-0.0203388
-0.000179855
-6.58364e-05
-0.000134288
0.00017128
-2.82717e-05
-0.0562053
0.272233
-1.98017e-05
-0.000879355
6.67975e-06
3.32911e-05
-0.00120411
7.08353e-06
-0.00130142
0.000367337
-0.000545393
-0.0836997
-0.00100461
-0.00258978
2.54404e-06
-0.00221141
0.000445812
-2.6498e-05
-2.09677e-05
1.35467e-05
-0.00114939
0.000727747
-0.0584064
-0.0359715
-0.0844353
0.000796769
-0.0026011
-0.00996329
-0.0850748
-0.000149134
0.0221144
0.00963379
-0.00150075
-0.0161021
-0.0731577
0.4755
-0.000620777
-2.87562e-05
0.00121183
5.39681e-05
1.78564e-05
0.0948939
0.00513126
0.108925
-0.046869
0.462902
-0.000766963
9.44263e-08
0.000188786
-3.65631e-05
-0.00194076
0.187587
0.256174
-1.64446e-05
-0.000267213
-3.99518e-05
0.243563
0.0269099
-0.00738128
1.20018e-05
2.05412e-05
0.01009
-0.00100986
-0.0929144
-0.02253
1.76872e-05
0.00487337
-0.0410412
-9.93679e-05
0.00250556
-0.000118707
-0.0602054
-0.00245796
0.178208
1.6992e-05
0.00232357
-9.37566e-05
1.36633e-05
0.000216858
-0.0307463
1.39605e-05
-0.00131321
1.90774e-05
-0.0264588
-0.0596233
-0.00422254
-0.00929544
-0.01174
0.0126354
-0.0118728
-0.00345225
7.79729e-05
0.00012289
1.78383e-05
1.59773e-05
-9.24884e-05
0.0126159
-0.0744461
0.00066296
-0.0548766
-0.00429944
-0.0640217
0.000104292
-1.89443e-05
0.00180438
-0.0502006
1.70025e-05
-0.0549943
-0.019734
0.0406235
-0.0545133
2.68602e-05
-0.00479713
0.000245686
-0.11855
0.161193
1.1181e-06
-0.0774343
-0.029404
-0.00588043
3.76127e-05
-1.82148e-05
0.0391215
-0.0222881
1.9262e-05
-0.00929172
-2.68132e-05
0.000274649
0.150804
-1.66253e-05
-1.42299e-05
-0.000151101
3.45778e-05
0.00123049
0.000105741
-0.00722361
0.000298696
-0.016907
0.00151849
-0.000323064
-0.0415199
-0.0560453
-0.00856825
-2.68146e-05
1.98883e-05
-0.0757852
0.00799381
-0.0620694
2.29671e-05
-0.00707389
-6.05083e-05
2.22706e-05
0.0955767
-0.00955638
-0.00386594
-1.8189e-05
-0.0235239
5.48412e-05
-0.0868365
2.39757e-05
-0.0977712
6.51872e-06
-1.25142e-05
0.000101434
0.00140268
-0.0809642
-0.0241488
-0.0897349
8.20312e-06
0.000109254
-0.100134
-0.0313532
-0.0114391
-1.34536e-05
-0.0278277
-0.064957
-0.100091
-9.81681e-06
-1.8223e-05
-1.7544e-05
-0.0835641
-0.0866741
0.000980763
-0.0148922
-9.93304e-05
0.262026
0.000114052
4.19859e-06
0.00018737
-3.81374e-05
-2.03686e-05
-0.00498859
0.00013268
-0.00355491
-0.0831951
-0.0175594
-0.0752754
3.64198e-05
-8.37649e-05
0.0709252
-0.0590922
-0.00650151
0.137417
-2.25502e-05
-2.89662e-05
-2.63164e-05
0.147356
0.000217904
-3.57139e-05
-1.967e-05
-0.0763193
-0.0206993
-1.17254e-05
7.50833e-05
-0.0124333
-0.00874018
0.000565401
0.258875
-0.0758108
0.000208661
0.662826
-5.65408e-05
-0.000995091
-0.0112817
-0.099599
-3.91989e-06
-2.50417e-05
2.19875e-05
0.00666532
-0.0416209
-0.000505739
-0.063984
-0.0104721
1.87759e-05
-9.56541e-06
-0.0136636
-0.00171724
-0.00299772
-0.0631514
-0.0592194
-0.0508297
0.0177979
-0.0354306
-0.000104414
0.000463796
0.0167879
0.000717969
-0.000148647
0.00103768
1.80833e-05
-0.000164054
-0.0162441
-2.1999e-05
-5.80154e-05
0.0517411
-0.0158032
-0.000265308
-9.13004e-05
-1.76503e-05
0.280287
-0.00895053
0.00106725
-0.0367515
0.000294756
0.000251465
0.00021581
-8.4038e-05
0.000643141
-0.0494039
0.0240953
-1.73082e-05
-0.000266929
-0.0540231
-0.0408916
0.0627518
-0.000713717
0.00253581
0.0243075
-1.09611e-05
6.36223e-05
-0.0601848
2.22573e-05
0.192784
-1.31726e-05
0.00579501
0.000209486
0.000284722
-0.0910683
-0.00987581
-0.0237066
-0.00332128
2.71057e-05
0.00922915
0.0780089
-0.0163901
-0.000212893
0.116401
0.18893
-9.60297e-07
-0.0677283
-0.000113222
-2.58939e-05
-7.40978e-05
-0.000819157
0.0267893
-3.48664e-05
0.000316455
-0.0326916
-0.0339447
-0.0292479
0.34495
1.71083e-06
-0.000113558
0.19811
-0.00510529
-0.00518849
-0.000939325
0.195432
3.74393e-05
-0.000475318
3.40301e-05
9.14683e-06
3.24277e-05
3.69907e-05
8.71502e-05
-0.0236163
-5.13247e-06
-0.00454625
-0.0581958
0.27562
-0.000237442
-8.19377e-05
0.00649848
0.105269
-0.0588463
-0.00107605
-0.0914915
0.343729
4.65195e-05
0.438408
-1.18099e-05
0.0046144
0.0328803
0.000578101
0.471233
-5.19702e-05
-1.38376e-05
0.00158451
3.09832e-05
-0.00122883
0.000338306
-2.24321e-06
-0.00272206
-1.58976e-05
-0.000228717
-0.0045399
0.275109
0.0687518
0.0297817
-0.0573261
-1.14917e-05
-4.17726e-05
0.00470763
-0.0705366
-2.414e-05
-0.0610997
-9.03691e-05
0.126795
0.0786287
-0.0432374
-0.0018918
-0.0158711
-0.00139381
-0.0198259
0.00572597
-0.00985499
0.0824493
7.76417e-07
0.283599
0.0556085
-0.000851786
0.244139
-0.0178439
-2.21371e-05
1.15562e-05
7.67913e-05
-0.000315929
-0.000199154
0.277681
-0.00138709
0.284915
-0.00151187
0.193316
0.256279
0.150649
-0.00950315
-1.92086e-05
5.44185e-05
-0.0142715
-0.135226
-0.063511
0.00204756
8.68476e-07
-0.0502468
-0.000477911
-2.59813e-05
0.00137843
-0.00150731
-0.000928927
0.0440652
8.85131e-05
-0.0635683
0.076407
6.57234e-05
0.00034388
-0.0189071
-0.0752817
-0.00104516
-0.000751787
-3.81545e-06
0.00031727
0.119992
-0.0226194
-0.0627508
0.00179241
0.13055
-0.0512247
2.64874e-05
1.36181e-05
0.0367062
-0.000162482
0.113191
0.00275641
-0.0182237
-0.000566246
0.00223519
-0.0475876
-8.53071e-05
0.000654002
0.00498934
-0.09727
0.187553
-0.0818803
-0.0358033
-0.000269592
-7.50698e-05
0.00921881
4.60587e-05
-0.0978798
-0.0864791
0.000754536
0.00472209
0.00520907
-0.11523
0.000858014
0.000234091
2.66794e-05
-0.0545366
2.44589e-05
0.000748941
0.147172
0.209305
-0.127354
0.0635775
0.0631004
0.0342832
-0.000262197
0.0167845
0.000150265
9.40586e-06
-0.000141117
-3.06337e-06
-2.34671e-06
-0.000525896
-0.0103467
-0.0612985
-0.0131636
-0.0380563
0.0690958
0.0576807
0.00562014
-0.0836689
0.000192243
0.00647797
0.0156194
-0.000570945
0.0981051
-0.00172673
-0.0147216
0.0167851
0.00756283
0.00142553
-0.00552636
0.0586175
0.00111582
-0.0263864
-0.0220601
0.551065
-0.0329752
0.104521
0.0406306
-0.0489691
0.00302631
0.000108968
-0.00355878
4.76477e-05
-0.00364285
-0.0337771
-0.00011556
-0.000104314
0.31437
-0.00455458
-0.0555069
-0.0253101
0.000247009
-0.00196657
-4.60709e-05
-1.06471e-07
0.0528588
3.86323e-05
-0.00406333
0.099395
0.0087039
0.00152936
0.0254512
-0.00785561
0.00575422
-0.120926
0.00117497
-0.00608637
-0.074267
-0.00122547
-0.0109766
0.00101731
0.00148687
0.00134559
0.0516072
-0.000480246
0.00780515
-0.0718852
-0.0277233
0.000397588
-0.0713745
-0.0201417
-0.0231667
0.000109003
0.00910654
-0.0889813
-0.00119602
-0.00663865
-0.0661071
0.000426004
-0.00164812
0.256237
-0.028132
-6.75037e-05
0.011333
-0.0662977
-0.0014854
0.226142
-0.00300063
0.00138031
0.0759884
-0.00200347
0.0115087
0.153732
4.85996e-05
0.00159761
0.000218652
1.74167e-05
-0.00618469
-0.00967348
-0.000224182
-0.0323816
0.124135
-0.049732
-0.0924901
0.00158574
-0.00451137
-0.000882367
-0.0522608
5.35223e-06
0.0240844
2.475e-05
-0.0214833
-0.00271558
-0.00682852
-0.00483454
0.147652
-0.100223
-9.07756e-05
0.232953
-0.00271126
-0.00343893
-0.0785673
-0.104069
-0.0209772
-5.37796e-05
-0.00158028
0.00996942
-0.00427031
-0.00647889
0.000570326
0.110055
-0.0566506
-0.0150344
-0.00913129
0.0347068
-0.003032
-0.0011704
0.00233863
-7.83851e-05
-0.00426989
0.144192
0.00106922
-0.134622
-0.000118499
-0.0100211
-0.00489371
-0.112786
-0.0155205
-0.129945
-0.000106892
-0.000105615
-0.00510637
0.0146456
0.00251558
-0.147973
0.113061
-0.0641647
0.00023024
-0.163109
-2.74493e-05
-0.17024
-0.0340817
-0.179898
-0.177072
-0.16627
-0.122757
-0.0353045
-0.000727274
0.0312392
0.063476
0.0958173
0.188303
0.218493
0.246557
0.295385
-0.0109748
-0.00999567
0.0857231
-0.0227275
0.0012162
0.023825
-0.0538234
0.000697114
-0.00095774
-6.30704e-06
-0.0191216
0.0242791
4.50595e-05
-0.000476044
-0.014247
-0.00605561
-0.184422
-0.0166042
-0.0743447
-4.44675e-05
0.000760578
-8.37381e-05
-0.066769
-0.0118557
-0.0484232
-0.0131699
0.00236379
0.000273608
0.00648643
-5.41886e-05
-0.0102168
-5.89243e-05
0.00048359
-0.00756129
-0.0155794
-0.000409027
0.000422217
0.0630123
-0.0139361
0.0866276
-0.177661
-0.0101885
0.158612
-0.025152
0.00509548
-0.028762
-0.00448009
-0.0169317
-0.0168611
0.375762
-0.00181538
6.65237e-05
-0.00789991
-0.0120165
1.9462e-06
0.101331
-0.00553254
0.35341
-0.07144
-0.059028
-0.0356909
0.0638325
-0.00658559
-8.29008e-05
-1.31217e-05
-0.00571005
-0.0744245
5.0839e-05
0.381136
-0.00379615
-0.00673808
-0.000159149
-0.000555501
-0.00850892
0.127119
-0.0599325
0.146498
0.000850764
-0.0190895
-1.07483e-05
0.0362931
-0.010604
0.0263168
-0.0191833
-0.00738847