/*--------------------------------*- C++ -*----------------------------------*\
  =========                 |
  \\      /  F ield         | OpenFOAM: The Open Source CFD Toolbox
   \\    /   O peration     | Website:  https://openfoam.org
    \\  /    A nd           | Version:  7
     \\/     M anipulation  |
\*---------------------------------------------------------------------------*/
FoamFile
{
    version     2.0;
    format      ascii;
    class       volScalarField;
    location    "31";
    object      p;
}
// * * * * * * * * * * * * * * * * * * * * * * * * * * * * * * * * * * * * * //

dimensions      [0 2 -2 0 0 0 0];

internalField   nonuniform List<scalar> 
115545
(
-0.012011
-5.75641e-06
-0.0151766
-0.00380564
0.00149182
-0.000815355
0.37227
-0.0573975
-0.000184617
-6.1439e-06
-0.000216432
0.000266571
-0.0018223
-0.0587841
-0.000187067
-0.0575327
-1.98271e-05
-0.000285412
0.461282
0.00154826
-0.0595868
-0.00563204
-0.000327898
-0.00605245
0.676911
0.0570521
-0.0978966
0.023722
9.63626e-06
0.389121
-0.000107865
0.0984823
0.00511999
-0.0144478
0.681652
-0.00170728
0.364331
-1.68098e-05
-0.19225
0.251577
0.0989359
-0.000289592
-0.0205044
-0.00171102
-0.0525915
-0.0590482
0.00237765
0.00603468
-0.00082905
0.000254259
2.33393e-06
-0.00326665
0.111934
-3.00728e-06
-0.00313936
0.113611
0.0912829
-0.043193
-0.038095
-0.0134369
-1.35923e-06
-0.00625254
-0.000667963
-0.0188786
-4.02723e-05
0.00107001
-0.00151774
0.0652468
-0.108041
0.0832255
0.242294
0.00303092
0.24781
-0.0381337
-0.0293816
-0.027399
-0.0254114
-0.000808559
0.440701
0.0269171
0.0279096
-4.2275e-05
-0.108986
0.0233188
-0.00324215
0.000260317
-0.0203098
4.6421e-07
-0.0280538
1.1795e-05
-0.129535
-0.0117254
8.99834e-06
-0.00126648
-0.000361958
0.000472123
-0.000328584
-0.109139
-0.106349
-0.0279788
-2.06861e-06
0.0294846
-0.000409313
0.00275672
0.245138
-0.0575932
0.275096
-0.0599165
-0.0165865
2.18643e-05
0.0186413
-0.000326143
-0.0235194
-0.0104326
0.872094
-0.00330399
-0.000216298
0.211105
5.9849e-05
0.00375908
0.213577
-0.0604954
-0.0150839
-0.0194278
-9.27148e-07
0.387828
-0.00612372
0.66327
-0.00152147
0.0495267
-0.0197319
0.000354339
0.159208
0.000260105
5.97901e-05
0.462076
0.640384
0.00490449
-0.00300358
-0.00619103
0.0673976
-0.00247592
0.000116424
0.116403
-0.0179189
2.89264e-06
0.00799059
-0.00624484
0.0664801
0.000784965
-0.0563847
-0.0546563
-0.0116363
-1.09998e-06
-0.00319718
0.00748086
2.34247e-05
-0.0013866
-0.0258422
-0.0838484
-0.0268149
0.00794023
-0.000654756
-0.0370394
-0.0110367
-0.000740245
0.0323179
-0.0228826
-0.00191744
-0.0119846
-0.0128331
0.00268177
-0.155338
-0.0597977
-0.0325142
0.0624961
-0.0599779
-0.00227204
0.00358549
-0.000813435
0.0141376
-0.0289451
0.480792
0.120011
0.276618
-0.000234407
-0.00404757
0.151725
0.0164618
-0.129634
-0.00224672
-0.00225177
0.514469
-0.0256837
0.0597943
-0.0772428
-0.0601004
-0.0108015
-0.0269214
-0.0160756
0.130747
0.39015
0.017193
3.56524e-06
-0.00395901
-0.032428
-0.000560908
-3.77575e-05
0.0461044
-0.0385244
-0.0592462
0.27254
0.673343
1.30881e-05
-0.0129295
-0.0260193
0.0178428
0.003326
-0.0599274
-6.71397e-05
-0.0352612
-0.0234502
-0.00167873
-0.0261898
-3.24487e-06
0.571097
-0.00153584
-0.0280797
-0.0757961
0.595267
0.0274434
-0.0391203
0.107692
-0.0258971
-0.0217182
0.131838
0.000536437
-0.000987265
-0.0252605
-0.00329308
-0.114434
-0.0108151
-0.084423
-0.111235
-0.00161213
0.000691274
0.0820511
-0.0274888
-0.0224675
-0.0560968
0.530374
-0.00124502
0.112897
-0.000164502
0.679624
0.0145437
-0.0460264
0.0247449
0.000395149
-0.0598154
0.0148159
-0.0593772
0.120938
-0.199561
-0.0173153
-0.00371295
-0.0172681
-0.00152626
-0.0106797
-0.0416713
-4.51838e-05
0.0173988
-0.00068026
-0.0106621
-0.00148043
-0.0212516
-0.0458091
-0.0320744
-0.00416237
-0.0604141
-0.038252
-0.00159075
3.51974e-05
-0.0311317
0.000146027
0.0113134
0.562828
0.105641
-0.0988969
-0.182813
-0.0462058
4.65562e-06
-0.0405567
0.268392
2.19805e-05
0.0196024
-0.00133724
0.0932196
-0.000321425
-0.0430218
-0.0598127
-0.030938
-0.144589
-0.00711711
-0.0400119
0.0382112
-0.0176753
-0.027638
-0.209804
0.00374918
-0.0026583
0.208002
0.145007
-0.025232
-0.00196171
-0.000134043
0.514569
0.000643964
-0.00584164
-0.052848
-0.008854
-6.05585e-05
0.0166654
0.867148
0.0490258
-0.025889
0.00783107
0.0899802
-0.0607976
-0.0415059
-0.00266937
4.92399e-06
-0.000221821
-0.00130053
0.81097
-0.00357549
0.00373816
-4.05406e-05
-0.000820984
-0.00402426
-0.0143393
0.0597853
-0.10605
-0.01839
-0.0100079
0.00150999
-0.00440539
0.69497
-0.0323376
-0.00351976
0.161168
0.15982
0.014718
-0.00285951
-0.016931
-0.00345883
-0.0112746
2.06132e-06
-0.000561217
0.00494987
0.128668
-0.0441147
0.369245
0.814262
-0.0248401
2.22707e-06
-0.0141374
-0.0199732
-0.00152902
3.85899e-06
-0.0889262
-0.029027
-0.0274572
-0.000462899
-0.000983663
0.00358895
-0.000374422
0.000249024
-0.00116462
0.00651335
-0.0392748
-0.0155414
-0.0103827
0.00446248
0.0114657
-9.7217e-05
0.100685
-0.0572316
0.0015746
-0.0463399
0.0963655
0.21465
-0.0205739
0.0238301
-0.0230334
-0.00178546
-0.206319
0.000624716
-0.000664649
-0.0188636
-0.0293765
-0.00188348
0.297204
0.239391
-0.210583
-0.0333985
6.05263e-05
-0.0071641
0.0141642
-0.00693585
-0.010689
-0.00269538
0.00159348
-0.00342752
-0.00332068
-0.00401122
-0.000545696
-0.142491
9.32204e-05
0.0113211
-4.81794e-07
-0.0601853
0.00035272
0.393702
0.15123
0.169443
-0.0335125
0.185926
0.0897628
-0.0019427
0.00172537
-7.93269e-05
-0.00446961
-0.0272303
-0.0070788
-0.00740486
-0.00883018
0.000348393
-0.000114874
0.00024225
-0.000834538
0.0505036
-0.010519
-0.0195559
0.000135092
-0.0877336
0.000678535
-9.89399e-05
0.212277
0.0615898
0.296705
9.92933e-05
0.000193598
0.00176743
-0.0224822
-0.00602373
-0.0832445
-0.0271381
0.119367
-0.00837236
0.29846
0.000712501
0.0015077
0.356825
0.202754
-0.0611231
0.0025632
-0.0592945
-0.00833875
0.000100148
0.0112187
-0.0569991
-0.0261613
-0.0386076
-0.0105149
0.0489348
8.82369e-08
0.00261004
0.0289697
0.0300827
0.413668
1.10626e-06
-3.90747e-05
0.00185886
-0.0264656
-0.000464261
2.0456e-05
-0.00287614
0.726677
-0.0423809
0.274788
-0.0181577
0.552909
0.124993
-0.00341048
-0.0910951
-0.0519592
-0.0100659
-0.000967397
-0.00435043
-0.00123841
0.450705
-0.0253812
0.33829
-0.0188424
0.167396
-0.0191544
-0.0139868
-0.112264
0.135633
-0.00273054
-0.000144018
-0.000237608
-1.39838e-05
-0.0104395
-0.0518223
0.000341109
0.012699
-0.000160872
-0.000163751
0.00214041
-0.0172918
0.000790098
-0.000116694
-0.0210607
-0.0045585
-0.0044839
0.477117
-0.0574354
0.00644989
-0.0127547
-0.0354691
-0.000536375
5.81625e-05
1.07987e-06
-0.0336055
-0.0514491
-0.0312805
5.6985e-05
-0.0145462
0.0619736
-0.115628
-0.0237765
-3.98477e-05
-0.0270443
-0.0162594
0.000183869
1.76168e-05
-0.026485
0.00180311
-1.60455e-05
-0.0712655
0.000548742
-0.0554289
-0.0213244
-0.0180968
-0.0180795
0.000124158
-0.0381947
0.000387947
5.71112e-05
0.00445865
0.25188
0.589623
0.212641
-0.0118343
-0.0124428
0.235524
0.0144559
0.000341268
0.0398542
-0.0150981
-0.0162198
-0.00426979
0.0625983
0.00106386
0.209837
0.000652223
-0.00578758
-0.0190633
0.260491
0.000382427
-0.025241
-0.0817853
0.11617
-0.0261421
-0.00570678
-0.0915293
0.000132231
-0.210329
-0.00481544
0.0201062
-0.0222252
0.00280688
-0.0177752
0.242931
0.570511
0.186096
0.171837
-0.0438293
0.066876
0.0148783
0.24479
0.301708
-0.000230311
-0.0015351
0.586336
7.11266e-05
-0.20261
-0.108195
-0.0194152
0.000949929
0.0303123
-0.00130072
0.00174105
0.454866
0.671557
-0.000120866
0.000397691
-0.00201769
-2.66177e-05
-0.144892
0.209107
0.136869
2.39432e-05
-0.0389442
-0.031667
0.000690135
-0.0029606
0.0809037
0.658159
-9.69865e-05
1.26011e-06
0.242064
-0.00329426
-0.000124791
0.0352485
0.0042583
-0.00348572
-0.00198319
-0.186062
-0.0160697
-0.0012719
-0.0291785
0.000409185
-8.76752e-05
-0.00304963
-0.0290229
-0.000183524
-0.0211067
0.000807622
-0.0251317
0.26372
1.11726e-05
0.864334
-0.0413146
0.55244
-0.0259864
-0.000433035
1.37297e-05
-0.000322573
-0.00603346
0.120839
-0.00265152
-0.014052
0.459327
-0.0546698
-0.0549706
0.00780207
0.00644894
0.471758
-0.000375969
-0.0250304
-0.0197114
0.000318463
-0.0121424
0.000828473
-0.00951435
-0.0552855
0.739904
-0.0567083
-0.00211303
-0.0208797
-0.00291918
0.020705
0.0845868
-0.0154644
8.37109e-06
0.27163
-0.0133744
-0.0612128
-0.00261224
0.0041205
-0.0355287
0.00459079
-0.111156
-0.000753466
0.370618
-0.00602522
0.0833966
-0.037899
0.0294158
-2.36778e-07
-0.03486
-0.0211652
-0.0255194
0.0341178
-0.0718698
0.00041986
-0.151241
-0.0012672
2.85915e-05
-0.00254365
0.000365782
0.6675
0.000326947
0.391009
-0.0213058
0.0281215
0.0028811
0.0857903
0.0033439
0.16204
4.07075e-06
-0.0272365
-0.0017111
0.00127798
-0.02563
6.54074e-05
-0.0638003
0.586845
-0.102898
0.000341497
-0.104391
0.120164
0.476817
-0.000480766
-0.000233715
-0.000906835
0.00027751
0.601563
-0.0156212
-0.0314187
0.130591
0.000267379
-0.0993008
0.188457
-8.87614e-05
0.0170469
0.582114
-0.00197237
-0.000609451
0.000509226
0.00311502
-0.0189476
-0.00621772
0.32262
-0.00989417
0.746617
0.898875
-0.00256765
0.000162699
0.342366
-0.00343099
-0.0165874
0.000376891
0.14236
-0.0382035
0.716569
-0.00161228
4.52813e-05
-0.013471
-0.117777
-0.0389826
-0.00479327
0.0104793
0.122074
-0.000138928
-0.0991511
5.33033e-05
0.00160202
3.00528e-08
-0.203427
-0.0623311
0.210089
-1.45934e-05
0.571224
-0.00034421
-0.011647
-0.000500572
-0.0574543
-0.0127719
0.0642849
-0.000118393
-0.0382555
-0.00258527
-0.0130537
2.38872e-05
2.10597e-05
-0.000197725
-0.040904
0.00146952
-0.000931499
-0.0284774
0.000198915
0.000415107
-0.00112438
-0.000422462
0.233011
0.0604728
-0.130224
-0.0230493
-0.0541136
-1.16997e-06
-0.095364
-0.0564449
0.00048401
-0.031276
-0.00182033
-0.0327712
-0.157811
0.000639062
-0.0172671
2.97646e-05
-0.00568972
-0.000316663
0.232463
-0.00770547
0.000253694
-0.000131513
0.0281718
-0.0451208
-0.00341201
6.97047e-05
0.326325
0.385406
0.00136817
-0.00855332
-0.111737
-0.0558321
0.000170307
-1.57119e-06
0.247685
-0.0315876
0.000207152
-0.0182023
-0.000733297
-2.2087e-06
0.0503635
-0.0759218
-0.0564375
-0.0582638
-0.0221252
-0.00657153
-0.01611
-0.000707935
0.158229
-9.81917e-05
-0.0323824
0.0350756
1.42394e-06
-0.104451
-0.0114873
0.142825
-0.00098683
-0.00956003
0.465544
0.0471701
-0.044374
-0.0200909
0.244258
-0.000120015
-0.0124134
-0.0371039
0.206397
-0.00100388
-0.000284474
-0.136631
-0.00974842
-0.0128259
0.796733
-0.00642079
-1.83485e-06
-0.197269
0.0022124
0.0051818
0.161712
-0.16902
-0.0515085
-0.00208308
0.143976
-0.0207691
0.0512311
-0.00564784
0.11736
0.085033
-0.0259807
0.112611
0.183115
-0.000315228
0.0449789
0.671241
-0.133742
0.000465427
-0.0558234
0.146028
-0.0177576
0.0301131
0.239982
-0.00407262
-0.0019565
-0.00529144
-0.00402353
-0.0512055
0.0204188
0.000410457
0.477135
0.739966
-0.0325128
-0.00165981
-0.0432665
-0.0371856
-0.0386043
0.252567
0.27987
-0.00209846
-0.0298745
-0.037185
-0.000910059
0.0448863
-0.0575283
-0.00280091
0.0360334
0.000353285
0.163541
-0.118915
0.125979
-0.0595601
-0.201898
0.433771
-0.00121299
-0.0475787
-0.0965534
-0.000125705
-0.0211052
-0.0963939
-0.165915
-0.0644064
-0.00470608
-0.0128704
-3.28323e-05
-0.182233
-0.000283564
-0.0153305
-0.0603777
0.160924
-0.0543137
-0.0567983
-0.00926083
0.00164339
0.207372
-0.0447699
-8.82225e-06
-0.00261422
-0.000659274
-0.0122026
-0.0201187
-0.00149048
0.0513562
-0.19797
0.00220062
-0.0331331
-0.0115198
0.0404008
0.00157495
0.00298813
-0.00354766
0.831483
-0.0328003
2.59083e-06
-0.00275219
-0.000295411
0.276774
-0.0132841
1.94716e-07
-0.00969603
-0.00186479
-0.0625537
0.126311
0.0486282
-0.10129
-0.0222737
0.000977335
0.480557
-0.025264
0.0933732
-0.00586722
-0.114435
0.00858745
0.0030848
-0.000113515
-0.0117199
-0.000135254
-0.0655122
-0.000921837
-0.143222
4.58828e-05
0.000253767
6.06401e-05
-0.00268983
0.000146054
0.127658
-0.0206447
0.450462
-0.00973996
0.0881458
-0.152566
-0.00104845
0.443085
-0.0393252
-0.02007
0.913412
-0.000465424
-0.00921046
-0.18169
0.0310326
6.18723e-05
-0.0186924
0.00579052
-0.0474612
-0.0250387
0.58126
0.00222123
-0.184452
0.125672
-0.161081
0.00382792
0.00166914
-6.60234e-07
-0.000104692
-0.00158868
0.0136985
-0.000364232
-0.00321062
-0.00227875
0.479068
0.390113
-0.061833
0.000124382
-0.0907267
0.0476503
-0.123134
0.000125773
-0.104504
-0.0399078
8.49356e-05
-0.00507685
0.0377001
-0.0273305
-0.000756386
-0.0524797
0.818084
-0.0856621
0.000348107
-0.0581712
0.0316865
0.000489704
0.000109334
-0.181406
-0.00151087
-0.169331
2.21969e-05
-0.00896314
-0.039561
0.693174
-0.0106679
0.00454989
-0.0195478
-0.000150529
0.124247
-0.00030788
0.0254941
0.141616
-3.04722e-05
0.0351568
0.00187223
0.724153
0.908063
0.0133254
0.633501
0.477654
-0.0976754
-0.0385191
0.000263496
-0.0129566
-0.0414433
-0.00150735
-0.000120945
-0.00211985
-0.000579276
-2.67231e-05
-0.0126328
-0.000539473
-0.0323676
-0.0743848
-9.59871e-06
-0.000170665
-0.153859
-9.94087e-06
-1.53118e-05
0.122288
-0.0171077
-0.0384747
-0.000896203
-0.0580109
0.013667
-0.0384219
-0.00332418
0.00379826
0.160133
0.037508
-0.0392412
0.000414209
0.000600203
9.27249e-06
-0.0244267
0.356976
0.00887865
1.65455e-05
-0.18077
0.000138216
7.47639e-06
0.11188
0.00067425
0.676689
-0.0016395
0.246148
-0.00811773
0.00375637
-0.00917178
-0.000134952
0.157021
-0.000682681
0.00160514
0.610912
0.581913
0.849575
-0.00224253
-0.184013
-0.00810597
3.22727e-05
-0.0378117
-0.00501884
0.24304
0.230008
0.00250295
-0.119926
9.21735e-05
0.0431267
-0.00079476
-0.0105099
0.00500201
-0.00192196
-0.00408053
-0.0166521
-0.00309025
-0.0138868
0.125841
0.00205859
0.156188
-0.0263405
-0.187661
-0.00657718
0.0364338
-0.0206795
0.837812
0.383086
0.0132616
-0.0191436
5.46471e-05
-0.000657623
-0.0244985
-0.0551214
-0.0404641
0.0359812
0.232058
-0.137312
0.068177
-0.000220441
0.00878129
-0.00567911
0.219702
-0.0580787
-2.96711e-05
0.149967
-2.47787e-05
-8.41097e-05
-1.46156e-05
1.256e-06
1.04721e-06
0.223755
0.00318192
-0.0286494
-0.00112118
-0.212731
-0.0423392
0.414947
0.00212967
-0.000869473
-0.00277468
-1.46362e-05
-0.000656709
-0.0938144
0.0108476
0.150989
-0.00552259
0.126123
-0.0200233
0.00737249
0.0230813
0.000654266
0.595113
7.48037e-05
-0.00339514
-0.000612911
-0.0194053
-0.00906388
0.181851
-0.00350103
4.7776e-05
-0.0993968
-0.0049226
0.253182
2.42578e-05
8.6477e-05
6.25725e-05
-0.0339579
-0.00244156
-0.0243364
-0.0562167
0.0939572
0.415156
-0.00149818
0.000135882
0.000574714
-0.00115442
0.0885055
-0.0555891
-0.00305061
0.0352591
-0.209551
0.00067838
-0.0992423
-0.00261272
0.00239338
-0.041821
-0.000343146
0.0180912
0.235038
0.373129
0.167391
-0.000138205
-0.182874
7.15767e-05
-0.0303073
-0.0309319
0.0555695
-0.00904866
-0.140504
-0.027606
-0.0374812
-0.0047639
-0.00901113
-0.0277903
-0.126962
5.77833e-05
0.0815566
-0.000493482
0.258752
0.0483503
-0.00379835
0.000136195
0.000709592
-0.0173059
3.95457e-05
0.0931909
-0.00901215
-0.118098
-0.0792943
0.0550992
0.476684
-0.0124072
-0.0275881
0.139081
0.0208088
-0.000964406
0.0031179
0.854915
0.00163299
-0.000658684
-0.150638
-0.0126582
-0.0265644
-0.00352881
0.223881
0.000177559
0.110133
0.482614
3.38791e-06
-0.0128799
0.000104237
0.0865103
-0.0116294
0.00708366
-0.00615384
-0.0131317
-0.0261503
-1.27582e-05
-0.00191008
-0.0135836
0.00895568
-0.00350292
2.86998e-05
-0.00211822
-0.0309525
-0.0571704
-0.0054218
2.65607e-05
0.0164038
-0.000965859
0.000705323
0.0276074
0.160652
-0.017856
-0.0280158
0.056574
-0.000692888
-0.000147574
-0.0320362
-0.000393645
-0.000543329
-0.0164966
-0.0126183
-0.000314788
-0.00655141
-0.00203498
0.0207752
0.000146167
-0.000321367
0.000102585
0.0894878
-0.000968411
-0.00336998
0.0191824
-1.31805e-06
0.000116964
-8.21602e-05
0.220789
-0.00116128
-0.00574884
-4.13462e-05
-0.116657
0.130345
-0.00324507
-0.129656
9.09529e-06
-6.53512e-06
0.00801797
2.64966e-05
-0.000120273
0.443626
0.00354719
-0.00198316
-0.0593167
5.1431e-05
0.000676531
-0.0106713
-0.00148052
-0.000773038
0.57085
-0.000177517
-0.0586734
0.216181
-0.000113473
-0.0281026
-0.000395379
-0.0284132
-0.0406715
0.0239624
-0.00690394
-0.000429811
-0.00644896
-0.108935
-0.0029961
-0.0172607
0.000893166
-0.000627034
-4.3428e-05
-0.000171557
-0.0669453
-0.024577
0.104287
0.00241661
-0.0128484
0.819591
0.11562
-0.0554636
-0.0001631
-0.0257714
-0.031966
0.0445917
-0.0515514
-0.0904448
0.0872064
0.0977941
-0.01795
-0.0507471
0.382571
-0.058355
0.000240075
-0.0582916
-0.0595397
-0.00764337
0.00647714
-0.0205478
-0.00149421
0.0192568
-0.0346355
0.35993
-0.0475574
0.366721
-0.0359639
-0.00052233
0.00263401
-0.000145341
6.59691e-05
1.4493e-05
0.16466
-2.30914e-05
-0.0262696
-0.000402087
0.00831879
-0.0399275
-0.000301888
-0.0137544
-0.0280835
-9.9449e-05
0.163208
0.00484622
-0.000792064
-0.0263843
0.0711847
-5.13024e-07
0.0466308
0.000705136
0.0947889
-0.0416221
-0.0369573
-0.0273497
-0.000781084
-0.000562575
0.117723
0.220684
0.217765
-0.00520153
-0.0301807
0.356133
0.0429505
0.00675685
-1.11059e-06
0.113952
0.0191255
-0.000376831
-0.0963509
0.440298
-0.0202154
0.000621143
0.723631
-9.80422e-05
-0.00779567
0.0868307
0.230905
0.0909532
0.0921443
0.509176
0.187935
-0.00017618
-0.000495229
-0.00089378
-0.000770254
0.0979384
-0.0257333
0.341452
-0.018295
-0.00656252
-0.017784
-0.0878825
0.000533853
0.000744837
-0.000486932
-0.033609
-0.00132392
0.00544922
3.45988e-05
5.89809e-05
0.000106351
9.50943e-06
0.000603937
-0.111793
-0.00713474
-0.119951
-0.127213
0.789124
-0.0357773
-0.000330284
-0.00168445
-0.156964
-0.000756991
-0.000109275
-0.0131883
-0.00226239
-0.000542101
-0.00671283
0.0319956
-1.12014e-05
0.00265184
0.00249343
-0.000495091
-0.0002322
0.00285557
0.00158945
-0.0397898
0.0337789
-0.0592674
-0.0116043
-0.0148886
-0.0452127
-0.000973293
3.57689e-05
0.000190197
-0.00420937
0.159017
-0.128832
-0.00554324
-0.00953434
-0.102138
-0.000365696
0.481817
-0.0107332
0.0651398
0.000678762
-0.000457908
0.000144071
-0.0695238
-0.059921
0.460458
0.483167
0.116921
-0.0128698
-0.0310419
-2.28461e-05
4.2353e-05
-0.00765945
-0.125755
0.205163
-0.111911
-0.0308614
-0.034772
0.136507
-0.0176628
-0.154621
2.33181e-06
-0.0349074
0.162987
0.00327513
-1.11132e-06
-0.00775532
-0.00414352
0.215396
0.0604516
0.00199151
-0.0152082
0.827554
-0.0114762
1.98651e-07
2.77014e-05
0.00612913
-0.0129068
0.0858009
3.26151e-05
-0.0798238
0.00200522
0.000113102
0.558883
-0.00775422
0.0871467
-0.00839634
0.000700003
0.0113427
-0.077886
0.128101
-0.019212
-0.011888
0.560456
0.000599803
0.0239139
0.0704739
0.338243
-0.000967693
0.0737108
1.02303e-06
0.000521609
0.118228
-0.0108811
-0.00543936
0.0461336
9.66762e-05
0.206964
-0.0684783
1.3868e-05
-0.051407
-0.00186348
-0.00664684
-0.000183271
-3.69664e-05
-0.0339139
-0.100806
0.000668357
-0.00514604
0.00163516
0.0908396
0.417542
0.000209665
-0.00179055
-0.000353679
-0.036475
-0.000215524
0.00011014
-1.60899e-05
0.36234
-0.0115074
0.000740018
-0.0430004
-0.0266885
-0.0541025
0.408924
0.254324
0.223337
1.49781e-05
-0.1792
-0.0360448
-0.00814806
-0.0530015
-0.000986743
0.160606
-0.0154004
0.00702474
-0.000846823
0.013367
-0.0537036
0.0104472
3.50828e-06
0.0328513
-3.60981e-05
-0.000231132
-0.0617923
-0.00120929
-0.0332102
0.802626
-0.0105169
0.00127427
-0.00232787
0.140497
0.234479
0.470787
0.243499
-0.0559834
-0.00182302
-0.000605996
-0.0227422
-0.0294272
0.00202766
-5.53828e-05
-0.0623839
0.00145685
-0.0234766
-0.0094703
-4.73103e-06
-0.0935953
0.0128005
0.542058
0.124488
-5.74096e-06
0.0235993
0.000704629
-0.0517929
-0.0561143
-0.0118859
0.447349
-0.000405386
-0.0326757
-0.0208104
-0.000346473
0.000162515
-0.0272868
0.113478
-0.0377005
-0.0340058
0.00681605
-0.109661
-1.58704e-06
4.07028e-05
0.00445185
0.00352075
-0.0262717
-0.000597498
0.163954
-8.55129e-05
-6.57304e-07
-0.000660778
0.0027315
-0.0108798
-9.12815e-06
-0.0227179
0.0349304
0.139975
-0.00220758
0.283635
-0.0160946
0.142172
-0.00896273
0.00735903
0.000106771
0.013789
0.00641015
0.055618
0.672981
0.183722
-0.00959966
0.000244601
0.213914
-0.00831671
0.220294
2.97193e-06
0.00582815
0.0134255
0.504038
0.000248257
1.35335e-05
0.168611
0.477466
0.0996038
6.17845e-05
-0.176769
0.0628546
-0.0033229
-0.00103209
0.00120441
0.0235474
0.00745923
0.353196
-0.00173688
-0.0382958
-0.00291662
-0.00125164
-0.00126343
0.414048
0.0943788
-0.0113068
-0.000657727
0.0675867
-0.0801094
0.00319552
-0.0306633
0.000286567
-0.03076
0.0131604
-0.013517
-0.00231625
-0.0583726
-0.00810023
-3.60355e-06
-0.116692
-0.00282247
0.000159006
0.0090319
-0.001403
-0.00349238
0.0230409
-1.28145e-05
0.00884981
-0.0419893
0.260631
-0.000167895
0.731529
8.82409e-06
-0.00699778
0.00641863
-2.73979e-05
-0.00630318
-0.0018104
-0.055432
0.184874
-0.022489
-0.0660698
-0.0365869
0.300805
9.93245e-06
-0.137317
0.0377523
-0.025244
1.47251e-05
0.817669
0.00516551
0.00683675
-0.00372352
-0.00248725
-3.53911e-05
0.263419
-0.00527467
0.120173
0.000255101
-0.0424664
-0.000955508
-2.12806e-06
0.354133
-4.44899e-05
0.16006
0.612233
0.14443
-0.00770135
0.147722
0.126299
0.284435
0.350395
0.218505
0.552244
3.44195e-06
-0.0252541
0.14662
-0.00047613
0.109441
-0.0362118
-5.25304e-06
-0.000203653
-0.0272132
0.732893
-4.8979e-05
0.00475285
0.0910547
-0.000188362
0.000127228
0.00754426
-0.0248964
0.0076312
0.264824
0.714856
-0.0257706
0.361586
-0.034674
0.0327935
0.445808
-0.000131882
0.186331
-0.00610582
0.0220303
0.00156469
-0.119028
-0.0112207
-0.0443721
4.65095e-06
-0.0202702
1.75788e-05
0.158257
0.742086
-0.164363
0.000812554
-0.0453444
-0.0323222
-4.30456e-05
0.00588315
-0.0263183
0.00610407
-0.0294199
-0.0242483
-0.000525956
0.000246416
0.0414874
0.000225722
-0.0288294
1.90673e-05
0.10061
-0.00146639
-0.0322039
0.000222503
-0.00542584
-0.0355476
-0.0130238
-0.0486665
0.000717537
0.0621184
-0.0324222
-0.0585517
-0.000112355
0.0405381
0.0413349
-0.0804992
0.347989
-0.00659457
-0.0590101
0.00882276
-0.00461902
0.00467849
0.000103332
-0.163225
-0.0190105
-0.0032505
-0.000110425
-0.000696646
0.0842146
-3.73638e-07
-0.000458336
0.000128368
-1.55458e-05
-0.00177071
0.413813
0.858926
-0.000322947
-0.0100475
-1.56801e-05
-0.0535637
0.0028308
-0.00931823
0.0187766
-0.00139457
0.126228
0.00256156
-0.00133263
-0.00155763
-0.005296
-0.00183901
-0.000232025
0.304154
-0.00200371
0.724735
-0.0227109
1.12437e-05
0.0922586
-0.00067098
-0.0242927
0.158187
-0.0035382
-0.0227099
0.710842
-0.0323884
0.000446271
-0.0777573
0.0485635
-0.00663876
-0.0335543
-2.99106e-05
-0.0246208
0.000759609
0.490146
-0.013595
-0.025488
0.0193586
-0.00659468
-0.0152228
-0.0188648
-0.021645
0.141866
0.00109461
-0.12263
-0.00646711
-0.00193275
-0.000438373
0.00462515
-0.0353511
-0.00103707
-0.0764461
0.00533891
0.000824502
-0.0379656
-0.000265983
-0.000448433
-0.00141699
-4.47283e-05
-0.0572802
0.00116098
0.127424
4.36653e-05
-0.000450035
0.000106886
0.606473
-4.49746e-05
-0.0532507
0.000376331
0.145833
0.000412569
-0.00474782
0.00299202
0.00193369
-0.0136608
-0.0360793
-0.0345823
-0.0223408
-0.00582017
-0.000352695
0.090366
0.0298086
-0.0383297
-0.000914064
-0.216757
-0.035387
-0.000122077
-0.00764211
0.0455808
0.711589
0.360724
-0.00303532
-0.134221
-0.0114886
-0.000470038
-0.000188338
-0.0254154
-4.13443e-07
-0.101275
-0.0229848
-5.41363e-06
6.18952e-05
-0.0401102
0.0101393
-0.0313262
0.0415398
8.71389e-05
-0.0356586
0.0165586
-0.0323809
0.000219832
-0.0345546
-0.000385892
0.162472
-0.000520122
-0.0485411
-2.34019e-06
-0.00261871
-0.0274662
-0.143265
-0.0127356
-0.0292245
0.000179518
-0.0433499
-0.0113762
-0.0227301
-0.07231
0.00464235
0.0417598
0.741291
0.00286626
0.0177435
0.000400741
8.91608e-05
-0.000153054
-0.0394809
1.7515e-05
-0.00151607
-0.0318361
0.650788
0.670514
-0.000621214
0.212501
-0.00664312
0.000772974
-0.000956153
-0.0305998
-0.0377356
6.05752e-05
0.0207198
-0.0203884
-0.110844
-0.0590104
-0.0596041
-0.0230027
2.99398e-05
0.000862142
-0.00720653
0.168846
-0.0350876
-0.0447254
-0.0308312
0.657601
-0.0109291
0.139738
-3.61718e-05
-0.032359
-0.00451637
4.91141e-05
0.001037
-0.00230815
-0.00355577
-0.0594285
-0.00353131
0.0219284
0.413952
-0.00683254
2.58223e-06
2.33439e-05
-0.0262208
0.0336142
-0.0255697
-0.00899912
0.00114275
0.000547454
0.0995217
-2.80435e-05
-0.0209097
-0.000622646
-0.00694023
-0.00338896
-0.00366076
0.00977657
0.00820006
0.0056368
0.0268709
0.909625
-0.0740226
0.224455
0.0511791
-0.0420563
-0.0613979
0.00477147
-0.0420628
-0.0205541
0.127265
-0.0180448
0.000104861
-0.00559821
-4.48053e-07
-0.0518279
-0.00235503
-0.00181914
-0.00612352
0.132946
-0.00016758
-1.37539e-05
-0.0629348
-0.149421
1.28627e-05
3.19559e-05
0.00119587
-0.180833
-2.31848e-06
-0.0387835
-0.00122056
-0.0260401
-0.0253789
-0.0934941
-0.0157016
0.00592302
-0.0419139
0.000254331
-0.000685178
0.258709
-0.00692672
0.0145635
0.000101569
-0.0225196
-0.0227045
0.000123856
-0.0175987
-0.0214643
0.0028936
0.452298
-3.21933e-05
-0.146209
-0.000683995
-0.00113738
-0.000335081
-0.00345029
0.196435
0.00409625
-1.2836e-07
0.0671969
-0.0109679
-0.000397958
-0.123461
-0.00140545
0.0328378
-0.0597492
-0.000138625
-0.00135287
-0.0364016
-0.0253319
8.54669e-05
-0.16998
-0.0250957
0.00861418
-0.0382121
0.00927637
0.418233
-0.00734817
0.020518
0.117475
-0.000403466
-0.000315526
0.247492
8.85175e-06
0.889718
-0.0144368
-3.89912e-07
0.142455
0.18378
-0.208554
-0.00230563
-0.0305561
0.0341405
-0.00545149
0.0103252
8.25932e-08
-0.00712892
0.0396627
-0.0235292
-0.0173118
-0.00222729
-0.0422003
-0.0041595
-0.00250634
-0.000119638
0.0454293
0.693775
-0.0312658
-4.69204e-09
-9.01677e-06
0.00115056
-0.00120711
-0.168421
0.142528
-0.0427742
-0.0231081
-0.0978348
-0.107551
0.625921
6.88029e-05
0.00627572
0.00566313
-0.0451233
0.00170361
0.0660692
-0.00221495
-0.000682252
-0.00721886
-1.72732e-05
1.15928e-05
0.0313673
-0.0016469
0.157623
-3.18157e-05
0.0458822
-0.00863903
-0.0311521
-0.022668
-0.0255661
-0.0591558
0.00968001
2.40265e-06
0.0503965
-0.102825
-0.00983456
0.0913353
-0.0412356
-0.0170896
-0.0345582
-0.195779
0.0938441
-0.186501
0.0465705
0.000307536
-0.0228798
0.000201234
0.137806
0.0106612
-0.000162128
-4.62178e-06
0.0987022
-0.000734739
0.0408766
0.0971608
-0.164171
-2.59966e-05
-0.0196073
0.463106
0.0905792
-0.00575425
0.140118
0.00420888
0.0429236
0.000352849
-0.00144557
0.0139865
0.183364
-0.0366898
-0.000204085
-0.000675654
9.84457e-05
-0.0492101
-0.0401604
0.0458908
0.00343622
-0.0186554
-0.124855
-0.0401662
-0.0774653
-0.0408915
0.263414
0.0292378
-0.0797876
-0.00159414
1.30422e-05
-0.00892211
-0.101028
0.0017223
-0.000182055
0.117711
0.0708627
-0.0278159
0.103929
0.00358826
0.444778
-0.00120139
0.163263
-0.0877142
-0.00151905
1.62613e-06
0.0306778
-0.0264743
-0.000679451
-0.0116736
0.226924
0.229897
-0.0158253
0.440461
0.151581
-0.0265044
-0.0244989
-0.0545147
-0.00312515
0.137008
-0.0493471
-0.000242154
-1.37958e-06
-0.000666351
-0.0316317
-0.00482732
-0.0199572
-0.0727198
-0.11239
-0.000821027
0.481506
-0.013994
0.247452
0.748424
0.141454
-0.0601193
-4.1449e-06
-0.0253401
0.0015386
-0.00704981
0.419061
0.106611
0.0851377
0.614946
0.00583118
0.0355884
-0.0345943
4.38047e-05
0.20296
-0.0041185
-0.0564015
-0.0210812
0.00667843
3.18881e-05
-0.0787026
0.0466548
2.24174e-06
0.737752
0.0701235
-0.000285912
-0.000180016
-0.000921012
0.207477
0.0574347
-6.46717e-07
-0.0009365
9.53814e-05
-0.000148249
0.0013242
-0.000918286
-0.00683568
-0.00337613
-0.00181861
-0.00711358
-0.000336468
-0.000282252
0.0283528
-4.85443e-06
-1.61077e-06
-0.057462
-0.0418636
-0.00356917
0.358018
-0.0371625
-0.000541833
-0.00729843
-3.95702e-07
0.00338077
-0.0530128
-0.100584
-0.126165
-0.000249502
0.25762
-0.00419137
0.119991
0.0136993
-0.01961
-0.0200316
-0.00906548
5.71786e-05
0.00715943
-0.123128
0.000262071
-0.0379074
-0.0427702
1.04077e-05
0.806495
0.114406
-0.00100021
-0.0447132
-0.0170708
-0.0196712
-0.00945048
1.29937e-05
-0.0257443
-0.0156445
-8.21263e-07
0.0674623
1.56174e-05
-0.000816909
-0.0309421
-0.0595164
-0.00480529
-0.00601297
-1.44677e-06
-0.0472314
0.00163821
0.138387
-0.0262825
-4.89771e-06
-0.00495567
-0.00103295
-0.0658073
-0.150041
-0.093745
-0.00780986
-0.0533435
0.10179
0.000941976
-1.21949e-06
-0.00240107
-0.0304017
-0.0168453
0.594964
-0.0392759
0.865437
5.60561e-05
-0.0312593
-0.0591393
0.215058
0.445434
-0.00940955
-0.00133987
-0.0550845
1.15128e-05
0.647382
0.206897
0.0826547
-0.0326137
0.0508886
0.103271
0.574823
0.203445
0.155687
-0.0486345
-0.112308
0.23644
-0.0583519
-0.00100949
-0.0900288
0.0189163
0.000667777
-0.0228468
-0.000157575
0.00408024
-0.00342839
0.00182279
-0.0249802
0.000101827
-0.0253671
-0.111264
-0.048908
1.88758e-05
-0.00385544
-3.54522e-05
4.52573e-05
0.121221
-0.053976
-0.0127089
-0.000293514
0.00884411
4.7614e-06
-3.10912e-05
-0.000423413
-0.000210785
-0.121639
-0.039874
-0.00106928
0.0874471
-0.00137086
-0.0418576
0.0403511
-0.00809342
-0.00167038
7.01799e-05
0.00571172
-0.0321775
-0.00158313
4.78301e-05
0.00338664
-0.0724891
-0.0249458
0.0350009
0.000133197
-0.0252734
0.730621
0.000774584
0.000978133
0.0311555
-0.000389967
-0.00071708
1.9044e-06
-7.49486e-07
-5.45223e-05
0.0133437
-0.053655
0.523623
0.808041
-0.00024447
1.98827e-06
-0.000242915
-0.0567279
0.921471
-0.0485343
-0.0584418
-0.0339952
-3.48663e-05
0.000722875
-0.0457558
-0.00237866
-0.0603679
0.0101045
-0.0797282
-0.0513936
0.00117565
0.646363
-0.120593
0.000459619
-0.00143543
0.00515333
-0.0185088
-0.159021
-0.0548468
-0.00781982
0.321121
0.4771
0.123091
0.282509
0.0537139
-0.0643216
-0.00766599
0.00397868
0.000300925
-0.0272165
0.000376252
-3.85135e-06
-0.121657
-0.158136
-0.000528432
-0.0249855
-0.0585924
-0.0586609
0.468086
-0.0015378
-0.0249153
-0.0145677
-0.0322093
-0.0102257
0.0226943
0.00358728
-0.00354996
-0.0152429
-0.0137589
-0.0102436
-0.0276531
-0.00406593
-0.058391
0.236492
-0.0313564
-0.0138646
-0.00391011
0.113384
-0.105103
-0.0558162
-0.0904717
5.14037e-06
0.263133
0.0397242
-0.0385096
0.00162165
-0.0202475
-0.0134741
-0.00174074
-0.0422135
-0.0123867
-0.123552
-0.00586011
0.00164053
0.000100524
-0.000135134
0.0298435
-8.14401e-06
-0.0168799
-0.0337426
-0.0371137
-0.000149868
9.8154e-05
0.000218937
0.00151191
-0.0165659
0.0150489
-0.0479395
-0.0583034
-0.0571518
-0.00988608
-0.00223609
0.579135
-0.0101098
-0.00330857
0.280837
-0.0139124
0.298561
0.590953
-0.00895269
0.106527
-0.0123083
0.00768221
-0.00216187
-0.00156734
-0.00500476
-0.0317563
-0.160278
-0.0330237
0.00222265
0.0662867
-0.102312