/*--------------------------------*- C++ -*----------------------------------*\
  =========                 |
  \\      /  F ield         | OpenFOAM: The Open Source CFD Toolbox
   \\    /   O peration     | Website:  https://openfoam.org
    \\  /    A nd           | Version:  7
     \\/     M anipulation  |
\*---------------------------------------------------------------------------*/
FoamFile
{
    version     2.0;
    format      ascii;
    class       volScalarField;
    location    "7.5";
    object      p;
}
// * * * * * * * * * * * * * * * * * * * * * * * * * * * * * * * * * * * * * //

dimensions      [0 2 -2 0 0 0 0];

internalField   nonuniform List<scalar> 
7807
(
2.99818
2.45381
3.21836
2.99961
1.36039
0.365718
3.26651
1.77966
0.846694
2.58168
0.342094
1.5647
1.8875
2.3323
2.5961
2.06835
3.00537
1.97259
1.95005
2.34692
2.50643
1.4432
2.24478
2.88716
2.04103
3.00944
1.34006
2.40543
2.79055
1.98264
2.10684
3.34162
2.24619
1.13894
0.637643
2.50324
2.00723
3.24918
1.9045
0.944368
1.90766
2.05738
2.36626
2.55163
0.787821
0.563923
1.4277
1.88758
0.536287
2.3499
1.65962
2.38538
2.10186
2.25813
2.50301
1.76462
1.93266
1.77743
2.17513
1.13233
0.44079
1.72941
2.33136
1.58041
1.22047
2.10861
0.833382
0.0709227
2.77216
1.87143
0.546443
2.2948
2.02937
2.16121
1.96037
2.23967
3.2041
2.4937
2.63045
2.2901
1.87687
3.33222
2.62209
2.17069
1.59675
1.53824
1.80412
2.09098
1.37085
1.66587
2.80387
2.57593
0.718609
1.88519
1.67383
2.08995
2.29418
2.26248
1.596
1.29967
2.25737
2.64696
1.66296
0.220261
2.5945
2.82989
3.63481
1.77426
0.0201357
2.3424
2.97251
2.37648
0.0322033
2.36261
2.82761
1.2006
2.43579
2.72708
2.26515
2.17206
2.27699
3.31678
2.37311
2.05735
2.24897
1.4358
2.06311
1.92573
1.26435
2.09545
2.5418
2.61999
1.21677
1.38874
2.17907
2.95904
3.72818
0.24857
1.90784
2.36314
2.1433
2.30868
2.24288
2.16371
3.6156
2.31258
2.79682
2.18009
2.21563
3.30184
2.48398
2.57471
1.55237
2.74805
2.6158
3.19141
2.25903
1.88162
3.41083
0.504676
1.89534
2.90767
0.300326
1.77317
1.7036
3.05543
3.06055
3.387
1.76989
1.65417
0.0845213
2.17864
1.17972
2.4652
1.93039
2.18098
2.61513
2.83382
0.728796
1.21319
3.00692
0.487476
0.598405
3.25269
2.45498
2.34432
2.26066
2.14645
2.30662
2.38823
0.298547
2.28645
2.8467
1.66787
0.566724
2.89972
1.35941
2.08324
2.29268
0.0840607
1.52051
2.97234
2.8873
3.22376
2.43539
2.38174
2.44141
2.43525
2.9644
0.753384
0.411126
3.65681
2.04372
1.20649
2.28424
2.07449
3.14067
3.16144
2.30883
3.37467
1.33761
1.97094
2.2646
2.54322
2.37482
2.95577
3.44395
0.710545
2.05173
2.75263
1.84507
2.72147
1.38299
3.35733
3.19262
1.79874
1.9411
0.927966
2.8534
0.702311
1.98484
2.29477
0.554531
1.62933
1.3674
2.82281
0.337786
1.7031
2.28654
3.32919
2.60195
3.42477
0.402491
2.28873
0.996417
3.21523
1.71385
3.68566
1.97152
1.53408
2.37059
2.44733
1.18767
0.848972
1.19431
1.85972
2.35951
0.389169
2.25326
1.69163
0.730682
1.24236
3.46508
1.86129
1.19086
3.61603
1.62485
2.98692
0.987589
2.19273
0.115911
2.23438
2.5267
2.63215
2.17944
1.20082
2.33479
2.12777
0.828035
1.17414
1.70447
1.86445
1.62834
1.53968
2.16108
2.36781
2.15702
2.56322
2.21731
3.1387
3.15457
1.45125
2.61318
0.100021
1.75348
2.14595
2.87182
2.66119
0.665918
1.73487
2.20347
2.82654
1.42784
1.67656
1.43928
2.68751
2.5221
3.08878
1.45612
2.48144
0.711791
1.9382
0.470089
2.15706
0.971547
2.22624
2.59728
2.22388
2.19655
2.01834
1.15585
2.35851
2.11253
2.66231
2.82396
2.44418
2.53619
2.11844
1.84704
2.29048
3.3822
2.52677
2.39136
3.40879
1.4612
1.50337
2.55692
1.54999
2.30602
1.84362
1.63336
1.53109
2.78368
0.783916
1.1673
0.603159
1.67993
1.97162
0.123645
1.31698
2.16581
3.53559
2.2186
2.03194
3.4563
3.17195
2.61551
2.62457
2.22429
1.85983
3.025
1.97053
3.04617
2.31353
2.39087
2.88865
3.04507
2.24315
2.64332
2.95417
3.00486
2.43603
1.6566
1.74554
0.61857
2.28836
1.99222
1.57958
0.67218
1.46491
2.33268
2.73102
2.09658
2.01457
1.70567
2.46955
1.86495
1.89946
2.92006
1.47932
0.472923
0.827957
0.701348
2.13936
2.76943
1.75729
2.34099
2.37571
3.25606
1.9265
1.92543
1.79385
3.44
1.27138
3.0808
2.80757
0.683029
2.31112
1.66439
2.31422
1.15629
2.62408
2.13121
1.90314
1.24552
2.79954
2.83002
2.3427
2.17425
1.72155
2.26837
2.73639
3.4023
2.46361
1.96383
0.0349484
2.0347
1.55188
2.34119
2.36384
2.59307
3.32837
2.80142
2.45494
2.91633
3.49146
2.2688
1.58312
3.02923
1.53463
0.890226
2.00778
0.638749
2.43744
2.1264
2.23154
1.56673
2.90584
1.50777
0.431375
2.38361
1.53224
2.61978
2.25557
2.2732
2.68321
2.75442
2.65661
2.66773
0.84559
2.72331
2.68022
1.24009
2.0888
1.17982
2.21563
2.24236
1.76109
1.41879
2.84028
0.331105
0.887278
1.53239
2.13364
2.27462
2.20763
2.18985
2.35098
2.38888
2.36092
3.00822
2.61092
1.85001
3.36422
2.29862
1.98605
2.17771
2.1054
2.07685
1.96554
2.38376
2.52612
0.464411
2.33727
0.636222
3.16697
2.78696
1.76667
1.95735
0.810161
3.35706
3.0868
2.69717
2.87028
2.30416
3.93714
0.752857
2.46889
2.08757
2.84065
3.45648
2.71812
2.77795
2.01249
0.843161
2.84534
2.55715
3.37468
2.61369
2.9375
1.85854
3.2923
3.06653
1.93317
1.88592
2.81207
2.29807
0.800719
2.02607
2.29313
2.33481
2.00497
2.01106
0.873624
3.0848
1.99143
0.682224
2.36246
1.16434
0.857604
2.04742
2.93621
2.37691
3.47454
0.536769
2.93068
2.33262
0.847083
0.252634
2.78497
2.91959
1.73571
2.87704
0.368035
2.90081
2.43997
1.94409
3.61119
2.27693
2.85604
2.18161
2.89772
2.91514
2.08419
2.13689
1.96875
1.62394
0.916144
1.97837
3.0238
0.423071
2.8806
2.39047
3.19722
2.85768
2.30021
3.39566
1.49175
2.27818
2.42494
2.18296
1.84872
2.32742
2.52022
3.42146
0.456102
1.53196
2.36954
0.111391
3.16355
1.5202
0.128351
0.86613
1.04074
2.14705
2.32279
1.45972
0.587287
1.85812
2.05023
2.35944
2.3451
2.2623
0.201067
2.41198
2.01298
2.81387
3.24113
1.68459
2.81194
0.820162
2.00431
2.53992
1.85627
2.96382
2.02168
2.48082
2.5561
2.79977
2.11856
1.95611
2.87447
2.33673
3.21332
1.93534
2.99983
1.92911
1.34666
2.75768
2.28146
2.58667
1.50489
0.107709
2.36896
2.9123
1.68214
2.80193
2.00685
2.40551
2.43938
2.217
1.48465
1.87732
2.32332
2.18638
1.93909
1.07444
3.23288
2.79868
2.35274
0.877395
3.06862
0.298695
0.850857
2.80766
2.22973
2.87807
2.40547
2.23478
2.49101
2.39706
2.67406
1.42446
2.25017
0.514104
2.02348
2.94658
2.07163
1.62445
2.31409
1.52655
1.33816
3.43469
1.95157
1.25721
0.0390753
2.69866
2.21683
1.15581
1.60802
2.77601
2.66154
2.23994
0.20275
2.8196
2.12313
2.88699
2.09329
2.15377
2.19888
0.664913
2.54366
2.65118
2.70378
2.3988
3.02624
1.81455
2.86928
2.05581
2.35092
1.01968
2.13633
1.05691
2.8049
2.97111
1.47565
2.26121
2.08485
2.40712
2.39782
1.50163
2.45349
3.41932
2.67289
0.79701
2.64872
1.93306
4.63996
2.00136
2.18427
2.31548
2.18963
2.14052
1.8769
2.0506
1.84827
2.51082
0.677804
2.48136
2.61055
3.123
2.23252
2.88387
1.50553
2.44964
2.27168
2.90386
1.87392
0.858656
2.12584
1.9571
2.44701
2.1699
2.14345
2.56247
2.03782
2.30695
2.33916
0.131609
2.54606
2.33223
2.84827
2.48013
2.57909
2.38446
3.06336
2.39691
2.20576
2.32667
3.79483
2.47778
2.00999
2.38302
2.37778
2.39585
2.40533
2.85699
1.63089
3.00773
1.91546
1.17107
1.57643
2.61112
3.32339
1.86095
2.34553
2.8002
0.287717
2.12614
2.31527
2.50493
1.9141
1.57616
2.25123
1.91961
0.341257
2.27404
2.98138
2.31567
2.07306
1.47219
2.80157
1.21455
1.38202
1.00438
1.54487
2.71724
2.36521
2.16408
2.09222
0.555779
2.41626
2.5784
2.41098
2.23274
2.15534
0.854025
2.05544
2.289
2.68618
3.21466
1.66253
2.28649
1.77266
2.38857
2.82522
1.06798
0.917603
2.82605
2.65577
2.24857
1.65073
1.51337
2.28456
1.03436
2.30732
1.9988
3.11917
2.98042
2.44763
2.33666
1.85983
2.25799
2.62525
2.34376
2.33422
0.0981671
2.59958
2.18705
2.35198
2.30653
2.24881
1.08105
1.63724
2.86063
2.18937
0.0496683
1.61338
2.49198
0.770588
2.353
0.735129
2.0949
2.35683
2.43595
0.729614
0.354025
2.63454
2.35228
3.40054
2.98545
2.57548
1.52987
2.29206
0.872541
2.51764
2.4056
2.64793
2.06762
2.97457
2.25706
1.14711
2.24756
2.43145
1.47417
2.36998
2.28584
2.2502
2.19618
2.43832
2.28724
2.15216
2.45513
2.82069
2.38598
0.0161529
2.41083
2.28126
2.40071
2.1526
1.21815
2.31572
2.37345
2.31014
2.23475
2.79316
2.41446
2.16159
2.18435
2.39806
2.30301
2.49875
1.0268
2.69295
2.86869
1.78721
2.91759
2.38308
2.37875
2.35849
2.84839
2.57543
3.39601
0.112265
2.65924
2.80905
1.97426
1.36618
1.99595
2.58642
0.575667
2.03065
2.32669
2.05806
2.07662
0.731571
2.53523
1.16768
1.15895
2.94816
2.08227
2.75892
2.22239
2.86018
2.22596
1.32206
2.46581
2.12766
3.28204
1.28802
2.32151
1.16255
1.05688
2.19444
2.42641
0.504268
1.84608
2.32176
1.21694
0.398279
0.748048
2.70518
2.51071
2.00616
1.21767
2.05605
2.0037
2.0932
1.15082
3.08444
2.48006
2.89649
3.02719
0.755966
2.74326
2.70121
1.18265
1.02516
1.37881
2.55269
2.37088
2.28539
2.26468
2.32638
2.77457
2.42766
0.142424
2.04975
2.11891
2.19037
1.65477
1.98081
1.27511
2.23569
1.00872
1.19137
2.04307
1.66296
2.10793
0.147874
1.98267
2.30075
2.50193
2.45875
1.83035
1.9118
1.83259
1.69691
2.34318
1.83265
0.6586
1.19702
2.26558
1.9146
1.69301
2.01631
2.12309
2.3789
1.90839
2.71793
1.91993
2.26801
2.19044
2.08826
1.9864
1.61258
1.73994
1.60446
1.95368
1.98913
2.85207
2.77294
2.52087
3.21347
0.486824
1.83681
1.99131
1.8283
2.71704
2.0545
2.55427
1.87029
2.89153
1.48425
1.47807
2.42409
2.28503
0.941377
2.22829
1.71938
2.06083
0.276023
1.74638
1.47098
2.02682
2.45899
2.2138
2.03313
1.96152
2.15762
2.59118
1.47174
1.42402
1.43055
3.41763
1.00921
2.58805
2.07528
2.06309
2.11766
2.26269
2.13594
2.17386
2.05596
1.68873
0.62925
1.64462
2.13873
2.56157
1.34644
2.83518
2.16746
1.95761
1.16238
2.14063
0.618204
2.69577
2.15112
2.11908
2.10024
1.89924
2.18901
1.35881
2.20934
2.54926
2.1121
2.34812
1.30492
2.12224
2.04086
1.97354
1.59711
2.6739
1.47514
2.04676
1.26195
2.72762
2.20117
2.11828
1.56529
1.88113
1.5611
2.86249
2.51412
2.905
1.86096
1.34249
1.26262
1.52334
2.86998
2.27799
1.79971
0.904296
2.12975
2.32803
1.46689
2.26484
1.99772
2.35707
1.68663
2.18474
4.1064
2.27862
2.12832
2.26916
0.347046
2.45184
1.5986
2.13145
1.7439
2.18301
1.96887
1.13167
1.52859
1.53909
2.83781
1.71087
1.4167
1.68182
2.27866
1.82296
2.07426
1.89918
1.82534
1.80339
1.59041
2.85299
2.23172
1.58444
1.63864
2.1246
1.95859
2.24292
1.4621
2.53606
2.18284
1.82058
1.46892
1.97315
3.34968
2.84261
1.90488
1.04584
1.51566
2.33319
1.65754
2.14096
1.12665
2.24492
1.4157
2.00073
2.57769
1.4564
2.1261
1.30242
3.11985
1.82273
1.90798
2.54298
1.63039
2.13497
2.73736
3.32406
1.90178
1.92521
1.41956
1.25413
0.288154
0.0621655
1.88403
1.1748
2.75456
1.32611
1.40779
1.97566
0.838597
2.22478
2.34231
2.00352
2.24201
2.1233
2.70828
2.39316
2.52398
2.41269
2.52057
2.61299
1.938
1.25162
1.92738
2.35032
1.58696
1.98049
2.67704
3.0649
2.33406
1.0156
0.698955
1.29335
0.193277
2.18348
1.24191
1.89157
2.23651
1.02746
1.57477
0.834836
2.59701
1.98321
2.46349
1.50841
3.17177
2.99395
1.89829
2.4057
2.12943
2.10639
1.97715
1.45061
2.35529
2.32969
2.23021
2.55886
0.840744
2.8497
2.3476
1.84702
2.33349
2.11244
1.09359
1.84607
1.29098
2.24682
1.61336
2.83201
0.904958
1.85343
0.936185
2.50581
1.86482
1.50359
2.41342
1.1308
2.64818
2.69794
2.1345
1.34013
0.67607
1.12044
1.05295
2.27248
2.62243
2.62088
0.817377
2.14979
1.11521
2.9131
2.27224
2.95943
2.2197
0.976881
1.12142
1.81794
1.71175
1.29871
0.169512
2.22259
2.22264
0.811594
1.20834
2.05049
0.204071
2.7526
1.29991
2.25072
2.0454
1.73965
2.25987
2.28071
2.70218
2.36524
2.05617
0.881254
2.2597
2.05354
2.59556
2.76663
3.15885
1.22806
2.26933
2.2774
3.04826
2.30252
0.636281
1.76265
1.63176
1.70705
2.24304
2.62183
1.04058
2.38963
1.86008
2.63037
1.04176
0.93807
2.49346
3.00476
2.25443
2.77814
1.62205
0.807061
0.0260886
2.41158
2.21224
1.11006
2.698
1.8823
1.71768
3.45982
1.29383
1.6797
2.27189
2.38176
1.4555
2.65273
2.39091
0.689041
2.3064
0.985423
0.669898
2.73447
2.33937
0.963656
2.25013
2.10436
1.57916
2.3973
1.47616
2.10333
1.53325
1.61762
2.28166
2.19535
2.41687
1.33034
2.75952
2.86186
2.43541
2.11533
2.09756
1.67686
2.74733
2.68603
2.11546
0.762384
2.08061
2.21585
2.33388
2.15016
1.50817
2.51049
2.13389
0.643874
0.663249
2.4118
2.20084
2.11068
2.04213
2.5719
2.2284
0.92762
1.49789
0.975996
2.24583
0.249184
1.44219
2.36124
2.39437
2.77562
1.58305
1.60365
2.09433
2.10875
0.716559
2.2414
2.78044
2.72079
0.231031
0.598781
2.72967
1.54619
2.37775
2.19026
1.53802
1.3613
2.26756
2.47272
2.74156
2.24353
1.33029
2.15724
2.2702
1.15835
0.80064
1.28096
2.51969
2.24546
2.80089
0.795622
3.67245
2.59095
0.847912
1.49292
1.05393
1.08462
0.26528
0.80654
2.29791
1.28791
0.966185
0.757577
2.6711
1.71976
0.76809
0.656469
3.10277
2.08026
2.51221
1.4893
1.20061
2.54428
0.710792
2.1621
2.48019
1.41109
1.96396
0.589267
0.846923
2.16156
2.37738
1.7553
2.46145
2.44679
0.251266
2.06307
2.18395
2.56839
1.37271
0.722179
2.26273
1.73777
1.282
2.24078
0.705279
2.47868
0.979408
1.249
2.64268
1.73375
2.26344
3.40533
1.51271
0.842214
2.27636
2.32484
2.00181
1.63373
0.67189
2.15402
0.651713
2.83053
3.57139
2.69388
1.50566
1.61723
0.285921
2.14573
0.644687
2.11338
1.43488
1.099
1.5729
2.01985
0.625831
1.24896
2.08881
0.893
1.99472
2.01788
2.3367
1.57147
3.64317
1.45073
1.44218
0.830417
1.94241
2.24665
1.89143
0.790697
0.578613
1.72421
0.698963
0.607066
2.04722
1.09209
0.236127
2.24526
1.75641
2.28897
1.40082
0.457715
1.54651
2.29291
2.05292
2.25073
1.43752
1.14444
1.07637
1.37543
0.692796
3.02315
1.31527
0.233264
1.34286
1.51719
1.23736
2.27625
2.24525
0.967502
1.79197
0.268191
1.82293
0.499036
2.21344
0.745366
1.01576
1.8568
0.451627
1.94604
0.87439
1.28819
2.03372
0.288761
3.22459
2.25358
2.21172
0.378269
0.209689
1.56369
1.25073
2.26147
0.20049
0.151598
1.23659
0.0048434
0.935516
0.96649
1.03796
1.12604
2.26121
3.31495
2.26021
3.11851
1.82012
2.11035
0.244566
1.14865
1.94788
0.784281
0.843899
0.714834
2.65876
1.64743
1.10428
4.9545
1.00328
1.29445
0.997982
0.0541408
2.71323
1.54039
1.23295
0.753018
1.48776
0.4461
1.60719
2.22218
0.961867
1.71863
-0.023788
1.95902
0.80025
2.81942
1.0002
1.27715
2.30946
1.56876
0.919895
1.32476
0.406562
2.7738
2.29951
1.36223
0.922683
1.78724
1.14514
2.46368
2.68545
2.59328
1.31371
0.067963
0.0141339
2.55522
0.813172
2.25399
2.27891
2.0413
2.65278
3.56979
1.37947
2.87111
2.03282
2.14817
2.782
0.883195
2.28284
0.192228
1.87097
2.24382
0.412559
2.2884
1.17927
2.35041
1.95176
2.21295
2.2148
1.88639
2.27978
2.2448
0.662999
1.90316
0.778893
2.21961
0.239404
0.701251
2.44092
2.75563
0.012486
2.22966
1.63607
0.569051
2.14095
0.19131
1.94478
1.06378
2.22077
0.631524
0.610993
1.65552
0.961556
2.74326
2.15467
2.68119
0.637598
1.06096
2.13667
0.0352807
2.26302
2.28864
2.25988
3.60896
1.78904
0.189672
2.19557
2.20041
1.80187
0.822033
0.570488
2.23393
0.731319
1.15904
0.0306652
0.837398
2.14666
2.80415
2.41592
2.64587
1.73319
0.00668762
2.02347
2.29544
0.219142
0.180893
0.874373
0.44407
0.936406
2.94081
2.27632
0.411296
0.235663
2.30254
2.86215
2.81055
0.276121
2.18615
2.13248
2.03689
2.23245
2.00998
1.55443
2.68673
0.595657
2.12298
2.77529
2.24092
0.587379
2.24858
0.751285
3.01202
2.30075
0.680011
0.409697
2.8379
0.0650309
0.831187
1.89662
0.394438
2.96665
1.88751
1.7653
2.31114
1.64474
2.33894
2.81684
2.27163
2.49029
1.1902
0.357537
1.42814
0.536713
0.400006
2.42795
2.80664
2.71461
1.08734
2.97882
2.16684
0.224515
2.22293
0.556749
2.13785
2.2955
2.08707
1.77617
1.38857
1.86754
1.10194
1.44348
2.22914
1.54106
0.686705
0.294147
0.438576
2.19604
0.525274
2.1843
3.02168
1.81214
0.382759
1.57852
0.442981
2.72835
0.866728
0.480622
0.495615
0.234444
2.88941
0.898778
2.94776
2.29088
0.700789
2.25877
1.40711
2.73546
4.06218
1.25591
0.0326251
0.373972
0.316622
2.76584
0.0161595
1.34962
2.07604
2.92526
0.168912
0.321273
0.0331983
0.261029
2.06757
0.0321634
2.9834
2.09617
0.609975
0.265225
1.39039
2.1762
0.0159243
0.392557
2.76392
0.306876
2.16464
2.38889
0.675229
0.015008
2.42295
0.0164422
2.78794
0.146877
1.04913
0.215078
0.633871
2.52768
0.127023
1.41
0.27787
2.21521
1.66731
1.71987
1.91607
2.72645
1.24877
0.622229
1.81371
1.81093
0.782415
0.871157
1.3061
0.460947
2.86722
2.01271
3.34815
0.160482
1.80157
1.11584
2.73614
0.505241
2.14386
0.24077
1.37601
2.1708
0.776365
2.00332
2.24369
1.88416
0.505571
2.315
0.785307
1.33383
1.71
2.25134
1.47304
0.931736
1.01115
1.58153
1.2994
0.341895
1.26245
4.00435
0.589651
1.55317
2.18043
2.29695
2.27851
2.23893
2.0848
1.46129
2.23118
0.548786
0.581541
3.48377
0.547816
2.84725
0.914101
1.08023
1.22666
2.42313
0.973268
1.84918
0.368752
0.934579
0.649298
0.540618
1.96942
0.740478
0.791303
0.529276
1.05843
0.411421
2.22737
2.94685
0.172564
1.00065
1.06347
0.314316
1.12636
0.181019
1.15711
1.03545
0.895696
2.27687
1.11307
1.50207
0.135369
1.69497
0.919652
0.148611
0.214417
0.165315
1.10424
1.12539
2.23156
2.16533
2.27275
1.67185
1.76481
2.52213
2.26874
0.514558
2.19236
1.92286
1.11142
1.93174
2.26475
3.29637
0.91954
0.223638
1.43072
0.473015
0.21738
2.44017
1.84597
2.49322
2.26476
3.38156
0.960155
0.0944896
0.743216
0.327007
1.2167
2.77874
2.91021
0.267226
0.803263
0.4623
2.88049
2.36218
2.10304
0.140673
0.207314
1.80446
1.0442
2.30195
2.02344
0.489334
1.67531
2.19069
0.450399
1.51631
0.705097
2.22914
1.31199
2.74963
0.196426
1.37443
1.86079
0.226924
0.795861
2.0971
0.205872
1.13615
0.385304
2.00504
2.23046
1.86514
2.07962
1.80353
1.84937
1.85356
1.50348
0.517384
0.742848
0.332564
0.279532
0.40655
1.96089
2.28788
1.0356
2.31078
1.4879
2.29916
0.560721
0.45439
1.32704
2.53872
0.258639
2.29789
2.03879
2.67955
2.32375
0.323501
1.54461
0.848775
2.48837
2.6599
0.446158
2.27744
2.13791
1.62315
0.481152
0.183567
2.4192
1.98806
0.437666
1.74741
0.598897
0.901418
2.65629
0.142975
0.548244
0.889672
0.428956
1.22988
0.531108
1.67421
0.953065
1.95425
1.33159
0.948876
2.23652
2.22029
1.77053
0.159655
0.311821
2.33178
1.75993
2.23407
0.520421
1.71454
0.254785
0.364741
2.57653
1.71339
1.50427
0.485772
2.07727
0.452308
2.28696
0.417312
2.30824
0.591003
0.122632
0.540379
1.24275
2.45814
2.01972
2.30179
0.426097
0.688742
2.31041
2.26061
1.7976
0.2052
2.43319
2.26647
2.32424
0.434596
0.225415
0.692019
2.42963
2.29975
1.25665
1.83556
0.614944
2.933
0.553357
0.477478
0.723125
0.741707
0.256593
1.62474
0.796061
1.55445
2.29827
1.92012
2.23068
0.582973
0.359866
2.51079
2.3813
1.67675
2.61691
0.833945
0.307124
0.276221
2.76897
0.775422
0.973634
0.391907
2.31672
1.97426
0.579473
1.04575
1.8782
1.71928
1.17171
2.91749
2.29561
1.68627
3.36535
0.883174
1.42352
1.99242
2.41404
0.383182
0.630028
0.249364
1.76111
2.25066
1.08178
2.25046
1.75502
0.571276
0.0902182
1.83805
2.33009
2.49902
2.48379
2.22542
2.19816
2.54927
2.14913
0.492107
1.04821
2.43509
1.0226
1.15695
1.30665
0.734648
1.06875
1.87371
0.152267
0.545849
2.44931
2.45618
1.28863
1.02146
0.298537
2.9759
1.79687
1.35457
2.15991
0.78244
0.828927
0.736413
0.484591
1.09325
2.20545
2.28758
0.132256
1.20309
2.23393
2.2217
2.30194
0.941427
1.37195
2.0553
0.403302
0.623453
2.29648
0.270178
2.74833
0.722753
1.63225
0.717136
0.881179
2.29966
1.84027
2.03725
1.44823
0.302653
2.06003
2.38546
1.96686
0.757609
2.53528
2.73926
0.181043
2.25009
0.603609
0.349395
0.359773
0.977503
2.06874
0.772497
0.932991
2.08101
2.11595
2.02482
3.13293
0.672795
0.52197
2.76166
2.28498
1.65221
1.0253
2.75481
0.715155
1.41787
0.87645
0.815234
0.35565
0.40821
0.474085
1.98807
0.497379
1.67601
2.22286
2.94861
1.37342
0.389918
1.6825
2.49375
2.30078
1.07036
2.23999
3.11464
0.420114
3.29679
0.17297
1.69245
2.15399
1.01974
3.43148
0.913381
0.163653
1.4439
0.376483
1.12912
0.893353
0.528576
1.38899
0.864544
0.78726
1.5636
2.95559
2.45068
2.1115
2.22301
0.132268
0.49444
1.73635
2.30797
0.318349
2.23927
0.473492
2.57295
2.3958
2.19762
1.33473
2.01783
1.1268
1.95461
2.08796
1.94156
2.4537
0.0722981
2.95923
2.58743
1.54044
2.88615
1.96994
0.140489
0.621725
0.496681
0.693538
0.877868
2.9651
1.18892
2.97722
1.65645
2.74895
2.91062
2.76218
1.81489
0.360654
1.01577
1.79679
2.40028
2.25761
1.34084
0.784313
2.19473
1.49852
1.00363
1.22331
1.19065
1.61698
2.23675
0.508381
2.2037
2.45387
0.464247
0.984396
2.07303
2.30233
1.09358
0.979828
0.6414
1.00386
2.73718
2.0621
2.25998
1.34531
2.72502
2.21435
0.683048
0.540394
2.51726
1.09842
2.6898
2.15488
1.94132
1.07096
1.48677
2.21278
1.05127
1.0735
2.35432
2.3037
2.80263
2.27751
2.13552
1.23173
0.346952
1.72369
0.562654
2.30488
2.29836
1.08665
1.77883
1.57157
2.38799
1.13833
0.991465
0.765302
2.21884
0.469119
1.068
2.62839
2.79432
2.39256
2.31195
2.35448
2.49282
1.31706
2.19271
0.64854
0.0888198
1.18584
0.0717173
1.19754
0.91949
1.82543
2.41534
1.89536
2.20192
2.39269
2.31608
1.68701
2.29654
1.01014
1.85752
2.0139
0.995278
2.53418
1.72743
1.9641
2.09098
1.66623
1.78794
1.67173
2.39852
1.28783
2.05913
2.03476
3.39155
2.14306
2.54489
2.5428
2.24167
1.52964
0.997632
1.45834
0.906689
1.50042
2.13336
0.56289
1.27166
3.00441
1.51847
2.21745
1.98988
1.19181
1.79605
0.419575
0.331057
2.38888
0.532467
1.49619
2.54758
1.89599
1.23705
2.15882
1.75954
1.60244
2.41957
1.33667
1.68403
2.26856
1.41279
1.84326
1.4472
1.98564
1.3005
2.39948
1.44497
1.77522
2.2748
2.08225
1.35016
2.27077
1.99433
2.00156
1.18012
1.77485
2.32776
1.14307
1.76362
2.27791
2.01901
1.28438
2.91166
2.19007
0.284674
1.81903
2.27509
1.21319
2.83651
1.83112
1.28168
2.35955
1.35932
1.93515
2.63819
1.41238
1.29475
0.890022
0.955308
1.6505
1.98167
1.40118
2.10446
2.60747
2.18545
2.33617
1.27578
1.5695
1.56643
2.39692
0.925302
2.25693
1.09283
1.99665
1.37978
1.67564
2.63733
2.69228
2.34265
0.514496
2.87453
1.68657
1.89523
2.26832
2.34965
2.02073
0.369184
1.68045
1.81888
1.54312
1.70301
1.40737
2.54746
2.26639
1.92198
1.71874
2.3999
2.08173
2.05177
1.39108
1.53564
1.53813
2.67843
1.40201
2.41516
1.24311
1.7454
1.92748
2.35483
1.95135
2.37135
0.533281
0.574098
2.11053
1.97342
1.73155
2.37784
2.60935
2.25317
0.94117
2.37788
1.35649
2.38298
2.12016
2.40994
2.42469
2.44751
2.5103
2.62029
2.66064
2.69724
2.73384
2.76942
2.86813
2.89952
2.92938
2.98148
1.78022
1.89493
2.57646
2.22586
1.38467
2.34351
2.21555
1.53173
1.64172
0.0687717
2.01821
2.06902
0.512446
1.52488
1.8231
2.26962
2.39454
2.20976
2.27165
1.1395
1.39011
0.268919
2.34752
1.92189
2.21043
2.18726
1.46985
1.39577
1.66473
0.257907
2.35602
1.1104
1.02861
2.13726
1.86061
1.65191
0.996569
2.29907
1.94884
2.55436
2.3878
2.16289
2.83659
2.0459
1.72058
2.09997
1.64741
1.90393
2.0632
3.23331
1.75079
0.857638
1.79389
1.94561
0.0790412
2.48384
1.82926
3.14798
2.57861
2.25653
2.13132
2.48998
1.95926
0.442561
0.0738745
1.69873
2.32365
0.826498
3.10439
1.57689
1.79103
1.4825
0.957986
1.98859
2.80324
2.52193
2.64051
1.11876
1.97913
0.080109
2.18175
2.01711
2.0528
2.3903
1.74071
1.82789
1.6431
1.99995
0.11275
2.04339
1.64735
1.03262
0.993555
2.42112
1.51991
2.70837
1.90522
1.76351
2.44828
2.60838
2.42202
2.06878
2.48846
2.00687
2.79057
2.48398
1.63946
2.24985
1.71349
0.400993
1.04131
0.64015
1.85275
1.7329
0.967409
2.09261
2.09687
1.59062
1.22587
1.61126
2.23204
2.71254
2.22193
2.26891
1.78762
2.58638
1.38362
2.66102
1.9448
1.67973
2.26323
2.29697
2.60186
0.432083
2.16496
1.22255
1.58556
1.32812
1.786
2.65514
1.63249
2.94665
2.07709
2.53148
2.01474
1.63722
1.92622
2.46531
2.44184
2.93261
2.42966
2.13977
2.76933
2.23905
1.7518
2.27284
1.82543
2.17737
2.73391
1.63442
3.01406
1.81828
2.52246
0.765013
2.55885
2.73313
2.29238
2.06409
0.820405
0.0710933
1.73018
1.82298
2.20748
2.19375
1.76714
2.20665
2.74407
2.46027
2.37492
2.11533
1.56141
1.66953
2.93473
1.71684
2.75566
2.29515
1.71368
1.1514
1.47737
2.15697
1.24812
1.72408
2.3158
1.02396
1.81992
2.32946
2.24697
2.91207
0.00238307
2.13681
1.36755
2.12898
0.931375
2.29342
2.64086
2.30282
2.17524
1.88311
2.00017
1.69004
1.7827
2.48124
2.23122
0.214361
2.04013
1.98541
1.0428
1.91596
2.05294
1.94174
2.18841
0.343374
2.7183
2.23588
1.88238
1.00528
1.91257
0.968663
2.44345
1.12984
2.1267
1.45572
2.20245
1.76806
1.81497
2.09024
0.924985
1.93869
1.81216
2.75935
1.37966
1.83035
1.81305
1.80519
2.63673
2.01195
2.47163
2.13423
1.45112
2.62308
2.34183
1.42671
0.606728
2.38071
2.25566
1.80892
2.17818
2.16299
1.30319
2.50712
2.14273
2.00946
1.92863
3.0343
2.15383
2.4977
2.22311
0.890233
0.235339
2.00687
2.01704
2.78617
1.94792
2.27621
0.918633
3.34886
3.26017
1.20985
2.84274
3.38279
2.19437
0.175409
2.76068
2.7123
1.57859
2.13128
1.49352
0.245333
2.68764
2.56161
0.246533
2.29261
1.43936
2.29833
2.59962
2.20955
2.23422
2.17333
1.57684
1.39739
1.90662
2.53444
2.24876
2.84308
1.8429
2.45957
2.04378
0.729533
2.04003
1.66315
2.68011
1.97771
2.70176
1.60186
2.35335
2.21196
2.69061
2.00692
1.77817
2.22365
0.988761
2.03963
2.61046
2.03371
2.74289
2.05937
2.07514
2.36029
2.51056
2.34879
2.08048
1.13471
2.20616
1.28427
1.96106
1.77315
2.26469
2.08374
2.30247
1.59964
2.35125
2.23658
2.19521
2.53585
2.60684
1.6154
0.118079
1.83683
2.82798
0.499516
1.67738
1.94582
0.910747
2.19906
2.07028
1.6265
1.25825
1.27365
0.976822
2.19278
2.10029
2.20404
2.26363
1.61907
3.063
2.35488
2.20676
2.22431
1.44017
0.948649
2.07775
1.22349
1.88464
3.0863
2.748
2.71202
1.67578
1.99141
1.40266
2.39066
2.67731
2.59698
2.7124
2.73614
2.10685
1.17366
1.48258
2.36895
2.12815
2.75548
0.308994
1.86191
-0.315491
2.18485
2.2782
1.31754
2.19035
2.21666
2.27976
2.72483
2.68567
2.53213
2.69716
2.53891
2.54259
0.340572
2.17846
2.20173
2.47604
2.15391
2.20945
2.5211
2.45724
1.18617
2.26334
2.61747
2.68705
2.3579
2.69616
2.13321
2.12888
2.37209
1.75572
3.26485
0.616126
2.33087
2.4307
2.02395
1.75988
2.25399
3.31904
2.14941
2.42959
1.78267
2.31828
0.94511
2.93801
2.25095
2.16853
2.34196
2.30647
2.41801
3.17623
3.01134
1.69756
1.02134
1.64207
0.960721
2.19211
1.7105
2.41802
0.35131
1.40397
2.57418
3.14292
2.17121
0.0327018
3.39237
2.34049
2.54657
1.58691
2.74518
2.29255
2.47997
2.71912
0.14862
2.6666
2.18826
0.787407
2.41979
2.38968
2.42964
3.191
3.19746
1.84319
2.34608
1.24601
2.18348
2.20363
0.527411
2.70763
2.34458
2.20836
2.55873
1.84965
0.303583
1.80297
2.14831
3.01716
2.21815
1.48663
0.664802
1.69473
0.50453
2.18376
2.23166
1.8682
2.24548
2.27632
2.24414
0.120553
2.27407
1.69168
2.3527
2.41902
0.565635
0.0142168
3.25339
3.10954
3.36889
2.96407
2.3162
1.61234
2.31652
2.27892
0.910295
3.07208
2.51022
1.07962
2.65702
2.58373
2.54682
2.38237
2.28694
2.8806
2.38598
2.43002
1.7591
2.42921
2.44553
2.6419
2.67593
2.71307
2.74812
2.87834
2.91195
2.58469
2.27763
3.50096
1.80931
2.55655
2.25321
1.7119
2.56814
2.43959
1.9151
2.30371
2.41394
2.27609
0.694722
2.24873
3.1539
2.52713
3.1065
2.99169
3.36679
2.43037
2.39442
3.19532
2.3085
2.85006
1.1213
1.65566
1.23034
2.28931
2.57198
2.47208
2.30529
2.44874
2.27765
2.58055
2.22184
2.58203
2.29017
1.2715
2.10748
2.39872
1.81738
2.37343
2.10177
3.71794
0.157693
2.59964
1.78345
1.97363
1.72832
2.56841
1.55892
2.289
0.423388
1.78085
2.57106
2.23972
2.09696
2.06271
0.351448
2.58547
2.78335
2.24651
2.23013
2.56184
1.79541
1.46524
2.75551
0.256433
2.41974
2.18154
2.31995
0.111303
1.22308
0.223907
2.31244
2.73755
0.1719
1.85045
0.609665
2.4459
2.15302
0.751101
2.20449
2.32574
3.25523
0.554756
2.46488
1.32356
1.08013
1.13192
2.81603
2.40618
2.28535
2.26928
2.9731
2.16489
2.72003
0.0792628
2.98524
2.63302
0.16366
2.35135
2.52309
0.854268
0.525504
2.21368
2.22093
3.32589
0.612008
2.22975
2.21816
0.27707
2.33446
1.43434
2.16055
2.83936
2.1809
2.15645
1.85673
1.79208
3.02871
3.13264
1.42287
2.36847
2.23802
2.99152
2.40217
0.894232
2.49951
2.35785
2.3706
1.21613
2.22743
2.637
2.28778
2.51129
2.26256
2.29725
2.27399
2.31538
0.295234
2.10431
3.34364
1.14268
1.94626
1.76104
3.79586
2.58911
0.014025
0.0327106
2.75593
2.75394
2.0629
2.30658
2.2837
0.324906
2.09162
2.11391
2.71689
1.60979
2.91167
2.11583
2.40046
3.17686
0.840841
2.13799
2.47167
2.50447
2.09855
1.88275
3.0903
2.38809
2.62746
2.27483
2.32263
0.648674
2.79126
1.55763
0.899033
2.27778
2.55204
1.39378
1.90539
2.33737
2.64734
1.67145
2.22636
1.51743
2.11668
0.939298
2.38568
1.57252
2.60475
2.22118
2.77241
1.89832
0.519831
1.21955
3.33726
0.312383
2.28651
2.26487
3.05079
2.44973
1.31078
2.02983
2.25072
2.27458
2.45346
2.27403
2.64219
1.97615
2.68688
2.20209
2.05621
3.07264
1.65471
2.10423
2.81578
2.66911
3.45052
2.286
2.17751
1.15143
2.31464
2.36064
2.61917
1.95952
2.1821
1.13401
2.18334
1.58608
2.48852
2.18569
2.4178
1.39496
2.20103
1.105
2.65453
2.2103
1.22204
0.445283
2.54082
3.38105
2.41641
2.14677
1.97456
1.74593
3.12458
2.22435
0.15298
2.38933
2.34435
0.0846785
1.91617
2.19578
1.9022
1.68695
2.63264
3.05122
3.01562
2.24259
1.59725
2.25828
0.868475
2.87812
3.2997
0.585574
1.89336
2.53817
3.31372
0.235317
3.04413
3.32648
2.23267
1.74199
1.95601
3.06721
1.82019
2.30328
3.53769
1.72927
3.09101
2.08786
2.08146
3.28384
2.81248
3.08494
3.01312
1.51521
0.12791
2.80645
2.46479
1.95123
2.44354
2.49023
2.30382
2.1264
3.06125
1.70913
1.73183
2.37026
2.52207
2.12546
2.31471
2.44068
3.0329
2.38108
2.11018
3.26731
1.47544
0.381868
2.39337
2.26654
2.41849
0.736892
1.84393
0.214566
2.50444
2.24525
0.275972
1.32
1.49057
0.806832
2.50041
1.93523
1.75535
2.06594
2.26814
1.89186
1.60717
3.02928
2.16642
2.17008
1.28876
1.9366
0.672041
2.29935
2.63268
2.48004
2.7923
1.80292
2.6065
2.81987
2.88345
2.12906
3.26005
2.11235
3.04308
2.37367
0.0969473
2.18173
2.17178
2.13938
2.69977
2.25944
1.32155
3.20535
1.77502
2.71967
2.20003
2.70955
2.48871
1.60818
2.18183
2.29508
1.40932
1.06129
1.92539
2.23465
1.71053
1.73406
2.29832
2.78114
1.81745
2.16806
-0.00299076
3.5379
3.36352
1.81718
1.28247
2.16675
2.17935
2.2874
0.817424
2.56478
2.25015
1.08771
1.01632
2.34454
1.11405
2.15425
2.25993
3.06883
2.28395
3.1544
1.0914
1.91872
1.99118
2.70632
2.59095
2.35476
1.63274
1.99731
2.99
2.20263
1.27539
0.386663
1.61403
0.113373
2.42734
2.02352
2.12543
1.653
2.74819
0.66237
1.66835
2.93893
2.9648
2.11322
1.30462
2.89297
0.813131
1.17502
2.57293
1.18135
3.55614
2.19036
3.0513
2.47195
0.390774
1.7848
3.23148
3.09004
2.02855
2.06943
1.72312
2.68084
2.61836
1.95055
1.31693
2.4748
2.26851
0.139142
2.23469
2.26752
2.29114
1.73692
3.57117
2.00338
2.11781
2.27381
1.1958
0.205518
1.37656
2.08692
3.09282
2.4198
0.473979
1.12145
2.34044
3.25029
0.765889
1.08376
2.52114
2.30432
3.18256
2.15994
3.12852
3.08568
0.721341
3.00876
3.07497
2.19187
2.53998
0.718989
3.1
1.22014
0.514197
1.81059
2.88603
1.88745
2.90107
1.37827
3.59886
1.5733
0.108725
3.23393
2.26214
3.36404
2.66157
2.42055
2.14579
2.28094
3.1602
1.14608
0.59132
2.62638
1.08525
3.87736
2.37423
2.37626
1.48502
2.50172
2.60359
2.28616
2.18207
2.24484
2.03325
2.27158
1.25601
2.03746
2.34579
2.26533
2.33937
2.65169
2.46132