/*--------------------------------*- C++ -*----------------------------------*\
  =========                 |
  \\      /  F ield         | OpenFOAM: The Open Source CFD Toolbox
   \\    /   O peration     | Website:  https://openfoam.org
    \\  /    A nd           | Version:  7
     \\/     M anipulation  |
\*---------------------------------------------------------------------------*/
FoamFile
{
    version     2.0;
    format      ascii;
    class       surfaceScalarField;
    location    "39";
    object      phi;
}
// * * * * * * * * * * * * * * * * * * * * * * * * * * * * * * * * * * * * * //

dimensions      [0 3 -1 0 0 0 0];

internalField   nonuniform List<scalar> 
11512
(
153.217
-517.276
364.059
-773.321
-17.6692
790.99
442.199
-400.165
-42.0337
675.499
257.728
-933.227
1570.68
-1112.49
-458.187
1138.78
-1388.55
249.771
-40.0789
507.577
-467.498
164.511
-847.575
683.065
995.732
-1671.34
675.604
-1790.41
1703.63
86.7859
-566.335
1705.11
-1183.92
2008.36
-824.437
586.612
162.952
-749.563
-22.453
-1354.96
1377.41
230.251
-2020.66
1064.83
-395.047
-669.783
-182.972
336.189
459.378
162.795
-622.174
1201.92
-1363.56
161.639
-323.129
393.625
-70.4952
1046.37
-1351.86
305.492
1268.08
829.849
-2097.93
70.6231
-1689.57
1618.95
-531.101
-1137.8
1668.9
434.548
143.881
-578.429
-197.126
-320.15
516.836
1053.84
1695.82
-1852.11
156.296
-114.575
-1683.25
1797.82
-1618.91
673.398
945.511
-316.529
679.312
-362.784
-86.7545
-83.9534
170.708
1323.22
-1252.6
371.456
-1461.83
1090.37
-902.23
902.23
94.2692
1573.24
-1667.51
-1116.99
-501.916
690.006
-730.085
-397.432
978.517
-581.085
1130.25
-1124.33
-5.91595
-1143.85
746.421
654.59
410.239
-405.303
-41.817
447.12
-443.145
797.675
-354.53
-779.967
779.967
1121.16
-1233.38
112.221
-507.14
1775.22
1306.3
-327.783
1709.32
-1187.03
-522.289
82.6648
-405.794
2143.16
-1177.26
-965.903
1863.42
-167.597
389.937
113.987
-503.925
-466.713
1006.26
-539.545
-1202.61
1296.88
-588.847
1007.73
-418.879
420.052
781.869
624.857
-460.346
-453.25
618.813
-165.563
1236.79
-865.335
2390.68
-1119.91
-1270.77
1207.98
-2084.43
876.445
-1647.76
1625.3
457.948
-1641.87
-565.558
1029.81
-464.254
-699.787
383.258
1723.71
-727.98
-1145.27
-901.277
2046.54
693.456
-384.057
-309.399
716.567
589.733
-264.698
1385.86
120.912
-332.711
211.799
-273.481
708.029
-257.184
408.901
-151.717
-320.182
779.56
-328.309
-154.663
482.972
345.013
97.186
1499.4
-453.036
-1010.78
513.207
497.574
290.08
92.1224
-382.202
931.788
-345.177
-1755.44
596.243
1159.19
37.3656
-886.136
848.771
-262.663
565.652
-302.989
162.939
-1136.72
973.777
759.317
-769.288
9.97026
381.302
535.246
-916.548
-225.304
615.241
-1146.14
-501.806
1647.95
-412.562
629.33
-216.769
1346.59
-1461.17
-653.538
302.903
350.635
-490.557
-1016.24
1506.8
-562.391
-821.774
1384.17
570.135
-963.234
393.1
-100.968
-169.424
270.392
424.897
-303.985
-1076.22
609.506
992.821
-829.882
-82.4495
655.501
-573.052
-166.364
344.481
-178.117
-634.814
-375.966
-394.071
964.206
1030.46
-1030.46
-467.565
-185.973
-940.442
1585.92
-645.475
296.167
-676.823
380.656
-955.976
367.13
-969.73
-1095.58
-1544.12
368.012
1176.1
-267.627
943.126
-318.111
640.064
-321.953
-2007.79
1038.06
-1171.65
-372.465
592.715
-1533.16
1793.13
-1791.22
-1.916
229.668
-634.312
404.643
-1490.44
975.956
514.487
302.048
220.56
-522.607
270.867
-528.051
154.014
-248.121
94.1066
2038.66
-850.558
-1188.1
-571.777
166.474
644.145
862.248
-1506.39
-133.332
287.346
448.785
910.979
-1359.76
-946.294
412.385
533.909
-1082.98
1503.03
-710.853
145.295
784.403
-105.091
561.54
-276.432
-285.108
1036.48
-523.273
619.314
-1459.26
839.947
-1395.22
249.08
-492.229
229.567
-1212.81
945.178
2024.63
-1150.6
-874.035
237.075
793.382
-2171.35
926.49
1244.86
172.48
-12.6741
-159.805
-145.012
281.526
-136.515
-117.954
-393.065
511.019
-483.675
155.366
263.889
-46.401
342.568
425.727
406.731
-832.458
-2054.59
1146.62
907.974
478.233
-554.955
76.7218
124.922
-186.383
61.461
962.039
1076.62
1828.63
-255.387
748.244
-445.341
828.249
-1444.48
616.234
364.202
329.254
1084.83
-1047.46
-513.926
-267.527
781.453
493.266
-140.918
-352.348
649.298
-486.346
612.123
-815.074
202.951
522.307
1187.01
-1288.71
726.314
1020.32
-1551.42
1.00063
-1491.56
1490.56
337.23
858.125
-1195.36
590.342
228.677
-819.018
-2275.38
1180.63
1094.75
-1116.81
-1158.56
211.478
400.645
996.127
-658.897
578.719
-587.856
9.13731
-2173.01
1027.75
-71.954
-84.1417
156.096
-44.3564
1837.49
-859.477
86.1561
-1064.38
-1106.97
-152.202
277.124
-692.188
224.622
-286.44
-427.492
713.933
1140.33
-1630.89
811.367
-1428.09
616.727
713.856
-456.128
1867.88
-1345.57
-297.963
-604.267
72.8454
434.732
-556.184
538.515
6.79232
-587.867
581.075
594.14
-292.092
-541.106
261.728
279.378
812.046
-386.319
14.282
158.198
1231.52
-1230.52
186.975
237.923
397.146
-683.587
638.978
-1033.05
-2100.5
2100.5
-271.712
-452.783
724.494
713.413
389.611
-1103.02
601.833
182.571
411.398
400.648
-2277.02
1375.75
-962.165
-704.866
1667.03
-474.509
-738.297
-257.022
560.527
-303.506
885.677
-241.344
-644.333
-447.31
676.979
392.939
-711.051
-362.624
-152.478
515.102
-1359.53
-492.588
676.269
-1150.78
-283.226
-496.742
874.652
1516.03
198.688
-351.981
153.293
1004.94
-350.354
1445.92
-826.609
464.128
-277.153
-344.461
-920.249
609.729
310.52
-371.751
-548.498
319.807
-437.761
-174.814
-111.242
286.056
-404.671
1118.08
358.616
-195.82
-299.696
1397.02
-189.431
-1207.59
-492.164
289.618
202.545
232.347
261.143
-493.489
-1.59929
-813.475
615.612
-1793.27
1177.66
1537.06
-892.91
-1047.1
-443.341
-1099.9
595.682
504.217
1411.7
-435.74
964.918
-1466.72
-163.723
-212.124
375.847
-466.273
605.965
-1688.95
393.403
736.847
294.052
298.997
-593.049
421.648
480.582
1148.55
-745.772
-402.781
370.246
-195.949
-174.297
-1451.72
462.158
767.676
-1229.83
1530.9
-565.986
-484.875
949.966
-465.091
444.964
1225.67
-1670.64
15.2139
-427.776
-149.93
440.009
64.3855
-151.14
534.667
501.813
-624.051
49.1852
574.866
885.421
-1069.5
184.076
689.187
-277.789
488.3
-1502.89
1014.59
422.479
1750.02
-542.034
813.554
1211.08
-690.162
-1749.34
787.173
595.221
401.51
-996.732
469.101
83.1361
1814.96
-1898.1
1273.18
-372.372
-900.808
1762.51
-1806.86
-383.332
-535.341
750.721
-215.379
-503.128
191.612
301.654
-372.893
-1226.66
210.422
-796.847
-662.415
-587.531
1069.68
-482.147
-357.937
353.214
4.72243
473.401
-604.243
130.842
-211.136
61.1528
149.983
-674.557
-713.405
359.469
353.936
-966.056
1454.36
-423.939
916.895
-492.956
-2283.2
6.17707
190.764
-559.905
369.141
158.587
1238.43
-112.166
-580.021
168.28
-621.53
1544.52
-733.155
391.682
-484.924
93.2414
-98.7628
98.7628
490.835
289.132
1845.64
-1277.34
612.05
665.289
679.645
-30.3476
1340.72
802.447
-561.24
1389.49
270.238
295.414
294.599
-829.941
263.645
-706.791
190.865
-349.442
158.577
-256.833
612.306
-355.472
128.038
-384.871
-613.943
-586.537
1200.48
-367.054
550.579
-183.525
-1150.25
2018.7
-868.45
1340.92
-344.797
-132.157
31.1898
-1987.51
849.709
1567.02
-850.305
-716.713
2060.2
-910.471
-1149.73
741.296
599.627
-210.451
401.316
-674.452
1171.61
-497.162
-800.435
1249.22
572.758
960.048
-1790.99
830.938
-546.269
-90.9007
637.17
312.184
249.356
430.847
-103.499
-327.348
618.537
-58.9955
-559.542
945.573
-566.031
-379.541
1633.54
-493.203
920.044
-1687.74
767.694
1075.24
792.641
779.813
-463.952
-315.862
-875.926
-248.408
575.136
607.485
-1182.62
-453.205
519.405
-66.2003
600.452
-360.351
-240.101
-1020.2
596.256
621.041
916.014
-400.094
873.495
1458.71
-793.246
-665.467
416.41
-963.414
547.004
-1060.03
425.22
586.144
-1071.02
484.621
-541.099
56.4778
498.78
298.895
-83.0664
-15.6963
-825.768
-909.574
1735.34
181.883
188.363
-235.777
447.255
-49.1749
-559.145
608.32
496.843
905.748
-1402.59
-462.373
287.559
647.881
-29.3441
869.996
-1106.05
236.053
393.715
879.443
-1440.68
-459.017
865.749
2051.72
-1331.3
-720.418
202.185
376.534
207.292
552.025
117.789
-1002.75
884.958
1736.29
-1127.3
-608.991
-144.359
1959.32
-1934.49
-166.015
396.017
-490.505
94.488
-1055.87
546.55
509.319
-1572.89
422.644
-885.382
802.933
405.413
213.4
412.135
-213.447
-445.059
741.227
263.717
40.3531
819.721
-860.074
-1149.44
-883.188
2032.63
-537.816
1132.72
-594.906
-479.221
-91.3003
19.3463
-1716.9
891.132
-817.53
-657.956
1475.49
-232.905
-240.826
473.732
368.988
-677.059
308.071
244.165
-630.484
325.853
221.636
-547.49
365.95
-622.972
644.709
-275.721
321.576
-476.239
680.881
417.352
-185.006
-406.86
-306.545
1255.82
-10.8444
-1244.98
1074.38
-435.398
581.283
426.443
-1741.97
811.736
930.239
518.538
561.191
-1079.73
-346.69
113.785
-272.582
1226.02
-953.439
-1457.9
1159.94
516.228
-1130.17
403.668
-11.9857
427.009
323.506
-750.515
363.483
-588.786
-28.9488
783.616
-754.667
-386.286
614.962
389.388
277.437
402.208
681.261
96.1586
-412.16
316.002
830.667
-474.433
-356.234
515.626
-1725.78
1210.15
-1180.91
1818.79
-637.885
1779.57
-1163.96
-322.66
584.388
-1182.7
1300.49
243.045
-832.237
1655.06
-822.822
-264.299
-227.865
-971.429
1526.01
1880.26
-635.592
-1244.67
-420.731
795.185
-1382.72
-55.3515
-46.2806
477.128
-707.996
-355.077
-1102.82
-235.177
479.342
789.117
-585.188
192.123
-1737.24
-74.5558
1811.8
-1097.12
559.306
595.423
-1226.75
631.327
936.194
944.064
564.171
465.641
712.9
237.066
-1167.97
493.518
-422.03
428.822
646.513
-536.042
262.498
-765.495
502.997
706.497
-342.295
-206.48
122.527
-622.856
232.04
390.816
-924.236
-763.502
1123.37
-2218.95
401.237
-674.719
-284.907
-484.381
868.551
590.161
-363.782
321.965
364.607
277.492
681.952
-959.445
524.386
647.228
-559.008
196.384
364.262
-635.974
-1125.97
-811.903
1937.87
-1853.57
163.998
1149.88
-1422.46
1194.68
-715.198
-479.481
-523.342
1402.79
-1552.15
654.149
898
-121.308
-116.796
238.104
1480.65
579.557
344.949
-497.427
-507.852
-584.149
1092
-433.538
624.303
1642.84
-1171.59
-471.249
-802.32
349.537
479.223
351.445
-1683.32
435.391
1247.93
-208.092
533.945
828.735
814.105
220.383
-711.437
491.054
176.593
167.888
-188.911
-77.6185
266.53
499.819
-9.82018
-489.999
-1666.7
619.594
-1624.13
1703.61
-79.4768
20.3924
-1644.53
989.954
783.008
-355.998
-826.231
-233.803
-1180.12
-247.975
-311.258
674.74
-1881.6
-645.251
1252.74
215.027
791.231
-1379.85
-704.582
-484.244
625.287
-331.235
-1046.6
1400.43
-2005.27
604.844
670.795
1337.56
282.666
-1.13974
748.828
720.945
-1469.77
-665.975
353.21
312.765
266.767
-65.0937
-201.673
162.853
308.217
175.176
-483.392
-595.359
1190.58
456.383
-636.73
-462.65
-412.783
875.433
-331.74
168.017
-478.308
174.323
-319.428
-736.441
321.141
-54.3747
-589.964
1006.37
271.777
-142.982
-128.795
464.65
-784.832
-674.809
449.605
-1167.69
-855.223
1223.24
-582.036
472.547
308.906
-463.154
79.097
1050.19
-148.333
317.389
-169.056
-513.607
1503.56
-793.398
256.069
387.876
-643.944
236.739
493.619
-30.1866
-463.432
-264.736
-213.572
849.4
1147.9
588.397
-898.298
978.529
-80.2304
-161.228
39.9204
-752.648
325.155
-625.65
320.523
385.974
865.138
-1265.73
400.594
809.507
-838.455
-958.412
-572.015
1530.43
-172.66
471.657
-557.564
281.132
1391.43
801.609
-581.227
1353.27
-677.006
469.138
-693.937
-420.99
-419.749
-382.525
802.274
516.765
-861.942
-466.817
100.736
366.081
-201.585
596.41
736.88
-335.642
-192.649
-148.128
340.777
-512.908
151.881
361.027
1511.2
82.1115
-1593.31
-776.25
1397.29
-1189.42
-481.917
565.502
-177.626
1194.37
-384.867
1120.54
512.993
724.442
-429.843
-916.971
-544.858
-1330.78
-32.2968
1023.77
-991.47
605.96
354.703
-960.663
-338.29
-233.487
-773.122
420.369
1680.13
-196.359
377.616
369.448
-747.065
-1908.89
-2181.73
1572.56
609.166
-2040.33
357.082
391.12
540.132
-931.252
-478.878
1060.16
-426.7
-673.243
1099.94
-2102.97
1439.93
663.038
601.358
-1028.06
65.4311
419.19
359.811
208.573
255.554
320.958
992.478
894.835
698.53
-334.926
-363.604
-297.381
628.852
-331.471
598.668
549.885
550.159
454.95
-1005.11
-824.508
-727.641
783.36
411.014
-423.467
731.537
-1233.15
1668.55
454.934
-1128.18
-340.903
562.539
-1425.86
939.572
486.286
-713.036
-270.267
-870.802
384.509
486.293
464.391
747.432
-1211.82
1110.87
-592.336
-413.779
689.664
-275.886
140.905
130.872
-484.66
-449.231
933.891
-252.868
564.311
-984.413
420.102
-413.188
622.246
-1742.15
439.383
698.396
-1137.78
547.017
93.0473
117.777
-2290.79
573.943
-101.396
1499.53
1839.61
-224.431
-1615.18
-454.968
1855.4
-2062.26
1239.37
822.896
422.217
357.597
-26.821
895.372
-1334.39
747.85
-897.443
-856.602
824.305
322.41
61.0024
-383.412
71.9532
80.6196
-152.573
1606.23
-857.399
-753.716
-276.742
503.054
-208.048
-295.007
379.392
328.637
262.869
362.418
-7.71155
1039.29
-1031.58
378.076
296.452
-674.529
-760.89
1884.14
-1123.25
-341.708
721.1
-1250.03
-417.481
-952.718
503.487
599.29
-807.311
208.021
788.898
-394.736
-394.162
-429.055
-469.243
453.598
1110.53
1283.82
-688.401
819.717
-355.067
386.697
337.797
-261.268
-223.656
-233.661
656.14
421.662
-880.57
458.908
229.284
363.724
-593.008
-437.192
858.854
784.136
-1188.81
905.218
-40.0792
-515.028
301.072
783.753
-99.0621
1436.62
1957.39
-69.0438
358.662
-323.379
419.537
-1126.65
1118.93
640.945
387.421
401.477
64.2718
438.783
284.288
506.702
-384.722
-281.253
-296.04
-61.8966
-372.534
382.932
-10.3976
-238.147
-254.082
1047.89
-1599.77
551.881
-201.071
-199.094
-387.523
683.976
-1687.46
1650.92
-996.768
282.931
-703.921
606.792
1266.67
-1873.46
633.012
1017.91
326.41
-1163.31
718.252
-289.624
-303.425
1412.12
-1496.06
848.914
647.145
424.746
-653.06
228.313
-381.022
502.229
-121.207
377.83
121.989
1789.9
405.615
-229.022
580.92
-1767.53
1186.61
-93.2263
402.931
348.237
350.293
-465.087
-637.936
1103.02
441.059
-900.076
-666.666
937.171
593.733
-106.892
-104.244
-456.427
-424.143
-321.09
-859.029
989.135
-989.135
-95.1001
-1616.72
1711.82
303.079
297.373
-950.696
-578.677
1529.37
-409.89
960.049
-632.345
-1034.35
692.959
419.132
-1112.09
487.399
-165.823
594.801
1262.4
-1857.2
-1045.16
2113.93
-1068.76
-387.289
-312.498
-493.501
843.038
-1811.75
1657.15
154.602
1811.75
-1658.96
-152.786
-230.533
498.4
-267.867
-560.049
1680.59
1601.64
-2019.12
1118.18
-287.4
-272.707
560.108
254.444
-595.347
-731.876
308.409
1392.14
659.582
598.586
506.53
-1105.12
296.923
427.519
903.355
513.336
-1416.69
550.291
-1058.14
1635.03
-587.138
-772.214
-373.503
-129.02
502.523
-509.358
1256.79
-775.114
308.094
307.147
375.56
271.269
-646.829
630.004
859.792
-623.739
286.68
691.849
-106.892
-322.704
-248.032
570.736
1209.8
-677.991
636.279
482.381
-1118.66
-966.35
966.35
-395.172
782.593
-299.918
-491.787
791.704
501.396
470.196
-971.592
402.749
-702.667
639.24
-903.103
263.863
-380.678
-517.177
1115.76
-689.091
-735.504
1424.59
-401.263
965.574
-1610.15
699.677
55.6717
-441.112
385.44
-511.264
735.886
273.062
339.243
176.354
311.045
-534.228
244.604
1940.43
-2039.49
288.428
-735.739
462.516
-855.487
392.971
-897.51
1446.62
-549.107
-447.049
-505.669
624.493
1165.07
-1789.56
-744.482
357.193
-477.198
1075.87
-795.073
1081.75
-298.485
-620.041
-491.654
755.299
404.152
-260.27
942.454
-315.502
-197.406
1656.36
-1880.79
-373.067
-611.346
-347.795
499.676
277.382
-608.617
-198.11
1094.5
-793.43
224.249
-304.168
-289.781
593.949
417.522
-912.527
495.005
-440.984
-463.01
-351.981
-348.461
603.872
-255.411
-472.391
-437.001
-342.475
-205.015
-399.139
670.408
-450.07
787.867
-1113.84
648.751
-1407.96
590.425
-28.3322
-1902.97
1931.3
593.826
-466.907
1256.38
-697.07
39.1633
-39.1633
695.075
-450.141
1033.32
-1665.67
-1199.44
-982.285
301.423
327.429
908.844
746.215
-501.739
-325.67
827.409
1718.63
-1746.96
-451.662
364.814
229.326
1180.03
-543.749
-977.102
1605.99
-628.889
463.641
-255.068
382.319
411.669
-793.989
544.517
497.563
-1042.08
-318.858
626.952
-39.3949
1979.82
1626.04
1029.49
-1762.64
755.581
-1223.82
468.234
-513.065
1416.42
870.474
-1393.82
-573.918
286.518
824.774
-423.264
578.437
-1233.84
655.406
-646.183
-1258.5
-721.916
1980.41
-216.197
577.177
-360.98
-192.957
307.928
-524.124
338.351
389.615
-727.966
-1535.39
788.136
747.254
913.881
-1485.9
859.816
-447.431
228.481
-378.41
-607.04
284.337
-721.129
-704.729
726.66
525.451
-1252.11
390.614
-204.428
-186.186
577.937
-996.816
-579.21
-428.908
754.063
-862.217
-1200.05
-1493.15
520.522
972.627
4.84023
-653.193
363.394
289.799
-1357.21
1086.67
270.544
-640.132
-473.706
-627.783
835.075
418.217
-212.199
-206.018
529.841
1016.28
-1546.12
1014.71
-270.857
94.2391
176.617
-424.992
703.409
-414.98
-530.322
182.527
243.39
-1574.69
557.068
553.806
-777.468
266.204
163.02
-478.523
390.648
-853.657
2021.69
-1236.07
-785.629
416.246
-697.53
281.284
133.877
338.397
128.087
-466.484
-582.166
178.056
227.559
-720.197
1426.98
-706.783
436.44
502.592
-1215.63
260.253
1934.08
-1052.22
-881.856
657.135
-553.902
205.441
1399.61
-959.802
-439.804
354.213
-804.354
-641.671
1789.57
639.191
644.633
336.68
-14.2707
289.63
-1178.6
1789.83
-611.232
-1826.8
849.702
1788.87
-1713.24
-75.6278
-687.966
265.936
588.753
-740.427
248.774
1457.44
-586.963
410.91
454.839
-1927.69
1472.72
572.136
-430.445
-141.691
224.069
-566.544
-280.514
-198.707
-355.882
704.119
-599.064
225.562
625.553
578.589
-1204.14
1154.64
-2021.19
866.551
178.879
336.224
-1764.21
1724.81
335.167
-765.01
-170.657
399.138
775.832
708.593
-1484.42
1102.85
-1113.7
553.327
-1145.66
-655.242
265.925
389.316
542.418
-310.377
-645.576
-1020.09
314.691
-751.693
-944.362
196.155
166.22
224.394
398.793
313.367
-712.16
-648.313
-866.162
-1015.44
517.01
-1099.18
-300.459
503.004
560.928
662.307
-107.214
-24.9437
-412.509
738.918
290.525
-1243.88
595.568
1355.41
-579.581
470.125
-1049.33
-161.588
180.017
392.119
1060.57
574.463
-1731.59
1636.49
1658.49
-611.495
-1046.99
1974.31
-1962.01
-12.2908
218.793
-542.172
-355.502
579.751
-781.712
-331.638
-356.328
1012.91
732.389
-1541.09
808.699
339.088
-26.0953
1682.46
-1118.45
440.46
-1273.64
501.429
-61.5326
1572.73
1245.85
-490.272
-248.373
-22.484
-290.545
763.889
-2022.39
-730.378
363.401
-557.596
194.195
53.275
-201.608
1181.91
696.882
-1878.8
-631.767
201.322
976.633
-1555.31
-200.474
601.844
-401.37
880.676
1119.32
-761.296
1400.49
625.055
-491.154
-133.901
-366.227
1215.14
1064.59
-1980.8
916.201
-1215.55
570.302
1546.63
-609.46
-387.132
-171.876
-1287.77
599.367
1206.17
-46.9732
982.539
805.152
-1787.69
-221.787
602.402
-1601.16
998.755
507.721
949.115
-1456.84
637.587
615.149
401.093
-1144.86
322.867
1149.28
451.25
-249.531
-201.719
-1228.32
-1820.27
-1.26541
-1730.33
-227.422
-425.638
1667.67
-648.755
-1018.92
-489.433
1053.6
-1366.76
663.631
703.126
-1411.85
1493.96
-1379.91
618.613
1579.04
-407.667
-596.492
209.359
-1509
237.849
172.943
244.664
380.391
432.708
427.095
-859.802
528.953
-973.053
935.216
-1501.2
-723.983
255.819
468.165
-1081.41
486.053
-487.34
898.25
725.014
31.1339
-552.576
191.595
-917.378
-1365.82
-740.926
365.419
375.506
423.204
-752.724
329.52
-363.578
-143.417
-444.439
743.437
1598.23
-615.689
837.28
768.947
1346.9
-833.56
-1007.34
-593.82
-830.892
443.977
386.915
-1075.53
-659.781
316.604
343.177
-1346
-226.892
-821.853
415.574
406.279
-676.576
406.548
270.028
-706.07
291.09
427.934
505.957
400.193
458.66
488.614
386.819
609.014
-981.907
696.169
494.411
429.55
317.025
-746.575
1691.46
-1117.42
-574.043
-525.823
-288.305
-1068.9
461.749
340.525
424.035
615.597
-1039.63
-1432.27
783.512
-558.324
1189.65
374.333
-66.1168
427.687
-900.913
473.227
-1907.59
290.875
409.038
-650.601
241.563
-193.227
421.349
-228.122
-689.606
323.012
366.594
-698.113
334.51
377.378
405.215
631.347
-1041.24
783.482
685.919
-1469.4
452.937
650.086
290.79
290.458
-581.248
407.454
313.646
602.781
677.444
433.086
601.759
-1055.72
453.958
-1709
1172.19
536.809
1752.69
-565.679
646.799
-1192.8
545.998
-549.354
308.528
455.22
-973.461
518.241
773.925
-450.419
349.248
354.872
577.578
-950.645
675.79
-1302.97
627.175
401.334
764.145
-1273.5
799.981
529.74
-1329.72
493.207
431.846
-925.052
-522.902
-970.247
-317.339
655.689
343.472
541.001
-884.473
325.471
301.481
-522.321
2012.88
420.971
-791.142
370.17
-952.758
-838.228
-778.621
384.459
-1260.1
465.03
-1789.3
1658.96
130.34
1808.49
-1657.15
-151.344
-811.494
-598.319
273.692
324.627
-1788.87
2019.12
559.783
822.577
-1382.36
456.469
744.011
706.196
383.09
-1089.29
-51.0816
1678.48
-617.91
412.303
844.073
-513.105
276.948
236.157
-390.633
-199.051
339.956
-233.056
453.616
244.714
-543.267
298.553
267.104
-570.093
-296.983
459.933
-1073.86
613.93
560.698
1130.76
359.409
604.797
193.169
160.427
-353.596
1666.66
-934.268
1756.12
-1578.41
-177.709
-331.216
-857.042
432.899
854.35
-1054.82
-622.229
290.758
-1128.27
1688.97
-1616.24
-67.2943
1683.54
-348.537
-358.359
-381.509
556.544
623.483
-522.885
-32.0704
-495.771
496.716
-279.593
-217.123
1786.99
-1333.39
-618.324
303.007
315.318
421.062
362.106
755.977
-290.895
-413.202
-1808.49
1746.96
476.538
-1143.65
667.116
-38.6616
1675.16
573.058
447.264
-1020.32
69.0165
1187.87
-1508.96
-2.86788
-1904.73
228.849
-538.208
264.739
273.469
-861.758
576.851
-935.69
488.642
-1172.85
700.604
472.247
392.968
289.593
-791.332
-315.435
1265.52
920.341
727.608
-1224.16
474.994
749.162
513.428
729.032
-1242.46
-364.014
-251.381
417.601
-999.783
456.37
543.413
21.8071
-1949.5
1123
-483.763
-509.428
580.163
-1432.18
852.021
-437.554
830.525
-420.376
508.457
-1033.65
1883.05
403.847
-179.453
139.684
-169.949
-247.152
417.101
1962.64
-522.71
-1737.57
1084.28
-438.237
239.186
-1054.34
575.46
-309.84
567.339
938.304
-1505.64
-1066.37
438.587
-20.9242
-2018.56
1717.35
-652.76
-475.546
479.805
-1238.63
758.825
197.982
220.236
-205.959
796.684
729.325
816.369
672.129
-355.104
1126.62
-520.248
466.107
-186.62
-279.486
-1996.03
-645.7
-293.494
-332.519
-1.4552
333.975
436.8
-258.743
590.029
1076.63
-826.797
961.177
1293.89
-441.468
-204.322
-261.473
465.796
954.835
-908.971
-345.91
-1109.56
635.854
1611.73
-823.598
560.275
969.098
-403.06
765.627
-362.566
1162.67
-220.717
326.448
1402.74
-731.615
-231.799
468.179
-1247.08
778.9
-980.282
-174.959
1155.24
460.396
-994.659
534.263
196.154
188.922
262.328
808.353
-126.4
886.347
-442.005
1122.8
-739.713
574.773
-1522.49
947.716
-1258.39
1865.18
-443.687
-1564.1
911.817
-1456.67
-330.789
-419.726
1514.07
-1580.55
817.046
1546.89
201.478
264.629
-367.301
-1789.3
-312.258
-1026.21
1616.24
-1815.35
1815.35
1601.64
-1044.82
-661.472
-350.435
352.228
607.821
-368.857
-375.069
-1442.63
929.569
1164.8
625.026
1165.04
1852.79
-1257.99
-628.732
250.179
1720.72
-1988.05
267.333
845.279
-1316.53
1603.54
-585.631
816.607
316.116
-344.923
576.556
826.23
632.385
1400.24
-235.34
-462.464
-371.278
337.147
-223.16
490.779
766.011
-308.819
-157.666
-337.505
591.26
-253.755
26.9061
-387.257
1147.13
-1785.02
-468.238
-499.445
-590.372
898.571
713.162
-1657.71
937.516
-469.974
-636.964
-533.496
1301.17
358.959
1787.78
-1765.98
-1718.63
1962.01
-1590.69
864.164
726.527
-373.885
-1862.68
953.11
605.954
851.483
-419.321
1862.06
-707.423
-414.074
684.996
463.016
-1148.01
-1142.47
462.944
782.909
-1677.47
493.519
933.46
166.832
-369.741
202.909
-1619.92
-400.744
-431.326
1016.82
-692.2
1498.58
-974.04
1854.72
233.899
-548.993
497.456
-295.978
492.203
924.217
565.852
1013.18
-481.541
-440.906
597.429
916.645
-1310.79
-35.2103
1626.78
-857.836
541.883
1005.01
-1533.16
-1073.71
1791.24
-1240.53
-550.71
1254.55
-332.915
-921.632
-182.17
438.204
-256.034
-463.501
-248.551
425.074
-176.524
151.242
-402.623
1751.9
-1753.17
-469.187
-553.91
-931.986
411.192
-186.985
-224.207
429.327
-459.144
-358.87
-331.546
690.416
-987.02
438.521
-1175.78
686.347
400.73
-650.815
-448.945
1627.47
-881.251
552.318
-476.401
-592.758
-481.105
43.6662
-41.4877
-2.17858
-1136.53
439.46
-691.021
-1071.69
1762.71
-611.286
-1477.94
742.441
585.088
-1656.7
1071.61
-391.051
-485.579
172.346
540.554
-1307.65
774.155
562.338
1041.2
-2207.88
1024.83
1183.05
-370.39
54.9964
-49.2028
-5.79362
1534.95
-393.523
467.403
1144.47
605.844
940.787
590.508
547.979
-1138.49
170.449
-450.319
-1713.24
274.502
1151.72
-628.653
540.288
1050.45
-1590.74
1130.99
-1705.04
175.457
729.761
560.564
-906.474
-1098.49
-109.006
292.027
-183.022
-509.53
-438.325
-661.302
-411.628
205.67
-1680.68
975.813
-494.903
201.021
-380.474
537.861
-309.013
-617.489
1244.44
-1314.47
931.608
382.866
-1025.96
-373.697
-780.542
-850.089
1748.66
-495.63
1798.32
-1593.05
-205.27
-1615.28
1054.49
560.788
-748.144
-135.202
248.867
-113.665
-604.766
397.128
288.471
-685.6
-544.471
1021.86
651.924
-361.166
-1664.71
1082.68
595.53
1142.12
-1737.65
-421.634
-307.996
-381.61
-768.636
-475.209
-340.322
516.675
1617.07
-1031.98
-805.804
1554.88
688.862
-324.048
753.027
1189.32
-1942.35
297.215
325.106
-505.736
-2005.03
1785.13
219.9
770.056
-492.191
-277.865
554.524
1097.93
-1652.46
43.6662
-1733.2
-241.81
1814.37
-1634.99
1113.51
521.485
-1739.72
6.52132
-541.855
54.9964
1764.21
-1785.13
975.387
649.029
-1624.42
223.334
-136.752
-86.5823
-416.131
-289.939
58.6045
36.6231
-171.826
-452.016
-451.087
-424.689
231.463
1558.7
395.518
-238.68
-437.896
386.107
-158.548
341.554
1567.35
1099.94
-237.833
-862.111
-1144.19
1768.68
-1794.26
1103.24
-734.854
-1059.4
-1307.65
1910.14
-602.495
1196.84
-1837.09
640.251
139.861
-911.53
1738.15
45.2535
-1783.4
-511.99
-1118.9
-1751.9
-1013.14
572.229
1055.36
614.456
1172.66
-1787.12
296.464
-474.09
731.944
-397.434
380.898
960.177
706.854
-408.105
-647.613
607.101
1110.17
-1717.27
-412.356
-387.794
800.15
447.791
-1724.81
1578.41
146.404
608.805
-1086
566.648
1122.32
-1614.54
1028.91
-249.829
247.072
332.679
1974.31
431.996
-91.8939
1024.55
741.941
-1766.49
-720.572
1122.94
-1616.15
168.55
-586.693
173.212
212.895
-667.298
-592.806
606.244
1072.23
-700.785
-290.222
-1422.22
703.124
719.098
-365.102
825.291
121.828
-947.119
583.686
-142.556
1615.28
-226.708
277.889
-797.036
-2005.03
1726.52
1009.36
61.1528
322.466
451.459
-966.433
-1029.6
-1829.97
663.054
1756.57
533.039
-493.45
1259.46
1127.21
-434.677
1042.5
-1018.28
515.473
502.807
727.203
1087.32
-1814.52
507.933
498.441
-1550.68
-777.381
31.6094
812.782
-428.323
-920.457
411.028
-559.551
-834.266
153.293
-600.002
1452.02
1094.51
142.891
149.137
-574.083
1680.16
-800.843
1584.32
-1791.66
598.866
1192.8
568.763
-919.117
-1797.94
1988.05
-190.117
1777.58
179.461
-564.097
122.337
-85.7139
-501.245
1260.07
586.762
1165.92
-489.519
455.114
893.767
-483.527
-805.871
440.353
365.518
1472.68
1130.06
-540.179
1477.69
-461.873
-398.351
860.223
-627.474
528.913
-1244.11
1756.12
1902.98
-713.66
1646.54
-671.154
-1290.51
746.036
-585.444
109.46
-193.602
341.569
-173.681
-540.447
-1289.87
1937.43
-647.557
1219.59
-572.792
1156.63
-1722.31
1749.29
-597.965
-565.622
-572.478
1782.63
-330.241
-716.541
-494.6
1273.5
-1744.65
-1926.48
636.603
360.301
-1004.63
169.04
217.863
-1781.3
1244.71
536.584
1203.88
573.696
-530.8
-487.89
1237.05
184.632
236.717
609.527
1293.46
-559.758
-1280.58
1840.34
-1064.01
1058.02
876.06
-211.351
-1720.72
1765.98
-531.767
1465.23
-1797.94
-385.527
9.1811
376.345
-277.869
610.375
-332.505
103.433
506.296
813.49
-390.285
1299.22
1281.96
-427.608
887.627
-454.728
1884.74
-687.893
1645.23
-1787.78
-428.234
-767.512
300.284
467.229
-580.991
-586.588
51.0987
-927.025
-1022.72
-695.686
1718.41
-973.497
-1234.38
153.224
-425.932
-674.273
732.065
1209.39
675.344
1465.31
-613.824
1662
1369.5
-595.346
-499.187
203.209
-524.781
1449
1288.7
-585.578
-925.558
930.45
54.0537
-984.504
543.759
-527.596
1457.17
1552.98
-612.191
-44.0887
44.0887
-613.294
1684.9
1289.97
-507.056
1158.87
-52.953
1850.77
-344.077
1547.35
-612.134
-528.288
1392.45
-679.567
1266.48
-586.911
1614.45
-615.7
764.383
604.92
-1369.3
-655.434
302.992
498.618
623.818
-2025.72
-1019.45
1645.23
44.0879
-44.0879
-76.3088
406.836
452.98
401.372
-23.5427
-264.688
925.574
-524.24
-441.456
848.292
-254.958
644.275
-414.188
1560.81
-460.465
-870.319
168.721
191.136
-359.857
624.117
1292.68
-1916.8
965.521
-476.879
-41.4877
130.657
-2013.39
1882.73
-470.956
193.802
1218.97
-460.848
-758.119
-323.118
-597.339
-509.855
-49.2028
-454.953
237.831
1204.26
-580.781
236.747
-394.577
157.83
-5.53655
-84.3862
604.267
-519.881
12.8911
-308.931
-610.464
-63.3136
63.3136
-1222.77
1964.71
-1187.21
-233.204
-1825.99
232.934
-1060.27
-1008.61
-188.142
-1700.15
733.716
1272.96
-1994.88
387.424
322.265
-709.689
-1915.64
1277.02
638.627
-100.079
100.079
-994.239
-8.31723
-1934.49
-581.525
1712.29
-704.384
1698.06
-625.824
-196.056
-1708.67
-603.496
-445.046
-619.002
-69.5596
69.5596
-1592.39
202.377
1390.02
137.538
161.523
-299.061
595.213
504.731
1037.35
-493.933
1813.41
799.986
-158.016
152.222
540.025
1765.86
-618.729
-576.215
1698.54
423.391
1879.47
-670.076
-1872.49
-2004.63
-672.029
-73.5024
73.5024
-617.013
245.736
-696.071
1059.99
-484.533
-1112.14
-296.633
793.382
1917.57
1694.59
-1694.59
-281.029
770.067
1825.25
618.183
1319.25
110.351
112.982
621.914
583.17
790.083
-790.083
228.021
-365.3
-449.517
355.786
989.949
-474.476
-665.532
-1170.43
1769.3
293.566
-1677.86
643.511
-288.167
467.628
1808.84
-616.039
-138.66
-432.466
401.113
748.171
1802.89
-638.085
-533.367
-771.051
2028.68
-901.328
-1127.35
1704.51
-548.242
1266.41
-1890.71
624.299
367.073
-916.066
-166.285
-19.3471
1141.16
-505.309
132.357
653.975
-1674.07
460.695
634.862
-1872.49
-606.568
1851.28
918.496
-1203.33
1824.86
-621.529
1847.88
-598.622
-1249.26
464.264
931.235
-1753.17
958.399
-1472.61
227.329
1245.28
-864.372
-1297.46
-133.259
31.1679
102.092
605.509
283.109
1063.42
-465.292
881.184
-415.892
853.54
765.507
-1619.05
668.009
1107.21
-2.7448
-376.975
379.72
-1810.64
751.243
720.439
77.5921
-1162.09
2005.8
-699.508
-1306.29
-560.433
1726.36
854.652
999.779
-1854.43
1271.16
709.256
-417.288
740.3
841.435
1069.81
-609.411
1825.25
649.608
1837.65
-1226.22
-611.429
-377.237
-348.121
725.357
90.7829
-991.59
1721.1
-564.467
-633.091
633.091
1292.56
617.581
1400.28
216.792
-564.18
291.016
-198.893
725.692
1153.78
500.966
-316.335
-903.794
-597.407
1746.65
-1746.65
497.807
-497.807
1022.45
1061.36
-2083.81
1903.88
-637.474
-604.294
849.79
-980.693
-1089.29
1036.12
717.26
-1753.38
-83.0664
-378.947
-649.112
-837.485
2114.5
-1289.56
-636.91
1037.64
1008.9
1335.13
670.67
341.311
1047.98
235.039
348.198
480.582
1820.07
-1820.07
660.93
20.2576
-149.052
-1032.35
-564.561
1723.43
989.654
1010.35
-1898.95
-232.21
-371.285