/*--------------------------------*- C++ -*----------------------------------*\
  =========                 |
  \\      /  F ield         | OpenFOAM: The Open Source CFD Toolbox
   \\    /   O peration     | Website:  https://openfoam.org
    \\  /    A nd           | Version:  7
     \\/     M anipulation  |
\*---------------------------------------------------------------------------*/
FoamFile
{
    version     2.0;
    format      ascii;
    class       surfaceScalarField;
    location    "2";
    object      phi;
}
// * * * * * * * * * * * * * * * * * * * * * * * * * * * * * * * * * * * * * //

dimensions      [0 3 -1 0 0 0 0];

internalField   nonuniform List<scalar> 
11512
(
159.155
-495.23
336.075
-737.522
-14.1984
751.721
399.274
-377.082
-22.1925
609.261
286.956
-896.217
1511.25
-1069.47
-441.78
1216.3
-1527.14
310.842
-81.1257
483.556
-402.431
168.611
-843.134
674.522
962.172
-1610.86
648.688
-1749.82
1657.33
92.4911
-542.946
1759.24
-1139.54
1933.49
-793.953
609.529
181.114
-790.644
-23.411
-1307.09
1330.5
218.586
-1968.4
1025.25
-380.893
-644.357
-161.041
320.195
487.094
190.747
-677.841
1156.69
-1312.45
155.76
-303.279
379.944
-76.6654
995.154
-1301.81
306.658
1221.46
798.772
-2020.23
69.9292
-1630.71
1560.78
-449.345
-1184.93
1634.27
478.584
182.126
-660.71
-201.566
-293.663
498.386
1012.86
1637.27
-1792.53
155.254
-77.6341
-1696.09
1773.72
-1558.38
648.397
909.983
-305.485
654.651
-349.166
-196.394
-154.521
350.916
1276.84
-1206.92
355.138
-1407.53
1052.39
-1754.35
1754.35
100.551
1520.22
-1620.77
-1075.44
-482.941
633.591
-714.717
-382.332
941.571
-559.24
1332
-1317.37
-14.625
-1100.61
718.275
629.809
395.441
-377.382
-51.4543
428.837
-423.392
742.618
-319.226
-1618.54
1618.54
1253.6
-1437.91
184.306
-488.23
1709.69
1257.17
-315.598
1660.76
-1161.27
-499.491
88.7789
-392.058
2063.82
-1133.74
-930.085
1801.65
-164.379
458.044
156.237
-614.281
-446.692
966.217
-519.525
-1161.16
1261.71
-569.355
971.858
-402.504
403.97
752.72
661.933
-493.322
-438.736
598.293
-159.557
1190.75
-835.609
2308.18
-1080.65
-1227.53
1162.93
-2006.71
843.779
-1591.78
1568.37
440.834
-1580.37
-759.287
1250.94
-491.652
-674.069
368.584
1661.49
-699.317
-1106.93
-870.891
1977.82
650.191
-343.483
-306.708
689.599
567.57
-258.202
1511.81
121.108
-323.753
202.645
-285.017
763.601
-336.055
568.204
-232.149
-324.764
811.858
-319.043
-152.045
471.088
330.824
68.4502
1444.64
-449.485
-955.347
472.17
483.177
284.285
88.6677
-372.953
951.039
-341.51
-1699.81
668.882
1030.93
14.9185
-843.516
828.598
-283.177
599.056
-315.879
156.221
-1093.72
937.501
1052.05
-1067.58
15.5314
373.039
519.835
-892.874
-245.629
703.673
-1104.2
-481.874
1586.07
-678.89
951.849
-272.959
1361.56
-1439.19
-604.887
268.328
336.558
-470.184
-1011.6
1481.78
-540.97
-791.34
1332.31
576.83
-997.127
420.297
-266.989
-318.354
585.343
411.988
-290.88
-1032.58
585.891
955.328
-799.107
-110.279
944.152
-833.873
-212.991
422.621
-209.63
-613.406
-341.94
-386.743
963.573
1856.38
-1856.38
-446.044
-158.843
-955.794
1544.87
-589.078
499.961
-938.005
438.044
-924.766
355.411
-941.912
-1058.08
-1482.66
349.001
1133.66
-292.372
901.633
-296.305
608.307
-312.002
-1941.91
999.994
-1129.68
-352.982
534.889
-1490.68
1728.52
-1725.44
-3.08475
220.636
-595.709
375.073
-1445.41
971.683
473.729
293.906
210.336
-504.242
312.446
-648.501
245.248
-422.642
177.395
2013.14
-864.924
-1148.21
-544.586
167.203
619.777
830.702
-1450.48
-185.244
430.492
430.993
877.295
-1308.29
-911.174
396.391
514.784
-1043.25
1447.22
-1068.95
309.659
755.273
-100.622
521.046
-270.268
-250.778
982.123
-509.953
593.271
-1404.03
810.759
-1342.46
238.259
-550.132
266.955
-1176.21
883.841
1946.49
-987.392
-959.1
276.804
1579.58
-2090.77
892.488
1198.28
369.246
-31.0015
-338.244
-224.531
484.587
-260.056
-119.208
-374.235
493.443
-470.894
151.85
343.673
-128.669
628.63
405.056
392.585
-797.641
-2031.06
1102.76
928.293
461.99
-535.971
73.9802
223.987
-366.365
142.378
1032.71
980.426
1771.28
-251.063
692.992
-424.664
797.611
-1390.36
592.747
326.552
323.639
1040.98
-1026.06
-513.778
-209.803
723.581
483.058
-139.503
-343.555
798.589
-617.474
579.519
-733.774
154.255
503.329
1157.43
-1240.18
699.208
1053.5
-1502.84
-3.13973
-1439.43
1442.57
324.34
826.013
-1150.35
623.884
269.982
-893.866
-2270.62
1128.85
1141.76
-1105.24
-1165.38
217.745
361.774
958.55
-634.209
879.643
-899.359
19.7161
-2099.38
992.451
-227.931
-191.31
419.241
-41.6262
1770.15
-816.186
78.6636
-1025.35
-1065.42
-230.785
454.771
-639.479
193.436
-247.004
-424.775
671.779
1104.07
-1574.26
783.241
-1374.62
591.374
692.586
-405.63
1947.89
-1444.56
-378.29
-1376.06
89.2845
394.272
-526.292
512.094
0.0211521
-557.797
557.776
573.216
-279.31
-607.79
281.694
326.097
778.61
-373.554
33.972
335.274
1188.47
-1191.61
184.063
227.925
391.026
-638.03
620.324
-1007.07
-2026.69
2026.69
-234.976
-450.6
685.577
699.441
405.888
-1105.33
580.149
175.124
391.628
386.982
-2199.74
1328.85
-927.099
-678.213
1605.31
-499.18
-677.033
-269.121
539.446
-270.325
822.043
-171.552
-650.491
-418.032
638.667
378.813
-675.118
-333.413
-141.812
475.225
-1318.75
-473.773
602.797
-1101.98
-374.16
-1244.38
844.318
1463.86
301.624
-934.076
632.452
967.351
-337.542
1391.54
-798.272
449.118
-265.055
-331.026
-867.385
550.36
317.025
-308.265
-559.121
305.267
-424.476
-222.42
-152.153
374.573
-392.729
1092.17
435.893
-245.146
-398.235
1339.45
-167.729
-1171.72
-466.105
262.544
203.561
237.264
228.325
-465.589
34.1372
-767.911
592.053
-1728.98
1136.92
1480.44
-860.661
-1048.74
-396.674
-1058.2
573.122
485.079
1364.62
-392.941
929.713
-1411.59
-158.089
-214.842
372.931
-470.095
582.761
-1626.02
427.984
904.012
256.38
300.79
-557.17
568.078
1186.27
1105.48
-717.602
-387.88
410.919
-222.522
-188.397
-1419.48
444.346
739.234
-1183.58
1473.49
-543.775
-494.686
911.99
-417.303
426.14
1186.17
-1612.31
47.2922
-726.182
-144.075
428.36
220.333
-416.728
516.738
465.385
-635.229
68.0919
567.137
1024.55
-1307.68
283.133
661.181
-269.553
468.203
-1447.27
979.067
423.788
1685.18
-522.249
915.367
1031.12
-664.053
-1684.43
757.332
568.228
385.194
-953.422
452.526
78.7003
1749.82
-1828.52
1443.79
-379.492
-1064.3
1699.06
-1740.68
-368.602
-506.184
717.18
-210.996
-502.593
188.152
294.906
-373.243
-1226.02
214.428
-764.554
-639.476
-673.649
1006.3
-332.652
-654.197
644.285
9.91179
655.145
-923.814
268.669
-753.018
376.462
376.557
-649.376
-674.936
358.207
316.729
-932.411
1400.61
-407.778
881.828
-474.051
-2205.3
5.55804
185.792
-541.019
355.227
140.845
1198.6
-92.1179
-547.361
162.2
-600.936
1487.29
-704.052
373.008
-468.233
95.2251
-566.913
566.913
1223.08
395.459
1777.76
-1229.47
588.946
640.528
850.993
-52.4043
1291.08
772.737
-539.725
1337.34
295.344
303.712
284.978
-791.162
235.784
-659.176
233.183
-447.306
214.123
-220.747
570.32
-349.573
135.999
-356.746
-592.237
-564.548
1156.79
-353.823
510.747
-156.925
-1192.16
2032.05
-839.886
1290.75
-332.203
-403.852
136.863
-1980.13
795.206
1512.06
-841.452
-670.613
1986.92
-877.407
-1109.52
713.408
577.345
-241.558
474.741
-676.589
1122.74
-446.152
-770.493
1201.49
551.443
924.725
-1724.64
799.916
-529.778
-67.8991
597.677
283.421
237.625
414.37
-112.819
-301.551
897.03
-83.4365
-813.593
896.406
-540.24
-356.166
1576.23
-472.158
885.968
-1624.57
738.601
1068.49
879.396
751.736
-447.262
-304.474
-1059.09
-258.281
552.893
583.751
-1136.64
-437.362
480.961
-43.5994
580.802
-349.347
-231.455
-980.886
573.108
597.437
883.001
-441.855
1097
1400.88
-766.028
-634.856
400.996
-927.534
526.537
-998.022
384.616
529.854
-1024.54
441.793
-496.634
54.84
458.925
283.694
-518.217
-48.696
-794.874
-876.044
1670.92
197.864
213.055
-212.671
430.416
-37.7147
-528.227
565.941
484.661
865.758
-1350.42
-537.09
314.67
986.033
-89.0032
836.744
-1065.2
228.455
373.766
846.949
-1386.67
-438.378
830.962
1975.21
-1281.74
-693.469
270.22
609.423
256.04
796.012
69.9372
-950.386
880.449
1673.76
-1089.1
-584.653
-137.786
1887.61
-1866.03
-160.661
483.852
-622.035
138.183
-1015.92
526.126
489.793
-1730.48
538.319
-955.999
845.72
392.843
205.45
590.962
-289.338
-427.993
713.306
254.045
86.1844
710.614
-796.798
-1135.08
-894.762
2029.84
-529.678
1080.69
-551.012
-445.941
-337.089
109.158
-1653.04
858.163
-885.984
-575.696
1461.68
-332.447
-295.53
627.977
368.489
-636.583
268.094
230.23
-603.784
297.894
218.215
-516.109
322.452
-591.572
609.241
-240.752
316.119
-468.164
668.548
397.976
-160.712
-364.427
-310.508
1211.92
-4.02702
-1207.9
1040.4
-420.076
561.154
410.705
-1782.39
869.832
912.56
497.401
538.617
-1036.02
-536.358
203.912
-262.074
1180.23
-918.156
-1590.91
1212.62
504.693
-1096.93
390.343
-17.3351
419.836
289.283
-709.119
374.618
-620.247
-28.2322
754.325
-726.093
-526.424
796.405
370.114
323.103
527.89
655.885
72.7005
-379.933
307.233
1059.23
-645.412
-413.814
494.001
-1664.27
1170.27
-1140.48
1753.25
-612.771
1715.8
-1123.74
-335.697
617.39
-1181.5
1251.44
425.426
-796.165
1593.24
-797.073
-237.571
-228.535
-886.269
1468.73
1810.38
-611.763
-1198.62
-404.931
629.343
-1302.99
-124.794
-29.0905
443.461
-669.499
-354.171
-1236.74
-228.469
458.699
904.149
-563.762
189.528
-1674.44
-71.1611
1745.61
-1045.92
516.242
572.507
-1180.14
607.637
901.229
909.153
630.874
620.065
666.698
245.292
-1117.88
441.293
-408.006
408.027
624.19
-516.065
255.036
-737.059
482.023
663.072
-336.519
-340.183
185.662
-582.9
216.344
366.557
-889.055
-735.515
1087.67
-2145.75
401.07
-686.087
-343.016
-724.567
832.36
568.524
-353.641
302.187
351.904
195.023
669.512
-864.535
528.811
593.93
-515.686
182.273
363.36
-598.337
-1040.9
-851.787
1892.69
-1787.64
156.932
1107.44
-1369.51
1150.46
-737.02
-413.443
-503.19
1350.14
-1495.58
627.865
867.713
-288.095
-210.955
499.05
1428.38
558.54
314.77
-456.582
-488.368
-562.156
1050.52
-416.556
602.348
1581.93
-1128.27
-453.661
-756.513
305.913
655.035
404.192
-1623.43
416.151
1207.28
-207.356
505.25
798.012
783.915
193.428
-665.447
472.019
209.935
212.686
-295.93
-110.023
405.952
459.818
5.58527
-465.403
-1624.24
575.501
-1598.56
1661.1
-62.5486
8.28373
-1606.84
1069.63
737.918
-318.082
-793.24
-204.782
-1134.58
-240.03
-312.462
687.08
-1812.23
-620.981
1204.73
205.52
760.697
-1328.41
-678.295
-465.163
585.422
-329.042
-1013.29
1350.75
-1932.78
582.032
645.609
1287.88
487.698
-3.11132
718.101
696.568
-1414.67
-642.689
341.711
300.978
442.083
-100.247
-341.836
159.383
276.696
175.952
-452.648
-571.985
1140.21
473.43
-594.286
-462.837
-402.033
864.87
-338.933
180.843
-462.731
171.851
-307.126
-708.793
550.503
-108.42
-567.755
968.752
580.587
-270.47
-310.117
457.305
-782.07
-645.019
421.21
-1129.43
-828.098
1177.1
-569.77
463.473
260.107
-433.625
90.1423
1029.93
-317.124
594.521
-277.397
-509.044
1578.68
-667.099
217.864
384.342
-602.205
208.139
458.832
-14.0157
-444.816
-252.356
-210.374
1012.61
1108.98
564.779
-859.598
931.706
-72.1077
-457.272
169.177
-711.014
286.239
-601.092
314.145
348.927
805.885
-1218.12
412.237
778.724
-806.956
-949.005
-550.377
1499.38
-147.073
447.863
-516.355
246.087
1298.22
754.34
-560.912
1298.2
-695.403
488.202
-691.245
-418.719
-424.688
-378.901
803.588
504.077
-845.587
-429.051
77.4878
351.563
-326.931
572.385
731.219
-330.149
-248.49
-176.737
425.227
-494.598
151.798
342.8
1455.52
79.4148
-1534.93
-747.819
1345.26
-1144.75
-466.108
531.57
-147.228
1149.12
-370.394
1083.53
492.699
692.008
-407.03
-885.235
-522.291
-1328.5
-30.5694
985.116
-954.547
596.987
308.9
-905.887
-311.609
-232.977
-681.727
405.513
1621.18
-159.526
358.192
356.723
-714.915
-1839.8
-2106.67
1519.14
587.536
-2036.87
340.787
342.439
538.505
-880.944
-460.227
1021.38
-375.262
-674.713
1049.97
-2030.52
1391.21
639.313
601.081
-976.343
58.9909
382.803
387.171
204.212
244.906
311.759
943.52
847.405
682.701
-327.911
-354.79
-296.255
624.872
-328.617
575.936
529.546
565.79
515.067
-1080.86
-796.289
-699.289
753.651
395.468
-423.407
691.501
-1193.43
1609.58
401.021
-1075.73
-314.127
532.343
-1384.44
856.482
527.963
-716.861
-358.513
-797.682
376.836
420.846
446.974
718.76
-1165.73
1066.85
-569.449
-388.555
652.504
-263.949
255.034
325.553
-469.392
-432.176
901.568
-245.591
545.315
-937.486
392.171
-468.998
600.599
-1681.25
423.692
671.487
-1095.18
524.581
83.7262
113.406
-2212.78
530.345
-66.8715
1443.62
1777.09
-217.554
-1559.54
-438.386
1789.13
-1986.82
1194.42
792.402
406.8
344.936
-29.6043
861.964
-1283.72
719.171
-871.424
-824.094
793.524
317.195
47.6663
-364.861
230.27
185.301
-415.571
1546.28
-828.184
-1530.95
-325.432
458.292
-185.095
-273.197
396.376
367.225
229.284
356.137
-7.8024
1000.8
-992.996
372.893
260.717
-633.61
-733.999
1817.25
-1083.25
-343.227
739.603
-1210.14
-410.628
-917.028
484.852
554.249
-769.083
214.834
763.917
-382.507
-381.409
-416.773
-442.825
447.185
1058.66
1235.25
-662.746
803.02
-345.715
388.563
297.014
-258.662
-209.571
-188.558
612.346
408.214
-849.62
441.406
195.587
358.192
-553.779
-424.119
832.334
754.833
-1147.56
873.936
-68.051
-493.966
272.65
768.33
-95.3891
1383.27
1890.5
-78.569
341.113
-319.8
392.5
-1084.9
1077.09
602.177
376.696
387.22
50.0719
408.22
268.332
483.389
-370.108
-272.582
-564.671
-89.5266
-355.658
371.412
-15.7539
-258.861
-291.27
1011.17
-1540.74
529.571
-205.714
-171.368
-383.219
643.935
-1624.26
1591.09
-963.227
240.199
-658.918
584.306
1224.43
-1808.73
607.403
983.689
288.56
-1117.75
689.758
-288.34
-268.83
1367.18
-1439.81
818.859
620.946
399.175
-611.03
211.854
-347.032
471.429
-124.396
358.896
100.922
1723.5
464.207
-254.272
557.611
-1704.8
1147.18
-90.3222
394.723
343.538
339.163
-448.507
-616.299
1064.81
424.2
-862.578
-641.507
903.266
570.222
-503.783
-249.235
-440.528
-409.092
-307.103
-827.482
1821.11
-1821.11
-106.83
-1581.7
1688.53
292.677
288.125
-917.448
-555.231
1472.68
-408.281
974.071
-582.419
-1041.82
676.35
381.857
-1058.21
481.557
-165.437
573.056
1220.35
-1793.41
-1044.19
2116.43
-1072.24
-373.355
-300.714
-491.744
797.657
-1746.06
1596.74
149.321
1746.06
-1599.1
-146.97
-248.304
528.076
-279.772
-537.275
1620.81
1554.69
-1965.32
1060.97
-282.025
-240.307
522.333
247.71
-561.837
-687.565
264.159
1340.36
634.853
575.8
487.384
-1063.18
287.284
404.725
875.514
500.116
-1375.63
529.381
-1017.75
1574.97
-563.805
-776.829
-369.354
-102.931
472.285
-489.883
1208.64
-743.237
334.88
368.793
349.359
261.741
-611.1
597.069
832.118
-603.663
268.414
663.291
-503.783
-315.66
-218.536
534.196
1168.6
-664.063
612.181
464.257
-1076.44
-1287.84
1287.84
-387.992
764.688
-289.758
-472.408
762.166
479.764
451.08
-930.844
386.861
-676.619
615.397
-869.013
253.616
-367.347
-497.825
1073.62
-663.165
-708.122
1371.29
-374.522
919.837
-1552.67
675.263
41.7082
-398.764
357.055
-489.753
683.189
235.696
334.624
173.519
308.038
-501.577
213.237
1869.01
-1964.4
273.419
-691.451
442.299
-821.702
379.403
-923.563
1402.87
-479.302
-429.856
-487.171
600.657
1124.22
-1724.87
-717.225
343.87
-459.394
1035.33
-765.009
1033.42
-381.546
-631.951
-468.61
704.394
541.587
-359.461
903.964
-297.383
-197.215
1599.02
-1816.57
-343.965
-593.521
-329.321
481.119
242.584
-571.626
-183.725
1052.73
-780.08
220.734
-271.822
-290.817
562.639
397.682
-871.197
473.514
-489.862
-440.918
-934.076
-325.132
553.853
-228.721
-444.927
-412.35
-313.656
-202.453
-373.699
635.44
-447.621
744.634
-1073.4
624.898
-1410.68
524.701
-27.346
-1832.72
1860.06
569.845
-449.174
1197.33
-681.09
321.16
-321.16
669.144
-427.632
1043.29
-1625.71
-1158.73
-947.943
294.816
330.055
878.188
715.049
-479.036
-302.968
782.004
1655.08
-1682.43
-435.029
354.006
219.21
1135.45
-523.269
-943.331
1550.47
-607.138
447.956
-243.744
388.09
360.566
-748.656
522.216
476.712
-998.928
-332.379
667.259
-37.7535
1906.76
1578.18
993.053
-1697.11
727.393
-1177.37
449.977
-492.454
1367.97
838.345
-1341.54
-534.928
252.903
789.723
-404.529
556.1
-1186.74
630.643
-640.373
-1215.54
-695.631
1911.17
-208.469
538.316
-329.847
-164.45
276.014
-484.483
324.27
376.234
-700.504
-1478.2
758.099
720.105
884.141
-1434.52
827.543
-431.152
223.749
-367.824
-567.048
251.388
-627.886
-756.559
699.633
505.472
-1205.1
397.278
-205.488
-191.79
557.087
-959.591
-555.74
-425.388
711.627
-831.261
-1155.56
-1437.98
499.606
938.378
18.8119
-610.468
324.498
285.969
-1306.71
1044.78
261.924
-617.333
-456.071
-666.064
922.104
405.086
-207.684
-197.402
508.116
980.77
-1488.89
973.296
-564.392
167.362
397.03
-380.992
664.371
-390.952
-510.275
180.954
234.605
-1516.35
534.991
531.86
-724.636
234.882
163.299
-460.682
376.027
-816.945
1954.16
-1195.39
-758.767
400.651
-651.321
250.67
325.287
318.007
130.808
-448.816
-559.306
197.154
267.053
-691.688
1374.44
-682.756
424.1
446.831
-1163.69
269.214
1866.78
-1013.59
-853.19
785.287
-509.483
184.351
1402.41
-975.226
-427.184
341.065
-768.697
-616.476
1725.45
614.822
620.431
321.468
-4.27299
275.816
-1138.47
1725.72
-587.249
-1763.52
820.184
1746.73
-1678.76
-67.9743
-657.453
249.447
553.794
-691.839
223.229
1402.85
-564.504
396.243
434.72
-1858.48
1420.1
525.347
-406.621
-118.726
218.29
-531.945
-272.804
-173.137
-354.7
698.238
-563.889
194.535
601.653
555.187
-1156.84
1113.71
-1947.37
833.662
169.755
305.47
-1698.35
1660.59
322.809
-729.84
-163.552
387.302
748.053
680.834
-1428.89
1068.74
-1072.77
530.353
-1099.8
-633.927
255.915
378.012
506.842
-290.499
-590.108
-1035.6
303.083
-715.433
-912.319
191.284
168.352
228.926
374.498
301.274
-675.772
-624.044
-833.841
-978.389
495.017
-1054.32
-272.273
475.834
536.48
640.618
-280.827
-123.025
-408.203
696.764
278.805
-1196.44
572.393
1304.73
-556.674
447.271
-1003.01
-389.247
157.498
367.849
1023.47
551.5
-1710.22
1603.39
1620.5
-548.142
-1072.36
1901.63
-1889.69
-11.9448
189.03
-508.829
-330.254
550.987
-758.505
-313.585
-343.868
1030.4
693.861
-1490.98
797.123
354.466
-26.1926
1625.21
-1066.73
402.668
-1222.49
445.658
-59.5249
1515.04
1197.65
-470.253
-489.774
-74.6172
-258.525
735.997
-1951.54
-712.657
344.972
-536.391
191.419
191.853
-508.977
1139.9
671.533
-1811.43
-582.645
176.024
942.202
-1497.43
-210.49
678.959
-468.468
879.816
1120.18
-733.066
1347.89
579.431
-469.731
-109.701
-350.643
1169.5
1031.99
-1980.86
948.866
-1168.52
547.537
1488.87
-585.604
-359.424
-156.262
-1238.9
576.15
1159.34
-128.412
946.022
775.34
-1721.36
-218.79
578.367
-1541.78
963.41
486.982
916.772
-1403.75
613.635
591.098
374.719
-1106.66
591.881
1104.06
1216.18
-452.44
-763.741
-1186.2
-1754.95
-9.05046
-1701.17
-207.151
-403.878
1605.09
-624.992
-980.095
-490.885
1121.76
-1315.4
638.32
677.076
-1359.84
1439.25
-1327.89
594.822
1520.57
-384.641
-550.682
191.258
-1471.71
244.814
176.386
211.289
368.142
434.012
387.583
-821.595
506.308
-939.154
901.142
-1444.92
-678.58
232.35
446.23
-1035.56
463.571
-466.356
862.598
697.335
34.6849
-513.453
183.606
-886.565
-1318.74
-717.919
351.867
366.052
407.698
-725.001
317.304
-481.793
-189.389
-709.97
716.033
1539.4
-593.374
807.941
738.343
1344.89
-844.772
-971.51
-570.267
-799.733
428.072
371.66
-1037.41
-645.617
306.518
339.099
-1433.7
-296.783
-792.743
399.911
392.832
-635.746
385.057
250.689
-665.927
274.975
412.829
488.739
390.086
442.248
480.045
384.825
597.397
-970.64
667.461
472.752
454.49
356.815
-811.305
1630.78
-1079.93
-550.853
-504.379
-280.252
-1026.45
455.501
348.087
409.67
594.909
-1004.58
-1378.56
753.563
-536.933
1144.57
352.466
-75.7698
412.271
-867.165
454.894
-1890.28
308.582
442.556
-727.814
285.258
-185.767
408.607
-222.84
-664.74
311.997
352.743
-677.139
322.349
371.277
393.412
613.296
-1021.58
754.153
660.261
-1414.41
438.797
626.01
340.643
393.496
-734.139
410.793
328.81
603.823
666.847
391.818
583.156
-1007.73
424.57
-1665.12
1204.77
460.347
1696.61
-539.172
622.369
-1147.77
525.404
-644.562
349.031
437.341
-936.483
499.142
731.701
-442.419
351.634
346.604
556.817
-900.781
650.374
-1253.86
603.488
355.661
735.241
-1225.12
770.05
509.381
-1279.43
473.3
409.175
-882.475
-501.596
-936.387
-306.787
631.057
352.7
542.567
-895.267
334.453
332.806
-502.176
1944.74
437.733
-848.095
410.362
-917.979
-806.662
-751.056
369.647
-1203.71
438.703
-1725.3
1599.1
126.202
1741.95
-1596.74
-145.211
-786.243
-596.708
268.469
328.239
-1746.73
1965.32
538.238
792.092
-1330.33
440.083
716.702
690.643
385.643
-1076.29
-87.0682
1617.16
-593.684
380.21
817.121
-651.898
327.904
323.994
-378.756
-298.641
553.675
-227.127
437.462
282.55
-669.77
387.22
267.452
-583.332
-284.949
442.5
-1034.33
591.833
538.035
1092.75
366.096
597.477
312.864
353.343
-666.207
1610.56
-916.696
1691.56
-1520.14
-171.423
-329.256
-825.245
416.153
857.661
-1068.15
-610.567
281.95
-1090.63
1628.66
-1573.69
-81.6917
1655.38
-342.098
-350.801
-370.621
535.588
599.862
-505.056
-30.9147
-550.111
510.618
-284.732
-225.886
1735.86
-1288.68
-628.206
301.274
326.932
406.786
357.271
734.899
-298.151
-399.19
-1741.95
1682.43
459.491
-1101.57
642.082
-44.4307
1647.82
571.592
476.497
-1048.09
104.746
1145.13
-1452.23
-18.7997
-1871.48
230.847
-601.789
308.475
293.314
-955.906
612.89
-899.86
470.003
-1129.09
674.108
454.978
350.037
269.264
-748.3
-312.547
1217.94
887.149
698.924
-1183.19
456.163
727.022
494.246
701.364
-1195.61
-358.389
-249.149
417.501
-961.847
438.442
523.405
21.2669
-1879.75
1080.75
-465.352
-486.551
557.839
-1378.4
820.562
-418.928
798.331
-405.522
494.565
-712.157
1724.77
417.826
-188.901
217.227
-174.401
-247.23
421.63
1895.31
-504.106
-1681.67
1052.09
-604.447
305.806
-1014.85
554.626
-314.117
544.23
905.458
-1449.69
-1104.32
438.251
-20.5997
-1943.8
1709.23
-677.238
-541.166
460.667
-1190.84
730.176
189.999
215.087
-283.105
766.876
701.853
839.315
819.424
-462.609
1085.5
-460.287
483.074
-196.531
-286.543
-1922.22
-714.761
-319.24
-644.607
-6.72742
651.334
471.636
-274.482
560.334
1050.22
-797.37
926.08
1244.62
-425.334
-208.253
-219.25
427.503
955.814
-888.648
-331.467
-1068.63
612.558
1552.27
-794.173
537.57
935.109
-386.118
736.535
-350.417
1130.73
-277.336
316.511
1349.93
-704.193
-223.34
448.286
-1198.9
750.614
-1007.37
-86.4585
1093.82
443.104
-956.809
513.705
176.167
732.724
483.457
745.63
-76.1182
854.519
-425.759
1182.9
-797.252
551.977
-1465.58
913.605
-1216.66
1800.97
-431.713
-1510.19
879.842
-1402.13
-294.84
-414.278
1457.37
-1521.41
785.891
1491.54
205.025
278.048
-346.976
-1725.3
-300.62
-1002.14
1562.47
-1756.16
1756.16
1554.69
-1004.58
-636.349
-329.873
368.506
605.565
-359.08
-355.438
-1389.94
897.487
1125.18
600.542
1202.99
1789.48
-1216.43
-605.339
275.105
1658.89
-1916.31
257.421
813.754
-1267.41
1545.28
-561.594
769.33
311.36
-324.894
554.489
795.651
684.696
1345.14
-205.696
-444.965
-343.548
498.958
-342.721
471.673
736.97
-288.428
-160.387
-318.517
566.093
-247.576
25.3209
-374.668
1107.51
-1720.28
-420.717
-475.88
-564.108
864.56
687.712
-1596.62
904.928
-451.631
-613.331
-513.197
1252.43
319.247
1723.62
-1702.35
-1655.08
1889.69
-1560.92
840.347
720.575
-351.985
-1793.72
917.672
582.75
820.099
-397.897
1794.21
-680.502
-400.137
670.623
417.777
-1088.4
-1099.09
444.068
753.578
-1617.2
473.17
901.274
180.511
-407.634
227.123
-1588.13
-380.27
-416.439
990.337
-666.503
1443.03
-974.956
1854.77
243.426
-545.322
501.532
-296.506
474.316
893.653
542.998
977.571
-462.705
-428.073
573.799
883.572
-1392.71
-40.9878
1566.34
-827.993
519.948
971.596
-1475.89
-1115.9
1764.24
-1243.25
-520.99
1206.23
-318.878
-887.351
-195.439
459.753
-264.314
-457.534
-251.829
436.434
-184.606
150.218
-399.367
1723.19
-1732.24
-445.887
-530.84
-903.677
449.711
-210.38
-239.331
636.858
-441.169
-354.206
-295.469
649.676
-919.716
360.595
-1167.5
676.617
423.937
-626.487
-447.367
1567.18
-852.134
530.18
-457.766
-571.833
-462.5
366.977
-356.761
-10.2164
-1085.69
404.6
-664.619
-1033.75
1698.37
-588.285
-1422.76
714.638
562.136
-1596.29
1034.15
-366.331
-484.497
139.006
527.691
-1258.62
745.42
539.212
1006.07
-2133.18
999.992
1133.19
-340.661
414.82
-389.705
-25.1145
1478.11
-359.228
449.547
1225.59
582.01
906.86
568.65
527.296
-1095.95
170.271
-426.756
-1678.76
266.815
1127.61
-604.786
518.406
1013.86
-1532.27
1092.89
-1643.74
195.028
678.909
536.503
-867.97
-1086.61
-173.752
432.704
-258.951
-587.401
-414.158
-636.959
-630.759
347.654
-1618.28
940.063
-476.676
217.008
-405.908
539.161
-308.315
-593.836
1197.31
-1257.05
917.595
339.452
-1025.04
-343.697
-751.737
-819.615
1684.18
-476.797
1792.25
-1578.96
-213.298
-1556.67
1018.77
537.894
-720.574
-263.117
447.013
-183.896
-581.571
384.101
277.639
-661.74
-523.76
975.327
633.711
-351.761
-1620.31
1050.54
571.748
1103.58
-1675.33
-396.968
-297.971
-366.769
-740.236
-455.351
-331.733
505.252
1558.01
-995.876
-775.841
1497.47
664.389
-310.383
725.881
1152.37
-1878.25
268.975
289.729
-487.003
-1930.83
1718.95
211.881
741.64
-474.766
-266.874
531.815
1060.87
-1592.69
366.977
-1719.97
-233.208
1752.34
-1580.72
1073.8
506.916
-1718.12
-1.85021
-521.503
414.82
1698.35
-1718.95
939.929
624.138
-1564.07
387.489
-221.323
-166.166
-393.91
-272.017
74.1329
95.4618
-358.579
-435.522
-433.491
-411.564
225.797
1510.29
378.747
-218.519
-417.227
467.383
-200.33
303.424
1510.81
1005.62
-152.539
-853.084
-1104.14
1704.8
-1728.71
1064.1
-707.017
-1021.7
-1265.09
1844.99
-579.897
1155.08
-1771.1
616.02
273.26
-878.432
1675.59
43.4638
-1719.06
-491.155
-1083.1
-1723.19
-983.104
555.032
1019.65
590.2
1133.07
-1723.27
294.677
-441.905
706.769
-384.419
358.79
925.213
680.098
-377.988
-629.737
582.872
1072.6
-1655.47
-396.13
-373.982
770.112
409.557
-1660.59
1520.14
140.454
585.777
-1045.17
544.741
1083.92
-1555.72
994.127
-241.084
241.545
309.442
1901.63
397.591
-88.8663
995.867
722.753
-1718.62
-697.585
1085.39
-1557.55
169.802
-572.4
200.251
267.132
-645.158
-558.554
582.425
1034.73
-711.339
-261.392
-1368.89
676.851
692.038
-420.009
780.089
49.3314
-829.42
561.495
-137.133
1557.23
-221.564
262.329
-767.842
-1930.83
1664.64
1039.73
376.462
290.109
441.593
-930.385
-991.835
-1767.27
640.016
1693.78
512.993
-474.129
1211.1
1087.19
-424.993
1030.56
-980.229
496.054
484.175
699.929
1048
-1747.93
488.802
479.95
-1494.07
-748.399
30.7965
782.62
-412.973
-880.892
394.341
-538.278
-803.258
632.452
-576.905
1397.47
1055.14
196.679
236.025
-550.596
1618.54
-771.093
1525.25
-1727.84
575.231
1152.61
547.268
-884.81
-1732.58
1916.31
-183.728
1721.75
185.272
-542.875
370.831
-275.369
-481.311
1211.49
568.27
1128.34
-491.425
437.608
860.455
-465.013
-775.46
421.874
353.586
1418.53
1089.65
-518.133
1423.06
-510.707
-533.594
1044.3
-602.728
453.551
-1190.57
1691.56
1839.58
-687.209
1585.49
-645.564
-1241.7
717.936
-562.284
205.206
-396.516
459.282
-246.596
-521.149
-1246.71
1870.94
-624.225
1173.6
-551.227
1120.3
-1659.47
1686.99
-573.915
-544.284
-549.803
1720.07
-317.677
-688.008
-473.279
1223.89
-1680.14
-1860.1
613.386
278.431
-928.922
172.12
216.799
-1719.03
1204.16
514.865
1162.86
558.888
-510.836
-465.365
1192.39
177.848
230.759
588.443
1251.14
-539.172
-1238.59
1777.76
-1025.51
999.991
866.791
-204.155
-1658.89
1702.35
-510.03
1411.3
-1732.58
-370.933
28.9552
341.978
-270.208
588.143
-317.936
57.4202
492.94
783.578
-375.88
1257.54
1271.01
-413.354
853.998
-437.845
1817.41
-662.325
1586.49
-1723.62
-412.774
-726.193
300.237
425.956
-558.985
-563.168
79.7293
-1138.82
-985.656
-669.388
1655.04
-943.71
-1189.47
156.994
-397.302
-648.949
705.554
1167.46
649.952
1410.39
-590.293
1636.76
1318.23
-572.814
-497.112
200.606
-503.263
1396.92
1240.32
-563.467
-999.991
895.017
52.2262
-947.243
603.45
-506.102
1403.59
1495.11
-588.248
-370.839
370.839
-589.358
1623.51
1239.74
-486.166
1134.17
-76.7776
1850.5
-399.259
1489.52
-588.375
-507.669
1348.02
-653.96
1218.84
-564.883
1554.82
-591.411
740.98
572.076
-1313.06
-648.955
274.856
479.484
599.837
-1957.3
-971.51
1586.49
373.178
-373.178
-75.8782
390.993
436.55
362.705
-3.80941
-347.044
878.464
-522.803
-425.443
816.436
-246.181
624.193
-438.446
1541.21
-444.338
-884.158
190.626
228.191
-418.817
601.166
1250.78
-1851.95
928.516
-458.513
-356.761
126.154
-1943.01
1816.85
-455.244
190.189
1181.41
-440.443
-740.963
-310.25
-570.641
-490.661
-389.705
-484.515
258.629
1158.81
-558.943
231.283
-387.125
155.842
-22.7278
-107.673
1376.06
-1268.39
34.5185
-599.189
-586.349
-454.861
454.861
-1262.36
1985.12
-1344.41
-219.183
-1823.47
244.508
-1025.76
-974.241
-189.074
-1636.83
706.44
1229.32
-1924.95
373.312
310.425
-683.737
-1850.01
1234.27
615.736
-562.707
562.707
-959.315
-40.0415
-1866.03
-558.129
1650.88
-678.107
1636.18
-601.447
-168.806
-1702.68
-588.279
-436.084
-594.77
-468.7
468.7
-1537.81
194.523
1343.28
176.298
227.795
-404.094
487.875
517.748
998.141
-474.736
1751.3
768.966
-425.667
400.552
519.636
1702.05
-594.543
-552.954
1636.87
475.356
1812.71
-645.252
-1803.74
-1938.08
-646.885
-480.759
480.759
-579.929
236.381
-683.022
1020.35
-465.725
-1070.42
-283.394
1579.58
1852.31
1635.33
-1635.33
-280.505
739
1761.48
595.781
1275.16
176.273
211.216
561.91
594.486
1603.52
-1603.52
225.044
-351.689
-432.961
463.811
952.862
-456.808
-640.202
-1131.04
1706.27
282.91
-1641.17
599.347
-290.346
475.617
1744.64
-592.038
-217.436
-407.263
382.871
721.186
1738.57
-613.391
-511.754
-775.655
1960.53
-870.45
-1090.08
1642.82
-707.001
1223.98
-1824.94
600.959
309.631
-854.952
-186.162
-106.819
1098.94
-486.378
121.282
604.426
-1640.02
443.67
596.911
-1803.74
-583.268
1787.43
884.768
-1162.94
1760.49
-597.547
1783.84
-575.516
-1208.32
439.587
927.755
-1732.24
924.895
-1506.11
281.832
1224.28
-831.652
-1254.23
-382.565
76.5482
306.016
581.703
272.432
1023.49
-447.938
848.562
-400.624
821.735
737.015
-1558.75
643.471
1066.22
-24.2961
-664.048
688.344
-1744.25
722.554
694.138
150.6
-1122.73
1936.75
-674.542
-1262.21
-537.173
1665.51
824.762
962.164
-1786.93
1227.87
683.304
-401.31
713.306
834.62
1029.36
-586.261
1761.48
627.099
1773.56
-1185.64
-587.926
-373.571
-313.156
686.727
121.443
-1185.74
1660.56
-540.262
-1437.83
1437.83
1250.58
594.412
1351.64
206.374
-571.313
284.4
-195.732
699.038
1113.67
486.541
-308.694
-870.648
-574.268
1734.09
-1734.09
1005.08
-1005.08
987.329
1025.17
-2012.5
1837.94
-613.959
-581.101
805.853
-947.847
-1052.16
998.467
690.19
-1688.66
-518.217
-330.32
-646.023
-808.418
2042.69
-1246.43
-613.671
1002.97
974.849
1289.77
646.98
328.013
1012.69
233.144
335.64
1186.27
1756.87
-1756.87
672.188
80.0573
-390.174
-997.049
-539.989
1674.16
989.366
1010.63
-1833.27
-225.927
-362.352
601.635