/*--------------------------------*- C++ -*----------------------------------*\
  =========                 |
  \\      /  F ield         | OpenFOAM: The Open Source CFD Toolbox
   \\    /   O peration     | Website:  https://openfoam.org
    \\  /    A nd           | Version:  7
     \\/     M anipulation  |
\*---------------------------------------------------------------------------*/
FoamFile
{
    version     2.0;
    format      ascii;
    class       volScalarField;
    location    "34.5";
    object      p;
}
// * * * * * * * * * * * * * * * * * * * * * * * * * * * * * * * * * * * * * //

dimensions      [0 2 -2 0 0 0 0];

internalField   nonuniform List<scalar> 
7807
(
0.218077
-0.0231615
0.330663
0.203695
-0.000668493
-2.10403e-06
0.32558
-0.00358139
-7.49753e-05
0.0770488
-1.98678e-06
0.00119623
-0.0054783
0.0344936
0.080688
-0.0127538
0.230012
-0.00740007
-0.00181612
-0.083802
0.0466646
0.00070855
0.0238583
0.157749
-0.00967795
0.226654
-0.00062545
0.0441384
0.130951
-0.000936332
-0.0152604
0.452348
0.023225
-0.000281682
-1.61327e-05
0.0615829
-0.00082528
0.315292
-0.00529685
-0.000113449
-0.00516132
-0.0119284
-0.0966685
-0.084604
-4.71358e-05
-1.11259e-05
0.000686097
-0.00533366
-1.3546e-05
-0.0838375
0.00203733
0.041515
-0.0121723
-0.0144583
0.0607756
-0.00350787
-0.00164643
-0.00341634
-0.0222929
-0.000271316
2.6727e-06
0.002783
0.0348393
0.00137515
-0.000390963
-0.0154735
-6.38152e-05
-6.75776e-07
0.0478121
-0.00503483
-9.72338e-06
-0.0552647
-0.0094143
-0.0161505
-0.00720798
-0.031897
0.326792
0.0457186
0.0287898
-0.0503492
-0.00531134
0.278151
0.0718842
-0.018705
-0.00142755
-0.00120111
-0.00406577
-0.0119127
-0.000595196
-0.00245858
0.134011
-0.096309
-3.66084e-05
-0.00107452
-0.00221346
-0.0146301
-0.0525817
-0.0120381
-0.00148313
-0.000505064
-0.0295288
0.0363771
-0.00212763
5.54614e-07
-0.0865682
0.137699
0.381831
-0.00366171
2.26881e-07
0.0181452
0.190725
-0.0684307
-1.03275e-07
0.0195307
0.138003
0.000100613
-0.0932764
0.107923
-0.0403651
-0.0175427
-0.0281174
0.264465
-0.092104
0.00625846
-0.0272163
-0.000821709
-0.0131717
-0.000748661
-0.000415318
-0.015346
-0.151967
0.0302058
-0.000382381
-0.000664533
-0.0191962
0.183703
0.320312
7.33189e-07
0.00545787
-0.0386568
-0.0148052
-0.0548301
-0.0334838
-0.0155232
0.380859
-0.0320304
0.131747
-0.0240179
-0.0190427
0.264118
0.0584205
-0.0841148
-0.00136646
0.0272406
0.0716183
0.29338
-0.0381624
-0.00520262
0.391665
-1.13112e-05
-0.00170824
0.163628
-3.22024e-06
-0.00269326
-0.00247062
0.205309
0.205838
0.408528
-0.00279314
-0.00175923
-6.35885e-07
-0.023594
0.000100613
-0.0166747
0.00604643
-0.0189092
-0.0638024
0.109526
-4.26888e-05
-0.000364562
0.208793
-7.15666e-06
-1.74132e-05
0.330101
-0.0284064
-0.0542169
-0.0385492
-0.0163613
-0.0345014
-0.0396375
-2.98359e-06
-0.0503042
0.115223
-0.00226095
9.41879e-06
0.154784
-0.000658179
-0.0144675
-0.0317928
-2.50796e-07
0.000143275
0.188735
0.14428
0.291252
-0.0867125
-0.0639881
-0.152863
0.0487033
0.185904
-5.20096e-05
2.36524e-06
0.357039
-0.0108492
-0.000372429
-0.0486244
-0.0138587
0.266367
0.271213
-0.0594984
0.439941
-0.000615789
-0.00704617
-0.0298507
0.0592338
-0.120457
0.187631
0.38682
-1.28385e-06
0.00687734
0.115971
-0.00450985
0.10521
-0.000569684
0.441648
0.285699
-0.003854
-2.21053e-05
-0.000104046
0.105876
-1.21858e-05
-0.00817142
-0.0418015
-1.39919e-05
-0.00152535
-0.000495882
0.120845
-4.72162e-06
-0.00254059
-0.0496941
0.447839
0.0226125
0.413603
-2.43953e-06
-0.0336379
-0.000134083
0.307489
0.00262133
0.321288
-0.00172803
1.62463e-05
-0.0120445
0.0513455
0.000207492
-7.10585e-05
0.000158797
-0.00479936
-0.0571489
-2.44148e-06
-0.036769
-0.00236283
-4.08094e-05
-0.000414099
0.314748
-0.00477165
-0.000301534
0.404591
-0.00156055
0.207838
-0.000136187
-0.00806128
-2.88962e-07
-0.0340056
0.0564995
-0.0552681
-0.0233094
-0.000320028
-0.0702478
-0.00985739
-3.7125e-05
0.000151766
-0.0023762
-0.00499553
0.00179552
-0.00120782
-0.0180073
-0.0522017
-0.0168026
-0.0711786
-0.0211272
0.289156
0.301664
-0.000948661
-0.0892258
5.0198e-07
-0.00282254
-0.0143507
0.153358
0.0820768
1.52651e-05
-0.00262297
-0.0206019
0.129303
-0.000824789
0.002301
0.000531852
0.0149623
-0.166754
0.282114
-0.000848399
-0.0274028
-4.03081e-05
0.00155212
-7.77418e-06
-0.020991
-0.000123864
-0.00438337
-0.121339
-0.0314736
-0.00652952
0.00613809
-0.000288202
0.0128173
-0.0129969
0.0492443
0.123971
-0.196246
-0.0913131
-0.0100514
0.00326334
-0.0417496
0.415548
-0.0798236
0.0268741
0.431947
-0.000826214
-0.00117598
-0.0937087
-0.00116826
-0.0287106
0.00462265
-0.00159147
-0.00111366
0.123236
-5.06029e-05
0.000194455
9.69593e-06
-0.00196228
-0.0081599
2.84584e-07
-0.000536821
-0.021369
0.363239
-0.00656022
-0.0103767
0.361583
0.234974
0.0393759
-0.0762752
-0.0236109
0.00301882
0.198932
-0.00728703
0.240838
-0.0389578
-0.112311
0.146888
0.243794
-0.032793
0.0757973
0.185786
0.218441
0.0469908
-0.002168
-0.00324477
-2.02237e-05
-0.00914492
-0.00737731
0.00012654
-2.53093e-05
-0.00102103
-0.0682075
0.0509255
-0.0129106
-0.00625835
-0.00238717
-0.0285364
-0.00480348
-0.000597936
0.158164
-0.00100958
-1.12371e-05
-5.42633e-05
-5.56073e-06
-0.0159741
0.119234
-0.00255388
0.0250592
-0.133604
0.306765
0.000736222
0.00462402
-0.00392617
0.303862
-0.000487057
0.279129
0.134893
-2.72145e-05
-0.0408765
-0.00194975
-0.0538988
0.000207519
0.0476403
-0.00253464
0.00420697
-0.000403211
0.107743
0.132262
-0.0607405
-0.0229925
-0.00254822
-0.0315017
0.0254379
0.443587
-0.0874254
0.00173779
1.05356e-07
-0.0101014
-0.0012883
0.0110446
-0.104344
-0.100998
0.325147
0.118183
-0.140435
0.164075
0.294612
0.0268262
0.000299566
0.210181
-0.00104074
-9.63314e-05
-0.00997015
1.44674e-05
-0.16802
-0.00661133
-0.0312267
0.000919756
0.15929
-0.00101039
-9.19495e-06
-0.117674
0.000829015
-0.0010072
-0.0291383
-0.0337431
-0.051543
0.117322
0.0944725
0.0974333
-6.77294e-05
0.0420793
0.0560161
-0.000396815
-0.0126253
0.000232426
-0.00239397
-0.0137537
0.00320329
-0.000730933
0.0996123
-4.2282e-06
4.6427e-05
0.0010539
-0.0145294
0.0164723
-0.0277231
-0.0177684
-0.0516355
-0.139846
-0.0078472
0.203422
-0.105803
-0.00486385
0.441795
-0.0529947
-0.00857039
-0.0177193
-0.0113717
-0.0129427
-0.00772531
0.0229503
-0.0870953
-1.11773e-05
0.0195939
-2.18076e-05
0.287361
0.057388
-0.00348908
-0.00840169
-6.06981e-05
0.278461
0.264467
0.0242786
0.108766
-0.0582819
0.325932
-4.4492e-05
0.00146009
-0.0105913
0.115582
0.397859
0.0119735
0.11296
-0.00541052
-7.5134e-05
0.0945868
-0.129915
0.29198
0.0018159
0.174726
-0.00509249
0.309671
0.250403
-0.00664627
-0.00569563
0.0711216
-0.0346379
-5.69834e-05
-0.00982664
-0.0384248
-0.0688067
0.00895095
0.00649163
-8.20706e-05
0.268379
-0.00421447
-3.48913e-05
-0.047954
-0.000310332
-8.09327e-05
-0.000819946
0.175528
-0.10308
0.374328
8.24061e-06
0.174085
-0.0382414
-6.24696e-05
3.13419e-07
0.128881
0.168084
-0.00311112
0.149991
1.0994e-06
0.159427
-0.187301
-0.00689224
0.306268
-0.0457765
0.10047
-0.0162877
0.157686
0.16549
-0.0130955
-0.0166233
-0.00744242
-0.00176103
-0.000107243
-0.00406358
0.225959
-8.91465e-06
0.152528
-0.104082
0.256925
0.14378
-0.0379497
0.37371
-0.00113885
-0.00653112
-0.0729377
-0.0132284
-0.00494692
-0.0409578
0.0131169
0.418682
3.748e-06
-0.00133192
-0.0641833
-4.00749e-07
0.295129
0.000862162
-7.09911e-07
4.1211e-05
0.00012328
-0.019479
0.0105716
-0.00100567
-1.32674e-05
-0.00514105
-0.00204191
-0.110241
-0.0310266
0.0172961
5.20094e-07
-0.179451
-0.00909086
0.0778013
0.248792
-7.0511e-05
0.0854059
2.82026e-05
-0.00878406
0.068821
-0.00518562
0.190951
-0.0100999
0.00422359
0.0716627
0.115384
-0.00113806
-0.00746379
0.139901
-0.0806137
0.314797
-0.00714562
0.219268
-0.00680663
-0.00065302
0.106575
-0.0118011
0.0649567
0.000911174
-6.77386e-07
-0.126587
0.15213
0.000209314
0.0737633
-0.00955781
-0.178419
-0.0208662
-0.029053
-0.00111243
-0.00507876
-0.0649647
-0.0195287
-0.00704143
-0.000152829
0.334688
0.0808432
0.024339
-9.22573e-05
0.247611
-2.21212e-06
-8.24258e-05
0.0909997
-0.00858889
0.126915
0.043088
0.0114826
-0.0751063
-0.142952
-0.0535834
0.000562109
-0.0289476
-1.32921e-05
-0.000128301
0.183771
-0.0125106
-0.00191391
-0.0254983
-0.00128681
-0.000447123
0.401816
-0.00758986
-0.000405613
9.19467e-07
0.105666
-0.0289775
-0.000258912
-0.00166177
0.124098
0.0569472
-0.0309655
-1.071e-06
0.138485
-0.0167384
0.14982
0.0136387
0.0174825
-0.0215222
-3.20523e-05
0.0697582
0.0489188
-0.0177466
-0.0980389
0.22505
0.00408789
0.135371
-0.0067638
-0.0448735
-0.000170428
-0.00811019
-0.000129903
0.123771
0.202845
-0.00106025
0.0132704
-0.0119245
-0.0835518
-0.0902315
-0.00112716
0.00015664
0.390057
-0.0350026
-4.88853e-05
0.0568078
-0.00540588
0.334945
-0.00908094
-0.0191269
-0.0187335
-0.0211919
-0.0131473
-0.00549378
-0.00732163
-0.000503072
0.0062203
1.66753e-05
-0.180649
-0.0566528
0.28452
-0.0298977
0.132771
0.00103105
-0.0750846
-0.0264724
0.162549
-0.00554761
2.72833e-06
-0.0169568
-0.00673934
0.00343512
-0.0178256
-0.0171144
-0.0567737
-0.00929963
-0.0220945
-0.0757808
-2.89982e-07
0.0194349
-0.0655167
0.108733
-0.0852612
0.0647515
-0.0972732
0.258404
-0.0142653
-0.0219427
-0.0340228
0.349891
-0.151568
-0.0093323
-0.127061
-0.055956
-0.120356
-0.0762685
0.131254
-0.00199834
0.193782
0.00634225
-0.000290283
-0.0012991
0.0479187
0.438611
-0.000986604
-0.040509
0.130642
6.73698e-07
-0.0159773
0.0223419
-0.0305025
0.00646944
-0.00147725
-0.036151
-0.00476159
8.69909e-07
-0.0441133
0.201544
-0.0122832
-0.011463
0.000950303
0.130391
-0.000319683
-0.000753034
-0.00016019
-0.000985403
-0.000388778
-0.0164168
-0.00415594
-0.0133885
9.33559e-07
-0.137517
-0.118458
-0.156172
-0.0253552
0.0103904
-8.22631e-05
-0.0123663
-0.0500251
-0.0175255
0.257723
-0.00162682
-0.0429111
-0.00366597
-0.0106495
0.109323
0.000142105
-9.80353e-05
0.0793386
-0.0300321
0.00796485
-0.00215921
-0.00111406
-0.0487222
-0.000144148
-0.0155267
-0.007659
0.220442
0.200907
-0.0672344
-0.0649954
0.00496544
-0.00667448
-0.0412532
-0.0750165
-0.0308127
-2.96361e-07
-0.0433145
-0.0152597
-0.0820537
-0.00927706
-0.0288724
-0.000215634
-0.00201189
0.145561
-0.0208369
-1.27995e-08
-0.00158793
-0.139786
-4.94236e-05
-0.0368991
-3.86813e-05
-0.00120704
-0.107051
-0.0651362
-3.09783e-05
1.52676e-06
0.0902114
-0.058548
0.278729
0.209922
-0.0446253
-0.000846418
-0.026646
5.10821e-05
-0.14854
-0.112519
-0.0570877
-0.0118599
0.202422
-0.00155066
1.8656e-05
-0.00439121
-0.149629
0.000986582
-0.0439261
-0.0490662
-0.00935257
0.0111137
0.0465619
-0.00339581
-0.0197245
-0.0982224
0.137234
-0.0515269
8.38112e-08
-0.129317
-0.041202
-0.0605714
-0.00263842
0.000285184
-0.00566683
-0.113273
0.0175308
-0.0169777
0.0856115
-0.0700911
-0.000889304
0.00883936
-0.00556365
-0.0183324
-0.158229
-0.000117329
0.104561
0.151831
0.00373556
0.156493
-0.0902348
0.0275952
-0.0595141
0.14526
0.0685699
0.419611
-1.99301e-07
0.0643243
0.126634
0.00807473
-0.000705107
-0.00826253
-0.0577551
-4.95575e-07
-0.0103719
-0.0576625
-0.00883012
-0.0122311
2.28217e-05
-0.131149
-0.000252954
-0.000272608
0.174819
-5.76224e-06
0.0208136
0.0086655
0.150095
0.000108165
-0.000382096
-0.142116
0.00038165
0.267704
0.000393109
-0.0586454
-0.00020328
-0.000205252
-0.00240813
-0.0802323
-1.33142e-05
-0.00450568
0.0132241
-0.000624167
1.13937e-06
-3.68405e-05
0.107792
-0.0704776
0.00139025
-0.0003743
0.00216066
0.00843636
0.00146295
-0.000217906
0.276966
-0.12908
0.16029
0.235284
-4.81662e-05
0.0113099
0.0695523
-0.000340451
-0.000148488
-0.00045531
-0.0437741
-0.00336295
-0.0235837
-0.028693
-0.0652046
0.121317
-0.128966
-3.39987e-07
-0.0115241
-0.0161937
-0.0179351
-0.00184265
0.00112961
0.000371249
0.0153196
-0.000155488
-0.000223327
-0.0117329
-0.00227762
-0.0148592
9.70957e-08
-0.00871581
0.0186686
-0.0552041
-0.0589851
-0.00461438
-0.0064071
-0.00458715
-0.00254497
-0.00840695
-0.00442598
-3.19943e-05
-0.000279065
0.0100676
-0.00628241
-0.00257541
0.00252215
-0.00396959
-0.15141
-0.00643689
0.110575
-0.00609651
-0.0419204
-0.0237782
-0.0137865
-0.0086092
-0.00177323
0.00017994
-0.00177527
-0.00667141
-0.00837192
0.138678
0.101912
0.0226039
0.249204
-1.07186e-05
-0.00343389
-0.00800033
-0.00462971
0.0490484
-0.011336
0.0176593
-0.00421018
0.15288
-0.00108775
-0.00100363
-0.00752356
-0.0288071
-0.000106995
-0.0258653
-0.00281684
-0.0110747
-2.90397e-06
-0.00310342
0.000615099
-0.0105691
0.010183
0.0222042
0.0107413
-0.00784425
-0.018766
0.0800809
-0.000891997
-0.000873431
-0.000872565
0.363375
-9.84625e-05
0.0398084
-0.0106689
-0.0121393
-0.0129028
-0.0396479
-0.0149689
-0.0199686
-0.0123699
-0.00255896
-2.78234e-05
-0.00198803
-0.0107472
0.0670558
0.00055389
0.10272
-0.0194761
-0.0079149
-0.000297303
-0.0175318
-2.55532e-05
0.103914
-0.0183002
-0.0155722
-0.0144909
-0.00438059
-0.0253891
-0.000606239
-0.0235664
0.0695614
-0.0145257
-0.0819514
-0.000555093
-0.0150516
-0.011177
0.00831452
-0.00174008
0.0997214
-0.000983854
-0.00892905
-0.000401381
0.113224
-0.0228299
-0.0140749
-0.00136668
-0.00577214
-0.00149837
0.135895
-0.0231661
0.149374
-0.00434357
-0.000529876
-0.000480299
-0.00128127
0.124617
-0.0406946
-0.00409485
6.34463e-05
-0.0116315
-0.0269265
-0.000753552
-0.0241416
-0.00924033
0.0372623
-0.00243929
-0.00451528
0.334189
-0.0386173
-0.0130875
-0.0369705
8.64499e-07
0.0504359
-0.00169039
-0.0134719
-0.00324459
-0.0205363
-0.000150464
-0.000258587
-0.00124808
0.00127356
0.143433
-0.00261553
-0.000860072
-0.00245743
-0.0463854
-0.00438743
-0.0107842
0.000648379
-0.00428517
-0.00397267
-0.00167664
0.146283
-0.0270191
0.00117197
-0.00181526
-0.0144075
-0.00645609
-0.0281426
-0.000899226
0.0612753
0.0118498
-0.00443778
-0.000996018
-0.0084033
0.382451
0.144579
-0.00608355
-0.000185977
-0.00124451
-0.0129518
-0.00223647
0.0108846
-0.000232427
-0.0242586
-0.000824036
-0.00824933
-0.130839
-0.000788128
-0.0137479
-0.000559778
0.234847
-0.00437209
-0.00588833
-0.0654463
-0.000681999
-0.0150645
0.0136116
0.335441
-0.00616236
-0.00686088
-0.000801278
-0.000336666
-2.40509e-06
-1.50061e-07
-0.00576765
-0.000316918
0.0657395
-0.000468646
-0.000824568
0.00278515
-7.61141e-05
-0.0263142
-0.0706816
0.00954357
0.0248098
0.0155625
-0.00119983
-0.0654966
0.0604474
0.0464297
0.0654467
0.0851255
-0.00640301
-0.00041132
-0.00561629
-0.0790133
-0.00155517
-0.00814249
-0.016412
0.257746
-0.061504
-0.000172111
-2.76521e-05
-0.000512655
-1.07255e-06
-0.000787794
-0.000355574
-0.0046211
-0.027499
0.000122562
0.000781684
-7.44143e-05
0.0314671
-0.00778475
-0.0741124
-0.000951679
0.235745
0.21635
-0.00616193
-0.103531
-0.0154763
-0.0118982
-0.00832226
-0.000967165
-0.0919545
-0.046743
-0.0321943
-0.115588
-4.96418e-05
0.135976
-0.0325066
-0.00458559
-0.0445746
0.00950358
-0.00023048
-0.00495522
-0.000526844
0.000489498
-0.00136629
0.115824
6.64485e-05
0.00496991
-0.000120128
-0.136957
0.00404857
-0.000772586
-0.0132945
3.64361e-05
-0.0256969
0.0767133
-0.00545151
-0.000644497
-3.5133e-05
-0.000257139
-0.00019844
-0.0355447
0.0868209
-0.0322458
-6.79499e-05
0.000547245
-0.000232362
0.164886
-0.0375789
0.18812
-0.0258908
-0.000143853
-0.000197314
-0.00439784
-0.00272343
-0.000430048
-2.02419e-07
0.012582
0.0159678
-6.74642e-05
-0.000261357
-0.0106991
9.74756e-08
0.119494
-0.000504357
-0.0307461
-0.010978
-0.00298987
-0.0336251
-0.0425625
0.107085
-0.0390536
-0.0102903
-9.35114e-05
-0.0318295
-0.0101262
-0.0348525
0.0534585
0.263894
-0.000413871
-0.0350673
-0.00105649
0.234876
0.0229371
-2.76434e-05
-0.00349221
-0.0018976
-0.00275496
-0.0196037
0.0549469
-2.13445e-05
-0.0021095
-3.07391e-06
0.0400634
-0.000190591
-8.62961e-05
-0.126584
0.212254
-0.0313716
0.100679
-0.00128145
-6.60781e-05
3.59127e-08
-0.119685
-0.0170705
-0.000204227
0.0643004
0.00565655
-0.00290451
0.294904
-0.000348087
-0.00236319
-0.0393001
-0.046287
-0.000943695
0.0946903
-0.0846551
-3.25604e-05
-0.00303529
-0.000111974
-3.37314e-05
0.0958549
-0.0163895
-0.00013155
-0.0256331
-0.014104
-0.00142111
-0.0538646
0.000827822
-0.0109934
0.000344385
-0.00188278
-0.0394674
-0.0224753
-0.00407187
-0.000521735
0.109561
0.149969
-0.133872
0.00166539
0.00994136
-0.00241323
0.118752
0.0677638
-0.0135886
-5.33287e-05
0.002485
-0.0240595
-0.00534532
-0.0200199
-0.0011854
0.0159144
-0.017129
-2.62822e-05
-3.06231e-05
-0.0631315
-0.0252155
-0.0130389
0.00298722
-0.0359765
-0.0291505
-8.9363e-05
-0.00098266
-0.000115421
-0.0344772
-2.31534e-06
-0.000938331
-0.0637735
-0.130552
0.0647887
-0.00162558
0.00167751
-0.0147096
-0.0136603
-4.2522e-05
-0.0193039
0.0584185
0.111788
-1.43855e-07
-2.0543e-05
0.114134
-0.00139361
-0.110816
-0.0166054
0.00131228
-5.28155e-05
-0.0307304
-0.0582216
0.117268
-0.0241883
-0.000615789
-0.0138831
-0.0431701
-0.000284933
-6.14831e-05
-0.000473993
-0.0511948
-0.0267831
0.0936906
-6.20909e-05
0.353239
-0.0667257
-6.74792e-06
-0.000824811
1.38052e-06
5.36544e-06
-2.68644e-06
5.04155e-06
-0.0263907
-0.000440365
8.7929e-05
-5.0232e-05
0.0992113
-0.00290041
-5.45341e-05
-2.61827e-05
0.283363
-0.0133968
-0.0785454
0.000121731
-0.000349936
0.0284271
-3.9379e-05
-0.0162026
-0.176486
0.000755539
-0.00652094
-2.19466e-05
-7.69433e-05
-0.02058
-0.0838115
0.00333684
-0.159518
-0.094284
-1.63901e-06
0.0121872
0.0198801
0.0750883
-0.000715597
-4.37334e-05
-0.0358369
-0.0030911
-0.000370183
-0.0261985
-4.02491e-05
0.0140408
-8.8983e-05
-0.000445225
-0.0494016
-0.00212001
-0.0322089
0.340493
-0.0010988
4.40111e-05
-0.0453686
-0.0617408
0.00317027
0.0019793
-3.06733e-05
-0.0176579
-3.01181e-05
0.141725
0.404511
0.0351522
0.00114437
0.00130938
-3.21716e-06
-0.0191496
-2.67661e-05
-0.0105951
-0.000891696
3.30499e-05
-0.0014861
-0.0090386
-2.42131e-05
0.000194887
-0.010508
-0.000100405
-0.00886096
-0.0102162
-0.0233257
-0.00108433
0.36618
-0.000644311
0.000866825
3.60768e-05
0.00733632
-0.0243988
0.00441906
-6.04065e-05
-1.93702e-05
0.000440737
-3.82941e-05
-1.97064e-05
-0.0107109
0.000169574
-1.45864e-06
-0.0300904
-0.00234734
-0.0255555
-0.000800484
-9.10026e-06
-0.00129848
-0.0208263
-0.0119749
-0.0290879
0.000818044
7.92193e-05
-0.000208619
-0.000672234
-3.46656e-05
0.206427
0.00049265
-1.69662e-06
5.071e-06
-0.00120255
-0.000287959
-0.0281917
-0.0265516
-9.62029e-05
-0.00394207
-1.22471e-06
-0.00296688
-1.28686e-05
0.0217613
-4.81719e-05
-0.000124555
-0.00370315
-9.79132e-06
0.00703924
-8.50997e-05
-0.000527097
0.010552
-1.46305e-06
0.283588
-0.0327479
-0.0250132
-6.48229e-06
-1.14092e-06
0.000397074
-0.000454021
-0.0401412
-1.34833e-06
-7.25328e-07
0.000139571
6.08891e-08
6.96088e-05
9.37583e-05
-0.000184157
0.000198355
-0.0273954
0.363524
-0.036321
0.258396
0.0043698
-0.0152592
-2.00133e-06
-0.000284629
-0.00758816
7.8498e-06
4.70832e-05
1.92152e-05
0.0232973
-0.00140525
-0.000168713
0.332793
-0.000136276
3.90805e-05
0.000108411
-3.33131e-08
-0.0146567
-0.00131064
0.000321598
5.68057e-06
-0.000645686
-6.95108e-06
-0.00109038
-0.02745
-0.000134321
-0.00181826
4.37015e-07
-0.00323989
-6.07049e-05
0.138687
-0.000159163
-0.000291129
-0.0275997
0.00148411
-7.28589e-05
-0.000601797
-5.87956e-06
0.125557
-0.042905
-0.000378531
-0.000111769
-0.00235087
-0.000169713
0.0339172
0.074909
-0.00646673
-4.96339e-06
-2.36293e-07
1.90442e-07
0.0259222
3.90406e-05
-0.023548
-0.0327292
-0.0116294
-0.0745665
0.378502
0.000651046
0.143339
-0.0110052
-0.0187817
0.127885
-8.93786e-05
-0.0375057
-1.38605e-06
-0.0054992
-0.020187
3.11488e-06
-0.0489883
-0.000335102
-0.0244297
-0.00582428
-0.0174737
-0.0239289
-0.00383227
-0.0460334
-0.0183395
-2.19204e-05
-0.0053098
-4.12688e-05
-0.0163206
-7.94155e-07
-2.96463e-05
-0.00634428
0.120888
6.69738e-08
-0.0282874
0.00123581
4.10002e-06
-0.0183284
-8.99525e-07
-0.00579641
-0.00016018
-0.0163941
1.28948e-05
-2.51827e-05
-0.00169114
-7.33113e-05
0.117589
-0.0191733
0.0349824
-2.22688e-05
0.00014628
-0.0137348
-2.29116e-07
-0.0341605
-0.0354345
-0.0268932
0.358786
-0.00387831
-9.45609e-07
0.0141444
-0.0184463
-0.00273438
-4.10501e-05
-2.01333e-05
-0.0256513
6.99866e-06
0.000224845
6.0696e-08
7.07281e-06
-0.0123604
0.0664876
-0.0959142
0.0635062
-0.00306424
2.55392e-07
0.000595157
-0.0516674
3.18274e-07
-1.14414e-06
5.65652e-05
4.40923e-06
8.05486e-05
0.176705
0.0204378
3.2781e-06
-9.75375e-07
-0.0320998
0.15017
0.130615
8.48824e-07
-0.0217166
-0.0173478
-0.00994425
-0.0242306
-0.00834247
-0.00145004
0.103182
-2.0491e-05
-0.0163399
0.124536
-0.0296378
-1.66273e-05
-0.0285811
-5.03587e-05
0.23221
0.0129884
-2.29331e-05
-7.99773e-06
0.137662
-5.68493e-07
-7.06086e-05
-0.00539044
-3.5414e-06
0.190997
-1.92839e-05
-0.00336523
-0.0283341
-0.00209725
-0.0848771
0.136646
-0.022064
-0.0648595
0.00027377
-5.57995e-06
-0.000714663
-1.23088e-05
-7.02215e-06
0.00172918
0.134646
0.110276
-0.000210113
0.185888
-0.0155211
-1.19114e-06
-0.0196743
-1.46641e-05
-0.0179354
0.0140874
-0.01329
0.00135491
0.000594233
-0.00438633
-1.26563e-05
-0.000909485
0.00732289
-0.00106637
-2.95732e-05
3.45396e-07
-8.55851e-06
0.0189143
6.06901e-07
-0.0223523
0.195614
-0.00407363
2.72236e-06
-0.00157394
-8.23091e-06
0.031352
-7.61027e-05
-1.19749e-05
-3.40246e-06
-1.97812e-06
0.157966
-8.15947e-05
0.182073
-0.0462545
5.4785e-06
-0.039949
-0.000498071
0.115761
0.338073
-0.000470968
-1.49883e-07
-2.75111e-06
-4.11948e-06
0.0969833
-2.5063e-07
0.000213013
-0.010326
0.169996
-7.49408e-07
-1.81359e-06
-1.52276e-07
9.98597e-08
-0.0127161
-2.56287e-07
0.21384
-0.0142076
-1.04184e-05
6.60632e-07
-0.000757472
-0.0135361
-2.01507e-07
-5.57691e-06
0.123005
1.07688e-06
-0.0199979
-0.0778982
1.27306e-05
-2.99924e-07
-0.182699
-2.09438e-07
0.120459
-1.45337e-07
-0.000189889
-8.94517e-07
-1.86424e-05
0.0645864
-5.73837e-07
-0.000820072
-1.76993e-06
0.0016987
-0.00217518
-0.00272062
-0.00188124
0.113361
-0.000265776
-2.639e-05
-0.00403298
-0.00412456
-3.68975e-05
-5.55523e-05
-0.000500285
-9.32112e-07
0.127133
-0.00893758
0.374828
-7.32821e-07
-0.00411623
-0.00015478
0.093877
1.27168e-06
-0.019303
-1.26125e-07
-0.00073142
-0.0204448
-5.36042e-05
-0.00963506
-0.0314022
0.00113428
-1.07492e-05
-0.0593058
-5.43461e-05
-0.000345406
-0.00277176
-0.0225276
0.000203517
-6.6222e-05
-0.000165532
-0.000999011
-0.000550492
-2.27888e-06
-0.000480251
0.33477
7.98693e-06
-0.00139958
-0.0212244
-0.0280052
-0.0364766
-0.0214381
-0.0139386
-0.000591354
-0.0223006
4.46446e-06
-2.18178e-05
0.352463
-1.62936e-05
0.131083
-8.50657e-05
4.47961e-05
-0.00041473
-0.101962
-0.000143087
-0.00143239
-5.76201e-06
-0.000120163
-2.04413e-05
-1.72085e-05
-0.00668575
-4.45013e-05
-3.69421e-05
-1.52392e-05
-3.80797e-05
-6.90147e-06
-0.0303698
0.182603
-1.04267e-06
-0.000127371
-7.7773e-05
4.77578e-07
-0.000261755
-7.08661e-07
-0.000306699
1.4303e-05
-0.000100798
-0.0343204
-0.000256616
-0.00108807
-5.86516e-07
-0.0016739
5.66079e-05
-3.70322e-07
-1.62445e-06
-4.57016e-07
-0.000185655
8.52585e-05
-0.0305486
-0.0220533
-0.0320683
-0.000550732
-0.00216869
-0.0604002
-0.0297738
-7.15302e-06
0.00474755
0.00206428
-0.000255169
-0.00712906
-0.0222585
0.334139
-9.93248e-05
-1.78638e-06
5.8202e-05
8.27925e-07
-3.57941e-07
0.050843
0.000434667
0.0599594
-0.0383277
0.314439
-0.000106669
-2.7932e-07
1.31928e-05
-4.44473e-06
-0.000367062
0.110642
0.164795
-2.36385e-06
-6.29611e-05
-9.72457e-06
0.155501
-0.000421856
-0.00934365
-4.93406e-07
-1.6367e-07
0.00302192
-0.000155821
-0.0488781
-0.0106301
-4.63901e-06
0.00105795
-0.0254389
-1.00812e-05
0.000415938
-3.43534e-05
-0.0252478
-0.000503089
0.104493
-5.13295e-07
0.000491257
-0.00194606
-6.01624e-07
1.51888e-05
-0.0146807
-6.21714e-07
-0.00022402
-1.89769e-06
-0.00816974
-0.0224154
-0.00351941
-0.00946895
-0.00388655
0.00408868
-0.00513812
-0.000784937
3.61149e-06
-2.44181e-07
-1.20273e-06
-7.75187e-07
-7.05002e-06
0.00328706
-0.0498928
9.1699e-05
-0.0516564
-0.000997905
-0.0524851
6.69356e-06
-7.66474e-06
0.000342558
-0.113668
-7.2341e-07
-0.0487419
-0.0112687
-0.0379131
-0.0547298
-1.9664e-07
-0.00115481
1.63995e-05
-0.185634
0.0960763
-5.34778e-06
-0.0423492
-0.018283
-0.00149628
-1.70846e-06
-1.19793e-06
0.004964
-0.00673792
-2.99515e-06
-0.00322892
-1.5107e-05
1.71161e-05
0.0867138
-7.37684e-07
-1.09955e-05
-6.60124e-05
-9.08869e-07
0.000205504
6.90189e-06
-0.00190044
1.50553e-05
-0.00785213
0.000243316
-0.000104037
-0.0317012
-0.028312
-0.00360708
-6.98434e-07
-9.27096e-07
-0.0678458
0.00219328
-0.0287633
-5.22359e-06
-0.00284898
7.17716e-07
-1.40243e-06
0.0414521
-0.00253934
-0.000908539
-8.91127e-06
-0.0132059
1.03458e-06
-0.0406315
-2.1837e-06
-0.0470611
-1.02581e-05
-5.21813e-07
6.41541e-06
0.000257594
-0.125276
-0.00754396
-0.0521356
-4.17408e-06
6.16459e-07
-0.0435295
-0.0310034
-0.00323785
-1.34208e-06
-0.058239
-0.0418254
-0.0407061
-6.25731e-06
-1.71399e-06
-1.98586e-05
-0.11741
-0.0531483
0.000117083
-0.00418813
-2.36048e-05
0.17288
8.86025e-06
-6.1624e-06
1.36291e-05
-2.73598e-05
-2.33002e-06
-0.00194065
-2.63411e-06
-0.00141844
-0.0536511
-0.00519992
-0.0210169
-5.50043e-06
-4.45498e-06
0.0247845
-0.0737106
-0.00169365
0.077372
-3.51545e-05
-3.70502e-06
-2.86187e-06
0.069388
1.61585e-05
-6.27276e-05
-5.73086e-06
-0.0621713
-0.00631649
-1.24018e-05
-5.78437e-05
-0.00566132
-0.00235937
3.05243e-05
0.16676
-0.0534678
-0.000818605
0.442214
-4.87223e-05
-0.000588643
-0.00784586
-0.0362299
-4.23342e-06
-1.69043e-05
-3.53136e-07
0.00157101
-0.0339714
-0.000185074
-0.0348178
-0.00291425
-7.86183e-06
-3.48571e-07
-0.00392689
-0.0196063
-0.0471891
-0.112236
-0.0235214
-0.0236954
-0.0351922
-0.0203249
-1.34514e-05
3.7268e-05
-0.0164416
0.000106664
-0.000148936
0.000106025
-1.76214e-05
-0.00011669
-0.00469858
-8.20768e-07
-1.54051e-05
0.0132392
-0.0512382
-0.000257562
-8.65005e-05
-3.07937e-06
0.182182
-0.00399278
8.16345e-05
-0.0210585
3.17374e-05
1.88724e-05
1.94121e-05
-1.3098e-05
7.34611e-05
-0.0268924
0.00229359
-5.87258e-07
-0.000200671
-0.0331371
-0.0294687
0.030558
-9.32866e-05
0.000568323
0.00899606
-5.25125e-06
-2.86422e-06
-0.0501989
-2.74262e-07
0.118865
-2.20616e-05
0.00156341
1.89417e-05
2.07697e-05
-0.0355858
-0.00468836
-0.0112692
-0.00084339
-2.25962e-07
0.000166344
0.0394447
-0.00819629
-5.00332e-05
0.0641237
0.115741
-8.93904e-07
-0.032479
-2.34628e-05
-4.8208e-06
-5.20541e-06
-0.000116439
0.0103707
-3.02593e-05
2.13615e-05
-0.0113958
-0.0159127
-0.00857342
0.22944
-1.59552e-05
-1.57554e-05
0.12269
-0.0178644
-0.00214944
-0.000137059
0.12065
-1.32667e-05
-0.000444192
-3.08291e-05
-2.78181e-05
-1.39233e-07
-4.41216e-07
5.60304e-06
-0.00788679
-7.7732e-06
-0.00219905
-0.0247146
0.181143
-0.000326482
-6.50038e-06
0.00175538
0.0567939
-0.0511241
-0.000172016
-0.0288237
0.229886
7.48698e-07
0.300826
-9.19824e-07
0.000908532
0.0128598
7.26958e-05
0.317905
-5.36511e-05
-9.24342e-07
0.000173944
-4.4771e-07
-0.000191318
3.28178e-05
-8.84978e-06
-0.000757502
-3.88699e-05
-5.6054e-05
-0.00148741
0.17896
0.0280325
0.0116251
-0.0212286
-6.13117e-07
-1.1431e-05
0.000799013
-0.0577444
-3.78585e-06
-0.02417
-1.21968e-05
0.0708901
0.0394864
-0.0260471
-0.000622912
-0.00986725
-0.000234765
-0.00594273
-0.00234858
-0.00635614
0.0396396
-2.69004e-07
0.192052
-0.000979322
-0.000761321
0.155646
-0.00834805
-5.91418e-07
-1.13526e-05
3.49731e-06
-2.54041e-05
-7.13418e-05
0.180675
-0.000356121
0.186226
-0.00129735
0.119156
0.165379
0.0740584
-0.00428242
-4.69421e-06
-5.37012e-05
-0.00399535
-0.167971
-0.0388565
0.000420886
-2.52329e-05
-0.0197648
-0.000567908
-6.86719e-05
0.000255995
-0.000352285
-0.000981457
0.0186054
5.45124e-06
-0.0217277
0.0344202
2.69113e-06
1.89788e-05
-0.0125222
-0.0557945
-0.000231869
-0.00013838
-1.43772e-05
1.00443e-05
0.0439599
-0.0127749
-0.0397812
0.000331611
0.0577083
-0.0279437
-1.22711e-05
-7.02202e-06
-0.00920827
-0.00012763
0.0441953
-0.00598579
-0.00547904
-0.000188164
0.000358494
-0.0287278
-9.48224e-05
7.96119e-05
-0.016801
-0.0431641
0.108063
-0.0315122
-0.0182272
-0.000219202
-4.13211e-06
0.0029172
-3.40231e-06
-0.0389956
-0.0509396
0.000105913
0.000628556
0.00142155
-0.13407
0.00012125
-8.44819e-06
-1.92507e-05
-0.0295441
-3.39182e-06
0.000107872
0.0854905
0.130365
-0.154077
0.0307929
0.0288207
-0.00795685
-0.000281054
0.00127088
1.16795e-05
-2.85788e-07
-0.000162312
-1.31885e-07
-0.00013292
-0.000111802
-0.00453899
-0.0871629
-0.00605034
-0.0265181
0.0318536
0.0261452
0.00135583
-0.0519003
-2.12122e-05
0.00100572
0.00440623
-0.000150645
0.0477052
-0.00167051
-0.00795088
0.00389334
0.00228215
-0.00081757
-0.00231754
0.0229678
0.000139238
-0.0122954
-0.0111958
0.381753
-0.0192097
0.0527253
-0.00930124
-0.0355208
0.000604549
-3.81965e-05
-0.000857442
-3.34396e-05
-0.0007918
-0.0182902
-1.97142e-05
-0.000204813
0.216068
-0.00105769
-0.0268777
-0.00751622
-6.48862e-05
-0.00216023
-8.17468e-06
-2.78751e-06
0.0187739
-3.13081e-06
-0.000970187
0.0477443
0.00182275
0.000301399
0.00786021
-0.00338917
0.00156515
-0.15991
0.00012658
-0.00248186
-0.038833
-0.00062946
-0.00486499
-2.34104e-05
-0.00264931
0.000208853
0.0170507
-0.000483349
0.00205742
-0.0247546
-0.0140641
-0.00012418
-0.0219734
-0.00927104
-0.00698675
-9.72925e-05
0.00267791
-0.0729027
-0.000289374
-0.0032498
-0.0210541
-0.00361035
-0.000507647
0.165052
-0.0224042
1.2753e-06
0.00359837
-0.0448998
-0.00038952
0.142738
-0.00278554
0.00022699
0.038766
-0.000666687
0.00296706
0.0907988
-0.000288103
0.000295596
4.97551e-06
-4.85466e-05
-0.0015854
-0.00705369
-0.000354794
-0.0151128
0.0657976
-0.0184671
-0.0781963
0.000297439
-0.0015495
-0.000831166
-0.0721793
-4.44568e-05
0.00377253
-8.37983e-05
-0.00660715
-0.000708125
-0.00177098
-0.0840682
0.0800348
-0.0873279
-1.52215e-05
0.146247
-0.00178301
-0.00355148
-0.0328968
-0.0945733
-0.0105699
-6.06725e-06
-0.00141327
0.00291227
-0.00138244
-0.00267499
-0.000123414
0.0575692
-0.0416867
-0.00681098
-0.00242232
0.00294071
-0.00663983
-0.00502457
0.000490278
-0.000513071
-0.00131639
0.0782217
4.19069e-05
-0.175925
-0.00018807
-0.00273873
-0.00448338
-0.10637
-0.00769332
-0.136549
-1.70275e-05
-2.0525e-05
-0.00851045
0.00429822
-0.000101079
-0.167496
0.054954
-0.0366652
2.50772e-08
-0.190346
-0.000252594
-0.20473
-0.016592
-0.236397
-0.239857
-0.234298
-0.198717
-0.117394
-0.0845893
-0.0535082
-0.0223116
0.00943939
0.101152
0.131237
0.158797
0.205539
-0.00307235
-0.00550922
0.0317542
-0.0231689
0.000103092
-0.00139066
-0.0278145
-0.000253989
-0.00107136
-2.11048e-07
-0.0102973
0.00881736
-1.78081e-06
-0.000617513
-0.00390183
-0.0172414
-0.234133