/*--------------------------------*- C++ -*----------------------------------*\
  =========                 |
  \\      /  F ield         | OpenFOAM: The Open Source CFD Toolbox
   \\    /   O peration     | Website:  https://openfoam.org
    \\  /    A nd           | Version:  7
     \\/     M anipulation  |
\*---------------------------------------------------------------------------*/
FoamFile
{
    version     2.0;
    format      ascii;
    class       volVectorField;
    location    "34.5";
    object      U;
}
// * * * * * * * * * * * * * * * * * * * * * * * * * * * * * * * * * * * * * //

dimensions      [0 1 -1 0 0 0 0];

internalField   nonuniform List<vector> 
7807
(
(1.06911 0.145744 4.67333e-21)
(1.05749 -0.0431824 -1.53604e-21)
(0.981022 0.104628 -1.00377e-20)
(1.03212 0.0700967 1.29559e-20)
(0.99922 -0.000824487 -1.40669e-23)
(0.999972 -3.85185e-06 -1.18205e-25)
(0.980389 0.0838692 -1.94407e-20)
(0.995081 -0.0012334 -2.76233e-24)
(0.999893 -0.000145634 -2.04173e-24)
(1.02342 0.00143964 -5.30219e-22)
(0.999972 -5.50205e-06 1.37516e-25)
(1.00198 -0.00114478 -3.86841e-23)
(0.992721 -0.00140504 1.33554e-22)
(1.01982 -0.00176248 -2.92062e-21)
(1.02266 0.0017078 2.25341e-21)
(0.990263 -0.0143465 -4.62247e-22)
(1.07162 0.152819 -9.82337e-21)
(0.990302 -0.0017686 -4.77729e-23)
(1.0018 -0.00933506 3.37917e-23)
(0.974146 -0.111871 -5.8023e-22)
(1.03533 -0.00413902 -9.94287e-22)
(1.00129 -0.000708606 6.32894e-23)
(1.01784 -0.00325934 2.24655e-22)
(1.00972 0.0302219 -6.4271e-21)
(0.987392 -0.0021778 -2.1437e-22)
(1.06387 0.143405 -4.65015e-21)
(0.999263 -0.000788186 -9.73117e-24)
(1.02315 -0.00186432 1.21015e-21)
(1.00446 0.0141852 -8.03299e-22)
(1.00324 -0.0099983 -3.57423e-23)
(0.985149 -0.0147137 -7.57606e-22)
(0.929032 0.0128892 2.71856e-21)
(1.0177 -0.00401264 1.42643e-21)
(0.999571 -0.000307025 1.32717e-23)
(0.999963 -2.99747e-06 1.38239e-26)
(1.02356 0.000340182 7.71393e-22)
(1.00371 -0.0109611 -2.31559e-23)
(0.985787 0.0824507 -3.06224e-21)
(0.995919 -0.00735555 3.74452e-22)
(0.999771 -2.52889e-05 7.4275e-24)
(0.996316 -0.00762941 -4.01114e-23)
(0.990453 -0.0133793 -1.52164e-22)
(1.00891 -0.123106 3.07457e-21)
(1.16402 -0.0401358 9.4547e-22)
(0.999932 -4.57245e-06 1.5598e-24)
(0.999946 -7.34317e-06 -2.59173e-25)
(1.00124 -0.000572027 -3.86521e-23)
(0.995811 -0.00669942 -2.19749e-22)
(0.999946 -1.88543e-05 -3.54773e-25)
(0.979623 -0.11271 8.53806e-22)
(1.00295 -0.0010113 4.66598e-23)
(1.02279 -0.00121908 -1.24463e-21)
(0.984226 -0.00241853 -7.35074e-22)
(1.01069 -0.0319081 -1.03087e-22)
(1.0241 -0.000177782 -4.26992e-22)
(0.995521 -0.001976 -2.71065e-23)
(1.00178 -0.00864549 -3.76909e-23)
(0.995215 -0.000996147 1.6813e-22)
(0.974569 -0.017078 -1.26419e-21)
(0.999557 -0.000266199 -1.622e-23)
(1.00003 -1.86398e-05 -2.25557e-25)
(1.00388 -0.00116837 5.44287e-23)
(1.01997 -0.00115012 -6.98574e-22)
(1.00216 -0.00100555 3.91831e-23)
(0.999299 -8.48229e-05 1.62526e-23)
(0.985712 -0.0154198 1.08632e-22)
(0.999912 -0.00014612 1.79595e-24)
(1.00001 -2.15266e-06 -2.12203e-26)
(1.15457 0.0830919 1.13098e-21)
(0.996033 -0.00634739 -7.47318e-23)
(0.999945 -9.87258e-06 2.79966e-25)
(0.961611 -0.0613154 -3.35669e-21)
(0.987273 -0.00258948 1.10808e-22)
(0.979963 -0.00262596 1.37485e-22)
(0.990334 -0.00212171 1.52875e-22)
(0.959251 -0.0246279 -2.8039e-22)
(0.9848 0.107122 1.61703e-20)
(1.03356 -0.00416464 1.2774e-21)
(1.08799 0.0036219 -1.49317e-21)
(0.942957 -0.0461385 -3.50711e-21)
(0.992827 -0.00167882 -2.05706e-22)
(0.997561 0.0492079 1.83906e-20)
(1.04008 0.0071207 3.25129e-21)
(0.973848 -0.00674862 7.66015e-22)
(0.998616 -0.00218325 -3.12497e-23)
(0.998577 -0.00011845 1.61779e-23)
(0.994599 -0.00176559 2.59403e-22)
(0.983863 -0.00292176 4.65923e-22)
(0.999378 -0.000997856 1.63427e-23)
(0.997095 -0.000248333 6.50126e-23)
(1.00469 0.0160814 5.99355e-21)
(1.1967 -0.0193591 -1.55004e-21)
(0.999891 -3.32707e-05 -1.26986e-24)
(1.0014 -0.00725886 -1.40394e-23)
(0.996885 -0.000607869 6.56542e-23)
(0.98676 -0.000850356 -1.05193e-21)
(0.964684 -0.061042 1.85593e-22)
(1.01264 -0.0306878 3.09903e-22)
(0.998485 -0.00208944 9.55887e-24)
(0.999212 -9.36059e-05 6.50269e-24)
(0.953363 -0.00966329 5.5376e-22)
(1.08847 0.00906848 1.41013e-21)
(0.996974 -0.000759064 -1.60065e-22)
(0.999991 -5.97717e-07 -2.54706e-28)
(1.19889 -0.00612756 -1.16337e-21)
(1.02876 0.0315136 -5.68242e-21)
(0.956256 0.011157 3.10298e-21)
(0.995247 -0.0018041 -1.04267e-22)
(0.999993 -2.09807e-06 -4.48051e-27)
(1.02526 -0.0141722 -3.68922e-22)
(1.03569 0.0667386 -1.50533e-20)
(1.02803 -0.0879729 -4.1247e-21)
(0.999992 -2.42525e-06 -7.90932e-28)
(1.02698 -0.0145435 -7.82652e-23)
(1.02561 0.0298588 5.98824e-21)
(1.00036 -0.000508091 -1.41194e-24)
(1.08399 -0.102002 -3.08914e-22)
(1.02941 0.0180902 -1.33147e-21)
(0.977796 -0.0478737 1.52397e-21)
(0.977387 -0.00376469 -1.67239e-22)
(0.963379 -0.00431289 -1.18645e-21)
(1.00039 0.0211351 -1.18782e-20)
(1.01684 -0.121002 -4.20987e-21)
(1.00927 -0.00800524 1.85424e-23)
(0.960176 -0.00567241 4.41101e-22)
(0.999094 -0.00115561 3.82852e-23)
(0.986892 -0.0108326 2.47297e-22)
(1.00237 -0.00821912 3.0666e-23)
(0.999385 -5.70042e-05 -3.79125e-23)
(0.985413 -0.0134273 1.97203e-23)
(1.23719 -0.0331276 -8.72224e-22)
(1.0821 0.000904403 2.65603e-22)
(0.999457 -0.000429866 1.55006e-24)
(0.999277 -0.00101324 -3.38064e-23)
(0.973839 -0.00566514 2.07312e-22)
(1.03368 0.0598401 5.44396e-21)
(0.996717 0.0155832 2.0993e-20)
(0.999988 -1.01358e-06 1.08957e-26)
(1.00677 -0.00312221 2.69024e-23)
(0.95599 -0.0056531 -1.64531e-21)
(0.984304 -0.00152015 -5.80876e-22)
(0.982619 -0.0694349 -2.60675e-21)
(0.959349 -0.0272033 3.81736e-22)
(0.981423 -0.00234275 -1.44413e-23)
(0.960202 0.00795504 1.17156e-20)
(1.01206 -0.0503179 -1.1922e-22)
(1.00996 0.0184049 -3.02653e-21)
(0.976587 -0.021543 -7.21406e-22)
(0.979197 -0.00193889 1.67525e-22)
(0.999893 0.0355685 -5.91988e-21)
(1.02379 0.000682803 1.88117e-21)
(1.18275 -0.0239546 -1.35743e-22)
(0.998583 -0.00171977 -9.45216e-23)
(1.16057 0.0746486 7.97313e-24)
(1.03799 0.00661729 -3.38718e-21)
(0.997178 0.0878987 -1.5646e-20)
(0.952115 -0.0292309 1.17763e-21)
(0.993407 -0.000910301 4.40518e-23)
(0.938809 0.0555817 2.85412e-20)
(0.999951 -1.5798e-05 -3.27591e-25)
(1.00092 -0.00767838 6.81978e-23)
(1.00964 0.0330119 4.66724e-21)
(0.999982 -1.40823e-05 1.84977e-25)
(0.998085 -0.00463975 -1.98332e-22)
(0.996641 -0.000556971 -3.04472e-23)
(1.00254 0.0314523 -1.54511e-21)
(1.00117 0.020583 5.77338e-21)
(0.929421 0.060566 9.69212e-21)
(0.997813 -0.004456 -1.05747e-22)
(0.998195 -0.000133408 -3.19176e-23)
(1.00001 -2.94248e-06 2.06153e-26)
(0.975344 -0.00153235 -1.71954e-21)
(1.00035 -0.000455008 2.03351e-24)
(1.05935 -0.038843 1.78225e-21)
(1.00711 -0.00335535 1.76307e-22)
(0.97641 -0.00248342 3.05193e-22)
(1.18765 0.00421165 -1.29821e-21)
(1.10549 0.0817568 1.00368e-22)
(0.99989 -4.49746e-05 6.90702e-25)
(0.999539 -0.000506445 -1.91416e-23)
(1.03309 0.0741551 -2.31581e-21)
(0.999954 -9.50977e-06 -1.14273e-25)
(0.999945 -4.2393e-06 2.57443e-25)
(0.979189 0.0897242 -1.62263e-20)
(1.06011 -0.0469901 -1.14167e-21)
(1.01103 -0.073647 -2.10911e-21)
(0.980249 -0.0463712 -2.1726e-21)
(0.97806 -0.0044528 4.63513e-22)
(1.00854 -0.0518253 2.48922e-22)
(0.960948 -0.00370646 9.33354e-22)
(0.999981 -1.26146e-05 -4.84644e-26)
(0.965874 -0.0566767 -8.29997e-22)
(1.1079 0.0898929 -3.63501e-21)
(0.996894 -0.000998272 2.25634e-23)
(1.00006 -5.61705e-06 -2.73677e-25)
(1.07409 0.0842016 4.41306e-22)
(0.998929 -0.000244119 5.12838e-23)
(0.986378 -0.0129173 3.92517e-22)
(1.00527 -0.0487946 7.92953e-22)
(1.00001 -1.69354e-06 1.16135e-26)
(1.00073 -0.00181219 -6.27669e-24)
(1.03002 0.0588201 6.87309e-21)
(1.09314 0.096212 -5.26911e-21)
(0.994765 0.0766894 -2.1094e-21)
(1.0785 -0.0945706 2.14904e-21)
(1.03249 -0.0834416 9.0297e-22)
(1.14298 -0.132187 -8.11889e-22)
(1.02362 -0.00173694 3.6714e-21)
(1.02787 0.0548359 -2.16986e-21)
(0.999899 -5.98633e-06 -1.92409e-24)
(1.00003 -1.69331e-05 4.22027e-26)
(0.979943 0.00274412 -1.15374e-20)
(0.991747 -0.0128558 -1.53025e-22)
(0.999441 -0.000373506 -1.4586e-23)
(0.968821 -0.055842 1.7249e-21)
(0.986215 -0.0114489 -2.91505e-22)
(1.00808 0.0830985 -1.73669e-20)
(1.00487 0.0798292 -3.61194e-21)
(0.979102 -0.0712567 6.76709e-22)
(0.918601 0.0271689 -1.05782e-20)
(0.998984 -0.000294702 -3.90621e-23)
(0.990999 -0.00137805 1.64392e-22)
(0.954856 -0.0080055 6.68241e-22)
(1.03321 0.000495172 -7.53783e-22)
(1.01622 -0.156525 -3.88187e-22)
(1.09405 0.143737 -9.35392e-21)
(0.942024 0.0462898 -2.42329e-20)
(1.00005 -9.01541e-05 4.91287e-26)
(1.00929 -0.00732869 9.08945e-23)
(1.02727 0.0205547 7.26233e-21)
(0.996023 -0.00541905 -2.51343e-22)
(1.0322 0.0185041 -9.07111e-22)
(0.999468 -0.0011012 -8.47332e-24)
(0.906214 0.0644725 1.96466e-20)
(0.998936 0.0813356 3.44771e-21)
(0.994693 -0.00144507 1.55526e-22)
(1.00316 -0.00833554 -8.39951e-25)
(0.99977 -3.19149e-05 -1.36546e-23)
(1.13266 0.114363 1.74278e-21)
(0.999954 -4.58351e-06 4.16059e-25)
(0.994233 -0.0103552 1.36804e-22)
(0.931704 -0.0220457 1.14136e-21)
(0.999941 -1.55778e-05 -1.0752e-25)
(0.998682 -0.00259565 -2.72361e-23)
(0.999573 -0.00107331 1.13717e-23)
(1.06807 0.0513778 5.25301e-21)
(0.999983 -1.88503e-05 3.07897e-25)
(0.997499 -0.000167307 -1.99819e-25)
(0.946024 -0.0461401 4.08641e-21)
(0.94399 0.00702109 -5.97032e-21)
(1.08137 -0.00438415 -3.3962e-22)
(0.928139 0.0390971 1.44514e-20)
(0.99997 -3.13666e-06 -1.01869e-25)
(1.00241 -0.0496261 -9.29069e-24)
(0.999826 -0.00025736 -6.6542e-24)
(0.9914 0.0891207 -1.58864e-20)
(1.00365 -0.000801202 -7.18816e-23)
(0.994797 0.0236592 6.89041e-21)
(1.00228 -0.0100052 9.16456e-23)
(1.00063 -0.00195594 1.80909e-24)
(1.03159 -0.036353 4.59578e-22)
(1.02355 -0.00087331 -3.39702e-21)
(1.0005 -0.000306046 6.30636e-24)
(0.999826 -2.75823e-05 9.99599e-26)
(1.00043 -0.000411143 1.23329e-23)
(0.995799 -0.00576453 -2.32984e-22)
(1.01965 -0.0766576 2.65854e-21)
(0.999968 -4.87135e-06 5.56438e-26)
(0.95429 -0.0279673 8.3002e-22)
(0.996646 -0.000697957 -8.09566e-24)
(0.999884 -2.66429e-05 1.30511e-24)
(0.999414 -0.000477647 4.93232e-24)
(0.986787 0.0483844 1.6868e-20)
(0.995849 -0.000228509 5.84312e-23)
(0.999542 -3.76724e-05 -3.20386e-24)
(0.969219 0.00171725 2.20654e-20)
(0.998543 -0.00247266 -5.68046e-23)
(1.05581 0.10847 -5.38758e-21)
(0.999809 -0.000234312 1.06093e-23)
(1.00744 -0.023578 -2.89942e-22)
(1.00001 -1.74202e-06 2.62958e-27)
(0.977973 -0.0376193 -7.7378e-22)
(1.03256 -3.47386e-05 1.19594e-21)
(1.18899 0.014935 2.45525e-21)
(0.974632 -0.0187497 1.08879e-21)
(0.999606 -0.000516807 2.31706e-23)
(0.972553 -0.0935864 1.20174e-21)
(0.997611 -0.000105597 2.66857e-22)
(0.999913 -8.08596e-06 1.92814e-26)
(1.00042 -0.000360947 -1.08763e-23)
(0.997851 -0.00325279 8.60659e-23)
(0.994084 -0.000662508 -1.82775e-22)
(1.00273 -0.000928117 -7.64821e-23)
(0.998772 -0.00174034 3.34131e-23)
(0.975266 -0.00628439 1.24785e-22)
(1.02514 -0.0738204 -1.88353e-21)
(0.976747 -0.00483959 5.03932e-22)
(1.1557 -0.0316381 -2.39454e-22)
(0.971846 -0.00457502 -6.33312e-22)
(1.00647 0.108053 1.80719e-21)
(1.00148 0.110332 -1.32616e-20)
(0.998594 -0.00058873 -3.94567e-23)
(1.21295 0.0144788 -5.36301e-21)
(0.999988 -1.79384e-06 9.9806e-27)
(0.997739 -0.00408605 -1.11461e-22)
(0.990225 -0.000489519 1.05129e-21)
(1.0072 0.0267551 3.85266e-21)
(1.04107 0.0122557 -3.29807e-21)
(1.00008 -2.74869e-05 7.86386e-25)
(0.997893 -0.00385287 -9.48475e-24)
(0.970868 -0.00561404 4.77399e-22)
(1.05205 0.0438287 -2.13946e-21)
(0.999033 -0.00104834 2.54949e-23)
(1.00316 -0.000744816 4.66868e-23)
(1.0011 -0.000961016 -2.65322e-24)
(1.1342 0.0308319 8.61173e-22)
(1.23722 -0.0473867 -5.36839e-21)
(1.02586 0.135504 8.62013e-21)
(0.998893 -0.00011302 -3.12628e-23)
(1.07052 -0.0442093 2.04208e-21)
(0.999902 -4.98387e-05 -1.31089e-24)
(1.00441 -0.00738736 -9.66488e-23)
(0.999958 -7.71206e-06 -7.42624e-26)
(0.982822 -0.0213472 2.10555e-22)
(0.999732 -3.94193e-05 -2.70915e-24)
(1.01235 -0.0233216 2.60146e-23)
(1.23691 0.0187042 5.60701e-21)
(0.967941 -0.0278472 1.44345e-21)
(1.00878 -0.0229602 6.83394e-23)
(1.00827 -0.00656025 -1.07878e-22)
(0.999477 -5.59957e-05 1.53462e-23)
(1.0277 -0.018576 2.53109e-22)
(0.995472 -0.0196728 3.12555e-22)
(1.08194 0.013928 -1.0343e-21)
(1.06268 0.048731 2.36204e-21)
(1.20163 -0.138232 1.66843e-22)
(1.1613 -0.0512911 -2.92216e-21)
(0.995557 -0.000161089 -2.93427e-22)
(1.00478 -0.00367456 1.48754e-22)
(0.9347 -0.0207572 -4.22409e-22)
(0.922307 0.0573442 -2.96263e-20)
(1.13915 -0.054055 3.61383e-21)
(1.02795 -0.011161 -1.28869e-21)
(0.918509 0.0321172 -1.46114e-20)
(0.999065 -5.97518e-05 1.54195e-23)
(0.99834 -0.00073841 -1.2834e-23)
(1.17976 -0.0357684 -2.88847e-21)
(0.998896 -0.00191214 -2.34177e-23)
(1.01242 -0.0466722 2.74305e-22)
(1.00555 -0.00174878 5.66647e-23)
(0.998086 -0.000175795 -2.49785e-23)
(0.998524 -0.000158525 -3.99407e-23)
(1.03254 0.0266876 4.3043e-21)
(0.999936 -0.000125327 -4.9277e-25)
(1.00047 -0.000253031 -5.64398e-24)
(1.00007 -1.08776e-05 4.81837e-25)
(0.997309 -0.000338174 1.41753e-22)
(0.99307 -0.00888365 3.2598e-22)
(0.999988 -1.10833e-06 -1.58319e-28)
(0.999095 -0.000140672 4.00929e-24)
(0.975921 -0.0161418 3.64887e-22)
(0.970955 0.00604888 7.29815e-21)
(1.01078 -0.0242217 2.27339e-22)
(0.991865 -0.0119875 5.77904e-22)
(0.958539 0.0496678 3.33166e-21)
(1.00038 0.0211072 1.05532e-20)
(1.07088 0.00176719 -7.76639e-22)
(1.20328 0.0202662 1.7926e-21)
(0.981237 -0.00114939 8.86279e-22)
(1.00472 -0.00426406 -7.0627e-23)
(1.00787 0.04364 -5.90577e-22)
(0.99118 -0.00103807 -3.71074e-22)
(1.03431 0.105528 2.34292e-22)
(1.00804 -0.0558515 4.39686e-23)
(1.045 -0.136779 -1.61697e-21)
(1.08792 0.0921987 3.27861e-21)
(1.0365 0.112117 -7.31143e-21)
(0.956979 -0.0232441 1.72574e-21)
(1.04211 0.0101073 -2.06135e-21)
(1.09975 0.149309 8.74869e-21)
(1.04916 0.108374 1.03603e-20)
(1.02464 -0.00217271 1.14325e-21)
(0.997066 -0.00112498 3.89324e-23)
(0.995828 -0.00180217 3.70019e-23)
(0.999928 -1.46784e-05 -2.90733e-25)
(1.01734 -0.0303769 -1.42216e-22)
(0.991988 -0.000806208 8.52249e-23)
(1.00086 -0.00227322 -5.77221e-24)
(0.999919 -1.24255e-05 -6.7544e-25)
(0.998493 -0.000514497 1.5654e-23)
(0.969066 -0.0919335 -2.00182e-21)
(1.11531 0.0427208 8.6123e-22)
(0.982562 -0.00402794 -5.82617e-22)
(0.998642 -0.0126718 4.02728e-22)
(0.99701 -0.000370081 -8.5477e-23)
(1.06725 -0.0474495 -1.26776e-22)
(0.994111 -0.000767967 -2.95996e-22)
(1.00209 -0.00743529 -9.26301e-24)
(1.11466 0.142164 1.40682e-21)
(0.998624 -0.000165079 -9.348e-23)
(0.999979 -3.75037e-05 -4.6466e-25)
(0.999945 -0.000154338 -4.40319e-25)
(1.00004 -9.17328e-05 -3.56023e-25)
(0.977989 -0.00542937 2.81281e-22)
(1.03096 0.0244455 -5.02849e-21)
(0.997328 -0.000198397 3.29815e-24)
(1.02357 -0.00975625 8.37436e-22)
(1.02716 -0.16309 3.07219e-21)
(0.988091 0.0770671 -2.60277e-22)
(1.00366 -0.00751377 2.30506e-23)
(1.00636 -0.00475604 -2.88786e-23)
(0.994894 -0.00197935 -1.27948e-22)
(0.991481 0.0483253 -1.65024e-20)
(0.999349 -5.2704e-05 1.08904e-23)
(1.02973 0.14071 -4.34165e-21)
(1.00764 0.0188351 -5.89463e-21)
(0.999908 -1.67161e-05 8.6866e-25)
(1.0055 -0.0568644 -1.20795e-21)
(0.997173 -0.000411006 -6.87947e-23)
(0.986937 -0.0707252 3.219e-21)
(1.0005 -0.000137259 5.89925e-24)
(1.06562 0.00443123 1.15283e-21)
(1.00683 -0.0170324 4.19222e-24)
(1.00595 -0.00434175 5.13935e-24)
(0.999351 -7.47195e-05 -2.19137e-23)
(1.07342 0.0487999 2.45458e-21)
(1.04741 0.0417875 8.4017e-22)
(1.00845 -0.0770988 1.98219e-21)
(0.976433 -0.0196325 -6.97003e-23)
(0.99772 -0.00348192 -7.12271e-23)
(0.998924 -0.0447949 -2.16766e-21)
(1.15545 0.0640703 -1.11256e-21)
(0.922338 0.0170801 -1.33806e-20)
(1.10003 -0.0857606 -2.29977e-21)
(1.00491 -0.0080184 -2.14749e-25)
(0.999994 -2.86261e-06 4.55818e-27)
(0.986545 -0.00345182 -4.5292e-22)
(0.998356 -0.000176932 9.09826e-23)
(1.02628 -0.018876 3.42082e-22)
(1.00463 -0.129746 -1.19195e-21)
(1.21253 5.64123e-05 2.23425e-21)
(0.978696 0.0698538 -2.10205e-20)
(1.05642 0.0406714 3.41063e-21)
(1.14389 -0.118182 3.39456e-21)
(1.07357 0.0914154 1.45328e-21)
(0.998939 0.0206821 1.93141e-20)
(1.01927 -0.00250214 7.5386e-22)
(1.00106 -0.00221368 1.7339e-23)
(1.02189 0.0617399 3.46266e-21)
(0.999088 -0.0018729 4.92909e-23)
(0.999833 -0.000134706 2.03418e-24)
(0.990511 -0.000551101 1.20851e-22)
(1.00007 -2.73692e-05 1.36058e-25)
(1.15501 -0.14079 1.74088e-21)
(1.00344 -0.0188323 -2.16262e-22)
(0.980565 -0.0371686 1.38075e-21)
(1.00172 -0.00152341 1.67995e-23)
(1.06809 0.0803328 7.68699e-21)
(0.998671 -0.000153271 -6.58062e-24)
(0.999978 -2.94812e-05 -3.02407e-26)
(1.03638 -0.143586 1.73616e-21)
(1.00152 -0.00132275 -9.89596e-24)
(1.11582 -0.00224624 -2.44894e-22)
(0.955982 -0.00898515 2.77509e-22)
(0.944698 -0.009629 5.87633e-23)
(1.2143 0.0667598 1.96109e-22)
(1.02465 0.0196057 -1.9021e-21)
(1.02107 0.00577075 1.1513e-21)
(1.01968 0.00544418 -4.44549e-22)
(0.999846 -2.0417e-05 4.57221e-25)
(1.12417 0.0422225 6.11637e-22)
(1.08225 0.0185685 1.17481e-21)
(0.999495 -0.000552083 8.8334e-24)
(0.982859 -0.00468565 6.67409e-22)
(1.00054 -0.00019306 -6.58427e-24)
(1.01229 -0.0213783 1.24131e-22)
(1.00862 -0.0308977 -1.63788e-22)
(1.00424 -0.00136523 7.13945e-25)
(0.999227 -0.00114468 -4.70968e-23)
(1.13112 0.105448 -5.47946e-21)
(0.999981 -1.69327e-05 -2.86376e-25)
(1.00017 -0.000100477 -1.09837e-24)
(1.0018 -0.0010381 -1.03645e-24)
(0.98584 -0.00119979 4.08261e-22)
(1.01964 -0.0117215 4.99561e-22)
(0.980088 -0.0305597 -1.79254e-21)
(0.979987 -0.00235543 -2.39525e-22)
(1.01514 -0.0726927 1.19043e-21)
(1.05321 -0.173675 -3.40296e-21)
(1.02939 -0.0332882 -1.85389e-22)
(1.02608 0.0629121 -1.97668e-20)
(1.22673 0.0247749 -3.71858e-21)
(0.993484 -0.00186632 -2.11527e-23)
(0.905639 0.0572508 2.31867e-20)
(0.967776 -0.0639494 2.99874e-21)
(0.992684 -0.00944794 1.05404e-22)
(0.982343 -0.00182884 4.06131e-22)
(0.996765 -0.0190004 -7.84949e-23)
(0.988846 -0.00088831 5.90731e-22)
(0.989893 -0.00281437 -1.28423e-22)
(1.02833 -0.0130412 -8.14876e-22)
(1.14903 -0.0577884 -8.50514e-22)
(0.999976 -3.44522e-05 -6.88599e-26)
(1.0242 -0.0128477 -1.12206e-22)
(0.999921 -1.83331e-05 -4.39391e-25)
(1.00139 0.0917952 4.18765e-21)
(1.15627 0.0901457 2.70558e-21)
(0.995305 -0.00141122 4.22569e-23)
(0.991831 -0.000591322 -4.99204e-22)
(0.999847 -3.16252e-05 -2.99863e-24)
(0.997594 0.0429732 1.2227e-20)
(1.0224 0.109053 9.80929e-21)
(1.12729 0.0329259 -4.17793e-22)
(1.13807 0.134986 -4.5878e-21)
(0.96751 -0.06849 -1.37696e-21)
(0.998868 0.00471352 -1.79116e-20)
(0.999941 -0.000110798 1.2142e-24)
(1.05231 -0.0280209 1.04264e-22)
(0.992513 -0.000479673 -1.38059e-23)
(1.09683 0.0787397 -1.40888e-21)
(0.936738 0.0383225 -1.74338e-20)
(1.15993 0.0563304 3.95968e-22)
(1.05075 0.0334093 5.73368e-22)
(0.999379 -0.0125703 -9.98987e-23)
(0.999824 -5.65553e-05 -3.14655e-24)
(1.14093 0.117965 1.81396e-21)
(1.22321 -0.0252193 1.05176e-21)
(0.993417 0.0523442 -3.86311e-22)
(1.10769 -0.00398171 1.97758e-22)
(1.02996 0.0509687 5.73929e-21)
(0.993267 -0.00153836 -5.9974e-23)
(0.985402 0.0713628 5.7626e-21)
(1.02764 0.103998 3.38838e-21)
(0.991138 -0.00234535 -3.58808e-22)
(0.99254 -0.00226153 -1.35983e-22)
(1.15309 0.106616 1.64559e-23)
(0.947089 -0.00860572 -1.5619e-21)
(0.99992 -0.00012824 -1.87989e-24)
(0.98693 -0.00394588 5.98293e-22)
(0.936333 -0.015078 1.3218e-21)
(0.983156 -0.0900015 -4.21717e-22)
(1.00946 -0.00244658 -5.38655e-22)
(1.0083 -0.00595601 2.46469e-23)
(0.999883 -0.000159563 -3.29541e-24)
(1.024 0.115673 -1.4864e-20)
(0.999772 -0.0114228 1.88015e-23)
(0.999911 -4.30457e-05 5.61277e-25)
(1.02472 -0.0672626 1.74436e-21)
(0.999537 -0.000347031 6.21926e-24)
(0.999811 -4.62915e-05 2.44546e-25)
(1.00492 -0.0123761 9.00331e-24)
(1.05543 0.0793778 1.07429e-20)
(1.02471 -0.127334 2.34112e-21)
(0.951455 0.0436153 1.03364e-20)
(1.00005 -7.84553e-06 -3.25508e-25)
(1.06109 0.0838899 -1.11455e-20)
(1.01565 -0.0571365 1.17921e-21)
(0.999925 -0.000160865 -5.37045e-25)
(1.00002 -5.30642e-06 -2.39704e-27)
(1.00229 0.0100147 -9.65728e-22)
(1.05155 0.0680691 3.98854e-21)
(0.996102 -0.00195837 3.93363e-23)
(1.04782 0.0526618 -5.02885e-21)
(1.00002 -1.70691e-05 2.19823e-26)
(1.0475 0.0584313 -7.01496e-21)
(1.18537 -0.14311 4.48286e-21)
(0.990948 -0.00194466 3.80268e-22)
(0.999272 0.00926742 -2.4823e-20)
(0.969511 -0.0520806 1.93842e-21)
(1.14274 0.128019 4.29912e-21)
(0.982585 -0.00171179 2.08812e-22)
(1.05231 0.062017 9.18365e-21)
(1.05664 0.0721026 -2.88863e-21)
(0.983046 -0.00646908 1.05811e-21)
(0.977698 -0.00772898 -7.74406e-22)
(0.994419 -0.00959193 3.39178e-22)
(0.997551 -0.000431104 -2.56706e-23)
(0.999818 -0.000150128 5.34942e-24)
(0.999548 -0.0108989 -3.34457e-23)
(1.03924 0.0996736 -1.7093e-21)
(0.999975 -2.64794e-05 1.13945e-25)
(1.04321 0.0499634 6.66426e-21)
(1.04293 -0.12592 3.93296e-21)
(1.00286 0.0591316 4.87948e-21)
(1.04317 0.045039 -7.52992e-21)
(0.937468 -0.0131627 -2.19173e-22)
(0.952993 0.062355 -2.21257e-20)
(0.998502 -0.000936882 1.57632e-24)
(1.01695 -0.0278249 -9.38608e-23)
(1.0635 -0.0872549 1.17186e-21)
(0.989211 -0.000739128 -4.42927e-23)
(0.993707 -0.00259428 1.83459e-22)
(1.01241 -0.0587642 -9.8843e-22)
(1.05959 -0.0182578 -2.29067e-23)
(0.926972 0.029416 2.71316e-20)
(1.00004 -1.58113e-05 2.2554e-25)
(0.99823 -0.000985195 3.2099e-23)
(1.0222 -0.0873404 7.39102e-23)
(1.00001 -4.18096e-06 -1.01209e-26)
(1.00101 0.0984256 2.08076e-21)
(1.00156 -0.00114723 0)
(1.00001 -5.71511e-06 -7.55799e-27)
(1.00016 -7.75134e-05 2.47758e-24)
(1.00034 -0.000112053 6.89199e-26)
(0.98329 -0.0198294 1.09815e-21)
(1.02383 -0.0177553 -2.39112e-22)
(0.998589 -0.000704544 4.8531e-23)
(0.999939 -8.46588e-06 6.32725e-25)
(0.993345 -0.00233514 9.47061e-23)
(1.00423 -0.0128905 3.38958e-23)
(0.989911 -0.139316 -3.21615e-21)
(0.971972 -0.00210297 1.05565e-22)
(1.01888 -0.0104541 9.74486e-22)
(0.999986 -1.00193e-06 -2.3751e-26)
(1.13228 -0.17474 5.17768e-21)
(0.988083 -0.00231308 -2.23366e-22)
(1.1386 0.0973977 -2.36023e-22)
(1.00013 0.00826191 -3.47104e-21)
(1.00105 -0.00336372 -1.74578e-24)
(1.12523 0.0852864 -4.82717e-21)
(1.00013 -8.26095e-05 4.07172e-26)
(0.988181 -0.0028372 1.63894e-24)
(1.02371 0.00083966 -2.19198e-21)
(0.99368 -0.00306628 -7.53498e-23)
(1.05607 0.0944939 -6.24319e-22)
(0.98733 -0.00529452 -4.72615e-22)
(1.05382 -0.0249401 -2.63271e-22)
(1.02403 0.00148989 -2.38419e-21)
(1.06207 0.0430983 -1.48396e-21)
(1.00718 -0.0155944 1.66771e-23)
(0.990272 -0.00319828 1.03518e-23)
(1.08158 0.0802726 4.57539e-21)
(0.974213 -0.099684 -2.51159e-21)
(0.988831 0.0945243 1.74547e-20)
(0.991259 -0.00392658 -4.54643e-22)
(1.0578 0.122429 -1.32136e-22)
(0.991329 -0.00330612 1.22406e-22)
(0.998975 -0.000375629 -3.31917e-24)
(1.05042 0.0298375 1.60211e-21)
(1.01535 -0.0319352 2.03405e-22)
(1.0372 0.00354673 3.15898e-21)
(1.00163 -0.000791204 1.16161e-23)
(1.00001 -4.65265e-06 -3.95034e-27)
(1.00761 -0.160335 1.23798e-21)
(1.11275 0.13494 -7.33159e-21)
(1.00128 -0.00327033 -4.88347e-24)
(1.13521 0.0875457 3.8888e-22)
(0.988081 -0.00491362 -3.11843e-22)
(1.12171 -0.184882 -2.09088e-21)
(1.05163 -0.0439113 -2.27928e-22)
(0.979487 -0.0327216 1.03658e-21)
(0.998478 -0.000791322 -2.16966e-23)
(0.994978 -0.000359923 -6.82377e-23)
(0.966323 -0.083292 -1.35514e-21)
(0.972282 -0.0060944 1.00707e-21)
(0.990893 -0.002948 2.99685e-22)
(0.999855 -0.000380202 4.65e-24)
(0.980235 0.098863 -2.21602e-21)
(1.12206 0.0761399 2.8282e-21)
(1.02492 -0.0108249 -3.377e-22)
(0.999828 -0.000113495 3.19029e-24)
(1.02577 0.0975879 -6.51899e-21)
(1 -1.97632e-05 -6.43396e-26)
(0.999842 -0.00010069 5.78836e-24)
(1.11263 0.0742983 2.55121e-21)
(1.01048 -0.0264815 -2.17976e-22)
(1.12322 0.121833 5.63406e-21)
(1.02359 -0.00268171 8.43433e-22)
(1.01709 -0.0130626 -3.40511e-23)
(1.10985 -0.0688981 1.58995e-21)
(1.07346 -0.155792 4.0171e-21)
(1.21487 0.0582223 1.00735e-21)
(1.00111 -0.000807009 -2.35421e-23)
(0.955184 -0.0107699 -8.23015e-23)
(0.999982 -4.66738e-05 -1.60982e-25)
(1.0046 -0.0111741 -2.07143e-24)
(1.06081 0.0905222 4.05941e-21)
(0.984027 -0.00604047 7.31442e-22)
(0.997444 -0.00113528 4.47093e-23)
(1.01581 -0.0450083 -8.63212e-22)
(0.998213 -0.000843804 1.7665e-24)
(0.999601 -0.000962924 1.55205e-23)
(0.970675 0.00302995 4.56481e-21)
(0.990694 -0.00424195 -2.58859e-22)
(0.999491 -0.000605952 -2.99735e-23)
(0.999994 -2.31401e-07 4.102e-26)
(1.01655 0.00673474 5.05622e-21)
(0.969052 -0.0257861 -1.90378e-22)
(0.999696 -0.000459604 9.52669e-24)
(0.997581 -0.000557061 5.23503e-23)
(1.02245 0.0216158 2.10431e-21)
(1.0706 0.0132641 3.25656e-22)
(0.957415 -0.0204865 -1.08839e-21)
(1 -1.24943e-05 -5.00438e-26)
(1.00088 0.00919744 1.41083e-20)
(0.984938 -0.0170012 -7.27857e-22)
(1.06843 0.0732616 -7.61986e-21)
(1.01237 -0.00121775 -8.99158e-22)
(1.01439 -0.00127381 2.1157e-21)
(0.968992 -0.00834388 1.41628e-21)
(0.99992 -4.6834e-05 -3.81241e-25)
(1.0234 0.000403829 -4.66113e-22)
(1.07611 0.0107012 -3.48695e-22)
(1.19156 0.0633197 -3.63506e-22)
(1.05047 -0.118809 9.30562e-22)
(1.03643 0.0934546 5.05366e-21)
(1.00523 -0.00164447 -1.3099e-23)
(1.08876 0.0846895 -6.29441e-21)
(0.999359 -0.0148344 -1.52444e-22)
(1.01986 -0.0645464 -2.7387e-21)
(0.999669 -0.000112046 -5.49676e-24)
(1.00271 -0.0201391 4.33042e-22)
(0.999894 -0.00036534 3.13668e-24)
(1.04645 0.0363659 -4.86319e-21)
(1.07833 0.133591 -1.47215e-20)
(0.998639 -0.000980005 1.69482e-23)
(1.01864 -0.0132331 -2.91563e-23)
(0.984831 -0.00270956 2.40763e-22)
(1.05395 -0.102068 4.66895e-22)
(1.0476 -0.109394 -1.97e-21)
(0.998322 -0.000632607 3.09184e-23)
(1.04864 -0.0288626 4.16284e-23)
(0.987661 0.00132181 -7.56366e-21)
(1.18813 0.0434646 -9.48104e-22)
(0.999949 -0.000136928 3.23217e-24)
(1.06569 0.0100606 -1.10429e-21)
(0.99676 -0.00881212 -1.90654e-22)
(0.999235 0.000868838 1.65204e-20)
(0.988234 -0.00410192 4.1598e-22)
(0.994558 -0.0282129 -2.90628e-22)
(1.01863 -0.0395784 -1.54142e-24)
(0.992971 -0.0291828 -1.79491e-23)
(0.997653 -0.0222074 -7.41413e-22)
(0.992873 -0.00254274 6.4343e-23)
(0.998434 -0.0146558 4.08127e-22)
(1.00161 -0.00622909 1.81084e-24)
(1.06132 -0.0222479 1.03693e-22)
(1.00009 -2.01783e-05 -1.14232e-24)
(1.22468 -0.0951274 -2.09712e-21)
(1.17395 -0.0010996 -8.82303e-22)
(1.01101 0.110824 1.22296e-20)
(0.95979 -0.0193404 1.5865e-21)
(1.11367 0.116886 -2.90051e-21)
(1.00173 -0.000614106 4.51609e-23)
(1.08237 -0.0844202 1.87665e-24)
(1.00403 -0.0424403 -8.75287e-22)
(1.01879 0.037197 6.28849e-21)
(0.993254 -0.00332786 1.86008e-22)
(1.00008 -0.000158409 2.81443e-25)
(0.985614 -0.0178867 9.5749e-22)
(0.995302 -0.00936808 -1.29505e-22)
(1.04528 -0.0261892 2.81138e-22)
(0.976021 -0.00415816 -8.08626e-22)
(0.976995 -0.00684488 2.65864e-22)
(1.14223 -0.0334138 -5.07571e-22)
(0.988676 -0.00155248 -3.56856e-22)
(1.01574 -0.0415003 6.54012e-22)
(0.985318 -0.0959381 1.9074e-21)
(1.00001 -6.59937e-06 -3.9904e-27)
(1.06266 -0.0137445 1.00815e-21)
(0.987485 -0.0850531 -5.01859e-21)
(1.12044 0.101723 2.42947e-21)
(1.11098 -0.0772448 -2.87819e-21)
(1.03555 0.00302067 2.50934e-22)
(1.03326 -0.122046 -4.90772e-21)
(1.03322 0.124802 3.20102e-21)
(1.03799 -0.0388365 -4.54031e-22)
(0.968869 -0.007184 -8.32671e-22)
(1.0157 -0.0528824 -1.4914e-21)
(0.990835 0.00183756 7.26518e-21)
(1.18483 -0.104352 1.3603e-21)
(0.987746 -0.00362582 -1.31177e-22)
(1.03779 -0.15569 -3.74086e-22)
(1.03047 -0.0764624 1.98965e-21)
(1.05628 -0.140552 -6.32199e-22)
(1.0504 -0.0937949 -2.25735e-21)
(1.08134 0.072871 5.73424e-21)
(0.997445 -0.0013509 2.49447e-24)
(1.00676 0.0409817 2.36538e-21)
(1.00718 -0.0016062 9.01607e-23)
(0.99964 -0.000462016 -1.26448e-23)
(0.998826 -0.00212399 1.31555e-22)
(1.06122 0.00265069 -3.01114e-22)
(0.987639 0.000217799 2.1409e-22)
(1.00123 -0.00666142 -2.46069e-23)
(1.01984 -0.0596542 3.80461e-22)
(1.02255 0.0247532 -3.5048e-21)
(1.00002 -5.98766e-06 -2.19698e-27)
(0.978911 -0.00723969 6.09086e-22)
(1.02214 -0.0100342 7.18053e-22)
(1.08337 -0.0431351 -1.23441e-21)
(1.00732 -0.000795859 5.16888e-22)
(0.998472 -0.00185907 2.07775e-23)
(0.980104 -0.0429395 -7.87484e-24)
(0.997462 -0.00848898 -7.82698e-23)
(1.00003 -5.11023e-06 6.37433e-26)
(0.972292 -0.0510809 -3.30239e-21)
(1.04688 0.0876607 -1.71942e-21)
(1.02065 -0.0343227 2.02486e-22)
(0.984645 -0.00341667 -4.15602e-22)
(1.00156 -0.000424171 -1.58348e-23)
(1.0256 0.0265815 4.60736e-21)
(0.999639 -0.000574592 -5.99256e-24)
(0.998891 -0.000518665 -2.46951e-24)
(0.999695 -0.000128144 -5.55544e-24)
(0.999231 -0.00202712 -3.94062e-23)
(1.17791 0.0643036 4.67553e-22)
(1.03049 -0.0390903 -1.4686e-21)
(1.00761 -0.0198373 -1.15602e-22)
(0.982324 -0.00581377 -2.14067e-22)
(1.00003 -4.52236e-05 4.90296e-26)
(1.09658 -0.145629 5.62842e-21)
(1.22377 -0.00767106 4.77713e-23)
(1.10543 -0.156894 -2.68343e-21)
(0.995429 -0.0366805 -5.63653e-22)
(1.01332 -0.0096624 5.74949e-22)
(0.999822 -7.36019e-05 2.07468e-24)
(0.98806 -0.0111514 -3.39049e-22)
(0.948541 -0.0498981 -1.64564e-21)
(1.17658 0.0453232 4.00347e-22)
(1.00188 0.0567919 -1.61457e-22)
(0.998779 -0.00308457 3.41793e-23)
(0.93616 -0.0290801 7.29361e-22)
(0.995528 -0.00234802 -1.71288e-22)
(1.03558 -0.0357271 2.92917e-22)
(1.09513 0.0703734 5.33764e-22)
(1.00036 -0.000126299 -8.32196e-24)
(0.999858 -0.000185434 -1.48586e-24)
(1.1507 0.113732 4.09035e-22)
(1.17194 0.0248108 4.66363e-22)
(1.0178 -0.0163657 1.73542e-22)
(0.997259 -0.00147846 8.30334e-23)
(0.99833 -0.00026383 -6.39484e-24)
(0.95723 -0.0520013 4.15974e-22)
(0.999836 -0.000313059 -5.51291e-24)
(1.01818 -0.0363038 -7.70197e-22)
(0.993012 -0.00045348 6.78222e-22)
(1.00025 0.0101594 -2.88458e-21)
(1.05068 0.0938619 -9.10065e-22)
(1.07573 -0.0779933 1.24672e-21)
(0.992662 -0.0857287 1.81756e-21)
(1.00595 -0.00142844 2.39957e-22)
(1.01454 -0.02673 2.65638e-22)
(1.16368 0.00618223 -1.40496e-21)
(0.992071 -0.0965177 -1.15991e-21)
(1.01918 -0.0508229 8.75871e-22)
(0.999998 -6.36259e-06 5.8827e-27)
(1.14996 -0.0111676 -1.72487e-21)
(0.987092 -0.000800977 6.6566e-23)
(0.990923 -0.108529 2.32634e-21)
(1.01999 -0.0314268 6.81102e-22)
(0.957369 -0.0102869 -1.80072e-22)
(0.999647 -0.000244364 -3.45715e-24)
(0.99727 -0.00102652 -3.54138e-23)
(1.03889 0.042652 5.82909e-21)
(0.970725 -0.00776438 -2.97561e-22)
(0.999989 -1.56686e-06 6.84668e-27)
(0.997815 -0.000283856 -6.60694e-23)
(1.17952 -0.0878465 -7.25908e-21)
(0.999865 -3.4451e-05 4.24178e-24)