/*--------------------------------*- C++ -*----------------------------------*\
  =========                 |
  \\      /  F ield         | OpenFOAM: The Open Source CFD Toolbox
   \\    /   O peration     | Website:  https://openfoam.org
    \\  /    A nd           | Version:  7
     \\/     M anipulation  |
\*---------------------------------------------------------------------------*/
FoamFile
{
    version     2.0;
    format      ascii;
    class       surfaceScalarField;
    location    "4";
    object      phi;
}
// * * * * * * * * * * * * * * * * * * * * * * * * * * * * * * * * * * * * * //

dimensions      [0 3 -1 0 0 0 0];

internalField   nonuniform List<scalar> 
11512
(
156.125
-498.027
341.901
-743.915
-10.5557
754.47
403.217
-376.172
-27.0447
617.35
281.769
-899.12
1511.1
-1069.46
-441.639
1216.29
-1527.13
310.842
-73.6049
481.143
-407.538
168.709
-842.756
674.047
962.136
-1610.84
648.703
-1753.72
1661.18
92.5468
-542.946
1759.24
-1139.98
1933.9
-793.921
608.85
181.17
-790.019
-23.8874
-1309.67
1333.55
219.297
-1973.02
1024.73
-381.64
-643.087
-166.737
322.862
486.372
190.723
-677.095
1156.31
-1312.94
156.632
-307.074
379.461
-72.3861
997.699
-1305.93
308.228
1221.5
798.998
-2020.5
70.8932
-1634
1563.1
-456.962
-1181.04
1638
477.622
182.114
-659.736
-198.745
-299.281
498.253
1012.84
1640.72
-1796.71
155.99
-81.6258
-1694.95
1776.57
-1558.77
649.802
908.964
-306.602
654.341
-347.74
-195.529
-148.963
344.492
1279.51
-1208.62
355.173
-1407.47
1052.3
-1754.33
1754.33
100.688
1523.94
-1624.63
-1076.94
-481.827
635.958
-709.562
-383.305
941.664
-558.359
1331.95
-1317.33
-14.6199
-1100.59
717.282
628.626
396.101
-382.547
-46.0376
428.584
-431.125
752.948
-321.823
-1618.51
1618.51
1253.59
-1437.9
184.306
-488.4
1709.9
1256.47
-314.807
1660.75
-1161.26
-499.493
84.0423
-391.117
2064.45
-1134.26
-930.19
1805.57
-164.847
456.811
156.245
-613.057
-451.046
968.378
-517.332
-1164.19
1264.87
-568.877
971.443
-402.566
402.835
753.474
661.692
-492.983
-438.578
596.822
-158.244
1190.71
-835.542
2308.18
-1080.66
-1227.53
1163.22
-2007.53
844.31
-1595.29
1571.41
440.779
-1580.76
-759.195
1250.83
-491.64
-673.643
367.041
1661.48
-699.341
-1106.93
-870.893
1977.82
659.726
-350.809
-308.917
689.728
566.743
-258.204
1511.8
117.493
-321.549
204.055
-284.994
762.616
-335.512
566.831
-231.319
-324.702
811.074
-319.172
-150.112
469.284
328.749
74.4677
1449.01
-451.306
-963.29
475.999
487.291
281.017
90.1489
-371.166
950.348
-341.498
-1700.12
662.486
1037.64
15.5071
-847.127
831.62
-281.929
597.459
-315.53
156.608
-1093.75
937.146
1051.81
-1067.36
15.5489
373.059
519.332
-892.391
-245.618
702.429
-1103.99
-482.007
1585.99
-678.53
951.453
-272.923
1360.51
-1442.14
-614.145
270.971
343.174
-470.188
-1011.58
1481.76
-540.166
-792.312
1332.48
576.548
-996.789
420.241
-266.166
-317.635
583.801
410.078
-292.584
-1034.87
583.825
955.376
-798.767
-110.302
944.069
-833.767
-211.117
420.443
-209.326
-618.208
-345.082
-386.741
963.289
1856.38
-1856.38
-453.682
-160.462
-954.949
1549.51
-594.565
492.632
-929.927
437.295
-924.312
355.435
-941.911
-1058.08
-1485.37
347.83
1137.54
-288.702
906.052
-302.42
611.327
-308.907
-1941.9
999.993
-1133.15
-352.22
540.261
-1495.21
1728.51
-1725.53
-2.97999
216.016
-597.934
381.918
-1450.19
972.998
477.193
291.023
212.365
-503.388
311.23
-646.743
243.306
-420.152
176.846
2014.13
-860.876
-1153.25
-545.481
162.935
618.946
832.336
-1451.28
-184.892
428.198
431.12
877.078
-1308.2
-909.767
394.988
514.779
-1044.53
1447.37
-1068.84
309.644
753.857
-99.5161
530.434
-276.66
-253.774
989.758
-513.759
593.304
-1403.96
810.66
-1342.39
238.406
-548.536
266.607
-1179.22
890.52
1944.48
-990.643
-953.841
276.803
1579.57
-2092.24
893.487
1198.75
366.819
-31.4475
-335.372
-224.265
483.531
-259.266
-115.21
-376.99
492.199
-469.028
149.856
342.566
-129.257
621.889
409.272
389.611
-798.884
-2033.86
1106.91
926.949
461.908
-534.263
72.3545
222.874
-364.935
142.061
1025.78
988.346
1775.52
-251.577
702.878
-431.907
797.26
-1390.12
592.857
332.92
326.806
1044.79
-1029.28
-509.446
-217.715
727.16
480.625
-137.579
-343.047
798.034
-616.864
573.305
-733.52
160.215
503.33
1157.42
-1240.18
700.016
1050.9
-1507.86
-3.13604
-1439.43
1442.56
324.894
825.425
-1150.32
623.561
269.967
-893.527
-2271.18
1134.67
1136.51
-1109.87
-1161.31
210.111
363.194
958.651
-633.758
879.388
-899.113
19.7247
-2099.38
992.452
-226.296
-190.475
416.772
-41.708
1770.22
-820.174
76.2596
-1026.48
-1065.77
-230.269
453.143
-649.148
195.466
-253.795
-425.671
679.466
1104.05
-1574.24
783.127
-1374.55
591.418
693.906
-412.136
1947.88
-1444.55
-378.289
-1376.04
84.5281
396.615
-527.738
517.182
4.79417
-562.4
557.605
572.288
-281.266
-606.312
280.639
325.673
779.854
-370.581
34.1179
332.701
1188.47
-1191.61
180.837
229.241
392.648
-646.443
619.992
-1006.73
-2026.7
2026.7
-241.328
-450.288
691.616
699.327
405.88
-1105.21
580.03
173.828
395.659
384.194
-2199.75
1328.85
-926.885
-678.562
1605.45
-495.947
-683.275
-266.558
543.183
-276.624
824.711
-179.444
-645.267
-425.122
641.138
375.755
-678.176
-341.775
-138.345
480.12
-1322.2
-474.513
610.54
-1106.49
-374.156
-1244.35
844.324
1463.86
301.581
-929.534
627.953
967.167
-338.541
1391.48
-798.178
447.558
-266.721
-329.738
-869.804
556.097
313.707
-315.265
-554.539
307.132
-422.341
-215.776
-153.362
369.138
-392.743
1092.07
435.516
-244.793
-396.009
1343.62
-168.359
-1175.26
-467.583
268.418
199.166
235.001
236.135
-471.136
27.4057
-760.926
592.076
-1728.99
1136.92
1481.37
-862.426
-1049.4
-400.795
-1057.78
573.336
484.444
1369.57
-396.571
929.517
-1411.52
-161.265
-208.778
370.043
-469.697
581.998
-1626.53
427.964
903.99
263.896
301.194
-565.091
568.071
1186.26
1104.95
-716.285
-388.669
408.086
-219.854
-188.232
-1419.47
444.747
738.8
-1183.55
1473.44
-543.926
-493.879
917.629
-423.75
426.143
1186.16
-1612.31
47.3269
-725.857
-145.409
426.427
215.292
-410.821
521.495
468.263
-627.131
62.6966
564.434
1024.54
-1307.67
283.133
662.61
-266.951
468.237
-1447.26
979.02
418.243
1685.77
-522.556
909.857
1034.63
-663.139
-1684.51
757.62
567.035
389.564
-956.599
453.321
78.7689
1749.87
-1828.64
1443.76
-379.492
-1064.27
1699.08
-1740.79
-368.052
-511.415
718.714
-207.299
-502.593
185.826
294.799
-373.228
-1226.01
214.43
-764.585
-639.379
-665.614
1003.91
-338.298
-653.698
643.732
9.96561
655.083
-923.742
268.659
-743.792
371.106
372.686
-649.007
-679.975
356.706
323.268
-932.361
1400.6
-410.691
883.52
-472.829
-2205.31
5.55781
183.288
-539.258
355.97
141.293
1202.33
-93.4799
-555.668
160.744
-599.322
1487.24
-704.114
375.455
-467.496
92.0405
-565.982
565.982
1223.06
395.449
1777.85
-1229.2
589.126
640.07
850.293
-52.2588
1291.34
773.107
-539.93
1337.19
295.082
302.377
281.937
-793.351
236.391
-667.517
231.967
-445.741
213.774
-226.701
573.788
-347.086
132.059
-358.761
-592.07
-564.571
1156.64
-359.616
519.012
-159.396
-1192.16
2032.04
-839.886
1290.34
-331.687
-402.737
136.571
-1981.48
800.436
1518.42
-843.742
-674.681
1986.94
-877.421
-1109.52
713.554
576.784
-241.27
473.237
-676.914
1129.14
-452.227
-770.283
1201.4
551.519
924.696
-1724.84
800.148
-535.26
-69.3582
604.618
287.28
243.154
414.197
-108.61
-305.587
896.905
-83.4551
-813.45
903.013
-547.067
-355.946
1576.21
-472.165
887.356
-1625.44
738.081
1068.48
879.393
750.922
-445.507
-305.415
-1059.05
-258.285
556.045
582.108
-1138.15
-445.42
489.463
-44.0431
579.49
-347.24
-232.251
-982.122
571.43
596.872
884.5
-441.841
1096.92
1404.96
-769.954
-635.006
399.16
-926.71
527.55
-1006.3
388.09
536.865
-1030.74
445.396
-505.923
60.5269
462.776
290.172
-517.257
-48.7246
-794.694
-876.972
1671.67
195.496
212.59
-217.076
427.187
-34.4506
-536.412
570.862
487.575
866.478
-1354.05
-530.079
314.303
985.887
-88.982
836.521
-1065.04
228.521
381.055
846.635
-1386.57
-441.997
831.608
1976.35
-1282.76
-693.588
270.111
609.277
255.95
795.86
74.1261
-955.575
881.449
1673.75
-1089.07
-584.675
-137.838
1887.71
-1866.05
-160.659
483.616
-621.801
138.186
-1015.23
526.431
488.796
-1730.48
538.319
-955.91
845.608
392.796
204.026
587.812
-286.231
-426.076
712.358
254.808
79.4026
711.989
-791.392
-1139.12
-890.13
2029.25
-532.957
1087.76
-554.801
-453.096
-334.954
108.658
-1653.8
859.106
-879.72
-582.953
1462.67
-331.9
-295.364
627.264
365.926
-640.851
274.925
234.497
-605.079
304.053
214.144
-518.196
330.036
-596.594
613.244
-247.318
315.954
-466.066
671.296
402.047
-167.046
-371.945
-308.03
1214.72
-3.61089
-1211.11
1040.1
-420.107
560.716
410.728
-1782.38
869.828
912.549
495.702
542.286
-1037.99
-535.674
203.774
-262.486
1180.53
-918.047
-1590.9
1212.61
504.679
-1096.75
389.474
-14.0183
423.034
293.384
-716.417
373.492
-619.11
-29.8454
755.213
-725.367
-526.169
796.136
375.275
322.723
527.569
655.058
78.2596
-387.416
309.157
1059.03
-645.27
-413.761
494.009
-1664.27
1170.26
-1140.45
1753.25
-612.798
1715.81
-1123.73
-335.361
616
-1182.46
1256.58
425.284
-796.707
1596.72
-800.011
-243.8
-223.783
-889.006
1469.35
1811.37
-611.525
-1199.85
-404.98
637.006
-1302.62
-124.77
-34.5586
448.755
-673.352
-354.173
-1236.72
-225.987
460.485
903.856
-563.058
186.068
-1674.51
-71.1896
1745.7
-1052.19
519.238
571.277
-1181.16
609.879
901.204
910.166
630.805
620.03
672.857
244.773
-1123.85
446.937
-405.752
410.547
622.652
-515.642
251.866
-735.874
484.008
672.605
-339.685
-334.165
185.202
-588.381
223.073
365.309
-888.528
-736.909
1087.67
-2145.75
400.152
-685.145
-342.974
-724.385
833.054
571.905
-351.189
305.152
358.55
202.83
662.876
-865.706
528.97
600.171
-521.251
179.476
362.843
-604.171
-1046.16
-846.749
1892.91
-1790.98
156.986
1107.3
-1369.79
1153.67
-733.388
-420.277
-503.414
1350.05
-1495.55
627.876
867.678
-287.426
-210.671
498.097
1428.39
558.55
322.851
-461.197
-486.886
-564.15
1051.04
-417.933
601.221
1582.16
-1128.72
-453.439
-763.099
312.811
654.938
404.093
-1623.43
416.157
1207.27
-202.963
507.015
797.945
784.214
194.407
-671.568
477.161
208.146
212.297
-293.045
-110.056
403.101
468.171
4.63281
-472.804
-1628.78
579.379
-1601.35
1665.01
-63.6551
9.05595
-1610.41
1069.61
746.061
-323.027
-798.72
-207.578
-1134.59
-239.959
-312.415
685.908
-1812.35
-623.904
1206.01
208.145
760.233
-1329.16
-678.366
-465.315
593.947
-330.051
-1013.28
1350.76
-1932.82
582.063
645.898
1288.01
486.503
-2.97243
718.01
699.336
-1417.35
-641.473
339.442
302.031
440.981
-100.296
-340.684
156.314
283.573
171.383
-454.956
-576.168
1143.2
470.39
-604.816
-462.325
-401.998
864.323
-336.539
175.274
-461.409
168.824
-306.173
-709.053
548.954
-107.973
-569.294
968.454
579.307
-269.97
-309.336
456.518
-781.22
-645.575
428.326
-1129.42
-831.278
1179.11
-569.771
460.601
266.56
-440.06
89.2515
1029.48
-316.594
593.639
-277.045
-509.044
1578.65
-674.339
224.68
381.505
-606.186
210.801
466.954
-17.5352
-449.419
-254.328
-207.081
1009.36
1108.95
564.795
-864.495
934.977
-70.4828
-456.333
168.907
-718.045
292.373
-599.725
317.832
354.773
812.293
-1224.09
411.794
778.246
-808.091
-948.976
-550.38
1499.36
-152.398
453.593
-525.083
248.423
1299.49
760.895
-566.487
1303.76
-693.218
488.023
-686.177
-416.17
-424.064
-378.822
802.886
503.428
-844.926
-437.02
81.3288
355.692
-324.493
572.403
730.307
-330.155
-245.757
-176.441
422.198
-493.774
148.303
345.472
1456.63
80.0187
-1536.65
-749.146
1346.02
-1144.76
-466.081
535.046
-153.541
1149.85
-371.599
1083.51
492.702
693.665
-411.728
-885.15
-522.324
-1328.47
-28.8697
985.149
-956.279
597.422
315.65
-913.072
-317.492
-227.99
-681.523
405.517
1621.19
-165.677
362.483
353.773
-716.255
-1839.79
-2106.68
1519.14
587.539
-2037.91
342.965
348.995
538.126
-887.12
-460.275
1020.99
-381.69
-674.462
1056.15
-2030.53
1391.21
639.318
600.858
-982.549
53.8666
391.529
387.011
201.324
246.234
314.556
949.853
853.776
681.606
-326.844
-354.762
-295.004
623.508
-328.505
574.907
530.047
565.575
514.98
-1080.55
-796.252
-699.302
753.25
396.595
-421.164
696.089
-1193.42
1609.58
407.177
-1081.64
-320.16
534.304
-1384.5
861.91
522.592
-716.673
-355.813
-793.466
370.09
423.375
447.034
718.542
-1165.58
1068.59
-572.893
-394.455
655.338
-260.883
254.341
324.966
-468.828
-432.201
901.029
-242.596
550.338
-942.672
392.335
-467.382
600.599
-1681.26
423.741
671.261
-1095
523.905
87.4219
113.407
-2212.79
533.955
-73.3548
1443.84
1777.09
-217.553
-1559.54
-438.41
1789.17
-1986.9
1194.45
792.449
405.194
345.728
-32.0828
865.137
-1283.56
718.984
-870.826
-823.708
794.839
313.794
52.2554
-366.049
229.028
183.707
-412.736
1549.01
-831.002
-1530.94
-325.432
466.573
-193.084
-273.489
395.578
367.037
235.215
358.732
-8.39178
1001.24
-992.852
375.073
266.639
-641.712
-734.026
1817.28
-1083.25
-343.142
738.721
-1213.19
-411.445
-916.447
484.246
560.979
-773.694
212.715
763.002
-381.573
-381.429
-420.616
-443.879
447.99
1065.83
1236.27
-664.993
802.266
-345.748
388.009
303.607
-254.9
-212.596
-195.237
613.48
408.208
-848.871
440.663
202.663
357.337
-560.001
-423.443
831.651
754.702
-1147.45
878.197
-65.9045
-492.585
273.808
770.979
-95.5831
1383.59
1890.5
-73.5918
342.009
-320.245
398.505
-1085.45
1077.06
610.288
376.662
386.341
56.955
409.618
266.693
487.777
-371.171
-270.302
-564.14
-89.5581
-357.728
369.902
-12.1741
-258.639
-289.897
1011.1
-1540.73
529.626
-201.378
-174.794
-385.041
651.68
-1627.99
1591.07
-963.191
247.126
-663.297
584.311
1224.42
-1808.73
607.409
983.657
294.426
-1119.16
693.082
-288.791
-276.3
1370.71
-1442.21
821.81
620.395
406.999
-616.357
209.358
-354.563
473.455
-118.892
364.893
103.278
1723.69
461.975
-253.829
557.62
-1704.79
1147.17
-91.7903
395.302
343.464
338.141
-448.544
-616.002
1064.55
421.927
-863.925
-641.302
903.108
570.335
-498.696
-245.097
-439.731
-409.139
-307.196
-827.39
1821.11
-1821.11
-106.001
-1585.11
1691.11
293.418
286.072
-917.351
-555.295
1472.65
-408.258
973.833
-587.005
-1041.77
680.47
384.605
-1065.08
479.579
-163.624
573.059
1220.35
-1793.41
-1046.13
2116.45
-1070.32
-374.39
-299.252
-491.665
804.475
-1748.37
1598.55
149.822
1748.37
-1601.6
-146.772
-246.893
526.429
-279.536
-537.281
1620.79
1558.4
-1969.84
1068.56
-285.587
-245.272
530.858
243.924
-564.084
-692.434
271.27
1340.9
635.455
577.674
485.928
-1063.6
284.21
409.455
875.465
500.116
-1375.58
531.183
-1018.07
1574.97
-563.865
-777.15
-368.518
-109.416
477.934
-489.957
1208.5
-742.87
334.022
368.407
355.146
258.498
-613.644
599.07
832.032
-603.511
266.926
668.051
-498.696
-319.836
-222.654
542.49
1168.57
-667.59
611.267
465.046
-1076.31
-1286.76
1286.76
-387.165
763.826
-287.487
-474.387
761.874
483.373
449.194
-932.567
388.398
-675.885
613.639
-869.26
255.621
-367.398
-496.382
1074.06
-662.503
-709.035
1371.54
-374.978
925.315
-1552.69
675.267
37.9011
-403.016
365.115
-497.339
692.805
241.993
331.795
171.716
307.862
-508.37
219.58
1869.27
-1964.85
270.759
-695.881
445.28
-822.162
376.883
-921.457
1407.31
-485.85
-429.927
-486.52
600.693
1124.21
-1724.9
-716.729
342.339
-460.127
1035.03
-770.207
1037.13
-380.136
-630.364
-475.541
711.932
540.939
-358.825
905.301
-300.63
-193.144
1599.02
-1816.57
-344.664
-598.008
-332.4
480.703
249.064
-579.115
-181.382
1056.47
-782.664
216.813
-278.021
-287.728
565.749
396.247
-874.28
478.033
-488.163
-445.111
-929.534
-333.048
560.956
-227.908
-446.763
-417.596
-320.121
-198.076
-379.498
637.996
-448.089
751.696
-1073.13
624.583
-1410.62
530.896
-27.5945
-1833.93
1861.52
569.89
-449.419
1204.03
-684.797
315.75
-315.75
669.975
-432.046
1042.99
-1630
-1158.73
-947.947
293.65
329.858
881.401
715.317
-484.942
-302.593
787.535
1656.2
-1683.8
-434.741
351.123
221.165
1135.36
-524.089
-943.332
1550.47
-607.14
446.83
-245.506
385.635
368.419
-754.054
525.867
474.979
-1000.85
-332.194
666.216
-37.8245
1907.09
1583.25
992.945
-1697.06
727.248
-1177.24
449.996
-492.464
1367.93
838.044
-1341.46
-543.409
257.823
793.143
-403.579
554.695
-1187.72
633.021
-639.26
-1215.54
-695.643
1911.18
-204.246
541.7
-337.454
-166.532
284.678
-488.924
326.28
374.028
-700.308
-1480.33
757.859
722.472
884.112
-1434.49
826.57
-431.582
220.883
-366.293
-575.655
255.818
-633.925
-750.577
699.224
505.816
-1205.04
394.97
-205.513
-189.458
556.578
-959.145
-560.352
-426.536
718.91
-831.274
-1155.62
-1437.98
499.627
938.349
16.5721
-619.551
329.391
290.159
-1309.72
1045.57
264.144
-616.989
-456.138
-665.974
921.925
403.753
-205.031
-198.722
508.164
980.713
-1488.88
975.061
-563.588
166.994
396.594
-388.059
667.704
-396.946
-509.716
177.315
234.511
-1517.27
533.261
535.334
-734.784
237.445
159.383
-460.013
373.421
-818.532
1954.16
-1195.39
-758.769
406.619
-659.196
252.578
324.536
321.698
126.612
-448.31
-563.009
195.515
266.46
-691.709
1374.4
-682.692
424.097
452.768
-1169.44
267.79
1866.78
-1013.59
-853.188
785.091
-516.199
183.151
1402.39
-975.206
-427.187
338.359
-770.405
-616.495
1725.45
613.589
622.681
322.306
-8.51205
273.249
-1138.45
1725.72
-587.27
-1763.52
820.188
1750.55
-1682.06
-68.4927
-658.849
253.097
559.37
-699.449
223.908
1402.8
-564.759
393.64
437.968
-1858.53
1420.12
533.453
-415.511
-117.942
214.449
-534.57
-276.981
-176.115
-353.714
697.178
-569.752
201.234
604.892
553.849
-1158.74
1113.67
-1947.41
833.747
165.948
314.173
-1698.68
1660.85
319.991
-731.719
-164.935
385.818
750.627
680.481
-1431.11
1071.6
-1075.21
528.98
-1101.87
-632.474
254.524
377.95
512.721
-289.648
-595.252
-1034.74
300.138
-717.734
-912.319
187.137
166.11
228.861
380.205
298.338
-678.543
-626.461
-833.934
-978.417
493.543
-1056.55
-279.025
478.191
535.945
643.164
-280.179
-122.558
-409.957
704.383
275.84
-1197.67
571.209
1306.4
-555.769
446.031
-1006.38
-388.152
156.516
376.938
1023.42
551.549
-1712.62
1606.62
1624.52
-553.911
-1070.6
1902.45
-1890.71
-11.7348
195.565
-515.81
-335.718
552.531
-761.508
-316.606
-342.243
1029.26
696.077
-1495.68
799.607
347.358
-26.1913
1625.21
-1073.01
405.424
-1228.36
451.21
-59.8588
1516.49
1197.54
-470.29
-489.165
-74.4233
-260.898
736.01
-1951.55
-711.728
347.97
-535.914
187.943
191.591
-508.186
1139.91
671.548
-1811.45
-591.597
176.085
942.11
-1497.41
-210.498
678.924
-468.427
882.45
1117.55
-735.089
1348.68
589.544
-475.826
-113.718
-349.082
1170.89
1036.31
-1981.27
944.963
-1170.16
546.254
1488.84
-585.737
-367.625
-153.626
-1240.09
575.101
1160.25
-122.617
946.066
775.451
-1721.52
-215.088
578.44
-1541.77
963.326
486.988
916.712
-1403.7
616.286
589.726
380.255
-1106.65
591.474
1105.46
1216.01
-452.385
-763.627
-1186.2
-1754.95
-8.45574
-1704.17
-205.529
-410.827
1606.1
-626.547
-979.549
-490.873
1121.68
-1316.49
637.545
678.942
-1360.66
1440.67
-1329.03
593.938
1520.55
-386.63
-557.256
189.631
-1475.37
241.299
176.386
216.603
372.941
435.89
390.971
-826.861
506.332
-939.093
900.969
-1444.9
-685.098
232.413
452.685
-1038.5
462.33
-469.7
863.34
697.145
31.7457
-517.41
179.956
-886.565
-1318.74
-716.906
350.878
366.028
405.974
-724.465
318.491
-480.432
-189.382
-709.732
717.568
1539.52
-593.451
810.713
738.3
1344.84
-844.727
-971.41
-570.357
-798.699
428.199
370.5
-1037.1
-644.385
305.371
339.014
-1433.69
-296.782
-791.911
399.07
392.841
-640.7
391.32
249.38
-669.92
272.975
412.833
488.196
390.046
441.605
479.558
384.765
597.048
-970.276
671.958
471.245
454.06
356.686
-810.746
1630.77
-1079.91
-550.861
-504.461
-282.239
-1027.48
454.88
348.006
409.685
594.547
-1004.23
-1379.56
753.011
-535.514
1145.39
353.964
-70.3904
412.313
-866.5
454.187
-1892.42
307.317
442.013
-727.161
285.147
-186.794
407.147
-220.354
-663.873
310.018
353.855
-675.985
321.223
371.188
392.638
613.048
-1021.31
753.769
660.974
-1414.74
438.804
625.742
340.15
393.229
-733.379
410.032
328.688
603.925
669.465
396.37
587.482
-1012.64
425.159
-1667.27
1200.88
466.387
1696.6
-539.174
621.736
-1147.64
525.906
-643.771
348.407
437.394
-935.968
498.574
738.957
-445.573
351.478
345.7
561.596
-906.26
650.902
-1253.64
602.733
362.111
735.014
-1224.97
769.82
509.485
-1279.3
477.423
408.124
-885.547
-501.63
-936.346
-304.712
630.992
352.675
542.236
-894.911
333.667
332.549
-502.178
1944.74
437.413
-847.686
410.273
-917.911
-806.933
-750.112
368.683
-1208.74
438.532
-1728.39
1601.6
126.792
1743.66
-1598.55
-145.105
-785.479
-595.16
267.173
327.987
-1750.55
1969.84
538.378
791.852
-1330.23
440.1
716.54
690.49
385.641
-1076.13
-81.4762
1617.15
-593.737
381.742
822.293
-650.82
327.187
323.633
-378.765
-298.217
552.558
-224.628
436.993
281.633
-668.239
386.607
266.1
-581.63
-283.92
442.549
-1034
591.456
538.041
1092.73
366.08
597.209
312.238
352.855
-665.092
1615.19
-919.116
1691.73
-1520.33
-171.398
-329.06
-824.483
415.343
857.589
-1068.09
-609.169
280.665
-1090.61
1628.65
-1577.79
-80.698
1658.49
-341.997
-350.735
-370.614
536.353
599.002
-504.457
-29.8058
-550.03
508.929
-284.518
-224.411
1740.31
-1292.32
-626.939
300.245
326.693
405.741
357.281
734.79
-297.081
-399.235
-1743.66
1683.8
459.539
-1101.33
641.794
-44.0645
1650.68
571.451
476.462
-1047.91
104.475
1145
-1452.19
-17.5297
-1874.89
229.393
-600.552
308.135
292.417
-955.695
612.721
-899.26
469.334
-1128.88
673.839
455.045
356.386
268.748
-753.69
-312.806
1217.65
886.988
699.006
-1183.09
456.163
726.925
494.315
701.117
-1195.43
-359.535
-249.135
415.245
-961.399
438.534
522.865
21.2583
-1879.79
1080.75
-467.116
-490.504
558.003
-1378.34
820.338
-421.784
798.667
-405.57
495.905
-713.242
1722.6
415.448
-186.588
216.533
-172.244
-247.205
419.448
1895.32
-504.11
-1685.62
1051.85
-603.14
304.922
-1014.45
554.173
-313.84
544.267
905.377
-1449.64
-1104.1
438.122
-20.6773
-1944.17
1710.62
-674.313
-540.853
460.704
-1190.71
730.008
191.176
212.578
-282.413
768.067
701.287
838.825
818.905
-462.218
1085.28
-465.946
481.187
-194.951
-286.236
-1922.64
-714.475
-318.919
-643.963
-6.67939
650.643
469.597
-274.082
561.922
1053.27
-799.85
925.59
1244.5
-425.413
-201.988
-223.73
425.719
953.868
-888.592
-328.889
-1068.34
612.206
1554.23
-796.366
537.617
935.029
-388.684
736.512
-347.828
1130.59
-276.734
322.931
1349.85
-704.836
-221.874
448.298
-1198.8
750.498
-1003.36
-94.6693
1098.03
442.536
-956.399
513.863
175.521
732.631
483.381
744.791
-81.9149
853.918
-425.837
1182.74
-797.1
552.062
-1465.55
913.487
-1216.66
1800.97
-431.712
-1510.19
879.754
-1402.08
-299.79
-416.628
1457.32
-1522.39
785.479
1491.52
203.463
277.723
-350.333
-1728.39
-297.971
-1004.87
1566.79
-1760.14
1760.14
1558.4
-1004.54
-635.541
-333.401
368.477
605.356
-363.732
-358.599
-1389.9
897.435
1125.16
600.559
1202.89
1789.48
-1216.42
-607.944
274.646
1658.94
-1916.39
257.444
814.083
-1267.52
1545.26
-561.607
773.751
314.007
-330.572
554.662
795.387
678.919
1350.33
-212.415
-445.073
-349.635
498.133
-341.888
471.727
736.772
-292.313
-155.997
-323.174
567.351
-244.178
26.7366
-373.977
1107.48
-1720.28
-426.818
-480.173
-565.769
864.42
689.806
-1596.57
904.859
-451.722
-616.309
-513.522
1252.32
325.159
1723.66
-1702.4
-1656.2
1890.71
-1560.88
840.311
720.566
-359.683
-1794.69
917.719
582.954
819.849
-396.857
1794.26
-680.594
-405.393
674.105
421.751
-1095.86
-1099.66
444.094
753.444
-1617.19
473.187
901.214
178.469
-405.241
226.772
-1591.25
-381.771
-421.751
990.312
-668.884
1442.99
-972.594
1855.04
243.205
-544.653
499.751
-296.287
474.32
893.608
543.057
977.493
-462.825
-428.04
573.888
883.435
-1392.71
-40.9885
1568.85
-830.552
519.952
971.569
-1475.87
-1115.9
1767.26
-1243.52
-523.734
1206.2
-318.954
-887.241
-193.594
457.632
-264.038
-457.498
-251.701
434.301
-182.6
148.079
-397.214
1726.12
-1734.58
-450.414
-530.847
-903.644
447.423
-208.35
-239.073
635.87
-446.871
-356.692
-301.371
658.063
-923.425
368.886
-1167.41
676.539
421.674
-629.761
-445.308
1570.28
-854.959
530.183
-457.87
-571.432
-462.573
365.508
-355.198
-10.3099
-1091.57
406.77
-664.686
-1033.71
1698.4
-592.468
-1423.12
714.089
562.17
-1596.28
1034.11
-374.106
-482.784
142.42
530.437
-1258.57
745.049
539.221
1006.04
-2133.18
999.99
1133.19
-347.434
413.445
-388.277
-25.1678
1478.09
-362.831
449.559
1218.57
582.114
906.73
568.262
527.416
-1095.68
168.04
-431.581
-1682.06
263.351
1127.59
-608.329
518.447
1013.82
-1532.26
1092.87
-1643.74
193.878
684.32
540.261
-869.15
-1086.56
-172.545
430.763
-258.217
-587.218
-419.396
-636.91
-629.513
347.1
-1618.5
939.941
-476.75
216.737
-403.325
537.517
-308.124
-598.259
1197.26
-1263.46
920.092
343.369
-1027.41
-351.462
-753.925
-821.523
1685.94
-476.889
1793.36
-1580.74
-212.622
-1556.65
1018.75
537.903
-722.549
-261.399
444.853
-183.454
-585.307
384.188
276.146
-660.334
-523.853
979.816
632.415
-351.751
-1620.29
1050.52
571.759
1103.56
-1675.32
-402.703
-295.787
-368.087
-742.013
-461.19
-331.766
503.482
1558.01
-995.837
-775.568
1497.47
663.338
-312.215
725.881
1152.37
-1878.25
275.38
294.988
-487.091
-1931.41
1719.36
212.054
740.533
-474.892
-265.64
531.824
1060.85
-1592.68
365.508
-1721.69
-233.209
1752.35
-1580.71
1073.79
506.917
-1720.54
-1.15445
-521.593
413.445
1698.68
-1719.36
939.826
624.323
-1564.15
384.843
-220.395
-164.448
-399.815
-270.106
72.8214
95.3053
-356.704
-433.747
-435.513
-410.121
223.328
1510.26
378.806
-217.378
-423.321
465.284
-198.824
308.953
1510.79
1002.13
-155.069
-847.063
-1104.12
1704.81
-1728.75
1064.07
-707.096
-1021.66
-1265.09
1844.99
-579.9
1155.08
-1771.13
616.049
272.307
-878.305
1675.65
43.4553
-1719.1
-491.16
-1083.08
-1726.12
-982.712
554.672
1019.63
590.214
1133.05
-1723.26
291.631
-445.171
705.708
-384.485
365.333
925.068
680.379
-378.883
-633.758
582.884
1072.58
-1655.46
-398.078
-372.072
770.15
414.839
-1660.85
1520.33
140.525
584.775
-1044.9
544.744
1083.91
-1555.7
994.096
-239.678
238.246
314.285
1902.45
407.33
-85.2134
995.863
722.753
-1718.62
-697.449
1085.37
-1557.53
167.747
-571.985
198.789
266.496
-649.539
-559.2
582.467
1034.69
-711.249
-265.509
-1368.8
676.356
692.446
-417.676
774.456
55.8348
-830.291
561.622
-137.142
1557.26
-218.946
265.616
-769.377
-1931.41
1664.63
1037.27
371.106
293.416
445.541
-930.308
-992.332
-1767.27
638.712
1693.77
511.46
-474.216
1210.99
1087.16
-424.982
1030.34
-979.726
494.76
484.966
700.065
1047.98
-1748.05
487.321
481.134
-1494.04
-747.866
31.5811
781.751
-413.067
-882.809
392.305
-538.555
-802.903
627.953
-577.095
1397.43
1055.14
195.406
235.356
-550.608
1618.53
-771.761
1525.53
-1727.84
575.243
1152.59
545.827
-884.368
-1732.67
1916.39
-183.715
1721.74
183.55
-543.377
369.107
-273.801
-481.366
1211.37
568.271
1128.33
-491.375
435.601
859.721
-463.62
-775.018
424.027
350.99
1418.69
1089.63
-518.168
1423.03
-510.674
-533.503
1044.18
-602.743
461.349
-1194.74
1691.73
1839.58
-687.21
1585.58
-645.753
-1241.54
717.683
-562.383
203.52
-393.995
457.042
-244.744
-520.611
-1246.71
1870.94
-624.229
1173.56
-551.827
1120.29
-1659.47
1689.9
-573.928
-544.909
-549.81
1720.07
-317.436
-688.024
-473.303
1223.8
-1681.76
-1860.1
613.391
286.544
-931.811
170.263
215.233
-1719.03
1204.16
514.87
1162.86
558.888
-511.198
-465.379
1192.3
178.752
228.395
588.444
1251.14
-539.174
-1238.59
1777.76
-1025.47
999.99
866.79
-204.139
-1658.94
1702.4
-510.056
1411.27
-1732.67
-366.296
23.9008
342.395
-267.477
587.507
-320.03
63.9031
492.194
782.917
-376.942
1257.53
1270.95
-413.358
853.31
-437.967
1817.43
-662.353
1586.51
-1723.66
-412.782
-732.943
302.872
430.071
-559.347
-563.235
79.7318
-1138.78
-985.581
-669.547
1655.13
-943.708
-1189.47
158.534
-403.806
-648.679
705.583
1167.45
649.977
1410.37
-590.524
1636.75
1318.19
-573.145
-495.24
198.953
-503.273
1396.88
1240.27
-563.914
-999.989
894.338
53.3498
-947.688
603.444
-506.119
1403.55
1495.1
-588.368
-368.273
368.273
-589.396
1623.51
1239.65
-486.201
1134.16
-74.7147
1851.29
-396.295
1489.51
-588.538
-507.674
1347.98
-653.362
1218.8
-565.435
1554.82
-591.491
744.414
572.822
-1317.24
-651.263
276.083
484.811
599.998
-1957.3
-976.891
1586.51
371.005
-371.005
-73.2635
389.741
436.829
369.449
-4.55659
-342.115
885.146
-523.034
-425.925
815.666
-244.883
622.833
-436.622
1543.53
-444.34
-884.128
188.504
227.588
-416.092
601.167
1250.78
-1851.95
927.982
-458.648
-355.198
126.153
-1943.01
1816.86
-453.997
187.276
1181.34
-440.454
-740.886
-307.845
-574.964
-491.538
-388.277
-482.757
258.345
1158.67
-559.672
231.454
-384.6
153.146
-22.7695
-107.674
1376.04
-1268.37
34.5443
-598.684
-586.374
-453.478
453.478
-1262.36
1985.11
-1344.4
-217.496
-1824.16
243.419
-1025.76
-974.241
-187.378
-1637.27
706.959
1229.32
-1924.96
371.624
311.535
-683.158
-1850.01
1234.27
615.739
-562.152
562.152
-959.25
-40.0324
-1866.05
-558.138
1650.87
-677.731
1636.18
-601.494
-171.145
-1703.75
-586.879
-439.527
-594.785
-467.49
467.49
-1537.81
194.524
1343.28
174.433
226.969
-401.402
489.536
512.596
997.74
-474.875
1751.3
769.002
-424.212
399.044
520.202
1702.06
-594.573
-552.96
1636.87
473.435
1812.73
-645.273
-1803.86
-1938.08
-646.919
-479.717
479.717
-583.024
233.389
-686.143
1020.01
-465.842
-1071.34
-285.172
1579.57
1852.3
1635.33
-1635.33
-279.675
739.274
1761.49
595.784
1275.15
174.555
210.288
567.397
593.939
1603.52
-1603.52
223.677
-352.842
-433.899
461.902
952.466
-457.706
-639.956
-1131.02
1706.27
281.681
-1645.08
603.312
-290.064
473.614
1744.64
-592.051
-216.632
-411.16
381.945
723.511
1738.57
-613.409
-511.76
-775.592
1960.53
-870.452
-1090.08
1642.8
-706.422
1223.98
-1824.94
600.966
317.786
-862.439
-185.995
-105.925
1098.69
-486.482
124.561
608.95
-1643.69
441.556
600.678
-1803.86
-583.272
1787.43
884.539
-1162.93
1760.49
-597.558
1783.83
-575.522
-1208.31
438.875
929.684
-1734.58
924.826
-1502.48
275.944
1226.53
-831.824
-1254.23
-380.913
75.9924
304.921
581.714
271.083
1025.11
-446.326
847.933
-401.607
821.499
737.753
-1559.25
643.637
1066.27
-24.2619
-663.642
687.904
-1744.29
722.63
696.491
150.59
-1122.71
1936.75
-674.546
-1262.21
-537.175
1665.5
826.751
963.038
-1789.79
1227.87
683.315
-402.57
712.588
838.685
1028.99
-586.458
1761.49
626.87
1773.56
-1185.63
-587.934
-376.553
-318.378
694.931
121.445
-1185.72
1660.56
-540.265
-1437.82
1437.82
1250.58
594.414
1351.6
206.408
-569.334
283.779
-193.63
699.058
1113.67
484.847
-306.095
-870.448
-574.447
1735.73
-1735.73
1002.45
-1002.45
987.33
1025.17
-2012.5
1837.94
-613.965
-581.105
811.885
-947.848
-1052.16
998.419
690.375
-1688.79
-517.257
-336.718
-645.83
-808.421
2042.69
-1246.42
-613.677
1002.97
974.851
1289.77
646.984
326.943
1012.69
232.485
336.59
1186.26
1756.87
-1756.87
672.067
79.9629
-389.299
-997.051
-539.99
1674.15
988.899
1011.1
-1833.28
-224.632
-362.248
603.377
-340.025