/*--------------------------------*- C++ -*----------------------------------*\
  =========                 |
  \\      /  F ield         | OpenFOAM: The Open Source CFD Toolbox
   \\    /   O peration     | Website:  https://openfoam.org
    \\  /    A nd           | Version:  7
     \\/     M anipulation  |
\*---------------------------------------------------------------------------*/
FoamFile
{
    version     2.0;
    format      ascii;
    class       surfaceScalarField;
    location    "21";
    object      phi;
}
// * * * * * * * * * * * * * * * * * * * * * * * * * * * * * * * * * * * * * //

dimensions      [0 3 -1 0 0 0 0];

internalField   nonuniform List<scalar> 
44730
(
-595.463
668.137
-72.6737
1063.32
-1072.3
8.97343
-334.721
381.735
-47.0136
224.545
-259.533
34.9881
-498.33
498.33
217.77
-262.52
44.7499
-377.735
375.056
2.67935
27.5151
-565.569
538.054
663.966
-833.687
169.721
-1009.31
1102.28
-92.9651
557.831
-146.333
-411.498
-532.671
536.382
-3.71094
-687.796
582.644
105.153
-859.815
868.876
-9.06058
247.93
63.9629
-311.893
385.339
-10.2923
-375.047
814.515
-666.881
-147.634
-395.237
405.909
-10.6723
160.96
314.805
-475.765
290.156
-356.571
66.4157
-594.005
81.6805
512.324
724.59
-60.6249
49.6438
-384.365
136.487
-489.342
352.855
240.901
-134.189
-106.711
1067.63
-4.3071
659.821
-680.959
21.1377
-275.718
-8.38147
284.099
288.833
-40.9029
-442.663
543.928
-101.264
953.926
-248.731
-705.195
-672.136
761.879
-89.7428
252.251
-226.135
-26.1159
480.535
-72.1515
-408.383
138.291
-414.009
265.739
-432.193
166.454
433.376
-578.302
144.927
291.748
-40.3428
-251.405
824.935
-979.649
154.714
1062.5
-237.568
-1018.21
1035.73
-17.5203
401.665
-90.0141
-311.65
704.044
110.471
191.477
-313.708
122.231
1228.47
-777.705
-450.768
-591.265
148.601
537.838
-538.878
1.03965
230.493
645.538
-876.032
225.047
537.249
-762.296
-105.014
538.389
-382.468
166.609
215.859
-11.0367
-226.448
237.485
-667.589
-4.54655
238.838
-21.0676
423.869
-38.5296
-268.529
-44.7106
313.24
524.361
-499.661
-24.6997
-34.2934
-559.711
-464.838
43.7714
421.067
-299.082
-30.4979
329.58
799.505
17.5782
-817.083
-409.163
570.124
6.88336
-240.645
233.762
-218.731
484.47
-313.681
427.897
-114.216
263.433
245.086
-508.519
496.462
-124.18
-372.281
429.089
-48.9689
-380.12
-453.75
-31.5004
485.25
-986.712
-31.4961
1060.74
6.88802
293.474
289.85
-583.325
-243.888
547.368
-303.48
167.485
88.6422
-256.127
-431.452
381.331
50.1209
-370.397
386.999
-16.6025
271.659
-153.534
-118.125
-250.886
-59.6499
310.536
-699.296
16.5402
682.756
408.235
-90.3967
-317.838
-252.153
252.153
86.4133
-761.169
674.755
-664.158
68.6948
-947.218
848.227
98.9906
-321.976
-55.7596
-18.5679
215.809
-197.241
517.873
-140.173
-377.7
-644.517
-43.2796
652.436
-69.7926
96.065
82.3901
-178.455
-358.578
94.3298
264.248
-308.315
57.4293
846.435
-621.388
563.807
-596.825
33.0184
222.095
-93.1593
-128.936
-352.754
127.441
225.313
-25.5013
256.357
-230.856
-846.728
847.485
-0.756793
-34.1626
-158.039
192.201
259.411
3.63027
-263.042
-711.45
12.1545
-264.667
282.563
-17.8961
778.737
20.7676
431.794
-634.87
203.076
204.21
-215.247
-754.423
817.225
-62.8019
639.349
-717.298
77.9499
74.6645
577.772
943.841
-846.976
-96.865
-216.904
245.266
-28.3625
199.884
52.3671
356.29
120.231
-476.52
1009.09
-256.884
-752.208
18.1642
563.916
-582.08
-12.6916
-587.468
600.16
538.552
-245.077
105.045
423.667
-528.712
-303.11
407.239
-104.129
76.7397
-814.824
738.085
-699.22
455.333
13.6123
-214.192
200.58
19.6385
-855.089
835.45
-322.405
319.034
3.37115
-39.7224
303.155
24.0519
-890.858
866.806
-346.47
344.714
1.75659
-74.0286
-321.208
13.4134
-289.998
276.584
704.313
-786.83
82.5175
726.125
-860.282
134.157
-152.542
344.019
172.042
99.6166
191.918
-205.371
13.4536
300.814
-306.679
5.86448
-126.35
558.144
626.807
327.119
150.675
65.9282
-216.603
275.617
-314.821
39.2041
224.447
-257.146
32.6988
-22.7478
282.159
-353.042
6.57165
1.84295
-185.417
183.574
220.873
-58.9536
-161.92
181.123
827.969
-198.074
-739.276
937.35
-101.134
-397.196
523.03
14.8086
234.19
-226.413
-7.77677
273.842
-225.774
-48.0675
32.3546
-221.971
189.617
-397.382
634.917
-237.534
51.5438
509.609
-561.153
984.092
-886.531
-97.5614
790.898
-787.089
-3.80922
-573.536
-237.088
810.624
-145.819
722.088
-576.27
454.515
-443.579
-10.936
-206.071
-6.04903
212.12
35.3772
-763.805
728.428
-165.128
-217.34
-245.611
232.076
13.5344
242.339
-17.7941
20.3042
1020.88
-572.448
-448.428
735.195
-933.269
-398.861
95.7507
12.2414
208.632
16.4994
-778.259
761.759
-90.3803
-856.837
416.918
-451.915
34.997
-106.707
832.832
53.8394
-736.586
682.746
-204.383
-1.68777
275.617
5.96784
249.637
-255.604
-432.435
432.435
82.6353
679.776
-762.411
-313.607
48.9399
-579.669
597.833
323.033
-310.599
-12.4344
-777.833
-63.2701
841.103
-148.093
450.169
-302.076
428.825
89.0482
429.499
-442.536
13.037
268.589
-44.1421
-209.287
-324.701
533.987
500.816
-381.197
-119.62
-328.324
18.9341
309.39
785.649
-81.3366
-520.156
-80.1724
600.328
-661.071
661.071
-128.412
503.504
-375.091
94.807
-348.554
253.747
-919.474
345.938
306.457
-357.588
51.1305
436.784
17.7317
814.242
-498.492
-315.751
914.323
-65.0021
-849.321
74.8798
147.215
-847.314
614.366
232.948
-22.089
271.482
-249.393
-208.962
224.554
-15.5926
-44.0026
-488.669
875.154
-890.215
15.0607
-53.7081
429.492
-12.5747
788.582
-792.581
3.99852
247.125
-12.9349
25.9183
-242.822
822.13
-963.818
141.688
241.58
-343.318
101.738
570.616
-570.616
899.94
-93.2365
-806.704
594.218
73.0858
-667.304
59.7202
-330.579
270.858
-175.745
259.807
-84.062
-475.639
327.545
53.2901
735.292
-392.957
529.443
251.41
-176.531
-684.039
-176.242
484.664
-630.483
453.481
-501.042
47.561
-896.729
1031.57
-134.842
-580.044
555.623
24.4203
506.243
-582.135
75.8916
129.39
733.24
-862.63
211.265
530.743
-742.008
723.342
505.131
322.2
740.303
323.684
-232.153
-91.5303
-294.416
294.416
370.909
-401.867
30.9584
-28.1804
1088.92
269.376
-322.901
53.5252
531.389
-479.845
-297.429
-562.386
551.6
-565.355
13.7554
-29.2646
904.419
263.087
-285.176
-232.586
205.625
26.9603
498.936
-587.682
88.746
-197.641
959.064
-761.422
588.719
-82.4763
771.996
-383.375
-388.622
338.612
-48.4562
471.996
548.88
-205.086
186.519
-743.845
59.8055
-933.413
36.6844
477.532
46.8291
-679.895
891.16
-692.791
-61.6319
186.965
-204.102
17.1375
-74.0046
915.218
-841.213
-38.051
-817.794
855.845
181.823
-179.98
49.1756
172.829
-222.004
-8.38202
-366
374.382
326.137
-312.724
-607.735
210.352
-234.762
437.209
-202.447
908.551
-678.057
304.342
19.3411
303.782
-11.1586
-292.623
-568.403
161.234
407.17
460.509
-31.0094
518.64
-727.927
-370.292
-0.104308
646.728
-746.163
99.435
-231.723
157.8
73.923
-656.185
638.952
17.2328
226.894
-220.927
71.9513
179.459
-743.371
826.006
-305.682
320.252
-14.5703
68.0156
-362.978
294.963
231.52
-208.63
-22.8896
526.327
-328.541
-197.786
9.44727
-346.747
337.3
-497.18
484.488
-69.8524
270.74
-200.888
-661.992
159.121
502.872
-344.194
-8.55975
653.779
6.04203
445.161
-21.2919
-160.91
8.50841
152.401
-23.0921
725.391
-702.299
-854.059
983.449
321.041
-151.89
-169.151
677.322
-775.109
97.7875
424.453
347.543
706.307
59.6665
-765.973
818.1
81.8402
551.992
-524.974
-27.0177
1093.72
-1012.31
-81.4058
3.5513
-294.581
291.029
284.675
19.1066
99.3233
141.578
210.709
-18.7919
197.74
-199.209
1.46927
142.189
150.175
-292.364
-303.642
283.516
20.1254
-162.894
-299.065
461.959
420.218
-548.63
-318.877
198.998
-192.661
-6.33647
194.063
1009.11
-561.447
-447.663
525.83
-109.112
-416.718
129.406
509.943
82.0925
469.899
0.628363
-694.153
713.932
-19.7783
45.0583
-547.313
502.254
-90.5154
-249.067
339.582
-448.531
39.0139
409.518
-140.412
-335.976
476.389
780.002
-1.26474
23.7717
196.261
-380.967
184.706
155.108
-224.96
-920.802
849.457
71.3443
-294.827
306.184
-11.3569
671.464
-84.9666
-586.498
1047.02
-603.807
-443.208
197.173
-191.555
-5.61708
265.78
-110.818
-154.962
-421.152
418.059
3.09343
662.939
-31.299
-631.64
-695.211
1.05734
377.178
31.0567
-556.92
444.258
112.662
583.955
-578.249
-5.70676
-855.763
44.3996
811.363
856.371
33.1982
-889.569
-424.485
284.072
-202.719
41.8092
-327.683
533.445
-205.762
-184.006
-48.5794
754.995
-793.046
-147.532
196.707
536.29
-167.74
-368.55
-123.508
-308.927
217.729
-218.216
0.486631
619.577
43.3621
683.418
-608.754
23.0765
-302.258
279.182
837.667
-876.448
38.7809
-304.069
-6.52951
956.167
-959.333
3.16612
57.4317
192.047
-249.479
680.222
-33.4937
569.748
-592.855
23.1068
-829.096
848.735
203.091
-189.479
786.451
212.095
746.968
150.089
196.432
-346.521
-298.858
-7.30957
821.001
-67.7577
-753.244
598.283
-129.827
-468.456
250.787
-84.1784
82.502
413.96
84.7807
-260.526
473.81
-503.861
30.0516
142
-348.38
206.379
137.62
388.707
54.0764
860.247
653.09
-773.233
120.143
-22.6191
978.786
-282.159
-17.7263
299.885
-220.669
206.155
14.5136
-7.21837
174.703
48.2599
452.556
335.012
-343.394
-350.736
37.0553
-342.383
43.3013
838.346
-58.3439
81.3215
-227.531
146.21
-955.583
22.1697
-919.332
-36.2511
-486.289
57.6625
428.626
-733.461
902.405
-168.943
-197.726
-64.2573
261.984
-118.997
-89.0348
208.032
-158.37
-42.0441
200.415
-128.769
228.137
-99.3684
853.461
416.974
-220.713
154.845
-12.2696
-567.774
-879.458
-41.3432
448.949
149.335
190.957
-518.64
200.768
-1107.07
906.303
23.2813
205.733
-229.014
-4.64778
-204.314
418.485
26.676
89.1366
701.762
279.807
7.40559
-287.212
-469.872
574.917
728.798
72.8075
-801.606
-779.071
-7.75877
801.565
-855.603
54.0375
296.841
-281.269
-15.5712
85.1293
235.911
850.817
-864.945
14.128
978.829
-862.148
-116.681
939.181
-943.722
4.54078
-393.63
-163.29
-3.07942
-872.976
545.462
327.514
-180.979
161.778
19.2012
-245.29
387.479
140.042
91.4564
-231.498
755.999
262.089
-255.206
431.627
94.2039
783.279
-697.228
-86.051
-52.548
-101.317
-94.417
195.734
-306.782
261.287
45.4948
862.603
-838.551
-21.4247
379.199
-357.774
-326.756
-26.2853
571.255
-583.522
12.2667
367.442
-327.445
-39.9977
-828.529
731.219
97.3106
-905.807
831.802
142.766
123.014
-405.898
276.559
129.339
467.685
-453.79
-13.895
621.144
-622.644
1.49967
518.076
-44.2669
-310.509
-136.128
446.637
7.62027
-289.779
-69.1933
-248.607
317.8
544.286
563.929
-1108.21
-900.864
849.216
51.6482
-0.597665
-404.732
418.545
-13.8123
431.648
-399.6
-32.0476
672.726
-846.576
173.849
711.462
-882.294
170.831
-502.915
-159.078
-432.673
63.1105
369.563
304.227
-6.17676
-298.05
-326.737
168.366
476.276
81.5547
-719.707
-108.822
10.5429
187.197
-301.22
302.25
-1.02951
28.885
-333.568
304.683
489.827
39.8203
-529.647
-234.873
302.175
-67.3028
-896.195
-19.6377
915.833
-202.066
-33.8392
235.905
6.47186
-847.063
840.591
804.703
-118.402
-686.301
339.893
143.62
-212.814
-874.876
-21.3189
808.632
40.8253
-2.03674
546.556
-190.266
-507.831
-18.0658
525.897
-801.992
913.795
-111.803
313.501
-245.486
-401.19
310.675
-30.0469
590.69
63.0894
383.379
-241.379
305.456
508.786
-13.4478
25.4634
341.979
-777.515
86.9959
690.519
456.486
95.1133
-133.595
-26.2405
159.835
-851.807
-23.0693
68.7998
332.865
-194.843
230.942
-36.0991
46.0587
-280.931
-281.107
273.932
7.17523
-18.2185
27.2684
-513.881
486.613
-611.358
-134.805
-21.2127
301.297
-280.084
-335.049
455.28
599.387
447.628
-1102.77
430.486
672.288
329.192
0.302783
-329.495
-239.519
-162.169
401.688
-525.547
553.062
-661.257
-18.7828
680.04
100.019
84.8813
-184.901
-44.2496
799.245
839.106
-862.614
23.508
807.457
-154.367
38.2529
-603.822
-324.193
-22.5546
556.801
57.7728
-614.574
438.705
21.8037
-349.104
392.111
-43.0071
-853.74
-3.75573
857.496
-27.8187
-823.988
276.488
-280.84
4.35174
625.216
-4.07114
567.177
-412.271
-154.905
-220.082
273.189
-53.1068
-90.8966
-259.84
-420.545
-44.293
895.203
-183.741
-822.588
89.1265
-629.264
17.9062
-539.204
49.6443
489.56
820.551
-39.6283
-780.923
-256.866
128.097
1.55046
-356.483
354.932
860.353
-187.626
307.013
-2.78634
636.978
-67.2302
494.268
-4.44074
801.372
-712.235
-1045.13
-57.6413
444.789
22.8958
531.756
32.0513
730.63
-695.253
796.221
-38.5674
-757.654
192.799
-226.962
274.39
-13.1032
-117.95
204.788
-172.433
474.936
15.4792
-490.415
576.445
-97.0008
-479.444
-458.993
421.74
37.2524
128.87
672.502
7.44216
-98.1517
-759.398
857.55
80.3228
-666.622
586.299
225.21
-302.975
77.7647
-742.878
644.726
91.7345
712.968
-504.406
1048.69
225.541
-144.219
-276.797
-175.583
254.732
-79.1491
208.398
-265.947
57.5491
-179.443
319.485
8.85074
-335.607
-51.0926
5.21592
-410.402
405.186
-47.5307
-161.704
-194.867
-29.0022
366.81
-337.808
-870.853
944.464
-73.6111
45.4923
-528.07
482.577
25.1984
-245.867
-755.793
106.116
649.677
359.478
-221.187
819.406
1.14549
-32.6333
221.19
-188.556
436.898
130.278
-104.823
-327.851
816.041
-201.675
-95.2134
-914.1
616.062
-326.212
124.018
52.282
652.637
-566.224
495.588
-15.053
341.729
-35.272
338.863
-421.246
82.3838
192.3
-231.946
39.6461
49.8354
247.92
-297.755
339.007
-501.901
-4.87437
761.957
-806.207
537.608
-62.6723
-106.359
738.032
-631.673
-269.042
303.109
-34.0664
-69.4673
294.678
202.485
-190.244
-280.655
11.6133
-1058.77
587.172
471.599
-35.8609
-77.9188
173.984
-308.993
294.518
14.4742
-676.014
692.513
267.997
-272.804
4.8064
-479.54
180.475
-502.744
-556.027
238.326
-278.669
847.166
-946.597
99.4312
-343.755
19.5621
487.1
-627.029
139.929
-2.55741
811.189
258.869
-278.957
20.0878
-323.093
-549.883
-37.342
293.213
-25.2159
358.358
-127.622
-230.736
-19.9124
-841.583
861.495
-877.329
488.979
388.351
-55.913
735.689
-459.272
38.727
-143.311
-118.831
262.142
874.586
-818.175
-56.4112
392.487
-323.687
797.2
4.36472
108.071
82.0576
-190.128
-580.555
1024.4
-443.842
144.086
-192.278
48.1926
-758.984
-144.981
903.965
141.616
216.742
853.512
-31.3813
813.47
-736.73
503.301
-420.799
-14.5752
-226.07
37.4304
151.931
-189.361
310.649
235.907
-23.7463
-1098.2
619.198
479.001
8.33995
891.699
-60.5421
-831.157
-430.572
622.625
-192.054
57.1434
756.327
27.0744
-534.905
-590.518
-18.2628
608.781
409.355
144.199
-553.554
-264.743
-522.346
278.738
62.9915
-176.74
-75.4126
-406.145
352.625
53.52
-793.003
294.511
200.477
-261.517
61.0398
225.902
-259.829
33.9274
429.684
-424.468
727.735
51.7113
-779.446
-203.469
45.4303
822.162
20.8178
-842.98
-364.439
17.809
346.63
118.64
860.19
-409.284
453.056
411.279
-72.4159
-954.516
99.7153
854.8
789.108
102.591
-29.9511
222.251
50.3795
381.268
898.371
133.2
25.9205
-485.193
28.7429
-826.974
798.231
698.987
-767.129
68.1414
636.322
465.957
769.011
-56.0312
-712.98
193.531
-49.4456
76.2596
339.352
-415.611
-735.249
792.392
255.892
172.005
-280.514
168.648
111.865
-111.205
-426.813
538.018
-31.7246
-213.886
1004.41
-573.926
92.9861
-290.712
180.481
-213.114
-105.258
-154.274
30.6974
820.12
-164.736
503.743
-602.187
755.428
-153.241
683.004
-706.096
-395.242
377.176
-442.806
-179.839
39.4259
349.015
-13.5253
-335.489
-46.2883
808.246
-505.246
-623.366
1128.61
288.161
-240.632
215.131
5.22439
197.261
-254.694
120.505
-885.314
908.978
-23.6632
-278.223
258.763
19.4595
73.7622
709.517
3.36239
765.649
635.487
-15.9098
-15.0464
-511.97
471.678
40.2913
933.081
17.1525
-950.234
-319.168
-45.2705
-0.425449
-234.912
796.963
-69.2276
529.017
-623.108
94.091
-762.029
-84.6987
13.8422
282.998
887.625
10.7456
-490.609
440.721
49.8877
-950.454
-94.6793
45.591
-376.662
331.071
-216.622
240.473
-23.8507
251.472
-43.0746
-39.6163
1050.3
-313.221
-737.079
579.581
-50.5645
51.9669
-264.313
-66.2651
-688.792
772.182
-83.3905
-85.1566
-13.2191
239.121
504.716
-5.77971
92.79
-870.623
-88.8284
211.416
-122.587
-201.78
217.698
-15.9179
-681.791
570.586
-452.634
479.903
343.676
48.8108
-460.259
424.683
35.5761
581.964
427.147
498.358
-459.893
-38.4647
485.938
-316.259
-169.679
-182.997
29.4638
350.086
-21.2137
-328.872
-257.178
81.5947
-332.199
292.476
-219.042
-636.721
-691.589
-81.6439
259.132
-58.6554
663.07
197.283
7.02377
225.053
816.593
-84.5443
-732.048
328.661
-142.06
646.97
-504.911
235.316
-299.573
-97.0597
506.415
-750.933
7.56224
-124.787
-106.936
500.006
-95.4189
782.997
-687.579
-199.347
226.696
-27.3488
-32.8305
-245.392
829.584
-737.85
220.428
-427.623
-406.701
834.324
863.268
-200.198
-42.7532
788.366
-745.613
597.363
-6.67295
17.6906
-608.209
282.908
140.073
-422.982
-404.011
480.271
-23.2733
-316.491
339.764
-616.816
65.5521
551.264
-137.475
505.781
-368.306
-481.436
409.064
-482.878
73.8142
105.357
-175.123
69.766
-186.241
336.33
-192.308
-177.985
730.436
-31.4483
102.272
581.146
-611.024
648.84
-37.8158
269.618
-290.831
-810.617
-51.9972
97.0119
-432.988
590.12
460.181
-615.778
172.972
417.384
-845.007
376.543
-681.882
28.6512
653.231
-187.804
230.6
-42.7956
-816.296
886.7
-70.4042
-48.1258
-432.168
480.294
1005.36
-405.623
-599.738
-68.5975
-787.005
-16.1017
292.59
-950.464
207.426
743.038
-857.706
-92.758
-172.068
-8.91114
-777.767
731.479
-128.11
-300.512
428.622
-12.1844
-269.005
281.189
160.297
647.16
231.788
149.803
-381.592
-902.867
154.574
748.293
541.164
-580.932
39.7677
604.539
58.5931
-663.132
-44.7256
673.748
-639.886
-33.8615
352.885
-23.693
-30.7257
235.503
-204.777
608.413
65.3347
13.6861
-792.758
721.54
-777.571
-178.192
215.622
330.03
155.908
130.652
-322.959
202.558
-206.046
3.48791
340.376
-198.951
-141.426
592.171
43.3158
-747.955
801.181
-53.2255
-396.049
-102.675
498.724
-10.4378
-290.783
240.231
54.8661
-295.097
247.351
-98.1526
-149.199
418.288
-466.414
-61.7156
-740.277
-410.733
83.7081
147.812
495.763
-433.839
-61.9241
-232.124
255.406
-199.874
192.679
7.19456
11.6902
-215.595
203.905
-322.177
378.944
-56.767
218.276
-15.3635
-202.912
450.451
554.91
-260.792
555.492
-473.812
142.256
-239.382
97.1264
-200.128
-16.5837
216.712
701.277
-96.7375
239.189
-167.238
-358.661
275.147
83.5139
-426.4
-12.5766
438.977
-351.98
448.992
310.157
-324.588
14.4305
-16.1745
31.2088
472.092
462.739
35.6183
30.6089
-457.009
207.14
-1.51493
-337.262
-6.49331
-369.336
297.98
71.3559
341.605
-62.8671
674.077
221.126
-230.991
242.681
-287.688
306.622
97.2597
657.251
-754.511
-736.91
-25.568
762.478
3.56795
157.412
16.7786
-338.956
-690.677
621.1
69.5775
126.701
-169.186
171.031
-1.8448
431.877
-148.969
-251.032
-171.291
422.323
-164.47
-347.499
219.256
-16.6979
-252.078
108.767
95.1811
-184.009
-1009.54
696.319
-347.552
347.552
851.464
242.253
-35.2363
-509.097
-500.443
209.538
326.844
528.07
42.5463
545.3
-51.0322
267.392
-266.289
-1.10332
-629.384
662.248
-32.8632
-50.2983
-532.354
-47.3154
-635.424
710.461
-75.0371
84.0927
-493.256
-352.989
539.451
5.84934
523.813
20.4051
-544.218
747.995
-647.198
7.31208
-117.473
-60.1459
177.619
-418.831
86.632
311.064
-32.4762
-278.588
-158.312
-44.4071
-301.207
288.78
12.427
-288.65
68.5681
869.754
-195.676
-338.021
48.0235
768.38
-1.6317
-766.748
584.169
-658.981
74.8122
-922.855
830.375
92.4801
-23.2832
-637.974
110.229
297.01
-22.5938
-261.035
283.629
-781.908
20.7393
-202.96
-289.669
267.076
-466.095
511.587
-260.829
262.412
-1.58289
-302.222
301.324
0.898504
-811.474
705.114
995.981
-148.815
-168.892
287.539
-230.107
362.375
-165.942
415.83
-320.141
-95.6892
286.799
54.8059
811.195
-91.7131
-719.482
184.381
-681.561
-755.571
671.489
84.0826
5.806
-617.261
624.429
-7.16821
62.2389
176.95
-99.57
519.788
-271.387
287.896
-16.5085
379.076
-458.215
79.1392
-608.619
649.189
-40.5701
585.795
44.1618
-629.956
250.605
-222.692
-27.9136
556.667
-24.7089
-531.958
240.459
-128.65
-111.81
-132.165
-50.2319
182.397
956.229
-947.103
-9.12637
-575.497
-388.322
-46.2132
-757.114
803.327
-897.639
834.369
-582.939
366.427
216.512
605.078
-623.341
-14.839
674.427
-659.588
17.2699
150.598
-167.868
-52.0462
-281.521
-855.977
-66.8782
15.4667
365.864
334.07
-739.693
213.509
-6.36911
-227.452
227.452
412.831
-149.64
-263.191
-911.279
25.9643
-3.10368
-25.7745
-478.698
504.473
-753.748
-80.613
486.955
-406.342
-252.398
-408.673
432.047
-10.3067
-53.3267
259.06
154.824
185.552
-545.002
398.669
-164.092
395.88
339.072
-52.273
762.952
-709.113
-284.136
-6.99366
270.996
-946.893
-3.5611
5.61185
927.47
532.819
-448.727
-839.365
575.582
263.783
6.23456
260.585
-266.82
350.638
-8.38957
-342.248
-461.781
31.2097
-835.168
748.894
86.2746
-133.447
-185.721
188.9
33.603
-222.503
212.987
126.085
-800.991
17.8554
-592.298
322.71
269.588
58.2293
242.585
361.5
-324.942
-36.5574
-371.614
393.848
-22.2341
847.414
-513.344
-454.974
312.915
-321.225
190.831
130.394
423.38
-720.81
568.388
-27.2235
811.246
-807.883
79.3514
161.108
-829.322
812.332
16.9898
-794.797
46.8415
-472.163
-527.846
1042.65
-186.28
931.095
-835.181
-95.9141
-521.12
-463.315
984.435
-48.3925
-255.249
58.9509
225.403
-231.246
5.84309
-21.9826
-56.0677
733.39
469.612
-34.9118
-434.7
-373.196
-195.207
24.1921
-97.0985
-246.219
-145.899
421.884
-275.985
-925.94
925.94
92.7537
-807.577
491.827
-510.757
69.1529
441.604
-211.426
-194.472
165.942
-165.661
-379.341
-555.655
389.994
598.963
56.4537
190.897
419.54
-929.915
510.374
-18.9048
298.712
-223.894
-262.394
-215.04
422.363
-92.3329
-180.619
-140.606
-65.4857
-835.378
452.475
-518.067
65.5922
17.4469
-693.513
776.316
-82.803
415.798
-420.513
4.71499
246.023
-567.569
529.757
37.8122
112.407
113.019
-225.426
198.578
-229.303
378.939
-708.788
329.849
110.54
758.335
174.597
238.234
-68.6214
-492.956
467.181
292.441
-306.757
14.3164
416.457
-37.3813
354.069
-383.072
-21.9636
-367.636
389.6
-18.7808
-287.898
300.189
25.4011
-325.59
-424.171
278.272
-387.963
39.3657
631.125
-749.527
-409.88
532.158
-312.992
-91.7404
976.65
-866.11
-492.747
-312.299
805.046
295.639
37.429
290.803
-328.232
-457.789
144.584
-278.031
-51.7489
450.926
-563.852
112.926
47.4238
613.647
-182.926
65.4532
340.437
-282.207
708.748
-329.809
271.759
-177.429
23.8761
364.763
-388.639
-28.1187
-294.988
-7.27023
-254.534
250.568
3.96553
1.44652
556.794
-529.72
45.9195
-891.586
113.327
799.554
-2.3536
329.266
-116.278
525.489
328.707
-854.196
598.398
239.948
669.722
-765.141
-748.458
106.321
642.137
293.416
42.475
-335.891
185.109
-177.743
-7.36536
30.8142
274.567
572.918
-194.632
29.1684
165.463
-156.802
-606.966
763.768
-340.275
363.613
-23.3381
-246.71
295.245
-48.5356
-148.114
-174.787
-255.885
210.398
45.4871
920.092
-920.092
-87.2751
727.036
-639.761
294.781
-209.652
344.725
-68.1662
-657.91
189.409
27.2919
-216.701
48.147
-583.716
535.569
26.1458
-222.607
196.461
908.331
-914.019
5.68757
301.095
-674.548
373.453
335.964
-290.373
51.4384
310.061
-350.748
876.237
557.015
-106.089
-72.5936
-242.228
-400.655
321.614
79.0411
221.908
-346.088
332.369
-500.518
168.149
-229.552
41.7479
-873.294
-73.5986
34.836
-728.349
311.026
-183.584
796.379
-773.244
-23.1353
433.569
51.1144
-484.684
-685.561
610.658
74.9034
-263.632
220.538
43.0938
320.298
-27.857
-426.105
-254.854
878.559
-834.762
-43.7972
-357.63
658.725
131.732
-527.781
-864.806
11.0655
-56.0476
-601.667
657.714
34.8633
-136.556
-143.957
-917.013
415.587
501.426
189.663
3.01628
449.749
-33.9511
543.446
252.688
-268.005
15.3172
-334.267
-5.95002
340.217
-543.208
438.195
-12.4623
-189.773
202.235
230.523
-41.1137
-88.8301
360.654
-271.824
-354.923
5.8191
434.626
-9.94282
61.363
-808.472
747.109
-664.288
664.288
44.2695
191.046
-89.3219
-506.875
596.197
-854.478
938.107
-83.6286
741.127
55.2521
-14.1339
-834.538
848.672
323.94
-341.218
17.2781
324.946
13.881
-338.827
584.462
-636.872
52.41
27.846
312.325
-340.171
-202.737
-121.649
324.386
193.993
-8.8847
106.941
-710.799
603.859
-760.017
267.27
349.601
-312.172
793.737
59.775
-77.3518
-433.405
341.848
-390.817
-681.518
102.011
579.508
322.153
-265.925
-56.2284
-531.199
615.346
-84.1472
-81.8451
-362.877
444.722
407.896
-382.433
-590.67
-326.343
596.441
-725.589
129.149
-408.845
-430.52
837.858
-39.7332
-645.828
128.04
450.328
-578.369
563.561
-644.771
81.2101
27.5927
-253.367
11.1098
-692.992
-320.196
321.747
-1.89627
570.521
-692.714
122.193
-344.5
-430.609
0.0278491
-685.092
698.085
-12.993
763.072
-164.674
645.497
-102.84
-542.657
208.822
286.941
288.308
-297.031
8.72259
807.726
-935.878
128.152
-649.366
-99.0918
-284.993
13.6056
-327.214
90.1607
237.053
-56.2093
640.672
86.7935
-267.824
181.03
357.531
-335.561
-21.9698
-333.463
-258.835
-19.1829
206.148
-32.1868
-171.915
234.096
138.559
-372.655
-271.387
319.316
-47.929
589.927
-679.249
22.9865
288.077
-259.053
-68.1606
-284.359
-298.58
-711.328
540.712
170.616
-112.284
-150.236
-159.49
66.3306
-578.066
536.359
41.7064
576.955
-1098.08
-24.6453
-1014.6
-140.807
372.988
49.3747
-22.4424
-51.3863
-759.186
127.513
852.64
-846.169
617.384
-76.6716
1.86
589.24
-591.1
-284.831
-164.522
449.352
-47.6824
-215.95
9.35463
194.555
-213.428
18.8731
-993.532
229.727
448.997
-116.628
19.6571
-627.959
608.302
299.72
-365.284
28.2974
336.987
61.2603
573.883
-635.143
-102.873
771.915
-669.042
-669.497
-195.449
-728.575
39.7807
688.794
-32.5707
565.168
-532.597
924.284
-915.796
-8.48842
563.974
-620.022
-611.187
-23.6129
634.799
-395.474
124.087
251.503
-271.484
19.981
801.394
-772.651
-95.967
730.839
-634.872
459.041
12.6379
-433.826
-669.818
604.139
65.6794
399.511
-92.1797
-564.006
-43.0466
-10.9783
-399.423
-30.2915
233.38
-203.089
21.7939
327.807
-360.141
364.108
-3.96701
746.646
-792.859
131.254
130.73
212.625
-224.223
11.5989
684.154
-775.274
91.1198
-318.599
-674.801
-13.9914
795.212
74.5419
290.918
120.361
811.842
-16.6298
-10.6537
-1029.88
174.793
3.93886
20.7169
-568.03
160.736
-143.466
-1082.49
-240.392
227.93
73.1132
221.668
-107.609
-467.121
574.73
-2.45703
-477.484
479.941
838.925
-31.1992
570.059
75.4385
-29.5733
-201.628
231.201
742.812
-785.566
-152.164
386.26
-407.293
446.015
-38.7227
-679.297
723.145
-43.8487
300.253
-366.54
17.9857
395.599
-152.745
-242.854
174.129
-511.482
466.046
45.4363
4.24561
-461.606
463.005
-1.39879
613.724
-596.033
36.9031
-162.737
596.307
-293.511
57.4681
440.862
41.1423
607.631
-648.773
-75.0118
-151.123
209.013
11.5258
31.4957
-390.31
25.0253
-415.113
7.82079
250.371
-252.336
1.96502
711.244
-682.593
-484.625
83.7164
400.909
-42.2551
626.424
-9.35464
-206.241
914.261
-141.766
-772.495
518.882
537.486
-1056.37
-297.176
-16.5324
290.311
4.20684
10.2851
273.231
-692.103
-2.61674
694.72
592.173
-748.975
-218.829
193.78
25.049
-523.352
-27.5909
-639.031
-0.281224
142.537
-137.142
-428.213
-119.741
206.534
16.7184
-636.171
619.452
-38.6133
-497.832
536.445
-262.581
290.427
-69.2874
626.088
-729.178
754.168
-24.9901
217.701
-482.444
231.552
-251.42
19.8685
-13.8774
-838.827
27.353
241.701
-444.438
908.978
-919.09
10.1123
637.052
13.4537
-650.506
-52.7048
-540.15
-807.25
840.449
112.77
-207.187
897.674
-78.2681
239.365
-13.9621
-60.4052
-715.993
776.399
-88.1638
-596.928
-19.3889
543.202
-672.264
22.8978
208.296
-239.929
31.6337
-235.221
1.45564
233.765
-558.296
533.545
24.7512
-221.156
88.9915
55.5256
92.9227
-148.448
-880.25
314.64
19.383
-334.023
54.9526
637.893
-692.845
-341.907
370.36
-28.4528
-649.061
-23.2028
-666.747
764.007
-896.722
127.598
769.123
-144.908
-168.699
-444.926
63.7293
-457.025
-615.272
242.169
19.9207
-288.7
290.071
-1.37119
179.684
-67.2769
-422.317
393.56
28.7569
-954.882
972.034
-323.536
123.649
199.887
143.466
17.2697
523.74
857.06
-876.972
277.545
-41.6334
364.742
-502.216
-789.501
811.409
-21.9077
-351.826
-183.545
535.371
131.135
-170.843
39.7076
426.482
-526.052
746.731
-683.605
-63.1257
-264.742
-32.4339
314.753
-74.5224
314.658
-291.672
330.796
-652.038
-17.78
5.55687
633.396
-376.088
154.902
20.6496
-891.502
548.875
-389.754
608.144
368.506
423.466
8.58128
744.649
-805.054
-39.8361
-20.5259
827.284
70.3903
421.106
-499.812
78.7064
208.687
-188.028
-20.6589
-205.869
229.507
-23.6384
-8.19714
342.682
-334.485
-617.725
658.868
438.553
254.376
-218.646
-35.7298
365.896
508.69
312.837
-334.051
706.905
104.29
78.878
-602.496
523.618
639.741
-35.602
13.1028
-930.513
114.002
816.511
221.526
-255.366
-250.48
-793.282
732.267
61.0156
5.21801
814.46
-819.678
928.124
-928.124
-377.754
17.6126
602.824
36.9167
-109.128
-29.8532
-196.928
226.782
437.533
27.7696
-465.302
-434.597
20.6194
413.978
189.907
972.168
-453.287
-225.293
37.5855
187.707
-627.309
630.77
-3.46147
420.338
-469.512
49.1736
-430.791
-3.80627
46.7067
-763.254
716.547
-636.674
-62.5462
-549.177
518.472
30.7042
-366.492
275.595
28.6813
-246.609
217.928
-163.165
-160.371
-28.5389
235.698
-26.6855
51.186
283.725
-276.32
-71.5341
791.608
366.292
-51.6519
-769.48
32.5693
-890.024
814.429
75.5949
132.27
273.64
383.77
154.782
-755.559
858.847
331.929
190.02
-521.949
-163.054
594.449
-644.033
49.5836
478.108
59.4801
-537.588
639.683
-342.734
-296.949
-475.499
-121.326
-782.138
679.265
27.3007
-686.767
659.467
-711.305
108.507
602.798
-764.099
-3.87664
34.6036
508.565
-87.4591
-521.911
357.175
551.96
-584.531
-35.3909
-65.9171
226.766
-160.849
43.7968
-679.221
-234.397
-230.242
164.325
-28.355
289.494
-121.821
-167.674
169.754
-8.84037
-634.4
721.396
-33.9355
211.405
-177.47
869.866
-629.63
12.3688
154.801
185.635
1.00267
397.515
-398.518
-225.27
-198.66
423.93
180.932
763.531
379.398
-355.522
-842.786
7.61746
626.406
-609.865
-0.371093
-812.465
812.836
589.543
16.0559
-605.599
844.498
46.0364
-890.534
309.681
-8.3576
123.577
-408.408
425.795
8.83131
-255.076
334.822
-79.7459
192.367
381.409
-90.4909
611.102
-54.9767
-556.125
-756.966
782.96
-25.9934
14.7323
647.194
-661.926
-646.267
115.068
-6.13729
-442.329
606.645
34.3955
323.135
-29.9775
186.963
-86.9435
-335.984
1.71676
95.958
742.967
3.25934
-277.193
273.934
-422.486
-507.429
-57.4422
-757.756
815.199
242.575
-50.5282
198.17
-271.694
73.5236
201.661
-95.6397
-220.428
-516.877
-581.322
-792.045
-18.5719
-166.461
-815.756
776.445
39.3105
-34.417
469.641
-435.224
59.7818
821.338
-881.12
196.823
-141.297
775.195
25.9862
-233.353
203.5
20.0485
-305.968
285.92
575.722
-573.862
-644.328
138.3
506.027
-553.115
587.466
-34.3511
30.2856
258.023
-665.223
-441.848
608.541
45.8069
-654.348
-721.934
606.757
-679.213
72.4551
-157.815
-36.8168
450.002
-484.295
-846.672
851.89
106.302
-307.862
-588.859
-642.389
593.264
49.1244
179.107
-73.7496
-43.4698
462.035
177.648
-572.86
58.9783
514.299
-527.056
12.7566
73.2246
-717.662
644.437
266.761
-16.3899
-311.345
165.819
145.526
-564.548
584.953
-120.386
463.596
-343.21
681.417
-86.9676
0.434598
-317.371
316.937
-446.952
-442.754
889.705
-161.772
260.433
-98.6618
-102.24
-579.278
-565.026
417.602
147.425
405.59
-39.2407
-366.35