/*--------------------------------*- C++ -*----------------------------------*\
  =========                 |
  \\      /  F ield         | OpenFOAM: The Open Source CFD Toolbox
   \\    /   O peration     | Website:  https://openfoam.org
    \\  /    A nd           | Version:  7
     \\/     M anipulation  |
\*---------------------------------------------------------------------------*/
FoamFile
{
    version     2.0;
    format      ascii;
    class       surfaceScalarField;
    location    "37";
    object      phi;
}
// * * * * * * * * * * * * * * * * * * * * * * * * * * * * * * * * * * * * * //

dimensions      [0 3 -1 0 0 0 0];

internalField   nonuniform List<scalar> 
43924
(
-594.919
667.677
-72.7577
1064.15
-1072.24
8.09713
-334.804
381.953
-47.1483
225.742
-258.644
32.9025
-498.387
498.387
219.812
-263.194
43.3813
-374.881
367.114
7.76734
27.8361
-564.98
537.144
663.875
-833.631
169.755
-1009.31
1102.27
-92.9662
556.664
-146.53
-410.133
-531.997
536.2
-4.20273
-687.811
582.652
105.16
-859.816
868.877
-9.06085
265.61
67.4406
-333.051
385.509
-10.3529
-375.156
814.536
-666.874
-147.662
-412.748
410.531
2.21741
161.04
314.793
-475.834
290.357
-356.853
66.4958
-594.02
81.6754
512.345
724.543
-60.6675
49.7915
-384.596
136.506
-489.392
352.886
230.553
-118.758
-111.795
1068.01
-3.86356
659.832
-680.972
21.14
-283.066
5.18481
277.881
308.922
-43.3121
-442.326
543.827
-101.501
953.38
-248.2
-705.18
-675.257
763.371
-88.1135
244.144
-222.989
-21.1556
479.482
-71.2743
-408.207
125.025
-408.091
265.625
-431.043
165.417
443.159
-589.811
146.652
291.332
-38.7897
-252.542
824.809
-979.483
154.673
1062.34
-237.534
-1018.19
1035.71
-17.5265
401.888
-91.2612
-310.627
704.037
110.499
188.209
-309.211
121.001
1228.47
-777.704
-450.768
-591.167
148.841
538.007
-538.672
0.664595
230.497
645.534
-876.031
224.927
537.226
-762.153
-105.766
548.924
-379.284
175.306
203.978
-13.1134
-225.026
238.139
-668.575
-6.68281
239.088
-19.2753
423.994
-38.485
-285.012
-51.0566
336.069
524.488
-499.721
-24.7676
-34.2847
-559.736
-463.975
43.1057
420.87
-296.842
-29.6779
326.52
799.506
17.5783
-817.085
-409.158
570.198
-14.4551
-248.012
262.467
-217.621
483.247
-332.258
440.342
-108.084
261.592
235.233
-496.825
495.935
-124.753
-371.182
428.719
-48.3535
-380.366
-448.331
-26.6946
475.025
-986.697
-31.4906
1061.96
6.04949
308.104
274.264
-582.368
-243.613
547.13
-303.518
172.995
76.1367
-249.132
-431.677
381.505
50.1717
-380.996
383.38
-2.38386
302.71
-173.152
-129.558
-250.797
-60.5741
311.372
-699.297
16.5406
682.757
406.466
-90.8456
-315.62
-253.622
253.622
78.5832
-760.481
681.897
-663.642
68.7229
-947.218
848.227
98.9917
-314.662
-60.2193
-50.9481
225.14
-174.192
521.943
-129.868
-392.075
-644.527
-43.2845
652.45
-69.7977
99.3235
80.8826
-180.206
-355.665
91.8642
263.8
-309.16
58.3626
846.29
-621.363
570.056
-598.126
28.0696
225.284
-95.3827
-129.901
-367.372
142.151
225.221
-23.0934
252.566
-229.473
-846.721
847.464
-0.742616
-31.1724
-159.438
190.61
279.47
0.218078
-279.688
-711.451
12.1542
-265.684
283.057
-17.3734
778.739
20.7676
428.819
-635.262
206.443
202.949
-216.063
-758.259
821.627
-63.3678
651.34
-715.714
64.3741
74.6701
577.78
943.842
-846.975
-96.8671
-214.96
239.023
-24.0622
197.841
46.3037
351.795
123.184
-474.978
1009.09
-256.884
-752.207
18.3451
563.772
-582.117
-12.7724
-587.412
600.184
539.799
-231.695
114.844
424.696
-539.54
-303.115
407.52
-104.406
76.7416
-814.825
738.083
-698.913
455.301
-23.9713
-197.877
221.848
21.1551
-855.774
834.619
-311.522
329.752
-18.2303
-33.3892
294.982
24.0637
-890.828
866.764
-366.294
345.16
21.1339
-88.6642
-324.084
13.09
-287.505
274.415
704.151
-786.728
82.5772
726.137
-860.28
134.143
-151.454
339.663
191.67
111.04
200.477
-204.732
4.25515
288.18
-316.88
28.7
-130.11
558.929
626.7
326.679
144.302
84.7821
-229.084
276.373
-315.733
39.3594
196.824
-236.152
39.3279
-21.7912
301.261
-352.579
-13.7149
1.60262
-187.047
185.445
222.824
-61.4536
-161.37
181.123
827.968
-198.074
-739.277
937.351
-101.142
-397.245
522.821
15.1855
228.249
-224.214
-4.03458
262.294
-203.031
-59.2632
19.8068
-238.534
218.727
-395.617
634.545
-238.929
50.6588
509.264
-559.922
984.087
-886.504
-97.5829
790.906
-787.09
-3.81565
-575.865
-235.053
810.918
-145.874
722.092
-576.219
454.874
-443.539
-11.3346
-228.254
9.79409
218.46
31.5176
-762.922
731.404
-176.309
-202.975
-247.011
233.236
13.775
241.158
-15.416
23.9102
1020.88
-572.448
-448.429
735.196
-933.27
-399.24
96.1251
14.629
208.195
16.4905
-778.252
761.761
-90.382
-856.836
417.187
-452.062
34.8745
-106.692
832.829
53.8895
-736.432
682.542
-213.293
-14.9614
276.373
6.93009
241.521
-248.451
-432.553
432.553
82.6955
679.669
-762.365
-314.36
48.6757
-579.523
597.868
334.786
-301.913
-32.8734
-777.833
-63.2706
841.104
-147.491
448.186
-300.695
441.621
80.3217
429.05
-442.63
13.5799
248.037
-51.2127
-202.533
-334.476
537.009
501.029
-381.279
-119.751
-328.224
18.1525
310.072
785.537
-81.3855
-520.281
-79.8876
600.169
-661.077
661.077
-128.056
502.886
-374.829
95.6781
-340.96
245.282
-919.281
343.416
306.598
-358.026
51.4278
436.704
18.1697
810.105
-489.221
-320.884
919.618
-71.4587
-848.159
76.8359
148.448
-847.279
614.32
232.958
-27.6845
267.271
-239.586
-209.544
221.47
-11.9265
-43.4856
-488.512
875.097
-890.194
15.0969
-68.9909
429.579
-12.3924
788.409
-792.366
3.95708
244.344
-16.0954
21.6977
-236.658
822.132
-963.82
141.688
252.573
-340.498
87.9247
570.638
-570.638
899.941
-93.2376
-806.703
594.233
73.0826
-667.316
57.7484
-327.851
270.102
-206.403
283.403
-76.9999
-473.638
326.147
53.3149
735.094
-392.99
529.496
254.95
-178.114
-684.023
-176.256
484.609
-630.483
453.525
-501.097
47.5729
-899.032
1034.09
-135.054
-580.2
555.639
24.5601
506.092
-582.166
76.0737
129.24
734.628
-863.868
211.279
530.729
-742.008
723.342
505.13
322.154
740.19
324.454
-231.879
-92.5749
-295.108
295.108
370.995
-401.975
30.9793
-27.8246
1089.79
269.677
-323.316
53.6392
530.373
-479.714
-297.429
-562.387
551.628
-565.469
13.8419
-29.2998
904.397
254.043
-281.727
-216.247
192.198
24.0489
498.961
-587.716
88.7547
-197.659
959.056
-761.397
588.708
-82.6158
771.8
-383.392
-388.408
338.866
-48.5089
471.997
548.88
-212.957
162.009
-743.846
59.8231
-935.735
36.703
477.583
46.9052
-679.882
891.161
-696.68
-61.5788
187.644
-201.307
13.6626
-74.0062
915.211
-841.205
-38.0516
-817.794
855.845
183.474
-181.871
43.5901
164.742
-208.332
-8.75563
-365.924
374.68
323.169
-310.079
-607.51
211.894
-251.785
447.62
-195.835
908.551
-678.054
303.529
20.9248
285.509
17.549
-303.058
-568.382
171.625
396.757
460.527
-31.4771
528.357
-730.89
-368.12
-12.8763
646.803
-746.152
99.3485
-218.356
151.771
66.5857
-656.205
638.959
17.2459
219.957
-213.027
73.9288
181.021
-743.255
825.95
-334.954
329.807
5.14736
68.0249
-363.17
295.145
237.648
-203.929
-33.7189
526.418
-328.593
-197.825
8.65946
-346.593
337.934
-497.234
484.462
-84.8076
292.688
-207.881
-661.255
158.525
502.731
-347.261
-20.1109
653.791
6.04134
445.347
-21.3532
-168.604
18.9815
149.622
-22.1978
726.904
-704.707
-855.552
984.793
320.519
-150.17
-170.349
677.325
-775.114
97.7887
424.243
347.557
706.332
59.6383
-765.97
818.1
81.8413
554.272
-530.205
-24.0677
1093.72
-1012.31
-81.4056
4.32773
-295.436
291.108
297.289
-11.78
90.1739
140.379
209.361
-8.88379
195.179
-199.318
4.13953
143.322
149.113
-292.435
-304.336
284.087
20.249
-164.556
-295.741
460.298
419.907
-547.963
-319.565
196.271
-193.077
-3.19409
189.836
1009.08
-560.799
-448.285
525.859
-109.121
-416.738
142.977
508.364
79.2844
474.988
23.2641
-693.761
713.239
-19.4777
45.4446
-547.194
501.75
-90.6948
-246.485
337.18
-448.706
39.0888
409.617
-140.453
-336.004
476.457
780.004
-1.26479
23.5453
184.367
-376.901
192.534
158.315
-243.122
-920.773
849.388
71.3852
-295.752
305.689
-9.93701
671.082
-85.3922
-585.69
1047.02
-603.807
-443.209
194.554
-191.926
-2.62842
254.702
-113.314
-141.388
-421.376
418.123
3.25292
663.048
-31.4337
-631.615
-694.447
0.686355
374.7
31.7653
-572.012
453.633
118.38
583.584
-578.163
-5.42011
-855.762
44.398
811.364
856.37
33.1977
-889.568
-424.548
284.095
-202.528
33.924
-322.879
532.834
-209.954
-170.809
-45.4378
754.995
-793.046
-140.939
184.529
544.238
-175.78
-368.458
-123.536
-309.018
219.961
-220.923
0.961866
619.541
43.5077
683.432
-608.761
21.5988
-301.646
280.047
837.61
-876.426
38.8168
-316.675
14.7624
956.017
-959.181
3.16316
59.1593
214.553
-273.712
680.224
-33.4211
569.236
-592.542
23.306
-828.194
849.35
190.509
-214.48
786.428
212.111
746.945
164.811
185.565
-350.375
-297.916
-7.58315
826.206
-74.9499
-751.256
596.829
-132.898
-463.931
245.725
-70.4193
83.1084
412.826
76.8906
-283.294
473.822
-503.877
30.0546
142.258
-348.621
206.364
137.651
388.767
60.6159
859.002
653.076
-773.245
120.169
-22.595
978.612
-252.072
-37.0407
289.113
-215.71
209.497
6.21282
4.62407
168.371
48.371
452.658
335.017
-343.772
-359.318
27.0597
-339.047
42.2048
838.348
-58.3439
81.4487
-252.237
170.788
-957.98
22.245
-921.645
-36.3346
-486.045
57.1144
428.93
-733.776
902.604
-168.828
-207.417
-52.0228
259.44
-122.476
-72.6188
195.095
-148.137
-52.2288
200.366
-142.573
230.037
-87.4648
853.46
414.913
-230.546
139.818
-12.3888
-567.811
-879.384
-41.3897
443.306
153.523
194.213
-517.092
200.762
-1107.06
906.296
25.9439
202.799
-228.743
-8.91211
-200.631
418.602
26.7451
89.1441
701.762
278.968
21.4671
-300.435
-471.503
586.347
728.786
72.8235
-801.609
-778.899
-7.82964
801.386
-855.46
54.0734
309.175
-265.642
-43.5324
83.3977
237.121
850.802
-864.952
14.1495
978.831
-862.149
-116.681
939.16
-943.707
4.54685
-401.94
-170.072
-4.41993
-873.461
547.471
325.99
-183.406
161.555
21.8509
-244.321
387.643
140.439
91.6461
-232.085
754.747
268.936
-283.391
431.646
94.213
783.065
-697.039
-86.0262
-52.5842
-110.575
-84.7981
195.373
-307.571
260.656
46.915
862.573
-838.509
-21.5732
379.426
-357.853
-344.375
-8.20421
570.879
-583.462
12.5822
367.905
-327.279
-40.6255
-828.519
731.215
97.3041
-905.801
831.794
142.48
112.223
-406.118
276.745
129.373
467.913
-453.861
-14.0525
621.197
-622.643
1.44605
518.091
-44.2691
-328.031
-128.894
456.925
27.6091
-279.681
-71.0641
-246.812
317.876
544.285
563.928
-1108.21
-900.865
849.215
51.6493
-1.88199
-404.872
418.747
-13.8751
431.804
-399.677
-32.1273
672.407
-846.453
174.046
711.362
-882.132
170.769
-502.748
-158.507
-449.015
78.3392
370.676
304.859
-6.3613
-298.498
-325.386
177.249
475.054
81.6094
-719.703
-108.816
7.69512
187.484
-301.632
300.922
0.710415
51.977
-359.589
307.612
489.998
39.6551
-529.653
-232.183
300.719
-68.5365
-896.197
-19.6385
915.835
-188.303
-44.2395
232.542
6.34128
-846.989
840.648
804.704
-118.411
-686.293
330.911
141.977
-213.042
-874.878
-21.3182
808.605
40.7831
-4.76447
544.323
-192.528
-511.979
-13.0661
525.045
-801.993
913.796
-111.803
313.654
-245.629
-398.404
307.709
-30.1035
590.699
63.0916
383.639
-241.381
297.74
512.364
-13.9109
26.0281
341.877
-779.085
88.9577
690.127
456.582
95.0455
-123.733
-37.0356
160.769
-851.808
-23.07
69.8619
332.026
-195.772
227.967
-32.195
47.4955
-279.678
-265.696
286.589
-20.8931
-18.3942
27.2261
-512.786
485.56
-611.275
-134.877
-22.2914
301.838
-279.546
-330.866
454.049
599.388
447.629
-1102.77
430.487
672.288
329.309
0.319681
-329.629
-224.409
-175.549
399.958
-524.48
552.316
-661.213
-18.6957
679.909
99.1806
87.8889
-187.07
-44.2501
799.245
839.045
-862.591
23.5462
807.468
-154.393
37.7902
-602.77
-324.873
-21.7206
556.804
57.7826
-614.587
439.138
21.3897
-349.197
392.528
-43.3309
-853.702
-3.76335
857.465
-27.8184
-823.99
310.231
-285.325
-24.9066
625.209
-4.01195
576.228
-412.881
-163.347
-213.469
277.323
-63.8543
-83
-276.318
-420.298
-43.677
895.051
-183.688
-822.83
89.0543
-629.271
17.9966
-539.343
50.0087
489.334
820.55
-39.6276
-780.922
-262.614
120.041
0.699693
-356.109
355.409
860.241
-187.833
307.413
-2.55399
636.643
-67.4071
494.208
-4.21004
801.378
-712.233
-1045.13
-57.6416
444.842
23.0713
533.005
37.0508
728.852
-697.335
796.169
-38.5469
-757.622
193.417
-224.589
274.879
-14.2232
-118.023
218.947
-199.14
474.942
15.5163
-490.458
576.134
-97.2093
-478.925
-459.185
421.821
37.3637
128.877
672.501
4.34592
-98.7187
-758.667
857.386
73.8178
-668.989
595.172
226.3
-303.61
77.3097
-744.04
645.322
91.7425
712.962
-504.407
1048.69
247.626
-166.177
-282.977
-179.662
246.592
-66.93
207.42
-261.83
54.4099
-179.821
320.259
-9.04303
-335.332
-51.11
5.3522
-410.6
405.247
-47.5374
-161.85
-195.003
-29.6691
367.288
-337.619
-870.852
944.464
-73.612
45.4952
-528.089
482.594
37.2294
-252.939
-755.811
106.142
649.669
354.173
-229.147
819.406
1.14455
-6.18806
226.344
-220.156
438.552
137.677
-119.697
-329.318
816.004
-201.684
-95.2117
-914.095
612.174
-337.911
131.357
48.5725
653.451
-574.867
495.171
-15.6891
342.106
-35.5084
338.945
-421.343
82.398
198.047
-251.575
53.5281
48.2193
249.028
-297.247
335.838
-500.394
-4.40164
761.957
-806.207
537.647
-62.7051
-106.286
737.814
-631.528
-269.181
303.666
-34.4854
-68.8593
295.159
204.373
-189.744
-281.279
12.0979
-1060.65
588.482
472.172
-35.8677
-76.6434
175.967
-309.366
294.833
14.5335
-676.018
692.509
268.232
-273.076
4.8448
-477.679
181.938
-503.98
-556.673
239.513
-278.302
847.166
-946.598
99.4313
-343.609
18.7361
486.524
-626.681
140.157
-2.51984
811.125
234.256
-268.851
34.5949
-324.424
-549.037
-37.3813
293.485
-25.2531
347.953
-114.158
-233.795
-20.1825
-843.351
863.533
-877.175
485.122
392.053
-55.9812
735.65
-458.314
38.0158
-140.827
-133.918
274.745
875.416
-823.571
-51.8448
392.538
-322.676
797.08
4.30669
106.057
84.8943
-190.952
-580.555
1024.4
-443.843
145.354
-193.844
48.4906
-758.98
-144.984
903.964
130
217.954
853.513
-31.381
813.47
-736.729
502.844
-419.736
5.26156
-253.273
52.9272
146.672
-199.599
306.678
237.645
-23.3649
-1098.2
619.197
479.002
8.20343
891.697
-60.5435
-831.154
-430.573
622.739
-192.166
57.1452
756.325
23.108
-535.087
-590.522
-18.2782
608.801
421.413
142.916
-564.33
-264.737
-522.354
278.806
63.3
-177.848
-75.7742
-406.246
352.701
53.5442
-791.718
302.496
200.82
-261.934
61.1142
219.934
-252.184
32.2495
429.877
-424.524
728.269
52.3385
-780.607
-202.636
43.1982
822.564
20.7342
-843.298
-360.96
20.2254
340.735
118.64
860.19
-409.177
452.282
411.367
-72.4216
-954.505
99.71
854.795
789.105
102.592
-44.6567
242.704
50.4687
381.336
900.372
133.714
26.4278
-484.742
28.7296
-826.939
798.21
698.349
-767.44
69.0908
636.318
465.955
769.012
-56.0319
-712.98
195.003
-49.6492
76.3188
339.386
-415.704
-735.247
792.393
271.437
168.905
-268.994
168.139
100.855
-111.198
-426.822
538.02
-32.0019
-215.009
1004.41
-573.925
78.8172
-286.234
213.074
-219.262
-103.528
-155.116
30.6764
820.126
-166.499
502.337
-602.391
757.314
-154.924
685.514
-707.712
-394.467
381.401
-442.748
-179.895
39.4586
348.719
-12.6698
-336.049
-46.2886
808.245
-505.246
-623.365
1128.61
287.732
-237.264
214.171
7.50359
196.869
-245.304
126.545
-885.309
908.971
-23.6624
-273.114
254.706
18.4076
73.7451
709.32
3.36319
765.649
635.576
-16.0356
-15.0606
-512.032
471.269
40.7634
933.08
17.1526
-950.233
-313.299
-47.661
-0.266825
-234.308
798.054
-69.785
529.017
-623.116
94.0989
-762.005
-84.7157
40.4916
268.683
889.775
10.5968
-490.694
440.786
49.9079
-950.453
-94.6791
40.104
-386.711
346.607
-193.667
222.936
-29.2688
247.27
-39.8498
-39.6893
1050.3
-313.221
-737.079
579.588
-50.571
54.3699
-263.376
-64.4751
-692.926
779.953
-87.0278
-72.8129
-12.4012
232.336
504.743
-5.78178
92.7903
-870.624
-91.2062
212.233
-121.027
-195.239
215.081
-19.8423
-681.793
570.595
-451.74
478.966
342.77
49.768
-460.416
424.752
35.6644
581.104
427.98
498.399
-459.918
-38.481
483.225
-310.11
-173.115
-203.919
30.7661
350.319
-21.3476
-328.971
-249.549
69.8862
-320.13
286.741
-219.04
-636.722
-691.575
-81.6696
259.518
-58.6985
663.151
197.09
6.97978
226.256
816.45
-84.5908
-731.859
328.745
-142.08
646.993
-504.913
242.464
-294.487
-94.4611
515.874
-750.884
7.62944
-114.315
-104.041
500.005
-96.1763
785.413
-689.236
-197.37
220.794
-23.4235
-32.026
-241.088
829.586
-737.843
221.62
-428.031
-408.326
836.357
863.132
-199.981
-43.9927
790.732
-746.739
597.373
-6.67353
17.7088
-608.231
279.983
140.096
-420.079
-404.059
480.378
-22.6103
-317.138
339.749
-616.893
65.677
551.216
-142.119
518.964
-376.846
-480.451
409.312
-482.994
73.6822
105.084
-177.501
72.4176
-176.817
341.627
-177.124
-190.996
730.89
-32.5412
102.278
581.153
-611.032
648.858
-37.8262
269.188
-291.479
-810.553
-52.0387
97.0515
-433.056
590.12
460.18
-615.778
173.03
418.796
-846.826
387.766
-681.886
28.6518
653.234
-197.27
251.299
-54.0289
-816.296
886.701
-70.4052
-48.2314
-432.174
480.406
1005.36
-405.621
-599.74
-68.6385
-786.821
10.3277
299.904
-950.465
207.425
743.04
-857.708
-92.7568
-172.446
-10.9602
-777.767
731.478
-133.024
-297.262
430.286
-14.3093
-266.925
281.234
160.32
647.148
243.081
151.794
-394.875
-902.867
154.575
748.292
541.172
-580.941
39.7694
604.54
58.5947
-663.135
-44.5486
673.788
-639.877
-33.9115
353.018
-23.7086
-26.1819
225.748
-199.566
608.397
65.3915
13.7464
-792.645
721.54
-777.572
-174.297
227.225
324.759
158.466
144.821
-321.945
203.277
-207.135
3.85763
341.173
-199.275
-141.897
592.132
43.4443
-747.825
801.11
-53.285
-411.35
-95.9481
507.298
-12.2919
-289.34
251.201
63.6451
-314.846
249.158
-99.5647
-149.594
418.299
-466.53
-61.7152
-740.277
-410.814
95.9535
141.695
512.141
-442.806
-69.3354
-229.491
255.435
-202.186
194.494
7.6916
26.1252
-227.616
201.491
-322.374
379.149
-56.7743
213.025
-11.7881
-201.236
450.449
554.912
-261.122
555.508
-473.833
140.486
-226.796
86.3106
-200.287
-13.2761
213.563
701.279
-96.7388
242.398
-168.469
-357.4
275.688
81.7114
-423.443
-22.8141
446.257
-352.009
449.06
310.774
-323.353
12.5789
-16.5217
31.7833
471.061
462.76
35.6389
40.8707
-464.314
192.275
-0.0767701
-337.925
-5.68397
-369.743
297.57
72.1737
341.915
-63.1082
673.933
221.118
-230.1
256.225
-288.452
306.605
105.557
654.997
-760.554
-736.792
-25.6274
762.42
31.5929
165.87
16.7765
-339.151
-690.683
621.104
69.5791
119.589
-177.943
167.98
9.96321
429.097
-149.113
-240.781
-179.82
420.602
-164.963
-347.069
220.316
-17.0387
-263.81
122.983
92.8681
-184.074
-1009.54
696.319
-347.712
347.712
851.464
242.252
-35.2503
-509.097
-500.443
209.701
326.499
528.089
42.5492
545.454
-51.2454
277.878
-250.068
-27.8101
-629.393
662.268
-32.8758
-50.2935
-532.4
-47.1234
-634.812
719.152
-84.3405
84.1685
-493.326
-353.043
539.418
6.03614
529.411
24.7981
-554.21
747.811
-647.249
7.37189
-108.713
-70.3125
179.026
-411.897
91.7667
311.797
-33.0971
-278.7
-151.956
-50.5722
-301.757
289.118
12.6386
-292.508
79.0392
869.606
-195.673
-335.09
47.5849
768.253
-1.56147
-766.692
584.174
-658.998
74.8239
-922.855
830.375
92.4801
-23.369
-637.844
110.127
297.393
-23.1308
-261.127
284.258
-788.993
28.512
-203.462
-290.377
267.246
-466.111
511.606
-245.573
274.209
-28.6361
-302.597
300.083
2.51489
-811.235
704.95
995.981
-148.815
-171.001
312.764
-253.604
360.632
-175.068
421.234
-313.448
-107.786
287.24
54.6749
812.653
-88.9253
-723.728
184.333
-681.567
-755.796
672.766
83.0298
5.65583
-617.267
624.318
-7.05085
64.1262
178.272
-99.3181
519.225
-267.146
293.987
-26.841
379.113
-458.258
79.1446
-608.629
649.203
-40.5746
585.729
44.2413
-629.97
244.755
-220.706
-24.0493
556.503
-24.4951
-532.008
228.147
-117.334
-110.812
-123.285
-48.3473
171.633
956.093
-946.96
-9.13316
-575.498
-388.322
-46.212
-756.972
803.184
-897.641
834.37
-591.607
365.374
226.233
605.083
-623.361
-14.1457
673.912
-659.766
27.1578
140.684
-167.841
-70.5795
-289.01
-855.976
-66.8783
15.4626
366.043
334.073
-739.694
200.28
-8.0049
-228.6
228.6
406.572
-135.571
-271.001
-911.272
25.9627
-3.08742
-25.8588
-477.933
503.792
-753.743
-80.6316
487.008
-406.377
-252.4
-408.677
432.218
-10.3965
-55.4575
258.257
155.329
185.843
-543.929
397.399
-165.145
408.226
339.346
-52.1067
762.797
-708.907
-284.125
-7.28396
270.627
-946.892
-3.56114
5.61164
927.468
532.895
-448.727
-839.31
574.433
264.876
4.29482
259.104
-263.398
350.241
-7.50476
-342.736
-461.886
31.3125
-835.099
748.825
86.2739
-127.839
-185.46
194.192
47.3562
-241.548
212.976
126.371
-800.992
17.7757
-589.453
327.87
261.583
37.6076
250.573
361.868
-325.13
-36.7378
-389.811
403.309
-13.4978
847.414
-513.341
-454.99
312.91
-322.295
191.438
130.857
423.381
-720.81
568.396
-27.2245
811.248
-807.884
79.9467
148.2
-829.115
812.127
16.9875
-794.717
46.8928
-472.162
-527.846
1042.65
-186.28
931.095
-835.18
-95.9153
-521.121
-463.314
984.435
-48.548
-255.788
52.0946
225.713
-232.627
6.91347
-22.0399
-56.0684
733.393
468.963
-34.3191
-434.644
-366.347
-202.035
20.5405
-84.601
-255.897
-158.627
427.034
-268.407
-925.609
925.609
92.8129
-806.415
485.532
-510.808
69.1699
441.638
-211.571
-194.548
174.132
-165.992
-377.938
-554.665
388.674
602.175
57.6067
191.552
420.302
-929.996
509.693
-31.0384
310.007
-223.374
-262.671
-215.422
420.675
-95.916
-181.246
-141.048
-65.4867
-835.378
452.487
-518.084
65.5964
17.3689
-696.292
778.149
-81.8565
415.754
-420.702
4.94742
246.56
-567.716
529.72
37.9959
99.3912
118.701
-218.092
194.43
-220.612
378.938
-708.788
329.85
110.541
758.336
165.849
240.723
-68.6417
-492.226
466.367
292.634
-307.066
14.4322
416.492
-37.3789
353.912
-383.581
-22.3238
-367.563
389.887
-40.7314
-276.149
323.443
16.497
-339.94
-429.328
270.701
-388.248
40.0091
631.118
-749.529
-409.947
531.968
-313.167
-91.7056
976.651
-866.11
-492.743
-312.301
805.044
293.491
38.4452
290.324
-328.769
-456.872
144.799
-272.638
-51.7738
451.005
-563.88
112.874
47.4244
613.653
-186.93
78.2165
331.375
-293.767
708.748
-329.81
269.659
-177.794
23.9528
364.796
-388.748
-28.2985
-295.786
-5.86029
-255.889
250.997
4.89147
1.38164
556.767
-533.659
41.6523
-891.587
113.335
799.383
-2.30309
329.515
-116.54
525.489
328.707
-854.196
598.399
239.948
671.519
-767.695
-750.603
105.284
645.319
283.344
64.0435
-347.388
186.658
-179.479
-7.17884
27.6799
274.548
572.915
-197.48
38.1915
159.288
-156.829
-606.947
763.777
-339.173
361.487
-22.3137
-255.847
291.169
-35.3219
-148.331
-174.985
-255.373
211.518
43.855
920.091
-920.091
-87.301
727.041
-639.74
294.113
-210.716
344.896
-68.151
-657.869
189.941
27.7288
-217.67
37.7056
-584.783
547.077
41.2276
-242.13
200.902
908.308
-914.002
5.69422
301.055
-674.531
373.476
346.64
-306.536
51.651
310.217
-350.747
876.236
557.037
-106.032
-72.7697
-242.963
-400.074
322.271
77.8026
220.831
-345.584
332.42
-500.094
167.674
-250.793
53.5231
-873.294
-73.5986
33.607
-729.899
320.15
-177.998
796.38
-773.242
-23.1379
431.017
52.4463
-483.464
-685.573
610.664
74.9089
-251.229
210.092
41.1364
320.591
-27.957
-426.112
-254.86
878.653
-834.693
-43.9608
-357.655
658.71
126.43
-537.78
-864.771
11.0691
-55.4986
-601.711
657.21
44.3338
-137.87
-131.125
-917.679
412.584
505.095
191.716
2.77803
449.904
-34.1501
543.445
280.807
-271.949
-8.85816
-334.467
-6.01973
340.487
-552.347
446.581
1.11955
-205.479
204.359
231.396
-41.4554
-97.7099
360.958
-263.248
-355.349
6.15244
434.766
-10.0144
58.9506
-809.481
750.531
-664.291
664.291
55.4113
187.052
-90.2631
-505.641
595.904
-854.477
938.105
-83.6287
741.125
55.2549
-14.1362
-834.535
848.671
324.128
-341.463
17.3345
325.028
14.25
-339.278
584.382
-636.875
52.4928
44.864
316.126
-360.99
-213.573
-121.632
335.205
195.728
-9.06985
106.748
-710.629
603.881
-760.014
267.271
350.178
-311.733
793.738
59.7749
-77.367
-433.441
342.113
-390.467
-681.344
101.805
579.54
322.668
-285.152
-37.5168
-531.092
615.053
-83.9615
-81.8878
-362.904
444.792
408.325
-382.297
-590.977
-326.702
602.289
-725.583
123.294
-407.655
-431.654
837.858
-39.7377
-645.835
118.254
462.104
-580.358
563.562
-644.781
81.2183
41.9193
-244.951
11.1096
-692.995
-320.749
321.449
2.6018
570.532
-692.717
122.184
-344.502
-430.611
-1.67555
-684.952
698.069
-13.1166
763.073
-164.674
645.535
-102.873
-542.662
219.076
293.065
289.365
-297.189
7.82391
807.725
-935.878
128.153
-652.575
-98.0281
-294.366
27.2199
-325.105
79.7109
245.394
-56.291
640.673
92.0236
-257.502
165.479
357.682
-335.679
-22.0029
-344.32
-245.133
-15.8522
203.496
-28.6101
-172.697
229.185
139.748
-368.933
-271.599
319.505
-47.9053
589.039
-679.302
23.5744
288.223
-268.148
-56.9566
-293.118
-298.489
-711.331
540.707
170.624
-111.434
-151.759
-161.82
66.4375
-578.194
536.365
41.8294
576.955
-1098.08
-24.7608
-1014.14
-140.798
368.36
52.3157
-22.5545
-51.3893
-758.951
127.423
852.607
-846.265
617.387
-76.6804
1.86014
589.242
-591.102
-283.675
-164.517
448.192
-46.603
-204.626
7.74305
195.91
-210.879
14.9689
-993.465
230.543
448.613
-116.193
19.6648
-627.967
608.303
298.482
-364.894
27.3022
337.592
61.2013
573.462
-634.664
-102.813
771.68
-668.868
-669.481
-195.471
-729.117
38.5333
690.584
-31.7106
570.251
-538.541
924.172
-915.667
-8.50486
563.927
-619.426
-611.187
-23.6309
634.818
-395.735
124.136
279.679
-277.294
-2.38534
801.361
-772.632
-95.9977
730.853
-634.855
459.207
12.0614
-433.897
-669.842
604.139
65.7026
399.228
-92.1937
-564.012
-57.3835
-11.1133
-399.486
-29.7376
216.685
-186.947
22.7719
327.406
-360.333
364.257
-3.92397
746.492
-792.704
120.08
139.36
213.552
-225.343
11.7914
684.153
-775.279
91.1261
-321.294
-682.138
-10.7878
795.112
74.494
290.972
120.395
811.707
-16.5954
-33.3307
-1029.42
173.65
3.93966
20.3167
-567.511
157.698
-130.54
-1083.09
-241.321
242.441
71.4771
222.636
-107.642
-467.123
574.764
-2.46794
-477.494
479.962
838.926
-31.2008
570.066
75.4691
-45.0387
-203.52
248.559
743.907
-787.9
-153.434
382.619
-405.67
444.523
-38.8532
-679.287
723.164
-43.8768
289.021
-357.322
16.3621
392.856
-139.665
-253.19
175.758
-511.533
466.079
45.4535
4.66876
-461.097
462.038
-0.940431
613.745
-596.036
35.5276
-163.656
594.673
-294.224
57.4782
440.909
41.2345
607.536
-648.771
-78.0974
-144.891
199.05
11.0425
31.6645
-390.889
25.9945
-413.602
7.93182
250.781
-252.811
2.03012
711.248
-682.596
-484.821
83.8953
400.926
-42.2648
626.439
-23.4544
-204.161
914.262
-141.769
-772.493
518.881
537.486
-1056.37
-293.665
-15.5455
290.642
4.19094
10.2703
273.817
-691.71
-3.37724
695.087
592.155
-748.984
-212.289
192.579
19.7092
-527.491
-21.0511
-647.938
7.1673
133.318
-137.244
-428.226
-105.068
197.092
17.6025
-636.308
618.705
-38.6939
-497.805
536.499
-263.919
308.783
-69.2954
626.1
-728.888
753.907
-25.0195
217.707
-482.443
251.266
-260.457
9.1908
12.2357
-838.601
27.366
245.53
-459.102
911.163
-921.401
10.2373
636.943
13.5583
-650.502
-52.9021
-539.64
-807.25
840.448
121.314
-206.112
897.673
-78.2674
240.628
-14.9146
-60.3981
-715.99
776.389
-88.0293
-596.923
-23.5102
552.922
-674.414
21.8392
206.746
-233.965
27.2196
-236.338
2.12114
234.217
-558.426
533.511
24.9151
-209.012
85.7271
59.026
88.9915
-148.017
-880.25
314.577
19.7899
-334.367
54.9579
637.89
-692.848
-340.242
368.089
-27.847
-652.166
-22.2481
-664.154
769.711
-896.69
127.575
769.115
-145.633
-168.727
-445.135
63.8563
-456.764
-615.481
270.462
-1.52616
-289.644
290.537
-0.892877
173.956
-74.5648
-422.534
393.658
28.8755
-954.881
972.033
-290.497
97.2156
193.282
131.798
25.9
523.232
858.83
-879.012
276.721
-39.5993
371.957
-514.076
-789.456
811.377
-21.9205
-347.782
-186.938
534.72
132.151
-173.363
41.2122
426.166
-525.484
748.061
-683.702
-64.3589
-260.324
-33.3417
334.538
-83.3367
315.347
-291.773
331.301
-652.039
-17.8028
5.54588
633.414
-369.263
140.115
20.6506
-891.503
548.285
-389.76
608.145
368.506
423.542
8.67555
744.646
-805.044
-39.9794
-12.5438
827.283
70.3896
421.115
-499.825
78.7104
237.657
-201.862
-35.7946
-185.807
212.821
-27.013
-9.51731
342.272
-332.755
-617.627
658.862
439.201
250.374
-217.335
-33.0386
362.784
512.632
312.926
-334.273
711.202
101.451
78.6941
-601.932
523.238
639.763
-35.6233
41.0158
-930.483
113.979
816.504
213.763
-258.002
-250.961
-793.287
732.266
61.0215
5.22823
814.409
-819.637
929.059
-929.059
-377.926
17.5933
602.825
36.9379
-109.134
-27.1139
-190.238
217.352
437.553
27.7941
-465.347
-434.86
20.9798
413.88
186.998
972.168
-453.287
-228.185
39.2668
188.918
-627.263
630.779
-3.5167
432.059
-469.87
37.811
-430.716
-4.14416
44.4195
-765.174
720.755
-636.543
-62.3699
-549.286
518.47
30.8154
-374.751
291.751
27.0465
-240.268
213.222
-163.045
-127.452
-28.7059
225.142
-26.0921
43.832
299.119
-277.651
-71.6066
791.609
366.597
-52.0203
-769.412
32.6196
-890.024
814.428
75.596
123.846
286.685
374.437
165.362
-755.37
858.809
329.602
190.212
-519.815
-164.058
594.45
-644.036
49.5854
484.454
55.6937
-540.147
640.29
-345.192
-295.098
-481.214
-116.911
-781.875
679.062
26.7498
-686.252
659.502
-711.311
108.508
602.803
-762.955
24.1414
37.1281
508.577
-87.4619
-520.789
354.29
557.362
-589.073
-35.3986
-66.913
229.658
-162.745
53.955
-688.767
-232.969
-233.258
166.345
-29.6693
269.803
-105.938
-163.866
164.735
-7.73526
-632.759
721.716
-34.7099
200.333
-165.623
869.866
-629.503
12.2361
137.194
194.181
1.00401
397.533
-398.537
-222.023
-199.604
421.627
180.933
763.531
379.497
-355.544
-842.705
7.60617
626.407
-609.866
-0.829702
-812.975
813.805
589.545
16.0641
-605.609
846.411
46.3188
-892.729
309.963
-9.88029
123.655
-407.33
425.859
8.90689
-255.171
334.931
-79.76
192.86
381.486
-90.5142
611.144
-55.1002
-556.044
-756.72
782.854
-26.1333
12.9176
650.171
-663.089
-645.978
114.886
-6.58672
-442.363
606.642
34.4398
323.242
-30.3216
188.609
-89.4286
-336.268
1.80043
95.9593
742.967
3.5036
-277.487
273.983
-422.348
-507.648
-57.4436
-757.755
815.198
267.629
-53.0767
189.792
-264.16
74.368
194.838
-94.6737
-221.62
-516.877
-581.322
-792.023
-18.5297
-165.985
-815.757
776.446
39.3111
-34.4427
469.688
-435.245
59.7816
821.34
-881.121
196.809
-137.783
775.067
26.0431
-224.093
196.979
20.2612
-306.488
286.227
575.723
-573.863
-645.327
127.746
517.581
-565.255
587.377
-22.1216
31.2828
258.082
-665.218
-441.841
608.541
45.8097
-654.351
-721.934
606.759
-679.214
72.4551
-150.287
-47.1932
450.023
-484.308
-846.62
851.848
106.411
-307.836
-588.855
-642.401
593.27
49.1306
181.048
-75.964
-43.5425
460.121
180.168
-571.536
58.7502
514.276
-527.112
12.8361
73.2015
-717.663
644.461
267.226
-16.4445
-312.527
166.125
146.403
-569.669
594.467
-131.583
478.912
-347.329
681.42
-86.9693
0.727244
-317.685
316.958
-446.932
-442.758
889.69
-142.554
249.529
-106.975
-102.048
-579.296
-574.592
422.974
151.618
403.975
-38.5568