/*--------------------------------*- C++ -*----------------------------------*\
  =========                 |
  \\      /  F ield         | OpenFOAM: The Open Source CFD Toolbox
   \\    /   O peration     | Website:  https://openfoam.org
    \\  /    A nd           | Version:  7
     \\/     M anipulation  |
\*---------------------------------------------------------------------------*/
FoamFile
{
    version     2.0;
    format      ascii;
    class       volScalarField;
    location    "8";
    object      p;
}
// * * * * * * * * * * * * * * * * * * * * * * * * * * * * * * * * * * * * * //

dimensions      [0 2 -2 0 0 0 0];

internalField   nonuniform List<scalar> 
20933
(
-0.00580263
-0.0371312
0.045624
2.91625e-05
-0.00167786
-0.00263481
-0.0936781
0.949519
-0.0433093
0.931828
-0.066091
0.764899
-0.0479577
-0.00553552
-0.00703074
2.422e-05
0.267811
0.609907
-0.0807384
-0.0354548
-0.0322228
0.779513
0.939577
-0.0460484
0.0416591
1.38208
0.0134797
-0.0367422
-0.02392
-0.0793265
-0.00223841
1.55938
0.939777
-0.0243389
-0.000418105
-0.00223818
1.02626
-9.76417e-05
0.0196591
0.545811
0.0778793
1.09861
1.17473
0.0118642
1.38099
-0.0916526
0.82514
0.505574
-0.000303889
-0.0602329
-0.000601172
0.179993
0.0979841
-0.000526483
0.0949672
-0.0850547
-0.0454152
-0.00262935
-0.00552906
0.283085
1.44377
-0.0693165
-0.0182671
0.88182
-0.000759115
-0.00919351
1.35433
-0.0101948
0.156375
1.3675
0.055256
0.20405
-0.00637836
-0.0409016
1.3595
0.0679985
1.35679
-0.0974036
0.53779
1.2824
-0.00766216
0.00206762
-0.0357767
-0.0383357
-0.069216
1.18079
-0.0402006
1.66126
0.879802
1.42993
0.783742
0.000133125
-5.9365e-05
1.63364
0.476441
-0.0170474
1.64643
-0.00200428
-0.0494378
0.984819
1.44151
-0.0411463
1.46301
0.130981
0.30678
0.11506
1.29412
0.169561
-0.0511678
1.25392
-0.0295959
-0.0981685
-0.0428568
0.0552284
0.0826336
-2.4608e-06
1.15858
-0.00680608
0.0938056
1.26778
0.000114274
-0.0211391
0.61555
-0.0109669
-0.0242518
0.615894
0.884544
-0.0356812
1.57471
1.17852
-0.0483672
-0.0595018
0.077834
0.0189333
1.30118
0.280853
0.58961
-0.0300213
-0.0323673
-0.0673674
-0.0305271
-0.0446088
0.169535
1.47699
0.400016
1.31091
0.990311
-0.0520758
0.839094
0.0152823
-0.0523554
1.35716
-3.07328e-05
-0.034185
0.00206168
1.00572
1.19801
-0.0507162
-0.0915061
-0.0509729
0.0785655
-0.080089
-0.00258652
0.42265
0.450675
1.6511
-0.0388187
-0.0385541
0.0587784
1.01257
0.572272
1.38669
1.225
-0.0272219
1.7148
0.924931
-0.00524314
1.42612
0.0967545
1.28565
1.33005
-6.85691e-05
1.47383
1.20512
-0.033612
-0.099336
0.0574572
0.951674
0.115871
1.56635
0.877413
0.278754
1.00346
0.172668
-0.0909276
0.696594
1.46949
0.411121
-0.0331829
1.57986
0.543925
0.148572
0.117491
1.54434
1.49546
-0.063143
-0.0162179
0.183272
-0.0838944
-0.00268608
1.34668
1.41448
-0.0536793
-0.0810175
1.27194
1.35873
-0.0101931
1.26731
0.187404
0.0216143
-0.0218776
1.22343
1.51015
0.790567
1.24402
-0.0348537
-0.0121586
1.2805e-05
-0.00792482
-0.00126469
0.604108
0.0768153
1.28159
-0.0625622
1.20368
-0.036849
0.114136
1.37803
1.66016
1.21136
1.34675
-0.0824704
1.08175
-0.00742217
0.33289
-0.00673467
0.100852
0.268858
0.190234
-0.000262921
-0.0499603
1.52213
0.653728
0.0173769
-0.0692139
0.0785004
-0.0804265
1.10982
-0.0628177
-0.0886116
-0.0394952
-0.0211127
-0.00102308
-0.036993
-0.0734323
1.4761
0.398559
-0.0394792
1.21452
1.49014
-0.0396264
0.000521022
-0.0377389
1.35223
0.0359204
1.43819
-1.53172e-05
-0.0803475
1.25592
1.33073
0.00802909
-0.042046
1.55621
0.191028
0.269935
1.45313
1.55903
-0.0434035
1.2685
0.45059
1.27277
1.1164
0.000533754
0.389588
1.0291
-0.00567899
-0.0745636
0.446821
-0.0618905
0.529318
0.337215
8.25548e-06
-0.00149114
1.4331
-0.00206407
-0.0828796
-0.0509179
0.780734
-0.062659
1.28502
0.483871
-0.0441258
-0.100563
0.983854
0.71851
-1.1446e-05
1.42434
1.188
1.41306
0.119773
-0.000817566
1.54945
-0.00570774
-0.0325899
0.695697
0.419076
-0.0519192
0.164718
1.20335
1.62824
1.32905
0.553039
1.72547
2.96706e-05
-0.0244212
1.33255
0.0260005
1.02124
-0.037292
1.36969
0.442751
-0.000660268
0.429981
1.15047
-0.000268131
1.47531
1.18252
-0.000756677
0.0610239
0.921766
0.640155
-0.00904434
1.21375
-0.000558843
1.69063
-0.0340795
-0.0540333
-0.0470972
1.32644
1.19352
-0.0695893
0.976492
1.4278
-0.00211354
1.08942
1.17115
1.7138
-0.00476892
0.791669
0.252353
-0.089841
-0.00039304
1.37041
1.1057
0.356205
1.40255
0.57989
-0.047508
1.06446
0.45747
0.658389
1.69049
-0.0173527
0.647243
1.40954
-0.0716082
0.388553
-0.0428769
0.90014
-0.0621608
0.796019
0.371054
0.628386
0.000542662
0.834073
1.40199
1.11387
-0.0433717
-0.0184683
1.53245
1.548
-0.00587986
-0.0768328
1.27612
-0.0790898
0.0961504
1.10576
-0.0490836
1.75477
0.0191508
0.838728
-0.0166911
1.40974
1.16828
0.198301
0.100194
0.288856
0.555399
-0.00183297
1.27293
0.211366
0.900571
1.67836
0.125962
0.0707008
-0.0019317
0.524287
0.38642
-0.0445211
1.13162
-0.000350187
-0.0558839
0.0200706
0.207906
-0.0338613
-0.000299732
-0.0461092
0.677254
-0.0188024
0.0391196
-0.0663799
0.457622
0.351679
-0.0606108
-0.0973223
-4.04302e-06
0.157832
-0.0777766
0.0175056
0.0176269
0.721047
1.10149
0.445285
-0.000788846
1.57817
0.0177956
-0.000458885
0.0717407
-0.0711294
-0.0374184
1.48607
0.0137814
0.458113
-0.0626082
-0.0709185
1.08628
-0.0300945
-0.0537934
-0.0687405
-0.000377278
0.147176
1.60327
-0.0697437
-0.0803303
1.12357
-0.0509058
1.10878
0.847828
-0.00652169
-0.00249215
1.1916
1.65943
-0.0857201
0.960662
0.662564
-0.0676834
-0.0688394
1.27449
0.274819
-0.0243758
-0.0306623
-0.0718968
0.125401
1.53725
0.55129
7.08787e-05
1.46625
0.027369
-0.0384148
1.24198
0.0223795
-0.0176569
-0.000797183
0.207529
-0.060222
1.02507e-05
0.954868
0.0495535
1.27978
-0.000949832
-0.000807295
-0.0535014
-7.53749e-06
-0.0923187
-0.00721376
-0.00164581
-0.0275539
-0.0975697
1.22365
1.41047
-0.00556535
0.00375906
-0.0647863
1.41809
-0.00503854
1.41935
-0.0310567
1.69273
1.11518
0.798386
1.62884
0.236556
-0.0158578
0.249975
0.00191168
1.3957
1.2662
-0.0502702
0.113174
0.338794
0.0556801
-0.0148784
0.0862699
6.85711e-06
1.23013
-0.0993746
-0.0447727
-0.0170706
-0.0181921
0.836335
0.467363
-0.00863886
0.0210772
-6.20852e-05
1.69452
1.52452
-0.0078329
-0.0468694
0.0482531
1.26315
-0.097909
0.668478
-0.076259
1.34188
0.800682
-0.0624652
1.74571
0.109866
1.31827
-0.0152387
-0.0847918
1.47148
0.00678219
1.66902
1.24041
1.71011
-0.0149519
-0.0236279
-0.016933
0.292791
0.0201783
-0.00825151
1.31941
1.35486
1.10445
1.40696
1.65145
0.94072
1.40189
1.11233
0.00322334
1.20606
-0.054808
-0.0736552
-0.00197789
0.0456223
-0.00708303
0.958213
0.223624
1.28181
-0.00863723
0.397996
1.24235
0.00382366
0.0906504
-6.54706e-05
0.000308573
0.954228
-0.0477547
-0.0633442
0.000353357
-0.000562
0.315785
-0.000716411
0.463808
1.70483
0.981873
0.901991
-0.0584657
1.27198
0.546709
-0.00294172
-0.046052
-0.00462142
-0.000841325
0.00133804
-0.0165184
-0.0676478
1.00081
0.283934
-0.0928699
-2.88186e-05
1.32621
0.301327
0.169373
0.0101852
0.598877
0.0363775
-0.0913107
1.24445
1.60063
1.20023
-0.0637323
1.20957
-0.062854
-0.0432207
1.00951
6.44505e-05
-0.02732
0.808267
0.926044
-0.0605613
1.24875
1.50093
1.21867
-0.0742355
-0.0962968
0.0524254
0.472218
1.17171
-0.00713738
1.46163
-0.0333149
-0.0802151
0.26832
1.59183
1.01
1.27824
0.00235681
1.67214
-0.0573655
-0.0404499
1.72886
0.175805
-0.0500559
1.30371
1.34271
-0.0525747
1.16133
1.41917
1.33342
1.261
1.31804
1.13645
-0.0233912
-0.0560516
0.00235165
-0.0767871
1.39956
-0.0726492
0.740326
0.704302
-0.0654233
0.472912
0.816301
1.4226
0.465706
-0.00138525
0.137539
-0.0471732
0.197648
0.186591
-0.0788537
1.24996
1.45431
0.35148
1.41376
1.66695
-0.00716017
0.00427647
-0.00669537
-0.0474622
1.05774
1.69827
0.567474
1.27581
-0.0371555
1.16342
1.18963
0.0796447
-0.074515
-0.0971334
0.738999
0.00205874
0.303818
-0.0642919
-0.0907725
1.28651
-0.0130436
0.0146194
1.34596
0.455807
1.55672
-0.0310682
1.09689
0.179944
-0.0409346
1.45626
1.58938
1.39775
-0.0228514
1.58595
-0.0696124
1.44296
0.196916
1.38945
-0.0497826
-2.23507e-05
1.39339
1.44869
1.4403
1.39537
0.947779
0.402553
1.07868
-0.050276
1.39575
1.24035
0.300887
0.231826
-0.0225651
0.245623
1.26628
-0.0861525
-0.0681388
1.42706
1.4078
-0.0446389
1.37673
-0.0880504
0.576427
-0.0288801
1.4276
1.44854
1.67145
1.43164
-0.00652208
-0.0379893
-0.00220892
-0.0491183
1.54979
0.875172
1.24932
-0.0889999
1.11694
0.0544626
1.55393
0.0609549
1.41885
-0.0266353
1.52262
1.57937
-0.0409627
0.587211
1.51631
-0.00671455
1.61005
0.0355387
-0.00829266
-0.0763128
1.32461
0.766969
-0.0584272
1.38931
1.59931
1.18117
0.116974
-0.0381934
0.225408
1.40455
1.58106
1.70918
0.849151
-0.00211912
-0.0691107
1.26182
0.00082884
-0.026087
0.00163013
-0.0211699
-0.0218629
0.0303762
1.47869
0.0116347
-0.0016506
1.2179
0.857728
-0.000836215
0.670582
0.00201845
0.741021
1.22565
1.38562
0.00823234
0.627326
-0.0139499
0.10081
-0.00769376
1.41681
1.48493
0.0213932
-0.00530657
-0.0243825
-0.00411504
1.39733
0.0105675
0.0128191
-0.0584833
0.118977
1.6393
-0.0371889
0.397125
1.42718
-0.0156192
0.504197
0.0235592
-0.0413814
-0.00719382
-0.00124086
1.62952
1.08574
0.00804261
0.322684
1.12416
1.36235
1.235
0.157562
-0.0506896
-0.0300481
-0.0436319
1.19144
-0.0606247
-0.0321043
-0.000291759
-0.0531517
-0.00341452
-0.0164471
1.33612
-0.0455133
1.41579
1.39242
-0.0723921
-0.0335014
1.66045
1.14469
0.309876
-0.0367973
1.15466
-0.0361395
1.03865
1.63111
1.07921
-0.0561235
-0.0402748
1.30226
-0.0649052
-0.0584091
-0.0355666
1.501
-0.0499392
0.278123
1.13484
0.974875
1.20706
0.0112522
1.03921
-0.00435762
1.42156
-0.0656457
0.798192
-0.0164892
-0.0274783
-0.00183527
-0.00374152
0.00114955
1.50704
-0.0360465
1.10407
0.555511
0.0680956
-0.0215254
0.898497
1.68478
1.53355
0.0360337
0.854881
0.035316
0.496454
-0.0648964
0.687177
-0.0814062
0.000186894
1.17089
-0.0527511
0.023729
1.49086
1.29247
1.44236
0.121577
0.212422
-0.0243726
0.873553
0.133819
0.00011589
1.52559
0.63299
0.833417
0.332705
-0.000251155
-0.0148614
0.00213733
0.811552
-6.10071e-05
-0.030208
0.0157048
-0.0430154
1.55133
-1.1515e-05
-0.0443606
-0.0912644
1.60868
0.0369185
-1.87731e-05
-0.000313915
0.58998
1.22546
-0.0355149
-0.0299692
-0.00561259
1.24502
-0.0372793
0.824884
0.0485248
0.0180847
0.481158
1.22607
0.436933
0.856328
-0.00786976
1.29074
1.59016
-0.0311439
1.10325
-0.0560268
1.61611
1.56971
-0.0179937
0.514013
0.468666
1.08697
-0.000237978
1.39323
1.71681
-0.0139645
0.756253
0.991969
0.000248726
0.000832924
-0.0388062
1.67978
-0.0117473
-0.0403537
1.40463
0.00256165
1.07134
1.4347
-0.046215
1.52169
-0.0545931
-0.0337765
1.43885
0.850289
1.20573
-0.0084549
1.44507
0.821816
1.38504
-0.067825
-0.0101348
0.758756
1.52232
1.44073
1.53553
1.40773
0.218232
-0.0740567
0.34955
1.12951
1.38811
1.59418
-0.0619738
0.930667
1.63697
1.33252
0.000405742
-0.0844326
-0.0427815
0.699311
0.0979376
1.50073
0.847684
1.38333
0.501652
0.118876
1.39076
0.24353
1.14286
0.0105803
0.440518
-0.00990104
0.00369544
-0.0566661
1.59789
-0.0551488
-0.0460467
0.201656
0.77038
0.502402
-0.0469177
0.338513
0.0719354
-0.0456913
1.18255
0.74493
1.26045
0.0431871
1.44297
-0.0252127
0.00011781
-0.0143426
0.0299662
-0.00542012
0.012477
0.00854969
1.00251
1.5391
0.764982
0.396475
0.00627729
-0.0571688
1.09347
0.021073
1.62342
1.01682
0.0205423
-0.0470329
0.203252
0.0305082
-0.0254634
0.00371501
0.135733
-0.0454954
0.981097
1.56604
1.46485
0.926954
-0.0112949
-0.0564288
-0.00480025
-0.0187424
1.19516
-0.0277103
1.16178
-0.0277734
-0.0303761
1.54774
1.57279
0.000303367
1.40235
1.45903
0.674431
0.0261677
0.743627
1.18777
1.56939
1.04835
0.00123435
1.54349
0.428887
-0.0204367
-0.0326836
-0.00155913
1.59546
0.0329424
1.42151
1.02695
1.52819
0.0802575
1.07358
1.1377
-0.0271273
1.4418
0.208002
1.50579
0.000739686
1.06835
1.15052
1.1707
0.000338055
0.312903
-0.00577169
-0.0612166
0.995626
-0.0340943
1.10565
1.09523
1.67477
0.0833773
1.512
0.0613527
0.0535243
0.411663
1.3996
0.579449
0.235283
0.382955
1.26559
0.0009111
1.65453
0.00516044
0.170466
0.563516
-0.0512917
1.41446
-0.0223233
1.47075
1.23461
0.63365
0.297148
0.744529
-0.000367799
0.260498
1.49852
-0.0497925
0.165801
1.04807
0.48464
0.1698
0.309069
-0.0324317
1.55806
-0.0519655
0.396567
0.175234
-0.0837748
1.38121
1.69463
-0.0660205
-0.0608783
0.0147248
0.474547
0.000744964
0.653591
1.57568
1.52719
0.0594972
0.718054
-9.16638e-05
-0.0735755
1.30188
0.0227195
0.850507
-0.0516881
1.64286
1.28247
-0.0638324
0.0243443
-0.024181
1.65145
-0.058711
-0.00310148
-0.0461846
0.658601
-0.0342739
-0.0490452
0.619888
1.56768
-0.0701774
1.61304
1.71042
-0.0376349
0.150251
0.000392407
-0.00928819
0.0643859
-0.041758
1.64184
-0.0435072
-0.0136866
1.16032
-0.0587922
1.24732
-0.0218328
0.317154
1.25516
1.16811
-0.0735602
-0.0219946
-0.0609776
1.33843
-0.057754
0.877946
-0.0668879
-0.0217808
-0.070201
-0.00467701
-0.00876185
-0.0639688
-0.0513876
0.154517
0.0281384
0.592456
-0.00578164
-0.0632584
-0.0498833
-0.0434985
0.00543538
1.55015
0.250514
-0.0358521
0.00964688
1.31397
-0.00520497
1.18419
0.145657
0.430582
-0.0255182
1.24287
0.88261
-0.0798189
-0.00827033
-0.0192875
1.06468
-0.000291385
1.16251
1.33515
0.0132671
0.0846151
0.606366
0.530993
-0.0326115
0.719117
1.28433
-0.0472055
1.12161
-0.0782544
0.103821
1.0907
1.57261
0.227418
0.00559459
1.38028
1.15471
-0.0533649
-0.0545775
-0.0833921
0.0986057
-0.0512858
-0.0189529
1.30431
-0.0360812
0.0561372
1.30906
0.0239698
-0.0524133
0.960727
-0.0113377
0.70985
1.15527
0.219538
1.19305
-0.0272809
1.53547
-0.00848157
-0.00039002
-0.000149834
0.380505
5.4335e-05
-0.0326634
0.725753
0.0565921
0.00174992
-0.0333126
-0.0362538
0.853675
1.41689
-0.00191503
-0.0379979
0.0452656
1.11462
-0.072324
-0.0392445
-0.0552714
0.386537
0.966177
-0.0152715
-0.0272419
0.146561
1.23701
1.31784
0.702189
1.17541
1.45317
-0.00326323
1.11653
0.532101
0.235071
-0.0487076
0.149093
1.72585
0.0180089
0.00265627
-0.0767004
1.2393
-0.03314
-0.00106425
-0.0689207
-0.0788739
-0.011154
1.41976
1.01202
1.15639
1.32285
1.18033
-0.044693
0.647598
0.999682
0.363561
1.3913
0.83261
1.04884
-3.69729e-05
1.03209
-0.0385315
0.812111
1.05636
-0.0656214
0.449002
0.442018
-0.0430063
-0.0219265
0.42344
0.790457
1.58254
0.854039
-9.87232e-05
0.929306
-0.0400513
1.07271
0.877203
-0.0354023
-0.0488535
1.12655
1.40969
0.624808
-0.0987682
-0.0590241
0.760633
1.12564
-0.0742341
1.28993
-0.0563009
0.69061
0.185954
1.50111
-0.00218135
0.00321298
-0.0131415
-0.0624547
0.127168
-0.0503927
1.15974
1.31737
0.0202082
0.940678
0.0230557
-0.0376814
-1.4315e-05
0.824866
-0.00889742
0.994528
-9.28066e-05
1.14477
-0.0878901
1.26793
0.137552
1.34627
-0.0806574
-0.0305758
-0.00207831
1.42413
-0.066702
0.504046
0.675173
0.0294792
1.25575
-0.0310695
0.0195331
-0.0658098
-0.0128342
1.42628
-0.0141521
-0.0610851
-0.0444828
-9.5006e-05
-0.0433856
1.28128
0.00133131
-0.0897471
0.00210027
-0.00490987
1.20486
0.148912
0.394198
-0.00508566
0.000997514
-0.00941493
0.258342
-0.0686445
0.00311337
-0.0335088
0.848789
-3.28724e-05
-0.0609323
0.229139
0.678584
1.38735
-0.0478581
0.0136184
-0.0943558
-0.0260763
1.19974
1.30296
1.43842
-0.000121219
0.779233
-0.0698594
-0.0675341
1.02483
-0.0442957
-0.0357428
-0.0450904
-0.0162791
-0.0526043
-0.0484677
-0.0414189
0.00335332
0.0688382
1.13409
0.0337485
0.917503
0.364131
0.256908
0.782903
0.568275
1.02479
0.13611
1.16483
0.000141274
-0.0208326
1.10577
-0.0840184
1.1902
1.14734
-0.0450031
-0.086894
0.000128603
-0.0713624
0.343447
-0.0535024
-0.0555633
-0.0583693
-0.0489707
-0.0846988
-0.0546009
-0.0415053
-0.021485
-0.0959105
1.0264
-0.0792191
-0.00910177
-0.0909866
0.00388259
-0.090341
1.29372
1.25531
0.828065
1.48892
0.0143702
0.113729
-0.0711995
0.00406755
-0.00986708
-0.00055139
-4.3404e-05
0.807273
0.635847
-0.000641524
0.0169836
0.494545
0.769557
-0.0549463
-0.0562861
0.0170553
-0.0102389
0.00355518
-0.00162783
-0.0879534
-0.0293963
1.54711
0.00549792
-0.0259688
-0.0562607
-0.0601692
-0.0425947
-0.0644511
0.000817311
-0.0433558
-0.0424614
-0.0821025
-0.0469351
0.557923
-0.0469909
0.942059
-0.0733889
-0.00983453
0.132969
1.18498
1.23002
0.993763
0.0871264
0.0252568
0.00972071
0.064221
-0.0587374
0.0475812
-0.0832103
0.0354801
-0.0251056
-0.00822655
-0.000129974
0.349031
-0.0207188
-0.00227274
0.00798662
1.58546
-0.0582416
-0.0463845
1.51504
1.5549
-0.0614974
1.53524
1.4683
1.21938
-0.00123804
0.0526378
1.56182
-0.0030961
-0.00193931
0.00391761
-0.0629644
-0.0261371
0.0476945
-0.0594563
-0.0763957
-0.0774381
-0.00820315
-0.000798092
-0.0533434
-0.0278649
1.66966
-0.06599
-0.048498
1.67213
-0.0166246
1.6179
1.52344
1.13982
-0.0530323
1.66354
0.46828
1.35053
0.0703788
-0.000515151
-0.00283189
0.0145639
0.265406
1.40744
-0.00832984
0.000439765
-0.0662175
-0.000812504
-5.33632e-05
0.76202
-0.000689707
1.1811
-0.050861
-0.0150199
-0.0719775
-0.0553724
0.718396
-0.0177361
1.53794
0.00351188
1.45337
0.0248009
-0.0697371
-0.000162085
-0.0984716
-0.0127264
-0.0916909
1.32672
1.395
-0.000170878
1.54879
-0.0657415
0.000617741
-0.021341
1.46283
-0.0550271
-0.00287149
-0.00171977
0.00146408
0.000210645
-0.000673172
-0.00340387
1.5748
-0.00155666
-0.00967699
0.011309
1.61588
1.71625
-0.0205674
-0.0754952
1.20773
1.67395
-0.0716586
-0.0686808
-0.000173669
0.114727
1.43704
1.1831
0.00107957
-0.0557873
-0.0763312
1.48146
-0.0727439
-0.0344666
-0.036187
-0.0348642
-0.00769727
1.25034
-0.000566873
1.5063
-0.0103368
1.59514
-0.00414428
1.52585
-0.0513397
0.358473
-0.0242051
-9.55134e-05
0.00179864
-0.0254455
-0.0496106
-0.0164428
0.000620535
0.00439152
-0.0106407
-0.0714573
0.000557042
-0.0453808
-0.0433506
0.00262669
0.440027
-0.000695846
1.17917
-0.0712543
-0.00614721
0.0070703
-0.0551417
1.63446
-0.0393792
-0.0286797
-0.0289997
-0.0859246
-0.0594692
1.15197
1.23549
0.0201738
-0.0472004
0.0641729
0.495344
1.5039
-0.0884621
1.12876
1.28029
-0.000195074
-0.0818856
-0.0631135
0.00356334
-0.00295594
-0.00335283
0.00263515
-0.0247034
-0.0240867
0.031912
-0.0345353
0.0770513
0.892634
-0.00326919
1.18198
0.623938
-0.076915
-0.000132838
0.00155059
1.41229
-0.00421933
-0.08127
-0.00280777
-0.0851963
-0.0401013
0.974789
0.305013
1.57122
0.000323513
0.000706998
-0.0789871
0.950478
0.0106435
1.51004
0.63614
-0.0664659
-0.042797
-0.0488553
0.0507679
1.14436
0.193772
1.42656
-0.0921179
-0.000966397
-0.00741907
-0.0366844
0.000236875
-0.00220238
-0.012182
-0.0354499
0.0273002
-0.0825033
-0.000474339
-0.0841853
-0.0471952
-3.55381e-05
-0.000584514
0.010505
0.00118419
-0.00133086
-0.0110879
0.139964
0.00209107
0.290332
-0.0413
1.19948
-0.0724985
-0.0477101
-0.000125039
-0.0475815
-0.0732539
0.003046
-0.0225832
-4.32614e-05
-0.0200396
-0.00065403
-0.0338417
0.367972
0.574734
-0.0892499
0.000282563
0.256705
-0.0114214
1.27696
1.05247
1.23697
-0.00665066
-0.0156161
-0.00211178
-0.0221079
1.45413
1.15369
-0.00757536
-0.00767336
0.9021
1.1505
1.56474
-8.36222e-06
-0.0119178
-0.0289705
-0.000200798
-7.89545e-05
-0.000495218
0.000607733
-0.0078541
1.19723
-0.00449822
-0.00047352
0.0262205
0.00160017
0.354243
0.0155895
0.977425
0.0021719
0.614222
-0.07475
-0.0900784
0.761356
0.653563
0.000227705
0.746501
1.50062
-0.0819047
1.22639
-0.092404
-0.0198952
1.30559
-0.00499409
1.19299
-0.00895387
0.0791859
-0.012215
-0.023599
-0.047347
0.00123124
-0.00117729
0.127657
-2.29648e-06
-0.0389942
-0.0812489
1.51679
0.0541182
0.00921515
1.17609
-4.18357e-05
0.000710255
0.0391618
-0.00356018
1.48943
-0.00660427
0.00093105
-0.0495592
0.528711
-0.037868
0.00272378
-0.000890907
0.489645
0.0257569
0.000535594
1.39017
1.60986
0.00182837
0.224589
-0.00133106
1.24534
-0.00182754
-0.0105678
-0.000497559
-1.29808e-05
-0.0150271
0.0103502
0.00224505
-0.0610293
-0.00301375
0.0159683
-0.000705857
-0.00142358
0.0304758
1.3175
1.3719
0.0337212
1.15805
0.381597
-0.000164363
1.15778
-0.0145099
0.00406591
0.0106325
0.223497
-0.00148529
0.128778
-0.0047959
-0.0187987
0.796585
-0.0520838
-0.0407623
0.679644
0.989568
0.624172
1.08502e-05
-9.2962e-06
-0.0498458
0.922336
-0.0151144
-0.0828513
-0.00140177
1.14833
0.0871581
1.31717
1.05375
-0.0448298
0.670468
-0.00305951
1.18774
0.329077
-0.0750002
-0.000877392
0.00238372
-0.0416698
-0.0485045
-0.0359071
-0.0571244
0.558884
-0.0269078
0.919899
-5.35473e-05
0.0120769
-0.00255161
0.543203
0.111308
0.00892314
-0.000133621
0.0965323
0.877532
-0.0688665
0.0835204
0.0728338
0.396031
0.0633444
-0.00182637
0.001188
1.27926
1.35396
1.40391
0.000196808
1.35941
1.25654
1.36596
-0.00914439
-0.00125005
0.000394901
0.976736
1.08017
-0.0647273
-0.0890767
-0.078861
-0.034761
0.439939
-0.0429628
-0.0232272
1.12211
0.00336106
-0.0375749
-0.000303635
-0.0496064
1.36682
-0.0499448
-0.000361537
-1.26976e-05
1.46232
1.25682
0.284899
0.888222
-0.0399244
0.251027
-0.0469757
0.217331
0.186093
0.162021
0.851377
-0.055476
0.584054
-0.000318606
1.33439
-0.0147904
-0.0141775
1.23387
0.0724514
-0.0323364
-0.0871489
0.247793
0.638509
0.0295323
-0.000638662
1.12658
0.000988163
-0.0359904
0.352037
-0.0012265
-0.015899
0.00311382
-0.0870862
-0.071426
0.312132
-0.00173146
0.274756
-0.0313122
0.241769
0.211318
-0.0320434
-0.0534911
0.184735
-0.0771293
-0.0449335
-0.0381752
0.98982
-0.0518236
-0.0223624
-0.000538753
-0.0640268
-0.0918759
-0.000704255
1.02064
1.31053
-0.0739399
-0.0579776
-0.0378518
-0.025742
-0.00114674
-0.00436829
-0.00962287
0.219567
-0.00101485
0.0560028
-0.0821331
-0.0756467
0.00206592
-0.000828425
0.978007
-0.0113433
0.536049
1.04216
-0.000296115
-0.0917226
-0.0732946
-0.000512125
0.493831
-0.0868974
-0.0815619
0.450454
0.746067
-2.94364e-05
0.408194
0.772707
-0.00108655
0.585808
-0.0369676
0.0404248
1.12172
-0.0146694
0.000313233
-9.21698e-05
1.09524
0.0587587
-0.0413561
-0.0834928
-0.0414761
-0.0242608
-0.0243097
-0.072768
0.531413
1.42162
1.55038
1.21703
-0.000783103
0.969808
0.484266
-0.0448518
-0.0857143
0.945691
-0.0852805
0.0331906
-0.00151247
-0.0733582
1.18442
-0.000403156
-0.0558742
-0.0277183
0.116725
0.00128121
1.23551
-0.0883246
1.21569
-0.0556487
-0.0639201
0.0254982
-0.00257589
1.08925
-0.0385697
-0.0238514
-9.24819e-05
0.0222916
0.161508
0.702169
-0.0269475
-0.000533449
0.721267
-0.000109009
0.898253
0.658149
0.00070546
0.899883
-0.053513
-0.000669379
-0.0345932
-0.00126416
0.00160192
0.00173847
1.06142
-0.0501246
0.00203406
-0.0568137
-0.0397187
1.05403
1.36822
0.000530097
-0.0320219
-0.0166078
-0.027579
1.12947
0.0780876
0.000925322
0.850133
0.706321
1.2022
-0.021686
0.00169833
0.964495
-0.000881842
-0.0877026
0.0846484
1.4468
-0.0427849
-0.0398172
0.00120829
-0.01648
1.43825
-0.077433
1.5914
0.653323
-0.0278668
-0.0018802
-0.0378207
0.0114404
0.000317152
-0.0343044
1.41867
4.4415e-07
-0.0230861
1.43286
-0.00100285
-0.0334385
0.000375717
-0.00441156
0.000360578
0.201328
0.0104349
-0.00441666
-0.0373448
-0.00231722
0.000156475
0.000220827
-0.000423045
-0.0318112
0.000266807
-0.0027023
0.0386512
-0.0274305
1.58219
0.231789
-0.00929602
-0.0132589
4.46221e-06
-0.0399859
0.000185357
0.500497
1.19032
-0.00564899
-0.0152558
-0.0133382
0.398588
0.00307901
1.64878
0.00445246
-0.00381239
0.880189
0.0353603
0.000220106
-0.0667146
1.1724
-0.00155268
1.16259
1.18743
-0.0466832
-0.0664485
1.33684
-0.0388912
-0.00516059
-0.080048
1.03542
0.506473
-0.0592527
-0.00101282
1.38484
-0.00226309
0.0684722
-0.0146256
-0.00691906
1.52833
0.00132576
6.73282e-05
-0.0570548
0.826569
1.60045
1.16088
1.69254
-0.0136863
1.50875
-0.00135946
0.984795
-0.00898951
-0.00232421
0.673625
-0.0342324
0.474221
-4.161e-05
-0.0947473
1.61117
-0.0393623
0.134399
0.00388954
-0.00322003
0.777528
0.00552504
-0.0740871
0.00019909
-0.0279229
-0.000510378
1.64487
-0.0452714
-0.0658289
0.379442
0.0305988
0.632395
1.16512
0.000442224
0.100551
0.751986
1.23475
1.66038
-8.81187e-05
0.0667771
0.0416611
-0.00444264
0.819734
0.889085
0.0518542
1.45135
0.535377
0.759583
-0.0369383
1.12367
-0.0841148
2.28215e-05
9.76952e-05
0.000153819
-0.00110703
0.00273433
-0.0602168
9.13744e-05
0.0019963
0.0245466
-0.000361478
0.918864
-0.00834575
-7.65692e-05
1.60087
0.000779512
-0.00062708
1.37208
1.65538
-0.0930412
-0.016339
1.32578
-0.023614
1.5072
0.332045
-0.00109942
-0.0682469
-0.0176927
0.00613179
0.00149175
1.21557
-1.73393e-05
0.000524214
1.44865
-0.00139625
0.00488054
-0.0467936
-0.0581438
-0.0762601
0.000155505
0.425563
-0.0835609
0.000219601
-0.0701594
-0.00475616
0.93103
-0.000349249
-0.000374489
-0.00440208
1.426
-0.0232224
-0.0132728
-0.00386062
0.00476616
1.38046
0.0362589
0.60242
1.3322
-0.00211533
1.5321
1.29596
-0.0245318
-0.0676596
0.000718077
-0.0514658
1.50531
0.0076178
-0.00168746
0.00013287
-0.0843193
-0.0153949
-0.00205454
0.000392581
1.52452
7.09334e-05
1.21368
-0.022717
-0.0760098
0.000166133
-0.00257301
0.000472005
1.35644
1.37649
0.748727
-0.00252439
-0.0888518
-0.04489
0.627574
0.493115
0.894153
-0.0870062
-0.047039
-0.100745
-0.00124592
-0.00212693
-0.00244851
-0.00409107
-0.00292707
-0.00345827
-0.00592774
-0.0140528
-0.0873176
-0.00701443
-0.00702258
-0.0892933
-0.00103275
-0.00481286
-7.35952e-05
1.74203
0.427168
-0.00639926
0.00951653
-0.00558477
-6.4671e-05
-0.00124116
-0.00932817
-0.0080399
-0.0821287
7.90009e-05
-0.100915
-0.00185277
-0.00293419
8.16148e-05
-0.0793188
-0.057584
-0.0107596
1.42173
-0.0117833
1.19008
-0.0709769
1.46815
-0.105723
-0.106275
-0.106187
-0.105716
-0.104245
-0.10373
-0.101863
-0.000859081
-0.100004
-0.0971444
1.36829
-0.0930208
0.0899857
-0.0826051
-0.00147992
-0.0288641
-0.0429039
0.000133062
-0.00814806
-0.000349809
-0.00529343
0.190811
-0.00345907
0.868956
1.24001
-0.0227617
0.00414283
-0.0855488
0.0116415
-0.0140224
-0.0211558
-0.068303
-0.0007493
1.61979
-0.0398001
-0.0444919
-0.00944575
-0.00408793
-0.0122943
-0.00873675
-0.107017
-0.0159869
-0.00552789
-0.0333052
0.343799
3.24632e-05
-0.000705357
-0.0105207
0.087913
-0.00645267
-0.0100794
-0.00753549
0.000146327
0.000527418
0.000102925
0.000604847
-0.00471282
-0.0115933
-0.0112308
1.34924
-0.00248286
-0.00842445
-0.00468313
0.00201263
0.000287857
0.00049873
1.06648
-0.0118206
1.30751
-0.0151429
-0.00297218
0.00010867
1.16297
-0.00342852
0.000545297
-0.000570252
-0.000491849
-0.029589
-0.0132811
0.344111
-0.000431499
-0.0159289
-0.00205987
-0.0061335
-0.0035401
-0.0171876
0.00529705
-0.0488205
1.32734
-0.0893308
-0.0330615
-0.00152358
-0.000377118
-0.0822173
-4.01908e-05
0.0465418
-0.0140944
-0.0156501
0.000905985
-0.0167357
-0.0247321
-0.0774056
-0.00169742
0.000105307
-0.0561636
-0.00138323
-0.0194787
-0.019884
-0.0178798
-0.00031616
1.51713
-0.0011256
1.69891
-0.0247937
-0.022248
0.0230898
4.76669e-05
-8.49046e-05
0.196327
0.000597065
0.0266445
-0.00104522
0.247274
-0.0219897
-0.000431754
-0.000469559
0.006653
1.51042
-0.000876499
-0.0480896
0.0186864
1.3234
-0.066706
-0.0443808
-4.39757e-05
0.108844
-0.0327735
-0.0595117
0.00270464
0.000441979
0.0292779
1.59495
-0.0441756
0.00119902
-0.0283463
-0.000531844
1.19491
1.31383
-0.000292236
-0.00510216
1.11749
-0.000726406
-0.018159
-0.000413121
-0.00126119
-0.0403617
-0.0699795
-0.0289779
0.147014
-0.00211262
-0.000262947
-0.0005928
-0.0107789
0.000510744
0.916748
-0.0360778
-0.000371498
1.27987
0.00194152
-0.00364053
-0.0898243
-0.0245503
-0.00250143
-0.000572787
0.0223775
-0.0053639
-0.0309704
-0.000196416
-0.00182989
0.898883
-0.0195363
1.12862
1.464
0.0143172
0.00512139
-0.0830505
-0.0213658
1.59544
0.0331724
-0.00623673
2.82979e-05
1.24502
1.53397
0.93614
0.353888
-0.0789984
-0.000380867
-0.0810322
-0.00150478
0.00198802
-0.0364036
1.13484
-0.0536171
-0.000794559
0.00491845
-0.00289962
0.426088
1.18131
-0.0124222
-0.0773268
-0.00340403
-0.00366883
-0.00423838
1.50582
0.00833769
-0.00235105
-0.00119978
-0.0115927
-0.0480255
0.422496
-0.0143929
0.00124142
-0.0188386
-0.00044268
0.033443
1.18763
-0.099302
-0.00364173
0.0394136
1.16564
-0.0040775
0.552584
1.34632
0.00173939
-4.15594e-05
0.607865
1.12224
0.665932
0.991579
-0.0767921
-0.00406552
0.000656458
1.13431
-0.0606971
0.00392135
-0.0619504
-0.0308256
-0.0073082
-0.0777145
-0.00477779
0.000692206
1.09487
0.0061484
-0.0792786
1.37248
-0.0474023
1.31392
-1.08344e-05
-0.0765367
1.2632
1.60357
0.0399915
-0.0126425
-0.0276038
-0.00224336
-0.0061393
1.30899
0.0296771
-0.0642708
-0.0054473
-0.00269075
-0.00498484
0.00763896
-0.00152678
1.0074
-0.00124135
0.0351559
-0.00632282
-0.013118
-0.00214684
0.809492
1.23946
-0.103272
-0.104416
-0.10435
-0.00185883
0.0110515
-0.000997146
-0.102587
-0.102162
0.820983
1.22904
-0.100929
0.798801
-0.0381132
0.00437163
-0.0344637
-0.0988909
1.01811
0.768361
-0.0972269
-0.0207794
1.24201
1.03438
-0.00667553
0.000104678
-0.00375333
1.4978
-0.00135105
7.16563e-05
-0.00727967
-0.00507386
-0.00321146
0.00535606
-0.00590921
0.0284074
0.544645
-0.0462196
5.03586e-05
-0.0661954
-0.0671355
-0.03974
-0.0652794
-0.10451
-0.00431208
-0.00745227
-0.00836311
-0.0153079
1.27322
-0.00696371
-0.00969755
0.127293
1.57754e-05
1.46416
1.23838
-0.0647812
-0.00804382
-0.00178201
-0.00929519
-0.000466563
1.2052
0.277727
-0.00301432
0.110734
-0.000471873
0.0963469
-0.00326539
0.0839657
0.0730291
1.40033
-0.0382471
-0.000619494
-0.00804039
0.00947771
0.80029
1.10697
-0.0824002
1.10384
1.527
-0.00634693
-0.0314037
1.06882
-0.0107137
0.31564
1.47006
1.05834
-0.0298355
1.07116
-0.0111937
-0.0197972
-0.00364221
-0.00419634
-0.0900793
-7.69003e-05
0.277288
0.243016
0.212524
0.18273
-0.0428943
0.381257
0.000854564
-0.00900141
0.90123
-0.0259081
-0.000293835
-0.00674282
-0.0122811
-0.0714596
-0.000475175
-0.0312282
0.0813979
1.68812
0.339701
1.22267
0.467509
1.76617
0.301733
0.266124
1.41792
1.46486
-0.0334663
0.866322
-0.000452449
0.193419
0.234422
-0.0140265
0.205743
0.0268134
-0.0690207
-0.0101511
-0.0126444
-0.0159811
0.00303608
-0.0144683
1.20584
0.0303288
0.0127992
0.00228664
-0.0651927
0.00924761
1.34706
-0.00247912
1.14047
-0.031206
-0.0579996
0.563095
0.614772
-0.0531929
-0.0973785
0.00666669
1.19277
0.964972
0.955219
0.0620288
0.00131128
0.519169
0.476872
0.00592651
-0.000634705
-0.00382102
-0.0150272
0.434479
0.00570359
0.779365
-0.0180713
1.29093
1.22217
-0.0152103
1.21186
-0.000276446
1.43387
1.39795
-0.00897847
0.562959
-0.0888747
0.0117302
1.76081
0.00602592
-0.0290747
0.441126
-0.000377918
-0.0167773
1.03155
1.21899
-0.0190734
-0.0526146
0.513015
-0.00399507
0.919858
1.06624
-0.0188245
0.145244
-0.00396838
-0.0211365
0.000373616
0.00061063
-0.00497314
-0.0164018
0.0969723
-0.0205183
0.576711
-0.00161601
-0.031495
0.0684874
0.748604