/*--------------------------------*- C++ -*----------------------------------*\
  =========                 |
  \\      /  F ield         | OpenFOAM: The Open Source CFD Toolbox
   \\    /   O peration     | Website:  https://openfoam.org
    \\  /    A nd           | Version:  7
     \\/     M anipulation  |
\*---------------------------------------------------------------------------*/
FoamFile
{
    version     2.0;
    format      ascii;
    class       volScalarField;
    location    "8";
    object      p;
}
// * * * * * * * * * * * * * * * * * * * * * * * * * * * * * * * * * * * * * //

dimensions      [0 2 -2 0 0 0 0];

internalField   nonuniform List<scalar> 
30084
(
0.0389235
0.37857
-0.0372884
-0.138859
-0.0102547
-0.157298
0.000457015
0.0404635
0.00866233
0.000793305
0.0319675
-0.0177443
-0.00204238
-0.000104805
0.498701
-0.0249941
-0.000684714
0.26212
-0.00909891
-0.0436532
-0.00365364
0.00813452
-0.0376225
-0.00899221
1.12741
0.376225
-0.00219798
0.987294
0.491335
-0.00643492
0.0665439
0.198123
-0.198531
-0.0237815
0.994742
-0.020039
0.447092
-0.112585
0.023819
0.0230417
0.00185388
-0.0641703
-0.000606941
-0.0401611
0.000136419
-0.00557385
-0.0156435
0.000325801
0.0142144
0.437079
0.0378446
-0.123403
0.203422
-0.152769
-0.0244316
0.469122
-0.0143092
-0.00375538
-0.0155311
-0.0465059
-0.000260616
-0.0088088
0.305144
-0.0168678
0.650332
1.07026
-0.0264272
-0.0344111
1.02831
0.00193332
0.373155
0.850659
0.010675
1.08271
-0.0324714
0.136743
0.541936
-0.101972
-0.000193745
-0.0455725
-0.143449
0.488863
0.0388139
1.84581e-05
0.00869611
-0.0409955
0.677253
-0.0021198
-0.00197448
-0.211973
-0.0789188
-0.102627
0.0131482
0.213744
-0.21946
0.698935
-0.0982347
0.00203395
-0.151214
0.552485
-0.000205159
-0.0961027
-0.000253631
0.155772
-0.126836
0.332328
0.753982
-0.00189752
-1.40676e-05
-0.170624
-0.200235
0.0714277
1.20746e-05
-0.00613405
-0.000648183
0.836081
0.533575
-0.0475395
0.000109303
0.012195
0.169501
0.399625
0.130782
1.07003
0.00466679
0.175067
0.272701
-0.0317349
0.0172319
0.000111549
-0.0360031
0.529617
0.852375
0.0921614
0.153741
0.0645782
0.772362
-0.0983479
-0.175826
0.539832
0.188204
-0.185588
-0.176826
9.12671e-06
-7.56909e-06
-0.0105125
-0.014548
-0.155492
-0.0897229
0.403817
0.112971
0.0583377
0.00185543
-0.000553356
0.506335
0.00223889
-0.0307852
0.751364
0.588363
0.0483536
-0.13788
-0.135154
0.48128
-0.000199714
-8.35209e-06
-0.0477968
-0.172264
0.000230639
1.31581e-05
-0.0283266
0.000169215
0.0242527
0.76128
-0.0969814
-0.102642
-0.0207091
0.00886617
-0.098731
-0.00487523
0.154889
-6.35127e-05
-0.00194629
0.675206
-0.0325365
-0.17668
0.515773
-0.02583
-0.0727736
0.0161185
-0.00571101
-0.0011688
0.0124812
1.08273
0.499539
-0.0560824
-0.0295522
0.934514
0.459579
-0.216082
0.00491293
-0.0301233
-0.177138
-0.0167831
0.00358289
0.773414
-0.0273872
0.0290047
-0.157342
-0.174748
-0.000129221
0.901942
-0.00431623
6.52977e-06
-0.00228032
-0.0722321
0.344763
0.00255394
0.0282736
-0.0089063
-0.214785
0.000134361
0.00199969
-0.00958146
0.274477
-0.0114727
-0.00587017
0.192194
0.000550378
0.000127263
0.022107
-0.106249
-0.0878621
-0.0194488
0.369933
-0.0599217
0.0609504
-0.000110014
-0.0123452
0.00334139
-0.0226692
-0.221486
-0.00573477
0.00199339
-0.00627989
0.0125562
-0.0426697
-0.000188795
-0.0300206
0.000198221
0.278142
-0.013843
0.00062629
0.33624
-0.18248
0.00107408
1.64374e-06
-0.186032
-0.216832
-0.036113
-0.0367131
0.113278
0.652655
0.00034019
-0.102664
0.156837
0.955768
-0.0328899
0.509355
0.147267
-0.000737341
1.25465
-0.00227225
-0.111019
-0.211859
0.0094847
0.261752
-0.0340293
0.862423
-0.0142823
-0.0717025
-0.00103562
0.637219
-0.0100136
0.708832
-0.00213875
-0.0238019
0.961109
0.24483
0.191654
-0.124993
-0.000634906
0.0121516
-0.000724541
1.13807e-05
0.283114
0.00016274
-0.0783154
0.148771
1.13759
0.845628
-0.162396
-0.0716392
-0.0840823
0.0609447
0.015099
-0.0736005
-0.169169
0.664553
0.852487
-0.00535129
0.744956
0.276093
0.139627
0.0491208
-0.00448781
-0.00809175
-0.022119
-0.0110852
-0.000237266
-0.00668843
0.132224
0.648255
0.00695799
-0.108078
0.0571329
-0.00014382
-0.16567
1.1828
-0.0259765
-0.00549216
0.0522493
-0.0434902
0.378828
-0.00549696
-0.000125167
1.18815e-05
-0.0112072
0.966241
0.123664
-0.216591
3.60009e-06
-0.22943
0.256223
-0.0211822
-0.202005
-0.00501714
-0.00185634
-0.0979775
0.0039603
0.164597
0.0438298
0.487891
-0.000478445
0.0109288
0.39638
0.172087
0.00183025
0.00194173
0.833671
-0.0775369
-0.00613972
0.477111
0.967659
0.0258399
-0.0248769
0.350698
-0.00326371
-0.0354618
-0.0139603
0.451612
-5.35068e-05
0.0422614
-0.0538111
0.852714
1.07398
-0.025061
-0.0369791
0.663972
-0.0488437
-0.00023037
0.469061
0.287926
0.292099
-0.0292399
0.103304
0.982689
-0.120755
0.903861
0.857549
-6.86935e-06
0.131747
-0.107037
-0.0120515
0.00708807
0.974236
0.124298
0.00122175
-0.123656
-0.181284
-0.0233271
-0.000509699
0.730032
0.524226
0.000217521
0.0177854
0.0234528
0.0307485
-0.124219
0.000287093
-9.17935e-06
0.00215696
0.38656
-0.11187
0.687893
-0.196711
-0.0688349
-0.0895416
0.469283
0.306922
-0.00518751
0.0349696
0.00369113
0.915942
-0.104016
0.00473752
-0.0315312
0.202674
-0.00564523
-0.0506982
0.00103405
0.00106003
1.19501
-0.0339477
-0.0210688
-0.00182754
-0.00318552
0.630726
-0.0507727
-0.0927126
2.21703e-05
7.1467e-06
-0.107508
-0.028388
-0.0220436
0.0724836
0.0269239
-0.00917302
0.21642
-0.0727904
0.893509
0.0287341
0.00109594
-0.16287
-0.0911687
0.277106
-0.0139847
-0.0912277
-6.08175e-05
1.03835
0.0812299
0.000379276
1.08256
-0.0962326
-6.51195e-05
0.00641099
-0.165884
0.0723826
0.192384
-5.57273e-06
-0.0339039
-0.00282451
-0.0226396
-0.00204918
-0.0349534
0.941416
-0.0345279
-0.0488562
0.525253
-0.0120981
0.935704
-7.26648e-05
-0.0621514
-0.156936
-0.088659
0.115525
-0.00649542
0.0142895
-0.000648925
-0.0772388
0.06471
-0.000135567
2.95841e-05
-0.0268491
0.881122
0.0368619
0.0112035
-0.219017
5.5489e-06
0.00436564
-0.000163487
0.0449042
-0.0722908
-0.00169974
-0.032545
-0.0520109
0.00454768
-7.65649e-05
0.201437
-0.00161722
0.237529
0.80545
0.670615
-0.0140917
0.0265078
0.105976
-0.000387041
-0.0139677
7.90091e-07
0.865248
-0.0565579
0.0714674
-0.0711263
0.00898786
-0.0130933
-0.000455138
3.60167e-05
-0.0204071
0.205713
0.600704
0.0055379
-0.145856
-0.103579
-0.0333033
0.40252
-0.00577654
0.00721593
-0.0237712
-0.000418057
-0.169414
0.652907
0.488192
-0.0919593
0.638762
0.000381348
1.8872e-05
0.464223
0.274319
1.07311
-0.127138
-0.0891369
0.216023
0.00526148
-0.0248234
0.00206113
-0.0446252
-0.0531079
-1.40248e-05
-0.00392639
0.847368
-0.000594305
1.01304
2.84543e-06
0.264014
0.229517
0.225586
0.00469704
0.000842052
0.864939
0.247305
-0.160831
0.496973
-0.0248864
-0.0554358
-0.017605
0.682447
-0.104082
0.0672142
-0.0311608
7.5177e-06
-0.00571267
0.0264538
-0.074217
-0.089849
-0.168975
-0.0750312
0.345398
-0.00935113
-0.210015
-0.0574253
0.00018096
-0.0506141
0.0599499
0.350302
-0.110262
-1.60678e-05
-0.0751909
0.00036937
0.00628711
-0.102699
0.686449
0.00406458
-0.049863
0.0275463
0.246098
0.927722
0.00818789
-0.0160013
0.642276
0.435491
-0.0582509
0.0219037
-0.186206
-2.17794e-06
-0.166817
0.000386989
0.0214435
-0.000123822
0.000124398
-0.021125
0.317819
0.822605
0.0652771
0.0536237
-1.50678e-07
-0.026851
0.000400702
-0.0140128
0.000125058
0.201507
-0.00210768
0.50585
-0.0005595
-0.0535415
-0.145696
-0.0184667
0.922703
-0.0689821
-0.11944
-0.0242524
0.172275
-0.155477
0.114754
-0.0201252
-6.54105e-06
-0.0185131
-0.0172894
0.00112269
0.000385332
0.680776
-0.0213449
0.265735
-0.014172
0.00387507
0.129363
0.000753231
-7.88892e-05
-0.164921
-0.0152921
0.000138388
0.642627
1.15116
-0.000933882
-0.140231
2.73049e-05
0.992828
0.264045
-0.138516
0.000211557
0.0678282
0.212955
0.245041
0.190886
-0.00177857
-0.000603597
-0.0628623
8.72834e-06
1.09083e-05
-0.10625
-0.0941336
-0.165419
1.11138
0.000912247
-0.081215
0.0340281
-7.09137e-05
-0.00519985
0.000161698
-0.0248816
0.000194478
-0.0135123
0.111439
0.927359
0.167639
-0.00123704
0.00208579
0.0158969
0.260415
-0.0135252
4.02815e-05
0.578514
-0.186931
-0.123355
-0.0587287
-7.91703e-05
-0.00122725
-0.190593
-0.0705138
0.420779
0.890667
-0.11687
-0.00559272
-6.57562e-05
-0.163981
-0.199256
-0.000897876
0.0181415
-0.0562985
-0.0202985
0.851196
-0.005704
0.0546468
0.5561
-0.0330148
1.077
1.06509
-0.000125296
-0.000121449
-0.0681169
0.0669867
-0.135615
0.0235908
-0.0319582
-0.00253639
0.969005
0.495607
0.0102048
1.23991
2.10775e-05
0.323632
-0.166093
-0.076553
0.00043598
-0.140747
0.332778
0.0642952
0.223089
-0.00199855
-0.00214032
0.00917034
-0.0150738
-0.0554937
-0.00453689
0.411906
-0.0207884
-0.0223885
-0.224387
0.822793
0.164999
0.127082
-0.00177975
-0.00227357
-0.0795929
0.00446828
-0.0113615
-7.51283e-05
-0.0015406
0.333634
0.868617
-0.000564518
0.622989
-1.53482e-05
-0.0145025
-2.85966e-05
0.0241314
0.187398
-0.000165798
-0.000170232
-0.200686
1.02563e-05
0.195838
-0.0871881
-0.000108026
0.521904
2.00723e-06
-0.0017738
-0.000386495
-0.0215579
-0.00158723
-0.0263824
-0.181287
-0.00140265
0.0190138
-8.04167e-05
0.81287
0.0486522
0.165948
-0.127669
-0.0888644
-0.00477472
0.0131041
0.570224
-0.0944334
0.572636
-0.155112
-0.0149857
-9.08051e-06
-0.0245397
0.854985
0.560375
-0.119532
-0.195013
0.7897
-0.0355834
-0.16186
-2.89143e-05
-0.090982
-0.00368246
1.21572
-0.151691
-0.000377084
-0.208667
-0.0971507
0.629875
-0.0112244
-0.101774
-0.0149795
-0.0196389
-0.00556328
0.627421
-0.220495
-0.0759215
-0.0601142
-0.0531143
0.0247202
0.778932
-0.0742137
0.497496
0.012204
0.125121
1.02427
-0.0362187
-0.00100895
0.642813
0.850282
0.0116453
0.119873
-0.0264037
-0.126051
0.640345
-0.166616
-8.59383e-05
-0.0310927
0.000153165
-0.0190987
-9.17359e-05
-0.0172778
-0.0041921
-0.0131568
0.0611931
-0.00260997
-0.00218969
-0.00447796
0.536787
-0.00887748
-0.0138142
-0.0124357
0.471673
0.0229924
-0.00149565
0.847292
1.05232
-0.0774213
0.971272
-0.0682642
0.80075
0.0235919
-0.026408
0.0112361
-0.00196824
6.89456e-05
0.0112431
-0.046831
-0.0775122
0.489081
-0.0894182
-0.078638
-0.00392279
0.0875635
-0.0883435
0.0282716
-1.39682e-05
0.0664587
0.481141
0.843382
0.149635
-0.0519113
0.401368
-0.00132252
0.139984
-0.0697449
0.00292814
-0.205737
0.0162045
0.800833
-0.00853208
-0.00223967
-0.000400946
-0.15851
-0.004821
1.22049
1.25503
0.0483573
-0.000136987
0.0340187
-6.66168e-05
0.267227
-0.00220769
0.0877613
1.14677
0.286767
7.36947e-05
-0.0317347
-5.51399e-06
-0.227244
-0.133532
0.962546
0.000955284
0.0466709
0.0166502
0.00118189
-0.00908781
-0.00121428
-0.0233037
-0.124862
-0.0873199
0.0358981
0.512321
-0.0507228
0.0256147
-0.0769174
-0.00640767
-0.100586
4.64882e-05
0.00018279
-0.00856148
0.111474
-0.0859945
-0.0594204
-0.0140945
0.0107123
-0.0122171
0.698243
-0.0489112
-9.8768e-06
-0.199135
0.898684
0.0861418
-0.04552
0.329781
1.43687e-05
-0.00262697
-0.106917
-0.000109616
-0.00172746
-6.9634e-05
1.23919
0.0344288
0.0141465
1.48696e-06
8.7341e-06
-1.52156e-05
-3.23397e-06
-0.085729
0.854828
-0.132392
-0.00169605
-0.00061077
-0.0174868
0.953488
-0.159619
0.898342
0.167828
0.387164
-0.00039234
0.942973
-0.00832332
-0.0348413
0.120284
0.0404559
0.0445805
0.495313
-0.152172
0.933237
0.729629
-0.0292694
-0.097081
0.0475656
-0.108402
2.71291e-06
-0.0034862
0.0104309
0.224941
-0.024124
-0.0860577
-0.0117832
1.10924
-0.174405
-0.000112404
-9.79159e-05
0.970442
-0.0181857
0.0134505
-0.0486267
-0.00832643
-0.0548774
-0.0353576
0.10608
0.378257
0.175446
-0.0364587
-0.0511176
0.000325249
-0.0209762
-0.00182102
-0.0289734
-9.33114e-05
0.000213932
-0.0408073
-0.0718921
0.924656
-0.0169135
-0.000680036
-0.00537576
-0.00112398
0.842292
0.0905561
-0.000115394
-0.0842574
-0.0162765
-0.0124604
-0.0985548
-0.118017
0.0245623
0.20286
-0.170175
0.000276147
0.0212932
-0.0486642
-3.13645e-05
-0.000214219
0.325979
0.259562
0.188051
-0.179108
-0.155485
0.00189837
1.01481
0.000315397
-0.0440571
0.868883
-0.0612887
-0.128371
1.46951e-05
0.000592282
-0.126979
-0.0333236
0.00492459
-0.118159
0.58435
0.732163
0.00241187
0.000937619
0.586581
-0.0444234
-3.27808e-05
-0.00505835
-0.100183
-0.0728796
-0.029729
-0.00338843
0.626497
5.07217e-05
0.230403
0.689919
0.000134078
0.0521273
-0.00153304
-0.160851
-0.0479377
-0.00229679
0.0889017
0.000744064
0.580925
0.00486352
0.0738463
0.138443
1.13801
0.805889
-0.192346
-0.0240056
1.32104e-05
0.234229
-0.0442716
0.433199
0.786866
-0.117231
0.0514013
-0.0525458
-0.019903
0.383947
-0.000616393
0.960654
0.0830324
0.000167612
0.000137628
0.000342467
-0.0398733
-0.0549527
0.00240302
0.295246
0.391087
-0.176893
0.00219258
0.000234949
-0.0695588
-0.000116406
-0.0085653
-0.0328429
-0.00171558
0.241203
0.0146616
-0.00404837
-0.0113274
-0.0472206
0.805528
0.824909
0.11573
-8.98841e-06
-0.00160353
0.609425
-0.00133151
-0.0926273
-0.000589816
-0.0584151
-0.197581
-0.000578255
-0.00066465
-0.0914452
0.00441157
-0.00020815
-0.00383861
0.550467
-0.102491
-9.57396e-05
0.265319
0.797598
0.826011
0.00200627
-0.113832
-0.0272274
0.8945
-0.178495
-0.182295
0.0241303
-0.0378221
0.0867363
-0.075188
0.824927
0.275915
-0.000490263
-0.158758
-0.220052
-0.0107912
-3.23345e-06
-0.00496295
0.518358
-0.000523404
0.0412667
-0.0113122
-0.00340499
0.0264308
0.0820954
-0.000509925
-0.000347101
-0.0128011
-0.154663
-0.101842
-0.192255
0.580927
-0.00187917
-0.000770499
-0.0987341
-0.0687844
0.0300903
0.0386203
0.000243251
0.199685
0.386737
0.0533923
0.0717357
-0.00178229
-0.0384175
0.263375
0.00378781
-0.000105716
-0.0253837
-0.0114828
-0.00206137
-0.0307849
-0.00239086
0.695229
-0.025709
-0.211366
-0.0670372
-0.0306331
0.0335374
0.989483
-0.128481
-0.00032992
0.938222
0.424252
0.0221442
-0.0166824
0.021571
0.181702
0.403188
0.00102037
-0.00555723
1.14174
0.66846
0.776784
-0.126109
-0.00395106
-0.00347613
-9.8305e-05
-0.0036421
0.733563
0.223732
0.0262758
-0.00430008
-0.00097647
0.113966
1.07476
0.865261
0.217019
-0.00798106
-0.188337
-0.00833324
-0.00203262
-0.0465123
0.0530605
-0.0785325
-0.00995945
0.00270305
-0.208038
-0.161668
0.0839719
-0.0692769
-0.00123548
-0.0747063
-0.000560053
-0.0193454
-0.00193785
0.801642
0.000152609
7.42473e-06
-0.0365798
-0.0564245
-0.0825963
0.108554
0.000172685
-0.212929
0.198639
0.490971
1.20995
-0.0129042
-0.125027
0.0877001
-0.0057879
0.295233
-0.00167618
0.0300248
-0.000526497
0.662782
0.0457838
0.0303482
0.39243
0.30535
0.00433204
0.0104329
1.17589e-05
0.908452
2.53006e-07
-0.130985
0.000978312
0.00504172
0.467485
0.274182
-0.176987
-0.112439
-0.0111634
1.2473
-0.190522
1.36947e-05
-0.0435926
-0.000101896
-0.0260865
0.279237
0.48821
0.00256256
-0.100219
-0.0263028
0.380289
0.293154
-0.0923781
1.11998
-0.0276303
0.000196646
-0.127404
1.1512
0.00773747
0.246771
-0.120017
0.410485
0.00535906
0.114708
-0.22607
0.018502
0.151035
-0.031827
0.566568
-0.0739434
-0.0541805
-0.00220542
-0.00223091
1.02116
-9.62599e-06
-0.0131234
-8.71854e-05
-0.0225305
0.0010234
-0.0200161
0.65035
1.41848e-06
-0.00284594
0.432706
-0.198045
-0.0579412
0.00334684
0.867422
-0.12005
0.433023
-0.0333474
0.398076
0.0217628
-0.00205908
0.0971684
0.00222723
1.04534
-0.0730668
-0.0003106
0.00639611
0.36645
-0.0313655
-0.00192266
-0.000343164
-0.167262
-0.00722098
-0.0266648
-0.188555
6.46525e-06
-0.199471
0.001274
0.788879
-0.0278945
0.384685
0.0135535
-0.0101403
0.663121
-0.110987
-0.116614
-0.0118181
-0.167841
0.680788
0.718507
-0.039289
-6.25756e-05
-0.0432689
0.0131128
4.06547e-05
0.252706
0.836365
0.0353786
0.00449045
0.0395695
-0.202897
-0.000463241
0.240266
0.14593
0.224136
0.0373405
0.0779497
-0.0010683
0.443648
0.0715042
-0.202137
-0.00278862
0.0738133
0.383482
0.00229121
-0.210303
0.536084
-0.0911328
-0.21227
-0.223679
-0.107299
-0.114602
0.145907
0.534323
-0.164923
1.8411e-06
0.00263387
0.0843915
-0.00497921
0.0461291
-9.96618e-06
-0.0159652
0.0112225
-0.000190187
0.155896
-0.00142427
0.316692
-0.0886771
-0.00986261
-0.0192175
-0.0240533
-0.176318
-0.016446
-0.00271379
0.0593352
0.217415
0.0140332
-0.0944758
-0.00823996
0.0848486
-0.0265332
-0.0543243
-0.218543
-0.0448308
-8.94447e-05
-0.0429097
0.934946
9.39284e-05
0.476867
-0.0529938
1.09977
0.135471
-0.135722
1.24333e-07
0.00479684
-0.212113
-5.23482e-05
-0.00756022
-1.1021e-05
-0.185798
0.0128194
-0.157515
-0.0654437
-0.000346078
0.647388
0.623146
-0.100285
0.0012928
-0.000474425
-4.72413e-07
-0.000156378
1.0179
-0.00369861
0.00645941
0.0608108
0.00272404
-0.00165117
-0.223869
-0.000636295
0.139779
0.0135107
-0.00580801
-0.00204704
-0.0735733
-0.117771
0.463704
0.331572
-0.000451626
-0.0370265
0.00157373
-0.0340605
-0.0012706
0.375218
-0.0167907
1.25423
-0.0253255
-0.00407228
0.204203
-0.0537824
0.781414
-0.119651
-0.0320301
-0.0367739
0.0512452
-0.010034
2.61857e-05
-0.0233772
0.713582
-0.127342
-0.00916299
-0.120799
-0.0778252
0.38759
-0.0014197
0.66628
0.0063787
-0.1727
-0.00148682
0.0375723
0.130592
0.00700542
0.778143
-0.00132117
0.0915985
0.237761
0.00149682
-0.000364262
1.07756
0.219418
-0.000114754
0.085387
0.0796454
0.000385754
-0.0362696
-0.0625445
-0.200732
-0.0282635
0.751097
0.0131184
0.527097
-0.00111613
0.867468
-0.20757
-0.0150738
0.0177494
0.0876729
-0.163737
-0.105666
-0.0244287
0.000154856
1.15779
-0.0649169
0.00236997
0.0230555
-0.115078
0.788881
0.00860054
-0.0466936
-0.000150626
0.308824
0.0230466
-0.111403
0.00235356
-0.00989908
-0.0812311
0.000107703
-0.150829
-0.00441181
-0.0423476
-0.186518
0.666534
-0.0292355
0.232544
-0.0621722
-0.0859243
-5.71905e-05
0.000433714
-0.0105535
0.000111909
-0.0322823
0.220873
-0.00584346
9.1713e-06
1.04448
0.0144193
0.00099718
-0.000103378
-0.00605453
0.767636
-0.156157
1.15875
0.468057
0.0645853
0.662294
-9.62917e-06
-0.0393737
-0.00239161
-0.00708662
0.486212
-0.0280808
1.17169
0.618991
-0.162218
0.632743
0.0272133
-0.0405797
0.00645925
-0.0522836
-0.0113942
-0.151326
-0.166566
-0.00863646
0.629696
-0.0284192
0.000418145
-0.0123224
-0.00190763
-0.101486
-0.000467799
-0.00358975
-7.3509e-05
0.412122
-0.0905843
0.647246
0.0834557
-0.00784678
-0.0856483
-0.0567718
0.19879
-0.00881855
-0.00305635
-0.193533
-0.129091
0.0414538
-0.126378
-0.0129394
0.0583106
0.0110586
0.000106561
0.36942
-0.000108393
0.156952
-0.00231704
1.08058e-05
0.00571344
-0.00191921
-0.00352287
-0.0454381
0.4874
0.384913
-0.0582605
-0.0363458
0.00839205
-0.0148803
-0.0295631
0.00022611
-0.00141238
0.002021
0.304305
-0.0238601
-0.160017
-0.118596
-0.00556556
-0.0505844
-0.0192189
-0.00496268
0.0153878
-0.0361927
0.594891
-0.17971
0.0193038
0.0087958
-0.107719
1.14276
-0.0287943
-0.00969351
0.0224885
0.224095
0.0116344
0.00972478
0.632727
-0.00105335
0.128888
-0.0610674
-0.120289
0.0183175
-0.0106781
-0.0160061
0.117361
-0.0104789
-0.00178898
0.0112932
0.00755039
-0.000664521
0.115252
-0.0270947
-0.00589312
-9.79878e-06
0.416279
-0.000104688
-0.0814521
0.217215
-0.0621582
0.000442915
0.300685
-0.0829048
0.444574
-0.000127299
-0.011202
0.367283
0.000522098
0.0143523
-0.0130577
0.0301889
-0.0601149
-0.0950606
-0.0230198
-0.00777459
0.0286522
0.0588761
0.415565
-0.000534779
0.31199
-0.117876
-0.00943028
-0.0201586
0.00117953
-0.118707
0.000222608
0.942405
0.582823
-0.00141638
-0.0610562
0.000728305
-0.00622999
-0.0139137
-0.0279932
0.412629
0.49119
0.108024
0.0294817
-0.216953
0.114737
0.244439
0.288997
-0.150623
0.0589318
0.558751
-0.027653
0.841552
-0.00265593
-0.0317462
-0.13121
-0.00026058
-0.0021624
-0.000111246
0.835919
-0.0299068
0.000798763
-0.0447612
-0.0104482
-0.00093081
-0.0381046
0.702549
0.0029838
0.0319189
-0.0752712
-0.00125689
-0.0132124
-0.00230198
1.18403
0.000620299
8.119e-05
-0.00524919
-0.0396428
0.392401
0.00159215
0.0651664
0.217942
-0.000408392
0.00621995
-0.21515
0.32139
-0.0642899
2.82936e-06
0.00102036
0.0599759
0.0931628
0.724864
0.251529
-0.101561
3.56189e-06
-0.120281
-0.00754447
-0.0356217
-0.0344025
0.452003
0.912743
-0.000296253
0.388103
0.584388
-0.0278489
0.0107797
-0.0599008
-0.0206958
0.000326342
-0.116368
-0.0240814
-0.000289737
-0.00151283
-0.00446823
-0.00540376
-0.00189583
0.71622
0.778201
0.56269
-1.04757e-05
-0.0669478
0.226587
0.285661
0.953051
-0.00138476
-0.0579414
-0.0528952
0.758066
-0.0543953
-0.0261964
0.059177
0.396344
0.000886802
-0.00133362
-0.0673677
-0.0857758
0.419801
0.188737
-0.0995867
-0.0623246
0.412278
0.0599999
-0.134472
0.0199649
0.248932
0.463996
-0.000965536
-0.00173154
0.336447
0.000602053
0.156104
0.0886306
-8.10786e-06
0.736629
-0.0293085
-0.0125908
1.20259
-0.105341
-0.0192705
-0.107336
-0.00651584
0.905703
0.00334854
1.14411
-0.000366615
0.0176985
1.16898
0.019571
0.905708
-0.0162713
2.38624e-05
-0.0455013
0.934386
-0.00444534
-0.0187916
-0.0228804
-0.00282057
-0.0592491
0.925743
0.320442
2.93708e-05
0.0591899
-0.0105538
0.0852439
-0.00248796
0.0647902
-0.00744369
-0.00125299
0.885674
0.950207
0.89218
-0.147883
0.278205
0.000436954
-0.164908
0.660472
0.0535369
0.000716969
-0.115982
0.00170958
-0.000284322
0.940835
0.000372389
0.012147
-0.0053918
-0.0247777
0.898951
0.932807
0.948667
0.0339809
0.00141497
0.532708
0.0215304
0.0861687
-0.025704
0.000208116
-0.00826552
-5.76807e-05
-0.012774
-0.00207602
-0.0158549
-0.000158883
0.387044
0.00602584
-0.159971
-0.0253408
-0.205889
-0.0460804
-0.00215458
0.798141
-0.030392
2.67736e-05
-7.11211e-05
1.13039
8.63827e-05
0.0323753
0.173441
-0.0508575
0.711494
-0.0146623
-0.124026
-0.103919
-0.00125159
0.000370494
0.601432
0.94577
-0.00430885
-0.054411
-0.000643028
0.943416
1.09802
-0.00400622
-0.017829
0.0542653
0.00902728
-0.0687688
0.000218547
0.0287016
-0.105628
0.175793
0.811958
-0.00414789
0.080016
0.376608
0.219487
-0.126539
0.080203
1.07043
0.495737
-0.155321
0.958057
-0.00160219
0.952183
-0.0183818
0.816646
0.233188
-0.0141519
0.121674
0.00685877
0.0496087
-0.211303
-0.0018605
-0.0655344
0.828121
-0.0720628
0.0934496
-0.00408888
0.165613
0.484521
-0.0255492
0.181273
0.00205768
-0.00996152
-0.0669985
-0.00600008
0.00574157
-0.024714
-0.00137926
0.00688774
0.812105
0.00650413
-0.0448857
-0.159676
-0.0806552
-0.183139
-0.183514
0.0119218
-3.95444e-06
6.23142e-06
0.623459
-0.122932
0.000179388
-0.0103158
0.438857
-0.162773
-0.041518
0.000340782
-0.0052426
-0.131122
0.403147
-0.0211412
-0.0013153
-0.130858
-0.0527347
1.16987
0.285724
0.197193
-0.128004
-3.70547e-06
-0.0186512
0.174494
-0.000996526
5.70499e-05
0.427473
0.275564
0.00176295
-0.0023518
0.0293812
-0.0826094
0.0293692
0.0248068
-0.0418435
0.000159177
0.723039
0.00168049
-0.00159109
-0.000625106
-0.000590967
-0.000407847
0.214947
0.00282032
-0.00770123
-0.0263037
-0.0120653
0.0803955
-0.0148066
-0.11592
-0.0285601
0.878487
0.749894
-0.00132187
-0.00396191
0.26724
-0.00221438
-0.0502014
0.246069
0.364411
-0.00263644
0.0562554
0.108915
0.003762
0.340584
-0.000264238
0.0205561
0.042909
0.0386007
-0.0392739
0.129632
0.000217339
0.00414993
0.000823748
-0.000114345
-0.00375846
-0.0263823
-0.0349231
-0.0789426
0.232162
0.114087
0.0249519
-0.151082
0.0365787
0.0271632
0.0360397
0.000173212
0.923835
-0.0222185
-0.00881334
0.0767044
1.18362
1.90543e-05
0.303963
2.21881e-05
0.0138999
-0.0172582
-0.0572756
0.424934
-0.0106826
-2.58595e-05
0.533113
0.184706
-0.00146827
0.136458
-1.91569e-05
0.389002
0.0229819
-0.0744018
-0.000363405
0.58486
0.0765806
-0.0550803
0.000122541
0.404753
0.702342
-0.00298238
-6.67193e-05
-0.0960821
-0.0240555
0.0442093
0.0803103
0.956988
0.600798
0.00133713
0.776568
0.597914
-0.00751634
-0.154171
-0.0761041
-0.0371285
-0.121913
0.462644
0.00225464
0.994764
0.384226
0.0336377
0.000287901
0.001746
2.69158e-05
-0.00143912
-0.00729444
1.06181
3.6519e-05
0.198741
0.0712735
-0.000581156
1.00067
1.10046
0.467962
0.52695
0.181033
0.00664891
-0.000728389
-0.0289941
-2.24742e-05
-0.0028673
-0.205301
-1.01e-05
-0.00381834
1.01727
-0.0304864
-4.17141e-05
1.04382
0.00127401
-0.0952818
-0.183865
-0.00340131
-0.1674
-0.000596794
0.449
0.00891492
-0.0401365
0.00513974
-0.00164967
-0.000987582
-0.000561385
-0.223465
-0.158608
0.362663
0.00765025
0.0061605
0.564975
0.000211812
1.14769
-0.00126075
-0.236363
0.00600713
0.00432503
0.129818
0.13791
2.61217e-05
-0.0106001
0.000300945
-0.00173093
0.00227483
0.209351
0.124254
0.711403
-0.0795064
-0.00024444
0.000468599
0.240351
0.794845
-0.0115744
-0.016314
1.13987
-0.00719251
-0.0541671
0.00274909
0.252054
-0.067742
-0.0221123
0.369808
0.00356304
-0.000610436
0.00436792
0.156651
1.13881
0.918021
-0.0633884
-0.0817559
-0.0163518
0.00413138
8.35934e-05
0.18705
0.492402
3.0938e-05
-0.0188561
-3.90947e-05
0.00038444
0.878463
-5.85972e-07
-0.173959
-0.123871
-0.16826
0.175875
2.51066e-05
0.0261947
-0.0153914
0.823318
0.0955895
0.0131143
-0.0784149
0.00170776
0.789871
0.473809
0.0301887
0.173456
1.02931
-0.164258
-0.142813
-0.00489546
-0.0181352
-0.000922457
0.0864305
-0.00013259
0.386757
0.00769593
0.495134
-0.086226
-1.74985e-06
0.158102
-0.000406875
4.06357e-06
-0.00189372
1.11953
1.0793
0.742784
0.000166906
0.499588
0.947995
-0.00249026
0.00724473
-0.0218494
0.278136
0.944143
-0.0717818
0.292318
-0.006189
-0.173605
-0.196914
1.21919
-0.00152615
0.920401
0.216728
0.437032
0.000355489
0.000579658
0.0142503
-0.0230144
0.211145
-0.000117849
0.000188692
0.902004
-0.154899
0.000804947
0.940246
-0.00590336
0.000430324
0.806827
-0.015216
-0.00379
0.208956
0.445211
0.000856871
-0.000309696
0.00936339
-0.0103993
0.900156
1.11486
0.671714
1.18944
0.417626
-0.122048
1.03696
-0.000178696
-0.00812674
0.459811
-0.00868977
-0.00165017
-0.000240633
0.941184
0.129022
-0.00163388
1.08677
0.184847
0.642906
0.111336
-0.00695288
-0.0529057
0.420395
0.195712
0.946388
-0.0556207
-0.00197874
0.874343
0.846747
0.0359819
0.716895
-0.0938952
-0.0200415
-0.0230832
-0.00161073
-0.000335123
0.881154
-0.159156
0.166219
0.00276609
0.37286
-0.082634
-0.0260691
-0.00234359
-0.00837568
0.970852
-0.00201641
-0.0443237
-0.00761441
0.965046
-0.0482339
0.0510978
-0.019164
0.00364575
0.358207
-0.0571377
0.982567
0.445639
1.18768
0.545624
-0.161048
0.0785739
-0.00446736
0.0779647
0.122118
0.910418
0.963953
1.05915
0.735742
0.888043
-0.000876902
1.01145
-6.32981e-05
0.000193605
-0.125002
1.08632
0.124305
0.574396
5.69043e-05
-0.0054593
0.0438113
-0.0798198
0.894859
-0.00170894
-0.0196409
0.74212
0.00269131
-0.0107257
1.15608
0.118015
-0.0757258
-0.0576842
-0.00131995
0.298376
0.443812
1.20119
0.380059
0.241833
0.0116994
-0.000581854
0.0142785
0.43542
0.0197812
0.000354999
-0.0477332
0.52693
-0.00372823
0.928973
-0.154686
0.935761
-0.0022132
-0.0576454
1.03148
-0.0135077
0.252149
-0.000996309
-0.00329349
-0.172457
-0.0576537
-0.0948145
-0.0245794
0.0695196
-0.0638639
-0.187353
0.939455
0.000713211
0.00198563
-0.0504061
0.293664
-0.0972631
-0.153089
2.58516e-05
-0.0473129
0.119214
-0.000241105
-0.159765
0.201112
0.939614
-0.143395
0.932353
-0.0345344
0.327873
0.536124
-0.0905863
0.739447
-0.00420559
0.318929
0.00498511
0.203256
0.446559
0.388711
-0.0710685
0.0157136
-0.00155358
0.396608
-0.000193707
-0.000306012
-0.00260166
0.0688596
0.0491148
0.0380029
0.811487
0.386712
1.13243
0.761525
-0.00381915
-0.0847849
-0.000393072
-0.119032
-0.00268509
0.01462
0.00165286
-0.0722576
0.695915
0.913353
-0.000714154
6.17617e-05
0.228542
-6.64978e-06
-0.0229149
-0.000427616
0.340819
-0.0907912
0.409397
-0.168856
0.000119386
-0.0350515
-0.101095
-0.055311
-0.0411192
-0.136652
0.195572
-0.000394319
-6.74093e-05
0.00526543
-0.000318578
0.22277
0.360667
0.101261
1.06421
0.112775
-0.189993
-0.229469
-0.00106299
0.123571
-0.000286524
0.884451
0.23032
1.00906
0.000383154
-0.0819283
-0.0169358
0.128325
0.547847
0.834143
-0.0187425
0.100262
-0.00477423
-0.0425261
-0.0198888
-0.015131
0.244564
0.00400854
-0.0155952
-0.0506169
0.621528
0.187849
1.21137e-05
-0.00217271
-0.0153939
-0.00149034
0.299349
-0.00163559
-0.0429049
0.369118
0.000209657
0.565976
0.000235791
-5.79297e-06
-0.198156
-0.0281659
0.000437002
-0.0562787
0.000465956
1.04975
0.0309648
-0.0615808
0.970787
0.2855
-0.0796689
0.799308
-0.00680634
-0.00459438
-0.00512562
0.21541
1.25908
-0.00364797
-0.00142212
1.50213e-05
0.0195029
-0.00305727
0.0616937
0.0152387
-0.0526275
-0.149898
0.0459966
0.0275725
-0.0461366
-0.0013077
0.0769256
0.820852
-0.0044018
-0.0342572
-0.000553054
0.810675
0.140021
0.810427
0.00110271
-0.00205784
-0.0582457
1.06367
0.325646
-0.0707811
-0.000305331
0.0782187
0.308875
0.00129128
0.455877
-0.122099
0.0532614
-0.193844
0.832015
-0.0348916
0.525432
-0.0077797
1.20442
-0.104397
-0.0272501
0.98752
-0.108733
0.362536
-0.21049
0.394258
0.0159934
0.121815
0.670046
0.119806
-0.123196
-0.0239397
-0.0182516
-0.0130062
0.0856653
-0.00335128
-0.137394
-0.0716395
0.00501619
-0.168014
-0.210154
-7.61822e-05
0.41469
-0.0224841
0.443828
1.00786
0.766465
-0.137477
-0.178696
0.00118671
-0.119781
-0.00941649
1.16712
-0.0886574
-0.0764818
0.755254
0.114216
-0.0959222
0.558267
-0.0931047
-0.0015125
-0.0290041
0.0249761
0.00175902
0.789244
-0.00663844
0.311772
0.743763
-0.0141472
0.499387
-0.169794
-0.000903567
0.0166674
0.267855
0.749733
-0.00620384
0.224469
-0.171145
0.193438
-0.0569546
0.76695
0.061599
-0.0193397
-0.00633999
0.000477292
0.925964
-0.00597852
-0.048851
-0.000245647
0.440982
-0.00013966
-0.0973951
0.0013888
-0.107375
0.00171473
-0.0241554
0.49448
-0.00953578
0.00231692
0.00165674
-0.0100608
0.210024
-0.000186446
-4.43762e-05
-0.0209475
-0.0260426
-0.0548302
0.0200955
-0.00466761
0.177675
0.183764
-0.00308393
0.00254452
-0.00046397
0.916175
-0.0103518
-0.0167822
0.821149
-0.0450486
0.775118
0.142055
0.930237
0.482328
0.266915
-0.00365259
0.0226013
0.190313
0.0627517
-0.0107425
0.000488369
0.0208324
-0.123391
-0.00232854
-0.0204506
-0.0197686
-0.0217858
-6.03356e-05
-0.0080301
0.000171627
-0.000172693
0.00217352
0.685632
0.491612
-0.0273488
-0.00690002
-0.117508
-0.0515647
0.614906
0.844211
-0.123682
0.00511029
0.443691
0.0116478
0.001518
-0.185377
5.64061e-07
0.271814
0.362405
-0.00159817
-0.0894506
0.000537996
-0.0194629
-0.0190925
0.235074
0.0597515
-0.132532
-9.20503e-05
0.0266913
0.0043409
-0.0849422
0.0138369
0.941962
0.000936016
-0.00961044
-0.0795225
0.583806
0.679849
0.74253
0.149797
0.000147415
0.0163975
-0.00154582
-0.00347407
-0.00234643
0.219437
0.460728
-0.0298713
-0.0740032
0.687414
-0.0101904
-0.0138223
-0.146485
0.215637
-0.00235727
0.20534
-0.0347021
0.240182
0.348155
-0.147807
0.0012641
-0.0103307
0.24447
0.00335895
-0.000154049
0.422941
-0.000977244
0.777726
0.671328
-0.219394
0.629355
0.0958055
-0.00892881
-0.119768
0.728681
-0.0503775
0.607678