/*--------------------------------*- C++ -*----------------------------------*\
  =========                 |
  \\      /  F ield         | OpenFOAM: The Open Source CFD Toolbox
   \\    /   O peration     | Website:  https://openfoam.org
    \\  /    A nd           | Version:  7
     \\/     M anipulation  |
\*---------------------------------------------------------------------------*/
FoamFile
{
    version     2.0;
    format      ascii;
    class       surfaceScalarField;
    location    "8";
    object      phi;
}
// * * * * * * * * * * * * * * * * * * * * * * * * * * * * * * * * * * * * * //

dimensions      [0 3 -1 0 0 0 0];

internalField   nonuniform List<scalar> 
44730
(
-595.35
665.965
-70.615
1061.59
-1071.64
10.0442
-335.116
382.508
-47.3917
227.84
-260.109
32.2686
-498.592
498.592
221.365
-264.594
43.2293
-369.065
370.625
-1.55966
24.4991
-562.101
537.602
663.471
-833.424
169.954
-1009.27
1102.24
-92.9737
553.929
-142.196
-411.733
-531.395
536.897
-5.50197
-687.885
582.69
105.195
-859.82
868.882
-9.06175
247.029
57.6405
-304.67
385.968
-10.4853
-375.483
814.627
-666.855
-147.772
-388.796
397.277
-8.48097
161.29
314.786
-476.075
290.82
-357.468
66.6481
-594.088
81.6564
512.432
724.373
-60.9022
50.0584
-385.174
136.576
-489.579
353.002
246.278
-142.88
-103.398
1066.41
-4.81245
659.887
-681.038
21.1506
-271.681
-15.7441
287.425
283.369
-36.3398
-441.549
543.919
-102.37
951.473
-249.608
-701.865
-667.348
756.772
-89.4239
247.169
-227.512
-19.6575
478.748
-69.184
-409.564
145.588
-417.268
268.703
-432.152
163.449
424.802
-572.52
147.719
292.163
-38.104
-254.059
824.157
-978.519
154.362
1061.39
-237.23
-1018.08
1035.64
-17.5602
403.923
-93.1488
-310.774
704.018
110.609
194.554
-311.345
116.791
1228.46
-777.698
-450.767
-591.346
149.797
539.2
-538.859
-0.340838
230.508
645.515
-876.023
224.179
537.3
-761.479
-108.62
533.422
-372.584
160.966
211.618
-14.2372
-225.681
239.918
-663.083
-4.26493
240.216
-18.8508
424.37
-38.4015
-259.593
-48.7785
308.372
524.901
-499.948
-24.9532
-34.2528
-559.835
-463.33
41.2428
422.087
-300.626
-25.6999
326.326
799.518
17.5777
-817.095
-409.17
570.46
3.59553
-232.816
229.22
-215.244
483.947
-305.025
424.124
-119.099
264.525
250.924
-515.449
497.429
-126.943
-370.486
428.653
-47.3093
-381.344
-457.042
-34.2829
491.325
-986.617
-31.4634
1058.57
7.83737
285.403
298.808
-584.211
-242.212
546.493
-304.281
164.045
95.422
-259.467
-432.251
381.97
50.2815
-362.681
379.168
-16.4873
264.587
-146.406
-118.181
-251.363
-61.2461
312.609
-699.307
16.5462
682.76
409.267
-93.9609
-315.307
-254.831
254.831
93.2914
-762.657
669.366
-662.214
66.8643
-947.222
848.219
99.0027
-317.901
-51.1639
-19.199
208.591
-189.392
517.882
-147.145
-370.737
-644.577
-43.3076
652.512
-69.8222
100.212
81.2761
-181.489
-356.144
89.7507
266.393
-310.416
59.0536
845.661
-621.481
557.794
-590.442
32.6479
226.668
-96.004
-130.664
-346.527
119.83
226.696
-20.1488
252.508
-232.359
-846.688
847.374
-0.686
-30.2052
-161.526
191.731
251.888
7.98796
-259.876
-711.457
12.1506
-266.849
283.929
-17.0804
778.747
20.7705
429.094
-629.193
200.098
203.534
-217.772
-751.29
811.684
-60.394
632.683
-718.966
86.2827
74.6979
577.814
943.851
-846.974
-96.8775
-220.936
242.145
-21.2095
201.663
45.5056
355.36
115.867
-471.227
1009.09
-256.884
-752.206
18.9595
563.5
-582.46
-13.0834
-587.221
600.304
538.269
-252.866
96.7878
425.544
-522.332
-303.388
408.252
-104.865
76.7545
-814.828
738.074
-698.103
455.891
10.2125
-206.013
195.8
17.0824
-853.236
836.154
-313.203
310.792
2.4111
-43.408
307.933
24.1236
-890.691
866.567
-339.093
336.093
2.99987
-74.8622
-313.934
8.46544
-284.962
276.497
703.302
-786.41
83.1077
726.187
-860.271
134.084
-146.426
340.98
164.66
99.927
188.092
-205.99
17.898
292.001
-298.38
6.37858
-123.972
553.066
624.063
327.41
153.99
58.4336
-212.423
277.34
-316.864
39.5243
217.974
-246.033
28.0585
-26.5834
278.472
-344.022
4.92912
1.57424
-188.065
186.491
224.537
-62.3003
-162.237
181.122
827.968
-198.076
-739.276
937.352
-101.175
-397.417
522.899
16.3007
229.194
-227.314
-1.87996
263.344
-219.646
-43.6981
27.7371
-214.137
186.4
-396.296
630.924
-234.627
54.1622
506.303
-560.465
984.057
-886.389
-97.6684
790.941
-787.098
-3.84342
-572.783
-238.151
810.934
-146.106
722.132
-576.026
456.029
-443.941
-12.0886
-198.271
-12.629
210.9
42.6549
-767.407
724.752
-159.811
-212.773
-248.181
234.289
13.8923
242.246
-14.4058
23.7754
1020.89
-572.446
-448.441
735.195
-933.271
-400.11
96.7224
15.2455
209.292
16.4467
-778.214
761.767
-90.3953
-856.827
417.901
-452.545
34.6438
-106.625
832.813
54.8194
-736.324
681.505
-201.821
3.55029
277.34
-0.593916
248.743
-248.149
-432.906
432.906
83.0182
679.217
-762.235
-315.463
48.6147
-579.243
598.203
314.965
-301.674
-13.2915
-777.836
-63.2719
841.107
-143.145
446.587
-303.443
423.211
94.671
428.763
-443.373
14.61
256.49
-38.5158
-215.944
-317.436
533.381
501.622
-381.563
-120.059
-328.757
17.4865
311.27
785.118
-81.8155
-521.101
-78.9309
600.032
-661.11
661.11
-125.415
501.694
-376.279
94.274
-353.047
258.773
-919.923
347.14
307.051
-358.88
51.8293
436.97
19.0588
816.966
-505.301
-311.665
909.513
-59.0155
-850.498
77.3641
149.304
-847.122
614.131
232.99
-17.7115
263.905
-246.194
-212.62
223.386
-10.7657
-42.095
-489.3
874.833
-890.089
15.2562
-47.8316
429.926
-12.0248
787.949
-790.978
3.02852
247.115
-17.9211
19.5717
-240.507
822.135
-963.826
141.691
236.056
-345.003
108.947
570.74
-570.74
899.944
-93.2471
-806.697
594.305
73.07
-667.375
55.4684
-328.137
272.668
-174.615
253.844
-79.2292
-472.013
328.868
54.052
733.897
-393.117
529.693
256.538
-179.174
-683.955
-176.316
484.405
-630.511
453.688
-501.3
47.6114
-892.892
1026.73
-133.835
-580.769
555.793
24.9765
505.755
-582.468
76.7136
128.826
729.555
-858.38
211.33
530.675
-742.006
723.336
505.129
321.947
739.441
326.275
-232.693
-93.5816
-296.065
296.065
371.261
-402.295
31.0345
-28.5888
1087.16
270.258
-324.073
53.8147
530.688
-476.525
-297.43
-562.39
551.772
-565.858
14.0856
-29.465
904.297
259.895
-277.606
-220.861
200.953
19.9086
499.071
-587.86
88.7888
-197.728
959.017
-761.289
588.85
-83.0952
771.604
-384.054
-387.55
339.433
-48.6132
472.007
548.88
-198.388
179.189
-743.851
59.8959
-929.1
36.2077
477.786
47.1153
-679.826
891.156
-688.082
-63.2076
190.095
-202.992
12.8975
-74.0118
915.175
-841.164
-38.0474
-817.796
855.843
184.474
-182.9
39.6068
173.006
-212.612
-9.38259
-366.073
375.456
322.25
-313.785
-603.646
207.35
-225.438
433.281
-207.844
908.541
-678.034
304.221
22.0538
293.28
-8.71911
-284.56
-568.621
155.449
413.171
461.103
-32.3402
511.545
-727.49
-362.695
0.0144953
647.121
-746.158
99.0374
-239.827
161.109
78.7184
-656.291
638.991
17.2992
218.692
-219.286
74.4644
182.074
-742.736
825.755
-300.206
311.784
-11.5777
68.0705
-363.654
295.584
228.96
-211.124
-17.8365
526.718
-328.768
-197.95
7.95522
-347.141
339.186
-497.469
484.386
-63.0008
263.881
-200.88
-660.748
157.038
503.71
-344.231
-2.29587
653.85
6.03737
445.861
-21.4915
-156.942
3.24664
153.695
-22.536
721.178
-698.642
-849.829
978.655
321.985
-150.142
-171.843
677.34
-775.137
97.7969
423.454
348.15
706.44
59.5328
-765.973
818.095
81.8496
545.762
-520.417
-25.3447
1093.71
-1012.3
-81.4046
4.98772
-296.701
291.713
276.95
16.3298
104.443
141.835
211.706
-23.614
196.296
-201.477
5.18175
145.121
148.602
-293.723
-305.312
284.941
20.3703
-158.643
-299.153
457.796
421.186
-546.601
-320.801
197.621
-195.555
-2.06649
197.773
1009.21
-565.621
-443.584
525.977
-109.157
-416.82
121.253
511.43
79.8766
465.885
1.76257
-690.477
712.182
-21.7052
47.264
-548.448
501.184
-84.7445
-250.17
334.915
-449.194
39.2667
409.927
-140.578
-336.109
476.687
780.013
-1.2655
22.8185
193.739
-374.276
180.537
156.442
-219.443
-920.675
849.074
71.6006
-297.28
306.45
-9.16949
667.946
-82.4967
-585.449
1047.02
-603.809
-443.214
195.769
-194.227
-1.542
271.79
-108.818
-162.971
-421.997
418.409
3.58821
663.575
-31.8895
-631.685
-693.587
3.11066
374.345
34.9224
-551.94
437.677
114.263
582.856
-578.449
-4.40741
-855.763
44.3913
811.371
856.367
33.1993
-889.567
-424.762
284.184
-202.712
45.7707
-325.989
527.829
-201.84
-180.906
-39.9551
754.996
-793.044
-149.877
189.484
529.24
-166.66
-362.58
-123.624
-309.282
221.21
-222.223
1.01325
619.557
44.018
683.494
-608.796
20.7261
-302.362
281.636
837.349
-876.324
38.9749
-296.725
-4.94911
954.146
-957.463
3.31681
51.7366
190.585
-242.322
680.266
-33.1451
568.036
-593.136
25.0999
-830.303
847.385
195.65
-185.437
786.329
212.169
746.848
142.358
202.459
-344.817
-300.675
-8.49051
816.431
-61.0317
-755.4
599.066
-127.623
-471.443
244.376
-83.4105
85.3539
412.075
79.8059
-254.42
473.881
-503.948
30.0671
142.773
-349.21
206.437
137.747
388.97
47.8168
861.696
653.024
-773.298
120.274
-22.9377
977.084
-273.342
-15.5351
288.877
-223.449
204.844
18.6059
-13.6776
177.723
48.6231
452.999
335.266
-344.648
-348.299
43.2742
-339.355
38.7288
838.355
-58.3427
74.7404
-220.361
145.62
-951.642
22.5422
-915.194
-36.4485
-486.275
56.1297
430.146
-730.506
899.154
-168.648
-192.513
-70.6415
263.154
-112.148
-88.4346
200.583
-163.697
-36.8753
200.573
-121.902
227.472
-105.57
853.456
409.721
-215.982
151.195
-12.7326
-568.036
-879.073
-41.6021
452.425
146.641
187.386
-513.375
200.739
-1107
906.26
28.0531
203.021
-231.074
-10.3252
-202.295
418.959
26.9027
89.1793
701.762
281.909
0.211616
-282.121
-471.018
567.806
728.734
72.887
-801.621
-777.99
-8.42009
800.339
-854.945
54.606
287.684
-271.936
-15.7478
83.0118
238.973
850.738
-864.973
14.2357
978.832
-862.151
-116.681
939.052
-943.625
4.57272
-386.631
-165.309
-5.11758
-873.034
542.418
330.616
-184.938
162.567
22.3713
-244.244
389.365
140.939
91.9257
-232.864
757.416
253.804
-250.208
431.728
94.2484
782.447
-695.512
-86.9356
-52.7397
-96.7362
-99.2485
195.985
-309.025
261.116
47.9089
862.44
-838.317
-21.86
380.009
-358.149
-319.979
-24.0424
570.193
-583.946
13.7526
369.008
-327.525
-41.4826
-828.471
731.196
97.2752
-905.766
831.755
142.344
129.446
-406.667
277.183
129.485
468.599
-454.184
-14.4148
621.423
-622.673
1.24961
518.16
-44.279
-301.132
-142.02
443.153
6.18916
-279.531
-73.1872
-246.986
320.173
544.284
563.927
-1108.21
-900.868
849.212
51.6558
-2.57532
-405.273
419.279
-14.0059
432.251
-399.937
-32.3135
671.653
-844.08
172.428
711.054
-881.203
170.149
-503.834
-156.914
-424.777
63.0517
361.725
305.81
-6.52994
-299.28
-327.67
163.973
475.329
78.6003
-719.682
-108.789
6.84013
189.455
-303.746
301.492
2.25435
31.2887
-327.31
296.022
490.662
39.2318
-529.893
-231.742
302.176
-70.4347
-896.198
-19.6386
915.837
-209.594
-27.9952
237.59
6.80666
-844.622
837.816
804.705
-118.447
-686.258
345.198
141.591
-214.779
-874.88
-21.3181
808.5
40.5746
-5.70802
541.156
-185.796
-502.807
-18.5035
521.311
-801.994
913.796
-111.802
314.051
-245.981
-396.773
312.028
-30.2355
590.745
63.1048
384.278
-241.505
310.456
506.51
-14.7197
26.8273
342.18
-777.401
87.5798
689.821
456.905
94.8669
-138.526
-20.8568
159.383
-851.81
-23.0703
71.56
332.363
-199.536
230.03
-30.4941
49.6365
-281.378
-271.649
266.411
5.23746
-18.9682
30.3032
-514.36
484.056
-611.002
-135.157
-23.2859
303.154
-279.868
-333.659
449.527
599.389
447.635
-1102.77
430.483
672.287
329.636
0.355938
-329.992
-247.96
-154.955
402.914
-525.698
550.197
-661.226
-18.1551
679.381
99.7505
88.6088
-188.359
-44.2467
799.243
838.771
-862.489
23.7187
807.517
-154.493
40.458
-602.559
-326.162
-20.9792
556.819
57.825
-614.644
440.446
20.6574
-349.65
393.424
-43.7742
-853.526
-3.80301
857.329
-27.8177
-823.992
270.947
-272.468
1.52017
625.215
-3.79227
559.823
-406.117
-153.706
-223.953
271.859
-47.9063
-96.3008
-251.999
-421.639
-41.6916
894.142
-183.088
-819.513
89.0072
-629.346
18.3443
-540.38
51.147
489.233
820.555
-39.6319
-780.923
-254.213
132.312
-0.304523
-356.351
356.656
857.878
-186.225
308.164
-2.35389
636.859
-68.8228
494.224
-3.56229
801.406
-712.227
-1045.13
-57.6403
445.111
23.4883
526.208
31.5856
733.909
-691.254
795.93
-38.4409
-757.489
195.558
-225.763
276.01
-14.8939
-118.2
197.88
-170.143
474.979
15.6336
-490.613
576.858
-98.9709
-477.887
-459.725
422.106
37.619
128.91
672.497
3.39407
-99.5891
-759.763
859.352
86.7413
-666.442
579.7
227.554
-304.728
77.1738
-742.764
643.175
91.7771
712.928
-504.403
1048.69
218.478
-143.738
-268.917
-173.035
259.022
-85.9869
212.451
-264.914
52.4626
-180.375
321.314
6.89503
-326.874
-51.1914
5.64438
-411.152
405.507
-47.5645
-162.152
-195.316
-30.5343
368.438
-337.904
-870.849
944.467
-73.6181
45.5084
-528.177
482.668
19.26
-242.71
-755.886
106.244
649.643
362.279
-216.691
819.404
1.15082
-28.7517
214.111
-185.36
430.834
128.989
-104.082
-320.694
815.852
-201.72
-95.1998
-914.066
618.643
-319.835
123.123
47.5792
653.046
-559.754
496.019
-17.2708
342.871
-35.8204
339.197
-421.641
82.4438
192.484
-226.634
34.1506
47.4462
250.615
-298.061
338.676
-497.319
-3.49464
761.958
-806.205
537.79
-62.8105
-105.129
736.824
-631.694
-269.704
304.591
-34.887
-68.586
296.14
206.008
-190.763
-282.229
12.5249
-1055.79
585.071
470.723
-35.8904
-77.0181
177.231
-310.067
295.451
14.6152
-676.039
692.486
268.726
-273.625
4.89916
-475.06
175.907
-500.835
-554.96
241.057
-279.161
847.17
-946.602
99.4317
-344.219
18.0574
485.527
-627.415
141.888
-2.33423
810.834
250.39
-267.85
17.4601
-321.762
-551.272
-37.5532
294.047
-25.3206
350.075
-126.131
-223.944
-20.0234
-837.263
857.286
-876.77
492.239
384.531
-56.338
735.555
-457.597
35.9581
-147.181
-112.03
259.211
874.08
-813.119
-60.9604
394.309
-322.749
796.65
3.68912
106.443
85.9785
-192.422
-580.557
1024.4
-443.841
146.14
-194.868
48.7281
-758.958
-144.994
903.952
139.955
210.121
853.517
-31.3823
813.472
-736.718
504.436
-419.082
-11.1394
-221.676
30.5944
154.596
-185.191
310.607
230.549
-25.6419
-1098.2
619.199
479
7.92869
891.685
-60.5451
-831.14
-430.642
623.131
-192.489
57.1572
756.315
27.1429
-529.95
-590.536
-18.3412
608.877
400.808
147.86
-548.668
-264.711
-522.386
279.132
63.7395
-178.715
-76.1157
-406.552
352.939
53.6127
-793.68
288.379
201.372
-262.626
61.2546
227.109
-255.008
27.8993
430.434
-424.789
724.42
51.1724
-775.592
-204.299
42.7728
818.821
20.878
-839.699
-355.949
12.9361
343.013
118.64
860.192
-410.66
451.902
411.642
-72.4456
-954.45
99.6887
854.762
789.092
102.593
-24.3505
216.834
50.6854
381.565
893.75
132.977
28.5072
-486.104
28.6669
-826.782
798.115
696.635
-763.446
66.8109
636.292
465.947
769.015
-56.0317
-712.983
196.014
-49.8737
76.4811
339.514
-415.995
-735.237
792.394
248.455
175.668
-287.029
168.535
118.494
-111.167
-426.865
538.032
-32.1831
-215.998
1004.41
-573.925
100.442
-292.955
177.453
-206.205
-103.52
-156.588
30.5928
820.145
-160.593
499.269
-598.705
750.997
-152.292
679.241
-701.777
-391.562
373.059
-442.559
-180.113
39.5853
349.063
-11.7539
-337.309
-46.2859
808.244
-505.244
-623.364
1128.61
288.503
-237.262
217.114
8.12322
197.885
-259.614
116.734
-885.278
908.936
-23.6576
-272.535
258.468
14.0673
74.5384
707.909
3.36302
765.652
636.016
-16.4589
-15.1172
-512.928
471.043
41.8849
933.071
17.1544
-950.225
-315.664
-40.2849
-0.692317
-235.263
793.02
-68.6006
529.023
-623.158
94.1348
-761.905
-84.7834
14.0794
273.604
883.331
10.4195
-490.972
441.007
49.9654
-950.45
-94.6794
51.0124
-374.947
323.934
-210.427
229.109
-18.6827
249.104
-36.6522
-39.8083
1050.31
-313.228
-737.08
579.624
-50.6007
46.0634
-265.995
-62.1419
-687.355
766.009
-78.6539
-91.6143
-6.58639
233.695
504.86
-5.78928
92.7931
-870.629
-92.5502
214.038
-121.488
-197.277
218.678
-21.4018
-681.802
570.635
-449.62
479.923
342.941
51.3679
-460.876
424.996
35.8794
582.261
426.944
498.554
-460.021
-38.5329
478.308
-313.743
-164.565
-178.546
32.1404
350.893
-21.5998
-329.293
-261.304
88.2694
-339.195
295.787
-219.032
-636.73
-691.529
-81.7693
260.18
-58.8082
660.361
197.517
6.98605
227.303
816.044
-85.2686
-730.775
329.033
-142.155
647.087
-504.932
231.539
-302.181
-101.789
502.596
-750.753
8.01608
-131.394
-108.433
500.004
-93.7177
779.226
-685.508
-201.981
223.053
-21.0725
-27.1159
-245.419
829.587
-737.81
222.647
-427.333
-404.058
831.391
860.897
-200.536
-42.584
783.934
-741.35
597.423
-6.6777
17.7804
-608.316
283.695
135.152
-418.847
-404.234
480.715
-21.8485
-318.346
340.194
-617.268
66.1271
551.141
-139.7
500.798
-361.098
-479.844
410.02
-483.433
73.4136
105.713
-178.677
72.9638
-191.559
333.917
-188.083
-174.613
726.74
-30.1051
102.311
581.183
-611.065
648.932
-37.8671
269.557
-292.843
-810.268
-52.2219
97.1696
-433.279
590.12
460.188
-615.81
173.25
415.017
-842.35
370.683
-681.903
28.655
653.248
-187.932
226.075
-38.1436
-816.292
886.705
-70.4129
-48.5178
-432.264
480.782
1005.36
-405.61
-599.753
-69.242
-785.703
-13.2949
284.242
-950.468
207.42
743.049
-857.719
-92.7494
-173.655
-11.283
-777.766
731.48
-126.468
-297.742
424.21
-16.4975
-266.945
283.443
160.411
647.106
223.308
152.076
-375.384
-902.87
154.58
748.29
541.208
-580.986
39.7777
604.547
58.6012
-663.148
-44.1645
673.962
-639.87
-34.0921
353.384
-23.7484
-22.9684
228.062
-205.093
608.357
65.6054
14.3019
-792.292
721.544
-777.575
-180.444
211.039
327.323
150.985
128.062
-316.144
204.097
-208.103
4.00666
342.283
-199.83
-142.453
592.117
43.8989
-747.203
800.882
-53.6792
-386.721
-108.844
495.565
-13.8294
-289.917
239.812
48.4153
-288.228
250.512
-100.268
-150.244
418.395
-466.912
-61.7173
-740.277
-411.102
78.1156
150.845
489.034
-432.602
-56.4322
-230.158
258.211
-203.36
195.573
7.78634
5.01158
-210.757
205.745
-322.85
379.663
-56.8127
214.678
-9.67432
-205.004
450.44
554.923
-263.483
555.58
-473.923
142.724
-246.623
103.9
-203.456
-11.5921
215.048
701.291
-96.7448
243.92
-169.456
-358.764
277.905
80.8589
-430.074
-5.85705
435.931
-352.114
449.284
313.068
-324.428
11.3601
-17.4816
33.8751
470.561
462.85
35.7043
23.73
-453.804
195.151
5.80194
-339.249
-4.97009
-370.867
297.63
73.237
342.591
-63.4593
672.894
221.248
-232.313
237.325
-289.656
307.142
90.0656
659.62
-749.685
-736.235
-25.9889
762.223
5.30116
152.684
16.7809
-339.631
-690.715
621.127
69.5884
132.149
-165.011
172.802
-7.79162
428.002
-144.307
-247.915
-167.208
415.122
-166.229
-346.699
221.312
-17.2151
-248.965
101.784
92.943
-185.493
-1009.55
696.319
-348.138
348.138
851.458
242.249
-35.2906
-509.105
-500.443
210.612
326.285
528.177
42.5631
546.074
-51.8498
259.508
-257.393
-2.11521
-629.435
662.357
-32.9214
-50.2716
-532.779
-46.4644
-637.653
705.516
-67.8631
84.3992
-493.57
-353.225
539.507
6.56655
522.59
14.917
-537.507
746.802
-647.466
7.59583
-121.717
-55.5649
177.282
-422.858
83.6626
312.926
-33.6585
-279.267
-161.482
-41.2303
-302.635
289.784
12.8503
-287.419
63.4655
868.798
-195.904
-335.809
50.8472
767.681
-1.13612
-766.545
584.194
-659.068
74.8738
-922.851
830.371
92.4799
-23.8818
-637.344
110.082
298.171
-23.6019
-261.629
285.231
-776.627
13.9697
-204.139
-291.412
267.81
-466.185
511.693
-252.094
255.01
-2.91607
-304.547
300.569
3.97874
-809.781
704.652
995.986
-148.815
-164.453
279.3
-227.563
363.712
-161.252
407.93
-314.439
-93.4908
288.039
54.5522
810.246
-95.0434
-715.203
184.166
-681.635
-751.951
667.297
84.654
5.52926
-617.474
624.012
-6.53844
64.6267
179.294
-96.9273
518.113
-274.198
285.476
-11.2783
379.251
-458.418
79.1668
-608.677
649.271
-40.5946
585.532
44.5482
-630.08
246.387
-224.268
-22.1191
556.184
-23.7478
-532.436
247.66
-135.665
-111.995
-137.779
-51.3123
189.092
954.073
-945.119
-8.95333
-575.5
-388.326
-46.6199
-755.664
802.284
-897.644
834.372
-574.41
359.907
214.503
605.105
-623.447
-16.3447
672.517
-656.172
11.1702
156.191
-167.361
-53.4515
-273.859
-855.973
-66.8785
15.4622
366.508
334.091
-739.7
207.823
-12.672
-229.633
229.633
416.285
-157.278
-259.007
-911.232
25.9538
-3.39014
-28.2693
-476.161
504.43
-753.712
-80.693
487.198
-406.505
-252.411
-408.699
432.703
-10.5971
-57.2918
260.313
155.936
186.348
-541.537
399.341
-167.873
391.181
339.975
-51.9357
762.5
-707.68
-284.668
-8.25562
271.341
-946.889
-3.56067
5.6088
927.462
533.16
-448.76
-834.596
573.708
260.888
0.999673
262.703
-263.702
350.521
-6.47082
-344.05
-462.232
31.5894
-834.761
748.496
86.2651
-135.702
-179.962
188.843
28.1463
-216.99
213.127
126.847
-800.993
17.8502
-594.152
320.058
274.094
56.2494
235.752
362.64
-325.628
-37.0126
-366.516
385.56
-19.0441
847.42
-513.329
-455.055
312.9
-323.522
192.153
131.369
423.385
-720.815
568.437
-27.229
811.25
-807.887
78.5229
169.137
-828.387
810.635
17.7519
-794.483
47.2805
-472.162
-527.845
1042.65
-186.28
931.1
-835.175
-95.9254
-521.12
-463.316
984.436
-48.736
-256.576
62.4608
226.556
-233.876
7.32052
-22.2507
-56.0739
733.414
468.422
-32.6798
-435.742
-377.233
-191.388
19.0734
-103.7
-241.303
-143.225
413.979
-270.754
-926.302
926.302
93.0454
-808.005
496.34
-510.995
69.2261
441.769
-211.907
-194.761
161.806
-161.79
-379.747
-552.151
390.361
598.286
58.1141
192.398
419.056
-929.184
510.128
-13.034
294.943
-222.676
-263.6
-217.172
415.322
-87.9992
-181.949
-141.574
-65.494
-835.374
452.545
-518.16
65.6142
16.9282
-689.568
771.771
-82.2024
415.835
-421.288
5.45226
247.329
-568.312
529.772
38.5395
119.566
109.473
-229.039
200.073
-223.041
378.936
-708.792
329.857
110.544
758.338
179.348
236.937
-68.7017
-493.073
464.803
293.097
-307.696
14.5984
416.627
-37.3757
354.235
-384.769
-22.9468
-367.728
390.675
-19.0084
-279.371
296.587
21.0191
-317.606
-416.594
273.369
-389.02
40.913
631.086
-749.533
-410.19
532.791
-313.606
-91.6668
976.656
-866.112
-492.723
-312.313
805.036
296.55
39.5244
290.58
-330.104
-457.713
138.827
-274.53
-51.8687
451.288
-564.004
112.716
47.43
613.68
-181.376
59.6589
330.932
-274.682
708.752
-329.817
270.128
-180.377
24.1514
364.936
-389.087
-28.8046
-297.437
-4.9243
-257.218
251.893
5.32413
0.499336
551.996
-524.853
40.1645
-891.586
113.372
798.413
-1.76313
330.1
-116.973
525.488
328.71
-854.198
598.404
239.951
667.626
-761.344
-742.784
104.741
638.043
284.644
43.0031
-327.647
187.654
-180.476
-7.17794
26.5742
274.474
572.9
-192.871
24.4664
168.405
-156.939
-606.873
763.812
-341.777
361.339
-19.5619
-242.223
297.644
-55.421
-148.707
-175.366
-256.38
213.013
43.367
920.09
-920.09
-87.4033
727.063
-639.659
295.293
-212.282
345.335
-68.1525
-657.7
190.637
27.9862
-218.623
55.9241
-584.928
529.004
20.0953
-216.262
196.167
908.196
-913.919
5.72227
300.902
-674.468
373.566
333.814
-282.802
51.9871
310.653
-350.751
876.238
557.139
-105.851
-73.0108
-243.853
-401.012
324.14
76.8714
219.5
-346.442
334.104
-500.462
166.358
-224.197
36.2652
-873.29
-73.5989
34.4171
-723.985
307.746
-187.915
796.384
-773.234
-23.1499
433.191
47.4883
-480.68
-685.627
610.692
74.935
-252.916
216.676
36.2395
321.21
-28.1124
-426.148
-254.89
875.542
-832.284
-43.258
-357.758
658.66
136.731
-523.452
-864.613
11.0869
-57.472
-598.489
655.961
33.6539
-135.498
-151.532
-916.055
419.228
496.827
192.813
2.76003
450.424
-34.5888
543.444
247.5
-259.792
12.292
-334.967
-6.11895
341.086
-539.817
431.197
-18.5241
-183.57
202.094
232.34
-41.7032
-84.4456
352.235
-267.79
-356.225
6.57478
435.18
-10.1836
64.423
-807.595
743.172
-664.308
664.308
38.4989
193.04
-86.8705
-506.279
593.149
-854.469
938.1
-83.6317
741.116
55.2679
-14.1501
-834.513
848.663
324.592
-342.02
17.4273
325.463
14.7077
-340.17
584.111
-636.961
52.8505
30.1365
304.31
-334.446
-203.385
-116.366
319.752
196.791
-9.13702
105.991
-710.372
604.381
-760.004
267.281
351.626
-312.102
793.741
59.7761
-77.4181
-433.577
343.089
-390.399
-681.015
101.08
579.935
313.432
-260.909
-52.5228
-531.755
614.357
-82.6023
-82.0138
-363.007
445.021
409.464
-382.636
-591.374
-324.681
591.14
-725.807
134.667
-407.68
-426.916
837.853
-39.7586
-645.868
135.162
443.589
-578.752
563.571
-644.825
81.2537
24.0068
-243.652
11.1086
-693.011
-321.998
321.693
4.38682
570.586
-692.734
122.148
-344.516
-430.62
-3.05573
-684.567
698.236
-13.6684
763.08
-164.676
645.675
-102.986
-542.689
202.451
286.583
290.815
-298.149
7.33394
807.725
-935.889
128.164
-645.331
-97.4536
-280.751
6.55295
-328.919
95.4656
233.454
-56.6319
640.742
79.5381
-257.761
178.223
358.087
-336.008
-22.0791
-327.532
-266.619
-14.9829
205.078
-27.875
-175.117
234.537
133.681
-368.218
-272.067
319.962
-47.8949
588.396
-675.267
24.1167
288.809
-255.001
-73.9185
-281.402
-293.008
-711.345
540.687
170.658
-111.742
-152.852
-162.807
66.8035
-578.674
536.47
42.2042
576.957
-1098.08
-25.1517
-1015.55
-140.759
369.46
45.8621
-22.8812
-51.4023
-758.133
126.439
850.157
-843.35
617.407
-76.7201
1.86105
589.25
-591.111
-281.564
-166.55
448.114
-40.3275
-212.588
6.78325
198.983
-213.185
14.2021
-993.446
226.039
448.7
-114.596
19.7
-628.006
608.306
299.238
-365.325
26.3952
338.93
59.3332
573.763
-633.096
-103.781
771.045
-667.264
-669.42
-195.554
-724.475
39.7323
684.743
-36.196
562.721
-526.526
922.037
-913.745
-8.29228
560.97
-618.442
-611.189
-23.7015
634.891
-396.347
124.28
246.454
-263.095
16.6406
801.214
-772.547
-96.1219
730.912
-634.79
460.193
10.8495
-434.128
-669.932
604.143
65.789
399.219
-92.2491
-564.041
-37.7912
-11.3977
-399.754
-23.2894
221.708
-198.418
23.8582
327.768
-360.818
364.661
-3.84263
745.233
-791.853
136.97
126.185
214.464
-226.359
11.8956
684.146
-775.303
91.1568
-315.766
-668.814
-18.5404
794.719
74.0799
291.145
120.497
810.93
-16.2117
-12.0809
-1030.42
177.184
3.94362
18.8937
-567.341
162.02
-150.85
-1081.52
-240.972
222.448
71.1005
224.193
-107.754
-467.138
574.892
-2.50778
-477.538
480.046
838.934
-31.2083
570.1
75.5755
-23.0604
-202.207
225.268
738.787
-781.371
-147.379
381.916
-403.081
444.889
-41.8078
-679.255
723.239
-43.9836
291.783
-371.989
18.9422
397.414
-159.849
-237.565
173.066
-511.715
466.206
45.5083
4.74807
-462.369
461.15
1.21905
613.823
-596.043
32.568
-158.789
591.98
-295.288
57.5128
441.079
41.6345
607.211
-648.845
-81.1438
-146.368
198.712
17.9645
30.9195
-392.358
27.0322
-413.99
10.909
251.455
-253.543
2.08776
711.265
-682.61
-485.433
84.3515
401.082
-42.3069
626.501
-2.91215
-207.845
914.265
-141.783
-772.483
518.881
537.484
-1056.37
-290.937
-20.4079
291.276
4.17552
10.2759
274.665
-689.817
-1.44049
691.257
592.087
-749.026
-215.133
196.257
18.8761
-518.03
-33.7216
-632.72
-5.16928
147.893
-137.54
-428.318
-119.01
198.548
14.791
-632.561
617.77
-38.955
-497.76
536.715
-255.025
285.162
-69.332
626.151
-727.307
753.453
-26.1465
217.733
-482.444
223.439
-249.43
25.9915
-12.4275
-838.099
28.3178
235.385
-438.771
905.472
-915.108
9.63574
636.564
14.0402
-650.604
-54.5715
-538.564
-807.247
840.447
108.585
-207.834
897.676
-78.2718
241.856
-15.2999
-60.3668
-715.976
776.343
-87.4225
-597.145
-14.0287
536.619
-666.99
21.6593
210.818
-236.589
25.7704
-237.464
2.45201
235.012
-558.955
533.555
25.4002
-228.62
90.8412
60.9928
89.1649
-150.158
-880.248
314.776
20.401
-335.177
54.9819
637.881
-692.863
-343.431
367.393
-23.9618
-644.966
-22.024
-669.435
759.501
-896.568
127.482
769.085
-146.363
-169.1
-445.702
64.1397
-457.036
-614.602
237.556
16.2481
-290.815
291.392
-0.577255
182.366
-62.8004
-423.111
393.987
29.1238
-954.871
972.025
-309.755
119.08
190.676
150
12.0197
522.286
852.849
-872.873
277.689
-38.7156
357.815
-497.515
-789.252
811.238
-21.9864
-350.004
-179.916
529.92
132.931
-174.424
41.4921
427.133
-524.06
742.271
-680.377
-61.8936
-263.707
-27.2299
309.335
-69.5225
316.462
-292.345
332.386
-652.047
-17.8846
5.50286
633.488
-379.857
163.166
20.6569
-891.506
547.94
-390.902
608.146
368.51
423.813
8.88977
744.628
-804.995
-40.3225
-25.5267
827.283
70.3936
421.161
-499.887
78.7267
204.669
-180.483
-24.1862
-200.632
218.477
-17.845
-11.6199
344.234
-332.614
-617.285
658.92
434.379
251.994
-221.465
-30.5282
369.132
504.948
313.218
-334.818
702.361
107.885
76.4373
-600.214
523.777
639.845
-35.702
14.3174
-930.357
113.883
816.474
225.705
-253.7
-252.41
-793.309
732.26
61.0487
5.27915
814.173
-819.452
926.417
-926.417
-378.38
17.5614
602.827
37.0178
-109.163
-22.8871
-197.374
220.261
437.639
27.8701
-465.509
-435.753
21.7469
414.006
188.658
972.166
-453.285
-229.629
39.6448
189.984
-627.111
630.848
-3.73729
414.473
-469.927
55.4539
-430.944
-4.80903
49.9683
-761.887
711.918
-636.994
-61.1095
-549.693
518.538
31.1547
-364
267.699
22.5892
-241.319
218.73
-156.119
-153.636
-29.1831
230.431
-31.7196
55.747
277.511
-277.299
-71.7546
791.611
367.374
-52.5988
-769.186
32.9516
-890.027
814.422
75.6057
128.189
269.088
389.208
149.061
-753.849
858.637
333.133
185.961
-519.094
-165.002
594.458
-644.051
49.5929
473.238
58.2675
-531.505
634.433
-339.004
-295.429
-470.724
-119.718
-781.1
677.318
28.7558
-685.022
656.266
-711.345
108.518
602.827
-765.302
-2.38341
28.4773
508.635
-87.4744
-517.207
356.613
546.107
-582.303
-35.4283
-67.3205
231.012
-163.691
35.6396
-673.292
-236.263
-234.635
167.314
-29.876
280.416
-120.33
-160.086
161.407
-9.68084
-635.252
722.832
-27.2591
202.45
-175.191
869.869
-629.156
11.682
150.537
180.395
1.00896
397.612
-398.621
-225.938
-194.127
420.065
180.939
763.529
379.809
-355.658
-842.294
7.53284
626.415
-609.869
-0.0240794
-808.842
808.866
589.557
16.0977
-605.655
841.471
45.4103
-886.881
311.741
-11.1725
125.914
-407.478
426.091
9.08912
-255.433
335.242
-79.8094
195.511
381.729
-90.5836
611.402
-55.5535
-555.848
-755.686
780.748
-25.0621
14.6142
642.725
-657.339
-645.634
113.88
-6.88595
-442.489
603.187
34.5428
323.545
-30.7625
189.845
-90.0948
-336.885
1.91778
95.9683
742.965
3.8567
-278.112
274.255
-423.988
-505.197
-57.4512
-757.748
815.199
237.096
-46.5111
198.673
-267.057
68.3841
204.895
-96.1486
-222.647
-516.878
-581.321
-791.935
-18.3331
-169.628
-815.76
776.448
39.3116
-34.5223
469.854
-435.331
59.7825
821.34
-881.122
199.735
-138.742
774.465
26.417
-226.728
203.841
20.4941
-307.347
286.853
575.733
-573.872
-645.088
145.35
499.738
-544.978
588.228
-43.2503
31.9834
258.832
-665.188
-441.811
608.546
45.8241
-654.37
-721.931
606.763
-679.219
72.4554
-161.567
-31.3041
450.106
-484.359
-846.371
851.65
105.211
-307.734
-588.834
-642.456
593.296
49.1603
182.206
-76.4929
-43.8137
459.538
174.895
-570.222
55.8627
514.241
-527.334
13.0931
73.1191
-717.675
644.556
267.968
-16.513
-313.843
166.676
147.167
-563.367
578.284
-120.945
455.806
-334.861
681.434
-86.976
1.2062
-318.416
317.209
-446.855
-442.771
889.627
-160.222
253.552
-93.3307
-101.342
-579.673
-559.456
410.575
148.881
402.826
-35.5366
-367.29
-1.59079
162.7
-255.097
353.954
-98.8574
-446.835
339.082