/*--------------------------------*- C++ -*----------------------------------*\
  =========                 |
  \\      /  F ield         | OpenFOAM: The Open Source CFD Toolbox
   \\    /   O peration     | Website:  https://openfoam.org
    \\  /    A nd           | Version:  7
     \\/     M anipulation  |
\*---------------------------------------------------------------------------*/
FoamFile
{
    version     2.0;
    format      ascii;
    class       surfaceScalarField;
    location    "32.5";
    object      phi;
}
// * * * * * * * * * * * * * * * * * * * * * * * * * * * * * * * * * * * * * //

dimensions      [0 3 -1 0 0 0 0];

internalField   nonuniform List<scalar> 
11380
(
161.262
-586.972
425.709
-795.944
24.7245
771.219
475.965
-373.923
-102.042
717.222
235.839
-953.061
1509.85
-1069.36
-440.498
1216.24
-1527.08
310.841
39.314
454.852
-494.166
169.4
-839.569
670.169
961.833
-1610.66
648.826
-1789.42
1696.81
92.6134
-542.947
1759.19
-1143.62
1937.25
-793.631
603.475
181.451
-784.926
-27.9952
-1331.08
1359.07
226.009
-2015.43
1020.25
-388.123
-632.129
-229.522
390.785
480.613
190.553
-671.165
1152.93
-1317.13
164.201
-332.238
373.638
-41.4
1016.95
-1344.25
327.296
1221.84
800.867
-2022.7
79.2351
-1662.06
1582.83
-543.895
-1133.61
1677.5
470.174
181.829
-652.003
-202.289
-384.682
497.123
1012.73
1670.34
-1833.86
163.527
-118.96
-1682.3
1801.26
-1561.56
661.683
899.881
-314.265
651.244
-336.979
-181.564
-73.0585
254.622
1302.3
-1223.07
355.458
-1407.06
1051.6
-1754.19
1754.19
103.014
1556.56
-1659.57
-1089.09
-472.479
687.362
-648.048
-390.616
942.194
-551.579
1331.6
-1317.02
-14.5744
-1099.91
709.29
618.567
401.685
-417.292
-5.92686
423.219
-502.817
814.418
-311.601
-1618.26
1618.26
1253.5
-1437.81
184.308
-489.806
1711.64
1250.9
-308.701
1660.68
-1161.17
-499.51
50.1067
-382.345
2069.63
-1138.57
-931.064
1840.08
-169.738
447.659
155.928
-603.587
-484.526
983.705
-499.18
-1190.57
1293.59
-565.08
968.119
-403.039
393.196
759.736
659.615
-490.215
-437.432
585.158
-147.726
1190.44
-834.984
2308.26
-1080.73
-1227.54
1165.61
-2014.33
848.72
-1625.43
1597.44
440.324
-1583.94
-758.455
1249.95
-491.498
-668.915
354.65
1661.38
-699.549
-1106.93
-870.907
1977.84
743.837
-373.02
-370.817
691.189
559.706
-258.223
1511.72
91.3602
-304.645
213.285
-284.444
754.618
-331.522
555.862
-224.34
-324.121
804.734
-319.534
-135.528
455.062
309.866
166.099
1488.83
-471.88
-1027.18
491.18
535.997
256.9
100.414
-357.314
944.746
-341.272
-1713.57
573.906
1139.66
16.7338
-880.864
864.13
-272.131
585.115
-312.984
159.619
-1093.88
934.262
1049.88
-1065.56
15.6834
373.146
515.341
-888.487
-244.956
692.615
-1102.24
-483.093
1585.34
-675.751
948.28
-272.529
1346.59
-1465.55
-660.898
255.762
405.136
-470.22
-1011.41
1481.63
-533.486
-800.213
1333.7
574.247
-993.987
419.74
-259.583
-312.32
571.902
395.237
-303.877
-1050.51
565.983
955.677
-796.058
-110.459
943.367
-832.908
-197.352
403.784
-206.431
-671.057
-356.121
-386.713
960.96
1856.34
-1856.34
-522.875
-138.023
-949.042
1604.63
-655.588
396.214
-824.267
428.053
-920.669
355.589
-941.898
-1058.08
-1506.85
335.022
1171.83
-256.337
973.559
-347.134
630.337
-283.203
-1941.89
999.99
-1163.59
-343.263
598.141
-1547.18
1728.48
-1726.32
-2.16166
173.614
-603.89
430.276
-1499.63
988.954
510.681
269.349
226.471
-495.82
301.737
-633.26
229.222
-401.401
172.179
2025.32
-849.34
-1175.98
-547.039
129.747
611.311
846.645
-1457.96
-181.615
410.838
432.156
875.299
-1307.46
-899.247
384.246
515.001
-1055.23
1448.42
-1067.95
309.492
742.435
-91.191
576.91
-339.242
-237.668
1050.25
-559.072
593.564
-1403.41
809.847
-1341.85
239.61
-536.195
264.064
-1234.77
978.436
1933.35
-1009.2
-924.152
276.794
1579.55
-2104.56
902.016
1202.55
348.456
-34.3252
-314.131
-221.967
475.121
-253.154
-85.704
-395.609
481.313
-454.487
134.953
333.895
-135.141
531.356
440.794
365.224
-806.018
-2059.56
1150.65
908.915
461.137
-520.749
59.612
214.3
-353.848
139.548
952.371
1072.95
1813.38
-256.821
753.933
-498.171
794.311
-1388.12
593.809
351.132
392.705
1080.45
-1063.72
-459.031
-335.624
794.655
462.068
-123.427
-338.641
793.5
-612.048
481.875
-737.791
255.916
503.333
1157.35
-1240.21
706.727
1017.96
-1561.86
-3.10435
-1439.42
1442.52
329.297
820.579
-1149.88
620.919
269.845
-890.764
-2275.11
1192.87
1082.25
-1123.64
-1151.47
95.0247
386.851
959.352
-630.054
877.219
-897.074
19.8552
-2099.4
992.466
-214.006
-183.983
397.989
-42.3481
1770.83
-848.719
52.7754
-1035.67
-1068.9
-226.114
440.414
-696.505
173.63
-287.576
-479.741
767.317
1103.87
-1574.09
782.164
-1373.95
591.786
729.935
-494.096
1947.79
-1444.46
-378.279
-1375.91
14.2916
440.56
-532.222
556.946
42.1261
-595.03
552.904
564.654
-295.305
-594.647
272.19
322.458
786.929
-346.135
35.0536
313.403
1188.47
-1191.57
157.077
238.16
453.634
-741.21
617.34
-1004.05
-2026.82
2026.82
-295.157
-482.94
778.097
698.387
405.812
-1104.2
579.397
163.037
426.293
360.637
-2199.78
1328.87
-925.025
-681.531
1606.56
-465.782
-768.991
-292.019
620.312
-328.293
879.203
-295.972
-583.232
-478.952
652.565
347.773
-694.907
-398.339
-103.72
502.059
-1352.97
-480.889
704.609
-1170.39
-374.128
-1244.13
844.379
1463.88
309.763
-873.231
563.467
965.121
-346.554
1390.99
-797.422
435.176
-278.099
-319.849
-922.257
647.31
274.947
-420.172
-502.085
319.406
-405.11
-119.967
-171.937
291.904
-392.854
1091.24
432.47
-241.918
-378.968
1378.88
-169.01
-1209.87
-473.16
307.61
165.55
278.017
295.104
-573.122
-74.459
-663.332
592.264
-1729.14
1136.87
1488.95
-877.64
-1057.21
-442.424
-1054.47
575.202
479.264
1420.4
-431.445
927.914
-1411.01
-208.163
-116.589
324.753
-466.423
575.514
-1630.74
427.79
903.807
289.746
372.731
-662.477
568.012
1186.18
1100.82
-706.031
-394.789
386.951
-200.469
-186.482
-1419.39
447.876
735.301
-1183.18
1473.08
-545.163
-514.276
994.39
-480.114
426.174
1186.12
-1612.29
47.4581
-723.21
-154.4
411.3
146.451
-328.015
570.705
479.547
-510.805
-16.8655
527.671
1024.49
-1307.62
283.129
672.413
-246.12
468.517
-1447.16
978.642
351.738
1690.77
-525.164
847.613
1085.74
-655.45
-1685.09
760.061
553.83
425.895
-979.725
460.406
79.2872
1750.32
-1829.61
1443.53
-379.491
-1064.03
1699.28
-1741.63
-363.278
-549.262
725.405
-176.143
-502.589
168.642
293.426
-373.068
-1225.86
214.449
-764.831
-638.58
-555.797
980.351
-424.553
-649.653
639.371
10.2812
654.591
-923.15
268.56
-618.291
297.58
320.711
-646.005
-775.742
374.222
401.521
-931.95
1400.47
-433.924
896.665
-462.741
-2205.33
5.55552
163.803
-525.185
361.382
141.193
1237.69
-73.5858
-622.919
149.338
-586.77
1486.8
-704.639
391.31
-459.279
67.9687
-558.472
558.472
1222.9
395.36
1778.57
-1227.03
590.651
636.38
844.769
-51.2692
1293.4
776.236
-541.654
1335.97
292.91
292.205
255.176
-804.438
217.088
-719.905
222.768
-433.549
210.78
-320.768
646.08
-325.312
81.313
-402.081
-590.656
-564.754
1155.41
-420.38
560.969
-140.589
-1192.14
2032.02
-839.881
1286.95
-327.597
-393.899
134.316
-1991.43
857.819
1579.98
-870.148
-709.827
1987.1
-877.531
-1109.57
714.92
572.03
-238.861
461.63
-695.593
1206.6
-511.002
-768.566
1200.72
552.201
924.439
-1726.49
802.051
-610.433
-49.8645
660.298
293.476
283.434
446.636
-65.3454
-381.29
895.929
-83.6171
-812.312
948.252
-603.43
-344.822
1576.1
-472.222
898.844
-1632.47
733.624
1068.42
879.37
743.771
-431.109
-312.662
-1058.7
-258.324
581.455
568.007
-1149.46
-521.375
525.028
-3.65308
568.795
-330.695
-238.1
-991.43
557.506
591.954
896.997
-441.712
1096.3
1436.99
-803.723
-633.269
383.732
-919.619
535.886
-1073.24
402.186
598.022
-1112.3
449.185
-553.291
104.105
470.459
343.96
-509.644
-48.8279
-793.184
-884.58
1677.76
178.225
208.726
-284.337
379.361
9.31178
-604.355
595.044
514.631
870.653
-1385.28
-428.638
308.671
984.697
-88.7675
834.672
-1063.74
229.071
442.332
844.022
-1385.68
-470.381
835.605
1985.68
-1291.19
-694.488
269.161
608.058
255.233
794.643
113.636
-1012.83
899.194
1673.69
-1088.84
-584.853
-138.217
1888.54
-1866.18
-160.636
481.746
-619.869
138.123
-1009.24
528.957
480.287
-1730.45
538.314
-955.136
844.677
392.35
192.808
550.01
-240.247
-409.975
704.496
260.625
-25.1764
744.736
-719.56
-1150.66
-876.358
2027.02
-575.059
1150.91
-575.849
-493.966
-318.774
104.769
-1660.11
866.927
-803.97
-673.333
1477.3
-327.669
-293.855
621.523
359.038
-722.767
363.729
266.53
-612.665
346.24
180.316
-526.557
387
-679.019
696.506
-337.468
314.268
-449.796
699.112
488.635
-210.618
-471.864
-303.878
1238.67
1.65326
-1240.33
1037.69
-420.35
557.193
410.927
-1782.26
869.794
912.461
480.321
571.714
-1052.03
-530.309
202.641
-265.823
1182.99
-917.167
-1590.76
1212.48
504.54
-1095.2
380.958
10.3526
482.346
308.992
-791.338
364.984
-609.94
-42.8556
761.928
-719.073
-524.08
793.925
416.03
319.682
525.087
648.211
88.7971
-466.614
377.817
1057.49
-644.132
-413.362
494.072
-1664.27
1170.19
-1140.18
1753.2
-613.021
1715.92
-1123.66
-332.876
605.065
-1197.01
1310.65
424.2
-799.235
1625.5
-826.261
-286.175
-186.985
-944.02
1474.36
1819.36
-609.727
-1209.64
-405.328
754.276
-1310.07
-124.58
-104.26
550.896
-712.971
-354.188
-1236.57
-206.65
473.18
901.486
-555.384
159.775
-1675.1
-71.4114
1746.51
-1110.63
535.572
560.706
-1188.74
628.03
900.712
918.652
630.227
619.726
735.239
259.151
-1197.43
501.838
-386.559
428.685
610.475
-512.111
225.847
-724.995
499.148
752.732
-401.601
-248.753
175.694
-621.382
278.758
342.624
-883.893
-748.575
1087.66
-2145.74
393.054
-677.499
-342.695
-722.864
837.051
599.941
-330.212
324.285
422.945
322.77
575.336
-898.106
549.535
657.06
-546.173
147.834
394.253
-689.41
-1075.85
-824.023
1899.87
-1819.27
157.204
1106.21
-1372.03
1211.57
-699.888
-511.681
-505.263
1349.28
-1495.36
627.963
867.394
-282.264
-208.305
490.569
1428.47
558.632
374.353
-478.072
-474.203
-580.327
1054.53
-428.06
591.862
1584.06
-1132.54
-451.517
-857.102
374.162
654.185
403.308
-1623.41
416.206
1207.21
-168.068
514.309
797.347
786.709
180.343
-713.99
533.648
194.897
208.887
-271.918
-109.839
381.758
496.952
40.0042
-536.956
-1676.21
618.996
-1626.93
1701.67
-74.7371
17.2307
-1644.16
1069.4
822.077
-339.73
-859.044
-214.199
-1134.57
-239.376
-311.706
676.689
-1813.31
-647.893
1215.9
228.647
755.058
-1335.29
-679.035
-466.555
682.324
-392.578
-1013.25
1350.84
-1933.16
582.316
648.299
1288.95
477.122
-2.00073
715.843
723.572
-1439.42
-631.787
322.048
309.739
432.367
-100.7
-331.668
130.375
328.202
135.836
-464.038
-611.459
1165.29
442.578
-661.963
-458.175
-401.717
859.892
-301.071
92.908
-449.981
146.104
-298.53
-710.713
536.66
-104.292
-581.981
965.713
569.407
-266.203
-303.204
450.412
-774.534
-648.958
479.771
-1129.34
-860.652
1195.67
-569.771
432.111
362.545
-499.888
126.868
1025.76
-312.248
586.727
-274.479
-509.038
1578.44
-761.195
317.23
367.596
-684.826
211.643
541.99
-0.144514
-541.846
-267.649
-182.332
990.798
1108.76
564.929
-905.116
957.424
-52.3075
-449.069
166.805
-811.243
331.501
-585.264
379.145
373.587
874.701
-1294.78
420.074
774.009
-816.865
-948.742
-550.405
1499.15
-159.112
531.843
-566.769
227.527
1328.18
809.551
-629.208
1380.78
-676.171
486.572
-621.25
-405.537
-418.966
-378.254
797.219
498.35
-839.622
-489.427
69.1725
420.254
-306.244
572.545
722.987
-329.933
-225.863
-173.805
399.668
-485.483
121.73
363.753
1465.86
85.2411
-1551.1
-760.247
1352.2
-1144.79
-465.865
610.029
-242.433
1154.95
-380.944
1083.36
492.732
702.401
-447.225
-884.465
-522.593
-1328.23
-15.1061
985.509
-970.402
633.347
385.297
-1018.64
-357.988
-189.051
-688.509
405.559
1621.26
-223.755
394.345
329.216
-723.56
-1839.73
-2106.72
1519.16
587.561
-2041.86
359.556
416.71
557.762
-974.472
-460.695
1017.89
-447.232
-688.713
1135.95
-2030.58
1391.22
639.364
617.612
-1064.84
9.00983
440.176
385.768
179.798
255.378
382.878
1034.32
943.059
672.886
-318.556
-354.329
-285.39
612.84
-327.45
566.49
534.329
563.774
514.284
-1078.06
-795.944
-699.413
749.261
405.692
-418.375
782.105
-1193.35
1609.56
470.595
-1159.31
-362.425
542.741
-1398.47
946.461
452.006
-726.835
-335.703
-737.51
266.831
470.679
447.516
716.768
-1164.28
1081.42
-601.097
-439.473
670.074
-230.601
248.983
320.423
-464.312
-432.403
896.715
-218.32
596.643
-982.917
386.275
-445.503
600.597
-1681.32
424.134
669.405
-1093.54
515.171
115.166
113.416
-2212.82
601.275
-169.164
1445.65
1777.1
-217.545
-1559.56
-438.623
1789.46
-1987.52
1194.69
792.834
392.084
351.687
-54.9888
892.04
-1282.19
717.435
-866.029
-820.317
805.211
286.962
84.5949
-371.557
219.457
171.828
-391.284
1571.43
-855.588
-1530.91
-325.431
512.448
-245.954
-266.494
389.332
365.287
251.609
430.715
-13.1256
1004.83
-991.708
441.1
290.717
-731.818
-734.265
1817.52
-1083.25
-342.356
731.688
-1239.9
-419.674
-911.819
479.416
651.967
-861.862
209.896
755.735
-374.28
-381.455
-458.141
-446.976
456.911
1147.56
1244.11
-683.402
796.258
-345.845
424.243
353.854
-225.709
-233.57
-298.307
650.045
408.173
-842.942
434.77
278.725
388.897
-667.622
-418.004
826.177
753.633
-1146.49
927.07
-52.3687
-478.794
280.464
799.989
-97.2313
1386.18
1890.52
-37.7325
345.342
-384.553
473.35
-1090.04
1076.91
692.709
376.335
379.4
103.046
409.402
247.136
524.083
-379.132
-252.655
-559.928
-89.7243
-371.226
357.53
13.696
-256.763
-279.432
1010.57
-1540.65
530.081
-142.253
-231.67
-443.218
733.935
-1659.89
1590.86
-962.894
336.416
-741.953
584.348
1224.4
-1808.75
607.462
983.395
324.1
-1129.5
719.521
-345.869
-316.609
1402.2
-1462.24
847.457
614.787
468.216
-647.407
179.19
-404.169
480.124
-75.9552
413.289
83.6629
1725.31
445.041
-250.144
557.693
-1704.79
1147.1
-103.577
428.212
342.75
330.136
-448.852
-613.605
1062.46
401.468
-871.848
-639.61
901.804
571.273
-428.326
-189.965
-433.478
-409.464
-307.947
-826.627
1821.09
-1821.09
-97.1613
-1617.2
1714.37
298.337
270.458
-916.554
-555.822
1472.38
-408.114
971.888
-635.399
-1040.81
732.735
399.712
-1132.45
464.279
-150.011
573.084
1220.33
-1793.42
-1047.86
2114.17
-1066.31
-381.498
-287.417
-519.675
893.837
-1767.93
1613.59
154.343
1767.93
-1622.71
-145.223
-236.198
513.726
-277.528
-537.329
1620.69
1591.59
-2011.26
1134.92
-345.018
-240.048
585.067
211.357
-573.782
-774.803
356.428
1345.23
640.452
592.018
474.028
-1066.05
258.384
444.018
875.062
500.114
-1375.18
545.9
-1020.1
1574.92
-564.358
-792.937
-413.48
-159.057
572.537
-490.564
1207.33
-738.672
327.177
365.438
396.803
228.972
-625.775
608.16
831.289
-602.218
248.018
709.406
-428.326
-382.292
-217.804
600.095
1168.35
-710.918
603.754
471.193
-1074.95
-1280.94
1280.94
-380.631
756.966
-269.041
-489.668
758.709
512.318
431.164
-943.482
399.733
-668.774
599.012
-870.412
271.401
-367.679
-484.828
1076.85
-656.961
-716.551
1373.51
-369.732
966.374
-1552.83
675.301
-6.71682
-403.943
410.66
-573.682
747.312
336.35
309.73
158.153
306.127
-598.799
252.93
1871.39
-1968.62
241.852
-720.804
468.848
-824.415
355.568
-897.493
1460.19
-562.696
-430.454
-481.365
600.989
1124.13
-1725.11
-711.628
330.13
-465.95
1032.44
-817.147
1065.16
-369.196
-618.266
-540.064
757.152
535.579
-353.751
913.786
-322.9
-162.584
1599.04
-1816.59
-338.175
-644.742
-353.912
475.642
278.183
-670.761
-153.166
1089.05
-808.583
184.753
-373.077
-272.56
645.637
381.078
-895.786
514.708
-475.059
-476.803
-873.231
-389.28
590.33
-201.05
-454.243
-456.665
-364.84
-161.717
-422.112
651.084
-484.483
838.337
-1070.9
622.049
-1407.42
603.448
-29.6445
-1844.18
1873.83
570.249
-451.415
1263.1
-727.533
240.185
-240.185
676.738
-465.177
1041.29
-1676.69
-1158.74
-947.976
284.589
328.25
909.284
716.212
-535.893
-287.961
823.855
1665.47
-1695.12
-432.443
328.892
235.761
1134.29
-530.534
-943.346
1550.51
-607.163
437.509
-257.711
383.635
458.001
-841.637
555.765
458.632
-1014.4
-330.661
657.839
-38.381
1909.77
1639.43
992.044
-1696.68
726.058
-1176.21
450.147
-492.538
1367.6
835.57
-1340.83
-603.042
258.023
819.647
-393.752
542.307
-1195.6
653.291
-630.262
-1215.52
-695.739
1911.26
-167.136
555.632
-388.496
-143.823
341.79
-508.926
341.597
356.227
-697.823
-1497.76
755.332
742.424
883.875
-1434.28
818.842
-434.596
199.587
-353.987
-637.169
254.877
-721.335
-677.132
695.883
508.545
-1204.43
377.34
-204.968
-172.372
552.547
-955.587
-598.647
-471.449
802.95
-831.388
-1156.13
-1437.92
499.805
938.11
42.4167
-682.932
330.911
352.022
-1335.1
1051.06
284.038
-614.226
-456.675
-665.254
920.487
392.698
-185.157
-207.541
508.56
980.241
-1488.8
986.929
-557.334
164.382
392.952
-478.227
686.262
-444.41
-503.269
149.357
233.821
-1525.01
517.905
563.513
-800.462
226.781
129.759
-452.659
350.741
-827.543
1954.16
-1195.38
-758.781
470.765
-711.173
240.409
318.749
346.047
95.2161
-441.263
-593.403
183.218
261.824
-691.882
1374.04
-682.156
424.085
514.239
-1241.07
256.963
1866.76
-1013.59
-853.175
783.445
-545.325
156.045
1402.25
-975.045
-427.209
314.758
-779.935
-616.65
1725.41
603.123
640.985
326.329
-39.3676
246.789
-1138.28
1725.72
-587.445
-1763.57
820.22
1785.25
-1711.92
-73.3282
-665.705
279.146
652.947
-747.923
207.859
1402.41
-566.841
371.826
463.779
-1858.91
1420.29
567.406
-481.946
-85.4597
180.846
-545.686
-329.198
-164.768
-346.028
688.778
-677.814
264.334
631.557
541.302
-1172.86
1113.34
-1947.8
834.456
131.01
371.049
-1701.37
1662.99
294.968
-742.193
-174.179
373.765
772.213
676.78
-1448.99
1098.29
-1096.64
515.97
-1117.07
-621.068
243.645
377.423
551.82
-273.062
-652.36
-1024.33
273.725
-730.39
-912.323
151.463
149.724
227.616
422.078
271.448
-693.527
-646.43
-834.662
-978.651
479.344
-1072.75
-325.257
490.808
530.131
665.543
-274.895
-119.003
-462.043
786.143
247.962
-1207.26
560.827
1320.2
-547.985
432.015
-1030.66
-379.187
127.085
440.32
1022.97
551.955
-1733.11
1635.95
1669.79
-621.6
-1048.19
1909.23
-1899.3
-9.93731
233.98
-618.533
-374.31
559.064
-789.235
-339.028
-326.677
1017.43
715.641
-1539.58
823.937
243.334
-26.1791
1625.22
-1133.86
422.944
-1297.98
505.04
-62.6713
1528.53
1196.66
-470.601
-484.303
-73.0307
-249.141
736.116
-1951.63
-704.213
368.688
-530.339
161.651
189.723
-501.971
1139.98
671.663
-1811.64
-632.663
150.717
941.357
-1497.18
-210.554
678.651
-468.097
885.144
1114.86
-751.765
1354.89
652.261
-555.057
-97.2042
-335.256
1182.71
1071.83
-1981.78
909.947
-1183.01
535.119
1488.63
-586.828
-424.906
-121.268
-1249.43
566.032
1176.76
-37.0987
946.394
776.365
-1722.76
-186.696
579.043
-1541.68
962.64
487.045
916.227
-1403.27
638.091
577.809
421.964
-1106.57
588.102
1116.84
1214.69
-451.968
-762.725
-1186.2
-1754.93
-2.06332
-1731.04
-176.079
-471.328
1614.75
-639.754
-975
-490.777
1121
-1325.08
630.99
694.09
-1367.66
1452.9
-1338.02
586.251
1520.4
-438.422
-587.479
162.574
-1519.09
224.642
176.392
210.337
441.924
472.537
413.06
-885.597
506.521
-938.598
899.558
-1444.72
-727.87
215.517
512.353
-1060.53
449.066
-496.166
867.992
694.695
9.73206
-534.488
145.992
-886.57
-1318.76
-708.8
343.097
365.702
392.649
-719.54
326.891
-469.895
-189.338
-707.735
730.86
1540.51
-594.114
834.207
737.224
1344.48
-844.366
-970.586
-571.097
-790.571
429.078
361.493
-1034.58
-634.617
296.467
338.15
-1433.68
-296.775
-785.267
392.407
392.86
-671.931
444.348
227.583
-693.862
249.452
412.842
483.873
389.752
436.425
475.645
384.247
594.263
-967.331
709.446
455.842
450.61
355.643
-806.254
1630.69
-1079.76
-550.933
-505.134
-300.196
-1034.91
449.869
347.35
409.791
591.636
-1001.43
-1387.86
748.102
-523.478
1151.51
359.946
-31.7437
412.619
-861.189
448.57
-1910.48
293.271
437.576
-721.847
284.27
-193.708
395.497
-201.789
-656.531
294.36
362.171
-666.805
312.476
370.503
386.463
611.021
-1019.14
750.524
666.879
-1417.4
438.898
623.559
336.078
391.131
-727.209
404.031
327.657
624.944
714.271
433.287
629.708
-1053.24
423.536
-1695.2
1151.28
543.921
1696.54
-539.19
616.447
-1146.38
529.934
-637.362
343.508
437.806
-931.841
494.035
808.413
-499.421
350.267
338.511
607.33
-945.505
655.308
-1251.68
596.369
423.384
733.171
-1223.73
767.941
510.319
-1278.26
513.743
393.674
-907.417
-501.902
-936.013
-287.844
629.441
352.375
539.536
-891.911
327.231
330.607
-502.201
1944.72
434.752
-844.223
409.471
-917.366
-809.124
-742.556
361.101
-1248.5
431.351
-1754.64
1622.71
131.932
1757.79
-1613.59
-144.201
-779.323
-583.206
257.145
326.061
-1785.25
2011.26
539.515
789.886
-1329.4
440.197
715.214
689.271
385.593
-1074.86
7.22626
1617.14
-594.166
387.163
875.941
-642.327
321.395
320.932
-378.664
-294.948
543.932
-205.7
432.171
274.252
-656.353
382.101
255.702
-568.685
-275.57
442.941
-1031.36
588.418
538.089
1092.61
365.91
595.05
307.298
349.108
-656.407
1658.59
-942.951
1693.09
-1521.89
-171.198
-327.504
-818.391
408.926
857.003
-1067.56
-598.213
270.763
-1090.48
1628.57
-1617.19
-70.2056
1687.39
-341.068
-350.028
-370.338
542.387
591.902
-499.658
-21.0911
-549.324
495.825
-282.62
-213.204
1780.63
-1323.71
-616.912
292.112
324.8
396.154
357.335
733.906
-288.661
-399.459
-1757.79
1695.12
459.94
-1099.39
639.454
-40.0938
1676.04
570.324
476.178
-1046.5
102.424
1143.94
-1451.88
-3.75777
-1906.72
218.297
-590.656
305.516
285.14
-953.952
611.257
-894.462
464.008
-1127.26
671.662
455.593
409.354
255.823
-791.717
-364.818
1215.01
885.635
699.703
-1182.29
456.157
726.136
494.879
699.103
-1193.98
-417.831
-248.245
397.969
-957.791
439.235
518.556
21.19
-1880.1
1080.34
-481.329
-521.108
559.335
-1377.84
818.505
-444.573
800.141
-405.867
508.999
-719.063
1709.86
397.388
-169.771
210.919
-156.477
-246.232
402.709
1895.36
-504.144
-1721.22
1049.92
-593.02
298.071
-1011.23
550.535
-311.722
544.572
904.718
-1449.29
-1102.28
437.027
-21.3665
-1947.25
1720.45
-648.616
-538.389
460.992
-1189.62
728.625
199.072
193.626
-276.889
777.823
696.534
834.857
814.815
-459.172
1083.5
-529.751
466.616
-182.996
-283.62
-1926.17
-712.148
-316.404
-638.851
-6.22232
645.074
453.992
-270.774
574.535
1084.06
-820.976
921.679
1243.49
-425.983
-110.707
-294.523
405.23
952.142
-888.131
-304.95
-1066.05
609.374
1570.23
-814.9
538.002
934.374
-408.624
735.598
-326.974
1129.47
-272.076
381.204
1349.22
-709.647
-209.972
448.387
-1197.94
749.555
-956.182
-206.668
1162.85
437.928
-953.046
515.118
152.797
731.889
482.804
749.196
-173.861
849.044
-426.419
1181.46
-795.87
552.747
-1465.28
912.529
-1216.63
1800.98
-431.703
-1510.19
879.041
-1401.63
-322.706
-468.632
1456.91
-1530.45
781.872
1491.34
191.598
275.018
-373.509
-1754.64
-272.829
-1031.79
1606.32
-1795.17
1795.17
1591.59
-1004.21
-628.712
-357.443
368.252
603.636
-428.055
-380.982
-1389.55
897.007
1125.03
600.695
1202.01
1789.49
-1216.4
-629.449
270.996
1659.39
-1917.02
257.635
816.846
-1268.36
1545.11
-561.716
804.869
346.04
-378.18
556.061
793.224
622.254
1404.76
-288.917
-445.892
-392.936
491.555
-335.627
472.182
735.149
-318.847
-122.416
-356.073
573.269
-217.196
37.2868
-367.982
1107.26
-1720.28
-487.355
-512.785
-574.393
863.381
706.851
-1596.17
904.29
-452.426
-641.71
-516.135
1251.44
366.889
1723.96
-1702.77
-1665.47
1899.3
-1560.51
840.015
720.492
-418.24
-1802.73
918.149
584.616
817.795
-382.043
1794.69
-681.35
-469.552
719.387
447.778
-1167.17
-1103.81
444.309
752.351
-1617.09
473.319
900.719
163.488
-387.096
223.608
-1619.94
-395.489
-484.393
990.108
-688.606
1442.72
-970.361
1855.5
240.911
-560.643
485.953
-294.355
474.352
893.248
543.543
976.856
-463.756
-427.795
574.598
882.31
-1392.68
-40.9951
1589.68
-852.461
519.985
971.352
-1475.72
-1115.89
1794.87
-1243.05
-551.826
1205.92
-319.54
-886.378
-179.912
441.404
-261.491
-457.159
-250.031
417.892
-167.861
132.344
-380.589
1752.02
-1754.08
-484.966
-530.902
-903.377
430.057
-193.518
-236.538
628.23
-507.514
-417.323
-321.893
739.216
-987.518
485.432
-1166.67
675.894
404.399
-656.889
-438.387
1596.16
-879.945
530.21
-458.684
-568.192
-463.166
354.122
-343.161
-10.9612
-1146.66
419.124
-665.235
-1033.38
1698.62
-628.51
-1426.03
709.484
562.441
-1596.22
1033.78
-431.434
-485.209
161.691
573.547
-1258.16
742.021
539.293
1005.82
-2133.16
999.977
1133.18
-394.223
402.585
-377.199
-25.3863
1477.92
-386.507
449.696
1138.68
582.966
905.666
565.118
528.4
-1093.52
151.737
-468.468
-1711.92
233.85
1127.44
-637.723
518.785
1013.41
-1532.2
1092.73
-1643.66
196.154
730.915
570.995
-875.945
-1086.16
-163.271
415.739
-252.468
-585.7
-458.942
-636.522
-620.118
343.228
-1620.4
938.87
-477.345
214.137
-383.908
524.794
-306.497
-636.988
1196.83
-1334.55
955.235
379.317
-1029.64
-403.478
-771.984
-837.676
1701.06
-477.631
1799.65
-1594.58
-205.074
-1556.53
1018.55
537.978
-738.83
-248.419
428.197
-179.778
-616.904
384.759
264.336
-649.095
-524.632
1015.98
622.201
-351.438
-1620.18
1050.41
571.85
1103.42
-1675.27
-445.564
-278.841
-377.69
-756.865
-520.011
-331.28
489.433
1557.97
-995.524
-773.339
1497.43
654.432
-325.54
725.884
1152.33
-1878.22
318.407
316.611
-487.802
-1936.27
1722.74
213.531
731.648
-475.456
-256.192
531.899
1060.68
-1592.58
354.122
-1734.8
-233.219
1752.38
-1580.61
1073.68
506.93
-1741.1
6.29585
-522.319
402.585
1701.37
-1722.74
938.988
625.844
-1564.83
365.017
-213.343
-151.674
-448.504
-245.358
58.5552
93.8546
-342.273
-419.211
-451.201
-398.472
204.764
1510.09
379.291
-193.822
-478.109
449.301
-187.478
340.907
1510.64
966.032
-199.169
-766.863
-1103.99
1704.98
-1729.06
1063.82
-707.73
-1021.33
-1265.05
1844.98
-579.925
1155.03
-1771.33
616.295
264.926
-877.285
1676.09
43.3837
-1719.48
-491.209
-1082.88
-1752.02
-979.526
551.731
1019.44
590.323
1132.92
-1723.25
270.143
-512.576
697.201
-384.725
418.965
923.895
682.661
-378.018
-675.226
582.979
1072.41
-1655.39
-412.794
-356.799
769.593
433.604
-1662.99
1521.89
141.1
576.516
-1042.47
544.773
1083.8
-1555.55
993.834
-228.718
211.139
347.924
1909.23
469.063
-52.07
995.835
722.749
-1718.58
-696.34
1085.19
-1557.41
152.677
-568.599
187.677
261.625
-690.656
-557.842
582.813
1034.32
-710.514
-270.897
-1368.04
672.193
695.843
-399.95
702.13
157.173
-859.304
562.626
-137.225
1557.51
-199.4
288.946
-782.345
-1936.27
1664.58
1007.48
297.58
304.332
504.081
-929.608
-996.563
-1767.25
628.403
1693.75
498.36
-474.924
1210.07
1086.96
-424.919
1028.56
-975.404
484.285
491.12
701.192
1047.84
-1749.03
475.086
490.627
-1493.8
-743.907
37.8765
774.786
-413.685
-893.595
372.488
-540.812
-800.021
563.467
-578.646
1397.15
1055.2
185.491
230.249
-550.714
1618.46
-777.272
1527.8
-1727.83
575.339
1152.49
534.061
-880.615
-1733.41
1917.02
-183.614
1721.72
170.629
-547.457
355.611
-261.757
-481.803
1210.43
568.275
1128.26
-491.024
417.62
853.52
-451.835
-770.065
439.963
330.102
1419.96
1089.48
-518.454
1422.74
-510.391
-532.729
1043.12
-602.86
557.817
-1257.7
1693.09
1839.56
-687.226
1586.3
-647.314
-1240.27
715.634
-563.192
190.964
-374.947
439.946
-231.059
-516.352
-1246.7
1870.96
-624.264
1173.12
-556.668
1120.21
-1659.4
1714.76
-574.028
-550.012
-549.87
1720.07
-315.654
-688.156
-473.501
1223.06
-1695.3
-1860.12
613.428
401.702
-984.934
156.401
203.333
-1719.02
1204.11
514.906
1162.83
558.89
-514.195
-465.487
1191.62
184.979
210.517
588.45
1251.11
-539.193
-1238.57
1777.76
-1025.13
999.982
866.778
-204.009
-1659.39
1702.77
-510.264
1410.98
-1733.41
-303.823
-52.3622
356.185
-246.263
581.246
-334.983
153.152
494.157
777.609
-384.96
1257.5
1270.39
-413.385
847.796
-438.87
1817.62
-662.582
1586.74
-1723.96
-412.852
-795.044
350.489
444.556
-562.273
-563.791
79.7552
-1138.45
-984.972
-670.852
1655.82
-943.693
-1189.47
205.948
-445.997
-646.457
705.847
1167.42
650.193
1410.2
-592.408
1636.69
1317.85
-575.83
-480.719
186.364
-503.359
1396.61
1239.77
-567.573
-999.976
888.512
62.7713
-951.283
603.392
-506.261
1403.27
1495.02
-589.351
-349.034
349.034
-589.704
1623.49
1238.86
-486.51
1134.11
-51.8342
1853.1
-374.274
1489.43
-589.876
-507.717
1347.73
-648.44
1218.37
-569.925
1554.8
-592.155
777.055
575.053
-1352.11
-686.084
268.662
540.889
601.331
-1957.28
-1022.76
1586.74
354.484
-354.484
-52.5827
380.058
438.784
375.805
37.4834
-274.256
970.351
-546.967
-429.375
809.434
-234.721
612.144
-414.006
1564.65
-444.355
-883.878
172.96
222.724
-395.684
601.178
1250.75
-1851.93
923.693
-459.685
-343.161
126.144
-1943.07
1816.93
-443.334
165.235
1180.81
-440.538
-740.269
-286.306
-607.289
-498.432
-377.199
-469.127
255.923
1157.5
-565.595
231.763
-365.325
133.562
-23.0768
-107.688
1375.91
-1268.23
34.6743
-594.603
-586.574
-442.629
442.629
-1262.33
1985.08
-1344.26
-198.011
-1826.79
232.212
-1025.75
-974.246
-174.592
-1640.87
711.264
1229.32
-1925.06
358.21
319.543
-677.753
-1850.03
1234.26
615.763
-557.688
557.688
-958.72
-40.0432
-1866.18
-558.204
1650.81
-674.632
1636.2
-601.873
-196.046
-1710.67
-575.789
-490.712
-594.91
-457.941
457.941
-1537.82
194.533
1343.28
160.634
220.491
-381.125
525.151
440.881
994.517
-475.961
1751.28
768.709
-412.789
387.403
524.675
1702.07
-594.817
-553.006
1636.81
458.673
1812.87
-645.452
-1804.82
-1938.07
-647.203
-471.485
471.485
-596.747
203.811
-723.713
1017.3
-466.768
-1078.58
-297.23
1579.55
1852.29
1635.39
-1635.39
-323.429
740.568
1761.54
595.813
1275.15
161.898
203.119
629.311
591.801
1603.47
-1603.47
213.072
-361.33
-441.344
447.115
949.068
-464.783
-637.945
-1130.91
1706.25
272.173
-1685.63
644.825
-287.583
458.212
1744.65
-592.158
-210.438
-491.207
373.326
743.516
1738.59
-613.559
-511.809
-783.739
1960.55
-870.467
-1090.08
1642.66
-701.773
1223.95
-1824.97
601.021
405.728
-966.371
-184.608
-99.3179
1096.69
-487.314
147.93
658.193
-1682.52
423.419
623.538
-1804.82
-583.31
1787.42
882.666
-1162.85
1760.5
-597.649
1783.83
-575.572
-1208.26
428.177
933.692
-1754.08
924.265
-1465.05
214.551
1250.5
-832.005
-1254.21
-368.047
71.7293
296.318
581.801
260.706
1038.87
-433.757
843.103
-409.346
819.515
743.828
-1563.34
645.007
1066.64
-23.8101
-660.454
684.264
-1744.58
723.252
715.807
150.511
-1122.55
1936.79
-674.576
-1262.22
-537.193
1665.45
844
969.896
-1813.9
1227.85
683.402
-411.907
706.267
848.528
1026
-588.068
1761.54
625.001
1773.56
-1185.57
-587.997
-440.318
-337.615
777.934
121.458
-1185.49
1660.51
-540.295
-1437.75
1437.75
1250.55
594.432
1351.28
206.685
-568.744
278.361
-177.946
699.217
1113.66
471.308
-286.329
-868.81
-575.911
1747.79
-1747.79
975.692
-975.692
987.342
1025.17
-2012.52
1837.97
-614.019
-581.135
875.962
-947.859
-1052.16
998.03
691.902
-1689.93
-509.644
-404.816
-660.029
-808.447
2042.71
-1246.4
-613.72
1002.98
974.863
1289.78
647.011
318.536
1012.69
266.652
343.852
1186.18
1756.91
-1756.91
671.072
79.2344
-382.438
-997.065
-539.998
1674.1
989.223
1010.78
-1833.32
-214.453
-361.336
612.105
-378.255