/*--------------------------------*- C++ -*----------------------------------*\
  =========                 |
  \\      /  F ield         | OpenFOAM: The Open Source CFD Toolbox
   \\    /   O peration     | Website:  https://openfoam.org
    \\  /    A nd           | Version:  7
     \\/     M anipulation  |
\*---------------------------------------------------------------------------*/
FoamFile
{
    version     2.0;
    format      ascii;
    class       volScalarField;
    location    "18";
    object      p;
}
// * * * * * * * * * * * * * * * * * * * * * * * * * * * * * * * * * * * * * //

dimensions      [0 2 -2 0 0 0 0];

internalField   nonuniform List<scalar> 
115545
(
-0.00118533
-2.08023e-05
-0.0247023
-0.00626794
0.00300324
-0.00150621
0.501128
-0.0515532
-0.000462958
-2.19211e-05
-0.000480775
0.000409358
-0.00273695
-0.101801
-0.000464405
-0.0963225
-0.000145463
-0.000639933
0.60347
0.00310902
-0.0518882
-0.00947923
-0.000729409
-0.00982503
0.846752
0.125142
-0.0211012
0.0401919
-2.12637e-05
0.536165
-0.000260582
0.153059
0.0107015
-0.0240442
0.85509
-0.00320849
0.494652
-0.000141369
-0.15602
0.34753
0.154145
-0.00064755
-0.0327796
-0.0032128
-0.0766482
-0.10181
0.00661081
0.0108665
-0.000653811
0.000389051
3.01459e-06
-0.00585655
0.168777
-1.11688e-05
-0.00451833
0.17084
0.138131
-0.0688432
0.0370237
-0.0209928
-8.2188e-05
-0.0100905
-0.00139153
-0.0308879
-0.00012221
0.00195034
-0.00226244
0.105041
-0.0239025
0.127058
0.355849
0.0932971
0.342947
-0.063847
-0.0270671
-0.0453127
0.0258319
-0.00127284
0.575041
0.0806258
0.0824908
-0.000115143
-0.134808
0.0392368
-0.00579888
0.000396577
-0.0327147
-1.85955e-05
-0.0477493
-5.39621e-06
-0.079465
-0.0194108
-2.34586e-05
-0.0024198
-0.000789405
0.000784376
-0.000714655
-0.134506
-0.0725642
-0.0475739
-8.52351e-05
0.0497371
0.00127385
0.00501238
0.357973
-0.0664722
0.376189
-0.0814374
-0.022438
-4.73111e-06
0.0785805
-0.000707769
0.0285291
-0.0143813
1.07583
-0.00373774
-0.000484011
0.320723
7.96956e-05
0.0927156
0.324196
-0.0992684
-0.0243364
0.0473366
-3.73879e-06
0.534339
-0.00995302
0.848516
-0.00302609
0.0790246
-0.00566869
0.000568296
0.268928
0.000396153
8.02529e-05
0.60711
0.806623
0.0104323
-0.00430134
-0.00997652
0.196825
-0.00267421
0.000166188
0.176283
-0.00318464
3.61642e-06
0.0163298
-0.0101283
0.106516
0.00158746
-0.0657891
-0.0787626
-0.0192727
-3.86231e-06
-0.00575551
0.0140519
-2.3097e-06
0.0425674
-0.0426912
-0.098094
-0.0446067
0.0161835
-0.00136572
-0.0468029
-0.0162326
-0.00152633
0.0562957
-0.0327471
0.0420832
-0.017754
-0.0198088
0.00697374
-0.107051
-0.1014
-0.0408077
0.0991696
-0.101446
-0.00383864
0.00942189
-0.000669538
0.0255019
-0.0262209
0.628249
0.179792
0.377559
-0.000521121
-0.00684535
0.217641
0.0354774
-0.0802012
-0.00375873
-0.0023237
0.661063
-0.0410043
0.127831
-0.0942329
-0.101834
-0.0177133
-0.0437817
-0.0169134
0.192935
0.514848
0.0305086
-1.85919e-05
-0.00663885
-0.0530839
-0.00110315
-0.000117249
0.0755092
-0.0403832
-0.101019
0.372475
0.842018
-3.43911e-06
-0.0157068
-0.0415015
0.0557369
0.00795308
-0.102726
-0.000216341
-0.0516862
-0.0368713
-0.00166536
-0.0437175
-1.198e-05
0.729393
0.00115393
-0.0455069
-0.0924645
0.752823
0.0460987
-0.0612756
0.236014
-0.038627
-0.00724632
0.194378
0.000899767
-0.0004415
-0.0372293
-0.00593675
-0.0660458
-0.00481125
-0.0986113
-0.077739
-0.0031561
0.00149492
0.129856
-0.0462323
-0.0321373
-0.0920264
0.679376
-0.00223893
0.167183
-1.29061e-07
0.864359
0.0262099
0.00874861
0.0414978
0.000639402
-0.0541255
0.0266676
-0.10201
0.181292
-0.166194
-0.0233324
-0.00611755
0.0492513
-0.00300298
0.046047
0.00600527
-0.000127042
0.0368009
-0.000449918
-0.00453351
-0.00229413
-0.0341715
-0.0698142
-0.0399943
-0.00571593
-0.0814751
-0.0476242
-0.00311158
0.000148206
-0.0517233
0.000191955
0.0206769
0.720236
0.157547
-0.126488
-0.145636
-0.0704301
-1.49561e-05
0.0297975
0.367074
-6.31883e-05
0.0342666
-0.00234419
0.147258
-6.01791e-05
0.0050828
-0.10189
-0.0414549
-0.0822604
-0.0114324
-0.0579208
0.0901213
-0.0118625
-0.0450067
-0.195196
0.00975052
-0.00465269
0.327675
0.269856
-0.0369463
-0.00295074
0.00161469
0.660628
0.00142047
-0.00952864
0.0146311
0.0219899
-0.000205824
0.0296984
1.06968
0.105819
-0.0430464
0.0145813
0.141585
-0.10303
0.0299624
-0.00465122
-1.46732e-05
-0.00048112
-0.00229071
1.00347
-0.00583026
0.0513837
-0.00011795
-0.00153175
-0.00684629
-0.0228516
0.109762
-0.0297068
-0.0301132
-0.015881
0.00301728
-0.00601657
0.884526
-0.0523194
-0.00469492
0.271141
0.229894
0.0264737
-0.00473721
-0.0180534
-0.000944163
-0.00045514
2.23906e-06
-0.00100146
0.0226082
0.210264
-0.0631598
0.500086
1.00937
0.0214277
2.54597e-06
-0.0232533
-0.0310072
-0.00141419
3.83569e-06
-0.0763074
0.0815276
-0.0459427
-0.00100142
0.0590382
0.0069908
0.00124783
0.000381526
-0.00210233
0.0255829
-0.0616237
-0.0205862
-0.0147781
0.021942
0.0208839
-0.000233726
0.228185
-0.094325
0.00311203
-0.0413913
0.149812
0.301248
-0.0331482
0.0403455
-0.0363078
-0.00308836
-0.192075
0.00116822
-0.000458109
-0.031119
-0.0476717
-0.00320785
0.444589
0.332834
-0.187677
-0.0047011
8.11846e-05
-0.0107549
0.0495647
-0.0115149
-0.0143499
-0.00472671
0.0031775
-0.00575749
-0.00589557
-0.00559457
-0.00025305
-0.143942
0.00012962
0.020496
-1.01289e-06
-0.102089
0.000557642
0.532416
0.275468
0.245345
-0.00456819
0.266373
0.136095
-0.00310046
0.00317849
-0.000238045
-0.00764848
-0.0443324
-0.0113118
-0.0111319
0.00332156
0.000548618
-0.000284971
0.000363414
-0.00133204
0.080505
0.000311357
-0.0318621
0.000176072
-0.071045
0.00145952
-0.00025126
0.298012
0.0980349
0.401907
0.000137421
0.000255014
0.0033084
-0.0321472
-0.0094641
-0.084626
-0.0456969
0.190721
-0.0137565
0.444299
0.00151713
0.00299823
0.474669
0.321715
-0.0536831
0.00479015
-0.100686
-0.0137936
0.000138512
0.0203662
-0.0936959
-0.0381493
-0.0645457
0.00152968
0.105164
-8.56841e-07
0.00489237
0.0489823
0.0584838
0.559977
7.20444e-07
-0.000115732
0.00338889
-0.0382528
-0.000946906
-6.42993e-05
0.0417316
0.904313
0.00676442
0.374808
-0.0309207
0.705494
0.184063
-0.00569818
-0.0791049
-0.0886887
-0.0137964
-0.000462575
-0.0066152
-0.00234184
0.586697
-0.0377825
0.471364
-0.0127078
0.242522
-0.0314816
-0.0223848
-0.0636553
0.198673
-0.00456379
1.35138e-05
-0.000108275
-4.47764e-05
-0.000980804
-0.0754059
0.000544041
0.0455431
-0.000392432
-0.000394914
0.00391427
-0.0105865
0.00139404
0.000907104
-0.0353959
-0.00731012
-0.00765114
0.617208
-0.0257288
0.0134966
-0.0198196
-0.0551491
-0.000279643
7.3042e-05
7.58038e-07
-0.0572705
-0.0880939
-0.0497929
7.16122e-05
-0.0241538
0.112061
-0.0321885
0.0215017
-0.000111271
-0.044055
-0.0168278
0.000271931
-6.33371e-05
-0.0450315
0.00329239
0.000586004
-0.0773545
0.000922515
-0.0848234
-0.0357067
-0.0308297
-0.0296767
0.00127391
-0.0614985
0.000625349
7.64411e-05
0.00856942
0.377373
0.747205
0.29672
-0.00134513
-0.0198209
0.326693
0.0256376
0.000545896
0.0646597
-0.0245002
0.0404729
-0.00650456
0.0980382
0.00194306
0.293296
0.001131
-0.00933125
-0.0312332
0.357352
0.000620021
-0.0369976
-0.0829463
0.187669
-0.033382
-0.00929901
-0.0547404
0.000190514
-0.187066
-0.00769003
0.0350544
-0.0317018
0.00511511
0.0916189
0.33723
0.727565
0.266567
0.268429
0.00275885
0.196706
0.0263079
0.348434
0.408158
0.000315254
-0.00242023
0.743137
9.61827e-05
-0.169245
-0.0207467
-0.0312296
0.00187266
0.0588362
-0.00230524
0.00324066
0.595797
0.844313
-0.000285336
0.000643818
0.0308501
0.000193384
-0.0820477
0.326973
0.2078
-5.37324e-05
-0.0511771
-0.0412736
0.00120347
0.0039091
0.128104
0.828539
9.53147e-05
6.94009e-07
0.344791
0.00347263
-0.000291802
0.0623258
0.00917294
-0.0057557
-0.00378943
-0.146115
-0.0266628
-0.00226219
-0.0472598
0.000662912
-0.000228873
-0.00335308
0.0289492
-0.000423317
-0.0354061
0.00149359
-0.0321133
0.361775
-8.39519e-05
1.06376
-0.0219402
0.704909
0.0312571
-0.000923496
-2.49568e-05
-0.000718093
-0.00938828
0.177715
-0.00314615
-0.0232838
0.603297
-0.0901138
-0.0906461
0.0274886
0.0373018
0.612768
-0.000841618
-0.0366014
-0.0317171
0.00050636
-0.00521049
0.00152167
2.42415e-05
-0.0763761
0.925738
-0.0869034
-0.00361707
-0.0336992
-0.000242508
0.0711284
0.128922
-0.0145745
1.09326e-05
0.371128
-0.0221859
-0.103268
-0.00342494
0.0202641
-0.0516688
0.00877011
-0.0438494
-0.00155465
0.498366
-0.00704543
0.132405
-0.0632017
0.0489983
-2.00037e-05
-0.0510326
-0.0355292
-0.0375567
0.0607844
-0.078586
0.000683152
-0.166054
-0.00239272
6.52619e-06
-0.00299186
0.000585965
0.838652
0.000519629
0.528942
-0.0344289
0.0469695
0.00538175
0.150177
0.00666163
0.232572
4.23918e-06
-0.0237452
-0.00252562
0.00279796
-0.0420129
8.81035e-05
0.0022536
0.762208
-0.0158191
0.000548102
-0.0794978
0.176887
0.62312
-0.000266206
-0.000518624
0.0317723
0.000425201
0.760559
-0.0158685
0.0810176
0.212173
0.000410374
-0.126445
0.265805
-0.000230637
0.0550164
0.739153
-0.00380092
0.000942855
0.00085498
0.00765429
-0.0311076
-0.0104339
0.453371
-0.013608
0.939475
1.10979
-0.00474967
0.000206905
0.474398
-0.0057467
-0.0272716
0.000606221
0.215725
-0.0632291
0.89714
-0.00236712
7.58873e-05
-0.022253
-0.0402056
-0.050841
0.0421254
0.0351743
0.180297
-0.000340094
-0.0432816
6.62235e-05
0.00299195
-1.21751e-06
-0.180138
-0.0543118
0.295166
-4.65041e-05
0.727619
-0.000744438
-0.00431374
-0.0010635
-0.0945
-0.019691
0.127541
-0.00027668
-0.0396242
0.00490031
-0.0204568
-4.37191e-06
3.07596e-05
-0.000440448
-0.0604956
0.00294539
-0.00187518
-0.0470699
0.000278805
0.000689641
0.0017611
-0.000904742
0.323897
0.105018
-0.0599459
-0.0385474
-0.0613457
-4.28466e-06
-0.0582205
-0.0776779
0.000806249
-0.0496541
-0.00271873
-0.0540128
-0.140979
0.00110229
-0.0103434
7.57878e-06
-0.00930025
-0.000696029
0.331859
-0.0128576
0.000380067
-0.000317436
0.0485877
-0.0707222
-0.0056943
0.000128703
0.458077
0.508975
0.00293395
0.0922202
-0.0943756
-0.0917832
0.000219912
-6.28524e-06
0.372314
-0.0523568
0.000292998
0.06492
-0.00152234
-1.27318e-05
0.0993371
-0.0949029
-0.0863318
-0.0965299
-0.0319938
-0.0110048
-0.0267434
-8.93054e-05
0.242375
-0.000264672
-0.0440108
0.0831629
-8.85874e-05
-0.0874493
-0.00628147
0.214712
0.00044045
-0.0139035
0.624218
0.0770201
-0.0408653
-0.03205
0.352646
0.0591917
-0.0203715
-0.0476264
0.323486
-0.00205914
-0.000616277
-0.15179
-0.0155941
-0.0201304
0.990364
-0.010668
-1.17347e-05
-0.161878
0.0045428
0.0104035
0.232072
-0.182998
0.0167853
-0.0035872
0.217626
-0.0329622
0.0995081
-0.00654709
0.176491
0.134379
-0.0425096
0.166646
0.289718
-0.000694398
0.0997168
0.842112
-0.148703
0.000841985
-0.0518092
0.210481
-0.0054062
0.0500017
0.347218
-0.00626085
-0.00315307
-0.00897981
-0.00674623
0.038924
0.0711784
0.000682929
0.617555
0.924903
-0.0535684
-0.00320017
0.0316836
-0.0628671
-0.0494051
0.346785
0.417273
-0.00362402
-0.0497833
-0.0625657
-0.0014299
0.115672
-0.09545
-0.00487005
0.0968582
0.000566771
0.234343
-0.0739469
0.190808
0.0303303
-0.177976
0.566997
-0.00229509
-0.0430273
-0.0806636
-0.000309041
-0.0347186
-0.0796813
-0.167381
-0.0565337
-0.00753637
-0.0213426
0.0425678
-0.193041
-0.000620803
-0.02039
-0.102877
0.257308
-0.0807297
-0.0863802
-0.0152985
0.00302296
0.29172
-0.0255773
-3.00355e-05
-0.00435968
0.00246695
-0.0200858
-0.0313042
-0.00295275
0.107534
-0.168275
0.0295253
-0.0567235
0.0821582
0.0674075
0.00291724
0.00555403
-0.00629811
1.03241
-0.0436421
3.393e-06
-0.00479446
-0.00065331
0.414852
-0.0216274
-1.80782e-06
-0.0131778
-0.00157101
-0.0498126
0.186048
0.11939
-0.0643048
-0.0318258
0.00192137
0.633834
-0.0409529
0.144251
-0.00948339
-0.135452
0.0168033
0.00573199
-0.000270969
-0.019351
-0.000345559
-0.0531684
-0.00185835
-0.1454
8.3311e-05
0.100724
7.71485e-05
-0.00448761
0.000211632
0.189682
-0.0341712
0.585879
0.020873
0.152922
-0.104262
0.00074585
0.577925
-0.0609353
-0.0319619
1.12607
-0.000946136
-0.0146741
-0.141138
0.0539155
7.84832e-05
-0.00682674
0.0105971
-0.0567337
-0.0415632
0.738141
0.00456353
-0.1448
0.185261
-0.161112
0.00712148
0.00312348
-2.81373e-06
-0.000254571
-0.00296715
0.0463786
-0.000782157
-0.00518687
-0.00233337
0.622306
0.538178
-0.0305246
0.000146289
-0.0763906
0.0780059
-0.0451586
0.000141029
-0.0680923
-0.0617091
0.00011885
-0.00824837
0.0658262
-0.0461194
-0.000193318
-0.0883109
1.00966
-0.0744103
0.000554475
-0.0964662
0.0549847
0.000890111
0.000154529
-0.141661
-0.00304626
-0.170992
-7.61474e-06
-0.014854
-0.0618279
0.88102
-0.0143029
0.010142
-0.0323784
-0.000372783
0.18872
-0.000680194
0.0426452
0.206264
-9.67163e-05
0.0577504
0.00347719
0.900908
1.12236
0.023131
0.799591
0.635822
-0.0422523
0.0359642
0.000399587
-0.0214732
-0.0712219
-0.00301341
-0.000281763
0.00760863
-0.00121821
-8.13216e-05
-0.0197623
-0.00107981
-0.0419158
-0.0930849
0.000111591
-0.000386687
-0.105203
0.000115803
-4.93077e-05
0.1832
0.0313799
-0.0366205
-0.00178201
-0.095861
0.0237095
0.0665795
-0.00437163
0.0071793
0.230221
0.089947
-0.0612841
0.00396459
0.00113831
-8.50984e-05
-0.0410853
0.485064
0.032946
-2.00575e-05
-0.138266
0.000162849
-8.54252e-05
0.177153
0.00118062
0.862026
-0.0030081
0.352163
-0.00629073
0.0070321
-0.00657669
-0.000351066
0.224586
-0.00142325
0.00292579
0.785909
0.737981
1.04873
-0.00384007
-0.171812
0.085679
3.09895e-05
-0.0614331
-0.00812199
0.348695
0.366216
0.00554801
-0.0441277
0.000128163
0.0970035
0.0011499
-0.0146696
0.0100341
-0.00159955
-0.00685056
-0.00899321
-0.00554047
0.0956326
0.187184
0.00402419
0.223549
-0.0439432
-0.151442
-0.0109582
0.0641234
-0.0340503
1.03961
0.527194
0.0487541
-0.0313086
6.79196e-05
-0.000338713
-0.0409583
-0.0753133
-0.0387006
0.0870009
0.332865
-0.0717112
0.151692
-0.000494049
0.0170714
-0.00929283
0.307837
-0.0994448
-9.45468e-05
0.226562
-0.000156872
0.000102644
-4.85385e-05
7.67675e-07
6.94599e-07
0.311183
0.00589858
-0.0370516
6.65989e-05
-0.202959
-0.0684033
0.561821
0.00417822
-0.00134962
-0.00488909
-4.85776e-05
-0.00108387
-0.120993
0.0369275
0.216662
-0.00933018
0.186019
-0.0315829
0.0149355
0.0430244
0.00115733
0.769637
0.000100972
-0.00546766
-0.0010097
-0.0317357
-0.0149819
0.287289
-0.00581077
5.74323e-05
-0.0825622
-0.00787557
0.347282
-5.21346e-05
0.000254453
0.000203023
-0.0508429
0.0051011
-0.0387299
-0.0957724
0.145005
0.556078
-0.00303511
0.000345433
0.00434363
-0.00219515
0.152587
-0.0760684
-0.00554538
0.0578574
-0.181403
0.00121581
-0.0815478
-0.00456045
0.00485791
-0.0677145
-7.73869e-05
0.0498912
0.336631
0.509064
0.255439
-0.000356773
-0.170651
9.66696e-05
-0.0503653
-0.0510697
0.141495
-0.0139749
-0.155757
-0.0464755
-0.0488286
3.8933e-05
-0.0138601
-0.0458571
-0.142481
7.73188e-05
0.129946
-0.00106406
0.389091
0.0812115
0.0283985
0.000156925
0.00133771
-0.00199372
4.46289e-05
0.156936
-0.0144417
-0.139515
-0.106893
0.0872724
0.617619
-0.0149332
-0.0464443
0.201626
0.0355325
-0.00192439
0.0309619
1.05752
0.00308759
0.0434669
-0.101779
-0.00500685
-0.0441626
-0.00506858
0.359104
0.00023775
0.175362
0.630262
-1.88991e-05
-0.0212999
0.000147794
0.140786
-0.019091
0.0145981
-0.00997309
-0.00522937
-0.0436531
0.000289364
0.00153058
-0.0220139
0.0163483
-0.00467398
4.43381e-06
-0.00364487
-0.0494967
-0.0938337
-0.00606788
-4.51489e-05
0.0292743
-0.0019196
0.00148846
0.0476922
0.245389
-0.0293135
-0.0249872
0.142504
-0.000391962
0.00037195
-0.051007
-0.000158082
-0.000166164
-0.0155122
0.0962769
0.00299837
-0.0109589
-0.00370588
0.0354351
0.000177483
-0.000715359
0.000145515
0.140623
-0.00197058
-0.00562169
0.0338319
-5.2292e-06
0.000547691
-0.000202536
0.307332
-0.00206374
-0.00930345
-0.00012348
-0.037923
0.220162
-0.00429878
-0.145329
-7.57845e-05
-2.30527e-05
0.016752
0.000380626
-0.00028136
0.580002
0.00897071
-0.00364279
-0.0982983
0.000319665
0.00119647
-0.0151079
-0.00135134
-0.00160936
0.742045
-0.000407588
-0.0446631
0.332632
-0.000282239
-0.0466624
-0.000864602
-0.0366677
-0.0651935
0.0443025
-0.0115315
-0.000804769
-0.00968713
-0.0615072
-0.00391706
-0.00927834
0.0016593
-0.00132865
-0.000122714
-0.000397082
-0.040675
-0.0388606
0.155731
0.00489096
-0.0212911
1.01937
0.175024
-0.0815835
-0.000379826
-0.037903
-0.0513073
0.0728526
-0.0755438
-0.0754763
0.141679
0.151718
-0.0256077
-0.0744704
0.52736
-0.0538733
0.000361334
-0.0973067
-0.101753
0.00540502
0.0116103
-0.0338019
-0.00235319
0.050876
-0.0489283
0.486161
-0.0563237
0.495697
-0.0606636
-0.00110827
0.00570461
0.000127914
8.88087e-05
-6.65821e-05
0.260458
-7.05972e-05
-0.0439609
0.00106374
0.0172854
-0.0643182
-0.000666802
-0.010863
-0.0464166
-0.000252423
0.250531
0.0105484
-0.00162094
-0.0441753
0.135839
-2.01725e-06
0.0767718
0.0012518
0.221295
0.0132833
-0.062211
-0.0457026
-0.00160461
-0.00119009
0.184035
0.306762
0.303469
-0.0082906
-0.0486339
0.48197
0.107395
0.0137861
-4.05368e-06
0.17317
0.0325407
0.000542612
-0.0576414
0.590562
-0.0316631
0.00121752
0.916844
-0.000237018
-0.00672704
0.136842
0.322696
0.15446
0.153403
0.66364
0.327345
-0.000406166
-0.00104774
-0.00178711
-0.00160335
0.156053
-0.0434218
0.483116
-0.00501642
-0.0109979
-0.0253624
-0.071953
0.000971189
0.00155109
-0.00102877
-0.0563256
-0.00111022
0.0325645
3.27813e-05
7.87115e-05
0.000288925
-8.4889e-05
0.00116
-0.0474827
0.0061816
-0.0563344
-0.0909196
0.981479
-0.0607087
-0.000275124
-0.00324591
-0.140331
-0.00158293
-0.000265203
-0.0215011
-0.00230021
-0.000960834
-0.0108179
0.0555134
-3.72792e-05
0.0312123
0.0108591
0.00032457
-0.000526565
0.0053963
0.0296387
-0.0580254
0.0935218
0.00775937
-0.0191677
0.00395071
-0.0639377
-0.00197477
3.46827e-05
0.000245047
-0.00649876
0.227204
-0.0583396
-0.00907266
-0.0152074
-0.0842945
-0.000800998
0.622641
-0.0177472
0.134256
0.00121873
-0.000994755
0.00017133
-0.0440504
-0.0999817
0.604191
0.636161
0.176462
-0.0213286
-0.0478603
-7.01884e-05
4.88537e-05
-0.0127733
-0.089464
0.287101
-0.138215
-0.0521246
-0.0491611
0.227212
0.0658108
-0.169827
3.06952e-06
0.0704567
0.236429
0.0193091
-3.08709e-05
-0.0129262
-0.00684658
0.300347
0.142188
0.0100132
0.00398427
1.02093
-0.0188559
-2.89645e-05
3.58597e-06
0.0337656
-0.0211348
0.1306
3.07694e-05
-0.106901
0.00418716
0.000161303
0.719284
-0.00693698
0.132448
-0.01399
0.00124864
0.0435623
-0.104306
0.26277
-0.0313277
-0.0194876
0.732499
0.00115306
0.040668
0.153829
0.478602
-0.00194276
0.139281
7.28551e-07
0.000878032
0.188665
-0.0161347
0.0259612
0.0756696
0.000399929
0.289921
-0.0949759
-2.69025e-06
-0.0875693
-0.0028177
-0.0107037
-0.000423853
-0.000111129
-0.0563842
-0.033483
0.00128932
-0.00565535
0.00324788
0.155145
0.554715
0.000300268
-0.0033982
-0.00076378
-0.0557772
-0.000474577
0.000120948
-5.1115e-05
0.512077
-0.00613829
0.00152158
-0.0387836
-0.0440613
-0.0892808
0.549146
0.384337
0.313465
-9.5112e-07
-0.139869
-0.0586075
-0.0119139
-0.0746725
-0.00200439
0.233424
-0.0256313
0.0141842
-0.00131571
0.043352
-0.0886444
0.0364288
4.09224e-06
0.0818322
-0.00010164
-0.000505865
0.0415182
-0.00244123
-0.0500867
0.994168
-0.0146893
0.00230864
-0.0041905
0.204546
0.327195
0.610514
0.344019
-0.0914489
-0.00345022
-0.0012947
-0.00406198
-0.0434756
0.00422324
-0.000146018
-0.021288
0.00295474
-0.0370527
-0.015095
-1.72123e-05
-0.0175786
0.0274363
0.692789
0.183448
-2.07393e-05
0.0837054
0.00128573
-0.0861159
-0.0916648
-0.0178054
0.582982
-0.000884146
-0.0554989
0.0271434
-0.000763904
0.000237731
-0.0447617
0.169665
-0.0522974
-0.0540919
0.0615777
-0.08524
-5.90926e-06
4.61857e-05
0.0545753
0.0125345
-0.0430608
-0.00128813
0.288816
-0.000248646
-2.45752e-06
-0.00137111
0.00507239
-0.0160221
-3.10798e-05
-0.0376136
0.0963778
0.202719
-0.00378329
0.421633
-0.0265856
0.205528
-0.0148384
0.014959
0.000151337
0.0419832
0.0548581
0.0880619
0.853379
0.259616
-0.0140723
0.00438854
0.305785
-0.0138769
0.337389
3.78938e-06
0.100163
0.13442
0.657515
0.00037362
-9.90441e-06
0.306214
0.629046
0.157954
8.24522e-05
-0.165525
0.107859
-0.00536184
-0.0021001
0.03443
0.0397019
0.0149125
0.482973
-0.0033211
-0.0599108
-0.00385043
0.0415643
-0.00227204
0.559928
0.148723
0.0514715
-0.0013715
0.136723
-0.07826
0.0180359
-0.0511276
0.000438301
-0.0478692
0.0280784
-0.00988672
-0.00418775
-0.0787225
-0.011839
-2.041e-05
-0.121055
-0.00515485
0.000510765
0.0165938
-0.00278203
-0.00562678
0.0451913
-0.000111812
0.0646013
-0.0713762
0.38701
-0.00038906
0.924598
-2.76335e-05
-0.0115632
0.0116382
-8.55493e-05
-0.009503
-0.00262294
-0.0914115
0.261147
-0.031683
-0.025721
-0.0600358
0.411352
-2.61397e-05
-0.151984
0.0616591
0.0226166
-7.70576e-06
1.0106
0.0105595
0.0253282
-0.00635299
-0.00269223
-0.000106649
0.390794
-0.00911176
0.183283
0.000386123
-0.0719852
-0.00194108
-1.01756e-05
0.470525
-0.00012556
0.231703
0.784591
0.278084
-0.0128314
0.212491
0.216957
0.387339
0.478924
0.303914
0.708647
-1.77467e-05
-0.0407425
0.222574
-0.000849625
0.2433
-0.0596074
-1.89748e-05
-0.000444581
-0.0456036
0.930503
0.0470668
0.00974621
0.140831
-0.000432655
0.000163346
0.0142388
-0.0403269
0.0145074
0.362368
0.896719
-0.033526
0.492125
-0.056692
0.0549641
0.585718
0.000156925
0.294152
-0.00917573
0.0484073
0.00291742
-0.124626
-0.0166575
-0.0372469
-1.55731e-05
-0.0250678
-1.64399e-05
0.229249
0.933298
-0.112566
0.00148737
-0.0380067
-0.0520226
-0.000117248
0.010568
-0.0429662
0.0110182
-0.0359826
-0.0382024
-0.00109662
0.00148877
0.0691358
0.00033732
-0.0479931
-4.55929e-05
0.157295
-0.00231413
-0.0515244
0.000329987
-0.00913975
-0.0516999
-0.0200139
0.00967328
0.00135265
0.0973765
-0.0490857
-0.0975544
-0.000282721
0.0657246
0.0690664
-0.0587584
0.476785
-0.0109806
-0.0989749
0.0162285
-0.00652888
0.0121856
0.000146271
-0.16389
-0.0309582
-0.00585843
-0.000276259
-0.00144711
0.137255
-8.79131e-07
-0.000854537
0.000184792
-5.18243e-05
-0.00337597
0.555813
1.06186
-0.000708376
-0.0019127
-5.19945e-05
-0.0769907
0.00608416
-0.0153883
0.0420414
-0.00275899
0.185097
0.00559095
-0.00202363
-0.00121599
-0.00911747
0.00704635
-0.000527416
0.415102
-0.00300882
0.914278
-0.0333528
-1.28278e-05
0.144648
-0.00139914
-0.0391266
0.226157
-0.00571552
-0.0321206
0.886443
-0.0551253
0.0046574
-0.0569847
0.0776242
-0.0109739
0.0411353
-9.17999e-05
-0.0397969
0.00138524
0.63467
-0.00682199
-0.0425532
0.0430703
-0.0109775
0.0473149
-0.00126872
-0.00661379
0.206503
0.00220135
-0.146421
-0.0108405
-0.00329841
-0.000889803
0.0119366
-0.0589522
-0.00209766
-0.0564691
0.010834
0.00153452
-0.0521721
-0.000596805
-0.000801678
-0.0027986
-0.000124604
-0.0934723
0.00214821
0.186702
5.06918e-05
-0.000965543
0.000149399
0.787143
-0.00012632
-0.0807362
0.0854371
0.210189
0.000679675
-0.00584852
0.00561712
0.00359181
-0.0227014
-0.0590563
-0.0515991
-0.0327659
-0.00935155
-0.000759135
0.151439
0.0495042
-0.0393341
-0.00186435
-0.206117
-0.0580273
-0.00029994
-0.0110203
0.0742507
0.887234
0.509748
-0.00555084
-0.066513
-0.0170794
-0.00093306
-0.000413573
-0.0367396
-1.7759e-06
-0.0920303
-0.0361144
-1.96316e-05
8.4047e-05
-0.062262
0.0202332
-0.0421564
0.0689949
0.000112257
-0.0587404
0.0295809
-0.0390998
0.000327067
-0.0563589
-0.000850396
0.255812
-0.0010819
-0.0709207
-1.08011e-05
-0.00276138
-0.0454109
-0.142777
-0.00910956
-0.0430061
0.000266003
0.047813
-0.0185887
-0.0383498
-0.091674
0.00882172
0.100285
0.93864
0.01152
0.0765556
0.000729156
0.000115671
-0.000357786
-0.0491817
-4.82778e-05
-0.00230875
0.0814759
0.816244
0.854657
-0.00130336
0.345932
-0.0100127
0.00141554
0.00833696
0.0432257
-0.0251259
8.2011e-05
0.0709069
-0.00422401
-0.138291
-0.0993115
-0.101501
-0.0366461
9.89578e-06
0.00170832
-0.0119931
0.26571
-0.0547179
0.000419417
-0.0491987
0.84285
-0.00311922
0.202618
-0.000102382
-0.0498794
-0.0063613
5.92267e-05
0.00190686
0.0452716
-0.00585575
-0.0997179
0.00645156
0.0481643
0.550323
-0.0113256
2.83132e-06
-6.17792e-05
-0.0390471
0.0591204
-0.0371086
-0.0149436
0.00228479
0.000998881
0.159673
-9.13128e-05
-0.00411856
-0.00132437
-0.0104958
-0.00484723
-0.00601461
0.11117
0.0161376
0.0103507
0.0454553
1.12142
-0.0925301
0.314204
0.144185
-0.0679174
-0.073304
0.00900563
-0.0682813
-0.0060061
0.187514
-0.0232529
0.000148699
-0.0095048
-1.76038e-06
-0.0879145
-0.00414322
-0.00312661
-0.0102278
0.265287
-0.000422065
-4.43073e-05
0.0404429
-0.161885
1.67934e-05
2.94384e-05
0.00220973
-0.169608
-0.000106659
-0.0605509
-0.00100459
-0.0428132
-0.0423376
-0.00608507
-0.0146177
0.129772
-0.0561997
0.000383348
-0.00130827
0.36643
-0.0113856
0.0251567
0.000141036
-0.0332546
-0.0335397
0.000156664
0.000509257
-0.0358986
0.00618503
0.590969
-0.000100163
-0.15869
-0.001419
-0.000822729
-0.000727121
-0.00617827
0.276191
0.00742639
-2.97809e-06
0.160546
-0.018096
-0.000843402
-0.0882765
-0.00214408
0.0578983
-0.0720893
-0.000340878
-0.00267805
0.0200455
-0.0415061
0.000119935
-0.184222
-0.0406732
0.028801
-0.0399907
0.0187799
0.560503
-0.0105949
0.0704018
0.177462
-0.000873378
0.000641691
0.349146
1.16516e-05
1.10124
-0.0121681
-1.47631e-06
0.207031
0.263037
-0.200887
0.0431386
-0.0519653
0.0590197
-0.00892777
0.0180911
-1.01782e-06
-0.0116351
0.0901177
-0.0375097
-0.022409
-0.00403486
-0.0686582
-0.00689269
-0.00438157
-0.000294679
0.0739282
0.865893
-0.0503197
-7.79732e-07
-0.000110711
0.00243991
-0.00244999
-0.184114
0.207107
-0.0721523
-0.0371101
-0.0884063
-0.0604839
0.801536
9.27571e-05
0.0370162
0.0105777
-0.0709803
0.0031271
0.102993
-0.00399955
-0.00141502
-0.0119862
-0.000141045
-6.09562e-05
0.0790079
-0.00282382
0.283241
-9.25226e-05
0.0748873
-0.0145783
-0.0370551
-0.0356345
-0.00716266
-0.0998055
0.0195089
-2.05407e-05
0.112171
-0.111359
-0.00117335
0.141395
-0.0710937
-0.0217662
-0.0461665
-0.165903
0.148222
-0.194005
0.110387
0.002211
-0.0320148
0.000286223
0.201338
0.0237912
-0.00041256
-2.23053e-05
0.158608
-0.00152647
0.0753899
0.222463
-0.169729
-8.01057e-05
-0.0328096
0.607209
0.141632
-0.00938503
0.20416
0.10574
0.0692814
0.000569051
-0.00285193
0.0294834
0.262678
-0.0482681
0.0013868
-0.00143006
0.000135586
-0.0657288
0.0160611
0.074995
0.0882574
-0.0305202
-0.0896449
-0.0496338
-0.076499
-0.0291927
0.40674
0.0487079
-0.106429
-0.00229046
-1.02055e-05
0.000112469
-0.109331
0.0032203
-0.00041602
0.175593
0.154653
-0.0462782
0.155682
0.009139
0.59536
-0.00216766
0.233892
-0.0501944
-0.00121611
-2.75072e-05
0.0524508
-0.0442104
-0.00143328
-0.0191458
0.318047
0.33512
-0.0261294
0.578997
0.233885
-0.0437669
-0.0392522
-0.0615672
-0.00560181
0.199038
-0.0662458
-0.000530904
-5.50931e-06
-0.0012729
-0.0420868
-0.00808258
-0.0329811
-0.0470632
-0.0465428
-0.00168468
0.634125
-0.0109186
0.340451
0.941842
0.213324
-0.0247959
-1.71384e-05
-0.042074
0.00282361
-0.011886
0.565697
0.162209
0.144982
0.795608
0.0108311
0.0592494
-0.0460284
5.89447e-05
0.343503
-0.00705918
-0.0510288
-0.0340485
0.0138665
2.9987e-05
-0.0562317
0.105632
2.82159e-06
0.929449
0.10875
-0.000638678
-0.000415581
-0.00184657
0.322967
0.119289
-3.0462e-06
-0.00190511
0.000134283
-0.0003443
0.00257748
-0.00187106
-0.0113388
-0.0056553
-0.00314859
-0.01196
-0.000748792
-0.000629335
0.0473371
-1.78089e-05
-1.15535e-05
-0.0214777
-0.0373453
0.00687715
0.47678
-0.0181814
-0.000831459
-0.0118632
-1.15574e-06
0.00631187
-0.0667196
-0.0759296
-0.132708
-0.000562225
0.352737
0.0554883
0.190638
0.0237127
-0.00329631
-0.0299888
-0.00735678
7.76181e-05
0.0146405
-0.116886
0.00040646
-0.0389319
-0.0310891
-2.2067e-05
1.00123
0.171053
-0.0017768
-0.0703792
0.101639
-0.0329633
-0.0138947
-2.53589e-05
-0.0427813
-0.0233515
-3.06575e-06
0.104964
-2.42495e-05
-0.00166546
-0.051616
-0.0995983
-0.00801335
-0.00903861
-1.09315e-05
-0.0694891
0.00304196
0.21017
-0.0441513
-0.000108266
-0.00835979
-0.00152133
-0.0906149
-0.116479
-0.0553548
-0.0126845
-0.0876486
0.158626
0.00179282
-5.45264e-05
-0.00422701
-0.0359678
0.0474513
0.753104
-0.0267513
1.07004
0.000432905
-0.0525139
-0.0981312
0.349545
0.580003
-0.0155505
-0.00231763
-0.0586099
-2.06327e-05
0.812229
0.323664
0.126213
-0.0543486
0.107638
0.154624
0.741781
0.285415
0.261601
-0.0725717
-0.0654923
0.336656
-0.0942992
-0.00206305
-0.0138941
0.0352771
0.00118882
-0.0317172
-0.000366552
0.00886769
-0.00129877
0.00341529
-0.0262246
0.000110558
-0.0422304
-0.0880382
-0.0726128
-1.33984e-05
-0.0065082
-0.000110586
4.30189e-05
0.184887
-0.0811478
-0.0199636
-0.000662187
0.0181323
-1.63027e-05
-0.000142713
-0.000751248
-0.000487825
-0.0763663
-0.0667731
-0.000399486
0.147317
-0.00271377
-0.0656872
0.0674354
-0.0101449
-0.00243021
0.000136852
0.0190059
-0.0545852
-0.00289302
4.68326e-05
0.00633178
-0.0642062
-0.0373754
0.0602366
0.000619789
-0.0422761
0.92347
0.00144786
0.00185649
0.0806969
-0.000724992
-0.00149687
-4.93508e-05
-3.00048e-06
-0.000193559
0.0305925
-0.0805091
0.671722
1.00419
-0.000557447
-8.14178e-05
-0.000537486
-0.0640771
1.13272
0.0426269
-0.0953413
-0.0562793
-0.000104869
0.00132006
-0.042517
-0.00238391
-0.0470227
0.0181011
-0.0138592
-0.0150348
0.00249923
0.829195
-0.0867079
0.000766664
-0.00219326
0.0397773
-0.0303848
-0.164687
-0.0947861
-0.0122645
0.433482
0.619129
0.181743
0.38531
0.125609
-0.0894237
-0.0124856
0.00733038
0.0949179
-0.045244
0.000616286
-2.11428e-05
-0.114721
-0.172388
-0.00112219
-0.0261233
-0.0794068
-0.0839813
0.606977
-0.00282227
-0.0413435
-0.0121242
-0.0395373
0.0907929
0.0382279
0.0073115
0.0057771
-0.0227113
-0.00679672
-0.0169135
-0.0458213
-0.00698255
-0.0836116
0.327991
-0.0499336
-0.0228856
-0.00660053
0.211197
-0.0380419
-0.0636048
-0.0737097
-1.49314e-05
0.366256
0.0929704
-0.0201266
0.00302525
-0.0333768
-0.0199823
-0.00300313
-0.071892
-0.0145124
-0.129641
-0.00875574
0.0032308
0.000133544
-0.000363134
0.0524451
-2.81187e-05
-0.0213628
-0.053492
-0.0503707
-0.000364327
0.000188143
0.000326997
0.00304093
0.0459053
0.0259248
-0.071735
-0.0663614
-0.011194
-0.0162902
-0.00370965
0.749086
-0.016707
-0.00597328
0.419526
-0.0230256
0.423689
0.748731
-0.0148354
0.169593
-0.0200485
0.0148566
-0.00409951
-0.00306816
-0.000527129
-0.0537596
-0.14619
-0.052792
0.00404278
0.149648
-0.0157059
-0.168081
-0.000529015
-0.00069158
0.351627
0.256016
-0.0171169
0.370812
-0.0136643
0.601603
-0.0096128
-0.00654015
0.0550321
0.0777297
-0.000267095
-0.00190256
0.287283
-0.0399765
-6.54765e-05
0.885323
0.162765
-0.00980507
-0.095052
0.332687
0.855949
-0.0082615
-0.0430234
0.000576876
0.00835522
-3.3021e-05
-0.0860636
-0.0751081
0.000324353
-0.0218785
-0.162888
0.0409244
0.190804
-0.0202951
0.280908
-0.0542883
-0.00368586
-0.172925