/*--------------------------------*- C++ -*----------------------------------*\
  =========                 |
  \\      /  F ield         | OpenFOAM: The Open Source CFD Toolbox
   \\    /   O peration     | Website:  https://openfoam.org
    \\  /    A nd           | Version:  7
     \\/     M anipulation  |
\*---------------------------------------------------------------------------*/
FoamFile
{
    version     2.0;
    format      ascii;
    class       surfaceScalarField;
    location    "18";
    object      phi;
}
// * * * * * * * * * * * * * * * * * * * * * * * * * * * * * * * * * * * * * //

dimensions      [0 3 -1 0 0 0 0];

internalField   nonuniform List<scalar> 
172499
(
201.225
56.6517
-257.877
-473.774
102
371.774
-111.346
-77.341
188.687
112.854
-278.321
165.467
-435.892
323.601
112.291
138.295
-337.119
198.824
-147.928
286.642
-138.714
-81.7044
194.398
-112.694
-363.393
351.917
11.476
-465.118
-8.65617
-229.974
354.479
-124.505
495.001
-360.235
-134.766
-169.529
341.106
-171.577
89.2887
-90.2518
0.963063
-44.0176
-319.375
-106.195
60.8731
45.3219
-456.098
86.4981
369.599
-411.57
77.0228
334.548
-119.182
286.123
-166.941
-331.912
-103.979
-73.4011
182.43
-109.029
199.082
-197.021
-2.06105
392.805
-290.25
-102.555
159.784
-313.201
153.416
-230.349
202.084
28.2652
-117.296
225.805
-108.509
67.7899
71.9204
-139.71
-207.533
462.091
-254.557
-263.252
-175.897
439.148
-51.5445
100.715
-49.1701
427.818
-342.024
-85.7937
-246.227
-67.6972
313.924
-267.319
405.833
-138.514
-101.136
-76.0296
177.166
-74.694
-98.2964
172.99
182.21
95.394
-277.604
-223.989
93.0004
130.989
-99.6896
-356.408
114.523
-146.361
31.8375
118.279
200.74
-319.019
157.429
-403.656
-57.6015
-353.969
-131.116
-35.6329
166.749
-118.978
301.188
-38.6812
102.2
-63.5189
-2.31758
91.6063
264.141
65.6212
-329.762
543.639
-303.528
-240.112
397.829
-148.355
-249.474
414.134
-534.081
119.947
-390.721
478.202
-87.4803
279.812
-101.713
-178.1
-472.03
329.862
142.167
-504.398
451.002
53.3963
-119.107
-166.119
285.226
-316.744
-155.286
554.4
-365.467
-188.933
-132.578
81.9664
50.6116
85.2601
75.752
-161.012
127.877
-229.843
101.967
-515.348
327.476
187.871
-186.319
330.957
-144.638
345.987
-129.394
-216.593
-104.684
185.7
-81.0163
295.883
87.1806
-383.064
9.42791
-401.253
391.825
-351.664
197.284
154.38
-219
398.729
-179.729
79.3431
-144.718
65.3746
-535.621
254.594
281.028
-108.421
201.532
-93.111
198.868
-152.335
-46.5325
369.69
-251.411
-134.738
67.979
66.759
-95.493
-91.3609
186.854
80.4722
-164.456
83.9834
-206.188
49.1119
157.076
202.535
-402.996
200.461
-246.852
-142.153
389.006
-293.152
218.069
75.0833
-77.7586
-215.394
429.784
-432.782
2.99799
39.5321
-84.616
45.0839
-306.005
557.455
-251.449
-137.27
240.806
-103.536
342.477
152.524
-108.889
177.776
-68.887
-324.471
472.878
-148.406
105.688
-117.882
12.1945
-86.6974
441.524
-354.826
133.942
-5.15354
-128.789
202.55
-20.3905
-182.16
206.539
-469.791
221.271
50.201
-271.472
-420.56
315.184
105.377
-574.968
416.884
158.084
261.966
-321.805
59.8397
94.5014
-54.9693
86.358
-162.315
75.9569
0.445483
105.242
-314.488
-200.86
199.736
-434.413
234.677
327.955
-178.028
-149.927
-485.435
499.338
-13.9029
105.093
-213.514
169.554
-93.6154
-75.9382
-503.22
316.556
186.664
-39.0768
102.183
-63.1066
-142.047
225.224
-83.1772
-311.342
-71.1297
382.471
-122.701
232.639
-109.938
-54.66
316.626
-175.252
-30.9363
134.104
106.975
-241.079
-107.329
46.5232
60.8061
204.435
-345.459
141.025
-307.577
77.6029
-93.4119
219.621
-126.209
363.999
-541.567
177.569
49.5786
149.289
-211.9
118.488
-66.2514
-39.9436
-222.966
115.18
107.786
45.9597
-170.214
124.254
-230.663
532.609
-301.946
-112.422
60.8772
-264.854
78.535
-115.015
75.4928
39.522
-181.063
-41.6954
222.758
-506.652
509.391
-2.73924
-107.73
235.428
-127.699
567.175
-287.764
-279.411
-172.533
185.755
-13.2228
538.96
-196.484
-329.439
480.847
-151.407
-117.755
227.331
-109.576
-259.191
177.127
82.0644
62.7448
-330.064
148.1
-267.207
182.754
148.204
84.6748
52.4596
-137.134
-191.349
341.107
-149.757
502.983
-504.542
1.55856
380.32
-197.09
-183.231
-266.653
158.924
141.96
-532.682
438.109
-331.776
-106.333
-115.47
-149.384
-451.951
232.951
-226.702
-167.576
394.277
107.589
61.9648
55.2022
-93.8834
7.8187
194.732
-567.957
273.279
294.678
133.124
146.689
-360.167
427.337
-67.1699
-412.191
100.849
-67.1259
220.099
-152.973
132.879
-133.052
0.172884
-152.643
112.169
40.4742
150.476
-70.0033
137.738
300.372
158.351
187.636
-189.314
147.322
41.9918
263.695
-143.613
-120.082
139.932
173.387
-313.319
444.824
-259.284
-185.54
-60.6256
-105.765
166.391
-189.613
122.487
-241.312
123.824
117.488
-241.608
156.137
85.4706
-101.911
366.052
-96.8554
-27.9916
124.847
26.6608
60.825
-87.4857
-72.2667
-82.5775
154.844
219.453
-436.337
216.884
-71.7737
98.4344
193.704
85.786
-279.49
114.266
-333.283
219.017
277.189
120.64
-288.824
-131.416
420.24
-192.613
97.1199
148.649
-260.079
111.43
-207.796
415.282
-207.486
-272.932
-230.289
-162.553
384.873
-222.319
95.4134
-261.844
166.431
311.372
188.628
-136.864
325.319
-188.456
126.024
7.91799
-106.07
299.774
-338.821
189.029
149.792
452.803
-166.373
-286.431
-202.758
116.481
86.2771
-232.547
115.25
70.1773
-131.101
60.9233
21.3317
-93.1054
-172.793
163.662
9.13074
55.9016
-146.832
90.9307
83.2218
137.802
-221.024
-568.395
389.085
179.311
-187.922
361.135
-173.213
363.206
56.7355
-419.941
481.283
-479.312
-1.9715
-338.446
169.049
169.397
135.586
-90.5533
-45.0327
369.966
-271.358
-98.6087
-87.3015
383.185
-213.099
-196.295
409.394
97.7591
-209.192
111.433
-68.3475
89.6792
49.076
267.48
16.9262
-247.275
-384.205
297.507
-163.014
-64.0749
227.089
-85.1744
-117.583
-99.7002
252.812
-153.112
-183.453
-137.036
320.489
79.3984
-81.7159
-123.608
-261.42
385.028
130.608
8.72981
-139.338
134.937
-0.467132
-134.47
135.184
-329.498
194.314
-75.5193
139.024
-63.5045
-73.5439
-430.854
-178.544
16.6109
161.933
-199.899
-81.151
281.05
184.752
-68.539
-116.213
137.978
-67.801
-349.279
100.27
249.009
0.17679
-412.791
412.614
68.6759
-117.884
49.2083
49.3653
-131.074
81.7092
84.0431
-176.377
92.3336
-236.989
122.032
114.956
-225.388
-343.007
-641.87
285.499
356.372
392.656
-204.838
-187.818
-55.3521
160.252
-104.9
239.746
-166.3
-73.4455
-44.2166
149.207
-104.99
-293.003
166.07
126.933
-117.925
-34.7178
153.029
-66.6712
278.218
-217.24
-60.9787
-234.648
407.629
-172.981
446.928
-220.834
-226.094
134.682
-86.3717
-48.31
-162.874
102.248
-63.8884
-32.6003
96.4888
202.768
282.606
-485.374
-370.525
240.927
129.599
226.679
-530.235
303.555
387.338
-236.633
-150.705
118.843
-73.9177
-44.9257
-6.15178
-282.672
-73.9177
177.199
-103.281
-561.549
299.191
262.358
503.696
-503.696
-186.997
105.293
369.997
-376.149
-3.80622
83.2046
-479.745
271.95
-127.762
124.058
3.70456
40.7374
-182.784
257.927
-145.073
-104.78
150.74
179.555
-279.933
100.378
103.961
96.4304
-200.391
-100.455
207.201
-106.746
415.213
-131.529
-283.684
-327.288
190.425
428.037
-150.849
-222.562
-70.441
141.811
177.449
-319.26
-188.173
104.253
83.9196
44.6489
-99.5489
54.9
-170.744
98.4768
-248.228
297.847
-49.6193
75.7589
-114.836
-121.299
-68.0154
97.1556
184.446
-404.771
220.325
69.5069
66.0791
456.581
-254.299
-202.282
172.44
206.353
-378.794
65.2326
-243.777
497.185
-507.217
10.0326
116.942
-71.0395
-45.903
99.8636
-149.857
49.9931
108.966
-64.3167
-500.323
66.1283
434.194
-167.416
29.2132
138.203
367.6
-318.524
-258.598
409.611
-151.013
-480.485
302.685
177.8
364.242
-244.487
-119.755
-139.839
-213.347
353.186
-161.526
345.149
-183.623
-230.455
130
-68.7648
-22.9092
91.6741
110.146
-192.642
82.4956
-60.4934
132.288
-71.7945
308.904
-193.281
-115.622
85.199
38.7101
-123.909
-128.904
281.419
-152.514
-252.436
165.966
86.4697
111.925
72.8266
100.362
-128.533
28.1707
-172.669
286.935
-91.9788
-187.471
279.45
124.15
16.5444
-140.695
-97.0108
162.221
-65.2105
-152.334
96.9822
-330.322
160.792
-180.014
346.417
-166.403
338.929
113.874
177.8
-412.448
272.792
-113.007
-178.628
122.692
55.9355
-4.39898
-179.17
183.569
262.751
-386.359
-57.8002
421.006
-34.6649
-72.6644
182.807
71.491
-254.298
-142.868
59.5876
83.2805
-367.922
7.75525
196.141
-412.313
216.171
29.4176
-98.1824
-151.566
-15.8504
194.072
-286.051
-432.874
-67.4486
141.681
229.436
-371.117
219.133
145.11
124.184
-58.0998
-66.0845
172.213
102.059
-274.272
-256.197
167.367
88.8301
80.3357
-357.608
277.272
352.996
-214.701
243.327
-147.914
83.6228
107.938
-191.561
-132.088
268.205
-136.117
127.818
-60.0281
91.4553
-181.748
90.293
265.983
-89.2524
-176.731
-170.394
-212.855
383.249
-174.981
-73.247
-69.4144
-34.4269
103.841
78.4807
49.5133
-127.994
320.534
-173.124
-147.409
-214.112
41.5793
-509.045
345.663
163.381
364.793
5.20379
170.245
-290.339
120.094
185.362
-102.141
181.657
90.2687
-271.926
-50.7517
251.977
-105.321
-299.56
404.881
-171.272
388.653
-217.381
-113.066
262.234
-149.167
-172.326
282.453
-110.127
145.069
-98.098
-46.9711
-146.034
-77.9552
-137.331
82.088
55.2434
273.635
-156.885
-116.75
-438.081
332.76
-160.823
163.562
-2.7384
-185.752
111.682
74.0703
303.809
-168.625
-168.961
473.04
-304.079
199.691
-88.6128
-111.078
65.0204
87.4259
-152.446
72.7821
61.8997
25.6717
229.891
-255.562
94.632
105.283
-199.915
63.3266
305.903
-369.23
147.942
510.433
-96.2987
225.787
95.8127
-321.599
-141.574
298.924
-157.35
136.057
-67.3813
213.446
-118.194
-95.2525
-80.7666
202.979
-122.212
139.09
-252.156
395.911
-223.471
-371.329
369.338
1.99143
141.107
-91.7419
-58.1443
-37.3377
95.482
489.017
-165.416
-63.1031
184.947
-121.843
-229.695
427.202
-197.507
275.93
173.914
-449.844
68.4244
-177.313
-454.401
246.868
-22.2194
157.157
-324.774
187.396
137.378
2.90797
97.4544
-316.484
-132.085
448.569
267.526
160.511
-75.1943
-84.346
159.54
96.7759
2.45021
-99.2261
-242.115
354.62
-112.505
124.265
-117.5
-6.76502
-165.563
391.113
-225.549
-126.466
131.657
-5.19081
55.6312
122.737
-178.368
142.048
-471.487
-169.591
261.367
-91.7759
-97.3952
249.033
-151.638
-133.388
197.715
-64.3276
254.54
-162.395
-92.1456
-274.594
87.1225
237.326
-407.72
-39.4572
214.071
-174.614
-225.794
88.5244
196.139
101.708
381.82
-114.294
82.4669
-135.563
53.0959
353.322
69.9338
-423.256
-196.469
406.56
-210.091
-232.838
-267.158
22.7985
-91.146
601.511
-379.311
-222.2
-38.4917
129.76
-91.2681
-160.427
63.4158
304.128
-390.875
86.7463
-136.989
192.62
-392.258
379.683
12.5755
330.007
224.393
147.956
156.976
-304.932
-504.758
382.558
122.2
-352.516
426.174
-73.6583
-99.4129
252.715
-153.302
179.813
-67.8879
128.794
180.11
125.81
-295.401
-124.627
269.941
-145.314
382.826
218.686
336.281
-330.402
-5.87866
325.156
-529.556
204.4
341.474
-138.939
-102.736
-403.916
64.6522
-216.313
151.661
80.5466
-155.741
357.392
99.1891
181.929
-81.629
-100.3
237.964
169.665
134.617
233.657
-368.274
-101.071
377.001
413.474
-194.022
-405.722
14.6073
391.115
-291.196
-180.981
472.177
421.594
-291.8
-129.794
489.764
-249.568
-240.197
-70.3929
-92.4809
-59.7211
272.31
-212.589
57.8616
83.8604
-141.722
83.815
-141.112
57.2967
157.962
156.592
-314.553
-184.988
31.3131
153.675
35.4263
88.8383
412.079
-174.115
374.939
114.078
-263.6
-152.169
415.768
-31.1072
155.258
-174.578
101.177
-161.19
-219.944
381.133
-25.3773
86.2022
-37.9647
-147.023
166.344
-457.54
199.442
-33.0826
-56.9524
90.035
217.305
-57.0535
-90.3947
-44.3433
-260.489
135.862
-103.186
285.993
-324.718
499.956
-175.238
261.322
-422.512
397.485
-197.749
104.156
195.754
-299.91
-142.733
65.4401
77.2929
-367.321
488.641
-121.32
307.407
-227.071
554.663
-227.51
-327.153
115.386
101.919
358.785
-116.938
-241.847
-271.737
434.52
-162.783
139.531
-245.597
106.066
-160.673
32.6329
128.04
-153.15
-77.3059
153.477
-394.852
241.375
10.8469
-119.326
108.479
454.186
-194.673
-259.513
303.271
-477.005
173.734
-227.636
188.178
90.4065
109.284
101.771
-5.94605
-95.8254
253.808
-119.704
249.802
142.854
322.637
-180.843
-141.794
-326.839
217.298
109.541
-487.533
399.689
87.8446
184.118
-100.075
-108.544
188.393
-79.8488
-181.525
-70.9104
348.426
-44.2979
118.704
10.939
-129.643
-117.747
201.369
-130.244
86.0277
-529.504
360.255
169.248
311.444
-141.199
226.348
160.99
161.351
-397.985
-474.618
238.099
236.519
-248.145
164.312
83.8331
112.558
-42.7036
-69.854
-219.072
-203.089
422.161
101.273
147.559
-248.832
-407.091
282.511
124.581
-272.156
-134.935
-561.642
373.497
188.145
-283.579
102.054
585.973
-299.797
-286.176
-148.831
-176.756
325.587
-132.449
137.431
-4.98221
-165.345
274.746
-109.401
-254.421
155.008
-414.571
302.451
112.12
106.049
92.0131
-198.062
-370.385
194.121
176.264
-112.45
-129.158
141.996
-104.69
-37.3061
276.248
105.573
573.969
-316.415
-257.554
253.319
-519.759
266.441
55.8453
-117.382
61.5369
95.1706
6.60077
-62.386
145.472
-83.0861
272.974
300.995
72.2972
-173.434
-289.131
157.043
118.765
-39.4221
115.609
158.026
347.271
82.5131
107.972
71.8416
38.9157
-187.21
148.294
365.269
-514.249
148.98
-60.9412
326.11
-265.169
-33.9576
117.773
174.717
379.946
-146.866
359.046
-212.18
66.7842
-164.962
98.178
-341.001
-300.869
-63.3541
-35.8077
99.1618
6.59994
-139.049
-107.325
118.172
176.898
-85.4423
179.171
-328.002
-138.263
78.5278
59.7352
-351.887
-87.6978
439.585
-338.279
521.846
-183.567
108.506
-370.633
262.128
54.8518
-143.109
88.2573
-112.896
-236.384
292.138
109.132
-401.27
177.481
-112.829
250.098
-141.845
-108.253
554.798
-192.365
-362.433
-370.075
52.5881
317.486
331.647
90.7609
-422.407
-478.897
498.978
-20.081
-146.181
-76.7853
-94.0763
198.037
142.739
179.898
249.622
-535.705
286.083
376.972
-367.544
461.486
-169.348
552.984
-298.827
-254.157
-224.051
245.107
-21.0558
-52.0095
170.713
-95.7396
-255.9
351.64
56.7833
446.913
-67.0099
-85.3245
142.576
-84.7143
321.201
-163.239
129.961
58.62
-188.581
166.955
-226.676
-68.2168
-100.27
168.487
552.67
-552.67
-3.29039
-123.176
281.076
-168.439
-112.637
-309.387
-171.099
-162.598
92.2054
-366.42
-119.015
-76.9256
141.946
204.127
-293.989
185.428
108.561
11.7887
-404.047
129.944
105.641
-235.586
88.6239
118.578
134.119
-49.4445
-67.0373
-303.037
75.9644
-249.579
173.615
-13.2811
-392.441
-298.273
151.407
-132.331
-183.824
316.155
113.137
235.454
-348.591
-328.357
500.849
-172.492
-91.1263
-36.6359
-72.4172
103.969
-31.5523
-99.4441
181.41
-81.9655
227.83
169.524
-397.354
316.902
-212.746
405.8
-186.667
-304.334
-200.424
153.916
-273.098
-163.099
88.4049
-412.914
308.09
104.825
83.9445
-435.832
90.5862
150.363
-240.949
-221.962
-153.336
375.299
40.5133
-101.007
131.966
-163.073
-116.294
-225.179
341.473
-301.842
240.901
-100.714
-52.4412
153.155
-188.26
109.48
78.7795
358.23
-517.273
159.044
319.221
-212.739
-106.482
156.437
290.491
79.3089
83.9889
-163.298
387.205
-160.857
146.88
-514.2
257.247
-181.282
157.446
161.776
-64.6917
-348.223
217.6
-377.122
159.521
408.438
-237.382
-171.056
75.4135
-260.395
184.981
-228.826
-10.1104
238.936
65.7997
-157.121
91.3215
83.7853
-161.333
77.5475
193.567
212.232
-48.7386
145.515
-334.309
418.254
135.779
234.097
-369.876
-105.169
309.604
77.5301
106.475
-184.005
41.7839
-314.673
272.89
-139.33
145.93
278.639
-458.065
179.426
-92.9817
222.942
271.86
-455.235
196.637
-95.459
0.522203
94.9368
38.2471
121.372
-159.619
219.121
235.065
-114.147
191.677
339.878
-28.4403
-311.438
-124.032
444.717
-320.684
101.948
290.857
44.5743
227.736
316.644
134.466
-451.11
327.974
-268.305
-59.6681
-32.343
-128.48
-208.536
90.7813
-76.7575
-30.765
107.522
13.6259
-90.3835
-314.885
173.31
-75.1076
-176.609
251.717
191.12
127.639
-318.759
-222.594
-47.5658
270.159
-153.358
86.3484
81.7992
-181.243
-84.0264
-318.657
402.683
-79.7607
-142.801
517.635
-238.996
-70.6643
74.3558
52.8999
-127.256
-169.539
82.1695
87.3694
71.7361
-91.7031
19.967
106.051
172.835
-278.886
-186.856
105.954
80.9027
-137.247
318.905
-98.5737
-126.161
224.734
-327.082
-208.539
-243.861
127.802
116.059
-229.282
527.005
-297.723
442.694
-289.217
-72.5202
-94.3011
166.821
-74.1542
103.572
-183.617
323.53
-139.913
-118.364
269.567
-151.203
163.091
-68.9688
-94.1217
-251.144
359.65
142.88
-85.813
-57.0668
-274.102
280.011
-5.90929
-277.638
129.71
196.131
10.4389
-206.57
-197.554
387.974
-190.42
125.1
-60.8095
-64.2905
227.345
-468.615
241.269
-497.836
173.365
164.541
-33.9323
-140.087
0.756734
-189.859
88.1114
101.747
-149.384
366.984
146.158
-79.374
80.8759
-415.185
-42.3338
-69.4221
111.756
-105.568
-509.238
357.364
151.874
249.06
78.9132
-305.75
-160.761
466.511
-83.79
298.799
102.211
-140.703
-54.7329
-133.44
-232.913
-243.422
476.335
-198.308
-242.929
441.237
-285.773
273.729
12.0437
313.676
-250.349
-297.213
-211.831
340.839
-509.8
100.214
95.9837
-196.197
-383.257
212.316
170.941
157.289
217.65
-77.6421
142.758
-65.1156
-330.358
526.168
-195.81
-186.643
134.182
52.4612
-131.05
43.4624
87.5879
52.5431
-124.96
-63.9163
395.563
94.0413
64.0471
-158.088
503.202
-186.558
-115.762
264.411
-318.605
157.079
-287.027
287.027
-149.955
240.541
-548.84
281.589
267.252
-239.079
-95.7861
334.866
186.928
-148.012
-125.06
132.527
-7.46685
-251.461
79.1351
123.364
-483.599
40.0217
76.9207
-137.029
-311.752
448.781
-232.459
368.239
-248.896
149.196
500.412
-244.011
-256.402
-191.321
-37.5049
150.02
-328.048
-568.47
398.494
169.976
-285.364
-156.693
-203.503
37.8343
165.669
-51.1532
-113.388
164.542
133.615
120.192
-66.6596
111.836
-45.1764
-0.573236
62.3865
-61.8133
222.961
-222.01
-0.951068
212.844
-337.855
125.011
68.8672
-177.411
-72.8951
-154.74
105.027
-199.301
94.2742
-393.448
-264.52
335.602
-71.0814
83.9344
41.1656
-19.4014
-117.275
136.676
-150.464
-201.2
155.863
-386.69
230.827
-173.768
101.248
88.1284
47.3759
-135.504
37.6147
-138.329
-156.927
239.317
-82.3898
155.176
107.778
-262.953
-155.788
-287.245
443.033
171.141
-421.692
250.55
106.979
-156.858
49.8785
-540.728
308.915
231.814
465.28
-323.43
-141.85
-501.516
176.799
-125.805
122.515
-68.142
-106.436
311.227
-412.299
-344.523
-130.095
-158.735
-135.254
-380.703
155.939
224.764
-213.831
134.071
-46.2834
307.251
-260.967
-91.2269
-241.286
128.837
173.868
103.073
-276.941
258.807
-454.471
195.664
196.662
-98.9028
-316.632
103.893
223.791
-95.9149
-327.565
-112.151
439.717
383.592
-227.729
-331.851
336.473
-4.62159
-71.343
123.018
-51.6752
-380.41
167.555
-312.419
126.492
185.927
132.695
-132.695
-194.938
-256.078
451.016
471.555
-390.679
64.5704
-264.47
3.96497
335.913
333.661
221.137
-240.874
-47.7589
288.632
126.279
6.33426
-132.613
-73.1791
139.342
-66.163
-182.342
113.668
68.6736
-323.01
-244.947
-164.436
96.2191
116.844
-42.4883
-272.636
-302.333
-144.87
82.4842
132.701
208.405
73.363
34.3342
-107.697
-45.1364
137.575
-92.4386
379.783
173.2
-170.319
-113.26
-336.287
-172.951
-156.443
-100.266
256.709
-69.3789
-272.655
342.034
-350.306
190.041
160.265
-91.6633
-103.892
195.556
337.807
-505.066
167.26
209.163
-354.619
145.455
234.91
-413.789
178.879
-79.4204
-53.1577
-237.962
165.067
166.883
-395.147
228.263
-150.793
99.6396
-380.039
192.117
-205.786
363.075
-75.9096
142.966
-67.0564
90.6225
-142.531
51.9084
27.0825
-90.971
-154.024
366.868
483.498
-465.546
-17.9517
-96.4132
151.265
-78.3034
135.411
-57.1079
260.885
-455.823
-57.3471
164.202
-106.855
-149.271
289.203
390.877
-507.238
116.361
231.363
76.2787
-307.642
49.0986
-101.533
52.4347
-35.8583
107.594
59.0648
32.7763
-91.8411
-41.6932
142.206
-100.513
-10.7922
160.815
-150.023
176.649
-71.6229
387.339
-137.537
-72.0969
276.412
-204.315
-303.722
-48.7944
182.446
-103.644
-78.8022
197.195
-303.935
106.74
-239.808
-147.216
387.025
-85.0826
175.705
-274.202
162.154
112.049
230.148
-356.663
126.514
-324.198
203.951
120.246
252.172
-133.553
-118.619
-134.465
68.9692
65.4962
183.699
-396.797
-109.085
-73.4398
182.525
-44.7392
-135.399
180.138
97.9211
-245.29
147.369
-112.5
207.132
186.023
-98.6465
-87.376
-57.494
-110.89
168.384
-39.517
171.483
-163.771
-117.511
281.283
-304.784
-8.65008
313.434
49.3103
-110.128
60.8179
169.014
96.9691
116.724
107.068
-85.7009
97.5568
-11.8559
-203.503
-55.6414
446.518
-2.80558
117.329
377.309
13.3774
-390.686
388.977
-326.232
-476.66
179.447
59.0532
48.6613
-107.714
-145.544
-33.0831
83.1265
-259.879
176.753
118.845
-383.365
-175.855
-34.6515
266.014
-68.8068
264.938
257.216
158.066
-411.029
213.475
-143.633
65.9905
389.366
-162.687
241.83
-105.474
-136.356
259.031
-328.41
304.564
-184.368
-120.196
180.72
-169.707
-11.0136
116.734
-67.424
-215.352
-235.525
450.877
-194.337
32.8209
161.516
492.333
-485.649
-6.68451
240.432
-69.1588
-171.274
244.335
246.715
-491.049
271.272
-173.351
-164.521
300.928
-136.407
-159.457
307.412
-134.888
220.241
-85.3524
-189.705
-148.74
71.1776
-151.994
80.8166
105.425
-203.999
352.13
119.425
-241.335
-173.237
-63.1126
-106.426
116.557
-43.1942
-172.417
275.544
-103.127
-65.3732
150.633
116.963
-43.8664
-73.0964
-136.855
79.3612
-581.519
372.01
209.51
58.5985
-137.672
79.0736
-178.718
261.845
-66.366
131.519
-65.153
71.8786
45.0843
-142.881
363.758
-220.876
-123.801
-101.339
225.14
-57.7514
-37.4437
95.1951
337.78
-145.143
-192.638
242.565
-84.2328
-158.332
-379.833
-310.467
-166.193
-55.4381
-96.6185
152.057
121.872
-311.845
189.973
142.563
-71.3853
-122.326
-3.47883
174.608
-421.46
312.283
-94.9847
-163.321
100.218
-171.314
82.716
88.5984
338.861
-129.697
159.775
-128.026
-31.7492
-79.7687
-91.5457
65.3181
-131.525
66.2069
100.605
-168.747
115.731
-64.1161
-104.162
168.278
-90.2726
224.502
-134.23
121.312
-40.0211
-81.291
-269.314
-35.4694
121.832
91.6138
-85.0075
10.8532
-98.6261
212.731
-114.105
-97.3563
99.4452
-2.0889
-99.2124
-78.0042
-95.9275
173.932
483.847
-385.895
-97.9515
422.726
-111.498
139.742
-101.495
-425.695
463.887
-38.1927
-178.59
305.382
-126.792
-236.928
301.498
99.5147
86.5078
-70.4827
-115.269
-93.021
272.576
-147.101
297.354
-150.254
40.7877
57.9167
-98.7044
-296.584
157.432
139.151
116.834
-60.9891
-82.9609
-69.3744
-219.916
-187.377
407.293
139.54
344.306
-456.325
258.016
239.761
-239.761
-68.4823
80.7773
-12.295
185.231
-106.682
-78.5496
246.001
-540.002
294.002
182.944
154.836
-252.689
356.461
-103.772
123.102
-64.5036
-203.68
130.081
73.5992
156.959
330.238
-487.197
254.081
-120.465
-317.543
161.998
155.545
92.7133
-184.026
91.3128
281.685
156.694
-438.378
-228.249
104.448
91.3026
-161.812
70.5094
137.647
-179.34
-170.086
397.916
-181.031
108.667
72.364
173.625
-105.856
-67.7696
-94.6791
370.48
-275.801
332.517
-165.562
-34.9991
106.687
-71.6883
180.215
179.116
-359.331
-207.499
-248.826
-90.7734
349.58
98.1148
-184.169
86.0544
-204.876
399.387
-194.511
157.736
-65.0228
318.704
-219.325
-99.3786
140.086
-57.6189
-219.806
-159.153
83.2432
-620.248
303.834
132.854
493.634
-501.55
7.91636
210.198
189.314
-399.512
114.313
45.4626
-373.478
-114.056
149.419
-153.818
14.6513
-300.424
-24.6846
-122.094
146.779
158.94
-296.376
137.436
126.147
273.542
-131.905
88.2874
43.6178
47.5367
-182.936
35.9338
-70.0088
34.075
263.371
95.4143
262.439
-173.512
-88.9274
145.378
-79.5786
-395.114
274.816
120.298
-260.073
-360.175
186.009
54.4235
144.926
-455.892
310.966
-64.5252
-78.6201
143.145
33.2983
-124.91
91.6116
288.529
211.883
-2.85186
380.161
-77.6512
-68.7095
428.625
-146.941
78.7659
-131.453
52.6866
-463.999
260.488
203.51
-201.769
-245.573
447.343
-366.487
566.486
-200
280.969
146.849
-173.83
249.743
-75.9133
-162.516
263.789
351.97
-277.069
-74.9011
-179.55
290.706
-111.156
-184.935
-153.885
-109.307
-171.801
281.108
86.7909
32.0187
-118.81
188.474
-82.4244
440.457
-378.718
-61.7386
-184.075
113.975
70.1002
84.4199
267.991
-352.41
121.227
-33.0982
347.459
92.998
-66.9175
158.22
-101.425
-30.4799
-225.968
514.175
-288.208
4.01494
191.678
-195.693
225.041
-393.07
168.029
-81.0053
-41.3839
122.389
288.951
98.3874
-83.4728
-20.9109
104.384
-129.967
112.229
17.7378
-186.837
126.38
60.4567
182.859
384.315
97.5823
-38.5175
-269.841
-125.273
228.521
-443.872
413.731
-509.864
96.1324
67.7271
223.105
-31.824
-191.281
130.148
-64.8302
80.9099
-408.475
-77.5938
-88.6188
166.213
100.29
-8.27216
-92.0176
-112.938
43.5235
120.511
134.029
152.363
-329.145
176.783
-91.6752
161.74
-70.0646
152.444
-357.319
358.423
-236.551
341.854
-82.823
-361.067
-200.482
-288.334
472.681
-184.347
429.262
-324.291
-104.971
-9.25611
-341.953
351.209
-336.448
-176.372
512.82
-151.991
-8.6819
65.8852
-29.9515
-505.215
262.615
242.601
-161.907
-97.2838
-72.2582
-62.2072
-47.758
154.737
-95.091
170.843
-554.692
382.756
171.935
97.5154
-161.632
-23.9811
89.3015
-65.3204
181.41
-146.381
197.04
-318.069
121.029
322.447
-255.474
-66.9732
87.4114
-397.453
310.042
215.327
-98.6031
114.569
255.397
-90.2194
-98.0402
108.969
-59.8703
474.804
-299.338
-175.466
-267.299
363.999
-96.6996
-121.54
191.967
282.838
-417.835
31.8682
385.966
-289.103
-190.642
142.578
-221.091
78.5129
-130.149
-80.8979
211.047
107.637
210.892
-318.529
39.8309
-265.915
-239.3
-92.4132
-33.3278
125.741
-203.558
326.177
-122.619
481.309
-175.405
412.885
-67.2219
-301.538
172.634
94.5652
5.72453
-273.354
-33.2116
306.565
57.2924
-373.776
-408.884
137.147
129.025
-16.847
-112.178
169.19
-277.695
108.506
-108.819
263.995
-458.715
334.683
-76.8961
-80.225
497.281
-149.823
-240.482
406.753
-166.27
218.889
-346.042
127.153
470.109
-111.88
57.2628
61.5806
-309.173
135.343
354.719
-202.477
-152.242
-171.959
296.876
-124.917
133.786
347.523
168.847
-269.585
100.738
389.874
-107.363
361.626
128.534
-490.159
329.099
-226.11
-102.989
473.78
-502.707
28.9265
123.383
-76.5358
-46.8471
338.726
-225.589
-11.2592
-84.1999
-80.6826
-182.227
262.909
40.5467
-123.083
82.5362
-148.691
65.7305
-307.188
474.403
-167.215
-87.267
-50.9961
-194.64
198.655
105.14
47.3063
-129.484
82.1779
288.475
3.8131
-292.288
-145.027
91.6819
53.3448
-100.813
454.135
182.039
122.525
-145.574
304.514
-236.833
156.067
335.624
53.3522
-158.591
-158.952
16.8845
226.442
-250.163
79.8434
-141.152
241.025
-99.8735
58.7765
-135.702
414.746
-204.548
-370.999
376.835
-5.8359
-132.637
494.262
67.3062
-138.367
71.0609
131.701
-68.4266
-141.762
210.189
-152.081
185.701
-71.3883
68.4962
23.1104
-91.6067
62.1082
-128.052
65.9436
-255.184
157.789
-98.3889
-69.2489
167.638
-267.754
-293.781
126.918
166.863
117.745
-84.4472
53.6067
-113.466
59.8593
56.9544
-187.104
143.707
137.712
-116.308
268.586
-152.278
-141.205
88.1451
53.0602
-79.8354
201.393
-121.558
-375.357
212.804
-182.499
362.714
151.948
-271.136
119.188
251.653
166.75
-418.403
-53.3664
-32.2558
85.6222
331.452
97.8107
336.834
-147.778
-189.056
-157.686
406.186
-248.5
165.243
-70.9641
325.726
-254.762
327.681
121.68
-449.36
474.561
336.423
134.726
-471.149
249.32
-456.82
190.123
-27.1306
-162.993
-338.411
183.687
154.724
-127.023
16.4899
110.534
90.0891
18.8843
-108.973
-61.0076
-81.7255
12.6004
-383.6
-356.321
213.439
61.362
192.637
-253.999
-377.993
307.029
222.326
123.321
-345.647
-55.0778
108.039
-52.9614
-100.557
-150.055
250.612
568.649
-257.277
63.1758
135.907
-139.796
-280.255
420.051
-122.786
170.322
-221.962
384.643
-162.681
-358.943
44.0701
314.873
-178.082
-279.153
457.235
-67.469
-63.5814
-564.252
366.718
197.534
300.631
-182.056
-118.575
-124.08
346.406
-167.463
69.0741
111.226
-188.82
152.421
89.4096
-162.549
-490.526
250.993
239.533
-170.751
90.9826
-266.193
97.7546
-294.261
-287.258
-58.2157
-243.627
95.9209
-332.255
236.334
-203.417
-173.07
64.3319
108.738
-246.803
-69.8281
-114.203
-38.5494
152.752
-50.0399
-43.5197
93.5596
-318.882
224.203
22.7723
-91.4432
68.6709
158.182
-190.006
153.862
-365.565
211.703
4.01845
-277.372
-191.629
316.443
-124.814
-240.31
254.961
106.507
-132.911
-89.4791
222.39
402.056
-411.312
113.038
-72.2502
285.339
189.732
-475.071
-80.8349
-89.9164
-78.4757
272.547
364.704
-367.556
95.0682
-4.97903
409.943
-125.923
-284.02
106.003
166.482
-272.485
140.939
-51.8011
-121.084
172.885
276.419
-122.644
-153.775
347.764
42.1103
128.682
-88.1356
-501.729
173.373
67.7177
-134.084
-131.173
69.0164
62.1568
-52.9791
165.759
-112.78
-141.58
-76.8742
218.454
25.5455
-97.535
71.9895
-124.127
43.1215
177.197
-186.261
9.06398
230.662
-281.216
50.5546
-218.554
76.9742
-87.6935
-76.7621
-52.7483
-68.3934
121.142
142.567
187.403
200.571
-225.509
179.226
176.716
-135.95
-40.7654
-377.822
269.948
107.874
234.608
-84.2448
336.15
161.131
335.083
103.101
-438.184
-130.097
-136.556
-537.844
251.051
286.793
224.426
-309.542
85.1154
142.202
120.237
-95.0076
60.0085
-39.958
98.2352
-58.2773
-271.765
-220.022
491.787
-415.272
441.882
-26.6103
-267.207
104.193
-127.756
-457.653
-21.2634
478.916
209.899
243.819
-453.718
-123.837
-188.582
-149.035
-147.548
95.4924
-26.9962
-337.362
135.593
-32.2449
171.776
-127.248
-274.306
173.935
100.371
83.484
66.9915
-131.232
-144.03
275.262
139.549
-92.2423
416.402
-294.471
-121.931
-137.154
356.043
-210.255
-49.8243
457.154
24.1295
-114.41
-75.3786
189.788
454.654
-0.195439
-454.459
-91.6601
326.722
-235.062
116.822
82.4191
-199.241
-374.671
222.87
151.801
-130.447
-107.501
-166.805
141.122
-73.8162
-108.113
290.331
-182.218
138.255
142.066
-280.321
-150.452
-53.2287
-246.228
-177.542
423.77
116.976
476.437
-332.685
-143.752
-153.828
147.655
-93.3077
-54.3469
33.9916
-90.9439
202.901
-271.708
294.398
-352.613
-404.439
346.638
193.563
-317.4
230.733
181.346
439.543
-204.633
-236.069
163.972
94.4698
82.4278
-92.3991
111.376
-164.355
-270.935
290.05
-19.1153
-277.225
-21.0472
77.546
-140.631
63.0849
116.162
286.245
-159.327
247.774
-138.973
-108.801
-80.4677
139.244
-270.139
120.482
-188.908
311.109
-62.5448
-248.564
-260.025
469.924
484.803
-148.653
-370.092
267.193
102.899
-22.2839
476.938
-221.777
417.918
-86.0431
-203.168
289.211
104.991
-263.154
158.163
11.582
291.103
-334.611
-247.387
581.998
147.731
-348.145
200.413
-292.78
392.817
-100.037
-114.812
451.235
352.331
-126.544
176.074
-89.5783
369.586
-280.008
-79.7888
-65.2378
-244.807
155.455
89.3521
176.427
149.75
63.9861
-59.7284
-279.812
339.54
-386.13
-78.9872
-134.112
-197.664
-338.029
229.915
-412.884
412.884
171.887
-337.606
165.72
179.613
-340.511
160.898
231.682
79.4275
53.6577
37.926
-91.5837
218.146
-371.482
287.699
-465.781
241.344
-38.3652
144.778
159.03
72.7521
197.917
-270.67
124.933
-72.9555
-51.9777
-71.8644
-293.438
365.303
114.636
-185.223
70.5872
-72.5342
186.321
-113.787
331.916
4.36514
-77.9155
80.3657
-276.287
321.613
-45.3264
42.3296
147.794
92.2732
18.1192
-110.392
-316.473
-42.4702