/*--------------------------------*- C++ -*----------------------------------*\
  =========                 |
  \\      /  F ield         | OpenFOAM: The Open Source CFD Toolbox
   \\    /   O peration     | Website:  https://openfoam.org
    \\  /    A nd           | Version:  7
     \\/     M anipulation  |
\*---------------------------------------------------------------------------*/
FoamFile
{
    version     2.0;
    format      ascii;
    class       volVectorField;
    location    "7";
    object      U;
}
// * * * * * * * * * * * * * * * * * * * * * * * * * * * * * * * * * * * * * //

dimensions      [0 1 -1 0 0 0 0];

internalField   nonuniform List<vector> 
30084
(
(1.00757 -0.00924521 5.4364e-22)
(1.0072 0.00260594 1.90014e-21)
(0.993453 -0.00241244 -3.04727e-21)
(0.979158 -0.0386293 9.02545e-22)
(0.998309 -3.62618e-05 4.31689e-22)
(0.967982 -0.0240975 -1.42313e-21)
(1.04941 -0.0503715 -1.48954e-22)
(1.01021 -0.0139992 -5.77537e-23)
(1.00141 -0.00135172 7.24356e-23)
(1.00012 -3.24884e-05 1.9851e-23)
(1.01189 -0.0187827 2.91648e-23)
(0.998829 -0.0117847 -9.68967e-22)
(0.999678 -0.000134607 5.86217e-23)
(0.999983 -6.93901e-06 1.4463e-24)
(1.07647 0.0705279 6.63484e-21)
(0.995726 -0.00140474 4.61936e-22)
(0.999882 -0.000593286 -2.37938e-23)
(1.08649 0.0143678 -6.73468e-22)
(0.998522 -0.00128214 -1.47546e-22)
(0.992208 -0.000595498 -6.70054e-22)
(0.999415 -0.000187038 -2.02139e-22)
(1.00133 -0.00135506 2.54081e-22)
(0.99338 -0.00255766 3.34891e-21)
(0.998529 -0.000119278 1.90715e-22)
(0.934922 0.0621993 5.92313e-22)
(1.0077 0.00209106 1.02361e-20)
(0.999656 -3.76043e-05 1.33708e-22)
(0.965389 0.0524689 -4.34216e-20)
(1.07908 0.0714751 -1.66293e-20)
(0.999559 -0.00642915 -1.89485e-22)
(1.01076 -0.00720024 3.64888e-22)
(1.02501 -0.00367817 -2.5812e-21)
(0.992771 -0.0912671 8.10201e-21)
(0.999275 -0.0164353 4.58035e-22)
(0.964204 0.049813 3.56778e-20)
(1.00361 -0.0231663 9.65164e-22)
(1.0391 0.0320084 -3.40745e-21)
(0.979871 -0.0214546 3.9455e-21)
(1.00378 -0.000563525 -9.75551e-22)
(1.00361 -0.000343006 1.84494e-21)
(1.00029 -0.000121299 -5.92702e-23)
(0.992739 -0.0224285 -3.5137e-21)
(0.999896 -0.000575597 -4.25179e-25)
(1.02426 -0.0497543 -2.63868e-21)
(1.00002 -2.38277e-06 -4.17969e-24)
(0.999669 -0.00652327 1.49959e-22)
(0.998385 -0.00874912 -2.74934e-22)
(1.00005 -5.93853e-05 1.0738e-23)
(1.0023 -0.00254836 -1.03367e-21)
(1.0392 0.0304419 -1.4115e-21)
(1.09551 -0.04513 -2.71523e-22)
(0.981481 -0.0337459 -4.25552e-21)
(1.02463 -0.00303382 9.04761e-22)
(0.969081 -0.0238643 -2.38643e-21)
(0.99583 -0.00144829 -4.07542e-22)
(1.08315 0.0673712 -1.08179e-20)
(0.997633 -0.00159623 1.44447e-22)
(0.999396 -0.000208573 2.55856e-22)
(1.00051 -0.0153965 -5.82996e-22)
(1.01103 -0.0414934 -1.67238e-21)
(0.999962 -5.45682e-06 3.51306e-24)
(0.998567 -0.00130901 -3.04957e-23)
(1.13946 0.0576871 4.29451e-21)
(1.00381 -0.0225883 -5.00814e-22)
(1.02949 0.0656896 2.47152e-20)
(0.948549 0.0171033 8.73599e-20)
(1.00004 -0.0195328 -1.16301e-21)
(0.995049 -0.00999522 1.36922e-21)
(0.960458 0.0110561 3.54111e-20)
(1.00031 -0.000117312 3.83876e-23)
(1.0086 0.00269572 -1.39564e-20)
(0.989957 0.0439123 2.61884e-20)
(1.00233 -0.00635632 -4.42682e-22)
(0.946014 0.0719543 2.20317e-20)
(0.994328 -0.000462548 2.15171e-21)
(1.08454 -0.0172126 1.5199e-21)
(1.0953 0.105654 2.21412e-20)
(0.980351 -0.0120907 9.57203e-22)
(0.999972 -1.33203e-05 -9.92328e-24)
(1.00496 -0.0345787 -1.8309e-21)
(0.968674 -0.00056757 -1.60903e-21)
(1.01315 0.024427 7.85981e-21)
(1.0078 -0.00965716 -1.6271e-21)
(0.999999 -3.94777e-05 -9.82783e-25)
(1.05086 -0.048545 4.32195e-22)
(1.19272 -0.0524861 -7.70496e-22)
(1.01654 0.055789 -4.54276e-20)
(0.999665 -0.000133529 -5.29539e-23)
(0.999688 -0.000119468 -1.55467e-23)
(0.951504 -0.0317646 -5.97633e-21)
(0.997915 -0.0388221 4.22803e-21)
(0.98028 -0.012674 1.05979e-21)
(1.00216 -0.00264472 1.7912e-22)
(1.03927 -0.00360704 -1.61779e-21)
(0.946091 -0.0136482 -4.99501e-21)
(1.02024 0.0673775 2.19635e-20)
(1.00094 -0.0505681 6.50219e-21)
(1.00032 -0.000267322 9.70493e-23)
(0.980664 -0.0487245 -7.51617e-21)
(1.06948 0.0808807 2.65252e-20)
(0.99997 -1.3814e-05 1.44864e-23)
(0.981234 -0.00788545 -5.72808e-21)
(0.999963 -6.3102e-06 -1.81239e-24)
(1.03216 -0.0106255 -8.40618e-21)
(0.980412 -0.0337025 2.83724e-21)
(1.02323 0.00885402 1.48592e-20)
(1.00025 0.0419658 4.1398e-20)
(0.9997 -0.000120851 -1.31409e-22)
(0.999997 -4.65502e-05 -5.22265e-26)
(1.00516 -0.0855449 -3.48448e-22)
(0.990842 -0.0904103 -7.29153e-21)
(1.03192 -0.025732 1.15695e-21)
(1.00001 -1.06905e-06 7.79325e-25)
(0.999245 -0.00433637 -5.24029e-22)
(0.999933 -0.00154938 1.84525e-23)
(0.991711 0.0450184 6.86425e-23)
(1.02309 0.0361302 -1.67408e-20)
(0.991686 -0.00526672 -2.28778e-21)
(1.00001 -4.47637e-05 1.25223e-24)
(1.00257 -0.00625896 -3.31269e-22)
(1.18319 0.0331361 -1.38021e-20)
(1.00508 0.0080021 2.2107e-20)
(1.12458 -0.0114921 9.39096e-21)
(0.947638 0.0209479 -8.09224e-20)
(1.00075 -0.000249084 -2.39633e-22)
(1.11225 -0.000245897 -3.07807e-21)
(1.08446 0.0161995 -3.62924e-21)
(1.01415 -0.0395958 1.00072e-21)
(1.00278 -0.00243248 -9.15555e-22)
(1.00001 -0.000300528 3.73726e-24)
(1.02369 -0.0482828 9.40314e-22)
(1.0977 0.104115 1.23725e-20)
(0.996736 0.0796431 4.24234e-20)
(1.13363 -0.021538 1.86627e-21)
(1.03095 -0.0105947 7.12475e-21)
(1.01047 -0.00679369 6.89161e-21)
(1.02857 0.103981 3.41017e-21)
(0.980325 -0.000559918 8.10023e-21)
(1.12733 -0.132467 1.10354e-20)
(1.07107 0.0785645 -2.01492e-20)
(1.11004 0.00240734 3.42386e-21)
(0.956099 -0.00394287 -6.6458e-21)
(0.964916 -0.0338514 1.79658e-21)
(1.00001 -6.18285e-07 -3.24591e-25)
(0.999993 -1.83998e-06 6.46493e-25)
(0.998266 -5.87435e-05 -3.38205e-22)
(0.998504 -0.00857161 5.68139e-22)
(0.992654 -0.0682604 -5.7064e-21)
(1.11831 -0.0919458 3.08444e-21)
(1.13236 0.0891335 1.7278e-20)
(1.02147 -0.0119187 3.67068e-21)
(1.01269 -0.0132277 1.2787e-21)
(1.00029 -0.000427419 1.51053e-22)
(0.999912 -0.000151729 1.41374e-23)
(1.0012 0.0225997 -4.61283e-20)
(1.00036 -0.00107949 1.72499e-23)
(0.995355 -0.0081196 2.30619e-24)
(1.03512 0.106121 -1.04587e-20)
(1.00321 0.0311698 -4.8184e-20)
(1.09688 -0.0417611 1.49526e-21)
(0.970198 -0.00211766 2.76302e-21)
(0.979872 -0.0377903 6.46033e-21)
(1.08236 0.0701313 2.72759e-21)
(0.999971 -3.02134e-05 3.09334e-24)
(0.999991 -1.71614e-06 -2.35204e-25)
(0.991657 -0.00554752 8.27121e-22)
(0.965832 -0.0330885 -1.01361e-20)
(1.00003 -0.000154318 -1.14494e-23)
(0.999999 -4.20898e-05 -7.6876e-25)
(0.995247 -0.00365326 -2.66526e-22)
(1.00001 -0.000292248 -3.1197e-24)
(1.00395 -0.00407844 -5.1798e-22)
(1.03301 0.107449 1.18474e-20)
(0.980625 -0.000272356 -6.86053e-21)
(1.04151 -0.0805925 -1.29563e-21)
(0.99648 -6.80102e-05 1.3886e-21)
(1.00146 -0.00188006 5.39107e-23)
(0.980688 -0.00775313 9.46836e-21)
(0.99945 -0.00432748 -4.60929e-23)
(1.1248 -0.00324516 -7.83628e-21)
(0.999989 -6.42908e-06 4.69956e-24)
(1.01068 -0.02689 -4.79515e-23)
(1.01766 0.0570088 1.61057e-20)
(0.995255 -0.00924715 -8.40995e-23)
(1.12101 -0.130341 -1.06005e-20)
(1.01827 0.0305519 -1.47228e-20)
(0.995591 -0.00201059 -2.0179e-21)
(0.98725 -0.0112654 2.53486e-21)
(1.00267 -0.00243703 1.39133e-21)
(0.999516 -0.00598337 -2.6377e-22)
(0.999821 -4.90767e-06 1.50469e-23)
(1.0045 -0.0125128 3.83738e-22)
(0.944852 0.0104254 3.37816e-20)
(1.00109 0.0209235 3.55932e-20)
(0.989874 -0.00447097 6.71459e-23)
(0.995574 -0.00799216 -8.53265e-22)
(0.984332 0.0238738 -3.4769e-20)
(1.0092 0.0191958 6.78279e-21)
(0.947256 -0.0134638 6.2373e-21)
(1.00077 -0.000355612 -1.87795e-22)
(1.06246 -0.063285 7.18976e-22)
(0.981293 -0.0650208 7.6537e-21)
(0.999033 -0.0120385 4.70784e-22)
(1.00058 -0.000740689 -3.02171e-22)
(1.02966 0.106111 4.85443e-21)
(0.995407 -0.00366513 -1.84195e-22)
(1.00467 -0.00366804 -5.73252e-22)
(0.991253 -0.0679539 7.4121e-21)
(1.00561 -0.0877544 8.66178e-22)
(0.999978 -1.66507e-06 1.1455e-24)
(0.983066 0.063453 -4.16025e-20)
(0.999309 -1.65972e-05 -3.29628e-24)
(0.999998 -3.39097e-05 -1.97873e-25)
(0.99964 -0.000141548 2.24779e-23)
(1.00008 -0.0388282 -1.51536e-21)
(1.12747 0.0642063 -1.4932e-20)
(1.01127 -0.0262765 1.36366e-22)
(1.00449 -0.00341368 -3.94162e-22)
(0.998543 -0.00016783 4.7369e-22)
(0.948297 -0.0150067 -1.07379e-21)
(1.00003 -0.000321649 -2.73218e-24)
(1.00033 -0.00110509 1.61787e-24)
(0.998426 -0.000139074 -3.11589e-22)
(1.018 0.000287547 1.39281e-20)
(0.998178 -0.00275811 -9.6561e-23)
(0.999264 -0.00403894 1.55858e-22)
(1.01805 -0.00094471 7.13344e-21)
(1.00008 -0.000269941 1.63805e-23)
(1.00002 -1.54174e-06 1.08756e-24)
(1.00343 -0.000413345 2.04988e-22)
(0.982982 -0.0243386 -3.19138e-21)
(0.982799 -0.000305702 -3.32432e-21)
(0.996704 -0.000259279 -1.47325e-21)
(1.00927 0.00202833 1.15791e-20)
(0.988928 -0.000819451 1.57576e-21)
(1.01286 -0.0128375 -1.1976e-21)
(0.999983 -7.43501e-06 4.0884e-24)
(0.997969 -0.00181569 -5.65523e-22)
(1.00055 -0.000730133 3.26975e-22)
(1.06137 -0.060554 6.15236e-22)
(1.05911 -0.139711 1.07353e-20)
(0.999073 -8.26271e-05 2.44179e-22)
(1.00031 -0.000384118 -1.16529e-22)
(0.999205 -0.00392965 -5.34363e-23)
(1.00248 -0.00553865 -7.99761e-22)
(0.992379 -0.000438136 -2.86909e-21)
(0.999971 -2.74532e-05 -2.16546e-25)
(1.18644 -0.0513681 -7.09802e-22)
(1.00003 -0.00033161 3.90389e-24)
(1.01779 0.000196942 -9.81249e-21)
(0.997709 -0.00160411 -2.92666e-22)
(1.00009 -0.000258604 6.69192e-24)
(1.02252 0.00903837 -9.45263e-21)
(0.977047 -0.0624586 -8.01078e-21)
(1.00016 -2.95605e-05 6.44271e-23)
(1 -6.08647e-06 1.18214e-26)
(0.955964 -0.00282703 -7.58653e-21)
(1.04366 -0.129342 -1.68154e-21)
(0.994028 -0.00585806 -2.18248e-22)
(1.01354 -0.0405586 -2.91246e-22)
(1.02211 -0.0123481 -6.01716e-22)
(1.02111 0.0563476 1.97064e-21)
(1.00005 -5.58547e-05 2.94325e-24)
(0.983333 -0.0237931 3.2789e-21)
(1.15787 0.0105545 -8.89416e-21)
(0.97462 0.03355 8.58332e-22)
(0.995206 -0.00903335 6.46856e-22)
(1.01773 0.0294547 1.79826e-20)
(1.0838 -0.0146517 1.11655e-21)
(0.999888 -0.00169811 -1.48634e-23)
(0.897923 0.0299617 4.35923e-20)
(0.999635 -0.000297573 -1.52401e-22)
(1.04139 -0.0834145 -1.92008e-21)
(0.949198 -0.0149734 7.5462e-21)
(1.00155 -0.00177761 -2.95744e-22)
(1.12423 0.0327858 1.11292e-20)
(0.994037 -0.00066997 -1.70459e-21)
(0.9975 0.0856568 3.0215e-20)
(0.997614 -0.000188379 1.31464e-22)
(0.987647 -0.0121226 -1.32101e-22)
(0.999857 -0.00154765 -1.16143e-22)
(1.05586 0.0929961 5.80154e-21)
(1.00039 -0.0120982 1.06891e-22)
(1.01841 0.0674193 1.32039e-21)
(0.999667 -2.66657e-05 -5.86637e-23)
(0.995946 -0.00134444 -6.42254e-22)
(0.973211 0.0769399 -1.75318e-20)
(1.0213 0.000673941 -1.18392e-20)
(1.01797 -0.000465029 8.27876e-21)
(0.979773 -0.0311559 7.9423e-21)
(0.999904 -2.02898e-05 1.50436e-23)
(1.00243 -0.00530143 -9.37885e-23)
(0.999887 -0.000648396 -4.14158e-23)
(0.999999 -3.21627e-05 -8.45525e-26)
(1.03715 0.00640201 3.5429e-21)
(1.00002 -3.44273e-06 1.20162e-25)
(0.985883 -0.0108293 5.94091e-21)
(1.15643 0.0070034 8.07205e-21)
(0.933606 0.0649611 -4.11744e-20)
(0.998438 0.0800354 -6.75697e-20)
(0.979207 -0.0536013 2.4921e-21)
(0.990754 -0.021986 1.92804e-21)
(0.983676 -0.00114252 1.59102e-21)
(1.02566 -0.0244089 3.34449e-21)
(1.00494 -0.0123135 -5.76736e-22)
(0.987167 -0.0117993 -3.49848e-21)
(0.980176 -0.058874 1.0883e-21)
(1.02 0.0575098 -3.05111e-20)
(0.999483 0.0216992 5.78639e-20)
(0.999135 -0.000102414 1.34398e-22)
(1.00124 0.0426507 -5.68162e-20)
(1.03665 0.00530529 1.30427e-21)
(1.12696 -0.0077473 -2.60585e-21)
(1.00989 -0.0107042 5.57889e-22)
(1.00099 -0.0111497 -3.8123e-22)
(1.01896 -0.0363831 -2.54205e-22)
(0.996245 -0.00129521 -1.52359e-21)
(0.998171 -0.000465292 -1.00124e-22)
(0.999965 -5.75192e-06 1.86283e-23)
(0.999395 -0.00612651 3.88151e-22)
(1.07018 -0.0203109 5.55694e-22)
(1.05543 0.0955196 -9.1212e-21)
(1.00109 -0.000931533 1.4085e-22)
(0.980626 -0.0200341 -4.74759e-21)
(1.01108 -0.0109079 -1.78256e-21)
(0.999977 -9.96687e-06 -1.58683e-24)
(0.979649 -0.05613 -3.95785e-21)
(0.91952 0.0509185 -2.03531e-20)
(0.99565 -0.00343639 2.25607e-21)
(0.999231 -0.00320717 1.37419e-22)
(1.01023 -0.0105913 -3.46793e-22)
(1.00465 -0.033508 2.37485e-21)
(1.05291 0.0266277 4.51223e-21)
(0.999775 -0.00694149 -6.9809e-23)
(0.99998 -3.57659e-05 9.55353e-24)
(1.00001 -8.52393e-07 4.13519e-25)
(0.998148 -0.000423374 -1.10454e-22)
(0.972119 0.0762845 2.52879e-20)
(1.03594 -0.0171626 2.07395e-21)
(1.0633 -0.137461 -3.03697e-21)
(1 -5.94041e-06 -2.05468e-26)
(1.04176 -0.133155 1.17247e-21)
(1.05407 0.00446421 -6.01941e-21)
(0.9964 -0.00011342 -6.92258e-22)
(0.951094 -0.00540621 -9.35347e-21)
(0.999286 -0.00315037 -1.37265e-22)
(0.999706 -0.00013434 -9.5899e-24)
(0.983789 -0.0214766 -1.00476e-21)
(1.00064 -0.00080726 -1.45623e-22)
(1.12674 0.000267504 7.39946e-21)
(1.00639 -0.000884199 -4.05881e-21)
(1.09985 0.0887433 -1.12431e-20)
(0.999897 -0.00167563 1.93275e-23)
(1.00327 -0.00978628 1.81109e-22)
(1.00483 0.00708675 -3.00122e-20)
(1.17832 0.0312195 6.31469e-21)
(1.00028 -0.000401198 -8.89719e-23)
(1.0003 -0.000358554 8.81069e-24)
(0.992688 0.0541561 2.66368e-21)
(0.998822 -0.0394615 -8.65839e-22)
(0.999662 -0.00683929 8.44814e-23)
(1.00843 0.0213149 3.5389e-21)
(0.9798 0.0119662 6.70975e-20)
(1.09682 -0.0482148 1.1068e-21)
(1 -0.018801 -3.82592e-22)
(1.12423 0.0633765 1.49569e-20)
(0.999485 -4.99867e-05 -1.0138e-22)
(0.993836 -0.00306248 6.10777e-22)
(0.997663 -0.000194763 -3.76026e-22)
(1.00995 0.0182427 5.86825e-23)
(0.999988 -0.000532913 3.99036e-25)
(1.00621 -0.00104296 4.14759e-21)
(1.13541 -0.0768839 1.25991e-22)
(0.995735 0.075306 6.50192e-20)
(0.947845 0.0743615 -9.82155e-21)
(0.995726 -0.00199897 7.6956e-23)
(0.99385 -0.00573772 6.55822e-22)
(1.02771 0.0671258 -1.96018e-20)
(1.01153 -0.0428157 2.37502e-21)
(0.999966 -6.27709e-06 -1.81753e-23)
(1.11682 0.0977093 2.60637e-20)
(1.0177 0.000699452 -4.14884e-21)
(1.01723 0.000832422 -2.7877e-21)
(0.996063 -0.00983621 -9.06311e-22)
(1.01285 -0.00163213 -6.17491e-21)
(0.967569 0.0680731 9.8074e-21)
(1.11593 -0.101505 -1.08043e-21)
(0.984052 0.0682136 1.01776e-20)
(0.992062 0.0681908 -1.83093e-20)
(0.999997 -4.35495e-05 1.77434e-25)
(1.06778 -0.020138 -2.01363e-21)
(1.11525 -0.0968629 6.54072e-22)
(0.998091 -0.00278085 2.53716e-22)
(1.00113 -0.00101287 -2.31487e-22)
(0.976865 0.0137831 1.5935e-20)
(1.03732 -0.0174882 -2.70533e-21)
(1.0002 -5.24598e-05 1.44845e-23)
(0.988719 -0.0464224 -8.98145e-21)
(0.980802 -0.0668708 -3.64335e-21)
(0.996033 -0.00138429 9.03398e-22)
(0.999917 -0.000147525 -1.78458e-23)
(1.02219 0.0792929 -3.37221e-21)
(1.02327 0.0349237 2.84834e-20)
(1.00003 -0.00036023 -7.3825e-25)
(1.00291 -0.00259136 1.79676e-22)
(1.0037 -0.0025451 9.71491e-22)
(1.15615 -0.0356157 -1.77376e-21)
(0.979754 -0.0303068 -7.22203e-21)
(1.00004 -0.000427717 -8.54421e-24)
(0.999991 -1.15321e-06 -3.91135e-25)
(1.00034 -0.000126063 2.25601e-23)
(1.05163 0.0271459 -4.59995e-22)
(0.979815 -0.0206752 -3.77957e-21)
(1.00129 0.0355274 1.33847e-20)
(0.959529 -0.0376539 4.35048e-21)
(0.991326 -0.0218287 -2.06999e-21)
(0.982309 -0.000909206 -6.4433e-21)
(1.00941 0.0205489 -1.74063e-20)
(1.13577 0.0549082 9.18729e-22)
(0.999162 -0.000110291 2.46037e-22)
(1.00561 -0.00417356 -1.03392e-21)
(1.0006 -0.000802566 1.65115e-22)
(0.98302 0.0747627 -2.5679e-20)
(0.981333 -0.0186813 2.04644e-21)
(1.00076 -0.000204059 -7.8163e-23)
(0.99458 -0.00270845 -8.24768e-22)
(1.11157 0.0070865 6.19895e-21)
(0.999838 -0.00745736 -1.70549e-22)
(0.991683 -0.00954235 -4.47672e-22)
(1.00016 -0.000101873 -4.45835e-23)
(1.00016 -3.65816e-05 -1.9805e-24)
(0.917472 0.0544868 3.06803e-20)
(0.994064 -0.000997499 -1.05771e-21)
(0.996551 -0.00354712 9.14911e-22)
(0.999724 -0.0013649 -1.03737e-22)
(0.999498 -3.80513e-05 -1.38591e-23)
(1.02506 0.0556795 -1.05583e-20)
(1.14046 -0.0759712 1.22618e-22)
(0.990391 -0.0331365 1.17294e-21)
(1.00001 -8.66714e-07 -3.94391e-25)
(0.999999 -2.56663e-05 -7.1844e-26)
(0.980586 -0.0193637 5.35688e-21)
(0.995104 -0.0014392 2.17673e-22)
(0.996268 -0.0016362 -1.24764e-22)
(1.01006 -0.00347488 1.95851e-21)
(1.00407 -0.00164977 3.48853e-22)
(1.00058 -0.0123946 -1.79682e-22)
(1.08859 0.00387011 9.49987e-21)
(0.986287 -0.00344814 -1.32591e-21)
(0.985225 0.0668857 -8.67451e-21)
(1.01135 -0.0188001 -6.56961e-22)
(1.00017 -0.000102451 4.9496e-23)
(0.978436 -0.0526582 3.74484e-22)
(0.988781 -0.0293248 -4.28051e-21)
(1.11666 0.0324753 6.97674e-21)
(0.997929 -0.00460446 -2.65684e-22)
(0.993856 -0.0387584 -1.35322e-21)
(0.999986 -4.97643e-06 2.6162e-24)
(0.955195 0.0541937 -3.32817e-20)
(1.01079 -0.00144464 3.51046e-21)
(1.00005 -0.000173855 -1.69075e-23)
(0.944882 0.0143647 -4.38849e-20)
(0.989617 -0.0333895 2.66429e-21)
(0.999985 -5.51483e-06 4.32263e-25)
(1.00104 -0.000926897 6.81494e-23)
(0.978752 -0.0550588 -2.20371e-21)
(1.03065 -0.0248843 1.11202e-21)
(1.03443 -0.00615096 4.65049e-21)
(0.999995 -1.96166e-06 5.06872e-25)
(0.994057 -0.000499545 8.38415e-22)
(1.01943 -0.0354256 2.5372e-24)
(0.996145 -0.00126822 1.25058e-21)
(0.99968 -3.19961e-05 -3.16717e-22)
(0.993955 -0.00316269 1.97961e-23)
(0.982465 0.0243619 4.01858e-21)
(0.994935 -0.00968812 -1.14951e-21)
(0.992033 -0.00933435 3.31247e-22)
(1.00187 0.0247777 -1.41343e-20)
(0.99802 -0.00171346 2.96684e-22)
(0.979849 0.0756443 -3.15503e-21)
(0.999985 -5.49477e-06 -1.34993e-24)
(0.992948 -0.0218434 8.22284e-22)
(0.990475 -0.0645253 8.24321e-21)
(0.994674 -0.0389524 2.2712e-21)
(1.15817 -0.00350232 -1.65754e-21)
(0.999182 -0.00421293 3.51147e-22)
(1.00758 -0.0178136 4.1285e-22)
(0.999965 -0.00180121 5.08642e-24)
(0.987635 -0.0172096 -2.55364e-21)
(1.03216 -0.0272341 5.12378e-22)
(0.999978 -9.07083e-06 8.04074e-24)
(1.00001 8.47065e-07 -6.77356e-25)
(0.995369 -0.000317933 5.74826e-22)
(0.985421 0.0469632 2.63518e-20)
(1.00984 -0.0144947 2.36651e-21)
(1.00189 -0.00264129 -2.88455e-22)
(0.947966 -0.028167 6.4874e-21)
(1 -5.4939e-06 -9.80419e-26)
(1.00071 -0.000879066 -2.63707e-22)
(0.99997 -0.000507343 -3.63889e-24)
(1.0109 -0.0137966 2.4869e-21)
(0.987607 -0.0126622 4.64067e-22)
(0.99973 -0.000210506 3.98029e-23)
(0.995176 -0.00864488 4.17607e-22)
(0.990824 -0.00550861 -4.8956e-22)
(1.00072 -0.000119933 -2.15018e-23)
(0.999984 -5.85286e-06 -8.46872e-25)
(1.14997 0.0271449 1.01716e-20)
(0.99975 -0.00134437 1.11232e-22)
(1.05318 0.000765057 4.72127e-21)
(1.00422 0.0744218 6.89498e-20)
(1.02519 0.0658893 -1.76758e-20)
(1.00094 -0.0157708 -6.72842e-22)
(1.00394 -0.00146277 -1.15878e-22)
(1.01301 -0.00128747 3.78981e-21)
(0.999995 -0.0018466 -5.77928e-24)
(0.998477 -0.00798425 4.10759e-22)
(1 -9.82421e-06 -6.13041e-26)
(0.990572 0.0682614 -1.39546e-21)
(0.991105 -0.0125911 6.33623e-22)
(1.00975 -0.00313794 -1.39909e-21)
(0.986621 -0.00357846 2.76843e-21)
(1.00293 -0.00961728 1.51894e-23)
(0.998057 -0.00453374 5.84233e-22)
(0.999926 -0.000149979 4.06829e-24)
(1.00001 -5.22899e-08 -3.59493e-24)
(0.996674 -0.00352977 -6.66319e-22)
(1.03965 -0.00474353 -2.64485e-21)
(1.00382 0.0324884 2.19025e-21)
(1.00088 -0.000367419 -3.18832e-22)
(0.982071 -0.0486684 -2.00667e-21)
(0.981272 -0.0181173 -9.04999e-22)
(0.994195 -0.000402322 -3.15684e-21)
(1.13024 0.0863125 -1.09577e-20)
(0.999062 -0.00073623 -1.47957e-22)
(1.00298 -0.0109215 -5.70061e-22)
(0.995968 -0.00215272 6.33244e-22)
(0.999932 -0.000144236 3.50165e-24)
(0.97915 -0.0576676 2.47753e-21)
(1.00188 0.034211 -2.12213e-20)
(1.01865 0.0270417 -1.87137e-20)
(0.982962 -0.0120831 -4.34416e-22)
(1.00107 0.0334407 -9.75379e-22)
(1.00005 -0.000162038 3.30477e-23)
(1.00001 2.64883e-07 1.13791e-24)
(1.11593 0.0952568 -9.66795e-21)
(1.12093 0.0344723 -7.64217e-21)
(0.946455 0.0551495 -1.6563e-21)
(1.0053 -0.0661348 5.4305e-21)
(0.982495 -0.00124932 -2.02409e-21)
(1.10879 0.0101643 -8.74463e-21)
(1.00084 -0.00039375 3.60987e-22)
(0.995826 -0.00291095 3.62961e-22)
(1.00032 -0.00013626 -2.14921e-23)
(0.992044 -0.000570749 -6.80141e-22)
(0.991318 -0.0102784 -9.34556e-22)
(0.999996 -2.26869e-05 -7.34562e-25)
(0.999371 -2.49705e-05 5.78877e-23)
(0.99568 0.0736698 -6.36058e-20)
(0.999903 -0.000528176 3.89299e-23)
(0.959968 0.0498271 4.21643e-20)
(1 -8.80213e-06 4.41201e-26)
(1.16124 0.0584497 1.14525e-20)
(1.05358 -0.000471881 -9.84489e-21)
(1.08758 0.0057006 -1.04811e-20)
(1.00075 -0.000384712 2.17238e-23)
(1.00013 -3.01231e-05 3.98903e-23)
(0.987935 0.0440812 -4.01896e-20)
(1.05471 0.00291397 1.94538e-20)
(0.990127 -0.065908 -7.46929e-21)
(1.01368 0.0258893 8.4001e-21)
(0.998899 -0.0161116 3.27779e-22)
(0.989979 -0.00420199 -7.12361e-22)
(0.997034 -0.000175203 -3.79878e-22)
(1.05584 0.109589 -4.16403e-20)
(0.982269 -0.021688 3.2632e-21)
(1.02585 -0.0232092 -2.14281e-21)
(0.995373 -0.00857773 -2.3915e-22)
(1 -5.43247e-06 1.27404e-27)
(0.999071 -0.000691677 -1.25477e-22)
(1.00436 -0.00438879 6.18984e-22)
(0.986139 -0.00636381 3.56486e-21)
(0.983429 -0.0121711 6.47685e-22)
(0.967143 -0.0336759 -9.72253e-22)
(0.985999 -0.00676282 -2.70348e-21)
(1.01339 0.00186777 1.57929e-21)
(0.998466 -0.000103693 7.80121e-24)
(0.952707 -0.0321198 3.29657e-21)
(0.989446 -0.000712113 -9.80929e-22)
(1.00003 -0.000156664 5.86783e-24)
(0.990823 -0.000567063 -6.79097e-22)
(1.02663 -0.0252434 -3.80414e-21)
(1.01278 0.00202165 -8.73474e-21)
(0.980647 -0.0218867 -8.17571e-22)
(0.999993 -7.70423e-07 -9.30655e-27)
(0.987011 -0.0129622 6.92336e-22)
(1.00184 -0.0111799 -3.89095e-24)
(1.00101 -0.000868917 8.73024e-23)
(1.13559 -0.0954494 -2.68734e-21)
(1.00119 0.034221 -4.87347e-20)
(1.00066 -0.000871184 2.44808e-22)
(0.990979 -0.000421767 9.98066e-24)
(1.09023 -0.0502615 -2.34495e-22)
(1.01854 0.000427367 1.41203e-20)
(0.990911 0.0204821 -4.32986e-21)
(1.00136 -0.00185408 7.78414e-23)
(1.00086 -0.0164538 2.1344e-22)
(1.04702 0.0835012 -6.15963e-21)
(1.01096 0.0164327 -4.38733e-20)
(0.993767 -0.0217182 2.15626e-21)
(1.00351 -0.00258 -1.08697e-22)
(0.963568 -0.0402337 4.42663e-21)
(0.999997 -1.71233e-06 1.49777e-25)
(0.961712 -0.00173055 -3.41675e-21)
(1.00005 -5.09881e-05 5.87258e-24)
(1.08831 -0.0519976 1.64777e-21)
(0.999979 -1.01213e-06 -9.12344e-25)
(1.00002 -4.38119e-05 4.00506e-24)
(1.00065 -0.0184005 -2.51896e-22)
(1.13885 0.062051 -9.54198e-21)
(1.01024 0.0936627 2.952e-20)
(1.02924 -0.0256041 -6.12036e-21)
(1.01064 -0.0110631 1.18569e-21)
(0.999999 -8.80006e-07 -3.08725e-26)
(0.995486 -0.00346247 -1.21827e-21)
(1.00006 -1.61599e-05 -4.26761e-24)
(0.997695 -0.0018368 4.24034e-22)
(1.00002 -4.07093e-05 -3.12424e-24)
(1.03442 -0.00491008 -1.45329e-20)
(0.99966 -0.000350427 -1.56398e-22)
(1.03255 0.0380828 1.91629e-20)
(0.999915 -0.000162271 -2.81107e-23)
(0.990361 -0.00410257 -1.21174e-21)
(0.967976 -0.000904187 7.81834e-21)
(0.996879 -0.000218119 -4.90424e-22)
(0.986832 0.0257965 4.16253e-20)
(0.986978 -0.000589716 1.87142e-21)
(1.03027 -0.081637 3.41849e-22)
(0.995938 -0.00304932 1.8751e-21)
(1.018 -0.00159936 -3.06397e-21)
(0.979979 -0.0495907 8.62078e-21)
(1.014 -0.00109399 -1.04707e-20)
(1.03738 -0.0514712 -6.80586e-23)
(0.999991 -7.43938e-07 1.07182e-25)
(0.999948 -0.015582 2.45616e-22)
(0.997085 -0.000230724 5.96072e-23)
(1.00018 -7.07157e-05 2.95922e-23)
(1.00006 -1.33782e-05 7.25769e-24)
(1.05793 0.111376 4.53278e-20)
(0.996391 -0.00164199 1.05279e-21)
(1.01846 0.00116278 1.6014e-20)
(1.00133 -0.0167932 2.5002e-22)
(1.00062 -0.000233141 8.34201e-23)
(1.01693 -0.00528722 -1.16601e-20)
(1.00011 -2.61262e-05 -8.93027e-23)
(0.999986 -3.95303e-06 -1.2352e-25)
(0.962203 -0.00229853 2.64232e-21)
(0.997443 -0.000931744 4.76612e-22)
(1.00002 -3.98758e-05 4.47286e-24)
(1.03155 0.06625 1.36633e-20)
(0.926429 0.04422 -5.78291e-20)
(0.999852 -0.000172075 7.10831e-23)
(0.969459 -0.00182294 -2.15688e-21)
(1.00001 5.3362e-07 8.03278e-25)
(0.965591 0.0665734 -3.96132e-20)
(1.16467 0.0616765 1.34968e-20)
(0.979315 -0.0395385 -7.33095e-21)
(1.00004 -0.000415274 -9.7741e-24)
(1.02484 -0.0224564 4.80081e-21)
(1.02124 -0.000949702 -4.20075e-21)
(1.02177 0.000717461 1.20417e-21)
(1.03529 -0.00652363 -1.84054e-21)
(0.999756 -0.00144151 -1.88949e-23)
(0.999901 -0.000634977 3.23921e-23)
(0.9897 -0.0125655 -2.04271e-21)
(1 -4.93046e-06 -5.94313e-25)
(1.00001 -4.3123e-07 -1.97946e-25)
(0.981566 -0.0213342 -1.93474e-21)
(1.00202 -0.0498016 -3.05634e-21)
(0.968145 -0.0329888 -2.53592e-22)
(0.938404 0.0624831 -1.08575e-21)
(1.00014 -1.7455e-05 -3.67775e-23)
(1.01972 -0.0607689 -5.06744e-21)
(1.00543 -0.00391467 -1.06489e-21)
(0.999987 -3.98128e-06 1.39333e-24)
(0.999258 -0.00298703 -3.03676e-22)
(1.00003 -0.000351906 -6.35963e-24)
(0.996864 -0.00992801 6.84217e-22)
(1.00003 -7.02402e-06 4.45739e-24)
(1.03866 -0.0501557 -8.48671e-23)
(1.0138 -0.00134583 1.01616e-20)
(0.980817 0.0742764 8.90239e-21)
(1.01751 -0.00151365 1.1498e-20)
(0.999808 -0.00016567 5.73988e-23)
(1.00033 -0.000295891 -8.45265e-23)
(1.15776 -0.0403425 1.59129e-21)
(1.01832 0.00107256 -1.28859e-20)
(0.997743 -0.000301988 4.2547e-22)
(1.00001 -1.1651e-06 1.69188e-24)
(1.04176 0.0609887 -2.32039e-20)
(1.10889 -0.134297 -1.92116e-21)
(1.00518 -0.0645728 -2.36222e-21)
(0.989153 -0.000606292 -5.23013e-22)
(0.99999 -1.1564e-05 2.48768e-24)
(0.99981 -0.000155529 -3.35529e-23)
(1.11554 -0.136005 5.55139e-21)
(1.00108 -0.0394301 -8.54882e-22)
(1.02402 0.0202204 2.67878e-21)
(0.985088 0.0645306 3.7399e-20)
(1.02878 -0.0794971 2.80934e-21)
(0.999098 -6.01161e-05 -7.67005e-23)
(0.999989 -5.99332e-06 -3.04819e-24)
(0.972862 -0.0427825 7.28165e-21)
(0.988175 -0.0861565 -8.54319e-21)
(0.999857 -0.000177647 3.82728e-23)
(1.00806 -0.017344 1.3855e-21)
(0.993983 -0.0211105 -3.67609e-22)
(0.996581 -0.00175806 4.14794e-22)
(0.997913 0.0286802 -3.37218e-20)
(0.999073 -0.000422542 2.71831e-22)
(1.04426 -0.0343957 1.19365e-21)
(1.09454 0.108324 -2.19686e-20)
(0.994276 -0.00256466 -1.20358e-21)
(0.945258 0.0520046 -5.95109e-21)
(0.949548 0.0246872 1.84533e-20)
(0.999982 -3.76197e-05 -9.52454e-24)
(0.999979 -0.000555433 -1.38553e-24)
(0.987144 -0.000778811 -1.20037e-21)
(1.00948 -0.0035725 -2.52632e-21)
(0.970791 -0.00167247 4.46162e-21)
(1.0038 -0.00319031 -1.11861e-21)
(0.994487 -0.00257076 1.12768e-21)
(0.999593 -0.000380943 -1.18875e-22)
(0.970745 0.0669119 -7.08373e-21)
(1.03305 0.0367044 -2.98932e-20)
(1.00167 -0.00179151 1.99191e-22)
(0.90209 0.0282996 -1.12462e-20)
(1.00001 6.13472e-07 -1.17068e-24)
(1.01716 0.00437582 -2.18922e-20)
(1.00202 -0.081626 5.56853e-21)
(1.02171 -0.0604457 1.95155e-21)
(1.00006 -0.00015688 -1.70606e-24)
(0.969324 -0.000934967 3.67948e-21)
(1.01516 0.00360327 1.22224e-20)
(1.0093 -0.00391938 2.0945e-21)
(1.02087 -0.000492643 5.78184e-21)
(0.999689 -2.46252e-05 2.23127e-22)
(0.999654 -0.000375373 1.41759e-22)
(1.02177 -0.0340207 -2.91391e-22)
(0.997483 -0.00100778 -1.3611e-21)
(0.990634 -0.00938834 -2.20603e-21)
(0.999352 -0.00271487 1.79863e-23)
(1.0498 0.0311822 1.65096e-20)
(0.99983 -0.0162702 -1.75047e-22)
(0.996347 -0.00374943 2.0118e-23)
(0.944916 -0.0239287 -9.69263e-21)
(0.99412 0.054209 4.37375e-21)
(1.0852 -0.0109349 -8.46991e-21)
(1.01643 -0.0050228 9.37513e-21)
(0.999718 -0.000135219 4.24267e-23)
(0.999636 -0.000244123 1.91197e-23)
(0.98704 -0.0170344 5.17505e-21)
(1.00073 -0.000949059 -1.95889e-22)
(0.998118 -0.000530434 -7.71741e-23)
(0.999991 -1.09615e-05 -9.07967e-25)
(0.999776 -0.00146803 4.30052e-24)
(1.0148 0.0033633 -4.74027e-21)
(0.987436 0.0460792 -3.8474e-20)
(0.999915 -1.15436e-05 8.88875e-24)
(1.07081 0.106421 -4.02635e-20)
(0.999996 -2.8633e-05 3.23342e-25)
(0.997623 -0.00217314 5.7605e-22)
(0.999996 -6.96799e-05 7.42473e-25)
(1.00383 -0.00274844 -4.94937e-22)
(1.15335 0.0254934 -7.51403e-21)
(0.999976 -3.03115e-05 8.80787e-25)
(0.999973 -3.31803e-05 6.04594e-24)
(0.958647 -0.0381306 -4.15154e-21)
(1 -5.01774e-06 -2.06363e-26)
(1.03765 -0.00592145 1.55432e-20)
(0.992335 -0.0337911 3.71048e-21)
(0.99998 -0.00048649 3.06968e-24)
(1.04383 0.0492293 -1.81473e-20)
(0.999999 -2.13934e-05 2.89271e-26)
(0.999726 -2.77447e-05 1.95247e-22)
(0.999943 -2.61232e-05 3.41493e-25)
(0.996486 -0.00376699 -3.43091e-22)
(0.999751 -0.00116605 -5.48896e-23)
(0.995455 -0.000235391 -3.86202e-22)
(1.0141 -0.0984175 -6.51408e-22)
(0.999779 -0.00113563 3.62171e-23)
(1.00308 -0.00259133 -3.85445e-22)
(0.999987 -3.08476e-06 -5.32643e-25)
(1.01151 0.0921557 -5.76156e-20)
(1.04317 -0.0355309 3.03659e-21)
(1.08753 -0.0107682 -1.23321e-21)
(0.972969 -0.00499011 4.82812e-21)
(0.982819 -0.00347421 -8.75402e-22)
(0.999325 -0.00292412 4.99992e-22)
(1.00214 -0.00197921 5.39754e-22)
(1.02513 0.0437462 7.75458e-21)
(0.988312 -0.0302368 5.8286e-22)
(1.05987 0.0769006 9.30481e-21)
(0.966075 -0.0115282 -8.72525e-21)
(0.997538 -0.00209856 -5.43863e-22)
(0.999994 -2.10116e-06 -9.39289e-25)
(0.995828 -0.00216149 -7.637e-22)
(0.999266 0.0868477 1.39813e-20)
(1.03801 0.0530029 -4.16894e-21)
(0.98994 -0.0459464 2.99999e-21)
(0.953236 -0.00501395 2.05226e-21)
(1.0146 0.0883278 1.58506e-20)
(0.993743 -0.000455187 1.00493e-21)
(0.996749 -0.0748753 4.37941e-22)
(0.999997 -6.55679e-05 6.14124e-25)
(0.991459 -0.0340424 4.6737e-21)
(0.999413 -0.000170343 -2.86698e-22)
(0.909453 0.0479137 -3.24309e-20)
(0.989216 -0.061265 -6.44047e-21)
(0.999945 -2.31054e-05 1.60346e-23)
(0.950277 -0.0164905 -5.5261e-22)
(0.988382 -0.0321052 2.80992e-22)
(1.0165 0.0459233 2.66268e-20)
(0.998142 -0.000577869 -7.31707e-22)
(0.986733 -0.03108 -1.74249e-21)
(0.998344 -0.00818696 -5.68355e-22)
(1.00067 -0.0177539 -5.32562e-22)
(0.999099 -0.000427755 -1.85776e-22)
(1.01599 0.0449773 -3.2323e-20)
(1.05323 -0.136548 4.89863e-21)
(0.986972 -0.0134902 -1.53918e-21)
(0.990085 -0.011662 3.188e-23)
(0.990445 -0.0038681 -4.85234e-22)
(1.0038 -0.00159834 -4.51444e-22)
(1.01579 0.0863297 6.29493e-20)
(0.986863 -0.0109744 7.07655e-22)
(1.00975 0.0241421 1.82372e-20)
(1.00196 -0.00160568 4.11215e-22)
(1.16035 0.000889463 -1.73341e-22)
(0.958111 0.0534519 6.05359e-21)
(0.99362 -0.000359562 -3.45804e-21)
(0.999846 -2.94689e-05 3.77313e-23)
(1.02374 0.0569974 8.20137e-21)
(0.994341 0.070602 -5.12639e-20)
(1.02096 -0.0327836 5.90214e-22)
(1.06389 -0.0228544 1.03551e-21)
(0.996698 -0.0103509 -7.47409e-22)
(0.973394 -0.00450149 -2.85407e-21)
(1.04587 0.081768 2.51913e-20)
(0.971766 -0.0430448 1.31744e-21)
(0.999989 -1.11416e-05 3.29241e-24)
(0.994589 -8.47556e-05 -1.78083e-21)
(1.00002 -3.99226e-06 4.53071e-24)
(0.996766 -0.000194369 1.32949e-21)
(0.999989 -1.28789e-05 -5.11241e-24)
(0.998766 -0.0114326 9.13403e-22)