/*--------------------------------*- C++ -*----------------------------------*\
  =========                 |
  \\      /  F ield         | OpenFOAM: The Open Source CFD Toolbox
   \\    /   O peration     | Website:  https://openfoam.org
    \\  /    A nd           | Version:  7
     \\/     M anipulation  |
\*---------------------------------------------------------------------------*/
FoamFile
{
    version     2.0;
    format      ascii;
    class       volScalarField;
    location    "26";
    object      p;
}
// * * * * * * * * * * * * * * * * * * * * * * * * * * * * * * * * * * * * * //

dimensions      [0 2 -2 0 0 0 0];

internalField   nonuniform List<scalar> 
117990
(
29.4603
-0.0559866
11.4927
3.27329
10.6213
-0.0124691
51.0709
22.3457
-0.330404
-0.0584112
-0.588858
0.497549
7.04352
97.6561
-0.320412
90.3705
-0.0874184
-0.615451
49.1188
10.7446
22.09
-5.74338
-0.641086
4.81483
49.3688
43.5734
16.7525
28.0968
-0.10695
46.8296
-0.394412
44.3067
20.3264
6.31869
48.0781
-1.8725
50.7906
-0.0773746
-9.65765
51.9174
44.4121
-0.615892
18.5026
-1.92685
31.3115
97.9269
20.3557
14.4107
11.3178
0.449371
-0.000291821
-4.0966
45.3067
-0.0303653
11.1374
45.4246
43.0227
47.0088
32.0104
13.1499
-0.117729
5.07735
-1.20253
13.6473
-0.24207
4.5023
6.7887
40.3516
16.9031
41.8248
50.3213
40.9743
51.8438
76.4428
25.9031
32.9076
32.4373
3.74653
50.8638
39.7665
39.8708
-0.235433
29.8657
27.4064
-3.57425
0.477501
16.5056
-0.0781218
43.0966
-0.075394
-0.475046
5.16989
-0.110838
-1.48074
-0.695087
1.06787
-0.762398
29.2324
13.9606
43.1026
-0.119054
31.1411
17.251
9.2955
50.4769
22.3472
52.3377
21.5728
22.5343
-0.0879019
40.0083
-0.755892
32.5689
19.4001
40.2217
15.7343
-0.593306
49.6798
0.0330018
40.8769
49.5749
90.435
11.7822
33.6142
-0.0103184
47.1916
5.23394
35.1532
-2.2949
35.1911
28.6341
0.715954
47.6537
0.47446
0.0342847
48.4174
48.4573
20.4172
11.3045
5.03266
33.288
15.5376
0.133765
45.6304
29.0106
-0.000436216
25.4388
5.28727
40.4209
6.68267
22.1683
32.3644
5.03857
-0.0101786
-4.03894
20.3101
-0.0847301
36.8756
39.673
22.5265
31.6736
25.2813
-1.18516
22.1144
17.2476
-1.14353
33.7556
23.3412
36.6408
17.0611
14.4648
20.2653
-4.90249
92.9875
22.7475
38.9622
93.4003
2.38085
23.2448
11.1722
25.8511
26.0356
48.3976
45.8236
52.3357
-0.0453393
1.8358
48.8655
32.2311
-0.164244
2.45205
15.1657
49.9357
21.5773
43.7489
21.6145
93.6107
-1.94429
23.2281
25.6652
46.8536
51.6642
27.2931
-0.0894403
1.00015
35.4597
-0.503829
-0.235787
35.7917
24.0396
94.0978
52.269
49.3884
-0.0731293
23.6621
21.8552
38.1675
20.4317
97.8593
-0.24726
22.6622
19.0437
13.0358
44.4753
-0.032152
47.476
22.3748
24.9964
21.3666
49.6018
29.6944
27.5879
35.4016
22.687
28.3007
46.9644
1.27692
14.7822
23.0598
-4.16726
9.21205
27.8441
22.4791
13.0237
-2.36628
7.11791
42.8492
50.7758
23.354
72.8244
49.8526
-0.549691
45.6254
6.26634
36.7907
26.0199
28.9314
27.9984
0.818028
22.0887
26.0542
98.1618
45.9009
-10.3977
22.6081
3.41677
33.986
-2.25542
36.679
28.8415
-0.253188
32.3535
11.1509
27.88
5.25976
17.1878
29.6554
22.9005
13.8044
20.8656
22.1988
-2.33156
3.28198
35.0632
0.638185
23.1136
47.6979
44.9293
28.9612
-8.2323
30.7407
-0.0810673
28.897
52.2101
0.0820367
28.1961
-0.0767884
44.0775
8.75519
28.3731
95.7952
22.1841
-3.30805
7.71365
19.8523
40.7477
27.4056
24.8054
-1.58768
23.2628
-0.859894
46.602
41.5791
23.101
6.9394
17.0131
49.931
7.11127
4.88342
25.9721
34.4716
-0.23379
27.124
40.4867
41.5735
36.0571
20.5331
43.6767
96.011
29.2313
-0.631659
-0.0815025
0.0710466
-0.124555
45.7239
4.88553
37.6035
-0.243174
-0.12106
1.69832
11.7867
42.3682
15.6306
12.7749
8.73387
9.55688
13.8779
33.7479
29.3959
13.7729
47.8428
48.7439
25.8978
2.39587
25.5452
23.8821
29.4878
-0.00124162
1.07869
31.8104
48.9597
18.8103
50.7848
43.762
32.7116
-0.00110344
4.13749
18.8789
13.0692
-0.00490774
17.9103
37.5853
49.6859
-0.962061
37.9512
14.4486
17.0527
0.440859
-0.086526
32.3601
28.4841
22.6544
19.0125
31.7554
23.0775
-0.378517
36.0477
77.6873
10.5572
24.1421
44.1087
50.9897
16.692
28.1719
18.8548
0.921806
-1.00497
4.07569
11.0346
14.7622
26.0924
1.40787
38.6165
51.6592
-5.13544
29.2423
0.0348636
12.7966
37.4792
-5.9074
20.8117
-0.955376
9.68672
3.73663
-3.66285
13.6251
11.0104
14.3328
0.0913037
22.7047
-0.00118991
94.3664
0.728947
49.4277
42.0682
49.0893
29.6626
49.9863
42.814
4.74713
7.87244
0.0426682
-0.32491
24.1001
7.64972
12.7578
29.9265
0.712247
-0.404848
0.425907
3.57986
35.438
29.5439
14.8773
0.602478
18.1094
6.98062
-0.371321
50.8875
38.8815
52.275
0.101024
0.507296
8.20662
23.3396
6.42361
21.2413
50.9946
47.1363
-5.3767
38.741
6.97626
10.4375
51.9558
46.7725
21.8684
10.2004
92.8128
-5.27217
0.101944
22.7734
76.0247
23.0423
77.1963
29.8097
41.5353
-0.00399526
10.2708
31.0558
35.9888
48.2245
-0.00274911
-0.24072
7.14691
23.0433
-0.38599
0.110217
36.0834
48.9241
28.6245
52.1033
13.0909
49.6388
46.4659
3.89617
17.9502
87.8626
19.305
14.6455
9.27281
-1.42173
50.8359
22.7186
49.2941
27.4527
48.9218
13.8767
11.8152
8.15332
47.269
2.49828
6.11737
6.23249
-0.110541
29.08
24.9772
0.867108
36.6689
-0.025214
-0.0110158
7.98659
27.6887
2.72971
13.5132
20.5517
5.96925
-0.11041
50.1911
24.2752
23.5793
14.7174
26.0478
10.8842
0.0208238
-0.00272933
69.0237
88.0819
26.4025
0.0188639
6.54028
42.4351
15.7626
32.216
-0.231085
23.8797
25.5949
0.278381
-0.0793785
50.6239
6.98768
10.2739
22.6896
1.32299
51.4935
20.9274
12.931
12.6069
13.6566
42.5073
0.977912
0.0308495
14.9866
46.0814
49.5941
50.862
29.3791
12.2991
51.5186
25.1841
0.823123
32.8355
12.023
36.1643
9.16103
38.0446
4.50552
50.7745
1.88037
7.25737
13.6678
52.0835
0.793685
23.091
21.2798
47.0654
22.9852
6.21985
16.6508
0.16607
-5.16449
5.98055
28.4302
23.3385
9.43312
37.8027
51.7477
48.7952
50.001
50.0325
28.4782
32.6711
25.3591
52.0893
52.2719
10.2457
4.7248
49.5649
0.0500761
-10.1398
19.5511
15.9564
7.05377
36.0377
-0.292309
8.00465
49.317
48.05
-0.429353
1.01353
35.5161
6.01778
-3.59602
47.0107
47.7328
-0.0678716
20.6129
22.3651
2.08685
28.0686
42.7
48.2967
6.13688
-0.0035038
52.1139
27.9878
-0.434139
35.3222
20.2962
4.57871
-2.77751
-10.1325
7.24008
-0.336701
25.6413
1.03342
-0.347111
15.7303
32.5665
-0.535257
20.4303
4.50825
23.005
52.1533
0.064141
42.0619
26.5554
49.6359
32.9087
-0.806483
-0.110399
-0.63606
6.38488
46.3397
13.9707
4.30042
48.5539
84.7502
85.4537
32.5451
35.8643
49.8871
-0.731108
23.1246
16.122
0.667522
28.0781
4.47163
29.1538
20.5391
44.7105
53.6965
1.82165
16.8781
23.8107
39.3689
42.0399
26.1347
0.000421302
52.0376
6.72908
96.53
13.1895
31.3793
20.538
15.0006
9.0168
-1.3069
51.1915
18.7737
43.0804
74.5878
30.0204
-0.0802206
22.6877
20.7734
22.9363
35.169
22.6831
1.0729
18.4625
-1.43559
-0.0714782
13.857
0.920583
48.3124
0.681374
49.5661
17.4658
29.4932
10.6998
44.7884
14.3865
48.8338
-0.00471331
26.21
7.70114
10.3346
22.2947
0.041645
24.1183
39.9613
20.4332
0.823195
14.5791
46.2839
48.4834
8.70491
-0.618995
35.6765
0.521474
49.5959
25.6741
37.1572
48.9829
0.500409
28.9953
50.0839
-0.350993
38.1244
49.3842
-2.8039
17.2853
1.20215
20.4656
13.8156
-5.96014
48.5568
19.0949
37.8475
41.4006
-3.40174
0.369945
49.5271
4.09607
6.4731
0.95684
48.1931
73.9766
47.0844
6.88855
1.75514
6.91674
11.6469
20.8282
36.5106
34.2477
46.1697
-0.436712
12.0097
0.0127421
7.39242
-0.00508188
-4.62149
21.7758
50.8272
-0.113727
48.9372
-0.754968
28.252
-0.896138
76.9601
15.0334
43.3703
-0.419868
24.1917
28.2824
13.2024
-0.0840526
1.62816
-0.558068
21.7644
9.57831
-1.33961
51.9434
0.34394
1.09891
22.5694
-0.793258
51.505
41.8082
2.90253
27.8478
22.8676
-0.0121817
16.0106
21.0749
1.10714
26.2556
6.89942
36.3896
5.18122
1.79114
27.7546
-0.0699505
5.67898
-0.719841
52.0563
-1.56392
0.503672
-0.435446
31.8396
47.0113
4.24875
2.01854
48.3589
51.7459
10.3537
40.3999
14.8183
72.2064
0.382238
-0.0174487
46.3343
37.7019
0.36087
38.0591
-1.15557
-0.0434515
41.6691
21.1652
53.0879
79.7984
23.254
-5.95225
6.31149
14.5565
49.6814
0.0285769
21.7221
40.5623
0.173
15.368
27.5479
47.9596
17.4711
16.9621
42.0824
35.9186
24.0806
18.5505
51.3947
38.0914
1.84138
21.6688
47.1463
-1.60797
-0.688065
20.351
8.57203
13.0042
41.7391
-5.98641
-0.0416964
-10.1617
12.0348
20.3019
48.8477
17.3125
26.5049
1.52879
48.2454
18.6286
41.6448
18.7185
45.6631
43.1907
22.5649
45.5761
49.1881
-0.71455
41.3053
49.3546
20.3957
2.82842
22.4219
48.6088
28.2859
30.0901
51.4933
8.83821
4.56575
-2.70744
1.04139
32.5234
39.2878
1.07799
50.2246
45.1395
35.2803
-2.32257
31.0206
76.6609
21.4415
51.689
42.8777
1.37166
38.169
76.0015
3.93255
43.3231
81.1401
-1.66255
41.1335
0.904603
48.9355
8.14733
46.5088
31.5622
-4.62037
50.9516
-1.37866
23.9667
17.093
-0.428317
17.5332
16.9586
12.1805
21.585
5.88237
2.26653
36.8094
15.5792
-0.693904
22.5588
96.6229
49.8464
33.2797
52.1424
-4.13822
7.5298
50.7257
26.1407
-0.0779297
2.49689
22.5857
1.71063
19.0732
-2.22582
41.7682
-7.92167
34.5717
68.5621
41.6123
34.9695
7.39722
10.7969
-4.37784
38.6378
21.8883
0.000306207
-1.67723
-0.681051
42.3586
6.03954
-0.00849586
19.031
15.8057
22.0692
46.4961
43.4513
14.3687
23.287
7.03541
45.6411
21.7031
43.6985
5.9875
23.3254
23.9899
10.9701
-0.417299
0.955778
-0.0656764
21.7796
-1.3555
14.4337
1.89219
40.8637
0.0255995
2.42483
0.194464
46.4113
16.933
50.8659
34.1816
44.9471
-2.66505
19.0517
50.8835
33.3828
18.6673
40.3746
-0.406054
8.54182
-9.4227
33.2621
0.027238
28.1089
15.109
22.2085
22.5851
49.393
11.9832
-9.91019
46.4228
11.6847
12.609
7.24894
-0.00779651
-0.390081
-1.48335
36.6896
-0.806065
4.84221
15.3248
49.4802
47.6563
23.5954
0.485118
17.8464
36.2855
10.5471
0.457743
13.4396
33.7998
0.0769036
6.17588
35.7658
51.5267
14.4163
90.6741
43.9108
18.3303
0.692523
80.5348
33.4489
2.96494
0.120386
-9.24081
-2.33194
12.1533
-0.0880296
-4.01329
38.1931
34.757
20.64
21.3535
13.8177
-0.0906899
46.4058
-0.702074
28.2711
47.6782
-0.20977
31.6325
8.2695
48.9264
40.5093
21.9187
48.6537
42.5425
12.639
32.2122
0.48407
2.28916
88.2558
-2.29355
-0.423996
29.2537
-1.0946
-0.181312
13.0723
-0.517041
22.3338
20.8299
3.98708
-0.516299
-3.78195
3.92403
-0.120063
46.0272
34.5764
24.4693
-1.22483
80.4323
22.1786
37.0713
13.5809
14.3198
48.7234
40.7159
37.2548
22.8015
4.12586
0.0926211
37.0999
51.0623
34.0049
-0.103595
-10.4106
0.472653
0.134383
46.4171
2.03999
35.9438
-1.40042
52.1502
25.5646
14.1491
26.4317
0.000102277
49.131
-1.2243
6.30617
41.0326
49.5735
42.5025
1.98047
2.55588
42.1211
-0.0291725
43.5449
6.35403
52.1004
40.3868
15.4511
8.91166
0.0893802
41.1292
19.0123
19.0844
20.0782
15.9851
1.57118
28.0055
-3.51644
37.8443
46.2735
11.7527
49.0886
43.9808
-8.78029
-5.81731
35.5821
16.3393
39.1042
47.8031
37.4265
15.1359
0.014763
10.382
22.3213
19.4959
24.3259
40.5945
52.0442
0.759698
47.3228
-0.00138788
23.9204
4.59375
51.1407
92.3633
-0.206255
48.7844
-0.0391775
5.99337
-0.12003
-0.00304692
-0.00248916
51.2219
11.0762
22.88
17.1348
1.70944
61.4878
48.2159
11.8888
4.10082
-0.942673
-0.120148
2.32996
29.631
34.6894
48.8433
-5.70163
46.4211
18.62
23.6885
32.3212
2.31561
40.5095
0.0553295
4.89178
2.3757
15.3331
-3.77829
49.0855
4.43147
0.00254141
16.478
5.89721
51.6863
-0.0586323
4.27608
4.17164
23.2766
28.3366
21.0816
100.746
43.7473
49.5897
-2.33013
4.57358
22.985
-1.3211
44.9026
19.9535
-3.92361
31.6321
-8.43512
2.64102
16.3098
-0.538173
12.1097
60.4715
10.5795
36.857
52.0498
49.9208
50.3019
-0.0184057
3.00099
0.0506276
39.7225
34.7406
47.1586
13.8063
20.0593
52.1944
21.2294
27.0855
14.0402
33.6955
20.6333
0.0314539
42.9167
-0.909274
45.8303
37.9367
35.1432
0.452177
4.5085
29.167
-0.0111738
45.1351
8.41558
23.4533
30.9258
36.4989
50.5594
23.8393
51.5397
47.9134
26.9318
-1.3616
34.7645
38.9821
7.26444
36.181
-1.55414
28.2889
30.9334
11.783
41.0834
0.519397
46.355
48.4028
-0.0893388
4.9464
0.111177
44.0422
6.2346
24.0416
4.86881
28.361
42.9598
7.53361
24.4306
6.16071
20.4217
13.6135
-0.0729942
1.66564
27.4836
75.2915
18.8702
-0.0456076
27.1797
-1.34312
6.83906
31.7299
49.7972
12.2625
26.0615
47.2596
12.6138
10.3348
27.3252
10.4631
10.4218
26.1889
38.0815
22.7727
-5.70056
-2.13473
26.827
0.468123
-0.646071
0.108241
43.5949
-1.52437
2.90042
28.0602
-0.0154224
7.88625
-0.345742
51.1268
0.00242303
5.87513
-0.24537
9.83616
49.8045
13.422
20.6102
-0.0983598
-0.060862
25.7103
7.62072
-0.425023
50.405
22.5107
-2.15512
83.1603
6.18674
2.40123
18.8184
12.8936
-1.34975
40.2561
-0.515572
22.4365
47.7704
-0.404214
26.4424
-0.761464
22.9004
52.3027
32.4757
-5.94933
0.421146
12.4586
10.9848
13.4028
28.0695
4.92442
-1.15713
-0.245787
-0.503789
21.9202
21.0923
44.7731
12.0487
5.11012
38.9269
45.6061
32.7227
-0.489648
22.9652
27.8475
35.117
30.8356
17.845
44.0861
44.2058
22.444
29.7419
47.8035
22.2981
0.422802
86.0081
95.244
30.1482
14.9269
15.8299
5.06415
36.9357
20.9667
51.2623
22.4417
51.0478
74.7488
-1.0232
15.389
7.37181
0.0422327
-0.086841
49.9064
-0.160617
32.9305
16.4587
25.8106
50.9074
-0.693128
26.7251
34.3293
-0.374898
50.1567
21.3547
-1.21508
34.7368
43.9821
-0.00595277
36.2455
2.27915
36.0305
29.7113
72.7375
47.8283
-1.21218
-1.07715
46.7017
51.0017
51.0304
5.8873
27.0199
51.3301
41.6372
22.1405
-0.0108486
45.474
25.443
13.9376
15.494
46.6281
18.7593
5.06276
33.9174
-0.382786
25.4663
43.3511
51.4609
44.9817
44.9957
45.7499
35.8197
-0.512195
-0.901454
-1.24546
-1.34684
45.0289
45.1859
46.6839
28.4589
-5.88618
22.3259
18.1231
3.10251
6.83665
-0.887264
67.9298
12.9127
34.6288
-0.0298172
0.0324906
4.45912
0.101983
4.70643
8.11743
30.2167
6.92865
6.55843
42.3449
75.1315
6.99414
-2.35871
4.5332
-1.33271
-0.40044
5.75753
15.6907
1.22011
6.96073
33.567
-0.093961
34.957
27.9846
13.9412
-0.582122
12.1316
34.7613
20.0178
40.8638
24.708
1.03011
30.1836
18.9224
-1.5179
-0.027382
0.482463
8.73652
49.2393
2.68971
4.66749
8.62542
15.7941
-0.702468
50.1201
-1.75537
44.2024
2.62306
-0.957195
0.447598
21.3033
87.6012
48.7331
45.8998
45.6682
2.07411
24.5371
-0.160273
-0.00675652
-1.08581
7.31061
50.6183
26.584
62.2404
20.9172
49.8365
37.8065
18.3455
0.000140907
37.4907
48.5993
31.3338
-0.112115
-1.28239
3.88915
50.9458
46.8631
27.8627
30.192
45.0598
5.60034
-0.110104
-0.0745256
34.8242
5.61157
42.2144
-0.0303894
30.134
11.9599
0.12798
46.0522
25.3646
42.415
-1.98697
2.28582
36.4035
28.8537
33.8088
15.193
5.30716
39.4212
4.61445
28.6489
47.5955
46.6304
-1.41429
44.2932
-0.00238221
1.24619
46.9927
16.6985
34.8719
35.8852
6.20967
50.699
34.0966
-0.0732269
90.2998
6.53154
6.80586
-0.538347
-0.228403
67.3023
12.2881
5.13629
18.8279
9.66091
45.0441
49.5992
0.359164
-2.41835
-0.794223
26.1507
-0.582347
0.130375
-0.12288
46.4921
27.6054
6.69057
24.2703
36.8725
82.1972
49.6986
45.6813
51.2589
-0.0708738
-8.4584
38.4416
16.0764
21.1236
-1.5502
48.4548
6.47648
22.1809
3.85086
35.9977
81.3977
34.6316
-0.00172122
40.225
-0.214816
0.0203595
34.1867
-1.89792
24.0249
44.5278
19.3007
5.22058
-2.12809
47.6537
51.5651
50.6367
52.0562
70.7116
-2.44792
-1.14223
29.6959
22.8917
11.899
-0.279645
23.8116
9.79137
21.2556
8.49462
-0.0463861
17.1546
30.4531
49.7647
46.3997
-0.0555196
40.2459
3.77062
96.9123
86.4179
17.2348
50.7741
-0.777539
65.9804
33.9164
-0.676685
0.231088
37.8677
45.3785
20.5377
29.7221
38.1768
14.0978
-0.016467
-0.0100522
37.8867
28.2998
23.2451
-1.14388
42.9145
-0.272306
-0.00639833
-1.00059
10.302
17.0743
-0.080008
23.9598
41.1102
47.9729
2.12078
43.562
7.21235
48.1698
-3.70097
24.2539
0.11706
35.5254
37.812
36.617
42.0873
49.9546
16.64
23.0685
51.3078
-1.81924
47.5719
-3.67881e-05
43.1447
32.522
45.957
0.441319
-0.0899129
34.6505
46.0179
45.1014
0.0357889
4.13736
41.944
4.78454
-1.63511
36.0093
27.5538
23.3684
50.5397
-2.38922
33.6059
13.2318
36.6436
-0.496075
48.4493
44.1473
36.3995
-1.01387
44.401
20.6069
30.9663
42.5438
0.537453
24.7974
30.5728
26.947
-2.23495
19.6468
15.9186
-0.0660749
18.9005
-3.65776
6.37055
21.347
-2.09582
4.84003
33.5467
0.155238
38.4581
86.6206
45.9948
-0.497951
35.5381
-0.118547
1.28079
15.8665
-0.190829
12.2686
7.88969
87.0385
49.9756
23.2785
23.2093
41.7038
52.3412
-0.116743
20.0984
32.3476
32.8733
-0.0868152
44.4877
20.0451
32.199
0.389985
15.3706
-0.222921
45.7705
-2.57726
46.1107
0.45802
87.1442
-1.49168
-0.0334062
51.9815
-0.249547
48.5657
43.734
35.9964
-0.816281
48.7748
49.9021
52.3822
50.8157
50.9511
47.6944
-0.0867576
21.4166
48.6214
0.887322
33.8728
42.3705
-0.0508214
0.103033
48.7473
35.2473
37.21
19.2465
43.4195
-0.538771
0.64359
21.274
21.1642
21.5382
51.9616
47.0548
22.9234
50.5958
49.8828
32.2942
49.413
7.3179
49.1248
12.3032
35.074
7.25726
19.0591
17.274
24.0536
-0.0841722
23.5793
-0.0993139
48.4357
38.2163
-8.14327
4.34022
23.8919
28.7633
-0.239224
14.1711
23.0616
14.529
23.3753
20.942
-1.00793
13.6304
35.2751
0.384635
33.4095
-0.0987197
44.6906
4.91628
27.8066
0.377341
-2.90406
20.6469
15.2279
27.7697
4.47832
37.9374
23.8698
85.3371
-0.397302
33.0329
35.3488
19.2129
50.5706
1.41115
89.711
20.5403
12.3906
26.461
0.109609
11.761
15.0125
-4.11133
-0.388484
-1.17545
43.7705
-0.0017414
0.370231
0.159064
-0.127521
-2.42132
49.3126
41.9604
-0.730988
28.6342
-0.127442
27.6051
15.5461
-3.95064
33.8811
-2.06838
46.7409
15.9314
5.28483
15.2053
-2.35093
28.803
-0.587778
52.3416
7.06343
33.8119
22.9059
-0.0929131
43.8436
-1.20742
21.2674
49.193
4.95281
23.2945
48.7108
65.2204
22.9593
19.6407
34.9662
3.24534
33.1728
-0.201351
20.8671
4.06352
49.5148
27.9324
40.1494
34.032
-5.97496
35.7617
29.4615
28.4353
47.7169
7.9943
24.4608
-5.60079
1.38824
-0.364336
26.2786
41.8605
-1.64196
19.5534
19.9793
4.65724
20.6679
-0.627264
1.04298
-2.09789
-0.249659
73.6818
5.60459
46.8635
-0.00542488
-0.935461
0.115267
37.8999
-0.251941
44.3697
41.4701
48.5681
0.924098
17.3694
12.2877
8.39203
2.93646
40.2489
23.1897
22.9584
7.51154
-0.763518
44.8636
29.9537
24.145
-1.3528
1.28358
39.183
-0.420058
15.6109
35.2358
48.9883
46.5097
-3.95048
1.53044
17.0814
-0.397934
0.158069
23.0965
-0.00503335
17.997
18.8165
-0.0528041
0.039469
28.775
26.6686
22.0732
35.1032
0.0668511
40.6409
27.3841
23.3054
0.369517
48.4683
-0.725064
50.0139
-0.997922
25.6773
-0.0349493
15.8815
48.1809
12.9734
26.9775
22.8635
0.271721
34.4499
6.59041
28.3537
21.2631
14.7564
41.3956
36.0073
28.1692
39.6982
2.54809
0.0715797
-0.474448
22.0545
-0.105061
6.59169
36.8947
49.5263
36.1198
-1.14455
41.7566
12.4269
4.1957
28.9553
33.3852
25.7243
0.0372046
38.9176
28.7924
29.3915
90.5278
94.9426
21.1468
-0.0677154
6.79451
4.15018
49.9457
25.5489
28.5545
26.0868
35.1212
28.4563
47.9554
-0.216923
25.4337
12.3083
0.00435931
4.93333
36.9955
4.73126
90.1586
29.3727
34.9881
49.7625
1.04364
-0.00265374
0.0735233
22.7329
34.613
23.0771
-4.08114
8.07509
3.25908
45.3555
-0.201831
28.9573
-1.15904
12.5865
11.9481
3.37691
41.3752
23.8095
15.0166
29.701
39.6875
20.9801
51.2885
47.2215
47.9488
21.2052
14.7619
62.454
28.5321
46.4805
23.0835
0.112671
-5.75386
-0.0049243
91.8949
-0.829917
1.27024
-5.89802
35.9731
-0.378254
-0.10923
34.1631
17.6497
0.00123566
-0.0324133
5.68336
3.61536
0.0836677
33.9636
12.7274
22.9444
39.1805
21.6111
26.188
31.2877
19.1938
0.506895
-0.660828
52.1834
3.48663
22.7305
0.105008
22.4901
22.5881
0.612766
29.7592
20.7072
15.4998
50.0224
-0.214288
17.8724
-1.06205
12.7589
-0.747938
-4.32815
50.3786
11.7441
-0.0124497
47.5617
4.01414
-0.821989
8.02694
5.209
34.4193
20.9985
-0.442165
-2.00804
31.2054
21.9371
0.0786022
17.6005
21.4163
32.6981
24.0064
26.2384
49.1503
15.6827
38.9482
45.6973
-0.749829
13.5324
52.108
0.000550024
41.2552
26.5212
-0.0043518
47.7926
49.8738
3.28004
36.3557
62.6283
34.1559
4.59377
19.2769
-0.0049463
3.80595
40.8799
21.0012
23.0615
-2.15869
63.5107
3.69698
-0.532131
-0.413507
35.1252
49.2025
27.2821
-0.00346281
0.165262
9.54466
-1.91164
18.2385
47.8325
87.1705
19.2653
18.1335
11.8442
42.9627
0.0462755
35.8035
16.2187
50.1959
6.74024
38.7691
-2.1807
-1.04951
4.28891
-0.0407739
-0.0805487
40.3572
1.4938
42.3617
-0.200281
35.474
-0.18282
23.636
18.6572
29.2901
90.8631
26.5392
-0.0920248
42.2022
21.0826
28.8233
43.4886
88.2441
23.1652
21.2941
-7.39297
44.1491
12.5845
41.907
16.5302
23.2073
0.342511
47.4141
29.8708
-0.363304
-0.0685772
45.3316
-1.23639
38.7086
36.5838
12.2671
-0.180001
15.1336
48.7369
43.6182
4.82025
47.6099
40.9649
33.584
0.759765
-2.1589
30.7556
49.8627
21.1191
16.4137
-1.22228
0.098185
18.0828
30.4393
35.5604
41.6965
13.3183
7.35826
22.1297
20.6937
25.2286
37.5401
29.9112
29.6395
7.24935
-0.0900097
28.9984
21.2811
8.06508
-0.522938
45.7058
47.3448
51.0386
44.5141
22.4921
46.5116
-0.49192
48.9523
17.4914
15.0526
-0.109437
32.5541
32.5725
-1.21872
5.5444
51.3688
51.5112
7.0257
49.6465
49.3137
36.9569
21.2791
22.9623
-3.58759
47.754
18.0637
-0.625203
-0.0155454
-0.639812
22.148
1.99823
14.7239
20.7704
8.25847
-1.27116
45.7324
26.7757
51.6222
37.069
47.9373
24.1871
-0.0509054
38.4904
6.17126
1.64184
48
44.892
44.4616
37.9895
16.3176
33.0589
21.3579
0.0189675
35.9346
-0.840014
22.4561
17.1242
23.802
-0.0310191
19.6357
41.6832
0.000128116
34.705
39.5452
-0.642353
-0.532684
-1.34796
47.4902
42.7664
-0.00889005
-1.46966
0.0941917
-0.483079
7.91734
-1.44349
2.81672
2.7364
1.03749
1.49499
-0.659438
-0.637146
29.6077
-0.0481808
-0.0417831
24.8626
24.4442
29.5945
51.9087
26.766
3.44738
3.85873
-0.00190872
11.9702
19.3776
15.0538
19.4353
-0.60773
51.7703
37.404
47.1216
22.1081
29.0442
21.3567
25.5631
0.0329131
23.7584
14.8071
0.477398
24.083
25.0134
-0.107632
41.8952
45.4485
0.144552
49.7845
34.1937
15.3936
16.4848
-0.111429
40.7905
19.9587
-0.00899054
39.0316
-0.107473
-1.245
43.7051
88.181
1.90568
12.123
-0.0401516
24.909
7.32318
47.8803
34.2978
0.114987
0.284227
5.71115
27.3605
-0.0601337
16.2002
1.83335
78.1653
44.7318
5.73009
-0.146515
-0.927801
23.7902
34.7732
49.59
25.5172
41.9761
7.77357
59.0618
83.8936
41.1409
50.9108
-3.50775
1.05293
23.3403
-0.107763
49.5193
47.3666
41.7028
64.4427
41.7867
44.4173
44.5715
50.6096
48.1485
36.4222
9.7192
52.0862
71.5701
-1.63721
18.483
30.5964
2.46708
23.1758
-0.482329
20.0449
23.7478
8.31131
25.5111
0.103308
36.6026
14.0585
29.5847
-0.0952469
0.720227
-0.228463
-0.0229128
46.2312
43.4329
12.0821
-0.581073
26.1251
-0.086822
0.141131
1.08871
-0.551693
7.16232
80.6137
14.2969
44.5801
-2.0371
41.9135
35.0379
19.5436
7.19311
2.16426
30.3397
64.1026
-1.3621
-0.0185356
11.9199
20.5093
22.4914
34.324
8.31865
37.6757
36.3593
4.57168
5.78783
40.1922
0.579017
-1.23237
-0.139778
-0.00822824
-0.221259
31.5593
42.4513
49.9006
43.2448
-0.300734
-0.126601
-0.632868
22.8996
41.4396
33.4588
74.605
43.4603
-0.221109
3.92029
23.9225
15.8568
22.1174
20.6787
21.2576
26.0125
9.52789
34.9479
8.6468
1.04394
5.34118
36.6215
13.1159
12.6004
100.754
10.2141
52.4681
49.7426
46.2455
52.3839
43.8459
27.6202
1.81928
12.7666
42.6655
46.5329
0.833383
-0.0682793
14.7944
17.8716
-1.03424
25.5316
20.1812
28.2476
50.6319
-1.29662
36.0327
26.5792
23.0924
38.4751
27.1321
16.0439
29.0922
19.9578
28.0092
4.11701
33.3303
-0.697112
27.6218
51.6224
26.586
7.86445
0.795556
48.5519
10.9415
22.6927
17.771
-0.0844289
52.0473
40.8708
26.5159
7.26679
15.2248
18.8745
1.01086
87.7219
24.1603
19.5449
12.1615
9.45801
0.0954336
-0.325609
33.1068
-0.0729334
23.1404
28.8874
20.3692
-0.454198
2.30642
0.364844
9.76721
34.5959
23.02
35.8222
22.5752
26.3108
4.11828
3.08881
42.5751
4.16911
-4.20376
43.1006
2.97736
49.1497
49.3954
-3.00876
45.9487
4.88539
22.6156
-2.98909
-2.29516
26.9338
62.0255
5.68095
28.8166
8.13061
47.4278
18.1265
13.2209
-0.626196
0.696151
51.7819
49.8649
23.5908
52.0845
-1.89478
49.0094
19.6055
9.57634
37.5445
37.4929
-0.267408
-1.2975
50.6885
21.0738
-0.0843727
48.9952
44.8717
26.3195
34.684
51.6387
49.2471
12.0291
22.8747
0.772094
12.5082
14.3183
7.14984
25.2399
0.359851
4.17317
18.2394
35.2792
46.9151
25.1506
50.4947
63.1939
2.83302
13.0417
29.9528
3.34472
42.1434
5.58635
-1.97147
46.7024
25.4771
73.2774
-0.947099
38.385
23.5405
-0.0729279
14.0412
-0.265398
11.8941
51.0359
45.9519
49.3211
12.9447
31.8674
-0.536557
-0.238792
1.24095
48.3092
-9.78215
13.8627
-0.259989
49.8467
38.1281
0.170065
13.0056
41.5608
-1.32311
20.532
-1.13315
10.0662
29.5008
46.25
47.7714
37.8061
-0.351915
24.4737
6.04324
21.0889
-0.280044
16.0142
0.0788654
26.7854
0.496562
50.0619
23.0574
22.7603
49.7963
-0.242425
51.5153
-2.12408
50.6245
0.0314566
49.3905
16.5712
31.4031
30.925
41.7047
47.68
46.1966
47.7707
89.2477
37.4999
11.8517
22.9911
0.570468
60.9362
50.3182
-0.55133
34.3773
28.2329
-0.486927
47.76
35.8196
35.5358
-1.73191
-3.30158
29.3803
25.098
29.6312
34.6867
8.48011
35.7494
32.2168
36.6491
36.0952
31.5039
11.5827
-0.599399
66.9666
34.7639
18.8404
-0.00218653
12.5328
49.5733
48.8925
18.2377
23.5914
41.9828
-0.258366
36.1898
36.0334
47.5359
34.9353
23.5431
48.3959
3.39018
37.8645
50.5713
-1.2391
5.658
34.8112
-0.611264
-0.284219
22.9435
0.00158698
-2.44517
-0.56403
49.5725
37.1559
28.2124
-0.0299884
51.1103
11.5152
0.0621781
50.8639
22.665
33.6097
21.0097
51.5552
0.576965
-0.015637
-0.716754
50.8739
45.9243
20.4748
37.6849
40.0923
2.45832
33.4089
73.8237
46.6319
33.828
24.7273
17.615
22.6924
42.4674
23.1442
-0.360918
33.127
43.7521
47.3581
19.5987
35.2126
44.0055
39.0993
-0.194543
22.6666
33.9031
41.074
0.0982992
52.1822
35.5271
51.443
-1.93872
47.7788
43.9363
-2.02699
23.456
22.6124
36.4893
0.541895
4.90449
19.3087
39.2986
69.7959
4.57614
36.563
3.00286
4.2241
11.0033
73.441
3.22403
17.3416
27.4526
16.1782
10.2152
2.61201
0.595221
2.16911
41.3642
16.3293
46.2371
0.0883109
24.7825
1.25004
18.9835
-0.24513
35.8077
0.104874
0.0313399
40.7271
28.7549
14.1434
38.7388
22.5911
50.1565
-0.116764
13.0483
38.6176
10.8486
39.2616
1.81206
7.17931
5.98639
12.4344
36.9647
42.6759
26.5763
25.4677
25.5538
5.73199
10.205
-0.0670887
-0.571253
18.5564
21.0437
16.6695
23.571
0.0300385
50.4767
11.6732
-3.68255
22.3581
-0.350258
46.8521
30.4925
78.944
23.9399
24.2175
51.632
32.4065
37.144
2.59854
45.1912
23.0188
-0.942702
49.6838
2.48814
7.2892
-1.36709
37.5558
5.72419
48.7064
17.7923
16.7971
8.52608
43.8266
51.6727
17.6526
6.2612
-0.439985
20.5255
45.3433
-3.35598
23.0553
28.1038
-0.0524277
50.9665
-3.72743
-1.44841
31.8452
41.1336
-0.812486
19.1986
0.122173
36.1973
36.9358
38.3257
6.03339
38.6945
26.3004
51.1102
0.0824054
67.6525
17.6254
9.65796
9.43506
34.753
21.2439
7.13634
-0.00791833
42.0427
-0.00717441
30.291
6.51383
36.9339
41.8207
41.4814
0.975201
41.2865
48.8208
3.57705
13.0176
12.2881
25.2153
-0.00103191
36.2625
50.1725
16.2526
0.039912
29.3252
4.64643
26.0904
28.4451
36.7333
45.4575
24.6004
69.8522
39.6205
0.727816
9.13932
-2.19724
-0.667488
47.8788
30.4885
0.844338
83.1042
-3.52546
18.9472
0.495596
21.6697
40.8276
0.0366615
0.173005
11.6013
-2.48016
-2.68355
18.9016
25.3484
3.81423
44.9656
-3.15346
6.94938
32.2967
22.2312
-1.11164
6.752
13.4163
18.6876
37.8114
6.86758
18.8157
51.6213
18.4283
99.3358
21.7924
-0.369536
2.16659
23.4628
50.5365
76.2502
10.0424
-2.09768
31.5696
40.0085
6.63884
0.393192
0.0776723
44.2652
0.500346
36.0119
1.20543
79.7543
0.956035
48.8407
-0.446034
-1.1892
-0.199977
18.9372
6.94647
18.6575
1.26361
47.457
32.219
45.6048
49.892
41.3466
8.79583
46.9262
9.02303
19.4921
21.4136
8.96858
0.530641
-0.0518521
48.1501
40.5354
-0.522096
28.6308
40.5757
-0.0341656
22.3103
-1.01793
36.2842
47.203
43.083
29.9386
25.2106
16.9893
17.5726
12.1865
1.19679
17.4188
16.3701
1.05477
8.93386
26.8849
-3.15205
83.8782
19.2887
-1.33772
45.7279
30.6685
49.8071
47.8607
12.9538
27.7952
5.17857
-0.00746541
48.4042
29.6193
38.7485
16.2884
41.9452
63.7924
-0.111326
15.5106
21.8755
29.4501
-0.232771
46.6468
21.073
38.2409
-0.00590375
32.8422
-0.445949
18.616
27.3027
38.2855
11.2709
0.908022
2.33935
43.8326
33.6643
-6.02204
-0.291074
21.7943
43.4302
35.6434
35.3397
37.5957
46.6131
21.9336
9.40945
27.6817
15.7274
30.9294
51.5452
2.21833
89.8601
44.5797
0.74065
18.9886
52.6987
15.2049
9.26446
1.84379
27.1706
9.32986
23.3301
11.5465
23.087
25.7283
34.7749
43.3153
47.2588
-0.32026
50.4438
41.9517
38.9228
13.397
-1.34101
38.7207
46.9908
50.5802
-0.0232428
27.3242
39.6793
41.3934
-3.36414
0.481632
23.652
17.2916
-0.367269
-2.14886
13.6053
4.46269
15.8627
2.24679
-1.03482
31.6334
1.93111
41.5484
-0.616571
-0.935498
28.6652
17.4765
21.7659
29.8765
2.36906
6.39046
20.7135
40.5347
23.114
34.7045
48.5771
22.4235
4.2214
4.9635
38.7863
-0.760634
44.5738
27.5901
2.90584
24.1202
20.0982
28.8674
37.698
49.4318
47.408
-5.58968
34.5993
20.1267
7.30522
6.25629
0.0740224
20.5042
-3.55271
29.8654
0.240753
87.4396
26.4063
34.4011
46.6619
90.4551
0.0507881
49.2428
-1.3987
0.222617
26.5885
18.9581
-0.613389
47.0628
88.758
37.5542
7.45069
14.9835
49.7637
13.7428
91.4475
-0.0392337
-0.356409
39.5297
48.1096
15.7969
29.5008
49.5179
4.10433
-0.541462
88.0872
21.842
-0.921182
-0.8842
46.8318
-1.28274
43.1439
-0.382901
26.3422
-1.20453
37.3191
7.95998
12.2571
9.9879
40.6813
2.60682
22.2385
34.267
-0.27635
17.0399
45.0937
31.1913
34.9218
-0.100464
41.8778
6.30053
30.8198
49.817
47.3205
-3.57728
48.2755
4.14205
-1.51801
-0.15267
16.5228
71.9251
48.7576
-2.09414
8.79094
35.8284
20.6912
50.9407
42.7853
47.5977
-0.103891
35.3794
19.6035
26.5239
3.54064
-3.16791
47.5538
2.25053
96.2187
49.6676
-0.0191593
42.6577
50.6014
22.2286
-5.8899
18.6933
30.8345
49.7435
22.1323
8.08225
50.5175
-0.444052
37.2105
50.1482
20.5514
10.0762
33.1501
32.1773
34.9305
38.0486
25.1431
37.5617
21.1008
-1.52519
39.4216
-0.133609
45.4425
6.94493
37.2418
30.2003
49.7399
0.482107
25.5673
20.2478
2.81365
70.327
38.2644
0.187998
43.9559
27.7857
4.63738
5.51403
31.2945
1.43434
12.4468
24.8033
-0.383417
3.95686
25.4496
-5.27462
47.4052
0.00137837
32.6839
-0.292635
23.3658
48.8235
4.66087
49.7451
-0.61277
-0.000584147
22.0324
-0.660453
-0.429248
35.2189
49.5737
23.8377
6.43881
16.8559
19.8735
0.0107152
33.586
-0.0387288
27.7681
25.3246
6.66082
-0.226085
-0.651529
-0.194735
49.414
28.9401
23.985
45.4044
-0.00894739
-1.17254
-0.0175501
41.7969
28.1975
10.2277
23.9693
-2.15877
0.083214
4.77872
5.58308
-0.0732417
41.6607
37.5831
44.2025
-6.00673
-0.852164
24.6207
49.8357
58.4341
0.0709009
44.1759
42.1319
39.1785
2.47826
-3.69405
16.8292
49.5928
29.6426
18.1679
22.1224
9.65095
41.4708
40.2379
26.4667
18.1959
37.8209
37.6211
20.5022
8.5117
20.632
40.9848
7.13473
0.738146
47.5505
55.5874
-0.441932
43.3252
69.6727
51.5374
45.6062
16.5273
42.4695
3.75195
2.51714
23.0161
33.4515
0.0201438
49.4597
46.7062
-0.993793
26.7559
10.0468
10.0276
-1.13803
38.9144
91.7008
49.5853
-0.44755
49.5342
24.3928
0.101939
4.32068
47.2162
19.8515
46.9953
51.846
15.0339
23.2548
30.1926
9.29908