/*--------------------------------*- C++ -*----------------------------------*\
  =========                 |
  \\      /  F ield         | OpenFOAM: The Open Source CFD Toolbox
   \\    /   O peration     | Website:  https://openfoam.org
    \\  /    A nd           | Version:  7
     \\/     M anipulation  |
\*---------------------------------------------------------------------------*/
FoamFile
{
    version     2.0;
    format      ascii;
    class       volScalarField;
    location    "6";
    object      p;
}
// * * * * * * * * * * * * * * * * * * * * * * * * * * * * * * * * * * * * * //

dimensions      [0 2 -2 0 0 0 0];

internalField   nonuniform List<scalar> 
117990
(
18.6797
-0.0332442
7.28562
2.05175
6.63739
-0.0203582
31.4434
14.5864
-0.22438
-0.0346857
-0.37786
0.301013
4.41563
60.5328
-0.218189
56.9082
-0.068143
-0.400788
30.4812
6.71574
14.4834
-3.59819
-0.419154
3.03518
30.3165
27.0184
10.8935
17.5038
-0.0676977
28.3048
-0.250437
27.5074
12.7014
4.08183
29.5214
-1.19538
31.1713
-0.0621225
-4.4908
31.9921
27.5746
-0.401186
11.7099
-1.22931
20.4281
60.6553
12.7315
8.98611
7.08551
0.271947
-0.000162393
-2.59362
28.0482
-0.0179535
6.99139
28.1187
26.6687
29.7266
19.8726
8.26793
-0.0817925
3.19393
-0.778795
8.72074
-0.151962
2.81188
4.25748
25.0908
10.7375
25.9512
31.0433
25.4579
31.9476
48.2048
16.4957
21.0464
20.3726
2.34177
31.4335
25.0205
25.082
-0.145486
19.7637
17.0838
-2.25673
0.288506
10.4283
-0.0473975
27.686
-0.0465105
0.718832
3.28338
-0.0701452
-0.951195
-0.453235
0.655728
-0.491792
19.3404
9.3346
27.6634
-0.0828143
19.3845
10.7946
5.7876
31.1306
14.8333
32.1781
14.3894
14.1392
-0.056589
25.0632
-0.487401
20.4752
12.153
24.6783
9.87588
-0.380947
30.7298
0.0192493
25.3763
30.6451
56.967
7.45589
21.1
-0.00614642
28.5451
3.28738
22.5283
-1.4755
21.8584
18.1578
0.436568
29.1997
0.286671
0.0200375
30.1677
29.9512
12.7589
7.09376
3.16762
19.6813
9.73873
0.0795773
28.2647
18.384
-0.000216533
15.8922
3.31976
25.1289
4.17486
14.7109
21.1161
3.20568
-0.0060046
-2.55848
12.6795
-0.054731
23.2174
25.4362
15.2547
20.264
15.7976
-0.767668
14.3316
10.8787
-0.743774
21.0121
14.6403
23.0819
10.7728
9.08977
12.6759
-1.9023
58.2444
14.4623
24.1893
58.4644
1.49415
14.5416
6.99569
16.1497
16.5752
29.9798
28.357
32.1772
-0.0455418
1.15018
30.2319
20.1705
0.87283
1.53754
9.49247
30.7614
13.6718
27.1373
14.5304
58.5591
-1.09643
14.7634
16.1857
28.992
31.8524
17.0357
-0.0547475
0.638467
22.5526
-0.33439
-0.147984
22.2576
15.5567
58.8269
32.1554
30.3557
-0.0451748
14.8009
13.8629
23.9046
12.7795
60.5819
-0.164904
14.2229
12.0484
8.15398
28.4358
-0.0189782
29.0727
14.0066
16.0464
14.3763
30.5925
18.4886
17.4461
21.3635
14.2384
17.9684
29.0602
0.786223
9.2388
14.4634
-2.63857
6.34789
17.4996
15.2124
8.76028
-1.51908
4.4517
26.6183
32.2618
14.6424
45.8651
30.7145
-0.357264
28.2599
3.92305
23.427
16.2543
18.2581
17.4518
0.499763
14.465
16.2743
60.7191
28.4078
-4.73134
14.1858
2.14244
21.3645
-1.44881
23.0653
18.1678
-0.157826
20.243
6.98111
17.5351
3.29613
10.8697
19.3712
14.5648
8.64331
13.937
14.3818
-1.49683
2.05315
22.2765
0.386747
14.4385
29.2182
27.834
19.0574
-3.79406
20.0636
-0.0494931
18.0154
32.1245
0.0364616
17.5809
-0.0571757
27.3813
5.46216
17.8826
59.7745
14.1077
-1.23382
4.84147
12.8593
25.5431
17.3972
15.9279
1.15456
14.5506
-0.53639
28.2695
25.5285
14.4897
4.35114
10.649
30.7599
4.44804
3.07809
16.3257
21.8425
-0.156642
16.9331
24.7883
26.0378
23.0168
12.817
27.1241
59.8994
18.2064
-0.392063
-0.0498077
0.028371
-0.0876593
28.3124
3.07766
23.6576
-0.151461
-0.0892904
1.06531
7.44061
26.4561
10.2606
8.16387
5.51608
5.95742
8.68759
21.255
18.7305
8.6243
29.3295
30.1328
16.1768
1.50255
16.1108
14.9121
18.7043
-0.00069016
0.668649
19.9793
30.3503
12.0393
31.1837
26.9866
20.4692
-0.000606086
2.79608
11.8908
8.1737
-0.00307779
12.05
23.0043
31.6016
-0.62286
23.8799
9.00722
10.6748
0.266822
-0.0630075
20.3285
17.9794
14.1998
11.9141
19.9494
14.4146
-0.238456
21.8455
48.5312
6.59452
15.714
27.3729
31.4479
10.55
17.5503
11.9302
0.580418
1.40678
2.54711
6.90826
9.40979
16.5574
0.887413
23.3948
31.8469
-1.68197
18.6017
0.020374
8.04296
23.5013
-3.6726
13.0497
-0.596815
6.03984
2.34545
-2.31192
8.53383
6.89218
10.5167
0.053957
14.1785
-0.000689833
58.9667
0.443444
29.9469
25.8153
30.304
18.8577
30.8259
26.5448
2.97473
4.91045
0.0103799
-0.186558
15.4608
4.80027
8.02055
18.9459
0.433017
-0.259067
0.25664
2.2396
22.0138
18.7329
9.48975
0.364535
11.9541
4.36485
-0.237385
31.389
24.1418
32.1383
0.0596146
0.303539
5.11929
14.6251
4.01618
14.3469
32.4312
29.2803
-3.30523
23.5073
4.36169
6.51825
32.0482
28.3589
14.3773
6.36006
58.1876
-3.23892
0.0601119
14.2221
47.5931
14.4508
48.6609
18.8726
26.0079
-0.00240279
6.40395
19.3288
22.4865
29.7216
-0.0017326
-0.149988
4.45943
14.4573
-0.260616
0.0536889
22.7158
29.6836
18.0367
32.0604
8.56789
30.5816
28.7454
2.44856
12.1138
55.0547
12.0921
9.15381
5.81652
-0.913216
31.4197
14.2649
30.072
17.4218
30.2094
8.87612
7.45459
5.73565
29.2431
1.56472
3.8275
3.90251
-0.0668307
18.4443
16.2517
0.52968
23.0117
-0.0327471
-0.0236658
4.98628
17.5671
1.69811
8.44848
13.3403
3.74045
-0.0500361
30.9704
15.5825
14.7427
9.25052
16.3079
6.81177
0.0115255
-0.00163674
43.365
55.136
16.7504
0.0103655
4.21433
26.4936
10.0308
20.1645
-0.142797
15.3184
16.1242
0.167167
-0.0597108
32.2096
4.35999
6.41752
15.0573
0.814642
32.6423
13.5699
8.46242
8.05494
8.53714
26.9351
0.598422
0.0179761
9.35086
28.5306
30.5778
31.3719
18.6396
7.74434
31.7726
15.7276
0.501922
20.4192
7.60758
22.7395
5.7443
23.6362
2.81403
31.318
1.1652
4.53889
8.74051
32.0598
0.484922
14.479
14.3501
29.2475
14.5545
3.88606
10.9631
0.0990808
-1.73804
3.74635
17.7214
14.6188
5.87207
23.1626
31.8983
30.0352
30.8367
31.0286
17.95
19.2316
15.835
32.066
32.146
6.40067
2.95603
30.5545
0.0293651
-4.68452
12.2823
10.0693
4.40762
22.5169
-0.194218
4.99314
30.5932
29.5632
-0.271892
0.620628
22.4396
3.76287
-1.34372
28.5515
29.5789
-0.0527145
13.3331
14.1876
1.29528
17.6316
26.5298
29.8011
3.83922
-0.00216833
32.0773
17.5779
-0.275013
22.0183
12.6889
2.88416
-1.77347
-4.75808
4.72245
-0.222174
16.2593
0.632718
-0.221931
9.87005
20.5084
-0.343498
13.2418
2.81538
14.5594
32.0955
0.025023
26.0448
16.9838
30.5732
20.7294
-0.524436
-0.0714039
-0.415731
3.99331
28.6943
8.743
2.8996
30.2542
53.2076
53.6445
20.4415
22.555
30.7978
-0.478285
14.5016
10.1769
0.405743
17.668
2.79257
18.4996
13.7788
26.9188
34.0381
1.14681
10.6758
14.8689
24.7212
26.0804
16.4923
0.000288894
32.0296
4.27655
60.1829
8.25855
19.7036
13.2083
9.3606
6.24073
-0.845662
31.5316
11.7653
26.7645
46.6799
18.6981
-0.0486336
14.2294
13.4523
14.3986
21.9275
15.0713
0.657404
13.0256
-0.921597
-0.0468707
8.67295
0.562841
29.7558
0.414246
30.0257
11.0475
18.3737
6.67214
27.7878
8.9681
30.1835
-0.00296297
16.6858
4.82174
6.45362
14.1591
0.0243944
15.2429
24.0695
12.8561
0.501889
9.78015
28.6574
30.0816
5.43242
-0.397784
22.5276
0.315433
30.5842
16.1741
22.7037
30.3513
0.302742
19.0967
30.8995
-0.224243
23.8853
30.4402
-1.79296
10.8166
0.739933
12.801
8.8323
-3.72122
29.8575
11.9591
22.84
25.5006
-2.16556
0.217865
30.2197
2.5757
4.28388
0.585372
29.8448
46.2921
28.6053
4.32077
1.09081
4.39022
7.79165
13.4964
22.949
21.538
28.5717
-0.281196
8.19016
0.00672062
4.6115
-0.00303789
-1.50959
14.3305
31.3531
-0.0687525
30.133
-0.488099
17.7749
-0.583296
48.1113
9.45658
27.0021
-0.265498
15.6178
17.7601
8.30004
-0.0549173
1.01106
-0.357508
13.9632
5.97084
-0.8679
33.0073
0.204523
0.674827
14.1252
-0.515979
31.7624
26.0481
2.32415
17.9635
15.0853
-0.00718304
10.5673
14.1534
0.680197
16.6527
4.32745
23.2536
4.43871
1.10948
17.6023
-0.0460526
3.55688
-0.465743
32.0721
-0.924874
0.303131
-0.278713
19.8316
29.6983
2.67336
1.25709
29.7192
31.8958
6.46484
25.0862
9.97495
45.5454
0.225481
-0.010263
28.6642
23.9313
0.215014
23.5503
-0.751709
-0.0260666
26.02
14.2818
33.6388
49.7196
14.6168
-3.70999
4.17779
9.09693
30.7001
0.0018338
13.8548
25.4091
0.0929448
10.3032
17.2993
29.706
10.9294
10.682
26.6395
22.3348
15.5936
11.7254
31.6538
23.954
1.24717
13.7966
28.6404
-1.03998
-0.442594
13.9008
5.41357
8.17907
25.0145
-3.73468
-0.0250493
-4.73763
7.52309
12.688
30.1907
12.5914
16.625
0.964786
29.8761
11.781
26.0011
11.7324
28.2621
26.8278
14.3414
28.2298
30.4358
-0.462551
25.8656
30.2698
13.9216
1.76447
14.63
30.0403
17.938
18.7424
31.7109
5.53489
2.85998
-1.67793
0.664899
20.4696
24.6893
0.662023
30.985
27.2093
22.5268
-1.48748
19.2566
48.5395
13.6612
31.8471
26.6762
0.866364
24.4693
48.1519
2.45645
26.8724
50.5791
-1.0431
25.7027
0.553102
30.2402
5.61906
28.8235
19.908
-1.54368
31.4919
-0.88587
15.623
11.3359
-0.274344
11.4305
11.2253
9.3123
14.2286
3.68648
1.59738
23.1693
11.8553
-0.446673
14.146
60.2373
30.9635
21.5515
33.0436
-2.50799
4.69645
31.2936
16.7309
-0.0466633
1.56417
14.1364
1.16077
12.0064
-1.43073
26.1139
-3.3236
21.8089
43.0899
25.9
21.7499
4.61424
6.73273
-2.76804
22.8723
13.9244
0.000265915
-1.05283
-0.440861
26.2876
3.83699
-0.00509593
11.9169
9.90899
14.4195
28.7703
26.9303
9.56767
14.6311
4.39471
28.4253
13.6945
27.1039
3.74409
15.7557
14.9875
6.84209
-0.263986
0.678091
-0.0581772
14.2521
-0.878145
10.5767
1.17759
25.3846
0.0144179
1.5192
0.116201
28.7019
11.0449
31.4417
21.675
27.8883
-0.664304
11.9066
31.4446
20.9567
11.7896
24.5558
-0.27311
5.38898
-4.40187
20.7099
0.0153826
17.8297
9.42626
14.4562
14.4611
30.4427
7.48938
-4.56484
28.728
8.94944
7.87077
4.52545
-0.00462053
-0.247542
-0.948283
23.019
-0.520286
3.04804
9.59683
30.562
29.0609
15.1885
0.289509
11.9139
22.5536
7.08213
0.272046
8.99525
21.2014
0.0454574
3.86289
22.2905
32.7353
9.00982
56.4709
26.8477
12.3831
0.421899
50.1632
20.8238
1.8507
0.0714455
-4.29702
-1.50052
9.35091
-0.0574105
-2.43307
24.1932
22.0154
12.9456
13.3505
9.02319
-0.0739559
28.7592
-0.454584
17.6206
29.4926
-0.130629
19.6804
5.15763
29.7221
24.5934
13.679
30.0509
26.83
8.55941
20.0035
0.292289
1.60772
55.2477
-1.47518
-0.268225
18.3742
-0.708786
-0.11111
8.22062
-0.343467
14.1657
14.048
2.49309
-0.329794
-1.28977
2.45462
-0.0726801
28.4861
21.64
15.7661
-0.79371
50.1323
13.8374
22.7928
8.50606
8.92725
30.1203
25.5304
23.5981
14.2708
2.5787
0.0425099
23.8184
31.3919
21.387
-0.0672572
-4.84743
0.281527
0.0684292
28.7644
1.26616
22.9373
-0.894373
32.1137
15.9759
8.82079
16.6049
-0.0167975
30.3849
-0.792849
3.92991
24.9887
30.5531
26.3813
1.24671
3.23043
26.2146
-0.0186015
27.5808
3.97301
32.0799
24.8949
9.64884
6.14664
0.0528132
25.7655
11.8799
11.9561
12.5483
10.0258
0.988748
17.758
-2.22259
23.2225
28.619
7.35223
30.3636
28.1024
-4.05251
-3.62422
22.1804
10.6592
23.4205
29.1595
23.4776
9.62208
0.00791281
6.49288
14.2806
13.0654
15.6794
25.4493
32.0311
1.07702
29.2546
-0.0178991
14.9421
2.89964
31.5374
57.9981
-0.128322
30.2012
-0.0396754
3.74767
-0.0726838
-0.00186784
-0.00155266
31.5921
6.90848
14.5033
10.7318
3.25917
38.508
29.7538
7.43538
2.5608
-0.588783
-0.0727557
1.46033
19.5259
21.7916
30.2145
-3.57334
28.7289
11.7532
14.8044
20.149
1.43988
24.4469
0.0324226
3.08031
1.48872
9.74901
-2.28357
30.3855
2.79093
0.00058208
10.9434
3.69496
31.8439
-0.0471027
2.67265
2.60703
14.5969
17.7979
13.2828
62.3609
27.1345
30.2348
-1.49978
2.85612
14.3836
-0.850036
27.8566
13.3946
-2.48806
19.6793
-3.50311
1.64488
10.826
-0.332552
7.56822
37.8957
6.61507
23.0883
32.0369
30.3205
31.0149
-0.0285294
3.48329
0.0296745
25.4441
22.0463
29.1919
8.68304
13.772
33.1451
13.6629
16.9951
8.82857
21.5694
14.081
0.0183364
26.6656
-0.592225
28.5114
23.6351
22.2291
0.268726
2.81737
18.4806
-0.00762625
27.9982
5.30758
15.9017
20.1006
22.6761
31.2579
14.909
32.7323
29.6456
16.7821
-0.881132
21.9221
23.4143
4.53622
22.7933
-0.0309051
17.9547
19.7726
7.39223
25.3652
0.31147
28.7229
29.9568
-0.0546592
3.19157
0.0659912
27.3567
3.92989
15.0303
3.06755
18.0056
27.4628
4.71535
15.2589
3.91687
12.737
8.52668
-0.0481194
1.04939
17.4142
47.1907
11.8233
-0.0389415
16.9676
-0.868996
4.27482
19.7644
30.7587
7.83425
16.5979
29.2357
7.88577
6.45688
17.3243
6.54081
6.51699
16.5308
23.3987
14.2509
-3.55064
-1.35671
16.7173
0.27892
-0.421773
0.0642267
27.0716
-0.986121
1.81399
17.4982
-0.00905857
4.92809
-0.217172
31.5343
-0.0069839
3.67608
-0.153769
6.64481
30.8729
8.40665
14.0548
-0.0711417
-0.036171
16.0533
4.76837
-0.268872
31.1353
14.0795
-1.37121
51.7775
3.86987
1.49438
11.8003
8.06331
-0.873713
23.9408
-0.330628
14.6122
29.242
-0.258543
16.7635
-0.496374
14.5148
32.9789
20.2437
-3.69911
0.251112
7.8296
7.39516
8.39342
17.7914
3.07488
-0.750553
-0.153259
-0.323179
14.257
13.2961
27.7362
7.52878
3.28685
23.0402
28.2401
21.2828
-0.313919
14.4116
17.6996
21.8565
20.15
11.8584
27.3803
27.4327
14.0889
19.4429
29.1262
14.5623
0.254903
53.7218
59.4611
19.0528
9.30505
10.3302
3.17225
23.1346
13.4302
31.5535
14.6073
31.4177
47.5505
-0.662543
9.60902
4.61784
0.0247312
-0.0640418
30.9852
-0.0979844
20.9925
10.3108
16.117
32.1446
-0.448652
16.8195
22.0334
-0.239536
30.9373
13.348
-0.789061
22.1231
27.3469
-0.00348765
22.528
1.41759
21.8083
18.7347
45.7491
30.436
-0.787383
-0.697767
28.947
31.4697
31.4759
3.6874
17.1051
31.6124
25.9507
13.8238
-0.00643204
28.1739
15.8573
8.71188
10.2349
29.203
11.8303
3.1613
20.6213
-0.241286
15.9103
26.9233
31.7385
27.9044
27.8917
28.1695
22.0589
-0.328591
-0.585827
-0.807309
-0.871838
27.9254
28.8807
28.4967
18.0494
-3.66743
14.007
12.0003
1.93657
4.27297
-0.576547
43.004
8.07459
21.8055
-0.0191856
0.0189693
2.7853
0.0482569
2.93838
5.80288
19.0828
5.09101
4.52238
25.3975
47.7661
4.38586
-1.5104
4.0784
-0.863022
-0.254413
3.66515
9.83748
0.757853
4.35571
20.8974
-0.0564982
22.044
17.4934
8.71478
-0.376445
7.57593
21.9286
12.9646
25.5645
15.5939
0.720949
19.1204
12.126
-0.981874
-0.0177236
0.287872
5.47172
30.4387
2.17198
2.94484
5.44418
10.5355
-0.458316
30.9137
-0.969752
27.3857
1.63372
-0.620009
0.266062
13.8952
54.7352
30.3177
28.544
28.2723
1.46614
15.4124
-0.0977774
-0.00498107
-0.62792
5.01123
31.2186
18.0442
39.202
13.3924
30.9093
23.3761
12.9946
0.000140354
23.0214
30.0264
19.6825
-0.0690934
-0.748448
2.44676
31.4238
29.0044
17.4165
19.1287
27.9537
3.53909
-0.0679174
-0.0489427
21.9232
3.57387
26.1877
-0.0193732
19.6232
7.47909
0.0761218
27.9939
15.8454
26.3069
-1.17764
1.4223
22.8622
18.8437
20.659
9.65066
3.36783
23.3472
2.88207
17.8419
29.3939
28.5503
-0.915366
27.5231
-0.00146125
0.767454
29.1819
10.5297
22.0728
22.313
3.88386
31.2685
22.0225
-0.0453216
56.2701
4.09874
4.25752
-0.345489
-0.142596
42.5791
8.21856
3.20718
11.7967
6.02386
27.9463
30.7051
0.214463
-1.54516
-0.512701
16.3794
-0.373376
0.0723928
-0.0743617
28.005
17.3454
4.18046
15.7054
23.5016
51.7268
30.2702
28.4052
31.6233
-0.0438923
-3.89645
24.3479
10.1122
14.0501
-1.00247
29.9459
4.23362
13.8482
2.40665
22.5702
51.2471
21.7472
-0.000979344
25.2194
-0.13233
-0.00382499
21.1435
-1.22323
15.1154
27.2768
12.0923
3.25491
-1.34765
29.4723
31.7982
31.31
32.094
44.7505
-1.56333
-0.741202
18.8316
14.3737
7.44049
-0.17408
15.2179
6.10549
13.3996
5.36108
-0.0274485
11.0836
19.0118
30.6688
28.7068
-0.0329519
25.1977
2.35442
60.8372
54.1929
10.8852
31.3728
-0.506678
41.6261
21.221
-0.44166
0.138401
24.1233
28.0998
13.1447
18.8399
23.9625
9.48194
-0.00970254
-0.00698737
23.8308
17.6919
14.8915
-0.742729
26.3094
-0.18085
-0.00380422
-0.652962
6.42128
10.7684
-0.0478911
15.4857
25.6747
29.6805
1.33352
27.1719
4.6949
29.7965
-2.23642
15.1627
0.0694919
22.2826
23.7932
22.7489
26.3536
30.8205
10.4816
14.4345
31.661
-1.07408
29.1009
4.56495e-05
26.8553
19.776
28.3945
0.266084
-0.0564656
21.4349
28.8153
27.9727
0.0209068
4.1961
26.1249
3.01191
-1.05653
22.7111
17.1754
14.5989
30.9717
-1.52819
21.1445
8.28663
23.0785
-0.3239
29.8239
27.4242
22.9441
-0.661584
27.5265
13.9432
19.4449
27.1707
0.325049
15.5637
19.0885
16.9433
-1.41629
13.1369
10.0114
-0.0396726
13.0401
-2.32317
3.9855
13.3195
-1.34832
3.0481
20.974
0.0818824
24.1376
54.4002
28.5552
-0.319266
21.5106
-0.0752813
0.811261
9.89923
-0.117789
7.71112
4.94022
54.5861
30.8342
14.5728
14.8453
26.3875
32.2651
-0.0742521
13.7668
20.1181
20.5865
-0.0545957
27.4266
12.5253
20.2256
0.258445
9.62958
-0.138914
28.425
-1.60273
28.5847
0.27647
54.6944
-0.965223
-0.0200252
32.0525
-0.155744
30.0236
26.5599
22.2502
-0.460627
30.1333
30.8979
32.1974
31.2089
31.4398
29.202
-0.053042
13.5151
30.1099
0.549365
20.599
26.8812
-0.0300889
0.0487457
31.0201
20.9591
23.4085
12.0294
26.94
-0.345927
0.390113
13.2817
13.3687
13.4461
31.9949
28.5692
14.5126
31.006
31.5662
20.1123
30.6588
4.58421
30.3567
7.73114
21.9632
4.52729
13.1642
10.9006
15.5601
-0.0514815
14.8383
-0.0643758
29.949
23.2149
-3.54781
2.71019
15.4509
18.3181
-0.147939
8.8394
14.7727
9.05961
14.8476
13.1942
-0.651655
8.52048
21.9341
0.231561
21.5199
-0.0690179
27.7449
3.07801
17.6392
0.226815
-1.80041
13.2651
9.58456
17.5077
2.79822
23.5706
15.0228
53.2522
-0.254727
20.5416
21.9779
12.6232
31.0202
0.891265
56.3238
12.8099
7.77578
16.54
0.0650356
9.03814
9.53444
-2.60369
-0.248986
-0.762839
27.201
-0.00105697
0.219252
0.0948822
-0.0774354
-1.54795
30.4747
26.0643
-0.472858
18.0299
-0.0773638
17.7524
9.70817
-2.38821
21.224
-1.3306
28.9113
9.96194
3.30979
9.51357
-1.447
18.0727
-0.379951
32.2746
4.42795
21.0716
14.4254
-0.0581333
27.2225
-0.782008
13.4016
30.4149
3.11941
14.5869
29.6915
41.1737
14.3684
12.8917
21.7189
2.04845
20.6008
-0.12456
13.1773
2.53726
30.5486
17.7239
25.7294
21.3157
-3.72449
22.5395
18.6826
18.0541
29.5147
4.99145
16.8144
-3.4894
0.875875
-0.246195
16.4251
26.4885
-1.06008
12.8439
12.4837
2.90885
13.219
-0.406476
0.646284
-1.34919
-0.155455
46.3297
3.49551
28.9829
-0.00423312
-0.605012
0.0682032
23.4618
-0.157117
28.5433
25.7484
30.0189
0.565751
10.8966
7.67192
5.23412
1.96793
25.5107
14.5381
14.4611
4.70038
-0.49359
27.8171
18.6581
15.6306
-0.877279
2.95034
24.952
-0.268867
9.81094
21.9279
29.824
27.9891
-2.50624
1.48748
10.7814
-0.266707
0.0835791
14.4886
-0.00301974
12.2392
11.9117
-0.0312949
0.0231847
18.1178
16.6458
14.0518
21.8347
0.0380967
25.7735
17.0923
14.8618
0.222247
30.6726
-0.474213
30.9956
-0.644887
16.8103
-0.0209258
9.96525
30.7241
9.65477
16.9597
14.3511
0.163218
21.6216
4.1526
18.2848
14.5064
9.20888
25.9527
21.3975
17.6112
24.8854
1.58885
0.0409702
-0.303694
14.3014
-0.0728195
4.13492
22.5598
30.4526
23.0743
-0.741672
25.8071
7.81116
2.62024
18.1579
20.7342
16.5493
0.0218122
24.483
18.2788
19.5884
56.9133
59.2928
13.3293
-0.0444009
4.24513
2.62932
30.9958
16.0018
17.994
16.5498
22.5092
17.9198
29.6422
-0.133668
15.961
7.72404
0.00164017
3.07959
23.2644
2.98095
56.6219
18.4585
21.9024
30.7728
0.668965
-0.00169522
0.031262
14.2656
21.5608
14.473
-2.47406
5.04034
2.03436
28.101
-0.125558
18.3825
-0.751912
7.91205
7.49286
2.1173
25.6792
14.8759
9.36858
18.4909
24.2918
14.3037
31.6262
29.2586
30.3406
14.1781
9.21235
39.128
18.1022
28.7648
14.4433
0.0668874
-3.60449
-0.00293966
57.1854
-0.52156
0.799574
-3.68519
22.1799
-0.251359
-0.0660226
21.1052
12.4994
0.000660862
-0.0206007
3.54461
3.92137
0.0366219
21.3482
7.95858
14.5657
25.1203
13.6295
16.5255
19.1105
12.4685
0.30537
-0.432568
32.1479
2.20541
14.1744
0.0620074
14.1545
14.2182
0.370866
18.863
13.4145
9.67817
30.9144
-0.133435
12.5929
-0.692006
7.97885
-0.483374
-2.73864
31.075
7.32883
-0.00748291
29.4323
2.58838
-0.531404
5.52624
3.26225
21.4406
14.0418
-0.28457
-1.29231
19.6522
13.9435
0.0465136
12.7952
13.5221
20.5386
15.5549
16.3813
30.461
9.85594
24.4899
28.2979
-0.489139
8.46066
32.1267
0.000362476
25.3813
16.7086
-0.00255966
29.5564
30.7636
4.32908
22.877
39.4468
21.255
2.89918
12.0392
-0.00296347
2.4108
25.6098
13.2388
14.4298
-1.36925
39.7647
2.32353
-0.331287
-0.264701
21.8602
30.1261
17.3838
-0.00207881
0.0880005
5.94874
-1.23255
13.0851
29.5785
54.6842
12.1757
12.3133
7.91424
26.4323
0.0271059
22.5246
10.13
31.7841
4.20392
24.0838
-1.38304
-0.684096
2.71592
-0.0399791
-0.0592378
25.2865
0.940309
25.9917
-0.123079
22.071
-0.0604681
15.0596
11.8123
18.5941
57.1301
16.5653
-0.0563051
26.3527
14.3851
18.1649
26.9818
55.2521
14.493
13.594
-3.01267
27.4225
10.043
26.1043
10.3492
14.5295
0.204192
29.3317
18.645
-0.242137
-0.0411491
28.0877
-0.801962
24.1461
22.2268
9.48825
-0.110328
9.84637
30.2914
27.077
3.03949
29.4482
25.4172
20.8703
0.463172
-1.38783
19.199
30.7555
13.5637
10.2803
-0.792713
0.0578269
12.0503
19.1761
22.1222
25.9131
8.50932
5.08867
14.3417
14.0184
16.246
22.6497
18.6314
19.3093
4.54471
-0.0564229
18.2722
14.4954
5.03095
-0.335363
28.2911
29.2757
32.4625
27.5931
14.0677
29.1559
-0.319718
30.2495
11.4558
9.41501
-0.0677028
20.2709
20.7842
-0.79035
3.50667
31.6883
31.7364
4.64474
30.7665
30.5123
23.5741
13.4111
15.1524
-2.2678
29.5273
12.0658
-0.401627
-0.00917021
-0.419297
14.0795
1.24925
9.61683
13.5769
5.81366
-0.824981
28.5913
16.8473
31.8138
22.3305
29.6965
15.4078
-0.030425
24.6942
3.84568
1.0331
29.6456
27.8066
27.5937
23.659
10.1925
20.5878
13.661
0.0109927
22.081
-0.509813
14.642
10.8325
14.8816
-0.0197386
12.8923
26.1108
0.000144835
21.1955
24.5657
-0.417062
-0.341618
-0.872863
28.9317
26.6749
-0.00522218
-0.951175
0.0557724
-0.307798
4.94221
-0.934564
1.77506
1.71081
0.653617
0.943509
-0.431016
-0.413463
18.4439
-0.0284996
-0.0250971
15.7987
15.7757
18.6106
32.0197
17.1134
2.15754
2.44679
-0.00110806
7.47316
12.6415
10.0784
13.4172
-0.393329
31.8879
23.5471
29.25
13.7947
18.4245
13.4009
15.9753
0.019238
14.8507
10.5617
0.289553
15.6053
16.1057
-0.068362
25.2655
28.1394
0.0808035
31.5231
21.0972
10.0094
10.3816
-0.0719073
26.1381
12.5536
-0.00536338
24.2455
-0.0700894
-0.807909
27.8534
55.1515
1.19318
7.61902
-0.0241348
16.2976
4.5692
29.6643
21.8578
0.0561234
0.197812
3.57838
17.8281
0.746222
10.6708
1.16016
49.3091
27.7665
3.57401
-0.0941117
-0.583188
15.1458
21.9113
30.5772
16.4196
26.0963
4.86083
37.5987
52.2588
25.4197
31.4417
-2.1067
0.659286
15.2564
-0.0684418
30.4489
28.8422
25.8799
40.6417
26.1319
27.531
26.7363
31.2276
29.7184
22.9997
6.62045
32.0964
45.2238
-1.05753
11.8527
19.0853
1.53532
14.5081
-0.308773
12.5322
14.8249
5.18429
16.1855
0.05632
23.4465
9.48443
19.3504
-0.0617643
0.465049
-0.142811
-0.0161687
28.6574
27.9985
7.61256
-0.380838
16.3101
-0.0531686
0.0731286
0.674679
-0.356867
5.03079
50.8076
8.93672
27.6588
-1.3108
26.4306
21.7898
12.2448
4.50981
1.34932
19.0127
40.5409
-0.86985
-0.0135772
7.44122
13.4879
14.1285
21.3554
5.19165
24.1295
22.0492
2.856
3.61035
25.1993
0.350631
-0.799268
-0.0900775
-0.00491207
-0.148653
19.7438
27.4245
30.7491
26.6003
-0.207185
-0.0874917
-0.406829
15.1453
25.451
21.0335
46.8113
27.8518
-0.13762
2.4478
15.5266
9.94675
14.432
12.9011
13.5562
16.4871
5.93838
22.3136
5.992
0.641305
3.34668
23.0531
8.38168
9.65956
62.324
6.43113
32.2561
30.7052
28.6185
32.198
27.1501
17.9888
1.15006
7.96768
26.5663
29.6576
0.509354
-0.0410429
10.514
12.7463
-0.669767
16.2198
13.4925
18.4269
31.2717
-0.828745
23.1415
16.7402
14.7086
23.861
16.9139
10.0251
18.2757
12.5516
17.7797
2.63132
21.3758
-0.419671
18.0355
31.8173
16.8595
4.98765
0.511838
30.0703
7.41096
14.9925
11.7369
-0.0517172
32.1014
25.625
16.9631
4.53462
9.93946
11.8873
0.636418
54.9943
15.1067
13.4939
7.64161
5.89688
0.0553915
-0.218004
20.6156
-0.0435728
14.4779
18.2009
12.9965
-0.292896
1.43852
0.21962
6.09032
21.8057
14.3513
22.6153
14.9556
16.6401
2.62464
1.93097
25.523
2.66
-2.66191
26.8362
1.9966
30.3929
30.471
-1.80267
28.4637
3.12957
14.1203
-1.90962
-1.47341
16.8933
39.3271
4.81414
18.1717
5.07406
29.3024
11.4345
9.9273
-0.402405
0.424763
31.8908
30.769
14.7571
32.1157
-1.12388
30.4431
12.2843
6.01057
23.5647
23.3622
-0.178687
-0.839145
31.2798
13.3851
-0.0617852
29.8704
27.8392
16.558
22.3834
31.8371
30.1694
7.558
14.5814
0.470931
7.81214
8.94856
4.87983
16.3429
0.216599
2.73717
12.8603
22.1303
29.0134
15.9497
31.1498
39.9954
1.77288
9.85573
18.6579
2.09168
25.3594
3.50521
-1.11519
28.7862
16.1749
46.1417
-0.613905
24.1415
14.716
-0.0435919
8.82918
-0.177277
7.54942
31.4764
28.4666
30.3146
10.2187
20.291
-0.344188
-0.159425
0.777604
29.8456
-4.34575
8.86603
-0.173251
30.7577
23.759
0.100875
8.14337
25.9986
-0.856741
13.7656
-0.733941
6.33978
18.5422
29.0253
29.0584
24.0458
-0.165737
15.7732
3.80651
13.1562
-0.194205
10.0463
0.0422677
17.1321
0.296915
31.0317
14.4389
14.2987
31.4332
-0.151999
31.739
-1.36621
31.2395
0.00265547
30.3001
10.3763
19.5995
19.5034
25.8676
29.4807
28.1251
29.5447
55.9643
23.2892
7.51705
15.2093
0.34603
38.6692
31.0556
-0.357166
21.6646
17.8432
-0.310309
29.5954
22.2694
22.5518
-1.02315
-1.98649
18.4574
15.9294
18.4594
21.5868
5.30643
22.4147
20.3815
22.8882
22.6823
19.6663
7.22695
-0.38738
42.1798
21.6688
13.0133
-0.0012799
7.88771
30.5671
30.2509
12.2826
14.98
26.621
-0.171859
22.6122
22.7002
29.4062
22.0122
14.707
29.693
2.12034
23.6221
31.1997
-0.802656
3.52838
21.6937
-0.392789
-0.177142
14.6097
0.0002162
-1.56062
-0.36151
31.3096
23.8652
17.8911
-0.0335644
31.5526
7.24674
0.0595079
31.2341
14.2356
21.0373
13.11
31.7899
0.350063
-0.0249751
-0.466766
31.414
28.0611
14.4421
23.5125
24.6581
1.72337
20.8937
46.3114
28.9014
21.2679
15.934
11.0162
14.2219
25.6258
14.7582
-0.228621
20.625
27.1081
28.8335
12.651
21.9141
27.2324
24.7264
-0.120463
14.2363
21.1002
25.719
0.0528711
32.1386
22.2785
31.693
-1.09283
29.0188
27.2725
-1.30324
15.0928
14.102
22.5229
1.22006
3.13538
12.0671
23.3268
44.2871
3.32206
22.9125
1.88146
2.6376
6.90438
46.3671
2.01659
10.8503
17.4083
12.2048
6.589
1.62461
0.390924
1.36185
25.8098
10.223
28.6108
0.0518684
15.5451
0.957383
11.8894
-0.153833
22.5767
0.0570346
0.0729762
25.512
17.906
8.89373
23.4228
14.1635
31.0352
-0.0864229
9.71798
23.9841
6.80862
23.7768
2.02876
4.49905
3.74652
7.77465
23.1753
26.4693
17.9861
16.0195
16.0783
3.57465
6.36116
-0.0440691
-0.369505
11.5836
13.1512
10.5407
15.7667
0.0740557
31.1331
7.39596
-2.31507
13.9588
-0.221622
28.9776
19.241
49.7769
15.6473
15.6103
31.8678
20.1807
23.5956
1.62768
27.984
14.4498
-0.609738
30.5126
1.5488
4.81528
-0.881372
22.9711
4.00377
30.3509
11.2434
10.5775
5.3747
27.3485
31.8507
11.8787
5.10115
-0.28336
12.832
29.1036
-2.13771
14.4287
17.6734
-0.031308
31.32
-2.34336
-0.936106
20.0508
26.0651
-0.525052
12.3951
0.0674148
23.2596
23.2855
24.5538
3.99418
24.1059
16.5265
31.5811
0.0483955
42.5824
11.8162
6.06527
5.97402
21.6166
13.2569
5.58879
-0.00474708
26.9329
-0.00431435
19.8152
4.25144
23.4374
25.9752
26.8435
0.612989
25.687
30.1948
2.26422
8.15082
7.67113
15.7633
-0.00058493
22.7289
30.952
10.2683
0.022534
19.4935
2.90693
16.5737
18.0874
23.6465
28.156
15.6396
44.2853
24.6835
0.444112
5.78908
-1.41182
-0.436532
29.5941
19.0212
0.516035
52.2495
-2.20056
11.8661
0.324809
13.7656
25.6521
0.0205969
0.103289
7.34592
-1.58143
-0.446098
11.8068
16.0984
2.38365
27.8522
-0.751133
4.35453
19.7435
13.8693
-0.698036
6.26921
8.38707
11.7118
23.6607
4.3031
11.8496
31.8413
11.9355
61.3409
13.8975
-0.233976
1.35493
14.7742
30.9756
48.4082
7.24388
-1.34782
19.7561
25.1299
4.15154
0.265526
0.0455743
26.531
0.302242
22.3861
0.743578
50.274
0.614406
30.2118
-0.282842
-0.771052
-0.122881
11.8293
4.34092
11.9543
1.65964
29.3474
20.1046
28.289
30.784
25.9583
5.48023
29.0789
5.71993
12.314
13.7683
6.31447
0.320312
-0.0495288
30.0108
24.6582
-0.333763
17.8995
25.3448
-0.0382723
14.1808
-0.660335
22.867
29.2022
26.844
18.8198
15.7555
10.7029
11.102
7.77986
0.738557
10.8971
10.2308
0.661196
5.56652
17.3315
-2.01245
52.7177
12.974
-0.864598
28.3114
19.0967
30.9508
29.3191
8.47582
17.5453
4.82903
-0.0170719
29.9117
18.7236
24.2772
10.196
26.1569
40.2081
-0.0688281
10.3705
13.9951
19.0003
-0.144498
28.91
13.1716
23.9586
-0.00349562
20.6357
-0.285571
11.7145
17.3302
23.7847
7.09181
0.555822
1.4551
27.1581
21.2043
-2.36195
-0.184104
14.417
26.6776
22.0789
22.7197
23.6975
28.8487
13.9572
6.39545
17.3853
9.81304
19.4284
31.8398
1.37883
56.5738
27.5603
0.462432
13.1341
33.4599
9.58939
6.71537
1.15388
17.0577
5.81325
14.8118
7.32372
14.6601
16.0358
21.6379
27.4725
30.2051
-0.20065
31.8152
26.1174
24.2767
8.37673
-0.8656
24.7361
29.076
31.9987
-0.0313742
17.8089
24.8619
25.7513
-2.09956
0.290978
15.8749
10.8252
-0.232685
-1.38197
9.21029
2.91013
9.95978
1.4099
-0.671056
20.4573
1.19741
25.4906
-0.39614
-0.608564
18.1709
11.5757
13.8804
18.9224
1.47684
3.99764
13.6051
25.4554
14.6345
22.3429
30.2659
14.5505
2.69649
3.09884
24.1572
-0.491973
27.6872
17.3635
4.03626
15.1517
12.6346
18.3138
23.4923
30.4905
29.2898
-3.46093
21.7673
12.6531
4.57705
4.05167
0.0392281
12.9204
-2.13193
18.6473
0.144276
54.9857
16.6314
21.6474
28.8744
56.5552
0.020669
30.4622
-0.905824
0.132942
16.7144
12.6655
-0.405435
29.1588
55.5404
23.5201
4.66683
9.36887
30.7107
8.59102
56.9312
-0.0236429
-0.225568
25.2041
29.7624
9.87558
18.3786
30.5745
2.64072
-0.347662
55.402
13.921
-0.599277
-0.536036
29.025
-0.831098
26.7419
-0.242981
16.5803
-0.781247
23.1797
4.97713
7.74746
6.23683
25.6318
1.62793
14.1194
21.5523
-0.171862
10.6901
27.9344
19.6626
22.0292
-0.0658402
26.0774
3.97106
20.0808
30.8668
29.2613
-1.22719
29.9112
2.65373
-0.976497
-0.0979874
10.3277
45.2471
30.1256
-1.33249
7.42465
22.2815
13.2833
31.4579
26.686
29.4341
-0.0626187
21.8148
13.0923
16.6672
2.23408
0.0135226
29.4348
1.41361
60.3477
30.5727
-0.0112942
26.5933
31.1794
13.9005
-3.67949
12.9532
19.1996
30.6911
13.9092
5.05095
31.2044
-0.284269
23.157
31.7007
13.2294
7.32037
21.4282
20.0392
22.06
23.7254
15.9471
23.4367
13.3835
-0.977699
24.6531
-0.0862014
28.9898
4.33908
23.3192
18.9216
30.6863
0.28813
16.1558
13.9086
1.7698
44.2202
22.651
0.102486
27.4818
17.9164
3.01626
3.45341
19.7206
0.894285
7.76946
16.4616
-0.242643
2.67372
16.1079
-3.31708
29.9914
2.87552e-05
20.5335
-0.197348
15.0267
31.0545
2.94125
30.6997
-0.39408
-0.000332244
14.0006
-0.425837
-0.271749
21.9678
30.5092
14.9091
4.01374
10.6268
13.6877
0.0058003
21.191
-0.0412376
17.4449
16.047
4.17272
-0.140955
-0.425493
-0.121222
30.5035
18.2297
14.9995
28.1201
-0.0053539
-0.760666
-0.010327
25.496
17.7248
7.07911
15.0764
-1.38579
0.0480119
2.98383
3.50483
-0.044274
25.1234
22.0771
27.4064
-2.15803
-0.530717
15.6381
30.9115
37.0167
0.0330252
27.4212
26.054
24.8104
1.54612
-2.34725
10.6061
30.5795
18.7333
11.844
13.8955
6.01618
25.7473
25.1975
16.8546
12.0248
23.3848
22.1165
12.866
5.32643
13.0365
25.4804
4.47326
0.451199
29.4314
35.4596
-0.291577
26.975
43.7869
31.7705
28.2216
10.4367
26.3665
2.55236
1.57006
14.4437
21.6178