/*--------------------------------*- C++ -*----------------------------------*\
  =========                 |
  \\      /  F ield         | OpenFOAM: The Open Source CFD Toolbox
   \\    /   O peration     | Website:  https://openfoam.org
    \\  /    A nd           | Version:  7
     \\/     M anipulation  |
\*---------------------------------------------------------------------------*/
FoamFile
{
    version     2.0;
    format      ascii;
    class       volVectorField;
    location    "7";
    object      U;
}
// * * * * * * * * * * * * * * * * * * * * * * * * * * * * * * * * * * * * * //

dimensions      [0 1 -1 0 0 0 0];

internalField   nonuniform List<vector> 
117990
(
(1.02179 -0.0242833 -5.5858e-19)
(0.999772 -7.60269e-06 -2.80451e-21)
(0.964503 0.000867349 -1.83791e-19)
(0.979876 -0.0139318 4.13077e-20)
(1.01427 -0.00952821 5.20084e-20)
(0.989516 -0.0153887 4.02406e-22)
(0.949797 0.00656353 -1.30597e-18)
(1.07211 -0.0390246 -1.33492e-19)
(0.994932 -0.00683903 -7.92348e-22)
(0.999726 3.43633e-05 5.92829e-22)
(0.995795 -0.000435977 9.45149e-21)
(1.00261 -0.00228769 4.8442e-21)
(1.00076 -0.0165466 5.66477e-20)
(0.839552 -0.00635125 1.38718e-18)
(0.994835 -0.00705492 7.67998e-21)
(0.876956 -0.0424615 3.14523e-18)
(0.997877 -0.00553562 3.01535e-21)
(0.993832 -0.00380703 -1.21691e-20)
(0.999374 -0.0365948 1.31014e-18)
(1.01409 -0.0087818 1.86878e-19)
(1.07528 -0.0326408 -1.2764e-18)
(0.938424 -0.00105036 -2.14894e-20)
(0.992872 -0.00509502 -1.08918e-20)
(0.976927 -0.0104558 2.41386e-20)
(1.06261 -0.0114419 9.22218e-19)
(0.987828 0.073189 1.52041e-18)
(0.75804 0.134988 -2.07936e-19)
(1.03623 -0.00173714 9.68368e-19)
(0.999715 -0.000982058 3.3575e-21)
(0.987446 0.0199898 -1.19563e-18)
(0.997494 -0.000878633 7.74612e-21)
(1.02276 0.0289673 3.52671e-19)
(1.02208 -0.0057404 -7.10704e-20)
(0.94524 -0.00253466 9.987e-20)
(1.06868 -0.0231941 3.92013e-19)
(0.976442 -0.012552 8.45237e-20)
(0.95356 0.0298563 2.18436e-19)
(0.997932 -0.00563756 -1.44048e-21)
(1.02288 0.495784 2.13821e-20)
(0.973105 0.0175646 3.0267e-18)
(1.02551 0.027532 -6.85503e-19)
(0.993715 -0.00394284 -2.26828e-21)
(0.965321 -0.00226751 4.16142e-19)
(0.976231 -0.0123583 -5.93308e-20)
(0.99276 -0.0612495 5.35228e-20)
(0.840705 -0.00659986 -1.44533e-18)
(1.01527 -0.00347566 6.80702e-19)
(1.0306 -0.00187678 1.65756e-19)
(1.0086 -0.0111479 7.37639e-20)
(1.00269 -0.000194449 -2.21218e-20)
(1.00005 1.14342e-05 1.01892e-23)
(0.954871 -0.00173627 7.71472e-20)
(1.01984 0.017285 1.06416e-18)
(0.999827 3.10681e-05 -4.53325e-22)
(0.99874 -0.0103536 -2.6367e-19)
(1.01941 0.0171865 -2.64392e-19)
(1.02842 0.00146117 8.75779e-19)
(0.955878 -0.0611049 2.95405e-19)
(0.823577 0.120634 7.29222e-19)
(0.974693 -0.00265621 -5.31002e-19)
(0.998568 -0.00333592 -2.8205e-21)
(0.976336 -0.00817179 -2.23412e-20)
(0.987476 -0.000717025 -1.94778e-20)
(0.952956 0.00459194 -4.8368e-20)
(0.998874 -0.000942257 -8.47441e-21)
(1.0136 0.000226116 -1.41642e-20)
(1.00049 -0.011307 -3.01857e-19)
(1.02981 0.0111341 9.2138e-19)
(0.777791 0.0893157 4.7445e-19)
(1.03129 0.00260441 3.82798e-19)
(0.939313 0.0558221 7.60601e-19)
(0.810786 0.0762825 -9.54909e-19)
(0.975332 0.0174754 1.36425e-18)
(0.923061 -0.00668939 3.37575e-19)
(1.02576 -0.0384141 2.71259e-19)
(0.944392 -8.47815e-05 1.06705e-19)
(0.977819 0.103592 -3.65184e-19)
(1.00122 -0.0137477 1.13894e-19)
(1.00027 -0.0472333 -4.70032e-19)
(1.01367 0.0597577 9.21228e-20)
(1.0111 0.0651753 3.24861e-19)
(0.999055 2.87804e-07 2.8671e-22)
(1.04119 -0.144064 -4.42718e-19)
(1.03997 -0.00143377 -4.37803e-19)
(0.957773 -0.00967281 4.18648e-20)
(1.00255 -0.00221641 4.75825e-21)
(0.959718 0.00514344 2.4917e-19)
(0.999791 -0.000375887 -3.72411e-22)
(0.939036 -0.0163509 1.55365e-21)
(0.999791 -0.000575376 1.63006e-21)
(0.869381 0.331716 -2.1573e-21)
(0.954354 -0.00346019 -6.10933e-20)
(0.99961 -0.000904695 -4.25789e-21)
(0.979885 -0.0124441 6.48961e-20)
(0.992318 -0.00475331 -1.86816e-20)
(1.00627 -0.000727703 9.56923e-21)
(0.993602 -0.000355695 -4.23996e-21)
(1.04392 -0.143551 -3.45974e-20)
(1.05797 0.155232 -3.72223e-20)
(0.937116 -0.0159163 2.13198e-19)
(0.99856 -0.00344085 2.90518e-21)
(1.03367 0.0014196 -8.97296e-19)
(1.0128 -0.00843197 -5.43832e-19)
(1.02351 -0.000927399 -1.76027e-21)
(0.938979 0.0553761 5.09267e-19)
(1.05348 -0.0723963 -4.80429e-19)
(0.977801 0.00256437 -8.34837e-19)
(1.01656 -0.0826445 -3.7543e-19)
(0.986516 -0.00418437 -1.29295e-19)
(0.999727 -0.00107305 -2.05029e-21)
(0.991157 0.0686836 -7.29701e-19)
(0.993633 -0.000463625 1.69952e-21)
(0.969803 0.113142 2.29417e-19)
(0.992577 -0.000611767 7.71489e-19)
(1.09425 -0.0212195 -1.2509e-19)
(1.00287 -0.00573394 9.81731e-19)
(0.995759 -0.000366102 -1.74457e-20)
(0.936756 0.0541945 -9.94296e-19)
(1.0003 -0.000308134 1.64536e-22)
(0.812095 0.079682 6.59941e-19)
(0.934639 0.0550363 1.42421e-18)
(0.875844 -0.0434585 -1.25984e-18)
(0.967222 0.00120112 -1.6606e-19)
(0.884045 0.115531 5.35394e-19)
(0.99979 -2.03975e-05 -5.56161e-22)
(0.984509 0.0225022 1.38088e-18)
(0.976065 -0.00878047 1.94392e-20)
(1.03238 -0.0156909 -4.16858e-19)
(0.973967 -0.00101438 1.46106e-21)
(1.04007 0.000616024 -8.04717e-19)
(1.03529 -0.0305313 -6.26958e-20)
(1.00418 -0.000702286 7.53472e-21)
(0.922332 0.0553899 -6.45136e-19)
(1.00256 -0.00207555 -1.45085e-20)
(1.00036 -0.000278523 7.65564e-23)
(0.99432 -0.00795996 2.05659e-18)
(1.06419 -0.026309 -2.5341e-19)
(1.01966 -0.00355762 -9.05338e-20)
(0.999345 -0.0105177 3.62579e-19)
(0.977078 -0.00942488 -2.03685e-19)
(0.895211 0.00175579 4.33422e-19)
(1.00766 -0.00775823 4.9749e-19)
(1.00095 -3.70566e-05 -5.75834e-21)
(1.01677 0.0228837 1.32682e-19)
(1.03244 -0.0307764 9.21252e-19)
(0.999955 -1.0855e-05 -9.9552e-24)
(1.02021 -0.0024999 7.57806e-23)
(0.974987 -0.00629407 6.88605e-20)
(1.03117 0.0118428 -1.42236e-18)
(1.012 -0.010538 -1.80465e-19)
(1.05129 -0.0698478 3.66475e-19)
(0.990325 -0.059256 -3.85568e-19)
(0.953395 -0.00352209 -3.84242e-20)
(0.999649 -1.99827e-05 2.52067e-22)
(0.955403 -0.00139831 4.55455e-20)
(1.02679 -0.00683894 4.29325e-19)
(0.999732 -0.00108991 2.6218e-21)
(1.03013 0.0512868 1.12753e-18)
(0.935672 0.00122464 9.55133e-21)
(1.09233 -0.0951268 1.93856e-19)
(0.944374 0.00336915 -5.82036e-19)
(1.02033 -0.00104963 5.13277e-19)
(0.987674 -0.000549049 -1.43832e-20)
(1.01688 -0.0515823 -5.08269e-20)
(0.990611 -0.00458938 2.9103e-19)
(0.98608 -0.00743529 -5.0907e-20)
(1.03098 -0.00273822 4.40386e-19)
(0.98407 -0.0135869 4.52675e-20)
(1.02061 0.0537888 -1.64827e-18)
(0.98627 -0.00455338 -3.35525e-19)
(0.980883 -0.00558197 -4.39703e-19)
(1.01735 -0.00577637 -3.84425e-19)
(0.867423 0.36997 2.9991e-20)
(0.862393 -0.0334198 2.19548e-18)
(1.00418 -0.0453801 -4.25433e-20)
(1.03232 0.0079871 -4.0516e-20)
(0.864514 -0.0329838 -4.84757e-19)
(0.985965 -0.015765 -4.85794e-20)
(1.01592 -0.00485514 1.42214e-18)
(1.00838 -0.0124078 1.20598e-19)
(1.02781 -0.00282633 8.59642e-20)
(1.02336 -0.0386319 3.10188e-19)
(1.0126 -0.0262359 -5.65954e-19)
(1.01722 0.01965 5.70768e-19)
(0.978059 -0.000171799 1.96193e-18)
(0.99485 -0.012028 -3.47816e-22)
(0.974583 -0.0116886 -2.04995e-20)
(1.00009 0.000992106 -5.91564e-19)
(1.02454 -0.00986788 1.29684e-18)
(0.879769 0.327448 1.72554e-20)
(0.987086 -0.0151116 -1.61399e-20)
(1.00786 -0.00648336 -3.32999e-19)
(1.01027 -0.0472812 -8.2182e-19)
(0.959837 -0.00664759 -7.81672e-19)
(0.991331 0.0719829 -2.01285e-18)
(1.05915 -0.0965655 2.28877e-19)
(0.861852 -0.0314501 1.44304e-19)
(0.923118 -0.000851254 -4.13395e-20)
(0.945241 -0.00610967 5.69505e-19)
(1.00215 -0.018186 4.26706e-19)
(1.01437 0.0177099 7.4663e-19)
(0.975319 -0.0395984 8.47091e-19)
(1.03122 -0.00172475 2.54917e-19)
(0.999755 -0.000325148 -2.55979e-21)
(0.973791 -0.0114017 -2.23249e-21)
(0.942144 -0.024949 3.88109e-19)
(0.989914 -0.0125148 -1.57044e-20)
(0.998879 -0.000946537 6.52755e-21)
(1.03425 0.00101525 -2.13715e-19)
(1.03548 -0.0455061 -1.33694e-18)
(0.862711 -0.0308162 -1.22298e-18)
(0.977855 0.0032938 -5.19705e-19)
(1.06228 -0.0104204 -6.84214e-19)
(0.999813 -0.000569964 2.13637e-22)
(0.992593 -0.0071558 9.51809e-19)
(0.960063 -0.00793831 3.88669e-19)
(1.03006 0.0274542 6.4158e-19)
(1.01579 -0.00768362 7.6986e-19)
(0.837937 -0.00579527 -8.35528e-19)
(0.99745 -0.00392475 1.3811e-21)
(0.987391 -0.0418661 1.58747e-20)
(0.959492 -0.00220141 -2.74083e-20)
(1.00858 -0.0099704 -3.47705e-20)
(0.936761 0.00282182 -4.83756e-19)
(0.999835 -1.06512e-06 6.51176e-22)
(1.04731 -0.0269014 7.19335e-19)
(1.00919 -0.00269444 -6.54202e-19)
(0.940272 -0.00854296 6.17867e-19)
(1.0594 -0.0956492 1.32161e-19)
(1.04197 -0.0238113 4.03639e-19)
(1.0342 0.00104204 -8.80783e-20)
(0.986833 -0.0589047 -6.76536e-20)
(0.895309 0.00404099 -3.72242e-19)
(0.978781 -0.0152966 3.78887e-19)
(1.03904 -0.0308589 -4.21004e-19)
(1.01426 0.0180109 1.11928e-18)
(1.00741 -0.000413532 1.0811e-20)
(1.01101 -0.00804289 5.92719e-19)
(0.984604 -0.0182825 -1.37597e-19)
(0.954533 -0.00237253 -1.00261e-19)
(0.919692 0.244559 -3.59307e-19)
(1.01329 -0.0213757 8.5131e-21)
(1.09479 -0.0948941 -2.47604e-19)
(1.06547 0.161063 2.66616e-19)
(0.973081 -0.00112588 -7.49067e-20)
(1.01091 -0.00952029 -3.59055e-20)
(1.02615 0.0175313 1.01983e-18)
(0.94053 0.00255971 1.05595e-18)
(0.983764 -0.0133353 1.62914e-20)
(0.912676 -0.0536872 5.67613e-19)
(1.0032 -0.0526575 -4.24727e-19)
(0.984644 -0.0164826 -2.81952e-21)
(1.02101 0.00241797 -3.83978e-18)
(1.00592 -0.0134769 1.88831e-20)
(1.03746 -0.0162261 -7.85509e-19)
(1.02699 -0.00434489 -5.90781e-19)
(0.941309 0.123257 -8.38263e-19)
(1.04026 0.000542428 3.99991e-19)
(1.00504 -0.000125366 5.13565e-20)
(1.07511 -0.0392261 -1.43297e-20)
(1.02871 -0.00105616 -1.37918e-18)
(0.840722 -0.00271903 5.13215e-19)
(1.0162 0.0220264 -8.19197e-19)
(1.0947 0.504037 -3.57008e-20)
(0.985511 -0.00386167 -9.97579e-20)
(0.980081 -0.0143623 -1.31106e-19)
(0.880487 0.113336 8.65277e-19)
(0.974104 -0.00316711 8.15192e-20)
(0.9751 0.0962071 -4.28819e-19)
(0.992411 0.0943447 8.09366e-20)
(0.998931 -0.000504143 -5.97684e-23)
(1.02522 -0.00930557 -3.16349e-19)
(1.00914 -0.0120482 3.12406e-19)
(1.01353 -0.0203701 -4.9793e-19)
(0.997677 -0.0165502 2.19669e-19)
(0.958753 0.00464859 1.2397e-19)
(0.987994 -0.0621347 -4.0374e-19)
(1.00309 -0.0450975 -2.13105e-20)
(0.999868 -0.0060849 -3.98938e-19)
(1.01735 -0.0822666 3.0286e-19)
(1.016 -0.0549771 1.33129e-19)
(0.973362 -0.000777048 -5.66977e-20)
(1.00202 -0.0135982 2.93787e-20)
(0.938549 -0.021131 -2.03848e-19)
(0.999524 -0.0104911 1.19663e-20)
(1.02541 -0.00221853 9.73639e-19)
(1.04533 -0.0311881 4.20868e-19)
(1.02389 0.00140223 -1.98374e-18)
(1.04702 -0.151663 2.58318e-19)
(1.01861 0.462735 1.22001e-20)
(0.98878 -0.0609177 -9.88553e-20)
(0.999837 -0.000392654 -1.92896e-21)
(0.826246 0.138819 4.82981e-19)
(0.979647 0.00406342 -5.07224e-19)
(0.998171 -0.00717405 4.9459e-23)
(1.02908 0.000376779 -6.67598e-19)
(0.982196 -0.0121775 -1.95302e-21)
(1.02583 0.0253069 5.50773e-19)
(1.00738 -0.0136248 -2.36048e-19)
(0.987013 0.105611 2.07126e-19)
(0.85743 -0.0252517 6.5554e-19)
(0.996914 -0.0423234 -1.40953e-19)
(0.747076 0.280653 -1.01547e-20)
(0.975918 -0.00309128 1.74007e-19)
(1.00154 -0.0560902 5.34626e-20)
(1.03368 0.042288 3.22207e-19)
(1.01443 -0.0299543 -6.71433e-20)
(0.939588 -0.0058651 -4.27979e-19)
(1.37091 0.249565 2.92172e-20)
(1.01606 -0.00462307 5.29211e-21)
(0.974858 -0.0147546 -1.30228e-20)
(0.919163 0.0386758 9.9316e-19)
(0.906381 0.0196893 6.62969e-19)
(0.983683 -0.0178121 4.15206e-19)
(0.997174 -0.0143801 -2.91948e-19)
(1.01331 -0.00789251 1.48295e-19)
(1.01095 -0.0452711 -1.28808e-18)
(1.01012 -0.00909561 1.53119e-19)
(0.977813 -0.011638 -1.0692e-19)
(0.838936 0.138992 -1.21887e-19)
(1.04981 0.0170156 2.25682e-19)
(0.997499 -0.00395956 -1.04639e-20)
(1.03077 -0.00264778 -2.00122e-19)
(1.09217 -0.0217421 2.25361e-19)
(1.01859 0.0540817 -1.24663e-18)
(0.936982 0.00178651 9.91505e-19)
(1.02683 -0.00778696 -6.31273e-19)
(1.025 0.0210535 7.05465e-19)
(0.855081 -0.0227523 -1.27621e-18)
(0.822706 0.133785 -7.56996e-19)
(0.975363 -0.0146643 9.20433e-21)
(0.999808 -0.000428973 3.63835e-21)
(0.995502 -0.0124103 -1.81115e-21)
(0.983293 -0.0161585 8.60628e-21)
(1.07954 -0.00628738 1.74537e-19)
(0.988653 -0.0119098 1.43836e-19)
(1.02158 0.0506748 6.54632e-19)
(0.999123 -0.000588924 6.46563e-22)
(0.988171 -0.0154105 -4.91682e-22)
(0.973631 -0.0115217 2.87221e-20)
(0.965277 -9.42125e-05 1.62215e-19)
(1.02349 0.033032 -2.39492e-18)
(0.757262 0.132083 8.18126e-20)
(0.95278 0.00575232 -4.4354e-19)
(0.97614 -0.00628312 -6.84688e-20)
(1.01615 -0.00947571 -5.59688e-20)
(0.997982 -0.00581641 2.4802e-19)
(1.03622 -0.0254942 -7.5769e-21)
(0.960735 -0.0298604 -1.08384e-18)
(1.00285 -0.00788601 -1.25369e-19)
(0.923016 0.0544472 3.39681e-19)
(1.00519 0.0176997 -8.93298e-19)
(1.02887 -0.0015812 1.25742e-18)
(0.981594 -0.0150466 -7.25189e-20)
(1.00238 -0.0181307 4.70155e-20)
(1.00554 -0.00227089 8.87054e-20)
(1.02172 -0.0231913 8.88643e-19)
(1.00015 -3.64924e-05 -1.5496e-24)
(0.993725 -0.0157704 -7.12551e-20)
(1.02706 -0.00991135 -5.57297e-19)
(0.972588 0.072632 1.20886e-18)
(1.00792 -0.0644421 -9.25394e-20)
(0.952857 0.0282131 4.15973e-19)
(1.08973 -0.0101013 -1.78547e-19)
(1.02504 0.0650114 -8.38359e-19)
(1.00003 -6.05076e-05 -1.11624e-23)
(0.924246 -0.000316067 1.20965e-19)
(0.968763 -0.00138542 -2.43418e-19)
(1.00944 -0.0102435 -3.10432e-19)
(1.00006 -7.08731e-05 6.64334e-23)
(1.12187 0.00974277 2.36196e-19)
(0.829786 0.00368209 -5.09181e-19)
(0.940922 0.00265496 1.03558e-18)
(0.990901 -0.000381613 -2.2126e-20)
(0.968483 0.0878107 -6.45758e-19)
(1.01846 -0.00762194 7.989e-20)
(1.01272 -0.00804784 -3.03402e-19)
(1.00255 -9.80957e-05 1.96218e-20)
(0.986414 -0.0203244 -3.22112e-21)
(1.02746 -0.0119365 -8.15093e-20)
(0.98793 -0.0580205 -5.16392e-19)
(0.987032 -0.00555344 2.45699e-19)
(0.989751 -0.00100982 1.07704e-18)
(1.02636 -0.00883613 -6.78064e-19)
(1.02917 -0.0040633 -5.20033e-19)
(0.998193 -9.14073e-05 -1.13567e-20)
(0.895237 0.00662752 7.89968e-19)
(0.902155 -0.0550887 -1.28342e-19)
(1.01537 -0.0101791 -2.01283e-19)
(1.05183 -0.0384969 1.92945e-19)
(1.02336 0.0256807 -2.44162e-18)
(0.986509 0.0204244 -1.80049e-18)
(0.959326 0.0050386 -1.85541e-19)
(1.03443 -0.000131998 5.19978e-19)
(0.960274 -0.00259287 -2.51739e-20)
(0.985864 -0.0193896 4.5128e-20)
(1.36952 0.233618 -2.04238e-20)
(1.01076 -0.00971361 1.5408e-19)
(1.00902 -0.0119601 -5.65746e-19)
(0.952456 0.00225727 -5.39384e-19)
(0.95152 -0.0180414 -2.72427e-19)
(0.989812 -0.0133324 -6.77556e-20)
(0.960137 0.0123378 -3.07998e-19)
(0.97738 0.0192174 1.27238e-19)
(1.24556 0.389836 1.28564e-20)
(1.05136 0.0190904 -7.50039e-19)
(1.00036 -0.000295082 -1.69194e-22)
(0.995773 -0.00762394 -1.03948e-19)
(1.03121 0.0175245 2.73682e-19)
(0.931456 -0.001905 4.86354e-20)
(0.990731 -0.000825838 6.01573e-19)
(0.973768 -0.014518 3.76299e-21)
(1.01714 -0.0086654 -1.56428e-19)
(0.982204 -0.0132079 1.06295e-19)
(0.955558 -0.00828722 -3.32582e-20)
(1.0001 -0.00762306 1.4123e-19)
(1.00901 -0.0114195 3.42423e-19)
(1.22075 -0.0491345 -4.13763e-20)
(1.00063 -0.000457459 2.55947e-21)
(1.03057 -0.00276277 -8.74443e-20)
(0.999783 5.73077e-05 -4.70767e-23)
(0.860172 -0.0290511 1.67361e-18)
(1.00381 -0.00328472 1.33486e-20)
(0.97204 0.0453544 8.70707e-19)
(0.907611 0.0205011 -3.52026e-19)
(0.999764 0.0343998 -7.44793e-19)
(1.05885 0.0148858 5.13944e-19)
(0.992978 0.0299862 -7.09223e-20)
(1.02971 0.00242398 1.25648e-18)
(0.992635 -0.0123768 -2.99611e-20)
(1.01686 -0.00720756 -1.60379e-19)
(0.996443 -0.00895535 8.01035e-23)
(0.963709 -0.0130775 -2.1336e-22)
(0.942122 -0.00457148 -2.4835e-19)
(0.976217 -0.00624085 6.57696e-20)
(0.995202 -0.00658044 -2.49639e-19)
(1.02321 -0.0254613 -3.32911e-19)
(1.00376 -0.00312681 -1.61721e-20)
(0.997386 -0.00142438 -2.89681e-21)
(1.00232 -0.00201056 -1.04535e-20)
(0.998896 -0.0138102 -1.07221e-19)
(1.03906 0.000706222 7.595e-19)
(1.01929 -0.0201234 7.06383e-19)
(0.949763 0.00408225 5.73552e-19)
(0.999407 -0.00994873 -2.47331e-20)
(1.11542 0.0295115 -5.23435e-19)
(1.011 -0.00955982 4.53871e-19)
(0.997577 -0.0014701 -1.20391e-20)
(0.986991 0.0213222 2.58199e-18)
(1.03 0.00613479 1.22378e-19)
(0.989054 -0.0174724 3.2775e-18)
(1.00073 -0.000570928 -2.54365e-21)
(1.00041 -0.00843368 0)
(1.01735 -0.00656605 2.39033e-19)
(0.984792 -0.0143199 -2.32842e-19)
(0.984537 -0.00964778 6.81223e-20)
(1.10868 -0.0531401 2.01221e-19)
(0.940939 0.0013903 -7.08869e-19)
(1.00596 0.0559945 1.6513e-18)
(0.925324 -0.00114237 3.2684e-19)
(0.958184 0.0103127 -1.6339e-19)
(1.01126 -0.00918543 -3.30026e-19)
(1.01544 -0.00938442 2.37316e-19)
(0.987634 -0.0327857 -7.44546e-19)
(0.920659 0.0388655 -4.14322e-19)
(1.07749 -0.0322815 7.40414e-19)
(1.01735 -0.0076152 3.67118e-20)
(0.865584 -0.0345711 -2.40168e-18)
(0.925374 -0.00243047 -1.87667e-19)
(1.00074 -0.000599933 1.08112e-21)
(1.02929 -0.00272394 1.04744e-19)
(0.905462 -0.0550151 3.20331e-19)
(0.982368 -0.0164945 3.6735e-20)
(0.921887 -0.00804785 -5.93628e-19)
(1.02377 -0.0272792 -1.21242e-19)
(1.02354 0.051301 2.05909e-18)
(0.999763 2.56217e-06 -1.43864e-22)
(1.01934 -0.00586315 -7.23044e-20)
(1.03157 -0.000158704 6.57441e-19)
(1.0318 -8.00256e-05 -8.08877e-19)
(0.990496 0.0389589 -4.15682e-19)
(0.999932 8.81117e-06 1.25291e-24)
(0.999167 -0.000681519 2.17382e-22)
(1.01976 -2.71938e-05 -3.55257e-19)
(0.982113 -0.0165907 3.99214e-19)
(0.991098 -0.0125517 1.25906e-20)
(0.998162 -0.0076617 -3.64092e-21)
(1.02095 0.0599597 -8.16739e-19)
(1.05722 -0.00290984 -8.3803e-19)
(0.982209 0.118075 -9.00398e-20)
(0.990314 -0.00710798 -9.02457e-19)
(0.934141 0.0040002 -1.20054e-19)
(1.00756 -0.04342 2.65434e-19)
(1.0168 0.0121238 1.20822e-18)
(0.984361 -0.0130047 -4.51086e-20)
(1.12263 0.00174059 -3.21147e-19)
(0.885394 -0.0424116 -2.22777e-18)
(0.994028 -0.00139504 -5.57284e-19)
(1.01125 -0.00805202 -3.18215e-19)
(0.994474 -0.00891069 -1.8711e-19)
(0.980961 -0.0128685 1.91179e-20)
(1.00051 -0.0493532 -2.63609e-18)
(0.979445 -0.0138823 5.78431e-19)
(0.961778 0.0445821 4.80988e-19)
(1.01589 -0.0348809 -4.83325e-19)
(1.00087 0.0346156 4.14211e-19)
(0.946917 0.00766963 -2.03247e-19)
(0.96772 -0.000677313 4.40146e-19)
(0.907335 0.254923 -1.64033e-20)
(1.01372 0.0170274 1.1926e-18)
(0.985542 -0.0170804 8.89553e-20)
(1.00633 -0.0131706 3.69347e-19)
(1.00445 -0.0122068 -2.8636e-19)
(0.999734 -0.000114389 -4.05984e-21)
(1.01887 -0.0225139 -1.22729e-18)
(0.996579 -0.0700613 4.04442e-19)
(1.00268 -0.00770855 -2.4495e-20)
(1.03944 0.0124268 -7.67186e-20)
(0.99545 -0.0103241 1.06158e-21)
(0.995472 -0.0105772 -2.83758e-21)
(1.02095 -0.00055691 -2.72021e-20)
(1.01646 -0.0318344 2.95923e-19)
(1.01151 -0.00167712 -5.97229e-20)
(1.01253 -0.0077944 4.44547e-21)
(0.935894 0.000413374 -3.5519e-19)
(0.986177 -0.0129859 -6.58194e-20)
(0.964641 -0.012697 -7.97557e-21)
(1.00808 -0.050482 -3.29487e-18)
(1.05882 0.0603823 1.2923e-18)
(1.01933 -0.00541526 6.73701e-19)
(0.980948 -0.00741431 -3.38372e-19)
(0.986541 -0.0510039 6.82903e-20)
(1.00902 -0.0104853 -2.03055e-19)
(1.00035 -0.000553081 -2.69262e-22)
(0.99994 -5.97855e-05 4.23865e-23)
(0.931186 -0.00854124 -1.16794e-19)
(0.884062 -0.0425756 2.27293e-18)
(0.965394 -0.0262585 1.80829e-20)
(1.00034 -0.000510415 -7.04445e-22)
(0.9467 -0.00214258 -1.89526e-19)
(1.02538 0.0329834 2.21255e-18)
(0.779026 0.085766 -5.69204e-19)
(1.02862 0.0734738 -5.86451e-19)
(0.999138 -4.59342e-05 -2.90322e-21)
(0.940622 -0.00391546 -8.12832e-19)
(1.00261 -0.013375 -7.07123e-19)
(1.00181 -0.000184604 -9.55214e-22)
(0.998666 -0.00416042 1.60089e-21)
(0.935689 -0.00547849 1.29135e-19)
(1.01944 0.000334588 -1.17923e-19)
(1.0121 -0.0101206 -2.59484e-20)
(1.0771 -0.0661651 1.09133e-19)
(1.00755 -0.000626806 -3.30248e-20)
(0.957836 -0.0515987 -1.00748e-18)
(0.941607 0.00622007 3.59701e-19)
(0.934071 0.00409501 -2.03801e-19)
(0.953654 0.00610116 -7.31992e-20)
(1.01362 -0.0083507 -2.3756e-19)
(0.958349 -0.0428639 -1.21367e-18)
(1.0043 -0.00770026 3.03496e-20)
(1.00033 -0.000250523 -5.95676e-23)
(1.0206 -0.00802125 2.00751e-19)
(0.937234 0.0359862 -3.98306e-19)
(1.04042 -0.0261355 2.03645e-18)
(0.992691 0.0119584 9.1681e-19)
(1.02105 -0.0212234 -2.2834e-19)
(0.977263 -0.00325351 1.01557e-19)
(0.987805 0.00672069 4.56773e-18)
(1.02743 -0.00203391 -1.73882e-18)
(1.00307 -0.00632599 -2.00913e-20)
(1.03909 0.000615891 -6.6818e-19)
(0.967005 0.00174435 -9.5444e-20)
(0.96887 0.096499 -8.16399e-19)
(0.994407 -0.0108016 -2.24939e-19)
(1.0358 0.00160711 -1.67028e-18)
(1.01325 0.000270375 1.28661e-19)
(0.993073 0.0123735 6.32096e-19)
(1.00953 -0.00109185 -6.02136e-20)
(0.986197 -0.00769142 -4.43855e-20)
(0.950796 0.00517967 5.51312e-20)
(0.978916 0.00803337 5.30775e-19)
(1.00475 -0.000304193 -4.55833e-20)
(0.985333 -0.0188569 -5.39877e-19)
(1.10558 -0.052389 -3.96866e-19)
(1.00405 0.0558575 -1.30058e-18)
(0.99018 -0.0269999 4.15741e-19)
(0.984091 -0.0111893 -1.01136e-19)
(1.03118 0.144073 -1.61954e-19)
(1.00098 -2.67487e-05 -2.48008e-21)
(1.23426 0.388879 -5.82385e-21)
(0.98525 -0.013018 -7.03493e-20)
(1.02951 0.000253401 -1.03491e-18)
(0.98462 -0.0138799 -2.22644e-19)
(1.02274 2.46169e-06 -3.78535e-19)
(0.831604 0.00806348 -1.28013e-18)
(0.975972 0.0188217 -1.25731e-18)
(1.04483 -0.0339202 9.4144e-19)
(0.993141 0.0293274 2.07638e-19)
(0.943934 0.0721093 6.9457e-19)
(0.999363 0.0934274 -6.31198e-19)
(0.894361 -0.0013098 -1.0759e-20)
(1.02751 -0.0026669 1.92583e-18)
(0.950833 0.0500419 6.53954e-19)
(0.991179 -0.0214152 -2.54659e-18)
(1.00765 -0.00831257 -1.12584e-20)
(0.995891 -0.0167723 1.01859e-19)
(1.03687 -0.0261731 -2.20642e-18)
(1.00043 -0.000380233 -3.3421e-22)
(1.08592 0.500972 4.41641e-20)
(0.792919 0.0647464 -2.35305e-19)
(0.960873 0.00414594 -3.92369e-19)
(1.01255 -0.0113629 -2.09404e-20)
(1.03395 -0.00233034 -2.72944e-19)
(0.983304 -0.0160751 -5.03812e-21)
(1.01693 -0.00710535 -4.80516e-21)
(0.993931 -0.0406405 -5.9992e-19)
(1.06643 -0.0236235 7.10936e-19)
(0.997561 -7.43517e-05 -6.85117e-22)
(1.00456 -0.00760719 -3.03012e-20)
(1.04538 0.013796 -2.63459e-19)
(1.00669 -0.0126756 2.50566e-20)
(0.736167 0.280823 2.4922e-20)
(0.921043 0.0398208 -6.97794e-19)
(1.00984 0.0417798 2.54815e-19)
(0.998738 -0.00420511 -4.35869e-21)
(1.01303 -0.0536597 -9.75222e-20)
(0.999895 -0.0452903 -7.46439e-19)
(1.0097 -0.000455966 4.0287e-20)
(1.01073 -0.0151426 6.29751e-19)
(1.02649 0.0196385 5.50775e-19)
(1.06385 -0.0246628 -4.61039e-19)
(1.00656 -0.012532 -9.32681e-20)
(0.999848 -7.13825e-06 1.93181e-23)
(0.953097 0.0498687 4.92495e-19)
(1.01007 -0.0158248 1.11727e-18)
(0.997551 -4.54276e-05 -1.52496e-20)
(1.03215 -0.00376621 -1.71177e-19)
(1.02037 -0.00977734 -1.31686e-19)
(0.987444 -0.0127563 1.25527e-20)
(0.968423 -0.000636851 3.23388e-20)
(0.961719 0.490163 3.13935e-20)
(0.938955 0.00103818 -7.85009e-20)
(0.984041 -0.0172504 -7.2571e-22)
(0.952381 -0.0173946 -5.22504e-21)
(1.00457 -0.00750445 4.35955e-20)
(0.997789 -0.00158806 8.44372e-21)
(1.00473 -0.00750384 -5.53299e-19)
(0.947551 0.107085 -1.198e-19)
(0.996062 -0.00111186 5.93188e-21)
(0.940882 0.00550129 4.2706e-19)
(1.0128 -0.00882344 1.84431e-20)
(0.989305 -0.0259359 1.95029e-19)
(0.978686 0.00703441 -7.01887e-19)
(0.998085 -0.00715597 1.1228e-21)
(1.08853 -0.00907834 -3.82476e-19)
(1.05205 0.00140693 -5.11835e-19)
(1.00997 -0.0388733 3.04016e-19)
(0.955667 0.10549 3.35086e-19)
(0.991302 -0.00448719 8.64885e-21)
(0.999424 -0.00138076 -2.27965e-21)
(0.992987 -0.0049872 -1.74097e-20)
(0.983018 -0.00857649 -1.9994e-21)
(1.01709 0.0028117 0)
(1.00468 -0.0089941 -3.84543e-19)
(0.924285 -0.000171121 -2.80668e-20)
(0.991366 -0.0105701 -1.98001e-18)
(0.894253 -0.0462197 1.91571e-18)
(0.894205 -0.0450084 -1.65731e-18)
(1.02679 -0.012078 4.35858e-19)
(1.0421 0.00451306 1.21548e-18)
(1.00478 -0.0491245 2.04852e-18)
(0.991976 -0.00503541 8.44554e-21)
(0.984955 -0.0183963 -1.12397e-19)
(0.960345 0.00430452 3.7385e-19)
(1.00328 -0.00358669 1.88897e-20)
(1.01565 -0.0232555 2.92357e-19)
(1.01369 -0.0081496 -8.96049e-21)
(1.01803 -0.0168611 -6.51025e-19)
(1.01108 -0.0783662 -7.57765e-20)
(1.07302 -0.016507 -7.80321e-19)
(0.954026 -0.0487015 9.79443e-19)
(0.98367 -0.0140209 -1.46388e-20)
(0.958111 0.00513859 6.5548e-19)
(1.00819 -0.00338624 -4.7053e-20)
(1.02766 0.0527998 -1.39714e-18)
(1.0314 0.0025281 -2.23294e-19)
(1.00305 -0.0236419 -8.71959e-20)
(1.0002 -1.16366e-05 -1.63539e-23)
(0.990852 -0.00606901 1.12528e-18)
(0.950415 -0.000740895 2.33028e-20)
(0.851827 -0.022059 -1.1847e-18)
(1.00477 -0.00855432 -1.99283e-19)
(1.02622 -0.0124503 -2.15593e-18)
(0.997297 -0.0488701 -5.861e-19)
(1.02168 -0.00831993 8.76441e-20)
(0.763357 0.199886 -3.33611e-19)
(0.986019 -0.000523774 5.50954e-20)
(0.948071 0.00269375 1.32716e-18)
(0.997817 -0.00353549 3.89952e-19)
(1.02656 0.0199502 -2.66334e-19)
(0.924816 -0.0134549 -1.33999e-18)
(1.03749 0.000311879 1.29439e-19)
(0.999789 -0.000415208 -1.06869e-21)
(0.987135 -0.0411166 3.92557e-20)
(0.937204 0.000170684 -4.04381e-19)
(0.981307 -0.014915 -5.34818e-19)
(1.03221 -0.00446854 -1.26632e-19)
(1.07979 -0.0675416 1.05084e-19)
(1.00443 -0.00756559 -4.97222e-20)
(1.18365 -0.142444 8.75054e-20)
(0.980582 -0.0130133 -7.89826e-20)
(0.99962 -0.00131114 -1.00118e-21)
(1.00509 -0.00934819 4.27678e-19)
(1.00355 -0.00777897 1.24865e-20)
(1.0665 -0.0247816 6.33622e-19)
(1.00342 -0.00353475 -1.66614e-20)
(0.969619 0.0456008 -2.76599e-19)
(0.958367 0.00304759 1.04437e-19)
(1.03892 -0.000788053 -2.46181e-19)
(1.02151 -0.00610571 -3.68547e-19)
(1.02016 0.0485868 1.96275e-18)
(1.01703 -0.00683786 -4.60106e-19)
(1.00458 0.0172472 -7.67071e-19)
(0.999964 -0.00011764 3.03322e-23)
(1.0229 -0.0375346 4.22532e-19)
(1.00745 -0.0135411 -1.37558e-19)
(1.01254 -0.00935996 4.03347e-20)
(0.948889 -0.00396277 1.66777e-19)
(1.00037 -0.000320124 7.50101e-22)
(0.84053 0.148985 -3.87922e-19)
(1.02569 0.00578032 1.77233e-19)
(0.789857 0.0670449 5.27793e-19)
(1.00292 -0.00613641 3.89916e-20)
(1.11063 0.105127 1.39788e-19)
(1.01728 0.00289389 -3.01911e-19)
(1.01164 -0.0267557 1.38538e-18)
(1.00322 -0.011505 6.29315e-20)
(0.995358 -3.5007e-05 -4.62985e-21)
(1.04326 0.0126036 -3.08124e-19)
(1.00282 -0.00250234 -1.07721e-20)
(1.04585 -0.0236192 -4.46618e-19)
(1.00171 -0.0127746 -7.47636e-20)
(0.832586 -0.0016634 -1.04966e-20)
(0.973113 0.0721535 -1.60862e-18)
(1.00262 -0.00238639 8.53093e-21)
(1.04591 -0.144718 2.49578e-19)
(0.998282 0.0124967 -1.52442e-18)
(0.997794 -0.00150148 4.16754e-22)
(1.02909 0.0309487 1.74482e-18)
(1.00995 -0.0205649 1.36673e-18)
(0.968236 -0.00103961 2.62194e-20)
(1.01207 -0.0083138 3.81117e-19)
(1.0068 -0.000829945 2.41396e-20)
(1.01573 -0.00652497 -4.58154e-19)
(0.951501 0.00435847 -2.64813e-20)
(0.935134 -0.00116902 3.36253e-20)
(0.957503 0.0456949 -6.63855e-19)
(0.994408 -0.00217011 -3.83562e-19)
(1.05127 -0.0273972 1.16778e-18)
(1.1016 -0.00750486 1.00017e-18)
(0.961699 -0.00105005 -7.49746e-20)
(1.00031 -0.00679518 -1.97273e-21)
(0.96105 0.0441101 -2.68862e-19)
(0.984911 -0.0132 -4.426e-20)
(0.935084 0.000919459 -3.68628e-20)
(1.00401 -0.00788021 -6.9997e-21)
(1.00523 0.0473324 6.36279e-20)
(0.926328 -0.012263 1.90846e-18)
(1.07646 -0.0178499 1.03891e-18)
(0.999913 -0.0143506 1.87192e-19)
(1.00105 -0.0158214 -3.42663e-20)
(0.952569 7.20956e-05 -8.1432e-20)
(0.760737 0.125686 -3.6293e-19)
(1.0145 -0.0529717 -1.94376e-20)
(1.02373 0.0526559 -2.56491e-19)
(1.03847 -0.00373332 -8.49734e-19)
(1.01788 0.0127742 -1.01474e-18)
(0.996584 -0.00200975 -3.98301e-21)
(0.849206 0.230957 1.55521e-19)
(1.00029 -0.000485369 -3.22966e-22)
(1.01594 -0.00649891 3.01496e-19)
(0.999725 -1.05063e-06 3.08052e-22)
(1.22747 0.367737 -2.91561e-20)
(1.07899 -0.0303721 -6.0755e-19)
(0.988273 0.0207793 1.2248e-19)
(0.999704 -0.000181698 4.08181e-22)
(1.04594 -0.0362643 -2.541e-18)
(0.99312 -0.00204487 1.19582e-20)
(1.01554 -0.0232596 2.93482e-19)
(0.990046 -0.00489963 2.8467e-20)
(0.903105 -0.054794 -6.38624e-20)
(0.978942 -0.00840302 5.54966e-19)
(1.01228 0.0579041 9.94699e-19)
(0.997678 -0.000177555 2.077e-20)
(1.03432 -0.044359 4.24915e-19)
(1.01141 -0.0146601 1.13169e-19)
(0.977503 -0.00453218 3.91814e-19)
(0.99961 -0.00141362 4.62365e-21)
(1.00039 -0.0160062 -3.61664e-20)
(0.996126 -0.000212797 2.27855e-21)
(1.00048 -0.0600746 3.73189e-19)
(1.01553 -0.0099506 1.71753e-19)
(0.983476 -0.00892775 -2.12726e-21)
(0.94551 -0.00221441 -1.0786e-18)
(1.00143 -0.00369643 -1.1168e-22)
(1.00439 -0.00632888 4.05676e-20)
(1.01023 -0.00236295 4.93966e-19)
(0.991417 -0.00447771 5.16675e-21)
(0.986878 0.00917997 -2.03219e-18)
(1.03115 0.0233546 1.96909e-18)
(0.744405 0.186046 -3.02043e-21)
(0.929429 0.000963435 9.4948e-20)
(1.04887 -0.0669358 -3.75058e-19)
(0.999642 -2.49538e-05 -2.57867e-22)
(1.02957 0.152037 1.79611e-19)
(1.01128 -0.0773848 2.78442e-19)
(1.00648 -0.000903337 3.55315e-20)
(0.96604 -0.0267314 2.3029e-19)
(1.00031 -0.0168058 1.35784e-19)
(0.943909 -0.0298041 -3.32318e-19)
(1.23079 0.14428 3.07086e-20)
(1.00962 -0.000764227 -4.33999e-20)
(1.01769 -0.030728 -9.22179e-19)
(0.999624 -0.00130839 4.01391e-21)
(0.982939 -0.0133434 5.93838e-20)
(0.993469 -0.00215139 1.17152e-21)
(0.959627 0.0446643 -9.33793e-20)
(0.944234 -0.00835225 -3.65122e-20)
(1.00205 -0.00432837 -3.04485e-22)
(0.997146 -0.00161562 6.91669e-21)
(1.03118 -1.85776e-05 8.2277e-19)
(0.958938 -0.0617727 -1.12872e-19)
(0.986027 -0.0130497 6.98362e-20)
(1.00191 -0.0155745 -8.60003e-20)
(0.957197 0.0440681 -7.61778e-20)
(0.974418 -0.0393739 5.35521e-19)
(1.01433 -0.00920546 1.11329e-19)
(0.824503 0.0410165 -1.97977e-20)
(1.14338 0.0587348 -3.60598e-19)
(0.914035 -0.0520723 -5.19956e-19)
(1.00048 -0.00670397 7.79726e-21)
(0.999898 -1.05795e-05 9.28488e-22)
(0.93698 0.0379485 5.21e-19)
(0.940867 -0.0199401 -1.20339e-19)
(1.00155 -0.00368352 -4.96629e-21)
(0.816848 0.0960607 7.9586e-19)
(0.986098 -0.00730858 3.11993e-20)
(0.999795 -0.00010512 2.19355e-21)
(1.02871 0.0353231 2.10958e-19)
(1.04089 -0.0961414 9.21913e-20)
(0.953684 -0.0505544 -1.30285e-18)
(0.897727 -0.0531565 -2.35417e-19)
(0.984047 -0.00948463 4.6739e-19)
(0.933056 -0.00122879 5.44101e-20)
(0.936714 -0.000165975 3.00919e-19)
(1.01152 -0.00813145 -4.67613e-19)
(0.977856 0.0677945 -7.29182e-19)
(0.996122 -0.00908821 -4.76274e-24)
(0.998761 -0.0442041 -1.41206e-19)
(1.03764 0.0423355 1.47738e-19)
(0.997902 -0.00894534 2.8444e-21)
(1.14039 0.0527742 4.97106e-19)