/*--------------------------------*- C++ -*----------------------------------*\
  =========                 |
  \\      /  F ield         | OpenFOAM: The Open Source CFD Toolbox
   \\    /   O peration     | Website:  https://openfoam.org
    \\  /    A nd           | Version:  7
     \\/     M anipulation  |
\*---------------------------------------------------------------------------*/
FoamFile
{
    version     2.0;
    format      ascii;
    class       volVectorField;
    location    "26";
    object      U;
}
// * * * * * * * * * * * * * * * * * * * * * * * * * * * * * * * * * * * * * //

dimensions      [0 1 -1 0 0 0 0];

internalField   nonuniform List<vector> 
29540
(
(1.0083 -0.0110917 1.46487e-22)
(1.00829 0.00376995 7.02571e-22)
(0.992744 -0.00263402 -8.62785e-22)
(0.975062 -0.037952 2.67713e-22)
(0.9981 -4.10463e-05 1.2172e-22)
(0.966036 -0.0230106 -3.8961e-22)
(1.04134 -0.0691624 6.70072e-22)
(1.01076 -0.0168726 -1.4294e-23)
(1.00158 -0.00154829 2.15774e-23)
(1.00014 -3.78483e-05 6.91342e-24)
(1.01179 -0.0225946 -4.08066e-24)
(0.998125 -0.0131162 -3.25052e-22)
(0.999633 -0.000151837 1.53833e-23)
(0.99998 -7.41327e-06 2.01476e-25)
(1.15908 0.0812203 1.16975e-21)
(0.995248 -0.00153455 1.3202e-22)
(0.999874 -0.000671399 -5.37664e-24)
(1.12352 -0.0174815 -7.59232e-23)
(0.998326 -0.00141799 -4.16364e-23)
(0.991441 -0.000631213 -1.89903e-22)
(0.999335 -0.000215308 -5.49886e-23)
(1.00149 -0.00154463 7.56324e-23)
(0.992673 -0.00278625 9.48468e-22)
(0.998335 -0.000134683 5.33454e-23)
(0.890056 0.111657 2.98568e-22)
(1.00909 0.00298032 3.77832e-21)
(0.999607 -4.59009e-05 3.53819e-23)
(0.945225 0.0944453 -2.10417e-20)
(1.16455 0.0806299 -3.23852e-21)
(0.999294 -0.00719864 -6.03647e-23)
(1.0122 -0.00909591 1.05656e-22)
(1.0312 -0.00672076 -7.90108e-22)
(0.976786 -0.0875744 2.67853e-21)
(0.998116 -0.0181658 1.64862e-22)
(0.943147 0.0899896 1.72801e-20)
(1.00197 -0.0260568 4.73681e-22)
(1.06551 0.0402057 -1.12095e-21)
(0.977699 -0.0214207 1.11504e-21)
(1.00421 -0.00066028 -2.89357e-22)
(1.00406 -0.00047016 5.50176e-22)
(1.00033 -0.000128268 -1.92404e-23)
(0.990594 -0.0237294 -1.12397e-21)
(0.999888 -0.000652472 -1.54501e-25)
(1.01675 -0.058868 -1.95604e-21)
(1.00002 -3.77184e-06 -1.82075e-24)
(0.999448 -0.00730472 4.54801e-23)
(0.997924 -0.00973956 -9.24223e-23)
(1.00005 -6.59496e-05 4.33722e-24)
(1.00262 -0.00290908 -3.03111e-22)
(1.06511 0.0375289 -4.60877e-22)
(1.08858 -0.0899096 4.8631e-22)
(0.977901 -0.0335839 -1.26328e-21)
(1.03115 -0.00593439 2.79096e-22)
(0.96708 -0.0228572 -6.52606e-22)
(0.995364 -0.00157473 -1.16367e-22)
(1.16772 0.0686151 -2.02258e-21)
(0.997354 -0.00177058 4.16292e-23)
(0.999316 -0.00023742 6.95888e-23)
(0.999624 -0.0171862 -2.31421e-22)
(1.00578 -0.0468672 -8.51368e-22)
(0.999955 -5.19159e-06 6.70256e-25)
(0.998383 -0.00145284 -8.57794e-24)
(1.24462 -0.0219713 -7.28264e-22)
(1.00231 -0.0254915 -2.63971e-22)
(1.06494 0.104562 9.32862e-21)
(0.915472 0.0309224 4.39303e-20)
(0.998684 -0.0215785 -4.44547e-22)
(0.994148 -0.0108441 4.08148e-22)
(0.937242 0.0197378 1.77092e-20)
(1.00035 -0.000121281 1.24874e-23)
(1.0105 0.00357376 -5.14769e-21)
(0.988232 0.0783259 1.22349e-20)
(1.00248 -0.00721132 -1.14785e-22)
(0.910144 0.1298 1.09065e-20)
(0.993718 -0.000496291 6.13348e-22)
(1.09672 -0.0544234 -1.15532e-22)
(1.23522 0.135087 2.43031e-21)
(0.978825 -0.0121956 2.65455e-22)
(0.999967 -1.6302e-05 -1.68719e-24)
(1.00124 -0.0383161 -8.30374e-22)
(0.967658 -0.000537782 -4.31012e-22)
(1.02044 0.0374712 3.01659e-21)
(1.00845 -0.0115743 -4.40489e-22)
(1 -4.69906e-05 -2.09891e-24)
(1.04354 -0.0678718 -1.03482e-21)
(1.15157 -0.177096 -3.04187e-21)
(1.03756 0.0917359 -1.84006e-20)
(0.999619 -0.000149878 -1.40558e-23)
(0.999645 -0.000135204 -4.14509e-24)
(0.950322 -0.0287726 -1.56018e-21)
(0.993169 -0.0411521 1.512e-21)
(0.978735 -0.0127743 2.9704e-22)
(1.00245 -0.00300523 5.16926e-23)
(1.05014 -0.0117068 -4.38067e-22)
(0.946482 -0.0122321 -1.30417e-21)
(1.04796 0.111416 8.72366e-21)
(0.993585 -0.0532971 2.3793e-21)
(1.00036 -0.00030328 3.08678e-23)
(0.974956 -0.0475685 -2.32937e-21)
(1.15369 0.108634 6.35322e-21)
(0.999965 -1.61275e-05 2.44243e-24)
(0.979893 -0.00796762 -1.59461e-21)
(0.999956 -6.33641e-06 -3.52281e-25)
(1.03817 -0.0183777 -2.14919e-21)
(0.976884 -0.0334055 8.27462e-22)
(1.0323 0.0108535 5.16045e-21)
(1.00382 0.0737592 1.83526e-20)
(0.999659 -0.000136651 -3.43633e-23)
(0.999996 -5.3439e-05 1.3834e-25)
(0.988686 -0.0860217 -1.34556e-22)
(0.975446 -0.0863037 -2.41344e-21)
(1.03285 -0.0360623 1.1187e-22)
(1.00001 -1.45101e-06 3.89559e-25)
(0.999069 -0.00486534 -1.55869e-22)
(0.999904 -0.00173437 3.02957e-24)
(0.991057 0.0800999 8.50326e-23)
(1.04137 0.0538838 -6.42134e-21)
(0.990802 -0.00563465 -6.5071e-22)
(1.00002 -5.17728e-05 7.24942e-25)
(1.00274 -0.0071441 -8.84041e-23)
(1.24799 -0.115825 1.07927e-20)
(1.00551 0.0114822 8.30211e-21)
(1.14346 -0.0815151 -3.7741e-21)
(0.913629 0.0378267 -4.06413e-20)
(1.00085 -0.000283231 -7.36494e-23)
(1.14148 -0.0584094 4.92677e-22)
(1.12267 -0.0131128 -4.59469e-22)
(1.00949 -0.0456238 6.41947e-22)
(1.00314 -0.00276422 -2.70501e-22)
(1.00002 -0.000343471 2.30168e-24)
(1.01667 -0.0573036 6.97825e-22)
(1.23936 0.127625 1.12453e-21)
(1.00624 0.141184 1.85685e-20)
(1.1424 -0.0999551 -1.13829e-21)
(1.03686 -0.0179585 1.80975e-21)
(1.01184 -0.00874417 2.00056e-21)
(1.07866 0.183778 1.33414e-21)
(0.979098 -0.000588714 2.22525e-21)
(1.05752 -0.173198 7.86184e-21)
(1.15511 0.102465 -4.91177e-21)
(1.14185 -0.0530801 -4.6003e-22)
(0.955766 -0.00367444 -1.72846e-21)
(0.962354 -0.0318003 5.0592e-22)
(1.00001 -1.22366e-06 -1.63677e-25)
(0.999993 -2.66973e-06 -1.79531e-26)
(0.99805 -6.80671e-05 -9.52154e-23)
(0.998076 -0.00955185 1.89091e-22)
(0.981995 -0.0676315 -1.88428e-21)
(1.07545 -0.142186 3.82561e-21)
(1.28606 0.0388952 -1.99502e-21)
(1.02462 -0.0166958 9.88877e-22)
(1.01394 -0.0164146 3.19918e-22)
(1.00033 -0.000491927 4.8435e-23)
(0.9999 -0.000172277 2.94221e-24)
(1.00159 0.0227343 -1.83403e-20)
(1.00041 -0.00120966 5.20921e-24)
(0.994667 -0.00883387 2.4853e-25)
(1.0941 0.186291 -3.81179e-21)
(1.00463 0.0442951 -1.99353e-20)
(1.09176 -0.0876924 -1.05791e-21)
(0.969111 -0.00204955 7.37358e-22)
(0.975846 -0.03725 1.92464e-21)
(1.16878 0.0742445 5.26194e-22)
(0.999966 -3.50463e-05 4.88296e-25)
(0.999992 -2.70849e-06 4.69338e-27)
(0.990755 -0.00592292 2.34775e-22)
(0.963257 -0.0312141 -2.80016e-21)
(1.00004 -0.000175485 -5.45477e-24)
(1 -5.03384e-05 -1.17882e-24)
(0.994699 -0.00398809 -7.76119e-23)
(1.00003 -0.0003333 -1.89489e-24)
(1.0045 -0.00477567 -1.49386e-22)
(1.08944 0.190106 4.28149e-21)
(0.979396 -0.0003104 -1.88405e-21)
(1.02145 -0.0935501 -8.51167e-22)
(0.996081 -7.67312e-05 3.95176e-22)
(1.00165 -0.0021416 1.60416e-23)
(0.979367 -0.00782597 2.63417e-21)
(0.999303 -0.00485789 -1.40974e-23)
(1.15154 -0.0737895 2.33762e-21)
(0.999986 -7.1816e-06 4.39239e-25)
(1.00876 -0.0313526 -3.66868e-22)
(1.03995 0.0936981 6.49779e-21)
(0.994402 -0.0100792 -2.37487e-23)
(1.0545 -0.168491 -7.5251e-21)
(1.03129 0.0460745 -5.6843e-21)
(0.995097 -0.00219885 -5.78097e-22)
(0.985871 -0.0117003 7.20883e-22)
(1.00297 -0.0027762 4.10896e-22)
(0.999359 -0.0067144 -9.06411e-23)
(0.999796 -5.57874e-06 3.73021e-24)
(1.00445 -0.0143805 5.68572e-23)
(0.908916 0.0188917 1.70493e-20)
(1.00102 0.0186748 1.41471e-20)
(0.988903 -0.00474484 1.83547e-23)
(0.994903 -0.00870748 -2.55652e-22)
(0.979834 0.0423403 -1.67758e-20)
(1.0126 0.0293718 2.59795e-21)
(0.94754 -0.0121258 1.61677e-21)
(1.00089 -0.000380191 -5.73759e-23)
(1.04744 -0.0874112 1.31555e-21)
(0.972724 -0.0625699 2.42805e-21)
(0.998327 -0.0133994 1.55747e-22)
(1.00065 -0.000832117 -9.3733e-23)
(1.08186 0.18842 1.82354e-21)
(0.994867 -0.0039982 -5.26562e-23)
(1.00527 -0.00428923 -1.68311e-22)
(0.980885 -0.0670409 2.45205e-21)
(0.988503 -0.0878617 3.33451e-22)
(0.999976 -3.29728e-06 1.8988e-25)
(0.978191 0.11329 -1.92301e-20)
(0.999216 -1.79967e-05 -9.32907e-25)
(0.999999 -3.96512e-05 -5.06375e-25)
(0.999589 -0.000160182 6.00867e-24)
(0.995334 -0.041616 -5.59404e-22)
(1.23789 0.00644241 1.81727e-21)
(1.0096 -0.0307936 3.33908e-23)
(1.00511 -0.00400382 -1.15504e-22)
(0.998353 -0.000185406 1.32751e-22)
(0.948427 -0.0135355 -3.00029e-22)
(1.00002 -0.000365406 -1.42331e-24)
(1.00037 -0.0012333 4.16316e-25)
(0.998225 -0.00015724 -8.76277e-23)
(1.02362 0.000930717 4.81429e-21)
(0.997942 -0.00306869 -2.85777e-23)
(0.999093 -0.00452001 4.60945e-23)
(1.02279 -0.00128658 2.33665e-21)
(1.0001 -0.000299174 6.2667e-24)
(1.00002 -3.13326e-06 4.79319e-25)
(1.00387 -0.000474788 5.89162e-23)
(0.980558 -0.0245454 -9.53928e-22)
(0.981617 -0.000303171 -9.22009e-22)
(0.99632 -0.0002919 -4.18219e-22)
(1.01138 0.00280489 4.25476e-21)
(0.987953 -0.000865715 4.44552e-22)
(1.01418 -0.0158797 -3.14137e-22)
(0.99998 -8.23679e-06 5.57613e-25)
(0.99772 -0.00202289 -1.61612e-22)
(1.00061 -0.000825306 1.014e-22)
(1.04784 -0.0843871 1.31002e-21)
(1.0111 -0.145161 5.00136e-21)
(0.99895 -9.58413e-05 6.79572e-23)
(1.00035 -0.000437613 -3.67961e-23)
(0.999019 -0.00441019 -1.56301e-23)
(1.00267 -0.00637876 -2.1876e-22)
(0.991612 -0.000465975 -8.11688e-22)
(0.999967 -3.31004e-05 -6.52618e-26)
(1.14999 -0.171154 -6.87957e-21)
(1.00003 -0.000373924 2.4975e-24)
(1.02335 0.000879778 -3.39195e-21)
(0.997437 -0.00177337 -8.41067e-23)
(1.00011 -0.000290101 2.43554e-24)
(1.0314 0.0112864 -3.2798e-21)
(0.969427 -0.0595022 -2.45709e-21)
(1.00019 -3.2575e-05 2.17115e-23)
(1 -7.71112e-06 -2.05322e-25)
(0.955655 -0.0026294 -1.96718e-21)
(1.00472 -0.132288 -7.97076e-22)
(0.993283 -0.0063318 -6.28839e-23)
(1.0086 -0.0465102 -1.69378e-22)
(1.0253 -0.0173543 -1.61818e-22)
(1.04558 0.0904716 8.14414e-22)
(1.00006 -6.21471e-05 1.16782e-24)
(0.98093 -0.0240677 9.71353e-22)
(1.19783 -0.100128 4.57223e-21)
(0.961842 0.0608952 4.01224e-22)
(0.994344 -0.00984811 1.89514e-22)
(1.03009 0.0445195 6.96652e-21)
(1.09768 -0.0507059 -5.10853e-23)
(0.9999 -0.00190878 -4.77588e-24)
(0.82506 0.0527826 2.27007e-20)
(0.999587 -0.000337897 -4.03327e-23)
(1.02012 -0.0958537 -1.07688e-21)
(0.949241 -0.0135496 1.99371e-21)
(1.00175 -0.00202473 -8.81508e-23)
(1.19102 -0.0325031 -1.26255e-21)
(0.993395 -0.000718797 -4.84859e-22)
(1.00873 0.152863 1.32676e-20)
(0.997331 -0.000204011 3.79846e-23)
(0.986236 -0.0126296 -3.78213e-23)
(0.999834 -0.0017335 -3.05833e-23)
(1.13406 0.145111 1.59919e-21)
(0.999786 -0.0136343 4.09495e-23)
(1.04454 0.112307 5.5226e-22)
(0.999619 -3.53201e-05 -1.56488e-23)
(0.995487 -0.00145793 -1.84042e-22)
(0.96075 0.138705 -8.1996e-21)
(1.0276 -0.000195679 -3.93937e-21)
(1.02262 -0.000912321 2.71979e-21)
(0.976601 -0.0309304 2.3213e-21)
(0.99989 -2.42825e-05 3.38237e-24)
(1.00259 -0.00615746 -2.50998e-23)
(0.99987 -0.000733754 -9.1574e-24)
(1 -3.74388e-05 -3.27709e-25)
(1.05119 0.00222761 1.03228e-21)
(1.00003 -3.80717e-06 3.34857e-26)
(0.984492 -0.0111592 1.68452e-21)
(1.19217 -0.100079 -4.32979e-21)
(0.887588 0.116668 -2.07794e-20)
(1.00961 0.141626 -2.95886e-20)
(0.972785 -0.0518626 7.632e-22)
(0.988588 -0.0229866 6.05646e-22)
(0.982493 -0.00117007 4.4076e-22)
(1.02616 -0.0324915 4.28875e-22)
(1.00492 -0.0141991 -1.12862e-22)
(0.985764 -0.0122572 -9.95103e-22)
(0.972782 -0.0568678 3.3825e-22)
(1.04384 0.0930942 -1.21443e-20)
(0.999492 0.0169979 2.7211e-20)
(0.999019 -0.000116942 3.73216e-23)
(1.00533 0.0744647 -2.51109e-20)
(1.05018 0.000969885 3.42594e-22)
(1.14937 -0.0804488 1.07626e-21)
(1.01068 -0.0129886 1.52767e-22)
(1.00065 -0.0125891 -1.96832e-22)
(1.01527 -0.0434533 -4.47003e-22)
(0.995813 -0.00141023 -4.35793e-22)
(0.997937 -0.000512449 -2.80998e-23)
(0.999959 -4.92382e-06 3.42992e-24)
(0.999228 -0.00687603 1.32873e-22)
(1.07919 -0.0484852 5.61018e-23)
(1.13514 0.150892 -2.68062e-21)
(1.00126 -0.00109643 4.19781e-23)
(0.978558 -0.0201055 -1.33536e-21)
(1.01223 -0.013354 -4.81504e-22)
(0.999975 -1.1622e-05 -2.51052e-25)
(0.97278 -0.0542785 -1.21507e-21)
(0.862554 0.0907944 -1.05237e-20)
(0.995134 -0.00375873 6.50564e-22)
(0.999119 -0.00361041 4.15227e-23)
(1.01116 -0.0128602 -9.50692e-23)
(1.00109 -0.0372078 1.0514e-21)
(1.08488 0.024591 1.22866e-21)
(0.999513 -0.0078075 -2.22381e-23)
(0.999977 -4.07085e-05 6.9847e-25)
(1.00001 -2.00771e-06 2.11108e-25)
(0.99791 -0.000466849 -3.11185e-23)
(0.958651 0.137633 1.18439e-20)
(1.04064 -0.0276933 4.03968e-22)
(1.01472 -0.145193 -1.29547e-21)
(1 -7.68218e-06 -5.30993e-26)
(1.00189 -0.134405 5.08859e-22)
(1.07357 -0.00800188 -1.30016e-21)
(0.995986 -0.000128305 -1.96203e-22)
(0.951153 -0.0049621 -2.42837e-21)
(0.999186 -0.00354823 -4.15389e-23)
(0.999667 -0.000152939 -2.48871e-24)
(0.981567 -0.0217808 -2.91571e-22)
(1.00072 -0.000913566 -4.49661e-23)
(1.15718 -0.0724538 -2.07754e-21)
(1.00739 -0.000880012 -1.21677e-21)
(1.22476 0.0908558 -1.11871e-21)
(0.999928 -0.00188407 6.16866e-24)
(1.00328 -0.0112582 3.78698e-23)
(1.00533 0.0101477 -1.12266e-20)
(1.24173 -0.110493 -4.3876e-21)
(1.00033 -0.000463022 -2.84477e-23)
(1.00034 -0.000410285 2.80234e-24)
(0.993946 0.0949303 1.20122e-21)
(0.993951 -0.0420144 -3.01466e-22)
(0.99938 -0.00768521 2.72016e-23)
(1.01159 0.0328117 1.36901e-21)
(0.971852 0.0215052 3.27893e-20)
(1.08775 -0.0939787 -1.64067e-21)
(0.998726 -0.0208325 -1.34358e-22)
(1.23286 0.0095882 -1.81594e-21)
(0.999411 -5.75861e-05 -2.73689e-23)
(0.993146 -0.00330765 1.72006e-22)
(0.997386 -0.000214364 -1.06843e-22)
(1.01405 0.0278911 5.06523e-24)
(0.999988 -0.000602808 -1.26558e-24)
(1.00714 -0.00106818 1.24313e-21)
(1.09718 -0.144031 9.50951e-23)
(1.00382 0.133071 2.89397e-20)
(0.913409 0.134045 -4.82391e-21)
(0.995245 -0.00219422 2.32485e-23)
(0.993092 -0.00618037 1.88303e-22)
(1.06206 0.107811 -7.41696e-21)
(1.00594 -0.0483176 1.22644e-21)
(0.99996 -5.88399e-06 -3.35365e-24)
(1.27228 0.0824945 -5.54985e-22)
(1.02311 0.0013969 -1.44628e-21)
(1.0227 0.0014011 -9.82855e-22)
(0.995291 -0.0107398 -2.7788e-22)
(1.0154 -0.00167597 -1.91149e-21)
(0.949804 0.122858 4.69206e-21)
(1.0682 -0.147495 -1.05256e-21)
(0.98065 0.12176 4.7183e-21)
(0.995491 0.120462 -8.2428e-21)
(0.999997 -5.08614e-05 -4.44542e-25)
(1.07652 -0.0469927 -6.15466e-24)
(1.07062 -0.143556 6.88472e-22)
(0.997846 -0.00309563 7.43937e-23)
(1.00129 -0.0011768 -6.92544e-23)
(0.966686 0.025063 7.83213e-21)
(1.04206 -0.028604 -5.11544e-22)
(1.00022 -6.01825e-05 4.86675e-24)
(0.982838 -0.0467973 -2.90106e-21)
(0.971957 -0.0640791 -1.14861e-21)
(0.995585 -0.00149845 2.58774e-22)
(0.999907 -0.000167239 -3.71227e-24)
(1.05651 0.133833 -1.20091e-21)
(1.0409 0.0517812 1.07803e-20)
(1.00004 -0.000410043 -4.64738e-26)
(1.00326 -0.00298424 5.30091e-23)
(1.00422 -0.00299908 2.86628e-22)
(1.14689 -0.131914 5.11059e-21)
(0.976681 -0.0301046 -2.10454e-21)
(1.00005 -0.00048758 -4.3062e-24)
(0.99999 -1.82716e-06 -2.05059e-26)
(1.00039 -0.000133416 7.29364e-24)
(1.08345 0.0261924 -1.17951e-22)
(0.977725 -0.0206655 -1.06738e-21)
(1.00247 0.0463794 5.7989e-21)
(0.957112 -0.0347721 1.20069e-21)
(0.989225 -0.0229162 -6.40513e-22)
(0.981092 -0.000907954 -1.76615e-21)
(1.01308 0.0315573 -6.74346e-21)
(1.2356 -0.0196511 -2.10102e-22)
(0.99905 -0.000124384 6.81339e-23)
(1.00636 -0.00491482 -3.04677e-22)
(1.00067 -0.000903935 5.10084e-23)
(0.979398 0.134 -1.18783e-20)
(0.97936 -0.0188043 5.74219e-22)
(1.00086 -0.000230175 -2.41654e-23)
(0.993966 -0.0029513 -2.34767e-22)
(1.14769 -0.049392 -5.15423e-22)
(0.999578 -0.00839175 -5.92356e-23)
(0.990623 -0.0101371 -1.30796e-22)
(1.00018 -0.00011466 -1.51739e-23)
(1.00019 -4.36872e-05 -6.8215e-25)
(0.858799 0.0970473 1.58572e-20)
(0.993441 -0.00107068 -3.01215e-22)
(0.996127 -0.00388478 2.66875e-22)
(0.999692 -0.00153457 -2.91219e-23)
(0.999426 -4.4012e-05 -3.74309e-24)
(1.05259 0.0878727 -4.07697e-21)
(1.10179 -0.147538 2.91272e-22)
(0.98674 -0.0342063 3.8151e-22)
(1.00001 -1.45434e-06 -1.91634e-25)
(0.999999 -2.99556e-05 -2.92233e-25)
(0.978566 -0.0194384 1.5092e-21)
(0.994571 -0.00157355 6.18903e-23)
(0.99584 -0.00179886 -3.55406e-23)
(1.01195 -0.0045907 5.88576e-22)
(1.00474 -0.00203785 1.02908e-22)
(0.999996 -0.0139737 -7.33298e-23)
(1.11772 -0.0326923 3.51004e-22)
(0.985176 -0.00355798 -3.72093e-22)
(0.982641 0.119354 -4.01277e-21)
(1.01108 -0.0225486 -1.05565e-22)
(1.00019 -0.000115182 1.68113e-23)
(0.972249 -0.050834 1.12827e-22)
(0.985654 -0.0302468 -1.33121e-21)
(1.1816 -0.0240057 -3.97667e-22)
(0.99763 -0.00510532 -7.96636e-23)
(0.989159 -0.0403476 -4.52111e-22)
(0.999985 -5.11063e-06 2.82956e-25)
(0.927144 0.0976245 -1.64556e-20)
(1.0128 -0.00192407 1.0754e-21)
(1.00006 -0.000196052 -6.91512e-24)
(0.908775 0.0258428 -2.21242e-20)
(0.985899 -0.0343142 8.4975e-22)
(0.999985 -5.60662e-06 5.24247e-26)
(1.00117 -0.00107137 2.04768e-23)
(0.972141 -0.0531435 -6.69374e-22)
(1.03164 -0.0347555 1.3646e-22)
(1.04307 -0.0135492 1.25827e-21)
(0.999994 -2.66926e-06 -4.91554e-26)
(0.99341 -0.00054657 2.39375e-22)
(1.01614 -0.042606 8.08091e-22)
(0.995708 -0.00137508 3.57647e-22)
(0.999635 -4.0492e-05 -8.3513e-23)
(0.993278 -0.00341616 4.88848e-24)
(0.976309 0.0442149 1.94498e-21)
(0.994053 -0.0105309 -3.4016e-22)
(0.991015 -0.00993819 9.58169e-23)
(1.00187 0.026482 -5.68639e-21)
(0.997763 -0.00191046 8.40775e-23)
(0.973484 0.135873 -1.47299e-21)
(0.999984 -5.51347e-06 -1.51202e-25)
(0.990892 -0.0231674 2.6146e-22)
(0.981016 -0.0638882 2.83957e-21)
(0.989905 -0.0406913 7.72374e-22)
(1.18144 -0.110253 1.23581e-21)
(0.998993 -0.00472563 1.04435e-22)
(1.00718 -0.0208953 2.36901e-23)
(0.999919 -0.00202907 9.47173e-25)
(0.985858 -0.0178187 -7.47754e-22)
(1.03249 -0.0377465 1.85219e-23)
(0.999976 -1.10035e-05 1.17166e-24)
(1.00001 -5.75987e-07 -3.31571e-25)
(0.99485 -0.000353091 1.63047e-22)
(0.980674 0.0836132 1.231e-20)
(1.01031 -0.0174478 5.31119e-22)
(1.00211 -0.00302882 -8.43e-23)
(0.947405 -0.0253143 1.6761e-21)
(1 -6.81155e-06 -1.64101e-25)
(1.0008 -0.000998124 -8.10267e-23)
(0.999969 -0.000574505 -9.19907e-25)
(1.01153 -0.0167918 6.06621e-22)
(0.986159 -0.013186 1.32677e-22)
(0.999692 -0.000238914 1.0244e-23)
(0.994458 -0.00940369 1.27408e-22)
(0.989886 -0.00586395 -1.3818e-22)
(1.00083 -0.000137817 -6.61235e-24)
(0.999984 -5.97084e-06 -1.01092e-25)
(1.21289 -0.0722327 -4.36098e-21)
(0.999723 -0.00150916 3.12493e-23)
(1.07054 -0.0122722 9.84915e-22)
(1.01982 0.129679 2.98331e-20)
(1.05683 0.106592 -6.83303e-21)
(1.00007 -0.0176364 -2.74979e-22)
(1.00464 -0.00184679 -3.40912e-23)
(1.01571 -0.00133648 1.17169e-21)
(0.999959 -0.0020751 -1.05457e-24)
(0.99807 -0.00889421 1.32992e-22)
(1 -1.30418e-05 -4.35053e-25)
(0.99258 0.120883 -6.03169e-22)
(0.989799 -0.0133209 1.8583e-22)
(1.01171 -0.00423266 -4.20908e-22)
(0.985504 -0.00369535 7.75418e-22)
(1.00288 -0.0110582 4.3297e-24)
(0.997771 -0.00502337 1.74096e-22)
(0.999916 -0.000171234 7.87708e-25)
(1.00001 -8.10155e-07 -1.71765e-24)
(0.996258 -0.0038707 -1.94366e-22)
(1.05014 -0.0133183 -6.77447e-22)
(1.00489 0.0463325 9.07018e-22)
(1.001 -0.000409009 -9.70644e-23)
(0.976232 -0.0477549 -6.21096e-22)
(0.979334 -0.0182346 -2.53334e-22)
(0.993572 -0.000429143 -8.98411e-22)
(1.27726 0.0375846 1.25466e-21)
(0.998937 -0.000821709 -4.11375e-23)
(1.00289 -0.0125029 -9.23319e-23)
(0.995508 -0.0023659 1.81358e-22)
(0.999923 -0.000164917 6.78527e-25)
(0.972068 -0.0555868 7.6282e-22)
(1.00221 0.040245 -9.0921e-21)
(1.03056 0.0402531 -7.1305e-21)
(0.981471 -0.0122716 -1.21907e-22)
(1.00166 0.0382152 -3.88504e-22)
(1.00006 -0.00018394 1.38442e-23)
(1.00001 -6.59434e-07 5.47708e-25)
(1.26544 0.0788798 9.29905e-24)
(1.18934 -0.0260688 1.09586e-21)
(0.91102 0.0993201 -7.95331e-22)
(0.993924 -0.0688346 2.16145e-21)
(0.981291 -0.00125355 -5.66477e-22)
(1.14758 -0.0432023 7.87421e-22)
(1.00095 -0.000426451 1.10034e-22)
(0.995334 -0.00318681 1.03992e-22)
(1.00037 -0.000141684 -6.88277e-24)
(0.991263 -0.000597102 -1.92612e-22)
(0.990193 -0.0109027 -2.72069e-22)
(0.999996 -2.66259e-05 1.07164e-24)
(0.999286 -2.78501e-05 1.57965e-23)
(1.00334 0.129938 -2.82875e-20)
(0.999893 -0.000596347 7.71008e-24)
(0.93546 0.090049 2.06766e-20)
(1 -1.21101e-05 3.30148e-25)
(1.27135 -0.0574864 -4.64783e-21)
(1.07035 -0.0143251 -2.11956e-21)
(1.11805 -0.0290211 -4.01425e-22)
(1.00085 -0.000404361 6.6225e-24)
(1.00015 -3.47909e-05 1.37739e-23)
(0.985013 0.0789789 -1.8724e-20)
(1.07348 -0.0103351 4.30069e-21)
(0.980409 -0.0650003 -2.57845e-21)
(1.02128 0.0393519 3.26917e-21)
(0.997739 -0.0178019 1.14931e-22)
(0.989013 -0.00447081 -2.00886e-22)
(0.996683 -0.000183821 -1.07479e-22)
(1.14485 0.183773 -1.18829e-20)
(0.980022 -0.021836 9.37771e-22)
(1.02672 -0.0311957 -3.07722e-22)
(0.994677 -0.00932443 -7.32079e-23)
(1 -6.8378e-06 -3.90029e-27)
(0.998948 -0.000775776 -3.48345e-23)
(1.00496 -0.00516674 1.77772e-22)
(0.984933 -0.0065872 9.93631e-22)
(0.981938 -0.012382 1.82883e-22)
(0.964405 -0.0318727 -2.72141e-22)
(0.984771 -0.00698383 -7.53751e-22)
(1.01687 0.00254431 5.7372e-22)
(0.998269 -0.000118727 2.19758e-24)
(0.951406 -0.0291738 8.65911e-22)
(0.988492 -0.000760034 -2.75834e-22)
(1.00003 -0.000177417 3.27684e-24)
(0.989949 -0.000610489 -1.90773e-22)
(1.027 -0.0337292 -4.30131e-22)
(1.01619 0.0027327 -3.17254e-21)
(0.978417 -0.0218896 -2.32375e-22)
(0.999991 -4.67696e-07 -8.43434e-28)
(0.985527 -0.0134579 1.99239e-22)
(1.00159 -0.0127332 2.21965e-23)
(1.00114 -0.000994266 2.63829e-23)
(1.08476 -0.156364 -3.23912e-21)
(1.0018 0.0376568 -2.11807e-20)
(1.00074 -0.000985617 7.53013e-23)
(0.99012 -0.000460411 2.64092e-24)
(1.07997 -0.0916016 6.82383e-23)
(1.02401 0.000182309 4.81112e-21)
(0.990162 0.0309669 -2.09216e-21)
(1.00153 -0.00210842 2.31662e-23)
(0.999886 -0.0183612 8.56125e-23)
(1.10954 0.130663 -2.06444e-21)
(1.01483 0.024688 -1.66692e-20)
(0.991753 -0.02314 6.95432e-22)
(1.00397 -0.0029996 -3.20509e-23)
(0.960448 -0.0374792 1.23857e-21)
(0.999998 -3.0759e-06 -1.99392e-25)
(0.961025 -0.00160136 -8.92734e-22)
(1.00006 -5.77671e-05 2.27479e-24)
(1.07714 -0.0915783 -3.79265e-21)
(0.999977 -2.27616e-06 -1.2946e-25)
(1.00002 -5.05653e-05 2.10373e-24)
(0.999475 -0.0205068 -1.03694e-22)
(1.25048 -0.0151618 1.78865e-21)
(1.03584 0.166559 1.23403e-20)
(1.02984 -0.035013 -6.33074e-22)
(1.01163 -0.0134602 3.20548e-22)
(0.999999 -2.16622e-06 7.43129e-26)
(0.994958 -0.00378453 -3.51187e-22)
(1.00007 -1.7939e-05 -1.61284e-24)
(0.997411 -0.00203284 1.20876e-22)
(1.00002 -4.69059e-05 -1.64741e-24)
(1.04334 -0.0117647 -3.92096e-21)
(0.999616 -0.000397572 -4.09679e-23)
(1.05737 0.0535075 6.8551e-21)
(0.999899 -0.00018278 -5.86279e-24)
(0.989411 -0.00437146 -3.40642e-22)
(0.966975 -0.000869534 2.08008e-21)
(0.996511 -0.000251397 -1.38924e-22)
(0.983769 0.0444872 2.00911e-20)
(0.985899 -0.000594624 5.19527e-22)
(1.01129 -0.0904608 1.87551e-22)
(0.995452 -0.00334347 5.38597e-22)
(1.02216 -0.00246293 -9.84399e-22)
(0.974183 -0.0482654 2.67035e-21)
(1.01675 -0.00125465 -3.27707e-21)
(1.02894 -0.0652145 -8.36994e-23)
(0.99999 -1.46892e-06 2.70011e-27)
(0.999007 -0.0173139 9.45191e-23)
(0.996737 -0.000242513 1.69059e-23)
(1.0002 -7.77999e-05 1.00074e-23)
(1.00007 -1.52504e-05 2.786e-24)
(1.15091 0.186773 1.28802e-20)
(0.995977 -0.00180504 3.00121e-22)
(1.02391 0.000882261 5.50681e-21)
(1.0004 -0.0188281 1.05273e-22)
(1.0007 -0.000258134 2.59953e-23)
(1.02039 -0.00761424 -3.56042e-21)
(1.00013 -3.25709e-05 -3.11829e-23)
(0.999984 -3.39117e-06 -1.45166e-26)
(0.961479 -0.00213393 6.89489e-22)
(0.997132 -0.00103015 1.34745e-22)
(1.00002 -4.5646e-05 2.21365e-24)
(1.06927 0.104679 4.94918e-21)
(0.875117 0.0791615 -2.94936e-20)
(0.999831 -0.000193825 1.70856e-23)
(0.968398 -0.00176015 -5.75517e-22)
(1.00001 -8.01075e-07 3.85707e-25)
(0.946198 0.120103 -1.9112e-20)
(1.28026 -0.0599528 -6.14465e-21)
(0.975086 -0.0388495 -2.17775e-21)
(1.00004 -0.000471389 -5.28484e-24)
(1.02581 -0.030037 7.6698e-22)
(1.02718 -0.00283566 -1.36073e-21)
(1.02827 -0.000261785 4.05576e-22)
(1.0441 -0.0142773 -4.80306e-22)
(0.999695 -0.00161789 -4.75489e-24)
(0.99989 -0.000715462 7.12552e-24)
(0.988318 -0.0132071 -5.91224e-22)
(1 -6.08078e-06 -6.43351e-25)
(1.00001 -6.66018e-07 -9.67178e-26)
(0.979364 -0.021422 -5.51365e-22)
(0.994835 -0.0527572 -1.176e-21)
(0.965404 -0.0313367 -6.99767e-23)
(0.896345 0.112256 -6.30081e-22)
(1.00016 -2.11981e-05 -1.26103e-23)
(1.00867 -0.0679677 -2.54475e-21)
(1.00616 -0.00461091 -3.13366e-22)
(0.999985 -3.70012e-06 1.68575e-25)
(0.999142 -0.00336115 -8.97951e-23)
(1.00003 -0.000398732 -3.88813e-24)
(0.996169 -0.0109143 2.10542e-22)
(1.00003 -8.35396e-06 1.85128e-24)
(1.03058 -0.0643319 -1.95002e-22)
(1.01641 -0.00153124 3.17712e-21)
(0.975226 0.133334 4.14024e-21)
(1.02168 -0.00231486 3.70108e-21)
(0.999777 -0.000189426 1.42401e-23)
(1.00037 -0.000331106 -2.69264e-23)
(1.14339 -0.137537 -5.12287e-21)
(1.02385 0.000682411 -4.43022e-21)
(0.997472 -0.000332665 1.20666e-22)
(1.00001 -1.3528e-06 8.06157e-25)
(1.08586 0.0891479 -7.941e-21)
(1.04539 -0.164224 -1.28187e-21)
(0.994235 -0.067443 -9.6244e-22)
(0.988179 -0.000646625 -1.45992e-22)
(0.999987 -1.62417e-05 1.69973e-25)
(0.999779 -0.000178561 -8.31123e-24)
(1.04843 -0.168692 3.56428e-21)
(0.99622 -0.0424255 -3.277e-22)
(1.03674 0.0279589 1.00979e-21)
(0.981977 0.115096 1.73207e-20)
(1.01075 -0.0880965 1.39063e-21)
(0.998976 -7.12205e-05 -2.13997e-23)
(0.999986 -7.86694e-06 -2.91342e-25)
(0.968653 -0.0409441 2.11143e-21)
(0.974277 -0.0821232 -2.83754e-21)
(0.999837 -0.000200743 8.94842e-24)
(1.00776 -0.0203516 2.04174e-22)
(0.992041 -0.0225378 -1.22512e-22)
(0.996183 -0.0019365 1.18326e-22)
(0.998302 0.0315361 -1.57937e-20)
(0.998952 -0.000463168 7.59718e-23)
(1.04287 -0.0504112 -1.28252e-22)
(1.23673 0.141611 -2.88173e-21)
(0.993639 -0.00278302 -3.42567e-22)
(0.908831 0.093614 -2.92632e-21)
(0.917471 0.044159 9.27454e-21)
(0.999977 -4.30529e-05 -6.49843e-25)
(0.999977 -0.000628394 5.79606e-25)
(0.986067 -0.000789963 -3.3294e-22)
(1.01111 -0.00416018 -7.62384e-22)
(0.969688 -0.00162704 1.19785e-21)
(1.00432 -0.00372523 -3.28976e-22)
(0.993866 -0.00279285 3.20591e-22)
(0.999539 -0.000424223 -3.16435e-23)
(0.955746 0.120681 -3.38234e-21)
(1.05778 0.0508757 -1.06788e-20)
(1.00188 -0.002046 5.91879e-23)
(0.832501 0.0498763 -5.80559e-21)
(1.00001 -4.17634e-07 -5.61666e-25)
(1.02267 0.00573411 -7.77039e-21)
(0.986945 -0.0817943 2.05684e-21)
(1.01066 -0.0682961 9.95874e-22)
(1.00007 -0.00017861 -7.43174e-25)
(0.968275 -0.000889496 9.84508e-22)
(1.02043 0.00521375 4.3879e-21)
(1.01082 -0.00445076 6.30526e-22)
(1.02676 -0.00182328 1.90044e-21)
(0.999645 -3.16633e-05 5.86874e-23)
(0.999611 -0.000423856 3.7154e-23)
(1.01895 -0.0418479 2.31234e-22)
(0.997178 -0.00111044 -3.86472e-22)
(0.989513 -0.00990103 -6.39941e-22)
(0.999247 -0.00304593 5.31321e-24)
(1.08253 0.0334027 4.95607e-21)
(0.998761 -0.0180291 -6.47509e-23)
(0.995899 -0.0041096 6.42559e-24)
(0.944955 -0.0213703 -2.47116e-21)
(0.996467 0.094804 1.96637e-21)
(1.10197 -0.048287 1.75447e-22)
(1.01992 -0.00728814 2.86308e-21)
(0.999681 -0.000153436 1.10207e-23)
(0.999589 -0.000277103 5.0294e-24)
(0.985262 -0.0175843 1.50352e-21)
(1.00082 -0.00107442 -5.99354e-23)
(0.997882 -0.000586909 -2.17812e-23)
(0.999987 -1.52826e-05 -5.915e-26)
(0.999726 -0.00164868 1.00957e-24)
(1.01987 0.00480745 -1.70789e-21)
(0.984137 0.082451 -1.79626e-20)
(0.999903 -1.25291e-05 1.97269e-24)
(1.17875 0.164641 -9.2338e-21)
(0.999995 -3.35264e-05 -4.42453e-25)
(0.997325 -0.00240837 1.6461e-22)
(0.999994 -8.02819e-05 -2.54881e-25)
(1.00435 -0.00322483 -1.46015e-22)
(1.2128 -0.0794098 3.34138e-21)
(0.999971 -3.56915e-05 1.46426e-25)
(0.99997 -3.83718e-05 8.37126e-25)
(0.956273 -0.0351186 -1.14657e-21)
(1 -6.13582e-06 -2.64358e-26)
(1.04713 -0.0144936 3.98072e-21)
(0.98855 -0.0351527 1.2271e-21)
(0.999979 -0.000552119 4.07215e-25)
(1.08293 0.0664325 -6.08206e-21)
(0.999999 -2.41381e-05 5.56165e-25)
(0.999685 -3.28517e-05 5.06468e-23)
(0.999933 -2.98435e-05 8.52394e-26)
(0.996046 -0.00411955 -1.00172e-22)
(0.999719 -0.0013134 -1.45195e-23)
(0.994949 -0.000267588 -1.09616e-22)
(0.992289 -0.0991235 -2.37762e-22)
(0.999751 -0.00127896 9.68865e-24)
(1.00347 -0.00299874 -1.13752e-22)
(0.999984 -2.55254e-06 -6.78094e-26)
(1.03822 0.163184 -2.39427e-20)
(1.04125 -0.0511509 -3.47773e-22)
(1.10524 -0.0496541 1.81159e-22)
(0.971749 -0.00488308 1.29594e-21)
(0.981636 -0.00353485 -2.40334e-22)
(0.999217 -0.00328758 1.48199e-22)
(1.00241 -0.00228132 1.59817e-22)
(1.04732 0.0664073 2.96076e-21)
(0.985067 -0.0310887 1.81048e-22)
(1.13129 0.108305 2.70484e-21)
(0.964948 -0.010946 -2.32243e-21)
(0.997231 -0.00232469 -1.55101e-22)
(0.999994 -3.211e-06 8.06353e-26)
(0.995354 -0.00237357 -2.1861e-22)
(1.01231 0.15479 6.09501e-21)
(1.07456 0.0772282 -1.44057e-21)
(0.984108 -0.0465699 9.8986e-22)
(0.953118 -0.00463833 5.33133e-22)
(1.04365 0.154554 6.52446e-21)
(0.99308 -0.000488956 2.84427e-22)
(0.984092 -0.0745386 1.61916e-22)
(0.999994 -7.67754e-05 -1.23325e-24)
(0.987628 -0.0352575 1.52502e-21)
(0.999331 -0.000191336 -7.81834e-23)
(0.844663 0.0849088 -1.6663e-20)
(0.980495 -0.060738 -2.15549e-21)
(0.999935 -2.68257e-05 3.25431e-24)
(0.950158 -0.0149601 -1.38896e-22)
(0.984847 -0.0329626 8.65735e-23)
(1.0337 0.0739336 1.07509e-20)
(0.99791 -0.000640539 -2.05434e-22)
(0.983381 -0.0317044 -5.3872e-22)
(0.997911 -0.00911441 -1.8588e-22)
(0.999568 -0.0198225 -2.14996e-22)
(0.998979 -0.000471231 -5.19241e-23)
(1.03236 0.0723325 -1.30647e-20)
(1.00852 -0.140568 2.20792e-21)
(0.985464 -0.0140076 -4.41952e-22)
(0.988786 -0.0122896 9.44478e-24)
(0.989501 -0.00412864 -1.37006e-22)
(1.00435 -0.00175718 -1.34157e-22)
(1.04553 0.150178 2.55209e-20)
(0.985489 -0.0113645 2.0047e-22)
(1.01428 0.0375155 7.16725e-21)
(1.00222 -0.00183123 1.21865e-22)
(1.18844 -0.109654 -7.963e-23)
(0.932491 0.0964857 3.07214e-21)
(0.992943 -0.000381334 -9.82548e-22)
(0.999823 -3.37499e-05 9.21589e-24)
(1.05062 0.0906566 3.1865e-21)
(1.00023 0.124411 -2.29524e-20)
(1.01846 -0.0403224 -2.82584e-22)
(1.07039 -0.0477325 -1.45297e-23)
(0.995976 -0.0113149 -2.34689e-22)
(0.972176 -0.00441809 -7.68339e-22)
(1.10614 0.127423 8.27223e-21)
(0.967582 -0.0410371 3.57631e-22)
(0.999985 -1.57832e-05 2.87544e-25)
(0.993998 -9.45099e-05 -5.05706e-22)
(1.00003 -4.3561e-06 1.93639e-24)
(0.996391 -0.000225739 3.7736e-22)
(0.999984 -1.69728e-05 -4.55783e-25)
(0.998152 -0.0127225 3.11866e-22)
(0.999238 -3.09722e-05 2.79608e-23)
(0.997742 -0.00476166 2.01268e-23)