/*--------------------------------*- C++ -*----------------------------------*\
  =========                 |
  \\      /  F ield         | OpenFOAM: The Open Source CFD Toolbox
   \\    /   O peration     | Website:  https://openfoam.org
    \\  /    A nd           | Version:  7
     \\/     M anipulation  |
\*---------------------------------------------------------------------------*/
FoamFile
{
    version     2.0;
    format      ascii;
    class       surfaceScalarField;
    location    "11";
    object      phi;
}
// * * * * * * * * * * * * * * * * * * * * * * * * * * * * * * * * * * * * * //

dimensions      [0 3 -1 0 0 0 0];

internalField   nonuniform List<scalar> 
11512
(
156.781
-506.817
350.036
-754.442
-15.7571
770.199
419.473
-387.411
-32.0619
640.417
274.055
-914.472
1538.48
-1090.87
-447.609
1215.32
-1540.56
325.241
-62.06
493.899
-431.839
173.804
-860.403
686.599
974.276
-1636.57
662.29
-1771.43
1681.21
90.2222
-561.86
1777.18
-1161.3
1969.78
-808.479
619.568
186.438
-806.006
-23.2932
-1331.38
1354.68
224.119
-1995.55
1045.99
-388.435
-657.559
-171.82
328.601
495.829
192.597
-688.425
1179.23
-1338.4
159.169
-311.14
387.217
-76.0771
1019.57
-1326.01
306.441
1242.9
814.132
-2057.04
70.3884
-1660.42
1590.03
-489.302
-1164.41
1653.71
486.625
182.517
-669.142
-199.978
-306.838
505.357
1033.13
1666.88
-1822.74
155.861
-98.6799
-1689.77
1788.45
-1588.49
661.477
927.013
-312.02
668.055
-356.036
-142.205
-127.03
269.235
1300.13
-1229.74
365.791
-1433.22
1067.43
-1364.05
1364.05
97.9063
1546.93
-1644.83
-1096.69
-491.803
658.946
-721.006
-391.202
960.82
-569.618
1321.66
-1312.91
-8.75304
-1122.83
731.629
642.388
403.607
-388.29
-49.4794
437.77
-434.425
768.23
-333.805
-1216.56
1216.56
1258.14
-1428.78
170.639
-497.739
1740.64
1281.45
-320.631
1687.39
-1179.07
-508.318
88.1649
-399.305
2102.02
-1154.88
-947.141
1832.75
-165.869
461.326
152.28
-613.606
-456.61
986.405
-529.794
-1182.23
1280.14
-579.107
991.305
-412.199
411.491
767.736
674.722
-500.918
-447.309
610.3
-162.991
1213.69
-847.9
2341.86
-1096.96
-1244.91
1184.25
-2044.46
860.212
-1620.31
1597.02
448.795
-1610.1
-732.823
1242.86
-510.038
-688.048
376.028
1688.02
-713.742
-1122.34
-883.352
2005.69
672.085
-362.398
-309.687
703.753
577.698
-263.485
1521.63
122.441
-329.559
207.119
-291.457
778.082
-330.876
545.986
-215.11
-331.95
827.779
-325.226
-154.924
480.15
337.003
82.4695
1471.18
-451.617
-982.165
491.361
490.803
289.246
90.5587
-379.805
970.023
-350.455
-1729.57
637.18
1092.39
24.7419
-863.897
839.155
-288.633
610.292
-321.659
162.111
-1115.79
953.683
998.842
-1018.29
19.4462
382.123
528.71
-910.833
-249.889
711.215
-1121.8
-493.2
1615
-606.194
881.334
-275.14
1355.74
-1454.42
-628.005
282.447
345.558
-480.68
-1022.98
1503.66
-551.07
-807.109
1358.18
585.938
-1015.08
429.147
-171.268
-263.407
434.675
419.633
-297.192
-1054.58
597.965
974.886
-812.774
-111.691
898.764
-787.073
-210.123
421.64
-211.517
-624.704
-357.46
-396.074
982.012
1498.56
-1498.56
-458.476
-169.529
-950.952
1566.41
-615.46
423.464
-888.045
464.581
-943.376
364.27
-952.175
-1071.98
-1512.71
358.374
1154.34
-281.877
922.294
-305.077
622.578
-317.501
-1966.09
1013.91
-1150.31
-362.403
561.997
-1512.95
1756.61
-1755.69
-0.913768
224.474
-612.01
387.536
-1468.6
975.596
493.002
299.059
215.179
-514.239
316.12
-646.996
222.484
-369.083
146.599
2032.32
-836.742
-1195.57
-556.886
168.596
631.477
846.702
-1478.18
-179.178
401.662
441.454
891.45
-1332.9
-929.439
404.108
525.331
-1063.27
1474.76
-990.01
257.187
770.452
-102.396
541.57
-276.623
-264.947
1008.54
-517.176
607.492
-1429.98
822.491
-1367.6
245.802
-557.905
269.273
-1194.84
912.958
1985.29
-1104.34
-880.945
280.467
1218.09
-2130.36
909.197
1221.16
277.725
-21.6444
-256.081
-208.226
420.08
-211.854
-120.201
-382.863
503.064
-479.872
154.646
337.761
-81.8254
505.289
414.447
400.375
-814.822
-2045.66
1125.03
920.631
471.107
-546.652
75.5448
190.584
-292.562
101.978
990.408
1041.91
1800.41
-253.485
718.669
-436.222
810.104
-1416.07
605.971
344.062
328.023
1062.21
-1037.46
-514.005
-236.486
750.491
492.13
-141.947
-350.183
796.016
-609.578
603.37
-784.193
180.823
512.544
1174.84
-1264.45
713.379
1040.68
-1529.98
2.19567
-1462.55
1460.36
332.08
840.998
-1173.08
633.244
272.675
-905.919
-2276.41
1163.18
1113.23
-1131.39
-1145.02
217.153
386.218
977.951
-645.871
810.701
-828.024
17.3233
-2129.2
1006.86
-125.113
-138.095
263.209
-44.4927
1801.1
-836.427
81.9858
-1044.95
-1085.4
-214.61
405.194
-664.51
206.035
-265.307
-427.316
692.623
1117.41
-1598.09
794.292
-1399.56
605.272
703.571
-429.516
1970.27
-1457.73
-377.49
-986.562
81.0933
412.806
-540.279
524.521
1.58024
-571.12
569.54
584.438
-285.379
-616.389
286.639
329.75
795.333
-380.886
23.6559
254.069
1208.25
-1206.06
186.826
232.806
395.107
-660.414
630.33
-1026.4
-2058.23
2058.23
-252.013
-452.715
704.728
713.893
411.013
-1124.91
591.973
178.479
400.521
394.812
-2231.27
1347.92
-942.333
-692.223
1634.56
-489.588
-705.247
-264.446
550.574
-286.128
851.034
-203.016
-648.018
-430.68
655.154
386.581
-691.657
-346.744
-144.852
491.595
-1339.62
-483.12
636.719
-1126.31
-374.537
-842.024
856.386
1485.48
286.712
-552.738
266.026
987.119
-344.732
1417.43
-809.938
457.679
-270.852
-337.466
-892.188
577.76
314.427
-337.029
-555.158
312.11
-432.311
-220.45
-150.651
371.101
-401.676
1115.57
436.426
-243.829
-389.301
1367.88
-178.016
-1189.87
-476.94
271.991
204.95
235.712
244.242
-479.953
14.1241
-798.317
603.15
-1756.67
1153.52
1508.5
-877.019
-1050.19
-418.409
-1079.22
585.229
493.987
1388.34
-412.74
944.509
-1437.71
-171.084
-220.034
391.119
-478.279
594.133
-1657.4
428.963
892.698
274.166
301.365
-575.531
558.664
805.388
1127.4
-731.269
-396.126
416.73
-225.243
-191.487
-1442.55
455.13
751.653
-1206.78
1500.5
-555.989
-491.491
931.038
-439.547
436.2
1201.22
-1637.42
28.5509
-634.745
-147.123
436.369
110.608
-252.813
526.242
482.295
-662.01
60.5765
601.433
1020.81
-1297.26
276.451
675.014
-274.492
479.593
-1472.59
992.994
422.46
1716.38
-532.133
866.596
1118.69
-676.92
-1714.98
772.648
581.668
392.628
-974.296
460.791
82.3032
1777.94
-1860.24
1443.83
-391.62
-1052.21
1726.52
-1771.01
-375.463
-518.883
733.447
-214.564
-519.747
191.504
300.626
-381.84
-1243.7
220.715
-781.293
-648.69
-636.723
1033.11
-396.382
-548.748
540.403
8.34549
623.46
-849.857
226.396
-350.04
107.214
242.826
-660.664
-694.01
359.626
334.384
-945.235
1424.83
-415.822
899.504
-483.682
-2236.86
5.58778
189.157
-551.585
362.428
149.48
1218.4
-100.204
-564.307
165.542
-612.85
1513.8
-719.503
381.373
-477.338
95.9647
-181.972
181.972
832.698
383.863
1808.82
-1253.01
601.406
651.605
840.074
-44.0574
1315.15
786.867
-552.237
1362.34
300.269
310.023
290.662
-809.545
246.911
-681.336
233.946
-442.027
208.08
-237.899
590.336
-352.436
132.057
-369.956
-601.48
-577.148
1178.63
-362.185
530.178
-167.992
-1196.53
2055.84
-859.315
1315.21
-337.256
-227.255
55.987
-1987.42
823.017
1539.85
-847.266
-692.586
2018.38
-891.971
-1126.41
728.001
587.205
-243.696
477.642
-677.435
1147.25
-469.82
-782.903
1224.36
561.501
940.615
-1755.71
815.098
-539.586
-77.1164
616.703
296.051
245.519
422.634
-108.419
-314.215
840.684
-80.0257
-760.658
919.582
-552.838
-366.745
1599.91
-482.497
903.401
-1655.96
752.558
1090.58
879.691
766.981
-456.364
-310.617
-1045.16
-267.75
563.95
595.61
-1159.56
-448.618
500.485
-51.8672
592.245
-356.192
-236.054
-1000.75
584.924
608.705
899.79
-455.876
1079.34
1429.58
-779.732
-649.846
408.9
-946.079
537.179
-1027.84
403.132
556.167
-1047.66
458.713
-517.3
58.5876
475.858
292.372
-153.814
-28.1575
-809.619
-892.705
1702.32
201.044
215.686
-234.857
452.009
-40.9801
-543.391
584.371
490.917
885.076
-1375.99
-551.821
331.371
899.576
-58.8928
850.422
-1085.68
235.259
384.864
860.89
-1413.13
-447.81
848.185
2012.95
-1306.2
-706.757
262.51
548.191
250.656
748.186
91.4057
-975.449
884.043
1700.27
-1103.35
-596.918
-141.963
1919.9
-1895.52
-162.715
480.839
-614.639
133.8
-1036.42
537.316
499.108
-1740.23
543.698
-974.006
862.315
400.623
209.677
555.317
-268.605
-436.796
727.468
259.652
62.1033
760.753
-822.856
-1163.26
-868.608
2031.87
-534.382
1105.81
-571.423
-462.389
-160.389
35.2759
-1684.26
874.645
-854.015
-617.127
1471.14
-316.797
-296.447
613.243
369.28
-656.314
287.034
236.031
-616.917
308.261
221.026
-529.287
342.866
-607.312
626.752
-257.472
322.115
-477.039
675.956
408.284
-172.573
-384.699
-309.31
1234.22
-7.43465
-1226.78
1060.37
-430.038
570.416
420.89
-1799.29
870.118
929.171
508.196
549.497
-1057.69
-493.389
176.592
-268.197
1202.74
-934.541
-1596.92
1219.43
515.295
-1116.77
397.864
-16.4912
424.899
304.469
-729.367
382.003
-631.892
-28.9868
769.493
-740.507
-511.662
784.337
379.304
323.345
516.729
667.647
83.562
-395.966
312.404
1033.95
-617.025
-416.928
504.358
-1690.44
1186.08
-1155.99
1781.3
-625.307
1743.2
-1140.05
-342.325
628.964
-1184.41
1275.81
369.672
-813.654
1623.84
-810.186
-246.967
-229.973
-924.022
1497.53
1844.6
-622.923
-1221.67
-414.666
703.719
-1340.44
-91.2459
-37.5671
460.201
-689.923
-363.061
-1233.86
-232.586
468.616
909.986
-575.051
192.188
-1702.65
-73.2619
1775.91
-1070.42
536.035
583.988
-1203.68
619.692
918.054
926.543
637.942
604.918
688.626
242.411
-1142.67
465.232
-415.716
417.296
636.649
-525.01
259.789
-751.928
492.139
685.094
-341.031
-301.423
174.393
-600.39
223.339
377.051
-906
-749.959
1101.61
-2173.59
409.389
-700.846
-346.764
-671.524
850.288
579.291
-359.59
310.11
360.649
231.491
673.443
-904.934
528.191
619.063
-533.771
187.028
364.818
-616.83
-1119.05
-804.426
1923.48
-1820.74
160.327
1126.93
-1395.13
1172.27
-728.708
-443.558
-514.73
1375.62
-1519.67
641.639
878.03
-200.502
-178.674
379.176
1451.04
567.34
328.293
-473.145
-498.375
-573.29
1071.66
-425.108
614.265
1611.14
-1149.17
-461.968
-779.015
326.299
626.67
407.283
-1649.22
425.944
1223.27
-209.164
517.425
812.319
798.822
204.672
-686.447
481.775
210.52
211.119
-271.228
-104.958
376.186
479.669
-0.496073
-479.173
-1646.65
596.46
-1612.98
1683.25
-70.2698
13.7607
-1626.74
1069.29
759.906
-335.007
-809.718
-218.118
-1156.89
-242.669
-318.873
700.876
-1844.61
-633.001
1228.61
210.138
776.267
-1354.04
-690.416
-476.152
605.507
-331.341
-1026.35
1372.09
-1964.89
592.795
657.891
1311.89
421.428
-1.34797
733.194
708.788
-1441.98
-655.33
348.187
307.143
392.065
-92.8664
-299.199
162.326
288.073
176.681
-464.754
-583.05
1164.72
467.019
-616.61
-470.327
-412.018
882.345
-356.416
185.332
-471.653
174.461
-312.694
-723.73
478.517
-86.4516
-579.141
988.042
436.916
-222.749
-214.167
466.155
-798.105
-659.391
434.878
-1144.86
-841.572
1199.95
-579.858
467.774
282.717
-448.396
85.9977
1050.87
-239.929
489.054
-249.125
-521.79
1591.08
-739.165
236.115
386.272
-622.387
220.32
476.303
-21.2311
-455.072
-258.027
-213.626
895.659
1123.8
576.469
-878.042
953.957
-75.9153
-275.104
74.6026
-731.56
304.244
-647.886
319.116
365.977
833.679
-1241.89
408.214
794.248
-823.235
-958.045
-564.169
1522.21
-158.967
460.333
-536.619
259.996
1340.9
776.325
-571.652
1325.54
-688.824
499.696
-692.531
-420.199
-433.018
-387.575
820.593
513.015
-863.47
-447.357
87.6495
359.708
-292.872
584.667
746.999
-337.61
-245.525
-177.423
422.948
-504.255
153.557
350.698
1483.26
81.0306
-1564.29
-762.295
1371
-1165.43
-471.138
548.07
-161.798
1172.39
-378.141
1097.1
502.803
707.636
-416.974
-898.15
-535.072
-1349.67
-31.3138
1004.31
-972.992
602.676
330.089
-932.765
-321.777
-235.109
-736.214
411.843
1646.39
-176.339
366.783
363.822
-730.605
-1869.73
-2137.56
1540.92
596.638
-2042
352.228
365
540.61
-905.61
-470.923
1041.34
-399.215
-675.537
1074.75
-2059.9
1410.44
649.459
602.753
-1001.97
59.0062
399.706
394.761
207.56
250.119
317.335
967.754
870.699
696.873
-334.72
-362.153
-302.375
637.665
-335.29
586.872
540.523
574.762
522.071
-1096.83
-806.076
-713.594
768.489
403.9
-424.128
711.162
-1209.26
1635.21
425.842
-1101.38
-324.467
545.493
-1405.3
894.496
510.804
-716.825
-350.483
-830.413
379.139
451.274
457.54
730.458
-1188
1088.82
-580.623
-399.218
668.977
-269.758
216.343
220.573
-477.452
-442.419
919.872
-250.134
555.09
-959.952
404.862
-491.245
609.596
-1706.55
433.771
682.43
-1116.2
535.691
86.8867
115.276
-2244.48
550.943
-83.1691
1470.21
1801.98
-219.879
-1582.1
-445.809
1817.9
-2020.64
1214.25
806.392
414.978
352.003
-28.0472
878.335
-1307.96
730.814
-889.47
-840.418
809.104
321.614
51.3619
-372.976
125.438
132.866
-258.304
1575.97
-842.772
-1164.3
-334.253
476.571
-195.406
-281.165
403.238
374.844
244.761
360.746
-8.39069
1020.05
-1011.66
376.869
277.065
-653.933
-745.527
1845.8
-1100.27
-351.415
754.653
-1230.6
-414.234
-935.781
493.361
575.856
-788.142
212.286
780.049
-390.286
-389.763
-422.639
-455.403
450.61
1084.36
1259.72
-675.73
819.879
-353.724
388.694
316.034
-262.256
-215.082
-209.883
632.343
417.55
-867.281
449.73
211.581
361.518
-573.099
-432.304
849.854
768.008
-1169.68
889.829
-56.1504
-505.079
285.718
776.488
-97.3813
1409.27
1917.26
-76.663
348.654
-322.671
406.233
-1105.63
1097.24
621.629
385.211
394.838
56.7822
419.788
276.097
494.102
-377.57
-277.76
-462.153
-86.5951
-363.425
378.243
-14.8186
-262.929
-294.977
1025.76
-1567.62
541.861
-202.923
-184.488
-386.717
663.782
-1655.23
1616.05
-974.41
260.453
-680.652
594.363
1241.05
-1835.41
620.819
995.231
305.906
-1140.58
703.782
-290.23
-285.301
1390.08
-1467.73
833.869
633.858
411.31
-629.526
218.217
-360.379
484.023
-123.644
369.777
109.892
1754.75
468.425
-257.905
568.431
-1731.25
1162.82
-92.3815
399.517
350.635
346.238
-458.948
-626.31
1085.26
433.257
-881.067
-651.909
917.479
583.018
-184.201
-165.839
-448.987
-418.294
-315.557
-841.338
1464.7
-1464.7
-101.635
-1600.32
1701.95
298.594
293.651
-930.657
-568.291
1498.95
-417.968
992.73
-606.237
-1040.41
685.467
398.571
-1084.04
490.702
-168.587
582.531
1236.96
-1819.49
-1052.97
2116.11
-1063.14
-381.22
-306.828
-493.87
820.169
-1778.77
1626.88
151.883
1778.77
-1629.11
-149.656
-253.243
537.813
-284.57
-547.712
1644.82
1578.88
-1993.11
1088.6
-286.527
-254.842
541.369
251.715
-576.182
-709.236
285.108
1365.94
647.016
587.915
496.831
-1084.75
292.915
414.72
886.73
512.712
-1399.44
539.988
-1038.36
1601.99
-576.234
-776.661
-372.201
-115.247
487.448
-501.109
1231.57
-758.94
341.191
370.024
359.831
266.834
-626.665
611.546
848.895
-613.636
277.068
676.889
-184.201
-320.984
-231.617
552.602
1184.38
-671.847
623.673
474.313
-1097.99
-1068.26
1068.26
-395.585
780.796
-295.354
-482.196
777.55
489.81
461.194
-951.005
395.074
-690.429
627.626
-886.566
258.94
-376.455
-507.452
1095.37
-675.341
-722.467
1397.81
-386.913
942.003
-1577.46
685.492
44.2985
-416.298
371.999
-502.183
708.217
253.507
336.829
176.898
313.804
-518.213
227.984
1902.94
-2000.32
280.05
-710.73
451.737
-838.707
386.97
-913.915
1425.67
-511.751
-439.858
-495.922
612.153
1141.06
-1753.21
-731.988
350.768
-469.198
1056.07
-779.488
1056.56
-377.723
-644.701
-480.535
727.446
529.729
-347.212
923.068
-304.882
-199.373
1622.79
-1842.67
-357.237
-602.715
-337.161
490.718
258.826
-590.168
-189.08
1073.55
-787.83
223.716
-287.5
-290.598
578.098
407.419
-891.009
483.59
-496.94
-451
-552.738
-337.238
575.201
-237.964
-456.131
-422.964
-324.714
-204.573
-384.255
651.089
-450.091
766.125
-1094
635.055
-1412.51
558.5
-27.9383
-1867.17
1895.11
583.138
-459.444
1225.7
-689.668
70.0383
-70.0383
682.838
-437.689
1040.82
-1647.06
-1175.1
-962.456
300.906
336.759
893.537
730.302
-490.013
-312.967
802.98
1686.41
-1714.35
-441.188
360.531
223.908
1158.1
-534.427
-957.343
1573.56
-616.22
456.706
-249.146
386.29
384.612
-770.902
532.652
487.424
-1020.08
-338.615
679.807
-38.9321
1941.87
1602.81
1007.9
-1727.4
739.29
-1199.91
460.62
-505.037
1391.77
852.206
-1366.94
-554.443
267.916
806.429
-413.801
567.404
-1210.41
643.007
-653.593
-1232.78
-707.162
1939.94
-211.342
554.053
-342.711
-175.97
288.981
-500.323
331.096
383.599
-714.695
-1506.58
772.838
733.742
893.739
-1457.91
844.409
-440.301
227.586
-374.708
-587.033
266.048
-670.906
-734.394
711.716
516.808
-1228.52
404.724
-209.455
-195.27
566.491
-978.69
-566.877
-428.389
732.633
-844.365
-1176.27
-1462.53
510.498
952.028
12.9754
-631.815
341.846
289.969
-1331.83
1065.63
266.197
-627.398
-466.605
-678.789
929.445
412.894
-211.23
-201.663
520.306
994.741
-1515.05
993.846
-433.282
142.211
291.071
-401.852
681.544
-401.494
-520.539
183.378
238.786
-1544.98
546.207
542.612
-750.342
248.159
164.964
-469.846
383.895
-834.895
1980.3
-1211.14
-769.162
409.341
-672.938
263.597
222.821
326.289
131.563
-457.853
-570.269
200.107
268.318
-707.421
1398.3
-690.879
434.058
472.66
-1189.49
274.884
1893.19
-1031.23
-861.957
784.581
-528.919
191.681
1422.46
-986.697
-435.762
348.176
-785.865
-628.586
1752.39
626.849
632.87
328.316
-6.7027
282.326
-1154.04
1752.87
-598.831
-1789.91
832.568
1768.99
-1697.35
-71.6378
-671.943
256.227
571.207
-714.304
233.769
1429.05
-576.842
404.289
443.896
-1888.94
1443.13
546.79
-420.467
-126.323
221.576
-546.291
-278.264
-184.125
-362.26
712.896
-581.478
209.277
613.353
567.021
-1180.37
1130.71
-1980.26
849.554
172.664
318.932
-1730.08
1691.15
329.53
-746.504
-167.094
394.68
762.134
694.476
-1456.61
1085.72
-1093.15
541.868
-1122.49
-646.727
261.199
385.528
521.977
-298.638
-616.467
-1030.59
309.358
-732.323
-924.472
193.674
171.36
233.365
384.751
307.609
-692.36
-636.276
-849.369
-995.245
506.059
-1076.33
-282.316
487.265
548.444
651.502
-180.755
-46.5003
-411.672
717.578
284.722
-1220.22
583.941
1329.91
-567.776
458.42
-1025.3
-267.207
165.131
381.659
1038.21
563.785
-1722.93
1621.3
1641.12
-577.983
-1063.14
1937.09
-1925.19
-11.8948
203.169
-525.839
-340.196
563.912
-770.15
-321.128
-350.816
1024.65
712.102
-1516.21
804.106
366.576
-25.9655
1648.75
-1091.7
419.85
-1247.97
471.308
-60.4404
1543.7
1220.86
-481.571
-393.879
-39.4026
-271.995
748.148
-1980.92
-727.897
353.062
-547.254
194.192
96.7489
-336.678
1157.85
682.891
-1840.75
-605.554
185.088
956.116
-1524.41
-219.786
687.914
-468.128
892.13
1107.87
-747.282
1374.13
602.263
-481.551
-120.712
-358.292
1192.16
1054.59
-1982.78
928.191
-1191.86
558.861
1515.85
-598.372
-372.709
-161.063
-1263.38
587.649
1183.5
-91.111
963.033
789.537
-1752.57
-221.989
591.346
-1569.15
977.806
499.392
928.941
-1428.33
625.488
603.123
385.396
-1122.01
496.346
1126.29
756.943
-385.826
-371.118
-1203.51
-1782.63
-5.50954
-1717.42
-215.031
-414.495
1636.38
-637.181
-999.204
-504.119
1142.06
-1341.08
650.631
690.446
-1385.09
1466.12
-1353.77
606.488
1547.46
-395.919
-570.431
197.723
-1491.9
242.053
178.762
226.421
375.843
434.955
405.181
-840.137
519.28
-952.281
915.591
-1471.58
-699.264
242.175
457.089
-1057.74
474.689
-476.103
880.393
711.526
34.4398
-529.502
186.79
-898.708
-1338.15
-732.955
359.099
373.856
415.564
-739.78
324.216
-470.59
-187.896
-640.128
730.385
1566.57
-603.539
822.752
753.214
1367.81
-855.102
-986.211
-582.941
-816.11
437.133
378.977
-1057.44
-658.866
312.835
346.03
-1443.14
-297.084
-809.307
407.638
401.67
-653.883
395.097
258.786
-683.704
282.21
422.758
497.113
399.341
450.514
488.075
394.27
606.994
-988.834
681.036
483.682
460.66
362.381
-823.041
1655.65
-1094.04
-561.605
-516.509
-284.261
-1047.57
464.13
356.463
419.41
604.637
-1024.05
-1405.37
768.194
-547.72
1167.41
361.201
-73.1283
421.864
-885.114
463.25
-1901.29
300.97
449.543
-738.126
288.583
-189.649
416.454
-226.806
-678.025
318.07
359.956
-691.096
328.943
379.754
401.042
623.359
-1041.33
768.067
673.647
-1441.71
449.09
636.167
343.365
383.177
-726.542
418.351
336.302
604.932
673.609
410.749
592.5
-1030.7
438.2
-1691.92
1191.51
500.408
1724.24
-549.395
633.899
-1170.6
536.701
-648.57
352.123
447.553
-955.387
507.834
752.222
-447.754
358.855
354.041
567.28
-924.517
663.994
-1278.66
614.664
376.829
747.184
-1248.29
782.633
520.913
-1303.55
482.514
420.274
-902.788
-513.1
-949.426
-312.825
643.921
362.852
550.271
-913.123
341.991
337.816
-512.361
1972.72
443.896
-862.959
419.063
-933.268
-822.445
-766.794
377.032
-1230.79
451.301
-1757.35
1629.11
128.236
1774.79
-1626.88
-147.902
-802.711
-608.861
274.184
334.677
-1768.99
1993.11
550.271
805.018
-1355.29
450.24
728.387
702.181
394.423
-1096.6
-69.6602
1644.42
-606.212
394.922
830.781
-644.976
331.326
313.649
-386.717
-278.852
495.196
-231.123
446.303
284.767
-667.51
382.743
273.209
-594.868
-290.779
452.798
-1054.41
601.615
548.075
1107.57
374.744
607.268
282.688
262.179
-544.867
1638.43
-926.329
1721.8
-1547.68
-174.122
-335.652
-842.36
424.067
867.766
-1087.55
-623.095
287.806
-1105.18
1653.25
-1595.97
-75.2126
1671.19
-348.912
-357.96
-378.26
547.028
611.072
-515.019
-31.6324
-562.993
520.421
-289.845
-230.576
1762.32
-1311.71
-640.779
307.563
333.216
414.454
367.669
747.901
-304.02
-407.695
-1774.79
1714.35
470.155
-1122.56
652.408
-41.881
1663.18
581.309
482.595
-1063.9
95.1748
1163.11
-1478.67
-11.5224
-1889.77
235.852
-609.711
311.036
298.675
-967.061
620.297
-918.298
478.44
-1150.59
684.919
465.671
370.078
278.26
-768.274
-315.045
1241.69
900.839
714.16
-1207.99
470.345
737.645
505.568
712.68
-1218.25
-362.184
-254
425.359
-981.118
448.69
532.428
21.0406
-1909.98
1102.35
-474.727
-497.172
570.102
-1404.19
834.091
-427.593
814.563
-414.469
501.367
-931.738
1827.4
425.503
-192.138
198.679
-177.421
-252.096
429.517
1922.72
-512.286
-1709.9
1072.45
-581.422
302.569
-1034.85
563.924
-319.984
557.389
918.44
-1475.83
-1122.99
444.201
-20.7914
-1979.53
1716.28
-661.69
-543.066
471.523
-1213.53
742.004
194.037
218.856
-274.952
782.585
714.949
854.93
814.484
-452.103
1106.32
-488.295
491.88
-200.309
-291.572
-1957.65
-722.09
-324.944
-523.201
-2.26561
525.467
479.028
-278.921
574.785
1063.65
-812.104
944.667
1268.1
-434.723
-204.77
-240.934
445.704
947.028
-900.05
-339.04
-1089.25
622.642
1581.63
-808.788
550.331
948.617
-394.118
751.365
-357.247
1152.42
-273.726
324.514
1375.12
-718.406
-227.673
460.09
-1222.88
762.79
-997.964
-125.284
1123.25
450.928
-975.95
525.023
184.055
349.45
407.494
772.522
-99.0792
872.378
-435.384
1204.28
-809.852
564.289
-1492.23
927.94
-1232.96
1827.32
-435.34
-1530.75
892.691
-1427.76
-311.046
-418.321
1483.86
-1550.94
800.977
1514.56
209.291
282.59
-355.576
-1757.35
-306.906
-1014.48
1589.27
-1786.18
1786.18
1578.88
-1023.96
-648.518
-338.283
377.666
615.064
-365.767
-363.876
-1414.15
909.113
1140.74
612.13
1229.98
1815.08
-1232.55
-617.093
278.72
1686.33
-1948.39
262.059
829.327
-1291.29
1569.5
-574.265
791.453
314.352
-333.679
566.832
808.787
650.011
1381.85
-219.96
-455.048
-354.605
468.801
-316.521
482.712
748.855
-296.331
-161.522
-326.913
578.649
-251.737
25.8888
-382.08
1123.08
-1748.39
-442.725
-486.719
-577.047
881.307
700.32
-1624.82
917.398
-462.026
-624.842
-524.656
1276.31
337.736
1751.38
-1730.34
-1686.41
1925.19
-1586.96
849.955
737
-363.788
-1827.25
934.546
595.406
833.642
-408.495
1824.82
-694.107
-408.496
678.857
438.438
-1117.29
-1121.01
454.872
765.99
-1641.75
485.208
913.092
183.247
-413.778
230.531
-1605.3
-390.249
-424.779
1000.42
-679.439
1468.77
-964.244
1856.37
248.082
-548.152
511.208
-301.918
486.892
904.875
555.643
991.819
-473.284
-438.563
586.343
897.514
-1402.37
-40.7763
1596.21
-842.994
531.708
982.85
-1502.72
-1121.9
1779.86
-1244.08
-535.773
1229.57
-327.191
-902.375
-198.429
467.636
-269.207
-469.228
-256.758
444.393
-187.635
152.897
-406.897
1739.23
-1744.74
-456.336
-544.056
-913.851
456.334
-212.639
-243.695
596.337
-450.707
-358.084
-311.942
670.027
-951.142
395.984
-1190.29
686.173
431.33
-638.506
-448.783
1597.01
-866.709
539.636
-468.356
-581.259
-473.155
80.1174
-75.9909
-4.12653
-1110.26
420.595
-677.749
-1049.35
1727.1
-599.319
-1450.23
727.766
573.902
-1622.97
1049.06
-378.75
-485.794
153.573
535.053
-1282.78
758.128
551.133
1018.36
-2157.4
1008.22
1149.18
-352.616
101.149
-90.2289
-10.9201
1504.26
-374.762
460.08
1184.32
594.714
921.137
578.29
538.812
-1117.1
173.263
-437.145
-1697.35
271.35
1140.6
-616.432
530.271
1028.26
-1558.53
1107.51
-1669.11
186.819
703.01
547.803
-886.843
-1100.06
-158.173
405.421
-247.248
-589.395
-424.714
-647.765
-581.332
306.379
-1648.15
955.932
-487.508
220.748
-412.886
549.927
-314.076
-605.024
1219.52
-1285.14
925.872
359.27
-1035.76
-356.838
-766.122
-834.778
1716.08
-487.632
1797.83
-1588.31
-209.524
-1581.02
1031.76
549.255
-734.589
-211.806
378.117
-166.311
-592.646
391.804
283.297
-675.101
-535.613
997.362
646.686
-358.88
-1643.4
1063.55
582.835
1118.56
-1701.39
-407.638
-303.62
-374.405
-754.744
-465.495
-338.186
515.084
1584.07
-1010.17
-788.457
1523.26
677.542
-317.011
739.184
1164.39
-1903.57
279.45
305.698
-498.182
-1966.46
1750.87
215.584
756.804
-484.698
-272.106
542.733
1074.75
-1617.48
80.1174
-1728.95
-236.962
1777.88
-1603.18
1089.8
513.383
-1730.98
2.03549
-533.328
101.149
1730.08
-1750.87
955.313
637.077
-1592.39
334.982
-199.533
-135.45
-404.069
-279.635
66.8522
62.634
-274.44
-444.119
-442.447
-419.461
229.812
1532.13
388.229
-226.649
-427.234
467.541
-199.223
320.96
1533.98
1075.3
-201.741
-873.56
-1120.52
1732.68
-1758.13
1080.39
-720.805
-1037.33
-1280.96
1871.42
-590.455
1172.21
-1799.69
627.474
219.944
-892.326
1702.97
44.0093
-1746.98
-501.719
-1096.37
-1739.23
-1002.53
563.968
1032.26
601.523
1148.57
-1750.09
295.693
-457.491
721.422
-392.479
369.34
940.491
694.064
-391.806
-638.894
594.366
1086.97
-1681.33
-404.474
-381.266
785.74
425.957
-1691.15
1547.68
143.469
596.796
-1065.99
553.983
1099.27
-1580.55
1006.28
-246.104
245.331
318.581
1937.09
414.138
-90.0331
1004.79
736.309
-1741.1
-709.064
1099.02
-1581.52
172.759
-581.641
202.573
264.968
-656.066
-574.723
594.71
1049.71
-719.947
-274.338
-1395.44
688.901
706.54
-424.156
797.331
80.9756
-878.307
573.884
-139.455
1582.58
-225.423
268.729
-782.742
-1966.46
1690.34
1026.36
107.214
304.423
447.799
-947.802
-1009.85
-1793.32
653.003
1720.08
523.212
-485.193
1234.05
1104.01
-435.251
1050.31
-999.754
505.396
494.358
713.163
1065.36
-1778.52
498.483
489.559
-1518.47
-763.138
31.8683
798.923
-421.891
-900.373
403.201
-550.07
-816.866
266.026
-589.438
1423.53
1072.37
190.501
214.92
-562.654
1643.78
-786.192
1554.26
-1754.67
586.201
1168.47
557.905
-902.637
-1762.2
1948.39
-186.184
1743.98
188.715
-554.444
211.06
-148.426
-492.47
1234.47
578.681
1145.56
-502.693
446.964
877.762
-474.156
-791.278
430.863
360.415
1444.13
1106.99
-530.795
1448.19
-522.725
-513.751
1036.48
-614.427
488.259
-1216.97
1721.8
1864.7
-700.313
1613.96
-658.649
-1265.28
729.662
-574.78
169.536
-307.631
446.471
-235.351
-530
-1263.75
1898.09
-634.335
1196.84
-562.938
1136.47
-1685.86
1718.26
-585.719
-555.937
-560.375
1746.46
-323.473
-702.515
-485.075
1247.86
-1712.19
-1887.32
623.564
315.293
-963.311
175.186
221.364
-1745.41
1219.88
525.532
1176.27
567.709
-521.226
-478.035
1215.68
181.474
234.981
599.27
1265.43
-548.122
-1254.62
1802.74
-1042.53
1027.76
865.429
-207.007
-1686.33
1730.34
-522.641
1435.73
-1762.2
-376.132
18.6208
357.511
-275.11
600.042
-324.932
77.9613
499.799
799.223
-383.659
1272.4
1292.57
-424.802
871.613
-447.547
1846.24
-674.027
1611.92
-1751.38
-419.609
-746.093
301.494
444.598
-571.068
-575.803
78.6656
-1123.82
-1001.71
-682.444
1684.16
-951.082
-1206.32
156.839
-411.682
-659.305
717.203
1184.58
661.659
1436.65
-603.008
1669.26
1343.19
-585.059
-506.628
204.71
-515.921
1420.8
1264.44
-575.543
-974.827
912.59
53.7898
-966.379
604.385
-518.585
1427.7
1522.09
-600.955
-80.1998
80.1998
-601.49
1650.55
1263.65
-497.665
1149.51
-65.3683
1853.82
-402.666
1516.67
-601.08
-520.918
1370.87
-665.993
1242.73
-576.737
1582.08
-604.278
752.643
587.891
-1340.53
-653.259
287.141
489.184
612.249
-1982.31
-994.52
1611.92
80.5248
-80.5248
-76.9147
398.651
445.758
381.09
-11.3138
-332.728
901.857
-525.028
-434.279
832.93
-251.38
636.908
-428.005
1553.03
-457.022
-892.643
193.03
229.358
-422.388
612.016
1265.74
-1877.75
947.339
-468.899
-75.9909
128.013
-1972.51
1844.49
-464.116
193.264
1203.04
-452.864
-750.175
-317.059
-583.314
-501.19
-90.2289
-493.003
262.426
1181.79
-570.72
235.861
-394.322
158.461
-10.1115
-111.643
986.562
-874.919
22.503
-484.656
-598.245
-116.95
116.95
-1265.2
2001.51
-1345.5
-225.899
-1826.85
238.543
-1039.24
-987.356
-192.825
-1667.71
719.913
1246.9
-1954.06
380.695
317.01
-697.705
-1876.83
1251.36
625.469
-186.313
186.313
-973.186
-15.8011
-1895.52
-568.733
1676.31
-689.975
1663.53
-613.819
-181.734
-1708.03
-600.292
-441.67
-606.103
-126.437
126.437
-1560.56
198.065
1362.5
174.453
218.445
-392.899
546.426
528.875
1017.93
-485.506
1775.54
784.103
-267.776
256.856
530.844
1729.57
-606.492
-563.138
1662.41
481.293
1841.09
-656.514
-1835.47
-1963.71
-658.625
-133.743
133.743
-595.875
241.269
-690.413
1040.35
-476.429
-1091.59
-289.655
1218.09
1877.45
1660.5
-1660.5
-281.597
754.239
1788.52
605.589
1292.5
160.217
174.765
590.573
590.963
1224.05
-1224.05
229.943
-359.085
-441.849
455.469
971.819
-466.423
-650.53
-1146.55
1732.75
288.726
-1660.96
620.548
-295.681
484.396
1771.62
-603.155
-199.548
-419.938
391.699
734.59
1765.73
-624.987
-522.136
-775.308
1987.8
-883.115
-1104.68
1668.57
-696.173
1240.78
-1852.23
611.446
336.449
-884.602
-188.237
-34.9509
1119.93
-497.29
124.961
628.182
-1658.77
452.8
613.313
-1835.47
-594.109
1813.99
898.969
-1178.94
1787.49
-608.554
1810.51
-586.189
-1224.32
451.533
936.865
-1744.74
937.976
-1486.87
249.331
1237.54
-848.594
-1271.24
-228.222
52.312
175.91
592.683
278.028
1043.2
-456.699
865.503
-408.805
836.707
751.584
-1588.29
655.448
1085.19
-10.531
-569.678
580.209
-1774.02
736.686
707.342
131.161
-1137.96
1964.93
-685.241
-1279.69
-548.42
1693.98
839.714
980.91
-1820.62
1245.23
694.711
-409.563
727.633
854.983
1049.63
-598.706
1788.52
637.199
1800.33
-1201.64
-598.686
-377.222
-328.995
706.218
124.813
-1177.02
1687.33
-550.857
-1039.93
1039.93
1266.07
605.348
1370.67
213.401
-569.161
289.832
-199.274
710.903
1130.19
495.91
-314.437
-884.789
-586.791
1742.71
-1742.71
676.003
-676.003
1001.52
1039.49
-2041
1865.16
-624.379
-592.1
827.182
-961.074
-1066.9
1015.06
703.681
-1718.75
-153.814
-353.133
-648.836
-820.524
2071.88
-1263.45
-623.867
1017.08
988.613
1307.99
656.933
334.705
1026.72
234.789
342.524
805.388
1783.4
-1783.4
681.55
36.2377
-250.405
-1010.83
-554.164
1703.68
987.296
1012.7
-1860.34
-230.811
-369.481
615.532
-344.182
1878.08
-1094.14
-783.949