/*--------------------------------*- C++ -*----------------------------------*\
  =========                 |
  \\      /  F ield         | OpenFOAM: The Open Source CFD Toolbox
   \\    /   O peration     | Website:  https://openfoam.org
    \\  /    A nd           | Version:  7
     \\/     M anipulation  |
\*---------------------------------------------------------------------------*/
FoamFile
{
    version     2.0;
    format      ascii;
    class       volVectorField;
    location    "17";
    object      U;
}
// * * * * * * * * * * * * * * * * * * * * * * * * * * * * * * * * * * * * * //

dimensions      [0 1 -1 0 0 0 0];

internalField   nonuniform List<vector> 
29540
(
(1.00729 -0.00983086 1.89349e-22)
(1.00806 0.00331308 8.49445e-22)
(0.993615 -0.00231187 -1.10242e-21)
(0.977897 -0.0330514 3.38262e-22)
(0.998327 -3.60981e-05 1.54739e-22)
(0.970201 -0.0199766 -5.00232e-22)
(1.03535 -0.0617161 6.39446e-22)
(1.00942 -0.0149842 -1.87418e-23)
(1.00139 -0.00136653 2.73477e-23)
(1.00012 -3.31469e-05 8.60519e-24)
(1.01026 -0.0200653 -2.45479e-24)
(0.998306 -0.0115448 -4.01516e-22)
(0.999677 -0.000133605 1.97042e-23)
(0.999983 -6.5873e-06 2.89298e-25)
(1.14472 0.0700194 1.75747e-21)
(0.995813 -0.00135086 1.67836e-22)
(0.999888 -0.000591409 -6.9075e-24)
(1.10975 -0.0181572 -1.35816e-22)
(0.998525 -0.00125087 -5.30179e-23)
(0.992465 -0.00055549 -2.42463e-22)
(0.999415 -0.000189161 -7.03142e-23)
(1.00131 -0.00136366 9.58492e-23)
(0.993552 -0.00244603 1.21174e-21)
(0.998535 -0.000118361 6.79903e-23)
(0.899184 0.101032 3.42813e-22)
(1.00877 0.00261551 4.56857e-21)
(0.999655 -4.00609e-05 4.52807e-23)
(0.949303 0.08489 -2.4486e-20)
(1.14969 0.0693189 -4.70716e-21)
(0.99937 -0.00634898 -7.57303e-23)
(1.01078 -0.00807763 1.34905e-22)
(1.02778 -0.00631785 -9.93567e-22)
(0.978461 -0.0761382 3.29138e-21)
(0.998263 -0.0159985 1.99996e-22)
(0.947333 0.0808268 2.01109e-20)
(1.00156 -0.0229767 5.40933e-22)
(1.05909 0.0348733 -1.3963e-21)
(0.980359 -0.0186874 1.42488e-21)
(1.00373 -0.000583027 -3.66107e-22)
(1.00359 -0.00040631 6.94901e-22)
(1.00029 -0.000114303 -2.40532e-23)
(0.991604 -0.0208112 -1.39347e-21)
(0.999901 -0.000574599 -1.90727e-25)
(1.01394 -0.0520569 -2.11396e-21)
(1.00002 -3.07545e-06 -2.21495e-24)
(0.999501 -0.00644397 5.78657e-23)
(0.99814 -0.0085784 -1.11635e-22)
(1.00005 -5.8391e-05 5.33044e-24)
(1.00231 -0.002571 -3.85244e-22)
(1.05867 0.0324971 -5.74497e-22)
(1.07646 -0.0814279 4.45657e-22)
(0.980424 -0.0292842 -1.59295e-21)
(1.02772 -0.00560968 3.50486e-22)
(0.971112 -0.0198551 -8.39473e-22)
(0.995915 -0.00138728 -1.48005e-22)
(1.15222 0.0583461 -2.95897e-21)
(0.997666 -0.00155964 5.26643e-23)
(0.999398 -0.000208859 8.89801e-23)
(0.999592 -0.0151506 -2.7539e-22)
(1.00458 -0.0412989 -9.68584e-22)
(0.999961 -4.52187e-06 9.0076e-25)
(0.998574 -0.00128107 -1.09268e-23)
(1.21931 -0.0268049 -3.2715e-22)
(1.00186 -0.0224827 -2.97477e-22)
(1.05929 0.093101 1.13712e-20)
(0.921604 0.0277603 5.07111e-20)
(0.998716 -0.0190069 -5.31297e-22)
(0.994826 -0.00953477 5.15934e-22)
(0.941032 0.0176565 2.04473e-20)
(1.0003 -0.000108401 1.56069e-23)
(1.00999 0.00315826 -6.22544e-21)
(0.988446 0.0693495 1.4305e-20)
(1.00217 -0.00638023 -1.50384e-22)
(0.917567 0.11746 1.26657e-20)
(0.994471 -0.000437725 7.81023e-22)
(1.08478 -0.0502626 1.34039e-23)
(1.21728 0.117497 4.5717e-21)
(0.981394 -0.010642 3.40838e-22)
(0.999971 -1.39881e-05 -2.31808e-24)
(1.00075 -0.0337221 -9.63497e-22)
(0.971689 -0.0004688 -5.56786e-22)
(1.01892 0.0327808 3.63468e-21)
(1.00743 -0.0102616 -5.69103e-22)
(1 -4.07701e-05 -2.39069e-24)
(1.03731 -0.0606496 -9.70831e-22)
(1.1293 -0.16121 -2.98599e-21)
(1.03413 0.0815388 -2.20884e-20)
(0.999665 -0.000131962 -1.79716e-23)
(0.999688 -0.000119057 -5.29577e-24)
(0.956561 -0.0248375 -2.03036e-21)
(0.993652 -0.0360835 1.83255e-21)
(0.981311 -0.0111479 3.79919e-22)
(1.00216 -0.00265705 6.60005e-23)
(1.04446 -0.0111353 -5.66122e-22)
(0.953335 -0.0105536 -1.68864e-21)
(1.04383 0.0995068 1.05304e-20)
(0.993817 -0.0467053 2.87132e-21)
(1.00032 -0.000267574 3.88334e-23)
(0.977674 -0.0414086 -2.89287e-21)
(1.14052 0.0952349 8.68865e-21)
(0.99997 -1.39928e-05 3.36421e-24)
(0.982343 -0.00695863 -2.04137e-21)
(0.999962 -5.49313e-06 -4.71444e-25)
(1.03371 -0.0167553 -2.81601e-21)
(0.979541 -0.029118 1.04962e-21)
(1.02912 0.00920017 6.32952e-21)
(1.00324 0.0649798 2.16456e-20)
(0.9997 -0.000120375 -4.40292e-23)
(0.999997 -4.69654e-05 1.54067e-25)
(0.988817 -0.0750971 -1.58484e-22)
(0.977337 -0.0749983 -2.96457e-21)
(1.02862 -0.0323223 2.08317e-22)
(1.00001 -1.21419e-06 4.63685e-25)
(0.999174 -0.00428903 -1.96463e-22)
(0.999915 -0.00153068 4.26356e-24)
(0.991159 0.0709111 8.92535e-23)
(1.03752 0.0473557 -7.75694e-21)
(0.991901 -0.00494156 -8.30461e-22)
(1.00002 -4.5301e-05 8.68372e-25)
(1.0024 -0.00631737 -1.14857e-22)
(1.21932 -0.111669 9.39864e-21)
(1.00561 0.0103267 1.00054e-20)
(1.12541 -0.0758547 -2.90175e-21)
(0.920017 0.0339771 -4.69299e-20)
(1.00075 -0.000249657 -9.29722e-23)
(1.12449 -0.0552874 2.14958e-22)
(1.1091 -0.0142199 -7.6333e-22)
(1.00787 -0.0402942 7.10134e-22)
(1.00277 -0.00244825 -3.42726e-22)
(1.00002 -0.000302361 2.84382e-24)
(1.01391 -0.0506872 7.51134e-22)
(1.22094 0.110439 2.26484e-21)
(1.00573 0.127219 2.20656e-20)
(1.12385 -0.0922391 -9.52107e-22)
(1.03253 -0.0163675 2.37412e-21)
(1.01046 -0.00774094 2.54153e-21)
(1.07285 0.165679 1.63073e-21)
(0.981664 -0.000510789 2.86e-21)
(1.04616 -0.153684 8.46627e-21)
(1.14167 0.0895579 -6.68236e-21)
(1.12498 -0.0505241 -1.52747e-22)
(0.961378 -0.00317555 -2.24978e-21)
(0.96693 -0.027569 6.43091e-22)
(1.00001 -9.20649e-07 -1.93694e-25)
(0.999993 -2.1104e-06 1.98563e-26)
(0.998284 -5.96636e-05 -1.21161e-22)
(0.998277 -0.0084114 2.29708e-22)
(0.983437 -0.0589547 -2.32281e-21)
(1.06301 -0.12708 3.94462e-21)
(1.26167 0.0269195 -3.51218e-22)
(1.02171 -0.0150129 1.27967e-21)
(1.01222 -0.0146154 4.22559e-22)
(1.00029 -0.000433102 6.09343e-23)
(0.999912 -0.000151802 3.84597e-24)
(1.00173 0.0250774 -2.19265e-20)
(1.00036 -0.00106872 6.61968e-24)
(0.995281 -0.00776849 5.09186e-25)
(1.08718 0.167837 -4.73498e-21)
(1.0048 0.0428646 -2.37054e-20)
(1.07932 -0.0795857 -8.97881e-22)
(0.972954 -0.00178354 9.54353e-22)
(0.97859 -0.0324541 2.42082e-21)
(1.15339 0.0634165 7.61557e-22)
(0.99997 -3.06006e-05 6.70369e-25)
(0.999993 -2.19206e-06 -9.98393e-27)
(0.99186 -0.00519572 2.99882e-22)
(0.967721 -0.0270681 -3.58553e-21)
(1.00003 -0.000154403 -6.64923e-24)
(1 -4.37443e-05 -1.35603e-24)
(0.995325 -0.00350766 -9.8106e-23)
(1.00002 -0.000293298 -2.3482e-24)
(1.00396 -0.00422222 -1.90487e-22)
(1.08293 0.171413 5.32742e-21)
(0.981925 -0.000266168 -2.42181e-21)
(1.01721 -0.0825994 -9.26401e-22)
(0.996549 -6.73328e-05 5.02631e-22)
(1.00145 -0.00189239 2.03394e-23)
(0.981881 -0.00683247 3.37312e-21)
(0.999379 -0.00428378 -1.76282e-23)
(1.13293 -0.0693048 1.6355e-21)
(0.999988 -6.29667e-06 7.32713e-25)
(1.00747 -0.0277358 -3.62562e-22)
(1.03632 0.0832974 7.80829e-21)
(0.995054 -0.00885821 -3.06992e-23)
(1.04365 -0.149447 -8.10692e-21)
(1.02847 0.0403892 -6.85068e-21)
(0.995679 -0.00193542 -7.34675e-22)
(0.987559 -0.0102434 9.20393e-22)
(1.00262 -0.002457 5.20698e-22)
(0.999418 -0.00592112 -1.09647e-22)
(0.999821 -4.84408e-06 4.80087e-24)
(1.00387 -0.0127264 9.04575e-23)
(0.915646 0.0169697 1.96604e-20)
(1.00122 0.0212656 1.69161e-20)
(0.990235 -0.00415533 2.38288e-23)
(0.995489 -0.00765784 -3.21699e-22)
(0.979563 0.0383835 -1.95086e-20)
(1.01204 0.0257354 3.12756e-21)
(0.954246 -0.0104632 2.10021e-21)
(1.00078 -0.000338327 -7.25005e-23)
(1.04023 -0.0779851 1.33312e-21)
(0.975484 -0.0543799 2.99709e-21)
(0.998483 -0.0117985 1.93446e-22)
(1.00057 -0.000734931 -1.1798e-22)
(1.07586 0.169929 2.24608e-21)
(0.995473 -0.00351765 -6.70667e-23)
(1.00466 -0.00379884 -2.13512e-22)
(0.982494 -0.0584109 3.01918e-21)
(0.988607 -0.0766769 3.94308e-22)
(0.999979 -2.50671e-06 2.60399e-25)
(0.979706 0.101767 -2.25729e-20)
(0.99931 -1.5908e-05 -1.18146e-24)
(0.999998 -3.45505e-05 -5.74378e-25)
(0.999639 -0.000140959 7.67235e-24)
(0.995532 -0.0365225 -6.74244e-22)
(1.21425 -0.000750771 3.88285e-22)
(1.00822 -0.0272545 4.33979e-23)
(1.00451 -0.00354518 -1.46636e-22)
(0.998551 -0.000163424 1.69075e-22)
(0.955007 -0.0116834 -3.77362e-22)
(1.00002 -0.000321979 -1.69861e-24)
(1.00033 -0.00109015 5.65435e-25)
(0.998438 -0.000138187 -1.11484e-22)
(1.02127 0.000634617 5.90151e-21)
(0.998182 -0.00270378 -3.58733e-23)
(0.999197 -0.00398611 5.81885e-23)
(1.02035 -0.00122761 2.89499e-21)
(1.00008 -0.000264724 7.76968e-24)
(1.00002 -2.42173e-06 5.80498e-25)
(1.00343 -0.000416946 7.53281e-23)
(0.98282 -0.0214309 -1.19613e-21)
(0.983864 -0.000266212 -1.18208e-21)
(0.996759 -0.000256201 -5.32331e-22)
(1.01075 0.00247311 5.15022e-21)
(0.989409 -0.000757255 5.67834e-22)
(1.01244 -0.0141524 -4.09759e-22)
(0.999983 -7.24973e-06 8.0631e-25)
(0.997988 -0.00178166 -2.05211e-22)
(1.00054 -0.000728321 1.27661e-22)
(1.04067 -0.075334 1.31932e-21)
(1.0065 -0.127418 5.66974e-21)
(0.999076 -8.40891e-05 8.65085e-23)
(1.00031 -0.000385512 -4.63954e-23)
(0.999133 -0.00388747 -1.98042e-23)
(1.00235 -0.00563773 -2.82813e-22)
(0.992617 -0.000410294 -1.03718e-21)
(0.999971 -2.86257e-05 -8.30481e-26)
(1.12807 -0.155829 -6.69336e-21)
(1.00003 -0.0003297 2.97003e-24)
(1.02104 0.000592051 -4.15784e-21)
(0.99774 -0.00156301 -1.06535e-22)
(1.00009 -0.00025628 3.02925e-24)
(1.02834 0.00959825 -4.02364e-21)
(0.972678 -0.051658 -3.06094e-21)
(1.00016 -2.87431e-05 2.71191e-23)
(1 -6.36158e-06 -2.23452e-25)
(0.961282 -0.00227291 -2.5634e-21)
(1.00139 -0.115945 -9.03441e-22)
(0.99408 -0.00556514 -7.99662e-23)
(1.00706 -0.0410506 -1.88714e-22)
(1.0223 -0.0156099 -2.09531e-22)
(1.04144 0.0804009 9.76059e-22)
(1.00005 -5.49569e-05 1.43737e-24)
(0.983152 -0.0210198 1.22291e-21)
(1.1735 -0.0948504 3.79393e-21)
(0.963775 0.0541683 4.698e-22)
(0.995006 -0.00865281 2.41174e-22)
(1.0274 0.0389853 8.38905e-21)
(1.08572 -0.0469756 4.57082e-23)
(0.999907 -0.00168525 -5.35866e-24)
(0.839925 0.0478274 2.60836e-20)
(0.999636 -0.000297472 -5.16393e-23)
(1.01598 -0.0845858 -1.19831e-21)
(0.95571 -0.011699 2.56972e-21)
(1.00154 -0.00178952 -1.11681e-22)
(1.16994 -0.0339836 -2.31856e-22)
(0.994187 -0.000634276 -6.1804e-22)
(1.0081 0.137946 1.57551e-20)
(0.997649 -0.000180465 4.7894e-23)
(0.987873 -0.0110566 -4.82004e-23)
(0.999852 -0.00152996 -3.84905e-23)
(1.12331 0.129183 2.11551e-21)
(0.999766 -0.012012 4.95286e-23)
(1.04071 0.100343 6.59894e-22)
(0.999665 -3.04906e-05 -2.00207e-23)
(0.996025 -0.00128513 -2.33677e-22)
(0.963924 0.125263 -9.63154e-21)
(1.02473 -0.000403089 -4.86697e-21)
(1.0202 -0.000845685 3.36741e-21)
(0.979323 -0.0269511 2.9391e-21)
(0.999904 -2.09653e-05 4.40275e-24)
(1.00228 -0.00543494 -3.27494e-23)
(0.999885 -0.000646921 -1.17564e-23)
(0.999999 -3.26792e-05 -3.6915e-25)
(1.04568 0.00124814 1.31367e-21)
(1.00002 -3.36828e-06 4.62552e-26)
(0.986354 -0.00976731 2.14947e-21)
(1.16832 -0.0945028 -3.62261e-21)
(0.896957 0.105607 -2.40215e-20)
(1.00883 0.127601 -3.51565e-20)
(0.97572 -0.0450926 9.53365e-22)
(0.989855 -0.0201523 7.52459e-22)
(0.984631 -0.00102315 5.65773e-22)
(1.02278 -0.0290438 7.04768e-22)
(1.00428 -0.0125672 -1.60895e-22)
(0.987462 -0.0107294 -1.27045e-21)
(0.975633 -0.0494358 4.20501e-22)
(1.03989 0.0827903 -1.46225e-20)
(0.999496 0.020173 3.17929e-20)
(0.999137 -0.000102594 4.75354e-23)
(1.00469 0.065597 -2.9631e-20)
(1.04474 0.000143969 4.46209e-22)
(1.13074 -0.0751519 8.34721e-22)
(1.00941 -0.0115418 1.9669e-22)
(1.00052 -0.0111026 -2.22275e-22)
(1.01298 -0.0385123 -4.56027e-22)
(0.996311 -0.00124302 -5.53607e-22)
(0.998184 -0.00045213 -3.58248e-23)
(0.999964 -4.38861e-06 4.64104e-24)
(0.999301 -0.00606268 1.60919e-22)
(1.06934 -0.0444356 1.02036e-22)
(1.12443 0.134489 -3.48849e-21)
(1.00111 -0.00096317 5.32882e-23)
(0.981117 -0.0175452 -1.7107e-21)
(1.01076 -0.0118945 -6.22325e-22)
(0.999978 -1.00496e-05 -3.52259e-25)
(0.975676 -0.0471896 -1.51592e-21)
(0.874097 0.0822012 -1.20966e-20)
(0.995709 -0.00330674 8.25641e-22)
(0.999216 -0.00318329 5.17786e-23)
(1.00983 -0.0114409 -1.22075e-22)
(1.00063 -0.0327447 1.22363e-21)
(1.07619 0.0204953 1.59982e-21)
(0.999559 -0.00688411 -2.79534e-23)
(0.99998 -3.59953e-05 1.17163e-24)
(1.00001 -1.48225e-06 2.49076e-25)
(0.998161 -0.000411828 -3.96195e-23)
(0.961984 0.124287 1.39068e-20)
(1.03567 -0.025078 5.70548e-22)
(1.00964 -0.127573 -1.5012e-21)
(1 -6.31464e-06 -5.84349e-26)
(0.998846 -0.117702 5.80963e-22)
(1.06536 -0.0083811 -1.79125e-21)
(0.996465 -0.000112468 -2.49988e-22)
(0.957387 -0.0042833 -3.1574e-21)
(0.999276 -0.0031288 -5.16445e-23)
(0.999707 -0.000134505 -3.18995e-24)
(0.983732 -0.0190341 -3.70122e-22)
(1.00063 -0.000806433 -5.66573e-23)
(1.13803 -0.0683526 -1.41938e-21)
(1.00654 -0.000805662 -1.53466e-21)
(1.20553 0.0768908 -2.15948e-21)
(0.99993 -0.00166332 6.94025e-24)
(1.00286 -0.00994424 5.26365e-23)
(1.00542 0.00912861 -1.35344e-20)
(1.21348 -0.106511 -3.74375e-21)
(1.00029 -0.000407407 -3.58085e-23)
(1.0003 -0.000361332 3.53424e-24)
(0.994035 0.0847094 1.41541e-21)
(0.994317 -0.036847 -3.6831e-22)
(0.999444 -0.00677573 3.41142e-23)
(1.01117 0.0288357 1.64563e-21)
(0.972053 0.0193859 3.8051e-20)
(1.07557 -0.0850206 -1.49973e-21)
(0.998761 -0.0183473 -1.64069e-22)
(1.2098 0.00233721 -3.87684e-22)
(0.999483 -5.0544e-05 -3.50387e-23)
(0.993967 -0.00290841 2.20316e-22)
(0.997698 -0.000189153 -1.35716e-22)
(1.01326 0.0243845 1.0095e-23)
(0.999989 -0.000531513 -1.47956e-24)
(1.00632 -0.000971111 1.56797e-21)
(1.08209 -0.129531 9.95065e-23)
(1.00342 0.119764 3.42275e-20)
(0.920583 0.121342 -5.61163e-21)
(0.995809 -0.00193055 2.89765e-23)
(0.993913 -0.00543387 2.39705e-22)
(1.05669 0.0961088 -9.03872e-21)
(1.00469 -0.0425706 1.39266e-21)
(0.999966 -5.21153e-06 -4.53588e-24)
(1.25046 0.0676311 1.91534e-21)
(1.02088 0.00107111 -1.77006e-21)
(1.02051 0.00111065 -1.20015e-21)
(0.995824 -0.00944859 -3.48187e-22)
(1.01367 -0.00154712 -2.3956e-21)
(0.95376 0.1108 5.4793e-21)
(1.05645 -0.131502 -1.10295e-21)
(0.98203 0.109528 5.53458e-21)
(0.995679 0.108226 -9.7199e-21)
(0.999997 -4.44545e-05 -4.93622e-25)
(1.067 -0.0430538 -1.75203e-22)
(1.05872 -0.128104 7.18072e-22)
(0.998098 -0.00272714 9.36898e-23)
(1.00114 -0.00103678 -8.78399e-23)
(0.967435 0.0223973 9.07487e-21)
(1.03691 -0.0259028 -7.28874e-22)
(1.00019 -5.31243e-05 6.06714e-24)
(0.984552 -0.0408575 -3.58453e-21)
(0.97479 -0.0556749 -1.41997e-21)
(0.99611 -0.00132134 3.28598e-22)
(0.999918 -0.000147367 -4.85903e-24)
(1.05188 0.119983 -1.49052e-21)
(1.0371 0.0454851 1.30504e-20)
(1.00003 -0.000361177 -9.55117e-26)
(1.00288 -0.00264043 6.71984e-23)
(1.00372 -0.00265008 3.63279e-22)
(1.12662 -0.120802 4.79011e-21)
(0.979398 -0.0262332 -2.66637e-21)
(1.00004 -0.000429599 -5.25327e-24)
(0.999992 -1.45187e-06 -4.96451e-26)
(1.00034 -0.000118959 9.1253e-24)
(1.07492 0.0219795 -1.56096e-22)
(0.980385 -0.0180272 -1.36468e-21)
(1.00244 0.0476969 6.85045e-21)
(0.962362 -0.0300828 1.53194e-21)
(0.99041 -0.0200928 -7.99776e-22)
(0.983408 -0.000795901 -2.27511e-21)
(1.01248 0.0276475 -8.1051e-21)
(1.21104 -0.0242696 -1.24671e-22)
(0.999164 -0.000109243 8.6828e-23)
(1.00561 -0.00435286 -3.86307e-22)
(1.00059 -0.000798317 6.4264e-23)
(0.980987 0.120795 -1.39532e-20)
(0.981825 -0.0164174 7.3635e-22)
(1.00076 -0.000202898 -3.04602e-23)
(0.994687 -0.0025938 -2.99329e-22)
(1.13033 -0.0474584 2.4292e-23)
(0.99961 -0.00739794 -7.22329e-23)
(0.991727 -0.00889859 -1.65763e-22)
(1.00016 -0.000101162 -1.89258e-23)
(1.00016 -3.81069e-05 -8.48975e-25)
(0.870704 0.0879015 1.82357e-20)
(0.994225 -0.000944291 -3.8375e-22)
(0.996582 -0.00342279 3.37299e-22)
(0.999726 -0.0013531 -3.62886e-23)
(0.999496 -3.85962e-05 -4.78744e-24)
(1.04781 0.0779762 -4.93467e-21)
(1.08608 -0.132802 2.95438e-22)
(0.988123 -0.0299373 4.70376e-22)
(1.00001 -1.12146e-06 -2.28679e-25)
(0.999999 -2.61421e-05 -3.28887e-25)
(0.981129 -0.0169624 1.93197e-21)
(0.995217 -0.00138431 7.89018e-23)
(0.996334 -0.00158314 -4.52222e-23)
(1.01056 -0.00406127 7.42617e-22)
(1.00418 -0.00179159 1.30491e-22)
(0.999946 -0.0123155 -8.76652e-23)
(1.10413 -0.0315617 1.18425e-21)
(0.986973 -0.00311761 -4.75936e-22)
(0.983841 0.107281 -4.70886e-21)
(1.00965 -0.020005 -1.58485e-22)
(1.00017 -0.000101706 2.09714e-23)
(0.975272 -0.04419 1.41956e-22)
(0.987222 -0.0264558 -1.66141e-21)
(1.16173 -0.02595 2.26551e-22)
(0.997901 -0.00449881 -9.99332e-23)
(0.990166 -0.0353244 -5.56336e-22)
(0.999987 -4.66323e-06 4.51008e-25)
(0.932816 0.0879756 -1.90607e-20)
(1.01134 -0.00169782 1.35056e-21)
(1.00006 -0.000172956 -8.52293e-24)
(0.915566 0.0232373 -2.55243e-20)
(0.98739 -0.0300277 1.0531e-21)
(0.999986 -5.13623e-06 7.89837e-26)
(1.00103 -0.000942471 2.5948e-23)
(0.97514 -0.046193 -8.37683e-22)
(1.02758 -0.0311349 2.27732e-22)
(1.03812 -0.0125996 1.62907e-21)
(0.999995 -2.16656e-06 -2.24811e-26)
(0.994202 -0.000480936 3.04637e-22)
(1.01376 -0.0377732 7.81145e-22)
(0.996219 -0.00121264 4.54371e-22)
(0.999679 -3.50513e-05 -1.06894e-22)
(0.994082 -0.00300397 6.62749e-24)
(0.976384 0.0395849 2.26521e-21)
(0.994743 -0.00925508 -4.31272e-22)
(0.99207 -0.00872561 1.21781e-22)
(1.0022 0.0286322 -6.79195e-21)
(0.998028 -0.00168242 1.07065e-22)
(0.975568 0.122572 -1.72755e-21)
(0.999986 -5.05395e-06 -2.36543e-25)
(0.991868 -0.0203217 3.24655e-22)
(0.982657 -0.0556879 3.43012e-21)
(0.990809 -0.0356359 9.47447e-22)
(1.15829 -0.103072 1.07263e-21)
(0.999108 -0.00416543 1.31644e-22)
(1.00621 -0.0184854 5.87398e-23)
(0.99993 -0.00179067 1.31925e-24)
(0.987509 -0.0156042 -9.47609e-22)
(1.02828 -0.033809 6.1942e-23)
(0.999979 -9.44201e-06 1.66403e-24)
(1.00001 -7.4697e-08 -3.96393e-25)
(0.995467 -0.000309514 2.07889e-22)
(0.981565 0.0744037 1.43986e-20)
(1.00901 -0.0154832 7.22043e-22)
(1.00186 -0.00267419 -1.07223e-22)
(0.954074 -0.0218325 2.18666e-21)
(1 -5.61873e-06 -1.822e-25)
(1.0007 -0.000880789 -1.0219e-22)
(0.999973 -0.000506582 -1.18111e-24)
(1.0101 -0.0149168 8.04795e-22)
(0.987804 -0.0115441 1.69151e-22)
(0.999729 -0.00021034 1.31688e-23)
(0.995093 -0.00826663 1.59313e-22)
(0.991094 -0.00513923 -1.76848e-22)
(1.00073 -0.000121199 -8.34243e-24)
(0.999986 -5.36826e-06 -1.53646e-25)
(1.18814 -0.0705807 -3.33186e-21)
(0.999754 -0.00133105 3.88894e-23)
(1.06257 -0.0121166 1.37488e-21)
(1.0181 0.116518 3.5442e-20)
(1.05189 0.0950354 -8.28713e-21)
(0.999976 -0.0155518 -3.25818e-22)
(1.00408 -0.00161796 -4.3285e-23)
(1.01393 -0.00123763 1.46887e-21)
(0.999965 -0.00183171 -1.47639e-24)
(0.998276 -0.00783047 1.6377e-22)
(1 -1.09107e-05 -4.7897e-25)
(0.993015 0.108626 -7.18346e-22)
(0.99099 -0.0116842 2.35423e-22)
(1.01033 -0.00373302 -5.3104e-22)
(0.987262 -0.00323884 9.92823e-22)
(1.00251 -0.00976227 5.56572e-24)
(0.998026 -0.00442821 2.1883e-22)
(0.999926 -0.000150675 1.03497e-24)
(1.00001 -4.69782e-07 -2.05405e-24)
(0.996699 -0.00341052 -2.45656e-22)
(1.04444 -0.0125801 -8.90536e-22)
(1.00512 0.0447223 1.08824e-21)
(1.00088 -0.000362097 -1.2266e-22)
(0.978783 -0.0415854 -7.74644e-22)
(0.981808 -0.0159183 -3.25185e-22)
(0.994343 -0.000379003 -1.14487e-21)
(1.25292 0.0260413 2.23909e-22)
(0.999063 -0.000724729 -5.2466e-23)
(1.00251 -0.011043 -1.40158e-22)
(0.99604 -0.00208176 2.30537e-22)
(0.999932 -0.000145032 8.96885e-25)
(0.975036 -0.0483117 9.50751e-22)
(1.00247 0.0427169 -1.07651e-20)
(1.02785 0.0352033 -8.60918e-21)
(0.983702 -0.0107288 -1.55985e-22)
(1.00187 0.0408938 -4.65472e-22)
(1.00006 -0.000162034 1.70342e-23)
(1.00001 -2.30967e-07 6.56444e-25)
(1.24351 0.0644737 -8.9408e-22)
(1.16864 -0.0281035 3.84566e-22)
(0.918184 0.0896443 -9.25089e-22)
(0.993793 -0.0602611 2.53922e-21)
(0.98358 -0.00109806 -7.23572e-22)
(1.13045 -0.0419183 2.20785e-23)
(1.00084 -0.000378777 1.39015e-22)
(0.995886 -0.00280466 1.32279e-22)
(1.00032 -0.000126568 -8.62703e-24)
(0.992309 -0.000526039 -2.45977e-22)
(0.991347 -0.00956696 -3.45198e-22)
(0.999996 -2.31605e-05 1.15031e-24)
(0.999372 -2.45621e-05 2.01843e-23)
(1.00297 0.116881 -3.34673e-20)
(0.999905 -0.000525717 1.00911e-23)
(0.940336 0.0809677 2.40004e-20)
(1 -9.98851e-06 3.63262e-25)
(1.24328 -0.06039 -3.53551e-21)
(1.06239 -0.0139372 -2.9288e-21)
(1.1045 -0.0282807 -1.31371e-21)
(1.00075 -0.000360497 8.3705e-24)
(1.00013 -3.0545e-05 1.71504e-23)
(0.985454 0.0699833 -2.19031e-20)
(1.06524 -0.0104635 5.88222e-21)
(0.982102 -0.0566313 -3.11189e-21)
(1.0197 0.0344826 3.93018e-21)
(0.997936 -0.0156708 1.40541e-22)
(0.990333 -0.00391411 -2.56917e-22)
(0.997079 -0.000162863 -1.36924e-22)
(1.13418 0.164712 -1.57014e-20)
(0.982384 -0.0190708 1.19321e-21)
(1.0233 -0.0279084 -4.83757e-22)
(0.995287 -0.00820035 -9.14436e-23)
(1 -5.65685e-06 -4.27542e-27)
(0.999073 -0.000683858 -4.44336e-23)
(1.00436 -0.00456837 2.26962e-22)
(0.986756 -0.00576703 1.27555e-21)
(0.984112 -0.0108274 2.33599e-22)
(0.96871 -0.0276519 -3.47275e-22)
(0.986614 -0.00611531 -9.6753e-22)
(1.01559 0.00220852 6.96518e-22)
(0.998477 -0.000104121 2.79507e-24)
(0.95749 -0.0251933 1.12441e-21)
(0.989882 -0.000664353 -3.52989e-22)
(1.00003 -0.000156211 3.98071e-24)
(0.991157 -0.000533735 -2.44338e-22)
(1.0235 -0.0301503 -7.45621e-22)
(1.01498 0.00238788 -3.85016e-21)
(0.980982 -0.0191043 -2.96514e-22)
(0.999993 -4.07176e-07 -1.55029e-27)
(0.987248 -0.0117788 2.53364e-22)
(1.00135 -0.0112332 2.10135e-23)
(1.00101 -0.000876109 3.33762e-23)
(1.07073 -0.139939 -3.3419e-21)
(1.00185 0.0412262 -2.50208e-20)
(1.00065 -0.000870036 9.49487e-23)
(0.991307 -0.000401776 3.49076e-24)
(1.06879 -0.0826644 5.44906e-23)
(1.02155 0.000119543 5.91421e-21)
(0.989345 0.0305569 -2.43208e-21)
(1.00134 -0.0018628 2.93872e-23)
(0.999811 -0.0161882 1.01835e-22)
(1.10045 0.116356 -2.57588e-21)
(1.01398 0.0215843 -2.00905e-20)
(0.992624 -0.020305 8.61408e-22)
(1.0035 -0.00265354 -4.06301e-23)
(0.96522 -0.0324611 1.57864e-21)
(0.999998 -2.2464e-06 -2.00243e-25)
(0.965932 -0.00139181 -1.1627e-21)
(1.00006 -5.09188e-05 2.80386e-24)
(1.06628 -0.0825274 -3.56759e-21)
(0.99998 -1.67443e-06 -1.8652e-25)
(1.00002 -4.42637e-05 2.53663e-24)
(0.999423 -0.0180664 -1.22448e-22)
(1.22506 -0.0209167 8.96832e-22)
(1.0332 0.150311 1.4828e-20)
(1.02599 -0.0313322 -1.14398e-21)
(1.01024 -0.0119821 4.14523e-22)
(0.999999 -1.41824e-06 7.607e-26)
(0.995554 -0.003329 -4.45752e-22)
(1.00006 -1.60479e-05 -1.98892e-24)
(0.997717 -0.00179122 1.53723e-22)
(1.00002 -4.10735e-05 -1.98556e-24)
(1.03842 -0.0110245 -5.07889e-21)
(0.999662 -0.000349917 -5.25452e-23)
(1.05196 0.0468883 8.39368e-21)
(0.999912 -0.000161158 -7.73626e-24)
(0.990683 -0.00382786 -4.36327e-22)
(0.971097 -0.000755309 2.69357e-21)
(0.996928 -0.000219891 -1.76941e-22)
(0.983273 0.0408649 2.33548e-20)
(0.987613 -0.000523054 6.67742e-22)
(1.0084 -0.0795926 2.08688e-22)
(0.995991 -0.00294244 6.8446e-22)
(1.0198 -0.00225232 -1.22448e-21)
(0.976987 -0.0419976 3.31618e-21)
(1.01489 -0.00115096 -4.09719e-21)
(1.02454 -0.0579294 -8.76293e-23)
(0.999992 -1.16327e-06 1.11446e-26)
(0.999046 -0.015259 1.12916e-22)
(0.997127 -0.000214793 2.15165e-23)
(1.00018 -6.90271e-05 1.24709e-23)
(1.00006 -1.35656e-05 3.43827e-24)
(1.13989 0.167402 1.70391e-20)
(0.996454 -0.00158892 3.81872e-22)
(1.02155 0.000719275 6.75581e-21)
(1.00025 -0.0166004 1.23969e-22)
(1.00062 -0.000227985 3.27204e-23)
(1.01809 -0.00683825 -4.47384e-21)
(1.00011 -2.82614e-05 -3.88524e-23)
(0.999986 -3.286e-06 -2.24444e-26)
(0.966326 -0.00185418 8.98592e-22)
(0.997474 -0.000907492 1.7172e-22)
(1.00002 -4.00114e-05 2.68063e-24)
(1.06323 0.0931464 6.08854e-21)
(0.885445 0.0715756 -3.40079e-20)
(0.999851 -0.000171028 2.20656e-23)
(0.972334 -0.00153091 -7.45573e-22)
(1.00001 -2.60774e-07 4.62323e-25)
(0.950424 0.108316 -2.22757e-20)
(1.25198 -0.0631523 -4.82238e-21)
(0.97791 -0.0338313 -2.74492e-21)
(1.00003 -0.000415397 -6.38028e-24)
(1.02252 -0.0268697 1.15951e-21)
(1.02425 -0.00269311 -1.68983e-21)
(1.02531 -0.000482607 4.99887e-22)
(1.03901 -0.0132715 -6.27659e-22)
(0.999733 -0.00142684 -6.22011e-24)
(0.999903 -0.000630888 9.12412e-24)
(0.989695 -0.0115753 -7.51846e-22)
(1 -5.05857e-06 -7.26064e-25)
(1.00001 -4.44286e-07 -1.14982e-25)
(0.981813 -0.0187053 -7.03244e-22)
(0.994915 -0.0462575 -1.39936e-21)
(0.969582 -0.0271976 -8.96962e-23)
(0.904909 0.101543 -7.034e-22)
(1.00014 -1.84798e-05 -1.57166e-23)
(1.0067 -0.0598543 -2.8959e-21)
(1.00543 -0.00408377 -3.97377e-22)
(0.999987 -3.50007e-06 2.57106e-25)
(0.999239 -0.00296264 -1.12365e-22)
(1.00002 -0.000351353 -4.64678e-24)
(0.996592 -0.00960593 2.642e-22)
(1.00003 -7.26162e-06 2.27482e-24)
(1.02599 -0.0571904 -1.966e-22)
(1.0146 -0.00140469 3.97303e-21)
(0.977145 0.120211 4.85817e-21)
(1.01934 -0.00210358 4.60176e-21)
(0.999805 -0.000166791 1.83803e-23)
(1.00033 -0.000292578 -3.38628e-23)
(1.12334 -0.125669 -4.8158e-21)
(1.02145 0.000591286 -5.43504e-21)
(0.997774 -0.00029348 1.53323e-22)
(1.00001 -1.09515e-06 9.64266e-25)
(1.07811 0.0788041 -9.86869e-21)
(1.0358 -0.145341 -1.38837e-21)
(0.994101 -0.0590662 -1.12364e-21)
(0.989608 -0.000565008 -1.87406e-22)
(0.999989 -1.33928e-05 3.00585e-25)
(0.999807 -0.000157171 -1.07303e-23)
(1.03832 -0.149379 3.87083e-21)
(0.996293 -0.0372446 -3.92073e-22)
(1.03328 0.0242404 1.22102e-21)
(0.983213 0.103378 2.03253e-20)
(1.00799 -0.0775131 1.57604e-21)
(0.999099 -6.22924e-05 -2.72238e-23)
(0.999988 -6.82703e-06 -4.80397e-25)
(0.972288 -0.0355681 2.67018e-21)
(0.976415 -0.0713474 -3.47096e-21)
(0.999856 -0.000177048 1.16164e-23)
(1.00673 -0.0180203 3.1712e-22)
(0.992882 -0.0197799 -1.50471e-22)
(0.996636 -0.00170462 1.50503e-22)
(0.998045 0.0346799 -1.84594e-20)
(0.999077 -0.000409568 9.65792e-23)
(1.03715 -0.0452284 -2.41791e-23)
(1.2191 0.123486 -4.97306e-21)
(0.9944 -0.00244654 -4.36722e-22)
(0.916151 0.0844771 -3.39749e-21)
(0.92348 0.0397019 1.07025e-20)
(0.99998 -3.79753e-05 -1.11791e-24)
(0.999979 -0.000553836 6.49558e-25)
(0.98776 -0.000694241 -4.28096e-22)
(1.00982 -0.00372479 -9.60856e-22)
(0.973456 -0.00141569 1.54725e-21)
(1.00381 -0.00329589 -4.17411e-22)
(0.9946 -0.00245541 4.08905e-22)
(0.999594 -0.000374352 -4.04699e-23)
(0.959174 0.108749 -3.94794e-21)
(1.05228 0.0445297 -1.30829e-20)
(1.00166 -0.0018085 7.5046e-23)
(0.846664 0.045187 -6.68045e-21)
(1.00001 6.68804e-08 -6.73358e-25)
(1.02061 0.00491673 -9.4771e-21)
(0.987409 -0.0713815 2.45644e-21)
(1.00843 -0.0601903 1.13082e-21)
(1.00007 -0.000157259 -9.10511e-25)
(0.972227 -0.000775452 1.27276e-21)
(1.01858 0.00444729 5.33867e-21)
(1.00957 -0.00399629 7.95168e-22)
(1.02391 -0.0018038 2.35359e-21)
(0.999688 -2.72954e-05 7.51377e-23)
(0.999657 -0.000373335 4.76505e-23)
(1.01625 -0.037156 2.00113e-22)
(0.997514 -0.000978766 -4.91658e-22)
(0.990755 -0.00868958 -8.11519e-22)
(0.999333 -0.0026856 6.64423e-24)
(1.07424 0.0284781 6.29991e-21)
(0.998828 -0.0158864 -7.80896e-23)
(0.996381 -0.00361881 7.84433e-24)
(0.951987 -0.0184177 -3.23757e-21)
(0.996371 0.0845744 2.3163e-21)
(1.08956 -0.0449437 -5.33457e-22)
(1.01765 -0.00653003 3.59751e-21)
(0.999719 -0.000135043 1.41273e-23)
(0.999638 -0.000244082 6.43585e-24)
(0.98699 -0.0153962 1.90876e-21)
(1.00072 -0.000948382 -7.56448e-23)
(0.998135 -0.000517474 -2.77141e-23)
(0.999989 -1.25531e-05 -1.04791e-25)
(0.999759 -0.0014539 1.37845e-24)
(1.0181 0.00411594 -2.07612e-21)
(0.984736 0.0732084 -2.10109e-20)
(0.999915 -1.10257e-05 2.56776e-24)
(1.16523 0.146299 -1.29594e-20)
(0.999996 -2.91873e-05 -4.78233e-25)
(0.997641 -0.00212167 2.093e-22)
(0.999995 -7.06303e-05 -2.61893e-25)
(1.00384 -0.00285119 -1.85076e-22)
(1.18781 -0.0770881 2.56532e-21)
(0.999974 -3.10449e-05 1.98039e-25)
(0.999973 -3.34825e-05 1.17332e-24)
(0.96163 -0.0303704 -1.46266e-21)
(1 -5.14184e-06 -2.99394e-26)
(1.0417 -0.0135121 5.21655e-21)
(0.989693 -0.0307833 1.50966e-21)
(0.999981 -0.000486782 5.58923e-25)
(1.07511 0.0582667 -7.55618e-21)
(0.999999 -2.12382e-05 6.14435e-25)
(0.999724 -2.881e-05 6.49912e-23)
(0.999942 -2.63166e-05 1.0867e-25)
(0.996511 -0.00362959 -1.2659e-22)
(0.999751 -0.00115837 -1.83357e-23)
(0.995553 -0.000233831 -1.39727e-22)
(0.991602 -0.0866008 -2.8671e-22)
(0.999779 -0.00112812 1.21863e-23)
(1.00307 -0.00265285 -1.44194e-22)
(0.999986 -2.51195e-06 -1.01135e-25)
(1.03536 0.147181 -2.87796e-20)
(1.03571 -0.0458372 -8.66311e-23)
(1.09246 -0.0462388 6.44909e-23)
(0.975252 -0.00425345 1.6767e-21)
(0.983873 -0.00309037 -3.0946e-22)
(0.999305 -0.00289785 1.85305e-22)
(1.00212 -0.00201441 2.02668e-22)
(1.04298 0.058595 3.58342e-21)
(0.986698 -0.0271854 2.26049e-22)
(1.11995 0.0954452 3.50569e-21)
(0.969319 -0.00950704 -3.0073e-21)
(0.997559 -0.00204788 -1.97296e-22)
(0.999994 -2.54057e-06 3.03741e-26)
(0.995906 -0.00208843 -2.77924e-22)
(1.01142 0.139694 7.25784e-21)
(1.06769 0.0681011 -1.78459e-21)
(0.98566 -0.0406769 1.21595e-21)
(0.959086 -0.00400513 6.93681e-22)
(1.04027 0.139184 7.85314e-21)
(0.993909 -0.000431542 3.63374e-22)
(0.985104 -0.0650107 1.92953e-22)
(0.999995 -6.73939e-05 -1.38349e-24)
(0.988886 -0.0308654 1.88096e-21)
(0.999412 -0.000168511 -9.98616e-23)
(0.857825 0.0769383 -1.92076e-20)
(0.982267 -0.0529414 -2.63073e-21)
(0.999944 -2.36116e-05 4.28788e-24)
(0.956497 -0.0129187 -1.83081e-22)
(0.986486 -0.0288171 1.108e-22)
(1.03063 0.065379 1.28869e-20)
(0.998159 -0.000564643 -2.6194e-22)
(0.98522 -0.0277006 -6.72363e-22)
(0.998135 -0.00802405 -2.27872e-22)
(0.999511 -0.0174641 -2.54753e-22)
(0.999102 -0.000416418 -6.60088e-23)
(1.02943 0.0639306 -1.56573e-20)
(1.00441 -0.123299 2.51567e-21)
(0.987188 -0.012259 -5.6258e-22)
(0.990109 -0.010773 1.19312e-23)
(0.990763 -0.0036141 -1.7512e-22)
(1.00384 -0.00156453 -1.69744e-22)
(1.04196 0.135135 3.08006e-20)
(0.987227 -0.00995001 2.5628e-22)
(1.01353 0.0328741 8.59698e-21)
(1.00196 -0.00161968 1.54539e-22)
(1.16462 -0.10286 -8.61821e-23)
(0.937664 0.0868625 3.54162e-21)
(0.99379 -0.000337257 -1.25319e-21)
(0.999845 -2.94314e-05 1.18871e-23)
(1.04604 0.0805328 3.85673e-21)
(1.00007 0.11183 -2.71158e-20)
(1.01585 -0.035802 -2.24887e-22)
(1.06154 -0.0435407 7.26127e-23)
(0.996419 -0.00996289 -2.9253e-22)
(0.975624 -0.00384834 -9.93176e-22)
(1.09729 0.113436 1.04202e-20)
(0.97136 -0.0356354 4.63723e-22)
(0.999988 -1.31216e-05 4.68645e-25)
(0.994719 -8.28061e-05 -6.44849e-22)
(1.00002 -3.87321e-06 2.36569e-24)
(0.996822 -0.000197303 4.80345e-22)
(0.999987 -1.43655e-05 -7.37557e-25)
(0.998322 -0.0112006 3.8161e-22)