/*--------------------------------*- C++ -*----------------------------------*\
  =========                 |
  \\      /  F ield         | OpenFOAM: The Open Source CFD Toolbox
   \\    /   O peration     | Website:  https://openfoam.org
    \\  /    A nd           | Version:  7
     \\/     M anipulation  |
\*---------------------------------------------------------------------------*/
FoamFile
{
    version     2.0;
    format      ascii;
    class       volScalarField;
    location    "13";
    object      p;
}
// * * * * * * * * * * * * * * * * * * * * * * * * * * * * * * * * * * * * * //

dimensions      [0 2 -2 0 0 0 0];

internalField   nonuniform List<scalar> 
7639
(
0.356528
0.01138
0.592814
0.370468
-0.00185442
-7.17183e-05
0.595945
-0.0116816
-0.000236042
0.15889
-6.78317e-05
0.00535822
-0.0174601
0.0805039
0.165054
-0.0224499
0.371478
-0.0228713
0.00262823
-0.0966031
0.107496
0.00353154
0.0593631
0.3004
-0.0296626
0.373676
-0.00170603
0.0984886
0.251545
0.00582529
-0.0312011
0.90848
0.0585537
-0.00103731
-0.0002168
0.130574
0.00653154
0.575716
-0.00978777
-0.000718979
-0.00889537
-0.0217281
-0.0921969
-0.049963
-0.000425106
-0.00016799
0.00348763
-0.00995127
-0.000136987
-0.0949026
0.00797826
0.093393
-0.0373778
-0.00313163
0.129499
-0.0103971
0.0029153
-0.011719
-0.0477532
-0.00108787
0.000101596
0.0102085
0.0807869
0.00590184
-0.00212751
-0.0304638
-0.000188358
1.1515e-05
0.0796698
-0.00926939
-0.000153054
-0.0789699
-0.0286564
-0.0486519
-0.0220693
-0.0677217
0.58328
0.1052
0.0884675
-0.0886221
-0.0167465
0.531968
0.152318
-0.0505015
-0.00312927
-0.00500329
-0.012499
-0.0362513
-0.00140721
-0.00980667
0.258068
-0.0707811
-0.000278391
0.0028035
-0.00780725
-0.0497099
-0.0756371
0.00130207
-0.00346136
-0.00254746
-0.0828219
0.098596
-0.00741562
-3.77321e-05
-0.0659182
0.264393
0.784569
-0.0110352
-7.96603e-07
0.0548217
0.349214
-0.0570872
-2.11394e-06
0.0581463
0.264888
0.00106871
-0.0678939
0.212919
-0.0569596
-0.0495223
-0.0858583
0.50803
-0.0879621
0.0226125
-0.0838777
-0.00209734
-0.0277572
0.00458194
-0.00224347
-0.0309826
-0.125514
0.0900228
-0.00130359
-0.00166612
-0.0522446
0.338821
0.632547
-3.25547e-05
0.017666
-0.106799
-0.0461145
-0.066314
-0.0680982
-0.0465985
0.793756
-0.0247271
0.254105
-0.0459963
-0.0635866
0.506191
0.124398
-0.0565589
-0.00322406
0.051202
0.151894
0.532707
-0.0767326
-0.0173936
0.742186
-0.000123363
0.00144206
0.311264
-3.33325e-05
-0.00448642
-0.00880804
0.388277
0.389422
0.769588
-0.00512727
-0.00678968
1.32477e-05
-0.0890926
0.0010524
0.0200209
0.019155
-0.0626595
-0.0408078
0.189148
-0.000275534
-0.00107145
0.376953
-0.000122795
-0.000233772
0.598796
0.00411157
-0.0497254
-0.053558
-0.0456732
-0.0295197
-0.104651
-3.75452e-05
-0.0729316
0.194513
-0.00748222
0.00017934
0.272001
-0.0027614
-0.0290952
-0.0289477
1.50845e-05
0.00219753
0.348364
0.239639
0.535967
-0.0599569
-0.050645
-0.110897
0.107031
0.344112
-0.00045582
9.02704e-05
0.745228
-0.0192476
-0.00136349
-0.0698019
-0.0290614
0.483484
0.494758
-0.0716733
0.862278
-0.00255647
-0.0225951
-0.0848404
0.128697
-0.112171
0.293393
0.743114
0.000162263
0.0237211
0.226699
-0.00923637
0.207947
-0.00118912
0.824489
0.521526
-0.0124392
0.00650091
-0.000666685
0.151162
-0.000198336
-0.0138444
-0.100417
-0.000152762
-0.00298829
-0.00093503
0.22648
-3.26907e-05
-0.0101907
-0.0861234
0.906868
0.0798674
0.799152
-9.05553e-05
-0.0326323
-0.000399566
0.557518
0.00984196
0.634789
0.00345621
0.00188363
0.0138007
0.11173
0.00142271
-0.000497042
0.0012706
-0.00971579
-0.048637
-8.40711e-05
-0.0741579
-0.00838531
-0.000306594
-0.00142062
0.604734
-0.0173876
-0.00173684
0.858593
-0.00330212
0.357605
-0.000449245
0.00216455
2.13699e-05
-0.0513564
0.12368
-0.0347362
-0.0480116
-0.000908763
-0.0868363
-0.0338914
-0.000393744
0.00123206
-0.00493823
-0.0167291
0.00714976
-0.00276463
-0.0482964
-0.0422948
-0.0477288
-0.0354819
-0.0599411
0.512856
0.53425
-0.00343028
-0.0802307
-1.33388e-05
-0.00532368
-0.0503509
0.292222
0.169969
0.000245375
-0.00487694
-0.0583661
0.245187
-0.00226705
0.00874282
0.00300808
0.0565159
-0.119542
0.481411
-0.00367923
0.00860387
-0.000245879
0.00990131
-0.000109146
-0.0371428
-0.000770418
0.0110781
-0.127418
-0.0589296
0.00519532
0.0212298
-0.00167812
0.0479855
-0.0160486
0.117306
0.232753
-0.139139
-0.0533171
-0.0349405
0.0124863
-0.097695
0.787216
-0.0448025
0.0715839
0.84491
-0.00354424
-0.00401714
-0.0604581
-0.00244306
-0.0200363
0.015438
-0.006427
-0.00477334
0.238332
-0.000135324
0.00136458
0.000200126
-0.00785502
-0.0158939
-1.62614e-05
-0.00252777
-0.0457691
0.740073
0.00684313
-0.0189087
0.693699
0.44533
0.103451
-0.065801
-0.0902621
0.0119784
0.374876
-0.0246198
0.420871
-0.0346008
-0.0961758
0.247856
0.422584
-0.0704315
0.160062
0.282943
0.378367
0.104876
-0.00704256
-0.00973373
-0.000190149
0.00852194
-0.0251408
0.00247854
-0.000232544
-0.00370096
-0.0872422
0.110549
-0.0366334
-0.00573427
-0.00875294
0.0053688
-0.0159754
0.00438148
0.236079
-0.00433445
-3.87465e-05
-0.000103951
0.00013376
-0.0440723
0.231776
-0.00922446
0.0657978
-0.117815
0.564291
0.00793802
0.0162031
-0.0117902
0.584517
-0.00243909
0.474652
0.259526
-0.000254676
-0.037805
-0.0076141
-0.0637205
0.00140012
0.115452
0.00821388
0.0150725
-0.00196195
0.205893
0.250972
-0.0569751
-0.0456892
-0.00523234
-0.032219
0.0571923
0.893464
-0.0544436
0.010974
-9.75667e-07
-0.0289066
-0.00523775
0.043862
-0.100283
-0.0846873
0.606144
0.226141
-0.099867
0.28446
0.572244
0.0647296
0.00301359
0.387348
-0.00204093
-0.000404069
-0.0374507
0.000223553
-0.120824
-0.000219802
-0.0472614
0.0046914
0.281947
-0.00410451
-4.46865e-05
-0.102557
0.00424289
0.0450211
-0.0797858
-0.104083
-0.066154
0.229074
0.189239
0.19441
-0.000457398
0.0962056
0.127226
-0.00119477
-0.0353348
0.00149753
0.0138847
-0.00466263
0.0114829
-0.00177742
0.152841
-3.66678e-05
0.000498301
0.00480243
-0.0453859
0.0485825
-0.0448111
-0.053407
-0.0460911
-0.118665
0.018014
0.373909
-0.0970037
-0.0150042
0.834106
-0.0743177
-0.016723
-0.052815
-0.0131192
-0.0428506
-0.0223298
0.0652538
-0.0552279
-4.82979e-05
0.057336
-0.000208979
0.517987
0.0810676
-0.0110284
-0.0300318
-0.000419305
0.534054
0.463439
0.0738466
0.149049
-0.0778872
0.653482
-0.000125751
0.0415018
-0.0381193
0.202493
0.773763
0.0405984
0.218893
-0.00398475
-0.000455277
0.125215
-0.110078
0.5586
0.0497496
0.325965
-0.0157713
0.576474
0.440147
-0.0199321
-0.0169094
0.100186
-0.106307
-0.000174308
-0.0277422
-0.102128
-0.0796502
0.0264326
0.0218476
-0.000264414
0.466458
-0.00228384
-0.00022389
-0.0361317
-0.00111079
-0.000499664
0.00824077
0.313791
-0.0927348
0.721412
0.000161725
0.307255
-0.0299048
-0.000150798
5.00752e-05
0.248202
0.3049
-0.00911943
0.279317
7.05783e-05
0.294303
-0.13803
-0.0208199
0.600394
-0.0671363
0.134848
-0.0506697
0.289582
0.298627
-0.03416
-0.0430165
-0.0131329
-0.00638017
-0.000443699
-0.00259616
0.396711
-5.21872e-05
0.284594
-0.0883617
0.481471
0.271029
-0.104379
0.701014
-0.0035865
0.0119756
-0.0501169
-0.0410637
-0.0142965
-0.0344281
0.0624529
0.818109
0.000113232
-0.00423984
-0.0571905
1.7858e-05
0.527191
0.00431884
1.78266e-05
0.000479473
0.000921072
-0.0356348
0.0426196
-0.00341008
-0.000185487
-0.0151278
0.0060755
-0.110435
-0.0962988
0.0493174
-4.29066e-05
-0.131001
-0.0270768
0.119086
0.474915
0.00277632
0.143078
0.000380967
-0.026005
0.143992
-0.014312
0.334997
-0.0266194
0.0472746
0.149437
0.220312
0.0104322
-0.0213435
0.245333
-0.0921359
0.567341
-0.019216
0.371781
-0.0191426
-0.00254871
0.208485
0.00351434
0.140249
0.00446154
1.55025e-05
-0.116455
0.228526
0.00339335
0.121677
-0.0252694
-0.132522
0.0106905
-0.0464395
-0.00367353
-0.0181514
-0.0851336
-0.0544252
-0.0201398
-0.000304642
0.59964
0.14187
0.0653702
-0.000423174
0.438313
1.80389e-05
-0.000387539
0.160529
0.00368119
0.193878
0.0971549
0.038312
-0.0395407
-0.112085
-0.058397
0.00306448
-0.0777837
-2.86051e-05
0.00862216
0.321045
-0.0325589
-0.00613628
-0.0141891
-0.00430218
-0.000874076
0.841319
-0.0203058
-0.00119782
-9.81509e-06
0.208338
-0.0565052
-0.000699494
-0.00606081
0.240803
0.130301
-0.0697532
9.45003e-06
0.265216
-0.0321328
0.268989
0.0369589
0.0453704
-0.0573551
-0.000196611
0.145901
0.117142
-0.0188964
-0.0811471
0.397856
0.0138717
0.235394
-0.00547034
-0.0354579
-0.000851392
-0.00282511
-0.000207867
0.237497
0.330064
-0.00324109
0.042642
-0.0344884
-0.0652233
-0.0735591
-0.00408088
0.038423
0.808687
-0.0234056
-9.92184e-05
0.129502
-0.00811203
0.691681
-0.0251152
-0.023075
-0.00355397
-0.0264892
-0.0138297
-0.016096
-0.00721816
0.00353113
0.0525819
0.000260658
-0.139888
-0.0310961
0.500959
-0.0670456
0.206645
0.0047087
-0.0466404
-0.0235901
0.308168
-0.0151812
0.000266832
-0.0313698
-0.0113818
0.0429671
-0.0518805
-0.0447152
-0.0222252
-0.0294069
-0.00965095
-0.0834518
1.66885e-05
0.0726784
-0.0739915
0.171764
-0.0501753
0.139459
-0.0858413
0.445257
0.013625
-0.0591378
-0.0246366
0.730495
-0.115746
-0.0262741
-0.110742
-0.0432973
-0.0991471
-0.0577994
0.234904
-0.00609836
0.364985
0.0197358
-0.000835313
-0.00261413
0.11514
0.914081
0.00252018
-0.029963
0.252353
5.94167e-05
-0.0411453
0.0600958
0.00687117
0.0200063
-0.00352031
-0.0516805
-0.00651555
7.53298e-05
-0.0639291
0.356369
0.00664476
-0.0332327
0.00433175
0.251839
-0.000809547
-0.00272326
-0.000776709
-0.00167585
0.00872235
0.00735352
0.00695369
-0.0356267
0.000117611
-0.105543
-0.10488
-0.115509
-0.0286284
0.0328922
-0.00045205
-0.0256661
-0.0846618
-0.00128208
0.485291
-0.00274237
-0.0928495
-0.0103739
0.0176867
0.196804
0.00101769
-0.000323608
0.109917
-0.00949196
0.0331838
-0.00652572
-0.00457872
-0.0777994
-0.000365731
0.000733634
-0.0269067
0.41843
0.352947
-0.0397141
-0.0712875
0.0163984
0.00983128
-0.00821847
-0.0803617
-0.0188469
1.99004e-06
-0.00774708
-0.0483855
-0.0881005
0.0104563
-0.0751063
-0.000864348
-0.00657468
0.275281
-0.0550145
-7.5594e-06
-0.00620233
-0.0999937
-0.00035242
-0.0240114
-9.17231e-05
0.00913507
-0.107239
-0.0400541
-2.77426e-05
7.87513e-05
0.181339
-0.0588773
0.538242
0.356649
-0.0059378
-0.00125311
-0.0197603
0.000515663
-0.120941
-0.0909972
-0.0552046
-0.0323113
0.334984
0.0182507
0.000643931
0.0129188
-0.109023
0.00445874
-0.0297113
-0.0819152
0.0047841
0.0358092
0.104188
0.0176447
-0.0438514
-0.0645794
0.263832
-0.03589
-2.36259e-07
-0.101944
-0.0898434
-0.0426182
0.00937013
0.00173329
0.0167146
-0.104407
0.0524486
-0.0522533
0.157296
-0.0496439
0.0130495
0.0315066
0.0255536
-0.0530989
-0.114132
-0.000200929
0.206158
0.289576
0.0129645
0.242154
-0.0784878
0.0717296
-0.058692
0.278041
0.145284
0.801868
1.30353e-05
0.141448
0.243221
0.0241636
-0.00248925
-0.0280238
-0.0257518
0.000111687
-0.0279228
-0.0634944
-0.0306572
-0.033664
0.000309731
-0.098337
-0.00060451
-0.00147558
0.33168
0.01116
0.0275922
0.0334172
0.286351
0.0188129
-0.000639712
-0.10175
0.0136761
0.510097
0.00222184
-0.0666788
-0.000348363
-0.000911116
0.0122332
-0.0574079
-4.07564e-05
-0.0168164
0.0466471
-0.0032692
7.96592e-05
-5.94742e-05
0.211762
-0.036253
0.0114317
-0.00185665
0.01446
0.0254958
0.0143397
-0.000464482
0.47591
-0.0883695
0.304498
0.404786
-0.00034236
0.0170723
0.147568
-0.00127604
-0.000426651
-0.000691184
-0.0040468
0.0256616
-0.0153124
-0.0277028
-0.084216
0.236231
-0.0958547
2.61104e-05
-0.0295606
-0.0277425
-0.0534489
-0.00708493
0.0100152
0.00215972
0.0447286
-0.000845955
-0.000360737
-0.0264039
-0.00703574
-0.0376911
-2.20097e-05
-0.0227085
0.0535417
-0.0194198
-0.0290516
-0.0134304
-0.0180868
-0.0141594
-0.00848042
0.0152508
-0.0146232
-0.000160781
-0.000641519
0.0373715
-0.0188012
-0.00804848
0.0139897
0.00508668
-0.125454
-0.0170878
0.216877
-0.0193425
-0.074905
-0.0359737
-0.0343708
-0.0238237
-0.00611823
0.00377162
-0.00573578
-0.0213177
-0.0246124
0.259652
0.19876
0.0750035
0.471709
-0.00010955
-0.00527243
-0.0250856
-0.0125935
0.110549
-0.030778
0.0705249
-0.00683891
0.276607
-0.00313012
-0.00261493
0.025775
-0.0244018
-0.000341933
-0.0311274
-0.0095531
-0.0316754
-2.54462e-05
-0.0107307
0.00337591
-0.0266901
0.05301
0.0553054
0.030256
-0.021438
-0.0471891
0.163782
-0.00204603
-0.00318462
-0.00342665
0.687172
-0.000119474
0.103568
-0.032257
-0.0310584
-0.0399235
-0.058372
-0.0431993
-0.0511213
-0.027735
-0.00746403
-0.000147042
-0.00692371
-0.0328449
0.142204
0.00286009
0.170668
-0.0492386
-0.0202915
-0.0014842
-0.0433689
-0.000156171
0.205887
-0.0453229
-0.0394698
-0.0360327
-0.00624066
-0.0485322
-0.00274061
-0.060357
0.1459
-0.038948
-0.0902774
-0.00236325
-0.0406991
-0.0280798
0.0245398
-0.00523731
0.197829
-0.00389536
-0.0290612
-0.00106781
0.221462
-0.0579384
-0.0398693
-0.00525965
-0.0151127
-0.00445068
0.245055
0.0172542
0.236377
-0.00771114
-0.00130267
-0.00203259
-0.0037471
0.200192
-0.0871142
-0.0109979
0.000587728
-0.0111793
-0.0137225
-0.00143003
-0.0196817
-0.0239484
0.085856
-0.00802492
0.00794048
0.676244
-0.0892726
-0.0434156
-0.0836392
6.82057e-05
0.110863
-0.00573986
-0.0405279
-0.00906777
-0.0532453
0.00723569
-0.000840961
-0.00469395
0.00540066
0.274848
-0.00945208
-0.00287866
-0.00751998
-0.0755432
-0.0133749
-0.0337054
0.00718618
-0.0139991
-0.0143928
-0.00530442
0.279736
-0.0680313
0.00534964
-0.00683026
-0.0416123
-0.0221011
-0.0728488
-0.00224775
0.132285
0.0365712
-0.012628
-0.00277644
-0.0214209
0.708122
0.276785
-0.0179534
-0.000919129
-0.00384855
0.00813686
-0.00643726
0.0333096
-0.000645914
-0.0231082
-0.00319231
-0.0265063
-0.121252
-0.00169069
-0.0170302
-0.00218213
0.437728
-0.0103738
-0.0185746
-0.0268598
-0.00311511
-0.0451386
0.0231649
0.621722
-0.0170897
-0.0180819
-0.00341715
-0.000721907
1.11954e-05
-4.61561e-06
-0.0161327
-0.00104847
0.13168
-0.00106092
-0.00292764
0.0133848
-0.000399473
-0.0655167
-0.07452
0.0274321
0.0606736
0.0411035
0.0156817
-0.049822
0.130372
0.102289
0.137994
0.172536
-0.0204926
-0.00138057
-0.00924704
-0.0826489
-0.0056829
-0.0236053
0.00624334
0.446162
-0.0657289
-0.000764388
-2.91096e-05
-0.00236028
5.44651e-06
0.0146958
-0.000870519
-0.0073202
-0.0702105
0.000926282
0.0044232
-0.000333302
0.0922099
-0.0242351
-0.0456429
-0.00192786
0.447557
0.362988
-0.016005
-0.0830023
-0.0421975
-0.0369912
-0.022639
-0.00300999
-0.0930016
-0.0429395
-0.0616449
-0.0951012
-5.75226e-05
0.254157
-0.0185027
-0.0153823
-0.039235
0.0299267
-0.000838093
-0.013373
-0.00219166
0.0210115
-0.00241879
0.209616
0.000605224
0.0162547
-0.000651248
-0.101415
0.014447
-0.00119338
0.0169114
0.000708183
0.00467644
0.159921
0.00268674
-0.00231866
-0.000187516
-0.000903746
-0.000798068
-0.0878852
0.175606
0.00153088
-0.000417015
0.0151858
-0.000715645
0.313147
-0.0862346
0.336709
-0.0633958
-0.00071142
-0.000436447
-0.0116989
-0.00906272
-0.000993207
-2.52399e-05
0.0395566
0.0453086
-0.000363818
-0.00050752
-0.0304519
-3.06119e-05
0.232821
-0.0014941
-0.0764235
-0.0294044
-0.0102024
-0.0800108
-0.0873076
0.210531
-0.0239924
-0.0312037
-0.000495173
-0.0816626
-0.031781
0.00199995
0.0987717
0.484349
-0.00187942
-0.0854058
0.0207464
0.417455
0.0604554
-0.000178966
-0.00967183
-0.00653885
-0.00795639
-0.0697058
0.126612
0.00032545
0.0293707
0.00497271
0.104895
-0.000824344
-0.000172252
-0.0893653
0.377273
-0.0788094
0.193043
-0.00198355
-0.000306672
-2.95169e-06
-0.0937471
-0.0611815
-0.000525145
0.139799
0.0180018
-0.0085646
0.570824
-0.000603349
-0.00592483
-0.0842278
-0.029748
-0.00365873
0.189087
-0.0716612
-0.000253358
0.0200709
-0.000257718
-0.000147085
0.19046
0.00332257
-0.000712546
-0.0746977
-0.0373983
-0.00560808
-0.0358232
0.00397044
-0.0347566
0.00279776
-0.00560555
-0.0919435
-0.0560284
0.0296727
-0.00143241
0.215346
0.286356
-0.0989057
0.015696
0.0303385
-0.00687567
0.230586
0.145747
-0.0422677
-0.000243728
0.0160194
-0.0796292
0.0191404
-0.0416556
-0.00335796
0.0648161
-0.0415656
-0.000207539
-0.000102182
-0.0425573
-0.0374676
-0.0392794
0.0156924
0.00264789
-0.0644516
-0.000222314
-0.00220521
-0.000312448
-0.0482642
-3.11331e-05
-0.00309123
-0.0566849
-0.107313
0.118095
-0.00476794
0.00683115
-0.03237
-0.0384836
-0.000190813
-0.0673692
0.0984911
0.218692
4.5371e-05
-0.000166839
0.222692
-0.00401346
-0.0999294
-0.0592045
0.00553429
0.000829595
-0.0978631
-0.0271717
0.228046
-0.081371
-0.00235155
-0.0138539
-0.0742112
-0.000901387
-0.000370808
-0.00144185
-0.0152463
-0.0740369
0.172202
-0.000320666
0.705304
-0.0359172
0.000213534
-0.00152253
0.000438546
0.000499447
-1.53466e-05
0.000246337
-0.0764349
-0.00113248
0.000731899
-0.000302466
0.196896
-0.00913572
-0.000293805
-5.46623e-05
0.49077
-0.0327261
-0.0440696
0.00192851
-0.00112516
0.0844009
-0.000140716
-0.0191075
-0.131396
0.00360889
-0.0101468
-0.000142293
-0.000308573
-0.045682
-0.0761912
0.0117325
-0.112338
-0.0673822
-3.81137e-05
0.0335558
0.0503867
0.15522
-0.0027459
-0.00023563
-0.080722
-0.00972091
-0.000771545
-0.0713951
-0.000205106
0.0593532
-0.000116856
-0.00202822
-0.0303803
-0.0033278
-0.0839098
0.643899
-0.00259077
0.000471358
-0.0765311
-0.0715949
0.0148761
0.007667
-0.00022865
-0.0466742
-0.000120038
0.271167
0.86053
0.0921292
0.00499098
0.00591448
-2.16624e-05
-0.041654
-7.61546e-05
-0.0107421
-0.00269714
0.000632572
-0.00536055
-0.0148371
-0.000183911
0.00145823
-0.0124685
-0.000484014
-0.0152861
-0.0252404
-0.007359
-0.00178094
0.768156
-0.00107445
0.00402652
0.000418841
0.0221392
-0.0720335
0.0155671
-0.000264665
-0.000147571
0.00435521
-0.000159616
-3.06472e-05
-0.0178156
0.00116198
-3.21884e-05
-0.073689
-0.00354502
-0.0811599
-0.00260743
-9.86969e-05
-0.00498001
-0.0101448
-0.0230085
-0.0333401
0.00381764
0.000877048
-0.000721839
-0.00313755
-0.000109931
0.381808
0.00257857
-2.48111e-05
0.000995089
-0.00320151
-0.000538439
-0.0909416
-0.0788046
-0.000183535
-0.0110807
2.97296e-05
-0.00411073
-0.000106306
0.0545877
-0.000207093
-0.000274065
-0.00552816
-2.54031e-05
0.0216261
-0.000337718
-0.00200014
0.0298182
2.81372e-05
0.524651
-0.0771574
-0.060956
-3.01201e-05
-2.78724e-05
0.00317679
-0.00187428
-0.0727085
-2.11978e-05
1.02718e-06
0.00125093
-4.23922e-06
0.000640222
0.000755746
-0.000710463
0.00130945
-0.0760061
0.66503
-0.0475928
0.46782
0.0145937
-0.025375
-2.2355e-05
-0.0013802
-0.0190415
0.000254567
0.000483858
0.000295562
0.0768692
-0.00210112
-0.000319372
0.683834
-0.000836518
0.000992963
0.000844711
-5.79273e-06
-0.0296431
-0.00341849
0.00187983
0.000222682
-0.000800591
-9.89351e-05
-0.00142373
-0.0640034
-0.000644148
-0.00247561
-2.3144e-06
-0.000188418
-0.000393825
0.265755
-0.000682755
-0.000399716
-0.0988505
0.00612801
-0.000109741
-0.0021058
-8.78973e-05
0.242928
-0.10319
-0.000434188
-0.000597507
-0.0029238
-0.000217154
0.0860412
0.157119
0.0407299
0.000866403
-8.74195e-06
-1.1424e-06
0.0826344
0.000433648
-0.0874964
-0.0337265
-0.0243546
-0.101398
0.770411
0.00323448
0.263133
-0.022551
-0.0436341
0.247115
-0.000548119
-0.0936962
-1.44158e-05
-0.0140704
-0.0717928
0.000100835
-0.068287
-0.00148671
-0.00663358
-0.00844873
-0.0630243
-0.0622974
-0.00486225
-0.086015
-0.0649348
-0.000281845
-0.0188787
-6.05922e-05
-0.0554981
-3.77615e-05
-0.000279813
0.0292281
0.234342
1.93386e-07
-0.0664517
0.00582223
0.000139317
-0.0315807
1.53229e-05
-0.0212703
-0.000385893
-0.0570127
0.000221966
-0.000123825
-0.00317545
-4.86751e-05
0.228783
-0.0456013
0.0934294
-3.07503e-05
0.00104732
-0.0485598
2.49929e-06
-0.0824471
-0.0949742
-0.0807311
0.712468
-0.0101566
-2.22563e-05
0.041032
-0.0613422
-0.00394108
-1.5357e-05
-0.000122355
-0.0693321
0.000226303
0.00145099
2.40983e-08
0.000281234
-0.0421909
0.0943428
-0.0742392
0.139735
-0.00837312
-1.63337e-06
0.010485
-0.0706997
-2.82116e-05
-1.62923e-05
0.000544478
0.000116681
0.0006829
0.280701
0.0551714
0.00010276
2.47344e-05
-0.0952607
0.286737
0.252246
-6.05875e-05
-0.0537641
-0.0290171
-0.0158198
-0.0702836
-0.013008
-0.00454338
0.203768
-4.99352e-05
-0.0397143
0.241531
-0.0714028
-1.13905e-05
-0.0889338
-0.000257951
0.385991
0.0445632
-3.2835e-06
-3.25591e-05
0.262663
7.8397e-06
-0.000260841
-0.0182096
3.14424e-05
0.34412
0.00553132
-0.0114348
-0.0936191
-0.00587522
-0.0969713
0.262723
-0.0152775
-0.0317866
0.00163259
-2.07797e-05
-0.00156897
2.18754e-06
-1.42301e-05
0.0386328
0.258924
0.216037
-0.000664697
0.348966
-0.0168394
1.90601e-05
-0.0671953
-1.31167e-05
-0.0417567
0.0462405
-0.0218964
0.00713411
0.00305054
-0.0144367
0.000432366
-0.00258386
0.0315793
-0.00448612
-5.71782e-05
5.62069e-05
-8.6522e-05
0.0490876
0.000103732
-0.0328517
0.369931
-0.00935133
9.26659e-05
-0.00538433
-3.72837e-06
0.075464
-0.000536829
-9.17622e-05
-0.000121208
-1.35966e-05
0.30089
-0.000211519
0.32958
-0.0882487
0.000199509
-0.073972
-0.000719779
0.225325
0.70082
-0.0021718
4.868e-06
3.60439e-05
-2.40974e-05
0.18863
1.53269e-06
0.00172835
-0.0366203
0.313435
1.59423e-05
3.34183e-05
5.51401e-06
4.77923e-05
-0.0311716
3.88336e-06
0.346126
-0.0241787
-0.000181298
5.55577e-05
-0.00319022
-0.0434369
2.59447e-06
-7.91317e-05
0.237714
6.30097e-05
-0.0476021
-0.0646127
0.000232629
1.7592e-06
-0.128786
2.53103e-06
0.233252
2.82481e-05
-0.000672107
2.51455e-05
-0.000258041
0.137083
8.94679e-06
-0.00251865
2.11466e-05
0.0210828
-0.00525626
-0.00991314
0.00151932
0.221296
-0.000383502
-0.000110772
-0.0136863
-0.0132276
-0.000365042
-5.72358e-05
-0.00136698
7.73542e-05
0.215824
-0.0156859
0.692312
3.92368e-06
-0.0118151
-0.000213732
0.187021
0.000105753
-0.0393243
4.4962e-05
-0.00243306
-0.0496171
-0.000341274
-0.0239546
-0.0721057
0.00808872
-3.24396e-07
-0.0774721
-0.000496614
-0.000422628
-0.00857149
-0.0193471
0.00212373
-5.11189e-05
-0.000656208
-0.00135011
-0.00196517
3.04834e-05
-0.0018576
0.678282
0.000173292
-0.00503615
-0.05176
-0.104653
-0.0910158
-0.0698702
-0.0327616
-0.000770764
-0.022242
0.000139436
-0.000113474
0.678195
-0.00013405
0.241747
-0.000676648
0.00066717
-0.00173961
-0.0766605
-0.000629395
0.0011477
-1.35762e-05
-0.000591055
-6.40269e-06
-0.000111516
-0.0228122
-0.000151701
-1.9542e-05
-0.000117257
0.000262432
-4.66486e-06
-0.0623972
0.293976
-1.01811e-05
-0.000906651
7.90126e-05
5.8553e-05
-0.00127078
2.02488e-05
-0.00137859
0.000481476
-0.000550097
-0.092366
-0.00104405
-0.00279198
1.19758e-05
-0.00235144
0.000562506
-1.89286e-05
-8.85879e-06
2.68745e-05
-0.00120971
0.000889567
-0.0648375
-0.0397281
-0.0933262
0.00104701
-0.00279493
-0.0230373
-0.0939972
-0.000134186
0.024811
0.0108365
-0.00158773
-0.0180114
-0.081396
0.615001
-0.000632837
-1.67477e-05
0.00147145
9.21708e-05
3.50817e-05
0.110541
0.00582526
0.128088
-0.051306
0.597051
-0.000783817
6.28903e-06
0.000261923
-1.9062e-05
-0.0020796
0.214484
0.312531
-6.20499e-07
-0.000242219
-1.44933e-05
0.29666
0.0291338
-0.00814423
2.35399e-05
3.73518e-05
0.0115195
-0.00105227
-0.101055
-0.0251833
5.20152e-05
0.00557119
-0.0454069
-8.30577e-05
0.00295832
-8.61824e-05
-0.0668347
-0.00269211
0.206013
3.2876e-05
0.00271578
8.26395e-06
3.08039e-05
0.000296938
-0.0343877
2.99085e-05
-0.00138817
4.67303e-05
-0.0294112
-0.0665187
-0.00459089
-0.0102408
-0.0130997
0.0144542
-0.0132653
-0.00379884
0.000122682
0.000188045
4.21125e-05
3.67382e-05
-7.78542e-05
0.0141617
-0.0807265
0.000811119
-0.0590869
-0.00472851
-0.069243
0.000155972
8.46837e-06
0.00212748
-0.0845538
3.67229e-05
-0.0593153
-0.021977
-0.0347559
-0.0585695
5.17627e-05
-0.00526413
0.000332735
-0.140355
0.191573
3.03779e-05
-0.0848196
-0.0327965
-0.00648048
7.40182e-05
-7.82082e-06
0.0420275
-0.0249384
5.02507e-05
-0.0103213
9.65388e-06
0.000368399
0.176802
-8.57777e-06
2.02513e-05
-0.000106624
6.70843e-05
0.00147528
0.000155403
-0.00795756
0.000398299
-0.0189162
0.00180449
-0.000296648
-0.0459758
-0.0620823
-0.00954279
-1.87883e-05
4.32454e-05
-0.0810899
0.00910613
-0.068765
6.03701e-05
-0.00785787
-4.82649e-05
4.92176e-05
0.104615
-0.0106151
-0.00424529
1.15012e-05
-0.0264325
9.20393e-05
-0.0949799
5.43996e-05
-0.106924
4.66966e-05
-5.53561e-06
0.000151447
0.00166517
-0.0896373
-0.0270252
-0.0975854
3.70892e-05
0.000168926
-0.109099
-0.034596
-0.0127505
-1.31787e-06
-0.033205
-0.0711198
-0.110073
1.7435e-05
-5.22959e-06
2.69219e-05
-0.0869812
-0.0941586
0.00119269
-0.0166033
-7.14345e-05
0.28213
0.000165726
3.60796e-05
0.000259579
7.69968e-06
-5.5648e-06
-0.00549433
0.000202764
-0.00385749
-0.0901411
-0.0196036
-0.0839331
7.97703e-05
-7.03324e-05
0.0768979
-0.0635467
-0.00717531
0.160797
3.20596e-05
-1.18657e-05
-1.08339e-05
0.133246
0.000297467
2.5579e-05
3.72966e-06
-0.0821175
-0.023106
2.54906e-05
0.000154755
-0.0138999
-0.00967577
0.00071479
0.316052
-0.0819487
0.000372525
0.869315
-2.46015e-06
-0.00101891
-0.0124359
-0.111071
2.07406e-05
1.40252e-05
4.18576e-05
0.00757132
-0.0458364
-0.00049234
-0.0708012
-0.0116591
5.92765e-05
-4.35338e-06
-0.0152342
-0.0026002
-0.0120601
-0.0772002
-0.0659502
-0.0565232
0.00403331
-0.0391866
-8.59951e-05
0.000588831
0.0157766
0.000879929
-8.65073e-05
0.00125648
7.04169e-05
-0.000111454
-0.0180988
-1.37934e-05
-2.95444e-05
0.0561023
-0.0219617
-0.000209255
-3.36823e-05
6.58027e-08
0.345394
-0.00996737
0.00129414
-0.0409552
0.000384682
0.000338639
0.000291953
-6.34199e-05
0.000792629
-0.0548431
0.0267365
-1.00285e-05
-0.000214869
-0.0595711
-0.0452406
0.0722774
-0.000727338
0.00296262
0.0275446
1.4065e-05
0.000112845
-0.06513
4.33158e-05
0.23064
3.45992e-05
0.00662056
0.000284222
0.000379401
-0.100131
-0.0110392
-0.0265099
-0.00364102
5.09097e-05
0.0104146
0.0903042
-0.018351
-0.000186715
0.136586
0.226214
1.11673e-05
-0.0749051
-8.79869e-05
-5.84545e-06
-5.97866e-05
-0.000840405
0.0303921
1.39936e-05
0.000417792
-0.0362097
-0.0379252
-0.0326175
0.433234
4.74508e-05
-9.43712e-05
0.237395
-0.00596957
-0.0057202
-0.000972931
0.234236
9.09932e-05
-0.000435434
9.81694e-05
6.65478e-05
6.01973e-05
6.86895e-05
0.000129967
-0.0264751
2.68906e-05
-0.00499455
-0.0647941
0.330069
-0.000172692
-6.70979e-05
0.00740884
0.123378
-0.0635201
-0.00112661
-0.0999856
0.430305
8.02012e-05
0.562727
-1.63413e-06
0.00526093
0.0372846
0.000714272
0.608192
4.61738e-06
-4.38248e-06
0.00189136
5.97584e-05
-0.0012969
0.000439463
3.25088e-05
-0.00296751
4.20039e-05
-0.000201469
-0.00499794
0.337125
0.076899
0.0337832
-0.0638379
-3.89796e-06
-1.44563e-05
0.00534388
-0.0756214
-5.87649e-06
-0.0678068
-7.13957e-05
0.148971
0.0909523
-0.0480266
-0.00203317
-0.0174536
-0.00147792
-0.0221466
0.00649881
-0.0109328
0.0942306
5.64656e-06
0.320772
0.0466737
-0.000836906
0.292869
-0.0199935
-1.48165e-05
5.45829e-05
0.000120128
-0.000308054
-0.000159126
0.340756
-0.00147523
0.349872
-0.0015689
0.231452
0.306777
0.145733
-0.0106041
2.21761e-06
0.000128829
-0.0159207
-0.122813
-0.0697231
0.00240172
5.46177e-05
-0.0560288
-0.000424203
3.88403e-05
0.00163708
-0.00161226
-0.000911834
0.0503995
0.000134
-0.0707819
0.0863356
0.000105134
0.000451726
-0.0209642
-0.0816152
-0.00109466
-0.000771092
3.85574e-05
0.000422331
0.0935919
-0.0251366
-0.0689184
0.002111
0.124524
-0.0569432
7.56406e-05
5.10777e-05
0.0338799
-0.000106801
0.107768
0.00325756
-0.0203789
-0.000560554
0.00263813
-0.0527533
-2.41558e-05
0.000804245
0.00420484
-0.106196
0.203455
-0.090325
-0.0398692
-0.000215517
-6.17357e-05
0.0104785
8.95224e-05
-0.107688
-0.094362
0.000916716
0.00534817
0.00596777
-0.112358
0.00103495
0.000329353
8.24087e-05
-0.0600788
5.83739e-05
0.000909399
0.174177
0.251723
-0.123131
0.0733595
0.0724982
0.033003
-0.000202889
0.0187937
0.000213173
1.66126e-05
-7.42295e-05
1.32572e-06
8.12279e-05
-0.000527437
-0.0115492
-0.0661024
-0.0147365
-0.0419533
0.0793113
0.0662816
0.00640506
-0.090585
0.00028299
0.00730108
0.0174869
-0.00057327
0.110975
-0.00181402
-0.016421
0.0189842
0.00861017
0.00167598
-0.00611312
0.0659575
0.00134775
-0.0295267
-0.0246597
0.720585
-0.0366462
0.119178
0.0356713
-0.0535278
0.00353587
0.000189471
-0.00392789
0.000115605
-0.00400675
-0.0376105
-9.36909e-05
-2.86277e-05
0.377553
-0.00500179
-0.0616841
-0.0282684
0.000359822
-0.0020977
-2.40678e-05
2.18171e-05
0.0591662
7.87704e-05
-0.00447283
0.112121
0.00977659
0.00180235
0.0285381
-0.00874662
0.00661491
-0.119461
0.00141667
-0.00674549
-0.0816089
-0.00127348
-0.0122712
0.00125581
0.00190011
0.00160563
0.0574394
-0.000436359
0.00886368
-0.0793406
-0.0309054
0.000540917
-0.079153
-0.0225551
-0.0259496
0.000205932
0.0103852
-0.0941594
-0.00126017
-0.00734708
-0.0738699
0.000620626
-0.00177494
0.308106
-0.0311451
-5.43154e-05
0.012932
-0.072318
-0.00158771
0.273491
-0.00324797
0.00164729
0.0881633
-0.00216236
0.0128903
0.182467
0.000153855
0.00188874
0.000305692
8.44767e-05
-0.00681353
-0.0106486
-0.000153095
-0.036167
0.142638
-0.0555864
-0.0979501
0.00187575
-0.0049605
-0.000863582
-0.0569174
6.88724e-05
0.0268074
0.000102166
-0.0239898
-0.00296687
-0.00754201
-0.0809629
0.166399
-0.103407
-6.90882e-05
0.269763
-0.00290841
-0.00369954
-0.0869248
-0.10779
-0.0234279
-3.61451e-05
-0.00164141
0.0113459
-0.00468783
-0.00719529
0.000742513
0.12683
-0.0617596
-0.0168295
-0.0101392
0.0374215
-0.00332612
-0.00119359
0.00272974
4.04187e-05
-0.00469678
0.163133
0.00130368
-0.129779
-4.72696e-05
-0.0111516
-0.00527854
-0.113742
-0.0173611
-0.127681
-8.5998e-05
-8.15846e-05
-0.00562574
0.0163767
0.00291945
-0.138282
0.125783
-0.0708645
0.000321825
-0.146533
6.3787e-05
-0.151
-0.0380177
-0.164756
-0.170274
-0.173291
-0.169116
-0.146502
-0.127963
-0.104754
-0.0700235
-0.0347241
0.116273
0.168884
0.225224
0.320844
-0.012212
-0.0111388
0.0916402
-0.0250984
0.00146866
0.0258989
-0.0596837
0.0009267
-0.000937387
-2.15334e-06
-0.0213479
0.0274731
8.48575e-05
-0.00041273
-0.0158977
-0.0068865
-0.162924
-0.0184028
-0.0817567
2.9502e-05
0.000955855
-6.82431e-05
-0.0712634
-0.0132124
-0.0536604
-0.014654
0.00278101
0.000407905
0.0074062
-4.31361e-05
-0.0122299
9.59806e-06
0.000610864
-0.0083367
-0.0173663
-0.000311632
0.000539208
0.0726428
-0.0155583
0.0947143
-0.156913
-0.011268
0.0584414
-0.0281044
0.00580207
-0.0322491
-0.00491151
-0.0188648
-0.0186973
0.476679
-0.00191417
0.000133698
-0.00877457
-0.0133926
7.19292e-06
0.118418
-0.00607863
0.444668
-0.162119
-0.0662328
-0.0398398
0.0693529
-0.00717742
-6.4877e-05
-9.31672e-06
-0.00632357
-0.0795735
0.00011336
0.478279
-0.00413698
-0.00743406
-6.57968e-05
-0.000558218
-0.00933442
0.0113632
-0.0852256
0.171828
0.00102697
-0.0213623
-7.2176e-06
0.0412491
-0.0117279
0.0298295
-0.0224335
-0.0082143
-0.00117666
0.00211493
0.0181814
-1.48647e-05
-0.0144198
0.000947978
-0.000574529