/*--------------------------------*- C++ -*----------------------------------*\
  =========                 |
  \\      /  F ield         | OpenFOAM: The Open Source CFD Toolbox
   \\    /   O peration     | Website:  https://openfoam.org
    \\  /    A nd           | Version:  7
     \\/     M anipulation  |
\*---------------------------------------------------------------------------*/
FoamFile
{
    version     2.0;
    format      ascii;
    class       volVectorField;
    location    "13";
    object      U;
}
// * * * * * * * * * * * * * * * * * * * * * * * * * * * * * * * * * * * * * //

dimensions      [0 1 -1 0 0 0 0];

internalField   nonuniform List<vector> 
7639
(
(1.11866 0.141548 7.58894e-21)
(1.03408 -0.0397309 1.25503e-21)
(1.00006 0.119354 -1.79492e-20)
(1.04499 0.0646442 2.36551e-20)
(0.999402 -0.000709866 -4.0088e-23)
(0.999973 -7.32667e-06 -4.00979e-24)
(0.992657 0.0968848 -3.56922e-20)
(0.996297 -0.00132537 -8.62775e-24)
(0.999912 -0.000132617 -6.84992e-24)
(1.02076 -0.000410858 -1.08384e-21)
(0.999975 -8.51501e-06 4.42408e-24)
(1.00161 -0.000969149 -1.69497e-22)
(0.994349 -0.00168227 4.20301e-22)
(1.01474 -0.00176911 -6.81639e-21)
(1.02021 0.000436873 4.58766e-21)
(0.993569 -0.010474 -8.36459e-22)
(1.12465 0.150781 -1.59028e-20)
(0.992432 -0.00212875 -1.46892e-22)
(1.00153 -0.00691155 -5.52458e-23)
(0.978743 -0.060541 -6.62703e-22)
(1.02815 -0.00635871 -2.29706e-21)
(1.00106 -0.000509369 3.20537e-22)
(1.01384 -0.002983 5.83006e-22)
(1.01171 0.0278759 -1.22471e-20)
(0.989981 -0.00262818 -6.69179e-22)
(1.11086 0.140835 -7.69641e-21)
(0.999417 -0.000669682 -2.87089e-23)
(1.01912 -0.00172771 2.69767e-21)
(1.00553 0.0140233 -1.54694e-21)
(1.00243 -0.00744298 4.53251e-23)
(0.990436 -0.0109194 -1.52226e-21)
(0.860918 0.0416814 5.48323e-21)
(1.01333 -0.00347257 3.59437e-21)
(0.999665 -0.000287243 4.97465e-23)
(0.999927 -3.49261e-06 9.27187e-26)
(1.01926 1.83958e-06 1.60407e-21)
(1.00295 -0.00821802 5.4332e-23)
(0.997767 0.0933116 -5.66008e-21)
(0.997391 -0.00570289 6.87945e-22)
(0.999767 -4.06531e-05 4.72148e-23)
(0.997632 -0.00587053 -7.90769e-23)
(0.993713 -0.00976715 -3.10805e-22)
(0.991966 -0.070028 2.91594e-21)
(1.09412 -0.0849281 5.45306e-22)
(0.99986 -7.03085e-06 1.51816e-23)
(0.999946 -1.21756e-05 -4.2331e-24)
(1.00096 -0.000428227 -1.95883e-22)
(0.997155 -0.00513263 -4.06291e-22)
(0.999954 -2.14132e-05 -3.38472e-24)
(0.980907 -0.0615492 9.6092e-22)
(1.00234 -0.000860721 1.8224e-22)
(1.019 -0.000548525 -2.80134e-21)
(0.987022 -0.00311344 -2.24793e-21)
(1.00629 -0.0231371 9.57364e-23)
(1.01924 -0.00132405 -9.3526e-22)
(0.996724 -0.00184176 -7.71512e-23)
(1.00139 -0.00652226 1.18462e-22)
(0.996279 -0.00114251 5.73631e-22)
(0.983956 -0.012715 -2.68057e-21)
(0.999657 -0.00025461 -6.39706e-23)
(1.00003 -1.67948e-05 -7.76853e-24)
(1.0031 -0.000821075 2.03862e-22)
(1.01517 -0.00110403 -1.6069e-21)
(1.00172 -0.000841142 1.71602e-22)
(0.999336 -0.000145886 9.2272e-23)
(0.990781 -0.0113611 2.68523e-22)
(0.999933 -0.000134007 5.1987e-24)
(1.00001 -1.59081e-06 5.57551e-25)
(1.17994 0.00521855 2.15699e-21)
(0.997241 -0.00486528 -1.20237e-22)
(0.99995 -1.45537e-05 3.75775e-24)
(0.976956 -0.0364297 -4.86994e-21)
(0.990392 -0.00291851 3.25463e-22)
(0.982244 -0.00374392 4.41389e-22)
(0.99275 -0.00235053 4.59903e-22)
(0.975629 -0.0176438 -5.81726e-22)
(1.00482 0.120899 2.88652e-20)
(1.02636 -0.00586653 2.93156e-21)
(1.07182 -0.0184072 -4.65493e-21)
(0.968124 -0.0289612 -6.12839e-21)
(0.994605 -0.00186114 -6.45297e-22)
(1.00008 0.0564711 3.51093e-20)
(1.03463 0.00136007 6.91801e-21)
(0.981819 -0.00666125 2.028e-21)
(0.999046 -0.00181053 -6.41402e-23)
(0.998426 -0.00022658 6.85549e-23)
(0.996047 -0.00174699 7.91407e-22)
(0.987506 -0.00348618 1.44636e-21)
(0.99954 -0.00084741 4.3015e-23)
(0.996885 -0.000480057 2.45739e-22)
(1.00583 0.0159985 1.15122e-20)
(1.12321 -0.0985257 -1.04901e-21)
(0.999909 -3.969e-05 -9.05827e-24)
(1.00122 -0.00552929 4.8538e-23)
(0.997531 -0.000735437 2.22682e-22)
(0.982016 -0.00209552 -3.52627e-21)
(0.978483 -0.0363601 3.17908e-22)
(1.00759 -0.0225284 8.1806e-23)
(0.998964 -0.00174449 2.19566e-23)
(0.999211 -0.000133264 3.10125e-23)
(0.966636 -0.0103851 1.50696e-21)
(1.07465 -0.01449 3.89356e-21)
(0.997669 -0.000834728 -5.554e-22)
(0.999981 -7.22373e-07 -3.31214e-25)
(1.13434 -0.0943502 -9.25593e-22)
(1.0309 0.0251873 -1.09377e-20)
(0.928263 0.0300634 6.23785e-21)
(0.996506 -0.00174136 -3.20143e-22)
(0.999994 -1.13067e-06 4.87992e-26)
(1.01859 -0.0119187 -1.21775e-21)
(1.04821 0.0601714 -2.7476e-20)
(1.00703 -0.0577243 -3.4354e-21)
(0.999993 -1.75077e-06 -8.89227e-26)
(1.02004 -0.0127787 -2.6326e-22)
(1.02714 0.0245431 1.15087e-20)
(1.00029 -0.000409215 -1.54764e-23)
(1.02972 -0.0784989 -1.84233e-22)
(1.02874 0.0129081 -2.61909e-21)
(0.985687 -0.0301105 2.12713e-21)
(0.98201 -0.00455541 -4.60784e-22)
(0.964699 -0.00676909 -3.63422e-21)
(1.00135 0.0398473 -2.28536e-20)
(0.995513 -0.0704077 -4.00835e-21)
(1.00684 -0.00596607 1.03112e-22)
(0.96579 -0.00776551 1.43174e-21)
(0.999345 -0.00097487 9.61761e-23)
(0.991263 -0.00828226 5.02723e-22)
(1.00196 -0.0062947 -8.16574e-23)
(0.999298 -0.000107264 -2.05802e-22)
(0.990461 -0.0100401 2.61201e-23)
(1.12582 -0.134212 -7.96777e-22)
(1.06593 -0.0179003 8.03875e-22)
(0.999586 -0.000381626 5.41181e-24)
(0.999472 -0.000871145 -8.34172e-23)
(0.98102 -0.00607103 6.02368e-22)
(1.04422 0.0524307 1.00301e-20)
(0.994325 0.0330127 4.14354e-20)
(0.999983 -2.31783e-06 -3.91346e-25)
(1.00558 -0.00227609 8.56888e-23)
(0.953051 -0.00808183 -4.51518e-21)
(0.98333 -0.00271262 -1.80699e-21)
(0.986847 -0.0416621 -3.11566e-21)
(0.975831 -0.019006 7.879e-22)
(0.983202 -0.00339179 -3.95624e-23)
(0.921299 0.0235845 2.43055e-20)
(1.00477 -0.0344407 -1.10958e-22)
(1.01169 0.0159995 -5.8506e-21)
(0.985305 -0.0153159 -1.38545e-21)
(0.975599 -0.00353482 4.96868e-22)
(1.00119 0.0495844 -1.13369e-20)
(1.01991 0.00106728 4.00524e-21)
(1.11307 -0.0900573 1.47772e-22)
(0.998942 -0.0014193 -2.25671e-22)
(1.17852 -0.00821359 1.50797e-23)
(1.03291 0.00139626 -7.21501e-21)
(1.01223 0.0961107 -2.8402e-20)
(0.972033 -0.0203775 2.41363e-21)
(0.994351 -0.00128026 1.42084e-22)
(0.939734 0.079962 5.42181e-20)
(0.999957 -1.76337e-05 -3.15416e-24)
(1.00086 -0.00578154 -3.18133e-23)
(1.01264 0.0313124 8.85681e-21)
(0.999985 -1.38673e-05 1.74938e-24)
(0.99875 -0.00367944 -3.19596e-22)
(0.997216 -0.000705804 -1.0664e-22)
(1.00476 0.0384894 -2.93165e-21)
(1.00269 0.0343517 1.09128e-20)
(0.930598 0.0884277 1.80647e-20)
(0.99858 -0.00355428 -2.01262e-22)
(0.997838 -0.000259548 -1.20406e-22)
(1.00001 -1.8007e-06 -5.25506e-25)
(0.962769 -0.00411564 -6.24528e-21)
(1.00027 -0.000361341 2.13246e-23)
(1.03649 -0.0373901 -1.47695e-21)
(1.00569 -0.00255953 5.67336e-22)
(0.976129 -0.00418814 1.02959e-21)
(1.13616 -0.079995 -8.9063e-22)
(1.12961 0.0425427 1.72621e-22)
(0.999908 -4.57427e-05 4.93333e-24)
(0.999643 -0.000452131 -5.62756e-23)
(1.04743 0.0687114 -4.18265e-21)
(0.999958 -1.35671e-05 -1.53655e-24)
(0.999923 -8.36782e-06 2.35158e-24)
(0.99336 0.103488 -2.94641e-20)
(1.03434 -0.0427351 1.52946e-22)
(1.00102 -0.0472153 -1.93082e-21)
(0.987099 -0.0294091 -3.01974e-21)
(0.983733 -0.00491938 1.32509e-21)
(1.00257 -0.0349021 1.99638e-22)
(0.954109 -0.00683695 2.37072e-21)
(0.999985 -1.26885e-05 -6.49611e-25)
(0.979209 -0.0342401 -1.16809e-21)
(1.1379 0.049988 -6.0937e-21)
(0.997653 -0.00101709 7.97962e-23)
(1.00005 -4.40433e-06 -5.48183e-24)
(1.0973 0.062785 7.38003e-22)
(0.999139 -0.000275917 2.19457e-22)
(0.991048 -0.00969135 8.03821e-22)
(1.00108 -0.03275 6.58087e-22)
(1.00001 -1.21049e-06 -2.27138e-25)
(1.00059 -0.0014356 -8.72307e-23)
(1.04002 0.0526985 1.26274e-20)
(1.12505 0.0662327 -8.82008e-21)
(1.00578 0.0840921 -3.82367e-21)
(1.02968 -0.0737511 1.49526e-21)
(1.01012 -0.0562567 7.81662e-22)
(1.04259 -0.111668 -5.7882e-22)
(1.01926 -0.00286698 8.02163e-21)
(1.03595 0.0497921 -4.07829e-21)
(0.999852 -1.48191e-05 -1.77682e-23)
(1.00003 -1.41577e-05 2.07678e-24)
(0.94577 0.0122017 -2.3955e-20)
(0.994594 -0.00941598 -2.93789e-22)
(0.99957 -0.000343063 -5.42669e-23)
(0.980712 -0.0339116 2.43349e-21)
(0.990852 -0.00871069 -5.85862e-22)
(1.02302 0.0867537 -3.14476e-20)
(1.01819 0.0842305 -6.62645e-21)
(0.984853 -0.0423146 8.49005e-22)
(0.887408 0.0586961 -2.0728e-20)
(0.999199 -0.000316348 -1.61106e-22)
(0.992472 -0.00182442 5.24892e-22)
(0.965475 -0.0094385 1.98261e-21)
(1.02794 -0.00199386 -1.66632e-21)
(0.988816 -0.0846967 -3.65821e-22)
(1.15334 0.126936 -1.45547e-20)
(0.939836 0.0701095 -4.63686e-20)
(1.00005 -7.78836e-05 6.28485e-24)
(1.00681 -0.00566707 2.82634e-22)
(1.02712 0.0156235 1.41967e-20)
(0.997265 -0.00425581 -5.2297e-22)
(1.03103 0.0127917 -1.78371e-21)
(0.999621 -0.00091712 -1.35896e-23)
(0.904797 0.0996065 3.66456e-20)
(1.01211 0.0879709 6.29979e-21)
(0.996052 -0.00150178 5.02785e-22)
(1.00258 -0.00623504 -1.22111e-23)
(0.999781 -5.04186e-05 -8.78486e-23)
(1.18651 0.0595965 2.6808e-21)
(0.999933 -9.15958e-06 6.98329e-24)
(0.996131 -0.00781441 2.41786e-22)
(0.95836 -0.0182104 2.68796e-21)
(0.999949 -1.83961e-05 -1.55408e-24)
(0.999125 -0.00210116 -5.56676e-23)
(0.999705 -0.000893756 2.51573e-23)
(1.07535 0.0313101 9.75261e-21)
(0.999986 -1.77451e-05 2.07229e-24)
(0.996756 -0.000370689 2.8337e-25)
(0.969601 -0.0289056 7.11101e-21)
(0.862417 0.0311762 -1.20923e-20)
(1.06344 -0.0213459 -1.10923e-21)
(0.918384 0.0668364 2.79462e-20)
(0.999969 -6.52468e-06 -3.74467e-24)
(0.999418 -0.0329797 -4.8153e-23)
(0.999869 -0.000226549 -1.94254e-23)
(1.00623 0.0992521 -2.873e-20)
(1.00274 -0.00054304 -2.629e-22)
(0.991926 0.0379907 1.3493e-20)
(1.00191 -0.00754294 -2.25504e-22)
(1.00053 -0.0014871 9.4142e-23)
(1.01907 -0.0291873 -4.5644e-22)
(1.01925 -0.00157206 -7.4291e-21)
(1.0004 -0.000243912 4.37093e-23)
(0.99984 -3.99188e-05 4.47326e-25)
(1.00035 -0.00033011 9.8867e-23)
(0.997111 -0.0045009 -4.64008e-22)
(1.00486 -0.0503534 2.19966e-21)
(0.99997 -8.93007e-06 2.53425e-24)
(0.973119 -0.0196342 1.69176e-21)
(0.997355 -0.00082053 -2.00406e-23)
(0.999899 -3.42086e-05 9.63057e-24)
(0.999565 -0.00042485 1.77132e-23)
(0.987338 0.0594981 3.2437e-20)
(0.994323 -0.000599289 2.06625e-22)
(0.999463 -8.39152e-05 -1.84793e-23)
(0.894774 0.0140752 4.61185e-20)
(0.999023 -0.00202635 -1.261e-22)
(1.08698 0.0989675 -9.30476e-21)
(0.999854 -0.000210485 3.5649e-23)
(1.00489 -0.01742 6.07875e-23)
(1.00001 -7.28195e-07 -1.90718e-25)
(0.986091 -0.0245086 -1.21589e-21)
(1.02731 -0.00160305 2.58991e-21)
(1.14495 -0.0765728 1.48652e-21)
(0.98406 -0.0136822 2.27017e-21)
(0.999711 -0.000459474 6.50973e-23)
(0.979883 -0.0523325 1.52925e-21)
(0.988306 -0.000331077 9.49553e-22)
(0.99987 -1.60865e-05 9.87544e-25)
(1.00033 -0.000284668 -8.75155e-23)
(0.998497 -0.00260224 1.73864e-22)
(0.994574 -0.00106704 -6.16936e-22)
(1.00227 -0.000695149 -3.1189e-22)
(0.999111 -0.00145467 8.13109e-23)
(0.982721 -0.00624289 3.18834e-22)
(1.00821 -0.0496356 -1.60939e-21)
(0.982843 -0.00524183 1.41627e-21)
(1.09551 -0.0757415 -1.29555e-22)
(0.977476 -0.00568619 -1.80047e-21)
(1.02909 0.116042 3.20243e-21)
(1.02398 0.119902 -2.34808e-20)
(0.998932 -0.000574552 -1.40444e-22)
(1.1575 -0.0973543 -4.80179e-21)
(0.999988 -2.73853e-06 -2.11183e-25)
(0.998466 -0.00321748 -2.10812e-22)
(0.981588 -0.0014595 3.61892e-21)
(1.0089 0.0246456 7.33303e-21)
(1.03739 0.00505742 -6.80115e-21)
(1.00007 -2.77178e-05 1.23948e-23)
(0.998532 -0.00304171 -1.38596e-23)
(0.978223 -0.00631288 1.35703e-21)
(1.05695 0.0305592 -4.07612e-21)
(0.999294 -0.000902552 7.2417e-23)
(1.00245 -0.000641749 1.75811e-22)
(1.0009 -0.000737214 -1.58769e-23)
(1.12149 -0.0239105 2.88738e-21)
(1.11856 -0.137909 -4.3475e-21)
(1.05935 0.142347 1.47005e-20)
(0.998864 -0.000174124 -1.37558e-22)
(1.04147 -0.0443449 -7.61957e-22)
(0.999919 -5.05623e-05 -7.79488e-24)
(1.00348 -0.00559388 -5.97509e-22)
(0.999961 -9.94569e-06 -1.08351e-24)
(0.98901 -0.0150587 3.91141e-22)
(0.999756 -5.59236e-05 -1.68713e-23)
(1.00815 -0.0174301 1.39407e-22)
(1.17063 -0.120393 5.57546e-21)
(0.98049 -0.019067 2.69958e-21)
(1.00579 -0.0170922 -6.38301e-23)
(1.00619 -0.00501364 -3.66487e-22)
(0.999479 -0.000109073 8.28414e-23)
(1.01991 -0.0163651 8.54172e-22)
(0.996976 -0.0139791 3.74621e-22)
(1.07142 -0.00745058 -2.40392e-21)
(1.0689 0.0308467 4.50581e-21)
(1.05783 -0.139794 4.90937e-23)
(1.08747 -0.0882836 -1.93916e-21)
(0.987818 -0.000679949 -1.01639e-21)
(1.00373 -0.00279584 5.62136e-22)
(0.959846 -0.0173488 -1.04293e-21)
(0.921051 0.087496 -5.62381e-20)
(1.07565 -0.078514 1.84704e-21)
(1.02099 -0.0106845 -3.3885e-21)
(0.896867 0.063547 -2.81362e-20)
(0.998899 -0.000125313 6.79096e-23)
(0.998744 -0.000713333 -4.33948e-23)
(1.10431 -0.0930223 -2.03831e-21)
(0.999215 -0.00155825 -4.35268e-23)
(1.00547 -0.032333 1.63857e-22)
(1.00435 -0.00147928 1.99229e-22)
(0.997946 -0.000315433 -1.0704e-22)
(0.998489 -0.000271729 -1.69226e-22)
(1.03267 0.0203641 8.31653e-21)
(0.999951 -0.000113555 -3.46585e-25)
(1.00038 -0.000189868 -3.89121e-23)
(1.00006 -1.17639e-05 9.37591e-24)
(0.997488 -0.000508301 5.7469e-22)
(0.995324 -0.00675274 6.48953e-22)
(0.999988 -2.68666e-06 1.59452e-25)
(0.999217 -0.000188885 1.76359e-23)
(0.984709 -0.0120991 7.98891e-22)
(0.94457 0.0181082 1.49739e-20)
(1.00708 -0.018033 -3.75132e-23)
(0.994658 -0.00879941 1.04766e-21)
(0.959409 0.0683192 6.40068e-21)
(1.00159 0.0379692 2.00499e-20)
(1.05773 -0.0130228 -2.02214e-21)
(1.15749 -0.085984 1.52026e-21)
(0.961935 -0.00303248 3.4082e-21)
(1.00371 -0.00318468 -2.7702e-22)
(1.0107 0.0428002 -1.12219e-21)
(0.991822 -0.00163152 -1.2529e-21)
(1.06027 0.103718 3.6493e-22)
(1.00179 -0.0372104 2.33462e-23)
(1.00393 -0.0829081 -1.38702e-21)
(1.11678 0.0638203 5.5463e-21)
(1.06509 0.110743 -1.26954e-20)
(0.974255 -0.0170302 3.78477e-21)
(1.03822 0.00319797 -4.37171e-21)
(1.16457 0.132657 1.3453e-20)
(1.07886 0.101816 1.79883e-20)
(1.0198 -0.00257294 2.53191e-21)
(0.997802 -0.00109858 1.25525e-22)
(0.996938 -0.00168328 1.09765e-22)
(0.999936 -1.64774e-05 -3.72218e-24)
(1.01074 -0.0228579 1.30733e-22)
(0.991602 -0.00136852 2.95124e-22)
(1.00074 -0.00182571 -7.66934e-23)
(0.999924 -1.82286e-05 -6.95034e-24)
(0.998824 -0.000530404 5.47589e-23)
(0.978527 -0.0512014 -2.517e-21)
(1.11447 -0.00134004 1.90776e-21)
(0.987399 -0.00427675 -1.6234e-21)
(0.999233 -0.00942824 4.00435e-22)
(0.997235 -0.000527396 -3.06873e-22)
(1.03875 -0.044984 -1.29275e-23)
(0.994821 -0.00112853 -9.92279e-22)
(1.0017 -0.00562831 2.28855e-22)
(1.18297 0.112604 2.28936e-21)
(0.998653 -0.000255478 -3.9429e-22)
(0.999984 -3.38886e-05 -1.35616e-24)
(0.99996 -0.000136082 -8.35119e-25)
(1.00003 -8.00971e-05 8.62977e-24)
(0.984422 -0.00550386 7.43284e-22)
(1.03045 0.0182307 -9.8088e-21)
(0.997062 -0.000404107 1.19047e-23)
(1.01792 -0.0087075 2.20101e-21)
(0.991662 -0.0893885 2.66748e-21)
(0.998846 0.086598 -6.35459e-22)
(1.00294 -0.00578036 1.97812e-22)
(1.00505 -0.00361439 -9.10354e-23)
(0.996286 -0.00189421 -3.99715e-22)
(0.992506 0.0595486 -3.1721e-20)
(0.999239 -8.89057e-05 5.60547e-23)
(1.06525 0.147797 -7.39155e-21)
(1.00959 0.0168535 -1.13231e-20)
(0.999917 -2.23857e-05 8.14332e-24)
(1.00031 -0.0375675 -1.18954e-21)
(0.997584 -0.000587158 -2.83242e-22)
(0.988855 -0.0426655 3.82263e-21)
(1.0004 -9.78102e-05 3.87942e-23)
(1.05461 -0.00898396 2.8736e-21)
(1.00487 -0.0126636 -7.65231e-24)
(1.00469 -0.0031446 4.55442e-23)
(0.999386 -0.000120995 -1.10921e-22)
(1.07983 0.0265468 4.63598e-21)
(1.05158 0.0302496 1.57255e-21)
(0.998928 -0.0486659 1.91748e-21)
(0.985155 -0.0141551 -1.53626e-22)
(0.998406 -0.00277373 -1.50317e-22)
(0.997654 -0.0296798 -2.17662e-21)
(1.16406 -0.0127966 -2.346e-21)
(0.868673 0.0485473 -2.65341e-20)
(1.04309 -0.0769326 -1.48339e-21)
(1.00377 -0.00607437 -9.33326e-23)
(0.999994 -1.32644e-06 -3.15614e-26)
(0.990326 -0.00354156 -1.30129e-21)
(0.998351 -0.000283819 3.65955e-22)
(1.019 -0.0158426 1.23943e-21)
(0.988931 -0.0721593 -1.18741e-21)
(1.14536 -0.103312 1.89952e-21)
(0.986403 0.0822802 -3.91435e-20)
(1.06008 0.0258543 6.60791e-21)
(1.04842 -0.107134 2.43356e-21)
(1.10049 0.0710712 2.46194e-21)
(0.999231 0.0399567 3.75574e-20)
(1.01588 -0.0024484 1.83369e-21)
(1.00088 -0.00175133 1.75254e-22)
(1.03146 0.0583158 6.39257e-21)
(0.999368 -0.00152683 9.71516e-23)
(0.999868 -0.000123923 7.63949e-24)
(0.986847 -0.00144958 4.55737e-22)
(1.00007 -2.59626e-05 2.35335e-24)
(1.04294 -0.119315 1.2102e-21)
(1.00237 -0.0137436 -6.77586e-23)
(0.987618 -0.0242976 2.05234e-21)
(1.00138 -0.00121704 8.77788e-23)
(1.08859 0.0613643 1.36268e-20)
(0.998707 -0.000239695 -3.25485e-23)
(0.999982 -2.70722e-05 -1.87811e-25)
(0.999049 -0.0836681 1.51459e-21)
(1.00122 -0.00101138 -5.12547e-23)
(1.08876 -0.036488 -5.57028e-22)
(0.968241 -0.00980004 7.0304e-22)
(0.955049 -0.0112561 3.47417e-22)
(1.2108 -0.0775452 2.56724e-22)
(1.02476 0.0149692 -3.70732e-21)
(1.01948 0.00387276 2.28413e-21)
(1.0184 0.00374073 -9.10208e-22)
(0.999853 -3.29102e-05 2.75327e-24)
(1.12156 -0.00737964 1.35205e-21)
(1.07364 -0.00428796 2.79758e-21)
(0.999631 -0.000486924 2.5557e-23)
(0.987942 -0.00465476 1.8858e-21)
(1.00045 -0.000154339 -4.31698e-23)
(1.00828 -0.0160653 -9.10003e-22)
(1.0051 -0.0220582 -4.92706e-23)
(1.00339 -0.00108191 1.99231e-24)
(0.999447 -0.00096903 -1.16622e-22)
(1.17602 0.0499714 -8.22838e-21)
(0.999985 -1.64202e-05 -2.49523e-24)
(1.00015 -7.89331e-05 -1.17198e-23)
(1.00153 -0.000788716 -3.54227e-24)
(0.983838 -0.00236154 1.25861e-21)
(1.01462 -0.00974876 1.54189e-21)
(0.98741 -0.020492 -2.91941e-21)
(0.980221 -0.00359397 -7.28525e-22)
(1.00319 -0.0473648 1.08395e-21)
(0.998554 -0.0984987 -2.85313e-21)
(1.01819 -0.0266039 3.24062e-22)
(1.0368 0.0582948 -3.63426e-20)
(1.17339 -0.106059 -3.86481e-21)
(0.995205 -0.00190064 -5.23023e-23)
(0.899807 0.0929116 4.36916e-20)
(0.979829 -0.037891 4.24521e-21)
(0.995106 -0.00718189 2.04898e-22)
(0.980696 -0.0029799 1.20453e-21)
(0.997898 -0.0135885 -1.08025e-22)
(0.984826 -0.00174746 1.92517e-21)
(0.992697 -0.00286018 -3.78861e-22)
(1.02123 -0.0126046 -2.33047e-21)
(1.07825 -0.0847851 -4.68513e-22)
(0.999981 -3.20641e-05 -2.12481e-25)
(1.01789 -0.0114165 -2.62025e-22)
(0.99993 -2.21218e-05 -3.92946e-24)
(1.01829 0.0989685 7.60896e-21)
(1.18972 0.0093686 3.99847e-21)
(0.996494 -0.00144603 1.2558e-22)
(0.989752 -0.00127311 -1.72909e-21)
(0.999864 -4.03681e-05 -2.02613e-23)
(0.998118 0.0539774 2.35226e-20)
(1.04755 0.11176 1.71672e-20)
(1.11846 -0.0173292 -1.48933e-21)
(1.21218 0.0831107 -6.29817e-21)
(0.979453 -0.0401185 -1.81624e-21)
(0.998389 0.0139757 -3.59477e-20)
(0.999954 -9.88448e-05 3.36461e-24)
(1.03501 -0.0283067 2.58049e-21)
(0.986597 -0.00110421 -7.14756e-23)
(1.11867 0.0444913 -2.53661e-21)
(0.929338 0.0637521 -3.40007e-20)
(1.16128 -0.023387 1.78611e-21)
(1.0523 0.0211508 1.09907e-21)
(0.999754 -0.00935981 -6.32961e-23)
(0.999856 -6.21994e-05 -1.86761e-23)
(1.20013 0.0570131 2.47627e-21)
(1.12879 -0.120906 8.69718e-22)
(0.996442 0.0609705 -7.22673e-22)
(1.08217 -0.0336962 3.28001e-21)
(1.03731 0.0450372 1.06624e-20)
(0.994915 -0.00169936 -1.76564e-22)
(0.99426 0.0819854 1.05974e-20)
(1.05203 0.104244 5.95423e-21)
(0.993526 -0.00241392 -1.06257e-21)
(0.994572 -0.00227431 -3.94486e-22)
(1.20351 0.0312906 -1.73639e-23)
(0.953518 -0.0103875 -4.75759e-21)
(0.999938 -0.000115685 -5.33737e-24)
(0.990777 -0.00383431 1.67468e-21)
(0.9567 -0.0147111 3.49109e-21)
(0.985065 -0.0517282 -5.34582e-22)
(1.00728 -0.0021015 -1.57821e-21)
(1.0061 -0.00454312 1.02662e-22)
(0.99991 -0.00014381 -1.03533e-23)
(1.05133 0.119073 -2.58447e-20)
(1.0001 -0.00839557 1.08882e-23)
(0.999925 -4.3325e-05 3.47086e-24)
(1.00914 -0.0460876 1.19394e-21)
(0.99964 -0.000319105 2.27211e-23)
(0.99984 -5.74247e-05 1.39347e-24)
(1.00371 -0.00929592 -1.09588e-22)
(1.07468 0.0657839 1.91141e-20)
(0.99766 -0.0746529 2.10047e-21)
(0.949274 0.064101 1.99083e-20)
(1.00005 -8.49935e-06 -6.62216e-24)
(1.0825 0.0683161 -1.97929e-20)
(1.00586 -0.0389087 9.23254e-22)
(0.999944 -0.000138901 -1.52432e-24)
(1.00002 -4.48185e-06 -2.18785e-24)
(1.00342 0.0109477 -1.86619e-21)
(1.06548 0.0553699 7.19738e-21)
(0.997155 -0.001779 1.09236e-22)
(1.0561 0.0409601 -9.39488e-21)
(1.00002 -1.42329e-05 1.58194e-24)
(1.05816 0.0469039 -1.29341e-20)
(1.05108 -0.132926 3.24039e-21)
(0.993183 -0.00215688 1.1692e-21)
(0.99912 0.0218314 -4.86893e-20)
(0.981191 -0.0320183 2.83112e-21)
(1.21249 0.0687957 5.62485e-21)
(0.981556 -0.00301119 7.26338e-22)
(1.06412 0.0487521 1.68836e-20)
(1.07271 0.0575267 -5.22292e-21)
(0.98849 -0.00575014 2.7182e-21)
(0.985035 -0.00691743 -1.99876e-21)
(0.996287 -0.00721862 6.03924e-22)
(0.997981 -0.000533139 -9.2671e-23)
(0.999859 -0.000139155 2.13782e-23)
(0.999974 -0.00797177 -1.92533e-23)
(1.06399 0.0952435 -3.01988e-21)
(0.99998 -2.51945e-05 6.62221e-25)
(1.05009 0.0397858 1.2427e-20)
(1.00554 -0.077948 3.31264e-21)
(1.0092 0.0605076 9.14296e-21)
(1.04857 0.0349572 -1.42098e-20)
(0.95513 -0.0137238 -4.32883e-22)
(0.957058 0.0824303 -4.15694e-20)
(0.998873 -0.000844041 7.94376e-24)
(1.01081 -0.0211002 3.8395e-22)
(1.02465 -0.0658143 8.57843e-22)
(0.985469 -0.00164193 -1.14436e-22)
(0.995478 -0.00240216 5.25532e-22)
(1.00384 -0.0394229 -8.21173e-22)
(1.04251 -0.0237043 -2.65174e-22)
(0.908431 0.0573686 5.34178e-20)
(1.00003 -1.43238e-05 7.39917e-24)
(0.998674 -0.000900625 1.05465e-22)
(1.00437 -0.0561719 3.90059e-23)
(1.00001 -3.51392e-06 2.7986e-25)
(1.01975 0.106691 3.74435e-21)
(1.00122 -0.000866901 0)
(1.00001 -4.84842e-06 2.20314e-25)
(1.00013 -6.29723e-05 2.75455e-23)
(1.0003 -8.1985e-05 5.47297e-25)
(0.9893 -0.0140821 1.99608e-21)
(1.01667 -0.01484 -8.87347e-22)
(0.998928 -0.000650036 1.65334e-22)
(0.999942 -1.17477e-05 7.34151e-24)
(0.995178 -0.00224784 2.91888e-22)
(1.00311 -0.00967275 -7.9288e-23)
(0.981655 -0.0736661 -3.20493e-21)
(0.958903 -0.00469675 3.4428e-22)
(1.01413 -0.00865396 2.71236e-21)
(0.999981 -2.01334e-06 2.08654e-24)
(1.02385 -0.122068 3.86049e-21)
(0.990955 -0.00266529 -6.71365e-22)
(1.17805 0.0343602 -2.96701e-22)
(1.00047 0.0191964 -6.56695e-21)
(1.00089 -0.00263837 4.08524e-23)
(1.15359 0.0324162 -8.19103e-21)
(1.00011 -6.95688e-05 -2.91343e-26)
(0.991375 -0.00300206 1.94188e-23)
(1.02022 0.000407782 -4.61418e-21)
(0.995489 -0.00272936 -2.15257e-22)
(1.08176 0.082412 -1.15022e-21)
(0.991265 -0.00468851 -1.26382e-21)
(1.03686 -0.0269564 -2.26137e-21)
(1.02114 0.00120244 -4.97419e-21)
(1.06603 0.0262379 -2.74993e-21)
(1.00517 -0.0116996 -4.19196e-22)
(0.993062 -0.00308369 3.14541e-23)
(1.10324 0.0546184 7.98184e-21)
(0.979963 -0.0552398 -2.86983e-21)
(1.00544 0.106054 3.15295e-20)
(0.993847 -0.00349041 -1.22946e-21)
(1.09491 0.115421 -3.05553e-22)
(0.993845 -0.00306427 3.28417e-22)
(0.999201 -0.0003799 -1.07307e-23)
(1.05048 0.018284 3.12024e-21)
(1.00925 -0.0236625 -6.57717e-23)
(1.03112 -0.000835036 6.78686e-21)
(1.00124 -0.000638149 5.6881e-23)
(1.00001 -3.51319e-06 1.01162e-25)
(0.98516 -0.0846885 1.16061e-21)
(1.17481 0.102898 -1.11486e-20)
(1.00108 -0.0025602 -5.42116e-23)
(1.16572 0.0264449 6.77446e-22)
(0.991738 -0.00438071 -8.26727e-22)
(1.01817 -0.121926 -1.33483e-21)
(1.03009 -0.0385884 -2.29606e-23)
(0.987059 -0.0217299 1.64171e-21)
(0.998843 -0.000739483 -6.97635e-23)
(0.994048 -0.000771097 -2.48038e-22)
(0.978042 -0.0469478 -1.76098e-21)
(0.980071 -0.00646678 2.75825e-21)
(0.993475 -0.00285158 8.69435e-22)
(0.999898 -0.000325293 8.98437e-24)
(0.997354 0.113225 -3.93182e-21)
(1.14325 0.025265 4.85783e-21)
(1.01903 -0.00965345 -8.42955e-22)
(0.999863 -0.000107953 1.4172e-23)
(1.04783 0.0975355 -1.1548e-20)
(1 -1.7263e-05 5.96021e-25)
(0.999873 -9.58022e-05 2.79479e-23)
(1.13224 0.0300884 4.60769e-21)
(1.0067 -0.0193729 2.37739e-22)
(1.17949 0.0778587 8.55396e-21)
(1.01915 -0.0032349 1.90879e-21)
(1.01267 -0.0105686 -1.85865e-22)
(1.0542 -0.0722994 8.71974e-22)
(1.01035 -0.0976899 3.16528e-21)
(1.2014 -0.080723 1.11713e-21)
(1.0009 -0.000631108 -1.2446e-22)
(0.969387 -0.0107301 -2.75629e-22)
(0.999987 -4.1842e-05 -3.78575e-25)
(1.00353 -0.00855805 7.72751e-23)
(1.08521 0.075943 7.08653e-21)
(0.989088 -0.00539976 1.89773e-21)
(0.998088 -0.00107189 1.46875e-22)
(1.00778 -0.0317683 -4.79511e-22)
(0.998655 -0.000795304 1.00907e-23)
(0.999726 -0.000798574 2.94207e-23)
(0.901096 0.0132465 9.48779e-21)
(0.993481 -0.00375232 -6.96068e-22)
(0.999636 -0.000535264 -8.87986e-23)
(0.999987 -7.31641e-07 -3.82093e-25)
(1.01594 0.00523603 9.95713e-21)
(0.981096 -0.0178598 -4.1763e-22)
(0.999775 -0.00040545 2.58253e-23)
(0.998097 -0.000617975 1.89067e-22)
(1.02317 0.0175055 4.07858e-21)
(1.06212 -0.00355178 6.85903e-22)
(0.974219 -0.0155434 -2.34986e-21)
(1 -1.06989e-05 4.24412e-25)
(1.00187 0.0143182 2.704e-20)
(0.990333 -0.0123306 -1.36665e-21)
(1.08563 0.0536881 -1.36694e-20)
(1.0096 -0.00113533 -2.39929e-21)
(1.01114 -0.00102989 5.48438e-21)
(0.978924 -0.0080048 3.75442e-21)
(0.999934 -4.70411e-05 -2.25568e-24)
(1.02025 -0.000140363 -9.12423e-22)
(1.06513 -0.00784158 -8.82498e-22)
(1.19149 -0.050115 -3.25716e-22)
(1.01039 -0.0766672 7.18377e-22)
(1.05851 0.0891075 8.92949e-21)
(1.00431 -0.00125211 -3.8283e-23)
(1.11314 0.0555542 -1.09405e-20)
(0.999781 -0.0108917 -1.1326e-22)
(1.00697 -0.0437113 -2.19881e-21)
(0.999734 -0.000120535 -2.85688e-23)
(1.00179 -0.0145184 1.2979e-22)
(0.999928 -0.000314456 2.82613e-24)
(1.0487 0.0249706 -9.35958e-21)
(1.12586 0.120955 -2.40882e-20)
(0.99898 -0.000874123 5.56331e-23)
(1.01357 -0.0107867 4.43707e-23)
(0.98817 -0.00324755 6.51421e-22)
(1.01607 -0.0701557 3.03361e-22)
(1.01142 -0.0718953 -1.66691e-21)
(0.998728 -0.000627991 1.10697e-22)
(1.03204 -0.0277433 -8.84151e-22)
(0.91014 0.00374845 -1.60406e-20)
(1.16958 -0.0585326 -4.46361e-22)
(0.999962 -0.00011977 6.93129e-24)
(1.05686 -0.00446056 -2.44797e-21)
(0.997903 -0.00664016 -2.91478e-22)
(0.992483 0.00331336 3.41273e-20)
(0.991751 -0.00383527 1.15065e-21)
(0.99623 -0.019469 -3.53865e-22)
(1.01021 -0.0287989 -4.22781e-23)
(0.995138 -0.0200184 -5.21623e-23)
(0.998377 -0.015807 -7.83862e-22)
(0.994862 -0.00243955 2.00937e-22)
(0.999183 -0.010741 4.25994e-22)
(1.00136 -0.00475826 -6.13146e-23)
(1.04251 -0.0271338 6.13143e-22)
(1.00007 -2.12969e-05 -1.80388e-23)
(1.08482 -0.140644 -1.68336e-21)
(1.12457 -0.0722667 -4.604e-22)
(1.03504 0.117535 2.1438e-20)
(0.975461 -0.014778 3.57598e-21)
(1.16302 0.0781632 -4.46961e-21)
(1.00137 -0.000508407 2.00033e-22)
(1.03491 -0.0700126 -2.76803e-23)
(1.00096 -0.0287615 -8.15724e-22)
(1.02232 0.0332731 1.19045e-20)
(0.995206 -0.00294757 4.98695e-22)
(1.00008 -0.000133614 1.2026e-23)
(0.990757 -0.0128533 1.78615e-21)
(0.996904 -0.00704223 -2.28939e-22)
(1.03045 -0.0252755 1.94418e-21)
(0.981109 -0.0049659 -2.33186e-21)
(0.984298 -0.00643331 6.59145e-22)
(1.08755 -0.0692953 -5.61425e-23)
(0.989998 -0.00211631 -1.12937e-21)
(1.00819 -0.0296144 2.94218e-22)
(0.985417 -0.0547189 2.07214e-21)
(1.00001 -5.60017e-06 1.88615e-25)
(1.04587 -0.0215223 3.48342e-21)
(0.987629 -0.0498544 -5.61866e-21)
(1.16047 0.0541338 3.87981e-21)
(1.05131 -0.0768398 -1.695e-21)
(1.02972 -0.000964258 5.67196e-22)
(1.00231 -0.0741815 -4.31364e-21)
(1.06547 0.127452 5.53342e-21)
(1.02267 -0.0319387 6.07797e-22)
(0.978062 -0.00737184 -2.22163e-21)
(1.00656 -0.0364783 -1.04982e-21)
(0.956229 0.0055126 1.52433e-20)
(1.06752 -0.12194 8.35752e-22)
(0.991304 -0.00355557 -3.49609e-22)
(0.997086 -0.0886998 -3.24399e-22)
(1.01053 -0.05215 1.47732e-21)
(1.00762 -0.087142 -5.47016e-22)
(1.01652 -0.0654692 -1.71102e-21)
(1.09904 0.0470938 1.02948e-20)
(0.998103 -0.00122808 9.76186e-24)
(1.00937 0.0411785 4.48393e-21)
(1.00568 -0.00117903 2.82827e-22)
(0.99973 -0.000409007 -3.72031e-23)
(0.99916 -0.00175196 2.67543e-22)
(1.05037 -0.00865955 -8.52394e-22)
(0.860604 0.00462007 4.61984e-22)
(1.0011 -0.00505867 3.35984e-23)
(1.00785 -0.0409982 3.17406e-22)
(1.02373 0.0200663 -6.77766e-21)
(1.00002 -5.55656e-06 -3.75296e-25)
(0.985777 -0.00652675 1.59557e-21)
(1.0169 -0.00866887 1.95067e-21)
(1.04972 -0.0481472 5.47963e-22)
(1.00574 -0.000709182 1.58501e-21)
(0.998902 -0.0015187 4.96315e-23)
(0.987153 -0.0275446 4.90566e-23)
(0.998385 -0.0064183 -8.19539e-23)
(1.00002 -3.91986e-06 4.09674e-24)
(0.982662 -0.0316025 -4.77197e-21)
(1.06821 0.078463 -3.10711e-21)
(1.01229 -0.0258732 1.66652e-22)
(0.988678 -0.00368062 -1.22342e-21)
(1.00127 -0.000293226 -7.20992e-23)
(1.02685 0.0218153 8.92465e-21)
(0.999735 -0.000481725 -1.72287e-23)
(0.999144 -0.000496623 -5.48588e-24)
(0.999756 -0.000132179 -2.60578e-23)
(0.99948 -0.00163603 -6.65958e-23)
(1.18298 -0.034829 9.94425e-22)
(1.01794 -0.0308192 6.49994e-22)
(1.00521 -0.0146347 1.34399e-22)
(0.987882 -0.00538952 -5.58607e-22)
(1.00003 -3.9059e-05 3.9942e-24)
(1.02175 -0.100302 4.25435e-21)
(1.14324 -0.116242 7.20306e-23)
(1.02114 -0.107059 -2.02187e-21)
(0.996261 -0.0246991 -6.62452e-22)
(1.00998 -0.00759433 1.80051e-21)
(0.999856 -7.54991e-05 1.17952e-23)
(0.992054 -0.00847263 -7.10284e-22)
(0.970869 -0.0306876 -2.79629e-21)
(1.16399 -0.0461669 5.53217e-22)
(1.00702 0.0590737 -3.20429e-22)
(0.999195 -0.00246477 5.43954e-23)
(0.963306 -0.0210909 1.58801e-21)
(0.996758 -0.00210676 -4.76064e-22)
(1.02183 -0.0294877 -7.88809e-23)
(1.11197 0.0367818 8.98103e-22)
(1.00031 -0.000104269 -6.06315e-23)
(0.999894 -0.00016161 -4.14052e-24)
(1.20777 0.0414902 5.29448e-22)
(1.1438 -0.0562689 3.2675e-22)
(1.01325 -0.0130882 6.52647e-22)
(0.997976 -0.00134081 2.5055e-22)
(0.998568 -0.000347851 -2.47728e-23)
(0.97508 -0.0317165 6.83264e-22)
(0.999881 -0.000272231 -1.40226e-23)
(1.01041 -0.0267658 1.53764e-22)
(0.990902 -0.00105885 2.35016e-21)
(1.00081 0.0211552 -5.47373e-21)
(1.07521 0.0841129 -1.6251e-21)
(1.03368 -0.0647214 6.59981e-22)
(0.990024 -0.0507564 2.08034e-21)
(1.00457 -0.00122616 7.93143e-22)
(1.00927 -0.0200041 -5.55843e-22)
(1.12449 -0.0604129 -3.91762e-24)
(0.988464 -0.0557675 -1.27576e-21)
(1.00891 -0.0357993 5.8938e-22)
(0.999999 -4.89934e-06 1.49807e-28)
(1.10485 -0.0616247 -4.62258e-22)
(0.982578 -0.00204145 2.18187e-22)
(0.986383 -0.061112 2.53937e-21)
(1.01232 -0.0239232 -8.03984e-22)
(0.970752 -0.0102191 -4.95789e-22)
(0.999726 -0.000235811 -1.27114e-23)
(0.997941 -0.00100553 -1.11631e-22)
(1.04367 0.0338706 1.09787e-20)
(0.979965 -0.00753499 -8.45606e-22)
(0.999989 -1.44989e-06 4.43615e-25)
(0.998034 -0.000408634 -2.61117e-22)