/*--------------------------------*- C++ -*----------------------------------*\
  =========                 |
  \\      /  F ield         | OpenFOAM: The Open Source CFD Toolbox
   \\    /   O peration     | Website:  https://openfoam.org
    \\  /    A nd           | Version:  7
     \\/     M anipulation  |
\*---------------------------------------------------------------------------*/
FoamFile
{
    version     2.0;
    format      ascii;
    class       volScalarField;
    location    "17";
    object      p;
}
// * * * * * * * * * * * * * * * * * * * * * * * * * * * * * * * * * * * * * //

dimensions      [0 2 -2 0 0 0 0];

internalField   nonuniform List<scalar> 
19930
(
0.000500083
-0.00594515
0.00820792
-5.79854e-05
-0.00312607
-0.0035131
-0.0900638
0.464999
-0.040902
0.444109
-0.0825461
0.140141
-0.0293924
0.000374718
-0.00162539
-6.29844e-05
-0.0589285
0.275992
-0.0602716
-0.00509224
-0.0369945
0.150631
0.436862
-0.103228
0.0061828
0.974358
0.000378669
-0.0265881
-0.12565
-0.0614132
-0.000562271
1.21157
0.323215
-0.0146341
-0.000613921
-0.000695875
0.512903
8.28184e-05
-0.00149316
0.224498
0.0161701
0.423396
0.747698
0.000164495
0.978145
-0.0162831
0.4284
0.0362499
8.87381e-05
-0.0283511
-0.000657065
0.0507849
-0.0730365
-0.0013157
-0.0935354
-0.0241026
-0.020089
-0.000893873
-0.0166619
-0.0549484
1.07625
-0.0132117
-0.00342414
0.39487
0.000244619
-0.00384863
0.956162
-0.00408255
0.00578657
0.962448
0.00062315
-0.0810528
-0.00148591
-0.021272
0.970695
-0.0131474
0.946819
-0.0253142
0.223168
0.880752
-0.00337667
-0.00131632
-0.123836
-0.0378611
-0.0124713
0.757178
-0.0248429
1.35958
0.399961
1.04413
0.379001
-0.000120308
-0.000114755
1.29279
0.0192271
-0.00292512
1.30815
-0.00150172
-0.0709454
0.567324
1.05802
-0.0113229
1.08968
-0.0400131
0.107913
-0.00354695
0.8417
-0.0116022
-0.00600657
0.753422
-0.134547
-0.0902952
-0.0165595
0.00641791
-0.00596388
-1.8726e-05
0.703329
-0.00319127
-0.0583369
0.864213
-0.000117186
-0.0397387
0.239804
-0.0215434
-0.0145731
0.277001
0.226493
-0.0257248
1.23179
0.725873
-0.0325566
-0.0269322
0.016326
-0.000805006
0.860444
0.095137
0.0756376
-0.0394069
-0.00900622
-0.0508021
-0.0434933
-0.0232263
-0.0989686
1.10715
0.0624252
0.872583
0.299401
-0.0131259
0.210666
0.000445882
-0.0122857
0.946759
-0.000100499
-0.0329908
-0.00124476
0.299661
0.776966
-0.109018
-0.0259197
-0.0311269
-0.105608
-0.0814307
-0.000723941
0.0737809
0.178308
1.34442
-0.0103966
-0.11383
-0.0136851
0.508044
0.0677075
0.999434
0.66834
-0.0140247
1.4036
0.303547
2.77354e-05
1.04418
-0.00147739
0.794619
0.891762
8.03026e-05
1.11105
0.68725
-0.00478222
-0.0279349
0.00206996
0.53632
-0.0421387
1.24018
0.236872
-0.0180637
0.585155
0.0161857
-0.0268163
0.146135
1.10182
0.0135877
-0.00526896
1.25897
0.0918114
-0.0785129
-0.059925
1.20875
1.14224
-0.0222367
-0.0157277
0.0528697
-0.0238747
0.000397606
0.943886
1.03719
-0.0149812
-0.030473
0.78262
0.969615
0.000479236
0.863804
-0.00291507
0.000479585
-0.0233937
0.788992
1.15409
0.38714
0.753056
-0.0101509
-0.0143022
-1.93748e-05
0.000498166
-0.00242799
0.236832
-0.0428056
0.829029
-0.0495504
0.788918
-0.0233595
0.0016212
0.989806
1.32276
0.776672
0.936342
-0.0298884
0.466249
-0.0197938
0.119556
-0.00279343
-0.117555
0.0323258
0.0529638
9.05514e-05
-0.00581507
1.16902
0.214704
-0.00266801
-0.0341439
-0.0407039
-0.102382
0.450291
-0.0477221
-0.0144252
-0.0302154
-0.0125995
0.000279706
-0.0226644
-0.077418
1.10375
-0.00672162
-0.0151765
0.800584
1.13357
-0.0245673
-0.000308868
-0.0347692
0.957302
-0.129458
1.06747
-3.10503e-05
-0.0320582
0.71927
0.937355
-0.0219453
-0.018329
1.22522
-0.0547815
-0.0200196
1.07871
1.22898
-0.0268686
0.726372
0.145894
0.869471
0.640133
-0.000305436
-0.0196844
0.531852
4.51703e-05
-0.0597673
0.0405329
-0.140484
0.0870624
0.0586795
-7.01249e-05
-0.00104695
1.0363
-0.0041249
-0.0724757
-0.0348141
0.166837
-0.0126222
0.781443
0.109415
-0.0323368
-0.0273567
0.478033
0.172656
-6.70738e-05
1.04697
0.72898
1.03237
-0.0812532
0.000256395
1.21287
-0.00189702
-0.0222068
0.155852
0.0259624
-0.0271347
-0.0660142
0.784196
1.29251
0.90117
0.169281
1.42333
-3.82442e-05
-0.0131508
0.938164
-0.105345
0.530942
-0.0198105
0.966606
0.109173
-0.00104418
0.107153
0.69978
-0.10052
1.09998
0.640317
7.82489e-05
0.00950466
0.362447
0.296587
0.00127607
0.667227
-0.0141424
1.39909
-0.0432482
-0.014227
-0.00606343
0.88726
0.678682
-0.014756
0.48494
1.04255
-0.00431066
0.671037
0.757004
1.40766
-0.00145097
0.227281
0.0276131
-0.0274148
0.000131063
0.984287
0.417363
0.00742487
0.985416
0.187784
-0.0199273
0.457416
0.183711
0.226512
1.4022
-0.0342422
0.1324
1.03046
-0.0348354
0.118826
-0.0717134
0.354354
-0.00793128
0.403803
0.00814954
0.129092
-0.00147758
0.437307
1.02012
0.680216
-0.1261
-0.0115437
1.19143
1.19869
-0.00261967
-0.0302795
0.852326
-0.0678107
-0.00588241
0.46288
-0.00694697
1.46528
-0.0156322
0.249391
-0.00507325
1.02975
0.630653
0.058307
-0.0134111
-0.0162308
0.0944454
-0.0015858
0.858049
-0.0846466
0.423273
1.37982
-0.0878439
-0.00618526
-0.0026486
0.0399411
0.000609296
-0.0163447
0.531654
-0.000491254
-0.0254744
0.000279027
-0.041428
-0.0212048
6.77979e-05
-0.031157
0.131772
-0.11241
-0.0132957
-0.0237309
0.0545921
0.0719977
-0.0303703
-0.0227988
-0.00160737
0.00497146
-0.074441
0.000873572
-0.0173018
0.18497
0.668679
0.0794003
0.000118967
1.26114
0.00101876
-0.000508473
0.0145576
-0.0284718
-0.0343575
1.1306
-0.0127535
0.15483
-0.0623692
-0.0673881
0.452863
-0.0219804
-0.0361585
-0.0563898
0.000100449
-0.0318457
1.29069
-0.0987227
-0.0356527
0.539391
-0.0288463
0.639475
0.201919
-0.00210207
0.000402875
0.746001
1.35994
-0.104588
0.273302
0.110505
-0.0288211
-0.0298945
0.847087
0.0906288
-0.120803
-0.0671339
-0.0116605
0.0328626
1.18907
0.207983
-7.74499e-05
1.09568
-0.0127685
-0.0376285
0.695916
-0.000429346
-0.00507947
1.03011e-05
0.00943866
-0.0189318
-2.40817e-05
0.258419
-0.127393
0.867048
0.000278867
-0.00139196
-0.0298281
-1.03533e-05
-0.108305
-0.118496
-0.00147233
-0.0302253
-0.0288747
0.694959
1.00093
-0.00164757
-0.000499766
-0.0484513
1.02493
-0.0104047
1.043
-0.00865364
1.38271
0.697926
0.327703
1.32355
-0.0741855
-0.00238522
0.0288478
-0.00874268
0.993351
0.845695
-0.0122513
-0.108864
0.105126
-0.0158366
-0.000899008
-0.119148
-3.39603e-05
0.716433
-0.0263311
-0.0311578
-0.0122312
-0.0230164
0.265761
0.0914941
0.00024819
-0.00969264
-1.72034e-05
1.37994
1.17337
-0.000327701
-0.0131783
0.00317001
0.838975
-0.0299954
0.104359
-0.0331575
0.919562
0.316791
-0.0203578
1.44993
0.0268917
0.879129
-0.00641982
-0.0786715
1.0937
-0.0104205
1.38201
0.796065
1.40694
-0.00235732
-0.00260711
-0.0367689
0.0421286
-0.000270679
-0.0311337
0.892861
0.932204
0.687622
1.01204
1.3657
0.339236
1.02239
0.686151
-0.00432743
0.761836
-0.0348732
-0.032641
-0.000299518
-0.0175261
-0.0812277
0.51941
0.0674792
0.879644
-0.0187331
0.136154
0.836409
-0.00817946
-0.0132439
-3.0172e-05
-0.000216947
0.521794
-0.0342809
-0.0288967
-0.000251236
-0.000863949
0.0943419
0.000157983
0.0206496
1.3834
0.294792
0.404807
-0.013557
0.803696
0.0511679
-0.00942275
-0.0132693
-0.00118081
3.71429e-05
-0.00152005
-0.0122142
-0.0776028
0.472199
0.0160327
-0.0197381
-5.28354e-06
0.925019
-0.0391528
-0.0909927
-0.0100076
0.0888907
-0.0228881
-0.0173891
0.837687
1.24041
0.584685
-0.00944226
0.612699
-0.013287
-0.0243856
0.35888
-8.29968e-05
-0.014513
0.234493
0.347058
-0.0198785
0.820689
1.13703
0.809015
-0.0294687
-0.0248939
-0.00560774
0.189955
0.758569
-0.000484588
1.08923
-0.0228465
-0.0797962
0.0429473
1.28453
0.4615
0.859737
-0.122292
1.33565
-0.0182014
-0.0234403
1.42001
0.0477779
-0.0651539
0.866365
0.922763
-0.024252
0.745646
1.02251
0.916358
0.752615
0.888975
0.661027
-0.00469728
-0.0183339
-0.00188956
-0.0701796
1.01836
-0.065242
0.178837
0.242837
-0.0310035
0.0335606
0.207863
1.04253
0.0443751
-0.00114538
0.0377628
-0.0276364
-0.0586171
-0.0764588
-0.0737279
0.742506
1.06759
0.0597212
1.03262
1.37041
0.000804274
-0.00052239
-0.00238055
-0.0109818
0.545681
1.38409
0.214571
0.79232
-0.0148075
0.574976
0.585719
-0.109815
-0.0202186
-0.031292
0.16695
-0.0126643
0.0264769
-0.0275532
-0.0338343
0.84046
-0.00178276
-0.015629
0.91723
0.0306438
1.22454
-0.0396077
0.678459
-0.0729523
-0.0339712
1.08237
1.23024
1.01672
-0.0147775
1.24524
-0.027144
1.06642
0.0275768
1.00659
-0.0268349
-6.72345e-05
1.01238
1.08148
1.06302
1.0142
0.534899
0.129723
0.595065
-0.0652617
1.01421
0.817053
-0.0186411
0.0712987
-0.00484565
-0.074717
0.805139
-0.0295882
-0.0145656
1.0428
1.02887
-0.0305902
0.988535
-0.0827138
0.0961522
-0.00169017
1.05409
1.07918
1.36912
1.03733
5.98959e-05
-0.0158227
-0.000291503
-0.0372935
1.21718
0.353431
0.765865
-0.0322327
0.688948
0.00524174
1.22182
-0.0282034
1.03893
-0.00173707
1.17943
1.25687
-0.0165874
0.151512
1.16959
0.000185524
1.2888
-0.0156923
0.000252834
-0.0204386
0.89004
0.264194
-0.0517172
0.978587
1.29145
0.591326
0.0287318
-0.0308381
0.0210732
1.02375
1.25092
1.43244
0.351839
-0.00308796
-0.0100926
0.794591
-0.00227232
-0.00495704
-0.00288966
-0.0135509
-0.0716671
-0.0982316
1.1077
-0.011609
-0.000223406
0.786419
0.285964
-0.00383609
0.148255
-0.000647007
0.279828
0.817758
1.00068
-0.0893435
0.193891
-0.00627335
-0.0231377
-0.000741936
1.03389
1.12042
-0.122107
-0.114243
-0.102723
-0.0319049
0.993262
-0.0231089
-0.0654212
-0.0867014
-0.00808426
1.32565
-0.0978729
0.0206463
1.04892
-0.0011169
0.119889
-0.0166328
-0.0782006
-0.000290228
-0.00105516
1.31752
0.651918
-0.12062
-0.0420976
0.661962
0.970803
0.808077
-0.0616881
-0.0270864
-0.0214526
-0.0255443
0.752188
-0.0130372
-0.0302797
0.000102684
-0.0175401
7.64592e-05
-0.0816692
0.899912
-0.068143
1.02862
0.99578
-0.0314452
-0.0160744
1.35831
0.682744
0.0456247
-0.0179356
0.579524
-0.0284435
0.553572
1.31865
0.419449
-0.0125593
-0.0200673
0.896076
-0.0324234
-0.0624406
-0.0320919
1.14862
-0.0240019
-0.0303755
0.562109
0.331853
0.796014
-0.0173948
0.401193
-0.0284668
1.04453
-0.0891369
0.180615
-0.0314267
-0.0340675
-0.000217058
8.09595e-05
-0.000443796
1.14559
-0.04221
0.621519
0.0843672
-0.0357087
-0.0656451
0.364135
1.36967
1.19114
-0.0490952
0.320943
-0.0109982
0.046778
-0.0131078
0.248313
-0.0307479
-0.00205106
0.758554
-0.0361385
0.00158941
1.13599
0.827954
1.05594
0.031085
-0.0638751
-0.0124482
0.362966
0.00325017
-0.000107594
1.16281
0.101689
0.288741
-0.0284291
0.00010751
-0.0104711
-0.000673922
0.257366
-0.000528273
-0.0201134
-0.00781839
-0.0276667
1.20959
7.98585e-06
-0.0356465
-0.0252548
1.26171
0.00528852
-1.37762e-05
-0.0854868
0.259122
0.729193
-0.0154104
-0.0139898
-0.0197133
0.773827
-0.018999
0.351836
-0.0959703
-0.0944138
0.179797
0.639731
0.149945
0.296586
-0.000173407
0.810733
1.27342
-0.00965777
0.523798
-0.0441061
1.30895
1.2428
-0.0689059
0.0475343
0.0057381
0.618583
-0.000309508
1.01101
1.40096
-0.00192531
0.160017
0.33748
-0.00110729
-0.000387348
-0.0120375
1.37224
-0.0120755
-0.0373425
1.01082
-0.00342683
0.596835
1.05284
-0.0218905
1.17547
-0.0271739
-0.0167667
1.0651
0.364325
0.793593
-0.000119557
1.05203
0.231564
1.00149
-0.0605052
-0.00956178
0.171251
1.16581
1.0673
1.19382
1.02905
-0.0701939
-0.0222537
0.00395243
0.678155
1.00526
1.26829
-0.0273653
0.516
1.29464
0.91231
-0.00105763
-0.0288441
-0.0118155
0.18063
-0.0294815
1.12206
0.425874
1.00139
0.186539
-0.0123203
1.00874
-0.0307324
0.727325
-0.0704159
0.0532592
-0.0131366
-0.0645505
-0.0554004
1.25411
-0.0516374
-0.0245734
-0.0367292
0.313893
0.0732433
-0.0229771
0.0715836
-0.00358451
-0.0605591
0.738597
0.36938
0.844627
-0.107204
1.05663
-0.0621922
-0.000758706
-0.011285
-0.0100725
-0.0918144
-0.103188
-0.00312751
0.363935
1.20234
0.208228
0.0890025
-0.0267498
-0.0582897
0.50671
-0.0181188
1.30655
0.388492
-6.41263e-05
-0.0190508
0.0241105
-0.0569297
-0.01927
-0.0216157
0.000714433
-0.0813706
0.357256
1.23159
1.10251
0.276573
-0.000148905
-0.0261514
0.000152402
-0.0107896
0.777836
-0.0014542
0.716232
-0.058165
-0.0148134
1.21267
1.24683
-0.000893355
1.02206
1.09023
0.163314
-0.00925372
0.28955
0.775528
1.24371
0.576775
-0.0582666
1.20735
0.153487
-0.0332082
-0.0379934
-0.0683685
1.28153
-0.013229
1.04636
0.420461
1.18637
-0.0220612
0.654823
0.587653
-0.0711397
1.07227
0.0068809
1.15582
-0.000345816
0.482477
0.735089
0.651417
-0.00236603
-0.0070206
-0.00230928
-0.0294976
0.509264
-0.0203037
0.603127
0.478937
1.38223
-0.00238819
1.16473
-0.00413623
-0.00447367
0.0385812
1.01775
0.108526
-0.028232
0.088388
0.788356
-0.0049642
1.3477
-0.00265756
-0.0432502
0.0551056
-0.0147063
1.03588
-0.0380513
1.10983
0.826192
0.217569
0.058094
0.203021
-0.000972419
0.0449008
1.12786
-0.0358696
-0.0232525
0.430867
0.070168
0.0200861
0.0572182
-0.00968015
1.20689
-0.023456
0.0386062
-0.0485474
-0.0308653
0.995602
1.38955
-0.0221736
-0.0621516
2.89383e-05
0.140292
-0.000837057
0.159517
1.25285
1.18386
-0.00755859
0.280521
-0.000308898
-0.0307389
0.825313
-0.00828951
0.385108
-0.0174809
1.35254
0.753482
-0.0723943
-0.0103261
-0.0284466
1.34978
-0.0262417
-0.00111798
-0.00721439
0.191913
-0.0642736
-0.0134902
0.124922
1.20829
-0.084729
1.29686
1.43652
-0.0212041
-0.0245092
-0.000611831
-0.000335289
-0.0311825
-0.0326757
1.33365
-0.0156521
-0.000381031
0.731902
-0.0535447
0.814082
-0.00160009
-0.0402719
0.732784
0.754689
-0.0707115
-0.0212446
-0.0582223
0.941663
-0.025179
0.458676
-0.0296456
-0.0114889
-0.0293883
-0.0090382
-0.00423856
-0.0853736
-0.0810674
-0.0836393
0.00300786
0.160571
-0.00110316
-0.0265762
-0.0593058
-0.0173322
-0.0236319
1.21218
0.0660497
-0.0261595
-0.012954
0.911405
-0.000106561
0.768911
-0.0430657
0.0174393
-0.00132199
0.798543
0.478322
-0.0327976
-0.0279507
-0.0306079
0.573844
-0.000391119
0.747697
0.894759
-0.00734211
-0.02858
0.197629
0.223882
-0.0562485
0.152001
0.818532
-0.0156504
0.70561
-0.0334365
0.0171215
0.663824
1.24841
0.0352816
-0.00409816
0.991439
0.555378
-0.0186819
-0.0385262
-0.0974504
0.0231815
-0.0162598
-0.00371651
0.904283
-0.103988
-0.0374043
0.883346
-0.0515584
-0.0271196
0.309142
-0.00129452
0.256385
0.733726
0.00145175
0.635138
-0.0131049
1.18559
-0.0596857
-0.000401197
9.39663e-05
-0.0100577
-0.000653159
-0.0144998
0.250305
-0.0332772
-0.00395346
-0.0291907
-0.0166044
0.331224
1.03653
0.000168866
-0.0135191
-0.0061786
0.623807
-0.0583093
-0.0177844
-0.0168518
0.12625
0.337526
-0.0130826
-0.00661329
-0.0538913
0.800586
0.844596
0.129947
0.758283
1.07587
-0.0104052
0.659982
0.227128
0.0335223
-0.0165164
0.0123335
1.40578
-0.00889298
-0.065626
-0.0282341
0.761376
-0.00799741
-0.00202882
-0.0282284
-0.0321771
-0.00146814
1.04004
0.3977
0.604725
0.905628
0.767619
-0.00725111
0.272098
0.582767
0.0193206
1.0092
0.299724
0.388378
4.1084e-06
0.555131
-0.038714
0.26856
0.459674
-0.0804636
0.16054
0.119391
-0.0205411
-0.0044629
0.00583453
0.237029
1.23009
0.228911
-0.000103104
0.502011
-0.014054
0.431595
0.32991
-0.00787664
-0.022287
0.566784
1.0063
0.13775
-0.0306524
-0.01736
0.378697
0.701362
-0.0257521
0.882528
-0.0194723
0.258778
0.00627706
1.1278
-0.000681058
-0.00064563
-0.00367635
-0.0174512
-0.0683802
-0.00846637
0.629918
0.854792
0.00145734
0.39702
0.00158573
-0.0078075
1.46325e-05
0.360339
-0.0100448
0.328507
2.598e-05
0.721743
-0.0233685
0.864346
-0.0987978
0.955516
-0.0288854
-0.00788313
0.000371206
1.01931
-0.0300899
0.0593922
0.206883
0.0035254
0.850159
-0.00744529
-0.00757426
-0.0177748
-0.00197482
1.04751
-0.0038827
-0.0184761
-0.0149988
-4.49572e-05
-0.00869048
0.880029
-0.000475266
-0.0292632
-0.00290651
-0.00189867
0.792497
-0.117612
0.0742678
-0.036502
-0.000977477
-0.0115593
-0.0554026
-0.017414
-0.000816304
-0.00755113
0.432187
-0.000370373
-0.0139396
-0.0491996
0.223966
0.975259
-0.00699793
0.000358684
-0.0245887
-0.0276801
0.690867
0.851892
1.055
3.5481e-05
0.296211
-0.0258324
-0.0226653
0.368719
-0.0223786
-0.0074975
-0.00822718
-0.0083415
-0.0162753
-0.0155095
-0.0090027
-0.00198516
0.0139963
0.718811
0.00450129
0.508007
0.135105
0.0845125
0.398775
0.25008
0.606844
0.036776
0.549606
-0.000935327
-0.0146125
0.50349
-0.0380307
0.777705
0.732547
-0.0199637
-0.0269826
-0.000359659
-0.0174351
-0.0169507
-0.010737
-0.0106173
-0.0139865
-0.00915988
-0.0208942
-0.0239859
-0.00839309
-0.0046254
-0.0336531
0.607576
-0.0191032
-0.000522158
-0.0257
-0.00368717
-0.0228133
0.858877
0.835968
0.320815
1.12485
-0.00653416
-0.0319103
-0.0186028
-0.00236043
-0.00439389
-5.54925e-05
2.11317e-05
0.301864
0.111057
-4.3198e-05
-0.0760728
0.192304
0.379368
-0.0410169
-0.00905256
-0.00676851
-0.00397732
-0.000647431
-0.00218431
-0.0225061
-0.0327543
1.17684
-0.00242866
-0.0315003
-0.0166103
-0.0255456
-0.00656236
-0.00892021
-0.000797765
-0.00806999
-0.0194999
-0.0203374
-0.0376081
0.0676521
-0.0112942
0.385247
-0.0167802
-0.00091065
-0.0294202
0.772863
0.80781
0.574489
0.0193501
-0.0805819
-0.0268344
-0.0882204
-0.0295873
-0.0885165
-0.0269565
-0.0846797
-0.00227489
-0.00909705
-2.23742e-05
0.113748
-0.0017966
0.000355047
-0.0116697
1.24079
-0.0210417
-0.0895884
1.15327
1.19421
-0.011081
1.16438
1.0855
0.716244
-0.00356739
-0.114772
1.19685
0.000237587
-0.000442784
-0.00813379
-0.0169342
-0.0054226
-0.0139949
-0.0165735
-0.0182114
-0.0154309
-0.0182668
0.00036755
-0.0401137
-0.00650767
1.35197
-0.0118186
-0.0080935
1.34491
-0.00299599
1.26593
1.17845
0.708151
-0.00968233
1.35268
0.105969
0.932441
0.00593095
-0.000595679
-0.00827615
-0.0145871
0.0750667
1.02746
-0.000733287
-0.00058799
-0.0172306
-7.54882e-05
-0.126829
0.371211
-1.24537e-05
0.762452
-0.0415747
-0.00424574
-0.0277572
-0.0099265
0.141706
-0.003651
1.19444
-0.000600477
1.08663
0.00236807
-0.0210052
9.02925e-05
-0.0226619
-0.00977088
-0.0215353
0.926039
1.00942
2.89777e-05
1.1981
-0.0271094
-0.0019281
-0.0225009
1.1
-0.117109
0.000117669
-0.000482318
-0.00107205
-0.000751029
0.000125884
-0.00117701
1.21197
0.000184345
-0.00108421
-0.0146339
1.30926
1.43822
-0.00122913
-0.0306018
0.779376
1.32935
-0.0328628
-0.0165883
-2.7023e-05
0.022215
1.05051
0.770599
-0.000932449
-0.0116445
-0.0265069
1.12385
-0.0771817
-0.0140784
-0.0112795
-0.00901685
-0.0208437
0.833884
9.5508e-05
1.15356
-0.00141923
1.27809
-0.00153144
1.18107
-0.0101861
0.105521
-0.0198967
4.35037e-05
-0.000510304
-0.00624514
-0.0130747
-0.00997005
-0.000675636
-0.00212286
-0.000707811
-0.0257443
-0.000709633
-0.0102845
-0.00992965
-0.00175218
0.163
-0.000775648
0.764492
-0.0166832
-0.0122235
-0.00252745
-0.0993006
1.3307
-0.00859424
-0.0075233
-0.00836435
-0.0290169
-0.0106947
0.686323
0.828391
0.00119961
-0.00907367
-0.042311
0.2062
1.14976
-0.0250415
0.696442
0.878666
2.90984e-05
-0.0336327
-0.0106114
-0.00070613
0.000342657
-1.10088e-05
-0.00058432
-0.0030936
-0.00535193
0.00203627
-0.0191701
0.0111036
0.252092
-0.0627934
0.747269
0.0886018
-0.0796111
3.75309e-05
-0.000492506
1.02447
-0.00177021
-0.0279138
5.51101e-05
-0.0225891
-0.0120156
0.559654
0.0954968
1.22162
-0.000493837
-0.00120765
-0.0183035
0.289506
9.70837e-05
1.15159
0.0913743
-0.0129842
-0.00473512
-0.0547005
0.00952104
0.660756
0.0571203
1.0531
-0.0280443
-0.000211397
-0.00171098
-0.00923633
-0.000202762
-0.000463499
-0.00136957
-0.0131869
0.000988554
-0.0251873
3.16634e-05
-0.0267012
-0.0656305
-2.49564e-05
0.000118982
-7.5068e-05
-0.000489757
-0.000262066
-0.0062813
0.0335503
-0.000606631
0.0851146
-0.00674133
0.787382
-0.0219337
-0.0506854
1.3253e-05
-0.0482621
-0.0345516
-0.0157069
-0.00523823
2.9946e-05
-0.00434576
5.31125e-05
-0.0537421
-0.0021599
0.16745
-0.0965041
-0.000510151
0.0836013
-0.0868263
0.833276
0.548902
0.678982
1.41706e-05
-0.00299271
9.34495e-05
-0.00243553
1.0718
0.712836
-0.00255109
-0.00388404
0.47539
0.730861
1.23814
-0.000448307
-0.00186813
-0.00919959
-1.4052e-05
-0.000456293
5.75432e-05
-0.00304665
-0.00296001
0.783184
-0.0204517
-0.000812461
0.00271488
-0.000831307
-0.0238219
0.000717304
0.30283
-0.000904853
0.24752
-0.0317664
-0.0219885
0.194536
0.12598
-0.00041515
0.246916
1.1435
-0.028807
0.817175
-0.0210842
-0.0019592
0.906332
-0.00215347
0.617354
-0.00105984
-0.0175131
-0.0557267
-0.00298876
-0.00982556
-0.000723505
-0.000284528
0.0266818
4.59303e-05
-0.00894457
-0.0184637
1.16971
-0.0158304
-0.000352242
0.763243
1.31344e-05
-0.000551542
-0.00607268
-0.00145833
1.13203
-0.000519699
-0.000636975
-0.0108263
0.145322
-0.0251209
-0.000559742
0.000393958
0.0574198
0.000888648
-0.000472109
0.994463
1.30046
-0.00164224
0.0102886
-0.00179682
0.838787
-0.00035421
-0.000925618
-2.08201e-05
2.15395e-05
-0.0519462
-0.000533349
-0.000562842
-0.105879
-0.00117511
-0.0503967
0.000349148
-0.000371873
0.00356872
0.920382
0.979368
-0.00609029
0.530684
0.0752488
6.61697e-05
0.743924
-0.00855524
-0.00054694
-0.000614034
-0.0465401
-0.00047526
0.00875722
-0.00014772
-0.0284152
0.18896
-0.0125838
-0.00982562
0.123471
0.539982
0.182944
-5.51166e-05
-4.21135e-07
-0.00742494
0.283322
-0.004869
-0.0661266
0.000152433
0.733155
-0.109931
0.920516
0.422253
-0.00564692
0.274154
-5.56721e-05
0.774954
0.0114361
-0.0285545
-4.38977e-05
-0.0005499
-0.004056
-0.00523661
-0.00350646
-0.00777499
0.216362
-0.00145604
0.386563
-0.000707398
0.000224293
3.5347e-05
0.0621363
0.005602
-0.00274404
-4.08477e-05
0.00338868
0.321285
-0.00944155
0.00166996
0.000892419
0.100302
-7.16388e-05
-0.000611181
-0.000519688
0.869494
0.956578
1.02408
-0.000431317
0.967983
0.851965
0.971465
-0.000319002
0.000207401
-0.000402932
0.366843
0.618628
-0.0753022
-0.0301456
-0.012434
-0.0112403
0.0906758
-0.00390792
-0.000958283
0.676102
-0.000651973
-0.0040864
0.000153528
-0.00478715
0.980903
-0.0314447
-0.000743205
2.81028e-05
1.09927
0.801492
-0.0064091
0.260043
-0.00364767
-0.015441
-0.00517042
-0.024694
-0.0321873
-0.0348595
0.238552
-0.00770447
0.123392
-0.00031847
0.940027
-0.0185955
-0.00748536
0.698839
0.0112264
-0.0106404
-0.0133732
-0.0588711
0.228588
-0.00550848
0.00031194
0.710385
-0.000415411
-0.0122796
0.0827943
-0.000366911
-0.000864332
-0.000589971
-0.0207934
-0.0102106
0.068683
0.000126624
0.0552584
-0.0193087
0.0451591
0.0360985
-0.00681572
-0.0115679
0.0291466
-0.0176371
-0.00463214
-0.00319601
0.513086
-0.00542839
-0.000875779
2.70118e-06
-0.0194672
-0.0368897
-8.97626e-05
0.427087
0.887916
-0.0186636
-0.0114698
-0.00731894
-0.00117161
0.000149831
-0.00798445
-9.05511e-05
0.0672727
-0.0002841
0.0067018
-0.0210474
-0.011001
-0.000529815
-0.000215008
0.456154
-0.000643196
0.0990027
0.578174
-0.018204
-0.0320506
-0.0103325
0.000155601
0.0828894
-0.0199373
-0.0133574
0.0651514
0.214197
-3.53803e-05
0.0502022
0.324469
-0.000186282
0.200229
-0.00905954
-0.0126256
0.699859
-0.00252598
-0.000204806
-0.000378951
0.529081
-0.105327
-0.0235562
-0.0134388
-0.00742239
-0.000830053
-0.0112848
-0.0154688
0.170561
1.0462
1.20748
0.77371
-0.000154674
0.457631
0.150809
-0.0111193
-0.0138145
0.471571
-0.023428
-0.128632
-0.000262171
-0.0120371
0.61488
1.65614e-05
-0.0618427
-0.0075016
-0.0227382
-0.000465027
0.769725
-0.0274114
0.726194
-0.0139567
-0.00759241
-0.00537767
0.000223012
0.665265
-0.0128779
-0.00138565
-1.68336e-05
-0.0682561
0.0334945
0.191367
-0.00980568
-0.000905894
0.291023
2.18589e-06
0.431748
0.169459
-0.000531414
0.469937
-0.047637
-0.00016097
-0.0099374
0.000440253
-0.000770097
-0.00788335
0.491373
-0.024084
-0.000966481
-0.0483425
-0.00649414
0.629915
0.965284
-0.000455226
-0.0135188
-0.000464049
-0.0056393
0.590169
0.00958034
-0.000608467
0.393282
0.123425
0.790064
-0.0106383
-0.000521968
0.425282
-0.00507392
-0.0179551
0.0143473
1.0651
-0.0354998
-0.0116029
-0.0007056
-0.00487306
1.05503
-0.0241316
1.25945
0.280702
-0.00834468
0.00052749
-0.0255446
-0.0270526
-0.000212344
-0.0121378
1.03371
-2.13886e-05
-0.0218193
1.05559
0.000421885
-0.0128916
-0.000242143
1.84376e-06
-0.000248241
0.0517511
-0.00749083
0.00014307
-0.0796448
-0.000535631
-0.000213059
-0.000165597
-3.16108e-05
-0.0273205
-0.000190305
0.000631451
-0.0181149
-0.0190277
1.25137
0.072465
-0.00867179
-2.99766e-05
-3.49451e-05
-0.012858
-0.000131062
0.206123
0.689856
-0.000307721
-0.022963
-0.00909977
0.120999
-0.00215002
1.33175
-0.000811918
0.000617114
0.464667
0.00346595
-0.00021355
-0.0248261
0.752023
0.000482724
0.65227
0.774247
-0.0142443
-0.0260803
0.940302
-0.0118039
0.000641166
-0.0260423
0.366218
0.206696
-0.0315879
-0.000121684
1.00049
0.000578879
0.00919886
7.67472e-05
0.00058634
1.17345
-0.00146235
-0.000119403
-0.0151331
0.329502
1.26526
0.742916
1.35483
-0.00240638
1.15792
-0.000151217
0.54126
0.000569485
0.000135816
0.283625
-0.0180934
0.183056
-0.000298883
-0.0344448
1.27878
-0.018326
-0.0233766
-0.00141411
0.000629252
0.18572
-0.000868032
-0.0226202
-0.00020199
-0.0228892
0.000126912
1.29632
-0.00944767
-0.0152529
0.130256
-0.0728475
0.275832
0.599832
-0.000273585
-0.0746094
0.374644
0.815051
1.33363
1.56952e-05
-0.0816588
-0.0750794
0.000639489
0.427839
0.483325
-0.0804567
1.06657
0.207286
0.287662
-0.00858102
0.707026
-0.0190221
-0.000531868
-0.000118705
-0.000227207
0.000449477
-0.00111019
-0.011984
-0.000104976
-0.000545978
0.00190257
5.55184e-05
0.394748
-0.0347826
-1.36597e-06
1.28786
-0.000403131
-0.00011134
0.957108
1.33433
-0.0249556
-0.0132556
0.930881
-0.00428065
1.13898
0.109023
-9.0394e-05
-0.0561506
-0.0257961
-0.00164058
-0.000505165
0.635539
-4.29464e-05
-0.00030056
1.08123
0.000460891
-0.00155179
-0.039651
-0.0120966
-0.0172183
-0.000345637
0.0919562
-0.0178318
-0.000204609
-0.0185463
0.000332456
0.507602
3.69633e-05
-3.37163e-06
0.000322842
1.0392
-0.00439267
-0.00111626
-0.000585222
-0.00103576
0.996308
0.00425615
0.186826
0.927556
0.000277683
1.19038
0.864544
-0.0016559
-0.056142
-0.000388458
-0.0108896
1.14013
-0.00176578
0.000541059
-0.000139657
-0.0199132
1.77977e-05
0.000560345
-0.000385874
1.17692
-0.000135007
0.788302
-0.0182868
-0.0611208
-0.000145609
-0.0395126
-0.00160568
0.966785
0.991299
0.142561
-0.00117383
-0.0372663
-0.0552398
0.268221
0.176842
0.382769
-0.0747311
-0.0456299
-0.0227801
-0.000181365
-0.000937387
0.000634195
-0.00204166
-0.00140432
-0.00170823
-0.00142276
-0.000157411
-0.0152074
-0.00411514
-0.00190547
-0.0202192
-0.000382223
-0.00247774
-0.000196648
1.44803
0.167713
-0.00365062
-0.00178397
-0.00300655
-0.000153382
-0.000482361
-0.00271948
-0.00224772
-0.0329133
-0.000102233
-0.0228664
-0.000781933
0.000633408
-0.000296053
-0.0201347
-0.0320157
-0.00332854
1.03938
-0.0129298
0.758884
-0.0350411
1.10635
-0.0296995
-0.0316427
-0.033019
-0.0339538
-0.0342896
-0.0358511
-0.0360187
-0.000302358
-0.0367706
-0.0361782
0.979763
-0.0376776
-0.0215709
-0.0365073
-0.000572111
-0.0542696
-0.0102065
-0.00014611
-0.00478244
-9.88105e-05
-0.00114771
0.0445982
0.000676591
0.206627
0.829654
-0.00739387
-0.000685724
-0.017947
-0.0018648
-0.00472404
-0.00859792
-0.0153187
0.000144613
1.31167
-0.0071615
-0.01568
-0.00588251
0.000659321
-0.00409979
-0.00120589
-0.0287719
-0.00560614
-0.000404076
-0.00341408
0.0391579
-0.000190145
-0.00023497
-0.00670327
0.0196032
-0.00059549
-0.00156551
-0.000890669
-0.00016791
-0.000375042
-0.00173035
-0.000324829
-0.00025902
-0.00199338
-0.000609763
0.957739
-4.28556e-05
-0.000546011
0.000768124
-0.0015677
-0.000338857
-0.000357857
0.399517
-0.00779075
0.811737
-0.00307706
-0.000128692
-0.000179837
0.725911
-0.0543935
-0.000330726
-0.000179024
-7.6158e-05
-0.00666164
-0.00250056
-0.0399637
7.31371e-05
-0.0287842
2.28106e-05
-0.000307097
-0.000236105
-0.00371747
-0.000747943
-0.0400517
0.932417
-0.037088
-0.00580644
-0.000141646
-4.93098e-05
-0.023118
-0.000187537
-0.00443875
-0.00113401
-0.00103338
-0.000509075
-0.00932309
-0.00638715
-0.0881209
6.55625e-05
-0.000166059
-0.0136027
9.55278e-05
-0.00446734
-0.0023232
-0.0019642
-1.72342e-05
1.15105
0.000111427
1.36694
-0.0092465
-0.00298305
0.00205051
-0.000178767
-0.000248358
0.0132311
-0.000350822
-0.048867
-0.000466782
-0.0874208
-0.00539897
0.00017493
-0.000247514
-0.00286728
1.15848
-0.000377466
-0.0211987
0.000882451
0.915566
-0.0342416
-0.0514427
-0.000239445
-0.073779
-0.00434509
-0.0959965
-0.0175619
-0.000275509
0.00066226
1.24807
-0.0485404
-0.00266185
-0.00365155
-0.000117137
0.782506
0.91241
-0.000105601
0.000330256
0.480166
-0.000299507
-0.00668939
-8.27542e-05
-0.000603204
-0.0273863
-0.0248378
-0.0974927
0.0153917
-0.00107976
-0.000254109
-0.000234829
-0.0406209
-0.0147898
0.481126
-0.0104129
-0.000135319
0.839699
-0.00535028
-0.000676329
-0.0369132
-0.00325388
-0.00134424
-0.000307041
-0.00483441
-0.00143558
-0.0161217
-0.000246506
-0.000907054
0.489693
-0.00678972
0.46461
1.08635
-0.00216401
-0.00433403
-0.0670907
-0.00724745
1.26865
0.00226272
-0.000190392
-0.000131457
0.691311
1.17156
0.299748
0.0213539
-0.02637
-0.000244677
-0.0176298
-0.000683701
-0.000700988
-0.00561784
0.714761
-0.0227626
-0.00045591
-0.00144254
-0.00160821
0.117464
0.713046
-0.0181525
-0.0144319
-0.00189105
-0.000901696
-0.000535006
1.12452
-0.000792172
0.000210649
2.18806e-05
0.000273515
-0.0144633
0.13042
-0.00734773
-0.006885
-0.0193662
9.50898e-05
0.00313102
0.548408
-0.0231507
-0.000144554
0.00191626
0.749914
-0.00232451
0.160847
0.937324
-0.00057253
-0.000145078
0.135914
0.508293
0.24947
0.388464
-0.0367159
-3.76666e-05
-0.000417628
0.692467
-0.00809913
-0.00134799
-0.032724
-0.0105418
-0.0508618
-0.0245254
-0.00282129
-0.000440922
0.638393
-0.00152523
-0.0207824
0.986604
-0.0186603
0.915087
5.45461e-05
-0.0189691
0.857692
1.27426
-0.00509316
-0.00673051
-0.00914038
-6.56837e-05
-0.0040011
0.82685
0.000312392
-0.0256457
-0.00331782
-0.000145444
-0.00113953
-0.00159843
3.78318e-05
0.53464
6.53182e-05
-0.00436995
-0.00177634
-0.00122691
-0.000124033
0.291608
0.649495
-0.0285702
-0.0309212
-0.033071
-5.61143e-06
-0.000260528
9.1627e-05
-0.032389
-0.0339469
0.413375
0.78402
-0.0348706
0.347623
-0.00661926
-0.0384565
-0.00642551
-0.0349069
0.316182
0.232515
-0.0359235
-0.00025219
0.833603
0.44991
-0.00423836
-0.000284407
0.000192814
1.14361
-0.000909097
-0.000227721
-0.00215588
-0.000429036
-0.000251109
-0.000690328
-0.000561118
0.00181655
0.216392
-0.0343957
-0.000240809
-0.0207407
-0.0239383
-0.0076748
-0.0237732
-0.0285433
-0.000273442
0.000493665
-0.00255409
-0.0141607
0.770345
-0.000898699
-0.00309603
0.0113007
-0.000146117
1.0861
0.711611
-0.0245469
-0.00116015
-0.00125389
-0.001505
-0.000302315
0.793916
0.0258207
-0.000731843
0.00819782
0.0001875
0.00571953
-0.000655116
0.0041397
0.00250343
1.01033
-0.00630122
2.40335e-05
-0.00540056