/*--------------------------------*- C++ -*----------------------------------*\
  =========                 |
  \\      /  F ield         | OpenFOAM: The Open Source CFD Toolbox
   \\    /   O peration     | Website:  https://openfoam.org
    \\  /    A nd           | Version:  7
     \\/     M anipulation  |
\*---------------------------------------------------------------------------*/
FoamFile
{
    version     2.0;
    format      ascii;
    class       volScalarField;
    location    "31";
    object      p;
}
// * * * * * * * * * * * * * * * * * * * * * * * * * * * * * * * * * * * * * //

dimensions      [0 2 -2 0 0 0 0];

internalField   nonuniform List<scalar> 
29540
(
0.010338
0.14346
-0.0107597
-0.0422134
-0.00308103
-0.0437092
-0.0320684
0.00923192
0.00244315
0.000190834
0.0047439
-0.006123
-0.000656967
-5.1992e-05
0.0967636
-0.00738436
-0.000280434
0.0165191
-0.00273481
-0.012661
-0.00112795
0.00229359
-0.0109273
-0.00268604
0.594787
0.142519
-0.000702999
0.493311
0.0839412
-0.0022075
0.0193182
0.0611149
-0.0680923
-0.00884273
0.501045
-0.0107233
0.150932
-0.0321115
0.00703095
0.00674505
0.000496146
-0.0209958
-0.000255427
-0.0318206
2.04385e-05
-0.00202069
-0.00543777
5.76472e-05
0.00402169
0.14681
-0.0544834
-0.0371226
0.0633614
-0.0421339
-0.00723299
0.0818206
-0.00433722
-0.00116195
-0.00646956
-0.0251316
-0.000110258
-0.00266086
-0.0821619
-0.00957635
0.248146
0.560339
-0.010703
-0.0105321
0.532982
0.000521295
0.140994
0.408203
0.00261369
0.554494
-0.00951802
-0.01934
0.0504322
-0.0283548
-8.64991e-05
-0.021304
-0.0387329
0.194858
0.010313
-2.56101e-05
-0.0300147
-0.170359
0.281593
-0.000681679
-0.00063569
-0.0554821
-0.0288644
-0.0287378
0.00368363
0.0548344
-0.0570546
0.284016
-0.0379592
0.000537173
-0.0476063
0.129522
-9.05391e-05
-0.0268119
-0.000106995
0.0388768
-0.0378501
0.117281
0.345696
-0.000612833
-3.77021e-05
-0.0683624
-0.0670316
0.00561141
8.9278e-07
-0.00202931
-0.000264478
0.39714
0.208484
-0.0137385
-4.29034e-07
0.00310711
-0.16641
0.153723
-0.0645999
0.556476
0.00131655
-0.0436255
0.0215519
-0.0215181
0.00493687
-3.0871e-05
-0.0298402
0.0359232
0.385178
-0.0842925
0.0385502
0.0187792
0.29804
-0.0273079
-0.130847
0.121667
-0.0369681
-0.0482691
-0.049763
6.59151e-07
-5.35576e-06
-0.00314748
-0.0051054
-0.0530627
-0.106635
-0.0703496
0.0300266
0.0143096
0.000479009
-0.000213141
0.207377
0.000561784
-0.00957253
0.274118
0.251861
-0.0542182
-0.0372089
-0.0410691
0.0884329
-9.16405e-05
-5.77129e-06
-0.0138391
-0.0480689
2.19014e-05
-2.78293e-05
-0.00850237
-1.4621e-05
0.00686736
0.279698
-0.0267581
-0.063489
-0.00613675
0.00249512
-0.0278792
-0.00167495
-0.0598347
-3.36195e-05
-0.00764256
0.278022
-0.00978449
-0.129982
0.204894
-0.00765361
-0.0208965
0.00464537
-0.00218434
-0.000394765
0.00159667
0.566763
0.203789
-0.0160649
-0.00917495
0.469253
0.181738
-0.0565432
0.00137634
-0.0523499
-0.0574208
-0.005921
0.000984438
0.29314
-0.00816987
0.00838074
-0.0524889
-0.0701996
-6.15999e-05
0.433416
-0.00133336
-2.68378e-05
-0.000732288
-0.027814
-0.0669062
-0.00629893
0.00816344
-0.00266641
-0.0570352
-1.3103e-05
0.000488637
-0.00287462
0.09655
-0.00356512
-0.00192341
0.0639043
0.000104142
1.85895e-05
0.0064436
-0.0326032
-0.0246814
-0.00574225
0.139367
-0.017095
0.0152789
-5.42224e-05
-0.00372358
0.000915824
-0.0493364
-0.104367
-0.00175395
0.000515215
-0.00199461
0.00329503
-0.0122696
-8.79151e-05
-0.166117
4.43824e-06
0.0981825
-0.00418844
0.000126858
0.119331
-0.0569447
0.000268627
-9.26754e-06
-0.0483135
-0.100397
-0.0105912
-0.0232097
0.0297344
0.265841
6.22608e-05
-0.0308765
-0.0997485
0.481698
-0.00979368
0.201638
-0.0145882
-0.00038477
0.681036
-0.000728751
-0.0658611
-0.0564032
0.00268959
-0.050857
-0.00986141
0.389365
-0.00427792
-0.0207568
-0.000412121
0.188485
-0.00409112
0.290676
-0.00068346
-0.00706905
0.463172
0.0826915
0.0638437
-0.0367903
-0.000229067
0.00321349
-0.000294034
-2.47267e-05
0.0852622
2.57643e-05
-0.0224324
-0.102063
0.602808
0.381203
-0.0504147
-0.0227273
-0.0235013
0.00633481
0.00258861
-0.0212379
-0.0536286
0.272566
0.412894
-0.00163386
0.339241
0.0827644
-0.0668981
0.0131593
-0.00268313
-0.0156136
-0.00656028
-0.00328449
-0.000101311
-0.00252016
-0.00539224
0.193705
0.00194725
-0.0307768
0.0152802
-6.83335e-05
-0.0519521
0.634587
-0.00773988
-0.00189052
0.014077
-0.0199665
0.100966
-0.00199573
-6.78555e-05
3.68944e-07
-0.00330868
0.466404
0.0225979
-0.107505
-8.43562e-06
-0.106132
0.0565028
-0.0062424
-0.0526272
-0.00173533
-0.000600532
-0.0287164
0.00109342
-0.0613093
0.0130973
0.0297186
-0.000319579
0.00209657
0.152445
-0.163457
0.000468605
0.000501659
0.3916
-0.029092
-0.00213819
0.190931
0.490969
-0.0652212
-0.00992246
-0.0593688
-0.0010142
-0.0102288
-0.00418645
0.17757
-8.59903e-05
0.0125981
-0.112675
0.392435
0.544833
-0.00743613
-0.0108591
0.258614
-0.0261038
-9.85835e-05
-0.0227668
0.102245
0.104121
-0.00922293
0.0321396
0.484673
-0.117912
0.434776
0.399865
-3.47618e-05
-0.00407272
-0.106824
-0.00376082
0.00198958
0.495845
0.0223438
0.000316053
-0.0410067
-0.0584143
-0.00693194
-0.000199799
0.292862
0.204165
8.18187e-06
0.00511331
0.00679446
-0.121212
-0.036753
2.58476e-05
-5.60035e-06
0.000585222
0.106974
-0.0318512
0.309008
-0.0547553
-0.0221042
-0.0245569
0.186498
-0.0704985
-0.00158746
0.0101683
0.00101618
0.43752
-0.0294836
0.00133775
-0.00920839
-0.0344865
-0.0021716
-0.0149654
0.000256631
0.000264559
0.644128
-0.00995292
-0.00639611
-0.000671127
-0.000991195
0.24948
-0.114787
-0.0308562
2.0427e-06
-2.28158e-05
-0.0304198
-0.00837574
-0.00651757
0.0217804
0.00780565
-0.00394599
-0.000994775
-0.0207258
0.426353
0.0043
0.00027454
-0.0499363
-0.029017
-0.0326425
-0.0044435
-0.0306802
-3.11321e-05
0.532449
0.0249323
6.23542e-05
0.566881
-0.0316852
-3.31838e-05
0.0018096
-0.0514662
0.00726734
0.0502681
-4.64439e-06
-0.0098113
-0.0139399
-0.00673378
-0.000658337
-0.0101308
0.47479
-0.010471
-0.0145081
0.217724
-0.00360218
0.454344
-3.62616e-05
-0.0203973
-0.0558324
-0.0302335
-0.11163
-0.00210771
0.000485026
-0.000276208
-0.0228757
0.00309824
-6.47973e-05
3.10054e-06
-0.00785027
0.426638
0.00790993
0.00313265
-0.0564908
-7.18478e-06
0.00121124
-0.000114465
0.0107554
-0.0209667
-0.000553771
-0.0102445
-0.0150288
0.00128287
-3.83917e-05
-0.107199
-0.00060716
0.0498034
0.358629
0.264969
-0.00621265
0.00766995
0.0330655
-0.000202703
-0.00478709
-1.40846e-05
0.404162
-0.0168133
0.021477
-0.0200963
0.00164487
-0.00412843
-0.000182676
3.92305e-06
-0.0061929
0.050833
0.256376
0.00155873
-0.0455577
-0.0290205
-0.00978096
-0.0657645
-0.00175948
0.000755772
-0.00705098
-0.000171478
-0.0529239
0.288148
0.190856
-0.0263665
0.281086
6.41296e-05
1.71645e-06
-0.016964
-0.0431119
0.5538
-0.0527952
-0.0247419
-0.0272372
0.00148351
-0.00736147
0.000556537
-0.0129308
-0.0157188
-2.75041e-05
-0.00121195
0.388264
-0.000243442
0.513255
-1.26841e-05
-0.138877
0.0459143
0.0033143
0.00131486
0.000204022
0.417535
0.052386
-0.0569262
0.199099
-0.00892063
-0.0158119
-0.00520638
0.192908
-0.0301299
0.00870492
-0.00981451
-6.45619e-06
-0.00174139
0.00745071
-0.0208962
-0.025802
-0.0473129
-0.0211063
0.127774
-0.00280706
-0.0558887
-0.0163466
4.65888e-06
-0.0144276
0.00535825
0.13012
-0.0316061
-9.30441e-06
-0.0217731
-0.00120708
0.00176827
-0.121235
0.308158
0.00112591
-0.0142583
-0.0521616
0.0851392
0.463942
0.00229738
-0.00687694
0.210841
0.169465
-0.0192323
0.00634619
-0.0514344
-4.72826e-06
-0.0435941
7.6412e-05
-0.0504984
-5.85771e-05
4.37285e-06
-0.00889347
-0.081902
0.352534
0.00552422
0.0142863
-2.91086e-06
-0.0080022
8.35698e-05
-0.00421154
5.18936e-06
0.0544362
-0.000678003
0.184446
-0.000211195
-0.0152147
-0.0389366
-0.00544554
0.460401
-0.0193383
-0.0629092
-0.00720661
0.0562754
-0.0493318
0.0362328
-0.0303782
-3.97127e-06
-0.00737727
-0.0050962
0.000284697
7.9107e-05
0.188951
-0.00632226
0.0931322
-0.00656468
0.00108503
0.0397287
0.000178558
-3.80317e-05
-0.0429556
-0.00452152
9.46256e-06
0.24039
0.609006
-0.000323966
-0.0376056
2.53398e-06
0.494224
-0.149508
-0.0415707
7.80129e-06
0.00962178
0.0699582
0.0824228
0.0487407
-0.000589686
-0.000258599
-0.0184847
-5.37309e-06
7.96693e-07
-0.0305818
-0.0373042
-0.0465771
0.581223
0.000224027
-0.0421697
0.00990849
-3.48457e-05
-0.00173346
-4.72124e-06
-0.00797483
3.2409e-05
-0.0288127
0.0350347
0.447822
0.0546194
-0.000415463
0.000549093
-0.124604
0.091169
-0.004047
4.24858e-06
0.198125
-0.123446
-0.0513145
-0.0166266
-4.50235e-05
-0.000410988
-0.126657
-0.0277504
0.154961
0.423933
-0.0615269
-0.00170278
-3.53099e-05
-0.0485485
-0.0671615
-0.000313103
0.00184975
-0.0186138
-0.00603204
0.413227
-0.0017537
-0.00887295
0.0629029
-0.00963246
0.556747
0.556886
-6.80554e-05
-0.000105213
-0.019033
0.0202215
-0.036614
0.00680677
-0.00932768
-0.000808296
0.47714
0.179702
0.00289096
0.672886
1.97427e-06
0.117392
-0.0635147
-0.04196
8.02696e-05
-0.0378321
0.122122
0.0193131
0.0742617
-0.00064176
-0.000688819
-0.0104838
-0.0044809
-0.016252
-0.001507
0.121041
-0.00810674
-0.00680039
-0.05685
0.383739
-0.0107379
0.0390225
-0.000577798
-0.000725583
-0.0235125
0.00124187
-0.00337072
-4.31421e-05
-0.000518269
0.122569
0.419214
-0.000205695
0.131546
-3.10436e-05
-0.00434862
-4.62191e-05
0.0069924
-0.114155
-7.94556e-05
-8.19171e-05
-0.0562424
-4.75711e-06
0.0494327
-0.0293366
-9.89677e-05
0.177128
-2.10466e-05
-0.000573769
-0.000150281
-0.00652595
-0.000571373
-0.00773853
-0.0731285
-0.000514037
0.00547799
-3.84704e-05
0.345614
-0.00987221
-0.0134853
-0.0344587
-0.0252432
-0.00160739
0.0037428
0.223289
-0.0300087
0.158355
-0.0417244
-0.00448915
-6.6473e-06
-0.00726618
0.381967
0.196711
-0.040449
-0.0507977
0.331292
-0.0103718
-0.0590148
-4.55549e-05
-0.0304544
-0.00113402
0.652479
-0.0522199
-0.000147141
-0.0552046
-0.0308612
0.260876
-0.00333063
-0.031934
-0.00510991
-0.0083178
-0.00170633
0.260344
-0.102408
-0.0221553
-0.0175939
-0.0150695
0.00723485
0.324667
-0.0212648
0.200898
0.0034834
-0.11483
0.523703
-0.0105266
-0.000343583
0.257265
0.393599
-0.00908832
-0.00346531
-0.00858137
-0.0341124
0.21309
-0.04825
-4.77694e-05
-0.00908308
2.38663e-05
-0.00564864
-5.03033e-05
-0.00630236
-0.00129335
-0.00411624
-0.118087
-0.000827944
-0.000701209
-0.00156833
0.21568
-0.00268128
-0.00413852
-0.00391843
0.174013
0.00664005
-0.000550384
0.378704
0.549011
-0.0219076
0.476523
-0.0193608
0.356873
0.00687964
-0.0191302
0.00319629
-0.000635935
8.0627e-06
0.00314483
-0.0137068
-0.0217906
0.195363
-0.0250105
-0.0221269
-0.00121004
-0.116492
-0.0278335
0.00813442
-7.5439e-06
0.00658052
0.0382301
0.398163
-0.0015345
-0.014998
0.152222
-0.000512664
0.0433684
-0.019755
0.000661835
-0.0546438
0.00305913
0.35824
-0.00257011
-0.000715859
-0.000228602
-0.055667
-0.00170203
0.657375
0.679696
0.0145476
-6.49314e-05
0.010013
-3.4641e-05
0.0553195
-0.000708626
0.0257151
0.594302
-0.0261808
8.7471e-06
-0.00927743
-4.09801e-05
-0.100991
-0.0360789
0.48158
0.00023693
0.0139989
0.00243893
0.000302257
-0.00271991
-0.000407071
-0.0068902
-0.0404721
-0.0248329
0.00594194
0.172108
-0.0146248
0.00732678
-0.0220013
-0.00230993
-0.0293763
5.01231e-06
2.96025e-05
-0.00259357
0.0317196
-0.0360161
-0.0178421
-0.00421166
0.00306888
-0.0331945
0.21166
-0.0138653
-6.95591e-06
-0.0517134
0.441232
-0.079573
-0.0131804
0.0451411
-3.4548e-05
-0.000829762
-0.030152
-5.4334e-05
-0.000558946
-3.44638e-05
0.67406
0.0100734
0.00404185
-2.22133e-07
1.9405e-07
-3.42033e-05
-3.3802e-06
-0.0238267
0.39483
-0.0361201
-0.00061272
-0.000219832
-0.00645096
0.480423
-0.0546645
0.43185
0.00146496
0.147961
-0.000198189
0.474528
-0.0025103
-0.0102559
-0.00549652
0.00713886
0.00855452
0.194037
-0.0411309
0.467502
0.288187
-0.00915421
-0.0306684
-0.00919008
-0.0305098
-2.48436e-05
-0.00108022
0.00296462
0.074026
-0.00718908
-0.0239518
-0.00370683
0.57573
-0.0728343
-5.85868e-05
-4.86644e-05
0.488388
-0.005373
0.001389
-0.0139204
-0.00248868
-0.0162898
-0.0104654
-0.0800161
0.0387206
0.00657443
-0.0107537
-0.0151987
4.51354e-05
-0.00622096
-0.00175963
-0.00847445
-4.69688e-05
2.55601e-05
-0.0233792
-0.021342
0.462548
-0.0357858
-0.000268107
-0.00170133
-0.00037813
0.376433
-0.0728706
-5.916e-05
-0.0307409
-0.00485065
-0.00390618
-0.0290894
-0.0326488
0.00694501
0.055925
-0.0649391
3.40527e-05
0.00616316
-0.013752
-2.37294e-05
-9.27178e-05
0.118205
0.0859485
-0.0530279
-0.0465523
-0.0536
0.000501749
0.503526
2.63221e-05
-0.0192937
0.41024
-0.017482
-0.0369292
1.30069e-06
0.000109181
-0.0369372
-0.00969197
0.00138234
-0.0317841
0.23888
0.251014
0.000658129
0.000204061
0.201162
-0.0128703
-2.39518e-05
-0.00160076
-0.027965
-0.0226092
-0.0115982
-0.00286481
0.141178
5.41319e-06
0.076431
0.280391
3.91499e-06
0.00695962
-0.000503464
-0.0825979
-0.01375
-0.000730332
0.0274306
0.000144209
0.229122
0.00137535
0.021208
-0.00467743
0.602302
0.380898
-0.0500093
-0.00714009
1.17837e-06
-0.0934308
-0.0127777
0.145932
0.320031
-0.0317717
-0.0296018
-0.0151651
-0.0059034
0.144633
-0.000222426
0.46813
0.0226584
2.56995e-05
5.45305e-06
6.49201e-05
-0.0115758
-0.0158428
0.000577291
0.0045399
0.0918548
-0.0462719
0.000314265
3.24511e-05
-0.0208059
-5.51373e-05
-0.00258298
-0.0101342
-0.00076184
-0.0315549
0.00358764
-0.00125022
-0.00336389
-0.0140871
0.38129
0.391975
0.0330953
-3.17399e-05
-0.000524421
0.253392
-0.000444109
-0.115421
-0.000213729
-0.0173378
-0.067877
-0.000227268
-0.000238611
-0.0286999
0.00108805
-9.02463e-05
-0.00119877
0.190291
-0.0293358
-6.08342e-05
0.0881134
0.358308
0.370938
0.000468968
-0.101056
-0.00798316
0.437997
-0.0558631
-0.0572518
-0.0142272
-0.0109063
0.0241482
-0.0213835
0.37137
0.05909
-0.000191341
-0.0438948
-0.0558471
-0.00333124
-3.8894e-06
-0.00163782
0.213478
-0.000209764
-0.0102513
-0.0034869
-0.00105007
0.00744787
0.0251969
-0.000196106
-0.000136832
-0.00723722
-0.0832319
-0.0298763
-0.0621824
0.247165
-0.0024039
-0.0002765
-0.0311596
-0.0201056
0.0077546
0.011278
9.22768e-06
0.0649347
0.136923
0.0161009
0.0203921
-0.000582632
-0.0111439
-0.0829941
0.00105444
-0.000102827
-0.00801111
-0.00340983
-0.000672424
-0.00957471
-0.000764199
0.204542
-0.00760797
-0.110744
-0.02008
-0.00896578
0.00985059
0.491774
-0.0347763
-0.000144698
0.471948
0.157654
0.00643391
-0.00491753
0.00623793
-0.0532965
0.155535
0.000254708
-0.00303977
0.594633
0.297081
0.314253
-0.0364705
-0.0012211
-0.00107617
-5.95299e-05
-0.00114337
0.269394
0.0747428
-0.012824
-0.00612694
-0.000356822
-0.0723294
0.565044
0.413387
0.0713468
-0.00240847
-0.0490985
-0.0049732
-0.000656095
-0.0201507
0.00822736
-0.0221329
-0.00298265
0.000665867
-0.0748172
-0.0829414
0.0258624
-0.0204849
-0.00535753
-0.0208974
-0.000204288
-0.00584843
-0.000624605
0.340734
7.80005e-06
-6.04069e-07
-0.029602
-0.0160576
-0.0230867
0.0329734
-1.68372e-05
-0.0709184
0.0509567
0.193
0.640632
-0.00389913
-0.107101
0.0248979
-0.00179452
0.000904947
-0.000545972
0.00851128
-0.000199414
0.233962
-0.1229
0.00876675
0.0947177
0.109888
0.00112566
0.00186555
4.39668e-07
0.433268
-1.22416e-05
-0.0356796
0.000239216
0.00126727
0.170397
0.0921173
-0.0633343
-0.0309585
-0.00349522
0.679512
-0.0627627
1.00895e-06
-0.0127322
-7.4001e-05
-0.0160148
0.0941433
0.196273
0.000690839
-0.028032
-0.0077727
0.144132
-0.0710544
-0.02592
0.579339
-0.00817037
3.31088e-05
-0.135914
0.603754
0.0010143
0.085431
-0.0356148
0.123331
0.00151289
0.0212398
-0.0572038
0.0038111
0.0472437
-0.0296333
0.14694
-0.0210574
-0.0158309
-0.000711667
-0.000713599
0.520355
-2.70106e-05
-0.00507625
-4.4363e-05
-0.00667674
0.000253123
-0.00606738
0.224459
-1.11717e-05
-0.00088765
-0.0506981
-0.120502
-0.0208787
0.000859647
0.423292
-0.0477261
0.16776
-0.00970571
0.150429
0.00505396
-0.000667536
-0.120351
0.000589695
0.533698
-0.0225379
-0.000137401
0.00181839
0.13776
-0.00921415
-0.000627669
-0.000147319
-0.078144
-0.00217982
-0.00817999
-0.0610419
-3.39227e-07
-0.0528738
0.000269894
0.362151
-0.00855044
0.143832
0.00340822
-0.00311317
0.262738
-0.0562316
-0.139961
-0.00368309
-0.0818559
0.272137
0.287827
-0.0114803
-3.1699e-05
-0.012634
0.00374793
-1.82037e-05
0.0177195
0.397423
0.0103483
0.00126591
0.00367852
-0.053741
-0.000174373
0.0632174
0.0381991
0.0584846
0.0108618
0.0227968
-0.000361798
0.174008
-0.122818
-0.124481
-0.000873483
0.0118967
0.136258
0.000622927
-0.0550099
0.21671
-0.0373427
-0.0560199
-0.0561768
-0.0991524
-0.0985128
0.0453388
0.221844
-0.0971657
-2.3519e-05
0.000577763
-0.0682109
-0.00151965
-0.000173131
-2.56847e-05
-0.00475798
0.00322552
-8.50092e-05
0.0504193
-0.000471792
0.115023
-0.0276194
-0.00648392
-0.00570688
-0.00702794
-0.0558849
-0.00483598
-0.000956344
0.0177476
0.0687865
0.0033757
-0.0264366
-0.00248301
0.0237841
-0.00778823
-0.0156503
-0.0560744
-0.012927
-5.58747e-05
-0.0124175
0.469356
1.06414e-06
0.0101926
-0.0535867
0.567605
0.0416695
-0.036605
-3.82459e-06
0.00133694
-0.0715434
-2.69277e-05
-0.00228071
-6.36565e-06
-0.0618444
0.00366109
-0.0753718
-0.0185475
-0.000136401
0.277316
0.268941
-0.0288239
0.000337778
-0.00018083
-2.2662e-05
-7.23189e-05
0.505904
-0.00114066
0.00183905
0.0182402
0.000740838
-0.000538326
-0.056749
-0.000286299
0.0362591
0.000189372
-0.00179402
-0.000666934
-0.0206389
-0.0331621
0.171126
0.0568558
-0.000170546
-0.0108627
0.000404017
-0.0832518
-0.00064711
0.116811
-0.00956924
0.67465
-0.0168782
-0.00125535
0.0665113
-0.0155242
0.356784
-0.0336484
-0.00928668
-0.010699
0.0154237
-0.00309863
-1.34496e-05
-0.00695614
0.310962
-0.0346118
-0.00274057
-0.0331606
-0.0217794
0.148242
-0.000468817
0.277368
-0.00535517
-0.0544515
-0.000488864
0.0109647
0.0385145
-0.00993204
0.333126
-0.000439458
0.0283156
0.0800057
0.000334176
-0.000154758
0.553971
0.0457651
-0.00149722
0.0247791
0.00997128
6.74367e-05
-0.0859555
-0.0183101
-0.108878
-0.00901362
0.345109
0.00319503
0.0861807
-0.000375701
0.413393
-0.0544181
-0.0044505
0.00511976
0.0267623
-0.0583109
-0.11796
-0.00716174
8.51474e-06
0.616486
-0.0183841
0.000631
-0.0530614
-0.0316326
0.342854
0.00243417
-0.01344
-7.00491e-05
0.0300529
0.00661295
-0.0307527
0.000626197
-0.00296293
-0.0226843
1.44908e-05
-0.0414295
-0.00137035
-0.0122837
-0.0508204
0.296774
-0.0085844
-0.0134934
-0.0477834
-0.0268777
-6.87287e-05
8.20605e-05
-0.00329246
1.54541e-05
-0.00934183
-0.102618
-0.00180087
-2.73217e-05
0.54456
0.00411561
0.000223837
-6.43941e-05
-0.00185303
0.327348
-0.0414081
0.61801
0.186058
0.0184406
0.28865
-3.02067e-05
-0.0124722
-0.000764246
-0.00214185
0.195465
-0.00867046
0.616291
0.258723
-0.0457584
0.275021
0.00682457
-0.0119441
0.0018149
-0.0527496
-0.00339917
-0.0414487
-0.0439819
-0.002606
0.269157
-0.00839114
8.49013e-05
-0.00370043
-0.000613308
-0.0273839
-0.000178231
-0.00112244
-3.77398e-05
0.157094
-0.119983
0.278361
0.0227728
-0.00239624
-0.0293446
-0.0170081
0.0665627
-0.00264426
-0.000953346
-0.0513047
-0.0371472
0.0045344
-0.0342235
-0.003856
-0.000697552
0.000942787
-1.7651e-06
0.130546
-6.52966e-05
0.0508662
-0.000738377
9.50502e-07
0.00162228
-0.000624654
-0.00108914
-0.0135986
0.155325
0.146736
-0.0166457
-0.0106845
0.00237099
-0.0043788
-0.00865684
-0.000193146
-0.000467278
0.000528944
0.108781
-0.00764457
-0.0468327
-0.0460178
-0.00228423
-0.0227544
-0.0163819
-0.00151251
0.00437694
-0.0105096
0.244328
-0.0586525
0.0041794
0.000527006
-0.0316909
0.605867
-0.00853936
-0.00551561
0.006451
0.0755322
0.0033104
-0.00845657
0.270529
-0.000357075
0.0378388
-0.0209987
-0.0518482
0.0053019
-0.00327321
-0.00475401
0.0358775
-0.00313325
-0.000586894
-0.00390421
0.00201593
-0.000243833
0.0203646
-0.00801026
-0.00179543
-2.87164e-05
0.15906
-6.46593e-05
-0.0282652
0.0727124
-0.0219726
6.34371e-05
0.107777
-0.0411345
0.173405
-8.94577e-05
-0.0034856
0.0286061
0.000113133
0.00408973
-0.00391883
0.00881373
-0.0174131
-0.0264732
-0.00820293
-0.00234374
0.00831078
0.0178273
-0.0676197
-0.000196282
0.112834
-0.0326862
-0.0029257
-0.00595612
0.000300237
-0.0583405
3.93433e-05
0.474657
0.202968
-0.000465017
-0.0180586
-7.65306e-05
-0.00192726
-0.00526395
-0.0179998
0.159808
0.102052
-0.00394336
0.00854806
-0.0569418
0.0287033
-0.0128505
-0.017185
-0.0409079
0.0101886
0.202879
-0.00815054
0.399613
-0.000841536
-0.00925542
-0.0429046
-0.000117109
-0.000693624
-5.25139e-05
0.396463
-0.00878113
0.000178156
-0.013096
-0.00543699
-0.000319126
-0.0111026
0.274072
0.00073751
0.00909674
-0.0270126
-0.000509633
-0.00394173
-0.000734415
0.625995
0.000141663
1.00066e-05
-0.00179888
-0.0124321
-0.0116156
0.000398334
0.00225685
0.069561
-0.000185144
0.0016048
-0.0567267
-0.0536654
-0.0495326
-2.67415e-07
0.000231484
-0.022951
0.0267095
0.319801
0.0873506
-0.02758
-8.71231e-08
-0.049657
-0.00226124
-0.0105865
-0.0102507
0.177251
0.453397
-0.000122058
0.146325
0.239776
-0.00817241
-0.0316016
-0.02076
-0.0155956
5.98972e-05
-0.032227
-0.00737785
-0.000156486
-0.000513839
-0.00138225
-0.00164802
-0.000617007
0.310489
0.325701
0.157631
-6.06836e-06
-0.0189654
-0.034262
0.099634
0.481333
-0.000453936
-0.0166035
-0.0151005
0.286508
-0.0157253
-0.00817656
-0.0265969
0.15091
0.00020272
-0.000483627
-0.021802
-0.0423168
0.110607
0.0116331
-0.0371022
-0.0207155
-0.0434854
0.0161801
-0.0403945
0.00577057
-0.0947227
0.0801109
-0.000338959
-0.000576701
0.0631368
0.00013571
-0.00181721
0.0271547
-3.28389e-05
0.241958
-0.00901619
-0.00375255
0.645116
-0.0293806
-0.00986239
-0.0311718
-0.0025057
0.448909
0.000900176
0.608317
-0.000151619
-0.030953
0.619615
0.00567071
0.445925
-0.00482904
-3.99173e-05
-0.0259753
0.452287
-0.00137142
-0.00557385
-0.00680432
-0.000884513
-0.0176925
0.457705
0.0926275
-1.84401e-05
0.0161336
-0.0031579
0.0250435
-0.000792353
0.0197028
-0.00222514
-0.000454705
0.432946
0.466872
0.438558
-0.0402834
-0.0827106
8.0792e-05
-0.0436631
0.286555
0.0112632
0.000154022
-0.0647703
0.000446053
-0.000117881
0.464934
7.15734e-05
0.00341928
-0.00165818
-0.00777095
0.443619
0.456907
0.473436
0.00979214
0.000343936
0.205528
0.00628882
0.015851
-0.00756891
3.5763e-05
-0.00251633
-2.94828e-05
-0.00383459
-0.00066761
-0.00493697
-9.76228e-05
0.140696
0.0017134
-0.0637168
-0.00774272
-0.0537675
-0.0132739
-0.000690614
0.348971
-0.0088951
-5.12565e-05
-4.85532e-05
0.597754
1.07074e-05
0.00944751
0.0438638
-0.0145558
0.295806
-0.00440164
-0.0336394
-0.0291412
-0.000519876
7.26206e-05
0.258207
0.469353
-0.00132961
-0.0192407
-0.000230835
0.46152
0.573655
-0.00124469
-0.00554593
0.0162242
0.00240562
-0.0196975
1.28447e-05
0.0084078
-0.0299358
0.0441136
0.34806
-0.00130737
0.0242419
0.0461409
-0.0207369
-0.0344505
0.0236348
0.555324
0.16449
-0.0404973
0.467425
-0.000538821
0.48056
-0.00656139
0.38586
0.0592051
-0.00425178
0.0242367
0.00195486
0.0147652
-0.054512
-0.000598241
-0.0186757
0.380187
-0.0214056
0.0144995
-0.00127681
-0.0745892
0.156035
-0.00762607
-0.170308
0.000537696
-0.0030931
-0.0191058
-0.00182904
0.00155289
-0.00726594
-0.000456075
0.00196618
0.381614
0.0016679
-0.0128088
-0.0461458
-0.0231954
-0.0475917
-0.0713236
0.00340096
-5.8442e-06
-4.57343e-05
0.24696
-0.0510475
2.83835e-05
-0.078755
0.165968
-0.0469099
-0.0120967
6.80385e-05
-0.00161054
-0.0354546
0.114845
-0.00772255
-0.000437134
-0.035366
-0.0160728
0.622602
0.099422
0.0553735
-0.0422489
-3.23688e-06
-0.00551007
0.0555987
-0.000349159
6.32337e-06
0.151641
0.0833942
0.00046618
-0.000752222
0.00436187
-0.0346029
0.00830114
0.00612711
-0.0121033
2.40044e-05
0.248825
0.000433281
-0.000604615
-0.000231521
-0.000214068
-0.000163448
0.0708399
0.000686973
-0.0023241
-0.00773042
-0.00413888
0.0234305
-0.00442581
-0.0320121
-0.00838747
0.417344
0.336031
-0.000443879
-0.00124724
0.0804602
-0.000714226
-0.0181507
0.0232992
-0.0241279
-0.0008304
0.0170013
0.0334939
0.000968554
0.0518896
-0.000117361
0.00601301
-0.030197
0.0111268
-0.0116699
0.0412854
3.3582e-05
-0.000633541
0.000171017
-6.84309e-05
-0.00140401
-0.00775836
-0.0101535
-0.022829
0.0178274
0.0286884
0.00742743
-0.0540158
0.00773409
0.00343679
0.0104474
2.76713e-05
0.458714
-0.00662061
-0.00265127
-0.0507984
0.63121
1.50158e-06
0.000972808
-2.7623e-05
-0.0589323
-0.00513315
-0.01729
0.150897
-0.00319886
-7.97129e-05
0.0917429
0.0612602
-0.000485238
0.0426306
-2.27533e-05
0.145476
0.00425853
-0.0219767
-0.000151471
0.210029
0.023186
-0.0156873
2.30316e-06
0.150314
0.296783
-0.000930445
-6.30595e-05
-0.0278277
-0.00706402
-0.00137408
0.013585
0.482962
0.258722
0.00033544
0.314951
0.215145
-0.00227003
-0.0406467
-0.031572
-0.0133667
-0.0472053
0.0238748
0.000593637
0.503885
0.121156
0.00972598
3.35563e-05
0.000450221
2.5009e-06
-0.000488858
-0.00222745
0.543315
-2.01664e-05
0.0665971
0.0217771
-0.000214494
0.498203
0.574137
0.174551
0.209958
-0.10511
0.00187544
-0.000262927
-0.00854462
-2.34648e-05
-0.000899062
-0.115747
-6.46816e-05
-0.00171521
0.512897
-0.00894959
-2.86559e-05
0.537907
0.000314593
-0.0261634
-0.0521832
-0.00106834
-0.0692035
-0.000216537
0.0751355
0.00252894
-0.0140873
0.00145524
-0.000560419
-0.000345703
-0.000208086
-0.112187
-0.0449367
0.135918
0.00204565
-0.00883159
0.202623
3.25143e-05
0.602769
-0.000503776
-0.0597109
0.00168538
0.00121871
0.0414539
0.0432991
-2.51493e-05
-0.00327813
5.20176e-05
-0.000561343
0.000605131
0.0692373
0.0395948
0.303137
-0.0408681
-0.000103711
9.85683e-05
0.0829537
0.323503
-0.00344526
-0.00484914
0.603397
-0.00217438
-0.0154486
0.000514793
0.028501
-0.0417218
-0.00654812
0.139384
0.000973025
-0.000231935
0.00123137
-0.0711886
0.590778
0.457923
-0.0179892
-0.0330946
-0.00502532
0.00115843
-2.3843e-06
0.0619308
0.165104
-2.02612e-05
-0.00559511
-2.70012e-05
6.66327e-05
0.427199
-7.51064e-07
-0.0630349
-0.0491985
-0.0838508
0.0563318
-1.4605e-05
0.00755116
-0.00483843
0.389782
-0.0249261
0.00378498
-0.0227531
0.000438594
0.328132
0.189234
0.00785601
0.0332073
0.519312
-0.0479182
-0.0452123
-0.00150378
-0.00536725
-0.000341495
0.0116354
-9.14894e-05
0.14612
0.00216507
0.150668
-0.0266435
-3.38353e-06
0.0405248
-0.000163733
-2.5965e-05
-0.000628159
0.587543
0.562307
0.270464
2.23737e-05
0.109777
0.478597
-0.000785101
0.000523967
-0.00643771
0.029802
0.455255
-0.0205122
0.102949
-0.00207628
-0.0464559
-0.0520506
0.65483
-0.00049694
0.455648
0.0722742
0.17016
3.9553e-05
0.000127588
0.0040042
-0.00683776
0.0660466
-6.88177e-05
2.72273e-05
0.446759
-0.0928766
0.000180897
0.470515
-0.0018082
8.14858e-05
0.364958
-0.00585779
-0.00126522
-0.0934583
0.0792251
0.000207717
-0.000134074
0.00248724
-0.00310662
0.442489
0.583693
0.242775
0.638444
0.00725768
-0.0334971
0.525301
-9.06097e-05
-0.00254268
0.0332961
-0.00270519
-0.00053591
-0.000102282
0.468259
0.00124113
-0.000533796
0.567196
0.0613445
0.160188
0.033804
-0.00210143
-0.0155524
0.107136
0.0540398
0.465457
-0.0192129
-0.000635974
0.424715
0.379782
0.00951116
0.31369
-0.030132
-0.00590745
-0.00728901
-0.000525005
-0.000137658
0.430552
-0.046116
-0.0378868
0.00045389
0.131411
-0.0230354
-0.017363
-0.000849747
-0.00324433
0.487514
-0.000648566
-0.013116
-0.0023196
0.477746
-0.0147546
0.0152377
-0.00568298
0.00100451
0.129817
-0.0162506
0.500848
-0.0168548
0.635775
0.227912
-0.0426938
0.0240851
-0.00140554
-0.00677744
-0.105903
0.450006
0.483609
0.548263
0.27443
0.435863
-0.000330164
0.515491
-4.55586e-05
2.81045e-05
-0.0347281
0.560806
0.0395564
0.20288
-4.49813e-05
-0.0016885
-0.113677
-0.0281407
0.441681
-0.000555163
-0.00580457
0.269588
0.000738393
-0.00327175
0.614469
0.0365131
-0.0364372
-0.172394
-0.000454472
-0.0111331
-0.0414036
0.644361
-0.0286173
-0.0192881
0.00297046
-0.000211643
-0.0120863
0.163486
0.00320218
7.12485e-05
-0.103565
0.216161
-0.00116043
0.455036
-0.0572845
0.461278
-0.0318014
-0.0170758
0.52223
-0.004055
-0.0433616
-0.000347164
-0.00104167
-0.0447979
-0.0165441
-0.0262043
-0.00735231
-0.0102695
-0.105693
-0.0497623
0.457603
0.00015257
0.000520003
-0.015378
0.0904418
-0.105462
-0.0419812
-2.02381e-05
-0.109872
0.0349216
-0.000110561
-0.0675288
-0.165024
0.466234
-0.087829
0.451975
-0.0102027
0.0618435
0.221211
-0.025125
0.24813
-0.00143911
0.0438003
6.04278e-05
0.0671161
0.160195
0.146051
-0.0208465
0.00442508
-0.00058352
0.150306
-8.57728e-05
-0.00012843
-0.000818788
-0.0191661
0.00973664
0.0108608
0.377861
0.111242
0.595561
0.345429
-0.00118819
-0.0233193
-0.000162413
-0.034923
-0.00106238
0.00419799
0.000430566
-0.0260245
0.297027
0.454627
-0.000251796
6.85393e-06
-0.0271781
-3.54497e-05
-0.00680475
-0.000172783
0.0910854
-0.0254333
0.158363
-0.0724376
7.95332e-07
-0.0101678
-0.0283768
-0.0199342
-0.011989
-0.0367685
0.0161923
-0.000151615
-4.84494e-05
0.0014677
-0.000138228
0.0462473
-0.0214656
0.0279601
0.549218
0.0324508
-0.108573
-0.0588278
-0.000368727
0.0384839
-0.000125805
0.423293
0.0768488
0.507167
6.92519e-05
-0.0234628
-0.00503061
0.0347322
0.0734329
0.378315
-0.00561824
0.0163603
-0.0014584
-0.0147655
-0.00589737
-0.00450251
0.0832472
0.00110483
-0.00710454
-0.0147199
0.151798
0.0370413
-2.27737e-06
-0.000697386
-0.00457953
-0.000487788
0.0739232
-0.000533337
-0.0278808
0.101002
3.6234e-05
0.208491
4.24229e-05
-4.22092e-06
-0.0681248
-0.0171012
8.97454e-05
-0.0162474
7.86585e-05
0.531573
0.00898673
-0.0172757
0.492825
0.100191
-0.0222765
0.370993
-0.00206931
-0.00141929
-0.00157356
0.0571017
0.678018
-0.00115241
-0.000503887
-2.51048e-05
0.0056278
-0.000966797
0.0187133
0.00440391
-0.0149966
-0.0413347
0.0132685
0.00733578
-0.0136181
-0.000438462
-0.0522072
0.356081
-0.00138361
-0.0099761
-0.000205044
0.380872
0.0371202
0.352324
0.00027781
-0.000671565
-0.0172988
0.551499
0.114407
-0.0202022
-0.000127696
0.0225736
0.0337125
-0.0302943
0.155336
-0.0331535
0.0129615
-0.11239
0.379311
-0.012748
0.205781
-0.00236951
0.640103
-0.0289007
-0.00800279
0.498355
-0.0300999
0.131259
-0.120098
0.149702
0.0046133
0.0359573
0.281073
0.0366063
-0.033387
-0.0070471
-0.00565295
-0.0144955
-0.027256
-0.00124535
-0.0404429
-0.0199903
0.00133081
-0.0453678
-0.0563162
-5.15225e-05
0.015103
-0.00665001
-0.00533444
0.500904
0.321108
-0.0369942
-0.0491606
0.000282037
-0.0669275
-0.00351035
0.619314
-0.0248683
-0.0213786
0.317243
0.0353479
-0.0288326
0.145626
-0.0259199
-0.000534588
-0.00850087
0.00716109
0.000404694
0.337165
-0.00202513
0.112101
0.260318
-0.00417207
0.201554
-0.0841449
-0.000310853
0.00472973
0.0295995
0.286955
-0.00188991
0.0487615
-0.0494495
0.0403504
-0.0164812
0.328432
-0.0097443
-0.0840869
-0.00263958
0.000103492
0.450057
-0.00183665
-0.0275224
-0.000110942
0.173127