/*--------------------------------*- C++ -*----------------------------------*\
  =========                 |
  \\      /  F ield         | OpenFOAM: The Open Source CFD Toolbox
   \\    /   O peration     | Website:  https://openfoam.org
    \\  /    A nd           | Version:  7
     \\/     M anipulation  |
\*---------------------------------------------------------------------------*/
FoamFile
{
    version     2.0;
    format      ascii;
    class       surfaceScalarField;
    location    "31";
    object      phi;
}
// * * * * * * * * * * * * * * * * * * * * * * * * * * * * * * * * * * * * * //

dimensions      [0 3 -1 0 0 0 0];

internalField   nonuniform List<scalar> 
43924
(
-594.902
667.109
-72.2071
1063.95
-1072.34
8.39166
-334.908
382.152
-47.2442
226.591
-258.846
32.255
-498.455
498.455
220.698
-263.728
43.0301
-372.48
366.175
6.30573
27.0182
-564.064
537.045
663.747
-833.563
169.817
-1009.29
1102.26
-92.9684
555.644
-145.405
-410.239
-531.68
536.346
-4.66548
-687.834
582.664
105.171
-859.817
868.878
-9.06135
265.512
64.8991
-330.411
385.672
-10.4026
-375.27
814.565
-666.867
-147.698
-410.269
407.563
2.70656
161.125
314.789
-475.914
290.528
-357.083
66.5557
-594.042
81.6691
512.373
724.486
-60.7396
49.8969
-384.805
136.529
-489.454
352.924
231.846
-120.806
-111.04
1067.97
-4.01903
659.849
-680.993
21.1432
-281.82
3.14854
278.671
306.942
-41.4295
-442.04
543.829
-101.789
952.736
-248.447
-704.29
-673.917
761.937
-88.0196
243.183
-223.577
-19.606
479.039
-70.5066
-408.532
126.918
-408.738
266.434
-431.076
164.642
440.316
-587.988
147.673
291.464
-38.2494
-253.215
824.603
-979.183
154.58
1062.05
-237.449
-1018.16
1035.69
-17.5362
402.492
-92.061
-310.431
704.03
110.535
189.221
-308.745
119.523
1228.47
-777.702
-450.767
-591.195
149.155
538.363
-538.672
0.309023
230.5
645.528
-876.029
224.701
537.241
-761.942
-107.055
547.371
-376.273
173.1
203.173
-13.8937
-224.882
238.776
-667.308
-6.60923
239.451
-18.7532
424.124
-38.4518
-281.544
-52.763
334.307
524.629
-499.796
-24.833
-34.274
-559.768
-463.601
42.4484
421.153
-297.367
-28.3847
325.751
799.51
17.5781
-817.088
-409.16
570.285
-15.5505
-245.003
260.554
-216.721
483.154
-329.415
439.314
-109.899
261.572
236.414
-497.986
496.22
-125.483
-370.738
428.616
-47.9303
-380.686
-448.587
-27.3871
475.974
-986.673
-31.4824
1061.61
6.35894
305.558
276.844
-582.401
-243.175
546.906
-303.731
172.207
77.8007
-250.007
-431.883
381.671
50.2127
-378.22
381.04
-2.81971
300.639
-170.5
-130.138
-250.933
-60.9648
311.897
-699.3
16.542
682.758
406.826
-91.8101
-315.016
-254.283
254.283
80.9772
-761.301
680.324
-663.132
68.2297
-947.22
848.225
98.995
-313.791
-58.6893
-49.3796
222.127
-172.747
522.184
-132.325
-389.859
-644.543
-43.2918
652.469
-69.8055
100.302
80.6503
-180.953
-355.125
90.7131
264.412
-309.694
58.7609
846.089
-621.389
568.23
-596.242
28.0126
226.382
-96.0548
-130.327
-365.457
139.604
225.853
-21.7188
251.678
-229.959
-846.711
847.434
-0.723876
-30.225
-160.335
190.56
276.699
2.07921
-278.778
-711.453
12.1532
-266.231
283.406
-17.1752
778.741
20.7683
428.112
-633.65
205.538
202.824
-216.717
-757.486
820.054
-62.5688
649.354
-716.142
66.7881
74.6789
577.79
943.845
-846.974
-96.8704
-216.233
238.495
-22.2618
198.473
44.7102
351.678
121.861
-473.54
1009.09
-256.884
-752.207
18.5533
563.665
-582.218
-12.8736
-587.348
600.222
539.566
-234.008
112.019
425.518
-537.537
-303.189
407.783
-104.593
76.7454
-814.826
738.08
-698.627
455.451
-24.3402
-195.71
220.05
20.8466
-855.779
834.933
-308.721
326.501
-17.78
-34.2876
295.859
24.0822
-890.783
866.701
-363.183
342.215
20.9677
-88.6866
-321.583
11.7305
-286.21
274.48
703.886
-786.619
82.7328
726.153
-860.277
134.124
-149.782
339.004
188.898
111.741
199.413
-205.055
5.6413
285.651
-313.57
27.9186
-129.381
557.493
625.974
326.762
145.857
82.1891
-228.046
276.807
-316.247
39.4396
196.824
-233.961
37.1374
-23.4294
300.128
-349.49
-13.6928
1.54101
-187.694
186.153
223.734
-62.2504
-161.484
181.123
827.968
-198.075
-739.277
937.351
-101.153
-397.302
522.791
15.5712
227.165
-224.59
-2.57482
259.545
-202.462
-57.0828
17.7882
-235.933
218.145
-395.357
633.46
-238.103
51.3864
508.382
-559.769
984.079
-886.467
-97.6113
790.917
-787.092
-3.82473
-574.733
-236.089
810.821
-145.948
722.104
-576.155
455.268
-443.638
-11.6297
-225.863
7.30875
218.554
30.7138
-762.308
731.595
-174.125
-202.148
-247.646
233.785
13.8613
241.189
-14.5979
25.3977
1020.88
-572.447
-448.433
735.196
-933.271
-399.561
96.3723
15.3374
208.397
16.4772
-778.241
761.764
-90.3858
-856.834
417.441
-452.225
34.7843
-106.671
832.824
54.1526
-736.367
682.215
-212.843
-13.0197
276.807
4.94218
241.712
-246.655
-432.676
432.676
82.7968
679.523
-762.32
-314.831
48.5997
-579.414
597.967
331.559
-299.068
-32.4911
-777.834
-63.2712
841.105
-146.161
447.279
-301.118
439.891
82.2927
428.87
-442.852
13.9819
245.541
-48.7178
-204.934
-332.069
537.004
501.238
-381.374
-119.864
-328.346
17.7939
310.553
785.396
-81.5099
-520.53
-79.5667
600.097
-661.087
661.087
-127.267
502.423
-375.156
95.4388
-341.675
246.236
-919.358
344.625
306.753
-358.357
51.6041
436.758
18.5106
809.946
-489.544
-320.402
918.493
-69.686
-848.807
77.4216
148.96
-847.228
614.258
232.97
-26.0946
265.21
-239.115
-210.537
221.31
-10.7725
-42.9906
-488.69
875.015
-890.163
15.1478
-66.9861
429.692
-12.2513
788.245
-791.942
3.69637
244.492
-17.3274
20.1269
-236.36
822.133
-963.822
141.689
250.936
-340.991
90.0543
570.671
-570.671
899.942
-93.2405
-806.702
594.256
73.0784
-667.334
56.663
-327.299
270.636
-205.895
280.995
-75.1004
-472.722
326.561
53.5192
734.726
-393.032
529.562
256.181
-178.76
-684.002
-176.275
484.542
-630.49
453.579
-501.165
47.586
-898.076
1032.81
-134.736
-580.387
555.683
24.7038
505.966
-582.255
76.2886
129.093
733.627
-862.719
211.296
530.711
-742.007
723.34
505.129
322.086
739.967
325.128
-232.039
-93.0886
-295.525
295.525
371.087
-402.086
30.999
-27.9634
1089.57
269.903
-323.616
53.7128
530.209
-478.822
-297.429
-562.388
551.673
-565.6
13.9276
-29.3509
904.366
253.53
-279.625
-213.787
191.764
22.0228
498.997
-587.763
88.7657
-197.683
959.045
-761.362
588.743
-82.7772
771.698
-383.572
-388.126
339.077
-48.5493
472
548.88
-210.197
160.818
-743.849
59.8466
-934.62
36.5438
477.649
46.9793
-679.865
891.161
-695.33
-62.156
188.483
-201.148
12.6652
-74.0083
915.2
-841.192
-38.0505
-817.794
855.845
184.12
-182.579
41.0442
165.383
-206.427
-9.01004
-365.948
374.958
322.217
-310.486
-606.393
211.036
-248.676
446.477
-197.801
908.548
-678.048
303.533
21.5945
282.304
17.5127
-299.817
-567.886
169.855
398.031
460.687
-31.8171
526.103
-731.038
-365.777
-12.4429
646.907
-746.152
99.2449
-220.019
152.483
67.536
-656.233
638.97
17.2631
217.94
-212.998
74.5211
181.66
-743.09
825.887
-332.382
326.477
5.90508
68.0396
-363.345
295.305
237.061
-204.88
-32.181
526.52
-328.652
-197.868
8.28954
-346.707
338.418
-497.309
484.435
-82.1319
290.418
-208.286
-660.95
157.987
502.963
-347.481
-17.9762
653.809
6.04026
445.529
-21.4048
-167.555
17.5052
150.05
-22.0061
725.727
-703.721
-854.413
983.506
320.803
-149.772
-171.031
677.33
-775.121
97.7911
423.985
347.713
706.366
59.6034
-765.97
818.098
81.8439
552.386
-528.834
-23.5527
1093.71
-1012.31
-81.4052
4.68362
-295.973
291.29
294.056
-11.7519
91.3666
140.48
209.828
-10.4144
194.911
-199.945
5.03427
144.073
148.73
-292.803
-304.758
284.448
20.31
-163.325
-295.871
459.196
420.172
-547.439
-320.057
196.033
-193.863
-2.16919
191.215
1009.18
-561.485
-447.696
525.897
-109.132
-416.765
140.495
508.859
78.6113
473.775
22.8378
-692.79
712.787
-19.9968
46.0215
-547.502
501.48
-89.0842
-246.893
335.978
-448.877
39.1541
409.723
-140.496
-336.039
476.535
780.006
-1.26504
23.2982
183.983
-374.987
191.004
159.245
-241.377
-920.742
849.289
71.4527
-296.379
305.784
-9.40507
670.152
-84.7186
-585.433
1047.02
-603.808
-443.211
194.301
-192.651
-1.64974
256.047
-112.897
-143.15
-421.595
418.214
3.38041
663.213
-31.5865
-631.627
-694.039
1.24845
374.029
32.7972
-570.372
451.438
118.934
583.303
-578.223
-5.08003
-855.762
44.3956
811.366
856.37
33.198
-889.568
-424.62
284.125
-202.587
35.0326
-322.525
531.268
-208.743
-170.859
-42.9277
754.995
-793.046
-142.166
183.21
541.968
-175.343
-366.625
-123.566
-309.11
220.806
-221.889
1.0831
619.535
43.6778
683.451
-608.772
21.024
-301.702
280.678
837.529
-876.396
38.8676
-313.678
14.6103
955.495
-958.696
3.20135
56.6524
214.417
-271.069
680.237
-33.3304
568.794
-592.627
23.8331
-828.44
849.287
188.364
-212.704
786.396
212.131
746.914
162.313
187.47
-349.783
-298.462
-7.89183
825.184
-73.1746
-752.009
596.478
-132.526
-463.952
243.922
-70.8221
83.8577
412.363
74.9452
-280.84
473.84
-503.899
30.0588
142.455
-348.835
206.381
137.684
388.836
58.6564
859.837
653.058
-773.262
120.204
-22.6685
978.163
-250.889
-35.123
286.012
-216.691
209.202
7.48888
3.01977
169.187
48.4643
452.773
335.085
-344.095
-358.705
29.2908
-338.35
40.9837
838.35
-58.3436
78.6169
-249.975
171.358
-957.014
22.3938
-920.582
-36.4318
-486.05
56.7233
429.327
-732.982
901.726
-168.744
-206.01
-53.7789
259.789
-119.939
-73.5625
193.501
-149.746
-50.7079
200.454
-140.497
229.906
-89.4088
853.459
412.795
-228.812
139.606
-12.5083
-567.879
-879.283
-41.4588
443.592
152.886
193.11
-515.636
200.754
-1107.04
906.285
27.1358
202.191
-229.327
-10.2706
-200.267
418.725
26.8038
89.1552
701.761
279.993
18.9651
-298.958
-472.083
584.103
728.769
72.8445
-801.614
-778.617
-8.00196
801.068
-855.292
54.2243
305.306
-263.059
-42.2472
82.8993
237.903
850.782
-864.959
14.1776
978.831
-862.15
-116.681
939.127
-943.682
4.55509
-399.593
-170.778
-4.91462
-873.286
548.238
325.048
-184.375
161.784
22.5911
-244.077
388.15
140.665
91.765
-232.43
755.498
265.699
-281.25
431.672
94.2246
782.847
-696.577
-86.27
-52.6346
-109.272
-86.2536
195.526
-308.146
260.638
47.508
862.529
-838.447
-21.6843
379.636
-357.952
-341.563
-7.92777
570.609
-583.579
12.9695
368.309
-327.308
-41.0011
-828.504
731.209
97.2951
-905.79
831.782
142.436
113.611
-406.317
276.906
129.411
468.15
-453.963
-14.1867
621.269
-622.65
1.38076
518.113
-44.2724
-324.919
-131.02
455.939
25.8435
-276.732
-72.0748
-246.449
318.523
544.285
563.928
-1108.21
-900.866
849.214
51.6513
-2.36247
-405.013
418.937
-13.9244
431.961
-399.765
-32.196
672.127
-845.787
173.66
711.255
-881.844
170.589
-503.004
-157.946
-446.037
77.9541
368.083
305.26
-6.44877
-298.812
-325.702
175.956
474.836
80.8075
-719.697
-108.807
6.8133
188.097
-302.304
300.775
1.52903
52.4618
-356.843
304.382
490.217
39.5024
-529.719
-231.442
300.785
-69.343
-896.197
-19.6387
915.836
-190.187
-42.7211
232.908
6.44037
-846.347
839.907
804.705
-118.423
-686.282
331.853
141.495
-213.57
-874.879
-21.3179
808.572
40.7173
-5.64387
542.888
-191.21
-510.492
-13.2532
523.745
-801.993
913.796
-111.803
313.796
-245.756
-397.285
308.2
-30.1523
590.714
63.0955
383.871
-241.416
298.389
511.556
-14.2362
26.3738
341.935
-778.236
87.5326
690.704
456.691
94.9818
-125.208
-35.4973
160.706
-851.809
-23.0703
70.5677
331.925
-197.04
227.87
-30.8295
48.4163
-279.859
-262.85
283.387
-20.5371
-18.5898
28.0452
-512.952
484.906
-611.182
-134.969
-22.8079
302.319
-279.511
-330.612
452.474
599.388
447.63
-1102.77
430.486
672.287
329.425
0.333353
-329.758
-226.904
-173.258
400.162
-524.55
551.569
-661.205
-18.5304
679.736
99.1466
88.7647
-187.911
-44.2491
799.244
838.959
-862.561
23.6015
807.484
-154.426
38.3955
-602.459
-325.377
-21.3304
556.809
57.7963
-614.605
439.589
21.098
-349.341
392.866
-43.5249
-853.645
-3.77573
857.421
-27.818
-823.991
307.384
-282.139
-25.2453
625.208
-3.93884
573.858
-411
-162.858
-214.85
277.066
-62.2153
-84.9549
-273.75
-420.603
-42.9979
894.772
-183.516
-822.002
89.0197
-629.293
18.111
-539.652
50.3984
489.253
820.551
-39.6287
-780.922
-261.857
121.36
0.233175
-356.088
355.855
859.585
-187.458
307.707
-2.44661
636.623
-67.8291
494.199
-3.98242
801.387
-712.231
-1045.13
-57.6414
444.926
23.2243
531.377
36.8531
728.892
-698.179
796.093
-38.5156
-757.578
194.151
-224.376
275.299
-14.6601
-118.087
216.481
-198.692
474.953
15.5566
-490.509
576.255
-97.732
-478.523
-459.374
421.917
37.4579
128.887
672.5
3.38131
-96.8907
-759.981
856.872
76.0778
-669.197
593.12
226.888
-304.057
77.1694
-742.937
646.046
91.7536
712.951
-504.406
1048.69
245.182
-166.565
-279.92
-178.98
247.596
-68.6155
208.615
-261.753
53.1383
-180.057
320.721
-9.26029
-332.302
-51.1351
5.46285
-410.794
405.331
-47.5462
-161.965
-195.118
-30.0561
367.709
-337.653
-870.851
944.465
-73.6139
45.4993
-528.117
482.618
35.3785
-252.07
-755.835
106.175
649.66
354.746
-227.828
819.405
1.14589
-4.98692
223.972
-218.985
436.689
137.169
-119.123
-326.915
815.954
-201.696
-95.2084
-914.086
612.697
-335.853
130.968
47.4521
653.857
-572.88
495.303
-16.2642
342.399
-35.6465
339.032
-421.446
82.4137
198.823
-250.168
51.3445
47.6406
249.713
-297.354
335.842
-499.167
-4.04909
761.957
-806.206
537.694
-62.7411
-105.96
737.497
-631.538
-269.354
304.044
-34.6901
-68.6469
295.535
205.248
-189.911
-281.678
12.3246
-1060
587.984
472.015
-35.8753
-76.459
176.761
-309.641
295.072
14.5691
-676.025
692.502
268.419
-273.287
4.86838
-476.492
180.621
-503.514
-556.485
240.204
-278.453
847.167
-946.599
99.4313
-343.741
18.3645
486.123
-626.798
140.675
-2.46032
811.032
233.031
-265.692
32.6614
-322.9
-550.386
-37.4369
293.699
-25.2799
345.839
-114.328
-231.51
-20.2131
-842.208
862.421
-876.842
484.606
392.236
-56.0925
735.616
-457.897
37.2942
-142.538
-131.457
273.995
875.584
-822.25
-53.3338
393.032
-322.464
796.939
4.12938
105.71
85.8323
-191.542
-580.555
1024.4
-443.843
145.855
-194.478
48.6228
-758.974
-144.987
903.961
130.026
215.812
853.515
-31.3813
813.471
-736.725
503.17
-419.312
6.50486
-251.508
50.722
147.768
-198.49
306.792
236.097
-23.887
-1098.2
619.198
479.002
8.09769
891.693
-60.5444
-831.149
-430.592
622.871
-192.279
57.1488
756.322
23.1613
-533.653
-590.527
-18.2985
608.826
418.566
144.257
-562.823
-264.728
-522.364
278.91
63.4891
-178.335
-75.9486
-406.351
352.783
53.5682
-791.356
301.812
201.047
-262.217
61.1693
220.622
-251.212
30.5905
430.071
-424.608
727.367
52.1857
-779.553
-202.909
42.5741
821.66
20.7542
-842.414
-358.683
18.7182
339.965
118.64
860.191
-409.552
452
411.461
-72.4292
-954.488
99.7032
854.785
789.101
102.592
-42.3948
241.218
50.5476
381.413
899.142
133.669
27.1092
-485.007
28.7088
-826.888
798.179
697.723
-766.434
68.7113
636.31
465.953
769.013
-56.0321
-712.981
195.612
-49.7563
76.3764
339.428
-415.804
-735.244
792.393
268.953
170.361
-270.391
168.091
102.3
-111.188
-426.836
538.024
-32.1138
-215.532
1004.41
-573.925
80.8163
-286.826
212.174
-217.161
-103.133
-155.713
30.6492
820.133
-165.302
501.144
-601.41
756.101
-154.692
684.497
-706.503
-393.412
380.159
-442.684
-179.966
39.4998
348.744
-12.2264
-336.517
-46.2878
808.245
-505.246
-623.365
1128.61
287.845
-236.487
214.769
8.18877
197.059
-246.47
125.664
-885.299
908.96
-23.661
-271.75
254.823
16.9268
73.9582
708.889
3.36335
765.65
635.714
-16.1783
-15.0793
-512.29
471.115
41.1742
933.077
17.1532
-950.231
-312.554
-46.1286
-0.341677
-234.481
796.983
-69.6164
529.019
-623.129
94.1103
-761.972
-84.7383
39.2182
266.088
888.656
10.4864
-490.788
440.86
49.928
-950.452
-94.6792
42.1477
-386.352
344.204
-193.421
220.505
-27.0845
246.82
-38.205
-39.738
1050.3
-313.223
-737.079
579.599
-50.5803
52.1208
-263.884
-63.415
-692.7
778.124
-85.424
-74.7659
-10.524
231.146
504.781
-5.78418
92.7909
-870.625
-92.1156
212.917
-120.801
-194.346
215.516
-21.1701
-681.796
570.608
-450.956
479.001
342.608
50.4234
-460.576
424.833
35.7428
580.025
429.155
498.45
-459.952
-38.4987
481.14
-309.617
-171.523
-202.765
32.2646
350.527
-21.4459
-329.081
-250.467
71.487
-321.573
287.285
-219.037
-636.725
-691.559
-81.7028
259.785
-58.738
662.424
197.16
6.97149
226.813
816.309
-84.7845
-731.524
328.843
-142.105
647.024
-504.919
241.43
-295.209
-96.1545
514.721
-750.838
7.74724
-115.662
-104.357
500.005
-95.6429
784.403
-688.76
-198.239
220.095
-21.8564
-30.44
-241.31
829.586
-737.833
222.17
-428.066
-407.599
835.665
862.501
-200.076
-43.9816
789.524
-745.542
597.388
-6.67473
17.7322
-608.259
280.315
138.725
-419.039
-404.117
480.493
-22.2522
-317.613
339.865
-617.011
65.827
551.184
-142.922
517.334
-374.412
-480.058
409.56
-483.139
73.5792
105.193
-178.359
73.1655
-178.531
340.844
-176.232
-189.545
729.89
-32.1668
102.289
581.163
-611.043
648.882
-37.8396
269.19
-291.998
-810.463
-52.0981
97.0924
-433.132
590.12
460.182
-615.786
173.103
418.161
-846.227
385.793
-681.891
28.6529
653.238
-198.025
250.134
-52.1085
-816.295
886.702
-70.4076
-48.3331
-432.2
480.533
1005.36
-405.617
-599.744
-68.8103
-786.482
10.719
296.665
-950.466
207.423
743.042
-857.711
-92.7544
-172.864
-11.5105
-777.766
731.479
-132.489
-296.499
428.988
-15.3964
-266.454
281.851
160.35
647.134
240.118
152.693
-392.811
-902.868
154.576
748.292
541.183
-580.955
39.7721
604.542
58.5967
-663.139
-44.4039
673.844
-639.872
-33.9718
353.148
-23.7229
-24.2053
224.193
-199.988
608.382
65.4618
13.9085
-792.525
721.541
-777.573
-175.265
225.987
324.183
156.957
143.549
-319.781
203.663
-207.644
3.98155
341.656
-199.5
-142.156
592.117
43.5961
-747.627
801.034
-53.407
-408.259
-98.1445
506.404
-13.1343
-289.17
251.366
61.1233
-312.489
249.936
-100.076
-149.86
418.327
-466.66
-61.7157
-740.277
-410.91
94.2727
142.789
509.974
-442.593
-67.381
-229.074
256.21
-203.028
195.199
7.82909
23.8888
-226.254
202.365
-322.547
379.334
-56.7866
212.298
-10.3727
-201.925
450.446
554.915
-261.845
555.531
-473.862
140.638
-228.353
87.7156
-201.211
-12.0528
213.264
701.283
-96.7407
243.538
-169.017
-357.485
276.419
81.0661
-424.881
-20.4881
445.37
-352.044
449.137
311.541
-323.365
11.8237
-16.8604
32.4833
470.687
462.789
35.6612
38.4822
-463.364
189.647
2.11711
-338.435
-5.30688
-370.14
297.492
72.6485
342.168
-63.2582
673.62
221.152
-230.796
254.685
-288.953
306.747
103.405
656.021
-759.426
-736.615
-25.7378
762.353
31.2068
164.559
16.7773
-339.325
-690.693
621.111
69.5821
121.558
-176.708
168.601
8.10731
428.129
-147.815
-240.185
-178.326
418.511
-165.42
-346.87
220.826
-17.1633
-262.966
120.428
92.366
-184.482
-1009.54
696.319
-347.864
347.864
851.462
242.251
-35.2642
-509.099
-500.442
209.986
326.36
528.117
42.5535
545.656
-51.4568
274.574
-247.598
-26.9754
-629.406
662.297
-32.8911
-50.2865
-532.513
-46.901
-635.848
717.707
-81.8593
84.2482
-493.408
-353.104
539.433
6.2226
529.181
22.8971
-552.078
747.499
-647.318
7.44607
-110.189
-68.9292
179.118
-412.477
90.9039
312.27
-33.3911
-278.879
-152.879
-49.7082
-302.12
289.376
12.744
-292.266
77.4158
869.352
-195.732
-334.596
48.3861
768.071
-1.43169
-766.639
584.18
-659.021
74.8401
-922.854
830.374
92.48
-23.5275
-637.678
110.091
297.692
-23.3812
-261.284
284.665
-787.547
26.2454
-203.76
-290.819
267.438
-466.135
511.634
-243.05
271.048
-27.9976
-303.216
299.933
3.28359
-810.79
704.83
995.982
-148.815
-169.701
309.597
-252.945
361.029
-173.559
418.641
-311.89
-106.752
287.557
54.6114
812.636
-90.0886
-722.547
184.277
-681.586
-754.82
671.621
83.1997
5.58728
-617.324
624.209
-6.88477
64.6884
178.849
-98.6192
518.791
-268.171
293.339
-25.1686
379.159
-458.311
79.1518
-608.644
649.225
-40.581
585.66
44.3429
-630.003
243.885
-221.263
-22.6221
556.38
-24.2445
-532.136
229.66
-118.795
-110.865
-124.407
-48.5675
172.975
955.533
-946.444
-9.08923
-575.499
-388.323
-46.3197
-756.593
802.912
-897.642
834.371
-588.818
363.364
225.455
605.09
-623.389
-14.5652
673.41
-658.845
25.7964
141.945
-167.742
-70.7982
-286.045
-855.975
-66.8783
15.4615
366.209
334.079
-739.696
199.513
-9.86651
-229.141
229.141
407.343
-137.693
-269.651
-911.259
25.96
-3.16245
-26.5315
-477.273
503.804
-753.733
-80.6524
487.072
-406.419
-252.403
-408.684
432.388
-10.4711
-56.4511
258.642
155.609
186.046
-543.024
397.619
-166.582
406.7
339.579
-52.0219
762.679
-708.526
-284.269
-7.61393
270.737
-946.891
-3.56106
5.61083
927.467
532.984
-448.736
-838.018
573.95
264.068
2.92855
259.764
-262.692
350.226
-7.02213
-343.204
-462.003
31.4115
-834.993
748.719
86.2742
-128.74
-183.815
194.802
45.2216
-240.024
213.013
126.566
-800.992
17.778
-589.668
326.886
262.782
37.7925
247.859
362.161
-325.307
-36.8541
-387.866
400.356
-12.4894
847.416
-513.337
-455.011
312.906
-322.871
191.77
131.101
423.382
-720.812
568.409
-27.226
811.248
-807.885
79.8134
149.847
-828.872
811.68
17.1915
-794.637
47.0092
-472.162
-527.846
1042.65
-186.28
931.097
-835.179
-95.9183
-521.121
-463.315
984.436
-48.6342
-256.124
53.1975
226.012
-233.28
7.26737
-22.1098
-56.07
733.4
468.669
-33.7417
-434.927
-367.062
-200.825
19.2952
-86.5858
-254.405
-157.445
424.432
-266.987
-925.709
925.709
92.889
-806.006
485.604
-510.87
69.189
441.681
-211.695
-194.623
172.61
-164.932
-378.092
-553.745
388.813
602.181
58.0062
191.93
420.83
-929.905
509.076
-29.013
309.006
-223.064
-262.986
-215.99
418.731
-94.548
-181.58
-141.292
-65.489
-835.377
452.506
-518.108
65.6022
17.2336
-695.231
776.891
-81.6601
415.766
-420.903
5.13739
246.891
-567.909
529.725
38.1847
101.105
117.896
-219.001
195.118
-219.323
378.937
-708.789
329.852
110.541
758.337
167.095
240.249
-68.6625
-492.283
465.751
292.803
-307.307
14.5041
416.536
-37.3772
353.963
-384.019
-22.5745
-367.591
390.166
-39.9519
-273.618
321.98
14.9198
-336.9
-426.84
269.394
-388.523
40.4008
631.108
-749.53
-410.028
532.145
-313.326
-91.6872
976.653
-866.111
-492.736
-312.305
805.041
293.832
38.9706
290.284
-329.254
-456.012
143.127
-271.867
-51.8055
451.1
-563.919
112.82
47.426
613.661
-186.618
76.4293
328.519
-290.726
708.749
-329.812
269.305
-178.591
24.0242
364.841
-388.865
-28.4761
-296.419
-5.28276
-256.556
251.338
5.21858
1.13027
555.39
-532.228
40.2559
-891.588
113.347
799.086
-2.14774
329.73
-116.717
525.489
328.708
-854.196
598.401
239.949
671.047
-766.69
-748.988
104.809
644.179
280.533
63.5766
-344.11
187.28
-180.144
-7.13661
26.6585
274.524
572.91
-197.086
36.9527
160.134
-156.865
-606.923
763.788
-339.632
360.953
-21.3213
-254.505
291.949
-37.4448
-148.483
-175.133
-255.533
212.182
43.3513
920.09
-920.09
-87.3346
727.048
-639.714
294.286
-211.387
345.054
-68.1483
-657.813
190.251
27.8974
-218.148
40.4444
-585.44
544.995
38.9527
-240.299
201.346
908.273
-913.977
5.70325
301.004
-674.51
373.506
346.109
-303.961
51.7909
310.37
-350.748
876.237
557.069
-105.97
-72.8752
-243.371
-400.196
322.93
77.2661
220.219
-345.701
332.887
-500.095
167.208
-249.243
51.2181
-873.293
-73.5987
33.4537
-728.684
319.215
-179.611
796.381
-773.239
-23.1418
430.995
51.4081
-482.403
-685.59
610.673
74.9172
-248.777
209.612
39.1652
320.825
-28.0221
-426.124
-254.869
877.85
-834.034
-43.8165
-357.689
658.693
128.227
-536.487
-864.72
11.0748
-55.8936
-600.859
656.753
43.6548
-137.575
-132.816
-917.747
411.678
506.07
192.479
2.71968
450.08
-34.3143
543.445
278.324
-268.817
-9.50703
-334.648
-6.06317
340.711
-551.359
444.304
-0.991734
-203.652
204.644
231.851
-41.6002
-96.0337
358.416
-262.382
-355.684
6.34301
434.91
-10.0767
60.0054
-809.481
749.476
-664.296
664.296
53.7956
187.635
-89.5845
-505.504
595.088
-854.474
938.104
-83.6295
741.122
55.259
-14.1403
-834.529
848.669
324.297
-341.67
17.3727
325.165
14.458
-339.622
584.291
-636.899
52.6081
45.4126
313.239
-358.652
-213.796
-119.794
333.59
196.41
-9.1299
106.5
-710.518
604.018
-760.011
267.274
350.703
-311.732
793.739
59.7754
-77.3843
-433.486
342.437
-390.368
-681.217
101.562
579.654
319.559
-282.934
-36.6251
-531.243
614.798
-83.5546
-81.9315
-362.939
444.87
408.731
-382.358
-592.265
-325.482
602.131
-725.277
123.146
-407.369
-430.649
837.856
-39.7444
-645.846
120.804
459.92
-580.724
563.565
-644.795
81.2297
39.7348
-242.197
11.1092
-693
-321.213
321.446
4.12689
570.549
-692.722
122.173
-344.506
-430.614
-2.44152
-684.817
698.111
-13.2943
763.076
-164.675
645.582
-102.911
-542.671
216.881
293.094
290
-297.487
7.48667
807.725
-935.881
128.156
-651.457
-97.5315
-293.108
24.9377
-325.827
81.4413
244.386
-56.4016
640.692
89.315
-254.901
165.586
357.826
-335.795
-22.0309
-342.383
-247.285
-14.8575
203.34
-27.5969
-173.551
229.497
138.32
-367.817
-271.774
319.671
-47.8971
588.649
-678.234
23.8559
288.414
-266.996
-58.8305
-292.077
-296.741
-711.335
540.7
170.635
-111.326
-152.402
-162.615
66.5607
-578.352
536.393
41.9587
576.956
-1098.08
-24.8932
-1014.32
-140.786
367.527
51.2033
-22.6684
-51.3935
-758.674
127.136
851.948
-845.508
617.393
-76.693
1.86038
589.244
-591.105
-282.83
-165.069
447.899
-44.4216
-204.356
7.11372
197.078
-210.952
13.8739
-993.86
231.552
448.548
-115.661
19.6758
-627.98
608.304
298.407
-364.923
26.8307
338.092
60.6854
573.444
-634.129
-103.057
771.449
-668.392
-669.461
-195.499
-727.991
38.5275
689.464
-32.9573
569.611
-536.653
923.588
-915.132
-8.45552
563.121
-619.014
-611.188
-23.6541
634.842
-395.96
124.186
277.342
-274.05
-3.29185
801.313
-772.604
-96.0379
730.872
-634.834
459.511
11.6048
-433.976
-669.872
604.141
65.7313
399.161
-92.2117
-564.021
-55.3655
-11.2215
-399.572
-27.5082
214.23
-186.721
23.2904
327.413
-360.508
364.401
-3.89268
746.12
-792.44
121.648
138.141
214.01
-225.873
11.863
684.151
-775.287
91.1359
-321.401
-680.333
-12.3667
794.982
74.3701
291.031
120.431
811.466
-16.4844
-33.1445
-1029.59
173.806
3.94097
19.8403
-567.342
158.026
-132.23
-1082.88
-241.862
240.87
71.0029
223.283
-107.679
-467.127
574.807
-2.48132
-477.508
479.99
838.928
-31.2033
570.077
75.5049
-42.6767
-204.115
246.792
742.783
-786.764
-152.036
381.533
-404.583
444.272
-39.6886
-679.277
723.189
-43.912
286.549
-358.257
16.582
393.363
-141.879
-251.484
175.481
-511.594
466.121
45.4723
4.78532
-461.324
461.572
-0.24859
613.771
-596.038
34.3969
-162.551
593.546
-294.675
57.4898
440.965
41.363
607.428
-648.791
-79.6691
-143.908
196.589
13.0233
31.5027
-391.419
26.4968
-413.355
8.77173
251.057
-253.118
2.06034
711.254
-682.601
-485.031
84.059
400.972
-42.2784
626.459
-21.3355
-204.919
914.263
-141.773
-772.49
518.881
537.486
-1056.37
-292.056
-16.6888
290.889
4.18315
10.2683
274.18
-691.102
-3.04331
694.145
592.133
-748.998
-211.632
193.359
18.2727
-525.901
-23.1924
-646.005
6.16059
134.477
-137.347
-428.253
-105.824
195.139
17.0602
-635.329
618.269
-38.783
-497.787
536.57
-261.174
306.587
-69.3071
626.116
-728.399
753.729
-25.3291
217.715
-482.443
248.497
-260.044
11.5469
11.5145
-838.415
27.6256
243.361
-457.157
910.318
-920.396
10.0776
636.817
13.7111
-650.528
-53.3975
-539.229
-807.249
840.447
120.112
-206.365
897.674
-78.2685
241.248
-15.2355
-60.3882
-715.986
776.374
-87.835
-596.982
-21.6463
550.827
-672.896
21.4395
207.553
-233.36
25.8069
-236.898
2.36108
234.536
-558.598
533.514
25.0836
-210.514
86.1068
60.3706
88.1527
-148.523
-880.249
314.615
20.0486
-334.664
54.9655
637.887
-692.852
-340.728
367.368
-26.6404
-651.028
-21.8685
-665.157
768.562
-896.65
127.545
769.105
-145.996
-168.835
-445.336
63.9622
-456.877
-615.464
268.376
-2.67725
-290.176
290.874
-0.698255
174.661
-73.5556
-422.739
393.769
28.9703
-954.878
972.031
-288.025
97.57
190.455
133.301
24.725
522.858
857.696
-877.909
276.799
-38.8957
369.641
-512.563
-789.39
811.33
-21.9403
-347.38
-185.829
533.209
132.592
-174.221
41.629
426.346
-524.965
746.848
-682.819
-64.0287
-260.229
-31.8272
332.763
-81.3972
315.807
-291.951
331.711
-652.042
-17.8301
5.53172
633.438
-370.012
142.184
20.6526
-891.504
548.055
-390.069
608.145
368.507
423.633
8.755
744.64
-805.028
-40.1051
-14.4694
827.283
70.3906
421.129
-499.845
78.7158
236.832
-199.246
-37.5857
-185.68
210.487
-24.8069
-10.3975
342.714
-332.316
-617.513
658.877
438.515
249.909
-218.196
-31.7136
364.018
511.566
313.025
-334.471
709.928
102.708
78.0481
-601.34
523.292
639.79
-35.6494
40.3366
-930.443
113.948
816.495
214.745
-257.466
-251.466
-793.294
732.264
61.0302
5.24366
814.334
-819.577
928.788
-928.788
-378.089
17.5808
602.826
36.9644
-109.143
-25.2235
-190.801
216.024
437.581
27.8203
-465.401
-435.161
21.2704
413.891
186.807
972.167
-453.286
-229.231
39.749
189.482
-627.211
630.8
-3.58891
430.163
-470.034
39.8717
-430.759
-4.402
45.5448
-764.998
719.453
-636.636
-61.991
-549.42
518.487
30.933
-374.102
289.147
25.379
-239.087
213.708
-160.536
-127.489
-28.8728
224.25
-27.6609
45.4645
297.204
-278.239
-71.6632
791.61
366.877
-52.2611
-769.336
32.7206
-890.025
814.426
75.599
122.665
284.898
376.064
163.502
-754.914
858.753
330.002
189.097
-519.099
-164.543
594.453
-644.04
49.5878
482.937
55.3639
-538.301
638.815
-344.107
-294.708
-479.757
-116.486
-781.607
678.549
27.1486
-685.792
658.644
-711.322
108.511
602.811
-763.594
23.4493
34.8252
508.595
-87.466
-519.52
354.218
555.561
-588.518
-35.4085
-67.2489
230.681
-163.432
51.1286
-686.977
-233.559
-234.315
167.066
-30.0234
268.161
-106.548
-161.612
162.337
-7.97224
-633.768
721.3
-32.5557
198.298
-165.743
869.867
-629.38
12.0558
136.495
192.024
1.00567
397.558
-398.564
-222.319
-198.311
420.63
180.935
763.53
379.604
-355.58
-842.577
7.5835
626.409
-609.867
-0.732314
-812.001
812.733
589.549
16.0751
-605.624
845.698
46.1202
-891.818
310.514
-10.5811
124.289
-407.119
425.936
8.97365
-255.264
335.04
-79.7764
193.713
381.569
-90.5384
611.223
-55.2509
-555.972
-756.384
782.266
-25.8819
12.8699
648.922
-661.792
-645.816
114.572
-6.76986
-442.405
605.709
34.4777
323.348
-30.5194
189.318
-90.1715
-336.499
1.85181
95.962
742.966
3.65608
-277.724
274.068
-422.584
-507.322
-57.4459
-757.753
815.199
265.747
-51.33
190.366
-263.171
72.8052
195.697
-94.814
-222.17
-516.877
-581.322
-791.996
-18.4672
-166.921
-815.758
776.447
39.3113
-34.4702
469.743
-435.273
59.7818
821.34
-881.122
197.629
-137.259
774.877
26.1577
-222.709
197.485
20.3723
-306.839
286.467
575.726
-573.866
-645.801
130.24
515.562
-563.167
587.794
-24.6263
31.7
258.3
-665.209
-441.831
608.543
45.8142
-654.357
-721.933
606.76
-679.215
72.4552
-151.32
-45.7663
450.051
-484.325
-846.541
851.785
106.116
-307.801
-588.849
-642.418
593.278
49.1401
181.802
-76.6083
-43.6329
459.462
179.353
-570.868
57.9166
514.261
-527.185
12.9238
73.1739
-717.666
644.492
267.532
-16.4753
-313.153
166.344
146.809
-569.472
592.369
-131.661
476.113
-344.452
681.424
-86.9715
0.923777
-317.955
317.031
-446.906
-442.763
889.669
-143.122
247.94
-104.819
-101.813
-579.403
-572.826
420.698
152.129
403.285
-37.5765
-365.708
4.67489
147.808
-252.159