/*--------------------------------*- C++ -*----------------------------------*\
  =========                 |
  \\      /  F ield         | OpenFOAM: The Open Source CFD Toolbox
   \\    /   O peration     | Website:  https://openfoam.org
    \\  /    A nd           | Version:  7
     \\/     M anipulation  |
\*---------------------------------------------------------------------------*/
FoamFile
{
    version     2.0;
    format      ascii;
    class       surfaceScalarField;
    location    "29.5";
    object      phi;
}
// * * * * * * * * * * * * * * * * * * * * * * * * * * * * * * * * * * * * * //

dimensions      [0 3 -1 0 0 0 0];

internalField   nonuniform List<scalar> 
11512
(
154.159
-514.342
360.182
-767.99
-16.9242
784.914
435.264
-396.197
-39.0672
665.183
262.79
-927.972
1561.98
-1106.63
-455.355
1174.15
-1449.85
275.701
-46.9693
503.332
-456.363
169.424
-858.984
689.56
989.589
-1661.68
672.091
-1785.45
1697.44
88.0042
-569.353
1743.5
-1177.73
1997.73
-819.996
604.46
172.156
-776.617
-22.7326
-1348.39
1371.12
228.465
-2013.91
1059.62
-393.16
-666.458
-179.968
334.127
476.931
173.181
-650.112
1195.66
-1356.55
160.885
-319.181
391.779
-72.598
1038.67
-1344.57
305.893
1261.16
825.515
-2086.68
70.6139
-1681.43
1610.82
-520.347
-1144.93
1665.28
456.136
155.51
-611.646
-197.875
-316.466
513.735
1048.25
1687.74
-1843.95
156.217
-111.708
-1684.37
1796.08
-1610.46
670.026
940.43
-315.203
676.191
-360.988
-96.7712
-93.0517
189.823
1316.74
-1246.12
370.028
-1454.11
1084.08
-1011.54
1011.54
95.2211
1566.03
-1661.25
-1111.29
-499.171
680.431
-727.401
-395.645
973.604
-577.96
1198.31
-1191.98
-6.3349
-1138.04
742.392
651.275
408.344
-399.807
-44.4155
444.222
-441.372
789.603
-348.231
-879.145
879.145
1175.7
-1301.19
125.485
-504.519
1765.68
1299.49
-325.887
1708.85
-1190.14
-518.709
84.7036
-403.885
2131.79
-1171.09
-960.702
1854.79
-167.054
414.795
124.357
-539.151
-463.757
1000.59
-536.837
-1197.03
1292.26
-587.116
1004.3
-417.187
417.771
777.892
648.215
-478.791
-451.864
617.001
-165.137
1230.74
-860.713
2376.99
-1113.51
-1263.48
1201.49
-2073.42
871.93
-1640.19
1617.46
455.458
-1633.19
-615.26
1101.24
-485.976
-696.54
381.337
1713.77
-724.186
-1138.82
-896.229
2035.05
687.78
-378.075
-309.705
713.013
586.479
-267.368
1443.07
121.628
-332.054
210.426
-282.543
738.679
-278.22
445.135
-166.915
-327.252
804.183
-328.268
-155.448
483.716
342.474
92.7899
1491.45
-452.775
-1002.71
506.767
495.94
290.648
91.9642
-382.613
954.516
-350.056
-1749.76
607.479
1142.29
33.467
-879.774
846.307
-274.11
586.4
-312.29
162.602
-1130.93
968.332
826.004
-837.936
11.9322
384.047
535.195
-919.242
-235.697
650.492
-1139.51
-499.439
1638.95
-457.814
692.618
-234.804
1349.02
-1460.73
-646.838
296.788
350.049
-488.413
-1025.59
1514
-559.343
-817.635
1376.98
581.601
-990.694
409.093
-113.888
-188.958
302.846
423.594
-301.966
-1070.05
606.296
987.871
-825.269
-91.9268
721.153
-629.226
-179.352
368.945
-189.593
-632.208
-370.499
-396.757
978.358
1146.54
-1146.54
-465.727
-181.111
-944.076
1580.78
-636.708
324.551
-728.475
403.924
-954.768
367.652
-964.828
-1088.74
-1535.24
365.229
1170.01
-272.051
937.233
-314.085
634.709
-320.624
-1995.92
1031.09
-1165.63
-369.616
583.723
-1527.8
1783.06
-1781.43
-1.63305
227.669
-627.314
399.645
-1484.53
976.313
508.213
301.399
218.913
-520.312
287.199
-565.42
170.003
-275.086
105.082
2038.6
-845.6
-1193
-567.037
167.23
640.649
857.868
-1498.52
-145.466
315.469
446.778
905.679
-1352.46
-941.703
410.175
531.528
-1077.4
1495.17
-783.005
167.745
780.597
-104.407
557.569
-277.66
-279.909
1028.6
-521.835
616.18
-1451.37
835.186
-1387.69
248.181
-517.586
243.476
-1207.93
935.882
2014.88
-1144.41
-870.476
252.746
893.796
-2159.99
921.668
1238.32
193.444
-14.3609
-179.083
-159.92
312.072
-152.152
-118.897
-389.948
508.845
-483.801
155.533
285.215
-51.7371
376.288
422.342
405.012
-827.354
-2052.93
1140.93
911.999
476.312
-552.817
76.5055
139.097
-208.198
69.1009
965.671
1072.93
1820.88
-254.844
740.205
-443.416
823.379
-1436.77
613.39
358.574
329.206
1078.42
-1044.95
-514.068
-257.983
772.05
495.012
-141.995
-353.017
696.303
-524.147
615.433
-812.655
197.222
522.836
1186.01
-1282.02
722.673
1026.42
-1546.77
1.62108
-1483.6
1481.98
335.734
853.454
-1189.19
611.646
243.789
-855.435
-2275.91
1179.14
1096.77
-1122.26
-1153.64
215.953
399.48
991.075
-655.341
636.971
-647.389
10.4173
-2160.73
1021.91
-81.5065
-94.5866
176.093
-44.3572
1827.42
-852.801
84.8109
-1058.94
-1101.05
-167.212
306.309
-684.764
219.037
-280.431
-427.642
708.073
1134.39
-1622.8
806.659
-1420.31
613.656
711.067
-448.277
1917.4
-1394.56
-324.082
-687.454
75.3839
427.948
-551.446
534.522
5.06614
-582.786
577.72
591.468
-290.07
-569.762
272.824
296.938
807.228
-384.885
16.0881
177.356
1225.27
-1223.65
187.175
236.419
396.729
-677.159
638.685
-1035.44
-2088.72
2088.72
-266.013
-452.945
718.958
719.666
401.65
-1121.32
599.09
181.507
408.122
399.106
-2264.15
1367.92
-956.75
-701.322
1658.07
-479.331
-728.602
-259.267
557.856
-298.589
875.195
-229.35
-645.845
-442.564
670.233
391.065
-705.151
-358.715
-149.398
508.113
-1354.22
-489.735
664.632
-1143.96
-311.545
-567.6
869.516
1507.47
214.024
-385.414
171.39
999.991
-348.716
1438.27
-822.093
462.445
-275.27
-342.613
-911.946
600.155
311.79
-361.127
-550.818
317.478
-436.374
-188.146
-120.339
308.485
-405.417
1125.08
383.856
-210.675
-324.818
1388.75
-186.041
-1202.71
-487.142
283.84
203.301
233.308
256.506
-489.815
3.58643
-816.241
612.227
-1783.13
1170.91
1529.06
-888.414
-1048.52
-436.001
-1094.22
592.761
501.454
1405.29
-428.975
959.366
-1458.8
-167.772
-217.625
385.397
-474.937
602.73
-1680.13
409.564
788.748
288.535
299.815
-588.349
462.189
549.347
1142.73
-741.855
-400.87
388.685
-206.901
-181.784
-1457.51
460.141
763.341
-1223.48
1522.62
-563.253
-487.122
944.812
-457.69
442.694
1218.77
-1661.46
17.2046
-475.018
-149.312
439.96
72.4208
-169.192
532.569
496.033
-643.756
53.3238
590.432
935.783
-1142.64
206.86
685.088
-276.966
486.077
-1494.66
1008.59
422.449
1740.73
-539.247
825.658
1189.22
-686.521
-1739.91
783.162
591.343
398.924
-990.266
466.659
82.9052
1804.77
-1887.68
1337.31
-382.874
-954.436
1752.62
-1796.98
-381.203
-530.35
745.587
-215.237
-514.064
192.273
302.739
-379.048
-1242.11
216.516
-792.742
-658.625
-601.954
1058.95
-456.993
-398.888
393.478
5.41057
516.392
-666.261
149.868
-235.688
68.8483
166.84
-670.793
-707.851
359.515
348.335
-960.269
1446.35
-421.548
911.958
-490.41
-2270.22
6.07292
190.475
-557.684
367.209
155.853
1232.9
-108.625
-576.139
167.66
-619.524
1536.12
-729.465
388.467
-482.797
94.3295
-112.534
112.534
563.122
316.022
1835.52
-1270.66
609.051
661.611
729.761
-33.4579
1333.63
798.163
-558.695
1382.07
282.563
303.837
293.493
-823.842
258.398
-699.77
204.659
-376.77
172.111
-251.205
605.721
-354.517
129.142
-380.347
-611.968
-584.223
1196.19
-366.365
545.54
-179.175
-1175.88
2045.54
-869.661
1333.86
-342.784
-149.303
35.4148
-1988.13
843.204
1559.64
-849.857
-709.785
2048.61
-905.402
-1143.21
737.593
596.267
-222.474
427.133
-675.729
1164.89
-489.161
-795.697
1242.47
569.644
954.71
-1781.27
826.561
-544.806
-86.7288
631.535
308.144
249.425
428.359
-104.804
-323.555
677.39
-64.8955
-612.495
938.038
-562.43
-375.608
1624.7
-490.306
915.392
-1678.94
763.549
1089.79
827.61
776.286
-461.947
-314.339
-934.053
-257.923
571.915
604.194
-1176.11
-453.192
515.382
-62.1899
598.467
-359.504
-238.963
-1014.68
593.129
617.677
911.386
-422.148
938.541
1450.54
-789.478
-661.063
414.406
-958.623
544.217
-1050.9
418.696
577.459
-1064.58
477.573
-536.049
58.4761
491.915
297.688
-94.7244
-17.8094
-821.345
-904.861
1726.21
190.004
198.681
-238.271
454.224
-46.1209
-555.151
601.271
495.23
899.858
-1395.09
-490.618
302.472
711.414
-34.0238
865.025
-1101.27
236.245
391.973
874.415
-1433.11
-455.703
860.714
2041.06
-1324.41
-716.65
219.885
417.087
221.62
604.384
109.821
-994.905
885.084
1726.26
-1120.48
-605.788
-143.696
1948.47
-1923.61
-165.102
424.533
-528.731
104.198
-1050.52
543.958
506.564
-1637.83
461.952
-923.933
832.006
404.451
212.55
443.507
-229.483
-442.762
737.461
262.53
48.1698
803.234
-851.404
-1154.4
-877.737
2032.14
-537.119
1125.18
-588.061
-474.99
-103.538
22.0319
-1707.87
886.529
-826.603
-648.215
1474.82
-254.748
-258.722
513.471
369.047
-671.011
301.964
241.633
-626.518
320.315
221.292
-541.607
359.35
-618.617
639.508
-270.461
323.573
-479.021
679.868
414.993
-181.684
-400.499
-307.352
1249.85
-9.80821
-1240.04
1072.74
-434.057
578.654
425.649
-1775.93
838.996
936.935
515.645
557.798
-1073.44
-382.177
127.429
-271.349
1219.59
-948.245
-1514.76
1190.68
518.708
-1130.68
402.107
-13.6402
426.75
317.969
-744.719
373.822
-609.519
-28.8765
779.648
-750.772
-421.084
664.872
386.591
294.174
435.587
677.533
92.7075
-407.856
315.148
893.501
-515.662
-377.839
512.556
-1715.95
1203.4
-1173.85
1808.39
-634.542
1769.49
-1157.26
-332.621
605.445
-1183.77
1293.59
271.534
-827.031
1646.34
-819.312
-258.806
-228.336
-956.75
1518.12
1870.38
-632.113
-1238.27
-419.573
769.736
-1371.69
-61.8523
-43.9192
472.278
-703.904
-360.618
-1154.15
-234.538
476.171
833.626
-582.326
192.377
-1727.69
-74.2067
1801.9
-1089.59
552.473
592.277
-1220.28
627.998
931.194
939.188
593.874
507.362
706.02
238.792
-1160.94
485.207
-420.247
425.313
643.972
-533.07
261.878
-761.703
499.825
700.802
-342.228
-227.015
133.963
-616.214
229.901
386.313
-919.279
-759.663
1117.33
-2206.07
408.163
-690.707
-305.447
-532.489
863.364
587.176
-362.51
318.094
364.43
262.809
679.545
-942.354
525.83
639.061
-551.623
192.908
364.542
-630.555
-1129.52
-807
1936.52
-1844.44
163.011
1143.56
-1414.9
1188.45
-719.68
-468.774
-520.935
1395.35
-1543.27
651.03
892.241
-136.444
-130.042
266.486
1472.4
576.209
341.085
-490.483
-505.293
-581.026
1086.32
-431.083
621.558
1634.09
-1165.38
-468.705
-795.74
342.795
521.104
372.398
-1673.87
432.855
1241.02
-208.263
528.578
824.258
809.831
215.54
-704.294
488.754
188.066
180.88
-208.326
-84.7356
293.061
495.052
-7.19907
-487.853
-1661.46
612.936
-1621.47
1698.19
-76.7207
18.4255
-1639.9
1025.77
776.693
-349.943
-821.76
-229.144
-1173.85
-246.462
-316.665
690.487
-1871.39
-641.754
1245.95
213.56
787.035
-1372.68
-700.74
-482.015
619.941
-331.406
-1040.9
1392.55
-1994.1
601.552
667.255
1330.47
313.269
-1.19689
744.454
717.535
-1461.99
-663.069
351.949
311.121
295.039
-71.6512
-223.388
162.8
302.056
175.305
-477.361
-591.846
1183.19
459.852
-632.368
-469.681
-415.065
884.746
-343.396
175.624
-476.571
174.604
-317.649
-732.873
355.873
-60.8336
-586.877
1001.28
304.497
-159.53
-144.967
468.901
-796.153
-670.397
445.795
-1161.32
-851.365
1216.59
-585.249
471.098
300.952
-459.221
81.1462
1057.21
-166.509
353.805
-187.296
-521.066
1546.83
-784.094
250.24
387.332
-637.572
231.887
489.114
-27.7454
-461.368
-262.685
-213.885
855.595
1141.05
585.211
-892.525
971.405
-78.8803
-182.035
45.5911
-746.808
319.166
-640.17
320.463
380.338
856.063
-1259.16
403.097
805.31
-834.187
-964.356
-571.519
1535.88
-168.928
468.742
-552.646
274.986
1377.21
794.429
-578.889
1345.59
-680.957
484.835
-693.941
-420.772
-429.23
-386.949
816.179
518.582
-868.638
-461.614
97.07
364.544
-222.686
593.298
746.708
-338.544
-208.097
-157.926
366.023
-510.434
152.646
357.788
1503.39
81.7915
-1585.18
-772.337
1390.01
-1182.9
-478.777
560.393
-173.06
1188.28
-382.967
1114.05
510.642
719.474
-425.981
-911.872
-542.24
-1347.23
-32.0843
1018.39
-986.307
605.181
347.553
-952.734
-333.042
-233.995
-768.071
417.967
1670.75
-190.559
374.329
367.921
-742.25
-1898.03
-2169.35
1563.66
605.689
-2041.34
356.969
383.514
540.505
-924.019
-476.696
1055.35
-418.614
-674.315
1092.93
-2090.9
1431.64
659.266
602.05
-1020.66
62.446
415.127
374.953
208.494
253.951
320.186
985.564
888.058
701.972
-337.279
-364.693
-302.079
637.064
-334.985
595.479
547.246
565.528
479.982
-1045.51
-819.236
-724.035
779.279
408.998
-423.712
725.676
-1226.5
1659.36
446.343
-1120.66
-335.81
557.102
-1420.64
926.48
494.16
-714.593
-292.833
-860.591
384.452
476.139
462.55
742.872
-1205.42
1104.62
-588.973
-409.526
683.335
-273.81
156.951
147.545
-484.017
-447.88
931.897
-252.19
561.863
-977.414
415.55
-437.294
618.712
-1732.22
437.984
694.149
-1132.13
543.628
91.0811
117.024
-2277.75
567.002
-95.9039
1491.51
1829.1
-223.134
-1605.97
-452.431
1844.98
-2050.83
1232.43
818.394
420.294
355.992
-27.2226
890.587
-1327.57
743.352
-899.082
-852.124
820.039
322.346
57.6736
-380.02
81.5101
90.7335
-172.244
1597.78
-853.328
-848.961
-297.581
496.089
-205.382
-290.707
391.868
346.811
257.79
362.151
-7.82595
1033.9
-1026.08
377.935
290.957
-668.892
-756.587
1873.46
-1116.88
-348.403
740.271
-1244.6
-416.652
-948.788
500.907
592.59
-801.871
209.28
788.922
-395.248
-393.674
-427.333
-465.192
452.842
1103.29
1277.09
-684.816
824.996
-356.095
387.458
331.5
-261.948
-220.849
-226.367
648.816
421.401
-878.308
456.907
224.256
363.068
-587.324
-438.047
859.448
780.72
-1186.14
901.066
-45.0027
-512.256
296.505
781.912
-98.5789
1429.05
1946.12
-71.536
355.376
-323.261
415.968
-1120.79
1112.96
635.725
388.365
400.557
63.2346
432.854
281.809
503.105
-382.647
-280.422
-331.058
-67.8303
-369.747
381.763
-12.0158
-248.549
-269.037
1041.75
-1590.99
549.247
-201.581
-194.616
-387.51
678.468
-1678.4
1641.38
-990.35
276.296
-697.068
603.366
1259.46
-1862.83
630.057
1011.32
320.562
-1156.88
714.121
-289.891
-298.458
1406.07
-1488.1
844.68
643.418
421.247
-646.147
224.9
-374.907
496.31
-121.403
376.376
118.677
1780.23
428.619
-240.553
577.5
-1757.42
1179.92
-92.8946
402.031
351.268
350.703
-463.355
-635.881
1099.24
438.895
-894.598
-663.286
931.781
590.837
-119.653
-116.035
-455.491
-422.817
-319.652
-854.201
1106.07
-1106.07
-97.1161
-1612.44
1709.56
301.917
296.55
-945.173
-575.914
1521.09
-415.178
980.706
-624.817
-1036.64
691.2
413.033
-1104.23
491.583
-168.01
591.399
1255.26
-1846.66
-1047.74
2114.24
-1066.5
-385.538
-311.002
-493.841
836.637
-1802.55
1648.7
153.841
1802.55
-1650.67
-151.878
-240.619
516.761
-276.142
-556.659
1670.71
1595.43
-2012.08
1109.9
-287.512
-267.872
555.384
253.456
-589.266
-725.31
301.598
1384.9
656.152
595.55
503.893
-1099.44
295.839
423.635
900.442
515.848
-1416.29
547.338
-1052.63
1625.99
-584.24
-773.952
-373.127
-125.213
498.34
-507.084
1249.96
-770.564
322.428
328.064
370.763
269.791
-640.554
624.219
859.365
-623.12
283.759
687.647
-119.653
-322.65
-243.466
566.115
1202.6
-676.559
632.862
480.084
-1112.95
-977.952
977.952
-398.304
786.669
-298.753
-489.01
787.763
498.007
467.677
-965.685
400.522
-699.276
636.102
-898.476
262.375
-380.5
-514.531
1110.08
-685.352
-731.837
1417.19
-396.974
958.837
-1601.1
695.695
51.512
-434.854
383.342
-509.321
728.358
267.301
338.421
177.53
314.054
-529.851
239.961
1930.05
-2028.63
285.621
-728.185
459.328
-850.704
391.377
-902.862
1441.05
-538.187
-445.23
-503.557
621.145
1158.37
-1779.52
-741.027
355.489
-474.913
1070.39
-790.773
1074.53
-321.944
-634.7
-488.976
747.374
439.129
-283.619
936.903
-312.11
-198.325
1647
-1870.13
-368.264
-609.149
-344.459
497.106
272.163
-603.57
-194.967
1088.6
-792.093
224.06
-299.391
-289.932
589.323
414.577
-906.297
491.72
-463.093
-459.432
-385.414
-346.226
595.969
-249.744
-467.069
-432.777
-337.061
-204.546
-394.669
664.459
-450.31
781.81
-1108.63
645.28
-1409.39
582.786
-28.2344
-1893.04
1921.28
590.95
-464.779
1247.74
-695.263
44.2348
-44.2348
691.626
-446.411
1036.05
-1660.87
-1192.59
-976.756
303.512
333.552
904.593
741.75
-498.575
-321.706
820.281
1709.69
-1737.92
-448.898
363.799
227.669
1173.97
-541.108
-971.57
1596.92
-625.351
461.778
-253.284
383.546
403.829
-787.375
541.065
494.72
-1035.79
-328.824
651.251
-39.2678
1969.31
1619.77
1023.55
-1753.01
751.406
-1218.01
466.599
-511.238
1411.68
865.525
-1386.46
-568.815
281.303
819.453
-420.529
575.391
-1227.26
651.866
-653.944
-1251.28
-717.827
1969.11
-214.013
569.839
-355.825
-188.216
302.872
-516.885
336.187
388.05
-724.237
-1527.37
783.847
743.525
908.34
-1479.86
855.577
-445.402
228.626
-377.938
-601.766
279.116
-706.907
-713.734
722.614
522.992
-1245.61
399.198
-208.059
-191.139
574.906
-992.093
-575.689
-428.982
748.147
-857.272
-1193.55
-1484.84
517.996
966.848
7.12893
-647.517
357.167
290.35
-1350.03
1080.71
269.321
-637.041
-471.594
-651.309
872.929
416.963
-212.194
-204.769
527.382
1010.28
-1537.66
1008.74
-303.682
104.569
199.113
-418.325
696.788
-411.167
-527.477
183.017
242.065
-1566.47
554.031
550.587
-770.117
260.796
163.862
-475.972
388.775
-848.208
2010
-1229.06
-780.948
414.828
-690.72
275.892
150.694
334.47
129.421
-463.891
-578.722
186.924
241.695
-716.83
1419.17
-702.34
436.86
493.783
-1208.38
268.212
1928.65
-1047.2
-881.443
699.867
-547.02
200.794
1419.64
-978.428
-441.214
352.527
-798.938
-638.14
1779.19
635.787
641.306
334.007
-11.6606
287.262
-1171.65
1779.54
-607.883
-1816.47
844.904
1783.62
-1709.15
-74.4716
-683.129
262.882
583.772
-733.057
244.082
1449.67
-584.15
409.116
451.599
-1916.93
1464.5
565.712
-428.817
-136.895
223.014
-560.075
-280.327
-194.664
-361.663
712.931
-594.105
220.978
622.078
575.342
-1197.42
1148.01
-2009.94
861.932
176.3
331.813
-1754.84
1715.57
333.554
-759.535
-169.696
398.322
772.002
704.639
-1476.64
1098.13
-1107.94
550.111
-1139.08
-653.788
264.902
388.886
536.386
-306.485
-637.18
-1023.69
313.116
-745.893
-938.697
194.931
169.414
229.784
394.55
311.608
-706.158
-644.884
-861.555
-1009.83
513.923
-1092.64
-294.582
497.884
557.396
659.197
-120.831
-28.4723
-412.507
733.069
288.667
-1237.24
592.357
1348.28
-576.279
466.723
-1042.41
-181.664
175.126
390.586
1054.33
571.653
-1729.68
1632.57
1654.11
-601.913
-1052.2
1963.98
-1951.75
-12.2282
214.458
-537.719
-350.721
574.781
-778.538
-328.391
-354.738
1016.93
726.573
-1534.26
807.682
352.161
-25.984
1672.98
-1110.93
434.373
-1266.61
492.653
-61.2519
1564.64
1239.34
-487.934
-278.265
-25.417
-284.942
759.533
-2010.81
-733.792
360.202
-554.614
194.412
60.6489
-227.158
1175.24
693.002
-1868.24
-625.036
196.218
970.976
-1546.89
-209.32
635.032
-425.712
884.285
1115.72
-757.357
1393.14
619.165
-488.847
-130.318
-363.98
1208.66
1064.24
-1981.4
917.151
-1208.89
567.135
1538.23
-606.447
-383.69
-167.933
-1280.96
596.14
1200.63
-58.347
977.182
800.83
-1778.01
-222.124
599.45
-1592.42
992.972
505.837
943.973
-1449.81
634.128
611.82
396.423
-1138.45
360.02
1142.79
509.748
-279.053
-230.695
-1221.39
-1809.79
-2.52082
-1727.16
-223.276
-422.871
1658.98
-645.473
-1013.5
-499.895
1093.77
-1359.6
660.043
699.561
-1404.37
1486.16
-1372.63
615.272
1570.43
-404.195
-589
205.31
-1504.78
239.009
177.536
239.609
379.557
433.715
420.648
-854.363
526.401
-967.281
929.861
-1493.11
-716.919
251.507
465.412
-1074.62
482.773
-484.041
893.157
721.206
32.3601
-545.423
189.597
-912.116
-1358.11
-741.021
364.527
376.494
421.174
-749.145
327.971
-393.595
-155.903
-491.486
739.698
1589.52
-612.341
833.222
764.56
1364.82
-848.974
-1001.52
-590.9
-826.908
442.086
384.822
-1071.1
-663.384
316.944
346.44
-1388.15
-249.676
-819.606
413.844
405.763
-669.924
403.528
266.396
-699.381
288.214
427.775
504.123
401.901
457.547
491.467
393.279
611.997
-991.046
691.844
491.344
444.424
334.585
-779.009
1681.42
-1110.78
-570.643
-523.344
-287.124
-1062.91
466.737
349.442
423.445
613.233
-1036.68
-1424.79
779.32
-555.435
1183.43
370.034
-67.9784
426.51
-897.202
470.691
-1906.46
294.016
427.174
-684.651
257.476
-192.301
420.431
-228.13
-686.415
321.75
364.665
-698.454
333.761
380.846
405.823
632.254
-1047.43
779.248
682.494
-1461.74
452.369
646.867
309.698
315.982
-625.68
415.307
324.964
603.768
676.71
426.579
599.301
-1048.59
449.293
-1706.38
1177.37
529.007
1746.94
-560.927
643.294
-1186.65
543.355
-583.871
325.148
453.277
-968.733
515.455
767.953
-449.984
355.634
357.298
574.856
-943.12
672.475
-1296.25
623.771
394.216
759.585
-1266.67
795.303
527.296
-1322.6
490.17
428.438
-918.608
-520.418
-964.426
-316.196
652.384
354.23
548.629
-902.859
335.073
316.179
-519.67
2001.65
433.487
-823.302
389.815
-947.381
-833.89
-776.532
382.858
-1251.77
460.994
-1780.47
1650.67
129.804
1799.18
-1648.7
-150.471
-811.585
-606.909
276.046
330.863
-1783.62
2012.08
557.155
817.821
-1374.98
455.735
740.456
709.642
390.669
-1100.31
-57.3569
1669.12
-614.786
407.15
840.586
-552.598
295.467
257.131
-390.318
-218.714
375.665
-232.685
451.598
259.15
-582.153
323.003
271.942
-584.232
-295.38
457.865
-1068.56
610.698
557.22
1124.2
367.787
610.572
213.783
180.34
-394.123
1658.84
-932.27
1746.65
-1569.92
-176.725
-334.967
-853.534
430.716
866.797
-1076.12
-626.351
291.366
-1121.79
1679.01
-1610.9
-69.6601
1680.56
-350.305
-359.871
-381.51
553.855
620.115
-520.784
-32.0333
-522.283
509.79
-285.643
-224.147
1780.37
-1327.52
-632.224
307.504
324.72
419.174
367.756
757.327
-298.673
-412.005
-1799.18
1737.92
474.741
-1138.02
663.28
-39.6529
1672.22
581.603
463.43
-1045.03
75.5396
1181.09
-1500.74
-5.4231
-1901.03
233.648
-565.923
281.124
284.799
-903.571
598.124
-931.15
485.92
-1166.87
696.437
470.429
386.326
286.102
-784.677
-315.394
1258.95
915.002
723.951
-1224.19
476.963
747.231
511.273
724.651
-1235.92
-363.609
-254.224
423.638
-994.696
454.266
540.429
21.5663
-1938.49
1117.26
-481.157
-505.822
577.382
-1424.54
847.159
-434.616
825.993
-419.05
506.398
-1022.05
1877.64
415.37
-185.586
153.739
-174.116
-251.05
425.166
1951.43
-519.791
-1729.78
1084.62
-476.742
258.028
-1049.03
572.339
-316.02
564.709
932.843
-1497.55
-1096.42
445.116
-20.8312
-2007.79
1717.75
-653.507
-501.204
477.549
-1231.91
754.361
196.893
220.07
-224.534
792.734
725.389
837.704
718.218
-383.634
1121.61
-510.871
479.593
-193.288
-286.305
-1985.38
-677.723
-306.773
-372.354
-1.70005
374.054
455.117
-268.193
585.643
1073.2
-822.734
957.4
1286.88
-439.69
-205.005
-255.921
460.926
952.265
-910.453
-343.941
-1103.98
632.388
1603.33
-819.481
557.641
963.446
-400.407
761.602
-361.195
1165.38
-237.059
327.166
1395.2
-727.887
-230.737
466.866
-1241.68
774.817
-986.268
-159.914
1146.18
457.823
-989.49
531.668
192.224
216.442
293.306
797.226
-117.681
884.058
-440.295
1161.6
-770.932
571.925
-1514.23
942.306
-1251.23
1854.6
-441.3
-1554.62
906.601
-1448.84
-325.11
-419.608
1505.84
-1572.32
812.657
1538.4
206.264
273.33
-363.615
-1780.47
-310.601
-1023.17
1608.81
-1807.25
1807.25
1595.43
-1039.2
-657.953
-346.551
364.389
616.317
-368.401
-371.597
-1435.27
924.031
1158.01
621.523
1199.76
1842.22
-1250.83
-625.421
261.829
1711.18
-1977.06
265.879
840.842
-1309.55
1594.08
-582.761
809.328
315.852
-341.872
573.844
821.506
633.449
1398.69
-231.037
-460.459
-366.252
369.98
-245.624
488.558
761.398
-304.756
-159.135
-334.245
587.564
-253.319
26.5574
-386.062
1140.36
-1774.9
-460.813
-495.681
-586.435
893.742
709.587
-1648.79
931.963
-467.826
-633.547
-531.005
1294.35
352.828
1777.71
-1756.14
-1709.69
1951.75
-1599.02
862.699
736.32
-371.894
-1852.86
948
603.034
846.641
-416.128
1851.77
-703.759
-412.951
683.584
455.79
-1139.37
-1136.46
460.962
778.379
-1667.43
491.295
927.876
173.94
-387.569
213.628
-1616.17
-397.738
-429.924
1014.81
-688.599
1490.48
-970.869
1855.15
241.254
-548.905
506.61
-300.347
492.12
919.559
563.15
1007.28
-479.24
-442.417
594.434
911.405
-1350.63
-37.5253
1618.28
-853.719
539.819
998.578
-1524.87
-1097.88
1788.54
-1241.98
-546.556
1247.83
-331.383
-916.443
-189.433
452.646
-263.213
-469.372
-253.829
435.892
-182.063
152.702
-406.926
1748.8
-1751.32
-465.384
-551.811
-928.047
429.986
-196.855
-233.131
470.915
-457.165
-358.9
-326.02
684.919
-976.481
425.663
-1190.75
690.854
415.194
-647.309
-449.013
1618.98
-877.232
548.928
-474.129
-589.744
-478.818
49.7531
-47.2831
-2.46997
-1129.15
433.888
-687.417
-1065.48
1752.9
-607.895
-1470.27
738.429
582.121
-1647.42
1065.3
-388.206
-485.777
166.794
539.226
-1300.82
769.814
559.495
1034.59
-2193.16
1019.98
1173.19
-365.144
62.6399
-56.0325
-6.60739
1526.6
-388.045
465.606
1152.43
602.825
935.403
587.232
545.353
-1132.58
172.588
-446.419
-1709.15
273.498
1153.39
-625.162
537.698
1044.24
-1581.94
1124.33
-1694.97
179.037
722.029
556.865
-900.806
-1106.9
-120.45
320.212
-199.762
-539.183
-434.285
-657.622
-452.72
228.186
-1671.67
970.352
-492.741
209.632
-395.218
546.632
-312.984
-613.974
1237.69
-1306.38
930.373
376.01
-1029.13
-369.123
-776.489
-845.812
1739.55
-493.284
1798.75
-1592.37
-206.38
-1605.69
1047.96
557.73
-744.332
-151.036
276.786
-125.751
-601.3
395.798
287.161
-682.958
-542.018
1014.85
652.875
-361.509
-1664.03
1078.78
592.066
1135.45
-1727.52
-417.492
-306.907
-379.508
-764.751
-472.837
-340.833
518.363
1607.99
-1025.87
-801.132
1546.28
685.748
-321.949
749.378
1182.09
-1931.47
291.764
319.568
-503.586
-1994.38
1775.67
218.709
766.523
-490.132
-276.391
551.327
1091.33
-1642.65
49.7531
-1732.59
-240.455
1804.11
-1627.71
1107.14
520.571
-1737.81
5.22729
-539.487
62.6399
1754.84
-1775.67
969.882
645.757
-1615.64
247.919
-151.171
-96.7484
-412.824
-286.557
60.9372
41.4288
-192.465
-449.89
-448.586
-423.546
231.245
1554.63
393.624
-234.765
-435.159
412.532
-170.837
335.64
1558.07
1103.89
-227.722
-876.168
-1137.58
1758.72
-1784.31
1096.89
-730.998
-1053.31
-1300.09
1899.29
-599.205
1189.96
-1826.73
636.774
156.336
-906.304
1728.4
44.9594
-1773.36
-509.388
-1113.41
-1748.8
-1013.49
571.072
1048.68
610.928
1165.86
-1776.78
296.11
-469.171
730.219
-396.458
377.996
954.775
703.297
-403.256
-645.337
603.645
1103.59
-1707.23
-410.062
-386.062
796.124
442.098
-1715.57
1569.92
145.651
605.558
-1080.47
563.234
1115.77
-1605.19
1022.42
-249.337
246.582
328.199
1963.98
428.037
-90.9282
1019.45
743.84
-1763.29
-719.539
1116.11
-1606.41
171.337
-587.84
183.784
228.748
-664.248
-587.519
603.179
1065.94
-713.787
-285.789
-1414.82
699.256
715.561
-386.448
817.324
108.545
-925.868
580.943
-141.736
1606.23
-226.653
274.982
-793
-1994.38
1716.39
1013.85
68.8483
317.183
450.77
-961.291
-1024.09
-1819.76
660.7
1746.38
530.382
-491.185
1252.58
1120.77
-436.867
1053.18
-1013.16
512.756
500.4
723.361
1081.25
-1804.61
505.386
495.896
-1542.16
-773.455
31.5993
809.488
-426.63
-914.642
408.819
-556.893
-829.567
171.39
-597.084
1444.24
1088.4
155.737
164.474
-571.103
1670.37
-796.747
1575.99
-1781.34
595.4
1185.94
565.835
-914.552
-1788.07
1977.06
-188.997
1768.83
184.452
-561.363
138.458
-97.029
-498.826
1253.19
585.84
1161.1
-498.3
452.862
889.346
-481.003
-801.787
437.561
364.226
1464.8
1123.66
-537.726
1469.69
-486.123
-432.361
918.484
-623.932
516.864
-1236.54
1746.65
1892.2
-710.115
1637.61
-667.731
-1283.68
741.657
-582.561
122.116
-216.702
370.598
-189.719
-537.827
-1282.53
1926.42
-643.889
1213.3
-570.003
1151.21
-1712.13
1740.62
-594.691
-562.878
-569.167
1772.57
-328.403
-712.944
-492.134
1266.95
-1735.65
-1915.52
632.993
346.441
-992.286
172.679
220.968
-1771.34
1237.72
533.618
1195.98
572.85
-528.119
-485.612
1232.84
183.897
236.534
606.909
1285.3
-556.524
-1273.25
1829.78
-1058.07
1056.53
872.112
-210.097
-1711.18
1756.14
-529.388
1457.26
-1788.07
-382.823
12.1452
370.678
-277.271
607.507
-330.236
95.6941
504.461
809.551
-388.377
1291.53
1295.14
-428.342
883.455
-452.739
1874.06
-684.1
1635.97
-1777.71
-425.862
-761.588
300.994
460.594
-578.204
-583.717
57.9447
-991.998
-1016.95
-692.063
1709.02
-966.793
-1226.37
154.53
-422.402
-670.285
727.967
1202.44
671.613
1457.47
-610.83
1675.63
1362.28
-592.466
-505.498
205.151
-522.663
1442.22
1282
-582.745
-947.997
925.579
53.8894
-979.468
568.403
-525.314
1449.34
1544.54
-609.139
-50.2186
50.2186
-610.141
1675.44
1282.93
-504.556
1161.57
-56.1411
1852.22
-364.827
1538.97
-609.11
-527.303
1390
-675.873
1259.91
-584.038
1605.61
-612.634
761.18
599.99
-1361.17
-655.142
298.146
496.283
620.661
-2014
-1012.41
1635.97
50.2222
-50.2222
-76.6153
404.655
450.922
396.437
-20.0609
-284.968
918.967
-524.751
-439.408
844.063
-254.791
643.676
-418.281
1559.21
-461.955
-885.275
177.937
203.869
-381.806
620.837
1284.97
-1905.8
960.591
-474.671
-47.2831
129.914
-2001.99
1872.08
-469.137
193.867
1217.49
-459.077
-758.41
-321.415
-593.227
-507.387
-56.0325
-472.331
248.184
1198.05
-577.935
237.648
-396.309
158.661
-6.27944
-93.4265
687.454
-594.028
14.5064
-345.565
-607.19
-72.15
72.15
-1245.78
1989.62
-1247.57
-230.961
-1826.51
234.142
-1054.38
-1002.65
-191.444
-1691.19
729.899
1265.66
-1983.49
385.647
320.733
-706.38
-1904.78
1269.82
634.962
-114.408
114.408
-988.418
-9.51007
-1923.61
-578.004
1702.2
-700.49
1688.55
-622.609
-191.951
-1709.08
-605.096
-444.405
-615.488
-79.0924
79.0924
-1583.5
201.176
1382.32
148.443
176.345
-324.788
584.635
519.255
1031.98
-491.553
1802.89
795.545
-178.249
171.642
537.424
1755.8
-615.447
-572.597
1688.37
445.613
1868.8
-666.351
-1862.27
-1993.07
-668.361
-83.6229
83.6229
-610.383
244.131
-694.778
1054.55
-482.215
-1106.4
-294.533
893.796
1906.13
1685.11
-1685.11
-281.212
765.653
1815.02
614.696
1311.72
121.95
125.969
613.081
585.88
890.865
-890.865
230.612
-363.499
-447.32
384.485
984.932
-472.176
-661.704
-1163.7
1759.1
293.004
-1673.61
636.965
-293.297
477.749
1798.46
-612.518
-152.97
-428.913
398.49
744.301
1792.53
-634.519
-530.321
-772.823
2017.12
-896.172
-1120.95
1694.52
-591.977
1259.2
-1879.96
620.76
358.123
-907.028
-175.087
-22.0283
1135.36
-502.975
129.832
646.613
-1670.3
458.54
628.428
-1862.27
-603.161
1840.88
913.187
-1196.47
1814.44
-617.973
1837.46
-595.213
-1242.24
460.557
933.497
-1751.32
952.758
-1474.31
230.251
1244.05
-859.952
-1290.08
-150.637
35.2094
115.427
601.994
282.167
1057.69
-462.993
876.853
-413.86
848.922
761.62
-1610.54
664.507
1101.17
-3.65208
-419.588
423.24
-1800.59
747.278
716.729
88.7221
-1155.26
1994.37
-695.595
-1298.78
-557.039
1718.14
850.48
994.539
-1845.02
1263.88
705.23
-415.053
736.803
846.356
1064.24
-606.413
1815.02
647.756
1827.24
-1219.31
-607.93
-377.584
-342.691
720.276
100.764
-1055.2
1711.77
-560.561
-723.336
723.336
1285.02
614.272
1391.93
216.055
-565.896
291.904
-199.94
721.606
1147.19
500.411
-316.513
-898.625
-594.489
1746.09
-1746.09
524.779
-524.779
1016.62
1055.24
-2071.86
1893.06
-633.86
-600.99
843.504
-975.139
-1083.09
1030.32
713.536
-1743.85
-94.7244
-371.338
-649.327
-832.709
2102.53
-1282.22
-633.304
1031.85
1003.2
1327.53
666.842
339.902
1041.98
234.969
346.558
549.347
1809.84
-1809.84
675.478
22.9973
-167.964
-1026.37
-562.376
1723.94
988.955
1011.05
-1888.19
-233.16
-371.935
627.357
-353.859