/*--------------------------------*- C++ -*----------------------------------*\
  =========                 |
  \\      /  F ield         | OpenFOAM: The Open Source CFD Toolbox
   \\    /   O peration     | Website:  https://openfoam.org
    \\  /    A nd           | Version:  7
     \\/     M anipulation  |
\*---------------------------------------------------------------------------*/
FoamFile
{
    version     2.0;
    format      ascii;
    class       volVectorField;
    location    "0.5";
    object      U;
}
// * * * * * * * * * * * * * * * * * * * * * * * * * * * * * * * * * * * * * //

dimensions      [0 1 -1 0 0 0 0];

internalField   nonuniform List<vector> 
7807
(
(1.02744 0.0623895 2.34855e-19)
(1.02872 -0.0206502 4.65044e-19)
(1.00121 0.0470478 -3.92977e-19)
(1.01719 0.0346572 6.99231e-19)
(1.00095 -0.000841768 4.26759e-20)
(1.00112 -0.00140276 1.90032e-20)
(0.994986 0.0457964 -7.70861e-19)
(0.999193 -0.00168405 1.17307e-21)
(1.00089 -0.000337781 3.35984e-20)
(1.01382 -0.00173469 -4.95945e-20)
(1.00044 -0.000815993 -2.11768e-20)
(1.0028 -0.00100641 -8.41159e-20)
(0.997483 -0.00245764 -6.92101e-20)
(1.00879 -0.000925732 -5.03803e-19)
(1.01255 -0.000119448 2.07753e-19)
(0.998376 -0.00764282 1.26743e-19)
(1.02534 0.0728498 -4.96831e-19)
(0.996633 -0.00347095 1.91733e-20)
(1.00387 -0.00448352 -7.10907e-20)
(0.998294 -0.0482318 2.6982e-20)
(1.01802 0.00139721 -1.47502e-19)
(1.00224 -0.000210433 2.27632e-19)
(1.01037 -0.00200919 6.01197e-20)
(1.00622 0.0155516 -3.99853e-19)
(0.995049 -0.00412478 6.77682e-20)
(1.02577 0.0607856 -2.34203e-19)
(1.00092 -0.000762312 3.54807e-20)
(1.01396 0.000599857 1.73683e-19)
(1.00361 0.00848304 -5.62453e-20)
(1.00346 -0.00505545 6.38921e-20)
(0.997665 -0.00913502 1.76725e-19)
(0.964836 0.0249766 9.45546e-20)
(1.00866 -0.00212208 3.3383e-19)
(1.00091 -0.00072167 -7.46437e-20)
(0.974921 -0.000106266 4.85258e-22)
(1.01198 0.000635524 7.71023e-20)
(1.00486 -0.00542371 4.80564e-20)
(0.993624 0.0390263 -1.27967e-19)
(1.00075 -0.00516826 -2.25757e-19)
(1.00075 -0.000299288 -7.94381e-20)
(1.00044 -0.00475205 2.25409e-20)
(0.998639 -0.00686567 4.60189e-20)
(1.01009 -0.0548977 -1.40307e-19)
(1.07905 -0.0243804 -7.20935e-20)
(0.971019 -7.49553e-05 -3.76277e-20)
(1.00153 -0.00062622 1.87036e-20)
(1.00196 -0.000209908 -1.38448e-19)
(1.00002 -0.00351674 1.32513e-19)
(1.00092 -1.18361e-05 1.73236e-20)
(1.00038 -0.0476421 -4.01113e-20)
(1.00334 -0.00083155 6.96396e-20)
(1.01389 0.00098565 -1.85634e-19)
(0.994033 -0.00518646 1.88857e-19)
(1.00831 -0.0163731 5.8382e-20)
(1.01051 -0.00109362 -5.58766e-20)
(0.999698 -0.00212813 2.05599e-20)
(1.0023 -0.00486959 1.12275e-19)
(0.999448 -0.00176658 -1.27966e-19)
(0.992518 -0.0102419 1.94022e-19)
(1.00094 -0.000885575 8.97545e-20)
(1.00097 -0.0001208 -4.7051e-20)
(1.0039 -0.0003902 6.77399e-20)
(1.01007 -0.000754257 -1.14746e-19)
(1.00275 -0.000994738 8.57394e-20)
(1.00043 -0.0010571 -7.01274e-20)
(0.996892 -0.00944026 -2.69485e-20)
(1.00088 -0.000433408 -3.17503e-20)
(1.00075 1.03595e-05 4.55188e-21)
(1.07872 0.0456003 2.05176e-19)
(0.999885 -0.00375249 5.39796e-20)
(1.00081 -2.65558e-05 -1.70639e-20)
(0.988406 -0.0312147 2.35396e-19)
(0.99534 -0.00397028 -3.4353e-20)
(0.991399 -0.00411112 -2.84286e-20)
(0.996858 -0.00327473 -6.05485e-20)
(0.987088 -0.0143303 3.01707e-20)
(1.00095 0.0491587 6.29885e-19)
(1.017 0.000523737 1.85273e-19)
(1.04518 0.0017247 -4.04305e-19)
(0.98091 -0.0247587 2.4838e-19)
(0.997822 -0.00247573 1.06537e-19)
(1.00053 0.0242948 8.32042e-19)
(1.01739 0.00543696 3.48973e-19)
(0.990516 -0.00650213 -1.3066e-19)
(1.00073 -0.00205123 6.2401e-20)
(0.999543 -0.00124256 -2.78184e-20)
(0.999099 -0.0019772 -1.75287e-19)
(0.993959 -0.00488342 -1.20609e-19)
(1.00099 -0.00103909 -4.97347e-20)
(0.999612 -0.000394564 -6.11496e-20)
(1.00356 0.00969258 4.04265e-19)
(1.09647 -0.013455 1.15283e-19)
(1.00073 -0.000333608 2.88137e-20)
(1.00304 -0.00432134 5.15597e-20)
(1.00067 -0.00211336 -6.90857e-20)
(0.989126 -0.00585244 2.22739e-19)
(0.991219 -0.0294989 -1.30845e-20)
(1.00873 -0.0148197 -9.69501e-20)
(1.00071 -0.00222395 -1.24936e-20)
(1.00076 7.70946e-05 -2.02901e-20)
(0.980065 -0.00935006 -5.90354e-20)
(1.04696 0.00620012 3.08537e-19)
(1.00034 -0.00195061 1.71313e-19)
(0.978958 -4.35902e-05 -1.72252e-22)
(1.09955 -0.00521327 7.43554e-20)
(1.01508 0.0141684 -3.88145e-19)
(0.975449 0.0170405 1.17008e-19)
(0.9994 -0.00199551 7.73326e-20)
(1.00057 -6.58195e-05 -1.20358e-21)
(1.01425 -0.00504489 -1.37483e-19)
(1.02166 0.032978 -8.11767e-19)
(1.018 -0.0410187 2.92064e-19)
(1.00054 -1.40313e-05 1.40419e-21)
(1.01663 -0.00382681 -2.99799e-20)
(1.0128 0.014467 4.05999e-19)
(1.00142 -0.000321295 -2.8507e-20)
(1.0344 -0.0436419 2.4963e-20)
(1.01583 0.00834162 -1.0312e-19)
(0.994556 -0.0224593 -1.52484e-19)
(0.990704 -0.00444171 3.10231e-20)
(0.978483 -0.00655312 1.37644e-19)
(1.00103 0.0229968 -5.49098e-19)
(1.01335 -0.0501403 1.92388e-19)
(1.00588 -0.0034208 3.19843e-20)
(0.979791 -0.00738137 -5.37094e-20)
(1.00086 -0.00120969 -1.06984e-19)
(0.996298 -0.00650263 -6.4129e-20)
(1.00362 -0.00497021 -8.56811e-20)
(1.00284 -0.00293777 1.57835e-19)
(0.995709 -0.0073339 -4.67876e-21)
(1.122 -0.0243733 3.33264e-20)
(1.04066 0.00135461 6.7688e-20)
(1.00092 -0.000784519 -7.21215e-21)
(1.00084 -0.0010757 1.1132e-19)
(0.989732 -0.00614076 -3.69711e-20)
(1.01996 0.0239807 3.15745e-19)
(0.997019 0.0215586 9.21207e-19)
(0.999834 -0.000215796 1.84566e-21)
(1.00646 -0.00138547 1.75857e-20)
(0.968845 -0.00320894 1.3334e-19)
(0.992251 -0.00258151 1.24275e-19)
(0.998556 -0.0319679 1.95714e-19)
(0.987107 -0.0151406 -4.04163e-20)
(0.991225 -0.00379976 2.3103e-21)
(0.973816 0.0195857 4.59475e-19)
(1.00953 -0.0224178 1.40538e-20)
(1.00717 0.00877694 -2.12349e-19)
(0.993126 -0.0129038 1.06973e-19)
(0.986154 -0.00662755 -2.40125e-20)
(1.0001 0.0234541 -2.74208e-19)
(1.01302 0.00273086 2.17107e-19)
(1.08948 -0.0123673 5.23953e-20)
(1.00058 -0.00157643 1.7147e-19)
(1.08436 0.0355814 4.77542e-20)
(1.01799 0.00382655 -3.66502e-19)
(1.00281 0.0410426 -6.61326e-19)
(0.982932 -0.0160446 -1.06705e-19)
(0.997417 -0.00204081 -2.59042e-20)
(0.981412 0.0295027 1.04204e-18)
(1.00095 7.53114e-05 1.76278e-20)
(1.00267 -0.00422131 -1.26451e-19)
(1.00689 0.017816 2.79201e-19)
(1.00073 -0.000313481 -1.93324e-20)
(1.00092 -0.00319197 2.29922e-19)
(1.00038 -0.0013066 3.09031e-20)
(1.00276 0.0179876 -8.6364e-20)
(1.00198 0.0201153 3.13031e-19)
(0.97328 0.0361007 3.33082e-19)
(1.00105 -0.00361134 9.81259e-20)
(0.999582 -0.00212861 3.56335e-20)
(1.00081 0.000131767 -4.60869e-21)
(0.975738 -0.00874794 2.20882e-19)
(1.00146 -0.000351954 3.81843e-20)
(1.03362 -0.0188179 -5.43785e-19)
(1.00687 -0.00162188 1.16363e-19)
(0.985911 -0.006384 -5.34036e-20)
(1.09366 0.0023264 1.45287e-19)
(1.04919 0.0409171 1.65311e-20)
(1.00073 -0.000339037 -1.6775e-20)
(1.00094 -0.000724049 9.70231e-20)
(1.01185 0.0355307 -1.18846e-19)
(1.00094 0.000113422 8.02303e-21)
(0.999432 0.000295441 -7.77217e-21)
(0.993292 0.0407635 -6.36686e-19)
(1.0253 -0.0213052 2.32717e-19)
(1.01186 -0.0320154 1.81189e-19)
(0.99618 -0.0218613 2.19386e-19)
(0.991694 -0.00512968 -9.39354e-20)
(1.00807 -0.0240931 -3.56722e-20)
(0.969544 -0.00212947 -6.89866e-20)
(1.00061 -0.000383041 5.59533e-21)
(0.990236 -0.0275131 5.85787e-20)
(1.05321 0.0471589 -3.22185e-19)
(1.00031 -0.00190451 -2.44935e-20)
(1.00112 -3.55988e-05 -2.44917e-20)
(1.03556 0.0395841 2.68205e-20)
(1.00017 -0.000127149 -1.52021e-19)
(0.996245 -0.00825401 -9.53879e-20)
(1.00755 -0.0233294 -1.26584e-19)
(1.00087 -0.000101072 -1.90722e-21)
(1.0018 -0.0013869 -9.95737e-20)
(1.01753 0.0252574 3.67548e-19)
(1.03427 0.0445097 -3.72729e-19)
(0.999848 0.0362775 -8.75292e-20)
(1.03336 -0.0428931 -1.32187e-19)
(1.01747 -0.0375619 -5.8801e-20)
(1.05961 -0.064114 3.51428e-20)
(1.01254 -0.0028935 4.80256e-19)
(1.01511 0.0287916 -1.2968e-19)
(0.999356 3.15746e-05 3.4872e-20)
(1.00104 -5.36263e-05 1.34914e-20)
(0.979865 0.00599118 -4.98721e-19)
(0.999022 -0.00737945 5.07263e-20)
(1.00096 -0.000813745 6.35321e-20)
(0.991984 -0.0266533 -1.37849e-19)
(0.996132 -0.0066687 7.11574e-20)
(1.00852 0.0343266 -7.7734e-19)
(1.00369 0.0361007 -1.69665e-19)
(0.994514 -0.0334244 -4.93796e-20)
(0.967507 0.032699 -3.68175e-19)
(1.00067 -0.000537646 1.15691e-19)
(0.997481 -0.00325864 -6.61928e-20)
(0.97896 -0.00849521 -7.59457e-20)
(1.01884 0.00343925 -9.75841e-20)
(1.01349 -0.0645836 1.18039e-20)
(1.03791 0.0697027 -5.48456e-19)
(0.98061 0.0275735 -9.03336e-19)
(1.00101 -0.000245449 3.53533e-20)
(1.00597 -0.0036058 4.52843e-20)
(1.01445 0.0104449 5.44471e-19)
(1.00016 -0.00353031 1.71516e-19)
(1.01684 0.00931893 -7.11425e-20)
(1.00107 -0.00105865 3.7516e-20)
(0.969646 0.0374728 6.5886e-19)
(1.00319 0.037483 1.38784e-19)
(0.99929 -0.00188114 -1.05253e-19)
(1.00446 -0.00429705 -7.77641e-21)
(1.00077 -0.00031218 1.51652e-19)
(1.05869 0.0583707 1.7336e-19)
(1.00047 -0.00064904 -3.02178e-20)
(0.999527 -0.00593254 -5.01569e-20)
(0.972521 -0.0156511 -8.57135e-20)
(1.00087 1.42365e-05 7.14675e-21)
(1.00094 -0.0021205 4.70495e-20)
(1.00112 -0.00107168 -4.07548e-20)
(1.02974 0.0222242 3.87075e-19)
(1.00081 -0.000280113 -2.69083e-20)
(0.998889 -0.000108179 -3.4133e-22)
(0.981575 -0.0239028 -2.90462e-19)
(0.964925 0.0198173 -2.08543e-19)
(1.04182 -0.00187452 -9.71412e-20)
(0.970218 0.0283411 5.19345e-19)
(1.00282 -0.00184705 1.73001e-20)
(1.00762 -0.026083 -1.15892e-20)
(1.00101 -0.000596737 7.25784e-20)
(1.00123 0.043851 -6.41303e-19)
(1.0032 -0.000130579 -8.37672e-20)
(0.996235 0.0168508 3.00794e-19)
(1.00409 -0.0060117 -2.13998e-19)
(1.00182 -0.00117306 1.26338e-19)
(1.01683 -0.0166356 -1.97215e-19)
(1.01231 -0.00174459 -4.46967e-19)
(1.00155 -0.000238695 5.94716e-20)
(1.00097 -0.000808939 -1.91572e-21)
(1.00149 -0.000330502 1.49676e-19)
(1.00033 -0.00381238 1.46506e-19)
(1.01375 -0.0361314 -2.33225e-19)
(1.00143 -0.000673849 -1.16226e-20)
(0.983837 -0.016271 -7.85937e-20)
(1.00065 -0.00147308 7.36514e-21)
(1.00073 -0.000190754 -3.00216e-20)
(1.00099 -0.000802715 -1.93613e-20)
(0.991307 0.0288052 7.20589e-19)
(0.996242 -0.00108604 -3.0753e-20)
(1.0037 -0.003973 1.6298e-20)
(0.925153 0.011629 8.52674e-19)
(1.00089 -0.00237213 8.80924e-20)
(1.02724 0.0482487 -2.90684e-19)
(1.00094 -0.000618078 -1.0386e-19)
(1.00701 -0.0137858 1.68049e-19)
(1.00094 2.58849e-05 -1.45891e-21)
(0.993722 -0.0192427 9.20479e-20)
(1.01883 0.00369816 1.42984e-19)
(1.10067 0.00902921 -3.3991e-19)
(0.992258 -0.0106579 -1.6707e-19)
(1.00102 -0.000808126 -1.21993e-19)
(0.996953 -0.039285 -6.76281e-20)
(0.811518 -0.00151699 -8.21765e-20)
(0.999419 -0.000571714 -5.14161e-21)
(1.00144 -0.000289043 -1.32783e-19)
(1.00077 -0.00233542 -1.05515e-19)
(0.997298 -0.00129561 9.99799e-20)
(1.00368 -0.000443367 -1.32641e-19)
(1.00079 -0.00178429 -5.67902e-20)
(0.991015 -0.00609335 -2.22816e-20)
(1.01728 -0.0311725 1.5514e-19)
(0.991324 -0.00545887 -9.47072e-20)
(1.07396 -0.0217403 2.10454e-20)
(0.98707 -0.00623292 9.90834e-20)
(1.00916 0.0480159 7.30495e-20)
(1.00755 0.0545039 -5.45653e-19)
(1.00032 -0.00128037 8.21126e-20)
(1.11 0.00273892 4.30031e-19)
(1.00045 -0.000706118 -6.38688e-22)
(1.00089 -0.00240461 1.14764e-19)
(0.992496 -0.0121044 -2.24844e-19)
(1.00455 0.0121653 2.36378e-19)
(1.02154 0.00515118 -3.15392e-19)
(1.00107 -0.000185179 4.90078e-20)
(1.00069 -0.00256165 1.68075e-20)
(0.988083 -0.00649284 -7.48207e-20)
(1.0255 0.0203324 -1.53791e-19)
(1.00079 -0.00129877 -5.95078e-20)
(1.00328 -0.000777588 6.23956e-20)
(1.00215 -0.000546006 -1.32793e-20)
(1.06203 0.0103888 3.70859e-19)
(1.13263 -0.031111 1.97905e-19)
(1.01008 0.0572673 3.62305e-19)
(1.00098 -0.000737678 7.11194e-20)
(1.03526 -0.0218789 -4.6737e-19)
(1.00073 -0.000315298 2.99781e-20)
(1.00469 -0.00394867 -2.28191e-19)
(1.00094 0.000536145 5.9261e-21)
(0.995378 -0.0115294 -2.94088e-20)
(1.00055 -0.000750744 2.58899e-20)
(1.00877 -0.0107206 2.5686e-20)
(1.11994 0.000605437 -3.66073e-19)
(0.989428 -0.0149039 -1.64054e-19)
(1.00713 -0.0117556 -5.01772e-20)
(1.00616 -0.00302811 -7.23607e-20)
(1.0007 -0.00178115 -7.5212e-20)
(1.01617 -0.00906419 9.3066e-20)
(1.0003 -0.0100061 -9.72106e-20)
(1.04212 0.00963394 -1.57544e-19)
(1.02805 0.0223207 1.83324e-19)
(1.09401 -0.0687354 -4.22278e-21)
(1.08408 -0.0250745 1.77211e-19)
(0.965873 -0.00306647 8.47605e-20)
(1.00438 -0.00191024 1.58832e-19)
(0.973574 -0.0146505 3.52388e-20)
(0.975329 0.0370281 -1.04185e-18)
(1.06296 -0.0299225 -3.11588e-19)
(1.01462 -0.00424194 -2.84611e-19)
(0.965354 0.0303791 -5.04828e-19)
(1.00179 0.000302586 -3.53777e-20)
(1.00024 -0.00143538 2.26971e-20)
(1.0895 -0.0186706 1.8016e-19)
(1.00104 -0.00171639 5.25286e-20)
(1.00923 -0.0210868 -5.09147e-20)
(1.00499 -0.00144149 5.05115e-20)
(0.999307 -0.00165005 3.35554e-20)
(0.999616 -0.00151948 7.00646e-20)
(1.01465 0.0156085 3.05262e-19)
(1.0009 -0.000355788 1.42167e-20)
(1.00147 -0.00014528 -5.24028e-20)
(1.00105 -7.05497e-05 4.21598e-20)
(1.00004 -0.00267349 -1.69012e-19)
(0.998686 -0.00527585 -1.32533e-19)
(1.00168 -0.00152585 -2.33249e-21)
(1.00072 0.000210223 -1.09014e-20)
(0.992516 -0.0098197 -5.99121e-20)
(0.988881 0.0177775 3.01203e-19)
(1.00825 -0.0126914 -1.07976e-19)
(0.999411 -0.00569572 -1.90207e-19)
(0.987513 0.0297055 1.29041e-19)
(1.00046 0.02255 5.19587e-19)
(1.03581 -0.000256174 -1.43686e-19)
(1.10218 0.00108599 -1.63654e-19)
(0.973522 -0.0142885 -1.20929e-19)
(1.00459 -0.00199483 -8.28049e-20)
(1.00401 0.0212095 -2.68786e-20)
(0.996372 -0.00311423 1.46159e-19)
(1.01614 0.0475579 1.40394e-20)
(1.00751 -0.0267742 -6.49396e-21)
(1.02208 -0.0581309 6.47232e-20)
(1.03691 0.0462493 2.28694e-19)
(1.01668 0.0497019 -3.41665e-19)
(0.985631 -0.0141355 -1.84477e-19)
(1.02545 0.00437272 -2.18213e-19)
(1.03635 0.0702669 5.15884e-19)
(1.02622 0.0491203 5.24454e-19)
(1.01228 -0.00155972 1.53823e-19)
(1.0003 -0.00186918 -4.17722e-20)
(0.999755 -0.00196647 -3.00579e-20)
(1.00019 0.000606014 1.58388e-20)
(1.01146 -0.0139835 7.77223e-20)
(0.996595 -0.00321105 -3.6113e-20)
(1.00191 -0.00190531 -7.39305e-20)
(1.00062 -0.00108091 2.25247e-20)
(1.00003 -0.0011383 -3.10871e-20)
(0.996172 -0.0404313 1.12077e-19)
(1.05558 0.0183198 1.39363e-19)
(0.993967 -0.00513848 1.42777e-19)
(1.00143 -0.00779015 -2.32932e-19)
(1.00244 -0.000842899 8.32271e-20)
(1.0399 -0.0201091 1.71413e-20)
(0.997572 -0.00162602 1.73061e-19)
(1.00315 -0.00380479 1.55969e-19)
(1.0514 0.0737388 8.19998e-20)
(0.998836 -0.00156508 1.75415e-19)
(1.00085 -0.000247055 2.52811e-20)
(1.00097 -0.000358472 9.80204e-21)
(1.00098 -0.000275004 6.56023e-20)
(0.992394 -0.00570843 -5.47058e-20)
(1.01456 0.0117673 -3.77457e-19)
(1.00003 0.00173754 -2.59479e-21)
(1.01275 -0.00418555 1.91195e-19)
(1.01272 -0.0683029 -8.93954e-20)
(0.997564 0.0355499 -1.34417e-20)
(1.00412 -0.00463723 8.60514e-20)
(1.00613 -0.00196472 -1.63618e-20)
(0.999414 -0.00218794 8.68916e-20)
(0.999175 0.0284175 -7.08927e-19)
(1.00266 0.00219369 -4.13675e-20)
(1.01489 0.0598445 -1.87269e-19)
(1.00677 0.0085481 -3.96914e-19)
(1.0008 -0.000447989 -2.68198e-20)
(1.0084 -0.0309982 1.34686e-19)
(1.00039 -0.00238864 8.11799e-20)
(1.00005 -0.0302189 -2.47152e-19)
(1.00146 -1.81327e-05 5.03335e-20)
(1.03214 0.00243232 1.95269e-19)
(1.00628 -0.00836308 -5.0816e-21)
(1.00525 -0.0016823 2.42581e-20)
(1.00053 0.000346214 9.61739e-20)
(1.04002 0.0183427 2.00144e-19)
(1.02255 0.0202697 5.91085e-20)
(1.00689 -0.0349191 -1.50377e-19)
(0.993037 -0.0110267 1.06714e-20)
(1.00092 -0.00251527 7.43328e-20)
(1.00215 -0.020354 3.09114e-19)
(1.07865 0.0315498 -2.93391e-19)
(0.964062 0.0295394 -4.55556e-19)
(1.04275 -0.0419591 1.28638e-19)
(1.00462 -0.00441613 -4.74246e-20)
(1.00065 -5.86755e-05 1.23602e-21)
(0.995434 -0.00424836 1.39542e-19)
(0.999551 -0.00201799 -1.36669e-19)
(1.01735 -0.00704555 1.50587e-19)
(1.00418 -0.0577533 4.8083e-20)
(1.10684 -0.0067535 -1.58096e-19)
(0.99465 0.0360158 -8.44382e-19)
(1.02783 0.0179461 2.71398e-19)
(1.0623 -0.0562485 -1.27215e-19)
(1.03455 0.0450194 9.05039e-20)
(1.00023 0.023697 8.61612e-19)
(1.01242 -0.00191346 1.59943e-19)
(1.00212 -0.00144735 1.62271e-19)
(1.01162 0.0270707 1.83037e-19)
(1.00104 -0.00169632 -1.10812e-19)
(1.00085 -0.000511228 -2.70443e-20)
(0.993737 -0.00829915 -3.68749e-20)
(1.00128 -0.00014348 1.02027e-20)
(1.06576 -0.0674709 -4.1488e-20)
(1.00455 -0.00990672 1.15651e-19)
(0.996765 -0.0188584 -1.70269e-19)
(1.00247 -0.00111733 5.30275e-20)
(1.03288 0.0375108 4.87047e-19)
(0.998905 -0.000256717 1.50221e-20)
(1.00085 -0.000267249 2.15986e-22)
(1.01834 -0.0615014 -6.55723e-20)
(1.00244 -0.000656063 -3.24861e-20)
(1.05748 0.000942062 -3.92427e-20)
(0.981047 -0.00898782 -2.97891e-20)
(0.969015 -0.00991385 -8.58821e-21)
(1.11883 0.0346829 -3.30127e-20)
(1.01339 0.00849135 -1.40188e-19)
(1.01211 0.00204764 9.3031e-20)
(1.01103 0.00188302 -4.17825e-20)
(1.00069 -0.00178223 -8.06467e-21)
(1.06211 0.0211642 1.11206e-19)
(1.04568 0.0118587 1.88422e-19)
(1.00125 -0.00075479 -4.00601e-20)
(0.994431 -0.00520473 -1.64735e-19)
(1.00172 -0.000102614 -5.58072e-20)
(1.00836 -0.00985003 -2.93384e-19)
(1.00939 -0.0132325 5.24047e-20)
(1.00457 -0.000918393 -1.24557e-21)
(1.00095 -0.00127904 1.32412e-19)
(1.06282 0.0561849 -5.1822e-19)
(1.00077 -0.000365673 2.65556e-20)
(1.00127 -3.42403e-05 -3.06003e-20)
(1.00302 -0.000513773 -9.34391e-22)
(0.991929 -0.00247223 -8.57324e-20)
(1.01152 -0.00512423 1.80168e-19)
(0.994868 -0.0150248 2.47874e-19)
(0.989233 -0.00334694 4.25309e-20)
(1.01414 -0.0319875 -1.01819e-19)
(1.02543 -0.0727962 1.00785e-19)
(1.01645 -0.014019 1.06111e-19)
(1.01672 0.0274463 -1.05462e-18)
(1.12016 0.00303127 2.20522e-19)
(0.998545 -0.00230048 1.1638e-20)
(0.971149 0.0359977 7.7162e-19)
(0.991661 -0.0286296 -2.18359e-19)
(0.999061 -0.00536037 -4.0107e-20)
(0.989414 -0.00157507 -7.30429e-20)
(1.00181 -0.0104781 1.97305e-20)
(0.991186 -0.00383496 -1.37913e-19)
(0.996867 -0.00349232 5.05008e-20)
(1.01528 -0.00822901 -2.14609e-19)
(1.0622 -0.0276003 6.94409e-20)
(1.00085 -0.000255403 2.55853e-21)
(1.01278 -0.00653311 -1.66774e-20)
(1.00003 -0.000373541 1.47613e-20)
(1.00544 0.0405658 1.7826e-19)
(1.07615 0.0567318 4.60028e-19)
(0.999481 -0.00178763 -3.01751e-20)
(0.993442 -0.00600007 1.67707e-19)
(0.99982 -0.00079326 4.74686e-20)
(0.997862 0.0252413 5.49301e-19)
(1.01131 0.0478184 4.38267e-19)
(1.06308 0.0112051 -2.02262e-19)
(1.0691 0.0682823 -4.20783e-19)
(0.990676 -0.0312667 9.50616e-20)
(0.999724 0.0186558 -7.93506e-19)
(1.00092 -0.000302927 -2.86988e-20)
(1.02946 -0.0100187 3.7817e-19)
(0.999666 -0.0145091 7.06028e-21)
(1.04578 0.0364421 -1.19187e-19)
(0.975999 0.029244 -6.44875e-19)
(1.08203 0.0258126 4.37001e-19)
(1.02681 0.0166203 4.49621e-20)
(1.00216 -0.00757383 7.15939e-20)
(1.0006 -0.000641932 4.3427e-20)
(1.06058 0.0564354 1.82876e-19)
(1.10636 -0.0192388 -6.28895e-20)
(0.999537 0.028551 -2.01767e-20)
(1.05116 -0.00293702 4.62868e-19)
(1.01836 0.0243796 3.22456e-19)
(0.998026 -0.00193195 3.26813e-20)
(0.997862 0.0353337 2.32164e-19)
(1.01406 0.0455785 1.62006e-19)
(0.997495 -0.00318034 1.53185e-19)
(0.997901 -0.00265431 6.87528e-20)
(1.07686 0.0613788 1.24259e-20)
(0.968452 -0.00931437 1.41968e-19)
(1.00092 -0.000344749 3.80812e-20)
(0.995927 -0.00440889 -1.83243e-19)
(0.971126 -0.0128143 -1.08062e-19)
(1.00021 -0.0374382 2.33847e-20)
(1.00674 -0.00185366 -2.53594e-19)
(1.005 -0.00270055 2.24071e-20)
(1.00113 -0.000406129 4.90546e-20)
(1.01037 0.0512279 -6.54131e-19)
(1.00306 -0.00566122 -1.80928e-20)
(1.00074 -0.000270478 -1.38121e-20)
(1.01451 -0.0308874 -1.94695e-19)
(1.00101 -0.000794659 -2.99058e-20)
(1.00081 -0.00081163 -4.231e-21)
(1.00479 -0.00693899 -5.25021e-20)
(1.02851 0.034906 6.32407e-19)
(1.01272 -0.0542199 -9.82647e-20)
(0.98173 0.0288639 3.8942e-19)
(1.00104 -0.000119543 -3.24358e-20)
(1.0286 0.0393733 -6.68148e-19)
(1.01078 -0.0255095 -1.46959e-19)
(1.001 -0.000417294 1.00604e-20)
(1.00092 3.21945e-05 -1.56233e-20)
(1.00224 0.00540051 -6.75162e-20)
(1.02565 0.0316804 2.37649e-19)
(1.00002 -0.0020723 -3.2636e-20)
(1.02448 0.0244017 -3.25962e-19)
(1.00089 -5.01505e-05 1.15279e-20)
(1.02415 0.0271413 -4.45824e-19)
(1.07712 -0.0677133 -1.23809e-19)
(0.997162 -0.00291781 -1.64053e-19)
(1 0.0220756 -1.09204e-18)
(0.991744 -0.0247787 -1.66541e-19)
(1.07119 0.068684 4.27367e-19)
(0.990535 -0.00445259 -4.5175e-20)
(1.02664 0.0286181 5.74514e-19)
(1.0289 0.033998 -1.71522e-19)
(0.99482 -0.00572002 -2.53861e-19)
(0.992787 -0.00659145 1.49401e-19)
(1 -0.0053343 -1.55987e-19)
(1.00019 -0.00181737 3.25137e-20)
(1.00087 -0.000527801 -6.05895e-20)
(1.00302 -0.00555346 2.99244e-20)
(1.01934 0.0441107 -8.22641e-20)
(1.00085 -0.000259694 -6.41489e-21)
(1.02198 0.023806 4.29544e-19)
(1.02072 -0.0548479 -1.77311e-19)
(1.00332 0.0229335 2.17528e-19)
(1.02201 0.0220689 -4.95947e-19)
(0.969455 -0.011992 1.43668e-20)
(0.980615 0.0322181 -8.26156e-19)
(1.00048 -0.00137987 5.81312e-22)
(1.01071 -0.0131793 1.18451e-19)
(1.02987 -0.0383943 -7.11635e-20)
(0.99216 -0.000425758 8.80823e-21)
(0.99885 -0.00263261 -1.03005e-19)
(1.0103 -0.0290596 1.15473e-19)
(1.02845 -0.00805428 -3.44857e-20)
(0.969833 0.0254087 9.85663e-19)
(1.00085 -0.000143058 4.40861e-20)
(1.00041 -0.00154604 -5.24261e-20)
(1.01739 -0.0361517 2.20037e-22)
(1.00099 -4.50492e-05 2.47383e-21)
(1.00256 0.046141 8.67898e-20)
(1.00216 -0.000627796 0)
(1.00088 9.82763e-05 2.16601e-21)
(1.00107 -7.76718e-05 7.53525e-20)
(1.00158 7.99121e-07 9.46116e-22)
(0.995928 -0.0104364 -2.05982e-19)
(1.01092 -0.00850916 -1.05074e-19)
(1.00044 -0.00118866 -1.02414e-19)
(1.00154 0.00154833 -3.20648e-20)
(0.998421 -0.00246078 -5.30834e-20)
(1.00356 -0.00722683 -5.75761e-20)
(0.999303 -0.0568392 1.17704e-19)
(0.971649 -0.000759663 -1.13629e-20)
(1.01079 -0.00464803 2.81434e-19)
(1.00024 6.05271e-05 -8.82484e-21)
(1.05792 -0.0800562 -1.37289e-19)
(0.995736 -0.00331464 7.55156e-20)
(1.06785 0.0490533 -3.56416e-20)
(1.00056 0.0215487 -1.72211e-19)
(1.00194 -0.00233674 4.80847e-20)
(1.06061 0.0420284 -5.22707e-19)
(1.00106 -0.000127278 -1.37685e-21)
(0.996298 -0.00379496 -9.49283e-22)
(1.01215 0.000469632 -2.37161e-19)
(0.99875 -0.00272533 4.16562e-20)
(1.03089 0.0393136 -3.87615e-20)
(0.996365 -0.00477538 1.43597e-19)
(1.02823 -0.0147925 -2.95953e-19)
(1.01384 0.00320407 -2.43891e-19)
(1.03083 0.0217236 -1.09702e-19)
(1.00606 -0.00802715 -1.55787e-19)
(0.997256 -0.00361954 -4.00742e-21)
(1.03755 0.0381529 3.27299e-19)
(0.992534 -0.0429443 1.18677e-19)
(0.998689 0.0428608 7.09371e-19)
(0.997736 -0.00352233 1.935e-19)
(1.02872 0.0584673 6.59673e-22)
(0.997812 -0.00343801 -5.17626e-20)
(1.0005 -0.000591292 8.9574e-21)
(1.02569 0.0185548 1.28844e-19)
(1.01037 -0.015694 -8.54368e-20)
(1.01785 0.00331327 3.53891e-19)
(1.00196 -0.000601304 3.58399e-20)
(1.00089 5.97806e-05 9.88569e-22)
(1.01072 -0.0691981 -4.43091e-20)
(1.04528 0.0673252 -4.97114e-19)
(1.00223 -0.00230314 -4.3766e-20)
(1.06531 0.0439745 5.70363e-20)
(0.996482 -0.00442038 1.027e-19)
(1.05378 -0.0812528 5.01314e-20)
(1.02548 -0.0188988 4.11965e-20)
(0.995347 -0.0162318 -1.34775e-19)
(1.00036 -0.00135026 4.14258e-20)
(0.996342 -0.00197485 3.9446e-20)
(0.994163 -0.0357936 8.1235e-20)
(0.989367 -0.00650696 -1.64952e-19)
(0.997405 -0.00330482 -1.27564e-19)
(1.00108 -0.000592424 -4.88083e-20)
(0.994296 0.0462893 -8.04178e-20)
(1.05936 0.0379826 3.2948e-19)
(1.01494 -0.00502252 -6.9058e-20)
(1.00081 -0.000512208 -4.02279e-20)
(1.01326 0.0435735 -3.05878e-19)
(1.00085 -0.000120674 1.18202e-20)
(1.0008 -0.000469239 -8.23091e-20)
(1.05413 0.036246 2.78232e-19)
(1.00921 -0.0122768 1.56375e-19)
(1.05893 0.0641237 4.45445e-19)
(1.01307 -0.00273663 1.25991e-19)
(1.01115 -0.00635453 -3.29457e-20)
(1.05015 -0.0330118 -1.2091e-19)
(1.03043 -0.0705506 -1.32656e-19)
(1.11872 0.0351214 -1.55273e-19)
(1.00207 -0.000614188 -9.4669e-20)
(0.982128 -0.00963738 1.01369e-20)
(1.00088 -0.00020393 8.37975e-21)
(1.00518 -0.00672066 3.73048e-20)
(1.03063 0.0482032 2.32222e-19)
(0.994938 -0.00541618 -1.88892e-19)
(1.00033 -0.00184811 -5.29111e-20)
(1.01095 -0.0197371 1.64877e-19)
(1.00035 -0.00160416 -2.1121e-21)
(1.00116 -0.000950271 -7.45652e-20)
(0.915363 0.00650077 1.75131e-19)
(0.997643 -0.00385665 1.00936e-19)
(1.00096 -0.00103041 1.32535e-19)
(0.978003 -0.000141004 -2.68826e-21)
(1.00976 0.00291101 3.96466e-19)
(0.990882 -0.0133403 2.30149e-20)
(1.00103 -0.000744008 -6.09869e-20)
(1.00017 -0.00191082 -6.72566e-20)
(1.01294 0.010593 1.49552e-19)
(1.03636 0.00591621 3.57617e-20)
(0.985783 -0.0129342 1.17395e-19)
(1.00081 -0.000106271 1.2821e-20)
(1.00162 0.00941296 9.41665e-19)
(0.996995 -0.00994781 1.48378e-19)
(1.03328 0.0346528 -5.00421e-19)
(1.00822 -0.00108332 -2.90043e-19)
(1.00907 -0.000596044 6.00214e-19)
(0.98873 -0.00758754 -2.13401e-19)
(1.00074 -0.000257333 9.80595e-21)
(1.01296 -0.00015471 -3.40587e-20)
(1.03683 0.00536204 -6.40469e-20)
(1.09819 0.0372372 3.32651e-19)
(1.02438 -0.0504586 -6.04374e-20)
(1.01689 0.0425416 2.56473e-19)
(1.00535 -0.000732787 -6.52752e-21)
(1.04339 0.043015 -4.49481e-19)
(1.0027 -0.00807219 9.19312e-20)
(1.01336 -0.028901 2.87163e-19)
(1.00084 -0.000638734 4.36704e-20)
(1.00428 -0.00982987 -2.34616e-19)
(1.00108 -0.000581383 -4.38511e-20)
(1.02227 0.0169527 -3.56473e-19)
(1.03163 0.0642153 -7.93893e-19)
(1.00057 -0.00139103 -3.17129e-20)
(1.01103 -0.00584648 2.08965e-20)
(0.994315 -0.00439894 -6.0973e-20)
(1.02709 -0.0434805 -3.75588e-20)
(1.02322 -0.0468932 8.87792e-20)
(1.00024 -0.00167347 -5.39832e-20)
(1.0245 -0.0114791 -1.48225e-19)
(0.777212 -0.00096113 -2.96069e-19)
(1.09447 0.0190317 2.89765e-19)
(1.00096 -0.000324794 -7.36883e-20)
(1.03307 0.00614572 -1.39625e-19)
(1.00075 -0.0051135 1.21311e-19)
(0.958662 -0.00101776 7.69142e-19)
(0.996605 -0.00422414 -1.37431e-19)
(1.00158 -0.0148706 5.93515e-20)
(1.01192 -0.0175247 -7.76155e-21)
(0.999331 -0.014932 1.13784e-21)
(1.00161 -0.0115678 2.32494e-19)
(0.998299 -0.00281669 -3.2701e-20)
(1.00251 -0.00830737 -1.96124e-19)
(1.00293 -0.00377207 -4.66244e-20)
(1.02904 -0.0114022 7.01534e-20)
(1.00095 -0.000203315 -7.09094e-20)
(1.09796 -0.047291 8.53737e-20)
(1.08276 -0.00356334 1.13586e-19)
(1.0092 0.0488501 5.16263e-19)
(0.986314 -0.0123173 -1.837e-19)
(1.0513 0.0584154 -2.23718e-19)
(1.00248 -0.000479896 1.09108e-19)
(1.04092 -0.0377801 -6.00226e-21)
(1.00659 -0.0195008 1.40354e-19)
(1.01148 0.0179737 3.7661e-19)
(0.998669 -0.00304015 -9.59334e-20)
(1.00114 -0.000279442 5.30183e-20)
(0.997151 -0.00980759 -2.06699e-19)
(1.00018 -0.00563632 6.10207e-20)
(1.0228 -0.012904 2.48375e-19)
(0.989502 -0.00497573 1.44248e-19)
(0.99205 -0.00625676 -5.01409e-20)
(1.06885 -0.0161747 8.57381e-20)
(0.995294 -0.00353311 1.11595e-19)
(1.01052 -0.0189157 -1.39607e-19)
(0.999119 -0.0406522 -1.03372e-19)
(1.00087 -0.00019518 2.13186e-21)
(1.0284 -0.0069336 3.11651e-19)
(1.00177 -0.0373139 3.18205e-19)
(1.05718 0.0497468 2.38593e-19)
(1.0505 -0.0398087 1.96069e-19)
(1.01591 0.00279904 3.48424e-20)
(1.0185 -0.0519872 2.33189e-19)
(1.0174 0.0537936 1.50775e-19)
(1.02047 -0.0170269 2.09001e-19)
(0.98775 -0.00735316 1.26616e-19)
(1.01078 -0.0237107 2.11394e-19)
(0.909398 -7.19366e-05 3.13311e-19)
(1.07992 -0.0497323 -8.02248e-20)
(0.996093 -0.00403225 4.28995e-20)
(1.01828 -0.0665465 1.32114e-20)
(1.01657 -0.0321423 -1.79657e-19)
(1.02488 -0.0610196 4.7343e-21)
(1.02504 -0.041152 1.44948e-19)
(1.03888 0.0356751 4.22775e-19)
(1.00036 -0.00183474 -2.44387e-21)
(1.0019 0.0205606 1.34592e-19)
(1.00593 -0.000764391 5.74586e-20)
(1.00104 -0.000690787 7.5016e-20)
(1.00101 -0.0018266 -2.489e-19)
(1.03071 0.00333461 -6.72261e-20)
(0.600402 -0.00117441 7.62445e-21)
(1.00278 -0.00368614 6.58212e-20)
(1.01277 -0.0272283 -3.72532e-20)
(1.0123 0.0109257 -2.45407e-19)
(1.00091 -6.70782e-05 -2.26256e-21)
(0.992986 -0.00627585 -1.27276e-19)
(1.01301 -0.00427753 1.85682e-19)
(1.04041 -0.0195377 2.88673e-19)
(1.00583 -0.000739591 3.04005e-19)
(1.00088 -0.00151937 -3.38241e-20)
(0.995691 -0.0213314 1.82746e-21)
(1.00106 -0.00507973 6.45785e-20)
(1.00081 7.61382e-05 2.63088e-20)
(0.993104 -0.0246442 2.86149e-19)
(1.02261 0.0425827 -9.83513e-20)
(1.01293 -0.0154305 -2.6496e-20)
(0.994732 -0.00473989 1.10196e-19)
(1.00254 -0.000100586 -4.10003e-20)
(1.01473 0.0135991 3.25599e-19)
(1.00113 -0.000771228 2.97855e-20)
(1.00049 -0.000854053 6.99833e-21)
(1.00085 -0.000649209 4.4779e-20)
(1.00118 -0.0016459 1.01091e-19)
(1.08932 0.0356125 2.32975e-19)
(1.01781 -0.0210425 4.84426e-19)
(1.00713 -0.0096515 1.06626e-19)
(0.994292 -0.0055193 5.15364e-20)
(1.00098 -0.000113475 2.64188e-20)
(1.03955 -0.0636012 -1.95643e-19)
(1.11181 -0.0101935 6.0441e-21)
(1.04434 -0.0727339 8.82053e-20)
(1.00184 -0.0171412 9.15264e-20)
(1.00857 -0.00426662 2.62202e-19)
(1.00075 -0.000588763 -2.82442e-20)
(0.99702 -0.0071283 8.98959e-20)
(0.983042 -0.0248627 1.18859e-19)
(1.08641 0.0221542 1.34563e-21)
(1.00189 0.0233177 -9.39983e-21)
(1.00115 -0.00229156 -6.04854e-20)
(0.976532 -0.0172457 -5.57253e-20)
(0.999595 -0.00224259 1.29011e-19)
(1.01929 -0.0165117 -8.05295e-20)
(1.0456 0.0349724 4.98705e-20)
(1.00168 -0.000156472 -9.95175e-20)
(1.00104 -0.000505759 1.98616e-20)
(1.07907 0.0628352 5.68993e-20)
(1.08102 0.0109206 -6.52079e-20)
(1.01344 -0.00821366 9.15093e-20)
(1.00036 -0.00190669 -9.08695e-20)
(0.999905 -0.0017138 1.09933e-20)
(0.986475 -0.0250214 -3.03648e-20)
(1.00101 -0.00060576 6.06039e-20)
(1.01148 -0.0170629 2.67304e-19)
(0.996259 -0.00175215 -2.55277e-19)
(1.00044 0.0219952 -1.40295e-19)
(1.02507 0.0406958 -4.8451e-20)
(1.03488 -0.0342421 -1.14568e-19)
(1.00298 -0.0362702 -1.10624e-19)
(1.00454 -0.000988978 1.81873e-19)
(1.0099 -0.0124427 -2.36005e-19)
(1.08168 -0.0016189 3.1614e-19)
(1.00209 -0.0409305 6.24435e-20)
(1.01235 -0.0221108 -1.2958e-19)
(1.00075 -7.30521e-05 -2.37946e-21)
(1.07271 -0.00985484 2.61669e-19)
(0.988134 -0.00201579 -1.39096e-20)
(1.0025 -0.0451656 -1.11588e-19)
(1.01202 -0.0148406 -3.76453e-19)
(0.982771 -0.00930108 2.08143e-20)
(1.0009 -0.000772837 2.33076e-20)
(1.00032 -0.00186327 4.2105e-20)
(1.01957 0.0207636 3.80351e-19)
(0.989115 -0.00718363 5.0037e-20)
(1.00033 -0.000500603 -1.55622e-21)
(1.0003 -0.00207716 8.76268e-20)
(1.0813 -0.0449252 2.87887e-19)
(1.00059 -0.000325651 -8.34595e-20)
(1.0144 -0.0247553 5.38122e-20)
(1.00092 -0.000301502 3.57559e-21)
(1.00557 -0.0074086 1.5304e-20)