/*--------------------------------*- C++ -*----------------------------------*\
  =========                 |
  \\      /  F ield         | OpenFOAM: The Open Source CFD Toolbox
   \\    /   O peration     | Website:  https://openfoam.org
    \\  /    A nd           | Version:  7
     \\/     M anipulation  |
\*---------------------------------------------------------------------------*/
FoamFile
{
    version     2.0;
    format      ascii;
    class       surfaceScalarField;
    location    "13";
    object      phi;
}
// * * * * * * * * * * * * * * * * * * * * * * * * * * * * * * * * * * * * * //

dimensions      [0 3 -1 0 0 0 0];

internalField   nonuniform List<scalar> 
43924
(
-594.906
665.291
-70.385
1062.8
-1072.28
9.48594
-335.229
382.775
-47.5453
229.276
-259.571
30.2948
-498.658
498.658
223.433
-265.419
41.986
-364.857
363.67
1.18716
24.2967
-561.114
536.817
663.342
-833.359
170.016
-1009.26
1102.24
-92.9747
552.408
-141.696
-410.712
-530.694
536.841
-6.1473
-687.898
582.696
105.202
-859.817
868.879
-9.06203
263.66
56.9479
-320.608
386.178
-10.5584
-375.62
814.656
-666.845
-147.811
-401.164
397.912
3.25125
161.393
314.771
-476.163
291.056
-357.796
66.7405
-594.104
81.6493
512.455
724.315
-60.973
50.2279
-385.457
136.599
-489.636
353.037
237.28
-129.381
-107.898
1067.35
-4.55485
659.894
-681.046
21.1526
-277.316
-4.71492
282.031
299.221
-35.5609
-441.134
543.847
-102.713
950.687
-249.319
-701.368
-669.218
757.135
-87.9166
240.581
-225.75
-14.8307
477.674
-68.0561
-409.618
134.493
-411.809
269.099
-431.28
162.181
430.676
-581.21
150.534
291.921
-36.5991
-255.322
823.957
-978.236
154.278
1061.13
-237.171
-1018.06
1035.63
-17.5663
404.453
-94.5826
-309.871
704.008
110.648
192.779
-307.55
114.77
1228.47
-777.701
-450.767
-591.299
150.165
539.522
-538.693
-0.829428
230.513
645.513
-876.026
223.97
537.301
-761.271
-110.814
541.49
-366.829
165.488
201.341
-16.2896
-224.518
240.808
-663.105
-6.11315
240.616
-17.1835
424.526
-38.3476
-269.651
-57.3642
327.015
525.066
-500.026
-25.039
-34.2413
-559.863
-462.448
40.3449
422.103
-299.263
-24.2031
323.466
799.514
17.5777
-817.092
-409.164
570.557
-17.3742
-234.135
251.509
-213.852
482.951
-319.086
434.93
-115.844
262.15
241.828
-503.978
497.2
-127.829
-369.371
428.307
-46.5918
-381.715
-450.825
-30.2771
481.103
-986.606
-31.4574
1059.96
7.39582
296
286.949
-582.949
-241.765
546.194
-304.429
168.947
84.6265
-253.574
-432.52
382.18
50.3405
-368.629
373.839
-5.21002
290.566
-159.981
-130.586
-251.369
-62.1748
313.544
-699.304
16.5448
682.759
408.146
-94.9341
-313.212
-256.318
256.318
88.8683
-763.436
674.567
-661.514
66.6081
-947.224
848.221
99.0029
-311.461
-53.396
-42.1449
210.404
-168.259
522.349
-140.612
-381.737
-644.585
-43.3132
652.523
-69.8276
103.246
80.0115
-183.258
-353.581
87.1299
266.451
-311.364
59.9948
845.454
-621.484
561.772
-590.101
28.3292
229.71
-98.0688
-131.641
-358.231
130.556
227.675
-17.3848
249.045
-231.661
-846.684
847.35
-0.665606
-27.3449
-163.169
190.514
266.621
7.90902
-274.53
-711.455
12.1511
-267.933
284.496
-16.5631
778.745
20.7694
426.113
-628.403
202.289
202.505
-218.794
-754.414
814.514
-60.1007
641.559
-718.018
76.4586
74.7038
577.82
943.852
-846.972
-96.88
-220.571
237.187
-16.6167
200.712
39.8695
351.671
117.315
-468.986
1009.09
-256.884
-752.208
19.218
563.331
-582.549
-13.196
-587.148
600.344
538.933
-242.933
102.598
427.691
-530.289
-303.426
408.607
-105.181
76.7554
-814.83
738.074
-697.717
455.952
-22.7199
-187.678
210.398
18.6432
-854.692
836.049
-300.564
315.489
-14.9252
-37.9889
300.139
24.1419
-890.653
866.511
-352
332.899
19.1017
-87.6159
-313.548
7.29806
-282.163
274.865
703.042
-786.282
83.2399
726.204
-860.27
134.067
-144.387
337.167
178.027
112.539
195.279
-206.013
10.7332
278.366
-302.37
24.0037
-126.652
552.765
623.598
327.089
150.825
72.752
-223.577
278.146
-317.833
39.6867
197.984
-227.487
29.5032
-28.3963
295.018
-339.815
-12.1857
1.35823
-189.672
188.314
226.56
-64.6629
-161.897
181.123
827.969
-198.076
-739.276
937.352
-101.185
-397.473
522.714
16.8079
224.031
-225.985
1.95323
251.182
-201.775
-49.4069
12.0686
-224.346
212.277
-394.684
629.958
-235.274
53.86
505.524
-559.384
984.057
-886.358
-97.6998
790.948
-787.097
-3.8516
-570.748
-240.005
810.754
-146.185
722.143
-575.958
456.528
-443.965
-12.5636
-216.534
-1.42462
217.959
33.4581
-763.149
729.691
-166.426
-200.403
-249.601
235.477
14.1244
241.378
-12.1017
29.5703
1020.88
-572.444
-448.44
735.195
-933.271
-400.573
97.1471
17.4707
209.089
16.4373
-778.21
761.772
-90.396
-856.828
418.24
-452.74
34.5002
-106.608
832.811
55.0111
-736.18
681.169
-210.431
-6.10261
278.146
-1.64319
242.871
-241.228
-433.048
433.048
83.1233
679.064
-762.188
-316.299
48.3659
-579.074
598.292
320.566
-290.665
-29.9005
-777.833
-63.2724
841.106
-141.849
444.473
-302.624
433.353
88.9964
428.314
-443.572
15.2577
238.114
-40.1302
-212.629
-323.82
536.45
501.888
-381.671
-120.217
-328.747
16.6786
312.068
784.959
-81.9176
-521.34
-78.5368
599.876
-661.11
661.11
-124.699
500.958
-376.259
94.7116
-345.49
250.778
-919.89
349.142
307.238
-359.391
52.1532
436.937
19.5912
810.957
-494.515
-316.442
913.868
-63.1032
-850.764
79.1762
150.534
-847.079
614.069
233.01
-20.569
258.782
-238.213
-213.761
221.011
-7.24928
-41.4056
-489.288
874.763
-890.072
15.3091
-59.6061
430.048
-11.8075
787.738
-790.585
2.84715
245.181
-21.149
15.2278
-235.798
822.134
-963.823
141.689
244.825
-342.872
98.0466
570.762
-570.762
899.946
-93.2472
-806.699
594.319
73.0652
-667.384
53.2574
-325.702
272.444
-201.594
271.08
-69.4866
-469.884
328.034
54.1869
733.551
-393.155
529.754
259.921
-180.745
-683.937
-176.333
484.33
-630.516
453.738
-501.363
47.6258
-894.591
1028.32
-133.728
-580.983
555.823
25.1602
505.57
-582.545
76.9754
128.618
730.196
-858.814
211.35
530.658
-742.008
723.339
505.129
321.876
739.252
327.266
-232.579
-94.6864
-296.812
296.812
371.365
-402.425
31.0595
-28.3952
1088.35
270.602
-324.542
53.94
529.769
-475.909
-297.429
-562.389
551.812
-566.01
14.1983
-29.5137
904.277
252.457
-273.026
-206.518
191.053
15.4647
499.098
-587.895
88.7979
-197.757
959.014
-761.258
588.862
-83.2923
771.392
-384.166
-387.226
339.73
-48.6737
472.006
548.878
-199.82
157.675
-743.856
59.9184
-930.618
36.0277
477.853
47.2126
-679.813
891.163
-690.569
-63.8452
191.187
-200.834
9.6473
-74.0147
915.173
-841.159
-38.0498
-817.795
855.844
186.096
-184.738
32.9439
167.979
-200.923
-9.81087
-366.028
375.839
319.326
-312.028
-602.771
208.087
-237.672
441.911
-204.239
908.546
-678.033
303.603
23.6628
272.784
15.4229
-288.207
-566.957
163.12
403.836
461.209
-32.8947
518.195
-730.824
-358.493
-10.1363
647.236
-746.154
98.9175
-227.531
155.645
71.8859
-656.313
638.998
17.3152
211.768
-213.411
76.2964
183.625
-742.571
825.694
-322.131
315.306
6.82514
68.0839
-363.884
295.8
234.55
-208.094
-26.4562
526.826
-328.829
-197.996
7.13661
-347.085
339.949
-497.548
484.352
-72.8877
281.614
-208.726
-660.01
156.268
503.742
-347.741
-10.4897
653.857
6.03705
446.092
-21.566
-163.447
11.8334
151.614
-21.5427
721.744
-700.201
-850.502
979.12
321.764
-148.597
-173.167
677.339
-775.135
97.7964
423.155
348.237
706.474
59.4951
-765.97
818.096
81.8499
546.206
-523.932
-22.2743
1093.71
-1012.31
-81.4047
5.79007
-297.661
291.871
282.39
-9.60568
96.3991
140.88
211.271
-15.9916
194.219
-201.989
7.77022
146.44
147.557
-293.997
-306.063
285.565
20.4978
-159.169
-296.573
455.742
421.081
-545.781
-321.61
195.449
-196.413
0.96374
195.681
1009.72
-566.436
-443.285
526.006
-109.166
-416.841
130.932
510.627
76.8185
469.388
20.0016
-689.64
711.38
-21.7409
47.8879
-548.529
500.641
-83.7976
-248.436
332.234
-449.409
39.3579
410.051
-140.627
-336.143
476.77
780.01
-1.26542
22.5073
183.63
-369.158
185.529
161.564
-234.452
-920.651
848.98
71.671
-298.352
306.124
-7.77172
667.134
-82.4677
-584.667
1047.02
-603.808
-443.212
193.664
-195.004
1.34054
261.907
-111.107
-150.801
-422.282
418.501
3.78104
663.744
-32.0737
-631.67
-692.771
3.13188
372.022
36.124
-563.858
443.781
120.077
582.42
-578.429
-3.99084
-855.76
44.3889
811.372
856.369
33.1987
-889.568
-424.838
284.211
-202.755
39.3077
-321.792
526.237
-204.445
-171.709
-34.8087
754.996
-793.046
-146.611
179.555
534.074
-173.238
-360.836
-123.657
-309.391
223.383
-224.823
1.44034
619.523
44.2208
683.506
-608.802
19.2563
-301.927
282.67
837.278
-876.307
39.0291
-303.364
12.6987
953.804
-957.127
3.32296
48.7676
211.779
-260.547
680.279
-33.0425
567.391
-592.942
25.5509
-829.796
848.439
180.866
-203.586
786.301
212.195
746.82
153.342
194.369
-347.711
-300.323
-8.87896
820.753
-65.9292
-754.824
595.857
-130.188
-465.669
238.449
-72.961
86.2675
410.933
69.4141
-271.008
473.891
-503.962
30.071
143.074
-349.505
206.431
137.784
389.042
51.7838
862.084
653.006
-773.317
120.311
-22.9204
976.725
-248.557
-27.8782
276.435
-220.084
207.914
12.1694
-3.49162
172.439
48.7571
453.131
335.304
-345.115
-355.949
36.8632
-336.322
37.0594
838.353
-58.343
69.1336
-239.275
170.142
-953.446
22.8279
-916.743
-36.703
-486.088
55.4843
430.604
-730.355
898.842
-168.488
-200.559
-60.5964
261.155
-111.484
-77.4658
188.95
-155.731
-44.9938
200.725
-132.786
229.286
-96.4998
853.456
406.141
-222.512
139.698
-12.8878
-568.095
-878.971
-41.6794
446.084
149.773
189.26
-511.052
200.732
-1106.99
906.257
30.8426
200.419
-231.262
-14.4235
-199.338
419.105
26.9871
89.188
701.76
282.986
10.192
-293.178
-473.45
576.047
728.719
72.9088
-801.628
-777.718
-8.5635
800.049
-854.767
54.7178
291.818
-255.377
-36.4413
81.3976
240.366
850.721
-864.986
14.2649
978.831
-862.15
-116.68
939.032
-943.613
4.58022
-391.596
-172.262
-6.43149
-872.877
548.476
324.401
-187.355
162.547
24.808
-243.355
389.795
141.362
92.1327
-233.494
757.65
254.486
-271.86
431.747
94.259
782.168
-695.097
-87.0703
-52.7944
-104.303
-91.6833
195.986
-309.962
260.621
49.3411
862.404
-838.262
-22.034
380.292
-358.258
-331.482
-8.33291
569.759
-583.973
14.2139
369.593
-327.413
-42.1801
-828.463
731.195
97.2683
-905.765
831.75
142.207
119.7
-406.932
277.403
129.529
468.9
-454.29
-14.6094
621.5
-622.674
1.17413
518.172
-44.2819
-313.834
-138.019
451.854
19.046
-267.603
-75.2396
-245.394
320.633
544.286
563.928
-1108.21
-900.869
849.213
51.656
-3.83806
-405.446
419.526
-14.0796
432.448
-400.037
-32.4108
671.256
-843.628
172.372
710.931
-880.932
170.001
-503.86
-156.149
-435.447
75.6039
359.843
306.506
-6.71924
-299.786
-326.834
171.103
474.235
78.1725
-719.681
-108.782
4.13375
190.085
-304.47
300.392
4.07845
52.2526
-346.334
294.081
490.915
39.0173
-529.932
-229.223
301.113
-71.8902
-896.197
-19.6402
915.837
-197.876
-36.6973
234.574
6.77539
-844.254
837.479
804.71
-118.458
-686.252
336.54
140.04
-215.28
-874.88
-21.3166
808.474
40.5063
-8.32568
538.397
-186.726
-505.29
-14.3592
519.65
-801.993
913.795
-111.802
314.234
-246.15
-393.845
310.048
-30.3045
590.75
63.1063
384.597
-241.523
302.808
508.149
-15.2653
27.4602
342.133
-775.513
83.571
691.943
457.032
94.7799
-130.738
-29.6339
160.372
-851.809
-23.0716
72.7966
331.657
-201.141
227.768
-26.6267
51.323
-280.546
-254.315
271.886
-17.5716
-19.214
30.7446
-513.599
482.854
-610.892
-135.261
-24.4168
303.851
-279.434
-330.13
447.445
599.388
447.632
-1102.77
430.486
672.288
329.777
0.37681
-330.154
-236.368
-164.868
401.235
-524.888
549.185
-661.192
-17.9969
679.189
99.1059
91.3888
-190.495
-44.2486
799.244
838.694
-862.471
23.7771
807.533
-154.527
40.4287
-601.542
-326.971
-20.1139
556.822
57.8366
-614.658
441.034
20.1745
-349.796
393.927
-44.1303
-853.478
-3.815
857.293
-27.817
-823.992
295.35
-271.139
-24.2106
625.208
-3.70765
565.527
-404.977
-160.549
-219.573
275.795
-56.2214
-91.5027
-264.447
-421.629
-40.819
893.886
-182.955
-819.264
88.9093
-629.367
18.4743
-540.658
51.649
489.009
820.552
-39.6303
-780.922
-258.969
126.183
-1.22978
-356.049
357.279
857.448
-186.192
308.621
-2.11555
636.593
-69.2017
494.173
-3.25787
801.412
-712.224
-1045.13
-57.6413
445.192
23.7072
526.04
35.732
731.356
-697.898
795.862
-38.4137
-757.448
196.508
-223.853
276.626
-16.0053
-118.286
206.201
-194.133
474.984
15.6823
-490.667
576.688
-99.4335
-477.255
-459.968
422.214
37.7539
128.917
672.495
0.444688
-92.0833
-764.531
856.614
83.4019
-669.257
585.855
228.724
-305.464
76.7406
-739.341
647.257
91.7872
712.923
-504.407
1048.69
234.485
-165.351
-269.878
-176.376
251.888
-75.5117
212.616
-261.8
49.1835
-180.786
322.148
-8.65218
-322.83
-51.2171
5.80993
-411.404
405.594
-47.5735
-162.321
-195.475
-31.2699
369.045
-337.775
-870.85
944.468
-73.618
45.511
-528.196
482.685
28.5893
-248.673
-755.911
106.279
649.632
357.428
-222.935
819.404
1.14777
-2.94836
214.144
-211.196
430.627
134.9
-116.184
-319.263
815.805
-201.736
-95.1993
-914.066
615.128
-328.179
129.097
44.0396
654.66
-565.792
495.775
-18.1012
343.314
-36.0763
339.296
-421.757
82.4607
200.239
-243.882
43.6422
45.8695
251.866
-297.735
336.127
-495.296
-2.93049
761.958
-806.206
537.837
-62.8529
-104.895
736.487
-631.592
-269.899
305.224
-35.3251
-67.9944
296.718
207.963
-190.492
-282.927
13.0277
-1057.4
586.096
471.303
-35.8985
-75.9568
179.203
-310.49
295.811
14.679
-676.044
692.482
268.998
-273.939
4.94131
-472.778
176.205
-501.771
-555.628
242.37
-278.969
847.165
-946.596
99.4311
-344.18
17.2086
484.859
-627.218
142.36
-2.27113
810.745
230.198
-255.787
25.5897
-317.022
-555.855
-37.6133
294.361
-25.3626
339.69
-115.71
-223.98
-20.2612
-838.236
858.497
-875.316
485.021
390.295
-56.4513
735.516
-456.612
34.9828
-147.742
-122.769
270.512
875.578
-817.199
-58.3785
394.643
-321.847
796.498
3.55087
104.727
88.6842
-193.411
-580.556
1024.4
-443.843
147.39
-196.419
49.0292
-758.959
-144.998
903.957
130.843
208.847
853.516
-31.3814
813.474
-736.718
504.279
-418.011
8.95627
-243.091
42.6343
151.403
-194.038
307.495
230.902
-25.6372
-1098.2
619.198
479.002
7.76525
891.686
-60.5477
-831.139
-430.647
623.281
-192.634
57.158
756.316
23.7504
-529.041
-590.54
-18.3598
608.9
408.747
148.349
-557.096
-264.702
-522.394
279.236
64.0783
-179.831
-76.4871
-406.672
353.031
53.6418
-790.58
296.065
201.752
-263.091
61.3391
223.284
-248.524
25.2402
430.682
-424.872
724.379
51.6121
-775.991
-203.865
40.696
818.666
20.8224
-839.488
-351.486
13.6172
337.869
118.64
860.191
-410.797
451.142
411.748
-72.4516
-954.443
99.6828
854.76
789.092
102.594
-34.3649
234.604
50.7949
381.653
894.895
133.424
29.3035
-485.915
28.6448
-826.736
798.091
695.759
-763.128
67.3696
636.291
465.948
769.014
-56.033
-712.981
197.478
-50.088
76.556
339.555
-416.111
-735.238
792.396
260.013
174.917
-276.61
168.019
108.591
-111.158
-426.876
538.034
-32.4568
-217.144
1004.41
-573.926
88.6766
-289.236
204.555
-207.504
-101.969
-157.602
30.5649
820.156
-161.242
497.369
-598.238
751.92
-153.682
680.87
-702.413
-390.111
375.752
-442.481
-180.193
39.629
348.844
-10.8389
-338.005
-46.2872
808.245
-505.247
-623.366
1128.61
288.24
-234.189
216.804
10.2549
197.708
-251.416
122.035
-885.276
908.934
-23.657
-267.64
255.499
12.1415
74.6555
707.512
3.36478
765.649
636.156
-16.6332
-15.1362
-513.126
470.645
42.4812
933.074
17.1544
-950.228
-310.536
-40.95
-0.598058
-235.041
793.359
-68.9802
529.021
-623.165
94.1438
-761.875
-84.8086
33.5192
258.299
884.673
10.2225
-491.073
441.083
49.99
-950.453
-94.6798
48.72
-384.218
335.498
-193.612
213.224
-19.6115
245.648
-33.0314
-39.8886
1050.3
-313.224
-737.078
579.629
-50.6076
44.5017
-265.623
-60.0787
-691.286
771.524
-80.2374
-82.0088
-4.40248
227.686
504.889
-5.79136
92.7919
-870.625
-94.9089
215.089
-120.18
-191.866
217.144
-25.2773
-681.803
570.645
-448.462
479.206
342.148
52.4954
-461.075
425.086
35.9888
576.419
433.302
498.602
-460.05
-38.5528
474.564
-308.473
-166.09
-196.663
36.6827
351.178
-21.7557
-329.422
-254.5
78.1241
-328.135
290.146
-219.03
-636.73
-691.511
-81.8054
260.611
-58.8597
660.043
197.405
6.94725
228.529
815.873
-85.417
-730.456
329.144
-142.181
647.115
-504.934
237.464
-298.06
-101.443
510.189
-750.699
8.12815
-121.741
-105.789
500.005
-93.9327
780.806
-686.873
-201.244
218.206
-16.9627
-25.2951
-242.345
829.592
-737.805
223.861
-427.95
-405.044
832.994
860.455
-200.412
-43.7401
785.278
-741.538
597.429
-6.67812
17.8029
-608.343
281.632
134.24
-415.872
-404.294
480.85
-21.133
-319.111
340.244
-617.39
66.3049
551.085
-144.89
511.042
-366.152
-478.853
410.342
-483.598
73.2553
105.578
-180.975
75.3967
-184.671
338.013
-174.506
-183.987
726.562
-30.8033
102.318
581.188
-611.072
648.951
-37.8799
269.226
-293.643
-810.184
-52.287
97.2187
-433.362
590.119
460.183
-615.814
173.334
415.909
-843.86
378.76
-681.902
28.6553
653.247
-199.114
244.441
-45.327
-816.293
886.706
-70.4128
-48.6543
-432.279
480.933
1005.36
-405.606
-599.754
-69.3725
-785.394
10.09
285.26
-950.466
207.419
743.048
-857.718
-92.748
-174.203
-13.1519
-777.766
731.479
-130.281
-294.379
424.659
-18.7929
-265.072
283.865
160.443
647.091
230.114
155.162
-385.276
-902.871
154.581
748.29
541.211
-580.991
39.7797
604.544
58.6023
-663.147
-43.9478
674.02
-639.858
-34.1619
353.544
-23.7673
-17.9716
219.704
-201.733
608.336
65.6838
14.4357
-792.154
721.541
-777.573
-178.394
221.028
322.705
151.858
138.5
-313.007
204.857
-209.217
4.35989
343.151
-200.196
-142.955
592.075
44.0808
-747.005
800.803
-53.7982
-397.422
-105.31
502.732
-15.7531
-288.717
250.807
52.8223
-303.629
252.33
-101.636
-150.693
418.413
-467.067
-61.7166
-740.277
-411.21
87.9687
146.581
501.804
-440.969
-60.8344
-227.904
258.747
-205.591
197.353
8.23855
15.8479
-220.909
205.061
-323.083
379.906
-56.8236
210.282
-5.96803
-204.314
450.437
554.923
-264.187
555.595
-473.945
141.247
-235.242
93.9944
-204.235
-8.27674
212.512
701.29
-96.7454
247.004
-170.707
-357.857
278.767
79.0901
-429.3
-12.587
441.887
-352.149
449.368
314.006
-323.497
9.49086
-17.944
34.7341
469.545
462.873
35.7297
30.4011
-459.701
181.776
9.27741
-340.048
-4.1319
-371.406
297.266
74.1404
342.961
-63.7251
672.62
221.265
-232.824
248.672
-290.527
307.206
95.4109
659.171
-754.582
-736.057
-26.0938
762.151
28.0749
159.551
16.7795
-339.862
-690.717
621.127
69.5895
128.077
-172.063
170.752
1.31128
425.188
-143.556
-239.022
-172.882
411.904
-166.874
-346.252
222.403
-17.5455
-259.284
111.542
90.8981
-185.807
-1009.54
696.318
-348.331
348.331
851.461
242.25
-35.307
-509.101
-500.441
210.908
325.933
528.196
42.5657
546.302
-52.1294
263.001
-240.341
-22.6594
-629.442
662.38
-32.938
-50.2659
-532.884
-46.1907
-638.683
712.24
-73.557
84.4981
-493.663
-353.289
539.487
6.81519
527.734
16.7652
-544.499
746.5
-647.538
7.68005
-115.385
-63.7424
179.128
-415.797
87.6614
313.753
-34.3047
-279.448
-156.403
-46.3516
-303.246
290.176
13.0701
-291.078
71.5045
868.552
-195.932
-333.21
51.0467
767.497
-1.01436
-766.483
584.199
-659.087
74.888
-922.854
830.374
92.4804
-24.0375
-637.155
109.98
298.627
-24.1586
-261.782
285.941
-782.013
18.5777
-204.679
-292.2
268.041
-466.2
511.711
-235.572
259.81
-24.2375
-305.212
299.534
5.67822
-809.358
704.464
995.98
-148.815
-165.283
297.53
-248.763
362.499
-168.13
409.952
-307.416
-102.536
288.546
54.4151
812.058
-93.8084
-718.249
184.101
-681.649
-751.607
667.743
83.865
5.37552
-617.517
623.869
-6.3516
66.3736
180.63
-96.3415
517.423
-271.609
290.725
-19.1161
379.294
-458.466
79.1724
-608.684
649.284
-40.6
585.447
44.6659
-630.113
241.447
-223.241
-18.2054
555.994
-23.4431
-532.551
236.43
-125.315
-111.115
-129.527
-49.5728
179.1
953.718
-944.772
-8.94615
-575.499
-388.324
-46.6734
-755.369
802.042
-897.643
834.371
-579.287
357.111
222.175
605.111
-623.471
-16.012
671.822
-655.81
19.9913
147.374
-167.365
-70.0819
-276.252
-855.975
-66.879
15.4578
366.722
334.094
-739.7
197.724
-15.9488
-230.808
230.808
410.75
-145.91
-264.84
-911.229
25.9523
-3.4095
-28.7309
-475.178
503.909
-753.71
-80.7155
487.261
-406.546
-252.411
-408.699
432.919
-10.7055
-59.5464
259.966
156.475
186.676
-540.155
398.46
-170.744
400.858
340.305
-51.7594
762.322
-707.311
-284.737
-8.67056
271.122
-946.893
-3.56074
5.60896
927.465
533.261
-448.763
-833.809
572.49
261.319
-1.41323
262.043
-260.63
350.205
-5.5096
-344.695
-462.37
31.7234
-834.667
748.392
86.2749
-132.077
-178.459
195.802
37.692
-233.494
213.132
127.173
-800.993
17.7919
-591.126
323.525
267.6
39.6695
238.697
363.074
-325.86
-37.2145
-380.357
390.427
-10.0702
847.42
-513.326
-455.072
312.891
-324.65
192.795
131.856
423.384
-720.812
568.441
-27.2301
811.25
-807.885
79.1644
157.265
-828.107
810.246
17.8609
-794.391
47.386
-472.163
-527.845
1042.65
-186.28
931.102
-835.176
-95.9258
-521.12
-463.316
984.436
-48.9001
-257.163
57.2227
226.958
-235.301
8.34307
-22.3306
-56.0736
733.413
467.756
-31.8916
-435.865
-370.781
-196.175
15.4621
-93.9625
-248.909
-152.716
415.755
-263.039
-926.211
926.211
93.131
-804.89
488.448
-511.055
69.2473
441.808
-212.078
-194.854
167.119
-161.43
-378.725
-550.822
389.392
601.597
59.2213
193.108
422.508
-929.178
506.669
-21.8436
304.829
-222.093
-263.995
-217.817
412.528
-89.823
-182.608
-142.042
-65.494
-835.375
452.556
-518.175
65.6189
16.7984
-691.425
772.598
-81.1727
415.806
-421.542
5.73649
247.912
-568.528
529.743
38.7849
108.231
114.532
-222.763
197.672
-215.644
378.933
-708.789
329.856
110.542
758.337
172.071
238.679
-68.726
-492.537
463.806
293.329
-308.055
14.7261
416.665
-37.3714
354.14
-385.409
-23.3645
-367.687
391.052
-36.0662
-266.304
315.599
10.811
-326.41
-418.529
265.813
-389.392
41.6325
631.079
-749.538
-410.28
532.747
-313.818
-91.6279
976.653
-866.111
-492.719
-312.316
805.035
295.122
40.6129
290.186
-330.799
-452.807
137.651
-269.728
-51.9031
451.396
-564.044
112.648
47.4297
613.681
-185.176
69.7901
319.99
-280.32
708.749
-329.815
268.305
-181.175
24.249
364.979
-389.228
-29.0405
-298.425
-3.50212
-258.63
252.409
6.22048
0.307384
550.974
-527.223
35.9435
-891.591
113.382
798.14
-1.64155
330.401
-117.269
525.487
328.709
-854.196
598.402
239.951
669.142
-763.074
-743.572
103.454
640.118
272.373
60.6183
-332.991
189.185
-182.172
-7.01251
23.5323
274.451
572.899
-195.463
32.0664
163.396
-156.976
-606.849
763.825
-341.224
359.373
-18.1487
-249.505
294.748
-45.2431
-148.95
-175.592
-256.09
214.264
41.8263
920.091
-920.091
-87.4387
727.073
-639.634
294.895
-213.497
345.541
-68.138
-657.642
191.21
28.4167
-219.627
49.5523
-587.037
537.485
30.8889
-232.847
201.958
908.173
-913.904
5.7311
300.846
-674.447
373.601
343.433
-294.713
52.2258
310.848
-350.749
876.236
557.171
-105.775
-73.2007
-244.632
-400.638
325.034
75.6042
218.3
-346.128
334.419
-500.138
165.719
-242.428
43.314
-873.293
-73.5994
33.1462
-724.571
315.455
-184.899
796.386
-773.233
-23.1529
431.145
47.8952
-479.04
-685.637
610.696
74.941
-241.47
208.663
32.8067
321.552
-28.2236
-426.153
-254.894
875.21
-831.904
-43.306
-357.796
658.642
134.063
-531.485
-864.571
11.0928
-57.2467
-598.061
655.308
40.7935
-136.51
-140.1
-917.535
411.368
506.167
194.805
2.54789
450.638
-34.8319
543.446
267.877
-258.078
-9.79923
-335.208
-6.19703
341.405
-547.29
436.476
-8.51497
-196.589
205.104
233.256
-42.0464
-90.0108
350.182
-260.172
-356.735
6.93835
435.358
-10.2718
63.3784
-808.998
745.62
-664.307
664.307
47.5953
189.869
-87.262
-505.185
592.447
-854.47
938.102
-83.6315
741.115
55.2707
-14.152
-834.515
848.667
324.818
-342.309
17.4911
325.598
15.1079
-340.706
584.003
-636.981
52.9773
45.8183
303.972
-349.791
-213.484
-114.17
327.655
198.497
-9.31157
105.705
-710.18
604.474
-760.002
267.283
352.374
-311.761
793.74
59.7756
-77.4367
-433.618
343.478
-390.07
-680.817
100.787
580.03
309.79
-274.608
-35.1825
-531.759
613.991
-82.232
-82.0667
-363.042
445.109
410.024
-382.564
-597.422
-320.113
598.203
-724.651
126.448
-406.547
-427.261
837.854
-39.7637
-645.874
129.247
452.138
-581.384
563.57
-644.834
81.2633
31.8734
-233.649
11.1084
-693.011
-322.688
321.459
8.84552
570.599
-692.737
122.138
-344.515
-430.62
-4.82067
-684.391
698.257
-13.8653
763.078
-164.676
645.724
-103.029
-542.695
209.29
292.514
291.99
-298.44
6.44978
807.723
-935.887
128.164
-647.457
-96.1151
-288.347
16.7385
-328.108
87.6524
240.456
-56.7552
640.759
80.2221
-247.012
166.79
358.27
-336.151
-22.1192
-335.198
-255.928
-11.838
203.025
-24.5321
-176.302
230.89
133.569
-364.459
-272.316
320.187
-47.8706
587.46
-674.722
24.7308
289.022
-262.555
-65.5537
-288.039
-291.248
-711.347
540.68
170.667
-111.035
-154.384
-165.026
66.9571
-578.852
536.484
42.3686
576.956
-1098.08
-25.3144
-1015.52
-140.748
365.172
47.3559
-23.0297
-51.4058
-757.801
126.208
849.802
-843.026
617.41
-76.7303
1.86107
589.248
-591.109
-280.152
-166.882
447.034
-37.3351
-204.135
5.17818
200.82
-211.381
10.5612
-995.107
231.958
448.368
-113.949
19.7086
-628.014
608.306
298.253
-365.04
25.3598
339.68
58.9937
573.429
-632.423
-103.873
770.729
-666.856
-669.4
-195.585
-724.281
38.6694
685.611
-36.7432
566.935
-530.192
921.686
-913.395
-8.29047
560.487
-617.733
-611.189
-23.7242
634.914
-396.656
124.34
267.335
-262.832
-4.50301
801.171
-772.527
-96.1637
730.933
-634.769
460.493
10.1514
-434.216
-669.963
604.143
65.8196
398.963
-92.2662
-564.047
-48.0799
-11.5611
-399.843
-20.1817
206.955
-186.773
24.913
327.461
-361.048
364.842
-3.79355
744.925
-791.599
127.762
133.393
215.424
-227.507
12.0823
684.145
-775.309
91.164
-319.869
-673.894
-17.3923
794.582
73.97
291.209
120.539
810.701
-16.1194
-30.9912
-1030.38
175.69
3.94463
18.3079
-566.837
159.412
-139.421
-1081.55
-243.2
234.685
69.5739
225.321
-107.795
-467.14
574.934
-2.522
-477.548
480.07
838.933
-31.2103
570.108
75.6156
-34.2884
-205.518
239.806
739.027
-782.767
-147.376
378.266
-401.157
443.573
-42.4169
-679.244
723.266
-44.0213
279.423
-363.007
17.5169
395.318
-149.962
-245.356
174.36
-511.775
466.244
45.5302
5.13303
-462.111
460.129
1.98234
613.848
-596.045
30.7981
-158.848
589.994
-296.087
57.5246
441.133
41.7752
607.085
-648.861
-84.658
-141.092
189.103
19.5609
30.9556
-393.108
28.0682
-412.67
11.5132
251.91
-254.065
2.15429
711.265
-682.61
-485.694
84.577
401.117
-42.3185
626.517
-13.6575
-207.251
914.268
-141.786
-772.482
518.882
537.485
-1056.37
-287.045
-20.5046
291.652
4.15925
10.2626
275.302
-689.156
-1.87655
691.033
592.065
-749.041
-209.931
196.028
13.9031
-520.392
-30.1837
-639.073
1.67608
139.571
-137.672
-428.338
-109.062
189.284
15.1972
-632.116
616.919
-39.0644
-497.729
536.793
-252.558
298.377
-69.341
626.163
-726.828
753.175
-26.3462
217.739
-482.442
238.406
-257.869
19.4633
7.6237
-837.834
28.4756
236.359
-449.843
907.146
-916.726
9.57993
636.419
14.2017
-650.621
-55.01
-537.932
-807.249
840.448
115.542
-207.226
897.674
-78.2698
243.17
-16.2123
-60.3588
-715.975
776.334
-87.212
-597.179
-15.649
543.383
-667.816
20.3596
210.327
-231.787
21.4597
-238.633
3.09916
235.533
-559.146
533.527
25.619
-217.363
87.8351
64.5364
85.6831
-150.22
-880.25
314.743
20.8612
-335.604
54.9878
637.877
-692.865
-342.455
365.183
-22.7279
-646.98
-20.8364
-668.565
763.976
-896.529
127.45
769.079
-147.122
-169.177
-445.964
64.2938
-457.154
-615.129
259.178
-4.69237
-291.833
291.929
-0.0961286
177.525
-69.2939
-423.382
394.115
29.267
-954.874
972.029
-280.412
99.762
180.65
139.691
19.7212
521.678
853.774
-874.035
277.112
-36.7455
361.843
-506.733
-789.191
811.196
-22.0049
-346.422
-181.931
528.352
133.955
-176.822
42.8667
426.976
-523.318
742.74
-679.939
-62.8014
-260.24
-26.805
325.639
-74.8319
317.249
-292.518
333.007
-652.048
-17.9148
5.4889
633.509
-373.545
150.61
20.6569
-891.507
547.354
-391.086
608.145
368.508
423.915
9.00459
744.627
-804.986
-40.5013
-20.8786
827.283
70.3914
421.167
-499.898
78.7316
230.173
-188.172
-42.0006
-186.174
203.536
-17.362
-13.1778
344.195
-331.017
-617.154
658.929
433.564
248.678
-221.122
-27.5559
367.863
507.715
313.334
-335.089
705.347
106.71
75.9379
-599.449
523.511
639.873
-35.7295
36.3143
-930.322
113.852
816.471
218.919
-255.616
-253.081
-793.315
732.259
61.0555
5.2936
814.104
-819.398
927.49
-927.49
-378.589
17.5405
602.827
37.0452
-109.17
-19.1651
-193.084
212.249
437.661
27.9018
-465.563
-436.123
22.1897
413.933
186.396
972.167
-453.285
-232.421
41.1905
191.23
-627.051
630.869
-3.81808
423.315
-470.508
47.1934
-430.906
-5.21668
49.119
-763.913
714.794
-636.955
-60.762
-549.846
518.541
31.3047
-371.259
279.757
20.0029
-235.636
215.633
-151.665
-128.747
-29.4032
221.963
-32.8608
51.0088
289.945
-279.753
-71.8384
791.61
367.76
-53.0174
-769.104
33.0467
-890.029
814.423
75.6059
119.609
278.304
382.185
156.747
-753.452
858.589
331.522
185.421
-516.943
-166.047
594.456
-644.05
49.5941
477.499
54.6985
-532.198
633.979
-340.355
-293.624
-474.538
-115.563
-780.758
676.886
28.5185
-684.344
655.826
-711.346
108.518
602.828
-765.416
19.4681
27.0494
508.644
-87.4772
-515.48
354.239
549.39
-586.133
-35.4393
-68.2645
233.784
-165.52
41.7183
-680.401
-235.602
-237.521
169.257
-31.0707
263.83
-109.355
-154.475
154.768
-8.8673
-637.461
721.032
-25.4609
192.253
-166.793
869.87
-628.995
11.4777
135.369
184.621
1.0107
397.629
-398.64
-223.552
-194.015
417.567
180.939
763.529
379.937
-355.688
-842.176
7.50888
626.412
-609.867
-0.356522
-808.76
809.116
589.557
16.1077
-605.665
842.976
45.4849
-888.461
312.293
-12.7591
126.363
-406.515
426.174
9.18323
-255.548
335.374
-79.8258
196.479
381.821
-90.6119
611.48
-55.7315
-555.749
-755.318
780.352
-25.0345
12.9499
644.535
-657.485
-645.317
113.559
-7.33678
-442.527
602.657
34.5966
323.674
-31.1368
191.508
-92.4023
-337.219
2.0107
95.969
742.964
4.13058
-278.465
274.334
-424.332
-504.845
-57.4519
-757.748
815.2
257.376
-45.5969
192.793
-260.44
67.647
199.159
-95.3857
-223.861
-516.877
-581.322
-791.916
-18.2681
-170.061
-815.759
776.446
39.3127
-34.5554
469.911
-435.355
59.7822
821.339
-881.122
200.327
-135.791
774.277
26.5261
-218.739
199.574
20.7166
-307.928
287.211
575.731
-573.87
-646.923
138.65
508.272
-554.22
589.024
-34.8036
32.9898
259
-665.186
-441.803
608.544
45.8265
-654.371
-721.932
606.761
-679.216
72.4551
-155.367
-40.0954
450.131
-484.372
-846.302
851.596
105.137
-307.696
-588.833
-642.467
593.3
49.1673
184.114
-78.5353
-43.9198
457.51
176.469
-568.795
55.196
514.214
-527.414
13.2006
73.088
-717.676
644.588
268.481
-16.5709
-315.093
167.027
148.066
-568.151
584.916
-130.965
466.153
-335.188
681.433
-86.977
1.54086
-318.803
317.263
-446.83
-442.78
889.61
-146.072
243.451
-97.3795
-101.062
-579.755
-566.375
413.133
153.243
401.155
-34.4141
-366.741
2.17092
153.474
-254.511
351.906
-97.3948