/*--------------------------------*- C++ -*----------------------------------*\
  =========                 |
  \\      /  F ield         | OpenFOAM: The Open Source CFD Toolbox
   \\    /   O peration     | Website:  https://openfoam.org
    \\  /    A nd           | Version:  7
     \\/     M anipulation  |
\*---------------------------------------------------------------------------*/
FoamFile
{
    version     2.0;
    format      ascii;
    class       volVectorField;
    location    "9";
    object      U;
}
// * * * * * * * * * * * * * * * * * * * * * * * * * * * * * * * * * * * * * //

dimensions      [0 1 -1 0 0 0 0];

internalField   nonuniform List<vector> 
29540
(
(1.00629 -0.0085069 6.61726e-23)
(1.00769 0.00282117 2.67822e-22)
(0.994457 -0.00198428 -3.98749e-22)
(0.980783 -0.0282488 1.31213e-22)
(0.998525 -3.10948e-05 5.55176e-23)
(0.974313 -0.017027 -1.96448e-22)
(1.02975 -0.0537418 1.28241e-22)
(1.0081 -0.0130163 -6.71228e-24)
(1.00122 -0.00118116 9.0892e-24)
(1.00011 -2.98888e-05 2.46918e-24)
(1.0088 -0.0174427 7.38973e-25)
(0.998521 -0.0099485 -1.33517e-22)
(0.999709 -0.000119391 7.44064e-24)
(0.999981 -6.37821e-06 1.86409e-25)
(1.12795 0.0595178 7.80181e-22)
(0.99635 -0.00117078 6.03754e-23)
(0.999899 -0.000514249 -3.08247e-24)
(1.09538 -0.0175289 -6.70223e-23)
(0.998712 -0.00108988 -1.89372e-23)
(0.993447 -0.000483979 -8.88239e-23)
(0.99948 -0.000164439 -2.57143e-23)
(1.00115 -0.00118091 3.19565e-23)
(0.994399 -0.00210139 4.40555e-22)
(0.998709 -0.000101419 2.44911e-23)
(0.910412 0.0879127 1.13198e-22)
(1.00827 0.00223863 1.43739e-21)
(0.999686 -3.51013e-05 1.69819e-23)
(0.954479 0.0736549 -7.73303e-21)
(1.13239 0.0587887 -2.09286e-21)
(0.999468 -0.00548959 -2.58431e-23)
(1.00936 -0.00696555 4.58908e-23)
(1.02424 -0.0057916 -3.3551e-22)
(0.980589 -0.0649044 1.24778e-21)
(0.998469 -0.0138086 6.46668e-23)
(0.952709 0.0700163 6.20796e-21)
(1.0012 -0.0198476 1.60854e-22)
(1.05186 0.0296875 -4.70875e-22)
(0.983019 -0.0159949 5.26679e-22)
(1.00328 -0.000502942 -1.2284e-22)
(1.00315 -0.000324378 2.32545e-22)
(1.00026 -0.000104644 -7.39503e-24)
(0.992657 -0.0179021 -4.7852e-22)
(0.999912 -0.000499625 -5.19616e-26)
(1.01144 -0.0450215 -5.92293e-22)
(1.00002 -3.12871e-06 -5.27962e-25)
(0.999569 -0.00557396 1.99468e-23)
(0.998368 -0.00739543 -3.7032e-23)
(1.00005 -5.17817e-05 1.33088e-24)
(1.00199 -0.00223185 -1.296e-22)
(1.05138 0.027647 -1.93213e-22)
(1.06492 -0.0718096 8.4189e-23)
(0.983001 -0.0250602 -5.96942e-22)
(1.0241 -0.0051369 1.17581e-22)
(0.9751 -0.0169383 -3.22951e-22)
(0.996438 -0.00120578 -5.30794e-23)
(1.13438 0.0491348 -1.27954e-21)
(0.997958 -0.00135066 1.86547e-23)
(0.999465 -0.000181976 3.25623e-23)
(0.999606 -0.0130848 -8.63772e-23)
(1.0036 -0.0356197 -2.92969e-22)
(0.99996 -4.79543e-06 4.49044e-25)
(0.998755 -0.0011149 -3.89359e-24)
(1.19183 -0.0282162 1.73993e-22)
(1.00147 -0.0194232 -8.57423e-23)
(1.05231 0.0809518 3.8167e-21)
(0.929975 0.0239594 1.52005e-20)
(0.998793 -0.0164152 -1.69503e-22)
(0.995525 -0.00821901 1.78701e-22)
(0.94662 0.0152904 6.0997e-21)
(1.00028 -0.000100363 4.79015e-24)
(1.00927 0.00279535 -1.9599e-21)
(0.98892 0.0594325 4.30895e-21)
(1.00188 -0.0055457 -5.33156e-23)
(0.926431 0.102463 4.26486e-21)
(0.995185 -0.000380535 2.80003e-22)
(1.07289 -0.0449491 8.19645e-23)
(1.19454 0.100562 2.68002e-21)
(0.983935 -0.00909407 1.26863e-22)
(0.99997 -1.36889e-05 -1.26451e-24)
(1.00039 -0.0290801 -3.01472e-22)
(0.975627 -0.000403424 -2.15835e-22)
(1.01694 0.0278873 1.13999e-21)
(1.00644 -0.00888882 -1.99956e-22)
(1 -3.75968e-05 -8.99304e-26)
(1.03145 -0.0528955 -1.8503e-22)
(1.10839 -0.142809 -7.88279e-22)
(1.02978 0.0705308 -7.07974e-21)
(0.999698 -0.000117722 -6.73665e-24)
(0.999718 -0.000106111 -1.97598e-24)
(0.962691 -0.0210743 -8.65599e-22)
(0.994302 -0.0310238 6.18343e-22)
(0.983857 -0.00952977 1.4193e-22)
(1.00187 -0.00231228 2.23553e-23)
(1.03856 -0.0102034 -1.99203e-22)
(0.960009 -0.00895952 -7.12179e-22)
(1.03858 0.0866621 3.5715e-21)
(0.994292 -0.0401151 9.95217e-22)
(1.00029 -0.000232664 1.20991e-23)
(0.980505 -0.0353916 -1.12845e-21)
(1.12479 0.0820713 3.64688e-21)
(0.999968 -1.35092e-05 1.84841e-24)
(0.984755 -0.00596144 -7.55451e-22)
(0.999961 -5.92997e-06 -2.31601e-25)
(1.02916 -0.0147963 -1.01332e-21)
(0.982244 -0.0249103 4.02455e-22)
(1.02564 0.0076173 2.053e-21)
(1.0026 0.0552532 6.59762e-21)
(0.99973 -0.00010738 -1.66916e-23)
(0.999997 -4.16563e-05 -1.06646e-26)
(0.98943 -0.064247 -5.50643e-23)
(0.979666 -0.0639104 -1.12201e-21)
(1.02446 -0.0282666 1.0397e-22)
(1.00001 -1.09359e-06 9.71373e-26)
(0.999288 -0.00370737 -6.82228e-23)
(0.999933 -0.00133117 2.44791e-24)
(0.991456 0.0607857 2.13607e-23)
(1.03287 0.0405951 -2.47464e-21)
(0.99298 -0.00425512 -3.02569e-22)
(1.00002 -4.13194e-05 1.51867e-25)
(1.00208 -0.00548031 -4.01352e-23)
(1.1887 -0.102719 1.62197e-21)
(1.00554 0.00887948 3.13654e-21)
(1.10757 -0.0681635 -1.64891e-22)
(0.928651 0.0293448 -1.44242e-20)
(1.00066 -0.000216118 -2.99773e-23)
(1.10734 -0.0502864 -1.17953e-22)
(1.09486 -0.0141002 -3.60161e-22)
(1.00646 -0.0348418 2.04887e-22)
(1.00241 -0.00213503 -1.14815e-22)
(1.00001 -0.000264712 4.30239e-25)
(1.01143 -0.0438467 2.06518e-22)
(1.19769 0.0940855 1.39936e-21)
(1.00456 0.11148 8.30318e-21)
(1.10579 -0.0824437 -1.19792e-22)
(1.02807 -0.0144593 8.53835e-22)
(1.00909 -0.00661095 8.66447e-22)
(1.06477 0.145869 6.11129e-22)
(0.984151 -0.000428861 1.11874e-21)
(1.03646 -0.133372 2.69879e-21)
(1.12569 0.0770018 -2.76591e-21)
(1.10785 -0.046137 1.48684e-22)
(0.966854 -0.0026888 -9.27997e-22)
(0.971472 -0.0234799 2.6066e-22)
(1.00001 -9.80163e-07 -4.07307e-26)
(0.999993 -1.83278e-06 9.00711e-26)
(0.998488 -5.09478e-05 -4.39996e-23)
(0.998483 -0.00725481 7.60043e-23)
(0.98519 -0.0504046 -8.57629e-22)
(1.05187 -0.110923 1.08478e-21)
(1.23154 0.0180065 9.97852e-22)
(1.01877 -0.0131503 4.51661e-22)
(1.01047 -0.0127183 1.52031e-22)
(1.00026 -0.00037377 1.87988e-23)
(0.99992 -0.000133502 1.80281e-24)
(1.00182 0.0257789 -6.7959e-21)
(1.00032 -0.000931789 2.16002e-24)
(0.995893 -0.0067049 2.62842e-25)
(1.07772 0.147813 -1.80409e-21)
(1.00471 0.0380582 -7.26648e-21)
(1.06741 -0.0703085 -1.1828e-22)
(0.976711 -0.00152187 3.7544e-22)
(0.981388 -0.0277522 9.09973e-22)
(1.1356 0.0535861 3.36973e-22)
(0.99997 -2.77847e-05 3.94767e-25)
(0.999993 -1.72435e-06 -3.38872e-26)
(0.99295 -0.00447661 1.07402e-22)
(0.972155 -0.0230521 -1.41568e-21)
(1.00003 -0.000136859 -1.40405e-24)
(1 -3.98765e-05 -7.27754e-26)
(0.995933 -0.00303205 -3.49609e-23)
(1.00002 -0.000256893 -3.57863e-25)
(1.00342 -0.00364741 -6.4759e-23)
(1.07395 0.15104 2.12567e-21)
(0.984377 -0.000214859 -9.21696e-22)
(1.01361 -0.0713433 -2.72893e-22)
(0.996978 -5.79722e-05 1.79727e-22)
(1.00127 -0.00164014 6.76044e-24)
(0.984348 -0.00584766 1.27843e-21)
(0.999465 -0.00370474 -6.07972e-24)
(1.11435 -0.062669 -3.9499e-23)
(0.999987 -5.93761e-06 5.9828e-25)
(1.00632 -0.0240307 -7.60242e-23)
(1.03173 0.0720571 2.53548e-21)
(0.995728 -0.00762506 -1.08842e-23)
(1.03441 -0.129652 -2.4936e-21)
(1.025 0.0345462 -2.17077e-21)
(0.996239 -0.00167568 -2.60056e-22)
(0.989244 -0.008798 3.30059e-22)
(1.0023 -0.00213858 1.75069e-22)
(0.999478 -0.00511724 -3.57446e-23)
(0.999832 -4.63952e-06 1.90621e-24)
(1.0033 -0.0110463 3.95283e-23)
(0.924766 0.0146291 6.00266e-21)
(1.00145 0.023163 5.23044e-21)
(0.991538 -0.00357391 8.81844e-24)
(0.996077 -0.0066107 -1.10822e-22)
(0.980001 0.0326946 -5.75132e-21)
(1.01118 0.0219114 9.77645e-22)
(0.960778 -0.00887781 8.70935e-22)
(1.00069 -0.000301731 -2.3525e-23)
(1.0336 -0.0679612 3.3389e-22)
(0.978448 -0.0463603 1.14122e-21)
(0.998673 -0.0101726 6.45167e-23)
(1.00051 -0.000641428 -3.77809e-23)
(1.06749 0.149668 8.83659e-22)
(0.996065 -0.00304393 -2.37685e-23)
(1.00405 -0.00329442 -7.19841e-23)
(0.984402 -0.0499137 1.13461e-21)
(0.989206 -0.065576 1.42078e-22)
(0.999978 -3.11526e-06 1.48534e-25)
(0.981365 0.0885354 -7.21219e-21)
(0.999382 -1.45582e-05 -4.219e-25)
(1 -3.21973e-05 -1.72422e-26)
(0.999674 -0.000124379 2.87044e-24)
(0.995901 -0.0314214 -2.2587e-22)
(1.1882 -0.00505697 -8.336e-22)
(1.00694 -0.0236238 1.56883e-23)
(1.00391 -0.00306953 -4.94459e-23)
(0.998723 -0.000142106 6.07015e-23)
(0.961419 -0.00991744 -1.51879e-22)
(1.00002 -0.000282618 -3.36372e-25)
(1.00028 -0.000952226 2.12288e-25)
(0.998623 -0.000118973 -4.0066e-23)
(1.01867 0.000225395 1.8995e-21)
(0.998414 -0.00234081 -1.238e-23)
(0.99931 -0.00345002 2.02596e-23)
(1.01773 -0.00118485 9.45836e-22)
(1.00008 -0.00023308 2.02349e-24)
(1.00002 -2.54352e-06 1.36869e-25)
(1.003 -0.000360331 2.56537e-23)
(0.985085 -0.0183705 -4.64411e-22)
(0.986037 -0.000232361 -4.42672e-22)
(0.997164 -0.000220456 -1.9163e-22)
(1.00995 0.00213559 1.62363e-21)
(0.990808 -0.000653305 2.09542e-22)
(1.0107 -0.0123495 -1.45319e-22)
(0.999981 -7.15609e-06 5.26856e-25)
(0.998245 -0.00154093 -7.22196e-23)
(1.00048 -0.00063401 4.08998e-23)
(1.03404 -0.0656828 3.22529e-22)
(1.00321 -0.109607 1.99405e-21)
(0.999178 -7.33352e-05 3.13905e-23)
(1.00027 -0.000334507 -1.45017e-23)
(0.999257 -0.0033601 -6.9739e-24)
(1.00204 -0.00487192 -9.84848e-23)
(0.993583 -0.000357063 -3.76933e-22)
(0.999971 -2.61926e-05 -2.815e-26)
(1.10751 -0.138078 -1.7163e-21)
(1.00003 -0.000290153 4.70337e-25)
(1.01847 0.00019865 -1.33726e-21)
(0.998023 -0.00135647 -3.76447e-23)
(1.00009 -0.000224476 8.28251e-25)
(1.02495 0.00798073 -1.30535e-21)
(0.976095 -0.0439993 -1.22149e-21)
(1.00015 -2.59054e-05 8.0159e-24)
(1 -7.21641e-06 3.98746e-28)
(0.966772 -0.00192603 -1.0592e-21)
(0.999168 -0.0995814 -3.06984e-22)
(0.994873 -0.00480137 -2.81636e-23)
(1.00573 -0.0354647 -5.46799e-23)
(1.01928 -0.0136823 -7.41821e-23)
(1.03631 0.0697014 3.12996e-22)
(1.00005 -4.8918e-05 3.64263e-25)
(0.985382 -0.0180194 4.4239e-22)
(1.14925 -0.0863301 4.67767e-22)
(0.966802 0.0464803 1.42975e-22)
(0.995694 -0.00744537 8.44225e-23)
(1.02407 0.0332686 2.63713e-21)
(1.07376 -0.0421059 6.9112e-23)
(0.999908 -0.0014631 -2.11394e-24)
(0.859133 0.0413192 8.89689e-21)
(0.999677 -0.000261029 -1.93722e-23)
(1.01252 -0.0730337 -3.73941e-22)
(0.962016 -0.0099313 1.05212e-21)
(1.00135 -0.00155132 -3.71328e-23)
(1.14788 -0.0329617 5.79352e-22)
(0.994942 -0.000550752 -2.23585e-22)
(1.00666 0.121059 5.74801e-21)
(0.997935 -0.000158699 1.72404e-23)
(0.989511 -0.00948989 -1.72203e-23)
(0.999872 -0.00132995 -1.5307e-23)
(1.10986 0.112754 8.50837e-22)
(0.99979 -0.0103455 1.57328e-23)
(1.0358 0.087377 2.18282e-22)
(0.999695 -2.61381e-05 -7.45213e-24)
(0.996534 -0.00111898 -8.34289e-23)
(0.967372 0.109607 -3.70579e-21)
(1.02165 -0.000524457 -1.59076e-21)
(1.01762 -0.000726748 1.09769e-21)
(0.982074 -0.0230368 1.12183e-21)
(0.999908 -1.98159e-05 1.89955e-24)
(1.00199 -0.004676 -1.1484e-23)
(0.999901 -0.000562174 -5.41439e-24)
(1 -3.04507e-05 -5.75235e-27)
(1.03978 0.000617168 4.54592e-22)
(1.00003 -3.1604e-06 1.29778e-26)
(0.988205 -0.00839181 7.79763e-22)
(1.14465 -0.0858294 -4.53748e-22)
(0.908428 0.0918979 -8.88608e-21)
(1.00733 0.111824 -1.27789e-20)
(0.978787 -0.0384699 3.78178e-22)
(0.99116 -0.0173455 2.67179e-22)
(0.986704 -0.000879925 2.11265e-22)
(1.01948 -0.0253517 3.22045e-22)
(1.00368 -0.0109042 -6.32538e-23)
(0.989156 -0.00921047 -4.5583e-22)
(0.978649 -0.0421556 1.64439e-22)
(1.03499 0.0717935 -4.77789e-21)
(0.999381 0.0253984 9.37156e-21)
(0.999232 -8.93494e-05 1.73149e-23)
(1.00398 0.0559065 -9.10013e-21)
(1.03893 -0.000347045 1.58787e-22)
(1.11227 -0.0677108 5.33396e-23)
(1.00818 -0.0100216 6.85263e-23)
(1.00041 -0.00958836 -6.35743e-23)
(1.01089 -0.0334208 -1.0817e-22)
(0.996785 -0.00108185 -1.96925e-22)
(0.998408 -0.000394027 -1.28573e-23)
(0.999964 -4.82996e-06 2.37129e-24)
(0.999372 -0.00523649 5.29723e-23)
(1.05945 -0.0394735 5.18072e-23)
(1.11092 0.117514 -1.41779e-21)
(1.00096 -0.000820504 1.76001e-23)
(0.983676 -0.0150118 -6.29999e-22)
(1.00929 -0.0103674 -2.17528e-22)
(0.999976 -1.01089e-05 -2.03567e-25)
(0.97872 -0.0402491 -5.97103e-22)
(0.888668 0.0713155 -3.9601e-21)
(0.996271 -0.00286126 2.91848e-22)
(0.99931 -0.00275079 1.79427e-23)
(1.00853 -0.00995535 -4.23716e-23)
(1.0003 -0.0282212 3.79568e-22)
(1.06664 0.0167938 5.82331e-22)
(0.999628 -0.00594463 -9.50525e-24)
(0.999981 -3.18179e-05 1.23855e-24)
(1.00001 -1.48151e-06 4.93089e-26)
(0.998387 -0.000358337 -1.42792e-23)
(0.965654 0.108705 5.3581e-21)
(1.03064 -0.022081 2.25098e-22)
(1.00588 -0.109836 -5.34251e-22)
(1 -7.26873e-06 -3.16547e-27)
(0.99691 -0.101019 2.04489e-22)
(1.05673 -0.0081855 -6.91356e-22)
(0.996907 -9.66772e-05 -9.06301e-23)
(0.963466 -0.0036264 -1.29716e-21)
(0.999361 -0.00270373 -1.78252e-23)
(0.999736 -0.000119807 -1.21682e-24)
(0.985913 -0.0163222 -1.34297e-22)
(1.00056 -0.000701016 -1.82249e-23)
(1.11886 -0.0620007 6.59926e-23)
(1.00569 -0.000750528 -5.13346e-22)
(1.18274 0.0643452 -1.21841e-21)
(0.999922 -0.00144396 2.75396e-24)
(1.00246 -0.00859889 2.00713e-23)
(1.00529 0.0078503 -4.24903e-21)
(1.18378 -0.0980281 -5.85957e-22)
(1.00025 -0.000351193 -1.10625e-23)
(1.00027 -0.000312933 1.09447e-24)
(0.994137 0.073404 4.50108e-22)
(0.994854 -0.0316767 -1.25434e-22)
(0.999534 -0.00585112 1.1593e-23)
(1.01041 0.0245738 5.13753e-22)
(0.973365 0.0165152 1.12407e-20)
(1.06401 -0.0749286 -2.85896e-22)
(0.998837 -0.0158301 -5.36052e-23)
(1.18437 -0.00216085 8.27965e-22)
(0.999535 -4.31859e-05 -1.29738e-23)
(0.994767 -0.00251247 7.97598e-23)
(0.997977 -0.000165055 -4.90311e-23)
(1.01211 0.0206538 5.18737e-24)
(0.999991 -0.000462885 1.05626e-25)
(1.00551 -0.000889596 5.24613e-22)
(1.06829 -0.113592 2.8124e-23)
(1.00243 0.104792 1.27799e-20)
(0.929072 0.105959 -1.97772e-21)
(0.996352 -0.00166962 9.91189e-24)
(0.99473 -0.00469368 8.46874e-23)
(1.05002 0.0836715 -3.05542e-21)
(1.00367 -0.0367093 4.2148e-22)
(0.999965 -5.52643e-06 -2.31352e-24)
(1.22295 0.0548158 2.14141e-21)
(1.01843 0.000671602 -5.68405e-22)
(1.01805 0.000784092 -3.83749e-22)
(0.996373 -0.00814876 -1.18667e-22)
(1.01188 -0.00149412 -7.98654e-22)
(0.958393 0.0965905 1.80091e-21)
(1.04606 -0.114589 -3.34222e-22)
(0.983405 0.0955061 1.93232e-21)
(0.995567 0.0944075 -3.30857e-21)
(0.999998 -3.98729e-05 3.37089e-26)
(1.05745 -0.0382403 -1.41707e-22)
(1.04817 -0.111702 2.11406e-22)
(0.998339 -0.00235906 3.27114e-23)
(1.00099 -0.000889796 -2.89893e-23)
(0.969409 0.0190762 2.68702e-21)
(1.03174 -0.0227914 -2.93312e-22)
(1.00018 -4.5871e-05 1.80528e-24)
(0.986423 -0.0350016 -1.30335e-21)
(0.977833 -0.0474574 -5.38601e-22)
(0.996608 -0.00115211 1.17279e-22)
(0.999926 -0.00012973 -2.27044e-24)
(1.04578 0.104923 -5.29533e-22)
(1.03256 0.0389854 4.1644e-21)
(1.00003 -0.000315531 -9.11764e-26)
(1.00252 -0.00228873 2.25557e-23)
(1.00323 -0.00228172 1.22e-22)
(1.10735 -0.107492 1.01513e-21)
(0.982138 -0.0224248 -9.95647e-22)
(1.00004 -0.000372919 -1.02579e-24)
(0.999991 -1.01502e-06 -5.38187e-26)
(1.00031 -0.000107948 2.81548e-24)
(1.0655 0.0181311 -5.71656e-23)
(0.983039 -0.0154221 -5.0527e-22)
(1.00232 0.0449409 2.08327e-21)
(0.967556 -0.0255691 6.46232e-22)
(0.991628 -0.0172893 -2.80819e-22)
(0.985654 -0.000690987 -8.92084e-22)
(1.01156 0.0235502 -2.52851e-21)
(1.18456 -0.02567 2.25839e-23)
(0.999256 -9.52174e-05 3.17125e-23)
(1.00487 -0.0037794 -1.3025e-22)
(1.00052 -0.00069569 2.06718e-23)
(0.982488 0.105633 -5.02405e-21)
(0.98429 -0.0140544 2.70879e-22)
(1.00067 -0.00017657 -9.7835e-24)
(0.995388 -0.00223956 -1.06591e-22)
(1.11262 -0.0436055 3.36472e-22)
(0.999663 -0.00638789 -2.36837e-23)
(0.992834 -0.0076675 -5.83746e-23)
(1.00015 -8.93184e-05 -5.56816e-24)
(1.00015 -3.2597e-05 -2.46112e-25)
(0.885683 0.0762809 6.22452e-21)
(0.994968 -0.000820632 -1.39197e-22)
(0.997028 -0.00296768 1.18317e-22)
(0.999759 -0.00117415 -1.35802e-23)
(0.999547 -3.2507e-05 -1.77492e-24)
(1.04195 0.0675169 -1.60943e-21)
(1.07169 -0.116557 7.74044e-23)
(0.989592 -0.0257156 1.64798e-22)
(1.00001 -1.26062e-06 -4.89732e-26)
(1 -2.43781e-05 -4.71251e-27)
(0.983691 -0.0145102 7.12994e-22)
(0.99583 -0.00119648 2.82841e-23)
(0.996807 -0.00137168 -1.61267e-23)
(1.0091 -0.00343792 2.49696e-22)
(1.0036 -0.00150967 4.39316e-23)
(0.999937 -0.0106157 -2.73318e-23)
(1.09021 -0.029093 7.7966e-22)
(0.988716 -0.00268751 -1.77321e-22)
(0.98502 0.0934472 -1.57131e-21)
(1.0083 -0.0173604 -6.71076e-23)
(1.00016 -8.96492e-05 6.18298e-24)
(0.978415 -0.0376983 5.74792e-23)
(0.988855 -0.0226945 -5.86753e-22)
(1.14081 -0.0256505 4.34545e-22)
(0.998167 -0.0038908 -3.46844e-23)
(0.99132 -0.0303344 -2.00057e-22)
(0.999986 -3.44299e-06 3.31484e-25)
(0.939895 0.0764315 -6.13399e-21)
(1.00984 -0.00145153 4.49778e-22)
(1.00005 -0.000152388 -2.08924e-24)
(0.924766 0.0200868 -7.73984e-21)
(0.988972 -0.0258002 3.85917e-22)
(0.999986 -4.03351e-06 5.37595e-26)
(1.00091 -0.000809823 8.53772e-24)
(0.978273 -0.0393945 -3.35466e-22)
(1.02359 -0.027193 1.05016e-22)
(1.03295 -0.0113161 5.74576e-22)
(0.999994 -1.84861e-06 7.18685e-26)
(0.994957 -0.000413603 1.10894e-22)
(1.01155 -0.0327736 1.57858e-22)
(0.996702 -0.00105698 1.6255e-22)
(0.999707 -3.03988e-05 -4.02912e-23)
(0.994866 -0.00259621 2.50212e-24)
(0.977361 0.0335787 6.73081e-22)
(0.995451 -0.00796856 -1.50352e-22)
(0.993128 -0.00751952 4.29978e-23)
(1.00249 0.028644 -2.09791e-21)
(0.998284 -0.00145496 3.7963e-23)
(0.977659 0.107234 -6.46692e-22)
(0.999985 -4.02581e-06 -1.6987e-25)
(0.992884 -0.017481 1.11738e-22)
(0.984548 -0.0476114 1.24168e-21)
(0.991864 -0.030609 3.36851e-22)
(1.13561 -0.0930131 1.68976e-22)
(0.999234 -0.00360028 4.57696e-23)
(1.00528 -0.0159933 3.41565e-23)
(0.999953 -0.00155328 6.9178e-25)
(0.989175 -0.0134056 -3.41106e-22)
(1.02418 -0.0295646 3.99591e-23)
(0.999977 -9.62779e-06 1.02515e-24)
(1.00001 -7.50347e-07 -8.65375e-26)
(0.996046 -0.000265305 7.53341e-23)
(0.982873 0.0641655 4.43017e-21)
(1.00772 -0.013432 2.69451e-22)
(1.00162 -0.00231392 -3.61061e-23)
(0.960612 -0.0185127 9.325e-22)
(1 -6.47178e-06 -1.07505e-26)
(1.00062 -0.000764028 -3.30245e-23)
(0.999976 -0.000441229 -4.58411e-25)
(1.00871 -0.0129518 2.92293e-22)
(0.98945 -0.00990759 6.0446e-23)
(0.999758 -0.000185815 5.05693e-24)
(0.995724 -0.00712613 5.47737e-23)
(0.992284 -0.0044235 -6.35994e-23)
(1.00064 -0.000104522 -2.69415e-24)
(0.999985 -4.7084e-06 -1.06707e-25)
(1.16285 -0.0656311 -2.05967e-22)
(0.999783 -0.00115625 1.45145e-23)
(1.05428 -0.011407 5.36854e-22)
(1.01553 0.101878 1.24095e-20)
(1.04571 0.0827145 -2.7963e-21)
(0.999934 -0.0134373 -1.01261e-22)
(1.0035 -0.00134739 -1.4568e-23)
(1.01207 -0.00117592 4.88973e-22)
(0.999981 -0.00159055 -7.85656e-25)
(0.99849 -0.00675669 5.45849e-23)
(1 -1.09973e-05 -6.30907e-27)
(0.993228 0.0947402 -2.49416e-22)
(0.992201 -0.0100543 8.26703e-23)
(1.00885 -0.00312701 -1.7825e-22)
(0.988974 -0.00279434 3.6333e-22)
(1.00217 -0.00843299 1.93471e-24)
(0.998278 -0.00383361 7.53634e-23)
(0.999933 -0.000132874 5.1906e-25)
(1.00001 -5.37074e-07 -4.51387e-25)
(0.99713 -0.00295622 -8.60737e-23)
(1.03855 -0.0114766 -3.21903e-22)
(1.00522 0.0397487 3.34737e-22)
(1.00077 -0.000315961 -3.99727e-23)
(0.981464 -0.0355457 -2.95601e-22)
(0.98428 -0.0136253 -1.22753e-22)
(0.995074 -0.000330072 -4.16169e-22)
(1.22363 0.0174938 -6.28749e-22)
(0.99918 -0.000630655 -1.89175e-23)
(1.00213 -0.00955276 -5.87404e-23)
(0.996554 -0.00180086 8.15943e-23)
(0.999939 -0.000128253 4.45289e-25)
(0.978155 -0.0411922 3.75006e-22)
(1.00273 0.0418722 -3.26429e-21)
(1.02455 0.0300025 -2.71941e-21)
(0.98591 -0.00920662 -5.87121e-23)
(1.00197 0.0405845 -1.44617e-22)
(1.00005 -0.000142857 4.07626e-24)
(1.00001 -1.01399e-06 1.41066e-25)
(1.21652 0.0521612 -8.36704e-22)
(1.14685 -0.0277497 -3.38909e-22)
(0.927135 0.0779087 -3.03149e-22)
(0.994017 -0.0516975 8.7622e-22)
(0.985799 -0.000951428 -2.73049e-22)
(1.11286 -0.0387578 -4.61728e-22)
(1.00074 -0.000335236 4.52598e-23)
(0.996425 -0.0024283 4.68612e-23)
(1.00029 -0.00011632 -2.68382e-24)
(0.993313 -0.000460977 -9.171e-23)
(0.992506 -0.00823816 -1.21528e-22)
(0.999997 -2.1767e-05 -1.11772e-25)
(0.999438 -2.23747e-05 7.4108e-24)
(1.00206 0.102207 -1.16341e-20)
(0.999916 -0.000458887 5.01672e-24)
(0.946564 0.0701671 7.39717e-21)
(1 -1.04634e-05 4.70099e-27)
(1.21182 -0.0587467 -2.0945e-22)
(1.05414 -0.0129602 -1.14439e-21)
(1.09055 -0.0262443 -8.59767e-22)
(1.00066 -0.000324279 2.72561e-24)
(1.00012 -2.76709e-05 4.95812e-24)
(0.986218 0.0599905 -6.60683e-21)
(1.05663 -0.0100041 2.26298e-21)
(0.984048 -0.0483922 -1.14417e-21)
(1.01769 0.0295084 1.23215e-21)
(0.99819 -0.0135145 4.61167e-23)
(0.991624 -0.00336361 -9.35522e-23)
(0.997442 -0.000144605 -4.96535e-23)
(1.12019 0.144658 -6.62731e-21)
(0.98476 -0.0163474 4.33682e-22)
(1.01995 -0.0243718 -2.12329e-22)
(0.995893 -0.00707763 -3.12213e-23)
(1 -6.41513e-06 -1.01581e-27)
(0.999187 -0.000593779 -1.60555e-23)
(1.00376 -0.00394217 7.73125e-23)
(0.988554 -0.00495422 4.70096e-22)
(0.986265 -0.00929395 8.71088e-23)
(0.972997 -0.0235611 -1.37524e-22)
(0.988435 -0.005256 -3.55669e-22)
(1.01418 0.00187573 2.21415e-22)
(0.998656 -8.86688e-05 1.00416e-24)
(0.963467 -0.0213851 4.8314e-22)
(0.991219 -0.00057115 -1.30026e-22)
(1.00002 -0.00013842 7.11937e-25)
(0.992321 -0.000457718 -9.05176e-23)
(1.02008 -0.0263152 -3.55278e-22)
(1.0136 0.0020431 -1.22345e-21)
(0.983553 -0.0163656 -1.09183e-22)
(0.999989 -5.03482e-07 -1.46386e-27)
(0.988971 -0.0101051 9.06594e-23)
(1.00113 -0.00969668 3.8467e-24)
(1.00088 -0.000757975 1.09453e-23)
(1.05818 -0.122288 -9.34151e-22)
(1.00188 0.0422699 -7.57148e-21)
(1.00058 -0.000755956 3.06665e-23)
(0.992448 -0.000342443 1.35143e-24)
(1.05819 -0.0726654 2.82774e-24)
(1.01887 8.18844e-05 1.90975e-21)
(0.988637 0.0277037 -7.14034e-22)
(1.00117 -0.00161522 9.77472e-24)
(0.999788 -0.013988 3.18404e-23)
(1.0891 0.101449 -9.62871e-22)
(1.01289 0.0183721 -6.30025e-21)
(0.993537 -0.0174717 2.95047e-22)
(1.00305 -0.0022967 -1.36562e-23)
(0.969981 -0.0276179 6.51293e-22)
(0.999998 -3.00368e-06 2.40844e-26)
(0.970724 -0.0011949 -4.89097e-22)
(1.00005 -4.55664e-05 7.28353e-25)
(1.05604 -0.0724496 -7.35139e-22)
(0.999979 -2.16182e-06 -1.14776e-25)
(1.00002 -4.0485e-05 4.90745e-25)
(0.999413 -0.0155866 -3.79508e-23)
(1.19715 -0.0232285 -3.49811e-22)
(1.02917 0.132152 5.52365e-21)
(1.02221 -0.0273569 -5.57352e-22)
(1.00886 -0.0104393 1.44928e-22)
(1 -2.09588e-06 -4.85173e-27)
(0.996135 -0.00287931 -1.57989e-22)
(1.00006 -1.31838e-05 -5.3108e-25)
(0.998009 -0.00155263 5.41895e-23)
(1.00002 -3.76629e-05 -3.81996e-25)
(1.0333 -0.0099662 -1.79169e-21)
(0.999701 -0.000307247 -1.98716e-23)
(1.04576 0.0401964 2.76926e-21)
(0.999921 -0.00014276 -3.57958e-24)
(0.991929 -0.00329179 -1.58003e-22)
(0.975127 -0.000643979 1.07572e-21)
(0.997312 -0.000186835 -6.37766e-23)
(0.983344 0.0351041 6.87375e-21)
(0.989265 -0.000456028 2.56009e-22)
(1.00611 -0.0685258 6.5394e-23)
(0.996517 -0.00254663 2.42099e-22)
(1.01735 -0.00200684 -4.04006e-22)
(0.9799 -0.0358742 1.35044e-21)
(1.013 -0.00105109 -1.35788e-21)
(1.02051 -0.0502984 -2.25611e-23)
(0.99999 -6.91802e-07 1.44396e-26)
(0.999128 -0.0131804 3.57009e-23)
(0.997485 -0.000190728 7.77248e-24)
(1.00016 -6.09796e-05 3.69062e-24)
(1.00006 -1.10448e-05 8.99617e-25)
(1.12539 0.147047 7.25214e-21)
(0.996911 -0.00137715 1.35897e-22)
(1.01899 0.000687534 2.17577e-21)
(1.00015 -0.0143364 3.81622e-23)
(1.00055 -0.000201419 1.04488e-23)
(1.01569 -0.00591956 -1.5047e-21)
(1.00011 -2.43436e-05 -1.11186e-23)
(0.999984 -2.21764e-06 -1.53833e-26)
(0.971062 -0.00159021 3.76523e-22)
(0.997794 -0.000786565 6.15562e-23)
(1.00002 -3.66955e-05 5.50406e-25)
(1.05578 0.0809462 2.08292e-21)
(0.898625 0.0620538 -1.10031e-20)
(0.999867 -0.000151305 9.07828e-24)
(0.976182 -0.00130608 -2.91187e-22)
(1.00001 -8.93825e-07 1.0111e-25)
(0.95542 0.0943963 -7.20301e-21)
(1.21944 -0.061523 -4.18907e-22)
(0.980792 -0.0289153 -1.12287e-21)
(1.00003 -0.000361768 -1.18379e-24)
(1.01929 -0.0234649 4.90466e-22)
(1.02108 -0.0023662 -5.56132e-22)
(1.02214 -0.000606831 1.62944e-22)
(1.03369 -0.0119332 -2.25921e-22)
(0.999776 -0.00123908 -2.43419e-24)
(0.999915 -0.000549227 4.23003e-24)
(0.99109 -0.00995154 -2.66406e-22)
(1 -5.60229e-06 -6.52963e-26)
(1.00001 -5.50049e-07 -2.55018e-26)
(0.984273 -0.0160302 -2.5719e-22)
(0.995236 -0.0397561 -4.74773e-22)
(0.973744 -0.0231814 -3.57303e-23)
(0.915438 0.0883961 -2.1664e-22)
(1.00013 -1.61483e-05 -4.57751e-24)
(1.00512 -0.0516072 -9.09315e-22)
(1.00472 -0.00354353 -1.33976e-22)
(0.999985 -2.30386e-06 1.74964e-25)
(0.999335 -0.00256042 -3.9268e-23)
(1.00002 -0.000307992 -7.73383e-25)
(0.997031 -0.00828386 8.98049e-23)
(1.00003 -6.81217e-06 5.54583e-25)
(1.02176 -0.0496848 -4.66509e-23)
(1.01276 -0.00129319 1.31929e-21)
(0.979056 0.105088 1.71249e-21)
(1.01687 -0.0018593 1.51436e-21)
(0.999824 -0.000146885 7.29519e-24)
(1.00029 -0.000256303 -1.05313e-23)
(1.10439 -0.111637 -1.04903e-21)
(1.0188 0.000617098 -1.7485e-21)
(0.998044 -0.000255562 5.54609e-23)
(1.00001 -7.36649e-07 2.12019e-25)
(1.06883 0.0682115 -3.41902e-21)
(1.02779 -0.125871 -4.39693e-22)
(0.994312 -0.0506966 -3.7553e-22)
(0.990984 -0.000485617 -6.89591e-23)
(0.999986 -1.43426e-05 3.19706e-25)
(0.999825 -0.000138532 -4.27465e-24)
(1.02984 -0.129421 1.23706e-21)
(0.996541 -0.0320514 -1.307e-22)
(1.02937 0.0204772 3.8741e-22)
(0.984501 0.0899491 6.54784e-21)
(1.0058 -0.0667423 5.0508e-22)
(0.999199 -5.3823e-05 -9.86567e-24)
(0.999986 -6.69279e-06 -3.90127e-25)
(0.97596 -0.0303477 1.10536e-21)
(0.978928 -0.0607934 -1.35581e-21)
(0.999872 -0.00015609 4.85865e-24)
(1.00575 -0.0156226 1.37905e-22)
(0.993766 -0.0170219 -5.09434e-23)
(0.997069 -0.00147633 5.34769e-23)
(0.997668 0.0365722 -5.46237e-21)
(0.999185 -0.000360996 3.52609e-23)
(1.03164 -0.0395618 5.77541e-23)
(1.19632 0.105897 -2.88132e-21)
(0.995137 -0.00211374 -1.56629e-22)
(0.925383 0.0733711 -1.09646e-21)
(0.931536 0.0344073 3.30052e-21)
(0.999981 -3.40363e-05 -1.24016e-24)
(0.999983 -0.000482391 -2.115e-25)
(0.989394 -0.00060412 -1.63127e-22)
(1.00851 -0.00331797 -3.21668e-22)
(0.977139 -0.00120609 6.09235e-22)
(1.0033 -0.00284915 -1.40441e-22)
(0.995311 -0.00212237 1.46155e-22)
(0.99964 -0.000329705 -1.51619e-23)
(0.96316 0.0947428 -1.2907e-21)
(1.04596 0.0381587 -4.29805e-21)
(1.00145 -0.00156621 2.49862e-23)
(0.864964 0.0390893 -2.22023e-21)
(1.00001 -8.46641e-07 -1.45027e-25)
(1.01834 0.00409808 -3.04049e-21)
(0.988319 -0.0610582 8.83931e-22)
(1.0066 -0.0519316 3.52873e-22)
(1.00006 -0.000138422 -2.10975e-25)
(0.976089 -0.000666603 4.96721e-22)
(1.01638 0.00359282 1.70345e-21)
(1.00831 -0.00359854 2.66708e-22)
(1.02085 -0.00165741 7.69567e-22)
(0.999715 -2.35127e-05 2.84322e-23)
(0.999697 -0.000328068 1.80011e-23)
(1.01372 -0.0322621 2.54313e-23)
(0.997829 -0.000849816 -1.75001e-22)
(0.991999 -0.00749087 -2.86903e-22)
(0.99942 -0.00232671 2.32245e-24)
(1.06501 0.0238903 2.20457e-21)
(0.998951 -0.0137231 -2.49335e-23)
(0.996854 -0.00313405 2.65636e-24)
(0.95886 -0.0156104 -1.40922e-21)
(0.996228 0.0732796 7.38142e-22)
(1.07703 -0.0403569 -5.59688e-22)
(1.01525 -0.00561979 1.20563e-21)
(0.999747 -0.000120308 5.38318e-24)
(0.999677 -0.000214201 2.43207e-24)
(0.988731 -0.013226 6.91352e-22)
(1.00063 -0.000823517 -2.45595e-23)
(0.998365 -0.000450208 -9.93649e-24)
(0.999987 -1.37242e-05 -1.1805e-25)
(0.999796 -0.00126244 5.44249e-25)
(1.01598 0.00335866 -6.61508e-22)
(0.985677 0.0629174 -6.36227e-21)
(0.999919 -1.04405e-05 1.12238e-24)
(1.148 0.127595 -6.0905e-21)
(0.999997 -2.73629e-05 4.96232e-26)
(0.997947 -0.0018364 7.38951e-23)
(0.999995 -6.25128e-05 1.01551e-25)
(1.00334 -0.00246132 -6.21569e-23)
(1.16241 -0.0713629 1.76075e-22)
(0.999975 -2.80156e-05 1.11848e-25)
(0.999974 -3.04036e-05 7.72231e-25)
(0.966924 -0.0258006 -6.38868e-22)
(1 -5.54265e-06 -4.93438e-27)
(1.03605 -0.0121327 1.89811e-21)
(0.990936 -0.026451 5.22602e-22)
(0.999984 -0.000423479 3.96857e-25)
(1.06603 0.0501595 -2.62832e-21)
(1 -1.94771e-05 -4.19036e-27)
(0.999747 -2.48737e-05 2.48513e-23)
(0.999944 -2.34498e-05 4.2186e-26)
(0.996969 -0.00314798 -4.42893e-23)
(0.999783 -0.00100526 -7.10219e-24)
(0.996118 -0.000198207 -5.0754e-23)
(0.991568 -0.0741249 -1.04035e-22)
(0.999807 -0.000979486 4.68939e-24)
(1.00267 -0.00229647 -4.83803e-23)
(0.999984 -1.60546e-06 -6.60405e-26)
(1.03109 0.129342 -1.04535e-20)
(1.03041 -0.0400534 1.41622e-22)
(1.07956 -0.0415423 -5.45895e-23)
(0.97868 -0.00362785 6.63841e-22)
(0.986041 -0.00265561 -1.1996e-22)
(0.999393 -0.00250663 6.46637e-23)
(1.00185 -0.00174114 6.77858e-23)
(1.0378 0.0504807 1.15541e-21)
(0.988396 -0.0233156 7.99522e-23)
(1.1063 0.0825441 1.33332e-21)
(0.973605 -0.00811444 -1.2141e-21)
(0.997874 -0.00177239 -6.9841e-23)
(0.999994 -2.42145e-06 -1.29434e-25)
(0.996437 -0.00180641 -9.83301e-23)
(1.00965 0.122644 2.67933e-21)
(1.05961 0.0587136 -6.12288e-22)
(0.987368 -0.0348569 4.34815e-22)
(0.964907 -0.00338864 2.86029e-22)
(1.03546 0.122168 2.78911e-21)
(0.9947 -0.000373679 1.31695e-22)
(0.986488 -0.0556008 6.94321e-23)
(0.999995 -5.91362e-05 1.02425e-25)
(0.990245 -0.0265176 6.57549e-22)
(0.999476 -0.000148289 -3.65772e-23)
(0.874581 0.0666833 -6.4613e-21)
(0.984268 -0.0452567 -9.75805e-22)
(0.999945 -2.08742e-05 2.03337e-24)
(0.962681 -0.0109663 -7.68462e-23)
(0.988203 -0.024706 4.06725e-23)
(1.0268 0.0562671 4.14064e-21)
(0.998388 -0.000491222 -9.40704e-23)
(0.987125 -0.0237364 -2.40244e-22)
(0.998366 -0.00692033 -7.58508e-23)
(0.999499 -0.0150637 -7.93952e-23)
(0.999207 -0.000366267 -2.39873e-23)
(1.02578 0.0550083 -5.0127e-21)
(1.00154 -0.105995 8.80672e-22)
(0.988913 -0.0105138 -2.02311e-22)
(0.991445 -0.00926388 4.20212e-24)
(0.991999 -0.00310647 -6.3965e-23)
(1.00334 -0.0013925 -5.68258e-23)
(1.03698 0.118528 1.08935e-20)
(0.988959 -0.0085505 9.23527e-23)
(1.0124 0.0280138 2.67587e-21)
(1.00171 -0.00140596 5.16277e-23)
(1.14118 -0.0930314 -2.78767e-23)
(0.944128 0.0753929 1.09529e-21)
(0.994599 -0.000293538 -4.55251e-22)
(0.999856 -2.68051e-05 4.77894e-24)
(1.04041 0.0698148 1.26083e-21)
(0.99947 0.0976895 -9.69723e-21)
(1.01339 -0.0310798 -1.43925e-23)
(1.0527 -0.0385442 6.91996e-23)
(0.996874 -0.00860918 -9.91513e-23)
(0.978997 -0.00327979 -3.93179e-22)
(1.08625 0.0988815 3.91597e-21)
(0.975176 -0.0303962 1.95732e-22)
(0.999985 -1.3747e-05 4.28474e-25)
(0.995399 -7.07765e-05 -2.32448e-22)
(1.00002 -4.0502e-06 5.68175e-25)
(0.997217 -0.000167205 1.73642e-22)
(0.999984 -1.46522e-05 -6.66517e-25)
(0.998509 -0.00965888 1.28531e-22)