/*--------------------------------*- C++ -*----------------------------------*\
  =========                 |
  \\      /  F ield         | OpenFOAM: The Open Source CFD Toolbox
   \\    /   O peration     | Website:  https://openfoam.org
    \\  /    A nd           | Version:  7
     \\/     M anipulation  |
\*---------------------------------------------------------------------------*/
FoamFile
{
    version     2.0;
    format      ascii;
    class       surfaceScalarField;
    location    "16";
    object      phi;
}
// * * * * * * * * * * * * * * * * * * * * * * * * * * * * * * * * * * * * * //

dimensions      [0 3 -1 0 0 0 0];

internalField   nonuniform List<scalar> 
11512
(
155.92
-509.238
353.317
-758.775
-16.0422
774.818
424.302
-390.041
-34.2613
648.16
270.646
-918.806
1546.27
-1096.12
-450.148
1209.81
-1524.41
314.6
-57.4876
496.721
-439.233
173.618
-863.115
689.496
979.017
-1644.59
665.577
-1776.12
1686.45
89.6629
-565.888
1775.7
-1166.7
1978.91
-812.215
619.728
184.139
-803.868
-23.1499
-1336.91
1360.06
225.475
-2001.59
1050.43
-389.934
-660.499
-174.475
330.396
494.686
188.433
-683.119
1184.59
-1344.26
159.672
-313.473
388.668
-75.1955
1025.61
-1331.9
306.285
1248.85
817.851
-2066.7
70.481
-1667.19
1596.71
-499.4
-1158.31
1657.71
482.61
175.687
-658.298
-199.289
-309.948
508.096
1038.18
1673.63
-1829.6
155.973
-103.43
-1687.82
1791.26
-1595.6
664.201
931.404
-312.988
670.68
-357.692
-123.281
-114.497
237.778
1305.46
-1234.98
367.383
-1440.13
1072.75
-1242.8
1242.8
96.9775
1553.18
-1650.15
-1101.39
-494.215
665.467
-722.954
-392.624
964.985
-572.361
1294.7
-1287.08
-7.62321
-1127.8
735.175
645.329
405.104
-391.661
-48.0838
439.744
-436.962
775.096
-338.134
-1097.59
1097.59
1243.31
-1399.24
155.93
-499.94
1748.79
1287.38
-322.399
1695.78
-1184.23
-511.548
87.28
-400.753
2111.7
-1160.16
-951.541
1839.81
-166.182
451.885
144.109
-595.994
-458.859
990.929
-532.069
-1187.08
1284.06
-581.89
995.696
-413.806
413.598
770.995
672.291
-498.673
-448.804
612.577
-163.773
1219.42
-852.035
2352.98
-1102.22
-1250.76
1189.87
-2053.89
864.023
-1626.81
1603.66
450.973
-1617.67
-701.021
1209.95
-508.93
-690.801
377.813
1696.25
-717.231
-1127.55
-887.436
2014.99
677.274
-367.454
-309.821
706.769
580.614
-265.774
1509.09
122.309
-330.444
208.136
-290.969
773.579
-316.348
515.462
-199.114
-332.131
826.817
-326.323
-155.312
481.635
338.612
85.6901
1477.62
-452.006
-988.738
496.165
492.573
289.879
91.048
-380.927
971.38
-351.651
-1736.78
628.182
1108.6
27.3557
-868.914
841.559
-287.09
608.099
-321.008
162.255
-1120.77
958.513
949.229
-966.001
16.7725
383.492
531.217
-914.709
-247.912
699.797
-1127.57
-495.294
1622.86
-556.184
821.516
-265.333
1353.69
-1457.12
-634.162
286.778
347.383
-483.17
-1026.53
1509.7
-553.815
-810.489
1364.3
587.769
-1014.44
426.675
-147.483
-235.342
382.825
420.972
-298.664
-1059.52
600.665
979.156
-816.901
-107.484
846.789
-739.305
-202.002
408.92
-206.918
-627.223
-361.515
-396.844
984.613
1380.78
-1380.78
-461.127
-173.035
-949.07
1571.16
-622.095
388.13
-836.78
448.65
-947.535
365.645
-956.151
-1077.13
-1519.92
360.564
1159.35
-278.905
927.065
-307.782
626.27
-318.488
-1975.35
1019.2
-1155.19
-364.731
568.783
-1517.85
1765.15
-1764.05
-1.09745
225.287
-616.566
391.279
-1473.81
976.048
497.766
299.91
216.302
-516.211
310.688
-627.036
204.539
-335.543
131.003
2035.56
-838.171
-1197.38
-559.92
168.26
634.47
850.268
-1484.74
-169.07
373.61
443.257
896.11
-1339.37
-933.464
406.15
527.314
-1067.76
1481.36
-925.563
224.542
773.776
-103.096
547.151
-277.488
-269.663
1014.97
-518.804
610.507
-1437.09
826.586
-1374.23
246.659
-551.047
263.956
-1199.1
920.191
1995.4
-1122.29
-873.112
274.722
1106.06
-2139.97
913.204
1226.76
244.729
-18.699
-226.03
-191.987
381.231
-189.244
-119.926
-385.023
504.948
-481.373
155.05
323.474
-68.6138
456.744
416.874
401.908
-818.782
-2048.42
1130.26
918.162
472.785
-548.711
75.9258
171.768
-260.381
88.6126
980.77
1054.79
1807.09
-253.916
725.609
-438.83
814.491
-1422.91
608.417
348.715
328.559
1067.35
-1039.99
-514.058
-243.041
757.1
493.562
-142.21
-351.352
772.317
-588.178
609.684
-795.903
186.219
516.597
1179.18
-1270.18
716.37
1036.44
-1535.84
2.32792
-1469.42
1467.09
333.236
845.094
-1178.33
632.152
266.362
-898.513
-2276.5
1169.78
1106.72
-1129.99
-1146.51
218.227
391.457
982.221
-648.985
755.874
-770.24
14.366
-2139.2
1011.65
-106.702
-120.681
227.383
-44.4612
1809.61
-841.595
82.8194
-1049.47
-1090.5
-198.877
370.645
-671.108
209.981
-270.134
-427.519
697.653
1122.78
-1605.95
798.238
-1406.37
608.132
706.032
-435.386
1965.05
-1448.45
-364.572
-878.232
79.3338
417.387
-543.736
527.694
2.57211
-574.694
572.122
586.719
-286.809
-608.285
285.249
323.036
799.099
-382.225
20.6228
224.107
1213.87
-1211.54
187.051
233.921
395.708
-665.843
633.594
-1030.44
-2067.99
2067.99
-256.411
-452.9
709.311
717.942
411.375
-1129.32
594.267
179.508
402.852
396.247
-2241.68
1354.25
-947.035
-695.176
1642.21
-486.57
-712.527
-262.87
552.988
-290.117
858.447
-210.955
-647.492
-434.421
659.708
388.004
-695.786
-350.678
-145.865
496.543
-1344.49
-485.118
645.43
-1132
-358.528
-739.066
860.502
1492.48
258.751
-482.935
224.184
991.301
-345.972
1424.37
-813.86
459.261
-272.21
-339.197
-898.342
584.688
313.654
-344.389
-553.954
313.755
-433.681
-212.242
-140.185
352.428
-403.377
1121.32
424.141
-235.708
-371.072
1374.54
-180.525
-1194.02
-479.866
275.351
204.515
234.94
248.22
-483.16
11.0128
-806.916
606.132
-1765.17
1159.04
1515.12
-880.654
-1049.94
-423.879
-1084.14
587.662
496.478
1393.84
-417.791
949.354
-1444.65
-171.455
-221.245
392.7
-479.623
596.966
-1664.73
426.647
868.056
278.802
300.939
-579.741
532.798
710.006
1132.41
-734.789
-397.62
412.214
-221.877
-190.336
-1450.01
456.761
755.504
-1212.27
1507.78
-558.424
-490.265
935.533
-445.268
438.471
1206.72
-1645.19
23.1197
-579.303
-147.821
437.7
94.2362
-217.517
528.41
486.558
-663.098
59.2041
603.894
1003.35
-1258.42
255.072
678.192
-275.34
481.877
-1479.81
997.937
422.426
1724.3
-534.429
853.105
1142.29
-680.064
-1723.12
776.086
584.766
394.585
-979.35
462.606
82.5207
1786.62
-1869.14
1422.13
-391.585
-1030.55
1734.97
-1779.43
-377.371
-522.397
737.229
-214.832
-521.06
191.947
301.615
-382.292
-1247.39
220.859
-785.244
-651.848
-626.312
1041.01
-414.697
-494.026
486.832
7.19338
593.513
-791.265
197.752
-301.395
90.3395
211.056
-664.007
-698.413
359.602
338.811
-949.984
1431.86
-417.591
903.479
-485.888
-2247.43
5.7512
189.668
-553.599
363.931
151.472
1223.07
-102.771
-568.337
166.294
-615.098
1521.1
-722.862
383.516
-479.097
95.5812
-150.941
150.941
732.793
364.801
1817.49
-1258.81
603.867
654.941
812.665
-40.3477
1321.17
790.53
-554.338
1368.83
297.597
310.502
291.585
-813.982
250.31
-687.272
227.105
-424.73
197.625
-242.055
595.117
-353.063
131.1
-373.154
-605.235
-579.502
1184.74
-363.823
535.3
-171.477
-1195.99
2059.79
-863.8
1321.32
-339.099
-194.458
46.9744
-1988.03
829.724
1546.37
-848.306
-698.059
2028.09
-896.335
-1131.76
731.112
590.208
-239.526
466.631
-677.11
1152.99
-475.878
-787.111
1230.37
564.138
945.191
-1764.02
818.826
-541.475
-80.0352
621.51
299.929
247.222
424.404
-107.232
-317.171
791.134
-75.7209
-715.413
925.384
-555.954
-369.43
1607.83
-485.054
907.284
-1663.44
756.156
1094.77
870.27
770.013
-458.235
-311.778
-1019.96
-267.122
566.466
598.397
-1164.86
-450.589
505.623
-55.0342
594.305
-357.357
-236.948
-1005.19
587.599
611.648
903.476
-450.72
1044.23
1436.36
-782.887
-653.471
410.735
-950.163
539.428
-1035.21
407.984
562.889
-1053.15
464.386
-523.582
59.1966
480.746
294.35
-127.418
-23.5233
-813.448
-896.637
1710.09
199.55
212.663
-237.578
455.805
-42.2609
-547.344
589.605
492.31
889.786
-1382.1
-537.753
325.511
839.566
-48.4319
855.273
-1090.95
235.677
387.475
865.339
-1419.68
-450.254
852.163
2022.15
-1312.16
-709.991
251.465
504.409
244.014
705.215
97.024
-981.55
884.526
1708.57
-1108.68
-599.897
-142.522
1929.14
-1904.51
-163.478
468.452
-593.1
124.648
-1041.04
539.46
501.582
-1719.62
523.628
-968.118
860.634
401.905
210.671
516.598
-257.847
-438.723
730.753
260.548
58.0127
773.901
-831.914
-1161.83
-870.01
2031.84
-535.354
1112.02
-576.667
-466.594
-136.132
29.4302
-1691.93
878.483
-845.03
-627.528
1472.56
-297.988
-287.619
585.607
369.201
-660.957
291.756
237.702
-619.927
311.8
221.091
-532.891
348.11
-610.981
630.791
-261.59
323.071
-478.383
677.451
410.484
-175.544
-389.712
-308.701
1239.32
-8.19459
-1231.13
1064.87
-431.277
573.155
422.541
-1800.63
866.446
934.179
510.608
552.107
-1062.71
-456.856
158.868
-269.225
1208.23
-939.005
-1582.3
1217.73
517.197
-1122.43
399.257
-15.7406
425.669
308.692
-734.361
382.345
-630.257
-28.8891
772.751
-743.862
-486.031
752.393
381.648
317.857
494.808
670.872
86.5224
-399.847
313.325
998.008
-589.094
-408.914
507.061
-1698.63
1191.57
-1161.58
1789.98
-628.398
1751.64
-1145.51
-341.802
627.051
-1184.48
1281.5
335.485
-817.989
1631.12
-813.13
-250.387
-229.479
-933.909
1504.25
1852.98
-625.928
-1227.05
-416.319
724.2
-1350.51
-78.7741
-39.6365
464.04
-694.728
-363.733
-1218.57
-233.261
470.963
895.127
-577.385
192.363
-1710.79
-73.5774
1784.36
-1076.54
541.183
586.699
-1209.03
622.328
922.353
930.625
630.938
579.013
694.186
241.346
-1148.56
471.448
-417.177
419.749
639.079
-527.696
260.536
-755.084
494.548
690.289
-341.574
-274.476
159.978
-605.275
225.528
379.747
-910.378
-753.063
1106.61
-2183.74
411.085
-702.054
-337.477
-628.524
854.468
581.89
-360.52
312.437
362.266
240.76
675.291
-916.052
527.615
625.373
-539.198
188.52
364.811
-621.222
-1126.89
-802.616
1929.5
-1828.42
161.225
1132.32
-1401.55
1177.47
-726.093
-451.378
-516.773
1382.11
-1527.27
644.908
882.362
-174.764
-160.676
335.44
1457.91
570.184
332.494
-478.359
-500.679
-575.721
1076.4
-426.976
616.644
1618.61
-1154.42
-464.187
-784.383
331.483
596.836
401.172
-1657.17
428.278
1228.89
-208.885
520.685
816.235
802.375
207.933
-692.088
484.155
205.6
203.32
-249.894
-98.7519
348.646
484.837
-2.58271
-482.255
-1651.6
601.669
-1615.95
1688.19
-72.2377
15.2062
-1631.15
1063.61
765.374
-339.705
-813.663
-221.544
-1162.56
-243.814
-319.443
701.788
-1853.31
-635.782
1234.18
211.19
779.739
-1360.1
-693.792
-478.117
610.242
-331.44
-1030.95
1378.66
-1974.32
595.664
660.943
1317.97
382.519
-1.28796
736.84
711.588
-1448.43
-657.859
349.484
308.375
357.921
-85.7359
-272.185
162.535
292.128
176.19
-468.319
-585.841
1170.61
464.944
-622.067
-472.113
-413.744
885.857
-356.045
184.59
-473.283
174.619
-314.363
-726.68
434.456
-76.5353
-581.598
992.333
384.985
-198.83
-186.156
468.431
-800.561
-662.876
438.485
-1150.11
-844.656
1205.22
-582.894
468.79
288.309
-451.961
84.5072
1055.14
-211.281
438.829
-227.548
-524.072
1587.68
-756.009
240.574
386.576
-627.15
223.9
480.51
-23.3377
-457.172
-259.443
-213.84
877.714
1129.19
579.38
-882.636
959.449
-76.8135
-236.338
61.5745
-736.512
308.994
-652.086
319.731
370.558
840.726
-1247.47
406.743
797.877
-826.766
-962.048
-567.181
1529.23
-162.189
463.128
-542.01
264.522
1352.38
782.085
-574.152
1332.02
-686.593
499.267
-693.149
-420.383
-434.651
-388.454
823.105
515.635
-867.286
-452.014
90.6571
361.357
-268.593
587.573
749.693
-338.608
-235.462
-173.11
408.572
-506.231
153.4
352.831
1489.76
81.2623
-1571.02
-765.534
1377.18
-1171.15
-473.448
551.948
-165.373
1177.58
-379.699
1102.39
505.443
711.323
-419.739
-902.578
-537.553
-1353.63
-31.6111
1008.9
-977.288
603.565
335.576
-939.141
-325.088
-234.832
-748.904
413.779
1654.21
-180.818
369.079
365.177
-734.256
-1878.81
-2147.65
1548.11
599.534
-2042.18
354.357
370.831
540.708
-911.539
-472.766
1045.92
-405.283
-675.346
1080.63
-2069.71
1417.1
652.605
602.672
-1007.95
59.5222
404.863
392.166
207.96
251.301
318.321
973.503
876.284
699.636
-336.374
-363.262
-303.673
639.703
-336.03
589.731
542.679
576.422
514.025
-1090.45
-810.11
-717.16
772.029
405.546
-424.022
715.779
-1214.76
1643.03
432.214
-1107.56
-327.846
548.937
-1410.42
904.46
505.964
-716.344
-334.214
-839.937
381.062
458.875
459.21
734.577
-1193.79
1093.87
-583.267
-402.414
673.343
-270.928
194.428
190.557
-479.847
-444.274
924.122
-250.848
557.312
-965.484
408.172
-478.549
612.505
-1714.72
435.197
686.326
-1121.52
538.157
88.1132
115.792
-2254.99
555.902
-87.1118
1477.18
1810.56
-220.876
-1589.69
-447.936
1826.59
-2030.43
1220.11
810.315
416.756
353.257
-27.782
882.25
-1314.48
734.981
-893.591
-844.227
812.615
321.95
53.0931
-375.044
106.804
116.036
-222.84
1583.02
-846.181
-1054.15
-326.629
482.541
-198.743
-283.798
403.071
370.508
248.939
361.304
-8.15246
1024.51
-1016.35
377.318
281.49
-658.807
-749.045
1854.63
-1105.59
-352.201
755.272
-1235.12
-415.03
-940.128
495.854
581.184
-792.54
211.356
783.486
-392.38
-391.106
-424.149
-458.486
451.33
1090.5
1265.34
-678.641
823.215
-354.784
388.402
320.909
-262.336
-216.761
-214.923
637.349
418.981
-871.161
452.18
215.62
362.009
-577.63
-434.761
853.742
772.326
-1175.7
893.527
-52.8006
-507.418
289.056
778.294
-97.7533
1415.72
1926.35
-75.2483
350.599
-322.894
409.417
-1110.53
1102.38
626.256
386.567
396.92
59.0974
423.443
277.868
496.95
-379.158
-278.701
-413.581
-80.4448
-365.355
379.433
-14.078
-260.883
-290.163
1030.84
-1575.25
544.409
-202.464
-187.577
-387.087
668.577
-1662.64
1624.16
-979.247
265.417
-685.801
597.282
1246.86
-1844.14
624.039
1000.12
310.566
-1145.8
707.078
-290.176
-289.565
1395.29
-1474.26
837.322
636.942
414.581
-634.684
220.103
-364.761
487.562
-122.801
372.166
112.671
1763.04
460.794
-255.194
571.39
-1739.62
1168.23
-92.4906
400.366
351.525
348.111
-460.319
-629.768
1090.09
435.1
-885.354
-655.753
922.113
585.664
-155.57
-145.825
-451.384
-419.776
-317.024
-845.532
1344.55
-1344.55
-100.28
-1604.37
1704.65
299.63
294.675
-935.288
-570.919
1506.21
-418.22
994.642
-612.113
-1039.49
687.487
403.04
-1090.53
492.01
-168.939
585.386
1242.74
-1828.12
-1051.82
2115.4
-1063.58
-382.569
-308.231
-493.994
825.477
-1786.45
1633.95
152.498
1786.45
-1636.11
-150.343
-251.953
535.88
-283.927
-550.591
1652.98
1584.3
-1999.33
1095.47
-287.021
-259.032
546.054
252.219
-580.065
-714.329
290.306
1372.14
650.005
590.369
499.148
-1089.52
293.89
417.434
891.422
514.726
-1406.15
542.311
-1042.99
1609.8
-578.956
-776.021
-372.501
-118.469
490.97
-503.093
1237.67
-762.677
339.191
360.606
363.13
267.713
-630.843
615.349
852.894
-617.217
279.106
680.343
-155.57
-321.741
-235.383
557.124
1190.08
-673.496
626.715
476.156
-1102.87
-1026.76
1026.76
-397.492
784.059
-296.511
-484.345
780.856
492.366
463.309
-955.676
396.788
-693.299
630.434
-890.408
259.974
-377.956
-509.774
1100.14
-678.639
-725.483
1404.12
-390.041
947.352
-1585.06
688.729
46.0049
-422.129
376.124
-504.776
714.757
257.839
337.279
177.43
314.58
-522.01
231.835
1911.75
-2009.51
281.65
-716.071
454.09
-842.527
388.437
-910.729
1430.73
-519.998
-441.619
-498.51
615.119
1146.57
-1761.69
-734.922
352.352
-471.012
1060.74
-783.154
1062.26
-363.079
-645.475
-483.446
733.756
504.157
-328.469
927.466
-307.025
-199.206
1630.51
-1851.39
-360.604
-604.88
-339.352
492.753
263.099
-594.539
-190.694
1078.37
-789.314
223.849
-291.278
-290.359
581.637
409.684
-895.832
486.148
-491.479
-453.605
-482.935
-340.433
581.636
-241.203
-459.273
-425.978
-328.411
-204.48
-387.429
655.143
-450.286
771.195
-1098.85
638.53
-1411.72
566.694
-28.0447
-1875.57
1903.61
585.812
-461.164
1232.78
-691.594
58.5779
-58.5779
685.665
-440.366
1039.58
-1651.69
-1180.62
-967.025
302.455
337.249
897.12
733.999
-492.805
-315.586
808.391
1693.96
-1722.01
-443.752
361.681
225.038
1163.28
-536.567
-961.869
1581
-619.133
458.369
-250.408
385.462
390.689
-776.151
535.272
489.798
-1025.07
-337.951
677.142
-39.0482
1950.8
1608.36
1012.92
-1735.78
743.328
-1206.07
462.738
-507.31
1398.73
856.58
-1373.35
-559.201
272.179
810.521
-415.937
570.012
-1215.83
645.815
-655.818
-1238.63
-710.59
1949.22
-211.879
558.657
-346.778
-179.745
293.308
-505.188
332.66
385.102
-717.762
-1513.32
776.381
736.937
898.117
-1465.3
848.061
-441.911
228.028
-375.85
-591.911
270.169
-682.127
-728.297
715.313
518.805
-1234.12
405.133
-209.948
-195.185
569.272
-983.078
-569.667
-428.685
737.679
-848.488
-1181.94
-1469.81
513.109
956.702
11.1136
-637
346.646
290.354
-1337.64
1070.45
267.194
-630.693
-468.157
-676.078
920.091
414.253
-211.632
-202.621
522.784
999.666
-1522.45
998.582
-383.335
128.394
254.942
-407.078
686.206
-404.556
-522.738
183.386
239.82
-1551.97
548.739
545.136
-756.802
252.026
164.753
-471.778
385.489
-839.094
1989.61
-1216.78
-772.829
411.345
-678.667
267.322
193.582
328.687
131.05
-459.737
-572.916
198.095
262.7
-710.653
1405.1
-694.447
435.103
479.247
-1195.59
274.997
1906.05
-1036.59
-869.462
765.49
-534.599
194.166
1427.19
-989.134
-438.06
349.596
-789.962
-631.735
1760.93
629.757
635.582
330.013
-8.06286
283.792
-1159.57
1761.39
-601.821
-1798.37
836.496
1773.85
-1701.32
-72.5317
-675.393
258.216
575.222
-720.277
236.831
1435.82
-579.242
405.883
446.28
-1897.94
1450
552.915
-423.622
-129.293
221.928
-550.339
-279.142
-187.452
-363.837
715.362
-585.529
213.028
616.125
569.714
-1185.84
1136.26
-1989.88
853.622
173.476
323.067
-1738.17
1699.12
330.826
-750.565
-167.898
395.927
765.327
697.757
-1463.08
1089.71
-1097.9
544.529
-1127.8
-649.183
262.47
386.713
526.412
-300.884
-623
-1028.69
310.546
-736.524
-928.898
193.897
171.498
233.635
387.737
308.851
-696.588
-639.015
-853.359
-999.951
508.594
-1081.51
-285.853
490.368
551.308
653.912
-156.024
-38.434
-412.06
722.626
285.913
-1225.7
586.684
1335.84
-570.511
461.044
-1030.71
-232.559
167.876
385.039
1043.32
566.477
-1725.36
1625.08
1645.52
-585.542
-1059.98
1945.83
-1933.78
-12.0426
206.813
-529.707
-343.331
567.18
-772.859
-323.325
-352.069
1022.52
716.683
-1522.08
805.393
366.316
-25.9235
1656.44
-1097.86
424.36
-1254.04
478.022
-60.7194
1550.48
1227.09
-483.759
-349.989
-33.3466
-275.926
751.805
-1990.43
-730.988
355.219
-549.595
194.376
80.8957
-292.176
1163.43
686.153
-1849.58
-611.905
188.283
960.872
-1531.79
-218.697
678.571
-459.874
890.303
1109.7
-750.52
1380.28
607.851
-484.045
-123.806
-360.114
1197.44
1058.89
-1982.44
923.553
-1197.33
561.552
1523.19
-601.079
-376.399
-162.799
-1269.06
590.419
1189.37
-80.7717
967.639
793.203
-1760.84
-222.166
594.104
-1576.77
982.661
501.6
933.818
-1435.42
628.228
605.951
388.78
-1127.24
446.485
1131.57
658.283
-347.33
-310.952
-1209.2
-1791.3
-4.58106
-1720.78
-217.364
-417.32
1643.7
-639.819
-1003.88
-505.855
1136.79
-1347.08
653.695
693.385
-1391.29
1472.56
-1359.87
609.355
1554.98
-398.51
-576.165
199.766
-1496.27
241.079
179.806
230.642
377.21
434.744
409.998
-844.742
521.788
-957.03
920.234
-1478.66
-704.842
244.934
459.908
-1063.09
477.252
-478.575
884.457
714.626
33.9014
-534.216
187.438
-902.921
-1344.51
-736.073
361.067
375.006
417.443
-742.825
325.382
-448.815
-179.043
-591.197
733.325
1574.04
-606.398
826.142
756.878
1372.08
-857.358
-991.126
-585.64
-819.649
438.697
380.952
-1061.97
-661.431
314.508
346.923
-1434.48
-285.143
-812.877
409.782
403.094
-658.869
397.861
261.008
-688.532
283.976
424.619
499.503
400.73
453.012
490.089
395.767
609.728
-992.02
684.476
486.131
459.36
357.764
-817.123
1663.81
-1099.27
-564.536
-518.873
-285.137
-1052.5
466.556
356.548
420.71
607.621
-1028.33
-1411.67
771.849
-550.264
1172.59
363.693
-71.5646
423.454
-889.171
465.718
-1903.26
298.89
447.32
-729.173
281.854
-190.474
417.809
-227.335
-680.756
319.328
361.428
-693.953
330.691
380.984
403.074
627.133
-1045.35
771.726
676.515
-1448.24
450.249
639.838
337.008
363.937
-700.944
419.577
335.695
604.751
674.785
415.719
594.737
-1036.39
441.655
-1697.64
1187.35
510.296
1731.98
-552.8
637.008
-1175.83
538.826
-635.043
347.423
449.413
-959.762
510.349
757.322
-448.63
359.38
355.982
569.785
-930.389
666.716
-1284.39
617.674
382.29
751.289
-1254.38
786.812
523.028
-1309.84
484.93
422.848
-907.778
-515.656
-954.155
-313.98
646.64
363.134
551.702
-914.836
342.673
334.469
-514.831
1981.92
443.965
-858.591
414.626
-937.812
-826.205
-770.155
379.049
-1237.5
454.342
-1764.88
1636.11
128.778
1782.73
-1633.95
-148.776
-806.169
-610.515
275.542
334.974
-1773.85
1999.33
552.555
809.223
-1361.78
452.2
732.537
706.133
395.276
-1101.41
-66.036
1652.42
-609.1
398.721
834.056
-620.867
323.829
297.038
-387.962
-259.354
453.782
-231.712
448.014
279.853
-646.51
366.657
274.201
-595.21
-292.335
454.348
-1059.02
604.67
550.998
1112.81
374.363
610.25
258.98
229.892
-488.871
1645.03
-928.347
1729.88
-1554.91
-174.965
-336.314
-846.097
426.321
870.894
-1089.59
-625.35
289.32
-1110.42
1661.42
-1600.96
-73.4916
1674.45
-349.808
-358.976
-379.445
549.216
614.066
-516.895
-31.8155
-556.742
520.427
-289.966
-230.461
1768.3
-1316.97
-641.807
308.894
332.913
415.967
369.47
751.849
-304.558
-409.089
-1782.73
1722.01
471.646
-1127.7
656.055
-41.2121
1666.3
584.212
480.242
-1064.45
88.8398
1168.91
-1485.94
-9.62769
-1893.63
236.5
-602.346
305.001
297.344
-956.608
619.131
-922.529
480.911
-1156
688.757
467.243
375.191
280.633
-773.437
-315.198
1247.33
905.422
717.44
-1214.48
473.634
740.85
507.461
716.654
-1224.11
-362.704
-254.784
426.282
-985.549
450.481
535.068
21.1666
-1919.11
1107.18
-476.749
-499.866
572.509
-1410.89
838.381
-429.77
818.207
-415.957
502.903
-973.236
1850.95
425.246
-191.611
183.69
-177.392
-252.748
430.14
1931.8
-514.7
-1716.24
1077.38
-550.347
290.993
-1039.47
566.706
-320.212
559.934
923.044
-1482.98
-1122.65
446.577
-20.7768
-1988.73
1717.17
-658.28
-535.38
473.528
-1219.65
746.118
194.921
219.332
-260.261
785.877
718.373
855.127
791.55
-433.786
1111.48
-495.336
491.426
-199.857
-291.569
-1966.64
-716.084
-322.493
-466.742
-2.14978
468.892
475.982
-277.888
578.235
1066.8
-815.561
948.915
1274.32
-436.315
-204.905
-245.653
450.559
948.179
-904.548
-340.595
-1094.08
625.921
1588.63
-812.25
552.859
953.348
-396.053
754.643
-358.59
1158.33
-264.534
325.879
1381.73
-721.442
-228.721
462.636
-1229.35
766.719
-994.749
-135.774
1130.52
453.207
-980.37
527.162
186.412
292.76
365.523
779.92
-104.629
876.466
-436.992
1200.97
-805.693
566.865
-1499.46
932.59
-1238.71
1836
-437.149
-1538.2
897.165
-1434.72
-315.482
-418.879
1491.09
-1557.87
804.812
1522.16
209.624
281.802
-357.985
-1764.88
-308.048
-1017.39
1595.62
-1792.99
1792.99
1584.3
-1029.06
-651.642
-340.728
376.497
618.145
-366.831
-366.209
-1421.15
913.836
1146.18
615.21
1230.1
1823.69
-1238.3
-619.748
276.125
1694.34
-1957.64
263.3
833.05
-1297.24
1577.32
-577.202
797.082
314.939
-336.324
569.139
812.972
642.856
1388.98
-223.52
-456.811
-358.138
437.216
-293.107
484.665
753.005
-298.789
-160.949
-329.121
581.442
-252.321
26.0378
-383.395
1128.52
-1756.92
-448.403
-489.498
-579.969
885.31
703.32
-1632.68
922.029
-463.908
-627.619
-526.721
1282.22
342.51
1759.84
-1738.67
-1693.96
1933.78
-1594.09
854.336
739.755
-366.723
-1835.56
938.92
597.917
837.905
-410.901
1833.53
-697.279
-410.156
680.529
443.865
-1124.39
-1125.99
457.029
770.058
-1649.86
487.329
917.772
182.063
-409.794
227.731
-1608.97
-392.619
-426.64
1005.16
-682.375
1475.9
-965.736
1856.04
247.854
-548.452
512.059
-302.436
489.129
909.603
558.228
996.748
-475.2
-440.318
589.069
902.018
-1394.53
-39.9438
1603.36
-846.481
534.569
987.588
-1510
-1119.81
1782.9
-1243.63
-539.27
1235.69
-328.666
-907.021
-197.38
466.532
-269.152
-470.871
-257.182
444.425
-187.243
153.156
-407.94
1742.54
-1747.12
-459.136
-546.906
-918.392
452.574
-209.901
-242.674
556.017
-452.955
-358.487
-316.436
674.922
-959.103
405.15
-1194.81
688.954
429.916
-641.31
-448.911
1604.12
-870.118
542.561
-470.2
-584.083
-474.935
66.6501
-63.3011
-3.34899
-1116.32
424.727
-680.954
-1054.5
1735.45
-602.048
-1456.75
731.266
576.667
-1630.87
1054.2
-381.999
-485.845
157.685
536.501
-1288.7
761.976
553.989
1023.33
-2168.14
1011.81
1156.33
-356.442
84.0066
-75.0458
-8.96079
1511.58
-378.919
461.838
1173.49
597.437
925.754
581.267
540.903
-1122.17
173.534
-440.019
-1701.32
272.018
1145.97
-619.202
532.841
1033.3
-1566.14
1112.78
-1677.32
184.501
709.025
550.66
-891.255
-1104.96
-145.255
377.942
-232.687
-580.11
-427.673
-650.973
-538.947
278.686
-1655.79
960.61
-489.171
219.42
-411.032
551.143
-314.642
-607.864
1225.54
-1292.04
927.503
364.536
-1034.26
-360.74
-769.455
-838.337
1723.65
-489.408
1798.44
-1589.91
-208.528
-1588.85
1036.77
552.074
-737.726
-188.712
340.976
-152.264
-595.38
393.103
284.603
-677.707
-537.728
1002.91
649.243
-359.923
-1651.41
1068.51
585.838
1123.87
-1709.71
-410.674
-304.759
-375.997
-757.973
-468.012
-339.238
516.668
1591.79
-1015.12
-792.638
1530.78
680.21
-318.529
742.587
1169.75
-1912.34
283.082
310.09
-499.944
-1975.53
1758.95
216.585
759.983
-486.435
-273.548
545.549
1079.92
-1625.47
66.6501
-1730.41
-238.088
1786.2
-1611.08
1095.25
515.828
-1733.44
3.03346
-535.358
84.0066
1738.17
-1758.95
960.038
639.951
-1599.99
303.568
-182.728
-120.84
-406.893
-281.639
64.9966
53.877
-242.589
-446.032
-444.376
-420.833
230.359
1539.73
390.155
-229.001
-429.868
454.678
-191.978
325.619
1541.58
1091.38
-211.138
-880.241
-1125.95
1741.06
-1766.61
1085.66
-724.162
-1042.45
-1286.93
1880.26
-593.325
1177.85
-1808.38
630.528
195.721
-896.87
1711.14
44.334
-1755.48
-504.282
-1101.67
-1742.54
-1006.81
566.493
1037.29
604.59
1154.01
-1758.6
295.773
-461.145
724.464
-393.774
372.241
945.123
697.089
-395.365
-641.027
597.402
1092.17
-1689.57
-406.221
-382.873
789.094
431.043
-1699.12
1554.91
144.209
599.701
-1070.71
556.934
1104.48
-1588.46
1011.25
-247.278
245.757
321.423
1945.83
418.837
-90.1539
1009.24
739.794
-1749.03
-712.965
1104.32
-1589.37
172.958
-584.271
198.972
255.706
-658.737
-578.759
597.565
1054.85
-721.174
-277.983
-1401.75
692.317
709.438
-416.819
803.372
89.0204
-892.392
576.191
-140.194
1590.2
-225.912
270.586
-786.026
-1975.53
1698.62
1022.44
90.3395
308.409
448.914
-952.211
-1014.43
-1801.76
655.574
1728.46
525.584
-487.205
1240.21
1109.37
-436.374
1054.52
-1004.11
507.829
496.283
716.511
1070.48
-1786.99
500.778
491.555
-1526.15
-766.508
31.7184
802.442
-423.393
-904.881
405.016
-552.292
-821.061
224.184
-591.963
1430.34
1077.55
180.289
197.654
-565.515
1652.18
-789.595
1561.32
-1763.18
589.197
1173.98
560.534
-906.506
-1770.58
1957.64
-187.053
1751.82
188.644
-556.661
180.655
-126.778
-494.599
1240.72
581.198
1150.79
-503.523
448.892
881.536
-476.432
-794.674
432.948
361.726
1450.86
1112.33
-533.223
1455.25
-517.02
-492.235
1009.26
-617.538
497.166
-1223.26
1729.88
1873.37
-703.614
1621.69
-661.648
-1271.38
733.649
-577.409
151.809
-272.49
424.666
-221.345
-532.596
-1269.67
1907.08
-637.407
1202.21
-565.203
1141.37
-1694.17
1725.49
-588.694
-558.159
-563.25
1754.82
-325.084
-706.094
-487.546
1254.26
-1719.8
-1896.28
626.605
324.772
-972.264
175.273
222.093
-1753.74
1225.5
528.242
1182.17
569.649
-523.461
-480.744
1221.59
182.234
235.575
601.904
1271.46
-550.825
-1260.46
1811.29
-1047.54
1039.72
866.335
-207.963
-1694.34
1738.67
-525.022
1442.79
-1770.58
-378.117
16.6434
361.474
-275.898
602.457
-326.559
83.3909
501.297
802.587
-385.144
1278.31
1297.29
-426.398
875.534
-449.213
1855.15
-677.307
1619.64
-1759.84
-421.639
-751.106
301.509
449.597
-573.384
-578.501
72.304
-1092.26
-1006.65
-685.607
1692.25
-955.589
-1212.55
156.237
-415.269
-662.96
720.677
1190.24
664.91
1443.49
-605.583
1675.97
1349.44
-587.467
-507.821
205.386
-518.383
1427.99
1270.18
-577.866
-969.746
916.877
53.7474
-970.624
598.543
-520.986
1434.82
1529.45
-603.697
-67.0378
67.0378
-604.388
1658.59
1270.1
-500.039
1154.91
-62.4053
1853.66
-394.987
1523.99
-603.754
-523.513
1377.85
-669.254
1248.33
-579.081
1589.76
-607.1
755.416
591.728
-1347.14
-653.991
290.479
491.606
615.041
-1992.18
-1000.25
1619.64
67.1395
-67.1395
-76.8914
400.677
447.385
386.176
-14.0103
-320.182
907.39
-525.1
-435.895
836.572
-252.674
639.387
-425.065
1555.32
-459.457
-894.175
190.374
223.675
-414.048
614.93
1271.67
-1886.6
951.678
-470.768
-63.3011
128.613
-1981.92
1853.3
-465.771
193.561
1208.39
-455.106
-753.284
-318.478
-586.403
-503.169
-75.0458
-490.874
260.413
1187.09
-573.028
236.698
-395.407
158.708
-8.39567
-107.613
878.232
-770.619
18.9901
-432.571
-601.221
-96.946
96.946
-1264.31
2004.1
-1326.18
-227.434
-1826.96
237.045
-1044.01
-992.157
-193.241
-1675.37
723.156
1252.85
-1963.44
382.359
318.166
-700.525
-1885.71
1257.2
628.504
-154.219
154.219
-978.041
-12.9395
-1904.51
-571.718
1684.53
-693.46
1671.62
-616.762
-184.967
-1708.66
-602.482
-442.698
-609.171
-105.486
105.486
-1567.89
199.077
1368.82
167.586
205.519
-373.105
560.407
530.971
1022.51
-487.445
1784.08
787.799
-230.722
221.762
532.956
1737.99
-609.471
-566.152
1670.63
475.098
1849.95
-659.706
-1844.16
-1972.91
-661.806
-111.624
111.624
-600.201
242.064
-691.961
1044.98
-478.27
-1096.37
-291.152
1106.06
1886.39
1668.39
-1668.39
-281.487
757.936
1797
608.528
1298.55
147.115
156.453
597.732
589.614
1108.1
-1108.1
230.93
-360.466
-443.578
435.995
976.083
-468.254
-654.28
-1151.96
1741.15
290.267
-1665.27
625.773
-296.166
484.81
1780.19
-606.208
-183.734
-422.809
393.902
737.669
1774.28
-628.107
-524.845
-774.796
1997.03
-887.233
-1109.8
1676.83
-668.623
1246.59
-1861.06
614.467
343.292
-891.744
-186.3
-29.3285
1125.02
-499.097
126.332
634.036
-1662.72
454.687
617.963
-1844.16
-597.074
1822.57
903.614
-1184.48
1796.1
-611.62
1819.11
-589.135
-1229.98
454.396
936.42
-1747.12
942.68
-1481.93
241.947
1239.99
-852.253
-1277.18
-195.903
45.3978
150.505
595.714
279.464
1047.81
-458.801
869.201
-410.4
840.698
754.832
-1595.53
658.389
1090.4
-7.25418
-516.131
523.386
-1782.63
740.18
710.331
116.121
-1143.39
1974.27
-688.59
-1285.68
-551.233
1702.02
843.188
985.328
-1828.52
1251.12
698.096
-411.289
730.617
853.489
1054.4
-601.197
1797
641.008
1808.92
-1207.22
-601.694
-377.529
-333.348
710.877
118.538
-1149.09
1695.27
-553.899
-926.577
926.577
1271.96
608.295
1377.35
214.444
-568.247
290.773
-199.725
714.351
1135.6
497.506
-315.272
-889.31
-589.347
1744.08
-1744.08
612.22
-612.22
1006.31
1044.46
-2050.77
1874.04
-627.444
-595.038
832.47
-965.511
-1072.04
1019.99
706.919
-1726.91
-127.418
-358.817
-649.137
-824.386
2081.59
-1269.37
-626.912
1021.75
993.233
1314.18
660.094
336.503
1031.52
234.849
343.786
710.006
1791.85
-1791.85
683.95
30.4606
-216.616
-1015.74
-557.123
1712.04
987.717
1012.28
-1869.21
-231.959
-370.523
619.112
-347.094
1887.11
-1099.35