/*--------------------------------*- C++ -*----------------------------------*\
  =========                 |
  \\      /  F ield         | OpenFOAM: The Open Source CFD Toolbox
   \\    /   O peration     | Website:  https://openfoam.org
    \\  /    A nd           | Version:  7
     \\/     M anipulation  |
\*---------------------------------------------------------------------------*/
FoamFile
{
    version     2.0;
    format      ascii;
    class       volVectorField;
    location    "16";
    object      U;
}
// * * * * * * * * * * * * * * * * * * * * * * * * * * * * * * * * * * * * * //

dimensions      [0 1 -1 0 0 0 0];

internalField   nonuniform List<vector> 
7807
(
(1.0718 0.104357 4.31012e-20)
(1.06242 -0.0225938 1.34259e-19)
(1.03362 0.0867366 -6.89749e-20)
(1.04672 0.0650479 1.37892e-19)
(1.02405 -0.00214615 2.13038e-20)
(0.994656 -0.0171033 1.65664e-20)
(1.03283 0.0820036 -1.36671e-19)
(1.01994 -0.0025745 5.31196e-22)
(1.02128 -0.00155673 1.85937e-20)
(1.03138 0.00162414 -1.18724e-20)
(1.01305 -0.0069112 -1.82858e-20)
(1.02472 -0.00239235 -3.38914e-20)
(1.01052 -0.00341626 -3.30466e-20)
(1.03085 -0.000933246 -1.40921e-19)
(1.03027 0.00213908 4.95515e-20)
(1.01991 -0.00912205 5.26547e-20)
(1.07253 0.10837 -9.14898e-20)
(1.00173 -0.00126135 9.2068e-21)
(1.02651 -0.00574995 -2.66996e-20)
(1.01249 -0.0658325 1.13391e-20)
(1.04359 0.00342109 -3.80063e-20)
(1.02422 0.000379846 9.62689e-20)
(1.03279 -0.00167411 1.82376e-20)
(1.01431 0.0365354 -8.38402e-20)
(0.988613 -4.26037e-05 3.26959e-20)
(1.06907 0.102723 -4.32268e-20)
(1.02441 -0.00174234 1.77873e-20)
(1.03535 0.000663143 4.64316e-20)
(1.00703 0.0189194 -1.22098e-20)
(1.02631 -0.00568676 2.38284e-20)
(1.01625 -0.00962668 7.51051e-20)
(0.638072 0.0127952 1.41971e-20)
(1.03184 -0.00174442 9.83231e-20)
(1.02198 -0.00304611 -4.03771e-20)
(0.599945 -0.00199637 5.25893e-23)
(1.03203 0.00257052 1.8933e-20)
(1.02732 -0.00718679 1.75502e-20)
(1.0332 0.0808322 -2.32104e-20)
(1.02149 -0.00571666 -9.52047e-20)
(0.953757 -0.00429939 -4.92048e-20)
(1.02189 -0.00569433 9.581e-21)
(1.01993 -0.00877513 1.96527e-20)
(1.03271 -0.0729912 -5.41818e-20)
(1.13724 -0.0204337 -1.94026e-20)
(0.571014 -0.00332652 -2.33255e-20)
(0.972596 0.00345567 1.07408e-20)
(1.02292 0.000503588 -5.85593e-20)
(1.02262 -0.00515963 5.60434e-20)
(1.02107 -0.000751548 1.01646e-20)
(1.01566 -0.0663569 -1.67058e-20)
(1.02522 -0.00187238 2.70427e-20)
(1.03618 0.00165984 -5.01491e-20)
(0.959239 0.000619048 8.98778e-20)
(1.03178 -0.0184347 1.91435e-20)
(1.03188 0.00126227 -1.45758e-20)
(1.02176 -0.00313786 9.73513e-21)
(1.02519 -0.00478647 4.21144e-20)
(1.01512 -0.00245543 -6.27289e-20)
(1.01027 -0.0111576 8.56746e-20)
(1.02189 -0.00377743 4.90314e-20)
(1.02 -0.00130251 -2.46244e-20)
(1.0265 -0.000100815 2.57078e-20)
(1.03161 -0.000313885 -3.18512e-20)
(1.02384 -0.00185885 3.46037e-20)
(0.972666 -0.00718042 -3.75311e-20)
(1.01665 -0.00994519 -1.19852e-20)
(1.02033 -0.00208653 -1.7311e-20)
(1.01788 0.000234702 2.51112e-21)
(1.12969 0.0691207 4.39105e-20)
(1.02284 -0.00452329 2.2575e-20)
(1.00896 -0.00128085 -9.69494e-21)
(1.00519 -0.037152 1.00412e-19)
(1.00659 -0.00190863 -1.62174e-20)
(0.898459 -0.00332981 -1.37089e-20)
(1.01323 -0.00115156 -2.88515e-20)
(1.0013 -0.0171172 1.36684e-20)
(1.03454 0.0876386 1.1051e-19)
(1.04211 0.00307171 4.77589e-20)
(1.08314 0.011444 -9.85011e-20)
(0.994616 -0.0298166 1.13286e-19)
(1.01797 -0.00340582 5.08462e-20)
(1.02043 0.0816207 1.56298e-19)
(1.04543 0.0126838 8.36398e-20)
(0.999778 -0.0043524 -6.10999e-20)
(1.02193 -0.00304196 2.88779e-20)
(0.872428 -0.00631209 -1.56649e-20)
(1.02073 -0.00306025 -8.36772e-20)
(0.986409 -0.00169322 -5.75111e-20)
(1.02304 -0.00186931 -2.43822e-20)
(0.876073 -0.00517089 -3.00455e-20)
(1.00733 0.0215044 8.66439e-20)
(1.16209 -0.00578668 3.01761e-20)
(1.01873 -0.00205097 1.73291e-20)
(1.02518 -0.00478903 1.96754e-20)
(1.01656 -0.00301021 -3.57539e-20)
(0.645187 -0.00393441 1.05696e-19)
(1.00686 -0.036967 -6.0403e-21)
(1.03285 -0.0174299 -3.29821e-20)
(1.0215 -0.00301863 -5.78618e-21)
(0.94572 0.00307304 -1.05809e-20)
(0.939794 -0.0120628 -2.87887e-20)
(1.08353 0.0154347 7.40591e-20)
(1.02021 -0.00197226 8.86808e-20)
(0.622665 -0.00143211 7.65555e-22)
(1.164 0.00400845 1.91303e-20)
(1.03527 0.0344445 -8.34295e-20)
(0.865552 0.0463854 1.929e-20)
(1.02167 -0.00299585 3.72002e-20)
(1.01664 -0.000778912 -8.66565e-22)
(1.03952 -0.0054226 -4.03446e-20)
(1.04855 0.0624204 -1.60042e-19)
(1.04463 -0.0519604 1.026e-19)
(1.01704 -0.000526187 1.07966e-21)
(1.041 -0.00565707 -8.75426e-21)
(1.03172 0.0336651 8.70845e-20)
(1.02243 -0.000320932 -1.30593e-20)
(1.08036 -0.0611031 7.54817e-21)
(1.03546 0.0216152 -2.30954e-20)
(1.01374 -0.0290792 -6.16582e-20)
(0.954456 -0.0019841 1.46144e-20)
(0.772525 -0.00705558 6.79548e-20)
(1.00785 0.0607298 -1.0406e-19)
(1.03756 -0.0718976 7.44316e-20)
(1.02905 -0.00325549 1.12561e-20)
(0.844386 -0.00862147 -2.67154e-20)
(1.02278 -0.00229851 -5.18513e-20)
(1.01773 -0.0070734 -2.75734e-20)
(1.02531 -0.00520512 -3.23229e-20)
(0.878238 -2.22868e-05 8.53388e-20)
(1.01688 -0.00868427 -1.81038e-21)
(1.19418 -0.0173078 8.85225e-21)
(1.07873 0.00933349 1.65186e-20)
(1.02266 -0.00338957 -3.80304e-21)
(1.0225 -0.0020424 5.41345e-20)
(0.986539 -0.00458456 -1.74961e-20)
(1.04606 0.0570698 6.37138e-20)
(1.02257 0.104123 1.74964e-19)
(0.862994 0.00546093 2.27772e-21)
(1.0296 -0.00176198 6.17326e-21)
(0.664544 0.0042443 7.2439e-20)
(0.796905 -0.00478178 5.99775e-20)
(1.0172 -0.0412978 7.73339e-20)
(1.00173 -0.0185707 -1.83191e-20)
(0.892762 -0.00199139 1.08143e-21)
(0.719895 0.00752716 7.58698e-20)
(1.03391 -0.02907 5.05964e-21)
(1.01465 0.0219501 -4.62629e-20)
(1.01168 -0.0136601 4.60434e-20)
(0.70156 0.00350036 -1.27975e-20)
(1.00988 0.073078 -5.19485e-20)
(1.034 0.00337367 5.53229e-20)
(1.15143 -0.00894608 1.31103e-20)
(1.02318 -0.00205319 8.14261e-20)
(1.13435 0.0632571 1.04985e-20)
(1.04381 0.0120379 -8.85951e-20)
(1.03632 0.0812645 -1.20033e-19)
(0.998009 -0.020576 -4.92773e-20)
(0.977 -0.0057975 -1.24227e-20)
(1.03098 0.0676576 1.74211e-19)
(1.02102 -0.00250455 1.07174e-20)
(1.02522 -0.00480018 -4.91016e-20)
(1.01544 0.0406446 5.76038e-20)
(1.01795 -0.00243857 -1.29908e-20)
(1.02274 -0.00383921 9.84544e-20)
(1.00231 -0.000212984 1.58896e-20)
(1.00699 0.0499993 -1.73654e-20)
(1.00416 0.043536 6.24092e-20)
(1.02436 0.0642272 5.41998e-20)
(1.02247 -0.00419065 4.25997e-20)
(0.816843 -0.00140291 2.00076e-20)
(1.01893 0.00129044 -2.51351e-21)
(0.519214 -0.0040147 1.08349e-19)
(1.02275 -0.000786225 1.74586e-20)
(1.06373 -0.0196992 -1.5708e-19)
(1.02933 -0.00218181 4.02292e-20)
(0.793655 -0.00255167 -2.55661e-20)
(1.1555 0.0118912 3.55989e-20)
(1.09551 0.0667229 3.56838e-21)
(1.01934 -0.00239622 -1.00417e-20)
(1.02288 -0.00211014 4.98062e-20)
(1.04809 0.0671079 -2.29457e-20)
(1.01118 0.000241324 4.59996e-21)
(0.813073 -0.0101989 -5.42772e-21)
(1.03293 0.0827586 -1.12346e-19)
(1.06434 -0.0248437 6.80648e-20)
(1.03395 -0.0432705 6.53289e-20)
(1.01508 -0.0280936 8.85009e-20)
(0.9891 -0.00449443 -4.42674e-20)
(1.03186 -0.0301656 -1.24875e-20)
(0.616064 -0.00464153 -3.8422e-20)
(1.0171 -0.00290492 4.07178e-21)
(1.00738 -0.0344729 2.47306e-20)
(1.09713 0.0722768 -6.60443e-20)
(1.0212 -0.00189314 -1.27676e-20)
(1.02129 -0.000454911 -1.23212e-20)
(1.0751 0.0687692 5.17776e-21)
(1.02177 0.00132033 -8.10809e-20)
(1.01741 -0.00823644 -4.11094e-20)
(1.02967 -0.0285061 -4.47279e-20)
(1.01944 -0.000995683 -1.05714e-21)
(1.02317 -0.00181387 -4.22943e-20)
(1.04319 0.0575482 7.2131e-20)
(1.08716 0.0760349 -7.45369e-20)
(1.0336 0.0790573 -1.5748e-20)
(1.07679 -0.0561641 -4.25574e-20)
(1.04739 -0.0490418 -2.11057e-20)
(1.11902 -0.0841811 1.09708e-20)
(1.03412 -0.00171493 1.25276e-19)
(1.03991 0.0561317 -2.66657e-20)
(0.77682 -0.0166098 2.28453e-20)
(1.0209 -0.000580519 7.12424e-21)
(0.573134 0.0498539 -8.24157e-20)
(1.02042 -0.00864715 2.13435e-20)
(1.02261 -0.00369723 3.37911e-20)
(1.009 -0.0339331 -5.727e-20)
(1.01744 -0.00746459 3.05822e-20)
(1.03928 0.0772928 -1.44073e-19)
(1.03697 0.0770858 -3.20776e-20)
(1.01529 -0.0423175 -1.99492e-20)
(0.891638 0.0288609 -5.75597e-20)
(1.02494 1.90214e-05 6.14583e-20)
(0.976382 -0.00212768 -3.21907e-20)
(0.904776 -0.0111301 -3.72983e-20)
(1.04178 0.006525 -2.47987e-20)
(1.03616 -0.0933563 5.00019e-21)
(1.08575 0.10518 -1.03675e-19)
(1.0332 0.0648532 -1.52127e-19)
(1.0202 -0.00152126 1.79032e-20)
(1.0284 -0.00347658 1.48518e-20)
(1.03311 0.0240979 1.20725e-19)
(1.02253 -0.00431837 7.47445e-20)
(1.03799 0.0221639 -1.59244e-20)
(1.02288 -0.00187551 1.76786e-20)
(1.00225 0.059136 1.05968e-19)
(1.03599 0.079136 2.4729e-20)
(1.01998 -0.00264983 -5.09973e-20)
(1.02645 -0.00526387 -2.94482e-21)
(0.99351 -0.0035981 9.38722e-20)
(1.11234 0.0895688 3.54686e-20)
(0.806342 0.00905992 -1.79524e-20)
(1.02169 -0.00660419 -2.09103e-20)
(0.96615 -0.0189652 -4.28369e-20)
(1.02066 -0.00139547 4.04438e-21)
(1.02216 -0.00307284 2.14394e-20)
(1.02286 -0.00195145 -1.96112e-20)
(1.06875 0.0466865 8.12993e-20)
(1.01881 -0.00230839 -1.70833e-20)
(0.757031 0.00500812 -1.32975e-22)
(0.996249 -0.0297005 -1.32179e-19)
(0.509022 0.0176886 -3.10361e-20)
(1.07832 0.00553102 -2.43332e-20)
(1.01203 0.0504187 8.46973e-20)
(0.96508 -0.00779554 1.31424e-20)
(1.02795 -0.0291767 -3.8101e-21)
(1.02157 -0.00285004 3.86362e-20)
(1.03509 0.0821778 -1.14484e-19)
(1.02491 0.000526645 -3.17433e-20)
(1.02967 0.104431 5.58215e-20)
(1.02606 -0.00652512 -7.90986e-20)
(1.02404 -0.00137615 5.38482e-20)
(1.04513 -0.0193107 -6.08523e-20)
(1.03354 -0.000483346 -1.16795e-19)
(1.02262 -0.000645497 2.69817e-20)
(0.995321 -0.00633581 -1.54472e-21)
(1.02268 -0.000952758 6.81297e-20)
(1.02268 -0.00451025 6.31292e-20)
(1.03945 -0.0449627 -8.13881e-20)
(1.0075 -0.00782465 -8.71017e-21)
(0.998987 -0.01957 -3.60891e-20)
(1.01587 -0.000686152 3.38602e-21)
(1.01765 -0.00258874 -1.82134e-20)
(1.02281 -0.00355268 -1.01665e-20)
(1.03192 0.0914968 1.32496e-19)
(0.704633 -0.00336292 -1.5057e-20)
(0.863568 -0.00230688 9.32711e-21)
(0.382488 0.0294198 1.31713e-19)
(1.02203 -0.00344532 4.06924e-20)
(1.06527 0.0838708 -5.57245e-20)
(1.02143 -0.0029029 -5.62905e-20)
(1.02924 -0.0138289 5.83136e-20)
(1.02033 0.000702267 -7.86738e-22)
(1.01342 -0.0230192 3.79731e-20)
(1.0418 0.0063943 3.57987e-20)
(1.15665 0.0198292 -8.22617e-20)
(1.01039 -0.0122069 -7.34306e-20)
(1.02221 -0.00235788 -6.21732e-20)
(1.01182 -0.0553094 -2.85682e-20)
(0.193802 0.000783544 -4.06667e-20)
(0.77683 0.010596 -3.3405e-21)
(1.02268 -0.000840738 -6.04511e-20)
(1.02302 -0.00304403 -4.72429e-20)
(0.944758 -0.00983444 4.83186e-20)
(1.02647 -0.000804362 -5.23281e-20)
(1.02264 -0.0022382 -2.71321e-20)
(1.00124 -0.0041519 -1.03314e-20)
(1.04281 -0.0431402 5.4696e-20)
(0.987183 -0.00240268 -4.48446e-20)
(1.13128 -0.0140343 5.55315e-21)
(0.933271 -0.00323088 4.7525e-20)
(1.04181 0.0871258 1.2971e-20)
(1.04006 0.0882846 -9.74997e-20)
(1.02265 -0.00171411 4.28882e-20)
(1.17529 0.0194425 1.0434e-19)
(1.01647 -0.00382827 1.62599e-21)
(1.02331 -0.00359183 5.02759e-20)
(0.474056 0.00528022 -1.08974e-19)
(1.01095 0.0327331 4.93435e-20)
(1.04661 0.0163561 -7.37469e-20)
(1.02044 -0.0017762 2.4456e-20)
(1.02328 -0.00290193 7.31904e-21)
(0.966104 -0.00318935 -3.58803e-20)
(1.05653 0.0425861 -3.28195e-20)
(1.02281 -0.00233739 -2.93882e-20)
(1.0241 -0.00133931 2.40596e-20)
(1.02367 -0.000548923 -5.62171e-21)
(1.11582 0.0311148 8.52208e-20)
(1.19395 -0.0282485 5.43913e-20)
(1.05064 0.0977667 6.45716e-20)
(0.920406 0.00170299 3.98903e-20)
(1.07146 -0.0230292 -1.33256e-19)
(1.01944 -0.00216653 1.7603e-20)
(1.02688 -0.0049228 -8.27717e-20)
(1.01663 -0.00278243 3.75176e-21)
(1.01555 -0.0133443 -1.26432e-20)
(0.997896 -0.0041747 1.61282e-20)
(1.03231 -0.0128515 8.15769e-21)
(1.19523 0.0227694 -8.84708e-20)
(1.007 -0.0180915 -7.1669e-20)
(1.0301 -0.0130675 -1.70207e-20)
(1.02785 -0.0029015 -2.44613e-20)
(0.954403 -0.00903941 -4.29836e-20)
(1.04153 -0.00926494 2.67828e-20)
(1.02283 -0.0116473 -3.72271e-20)
(1.07864 0.0191453 -3.68466e-20)
(1.06474 0.0453247 3.94229e-20)
(1.16217 -0.0931827 -8.09523e-22)
(1.13516 -0.0283462 4.86373e-20)
(0.343206 -0.00246173 4.34068e-20)
(1.02679 -0.00205257 5.79352e-20)
(0.968485 -0.0179727 1.75185e-20)
(1.01742 0.0602226 -1.69796e-19)
(1.11897 -0.029667 -8.53905e-20)
(1.03966 -0.00333094 -7.92815e-20)
(0.952895 0.0373163 -8.05261e-20)
(0.839031 -0.010954 -1.95168e-20)
(1.02241 -0.00187942 1.1732e-20)
(1.14899 -0.0175315 4.82893e-20)
(1.02313 -0.0026129 2.40353e-20)
(1.03407 -0.0267364 -1.7333e-20)
(1.02724 -0.00227545 1.84758e-20)
(0.892674 -0.0019477 1.92693e-20)
(0.924622 -0.00252049 3.97559e-20)
(1.03793 0.0303273 6.62725e-20)
(1.02046 -0.00187643 7.55951e-21)
(1.02264 -0.000256566 -2.37585e-20)
(1.02032 -0.000446635 2.12485e-20)
(0.958059 0.00155298 -8.89676e-20)
(1.02123 -0.00626235 -5.64717e-20)
(1.00565 -0.014438 -1.82083e-21)
(1.00912 -0.000910082 -5.84705e-21)
(1.01107 -0.010525 -2.66252e-20)
(0.791864 0.0240693 4.69265e-20)
(1.03149 -0.0137957 -3.66499e-20)
(1.02065 -0.00814011 -7.89658e-20)
(1.03867 0.072916 2.22554e-20)
(1.00455 0.0506267 1.00235e-19)
(1.07025 0.00951471 -3.52892e-20)
(1.16763 0.0238678 -3.96879e-20)
(0.389454 0.00669829 -5.90611e-20)
(1.02679 -0.00236382 -3.02858e-20)
(1.01507 0.0546517 -4.98785e-21)
(0.923575 -0.00313491 7.0429e-20)
(1.05365 0.0835734 2.70009e-21)
(1.03165 -0.0325878 -2.15502e-21)
(1.0544 -0.0823482 2.40982e-20)
(1.08392 0.0736059 4.59229e-20)
(1.05508 0.0866312 -6.32537e-20)
(0.999648 -0.0165997 -8.51672e-20)
(1.04809 0.0146089 -5.20843e-20)
(1.08861 0.108822 9.73966e-20)
(1.06155 0.0841168 9.91606e-20)
(1.03525 0.000893042 4.03407e-20)
(1.02161 -0.00206679 -2.10429e-20)
(1.02174 -0.00319005 -1.44233e-20)
(1.01583 -0.00116564 8.6126e-21)
(1.03601 -0.0167525 2.52516e-20)
(0.851393 0.00139554 -1.62615e-20)
(1.02305 -0.00263558 -3.07162e-20)
(0.991434 -0.0102859 1.49669e-20)
(1.02281 -0.00118531 -1.62314e-20)
(1.00981 -0.0543485 4.71863e-20)
(1.1024 0.0395998 3.14243e-20)
(1.00575 -0.00353652 6.69882e-20)
(1.02328 -0.00776554 -8.9975e-20)
(0.960382 0.00239209 4.4446e-20)
(1.06962 -0.0252999 4.72817e-21)
(0.96845 -0.00764883 8.49315e-20)
(1.02512 -0.00450816 5.87615e-20)
(1.09837 0.106166 1.53909e-20)
(0.946673 0.00117976 9.79403e-20)
(1.01942 -0.00211678 1.45532e-20)
(1.02091 -0.00186324 5.25809e-21)
(1.02022 -0.00173432 3.37964e-20)
(1.00273 -0.00430142 -2.54377e-20)
(1.03605 0.0278052 -8.33574e-20)
(0.863501 -0.00611348 -1.20608e-21)
(1.03737 -0.00375851 5.41817e-20)
(1.04257 -0.0978436 -3.5752e-20)
(1.03363 0.0803269 -2.5569e-21)
(1.02642 -0.00523781 3.1412e-20)
(1.02869 -0.00297842 -5.45459e-21)
(1.0213 -0.00303607 4.17027e-20)
(1.02683 0.0918869 -1.30699e-19)
(0.857208 -0.00410022 -2.13975e-20)
(1.05238 0.100217 -3.35253e-20)
(1.0119 0.022892 -8.50972e-20)
(1.00345 -0.003346 -1.71062e-20)
(1.0301 -0.0333633 4.90019e-20)
(0.994648 -0.000934758 4.33835e-20)
(1.0198 -0.0419925 -9.71735e-20)
(1.02226 0.000380074 2.28306e-20)
(1.06614 0.0117493 4.77323e-20)
(1.02878 -0.00985237 -1.76105e-21)
(1.0281 -0.00207599 9.09116e-21)
(0.977498 -0.00759377 5.40717e-20)
(1.073 0.0444924 4.25634e-20)
(1.05256 0.0416652 1.23525e-20)
(1.0325 -0.0452068 -5.52274e-20)
(1.01156 -0.0126001 4.76733e-21)
(1.02326 -0.00320785 3.3243e-20)
(1.02596 -0.0260529 1.13084e-19)
(1.13091 0.0553983 -6.42303e-20)
(0.74389 0.0228089 -7.04087e-20)
(1.09134 -0.0507352 3.95995e-20)
(1.02742 -0.00514285 -1.72267e-20)
(1.01746 -0.000911639 8.50051e-22)
(1.0154 -0.00292475 6.56452e-20)
(0.933687 -0.00359808 -7.82855e-20)
(1.04115 -0.00917419 4.43009e-20)
(1.03006 -0.076778 1.94012e-20)
(1.17474 0.0085065 -3.94606e-20)
(1.03365 0.0808876 -1.50446e-19)
(1.05985 0.0397676 5.91017e-20)
(1.12033 -0.0745694 -4.04331e-20)
(1.07512 0.0733897 1.76705e-20)
(1.01295 0.0782633 1.62422e-19)
(1.03568 -0.00207939 4.62919e-20)
(1.02333 -0.00161577 6.76923e-20)
(1.03793 0.062261 3.59829e-20)
(1.02309 -0.0024829 -5.11416e-20)
(1.02064 -0.00308246 -1.50569e-20)
(0.651843 -0.00164963 -1.74734e-20)
(1.02227 -0.00141408 5.15093e-21)
(1.12702 -0.0909292 -1.45121e-20)
(1.02709 -0.0110335 4.15791e-20)
(1.01478 -0.0227546 -6.88201e-20)
(1.02371 -0.00112906 2.16933e-20)
(1.07102 0.0665629 9.76561e-20)
(0.954001 -0.00130016 8.14807e-21)
(1.01935 -0.00230575 1.03471e-22)
(1.04885 -0.0862474 -2.4913e-20)
(1.02372 -0.000374553 -1.33965e-20)
(1.10302 0.00745109 -9.25255e-21)
(0.941995 -0.0115532 -1.43844e-20)
(0.829341 -0.00490314 -4.39892e-21)
(1.17655 0.0600054 -7.44449e-21)
(1.03059 0.0228511 -3.08733e-20)
(1.02755 0.00741531 2.12629e-20)
(1.02586 0.00673515 -1.00143e-20)
(0.980174 -0.0145501 -4.93021e-21)
(1.10871 0.0392603 2.48606e-20)
(1.0789 0.0223876 4.45004e-20)
(1.02349 -0.00277873 -2.0218e-20)
(1.01135 -0.003414 -7.74661e-20)
(1.02321 -0.00033085 -2.53078e-20)
(1.03221 -0.0116562 -9.61475e-20)
(1.03124 -0.0179749 1.79044e-20)
(1.02728 -0.00132431 -5.70492e-22)
(1.02276 -0.00235314 6.40362e-20)
(1.112 0.0834857 -1.0505e-19)
(1.01861 -0.0030554 1.75036e-20)
(1.02212 0.000134366 -1.48469e-20)
(1.02585 -0.00100733 -3.20277e-22)
(0.756176 -0.00390705 -4.14915e-20)
(1.0353 -0.00523336 5.41026e-20)
(1.01422 -0.0189132 1.02157e-19)
(0.826492 0.000134778 2.06869e-20)
(1.03656 -0.0426602 -3.66601e-20)
(1.05807 -0.105828 3.93539e-20)
(1.04377 -0.0174824 3.24914e-20)
(1.04166 0.0615186 -2.07321e-19)
(1.18662 0.0273719 5.31558e-20)
(1.02053 -0.00378894 5.22667e-21)
(0.99519 0.0545649 1.22407e-19)
(1.00875 -0.038574 -9.18399e-20)
(1.02111 -0.00686413 -1.68877e-20)
(0.768434 0.00540141 -3.58174e-20)
(1.02322 -0.0114364 7.75781e-21)
(0.657334 0.00579599 -6.73413e-20)
(1.01778 -0.00270774 2.39256e-20)
(1.04033 -0.00546429 -6.02223e-20)
(1.12598 -0.0324301 1.85906e-20)
(1.01941 -0.00217764 1.4084e-21)
(1.03799 -0.00520758 -4.31814e-21)
(1.01413 -0.000527506 9.08967e-21)
(1.0385 0.0817922 3.23988e-20)
(1.1305 0.0743817 9.76569e-20)
(1.02167 -0.00280029 -1.43898e-20)
(0.726725 -0.000428689 8.0892e-20)
(1.01025 -0.00307563 3.06675e-20)
(1.01452 0.0842729 1.03279e-19)
(1.04831 0.0861276 8.02638e-20)
(1.11093 0.0325366 -4.64429e-20)
(1.11451 0.103954 -8.30882e-20)
(1.00871 -0.0410697 3.92824e-20)
(1.01083 0.0704622 -1.53771e-19)
(1.02043 -0.0017881 -1.57586e-20)
(1.05881 -0.0124896 1.05381e-19)
(0.512864 0.011171 2.18629e-21)
(1.08981 0.0647449 -2.48369e-20)
(1.02649 0.0585725 -1.06696e-19)
(1.13438 0.0499584 9.79415e-20)
(1.05496 0.0345721 9.63113e-21)
(1.02373 -0.00773821 2.71723e-20)
(1.01943 -0.00421817 2.64449e-20)
(1.11774 0.0925867 3.69165e-20)
(1.18276 -0.010775 -1.65221e-20)
(1.02601 0.088556 -3.97168e-21)
(1.09706 0.0060481 1.14724e-19)
(1.04065 0.0522738 6.47636e-20)
(1.01806 -0.00435716 1.5541e-20)
(1.03285 0.0811429 4.13594e-20)
(1.05027 0.083373 3.03274e-20)
(1.01884 -0.00184856 7.27068e-20)
(1.02103 -0.00358842 3.2349e-20)
(1.12721 0.0858135 2.68418e-21)
(0.777252 0.0031067 7.22132e-20)
(1.02044 -0.00191357 2.08412e-20)
(1.0175 -0.00329899 -8.56688e-20)
(0.923902 -0.014826 -5.45967e-20)
(1.01785 -0.0532009 9.91287e-21)
(1.02886 -0.00187916 -8.43938e-20)
(1.02762 -0.00238812 7.56267e-21)
(1.02204 -0.00254693 2.67853e-20)
(1.04932 0.0889587 -1.19119e-19)
(1.02484 -0.0076395 -6.96506e-21)
(1.01939 -0.00196613 -8.12192e-21)
(1.04239 -0.039072 -6.54196e-20)
(1.02257 -0.00339621 -1.59283e-20)
(1.01718 -0.00458987 -2.56344e-21)
(1.02671 -0.00728395 -1.85744e-20)
(1.06325 0.0668563 1.25194e-19)
(1.0422 -0.0758624 -3.73501e-20)
(1.03877 0.0684368 6.56998e-20)
(1.02058 -0.00102384 -1.66106e-20)
(1.06686 0.0691275 -1.32681e-19)
(1.03641 -0.033108 -5.10394e-20)
(1.021 -0.0023051 5.4776e-21)
(1.01987 0.000236305 -8.34303e-21)
(1.00428 0.0147451 -1.45467e-20)
(1.05922 0.0601739 4.7571e-20)
(1.02177 -0.00315073 -1.54438e-20)
(1.05457 0.0499249 -6.76592e-20)
(1.01953 -0.000196001 6.17435e-21)
(1.05555 0.0542006 -9.12826e-20)
(1.14928 -0.0950587 -3.97612e-20)
(1.01375 -0.00168632 -7.87138e-20)
(1.00292 0.0510618 -2.0617e-19)
(1.00925 -0.0317796 -6.93895e-20)
(1.11826 0.0997805 8.52527e-20)
(0.791501 -0.00326263 -2.12249e-20)
(1.05909 0.0559026 1.17088e-19)
(1.06305 0.0620885 -3.43451e-20)
(1.01493 -0.0044314 -1.16472e-19)
(1.0109 -0.00524909 6.90951e-20)
(1.02182 -0.00644513 -6.48762e-20)
(1.01044 -0.00150376 1.75235e-20)
(1.02087 -0.00294895 -3.39694e-20)
(1.02474 -0.00759183 1.14749e-20)
(1.05568 0.0801413 -1.54794e-20)
(1.01934 -0.00228809 -3.89856e-21)
(1.0504 0.0486512 8.89361e-20)
(1.05345 -0.0755259 -6.42889e-20)
(1.02701 0.0710375 4.06181e-20)
(1.04968 0.0448053 -1.04021e-19)
(0.893593 -0.0125615 7.35993e-21)
(1.03358 0.0734744 -1.41422e-19)
(1.02275 -0.00212008 1.51352e-23)
(1.03566 -0.0152613 3.7764e-20)
(1.06719 -0.0512906 -2.34634e-20)
(0.664261 0.00135809 4.02739e-21)
(1.02126 -0.00368096 -4.82798e-20)
(1.03447 -0.0342951 4.05727e-20)
(1.06269 -0.0052261 -9.31033e-21)
(0.971536 0.0420251 1.57002e-19)
(1.01889 -0.00097434 2.30396e-20)
(1.02257 -0.00212589 -2.68841e-20)
(1.04126 -0.0515626 1.58842e-22)
(1.02067 -0.0007912 1.34703e-21)
(1.0388 0.083968 1.56794e-20)
(1.02362 -5.90212e-05 0)
(1.0195 0.000809783 1.17254e-21)
(1.02035 -0.000193168 3.66405e-20)
(1.02354 9.78978e-05 4.4445e-22)
(1.01574 -0.0125513 -8.62079e-20)
(1.03793 -0.00817911 -3.05354e-20)
(1.02281 -0.00220577 -5.28125e-20)
(0.981818 0.0135878 -1.80007e-20)
(1.02119 -0.00367782 -2.52815e-20)
(1.02634 -0.00736803 -2.04441e-20)
(1.02121 -0.0820318 4.83961e-20)
(0.520631 -0.000381067 -5.9296e-21)
(1.03476 -0.00467338 8.35514e-20)
(0.866133 -0.00653751 -1.00201e-20)
(1.1096 -0.112683 -4.98189e-20)
(1.0065 -0.00472091 3.59424e-20)
(1.11758 0.0783444 -7.38898e-21)
(1.0014 0.0263267 -3.32882e-20)
(1.02314 -0.00229255 1.96986e-20)
(1.10889 0.0694534 -1.0911e-19)
(1.02024 -0.000578959 -7.08576e-22)
(1.0147 -0.00376486 -7.1137e-22)
(1.03241 0.00225068 -5.94895e-20)
(1.02131 -0.00377197 1.95119e-20)
(1.0649 0.0757611 -7.83791e-21)
(1.01825 -0.00406876 6.63342e-20)
(1.05927 -0.0105263 -8.16878e-20)
(1.03295 0.0039236 -6.01326e-20)
(1.06407 0.0414045 -2.30416e-20)
(1.02887 -0.00908235 -5.32534e-20)
(1.0192 -0.00282796 -1.92211e-21)
(1.07977 0.0660816 6.64035e-20)
(1.01279 -0.0587515 4.98156e-20)
(1.03514 0.0836006 1.2691e-19)
(1.02028 -0.00353788 8.94538e-20)
(1.06647 0.0916008 4.27532e-22)
(1.02043 -0.00305575 -2.38741e-20)
(1.02386 -0.00140626 4.6056e-21)
(1.05424 0.0320614 2.83341e-20)
(1.03506 -0.0180525 -2.81451e-20)
(1.04325 0.00956584 8.61465e-20)
(1.02218 -0.00076299 1.4934e-20)
(1.01991 0.00106505 5.43007e-22)
(1.03088 -0.0952996 -1.7837e-20)
(1.09783 0.101415 -9.61103e-20)
(1.02337 -0.00226206 -1.76487e-20)
(1.11568 0.0713358 1.21279e-20)
(1.01862 -0.0040585 4.72849e-20)
(1.10212 -0.118631 1.68482e-20)
(1.0587 -0.0231067 1.24608e-20)
(1.01397 -0.0202105 -5.52889e-20)
(1.0229 -0.00199928 2.10963e-20)
(0.792865 -0.00419582 1.90128e-20)
(1.00815 -0.0494393 3.41494e-20)
(0.985975 -0.0045383 -7.7699e-20)
(1.01981 -0.00262326 -6.01449e-20)
(1.0218 -0.00225233 -2.4874e-20)
(1.03322 0.0849342 -1.38126e-20)
(1.10689 0.0630725 6.9267e-20)
(1.03863 -0.00397415 -1.949e-20)
(1.02059 -0.00330144 -2.30774e-20)
(1.04884 0.0806542 -5.71304e-20)
(1.01922 -0.000951033 6.66802e-21)
(1.0203 -0.00312271 -4.7821e-20)
(1.10041 0.0617168 5.90404e-20)
(1.03163 -0.0150587 5.22659e-20)
(1.10566 0.0938411 8.82932e-20)
(1.03534 -0.000815968 3.38949e-20)
(1.03423 -0.00669575 -1.04043e-20)
(1.09824 -0.0394484 -3.53656e-20)
(1.07161 -0.0957594 -4.79732e-20)
(1.17701 0.0533505 -3.56761e-20)
(1.02365 -0.000676193 -4.01608e-20)
(0.966086 -0.0114736 5.08173e-21)
(1.0197 -0.00157849 4.76613e-21)
(1.02676 -0.0074635 1.33537e-20)
(1.06722 0.0733724 4.51754e-20)
(1.01564 -0.00401064 -8.68505e-20)
(1.02201 -0.00206013 -2.70325e-20)
(1.03612 -0.0256121 5.58113e-20)
(1.02258 -0.00219584 -1.48859e-21)
(1.02289 -0.00205472 -3.58021e-20)
(0.399833 0.00721527 2.79113e-20)
(1.01991 -0.00368312 4.66085e-20)
(1.02229 -0.00305391 6.7114e-20)
(0.607541 -0.0034253 2.77273e-21)
(1.02195 0.00825922 8.97165e-20)
(1.00743 -0.016851 1.04629e-20)
(1.02216 -0.00247374 -3.12785e-20)
(1.02013 -0.000557753 -3.61424e-20)
(1.02842 0.0252496 3.26792e-20)
(1.0699 0.0184815 8.25929e-21)
(0.999161 -0.0149605 5.38911e-20)
(1.0188 -0.000936824 7.50122e-21)
(1.00217 0.018095 2.0057e-19)
(1.01635 -0.0109438 6.23736e-20)
(1.07078 0.061947 -1.01456e-19)
(1.03055 -0.000944027 -9.11322e-20)
(1.03137 -0.000346124 1.84496e-19)
(0.996569 -0.00540185 -1.00451e-19)
(1.01959 -0.00168132 5.72843e-21)
(1.03215 0.000905306 -7.3373e-21)
(1.07401 0.016485 -1.53431e-20)
(1.15808 0.0563298 7.4304e-20)
(1.05836 -0.0712511 -2.0449e-20)
(1.05358 0.0772989 4.89357e-20)
(1.02867 -0.00126926 -2.20904e-21)
(1.08449 0.0688478 -9.11122e-20)
(1.02408 -0.00933233 3.47004e-20)
(1.03924 -0.0375599 9.98535e-20)
(1.02153 -0.00305024 2.58612e-20)
(1.02688 -0.0116645 -8.43406e-20)
(1.02179 -0.00212001 -2.20168e-20)
(1.05098 0.0369776 -7.70145e-20)
(1.07742 0.0982501 -1.49651e-19)
(1.02298 -0.00208425 -1.62254e-20)
(1.03512 -0.00602123 6.70722e-21)
(0.987298 -0.00201879 -2.8772e-20)
(1.0609 -0.0607242 -1.20487e-20)
(1.05676 -0.0652747 3.22069e-20)
(1.02221 -0.00230921 -2.85123e-20)
(1.0561 -0.0130435 -4.2009e-20)
(0.17487 -0.00480778 -4.68616e-20)
(1.15573 0.0411705 6.65233e-20)
(1.02069 -0.00178559 -3.98376e-20)
(1.06614 0.0159258 -3.28921e-20)
(1.02278 -0.00616229 4.96291e-20)
(0.6177 0.0101832 1.79961e-19)
(1.01851 -0.00380379 -6.40214e-20)
(1.02243 -0.0168766 2.25814e-20)
(1.03756 -0.0220931 -2.35328e-21)
(1.02174 -0.0173534 8.63263e-22)
(1.02382 -0.0132143 8.72973e-20)
(1.02119 -0.00359019 -1.56579e-20)
(1.02363 -0.00944979 -7.51461e-20)
(1.02511 -0.00426446 -1.78541e-20)
(1.06433 -0.00818763 1.87472e-20)
(1.01943 -0.00140924 -3.53449e-20)
(1.18182 -0.0632328 2.36513e-20)
(1.14505 0.00797587 2.81125e-20)
(1.04378 0.0877663 9.2915e-20)
(1.00054 -0.0139045 -8.46538e-20)
(1.09981 0.0900097 -4.42198e-20)
(1.02352 -0.000498735 4.47954e-20)
(1.07961 -0.0495778 -1.64812e-21)
(1.02881 -0.0246858 5.06392e-20)
(1.02637 0.0423923 7.77955e-20)
(1.02125 -0.00379822 -4.42314e-20)
(1.02108 -0.00132477 2.63577e-20)
(1.01683 -0.0114113 -8.64757e-20)
(1.02215 -0.00648782 2.53734e-20)
(1.05333 -0.0117182 6.93899e-20)
(0.955668 -0.00196541 6.8258e-20)
(1.00845 -0.00482267 -2.29914e-20)
(1.12166 -0.0150661 2.20575e-20)
(0.941253 -0.00124643 5.46616e-20)
(1.03589 -0.0234918 -4.68242e-20)
(1.01913 -0.0566296 -4.13452e-20)
(1.0194 -0.00169413 1.17452e-21)
(1.06453 -0.00187296 8.05157e-20)
(1.02032 -0.0503138 1.25573e-19)
(1.10506 0.0804092 4.90006e-20)
(1.09887 -0.0452541 5.78282e-20)
(1.0421 0.0087267 8.84767e-21)
(1.04756 -0.0728701 8.61293e-20)
(1.05405 0.0928993 2.77535e-20)
(1.04959 -0.0205271 6.30966e-20)
(0.985567 -0.0046857 5.97012e-20)
(1.03633 -0.0305244 7.23459e-20)
(0.375455 0.0234571 5.16164e-20)
(1.15031 -0.0672843 -2.30043e-20)
(1.01777 -0.00369698 1.98167e-20)
(1.04931 -0.0937746 5.05956e-21)
(1.04618 -0.0446486 -6.07867e-20)
(1.06134 -0.0851866 3.19396e-21)
(1.05875 -0.0554878 4.89919e-20)
(1.07935 0.0612208 8.70483e-20)
(1.02205 -0.00223947 -1.34898e-21)
(1.01279 0.0526093 2.72496e-20)
(1.0284 -0.000933006 2.00434e-20)
(1.0223 -0.00226242 3.88012e-20)
(1.02333 -0.00229615 -1.14414e-19)
(1.06301 0.0102743 -1.67745e-20)
(0.10339 0.00675286 1.10123e-21)
(1.02502 -0.00437647 2.56913e-20)
(1.03911 -0.0345207 -1.30628e-20)
(1.02859 0.0283602 -5.3315e-20)
(1.01957 -0.000846425 -1.19403e-21)
(1.01169 -0.00504534 -5.89372e-20)
(1.03666 -0.00411543 5.38815e-20)
(1.08032 -0.0218194 8.02469e-20)
(1.02825 -0.000745939 1.04894e-19)
(1.02334 -0.0028909 -1.59172e-20)
(1.0148 -0.026066 2.60512e-22)
(1.02324 -0.00594918 2.56799e-20)
(1.0189 0.000874757 1.39254e-20)
(1.01077 -0.0311298 1.18691e-19)
(1.05874 0.072826 -1.95206e-20)
(1.03823 -0.0187824 -9.29142e-21)
(1.00533 -0.00105932 5.30907e-20)
(1.02455 0.000100567 -1.69282e-20)
(1.03182 0.0305579 7.08931e-20)
(1.02278 -0.00259475 1.51734e-20)
(1.02342 -0.00211226 3.39474e-21)
(1.02176 -0.00312386 2.58927e-20)
(1.02315 -0.00233336 4.60991e-20)
(1.14752 0.0565076 5.12076e-20)
(1.04462 -0.0213811 1.51193e-19)
(1.02953 -0.0113345 3.67903e-20)
(1.01378 -0.0041428 2.37524e-20)
(1.02029 -0.000673549 1.3842e-20)
(1.08709 -0.0904557 -6.77643e-20)
(1.18364 0.00244698 1.3731e-21)
(1.09228 -0.0983957 3.07796e-20)
(1.02349 -0.021671 3.45489e-20)
(1.03141 -0.0051014 8.32623e-20)
(1.01997 -0.00405907 -1.69883e-20)
(1.01832 -0.00728953 3.89171e-20)
(0.997765 -0.0315739 5.34487e-20)
(1.14687 0.0423442 8.70947e-23)
(1.02428 0.0726265 -1.95704e-21)
(1.02301 -0.00311292 -2.66725e-20)
(0.98711 -0.0219773 -2.71289e-20)
(1.02171 -0.00321506 6.06929e-20)
(1.04774 -0.0187723 -2.48004e-20)
(1.08856 0.0591454 1.02446e-20)
(1.02343 -0.000793146 -4.61056e-20)
(1.0214 -0.00304527 1.06081e-20)
(1.1251 0.090669 1.17077e-20)
(1.14355 0.0271739 -1.55385e-20)
(1.03593 -0.00892113 2.79308e-20)
(1.02195 -0.00241726 -4.48316e-20)
(0.996523 -0.00473133 6.01146e-21)
(1.00255 -0.032353 -1.34699e-20)
(1.02141 -0.002651 3.17263e-20)
(1.03699 -0.0202226 8.68285e-20)
(0.713889 -0.00424529 -1.23763e-19)
(1.00133 0.0264093 -2.69412e-20)
(1.06158 0.0758132 -9.47225e-21)
(1.07528 -0.0452475 -3.50898e-20)
(1.02335 -0.0506287 -4.43143e-20)
(1.02619 -0.00182902 6.51394e-20)
(1.03396 -0.0146895 -7.70574e-20)
(1.13749 0.0133488 7.68764e-20)
(1.02306 -0.0569688 2.51358e-20)
(1.0384 -0.0291 -4.41258e-20)
(1.01861 -0.000664203 -1.48838e-21)
(1.12741 0.000801942 6.62055e-20)
(0.652112 -0.00710311 -6.61627e-21)
(1.0223 -0.0640535 -4.56801e-20)
(1.03769 -0.0171856 -1.20025e-19)
(0.969368 -0.00940856 1.01318e-20)
(1.0215 -0.0029014 1.26256e-20)
(1.0218 -0.00184727 2.11917e-20)
(1.04602 0.0435748 7.95224e-20)
(0.998047 -0.00537547 2.36996e-20)
(1.02166 -0.00124106 -2.69256e-21)
(0.975955 -0.00241859 4.86895e-20)
(1.14711 -0.055144 8.52101e-20)
(1.01914 -0.00216681 -5.08296e-20)
(1.04127 -0.0328755 1.77922e-20)
(1.02042 -0.0016937 1.9641e-21)
(1.02784 -0.00854041 5.50514e-21)
(1.02127 -0.0781212 -2.24432e-20)
(1.0697 -0.0461437 2.63628e-20)
(1.02046 -0.00154354 1.61715e-20)
(1.01928 0.000693058 -8.34062e-21)
(1.02704 0.00224063 2.54798e-21)
(1.03369 -0.0489011 -9.54062e-21)
(1.00275 0.0361131 -2.1717e-21)
(1.06776 0.0874924 1.1394e-21)
(1.1171 -0.00838899 -2.86849e-20)
(1.02315 -0.00239261 -3.48723e-21)