/*--------------------------------*- C++ -*----------------------------------*\
  =========                 |
  \\      /  F ield         | OpenFOAM: The Open Source CFD Toolbox
   \\    /   O peration     | Website:  https://openfoam.org
    \\  /    A nd           | Version:  7
     \\/     M anipulation  |
\*---------------------------------------------------------------------------*/
FoamFile
{
    version     2.0;
    format      ascii;
    class       volVectorField;
    location    "35.5";
    object      U;
}
// * * * * * * * * * * * * * * * * * * * * * * * * * * * * * * * * * * * * * //

dimensions      [0 1 -1 0 0 0 0];

internalField   nonuniform List<vector> 
7807
(
(1.09086 0.119586 2.86581e-20)
(1.08167 -0.0215944 8.86782e-20)
(1.05995 0.104253 -4.64519e-20)
(1.06259 0.0828473 9.24153e-20)
(1.03766 -0.00156443 1.42622e-20)
(0.914986 -0.00554993 1.07981e-20)
(1.06144 0.104681 -9.23266e-20)
(1.00546 -0.000759974 3.55023e-22)
(1.03578 -0.00135179 1.26598e-20)
(1.04028 0.0040551 -7.92972e-21)
(0.98046 -0.0075145 -1.20337e-20)
(1.03803 -0.00198588 -2.26531e-20)
(0.951191 -0.00166038 -2.1795e-20)
(1.04417 -0.000448156 -9.39396e-20)
(1.03879 0.0040128 3.3103e-20)
(1.03203 -0.00878256 3.51146e-20)
(1.09142 0.123476 -6.08211e-20)
(0.924915 0.00183328 6.1027e-21)
(1.03913 -0.00559052 -1.78025e-20)
(1.02352 -0.0775922 7.54801e-21)
(1.05698 0.00644545 -2.53123e-20)
(1.03774 0.000166924 6.44267e-20)
(1.04569 -0.00126848 1.21558e-20)
(1.01674 0.0487398 -5.63269e-20)
(0.883921 0.00460721 2.17927e-20)
(1.08826 0.117914 -2.87676e-20)
(1.03789 -0.00138275 1.19216e-20)
(1.04677 0.000966957 3.09616e-20)
(1.0073 0.0231017 -8.19014e-21)
(1.03935 -0.00572843 1.58874e-20)
(1.02808 -0.00899235 5.01294e-20)
(0.47472 0.00885375 9.54385e-21)
(1.04524 -0.00140731 6.55283e-20)
(1.0357 -0.00224114 -2.72615e-20)
(0.440204 0.00106454 -1.08506e-22)
(1.04306 0.00343846 1.26377e-20)
(1.04002 -0.00677941 1.17008e-20)
(1.05997 0.104568 -1.56839e-20)
(1.03463 -0.00502635 -6.3443e-20)
(0.830477 -0.00316793 -3.37219e-20)
(1.03496 -0.00508045 6.38406e-21)
(1.03211 -0.00832436 1.31025e-20)
(1.04993 -0.0855037 -3.58117e-20)
(1.16698 -0.0110001 -1.25621e-20)
(0.410597 -0.000852499 -1.60168e-20)
(0.865533 0.00859432 6.92902e-21)
(1.03678 0.000312454 -3.91904e-20)
(1.03535 -0.00454835 3.73458e-20)
(1.03175 -0.00365187 6.91217e-21)
(1.02765 -0.0781616 -1.11141e-20)
(1.03844 -0.00154589 1.80653e-20)
(1.04742 0.00140569 -3.34352e-20)
(0.82735 0.00395968 5.91786e-20)
(1.04574 -0.0190939 1.27328e-20)
(1.04357 0.00302056 -9.7228e-21)
(1.03334 -0.00270673 6.47557e-21)
(1.03831 -0.00479835 2.80817e-20)
(0.971033 -0.00077868 -4.17045e-20)
(1.01945 -0.010675 5.73231e-20)
(1.03538 -0.0025974 3.31184e-20)
(1.03405 -0.00126309 -1.67035e-20)
(1.03971 -0.000212 1.71643e-20)
(1.04464 -0.00010622 -2.1236e-20)
(1.03754 -0.00134644 2.31306e-20)
(0.849485 -0.0091653 -2.3946e-20)
(1.02849 -0.00944471 -8.00348e-21)
(1.03498 -0.00166946 -1.1771e-20)
(1.03206 0.000217744 1.70162e-21)
(1.15108 0.0850978 2.87398e-20)
(1.03555 -0.00412136 1.50456e-20)
(0.960483 -0.00245151 -6.28175e-21)
(1.01434 -0.0416967 6.71449e-20)
(0.93804 0.000160852 -1.07275e-20)
(0.735657 -0.00271479 -9.10779e-21)
(0.969068 0.000441073 -1.91449e-20)
(1.00497 -0.0183402 9.16228e-21)
(1.06008 0.105006 7.44229e-20)
(1.05555 0.0058225 3.18097e-20)
(1.10268 0.0196764 -6.50096e-20)
(0.998924 -0.0321895 7.59594e-20)
(0.987788 -0.00331403 3.36216e-20)
(1.02964 0.114843 1.06071e-19)
(1.05845 0.0185143 5.57121e-20)
(0.943004 -0.00254677 -4.09721e-20)
(1.03553 -0.00203094 1.92695e-20)
(0.702386 -0.00215313 -1.0236e-20)
(1.02488 -0.00289355 -5.57472e-20)
(0.886836 -0.000517425 -3.77756e-20)
(1.0368 -0.00135173 -1.63166e-20)
(0.698871 -0.00535337 -1.99397e-20)
(1.00768 0.0261871 5.81316e-20)
(1.19154 0.0081772 1.94742e-20)
(1.0239 -0.00296093 1.1714e-20)
(1.03815 -0.0044106 1.31209e-20)
(0.977274 -0.00350943 -2.38683e-20)
(0.471574 -0.00341001 7.05776e-20)
(1.0164 -0.0415071 -4.04361e-21)
(1.04694 -0.0179802 -2.19426e-20)
(1.03527 -0.0019653 -3.85427e-21)
(0.790015 0.00992412 -6.93667e-21)
(0.81073 -0.0109618 -1.93171e-20)
(1.10283 0.0242579 4.89006e-20)
(1.00806 -0.00114885 5.90106e-20)
(0.457648 -0.000747988 1.08159e-21)
(1.19226 0.0189093 1.22779e-20)
(1.04453 0.0468293 -5.58568e-20)
(0.705659 0.0426357 1.29413e-20)
(1.03095 -0.00290665 2.47175e-20)
(1.03058 -0.0013833 -5.65584e-22)
(1.05307 -0.00470616 -2.68508e-20)
(1.06374 0.0795272 -1.0726e-19)
(1.06296 -0.0581313 6.78267e-20)
(1.03166 -0.00145957 7.11703e-22)
(1.05445 -0.00451579 -5.8257e-21)
(1.04016 0.0453631 5.83089e-20)
(1.03627 -0.000337354 -8.77115e-21)
(1.10725 -0.0655815 4.9461e-21)
(1.0445 0.0297232 -1.54446e-20)
(1.02475 -0.0321693 -4.11606e-20)
(0.821865 0.000210727 9.7539e-21)
(0.591234 -0.00479899 4.55457e-20)
(1.0084 0.0552788 -7.06721e-20)
(1.05601 -0.0837182 4.92019e-20)
(1.04237 -0.00357252 7.50789e-21)
(0.67054 -0.00671348 -1.78759e-20)
(1.03665 -0.0014731 -3.46644e-20)
(1.02981 -0.00632694 -1.83865e-20)
(1.03839 -0.00488069 -2.15529e-20)
(0.692346 0.0118061 5.57553e-20)
(1.02866 -0.00799075 -1.20824e-21)
(1.22431 0.000127196 5.60531e-21)
(1.09787 0.016985 1.0908e-20)
(1.03645 -0.00285434 -2.55997e-21)
(1.0365 -0.00143231 3.62328e-20)
(0.897606 -0.00321512 -1.17341e-20)
(1.06006 0.0746469 4.26565e-20)
(1.03444 0.118663 1.20733e-19)
(0.685076 0.0108936 1.86629e-21)
(1.04209 -0.00172981 4.11737e-21)
(0.491101 0.00526988 4.94667e-20)
(0.61496 -0.00306859 4.03333e-20)
(1.029 -0.0467748 5.15255e-20)
(1.0075 -0.0200474 -1.22798e-20)
(0.725722 0.000343128 7.16601e-22)
(0.559059 0.00292631 5.1342e-20)
(1.04865 -0.0316032 3.36379e-21)
(1.01616 0.0297854 -3.10155e-20)
(1.02206 -0.0138672 3.07828e-20)
(0.522055 0.00366986 -8.76565e-21)
(1.01205 0.0838982 -3.52571e-20)
(1.04458 0.00351879 3.6915e-20)
(1.18085 0.0033998 8.57707e-21)
(1.0365 -0.00127207 5.43172e-20)
(1.15622 0.0792441 6.81799e-21)
(1.05636 0.0175735 -5.90345e-20)
(1.05959 0.102994 -8.0891e-20)
(0.999391 -0.0223602 -3.30722e-20)
(0.85586 -0.00556186 -8.35377e-21)
(1.04929 0.0821957 1.17687e-19)
(1.0291 -0.0106448 7.54697e-21)
(1.03815 -0.0045341 -3.27424e-20)
(1.01723 0.05345 3.87146e-20)
(1.03178 -0.00200682 -9.01912e-21)
(1.0359 -0.0032757 6.56287e-20)
(0.924298 0.00237618 1.04616e-20)
(1.00675 0.0560942 -1.16832e-20)
(1.00361 0.0378449 4.20716e-20)
(1.03363 0.0748571 3.6538e-20)
(1.03567 -0.0034545 2.83856e-20)
(0.631247 0.0012263 1.35438e-20)
(1.03315 0.000838752 -1.70362e-21)
(0.369969 -0.00291102 7.27323e-20)
(1.03654 -0.000507273 1.17239e-20)
(1.08281 -0.018093 -1.03758e-19)
(1.04195 -0.00194931 2.6839e-20)
(0.611715 -0.00232164 -1.69585e-20)
(1.18269 0.0262817 2.29798e-20)
(1.11526 0.0814044 2.33837e-21)
(1.03338 -0.00299603 -6.8159e-21)
(1.03666 -0.00180188 3.35106e-20)
(1.06494 0.0849076 -1.53742e-20)
(0.973397 -0.00390704 3.00077e-21)
(0.62543 -0.0123724 -3.92987e-21)
(1.06108 0.103539 -7.57946e-20)
(1.08418 -0.0242116 4.49152e-20)
(1.04941 -0.0485044 4.33473e-20)
(1.02633 -0.0309983 5.90765e-20)
(0.897534 -0.00193112 -2.96299e-20)
(1.04626 -0.0329605 -8.30022e-21)
(0.448787 -0.00276167 -2.64233e-20)
(1.03112 -0.00227009 2.84988e-21)
(1.01711 -0.0385552 1.65285e-20)
(1.11681 0.0872278 -4.35531e-20)
(1.02562 -0.00121437 -8.46821e-21)
(1.03512 -0.000423243 -8.32744e-21)
(1.09357 0.0837602 3.43463e-21)
(1.00599 0.00270423 -5.44003e-20)
(1.02933 -0.00761257 -2.74185e-20)
(1.04366 -0.0311037 -2.97525e-20)
(1.03357 -0.000648364 -7.14229e-22)
(1.03686 -0.00144294 -2.82691e-20)
(1.05674 0.0756542 4.83746e-20)
(1.10657 0.0911435 -4.93472e-20)
(1.05686 0.104581 -1.06148e-20)
(1.10238 -0.0600167 -2.78896e-20)
(1.06607 -0.0544273 -1.39537e-20)
(1.15567 -0.0861543 7.10521e-21)
(1.04576 -0.000129238 8.35595e-20)
(1.05232 0.0735775 -1.78967e-20)
(0.583777 -0.0163102 1.64486e-20)
(1.03484 -0.000757805 4.83181e-21)
(0.423841 0.0434422 -5.39684e-20)
(1.03278 -0.00812887 1.42281e-20)
(1.03628 -0.00317527 2.27385e-20)
(1.01907 -0.0379276 -3.82582e-20)
(1.02938 -0.00668758 2.03948e-20)
(1.05948 0.0990913 -9.6939e-20)
(1.05751 0.100122 -2.16005e-20)
(1.02667 -0.0480818 -1.33013e-20)
(0.744203 0.0251654 -3.88103e-20)
(1.02815 0.00177015 4.12211e-20)
(0.85806 -0.00156993 -2.1549e-20)
(0.751747 -0.00929099 -2.50279e-20)
(1.05366 0.00993011 -1.65264e-20)
(1.05631 -0.111124 3.29686e-21)
(1.10464 0.120759 -6.86675e-20)
(1.04394 0.0798858 -1.02664e-19)
(1.03446 -0.00134303 1.21144e-20)
(1.0419 -0.00349999 9.90095e-21)
(1.04159 0.0328174 8.07648e-20)
(1.0354 -0.00378113 4.97937e-20)
(1.04796 0.0303686 -1.0645e-20)
(1.03667 -0.00132791 1.18355e-20)
(0.968022 0.0613139 7.16019e-20)
(1.05828 0.102667 1.66982e-20)
(1.01074 -0.00168803 -3.40368e-20)
(1.03922 -0.00497418 -1.96446e-21)
(0.90059 -0.0033906 6.43236e-20)
(1.13221 0.105687 2.33212e-20)
(0.607001 0.0107407 -1.1608e-20)
(1.03431 -0.00622714 -1.39363e-20)
(0.883272 -0.0186997 -2.87634e-20)
(1.02251 -0.00598364 2.59923e-21)
(1.03567 -0.00221298 1.42962e-20)
(1.03665 -0.00141854 -1.31285e-20)
(1.08606 0.0600516 5.40748e-20)
(1.03269 -0.00214013 -1.17903e-20)
(0.567708 0.00369812 -7.248e-23)
(1.00188 -0.0323213 -8.86209e-20)
(0.367386 0.0128853 -2.08376e-20)
(1.09759 0.0124749 -1.60873e-20)
(0.960622 0.0558587 5.72535e-20)
(0.832405 0.000636138 8.48015e-21)
(1.04164 -0.0319068 -2.53617e-21)
(1.03573 -0.00208327 2.61766e-20)
(1.05999 0.103751 -7.71716e-20)
(1.03863 0.000320538 -2.11948e-20)
(1.04635 0.151377 3.79812e-20)
(1.03896 -0.00621244 -5.2739e-20)
(1.03747 -0.00125931 3.5986e-20)
(1.06113 -0.0193905 -4.03828e-20)
(1.04512 0.000662283 -7.79029e-20)
(1.03651 -0.000522345 1.81145e-20)
(0.920954 -0.00546202 -1.21189e-21)
(1.0365 -0.000704262 4.57414e-20)
(1.03544 -0.00397444 4.20615e-20)
(1.05611 -0.0501378 -5.39171e-20)
(0.941162 -0.00749205 -5.55274e-21)
(1.00137 -0.0212869 -2.41884e-20)
(0.97811 0.000155073 2.25859e-21)
(1.00691 -0.00411174 -1.23981e-20)
(1.03667 -0.00294216 -6.82859e-21)
(1.06151 0.137332 9.04634e-20)
(0.519587 -0.00250902 -1.00392e-20)
(0.676803 0.00572544 6.13043e-21)
(0.275982 0.0233807 8.84251e-20)
(1.03553 -0.00239172 2.71261e-20)
(1.0843 0.0997823 -3.71345e-20)
(1.03567 -0.00210204 -3.81705e-20)
(1.0427 -0.013954 3.88414e-20)
(1.03428 0.000903999 -5.33924e-22)
(1.02429 -0.0250848 2.53683e-20)
(1.05359 0.00907949 2.3864e-20)
(1.18299 0.0349913 -5.31943e-20)
(1.02006 -0.012006 -4.9121e-20)
(1.03615 -0.00184517 -4.18231e-20)
(1.02239 -0.0641953 -1.90736e-20)
(0.131211 0.000244469 -2.70053e-20)
(0.576622 0.0160283 -1.83319e-21)
(1.03657 -0.000664809 -4.05866e-20)
(1.03602 -0.00246253 -3.14831e-20)
(0.801311 -0.00985665 3.21451e-20)
(1.03935 -0.000891241 -3.49607e-20)
(1.03623 -0.00140739 -1.80963e-20)
(0.945273 -0.00180888 -6.91372e-21)
(1.06002 -0.0477649 3.6233e-20)
(0.89552 6.22054e-07 -3.00632e-20)
(1.1597 -0.00469477 3.59868e-21)
(0.788883 -0.00270861 3.18918e-20)
(1.06401 0.104763 8.72137e-21)
(1.06295 0.105621 -6.55299e-20)
(1.0357 -0.000362156 2.85895e-20)
(1.20171 0.0364852 6.69082e-20)
(1.00032 -0.00170626 7.77441e-22)
(1.03618 -0.00301844 3.35044e-20)
(0.335581 0.00359481 -7.27794e-20)
(1.01225 0.0433558 3.31613e-20)
(1.05891 0.0238021 -4.91652e-20)
(1.03447 -0.00158767 1.65336e-20)
(1.03619 -0.00255795 4.87988e-21)
(0.850611 -0.00276009 -2.40718e-20)
(1.0714 0.055625 -2.18996e-20)
(1.03676 -0.00145572 -1.9627e-20)
(1.03768 -0.000894896 1.60724e-20)
(1.0373 -0.000510111 -3.76091e-21)
(1.13869 0.0438319 5.58177e-20)
(1.22501 -0.011432 3.45517e-20)
(1.07129 0.112998 4.32238e-20)
(0.761286 0.00345201 2.70656e-20)
(1.09223 -0.0211903 -8.78319e-20)
(1.03412 -0.00237182 1.2033e-20)
(1.03989 -0.00455792 -5.52116e-20)
(0.979149 -0.00294881 2.64574e-21)
(1.02678 -0.0135071 -8.45087e-21)
(0.914286 -0.00273879 1.09858e-20)
(1.04603 -0.013037 5.43182e-21)
(1.21988 0.0419681 -5.64628e-20)
(1.0162 -0.019319 -4.79623e-20)
(1.04359 -0.0132389 -1.13345e-20)
(1.04117 -0.00295184 -1.63163e-20)
(0.815832 -0.00788204 -2.86639e-20)
(1.05564 -0.00772914 1.78165e-20)
(1.03527 -0.0119497 -2.48176e-20)
(1.09709 0.0281419 -2.43727e-20)
(1.0814 0.0584815 2.625e-20)
(1.20195 -0.0872383 -4.53372e-22)
(1.16549 -0.0201752 3.13931e-20)
(0.23558 -0.00161282 2.88991e-20)
(1.03991 -0.00195694 3.86534e-20)
(0.886949 -0.0174085 1.17973e-20)
(1.00544 0.0669807 -1.14447e-19)
(1.14785 -0.0237394 -5.55301e-20)
(1.05335 -0.00179741 -5.27816e-20)
(0.832405 0.0373362 -5.40517e-20)
(0.661763 -0.0121909 -1.33726e-20)
(1.0359 -9.19754e-05 7.81776e-21)
(1.17925 -0.00631833 3.11158e-20)
(1.03645 -0.00172791 1.60438e-20)
(1.04867 -0.0289269 -1.15193e-20)
(1.04022 -0.00189536 1.23246e-20)
(0.713871 -0.00201209 1.24519e-20)
(0.767757 -0.000347383 2.60323e-20)
(1.04848 0.0405141 4.43305e-20)
(1.03495 -0.00161272 5.13142e-21)
(1.03657 -0.000262868 -1.59493e-20)
(1.0344 -0.0003178 1.43642e-20)
(0.818513 0.00597 -5.67775e-20)
(1.03378 -0.00562314 -3.76293e-20)
(0.938307 0.000873037 -2.14119e-22)
(0.927061 0.00509026 -3.93783e-21)
(1.02063 -0.00987269 -1.78062e-20)
(0.639578 0.013152 3.03401e-20)
(1.04509 -0.0139606 -2.43989e-20)
(1.03298 -0.0075835 -5.26447e-20)
(1.07767 0.096902 1.50575e-20)
(1.00418 0.0438304 6.78023e-20)
(1.0881 0.0168766 -2.33781e-20)
(1.19373 0.0403312 -2.5514e-20)
(0.272303 0.00489133 -3.96158e-20)
(1.03993 -0.00232914 -2.02068e-20)
(1.01917 0.0732365 -3.37088e-21)
(0.765312 -0.00272653 4.62698e-20)
(1.07332 0.100361 1.78415e-21)
(1.04614 -0.0358154 -1.4289e-21)
(1.07835 -0.0948499 1.58312e-20)
(1.1031 0.0885499 3.04324e-20)
(1.07492 0.103027 -4.23082e-20)
(0.999044 -0.0178124 -5.71216e-20)
(1.0604 0.0216078 -3.46918e-20)
(1.10733 0.124502 6.44853e-20)
(1.08071 0.100235 6.62e-20)
(1.04729 0.00199912 2.6896e-20)
(1.03103 -0.000994688 -1.39841e-20)
(1.03323 -0.00277213 -9.59939e-21)
(0.993209 0.000477629 6.13991e-21)
(1.05031 -0.0171214 1.67939e-20)
(0.667812 0.00434154 -1.02306e-20)
(1.03675 -0.00206296 -2.05164e-20)
(0.917723 0.000558691 1.07404e-20)
(1.03158 -0.000336067 -1.0838e-20)
(1.01982 -0.0629881 3.14929e-20)
(1.12339 0.0523465 2.06991e-20)
(0.952038 -0.00261929 4.45486e-20)
(1.03635 -0.00758366 -5.99752e-20)
(0.820187 0.00295163 2.99614e-20)
(1.09003 -0.0241363 3.09367e-21)
(0.838245 -0.00626849 5.7276e-20)
(1.03818 -0.00429815 3.91897e-20)
(1.11723 0.122086 1.0187e-20)
(0.807949 0.00409417 6.4921e-20)
(1.03361 -0.0022717 9.94261e-21)
(1.03526 -0.001627 3.57155e-21)
(1.03449 -0.00152953 2.28961e-20)
(0.946793 -0.00163465 -1.70235e-20)
(1.04629 0.0377304 -5.57404e-20)
(0.675599 -0.0053914 -7.74352e-22)
(1.05049 -0.00263697 3.60778e-20)
(1.06505 -0.115959 -2.34148e-20)
(1.05961 0.106096 -1.79105e-21)
(1.03936 -0.00477344 2.09516e-20)
(1.04138 -0.00284573 -3.63882e-21)
(1.03085 -0.00259472 2.7806e-20)
(1.04791 0.133774 -8.92294e-20)
(0.674211 -0.00029578 -1.45302e-20)
(1.07272 0.115202 -2.24242e-20)
(1.01251 0.0305251 -5.70931e-20)
(0.9521 -0.00333115 -1.16585e-20)
(1.04434 -0.0367251 3.25917e-20)
(0.898069 -0.00413326 2.74723e-20)
(1.03215 -0.0475663 -6.47384e-20)
(1.03619 0.00015642 1.53245e-20)
(1.08324 0.0190187 3.16408e-20)
(1.04192 -0.00980759 -1.17331e-21)
(1.04102 -0.00227325 6.0682e-21)
(0.851679 -0.00526748 3.68956e-20)
(1.09035 0.0575328 2.8257e-20)
(1.06675 0.0545787 8.2299e-21)
(1.04782 -0.0510197 -3.66479e-20)
(1.02179 -0.0125032 3.19126e-21)
(1.03615 -0.00265119 2.21503e-20)
(1.03913 -0.0285914 7.52824e-20)
(1.15318 0.0707926 -4.1984e-20)
(0.572451 0.0185313 -4.7644e-20)
(1.11877 -0.0516665 2.57874e-20)
(1.04037 -0.00479797 -1.14863e-20)
(1.03166 -0.00128775 5.65908e-22)
(0.985639 -0.00194164 4.355e-20)
(0.777492 -0.0018987 -5.21991e-20)
(1.05496 -0.00814725 2.9481e-20)
(1.04689 -0.0906028 1.28377e-20)
(1.2025 0.0249673 -2.53054e-20)
(1.06516 0.109508 -1.01794e-19)
(1.07503 0.0522042 3.93812e-20)
(1.15569 -0.0748889 -2.61095e-20)
(1.09376 0.0885598 1.17252e-20)
(1.01419 0.0780909 1.10946e-19)
(1.04754 -0.00135691 3.08565e-20)
(1.03697 -0.00141985 4.52271e-20)
(1.05184 0.0825959 2.41793e-20)
(1.0365 -0.00172235 -3.41375e-20)
(1.0353 -0.0022644 -1.02471e-20)
(0.477709 -0.00109788 -1.14296e-20)
(1.03589 -0.00144415 3.48324e-21)
(1.16561 -0.0923234 -9.27985e-21)
(1.04011 -0.0111369 2.77052e-20)
(1.02594 -0.0247001 -4.59559e-20)
(1.03733 -0.000958151 1.44992e-20)
(1.0892 0.0816858 6.49663e-20)
(0.815136 -0.000686586 5.33111e-21)
(1.03338 -0.00243765 6.72236e-23)
(1.07183 -0.100488 -1.63701e-20)
(1.03724 -0.000391573 -8.95698e-21)
(1.12579 0.0165009 -6.11763e-21)
(0.813994 -0.0107705 -9.67081e-21)
(0.656537 -0.00312638 -2.86525e-21)
(1.198 0.0784872 -4.78721e-21)
(1.03811 0.0315371 -2.06523e-20)
(1.03473 0.010715 1.42232e-20)
(1.03245 0.0098128 -6.68768e-21)
(0.883682 -0.00139204 -3.12961e-21)
(1.13032 0.0522433 1.63391e-20)
(1.09722 0.0320517 2.94409e-20)
(1.03705 -0.00226614 -1.35813e-20)
(0.982251 -0.0026342 -5.14631e-20)
(1.03686 -0.000403734 -1.69868e-20)
(1.04582 -0.0117543 -6.40122e-20)
(1.0447 -0.0186852 1.1915e-20)
(1.04011 -0.00106537 -3.82126e-22)
(1.0366 -0.00156838 4.28111e-20)
(1.13209 0.0993853 -6.90838e-20)
(1.03239 -0.002733 1.21263e-20)
(1.0361 -4.38175e-05 -1.00129e-20)
(1.03883 -0.00111102 -2.13418e-22)
(0.573435 -0.00225553 -2.80519e-20)
(1.04863 -0.00458483 3.60296e-20)
(1.02523 -0.0201654 6.82415e-20)
(0.646159 0.00167556 1.40083e-20)
(1.05249 -0.0475826 -2.43224e-20)
(1.08586 -0.123591 2.57292e-20)
(1.05927 -0.0174668 2.15678e-20)
(1.05577 0.0810014 -1.39124e-19)
(1.21151 0.0458154 3.38308e-20)
(1.01438 -0.00300696 3.38305e-21)
(0.940243 0.055622 8.26208e-20)
(1.01865 -0.0434639 -6.13833e-20)
(1.03359 -0.00610064 -1.12563e-20)
(0.585112 0.00404418 -2.42166e-20)
(1.03586 -0.0116204 5.17227e-21)
(0.480736 0.00528544 -4.51997e-20)
(1.00468 -0.00234285 1.5892e-20)
(1.05417 -0.00351452 -4.00746e-20)
(1.15607 -0.0261004 1.2049e-20)
(1.03354 -0.00238518 9.55789e-22)
(1.05162 -0.00416572 -2.87488e-21)
(0.994063 0.00448671 6.10116e-21)
(1.06094 0.102323 2.18339e-20)
(1.15158 0.0906128 6.38727e-20)
(1.02149 -0.00204985 -9.55585e-21)
(0.542488 0.000232477 5.36731e-20)
(0.973278 0.00267198 2.11883e-20)
(1.02118 0.109931 7.03347e-20)
(1.06892 0.103189 5.37826e-20)
(1.13311 0.0451122 -3.04035e-20)
(1.13347 0.120418 -5.45321e-20)
(1.01856 -0.0465075 2.6223e-20)
(1.02418 0.0721495 -1.07644e-19)
(1.03494 -0.00163342 -1.07244e-20)
(1.07612 -0.0102409 6.98056e-20)
(0.363879 0.0098668 1.34863e-21)
(1.10915 0.0792257 -1.64332e-20)
(0.998559 0.0684331 -7.22146e-20)
(1.15717 0.0652253 6.38129e-20)
(1.06894 0.0460068 6.40984e-21)
(1.03683 -0.00754377 1.81127e-20)
(1.02524 -0.00251081 1.8307e-20)
(1.13757 0.109 2.42334e-20)
(1.21284 0.00548793 -1.06141e-20)
(1.04322 0.127389 -2.65569e-21)
(1.11925 0.014578 7.53844e-20)
(1.05244 0.0689378 4.34838e-20)
(0.98829 -0.00459783 1.03875e-20)
(1.06029 0.10952 2.79356e-20)
(1.07026 0.100564 2.0298e-20)
(1.00101 0.000105219 4.84577e-20)
(1.01883 -0.00340009 2.15663e-20)
(1.14751 0.102293 1.74345e-21)
(0.600149 0.00437171 4.82734e-20)
(1.03491 -0.00160967 1.41811e-20)
(1.0066 -0.00236824 -5.69089e-20)
(0.790009 -0.0135723 -3.65512e-20)
(1.02999 -0.0614316 6.61792e-21)
(1.04202 -0.00152563 -5.62891e-20)
(1.04114 -0.00252124 5.04375e-21)
(1.03615 -0.00200834 1.82102e-20)
(1.07003 0.105492 -7.97995e-20)
(1.03761 -0.00725185 -4.6438e-21)
(1.0338 -0.00215185 -5.55533e-21)
(1.05926 -0.0429118 -4.33308e-20)
(1.03612 -0.00265773 -1.07298e-20)
(1.00425 -0.00519981 -1.82326e-21)
(1.03999 -0.00713989 -1.23813e-20)
(1.08086 0.0827648 8.34516e-20)
(1.06228 -0.0882515 -2.46067e-20)
(1.0634 0.0870338 4.43102e-20)
(1.03459 -0.000863427 -1.12501e-20)
(1.08496 0.0847754 -8.83902e-20)
(1.05179 -0.0362034 -3.38881e-20)
(1.03531 -0.0018538 3.72431e-21)
(1.03394 -1.50645e-06 -5.66787e-21)
(1.00378 0.016399 -9.75136e-21)
(1.07585 0.0758303 3.17438e-20)
(1.03423 -0.00263309 -1.02757e-20)
(1.06938 0.0643986 -4.52034e-20)
(1.03376 -0.000181126 4.19944e-21)
(1.07066 0.0693587 -6.09232e-20)
(1.18957 -0.0923038 -2.5379e-20)
(0.968319 -8.07204e-06 -5.25253e-20)
(1.00558 0.0473289 -1.41495e-19)
(1.01939 -0.0353828 -4.63662e-20)
(1.13754 0.116276 5.5897e-20)
(0.607261 -0.00253554 -1.41698e-20)
(1.07512 0.0710193 7.81576e-20)
(1.08028 0.0776049 -2.29245e-20)
(1.01605 -0.00323677 -7.76135e-20)
(0.99901 -0.00271347 4.62317e-20)
(1.03445 -0.00596353 -4.32372e-20)
(0.947117 0.00101133 1.16595e-20)
(1.03544 -0.00207845 -2.31312e-20)
(1.03748 -0.00710577 7.65034e-21)
(1.07481 0.0969617 -1.03648e-20)
(1.03328 -0.00248183 -2.67463e-21)
(1.06454 0.0631593 5.94146e-20)
(1.07635 -0.0864876 -4.22612e-20)
(1.04027 0.100954 2.7476e-20)
(1.06327 0.0584727 -6.95338e-20)
(0.741701 -0.0104947 4.97357e-21)
(1.06988 0.0937206 -9.57234e-20)
(1.03669 -0.000727107 2.1518e-23)
(1.04977 -0.0154566 2.51198e-20)
(1.0902 -0.055287 -1.5403e-20)
(0.485915 0.00115623 2.72103e-21)
(1.03196 -0.00300491 -3.21372e-20)
(1.04954 -0.0376524 2.69419e-20)
(1.08049 -0.00133756 -6.15874e-21)
(0.86485 0.0429131 1.05028e-19)
(1.03329 -0.000726733 1.5627e-20)
(1.03611 -0.000418343 -1.79092e-20)
(1.05866 -0.058003 1.27586e-22)
(1.03447 -0.000952584 9.12814e-22)
(1.06165 0.103233 1.05569e-20)
(1.03734 -0.000193033 0)
(1.03363 0.000439539 7.9782e-22)
(1.03469 -0.000216772 2.47171e-20)
(1.03727 -6.85351e-05 2.98858e-22)
(1.02705 -0.012515 -5.75622e-20)
(1.05232 -0.00747616 -2.03111e-20)
(1.03688 -0.000843761 -3.52147e-20)
(0.887875 0.000865811 -1.26699e-20)
(1.0274 -0.00315359 -1.68143e-20)
(1.03964 -0.00731933 -1.36263e-20)
(1.03575 -0.0981697 3.20004e-20)
(0.370673 -0.000210874 -4.00485e-21)
(1.04797 -0.00407389 5.56527e-20)
(0.691928 -0.0100664 -8.08324e-21)
(1.14866 -0.12076 -3.2166e-20)
(0.936966 -0.00291272 2.39121e-20)
(1.13805 0.0942781 -4.83015e-21)
(1.00162 0.0195117 -2.25157e-20)
(1.03681 -0.00202255 1.31485e-20)
(1.12929 0.0846608 -7.1773e-20)
(1.03447 -0.000457291 -4.78678e-22)
(0.97953 -0.00268492 -4.82602e-22)
(1.04228 0.00312178 -3.97031e-20)
(1.03378 -0.00309777 1.2982e-20)
(1.08334 0.0918748 -5.23312e-21)
(1.02601 -0.00310449 4.41352e-20)
(1.07668 -0.00764043 -5.41306e-20)
(1.0422 0.00476401 -4.01338e-20)
(1.0802 0.0537488 -1.53225e-20)
(1.04202 -0.00893231 -3.54864e-20)
(1.01866 -0.00177074 -1.28262e-21)
(1.09846 0.0806715 4.40256e-20)
(1.02371 -0.0685575 3.31423e-20)
(1.06051 0.103719 8.55312e-20)
(1.03097 -0.00225081 5.95596e-20)
(1.08578 0.107144 2.48757e-22)
(1.02756 -0.00133633 -1.58797e-20)
(1.03538 -0.000281215 3.08588e-21)
(1.06825 0.0426178 1.88914e-20)
(1.04922 -0.0185538 -1.87186e-20)
(1.05626 0.014299 5.73954e-20)
(1.03625 -0.000679967 9.98927e-21)
(1.03407 0.000905363 3.69329e-22)
(1.04954 -0.114223 -1.17645e-20)
(1.11698 0.117312 -6.3478e-20)
(1.037 -0.00196206 -1.17814e-20)
(1.13636 0.0869159 7.95233e-21)
(1.02651 -0.00323511 3.14717e-20)
(1.14046 -0.1294 1.06953e-20)
(1.07731 -0.0226909 8.23352e-21)
(1.02494 -0.0217091 -3.69335e-20)
(1.0368 -0.000470643 1.40648e-20)
(0.60356 -0.00369054 1.25808e-20)
(1.01777 -0.0568363 2.2807e-20)
(0.898212 -0.00385345 -5.20408e-20)
(1.01935 -0.00118235 -4.00677e-20)
(1.03586 -0.00170065 -1.67885e-20)
(1.06024 0.103549 -9.30513e-21)
(1.12741 0.0778559 4.55344e-20)
(1.05174 -0.00278916 -1.29817e-20)
(1.03533 -0.00248793 -1.57639e-20)
(1.06853 0.0983651 -3.82854e-20)
(1.03336 -0.000969405 4.55202e-21)
(1.03513 -0.00241319 -3.27403e-20)
(1.12058 0.0762014 3.88997e-20)
(1.04524 -0.0154653 3.47955e-20)
(1.1252 0.109791 5.81782e-20)
(1.04725 0.000521838 2.25971e-20)
(1.04751 -0.00609161 -6.92632e-21)
(1.12541 -0.0376622 -2.30764e-20)
(1.10142 -0.10856 -3.12483e-20)
(1.19933 0.0716023 -2.29754e-20)
(1.03734 -0.000469907 -2.68785e-20)
(0.866513 -0.0113617 3.38301e-21)
(1.03396 -0.00174787 3.25302e-21)
(1.03991 -0.00691621 8.90296e-21)
(1.0856 0.0890555 3.00835e-20)
(1.01712 -0.00281044 -5.7891e-20)
(1.03335 -0.000709695 -1.79677e-20)
(1.05094 -0.0274795 3.70878e-20)
(1.03584 -0.00011694 -9.95971e-22)
(1.03667 -0.00152916 -2.3996e-20)
(0.290349 0.00724647 1.88898e-20)
(1.03041 -0.00261653 3.10229e-20)
(1.03637 -0.00233186 4.50773e-20)
(0.440934 -0.00266344 1.65449e-21)
(1.02712 0.0115132 6.0049e-20)
(1.01668 -0.0178083 7.01118e-21)
(1.03603 -0.00186064 -2.10739e-20)
(0.99593 0.00256285 -2.40627e-20)
(1.03507 0.0343347 2.18865e-20)
(1.08716 0.027091 5.48612e-21)
(0.993185 -0.0158373 3.61257e-20)
(1.03295 -0.000972792 5.13158e-21)
(1.00151 0.0152818 1.34604e-19)
(1.028 -0.0105767 4.16416e-20)
(1.08867 0.0767294 -6.7492e-20)
(1.04348 -0.000747604 -6.07629e-20)
(1.04425 -0.000414277 1.2301e-19)
(0.939782 -0.00466309 -6.73266e-20)
(1.03454 -0.00182997 3.91468e-21)
(1.04174 0.0016493 -4.90979e-21)
(1.09212 0.0250372 -1.01467e-20)
(1.18095 0.0733619 4.81999e-20)
(1.0819 -0.0806202 -1.34658e-20)
(1.0724 0.09446 3.27229e-20)
(1.04124 -0.00131816 -1.47362e-21)
(1.10353 0.0834829 -6.04036e-20)
(1.03704 -0.00909723 2.31295e-20)
(1.05543 -0.0413073 6.62285e-20)
(1.03012 -0.00220431 1.75501e-20)
(1.03985 -0.0119401 -5.61985e-20)
(1.03587 -0.00161731 -1.48543e-20)
(1.06488 0.0492677 -5.14151e-20)
(1.09658 0.113651 -9.9434e-20)
(1.03688 -0.000885863 -1.08171e-20)
(1.04854 -0.00555185 4.46352e-21)
(0.886298 -0.000769826 -1.91708e-20)
(1.08373 -0.0674163 -7.92796e-21)
(1.07921 -0.0734457 2.11721e-20)
(1.0338 -0.000294181 -1.90322e-20)
(1.07323 -0.0113211 -2.78325e-20)
(0.121516 -0.00412976 -3.15655e-20)
(1.18004 0.057409 4.3107e-20)
(1.03508 -0.00158714 -2.70796e-20)
(1.08292 0.0239735 -2.18278e-20)
(1.03562 -0.00564657 3.30789e-20)
(0.586965 0.034834 1.37626e-19)
(1.01964 -0.0029164 -4.26124e-20)
(1.03488 -0.0177446 1.50551e-20)
(1.05243 -0.0233386 -1.56339e-21)
(1.03401 -0.0183734 5.78336e-22)
(1.03655 -0.0135934 5.81914e-20)
(1.02751 -0.00289784 -1.04355e-20)
(1.0365 -0.00913975 -5.00892e-20)
(1.03815 -0.00389453 -1.1909e-20)
(1.08252 -0.00452557 1.24083e-20)
(1.03375 -0.00106445 -2.38919e-20)
(1.21813 -0.050963 1.50747e-20)
(1.17223 0.0210246 1.82113e-20)
(1.06548 0.104996 6.23505e-20)
(0.996087 -0.0146278 -5.67815e-20)
(1.11935 0.105726 -2.91537e-20)
(1.03706 -0.000330552 2.99567e-20)
(1.10475 -0.0518449 -1.0892e-21)
(1.04244 -0.0267654 3.37075e-20)
(1.03256 0.0572212 5.2267e-20)
(1.0337 -0.0029812 -2.94331e-20)
(1.03523 -0.00109988 1.78083e-20)
(1.02852 -0.0111796 -5.77235e-20)
(1.03486 -0.00594839 1.69101e-20)
(1.07002 -0.00980862 4.60172e-20)
(0.826726 -0.000950905 4.5639e-20)
(0.979352 -0.00228224 -1.53832e-20)
(1.14907 -0.00699941 1.43876e-20)
(0.7896 0.00283488 3.65381e-20)
(1.05057 -0.0250226 -3.11162e-20)
(1.0317 -0.0656912 -2.74715e-20)
(1.03345 -0.00132204 7.98914e-22)
(1.08251 0.00279866 5.33136e-20)
(1.03299 -0.0577459 8.35428e-20)
(1.12496 0.0959946 3.22418e-20)
(1.1269 -0.0442648 3.76819e-20)
(1.05473 0.0132475 5.89414e-21)
(1.06868 -0.083882 5.6767e-20)
(1.07429 0.108734 1.85489e-20)
(1.06635 -0.0205044 4.18393e-20)
(0.901462 -0.00385169 4.00114e-20)
(1.05151 -0.0331432 4.80375e-20)
(0.277207 0.0272784 3.38601e-20)
(1.18764 -0.0610088 -1.48801e-20)
(1.0069 -0.00301006 1.32203e-20)
(1.07326 -0.109881 3.32084e-21)
(1.06419 -0.0493104 -4.02061e-20)
(1.08733 -0.0973508 2.04377e-21)
(1.08048 -0.0612226 3.22528e-20)
(1.09786 0.0754517 5.77594e-20)
(1.03448 -0.00106973 -8.91841e-22)
(1.01539 0.0684934 1.83387e-20)
(1.04131 -0.00088481 1.33718e-20)
(1.03609 -0.00173598 2.61434e-20)
(1.03648 -0.00157399 -7.63271e-20)
(1.07956 0.0169781 -1.11064e-20)
(0.0715964 0.00484905 7.39145e-22)
(1.03804 -0.0040361 1.71332e-20)
(1.05506 -0.0377071 -8.66296e-21)
(1.03541 0.0387663 -3.5701e-20)
(1.03362 -0.000834688 -8.12136e-22)
(1.00114 -0.00270324 -3.93698e-20)
(1.04974 -0.00321441 3.58825e-20)
(1.1024 -0.0190701 5.28058e-20)
(1.04126 -0.000642283 6.99837e-20)
(1.03646 -0.00178627 -1.06113e-20)
(1.026 -0.0286269 1.57219e-22)
(1.03609 -0.00545317 1.712e-20)
(1.03328 0.000696831 9.45749e-21)
(1.02121 -0.0346057 7.9296e-20)
(1.07686 0.0893432 -1.30418e-20)
(1.05308 -0.01938 -6.16992e-21)
(0.94458 0.000492788 3.55128e-20)
(1.03775 3.67756e-05 -1.13221e-20)
(1.03969 0.0409718 4.74622e-20)
(1.0365 -0.00197567 1.02032e-20)
(1.03702 -0.00135047 2.28386e-21)
(1.03433 -0.00190062 1.76092e-20)
(1.03658 -0.00166845 3.07801e-20)
(1.1703 0.072896 3.33743e-20)
(1.06065 -0.0216822 1.00318e-19)
(1.04275 -0.0114408 2.45086e-20)
(1.0047 -0.00303754 1.58375e-20)
(1.03446 -0.000689135 9.38659e-21)
(1.11939 -0.0994694 -4.40254e-20)
(1.21189 0.0196956 9.04676e-22)
(1.12684 -0.107964 1.99713e-20)
(1.03613 -0.023351 2.30292e-20)
(1.04467 -0.00481449 5.54984e-20)
(1.0334 -0.00294514 -1.16961e-20)
(1.03051 -0.00663194 2.59476e-20)
(1.00459 -0.0346301 3.5824e-20)
(1.17085 0.0579305 1.57419e-22)
(1.03663 0.102956 -1.33733e-21)
(1.03622 -0.00239546 -1.77882e-20)
(0.959989 -0.0228511 -1.82211e-20)
(1.03438 -0.00276537 4.03976e-20)
(1.06406 -0.0185219 -1.64354e-20)
(1.10781 0.0732035 6.74901e-21)
(1.03697 -0.000642477 -3.10068e-20)
(1.03569 -0.00232069 7.19497e-21)
(1.14503 0.107232 7.65163e-21)
(1.16874 0.0415458 -1.00378e-20)
(1.04902 -0.00824708 1.85975e-20)
(1.03437 -0.00139379 -2.98198e-20)
(0.918185 -0.00619426 4.06294e-21)
(1.01114 -0.0358376 -9.0243e-21)
(1.03559 -0.00196976 2.14648e-20)
(1.05168 -0.0211108 5.77038e-20)
(0.526531 -0.00211598 -8.2054e-20)
(1.00118 0.0199009 -1.82306e-20)
(1.08009 0.0922104 -6.33695e-21)
(1.09907 -0.0472258 -2.30544e-20)
(1.03677 -0.0580634 -2.94956e-20)
(1.0396 -0.00155568 4.34644e-20)
(1.04793 -0.0149972 -5.12779e-20)
(1.16353 0.0260839 4.99972e-20)
(1.03666 -0.0659656 1.67068e-20)
(1.05385 -0.0313482 -2.92993e-20)
(1.03281 -0.000782649 -1.0174e-21)
(1.15377 0.0113701 4.30675e-20)
(0.476904 -0.00570891 -4.41559e-21)
(1.03605 -0.0749003 -3.03549e-20)
(1.05227 -0.0175054 -7.9779e-20)
(0.872571 -0.00907183 6.82373e-21)
(1.03562 -0.00187293 8.53614e-21)
(1.03093 -0.00087363 1.41057e-20)
(1.05862 0.0572555 5.31646e-20)
(0.94183 -0.00440072 1.58877e-20)
(1.03652 0.00367175 -1.69022e-21)
(0.858281 -0.00407919 3.22655e-20)
(1.18241 -0.0480826 5.47322e-20)
(1.01458 -0.000317264 -3.51998e-20)
(1.05752 -0.0356393 1.18005e-20)
(1.0349 -0.00158272 1.33669e-21)
(1.04108 -0.00837625 3.66848e-21)
(1.03559 -0.0930811 -1.48322e-20)
(1.09251 -0.0488793 1.73483e-20)
(1.03486 -0.00144914 1.09868e-20)
(1.03346 0.000370279 -5.66505e-21)
(1.03409 0.00286169 1.71124e-21)
(1.04922 -0.0555082 -6.33348e-21)
(1.0036 0.0300725 -1.66844e-21)
(1.08693 0.103147 7.49141e-22)
(1.14321 6.17881e-07 -1.86665e-20)
(1.03663 -0.00173769 -2.32544e-21)