/*--------------------------------*- C++ -*----------------------------------*\
  =========                 |
  \\      /  F ield         | OpenFOAM: The Open Source CFD Toolbox
   \\    /   O peration     | Website:  https://openfoam.org
    \\  /    A nd           | Version:  7
     \\/     M anipulation  |
\*---------------------------------------------------------------------------*/
FoamFile
{
    version     2.0;
    format      ascii;
    class       volScalarField;
    location    "23";
    object      p;
}
// * * * * * * * * * * * * * * * * * * * * * * * * * * * * * * * * * * * * * //

dimensions      [0 2 -2 0 0 0 0];

internalField   nonuniform List<scalar> 
7639
(
0.23695
-6.36152e-05
0.451012
0.27376
-0.0013576
-5.94783e-05
0.457866
-0.00820676
-0.000190749
0.114832
-5.5926e-05
0.00373187
-0.0122312
0.0571099
0.119658
-0.016062
0.251437
-0.0159118
0.00160491
-0.0699183
0.0756074
0.00245108
0.0422651
0.224796
-0.0205972
0.252629
-0.00125357
0.0705751
0.187407
0.00378086
-0.0217818
0.721139
0.0414582
-0.000765103
-0.00016677
0.0937428
0.00429613
0.441726
-0.00695769
-0.000534946
-0.00636751
-0.0154454
-0.0703921
-0.0632013
-0.000319787
-0.000130706
0.00240909
-0.00716902
-0.000108179
-0.0692387
0.00560911
0.0669819
-0.025867
-0.00413954
0.092901
-0.00732102
0.00177014
-0.00820138
-0.0332086
-0.000797091
6.23111e-05
0.00718229
0.057473
0.00411849
-0.00152924
-0.0213504
-0.000153911
6.40009e-06
0.0187438
-0.00672082
-0.000120037
-0.0564802
-0.0199292
-0.0333542
-0.0153961
-0.0466961
0.443286
0.0741832
0.0514185
-0.0617176
-0.0117357
0.407658
0.107549
-0.0348425
-0.00226906
-0.00357212
-0.00876921
-0.0251128
-0.00103434
-0.00692859
0.191601
-0.0869808
-0.000212561
0.00182493
-0.00552473
-0.0343517
-0.0538683
-0.000949673
-0.00249818
-0.00182102
-0.0563376
0.0590502
-0.00524204
-3.20096e-05
-0.0858834
0.193859
0.619872
-0.00777983
-9.22639e-07
0.0377473
0.256608
-0.0464493
-2.39988e-06
0.0400043
0.194826
0.000717626
-0.0612714
0.154976
-0.0410291
-0.0341238
-0.0583605
0.388459
-0.0675411
0.0158177
-0.0569883
-0.00152262
-0.019592
0.0030402
-0.00161411
-0.0218824
-0.133254
0.0538825
-0.000957501
-0.00121859
-0.0360196
0.24894
0.492082
-2.7577e-05
0.0125512
-0.0722201
-0.0316304
-0.048678
-0.047101
-0.0320548
0.626962
-0.0203882
0.188444
-0.0323354
-0.0434081
0.387179
0.0896113
-0.0727819
-0.0023647
-0.00605275
0.107229
0.404538
-0.0531998
-0.0121807
0.581189
-9.80226e-05
0.000853305
0.233546
-3.02103e-05
-0.00326072
-0.006218
0.29422
0.294778
0.605215
-0.00369266
-0.00483968
7.32071e-06
-0.0603582
0.000707691
0.00671118
0.0136399
-0.0428625
-0.0649824
0.114489
-0.000211178
-0.000800068
0.277835
-9.76655e-05
-0.000179376
0.459281
-0.0059162
-0.0388095
-0.0386882
-0.0315748
-0.0236724
-0.070734
-3.29232e-05
-0.0521157
0.116423
-0.00528898
0.000114465
0.184915
-0.00197258
-0.0205906
-0.0227008
8.70918e-06
0.00146585
0.25753
0.152873
0.408712
-0.0553827
-0.0421639
-0.0997717
0.0769838
0.25593
-0.000342794
5.50857e-05
0.586351
-0.0137164
-0.000995181
-0.0499317
-0.0205107
0.363787
0.374104
-0.0529838
0.682914
-0.00183001
-0.0156323
-0.0576784
0.0915637
-0.085429
0.184257
0.582574
9.95096e-05
0.0166133
0.165753
-0.00655749
0.150997
-0.000877717
0.648733
0.396228
-0.00871279
0.00443644
-0.000496574
0.0679473
-0.000152989
-0.0100145
-0.0684755
-0.000119644
-0.00215764
-0.000696187
0.155732
-3.04047e-05
-0.00719264
-0.060195
0.720267
0.0466166
0.630949
-7.35542e-05
-0.0252236
-0.000305562
0.425427
0.0069027
0.493139
0.0021604
0.00123853
0.00593204
0.0802962
0.000971255
-0.000372966
0.000862682
-0.00691327
-0.0392982
-6.87504e-05
-0.0514686
-0.00592476
-0.000233059
-0.0010313
0.469
-0.0121959
-0.00125675
0.684768
-0.00237333
0.251522
-0.000340195
0.000287612
1.22643e-05
-0.0369261
0.0881005
-0.0615197
-0.0334985
-0.000677068
-0.0625406
-0.0235386
-0.000295702
0.000833479
-0.00354969
-0.0117668
0.00503369
-0.00202177
-0.0333465
-0.0346753
-0.0329122
-0.0528142
-0.0411144
0.383465
0.402033
-0.00244708
-0.104921
-1.20056e-05
-0.00386624
-0.0345733
0.218296
0.120682
0.000158876
-0.00356221
-0.0400294
0.174606
-0.00163934
0.00614411
0.00207622
0.0118692
-0.121888
0.350563
-0.00261383
-0.00352853
-0.000189697
0.00692477
-8.73433e-05
-0.0263553
-0.000570625
0.00659113
-0.150425
-0.0413071
0.00250222
0.0149679
-0.00121512
0.0322866
-0.0119746
0.0745426
0.16213
-0.124872
-0.0623719
-0.0241587
0.00874344
-0.0667565
0.617724
-0.0558446
0.0495976
0.669384
-0.00252147
-0.00286642
-0.073295
-0.00179131
-0.0170566
0.0108219
-0.00457639
-0.00340711
0.173927
-0.000114194
0.000928115
0.000127495
-0.00556087
-0.0113095
-1.44679e-05
-0.00180977
-0.0318871
0.577897
0.00354612
-0.0134476
0.541702
0.339634
0.0660253
-0.0953126
-0.0609615
0.00843459
0.282834
-0.0171627
0.306756
-0.0275675
-0.0768147
0.161874
0.30659
-0.0486139
0.112929
0.172913
0.269649
0.0747892
-0.00497649
-0.00685857
-0.000147076
0.00396813
-0.0175062
0.00164489
-0.000178741
-0.00265106
-0.0621519
0.0569045
-0.0253856
-0.0045054
-0.00617667
-0.0044233
-0.0112196
0.00292114
0.135312
-0.00308682
-3.71856e-05
-9.34354e-05
7.92863e-05
-0.0304637
0.169014
-0.00652199
0.0459194
-0.0919626
0.432413
0.00550064
0.0115007
-0.00828429
0.451977
-0.00174973
0.343346
0.19273
-0.000195029
-0.0297481
-0.00537823
-0.0469476
0.000955007
0.0757318
0.00517831
0.0106672
-0.0014147
0.13881
0.180037
-0.0450585
-0.0320214
-0.00376824
-0.0249336
0.00394227
0.708436
-0.0543933
0.00763152
-1.42825e-06
-0.0200982
-0.00373223
0.0295841
-0.0770233
-0.105062
0.467991
0.159394
-0.0917761
0.193425
0.441515
0.0461908
0.00202257
0.289488
-0.00149571
-0.000307207
-0.0258403
0.000144327
-0.107651
-0.000880868
-0.033739
0.00323584
0.194712
-0.00292511
-4.05283e-05
-0.0808889
0.00293221
0.0140939
-0.0544019
-0.0707125
-0.105004
0.167881
0.137943
0.142006
-0.000343883
0.0451791
0.0816379
-0.00087932
-0.0244881
0.00102633
0.00867465
-0.00479068
0.00805259
-0.00129538
0.0743894
-3.29756e-05
0.000332696
0.00334402
-0.031458
0.0337854
-0.0319053
-0.0365859
-0.0363451
-0.0928559
0.00951117
0.277989
-0.12281
-0.0105013
0.656888
-0.0530354
-0.011865
-0.0364983
-0.00979374
-0.0296992
-0.0155873
0.0448888
-0.0640493
-4.37086e-05
0.0393802
-0.000161362
0.391428
0.018177
-0.00778202
-0.0208594
-0.000315866
0.40958
0.342053
0.0269217
0.0570634
-0.0561688
0.508134
-0.000106098
0.0240845
-0.0263059
0.125877
0.609589
-0.0088344
0.155792
-0.00322691
-0.000341308
0.042454
-0.122035
0.429626
0.0182564
0.241248
-0.011062
0.442615
0.323409
-0.0139085
-0.011839
0.0292539
-0.071939
-0.000142459
-0.0192842
-0.0694377
-0.0585319
0.0187698
0.0154083
-0.000210435
0.343215
-0.00193069
-0.000173383
-0.0305452
-0.000818299
-0.000374085
0.00537001
0.222061
-0.072833
0.566312
0.00010281
0.215928
-0.0247551
-0.000127248
2.97567e-05
0.184276
0.218241
-0.00642502
0.200961
4.22758e-05
0.211803
-0.124054
-0.014539
0.464577
-0.0479531
0.0489851
-0.0350183
0.206934
0.211722
-0.0237204
-0.0297797
-0.00940602
-0.0045334
-0.000334436
-0.00211758
0.287477
-4.5629e-05
0.206232
-0.0711536
0.366227
0.19619
-0.0708185
0.548341
-0.00256831
0.00657568
-0.0456631
-0.0284467
-0.0100061
-0.0278744
0.0377548
0.64675
7.01621e-05
-0.00302438
-0.045223
9.87487e-06
0.398713
0.00298143
9.41966e-06
0.000318017
0.000629298
-0.0251412
0.028502
-0.00244081
-0.000142618
-0.0105925
0.00373725
-0.0833132
-0.0653798
0.0344253
-3.64181e-05
-0.10988
-0.018847
0.0453281
0.362846
0.0018521
0.0713462
0.000251303
-0.0180874
0.103795
-0.0100318
0.235389
-0.0185427
0.0276913
0.107617
0.154036
0.0068048
-0.0148838
0.163204
-0.0679692
0.43233
-0.0134386
0.260011
-0.0133652
-0.00182655
0.148628
0.000418483
0.0989365
0.00307549
8.22679e-06
-0.0882411
0.129834
0.00230965
0.0520881
-0.0176256
-0.108943
0.000732311
-0.0330187
-0.00263035
-0.0127119
-0.0607488
-0.0374407
-0.0140641
-0.000240778
0.459421
0.0740528
0.0454643
-0.000320085
0.323571
6.29696e-06
-0.000294764
0.0908432
0.00126457
0.105159
0.0692763
0.0265814
-0.0449764
-0.0924668
-0.0925946
0.0021165
-0.0530953
-3.10645e-05
0.00574693
0.226331
-0.0226495
-0.00434456
-0.0129502
-0.0030637
-0.000650938
0.670959
-0.0141824
-0.000875046
-9.40571e-06
0.152994
-0.0393262
-0.000525412
-0.00429683
0.177183
0.0854725
-0.0479963
2.08823e-06
0.197341
-0.0225306
0.186009
0.0262996
0.0322798
-0.0394332
-0.000153458
0.105035
0.0750234
-0.0628706
-0.0663834
0.290367
0.00975667
0.153831
-0.00423634
-0.0292789
-0.000625356
-0.00277127
-0.00017182
0.170207
0.221205
-0.00232523
0.0295022
-0.0239455
-0.0549956
-0.0607998
-0.00290103
0.0221311
0.638298
-0.0618781
-8.90297e-05
0.0860691
-0.0058984
0.541873
-0.0174894
-0.0171284
-0.00533682
-0.0196811
-0.0105204
-0.0112562
-0.00544711
0.00238669
0.0301992
0.000169221
-0.134344
-0.0565159
0.373253
-0.0462269
0.11643
0.00327437
-0.0449669
-0.0186033
0.229658
-0.010629
0.000170139
-0.0220727
-0.00817286
0.0256515
-0.035816
-0.030976
-0.0393527
-0.0203635
-0.00960414
-0.0621263
8.78443e-06
0.0444062
-0.0547275
0.0911442
-0.0530202
0.0987221
-0.0679244
0.32162
0.00505898
-0.0406586
-0.0208329
0.574553
-0.110395
-0.0182909
-0.0870274
-0.0364259
-0.0805948
-0.0494965
0.15681
-0.00432163
0.275666
0.0140267
-0.000624108
-0.00192392
0.076674
0.727824
0.00165167
-0.025328
0.18579
3.56899e-05
-0.0285348
0.0419634
-0.00683223
0.0142408
-0.00256422
-0.0372245
-0.00479716
4.58612e-05
-0.0457289
0.257043
0.00205823
-0.0230467
0.0030194
0.18508
-0.000607035
-0.00195196
-0.000570974
-0.00123907
-0.0391551
0.00116756
0.00409363
-0.0247198
7.083e-05
-0.0895068
-0.121249
-0.0976949
-0.0215233
0.0231517
-0.000339061
-0.0180784
-0.0591268
-0.0431254
0.369389
-0.00199952
-0.0636763
-0.00730551
0.00833405
0.124426
0.000696716
-0.000251004
0.0343758
-0.0450484
0.0226596
-0.00461421
-0.00324262
-0.0547299
-0.00028198
-0.00212823
-0.0187121
0.317873
0.251366
-0.0397358
-0.0531785
0.0115434
0.00531796
-0.0377928
-0.0603108
-0.0168352
-8.89999e-07
-0.032442
-0.0336311
-0.0654926
0.00496469
-0.0514172
-0.000636061
-0.00465724
0.200189
-0.0379048
-6.62832e-06
-0.00439118
-0.0987152
-0.000265351
-0.0211775
-8.13917e-05
0.00596735
-0.0813936
-0.0384107
-3.60527e-05
4.81836e-05
0.132366
-0.044999
0.413802
0.249709
-0.0267799
-0.000938001
-0.0164035
0.000344759
-0.125325
-0.0749917
-0.0868313
-0.0224441
0.22594
0.0114582
0.000430459
0.00765298
-0.0958392
0.0031072
-0.0261023
-0.0573296
0.00167381
0.0250396
0.0742158
0.0106435
-0.0305483
-0.0620636
0.195078
-0.0314179
-4.7331e-07
-0.0845769
-0.0615317
-0.0374526
0.00586672
0.00119281
0.00949043
-0.0800497
0.0361249
-0.0356651
0.0913227
-0.0439417
0.0084973
0.0219093
0.0141025
-0.0363147
-0.11445
-0.000165661
0.151488
0.215169
0.00914116
0.142154
-0.0627271
0.0499657
-0.0450947
0.205828
0.103732
0.631189
6.71293e-06
0.095714
0.175132
0.0171657
-0.00178506
-0.0194557
-0.0467376
6.64558e-05
-0.0194372
-0.04753
-0.0212531
-0.0233854
0.000203081
-0.106271
-0.000458007
-0.0010638
0.249661
0.00742062
-0.0317936
0.0228786
0.214016
0.0121815
-0.000485611
-0.0961017
0.00913366
0.389855
0.00153344
-0.0495568
-0.000274995
-0.000671006
0.00770114
-0.0511862
-3.93376e-05
-0.011804
0.0315941
-0.00233532
4.78736e-05
-5.89343e-05
0.155866
-0.0449636
0.00781378
-0.00133648
0.00989178
0.0180509
0.00971193
-0.000357088
0.348468
-0.0860341
0.226933
0.29153
-0.000257511
-0.0378568
0.0969814
-0.000933035
-0.000324916
-0.000524079
-0.0219355
0.0149923
-0.0131945
-0.0216034
-0.060238
0.172539
-0.0828456
1.50793e-05
-0.0205909
-0.0197391
-0.0366887
-0.005043
0.00690093
0.00148495
0.0312984
-0.000622879
-0.000285863
-0.0185135
-0.00497356
-0.0261742
-1.91509e-05
-0.015859
0.0371802
-0.0288239
-0.0320321
-0.00941748
-0.0126494
-0.00993149
-0.00599089
0.00796576
-0.0102573
-0.00012793
-0.000486668
0.0256581
-0.0131477
-0.00568043
0.00967902
0.00292524
-0.0979781
-0.0119654
0.159638
-0.0135275
-0.0522052
-0.0258465
-0.0239199
-0.016615
-0.00433883
0.00261149
-0.00407043
-0.0149396
-0.0171531
0.184866
0.136414
0.0482049
0.360721
-8.76409e-05
-0.00382885
-0.0174788
-0.00884312
0.0599211
-0.0214091
0.0424545
-0.00496225
0.193422
-0.0022517
-0.00189018
0.0132365
-0.0195827
-0.000263458
-0.0230857
-0.00673542
-0.022009
-2.44668e-05
-0.00756952
0.00232715
-0.0186233
0.0333843
0.0394123
0.0215173
-0.0149646
-0.0326703
0.118822
-0.00148805
-0.00227673
-0.00244828
0.536188
-0.000107727
0.0680531
-0.0223993
-0.0216047
-0.0276056
-0.0416726
-0.029882
-0.0353355
-0.019418
-0.00527235
-0.00011749
-0.00490675
-0.0228791
0.101712
0.00197667
0.094187
-0.0340328
-0.0141953
-0.00107269
-0.0300734
-0.000123628
0.150788
-0.031377
-0.0273756
-0.0250409
-0.00456061
-0.0341076
-0.00195212
-0.0414901
0.104811
-0.0270072
-0.0664985
-0.00169585
-0.0281768
-0.0195698
0.017478
-0.00372423
0.145038
-0.00277232
-0.0202404
-0.000789268
0.16325
-0.0398964
-0.0276157
-0.00373993
-0.0105986
-0.00317821
0.166284
0.000838144
0.141282
-0.00556064
-0.000954011
-0.00146226
-0.0026872
0.114294
-0.0597741
-0.00773388
0.000395238
-0.00861247
-0.0130893
-0.00105118
-0.015907
-0.0167049
0.0612451
-0.00566151
0.00461497
0.529147
-0.0610036
-0.0299479
-0.0572824
4.09142e-05
0.079519
-0.00406998
-0.0280363
-0.0063937
-0.0367299
0.00482854
-0.000625569
-0.00334053
0.00378888
0.20494
-0.00666075
-0.00206648
-0.00530634
-0.0530816
-0.0093711
-0.0233126
0.00498021
-0.00980757
-0.0101038
-0.00376587
0.206785
-0.0466562
0.00372784
-0.00484884
-0.0287607
-0.0154507
-0.0498445
-0.00162747
0.094291
0.0256626
-0.00885761
-0.00200044
-0.0149653
0.551409
0.206293
-0.0125515
-0.000674137
-0.00275208
0.00265439
-0.00455807
0.0234968
-0.000486111
-0.0180212
-0.00227827
-0.0183829
-0.137975
-0.00123513
-0.0126522
-0.00156782
0.332008
-0.00731309
-0.0129861
-0.0407575
-0.00222494
-0.0312056
-0.0297862
0.480608
-0.0119466
-0.0126461
-0.00244135
-0.000543827
1.64065e-06
-4.68272e-06
-0.0112919
-0.000776796
0.0736383
-0.000782672
-0.00209658
0.00939318
-0.000301959
-0.0450326
-0.0561866
0.0195173
0.0433169
0.0292776
-0.0302207
-0.0423085
0.0929966
0.0735982
0.0991674
0.125604
-0.0142907
-0.000997819
-0.00665219
-0.0620236
-0.00403794
-0.0164528
-0.0336529
0.325351
-0.0494069
-0.000563269
-3.60151e-05
-0.00169567
-5.43035e-07
0.00949282
-0.000651887
-0.00531555
-0.0481376
0.00062936
0.0030275
-0.000256284
0.0577538
-0.0168463
-0.0460273
-0.00140743
0.34115
0.250019
-0.01121
-0.0690517
-0.0292163
-0.025518
-0.0157819
-0.00216273
-0.0703704
-0.0339175
-0.0430517
-0.10664
-6.03868e-05
0.17935
-0.0171248
-0.0107485
-0.0313097
0.0211207
-0.000620708
-0.00937608
-0.0015734
0.0135341
-0.0017728
0.135988
0.000406706
0.0115117
-0.000483559
-0.103306
0.0101107
-0.000889385
0.00678921
0.000474921
-0.0283655
0.1094
0.00115373
-0.0016646
-0.000147503
-0.00067008
-0.000589428
-0.059928
0.127823
-0.0273203
-0.000314536
0.0100931
-0.000535044
0.234691
-0.0590051
0.241636
-0.0436009
-0.000525484
-0.000336273
-0.00821564
-0.0063939
-0.000735528
-2.15872e-05
0.0275805
0.0317748
-0.000276732
-0.000390884
-0.021149
-2.59905e-05
0.17167
-0.00107745
-0.0522959
-0.0204439
-0.00717273
-0.0547449
-0.0599572
0.154942
-0.0218509
-0.0216465
-0.000369819
-0.0557549
-0.0220902
-0.022269
0.0382032
0.366913
-0.00135369
-0.0582736
0.0129855
0.307041
0.0423313
-0.000140298
-0.00680903
-0.00462946
-0.00561281
-0.0476243
0.085604
0.00020657
0.0172259
0.00341176
0.0658964
-0.000607169
-0.000144308
-0.0897076
0.274277
-0.0539347
0.130787
-0.00146122
-0.00023643
-2.83667e-06
-0.0788251
-0.0419749
-0.000398715
0.0899911
0.0127786
-0.00604578
0.44047
-0.000459482
-0.00420682
-0.0578526
-0.0269164
-0.00261249
0.138361
-0.0580963
-0.00019428
0.0120626
-0.000205322
-0.000118607
0.133517
-0.0010177
-0.000527644
-0.0509024
-0.0259211
-0.00398365
-0.0322745
0.00275609
-0.024143
0.00190094
-0.00397771
-0.0628268
-0.0386152
0.0164645
-0.00103661
0.15414
0.21348
-0.0875268
0.0106056
0.0214286
-0.00485871
0.170698
0.0974589
-0.0290942
-0.000190185
0.0109223
-0.0541434
0.0108848
-0.0291557
-0.0024128
0.0403982
-0.0288416
-0.000160701
-8.66386e-05
-0.0385503
-0.0269519
-0.0271685
0.0108361
-0.0184156
-0.0444101
-0.000179776
-0.00160249
-0.000243683
-0.0349146
-2.8012e-05
-0.00221596
-0.0456017
-0.0867084
0.0552823
-0.00339722
0.00479172
-0.0226198
-0.0266438
-0.000151037
-0.04598
0.0341148
0.161254
2.6845e-05
-0.000130638
0.164404
-0.00287526
-0.077761
-0.0406186
0.00388011
0.000548347
-0.0656546
-0.0321534
0.168624
-0.0552027
-0.00168614
-0.0106112
-0.051925
-0.000670613
-0.000281102
-0.00104236
-0.0275535
-0.05059
0.10438
-0.00024568
0.553031
-0.0569946
0.000132216
-0.00111844
0.000287085
0.000328837
-1.6863e-05
0.000156959
-0.0520359
-0.000833623
0.000495911
-0.000231586
0.144382
-0.00645037
-0.000225705
-5.29209e-05
0.363567
-0.0227857
-0.0516789
0.00129785
-0.000834703
0.0545967
-0.000115357
-0.0142378
-0.128664
0.00250457
-0.00734968
-0.000113125
-0.000240368
-0.0317778
-0.0598642
0.00827599
-0.104338
-0.0610869
-3.27637e-05
0.0238891
0.0358623
0.112247
-0.00196474
-0.000183017
-0.0553763
-0.00684791
-0.000578627
-0.0488809
-0.000160728
0.0377082
-0.000105124
-0.00145749
-0.0631198
-0.00242911
-0.0572523
0.500586
-0.0018822
0.000313931
-0.0535938
-0.0528009
0.0103932
0.00539514
-0.000176391
-0.0322633
-9.89353e-05
0.202113
0.681224
0.0456107
0.00348842
0.00412872
-2.18374e-05
-0.0290453
-6.7759e-05
-0.00812991
-0.00194096
0.000424046
-0.00380741
-0.0106749
-0.000143404
0.000995467
-0.0092647
-0.000362911
-0.0110867
-0.0176203
-0.00865987
-0.00131933
0.605399
-0.000799587
0.00279783
0.000278291
0.0157755
-0.0492245
0.0109373
-0.000206085
-0.000116599
0.0030233
-0.000128279
-3.47155e-05
-0.0128019
0.000794787
-2.8073e-05
-0.0505291
-0.00260095
-0.0551024
-0.00187469
-7.94114e-05
-0.00354271
-0.00954109
-0.0163003
-0.0249572
0.00265804
0.000596954
-0.000537075
-0.00222967
-9.29522e-05
0.286228
0.00178409
-2.29983e-05
0.000665215
-0.00230826
-0.00041332
-0.0617607
-0.0536756
-0.000152651
-0.00778467
1.50301e-05
-0.00300385
-8.56296e-05
0.0388387
-0.000163452
-0.000217236
-0.00403021
-2.76204e-05
0.0153591
-0.000260651
-0.00143757
0.0212371
1.35848e-05
0.400303
-0.0528967
-0.041996
-2.94384e-05
-2.44272e-05
0.0021501
-0.00134858
-0.0507169
-1.97686e-05
-2.75524e-06
0.000847955
-3.48406e-06
0.000431252
0.000511957
-0.000526467
0.000897405
-0.0519327
0.516458
-0.0346908
0.351633
0.0103353
-0.0181336
-2.14942e-05
-0.00100301
-0.0133231
0.000162903
0.000323045
0.000192432
0.0369968
-0.00154754
-0.000252531
0.534111
-0.000620113
0.000666878
0.000573399
-5.39873e-06
-0.0756765
-0.00247031
0.00129545
0.000141362
-0.000612453
-7.94573e-05
-0.00106814
-0.0441338
-0.000476652
-0.00182879
-1.80706e-06
-0.000563007
-0.000297411
0.198131
-0.000504965
-0.000315705
-0.0670529
0.00430688
-9.95537e-05
-0.001513
-7.12311e-05
0.17992
-0.0703713
-0.000342936
-0.000443018
-0.0021561
-0.00018185
0.0597131
0.107938
0.0128027
0.000578206
-7.89928e-06
-1.08324e-06
0.0521049
0.000288134
-0.0596082
-0.0258371
-0.0171604
-0.133466
0.612304
0.00223872
0.183983
-0.0158936
-0.0302966
0.183409
-0.000408148
-0.0638777
-1.47802e-05
-0.00987129
-0.0489339
6.22378e-05
-0.0490037
-0.00107678
-0.00853751
-0.00617361
-0.0430941
-0.0427971
-0.00359469
-0.0598467
-0.0442765
-0.000214255
-0.0132315
-6.08508e-05
-0.0382224
-3.22291e-05
-0.000213134
0.015157
0.173538
-3.91162e-08
-0.045706
0.00406107
8.59735e-05
-0.0223977
6.40649e-06
-0.0148338
-0.000297654
-0.0390945
0.000142981
-0.000100511
-0.00229649
-5.6565e-05
0.169051
-0.0316196
0.0492698
-3.56052e-05
0.000713829
-0.0335443
7.76139e-07
-0.0563836
-0.0646093
-0.0549882
0.559021
-0.00714833
-2.02391e-05
0.0288435
-0.0421707
-0.00286803
-2.99614e-05
-9.84734e-05
-0.0474344
0.000143958
0.000993718
-5.53639e-07
0.000180467
-0.029212
0.0231257
-0.0629209
0.0954405
-0.00590327
-1.36881e-06
0.00701231
-0.0507643
-2.40284e-05
-1.59179e-05
0.000364648
7.29343e-05
0.000460962
0.176099
0.038638
6.36504e-05
1.2168e-05
-0.0644591
0.21321
0.183998
-5.12674e-05
-0.0371282
-0.020678
-0.0114447
-0.0480146
-0.0094166
-0.00323502
0.149709
-4.80405e-05
-0.0275943
0.178004
-0.0489973
-2.07323e-05
-0.0603141
-0.000199703
0.268708
0.0304484
-1.73227e-05
-3.18036e-05
0.190735
3.89891e-06
-0.000206339
-0.0127652
1.39969e-05
0.249729
0.00376715
-0.00806807
-0.0629778
-0.00416758
-0.0713539
0.194518
-0.0128552
-0.0382672
0.00112641
-2.25364e-05
-0.0011494
-9.98721e-06
-1.87048e-05
0.0231133
0.192572
0.159227
-0.000497772
0.264673
-0.01271
8.32243e-06
-0.0458996
-2.11186e-05
-0.0290358
0.0316706
-0.0156918
0.00500851
0.0021147
-0.0101226
0.000282746
-0.00186436
0.0213822
-0.00318025
-5.55959e-05
3.32844e-05
-7.0297e-05
0.0347781
6.20432e-05
-0.0237004
0.280277
-0.00660267
5.72822e-05
-0.0038259
-1.21014e-05
0.0226259
-0.000401993
-7.48353e-05
-9.64754e-05
-1.49939e-05
0.225228
-0.000172788
0.239145
-0.0605063
0.000126089
-0.0517029
-0.00054662
0.166528
0.549114
-0.00156178
2.72017e-06
1.75833e-05
-2.41369e-05
0.127858
6.97634e-07
0.00118277
-0.0254404
0.227417
7.29777e-06
1.6671e-05
3.2587e-06
2.79889e-05
-0.0217315
1.9692e-06
0.234727
-0.0172555
-0.000139926
3.34599e-05
-0.00227732
-0.0298401
1.56558e-06
-6.43625e-05
0.176274
3.79846e-05
-0.0329478
-0.0529756
0.000149578
8.50394e-07
-0.112842
1.37305e-06
0.168278
1.66137e-05
-0.000500538
1.28063e-05
-0.000197077
0.0984165
3.35522e-06
-0.00181658
8.82875e-06
0.0138532
-0.00374175
-0.00699095
0.000871312
0.163347
-0.000303688
-9.16167e-05
-0.00961199
-0.00928648
-0.000273768
-6.12109e-05
-0.000994768
4.48373e-05
0.132102
-0.0112034
0.539132
-9.11811e-07
-0.00830205
-0.000177976
0.130118
6.37814e-05
-0.0275501
2.63352e-05
-0.00174864
-0.0343277
-0.000259105
-0.0167388
-0.0495783
0.00564246
-1.09663e-05
-0.0555982
-0.000372733
-0.000332627
-0.00604633
-0.0153817
0.00144165
-5.75997e-05
-0.00048691
-0.00101408
-0.00141287
1.43119e-05
-0.00133792
0.529606
0.000109338
-0.00358321
-0.0357362
-0.0705258
-0.0620164
-0.0478748
-0.0228498
-0.000587621
-0.0171021
8.62762e-05
-9.24893e-05
0.529876
-0.000106418
0.166612
-0.000502631
0.000448686
-0.00125466
-0.0666386
-0.000466938
0.00068036
-1.75964e-05
-0.000438813
-1.86316e-05
-9.01689e-05
-0.015864
-0.000124092
-3.1856e-05
-9.39631e-05
0.000162328
-1.20579e-05
-0.0432382
0.189992
-1.12481e-05
-0.000669916
3.16748e-05
3.46361e-05
-0.000925629
1.01111e-05
-0.00100221
0.000317648
-0.000409388
-0.0627334
-0.000767954
-0.00201626
5.2789e-06
-0.00173595
0.000377431
-1.71262e-05
-1.11518e-05
1.49712e-05
-0.000882742
0.000605863
-0.044779
-0.0281326
-0.0632345
0.000646616
-0.00206124
-0.0346613
-0.0636464
-0.000106206
0.0168521
0.00760162
-0.00115867
-0.0126177
-0.0552037
0.473596
-0.00046802
-1.7065e-05
0.000990346
5.51066e-05
1.9763e-05
0.0794665
0.00403598
0.0918779
-0.0372522
0.461284
-0.000581837
2.31477e-06
0.000169098
-2.07053e-05
-0.00150521
0.151346
0.235072
-6.27225e-06
-0.000191183
-2.0112e-05
0.221772
0.0177417
-0.0063279
1.30969e-05
2.16768e-05
0.00805309
-0.000772678
-0.0691615
-0.0176194
2.64582e-05
0.00389478
-0.0320425
-6.80749e-05
0.00201957
-7.65465e-05
-0.0458466
-0.00191423
0.146364
1.85462e-05
0.00187645
-0.000134293
1.66081e-05
0.000192724
-0.0239475
1.63275e-05
-0.00101164
2.49649e-05
-0.0205308
-0.0454385
-0.00338393
-0.00771356
-0.00918921
0.0100834
-0.0093166
-0.00269598
7.55476e-05
0.00011676
2.26647e-05
1.98261e-05
-6.3637e-05
0.00998063
-0.056617
0.000550816
-0.0439556
-0.00336083
-0.0500664
9.77461e-05
-3.60228e-06
0.00146303
-0.0937125
2.0123e-05
-0.0436327
-0.0155556
-0.0753862
-0.0442581
2.96768e-05
-0.00375068
0.000216914
-0.134941
0.140134
1.21471e-05
-0.0584602
-0.0231709
-0.00460156
4.21769e-05
-9.74521e-06
0.0260408
-0.017354
2.64013e-05
-0.00727791
-6.15276e-06
0.000241133
0.127101
-9.46368e-06
2.53566e-06
-9.68574e-05
3.84393e-05
0.00100684
9.81581e-05
-0.00565308
0.000261303
-0.0132581
0.00123515
-0.000231896
-0.0330191
-0.042942
-0.00672508
-1.71292e-05
2.37908e-05
-0.0589747
0.00637646
-0.0472747
3.14904e-05
-0.00554853
-4.10144e-05
2.70182e-05
0.0697645
-0.00748053
-0.00302013
-2.21948e-06
-0.0185441
5.53229e-05
-0.0649129
2.96679e-05
-0.0730234
2.02197e-05
-6.74808e-06
9.49583e-05
0.00114239
-0.0833038
-0.0187848
-0.0671595
1.72884e-05
0.000104446
-0.0743392
-0.0260555
-0.00895099
-5.50631e-06
-0.0331103
-0.0498234
-0.0743344
3.16036e-06
-8.73431e-06
3.82847e-06
-0.0760941
-0.065228
0.000808265
-0.0116347
-6.365e-05
0.182456
0.000105295
1.53933e-05
0.000167539
-1.11925e-05
-9.63105e-06
-0.00390667
0.000125932
-0.00277636
-0.0626558
-0.0137026
-0.0567657
4.38284e-05
-5.76522e-05
0.0503305
-0.0512218
-0.0050888
0.115148
3.70483e-06
-1.51645e-05
-1.38268e-05
0.0718282
0.000193097
-3.74072e-06
-5.70497e-06
-0.0588865
-0.0161241
5.37094e-06
8.56939e-05
-0.00976488
-0.00684113
0.000478597
0.236779
-0.0576938
0.000176848
0.690174
-2.2087e-05
-0.000758105
-0.0090153
-0.0741795
6.58622e-06
-3.87925e-06
2.39157e-05
0.00530608
-0.0332669
-0.000374275
-0.048871
-0.00819658
2.94701e-05
-5.21251e-06
-0.0106812
-0.00511157
-0.0223128
-0.0761957
-0.0451551
-0.0390269
-0.0141769
-0.0276328
-7.10153e-05
0.00039434
0.00474657
0.000594751
-8.98154e-05
0.000852428
3.34318e-05
-0.000103716
-0.0126812
-1.34682e-05
-3.24762e-05
0.0361058
-0.0261818
-0.000180978
-4.69455e-05
-6.42589e-06
0.259854
-0.00703079
0.000875651
-0.0287284
0.000254264
0.000221081
0.000190417
-5.48571e-05
0.000537709
-0.038144
0.0173257
-1.02522e-05
-0.000182855
-0.0417312
-0.0323086
0.0513266
-0.000540259
0.00204813
0.0194544
1.48743e-06
6.64955e-05
-0.0472325
2.46426e-05
0.170756
8.21636e-06
0.00464085
0.000185039
0.000248728
-0.067767
-0.00776958
-0.0185335
-0.00259225
2.9369e-05
0.00699436
0.0643234
-0.0128845
-0.000149733
0.0978441
0.166648
3.68607e-06
-0.0514382
-7.50483e-05
-1.16868e-05
-5.00205e-05
-0.000622641
0.0215214
-7.70607e-06
0.00027502
-0.0252667
-0.0263671
-0.0226705
0.328943
1.86668e-05
-7.75515e-05
0.175872
-0.00651457
-0.0040661
-0.000717008
0.173105
4.83268e-05
-0.000347216
4.96705e-05
2.84365e-05
3.49569e-05
3.98843e-05
8.18988e-05
-0.0183849
8.47209e-06
-0.00356699
-0.0444365
0.240177
-0.000158855
-5.55984e-05
0.00519573
0.0879631
-0.0465172
-0.000824858
-0.0679356
0.326288
4.78218e-05
0.432198
-5.03177e-06
0.00368278
0.026314
0.000483583
0.470161
-1.77858e-05
-6.82092e-06
0.0012862
3.42872e-05
-0.000945283
0.000291392
1.15923e-05
-0.00212094
9.77735e-06
-0.000161279
-0.00355128
0.25324
0.0526327
0.0238935
-0.0437022
-5.74082e-06
-2.07898e-05
0.00374259
-0.0545801
-1.10607e-05
-0.0464619
-6.02322e-05
0.10681
0.0646077
-0.0336799
-0.00146633
-0.0125547
-0.00107507
-0.0154522
0.00409249
-0.00784536
0.066226
2.31972e-06
0.216889
0.0190323
-0.00064663
0.21467
-0.0139924
-1.38724e-05
2.50478e-05
7.40928e-05
-0.000232869
-0.000135051
0.257299
-0.00106978
0.263382
-0.0011779
0.171205
0.224686
0.0857651
-0.00746718
-6.10802e-06
6.86376e-05
-0.0111548
-0.102505
-0.0486599
0.00165673
2.1026e-05
-0.038503
-0.000350098
4.61733e-06
0.00112194
-0.0011647
-0.000712551
0.0353981
8.38055e-05
-0.0482875
0.0600315
6.43637e-05
0.00029785
-0.0150431
-0.0578149
-0.000800512
-0.000570119
1.33534e-05
0.000277159
0.0390484
-0.0177888
-0.0482412
0.00145322
0.0718116
-0.0394958
3.86535e-05
2.45394e-05
0.014518
-0.000101835
0.061319
0.00137119
-0.0142198
-0.000422313
0.0018043
-0.0369631
-4.15358e-05
0.000545288
-0.000509122
-0.0723744
0.136598
-0.061351
-0.0278263
-0.000184578
-5.10989e-05
0.00739432
5.10325e-05
-0.0728827
-0.0650962
0.000624818
0.00373882
0.00417639
-0.0891017
0.000707665
0.000210914
4.10728e-05
-0.041851
3.13436e-05
0.000619582
0.126017
0.186099
-0.102038
0.0520672
0.0508461
0.0154614
-0.000178266
0.0124412
0.000136493
9.66245e-06
-8.32324e-05
-6.92709e-07
2.69327e-05
-0.00039345
-0.0081244
-0.0567709
-0.0103393
-0.0299698
0.0555108
0.0465812
0.00448961
-0.0627115
0.00017805
0.00510602
0.0123181
-0.000427608
0.0774149
-0.00136203
-0.0116075
0.0130658
0.00605678
0.00110819
-0.00433342
0.0453301
0.000915125
-0.0205898
-0.0172959
0.562681
-0.0257936
0.0836429
0.0137867
-0.0384304
0.00243448
0.000111656
-0.00278022
6.11669e-05
-0.00284541
-0.0263529
-7.8037e-05
-5.34449e-05
0.271041
-0.00356051
-0.0425432
-0.0196679
0.00022478
-0.0015757
-2.60144e-05
8.32012e-06
0.0401622
4.43101e-05
-0.00317575
0.0776891
0.0068731
0.00124161
0.0199464
-0.00616815
0.00461618
-0.103531
0.000961553
-0.00477303
-0.0561747
-0.0009393
-0.00862046
0.000835776
0.000974346
0.00109778
0.0386776
-0.00035109
0.00621828
-0.0542228
-0.021658
0.00034432
-0.0538509
-0.015767
-0.018036
0.000115243
0.00727084
-0.067607
-0.000919046
-0.00522204
-0.0501641
6.96085e-05
-0.00127546
0.226221
-0.0226655
-4.58923e-05
0.00904881
-0.0508981
-0.00114729
0.203158
-0.00240568
0.00112565
0.0629772
-0.00155449
0.00910821
0.133146
6.74349e-05
0.00129816
0.000196497
3.81231e-05
-0.00483975
-0.00775024
-0.000148203
-0.0251694
0.0999641
-0.0381401
-0.0703481
0.00128841
-0.00352902
-0.000671163
-0.0476264
2.79338e-05
0.0177919
4.66278e-05
-0.0167297
-0.00211631
-0.00534541
-0.109285
0.115272
-0.0748364
-5.94913e-05
0.190542
-0.00212574
-0.00279506
-0.059135
-0.0785728
-0.0164498
-3.34381e-05
-0.00123468
0.00794874
-0.00333881
-0.00508278
0.000481153
0.089572
-0.0441176
-0.0117943
-0.00714842
0.023163
-0.00285487
-0.0012841
0.0018883
-3.41803e-05
-0.00333865
0.113754
0.000877129
-0.11237
-6.49425e-05
-0.0078446
-0.00396389
-0.0838303
-0.012201
-0.0961769
-7.19029e-05
-6.97804e-05
-0.0046046
0.0116292
0.00199937
-0.107545
0.0858004
-0.049125
0.0002068
-0.117047
7.65884e-06
-0.122878
-0.0264881
-0.144603
-0.154419
-0.162528
-0.169659
-0.170882
-0.162377
-0.147985
-0.12186
-0.097881
0.0239652
0.0683712
0.116539
0.199595
-0.00858781
-0.00790141
0.0582867
-0.0189831
0.000994148
0.015779
-0.0413463
0.0005813
-0.000737291
-3.20419e-06
-0.0150483
0.0194123
4.89563e-05
-0.00034849
-0.0111347
-0.0069605
-0.1396
-0.0142024
-0.0562778
-7.33132e-06
0.000632308
-5.74976e-05
-0.0542998
-0.00936007
-0.037505
-0.0113468
0.00190719
0.000246154
0.00518989
-3.6555e-05
-0.0127306
-1.94546e-05
0.000409503
-0.00665816
-0.0121669
-0.000305399
0.000360107
0.0517593
-0.0109894
0.0626825
-0.130712
-0.00886007
-0.0242797
-0.0196302
0.00406001
-0.022517
-0.00351038
-0.0132136
-0.0134475
0.364248
-0.0014372
7.50668e-05
-0.00621445
-0.00951439
3.4226e-06
0.0842827
-0.00438516
0.337578
-0.17867
-0.045061
-0.0277207
0.0451385
-0.0053256
-5.5024e-05