/*--------------------------------*- C++ -*----------------------------------*\
  =========                 |
  \\      /  F ield         | OpenFOAM: The Open Source CFD Toolbox
   \\    /   O peration     | Website:  https://openfoam.org
    \\  /    A nd           | Version:  7
     \\/     M anipulation  |
\*---------------------------------------------------------------------------*/
FoamFile
{
    version     2.0;
    format      ascii;
    class       surfaceScalarField;
    location    "20";
    object      phi;
}
// * * * * * * * * * * * * * * * * * * * * * * * * * * * * * * * * * * * * * //

dimensions      [0 3 -1 0 0 0 0];

internalField   nonuniform List<scalar> 
11265
(
144.906
-527.546
382.64
-756.586
3.97771
752.608
426.163
-373.078
-53.0852
655.424
263.797
-919.221
1510.91
-1069.45
-441.462
1216.28
-1527.13
310.842
-34.0781
470.11
-436.032
168.826
-842.275
673.45
962.091
-1610.81
648.723
-1764.65
1670.89
93.7586
-542.947
1759.23
-1140.62
1934.44
-793.827
608.038
181.217
-789.256
-25.3346
-1314.49
1339.83
220.836
-1985.48
1023.68
-382.185
-641.49
-203.823
348.729
485.58
190.648
-676.229
1155.43
-1313.26
157.827
-304.63
375.163
-70.5333
999.788
-1315.27
315.479
1221.55
799.294
-2020.84
73.4139
-1640.35
1566.94
-487.845
-1164.35
1652.19
476.618
182.03
-658.648
-189.505
-338.041
498.08
1012.83
1647.63
-1806.17
158.536
-94.9308
-1689.94
1784.87
-1558.82
651.672
907.152
-307.266
653.569
-346.303
-191.014
-124.053
315.067
1284.65
-1211.24
355.217
-1407.41
1052.19
-1754.31
1754.31
101.55
1532.69
-1634.24
-1078.86
-479.962
651.775
-685.854
-384.474
941.643
-557.169
1331.9
-1317.29
-14.6134
-1100.44
715.965
627.077
396.598
-380.403
-41.8402
422.244
-467.493
758.713
-291.22
-1618.47
1618.47
1253.58
-1437.89
184.308
-488.606
1710.16
1255.43
-313.787
1660.74
-1161.25
-499.496
81.1831
-385.813
2065.33
-1135.03
-930.303
1813.74
-166.106
455.64
156.157
-611.797
-457.55
969.57
-512.019
-1171.19
1272.74
-568.293
970.915
-402.622
401.079
754.354
661.392
-492.566
-437.862
595.174
-157.312
1190.68
-835.46
2308.2
-1080.67
-1227.53
1163.69
-2008.75
845.06
-1602.78
1577.44
440.692
-1581.31
-759.072
1250.7
-491.626
-672.723
365.457
1661.46
-699.371
-1106.93
-870.894
1977.82
711.783
-359.609
-352.174
689.803
565.627
-258.21
1511.79
115.732
-319.161
203.43
-284.868
761.486
-334.864
565.517
-230.653
-324.564
810.144
-318.358
-149.215
467.572
319.252
106.912
1458.61
-458.826
-982.863
472.532
510.331
279.432
89.751
-369.183
949.484
-341.446
-1704.77
631.118
1073.65
12.1013
-855.777
843.675
-281.011
595.978
-314.967
157.194
-1093.89
936.694
1051.49
-1067.06
15.5703
373.057
518.723
-891.78
-245.461
701.101
-1103.69
-482.184
1585.87
-678.069
950.94
-272.871
1355.6
-1450.54
-615.329
234.064
381.264
-470.195
-1011.55
1481.75
-538.958
-793.565
1332.52
576.197
-996.344
420.147
-265.498
-316.954
582.452
407.377
-291.645
-1036.12
578.573
955.452
-798.258
-110.341
943.964
-833.623
-210.418
419.088
-208.67
-642.21
-340.653
-386.742
962.938
1856.37
-1856.37
-495.214
-120.115
-954.994
1569.96
-614.97
460.359
-894.477
434.118
-923.735
355.442
-941.909
-1058.08
-1488.06
342.632
1145.43
-276.856
932.28
-307.693
607.838
-300.145
-1941.9
999.994
-1139.81
-348.248
558.894
-1513.89
1728.52
-1725.65
-2.86873
196.014
-583.162
387.149
-1466.89
980.183
486.707
288.181
212.8
-500.98
310.245
-645.109
242.526
-418.828
176.302
2019.12
-860.145
-1158.98
-536.881
156.477
616.791
835.044
-1451.84
-184.321
426.848
431.304
876.771
-1308.07
-908.052
393.532
514.52
-1046.18
1447.26
-1068.7
309.625
752.065
-98.4964
527.98
-322.887
-205.093
1007.31
-534.781
593.347
-1403.88
810.53
-1342.3
238.612
-547.112
266.101
-1200.47
923.618
1940.53
-995.568
-944.962
276.802
1579.57
-2094.5
895.024
1199.47
365.699
-31.2038
-334.495
-223.913
482.528
-258.616
-112.163
-376.432
488.596
-467.198
148.84
341.604
-131.483
591.842
413.242
383.267
-796.509
-2042.94
1121.59
921.346
461.179
-532.402
71.2228
222.184
-363.891
141.708
997.322
1021.8
1785.67
-252.977
701.862
-467.798
796.749
-1389.78
593.029
334.254
377.529
1054.14
-1042.04
-489.568
-259.337
748.905
478.624
-136.832
-341.792
797.343
-616.125
542.47
-733.401
190.931
503.331
1157.41
-1239.98
701.021
1039.64
-1527.49
-3.13025
-1439.43
1442.56
325.573
824.655
-1150.23
623.142
269.962
-893.104
-2272.37
1156.56
1115.81
-1111.82
-1160.55
172.746
369.724
958.715
-633.141
879.062
-898.8
19.7381
-2099.38
992.454
-225.665
-189.846
415.512
-41.7753
1770.3
-821.91
65.324
-1028.11
-1066.38
-229.713
451.896
-652.737
157.523
-269.893
-454.751
724.644
1104.02
-1574.22
782.976
-1374.46
591.484
707.543
-443.746
1947.86
-1444.53
-378.286
-1376.03
59.947
410.163
-522.099
526.077
10.4515
-563.438
552.986
569.797
-281.617
-604.893
279.771
325.122
778.012
-364.771
33.9182
331.781
1188.47
-1191.6
178.718
228.659
426.167
-696.06
619.559
-1006.3
-2026.72
2026.72
-265.971
-464.885
730.855
699.186
405.873
-1105.06
579.621
172.444
399.104
378.908
-2199.75
1328.86
-926.576
-679.052
1605.63
-485.812
-714.661
-277.343
581.565
-304.222
842.2
-220.402
-621.798
-434.681
630.694
365.895
-673.588
-350.353
-115.449
465.802
-1331.31
-474.852
644.648
-1130.46
-374.148
-1244.32
844.333
1463.86
303.855
-910.587
606.732
966.565
-339.488
1391.41
-798.061
444.949
-266.231
-328.431
-886.885
588.676
298.21
-352.632
-534.253
306.228
-418.391
-184.732
-159.133
343.865
-392.77
1091.96
435.07
-244.421
-394.739
1351.53
-166.186
-1185.35
-457.695
265.285
192.409
239.854
278.87
-518.724
-5.67887
-727.722
592.107
-1729.02
1136.91
1482.16
-865.367
-1053.62
-413.27
-1057.2
573.515
483.687
1386.45
-406.27
929.233
-1411.42
-175.792
-179.152
354.943
-469.219
580.774
-1626.96
427.939
903.964
283.881
342.244
-626.125
568.062
1186.25
1104.05
-714.606
-389.446
406.623
-219.284
-187.338
-1419.46
445.379
738.161
-1183.54
1473.36
-544.131
-506.853
951.411
-444.558
426.149
1186.16
-1612.3
47.3741
-725.443
-144.86
424.291
192.581
-383.595
543.135
464.179
-588.643
36.9586
551.685
1024.53
-1307.67
283.132
661.713
-262.609
468.283
-1447.25
978.964
392.438
1686.66
-522.97
887.063
1053.47
-661.587
-1684.6
758.027
560.478
397.906
-958.385
454.357
78.8157
1749.98
-1828.79
1443.73
-379.491
-1064.24
1699.14
-1740.91
-367.399
-514.114
714.125
-200.012
-502.592
184.712
293.912
-373.201
-1225.99
214.439
-764.62
-639.256
-626.403
994.854
-368.45
-653.11
643.085
10.0258
655.007
-923.652
268.645
-702.164
346.811
355.353
-648.509
-717.214
358.692
358.521
-932.298
1400.58
-414.772
884.997
-470.225
-2205.31
5.5581
181.102
-536.68
355.578
139.363
1212.17
-62.1555
-590.581
159.662
-597.524
1487.16
-704.187
372.915
-462.856
89.9409
-564.98
564.98
1223.03
395.434
1777.95
-1228.8
589.308
639.489
849.433
-52.0908
1291.63
773.704
-540.221
1336.97
294.648
301.33
274.065
-788.179
207.804
-675.297
231.174
-444.508
213.334
-260.525
596.797
-336.272
111.556
-372.082
-591.846
-564.609
1156.45
-403.631
524.176
-120.545
-1192.16
2032.04
-839.886
1289.7
-330.985
-401.782
136.284
-1984.85
820.502
1539.47
-855.371
-684.098
1986.97
-877.436
-1109.53
713.684
576.016
-240.795
471.969
-687.682
1160.32
-472.641
-769.991
1201.29
551.624
924.652
-1725.1
800.453
-580.993
-45.2325
626.226
264.874
263.106
418.388
-86.514
-331.874
896.757
-83.4915
-813.265
908.854
-564.746
-344.108
1576.2
-472.175
889.398
-1626.58
737.183
1068.47
879.39
749.44
-443.643
-305.797
-1059
-258.292
560.87
577.891
-1138.76
-505.78
487.331
18.4487
577.666
-345.577
-232.088
-982.632
567.859
595.529
886.629
-441.824
1096.83
1411.27
-778.792
-632.478
396.508
-924.89
528.382
-1026.99
384.777
557.884
-1064.74
412.934
-494.582
81.6483
443.292
315.421
-516.259
-48.7217
-794.313
-878.366
1672.68
194.927
211.695
-238.165
410.911
-1.10832
-560.845
561.954
495.657
865.061
-1360.72
-496.835
312.103
985.701
-88.944
836.231
-1064.84
228.612
410.642
846.199
-1386.42
-445.863
829.13
1978.07
-1284.44
-693.636
269.97
609.092
255.83
795.662
85.1548
-974.396
889.241
1673.74
-1089.04
-584.702
-137.866
1887.85
-1866.06
-160.655
483.33
-621.511
138.18
-1014.17
526.668
487.502
-1730.47
538.319
-955.807
845.466
392.29
202.884
574.908
-271.052
-421.761
711.008
255.557
45.0016
721.405
-766.407
-1139.85
-888.175
2028.03
-552.47
1107.41
-554.943
-465.786
-333.965
108.3
-1654.81
860.495
-851.722
-616.084
1467.81
-331.348
-295.122
626.47
358.435
-670.026
311.592
238.465
-603.236
303.447
204.241
-507.688
357.6
-634.943
642.931
-284.496
315.089
-464.303
683.693
444.638
-204.784
-414.801
-302.413
1220.57
-1.171
-1219.4
1039.7
-420.142
560.162
410.754
-1782.36
869.823
912.538
490.74
547.783
-1038.52
-534.94
203.592
-263.061
1180.95
-917.884
-1590.88
1212.59
504.67
-1096.52
386.015
-13.1008
459.915
291.585
-751.5
372.462
-617.923
-31.9143
756.103
-724.188
-525.835
795.797
386.755
322.257
527.177
653.697
98.839
-441.477
342.638
1058.79
-645.102
-413.693
494.02
-1664.27
1170.25
-1140.41
1753.24
-612.83
1715.83
-1123.72
-334.856
614.626
-1189.5
1274.66
425.105
-795.927
1602.91
-806.986
-242.364
-215.331
-906.256
1470.17
1812.72
-611.176
-1201.55
-405.012
677.885
-1304.29
-124.733
-66.5419
484.93
-687.333
-354.177
-1236.7
-221.769
460.234
903.478
-558.743
182.311
-1674.61
-71.2136
1745.83
-1070.33
517.855
568.698
-1181.77
613.075
901.062
911.66
630.713
619.985
696.847
254.564
-1152.38
464.702
-399.381
409.832
620.842
-515.113
247.05
-731.769
484.719
717.611
-383.357
-306.193
182.14
-585.449
240.052
345.397
-887.668
-738.912
1087.67
-2145.75
399.234
-684.102
-342.907
-724.155
831.942
579.328
-343.808
301.968
404.061
243.546
631.311
-874.858
541.149
619.174
-506.109
155.756
375.771
-641.741
-1055.04
-841.022
1896.06
-1797.38
157.028
1107.1
-1370.16
1174.87
-721.193
-453.681
-503.709
1349.91
-1495.52
627.89
867.633
-286.822
-210.344
497.166
1428.4
558.563
325.62
-441.069
-484.303
-566.691
1050.99
-417.9
599.003
1582.42
-1129.38
-453.04
-803.614
338.73
654.819
403.975
-1623.43
416.166
1207.26
-194.158
497.605
797.804
784.617
174.523
-678.865
504.342
207.406
211.683
-292.332
-109.526
401.858
471.095
51.9081
-523.003
-1645.25
591.627
-1609.78
1676.09
-66.3098
11.201
-1620.99
1069.58
780.712
-320.798
-823.872
-203.115
-1134.57
-239.888
-312.203
684.665
-1812.48
-628.666
1206.56
211.834
757.736
-1330.19
-678.557
-465.526
649.172
-365.291
-1013.28
1350.77
-1932.87
582.102
646.335
1288.11
485.424
-2.89536
716.25
705.231
-1421.48
-639.324
337.146
302.177
439.987
-100.227
-339.76
150.688
280.034
162.044
-442.078
-584.282
1144.76
460.213
-626.325
-461.705
-401.936
863.641
-324.635
148.843
-458.337
166.692
-305.027
-709.144
547.607
-107.62
-570.87
967.379
578.111
-269.464
-308.646
455.668
-780.232
-644.155
442.184
-1129.41
-838.478
1181.11
-569.77
447.768
301.137
-479.229
119.62
1028.89
-316.047
592.706
-276.659
-509.042
1578.62
-707.446
261.543
371.112
-632.655
199.719
524.704
-19.165
-505.539
-253.54
-204.797
1004.43
1108.92
564.816
-873.577
935.391
-61.8135
-455.424
168.602
-763.331
308.579
-594.322
364.31
353.301
832.565
-1251.36
418.797
777.486
-809.401
-948.942
-550.383
1499.33
-164.869
507.112
-524.314
201.427
1309
771.353
-596.831
1332.94
-688.297
487.779
-662.71
-408.483
-423.347
-378.687
802.034
502.678
-844.124
-475.661
73.0922
402.569
-323.536
572.425
729.281
-330.047
-245.161
-175.625
420.786
-488.792
145.027
343.765
1458.17
81.0978
-1539.27
-751.36
1346.89
-1144.76
-466.052
560.224
-189.113
1150.64
-373.157
1083.49
492.707
690.189
-416.123
-885.047
-522.363
-1328.43
-26.2357
985.008
-958.772
612.177
344.096
-956.272
-317.605
-219.276
-682.72
405.522
1621.19
-191.438
366.277
347.121
-713.398
-1839.78
-2106.68
1519.14
587.542
-2039.01
349.072
375.272
547.18
-922.452
-460.309
1020.47
-405.803
-682.34
1088.14
-2030.53
1391.21
639.325
609.297
-1015.1
25.9522
386.982
386.798
199.148
245.801
359.836
984.569
891.276
680.403
-325.86
-354.542
-293.98
622.12
-328.14
573.559
530.493
565.287
514.866
-1080.15
-796.205
-699.317
752.497
398.147
-416.991
728.583
-1193.41
1609.58
429.251
-1111.59
-321.534
525.775
-1388.53
891.471
497.061
-723.134
-354.687
-773.392
335.555
437.837
447.117
718.262
-1165.38
1069.28
-578.539
-401.6
648.136
-246.536
253.738
324.372
-468.159
-432.187
900.346
-236.959
567.173
-951.046
383.874
-459.876
600.599
-1681.27
423.799
670.975
-1094.77
517.012
90.8262
113.408
-2212.79
556.069
-108.301
1444.14
1777.09
-217.552
-1559.54
-438.446
1789.22
-1987
1194.49
792.512
403.431
346.009
-39.1989
871.141
-1283.35
718.74
-870.095
-822.762
796.526
307.735
52.5538
-360.289
228.312
183.229
-411.541
1553.47
-837.221
-1530.94
-325.432
455.484
-199.563
-255.921
394.722
366.764
243.036
406.137
-9.16067
1001.8
-992.636
416.011
276.101
-692.111
-734.069
1817.32
-1083.25
-342.978
737.7
-1220.1
-414.146
-915.707
483.52
599.8
-808.796
208.996
761.935
-380.625
-381.31
-433.368
-440.209
450.789
1099.03
1237.18
-668.481
801.379
-345.711
405.731
325.125
-251.208
-211.648
-230.659
623.097
408.128
-847.951
439.823
240.29
363.098
-603.389
-422.692
830.821
754.532
-1147.3
897.573
-65.0081
-488.34
272.56
781.577
-95.8825
1383.99
1890.5
-70.2837
335.569
-345.874
444.713
-1086.23
1077.07
659.046
376.52
385.415
64.654
390.83
256.788
495.82
-371.104
-268.219
-563.511
-89.5991
-355.59
366.782
-11.1917
-258.185
-288.926
1011.01
-1540.71
529.701
-179.504
-193.574
-419.824
695.924
-1634.41
1591.03
-963.142
282.556
-691.039
584.316
1224.42
-1808.74
607.417
983.615
304.82
-1119.36
697.601
-315.943
-310.182
1379.1
-1445.57
827.576
617.997
425.407
-612.48
187.072
-354.187
461.22
-107.033
400.557
70.5379
1723.95
460.476
-253.07
557.632
-1704.79
1147.16
-93.8538
408.363
343.245
337.158
-448.586
-615.614
1064.2
415.981
-861.844
-641.044
902.883
570.481
-475.249
-226.915
-438.855
-409.096
-307.308
-827.264
1821.11
-1821.11
-103.615
-1595.17
1698.78
293.21
284.456
-917.223
-555.379
1472.6
-408.238
973.525
-602.632
-1042.62
704.948
383.082
-1088.03
477.896
-162.808
573.063
1220.35
-1793.41
-1044.59
2114.94
-1070.35
-374.936
-297.787
-505.094
843.823
-1752.34
1601.46
150.879
1752.34
-1606.15
-146.194
-245.974
524.984
-279.01
-537.288
1620.78
1567.5
-1981.65
1089.72
-335.13
-223.965
559.094
232.63
-554.164
-723.157
306.166
1341.61
636.463
580.063
483.653
-1063.72
277.17
413.019
875.403
500.111
-1375.51
533.321
-1017.62
1574.96
-563.944
-786.659
-378.754
-143.894
522.648
-490.053
1208.31
-740.342
333.196
367.906
357.98
246.845
-604.825
590.61
831.924
-603.312
256.676
678.714
-475.249
-369.124
-201.005
570.129
1168.54
-687.243
610.038
465.944
-1075.98
-1285.88
1285.88
-386.303
762.822
-284.442
-476.015
760.457
487.966
443.548
-931.514
389.446
-673.888
610.878
-868.616
257.738
-367.418
-494.214
1074.28
-661.48
-710.28
1371.76
-366.586
933.759
-1552.71
675.272
-4.08039
-363.287
367.367
-543.208
700.731
277.489
319.309
170.774
307.123
-558.844
242.901
1869.59
-1965.47
253.816
-688.497
447.791
-819.901
372.11
-913.893
1426.4
-512.51
-429.95
-485.756
600.74
1124.19
-1724.93
-715.631
340.695
-460.911
1034.47
-783.752
1040.43
-379.008
-628.836
-504.923
712.727
540.2
-358.17
903.948
-299.53
-189.262
1599.02
-1816.57
-334.704
-616.342
-331.564
476.591
265.944
-631.235
-160.042
1065.09
-792.53
208.171
-315.578
-275.728
591.307
388.785
-875.152
486.367
-486.769
-449.388
-910.587
-349.503
540.722
-191.22
-436.523
-422.284
-320.946
-186.742
-384.36
631.205
-466.519
791.644
-1072.75
624.165
-1409.12
557.394
-28.0514
-1835.79
1863.84
569.941
-449.726
1220.81
-702.951
290.916
-290.916
671.043
-436.228
1043.88
-1646.51
-1158.73
-947.95
292.651
329.47
888.583
714.331
-501.908
-287.775
789.683
1657.86
-1685.91
-434.326
348.068
221.729
1135.1
-525.062
-943.334
1550.48
-607.143
444.572
-245.424
382.626
405.72
-788.347
531.191
469.482
-1000.67
-331.892
665.088
-37.9004
1907.49
1602.77
992.8
-1696.99
727.062
-1177.09
450.025
-492.475
1367.88
837.618
-1341.33
-577.615
242.485
796.267
-398.361
551.617
-1188.08
636.459
-638.063
-1215.54
-695.658
1911.19
-186.675
527.253
-340.578
-120.253
287.321
-473.997
327.631
370.678
-698.309
-1483.67
756.451
727.215
884.077
-1434.46
825.309
-431.777
219.426
-364.286
-606.795
237.671
-664.477
-724.055
698.666
506.283
-1204.95
393.404
-204.579
-188.826
555.937
-958.559
-569.6
-450.736
759.315
-831.299
-1155.7
-1437.97
499.658
938.313
31.4515
-647.388
308.708
338.68
-1314.15
1045.27
268.88
-616.537
-456.215
-665.849
921.678
401.672
-203.505
-198.167
508.233
980.636
-1488.87
974.739
-562.723
166.633
396.09
-426.17
661.109
-407.293
-504.681
173.117
234.326
-1518.76
528.489
540.79
-755.417
212.209
155.182
-454.713
366.675
-816.063
1954.16
-1195.39
-758.77
442.365
-670.538
228.173
323.836
319.727
122.769
-442.496
-569.041
194.765
265.711
-691.737
1374.35
-682.61
424.087
473.491
-1196.62
266.798
1866.78
-1013.59
-853.186
784.835
-501.466
151.963
1402.37
-975.181
-427.19
331.018
-767.246
-616.518
1725.44
611.038
626.141
317.874
-10.1388
259.509
-1138.42
1725.72
-587.297
-1763.53
820.192
1760.81
-1691.12
-69.692
-653.681
254.3
598.982
-706.146
201.223
1402.72
-565.103
388.138
440.993
-1858.59
1420.14
517.937
-445.287
-72.65
202.026
-522.972
-318.228
-147.558
-352.773
696.018
-615.056
236.302
610.273
549.65
-1159.92
1113.63
-1947.49
833.854
145.998
319.804
-1699.1
1661.2
311.703
-727.827
-164.427
383.853
755.566
678.758
-1434.32
1078.93
-1080.1
524.431
-1102.97
-630.876
253.37
377.506
512.646
-272.594
-614.255
-1032.26
290.774
-713.058
-912.32
173.066
165.469
227.935
385.386
287.769
-673.155
-630.156
-834.032
-978.446
488.304
-1057.34
-278.329
470.738
532.898
648.212
-279.602
-122.18
-440.173
744.993
263.776
-1198.57
568.416
1308.66
-553.093
438.733
-1008.33
-387.221
119.164
398.772
1023.34
551.614
-1719.17
1615.55
1640.77
-577.068
-1063.71
1903.6
-1892.18
-11.4204
224.753
-570.626
-337.063
545.234
-769.345
-317.001
-336.68
1026.52
699.852
-1508.8
808.947
313.52
-26.189
1625.21
-1093.12
405.877
-1254.77
468.113
-60.5759
1518.74
1197.41
-470.345
-488.485
-74.2375
-232.933
736.027
-1951.56
-710.672
347.593
-531.387
183.794
191.304
-507.351
1139.92
671.563
-1811.48
-582.691
137.405
941.988
-1497.37
-210.51
678.888
-468.377
880.44
1119.56
-738.262
1349.3
630.328
-535.35
-94.9783
-344.831
1172.41
1049.95
-1981.05
931.097
-1171.4
542.735
1488.8
-585.913
-380.503
-125.606
-1241.22
572.737
1166.24
-92.5862
946.099
775.59
-1721.69
-211.15
578.536
-1541.75
963.215
487.001
916.632
-1403.63
620.217
586.341
384.158
-1106.64
590.994
1106.23
1215.8
-452.314
-763.485
-1186.2
-1754.94
-6.50209
-1712.66
-179.226
-433.253
1607.47
-628.945
-978.528
-490.861
1121.57
-1317.78
635.925
681.854
-1361.84
1442.93
-1330.25
591.991
1520.52
-402.092
-544.211
163.708
-1490.96
228.13
176.38
200.086
430.242
457.23
392.477
-849.707
506.36
-939.014
900.727
-1444.86
-689.283
212.306
476.976
-1040.33
456.044
-473.41
861.547
694.841
30.425
-503.629
163.051
-886.566
-1318.74
-715.75
349.893
365.858
403.963
-723.326
319.363
-479.235
-189.387
-709.413
719.805
1539.67
-593.569
816.327
737.143
1344.79
-844.675
-971.276
-570.476
-797.42
428.126
369.294
-1036.68
-643.063
304.334
338.729
-1433.69
-296.781
-790.906
398.159
392.747
-639.2
408.166
231.034
-665.433
258.14
412.799
487.547
389.943
440.877
478.981
384.66
596.607
-969.808
679.62
465.141
453.549
356.487
-810.036
1630.76
-1079.89
-550.872
-504.567
-286.442
-1027.71
454.181
347.853
409.694
594.084
-1003.78
-1380.84
751.892
-532.821
1145.9
344.991
-64.9569
412.296
-865.663
453.367
-1898.41
303.24
441.402
-726.381
284.979
-186.363
405.357
-218.993
-661.988
307.784
354.204
-674.701
320.158
371.004
391.818
612.726
-1020.96
753.127
662.014
-1415.14
438.81
625.39
339.584
392.91
-732.494
409.228
328.472
615.503
692.251
406.783
602.554
-1021.79
419.239
-1678.27
1183.24
495.037
1696.59
-539.176
620.927
-1147.38
526.454
-642.878
347.756
437.412
-935.296
497.884
768.728
-477.143
351.204
344.814
578.651
-913.356
651.502
-1253.24
601.733
386.182
734.717
-1224.77
769.516
509.614
-1279.13
486.465
399.988
-886.453
-501.675
-936.296
-301.88
629.511
352.627
541.832
-894.46
332.898
332.189
-502.181
1944.74
437.018
-847.171
410.153
-917.82
-807.285
-748.998
367.688
-1215.94
432.185
-1734.47
1606.15
128.327
1746.48
-1601.46
-145.022
-784.566
-593.673
266.167
327.506
-1760.81
1981.65
538.559
791.522
-1330.08
440.126
716.329
690.295
385.64
-1075.94
-51.9863
1617.15
-593.803
377.846
842.96
-649.674
326.459
323.215
-378.592
-297.728
551.467
-222.489
435.289
280.834
-666.726
385.892
265.11
-580.077
-282.9
442.595
-1033.56
590.968
538.048
1092.71
366.062
596.877
311.614
352.341
-663.955
1627.15
-927.294
1691.93
-1520.58
-171.359
-328.563
-823.537
414.441
857.495
-1068.01
-607.746
279.606
-1090.59
1628.64
-1590.38
-77.7973
1668.17
-341.579
-350.413
-370.366
537.27
597.83
-503.258
-29.1441
-549.934
507.463
-283.94
-223.523
1752.07
-1301.28
-625.634
299.334
326.301
400.91
357.299
734.657
-296.165
-399.106
-1746.48
1685.91
459.599
-1101
641.405
-43.0835
1658.64
571.266
476.416
-1047.68
104.22
1144.83
-1452.13
-13.2139
-1885.19
228.453
-599.296
307.673
291.623
-955.419
612.512
-898.489
468.539
-1128.62
673.481
455.138
377.304
256.508
-758.416
-334.091
1217.13
886.758
699.111
-1182.97
456.164
726.805
494.405
700.792
-1195.2
-388.335
-248.101
413.57
-960.809
438.613
522.196
21.2484
-1879.84
1079.9
-469.022
-495.169
558.21
-1378.25
820.038
-424.62
796.729
-405.491
499.243
-714.125
1718.56
413.889
-185.954
215.959
-171.564
-246.301
417.865
1895.32
-504.114
-1694.25
1051.54
-601.852
304.123
-1013.91
553.598
-313.279
544.315
905.276
-1449.59
-1103.8
437.956
-20.7984
-1944.68
1714.36
-664.405
-540.477
460.758
-1190.55
729.788
190.694
210.978
-281.768
769.805
700.366
838.209
818.269
-461.782
1084.99
-487.368
479.676
-194.155
-285.521
-1923.21
-714.091
-318.462
-643.198
-6.63737
649.836
468.093
-273.328
564.05
1063.1
-804.908
924.959
1244.33
-425.378
-171.476
-245.985
417.46
955.411
-888.514
-321.053
-1067.96
611.742
1557.13
-800.675
537.677
934.925
-390.928
734.647
-343.719
1130.42
-276.114
367.078
1349.73
-704.884
-220.006
448.311
-1198.66
750.352
-986.571
-134.524
1121.1
441.848
-955.842
513.994
151.882
732.507
483.291
743.944
-112.633
853.174
-425.841
1182.54
-796.899
552.161
-1465.49
913.332
-1216.65
1800.97
-431.711
-1510.19
879.65
-1402.01
-303.902
-447.598
1457.24
-1523.62
784.706
1491.49
202.595
277.081
-349.499
-1734.47
-288.202
-1013.78
1577.83
-1768.88
1768.88
1567.5
-1004.51
-634.494
-331.943
368.433
605.092
-409.717
-358.269
-1389.84
897.368
1125.14
600.579
1202.76
1789.48
-1216.42
-612.232
273.938
1659.01
-1916.48
257.473
814.556
-1267.6
1545.24
-561.627
777.975
329.438
-343.1
554.876
795.031
656.472
1371.56
-251.958
-445.123
-352.138
497.279
-341.123
471.806
736.508
-290.691
-151.805
-326.747
565.143
-238.396
27.2135
-372.791
1107.45
-1720.28
-449.235
-485.045
-563.706
863.551
693.575
-1596.51
904.772
-451.776
-621.751
-513.969
1252.13
340.908
1723.7
-1702.46
-1657.86
1892.18
-1560.82
840.266
720.553
-382.302
-1796.09
917.72
583.217
819.504
-388.687
1794.32
-680.691
-446.709
695.553
425.13
-1120.68
-1099.51
444.131
753.276
-1617.18
473.211
901.136
177.853
-403.823
225.969
-1600.14
-385.338
-458.328
990.283
-672.803
1442.95
-974.363
1854.8
242.325
-550.552
498.222
-295.627
474.325
893.553
543.136
977.389
-462.925
-427.976
573.99
883.249
-1392.7
-40.99
1573.1
-835.958
519.957
971.537
-1475.84
-1115.9
1776.3
-1243.42
-532.88
1206.15
-319.046
-887.107
-192.836
456.094
-263.258
-457.441
-250.891
432.763
-181.872
147.404
-395.504
1734.21
-1740.71
-455.543
-530.856
-903.604
445.906
-207.599
-238.307
634.829
-477.973
-396.385
-306.872
703.257
-945.656
411.402
-1167.3
676.441
420.179
-635.492
-440.601
1575.84
-861.507
530.187
-457.971
-570.921
-462.642
364.465
-354.16
-10.3055
-1108.62
405.667
-664.771
-1033.66
1698.43
-601.594
-1423.5
713.223
562.207
-1596.27
1034.06
-392.247
-482.181
144.872
551.975
-1258.5
744.527
539.233
1006.01
-2133.18
999.988
1133.19
-349.906
412.339
-387.196
-25.1424
1478.06
-366.642
449.55
1188.61
582.244
906.553
567.76
527.538
-1095.3
167.269
-437.053
-1691.12
253.547
1127.57
-614.666
518.502
1013.75
-1532.25
1092.85
-1643.72
199.552
698.021
545.654
-866.707
-1086.49
-171.967
429.455
-257.488
-586.986
-425.289
-636.853
-628.307
346.539
-1618.82
939.766
-476.838
215.887
-401.841
536.017
-307.565
-608.344
1197.19
-1289.18
935.652
353.523
-1025.64
-357.631
-757.515
-825.087
1688.64
-476.989
1795.33
-1585.19
-210.133
-1556.64
1018.72
537.915
-725.788
-260.578
443.497
-182.919
-592.204
383.842
274.822
-658.664
-523.977
986.427
631.024
-351.418
-1620.28
1050.51
571.772
1103.54
-1675.31
-409.379
-293.451
-368.537
-744.912
-488.06
-331.035
501.809
1558
-995.791
-775.205
1497.47
660.751
-312.683
725.882
1152.37
-1878.25
274.478
299.539
-487.214
-1932.26
1719.9
212.353
739.169
-474.717
-264.453
531.836
1060.83
-1592.66
364.465
-1725.88
-233.21
1752.35
-1580.69
1073.77
506.92
-1727.11
1.23254
-521.716
412.339
1699.1
-1719.9
939.689
624.58
-1564.27
383.655
-219.573
-164.081
-413.295
-252.138
68.2139
95.0364
-355.614
-430.99
-437.626
-408.16
221.797
1510.24
378.889
-195.605
-443.595
463.833
-198.123
319.143
1510.77
989.192
-169.715
-819.477
-1104.1
1704.84
-1728.8
1064.03
-707.189
-1021.61
-1265.08
1844.99
-579.903
1155.07
-1771.16
616.089
271.53
-878.145
1675.72
43.4456
-1719.17
-491.169
-1083.05
-1734.21
-982.204
554.228
1019.6
590.23
1133.03
-1723.26
277.836
-466.949
704.487
-384.329
382.727
924.878
680.75
-372.449
-649.343
582.898
1072.55
-1655.45
-399.903
-369.389
769.292
394.692
-1661.2
1520.58
140.628
583.397
-1044.31
544.749
1083.89
-1555.68
994.055
-238.586
230.772
314.461
1903.6
415.117
-70.5163
995.861
722.753
-1718.61
-697.276
1085.34
-1557.52
166.974
-571.45
198.051
265.782
-662.877
-553.059
582.519
1034.63
-711.139
-251.901
-1368.65
675.685
692.969
-416.27
748.643
89.7948
-838.438
561.765
-137.158
1557.3
-217.467
265.441
-771.726
-1932.26
1664.62
1027.02
346.811
288.485
480.243
-930.09
-993.118
-1767.27
637.212
1693.77
509.029
-474.34
1210.85
1087.13
-424.959
1030.05
-978.688
493.007
485.681
700.257
1047.95
-1748.2
485.201
482.177
-1494
-746.969
32.3625
780.689
-413.002
-881.029
385.86
-538.923
-802.404
606.732
-577.344
1397.38
1055.15
194.746
234.709
-550.626
1618.52
-772.722
1525.85
-1727.84
575.257
1152.58
543.928
-883.416
-1732.79
1916.48
-183.696
1721.74
182.766
-544
368.013
-272.977
-481.439
1211.23
568.272
1128.32
-491.293
430.538
858.529
-461.931
-772.249
425.062
347.187
1418.89
1089.61
-518.213
1422.98
-510.625
-533.387
1044.01
-602.76
496.586
-1217.78
1691.93
1839.58
-687.212
1585.71
-646.02
-1241.34
717.365
-562.51
202.946
-392.792
455.611
-243.928
-519.946
-1246.71
1870.94
-624.234
1173.47
-552.543
1120.28
-1659.46
1695.26
-573.943
-545.647
-549.82
1720.07
-317.046
-688.049
-473.329
1223.68
-1684.29
-1860.1
613.396
327.711
-949.509
169.505
214.283
-1719.03
1204.15
514.876
1162.85
558.889
-511.719
-465.394
1192.2
178.38
226.977
588.445
1251.13
-539.177
-1238.58
1777.76
-1025.4
999.99
866.788
-204.112
-1659.01
1702.46
-510.09
1411.23
-1732.79
-343.915
-1.57908
345.494
-264.518
585.158
-320.64
97.2748
491.401
781.642
-377.679
1257.53
1270.86
-413.363
852.436
-437.995
1817.46
-662.39
1586.55
-1723.7
-412.792
-756.88
332.933
423.946
-559.83
-563.326
79.736
-1138.73
-985.482
-669.766
1655.25
-943.706
-1189.47
205.874
-429.838
-648.313
705.637
1167.45
650.013
1410.34
-590.833
1636.75
1318.12
-573.59
-493.635
198.008
-503.286
1396.84
1240.17
-564.481
-999.987
893.297
54.8418
-948.139
603.44
-506.142
1403.51
1495.08
-588.526
-367.229
367.229
-589.441
1623.5
1239.52
-486.242
1134.15
-67.0993
1851.97
-394.91
1489.49
-588.759
-507.681
1347.95
-652.574
1218.67
-566.098
1554.81
-591.598
754.201
570.373
-1324.57
-667.99
261.289
510.064
600.226
-1957.3
-988.791
1586.55
369.875
-369.875
-70.0556
388.421
436.888
345.256
55.3009
-319.569
921.516
-535.334
-426.156
814.577
-243.86
621.366
-429.379
1550.97
-444.343
-884.09
187.936
226.724
-414.659
601.169
1250.77
-1851.94
927.282
-458.743
-354.16
126.152
-1943.02
1816.87
-451.204
184.972
1181.26
-440.466
-740.791
-300.823
-580.206
-492.585
-387.196
-481.322
257.799
1158.38
-560.548
230.513
-382.779
152.266
-22.7311
-107.679
1376.03
-1268.35
34.5774
-598.089
-586.404
-452.31
452.31
-1262.36
1985.11
-1344.38
-207.739
-1824.74
239.549
-1025.76
-974.243
-186.512
-1637.83
707.743
1229.32
-1924.98
369.726
312.2
-681.927
-1850.01
1234.27
615.743
-561.507
561.507
-959.169
-39.9713
-1866.06
-558.148
1650.86
-677.257
1636.18
-601.552
-179.172
-1706.02
-585.439
-468.394
-594.805
-466.414
466.414
-1537.81
194.526
1343.28
173.964
226.143
-400.107
500.818
488.374
997.204
-475.008
1751.3
768.193
-423.057
397.915
520.895
1702.06
-594.61
-552.967
1636.86
471.989
1812.75
-645.301
-1804
-1938.07
-646.965
-478.708
478.708
-572.804
220.666
-702.741
1019.56
-465.966
-1072.38
-284.512
1579.57
1852.3
1635.34
-1635.34
-291.757
738.617
1761.49
595.788
1275.15
174.092
209.563
588.487
595.568
1603.51
-1603.51
222.739
-353.6
-434.759
460.528
951.635
-458.628
-639.636
-1131.01
1706.26
280.612
-1659.27
616.654
-289.268
472.034
1744.65
-592.068
-215.883
-441.462
378.572
727.656
1738.57
-613.432
-511.768
-781.282
1960.54
-870.454
-1090.08
1642.78
-705.724
1223.97
-1824.95
600.974
352.86
-903.412
-185.779
-105.653
1098.34
-486.602
123.955
625.209
-1657.46
436.927
595.239
-1804
-583.278
1787.43
884.206
-1162.92
1760.49
-597.572
1783.83
-575.53
-1208.3
432.084
929.647
-1740.71
924.74
-1487.63
252.552
1235.08
-830.893
-1254.23
-379.803
75.722
304.081
581.728
269.948
1026.78
-444.403
846.758
-402.355
821.079
738.803
-1559.88
643.855
1066.3
-24.1936
-663.162
687.356
-1744.33
722.725
700.442
150.561
-1122.68
1936.76
-674.55
-1262.21
-537.178
1665.5
830.798
964.059
-1794.86
1227.86
683.328
-403.086
710.87
839.453
1028.47
-586.62
1761.49
626.577
1773.56
-1185.62
-587.943
-419.833
-319.9
739.733
121.448
-1185.68
1660.55
-540.27
-1437.81
1437.81
1250.57
594.416
1351.55
206.449
-569.592
282.433
-192.682
699.082
1113.67
482.905
-304.525
-870.171
-574.688
1739.48
-1739.48
993.604
-993.604
987.332
1025.17
-2012.5
1837.95
-613.973
-581.109
837.123
-947.85
-1052.16
998.352
690.632
-1688.98
-516.259
-362.688
-652.412
-808.424
2042.7
-1246.42
-613.683
1002.97
974.852
1289.77
646.988
325.895
1012.69
238.746
337.239
1186.25
1756.88
-1756.88
671.914
79.8427
-388.489
-997.053
-539.992
1674.14
989.76
1010.24
-1833.28
-223.683
-361.756
596.55
-343.003
1849.5