/*--------------------------------*- C++ -*----------------------------------*\
  =========                 |
  \\      /  F ield         | OpenFOAM: The Open Source CFD Toolbox
   \\    /   O peration     | Website:  https://openfoam.org
    \\  /    A nd           | Version:  7
     \\/     M anipulation  |
\*---------------------------------------------------------------------------*/
FoamFile
{
    version     2.0;
    format      ascii;
    class       volScalarField;
    location    "10";
    object      p;
}
// * * * * * * * * * * * * * * * * * * * * * * * * * * * * * * * * * * * * * //

dimensions      [0 2 -2 0 0 0 0];

internalField   nonuniform List<scalar> 
30084
(
0.0307932
0.3047
-0.0295688
-0.111789
-0.0080326
-0.12568
-0.00545614
0.0317469
0.00696727
0.000693117
0.0246017
-0.0142487
-0.00151713
-5.52383e-05
0.394977
-0.0198428
-0.000451392
0.202807
-0.00711459
-0.0346756
-0.00277746
0.00654929
-0.0298575
-0.00701526
0.931662
0.302848
-0.00163967
0.811492
0.388077
-0.00509915
0.052913
0.157983
-0.162525
-0.019312
0.81835
-0.0170077
0.359108
-0.0899022
0.0190288
0.0183942
0.00155097
-0.0517571
-0.000389243
-0.036082
0.000137674
-0.00443446
-0.012588
0.000312927
0.0113639
0.351009
0.0194262
-0.0991579
0.162307
-0.121932
-0.0193975
0.370743
-0.0113061
-0.00285909
-0.0127341
-0.0395428
-0.000162345
-0.00688728
0.230157
-0.014422
0.525153
0.884309
-0.0216892
-0.0274497
0.848961
0.00161495
0.300357
0.697306
0.0084479
0.891569
-0.0257808
0.101173
0.425336
-0.0811248
-0.000112795
-0.0380722
-0.114209
0.395423
0.0307249
5.86484e-05
0.00113321
-0.0586676
0.549546
-0.0015782
-0.00146424
-0.169079
-0.0643922
-0.0817176
0.0105126
0.169231
-0.175003
0.566161
-0.0808195
0.00169688
-0.122497
0.439128
-0.00012107
-0.0764391
-0.000157046
0.123133
-0.101866
0.266977
0.615846
-0.00140425
3.50353e-05
-0.142072
-0.163625
0.054445
1.33455e-05
-0.00482077
-0.000412421
0.684709
0.431599
-0.037764
0.000132844
0.00967227
0.115833
0.321994
0.0918893
0.883393
0.00380237
0.128411
0.211522
-0.0279255
0.0137657
0.000172916
-0.032602
0.414951
0.694338
0.0591399
0.121518
0.0513449
0.623241
-0.0781913
-0.159094
0.428694
0.139639
-0.147581
-0.141811
9.97412e-06
-2.21111e-06
-0.00823721
-0.0117124
-0.126794
-0.0877176
0.310445
0.0894192
0.0459335
0.00155915
-0.00036003
0.409925
0.00186767
-0.0245963
0.604735
0.477954
0.0278058
-0.109716
-0.108826
0.380625
-0.000112456
-2.67286e-06
-0.0379821
-0.137921
0.000256485
5.56827e-05
-0.0225451
0.000217521
0.0193072
0.612621
-0.0770335
-0.089821
-0.0164076
0.00713396
-0.0786605
-0.00382507
0.111365
-3.01816e-05
-0.00293213
0.547536
-0.0258944
-0.159879
0.417453
-0.0205216
-0.0579275
0.0128935
-0.00457781
-0.000844429
0.0095297
0.89458
0.404248
-0.0445564
-0.0236003
0.769558
0.371276
-0.172408
0.00399455
-0.0321764
-0.144073
-0.013503
0.00293982
0.623521
-0.0217778
0.0231061
-0.127959
-0.145426
-7.19252e-05
0.738749
-0.00330105
4.59512e-05
-0.00170452
-0.0592074
0.262813
0.000675312
0.0225228
-0.00694836
-0.17166
0.000195403
0.00167604
-0.00749047
0.220238
-0.00906633
-0.00460348
0.153809
0.00051809
0.000129144
0.0176408
-0.0855044
-0.0698644
-0.0153924
0.297726
-0.0475844
0.0480403
-5.80924e-05
-0.00972482
0.00274829
-0.0260179
-0.190747
-0.0044251
0.0016657
-0.00491464
0.00998518
-0.0338573
-0.00010486
-0.0480464
0.000245852
0.223206
-0.0109284
0.000577756
0.27019
-0.147769
0.000920078
1.50736e-05
-0.147919
-0.186102
-0.0286881
-0.0318967
0.0896099
0.529029
0.000323905
-0.0823922
0.109877
0.786913
-0.0261485
0.412095
0.109872
-0.000514986
1.04159
-0.00169606
-0.0968607
-0.169351
0.00762772
0.196889
-0.0269889
0.702271
-0.01127
-0.0571183
-0.000731964
0.50957
-0.00814523
0.574437
-0.00159291
-0.0188999
0.786687
0.196129
0.153399
-0.100183
-0.000436863
0.00967459
-0.000483236
4.86005e-05
0.225989
0.000161669
-0.0623667
0.103399
0.940399
0.688769
-0.131307
-0.0576572
-0.0667942
0.0466538
0.0116824
-0.0586235
-0.137198
0.5388
0.700151
-0.00411908
0.608131
0.220313
0.0988181
0.0388883
-0.00381913
-0.00910374
-0.0175473
-0.00868658
-0.000145388
-0.00537083
0.0998927
0.518768
0.00561535
-0.0862476
0.0452268
-7.94176e-05
-0.134167
0.979812
-0.0206477
-0.00432728
0.0413809
-0.0362192
0.301294
-0.00436753
-5.47161e-05
1.33853e-05
-0.00878118
0.791009
0.0965451
-0.187526
1.67257e-05
-0.196894
0.202174
-0.0167758
-0.16088
-0.00394388
-0.00137169
-0.0783675
0.00324039
0.119309
0.0349337
0.38241
-0.000311871
0.00852709
0.319329
0.118409
0.00153723
0.00162435
0.681896
-0.0633918
-0.00486613
0.385761
0.797625
0.0089312
-0.0203559
0.268034
-0.00247038
-0.0281173
-0.011012
0.364736
4.90685e-05
0.0336857
-0.059453
0.695842
0.883476
-0.0199093
-0.0293862
0.536735
-0.0414453
-0.000140464
0.365457
0.231146
0.234536
-0.0233769
0.0823803
0.806317
-0.114719
0.740323
0.70061
3.97686e-05
0.0995504
-0.10292
-0.00953714
0.00571918
0.803236
0.0970708
0.00104284
-0.10039
-0.147456
-0.0185204
-0.000326549
0.59081
0.423923
0.000262487
0.0142112
0.0187106
0.00501167
-0.0996299
0.000319166
-3.80012e-06
0.00179435
0.307951
-0.0892985
0.56105
-0.157859
-0.0554472
-0.0710164
0.379281
0.232431
-0.00398987
0.0278609
0.00302679
0.749476
-0.0829404
0.00385858
-0.0250284
0.151628
-0.00451959
-0.0403811
0.000892332
0.000909533
0.990427
-0.0269604
-0.0167543
-0.00136874
-0.00240911
0.51043
-0.0572926
-0.0751347
2.39075e-05
4.07699e-05
-0.0857205
-0.0225512
-0.0174823
0.0577246
0.0214534
-0.00749882
0.164983
-0.0578861
0.731349
0.0221506
0.000942207
-0.131544
-0.0735005
0.210912
-0.0111173
-0.0738496
-3.04988e-05
0.855624
0.0647746
0.000376161
0.894473
-0.0779672
-3.26389e-05
0.00518838
-0.134126
0.0554739
0.152413
-6.86683e-07
-0.0268843
-0.00479989
-0.0179707
-0.00152358
-0.0277278
0.775567
-0.0275125
-0.0389321
0.42592
-0.00951041
0.76672
-3.70437e-05
-0.0501302
-0.128887
-0.0718323
0.075201
-0.00510021
0.0106787
-0.000419488
-0.0617179
0.0489569
-7.39159e-05
3.1717e-05
-0.0212889
0.722658
0.0288299
0.00897625
-0.174475
1.68153e-05
0.00356306
-3.69316e-05
0.0353631
-0.0576039
-0.00124732
-0.0260538
-0.0413445
0.00370671
-3.8948e-05
0.144196
-0.00120098
0.186865
0.655923
0.542507
-0.0116238
0.0211222
0.0845251
-0.000211848
-0.0112047
2.06081e-05
0.706915
-0.0451081
0.056922
-0.0565041
0.00701517
-0.0103895
-0.000283161
3.84054e-05
-0.0162211
0.162567
0.488034
0.00449228
-0.117865
-0.0824664
-0.0264503
0.30989
-0.00446923
0.00551549
-0.0188764
-0.00025498
-0.137181
0.531457
0.394631
-0.0733677
0.520497
0.000376727
2.02648e-05
0.361916
0.207692
0.884743
-0.10577
-0.0707892
0.162724
0.00427392
-0.019717
0.00171755
-0.0354472
-0.0423217
2.20908e-05
-0.00299177
0.691206
-0.000376901
0.833796
2.13139e-05
0.194081
0.180185
0.17249
0.00382302
0.00073246
0.709346
0.194804
-0.13192
0.402176
-0.0201262
-0.0440158
-0.0139179
0.544724
-0.0831922
0.0517383
-0.0249424
1.84338e-05
-0.00441836
0.0210345
-0.0589613
-0.0716838
-0.1353
-0.0596092
0.277785
-0.0073065
-0.167862
-0.0455797
0.000216552
-0.0401517
0.0457394
0.281779
-0.0880817
-7.81761e-06
-0.0599178
7.98851e-05
0.00508803
-0.101106
0.559657
0.00332468
-0.0395672
0.0128122
0.197367
0.76398
0.00659559
-0.0131708
0.515716
0.351435
-0.0469904
0.017485
-0.14908
3.4458e-06
-0.132559
0.000361862
0.00826471
-6.85423e-05
0.000144652
-0.0173801
0.240383
0.667533
0.0497665
0.0424459
3.49144e-06
-0.0213473
0.000368252
-0.0110598
0.000143826
0.159861
-0.00156614
0.40774
-0.000362351
-0.0424846
-0.115873
-0.0146035
0.759438
-0.0547182
-0.102121
-0.019264
0.137754
-0.126042
0.091623
-0.0208777
-2.65507e-06
-0.0151274
-0.0136599
0.000962559
0.000355015
0.543128
-0.0169258
0.213221
-0.0117591
0.00317041
0.103124
0.000659959
-4.162e-05
-0.130977
-0.0120598
0.000154291
0.518497
0.951921
-0.000652562
-0.111524
2.92756e-05
0.81545
0.193419
-0.111272
0.000260346
0.0523519
0.170392
0.196259
0.151082
-0.00130973
-0.000387896
-0.0501233
1.78475e-05
1.17814e-05
-0.0848986
-0.0776801
-0.132515
0.917567
0.000789001
-0.0690533
0.0271149
-3.69401e-05
-0.00406937
0.000218954
-0.0199003
0.000190527
-0.0155602
0.0889476
0.759541
0.134026
-0.000888496
0.00173804
-0.00756914
0.208972
-0.0106577
4.28551e-05
0.465143
-0.167288
-0.102747
-0.0465891
-3.27176e-05
-0.000880962
-0.171439
-0.0579139
0.338871
0.728876
-0.0999877
-0.00430929
-3.09364e-05
-0.132038
-0.162842
-0.000623852
0.0137904
-0.0454106
-0.0160932
0.699099
-0.0044098
0.0395746
0.437933
-0.0262063
0.88819
0.879911
-5.3741e-05
-3.92534e-06
-0.0540058
0.0533864
-0.1079
0.0188175
-0.0253672
-0.0019044
0.795083
0.399423
0.00819626
1.02927
2.25813e-05
0.260156
-0.137371
-0.0654881
0.000419511
-0.111974
0.267681
0.0512301
0.178578
-0.00148379
-0.00159191
0.0049068
-0.0118914
-0.0441938
-0.00352991
0.328996
-0.0169599
-0.0178148
-0.178447
0.672607
0.125231
0.101306
-0.00131199
-0.00169611
-0.0636035
0.00364551
-0.00890855
-3.03777e-05
-0.00112011
0.268375
0.712284
-0.000383929
0.494242
2.55836e-05
-0.0114531
3.31609e-05
0.0192488
0.131725
-8.65424e-05
-8.91798e-05
-0.161196
1.91569e-05
0.155052
-0.0706627
6.19627e-06
0.419621
3.22024e-05
-0.00130925
-0.000250825
-0.0171409
-0.00116797
-0.020924
-0.151271
-0.00102079
0.0151875
-4.27241e-05
0.659402
0.0348103
0.125641
-0.101494
-0.0707644
-0.00373014
0.0104979
0.461283
-0.0761459
0.457262
-0.123528
-0.0118389
-2.08764e-06
-0.0194878
0.695646
0.450855
-0.0972256
-0.155228
0.640267
-0.028247
-0.133086
3.20571e-05
-0.0737409
-0.00279895
1.00734
-0.123925
-0.00024423
-0.166615
-0.0782562
0.511122
-0.00879888
-0.0819889
-0.0120188
-0.0161556
-0.00429632
0.509177
-0.189532
-0.0605559
-0.0478927
-0.0421338
0.0197275
0.631374
-0.0590739
0.402628
0.00978147
0.0829432
0.843822
-0.0287445
-0.000720493
0.520522
0.694228
0.00703304
0.0904325
-0.0211649
-0.100223
0.514428
-0.133868
-3.76488e-05
-0.02467
0.000153135
-0.0151146
-4.12575e-05
-0.0139715
-0.00320202
-0.01043
0.0305809
-0.00196092
-0.0016322
-0.00351144
0.434624
-0.00694284
-0.0108924
-0.00985811
0.380374
0.0183452
-0.00109733
0.689636
0.869197
-0.0615618
0.796434
-0.0542382
0.652198
0.0188265
-0.0233294
0.00901645
-0.00145717
7.24038e-05
0.00900811
-0.037252
-0.0615876
0.395593
-0.0710776
-0.0624968
-0.00298862
0.0521077
-0.0711324
0.0225181
-6.91891e-06
0.0508415
0.377269
0.690163
0.113344
-0.0412616
0.323486
-0.000964533
0.111611
-0.0554129
0.0023983
-0.164327
0.0125967
0.652423
-0.00665311
-0.00167173
-0.000226402
-0.129648
-0.0037924
1.01193
1.04183
0.0385581
-7.69832e-05
0.027114
-3.2539e-05
0.210554
-0.00164499
0.0697979
0.945832
0.218526
7.72451e-05
-0.0251851
5.16825e-05
-0.194615
-0.106234
0.791494
0.000824318
0.0372105
0.0128192
0.00101038
-0.00709325
-0.000878852
-0.0184945
-0.101044
-0.0695336
0.0277351
0.411757
-0.0403007
0.0204017
-0.0612291
-0.00510092
-0.0804622
4.92958e-05
0.000180277
-0.00669344
0.088514
-0.071285
-0.047462
-0.0111192
0.00859932
-0.0151258
0.558351
-0.0387708
-2.65995e-06
-0.158492
0.738092
0.0550326
-0.0361488
0.258312
6.70548e-05
-0.00197406
-0.085263
-5.73471e-05
-0.00127313
-3.59679e-05
1.02887
0.0274369
0.0113215
1.88688e-06
9.96853e-06
3.00895e-05
4.83396e-07
-0.0680681
0.697758
-0.105389
-0.0012574
-0.000418279
-0.014157
0.785062
-0.130181
0.735893
0.12784
0.311573
-0.000211321
0.776848
-0.0064871
-0.0276857
0.0904843
0.0313574
0.0346827
0.400491
-0.121223
0.768788
0.589927
-0.0233723
-0.078115
0.0340701
-0.086444
3.84869e-05
-0.002645
0.0083792
0.179947
-0.0191585
-0.068343
-0.00933028
0.914831
-0.14619
-5.11359e-05
-5.08808e-05
0.798424
-0.0143814
0.0102459
-0.0385848
-0.00648251
-0.0437577
-0.028114
0.0705095
0.296043
0.134385
-0.0289825
-0.0407498
0.000333473
-0.0166333
-0.00165101
-0.0229955
-4.73282e-05
0.000226151
-0.0349656
-0.0574309
0.761561
-0.0192186
-0.000444193
-0.00417705
-0.000808919
0.685574
0.0591047
-5.39467e-05
-0.0688726
-0.0128665
-0.0098707
-0.0788924
-0.093981
0.0195472
0.161082
-0.140707
0.000293191
0.0169976
-0.0385588
-3.60285e-06
-0.000128915
0.262045
0.207834
0.138185
-0.142356
-0.127041
0.00158987
0.832778
0.000341026
-0.0365261
0.71069
-0.0486741
-0.102718
1.53501e-05
0.000561031
-0.101684
-0.0264385
0.004005
-0.0938158
0.473733
0.587793
0.00199857
0.000836647
0.471646
-0.0352743
-5.26517e-06
-0.00392251
-0.0797175
-0.0584732
-0.0243213
-0.00306626
0.497769
5.3696e-05
0.184391
0.559038
0.000158187
0.0400821
-0.00112091
-0.138853
-0.0380427
-0.00171599
0.070906
0.000681974
0.470075
0.0039587
0.0586799
0.104279
0.941171
0.660069
-0.153032
-0.0190608
1.42878e-05
0.17204
-0.0351423
0.347891
0.636661
-0.0931477
0.0339377
-0.041767
-0.0157714
0.309314
-0.000423191
0.787353
0.0657549
0.000167348
0.00015996
0.000324211
-0.031656
-0.0436866
0.00199711
0.228094
0.310417
-0.140679
0.00176985
0.000243437
-0.0555993
-6.38304e-05
-0.00668099
-0.0262164
-0.0013121
0.183037
0.0115662
-0.00308856
-0.00888206
-0.0376376
0.659993
0.676093
0.0919369
3.38453e-05
-0.0011756
0.494566
-0.000961254
-0.0915018
-0.000402957
-0.0466041
-0.161984
-0.000374311
-0.000459433
-0.0736097
0.0035718
-0.000124638
-0.00293687
0.442525
-0.0818131
-3.22187e-05
0.212487
0.650026
0.672852
0.00168345
-0.106993
-0.0216009
0.734487
-0.144588
-0.147749
0.0155986
-0.0299946
0.0687617
-0.0598101
0.672118
0.217581
-0.000303722
-0.126767
-0.174983
-0.00850984
1.25625e-06
-0.00387085
0.419785
-0.000331237
0.0291344
-0.00892747
-0.0025793
0.0210183
0.0654517
-0.000319739
-0.000223924
-0.010884
-0.13396
-0.081485
-0.156481
0.47152
-0.00186595
-0.000527075
-0.0795971
-0.0548293
0.0237854
0.0307748
0.00028413
0.159685
0.310927
0.0425697
0.0569694
-0.00131043
-0.0304909
0.196375
0.00309992
8.74822e-06
-0.0202744
-0.00900635
-0.00153263
-0.0245869
-0.00178935
0.555368
-0.02042
-0.184134
-0.0535779
-0.0243134
0.0267255
0.812484
-0.102195
-0.000186689
0.772943
0.34185
0.0176728
-0.0131739
0.0172119
0.133591
0.324863
0.000876732
-0.00468106
0.942252
0.544713
0.628428
-0.100908
-0.00302154
-0.00263889
-3.48696e-05
-0.00278231
0.590783
0.179112
0.0174475
-0.00435005
-0.000678836
0.0777209
0.888512
0.708733
0.173659
-0.00621385
-0.149845
-0.00712579
-0.00150698
-0.0385273
0.0410364
-0.0624246
-0.00779232
0.00223729
-0.171779
-0.139439
0.066977
-0.0552961
-0.00191259
-0.0592849
-0.0003804
-0.0153603
-0.00143288
0.650404
0.000174853
9.71414e-06
-0.0329938
-0.0447788
-0.065603
0.0864856
0.000227957
-0.174266
0.157239
0.396932
1.00083
-0.0101766
-0.11663
0.0696097
-0.00449781
0.227935
-0.00122906
0.0238833
-0.000335358
0.533319
0.0177535
0.0241772
0.311582
0.245294
0.00352638
0.00811568
1.31554e-05
0.74331
1.77638e-05
-0.104232
0.000849862
0.00407002
0.376772
0.219689
-0.145424
-0.0894424
-0.00882565
1.03607
-0.155729
1.49224e-05
-0.0346556
-1.28246e-05
-0.0225026
0.223808
0.394947
0.00212202
-0.0797655
-0.0208934
0.306041
0.221247
-0.0734955
0.923358
-0.0219557
0.000192098
-0.1233
0.950861
0.0059593
0.197884
-0.0963217
0.328181
0.00435217
0.0895509
-0.179758
0.0144465
0.120506
-0.0294971
0.451382
-0.0588185
-0.0431226
-0.00164492
-0.00166275
0.841062
2.66213e-05
-0.0106498
-4.38122e-05
-0.0178798
0.000885448
-0.0159046
0.522764
1.77241e-05
-0.00214252
0.334591
-0.175643
-0.0471301
0.00275004
0.712927
-0.0992463
0.349375
-0.0264637
0.32082
0.0171083
-0.00152917
0.0596658
0.00185468
0.860894
-0.05857
-0.000173544
0.00517774
0.294899
-0.0249073
-0.00142186
-0.000198019
-0.141875
-0.00560969
-0.0212495
-0.153602
8.29304e-06
-0.159191
0.00110011
0.644199
-0.0222341
0.309905
0.0107266
-0.00798056
0.53658
-0.0944489
-0.114099
-0.00934667
-0.144058
0.551009
0.58147
-0.0312126
-3.18546e-05
-0.0343947
0.0105016
7.47107e-05
0.195779
0.684972
0.0281937
0.00366122
0.030175
-0.161953
-0.000306894
0.190545
0.115492
0.177752
0.0297521
0.0619988
-0.000766184
0.358206
0.0387886
-0.18019
-0.00209864
0.0571996
0.308349
0.00190208
-0.167678
0.434215
-0.0754334
-0.169457
-0.177646
-0.0990805
-0.105084
0.116369
0.432829
-0.14496
3.55639e-05
0.00216557
0.0549819
-0.00382206
0.0344312
2.4079e-05
-0.0126171
0.00900562
-0.000109742
0.124591
-0.00103287
0.254541
-0.0713087
-0.0085565
-0.015223
-0.0190556
-0.142968
-0.0129812
-0.00207627
0.0472829
0.173647
0.0110627
-0.0751548
-0.00641988
0.0673002
-0.0210501
-0.0431798
-0.173944
-0.035584
-2.87769e-05
-0.0340629
0.770771
0.00011285
0.372047
-0.0495108
0.906321
0.107962
-0.107974
4.96637e-06
0.00390648
-0.174003
-2.64004e-05
-0.00588081
-5.10434e-06
-0.151852
0.0102709
-0.133947
-0.0519774
-0.000223096
0.526305
0.506749
-0.0800832
0.00109991
-0.000310342
3.13731e-05
-8.97283e-05
0.835593
-0.00281331
0.00522841
0.048463
0.00225132
-0.00121109
-0.178009
-0.000410471
0.110579
0.0100641
-0.00451132
-0.00152125
-0.0583959
-0.0939896
0.373957
0.260796
-0.000298625
-0.0294211
0.00133024
-0.0390601
-0.000962353
0.300215
-0.0143081
1.03995
-0.0221308
-0.00311666
0.163321
-0.042755
0.637802
-0.0954921
-0.0253985
-0.0291898
0.0408584
-0.00790368
5.10067e-05
-0.0185668
0.58075
-0.101286
-0.00715281
-0.0961261
-0.0617864
0.311907
-0.00103333
0.54072
0.00374261
-0.139955
-0.00108532
0.0299367
0.103934
0.00337738
0.631909
-0.000953206
0.0730542
0.190421
0.00127705
-0.000212437
0.887749
0.17289
-0.000345031
0.0678763
0.0613166
0.000376499
-0.0411438
-0.0498391
-0.17565
-0.0226185
0.613656
0.0103562
0.416168
-0.00080278
0.710315
-0.165511
-0.0118873
0.0141782
0.069874
-0.134266
-0.102899
-0.0193624
0.000175515
0.958441
-0.0515539
0.0019684
0.00827144
-0.0915426
0.641211
0.00692574
-0.0370642
-8.57895e-05
0.240954
0.0183789
-0.0886321
0.00195223
-0.00774296
-0.0645
0.000110748
-0.120283
-0.00338947
-0.0336242
-0.149062
0.54325
-0.0232077
0.17706
-0.0557654
-0.0691157
3.89831e-05
0.000414216
-0.00833136
0.000114701
-0.0255943
0.160681
-0.0045381
5.03593e-05
0.862806
0.0115363
0.000882134
-3.31958e-05
-0.00468744
0.623326
-0.12417
0.959481
0.378055
0.0513009
0.539022
3.11423e-05
-0.031551
-0.00178996
-0.00550283
0.393304
-0.0224032
0.968136
0.502526
-0.129922
0.514844
0.0214815
-0.0322748
0.0052215
-0.0492161
-0.00894044
-0.120647
-0.132469
-0.00673857
0.511794
-0.0225817
0.000387505
-0.00969623
-0.00141279
-0.0804519
-0.00030598
-0.00273862
-3.66245e-05
0.332342
-0.091567
0.526301
0.0661156
-0.00613013
-0.0695164
-0.0453169
0.159149
-0.00687939
-0.00230812
-0.154365
-0.103299
0.0316801
-0.100512
-0.0101835
0.0435704
0.00837901
0.000131939
0.296939
-3.78313e-05
0.125463
-0.0017301
1.14107e-05
0.00463585
-0.00141844
-0.00267523
-0.0362233
0.390788
0.309856
-0.04627
-0.0288834
0.00675821
-0.0117277
-0.0234577
0.000229409
-0.00102368
0.00169158
0.244435
-0.0190836
-0.128558
-0.0978103
-0.00449425
-0.0421556
-0.017414
-0.00380852
0.0122978
-0.0287197
0.482429
-0.146256
0.0151101
0.0066369
-0.0862365
0.945472
-0.0228854
-0.00824365
0.0179364
0.179489
0.00932937
0.0056965
0.514307
-0.000754538
0.102514
-0.0494548
-0.100436
0.0146335
-0.00841085
-0.0126398
0.0935371
-0.0082085
-0.00131632
0.00766203
0.00606471
-0.000444402
0.0898201
-0.0215273
-0.00455635
2.87654e-05
0.335805
-3.86486e-05
-0.0661602
0.173923
-0.0504817
0.000442316
0.241503
-0.070192
0.358924
-1.83276e-05
-0.00884926
0.286292
0.000474491
0.0114819
-0.0102863
0.0240547
-0.0478289
-0.0755822
-0.0186101
-0.00604772
0.0228284
0.0469448
0.31985
-0.000361427
0.250704
-0.0938902
-0.00742326
-0.0159617
0.00100783
-0.100621
0.000214766
0.776746
0.468849
-0.001033
-0.0487036
0.00061942
-0.00484961
-0.0112727
-0.0243237
0.332672
0.389321
0.081154
0.0234852
-0.173211
0.09059
0.186642
0.221052
-0.120035
0.0457312
0.45043
-0.0219629
0.68914
-0.00199716
-0.0251855
-0.106552
-0.000143688
-0.00160938
-6.08217e-05
0.684464
-0.0237426
0.00071693
-0.0355941
-0.00877984
-0.000660697
-0.0302576
0.567913
0.00244649
0.0254001
-0.0613042
-0.000912033
-0.0104031
-0.00172027
0.979032
0.0005508
8.47058e-05
-0.00412492
-0.0317309
0.304102
0.00135728
0.0491968
0.174149
-0.000229216
0.0050024
-0.17178
0.244869
-0.0577537
3.72359e-06
0.000900026
0.0417408
0.0739873
0.590343
0.201759
-0.080571
4.23782e-06
-0.0999009
-0.00585869
-0.0283391
-0.027371
0.365019
0.75125
-0.000185532
0.312697
0.473825
-0.0220998
0.00252901
-0.0485979
-0.0183492
0.000311609
-0.0926579
-0.0191721
-0.000136722
-0.00110143
-0.00342234
-0.004173
-0.00140001
0.58263
0.630957
0.4493
-4.75354e-06
-0.0531756
0.170759
0.229196
0.785442
-0.00100799
-0.0460279
-0.041978
0.611097
-0.0432534
-0.0209091
0.040485
0.319401
0.000788033
-0.000963229
-0.0543009
-0.0724041
0.3344
0.145272
-0.0815449
-0.0502741
0.31853
0.0475012
-0.108114
0.0159432
0.184087
0.366454
-0.000669629
-0.0012737
0.265354
0.000535359
0.118366
0.0706558
3.67857e-05
0.590289
-0.0233788
-0.00990347
0.996491
-0.0838833
-0.0161754
-0.0857866
-0.00523366
0.745171
0.00274623
0.946984
-0.000219345
0.00790302
0.966693
0.0156304
0.744079
-0.012851
9.04281e-05
-0.0389319
0.765491
-0.00340293
-0.014876
-0.018162
-0.0021241
-0.0472921
0.76067
0.255505
6.14205e-05
0.0468901
-0.0082701
0.0678083
-0.00186528
0.0516625
-0.00577622
-0.000898407
0.727265
0.77969
0.733111
-0.117872
0.208621
0.000419013
-0.131171
0.537358
0.0418426
0.000651652
-0.100122
0.00143152
-0.000176486
0.772697
0.000350543
0.00972794
-0.0041604
-0.01978
0.739098
0.765362
0.780085
0.0270621
0.00121534
0.430581
0.0171865
0.0671144
-0.0203975
0.000202168
-0.00646274
-2.92975e-05
-0.0100583
-0.00154148
-0.0125954
-4.38674e-05
0.311477
0.00488444
-0.13304
-0.020178
-0.164069
-0.0365775
-0.00160531
0.648927
-0.0241163
0.00011253
-1.65706e-05
0.934656
8.98143e-05
0.0257995
0.137277
-0.0403662
0.577184
-0.0115839
-0.0986422
-0.0827833
-0.000910829
0.000347445
0.488541
0.777153
-0.00330522
-0.0441544
-0.000443264
0.773721
0.906649
-0.00306794
-0.0141823
0.043255
0.00722513
-0.0547115
0.000258816
0.0228855
-0.0842598
0.139087
0.659067
-0.00319084
0.0637408
0.295479
0.166278
-0.100646
0.0638075
0.883253
0.398092
-0.123278
0.785247
-0.00117163
0.784507
-0.0148262
0.669029
0.18464
-0.0111759
0.095223
0.00554534
0.0395343
-0.168202
-0.00137599
-0.0520948
0.675885
-0.0575742
0.072438
-0.00313437
0.118774
0.388615
-0.020299
0.125522
0.00171644
-0.00785103
-0.05327
-0.00464844
0.00464892
-0.0195997
-0.00100234
0.00556887
0.664523
0.00522113
-0.0355927
-0.128138
-0.0642763
-0.145597
-0.152298
0.00955986
2.77516e-06
7.7496e-05
0.504637
-0.102171
0.000177666
-0.0208736
0.353955
-0.130633
-0.0329877
0.000317512
-0.00404102
-0.104307
0.321612
-0.0171303
-0.000952979
-0.104087
-0.0421567
0.968273
0.229239
0.156683
-0.104025
-3.37941e-07
-0.0147545
0.139379
-0.0007035
6.02651e-05
0.344072
0.219959
0.00147549
-0.00175988
0.0225842
-0.0684198
0.0233531
0.019564
-0.0332211
0.000159535
0.580673
0.00141443
-0.00117616
-0.000412995
-0.000403945
-0.00025288
0.171972
0.00231564
-0.005993
-0.0208806
-0.0096603
0.0639245
-0.0116912
-0.0922664
-0.0226687
0.718921
0.611332
-0.000951625
-0.00303594
0.213225
-0.00165213
-0.0408233
0.191075
0.281598
-0.0019802
0.0448556
0.0868294
0.00307658
0.267412
-0.000147276
0.0164138
0.0273176
0.0307256
-0.0312631
0.103543
0.000216114
0.00296479
0.000744224
-3.95335e-05
-0.00294986
-0.0209355
-0.0277122
-0.0629278
0.179744
0.0900705
0.0199485
-0.123928
0.0286044
0.0207765
0.0287112
0.000171153
0.759626
-0.017642
-0.00687788
0.0518518
0.979914
2.0772e-05
0.234323
6.48184e-05
0.000374254
-0.0136493
-0.0457631
0.341959
-0.0083743
7.12379e-05
0.421247
0.147804
-0.0010661
0.108876
1.03887e-05
0.313409
0.0178519
-0.0594151
-0.000215868
0.471021
0.0610158
-0.0437107
0.000145736
0.326078
0.570286
-0.00224991
1.50483e-05
-0.0767615
-0.0190711
0.0328081
0.0623699
0.788661
0.488264
0.00114044
0.628331
0.48178
-0.00584258
-0.122511
-0.0629112
-0.0301531
-0.100508
0.361603
0.00187301
0.818979
0.307522
0.0267925
0.000313678
0.00147029
2.90783e-05
-0.00104242
-0.00568737
0.874416
7.2621e-05
0.159117
0.0568356
-0.00038782
0.821769
0.90831
0.377585
0.426477
0.129855
0.00537441
-0.000493454
-0.0230348
7.31775e-06
-0.00216091
-0.180285
8.31723e-05
-0.00309267
0.836567
-0.0242122
-1.08508e-05
0.860763
0.00108983
-0.0756326
-0.147653
-0.00259007
-0.139742
-0.000405957
0.354348
0.00717303
-0.0324848
0.00417893
-0.00121151
-0.000688333
-0.000374496
-0.194581
-0.127063
0.291819
0.00614487
0.00296524
0.455161
0.000210725
0.948145
-0.000913871
-0.188083
0.00486337
0.00352897
0.103721
0.110059
6.68758e-05
-0.00835947
0.000292893
-0.00127297
0.00188931
0.16753
0.0992733
0.577914
-0.0675473
-0.000148057
0.000429839
0.192701
0.642931
-0.00908236
-0.0128889
0.942794
-0.00558327
-0.0429878
0.00222254
0.196269
-0.0588903
-0.0175423
0.29763
0.00291987
-0.000394302
0.00356321
0.111801
0.939354
0.755647
-0.0503466
-0.0674408
-0.0129777
0.00337456
0.000104713
0.149665
0.395568
6.60604e-05
-0.0149304
-9.71093e-06
0.000376741
0.72092
2.97658e-07
-0.14321
-0.102456
-0.144197
0.140511
5.13007e-05
0.0208752
-0.0122358
0.674138
0.0685429
0.0105096
-0.0625273
0.0014389
0.639956
0.382817
0.0238728
0.135815
0.846343
-0.132066
-0.115564
-0.0037626
-0.0143437
-0.000636253
0.0667211
-2.04142e-05
0.311588
0.00619998
0.396379
-0.0692709
2.25791e-06
0.125016
-0.000251115
4.18005e-05
-0.00140278
0.924947
0.891053
0.597793
0.000170894
0.396474
0.782074
-0.00186585
0.00549661
-0.0173181
0.216893
0.773033
-0.0571107
0.234625
-0.00487512
-0.138335
-0.157052
1.01057
-0.00111712
0.756479
0.173501
0.352801
0.000372559
0.000523876
0.0113905
-0.0182735
0.16854
-4.29919e-05
0.000190333
0.742139
-0.136505
0.000723391
0.77375
-0.00456036
0.000410206
0.657838
-0.0123667
-0.00292939
0.152278
0.351736
0.000743914
-0.000178129
0.00748752
-0.00814422
0.73948
0.920723
0.541092
0.98577
0.325095
-0.0971467
0.853033
-8.46421e-05
-0.00638438
0.360137
-0.00683246
-0.00121339
-0.000145681
0.773762
0.0978768
-0.00119542
0.89731
0.147922
0.511655
0.0886989
-0.00539174
-0.0421369
0.334507
0.155398
0.776704
-0.0450421
-0.00146512
0.717514
0.68938
0.0284594
0.583476
-0.0757807
-0.0158636
-0.0184296
-0.0011797
-0.000205005
0.723597
-0.127779
0.122327
0.00221547
0.299686
-0.0656119
-0.0227963
-0.00178195
-0.00676569
0.798646
-0.00149472
-0.0352882
-0.00594052
0.792363
-0.0385522
0.0407264
-0.0151757
0.0029868
0.288192
-0.0453472
0.810178
0.345848
0.983803
0.442353
-0.128099
0.0626494
-0.00344611
0.0576271
0.0813167
0.748343
0.792984
0.873787
0.592998
0.729696
-0.000601222
0.833176
-1.15361e-05
0.000195213
-0.0996709
0.895494
0.0992984
0.462293
0.000137914
-0.00423331
0.017595
-0.0649163
0.735805
-0.00125778
-0.0155483
0.59729
0.00222224
-0.00844687
0.956709
0.094108
-0.0636919
-0.0728702
-0.00094873
0.228686
0.343675
0.995262
0.292732
0.183873
0.00928006
-0.00039505
0.00848033
0.351061
0.0152794
0.000329659
-0.054072
0.427009
-0.00283851
0.762286
-0.12735
0.7684
-0.00722366
-0.0459791
0.848535
-0.0106482
0.190118
-0.000695506
-0.00250459
-0.136998
-0.0458224
-0.0753123
-0.0195272
0.050745
-0.0674279
-0.149366
0.770194
0.000647239
0.00165908
-0.0402874
0.234667
-0.0935266
-0.122096
5.98511e-05
-0.0549998
0.0948141
-0.00013043
-0.133751
0.142098
0.77218
-0.126345
0.763987
-0.0274521
0.258476
0.434653
-0.0719498
0.593032
-0.00328111
0.249859
0.0037257
0.162639
0.359576
0.313192
-0.0566951
0.0125509
-0.0011442
0.31962
-0.000114915
-0.000184259
-0.00195255
0.0489317
0.0382812
0.0302229
0.663385
0.30868
0.935584
0.621388
-0.00291044
-0.0672342
-0.00023729
-0.0953749
-0.00209201
0.0116966
0.00139276
-0.0588513
0.56558
0.75226
-0.000496082
6.51015e-05
0.172901
4.22662e-05
-0.0181873
-0.000263333
0.271171
-0.0722043
0.329815
-0.141752
0.000144353
-0.0278065
-0.0805049
-0.0449838
-0.0326663
-0.108674
0.151041
-0.000257888
-1.26206e-05
0.0042773
-0.000180587
0.175588
0.278309
0.0802536
0.877538
0.0895645
-0.166822
-0.182836
-0.000746617
0.0985743
-0.000161909
0.724338
0.184395
0.829516
0.000370788
-0.0652718
-0.0133872
0.101681
0.431974
0.679932
-0.0148597
0.0778967
-0.00367821
-0.0344236
-0.0157558
-0.0119392
0.195979
0.00327387
-0.0129234
-0.0402607
0.494546
0.147416
1.7836e-05
-0.00161732
-0.0121496
-0.00109009
0.237386
-0.00120081
-0.0374255
0.294164
0.000203385
0.45651
0.000226345
-1.72775e-06
-0.16218
-0.024252
0.000403886
-0.0447527
0.000448831
0.863403
0.0246706
-0.0488128
0.80029
0.22911
-0.0632569
0.653331
-0.0052905
-0.00352197
-0.00395611
0.170856
1.04419
-0.00279207
-0.00103179
5.37257e-05
0.01558
-0.0023185
0.0491926
0.0121924
-0.0417562
-0.119599
0.0365769
0.021836
-0.036727
-0.000940811
0.0517528
0.666742
-0.00339291
-0.0271887
-0.000368891
0.663346
0.110827
0.658526
0.000945132
-0.00153029
-0.0464729
0.877718
0.261526
-0.0563004
-0.000184541
0.0621607
0.241432
-0.0045143
0.366216
-0.097104
0.0419357
-0.171086
0.678548
-0.0283615
0.424968
-0.00607369
0.996716
-0.083033
-0.021633
0.812672
-0.0865178
0.291672
-0.185872
0.317706
0.0127888
0.0969007
0.544015
0.0954931
-0.0979414
-0.018985
-0.0145118
-0.0123984
0.0605327
-0.00261644
-0.110247
-0.0568142
0.00407082
-0.133936
-0.168094
-1.83268e-05
0.323292
-0.017837
0.34514
0.827449
0.621594
-0.109344
-0.142971
0.00103202
-0.103172
-0.00758672
0.965563
-0.0705047
-0.0607008
0.612732
0.0910874
-0.0769302
0.444833
-0.0740021
-0.00110418
-0.0230134
0.019902
0.00148014
0.640721
-0.00516016
0.25053
0.597435
-0.0111372
0.404188
-0.144926
-0.000640115
0.013315
0.208595
0.60493
-0.00480966
0.17691
-0.137525
0.152075
-0.0453062
0.622961
0.0447639
-0.029155
-0.0051425
0.00043184
0.759114
-0.00462167
-0.0417725
-0.000134615
0.355945
-6.61324e-05
-0.0797886
0.00039145
-0.108065
0.00144746
-0.0193019
0.392762
-0.00749217
0.00192153
0.0014023
-0.0079107
0.160959
-0.00010977
2.03014e-06
-0.0166058
-0.0206786
-0.0438208
0.016051
-0.00359493
0.141671
0.146917
-0.00234615
0.00210486
-0.000285572
0.75073
-0.00811066
-0.013325
0.669507
-0.0358804
0.629772
0.111246
0.765038
0.389868
0.213049
-0.00277844
0.0147581
0.151805
0.0492152
-0.00842299
0.000446935
0.0166357
-0.0992567
-0.00174092
-0.0162066
-0.0156502
-0.0173976
-1.2512e-05
-0.00626983
0.000175652
-0.000100371
0.00180675
0.557128
0.393631
-0.0216934
-0.0053511
-0.0955907
-0.0410521
0.489689
0.691471
-0.102272
0.00414448
0.357712
0.0042186
0.00129457
-0.147734
3.26863e-06
0.21803
0.291653
-0.00116741
-0.0709462
0.000490121
-0.015482
-0.0151095
0.169711
0.046469
-0.10538
-3.1799e-05
0.0212742
0.00354066
-0.0674058
0.0110913
0.776728
0.000820942
-0.00751574
-0.0631481
0.473646
0.554138
0.601262
0.11311
0.000153278
0.0131076
-0.00112577
-0.00268295
-0.00175323
0.175813
0.371826
-0.0237228
-0.0768637
0.558637
-0.0079801
-0.0109086
-0.117039
0.151591