/*--------------------------------*- C++ -*----------------------------------*\
  =========                 |
  \\      /  F ield         | OpenFOAM: The Open Source CFD Toolbox
   \\    /   O peration     | Website:  https://openfoam.org
    \\  /    A nd           | Version:  7
     \\/     M anipulation  |
\*---------------------------------------------------------------------------*/
FoamFile
{
    version     2.0;
    format      ascii;
    class       surfaceScalarField;
    location    "32";
    object      phi;
}
// * * * * * * * * * * * * * * * * * * * * * * * * * * * * * * * * * * * * * //

dimensions      [0 3 -1 0 0 0 0];

internalField   nonuniform List<scalar> 
44730
(
-595.607
669.715
-74.1077
1064.16
-1072.44
8.27473
-334.417
381.146
-46.7286
222.14
-259.221
37.0807
-498.118
498.118
215.052
-261
45.948
-383.749
378.555
5.19422
29.5941
-568.058
538.464
664.335
-833.89
169.555
-1009.36
1102.32
-92.9582
560.662
-149.208
-411.454
-533.627
536.04
-2.41292
-687.718
582.601
105.116
-859.808
868.866
-9.05798
248.288
68.4366
-316.725
384.856
-10.1453
-374.711
814.432
-666.903
-147.529
-399.279
411.757
-12.4777
160.713
314.816
-475.528
289.644
-355.88
66.2362
-593.931
81.6986
512.232
724.76
-60.4256
49.3314
-383.748
136.415
-489.15
352.734
237.649
-129.047
-108.601
1068.1
-3.94081
659.758
-680.886
21.1271
-278.361
-3.73852
282.099
292.426
-44.1374
-443.484
543.947
-100.463
955.723
-248.166
-707.557
-675.311
765.419
-90.1071
256.576
-225.681
-30.895
481.88
-74.3025
-407.577
133.809
-412.17
263.685
-432.321
168.636
439.268
-582.043
142.775
291.483
-42.0488
-249.434
825.516
-980.487
154.971
1063.32
-237.809
-1018.32
1035.81
-17.4913
400.063
-87.7118
-312.351
704.067
110.365
189.64
-315.669
126.03
1228.49
-777.715
-450.772
-591.217
147.733
536.875
-538.918
2.0436
230.482
645.56
-876.043
225.675
537.222
-762.897
-102.282
541.55
-389.086
169.941
219.145
-8.6118
-227.115
235.727
-670.73
-4.58185
237.845
-22.7934
423.483
-38.6274
-274.639
-41.7172
316.356
523.95
-499.44
-24.51
-34.325
-559.606
-465.972
45.5976
420.375
-298.217
-33.8659
332.083
799.489
17.5789
-817.068
-409.154
569.867
9.17806
-245.748
236.57
-221.251
484.936
-319.507
430.225
-110.718
263.047
241.844
-504.891
495.829
-122.195
-373.634
429.426
-50.1897
-379.236
-452.304
-29.822
482.126
-986.794
-31.5212
1061.91
6.19632
298.965
283.996
-582.962
-245.093
548.01
-302.917
169.473
84.5415
-254.014
-430.834
380.836
49.998
-375.289
392.436
-17.1477
276.389
-158.427
-117.962
-250.54
-58.4477
308.987
-699.283
16.5348
682.748
407.67
-87.8841
-319.786
-250.11
250.11
81.4577
-759.776
678.318
-665.59
69.9823
-947.214
848.235
98.9786
-325.159
-58.59
-17.3568
218.917
-201.561
517.609
-135.262
-382.347
-644.462
-43.256
652.368
-69.7671
92.8143
83.3479
-176.162
-360.529
97.7212
262.807
-306.746
56.2066
847.009
-621.334
567.719
-601.28
33.5612
218.551
-90.9215
-127.629
-356.851
132.633
224.218
-29.3815
259.348
-229.967
-846.765
847.576
-0.811411
-37.1909
-155.501
192.692
264.523
0.501937
-265.025
-711.441
12.1583
-263.022
281.536
-18.5137
778.724
20.7651
433.889
-638.864
204.975
204.798
-213.41
-756.297
820.902
-64.6056
643.821
-716.228
72.4072
74.6354
577.733
943.833
-846.979
-96.8537
-214.536
248.028
-33.4914
199.012
57.5639
357.223
123.089
-480.312
1009.1
-256.887
-752.212
17.5795
564.23
-581.81
-12.4038
-587.652
600.056
538.876
-239.91
110.842
422.102
-532.944
-302.904
406.482
-103.578
76.7261
-814.823
738.097
-700.042
454.949
15.8805
-218.912
203.031
20.9653
-855.769
834.803
-328.632
324.122
4.50953
-37.5221
300.569
24.0005
-890.998
866.998
-350.955
350.423
0.531593
-73.0966
-326.183
16.85
-293.678
276.828
705.059
-787.155
82.0965
726.076
-860.291
134.214
-156.796
346.436
177.088
99.3007
194.365
-204.841
10.4759
306.759
-311.741
4.98145
-127.784
561.673
628.75
326.973
148.128
71.1141
-219.242
274.305
-313.266
38.9602
229.548
-263.822
34.2738
-19.9691
284.492
-359.075
8.11953
2.05558
-183.384
181.328
218.124
-56.3627
-161.762
181.125
827.973
-198.073
-739.274
937.347
-101.099
-397.019
523.149
13.7261
238.198
-226.066
-12.1319
280.615
-230.613
-50.0018
35.4501
-227.054
191.604
-398.278
637.771
-239.494
49.7803
511.968
-561.748
984.124
-886.644
-97.48
790.862
-787.081
-3.78044
-575.427
-235.337
810.764
-145.608
722.062
-576.453
453.414
-443.327
-10.0877
-211.298
-1.37702
212.675
34.215
-763.644
729.429
-168.204
-220.882
-243.651
230.391
13.2599
242.517
-20.3768
17.7863
1020.86
-572.447
-448.414
735.193
-933.266
-397.93
95.0257
9.90336
208.221
16.5408
-778.295
761.754
-90.3669
-856.847
416.182
-451.445
35.2624
-106.77
832.847
53.1391
-736.801
683.662
-205.899
-5.39909
274.305
10.1108
250.932
-261.043
-432.066
432.066
82.3567
680.193
-762.549
-312.208
49.1864
-579.99
597.569
328.052
-316.609
-11.4437
-777.83
-63.2671
841.097
-151.589
452.833
-301.244
432.502
85.1064
430.054
-441.937
11.8837
275.983
-46.4352
-204.429
-329.739
534.168
500.204
-380.918
-119.286
-328.015
20.0182
307.997
786.057
-80.9985
-519.482
-81.073
600.555
-661.031
661.031
-130.538
504.828
-374.29
95.218
-346.226
251.008
-919.293
343.866
306.008
-356.614
50.606
436.659
16.7556
813.479
-495.799
-317.68
917.266
-69.1345
-848.132
72.926
145.625
-847.467
614.548
232.919
-24.6248
276.738
-252.113
-206.452
225.706
-19.254
-45.3889
-488.238
875.396
-890.312
14.9166
-57.7714
429.17
-12.9878
789.062
-793.755
4.6921
247.447
-9.24971
30.5066
-245.043
822.123
-963.808
141.685
245.165
-342.212
97.0468
570.507
-570.507
899.937
-93.2257
-806.711
594.142
73.0979
-667.24
62.8374
-332.514
269.677
-176.317
263.65
-87.3329
-478.326
326.737
52.749
736.313
-392.825
529.24
247.443
-174.517
-684.106
-176.185
484.859
-630.467
453.312
-500.833
47.5216
-899.166
1034.78
-135.613
-579.507
555.499
24.0082
506.609
-581.897
75.2884
129.791
735.758
-865.548
211.214
530.799
-742.013
723.351
505.135
322.393
740.932
321.791
-231.795
-89.9961
-293.159
293.159
370.631
-401.531
30.8999
-27.8783
1089.79
268.698
-322.002
53.304
531.978
-482.198
-297.429
-562.379
551.467
-564.975
13.5088
-29.1197
904.516
265.772
-290.397
-240.718
209.734
30.9837
498.821
-587.532
88.7115
-197.575
959.104
-761.53
588.631
-82.022
772.31
-382.903
-389.408
337.979
-48.3352
471.984
548.878
-208.325
190.969
-743.841
59.7351
-936.221
37.055
477.336
46.6144
-679.952
891.166
-695.936
-60.3606
184.783
-205.185
20.4023
-73.9988
915.26
-841.261
-38.0571
-817.791
855.848
179.785
-177.73
55.2421
173.737
-228.979
-7.64019
-365.948
373.588
329.066
-312.216
-610.645
212.367
-241.118
439.697
-198.579
908.563
-678.081
304.492
17.2989
310.59
-13.009
-297.581
-568.833
165.11
403.724
460.086
-30.0322
523.456
-727.885
-375.535
0.246095
646.44
-746.17
99.7291
-227.214
155.892
71.3227
-656.098
638.918
17.1802
232.801
-222.691
69.9777
177.465
-743.841
826.198
-309.004
325.782
-16.7788
67.9716
-362.456
294.484
233.055
-206.811
-26.2437
526.018
-328.361
-197.656
10.562
-346.472
335.91
-496.971
484.567
-74.6796
275.343
-200.664
-662.935
160.635
502.3
-343.979
-12.8722
653.713
6.04548
444.623
-21.1395
-163.382
11.8802
151.502
-23.5951
728.306
-704.711
-856.939
986.73
320.426
-153.268
-167.158
677.302
-775.081
97.7785
425.18
347.131
706.209
59.7678
-765.977
818.107
81.8301
556.344
-527.949
-28.3948
1093.73
-1012.32
-81.4078
2.47409
-293.003
290.529
289.317
21.2731
96.2998
141.349
209.907
-15.5417
199.007
-197.655
-1.35118
140.034
151.368
-291.402
-302.369
282.429
19.9398
-165.755
-299.231
464.986
419.584
-550.122
-317.453
200.239
-190.664
-9.5754
191.385
1008.91
-559.947
-448.964
525.706
-109.076
-416.631
134.929
508.891
83.8494
472.495
-0.579602
-696.771
715.238
-18.4667
43.4813
-546.539
503.058
-94.4973
-248.507
343.005
-448.023
38.8215
409.201
-140.285
-335.868
476.153
779.988
-1.26375
24.4652
198.458
-385.701
187.242
153.961
-228.641
-920.906
849.749
71.1572
-293.015
306.029
-13.0141
673.97
-86.6644
-587.306
1047
-603.803
-443.2
198.419
-189.705
-8.71313
262.264
-111.886
-150.378
-420.52
417.799
2.72065
662.481
-30.8661
-631.615
-696.415
-0.356281
379.354
28.3154
-559.964
448.664
111.299
584.768
-578.115
-6.65304
-855.761
44.4079
811.353
856.375
33.1972
-889.572
-424.265
283.98
-202.652
39.2698
-329.145
537.411
-208.266
-187.121
-53.5968
754.992
-793.05
-147.082
202.324
540.933
-168.18
-372.754
-123.417
-308.648
215.049
-215.117
0.0673874
619.6
42.8814
683.35
-608.715
24.8533
-302.232
277.378
837.906
-876.544
38.6381
-308.662
-7.9465
957.606
-960.667
3.06102
61.4055
192.898
-254.303
680.191
-33.7507
571.005
-592.696
21.6909
-828.353
849.318
207.545
-191.665
786.549
212.038
747.066
155.326
192.386
-347.712
-297.691
-6.44877
823.791
-72.2113
-751.58
598.401
-131.013
-467.388
255.191
-85.2496
80.4572
415.372
88.1855
-264.502
473.746
-503.784
30.0383
141.42
-347.752
206.332
137.521
388.497
58.4616
858.805
653.142
-773.185
120.043
-22.4224
980.028
-288.605
-18.1548
306.76
-218.702
206.929
11.7733
-3.29563
172.768
47.985
452.219
334.827
-342.467
-352.2
32.693
-344.75
46.5334
838.333
-58.3449
85.7988
-232.284
146.485
-958.072
21.8512
-922.019
-36.0528
-486.319
58.7876
427.531
-735.535
904.719
-169.184
-200.975
-60.2193
261.194
-122.697
-90.4079
213.105
-154.862
-45.4056
200.267
-133.284
228.505
-95.2209
853.466
422.016
-223.557
157.917
-11.9265
-567.581
-879.755
-41.1518
447.405
150.997
193.276
-522.421
200.793
-1107.14
906.345
19.7402
207.889
-227.63
-0.346341
-206.105
418.12
26.503
89.101
701.761
278.127
12.3818
-290.509
-468.815
579.657
728.85
72.7456
-801.596
-779.866
-7.28931
802.458
-856.091
53.6332
301.98
-287.256
-14.7245
86.7674
233.658
850.88
-864.925
14.0457
978.826
-862.145
-116.681
939.289
-943.805
4.5162
-398.396
-161.567
-1.5322
-873.247
545.294
327.953
-177.974
161.264
16.71
-246.105
386.139
139.359
91.0983
-230.457
754.657
267.517
-258.339
431.539
94.1675
783.907
-698.492
-85.4155
-52.4063
-104.263
-91.2285
195.491
-305.129
261.451
43.6781
862.74
-838.74
-21.0961
378.585
-357.489
-330.951
-28.1234
572.042
-583.232
11.1905
366.295
-327.397
-38.8978
-828.582
731.243
97.3391
-905.846
831.847
142.906
119.358
-405.303
276.079
129.224
467.004
-453.499
-13.5049
620.941
-622.627
1.68581
518.002
-44.2562
-316.869
-131.931
448.8
7.54929
-296.154
-66.2436
-249.898
316.142
544.288
563.933
-1108.22
-900.862
849.222
51.6402
0.900483
-404.315
417.981
-13.6656
431.187
-399.342
-31.8453
673.531
-848.373
174.842
711.778
-883.103
171.325
-502.288
-160.647
-437.662
62.753
374.909
303.026
-5.91137
-297.115
-326.079
171.217
477.046
83.6151
-719.733
-108.849
13.3815
185.625
-299.423
302.896
-3.47305
26.9876
-337.456
310.468
489.217
40.2565
-529.473
-237.29
302.312
-65.0222
-896.191
-19.6375
915.828
-197.496
-37.4152
234.911
6.23221
-848.796
842.564
804.704
-118.366
-686.338
337.062
145.183
-211.427
-874.871
-21.3198
808.739
41.0099
0.763159
550.464
-193.241
-511.144
-18.056
529.2
-801.989
913.793
-111.804
313.076
-245.104
-404.462
309.964
-29.9029
590.637
63.0761
382.7
-241.28
302.965
510.514
-12.5116
24.4541
341.841
-778.814
88.8945
689.919
456.17
95.2964
-130.345
-29.7152
160.06
-851.802
-23.0685
66.7759
333.287
-191.598
231.886
-40.2884
43.4514
-280.741
-287.204
278.372
8.83232
-17.6669
25.1528
-513.646
488.493
-611.624
-134.545
-19.6655
299.941
-280.275
-336.284
459.373
599.384
447.619
-1102.78
430.49
672.293
328.846
0.262123
-329.108
-233.991
-167.048
401.039
-525.543
555.137
-661.295
-19.2382
680.534
100.317
81.9447
-182.262
-44.2551
799.248
839.358
-862.711
23.3532
807.413
-154.271
36.7491
-604.807
-322.742
-23.73
556.784
57.7293
-614.513
437.44
22.6459
-348.697
391.129
-42.4326
-853.915
-3.72092
857.636
-27.8205
-823.982
279.703
-286.18
6.47689
625.22
-4.2792
571.967
-416.574
-155.393
-217.345
273.939
-56.5943
-87.074
-265.126
-419.807
-46.1656
895.99
-184.212
-824.765
89.2295
-629.207
17.5832
-538.369
48.5516
489.817
820.547
-39.6235
-780.923
-258.561
125.277
2.92709
-356.603
353.676
862.127
-188.596
306.138
-3.11198
637.099
-66.0944
494.304
-5.08782
801.341
-712.24
-1045.14
-57.6422
444.551
22.4525
535.614
32.1051
729.552
-695.337
796.444
-38.6558
-757.788
190.843
-228.034
273.2
-11.7495
-117.758
209.304
-173.854
474.899
15.3626
-490.261
576.19
-95.5987
-480.592
-458.437
421.462
36.9754
128.836
672.505
10.5341
-100.292
-757.537
857.829
75.6826
-666.426
590.744
223.458
-301.673
78.215
-744.465
644.173
91.7007
713.003
-504.411
1048.7
230.232
-144.433
-282.016
-177.133
252.171
-75.0383
205.79
-267.062
61.2719
-178.733
318.092
10.5269
-341.478
-51.0232
4.89186
-409.837
404.945
-47.5051
-161.359
-194.522
-27.8657
365.618
-337.752
-870.857
944.461
-73.6034
45.4788
-527.974
482.496
29.1684
-247.871
-755.723
106.017
649.706
357.868
-224.059
819.407
1.13925
-35.1382
225.531
-190.393
441.105
130.862
-104.93
-332.732
816.194
-201.646
-95.2252
-914.135
614.603
-330.607
124.36
55.8497
652.061
-570.603
495.325
-13.4457
340.868
-34.8598
338.6
-420.936
82.336
191.876
-235.441
43.5649
51.651
245.927
-297.578
339.459
-505.213
-5.88665
761.956
-806.211
537.466
-62.5675
-107.234
738.92
-631.686
-268.546
301.996
-33.4498
-70.1355
293.594
199.841
-189.938
-279.475
10.9288
-1060.59
588.483
472.104
-35.8378
-78.6979
171.512
-308.168
293.801
14.3671
-675.995
692.535
267.435
-272.171
4.73567
-482.795
183.563
-503.95
-556.637
236.299
-278.348
847.159
-946.59
99.4307
-343.43
20.6878
488.258
-626.794
138.536
-2.72303
811.462
264.911
-285.628
20.7171
-325.489
-547.758
-37.1862
292.571
-25.1357
364.268
-129.198
-235.07
-19.8318
-844.455
864.287
-877.819
488.627
389.192
-55.6049
735.797
-460.532
40.7256
-140.416
-123.533
263.949
874.591
-821.42
-53.1707
391.204
-324.428
797.614
4.84453
109.424
79.038
-188.462
-580.552
1024.4
-443.845
142.507
-190.29
47.7838
-759.01
-144.971
903.98
143.252
221.016
853.503
-31.3797
813.469
-736.743
502.55
-422.092
-16.9205
-228.828
42.0585
149.95
-192.008
310.941
239.523
-22.4447
-1098.2
619.196
479.004
8.65017
891.716
-60.5397
-831.176
-430.516
622.242
-191.726
57.1303
756.339
27.2779
-538.422
-590.502
-18.2013
608.704
415.215
141.489
-556.705
-264.769
-522.312
278.438
62.4294
-175.232
-74.8782
-405.826
352.377
53.4485
-793.182
297.382
199.792
-260.667
60.8747
225.695
-263.679
37.9843
429.121
-424.229
730.057
52.0566
-782.114
-202.991
47.49
824.52
20.7747
-845.295
-370.429
20.9286
349.5
118.64
860.186
-408.337
453.934
410.992
-72.392
-954.575
99.7368
854.838
789.125
102.591
-33.9743
225.851
50.1475
381.04
901.462
133.316
24.0659
-484.598
28.8021
-827.133
798.331
700.714
-769.735
69.0217
636.351
465.967
769.005
-56.031
-712.974
191.629
-49.122
76.091
339.223
-415.314
-735.262
792.392
260.919
169.306
-276.79
168.694
108.096
-111.235
-426.768
538.003
-31.3739
-212.277
1004.42
-573.929
88.3183
-289.293
182.123
-217.261
-106.635
-152.586
30.7776
820.102
-167.515
506.974
-604.677
758.422
-153.745
685.474
-709.069
-397.905
379.849
-442.991
-179.636
39.3063
349.001
-14.8427
-334.159
-46.2928
808.249
-505.251
-623.369
1128.62
287.95
-243.248
213.867
2.97374
196.868
-251.741
122.693
-885.352
909.02
-23.6682
-282.499
259.322
23.1772
73.2069
710.7
3.36253
765.643
635.105
-15.505
-14.9907
-511.287
472.157
39.1291
933.095
17.1506
-950.246
-321.938
-48.4907
-0.244583
-234.608
799.682
-69.6247
529.01
-623.064
94.0543
-762.131
-84.6338
12.9854
288.995
890.439
11.0232
-490.322
440.494
49.8277
-950.461
-94.6795
41.6984
-377.557
335.859
-221.498
247.522
-26.0241
253.491
-47.7006
-39.4698
1050.29
-313.213
-737.077
579.544
-50.534
54.4849
-263.238
-69.2761
-689.44
776.244
-86.8043
-80.9136
-17.6165
243.312
504.593
-5.77237
92.7864
-870.616
-86.0064
209.519
-123.513
-205.541
217.408
-11.8672
-681.779
570.544
-454.823
479.976
344.266
46.9373
-459.79
424.444
35.3464
583.272
425.639
498.201
-459.789
-38.4124
491.341
-318.341
-173.001
-185.959
27.5323
349.474
-20.9223
-328.552
-254.766
77.6336
-328.259
290.736
-219.05
-636.711
-691.637
-81.5476
258.33
-58.5376
664.994
197.133
7.0534
223.337
817.009
-84.0276
-732.981
328.378
-141.984
646.875
-504.891
237.68
-297.899
-93.5966
508.812
-751.078
7.23683
-121.147
-106.067
500.008
-96.6362
785.491
-688.854
-197.87
229.765
-31.8947
-36.7505
-245.748
829.586
-737.886
218.736
-427.688
-408.453
836.14
864.978
-199.984
-42.7301
791.336
-748.606
597.306
-6.66892
17.6204
-608.123
282.576
143.487
-426.063
-403.837
479.928
-24.3331
-315.122
339.456
-616.488
65.1277
551.36
-135.667
508.91
-373.244
-482.639
408.353
-482.468
74.1152
105.155
-172.388
67.2334
-182.636
337.962
-195.658
-179.877
733.021
-32.3078
102.238
581.112
-610.988
648.762
-37.7748
269.691
-289.357
-810.88
-51.8316
96.8912
-432.759
590.118
460.172
-615.757
172.766
418.939
-846.627
380.612
-681.859
28.647
653.212
-187.468
233.575
-46.1068
-816.302
886.697
-70.395
-47.8321
-432.093
479.925
1005.36
-405.636
-599.725
-68.1379
-787.954
-18.118
297.821
-950.458
207.431
743.027
-857.691
-92.7664
-170.938
-7.03595
-777.771
731.478
-128.987
-302.668
431.655
-8.99452
-270.622
279.617
160.21
647.203
237.672
148.052
-385.724
-902.865
154.568
748.297
541.122
-580.88
39.7584
604.529
58.5855
-663.115
-45.1464
673.592
-639.903
-33.6897
352.496
-23.6503
-36.1579
241.382
-205.224
608.458
65.1345
13.2468
-793.113
721.533
-777.564
-176.485
218.543
332.209
159.132
131.975
-327.632
201.389
-204.481
3.09119
338.925
-198.281
-140.644
592.219
42.8862
-748.515
801.408
-52.8925
-402.405
-98.2614
500.667
-7.90992
-291.513
240.271
59.4145
-299.686
244.944
-96.5244
-148.419
418.206
-466.038
-61.7137
-740.275
-410.452
87.399
145.656
500.174
-434.397
-65.7771
-233.735
253.476
-197.182
190.454
6.72778
16.261
-218.713
202.452
-321.658
378.389
-56.7302
221.261
-19.5283
-201.732
450.461
554.899
-258.893
555.415
-473.717
141.883
-235.248
93.3651
-197.873
-20.3047
218.178
701.26
-96.7306
235.537
-165.559
-358.704
273.177
85.5268
-423.634
-17.2804
440.915
-351.871
448.763
308.071
-324.81
16.7382
-15.2201
29.2952
473.254
462.649
35.5528
35.4436
-459.078
215.446
-5.71174
-335.8
-7.62985
-368.217
298.255
69.962
340.859
-62.4205
674.947
221.043
-229.891
246.152
-286.226
306.244
102.214
655.286
-757.5
-737.415
-25.2646
762.68
2.11341
160.372
16.776
-338.434
-690.639
621.072
69.5667
122.828
-171.91
169.78
2.12925
434.772
-152.196
-253.598
-173.727
427.325
-163.186
-348.1
217.693
-16.3036
-254.029
113.613
96.9754
-182.982
-1009.53
696.317
-347.097
347.097
851.474
242.257
-35.1945
-509.088
-500.442
208.766
327.275
527.974
42.5325
544.735
-50.4304
271.92
-272.033
0.113106
-629.339
662.156
-32.8174
-50.3196
-532.05
-47.9399
-633.543
713.661
-80.1184
83.8628
-493.017
-352.801
539.415
5.31946
524.364
24.3641
-548.728
748.871
-647.004
7.10106
-114.508
-63.1772
177.685
-416.784
88.525
309.673
-31.5887
-278.084
-156.241
-46.4112
-300.124
288.016
12.1086
-289.345
71.9998
870.469
-195.523
-339.788
46.1103
768.899
-1.9886
-766.91
584.146
-658.908
74.7618
-922.863
830.382
92.4806
-22.8477
-638.448
110.34
296.142
-21.8364
-260.592
282.428
-785.336
25.5594
-202.061
-288.362
266.526
-466.016
511.494
-266.465
266.713
-0.248143
-300.561
301.955
-1.39455
-812.71
705.476
995.974
-148.814
-171.854
293.087
-231.682
361.499
-169.113
421.042
-324.29
-96.7521
285.862
54.9972
811.53
-89.2435
-722.287
184.54
-681.511
-758.111
674.356
83.7551
6.01413
-617.114
624.744
-7.63004
60.3649
175.172
-101.442
521.027
-269.373
289.409
-20.0359
378.932
-458.049
79.1163
-608.565
649.115
-40.5497
585.993
43.8757
-629.868
254.079
-221.88
-32.199
557.029
-25.4114
-531.618
236.39
-124.743
-111.647
-129.09
-49.6256
178.716
957.762
-948.518
-9.24324
-575.491
-388.317
-45.9294
-758.163
804.092
-897.632
834.365
-588.636
371.047
217.589
605.053
-623.254
-13.8353
675.831
-661.996
20.7542
147.337
-168.091
-50.8426
-286.613
-855.984
-66.8782
15.4698
365.366
334.051
-739.687
218.266
-2.81979
-225.79
225.79
410.802
-144.8
-266.002
-911.325
25.9732
-2.90493
-24.0148
-480.551
504.566
-753.782
-80.5504
486.758
-406.208
-252.384
-408.647
431.548
-10.0868
-50.3883
258.278
153.979
184.946
-547.519
398.311
-161.244
398.916
338.39
-52.528
763.307
-710.168
-283.752
-6.07354
270.78
-946.9
-3.5613
5.61496
927.48
532.562
-448.699
-842.743
576.996
265.747
9.98698
259.275
-269.262
350.749
-9.81224
-340.937
-461.44
30.9242
-835.479
749.202
86.2765
-132.306
-189.633
188.654
37.4892
-226.143
212.882
125.508
-800.988
17.8676
-591.392
324.639
266.753
60.0534
246.706
360.636
-324.423
-36.2122
-374.788
399.423
-24.6358
847.408
-513.357
-454.909
312.925
-319.474
189.824
129.65
423.373
-720.802
568.34
-27.2183
811.241
-807.878
79.7301
156.66
-830.017
813.565
16.4525
-795.039
46.524
-472.163
-527.849
1042.65
-186.28
931.09
-835.186
-95.9034
-521.122
-463.312
984.434
-48.1314
-254.238
56.5956
224.551
-229.259
4.70884
-21.7836
-56.0615
733.363
470.502
-36.5252
-433.977
-370.988
-197.846
28.0129
-92.7709
-249.441
-147.291
427.124
-279.833
-925.723
925.723
92.5386
-807.883
490.203
-510.564
69.0956
441.468
-211.055
-194.248
168.418
-168.346
-379.172
-558.194
389.848
599.139
55.1742
189.769
418.952
-930.119
511.167
-22.9543
301.081
-224.799
-261.52
-213.52
427.314
-95.1049
-179.606
-139.868
-65.4769
-835.385
452.412
-517.985
65.5733
17.8207
-696.078
779.42
-83.3417
415.775
-419.94
4.16469
245.028
-567.028
529.752
37.2755
108.126
115.059
-223.185
198.12
-234.278
378.942
-708.782
329.84
110.536
758.33
171.652
239.15
-68.5587
-492.942
468.927
291.937
-306.039
14.1019
416.318
-37.3852
353.96
-381.825
-21.2354
-367.573
388.808
-18.1081
-293.632
302.339
28.5994
-330.938
-429.213
281.921
-387.184
38.2213
631.157
-749.524
-409.643
531.74
-312.52
-91.7951
976.641
-866.105
-492.77
-312.287
805.057
295.2
35.8701
290.994
-326.864
-458.867
148.447
-280.753
-51.6563
450.655
-563.738
113.083
47.4178
613.613
-183.821
69.3127
346.8
-286.746
708.741
-329.799
273.081
-175.36
23.6686
364.63
-388.298
-27.6125
-293.193
-9.03909
-252.513
249.582
2.93122
2.11855
560.216
-532.938
50.1572
-891.586
113.291
800.388
-2.77385
328.634
-115.752
525.492
328.701
-854.193
598.39
239.942
670.98
-767.616
-752.351
107.531
644.82
299.367
41.7835
-341.15
183.155
-175.639
-7.51538
34.0132
274.639
572.937
-195.642
32.1015
163.54
-156.699
-607.039
763.738
-339.329
365.377
-26.0477
-249.635
293.609
-43.9737
-147.66
-174.343
-255.58
208.459
47.1208
920.098
-920.098
-87.1777
727.018
-639.84
294.478
-207.711
344.254
-68.1747
-658.079
188.476
26.7634
-215.239
42.6225
-582.584
539.962
30.4261
-226.805
196.379
908.443
-914.104
5.66093
301.241
-674.611
373.369
337.194
-295.496
51.024
309.612
-350.741
876.234
556.922
-106.267
-72.2756
-240.99
-400.451
319.784
80.6666
223.688
-345.883
331.147
-500.598
169.451
-233.124
45.6561
-873.301
-73.5989
35.2738
-731.352
313.106
-180.473
796.377
-773.255
-23.122
434.019
53.5565
-487.576
-685.502
610.626
74.8759
-271.381
223.975
47.406
319.6
-27.6624
-426.064
-254.821
880.694
-836.533
-44.1604
-357.535
658.776
128.148
-530.554
-864.964
11.0497
-55.093
-603.909
659.002
35.341
-137.188
-139.603
-917.121
415.78
501.341
187.234
3.22035
449.249
-33.4745
543.449
255.798
-273.302
17.5042
-333.73
-5.82029
339.55
-545.232
442.95
-8.25399
-193.847
202.101
229.141
-40.6647
-91.3556
366.307
-274.951
-353.951
5.25409
434.204
-9.76014
59.1031
-808.772
749.669
-664.265
664.265
47.9419
189.738
-90.9663
-507.41
598.376
-854.49
938.116
-83.6258
741.138
55.2383
-14.1203
-834.564
848.684
323.436
-340.6
17.1641
324.56
13.264
-337.824
584.726
-636.814
52.0876
25.9923
317.747
-343.739
-201.958
-125.429
327.387
191.843
-8.68852
107.632
-711.129
603.497
-760.03
267.26
348.125
-312.255
793.73
59.7727
-77.2995
-433.264
340.951
-391.14
-681.897
102.691
579.206
327.984
-268.996
-58.9873
-530.828
616.079
-85.2518
-81.7168
-362.771
444.488
406.751
-382.297
-588.817
-328.304
598.307
-725.918
127.611
-409.746
-432.996
837.864
-39.7109
-645.791
122.933
454.892
-577.824
563.551
-644.725
81.1737
28.8197
-259.432
11.1112
-692.97
-318.879
321.807
-6.52904
570.467
-692.696
122.229
-344.484
-430.597
2.33489
-685.482
697.983
-12.5003
763.061
-164.671
645.359
-102.729
-542.629
213.201
286.973
286.444
-296.218
9.77471
807.725
-935.866
128.141
-652.002
-100.349
-287.754
18.381
-325.902
86.5455
239.357
-55.8992
640.625
90.7278
-274.542
183.814
357.099
-335.213
-21.886
-337.571
-253.821
-22.3995
207.183
-35.5034
-169.682
234.121
141.831
-375.952
-270.864
318.818
-47.9538
591.083
-682.049
22.139
287.534
-261.658
-64.244
-286.141
-302.496
-711.313
540.732
170.581
-112.746
-148.254
-156.916
65.9948
-577.615
536.279
41.336
576.953
-1098.07
-24.2696
-1014.15
-140.845
375.713
51.6014
-22.1155
-51.3723
-759.971
128.285
854.413
-848.181
617.364
-76.632
1.85916
589.228
-591.087
-287.22
-163.103
450.323
-52.2728
-219.108
11.2992
191.446
-213.913
22.4674
-993.009
229.365
449.243
-118.096
19.6222
-627.919
608.297
300.162
-365.28
29.7147
335.566
62.623
574.014
-636.637
-102.239
772.581
-670.342
-669.557
-195.368
-731.44
39.887
691.553
-29.8592
566.6
-536.74
925.876
-917.258
-8.61773
566.107
-621.2
-611.184
-23.543
634.727
-394.801
123.937
254.577
-276.932
22.3553
801.541
-772.739
-95.8506
730.785
-634.935
458.216
13.9416
-433.588
-669.729
604.134
65.595
399.738
-92.1249
-563.973
-46.7872
-10.6606
-399.176
-34.063
241.239
-207.176
20.2608
327.864
-359.619
363.679
-4.06057
747.675
-793.604
127.625
133.569
211.223
-222.596
11.3729
684.161
-775.249
91.0881
-319.256
-678.791
-10.6481
795.59
74.8791
290.738
120.254
812.521
-16.9308
-9.2954
-1029.52
173.752
3.93476
22.0325
-568.572
159.908
-139.154
-1083.03
-239.746
231.492
74.6706
219.808
-107.499
-467.103
574.603
-2.41696
-477.436
479.853
838.916
-31.1906
570.024
75.3341
-34.1307
-200.98
235.111
745.634
-788.364
-155.376
389.497
-410.366
446.929
-36.5626
-679.329
723.075
-43.7459
306.014
-363.653
17.4266
394.436
-148.002
-246.434
174.743
-511.294
465.914
45.3804
3.85005
-461.119
464.391
-3.27173
613.645
-596.024
40.0252
-165.429
599.448
-292.18
57.4331
440.685
40.7831
607.943
-648.726
-70.7116
-154.969
216.342
7.63266
31.8977
-388.815
23.5341
-416.017
5.65062
249.542
-251.415
1.87301
711.221
-682.574
-484.023
83.2427
400.78
-42.2125
626.358
-13.7428
-204.971
914.259
-141.751
-772.509
518.882
537.489
-1056.37
-301.694
-13.9754
289.571
4.2303
10.2919
272.137
-693.766
-3.3946
697.16
592.239
-748.938
-222.087
192.361
29.7261
-526.893
-23.1728
-643.254
2.40722
139.476
-136.844
-428.131
-121.202
211.929
18.0135
-638.725
620.711
-38.3586
-497.886
536.244
-267.734
293.726
-69.2497
626.034
-730.53
754.701
-24.1716
217.674
-482.443
237.061
-252.581
15.5195
-15.3359
-839.378
26.6682
246.108
-448.066
911.172
-921.643
10.4712
637.415
13.0284
-650.443
-51.3742
-541.322
-807.255
840.452
115.472
-206.701
897.67
-78.2625
237.487
-12.9364
-60.4362
-716.011
776.447
-88.7029
-596.779
-23.2587
547.622
-675.896
23.8937
206.836
-242.829
35.9937
-233.526
0.699134
232.827
-557.815
533.544
24.2713
-217.036
87.9461
51.4658
95.9083
-147.374
-880.256
314.545
18.6265
-333.171
54.9277
637.901
-692.829
-340.993
372.607
-31.6138
-651.746
-24.1502
-664.669
766.883
-896.845
127.688
769.157
-143.809
-168.4
-444.335
63.4178
-456.894
-615.544
245.006
22.5111
-287.107
289.079
-1.97155
177.978
-69.8521
-421.714
393.236
28.4781
-954.897
972.047
-330.773
126.911
203.862
139.622
20.2862
524.816
859.914
-879.745
277.515
-43.8564
369.508
-505.175
-789.7
811.553
-21.8527
-353.338
-185.891
539.229
129.777
-168.065
38.288
426.072
-527.514
749.778
-685.907
-63.8706
-265.78
-35.9141
318.289
-78.0173
313.313
-291.174
329.627
-652.029
-17.6999
5.5999
633.318
-373.967
149.908
20.6417
-891.499
549.589
-388.954
608.141
368.5
423.201
8.34783
744.671
-805.107
-39.4713
-16.9673
827.285
70.3853
421.056
-499.745
78.6887
211.228
-192.995
-18.2328
-210.247
236.556
-26.3091
-5.69481
341.638
-335.943
-618.053
658.836
440.053
256.386
-216.888
-39.4983
363.408
511.183
312.544
-333.467
709.903
101.627
80.6016
-604.154
523.552
639.659
-35.525
11.9064
-930.637
114.093
816.544
219.037
-256.452
-249.083
-793.259
732.272
60.9871
5.17482
814.686
-819.861
929.049
-929.049
-377.269
17.65
602.821
36.8383
-109.098
-34.4909
-197.418
231.909
437.445
27.6928
-465.138
-433.757
19.7888
413.969
191.099
972.171
-453.289
-221.952
35.9655
185.987
-627.458
630.716
-3.25744
424.297
-469.184
44.8879
-430.692
-3.0658
44.2948
-763.901
719.606
-636.466
-63.5763
-548.792
518.425
30.3677
-368.007
280.933
32.8309
-250.677
217.846
-166.228
-164.545
-28.0625
240.067
-23.7244
47.9801
287.824
-275.442
-71.3647
791.603
365.492
-50.9477
-769.708
32.2926
-890.021
814.438
75.5836
135.303
276.454
380.175
158.7
-756.81
859.019
331.276
192.836
-524.112
-161.587
594.438
-644.013
49.5746
481.255
60.5456
-541.801
643.361
-345.217
-298.144
-478.576
-122.705
-782.908
680.669
26.3306
-688.064
661.733
-711.264
108.495
602.768
-762.959
-5.31937
37.2752
508.502
-87.4455
-525.284
357.769
555.954
-585.813
-35.362
-64.8258
223.478
-158.653
49.6007
-683.144
-233.261
-226.837
162.011
-27.1393
296.108
-123.758
-172.35
174.907
-8.33365
-632.769
721.664
-37.8058
217.742
-179.936
869.863
-629.985
12.8709
158.068
188.732
0.997677
397.431
-398.429
-225.028
-201.753
426.78
180.926
763.535
379.085
-355.417
-843.158
7.67962
626.394
-609.859
-0.578404
-814.994
815.573
589.53
16.021
-605.551
846.368
46.4999
-892.868
308.211
-6.25565
121.931
-409.151
425.568
8.63609
-254.797
334.493
-79.6961
190.202
381.156
-90.4178
610.887
-54.5516
-556.335
-757.913
784.549
-26.6363
14.9677
650.15
-665.118
-646.754
115.926
-5.57145
-442.199
609.096
34.2826
322.817
-29.3904
184.784
-84.4673
-335.293
1.56357
95.9486
742.967
2.81018
-276.502
273.692
-421.984
-508.135
-57.4334
-757.766
815.199
246.208
-53.3105
198.448
-275.281
76.8331
199.601
-95.3792
-218.736
-516.875
-581.324
-792.132
-18.7472
-164.523
-815.751
776.441
39.3103
-34.3366
469.472
-435.136
59.7807
821.335
-881.115
194.889
-143.423
775.735
25.6727
-238.49
203.999
19.7139
-304.923
285.209
575.709
-573.85
-643.564
133.287
510.277
-558.321
586.725
-28.4048
29.0061
257.437
-665.255
-441.883
608.534
45.7915
-654.325
-721.939
606.75
-679.204
72.4544
-155.418
-40.2238
449.914
-484.239
-846.909
852.084
107.065
-307.963
-588.882
-642.328
593.235
49.0933
176.739
-71.5841
-43.2146
463.935
179.426
-574.82
61.1741
514.343
-526.849
12.5057
73.3052
-717.649
644.344
265.839
-16.2968
-309.453
165.172
144.281
-565.059
589.423
-119.719
468.679
-348.959
681.398
-86.9594
-0.140175
-316.594
316.734
-447.03
-442.742
889.772
-163.769
265.395
-101.626
-102.896
-579
-568.65
422.474