/*--------------------------------*- C++ -*----------------------------------*\
  =========                 |
  \\      /  F ield         | OpenFOAM: The Open Source CFD Toolbox
   \\    /   O peration     | Website:  https://openfoam.org
    \\  /    A nd           | Version:  7
     \\/     M anipulation  |
\*---------------------------------------------------------------------------*/
FoamFile
{
    version     2.0;
    format      ascii;
    class       volVectorField;
    location    "5";
    object      U;
}
// * * * * * * * * * * * * * * * * * * * * * * * * * * * * * * * * * * * * * //

dimensions      [0 1 -1 0 0 0 0];

internalField   nonuniform List<vector> 
30084
(
(1.00701 -0.008555 1.50507e-22)
(1.0069 0.00240947 5.1179e-22)
(0.993881 -0.00223042 -8.78383e-22)
(0.980577 -0.0356717 2.84583e-22)
(0.998393 -3.30566e-05 1.20795e-22)
(0.970286 -0.022227 -4.4591e-22)
(1.04569 -0.0469456 -8.91176e-23)
(1.00948 -0.0130072 -1.59879e-23)
(1.00133 -0.00125228 1.98543e-23)
(1.00012 -3.23491e-05 5.47512e-24)
(1.01103 -0.0174588 8.9684e-24)
(0.998931 -0.0109055 -2.65889e-22)
(0.999685 -0.000131655 1.59751e-23)
(0.999979 -6.79956e-06 3.68076e-25)
(1.07079 0.0662482 2.00631e-21)
(0.995989 -0.00131357 1.32179e-22)
(0.999885 -0.000554273 -6.36423e-24)
(1.08069 0.0133172 -2.00253e-22)
(0.998614 -0.00120202 -4.11647e-23)
(0.992697 -0.000559608 -1.96194e-22)
(0.99944 -0.000175076 -5.55882e-23)
(1.00126 -0.00126198 6.99083e-23)
(0.993808 -0.00236718 9.70428e-22)
(0.998603 -0.000107887 5.32961e-23)
(0.939774 0.0561632 1.78787e-22)
(1.00732 0.00191701 2.74922e-21)
(0.99966 -3.66541e-05 3.64403e-23)
(0.967764 0.0477981 -1.23502e-20)
(1.07327 0.0671515 -5.19042e-21)
(0.999622 -0.00596891 -5.12623e-23)
(1.01004 -0.00661459 9.98425e-23)
(1.02335 -0.00355077 -7.10097e-22)
(0.992826 -0.084268 2.56225e-21)
(0.999348 -0.0152368 1.24983e-22)
(0.966682 0.0452728 9.91689e-21)
(1.00327 -0.0214814 2.56966e-22)
(1.03629 0.0297446 -9.47007e-22)
(0.981312 -0.0198133 1.17015e-21)
(1.00356 -0.000516829 -2.66216e-22)
(1.00338 -0.000280635 5.03222e-22)
(1.00029 -0.000119337 -1.61955e-23)
(0.993212 -0.0207636 -9.97006e-22)
(0.999901 -0.000537412 -1.2087e-25)
(1.02226 -0.0461834 -6.89879e-22)
(1.00002 -3.01184e-06 -1.21559e-24)
(0.999703 -0.00606077 4.07144e-23)
(0.998481 -0.00810103 -7.52716e-23)
(1.00005 -5.65554e-05 3.02573e-24)
(1.00214 -0.00238639 -2.83622e-22)
(1.03631 0.0283263 -3.90763e-22)
(1.08877 -0.0425719 -1.16532e-22)
(0.982766 -0.0311914 -1.29623e-21)
(1.02286 -0.00287843 2.47697e-22)
(0.971315 -0.0220262 -7.31764e-22)
(0.996086 -0.00135939 -1.16246e-22)
(1.07719 0.0634197 -3.25842e-21)
(0.99777 -0.00148697 4.05336e-23)
(0.999422 -0.00019548 7.0373e-23)
(1.00047 -0.014265 -1.56867e-22)
(1.01009 -0.0384519 -4.56446e-22)
(0.999956 -6.09601e-06 9.12594e-25)
(0.998656 -0.00122505 -8.44853e-24)
(1.1309 0.0544041 1.42985e-21)
(1.00344 -0.0209457 -1.30636e-22)
(1.02683 0.0609666 7.03765e-21)
(0.952603 0.0154586 2.37978e-20)
(0.999983 -0.0181136 -3.17711e-22)
(0.995417 -0.00925951 3.82888e-22)
(0.96336 0.0101469 9.59097e-21)
(1.0003 -0.000116721 1.04935e-23)
(1.00815 0.00256763 -3.74972e-21)
(0.990342 0.0402084 7.05229e-21)
(1.00217 -0.00593593 -1.24819e-22)
(0.949702 0.0651624 6.70809e-21)
(0.994678 -0.00043658 6.15446e-22)
(1.07872 -0.0163441 4.69939e-22)
(1.08822 0.0999866 7.6277e-21)
(0.981748 -0.0111485 2.84455e-22)
(0.999968 -1.50243e-05 -2.55295e-24)
(1.00448 -0.0320409 -5.07815e-22)
(0.97092 -0.000528891 -4.94386e-22)
(1.01217 0.0224284 2.11609e-21)
(1.00728 -0.00893547 -4.53351e-22)
(1 -4.05173e-05 -4.2434e-25)
(1.04703 -0.0453086 2.00352e-22)
(1.18003 -0.0511037 -6.4677e-23)
(1.01483 0.0514388 -1.2587e-20)
(0.999672 -0.00013059 -1.44477e-23)
(0.999695 -0.00011594 -4.24143e-24)
(0.955086 -0.0292815 -2.01124e-21)
(0.997997 -0.0359542 1.20776e-21)
(0.981676 -0.0116894 3.17083e-22)
(1.002 -0.00247397 4.91877e-23)
(1.03649 -0.00347802 -4.4858e-22)
(0.95011 -0.0125841 -1.66601e-21)
(1.01818 0.0623781 6.39836e-21)
(1.00071 -0.0468219 1.91631e-21)
(1.00031 -0.000249159 2.66454e-23)
(0.981925 -0.0450332 -2.41528e-21)
(1.06412 0.0759681 8.30425e-21)
(0.999966 -1.50174e-05 3.72899e-24)
(0.982559 -0.00729358 -1.69503e-21)
(0.999958 -7.61606e-06 -4.70202e-25)
(1.02991 -0.0098366 -2.35115e-21)
(0.981775 -0.0311488 8.79924e-22)
(1.02166 0.00815784 4.04507e-21)
(1.00012 0.0382763 1.11548e-20)
(0.999707 -0.000117327 -3.58266e-23)
(0.999996 -4.4595e-05 -2.31752e-27)
(1.00428 -0.0791127 -1.0493e-22)
(0.991071 -0.0834656 -2.30268e-21)
(1.02954 -0.0239673 3.37832e-22)
(1.00001 -1.28142e-06 2.28433e-25)
(0.999307 -0.00402579 -1.43156e-22)
(0.999952 -0.00144961 4.91373e-24)
(0.992031 0.0412146 1.59132e-23)
(1.02117 0.0334253 -4.57339e-21)
(0.992251 -0.0048788 -6.66511e-22)
(1.00002 -4.46571e-05 3.73832e-25)
(1.00241 -0.00582293 -9.24163e-23)
(1.17252 0.0305501 -5.13761e-21)
(1.00489 0.00737497 5.94337e-21)
(1.1163 -0.0111671 3.12074e-21)
(0.951798 0.0189421 -2.25963e-20)
(1.00071 -0.000231374 -6.52468e-23)
(1.1048 -0.000554726 -9.81393e-22)
(1.07875 0.0150134 -1.07409e-21)
(1.01302 -0.0367577 2.65907e-22)
(1.00259 -0.00227513 -2.50373e-22)
(1.00001 -0.000283542 1.16081e-24)
(1.02174 -0.0448198 2.42168e-22)
(1.09054 0.0985533 4.25931e-21)
(0.996086 0.0732604 1.40172e-20)
(1.12473 -0.0207508 6.54384e-22)
(1.02867 -0.00982252 1.98841e-21)
(1.00979 -0.00615001 1.89415e-21)
(1.02495 0.0967337 1.08674e-21)
(0.981678 -0.000503873 2.52289e-21)
(1.11675 -0.124531 3.23243e-21)
(1.06564 0.0738145 -6.25408e-21)
(1.10271 0.00194281 1.06623e-21)
(0.959332 -0.00362319 -2.16007e-21)
(0.967436 -0.0312329 5.86293e-22)
(1.00001 -1.16503e-06 -9.52993e-26)
(0.999992 -1.96909e-06 1.62722e-25)
(0.998354 -5.31596e-05 -9.57935e-23)
(0.998588 -0.00794365 1.54778e-22)
(0.992932 -0.0630942 -1.75286e-21)
(1.10924 -0.0866132 7.53012e-22)
(1.12396 0.0845952 5.90525e-21)
(1.01994 -0.0110609 1.02249e-21)
(1.01169 -0.0122645 3.56259e-22)
(1.00028 -0.000395386 4.15467e-23)
(0.999913 -0.000143181 3.72663e-24)
(1.00106 0.0213275 -1.23918e-20)
(1.00034 -0.00101043 4.75127e-24)
(0.995667 -0.00753648 7.09049e-25)
(1.03106 0.0989448 -3.32559e-21)
(1.0029 0.028582 -1.28969e-20)
(1.09006 -0.0394461 5.31922e-22)
(0.972332 -0.00195364 8.60397e-22)
(0.981248 -0.0349105 1.9776e-21)
(1.07647 0.0660263 8.48977e-22)
(0.999967 -3.01195e-05 7.9378e-25)
(0.999992 -1.77179e-06 -6.14574e-26)
(0.992231 -0.00514365 2.36656e-22)
(0.968292 -0.0305187 -3.20297e-21)
(1.00004 -0.000149239 -3.3006e-24)
(1 -4.31416e-05 -2.79218e-25)
(0.995555 -0.00340483 -7.60862e-23)
(1.00001 -0.000276865 -9.69029e-25)
(1.00366 -0.00377387 -1.42224e-22)
(1.02909 0.100122 3.93649e-21)
(0.981958 -0.000231494 -2.07873e-21)
(1.03799 -0.0749275 -3.52654e-22)
(0.996682 -6.26036e-05 3.9326e-22)
(1.00137 -0.00174755 1.47805e-23)
(0.982038 -0.00716452 2.86889e-21)
(0.999498 -0.00402023 -1.24856e-23)
(1.11662 -0.0034067 -2.57235e-21)
(0.999986 -6.35119e-06 1.15967e-24)
(1.00989 -0.0249728 1.30686e-23)
(1.01586 0.0525397 4.51544e-21)
(0.995621 -0.00854914 -2.35604e-23)
(1.11089 -0.122402 -2.99355e-21)
(1.01671 0.0282654 -4.00554e-21)
(0.995871 -0.00187786 -5.68953e-22)
(0.988158 -0.0104261 7.28853e-22)
(1.00253 -0.00228249 3.81787e-22)
(0.999531 -0.00555831 -7.03981e-23)
(0.999816 -5.29547e-06 4.05995e-24)
(1.00415 -0.0116486 1.11782e-22)
(0.949266 0.00938438 9.38319e-21)
(1.0011 0.020063 9.53762e-21)
(0.990559 -0.00414228 1.9582e-23)
(0.995878 -0.00742 -2.37591e-22)
(0.985049 0.0216573 -9.22464e-21)
(1.00874 0.0176996 1.82126e-21)
(0.951176 -0.0124028 2.04067e-21)
(1.00073 -0.000338972 -5.12449e-23)
(1.05766 -0.0591144 1.40657e-22)
(0.982418 -0.0600138 2.41568e-21)
(0.999123 -0.0111505 1.28918e-22)
(1.00055 -0.000694974 -8.27001e-23)
(1.0259 0.0987204 1.60783e-21)
(0.99571 -0.00342168 -5.19374e-23)
(1.00436 -0.00340243 -1.56785e-22)
(0.991654 -0.062796 2.31942e-21)
(1.00466 -0.081147 2.69847e-22)
(0.999975 -3.39738e-06 2.94806e-25)
(0.98379 0.0580952 -1.18404e-20)
(0.999329 -1.71202e-05 -9.08407e-25)
(1 -3.47441e-05 -9.43822e-26)
(0.999644 -0.000135829 6.14951e-24)
(0.999988 -0.0359631 -4.32581e-22)
(1.11939 0.0605689 -5.03623e-21)
(1.01041 -0.024407 3.81442e-23)
(1.00418 -0.00316144 -1.07803e-22)
(0.998617 -0.00015592 1.32049e-22)
(0.952133 -0.013828 -3.49201e-22)
(1.00003 -0.000304146 -7.88978e-25)
(1.00031 -0.00103782 4.21822e-25)
(0.998504 -0.000127192 -8.71905e-23)
(1.01672 8.02736e-05 3.76088e-21)
(0.998289 -0.00257016 -2.65881e-23)
(0.999328 -0.00375683 4.24795e-23)
(1.01672 -0.000931672 1.93153e-21)
(1.00008 -0.000255003 4.61136e-24)
(1.00002 -2.39943e-06 3.14823e-25)
(1.00323 -0.000393902 5.60391e-23)
(0.984137 -0.0225043 -1.01052e-21)
(0.983964 -0.000288773 -9.9383e-22)
(0.996896 -0.000239117 -4.19317e-22)
(1.00879 0.00183987 3.11115e-21)
(0.989643 -0.000761978 4.65666e-22)
(1.01189 -0.0119618 -3.33197e-22)
(0.999979 -7.57419e-06 1.04242e-24)
(0.998094 -0.00168726 -1.57073e-22)
(1.00053 -0.000683232 8.95672e-23)
(1.05667 -0.0565671 1.06879e-22)
(1.05347 -0.129923 3.3448e-21)
(0.999107 -7.78656e-05 6.78946e-23)
(1.00029 -0.000358372 -3.20357e-23)
(0.999276 -0.00364672 -1.47139e-23)
(1.00232 -0.00512197 -2.23527e-22)
(0.992864 -0.000410622 -8.32742e-22)
(0.999967 -2.79265e-05 -6.00794e-26)
(1.17414 -0.0498886 1.77201e-22)
(1.00004 -0.000315212 1.1709e-24)
(1.0165 4.72205e-05 -2.64787e-21)
(0.997841 -0.00149916 -8.18464e-23)
(1.00009 -0.000242685 1.86337e-24)
(1.02096 0.00836663 -2.57314e-21)
(0.978511 -0.0576304 -2.62405e-21)
(1.00016 -2.88749e-05 1.7674e-23)
(1 -7.7315e-06 -2.64611e-26)
(0.959206 -0.00260034 -2.46784e-21)
(1.03933 -0.120058 -5.08843e-22)
(0.994454 -0.00543738 -6.14319e-23)
(1.01242 -0.0376159 -7.73631e-23)
(1.02056 -0.0114866 -1.68058e-22)
(1.01915 0.0522141 5.47905e-22)
(1.00005 -5.34153e-05 8.25766e-25)
(0.984476 -0.0219934 9.64274e-22)
(1.14819 0.0092797 -3.15951e-21)
(0.976237 0.0304754 2.3335e-22)
(0.995587 -0.00834819 1.81619e-22)
(1.01625 0.0271514 4.85871e-21)
(1.07802 -0.0139373 3.42404e-22)
(0.999879 -0.00158004 -3.68499e-24)
(0.906939 0.026705 1.36136e-20)
(0.99965 -0.000282821 -4.1592e-23)
(1.03786 -0.0775599 -5.45071e-22)
(0.952963 -0.0137955 2.4519e-21)
(1.00146 -0.00165369 -8.10145e-23)
(1.11632 0.0306361 3.55858e-21)
(0.994412 -0.000628222 -4.91884e-22)
(0.99661 0.0787808 9.67506e-21)
(0.997743 -0.00017864 3.74042e-23)
(0.988523 -0.0112111 -3.79006e-23)
(0.999865 -0.00144835 -3.11721e-23)
(1.05097 0.0871698 1.80613e-21)
(1.0004 -0.011168 2.86165e-23)
(1.01647 0.0623522 3.79941e-22)
(0.999669 -2.53688e-05 -1.59836e-23)
(0.996197 -0.00126375 -1.82483e-22)
(0.974482 0.0703064 -6.01484e-21)
(1.01982 0.00059545 -3.21739e-21)
(1.01671 -0.000383027 2.23833e-21)
(0.98119 -0.0287637 2.45486e-21)
(0.9999 -2.16131e-05 4.00436e-24)
(1.00229 -0.00487751 -2.63303e-23)
(0.999894 -0.000603389 -1.10302e-23)
(1 -3.27896e-05 -5.09347e-26)
(1.03452 0.00595427 9.84152e-22)
(1.00003 -3.32141e-06 2.95124e-26)
(0.986882 -0.0100283 1.72844e-21)
(1.14673 0.00594306 2.77451e-21)
(0.938532 0.0585832 -1.38404e-20)
(0.997649 0.0736598 -2.15689e-20)
(0.980557 -0.0494992 8.11417e-22)
(0.991376 -0.0203804 5.63647e-22)
(0.984789 -0.00105786 4.74011e-22)
(1.02376 -0.0227146 9.71959e-22)
(1.00459 -0.011449 -1.64505e-22)
(0.988075 -0.0109148 -1.00643e-21)
(0.981423 -0.05435 3.50761e-22)
(1.01816 0.0532461 -8.58359e-21)
(0.999373 0.0222547 1.52536e-20)
(0.999167 -9.61185e-05 3.74458e-23)
(1.00114 0.0389894 -1.54157e-20)
(1.03404 0.00491293 3.63156e-22)
(1.11861 -0.00768221 -8.69217e-22)
(1.00926 -0.00993594 1.54447e-22)
(1.0009 -0.0103416 -9.58395e-23)
(1.0175 -0.0338462 -4.61642e-23)
(0.99648 -0.00121582 -4.30675e-22)
(0.998277 -0.000435009 -2.80331e-23)
(0.99996 -6.28509e-06 4.82142e-24)
(0.999409 -0.00568069 1.04551e-22)
(1.06514 -0.0190466 1.65467e-22)
(1.05046 0.0895487 -2.92067e-21)
(1.00102 -0.000853615 3.84906e-23)
(0.982015 -0.0184905 -1.40021e-21)
(1.01029 -0.0101328 -4.93082e-22)
(0.999974 -1.12194e-05 -4.07854e-25)
(0.980953 -0.0518312 -1.28073e-21)
(0.926077 0.0457339 -6.0938e-21)
(0.995938 -0.00320775 6.36577e-22)
(0.999267 -0.00297114 3.74917e-23)
(1.00955 -0.00985023 -9.58292e-23)
(1.0042 -0.0310244 6.50544e-22)
(1.04912 0.0246108 1.28663e-21)
(0.999818 -0.00642859 -1.88233e-23)
(0.999979 -3.37941e-05 2.39609e-24)
(1.00001 -1.61944e-06 1.1781e-25)
(0.998254 -0.000394551 -3.11413e-23)
(0.973503 0.0696755 8.69123e-21)
(1.03328 -0.0159893 5.88961e-22)
(1.05736 -0.127913 -9.42194e-22)
(1 -7.82942e-06 -1.25675e-26)
(1.03749 -0.123546 3.64806e-22)
(1.05029 0.00402076 -1.71449e-21)
(0.99661 -0.000104522 -1.98495e-22)
(0.95472 -0.0049675 -3.02965e-21)
(0.999317 -0.00292212 -3.7285e-23)
(0.999714 -0.000130207 -2.61243e-24)
(0.984936 -0.0198561 -2.94351e-22)
(1.00061 -0.000753221 -3.9875e-23)
(1.1185 -0.000132569 2.4324e-21)
(1.00597 -0.000847186 -1.10454e-21)
(1.09277 0.0838626 -3.63062e-21)
(0.999878 -0.00156195 4.817e-24)
(1.00304 -0.00907667 5.14314e-23)
(1.00458 0.00654192 -8.07136e-21)
(1.16784 0.028755 2.32758e-21)
(1.00027 -0.000371137 -2.44552e-23)
(1.00028 -0.000333277 2.42543e-24)
(0.992877 0.0497837 7.50597e-22)
(0.998822 -0.0365332 -2.47848e-22)
(0.999721 -0.0063355 2.28254e-23)
(1.00795 0.0196127 9.51042e-22)
(0.981029 0.0108466 1.78884e-20)
(1.08988 -0.0454775 4.63926e-22)
(0.999952 -0.0174129 -1.04931e-22)
(1.1163 0.0597729 5.01004e-21)
(0.999497 -4.4694e-05 -2.80489e-23)
(0.994251 -0.00285455 1.75715e-22)
(0.997788 -0.000182911 -1.06856e-22)
(1.0093 0.0166842 1.62446e-23)
(0.999989 -0.000497614 -1.77496e-26)
(1.0058 -0.00098736 1.12891e-21)
(1.1255 -0.072811 3.22994e-23)
(0.995201 0.0692594 2.14234e-20)
(0.951341 0.0674331 -3.12386e-21)
(0.995998 -0.00186437 2.14313e-23)
(0.994288 -0.00533396 1.85283e-22)
(1.02516 0.0623298 -5.62365e-21)
(1.01054 -0.0396703 6.49787e-22)
(0.999962 -6.85056e-06 -4.70439e-24)
(1.1089 0.0927429 8.75823e-21)
(1.01654 0.000528556 -1.12e-21)
(1.01602 0.000720986 -7.51259e-22)
(0.996339 -0.00911681 -2.50997e-22)
(1.01194 -0.00168359 -1.68333e-21)
(0.969505 0.0620178 2.89259e-21)
(1.1068 -0.0955231 -2.98424e-22)
(0.984581 0.0625215 3.16774e-21)
(0.991997 0.0626721 -5.51841e-21)
(0.999997 -4.30191e-05 7.44472e-27)
(1.06288 -0.0188797 -6.02162e-22)
(1.10633 -0.0911821 1.72446e-22)
(0.998204 -0.00258715 7.04448e-23)
(1.00106 -0.000929648 -6.3358e-23)
(0.978307 0.0124809 4.26572e-21)
(1.03463 -0.0162617 -7.76942e-22)
(1.0002 -4.77815e-05 3.96687e-24)
(0.989414 -0.0429327 -2.70913e-21)
(0.981951 -0.0617305 -1.14391e-21)
(0.996279 -0.00130341 2.56517e-22)
(0.999918 -0.000140064 -4.70037e-24)
(1.01966 0.0734904 -9.96632e-22)
(1.02142 0.0323081 7.7614e-21)
(1.00004 -0.000338711 -1.90635e-25)
(1.00273 -0.00240634 4.91644e-23)
(1.00345 -0.00234595 2.65391e-22)
(1.14587 -0.0343972 -8.70955e-22)
(0.981169 -0.0279776 -2.18254e-21)
(1.00005 -0.00039823 -2.44591e-24)
(0.99999 -8.93447e-07 -1.01892e-25)
(1.00033 -0.000121981 6.16542e-24)
(1.04787 0.0251122 -1.29796e-22)
(0.981252 -0.019083 -1.12242e-21)
(1.00112 0.0327463 3.58806e-21)
(0.962446 -0.0347189 1.47187e-21)
(0.991893 -0.020224 -5.95829e-22)
(0.983525 -0.000853854 -2.00909e-21)
(1.0089 0.0189337 -4.67554e-21)
(1.12735 0.0517566 3.04608e-22)
(0.999194 -0.000102902 6.85741e-23)
(1.00523 -0.00388193 -2.8288e-22)
(1.00057 -0.000751344 4.52301e-23)
(0.983499 0.0685152 -8.23389e-21)
(0.982674 -0.0172509 6.0239e-22)
(1.00072 -0.000191743 -2.12823e-23)
(0.99494 -0.00252501 -2.33971e-22)
(1.10419 0.00637051 1.93208e-21)
(0.999864 -0.00690622 -4.56817e-23)
(0.992271 -0.00884514 -1.27013e-22)
(1.00016 -9.69752e-05 -1.22903e-23)
(1.00016 -3.39965e-05 -5.44424e-25)
(0.924196 0.0489028 9.5711e-21)
(0.99443 -0.000936404 -3.06135e-22)
(0.996776 -0.00331283 2.56517e-22)
(0.999738 -0.00127087 -2.80737e-23)
(0.99951 -3.3119e-05 -3.83501e-24)
(1.02284 0.0516008 -2.94449e-21)
(1.13029 -0.0720912 2.30909e-23)
(0.991008 -0.0306841 3.41294e-22)
(1.00001 -1.42108e-06 -1.14837e-25)
(1 -2.61873e-05 -4.47585e-26)
(0.981981 -0.0178698 1.58421e-21)
(0.995406 -0.00134225 6.20911e-23)
(0.996505 -0.00152692 -3.52806e-23)
(1.00927 -0.003109 5.35458e-22)
(1.00377 -0.00147934 9.53434e-23)
(1.00057 -0.0114475 -4.75242e-23)
(1.08265 0.00343821 2.89193e-21)
(0.987208 -0.00319777 -3.95316e-22)
(0.985694 0.0612707 -2.57924e-21)
(1.01059 -0.0174461 -1.90158e-22)
(1.00017 -9.70829e-05 1.36398e-23)
(0.979848 -0.0486278 1.23769e-22)
(0.989534 -0.0271199 -1.2416e-21)
(1.10909 0.0303743 2.16667e-21)
(0.998058 -0.00428101 -7.39217e-23)
(0.994241 -0.035878 -4.05941e-22)
(0.999985 -3.60406e-06 6.46509e-25)
(0.958317 0.0492582 -9.69616e-21)
(1.01001 -0.00133667 9.54867e-22)
(1.00006 -0.000165304 -4.77863e-24)
(0.949335 0.0129902 -1.21013e-20)
(0.990304 -0.0309359 8.06933e-22)
(0.999985 -4.28704e-06 1.06079e-25)
(1.00099 -0.000858653 1.86428e-23)
(0.980122 -0.0508368 -7.23059e-22)
(1.02838 -0.0231232 3.21933e-22)
(1.03186 -0.00573585 1.29245e-21)
(0.999994 -1.8526e-06 1.27941e-25)
(0.994432 -0.000462523 2.43729e-22)
(1.01791 -0.0329288 -5.51145e-23)
(0.996382 -0.00119298 3.55519e-22)
(0.999682 -3.05362e-05 -8.65036e-23)
(0.994362 -0.00294959 5.71557e-24)
(0.983374 0.0220196 1.07555e-21)
(0.995308 -0.00896195 -3.22622e-22)
(0.992593 -0.00865332 9.39671e-23)
(1.0018 0.0232221 -3.79325e-21)
(0.998149 -0.00159219 8.27347e-23)
(0.980546 0.0692792 -1.054e-21)
(0.999984 -4.21703e-06 -3.32582e-25)
(0.993404 -0.0202184 2.33453e-22)
(0.990886 -0.0596341 2.5228e-21)
(0.994993 -0.036062 6.75903e-22)
(1.14827 -0.0040757 -5.95984e-22)
(0.999252 -0.00391039 9.60258e-23)
(1.00699 -0.0165073 1.22362e-22)
(0.99999 -0.0016738 1.31957e-24)
(0.988506 -0.0159256 -7.42782e-22)
(1.02981 -0.0253992 1.5227e-22)
(0.999975 -1.05321e-05 2.04165e-24)
(1.00001 -9.26867e-07 -2.04055e-25)
(0.995652 -0.000294274 1.65434e-22)
(0.986183 0.0430629 7.24645e-21)
(1.00908 -0.0134332 6.64192e-22)
(1.00176 -0.00245731 -7.93214e-23)
(0.951846 -0.0259574 2.1788e-21)
(1 -6.95386e-06 -4.07037e-26)
(1.00067 -0.000818272 -7.22214e-23)
(0.999972 -0.000474124 -9.95365e-25)
(1.01017 -0.0127903 6.95335e-22)
(0.988486 -0.0117083 1.3316e-22)
(0.999739 -0.000201175 1.0845e-23)
(0.995482 -0.00801002 1.16732e-22)
(0.991453 -0.00510663 -1.40632e-22)
(1.00069 -0.000111567 -5.85601e-24)
(0.999984 -4.98605e-06 -2.09792e-25)
(1.14077 0.0251209 3.44737e-21)
(0.999761 -0.00125398 2.99964e-23)
(1.04948 0.000521144 1.34669e-21)
(1.00307 0.0685956 2.11723e-20)
(1.0228 0.0611296 -5.09137e-21)
(1.00088 -0.0146222 -1.8044e-22)
(1.00362 -0.00130151 -3.16343e-23)
(1.01203 -0.00124204 1.03118e-21)
(1.00001 -0.00172111 -1.50186e-24)
(0.998574 -0.00740659 1.12118e-22)
(1 -1.17884e-05 -7.05683e-26)
(0.990656 0.0626955 -4.24507e-22)
(0.991746 -0.0116589 1.79459e-22)
(1.00895 -0.00278271 -3.81909e-22)
(0.987531 -0.00332223 8.10073e-22)
(1.00274 -0.00890951 4.24198e-24)
(0.998181 -0.00422115 1.60968e-22)
(0.999927 -0.000143396 1.06175e-24)
(1.00001 -4.14805e-07 -1.05582e-24)
(0.996893 -0.00329493 -1.86612e-22)
(1.03688 -0.00456049 -7.41567e-22)
(1.00367 0.0298793 5.84846e-22)
(1.00083 -0.000342729 -8.70417e-23)
(0.983245 -0.0449728 -6.29391e-22)
(0.982622 -0.0167289 -2.73142e-22)
(0.994553 -0.000379624 -9.15315e-22)
(1.12194 0.0818554 -3.7516e-21)
(0.999117 -0.000687043 -4.1033e-23)
(1.00275 -0.0101325 -1.65266e-22)
(0.996227 -0.00200777 1.78414e-22)
(0.999933 -0.000138573 9.19141e-25)
(0.980484 -0.053237 8.03435e-22)
(1.00188 0.0318001 -5.65524e-21)
(1.01721 0.0249376 -5.06211e-21)
(0.984155 -0.0111901 -1.30896e-22)
(1.00089 0.0312951 -2.61518e-22)
(1.00006 -0.000154604 9.36269e-24)
(1.00001 -1.20256e-06 3.31245e-25)
(1.10809 0.0903738 -3.24558e-21)
(1.11315 0.0322435 -2.4246e-21)
(0.950414 0.0499901 -4.88638e-22)
(1.00459 -0.0612065 1.63098e-21)
(0.983693 -0.00117059 -6.11649e-22)
(1.10159 0.00931155 -2.72189e-21)
(1.0008 -0.000374268 9.85546e-23)
(0.9961 -0.00271591 1.02421e-22)
(1.00032 -0.000134865 -5.87381e-24)
(0.992547 -0.000540769 -2.02703e-22)
(0.991931 -0.00952026 -2.64895e-22)
(0.999997 -2.33091e-05 -7.87137e-26)
(0.999392 -2.49535e-05 1.60154e-23)
(0.995217 0.0677641 -1.9506e-20)
(0.999909 -0.000494999 1.04211e-23)
(0.962821 0.0452458 1.17376e-20)
(1 -1.13411e-05 5.33125e-26)
(1.15176 0.0550467 4.06472e-21)
(1.04989 -0.000607107 -2.83585e-21)
(1.08166 0.00513795 -3.19157e-21)
(1.00071 -0.000373216 5.94806e-24)
(1.00013 -2.99781e-05 1.09756e-23)
(0.988435 0.0402852 -1.08307e-20)
(1.05092 0.00255867 5.56209e-21)
(0.990549 -0.0608943 -2.32348e-21)
(1.01272 0.0239721 2.26763e-21)
(0.999 -0.0149194 9.00332e-23)
(0.990658 -0.00388941 -2.07292e-22)
(0.997205 -0.00016929 -1.08621e-22)
(1.05048 0.102805 -1.36685e-20)
(0.983538 -0.0200505 9.55386e-22)
(1.02394 -0.0215929 -6.18853e-22)
(0.995668 -0.0079615 -6.64493e-23)
(1 -6.86818e-06 -2.36744e-27)
(0.999124 -0.000642909 -3.47733e-23)
(1.00403 -0.00405603 1.70142e-22)
(0.987109 -0.00588458 1.04841e-21)
(0.984591 -0.0112733 1.93615e-22)
(0.969503 -0.0310697 -3.09103e-22)
(0.986985 -0.00625895 -7.93116e-22)
(1.01269 0.00173368 4.26565e-22)
(0.998541 -9.30325e-05 2.18259e-24)
(0.956181 -0.0296146 1.12004e-21)
(0.990129 -0.000659202 -2.8885e-22)
(1.00002 -0.000151322 1.76579e-24)
(0.991414 -0.0005242 -2.00881e-22)
(1.02465 -0.023497 -1.11035e-21)
(1.0121 0.00187672 -2.35798e-21)
(0.982033 -0.0202287 -2.41904e-22)
(0.999987 -6.70859e-07 -2.76306e-27)
(0.987932 -0.0119802 1.99377e-22)
(1.00169 -0.0103418 -3.48494e-24)
(1.00095 -0.000807693 2.38679e-23)
(1.12532 -0.0902847 -6.60786e-22)
(1.00106 0.0321925 -1.30026e-20)
(1.00063 -0.000813035 6.70681e-23)
(0.991556 -0.000386388 2.98667e-24)
(1.08373 -0.0472433 -7.71731e-23)
(1.01723 0.000377875 3.81505e-21)
(0.991164 0.0186932 -1.14435e-21)
(1.00128 -0.00172547 2.13717e-23)
(1.0008 -0.0152629 5.73459e-23)
(1.04276 0.0779745 -1.89305e-21)
(1.01043 0.0151303 -1.17977e-20)
(0.994166 -0.0201064 6.10952e-22)
(1.00329 -0.00239461 -2.96972e-23)
(0.966189 -0.0371087 1.46795e-21)
(0.999998 -3.21352e-06 2.05638e-26)
(0.964506 -0.00161292 -1.13231e-21)
(1.00006 -4.97667e-05 1.64203e-24)
(1.08194 -0.0488101 7.69422e-22)
(0.999977 -2.17415e-06 -2.27893e-25)
(1.00002 -4.38879e-05 1.17944e-24)
(1.00056 -0.0170342 -6.76732e-23)
(1.13033 0.0585824 -3.24631e-21)
(1.00819 0.0865866 9.53509e-21)
(1.02707 -0.023819 -1.77903e-21)
(1.00992 -0.0102924 3.27997e-22)
(0.999999 -2.07567e-06 6.33959e-29)
(0.995782 -0.00323152 -3.44616e-22)
(1.00006 -1.34733e-05 -1.18752e-24)
(0.997838 -0.0017133 1.18003e-22)
(1.00002 -4.07513e-05 -9.18989e-25)
(1.03197 -0.00461718 -4.03746e-21)
(0.999678 -0.00033314 -4.26617e-23)
(1.03016 0.0353284 5.32181e-21)
(0.999918 -0.000154936 -7.48359e-24)
(0.99102 -0.00380108 -3.50108e-22)
(0.970284 -0.000833401 2.47014e-21)
(0.997062 -0.000197331 -1.39554e-22)
(0.987421 0.0235051 1.10289e-20)
(0.98784 -0.000555511 5.72157e-22)
(1.02755 -0.0757468 9.78109e-23)
(0.996208 -0.00284266 5.28272e-22)
(1.01679 -0.0015104 -8.33836e-22)
(0.981277 -0.0458187 2.89212e-21)
(1.01306 -0.00102087 -2.84798e-21)
(1.03451 -0.0479204 -1.56323e-23)
(0.999989 -4.57668e-07 2.70776e-26)
(0.999939 -0.014447 6.6468e-23)
(0.997255 -0.000222728 1.69984e-23)
(1.00018 -6.71865e-05 8.11835e-24)
(1.00006 -1.13324e-05 2.02028e-24)
(1.0524 0.104558 1.49855e-20)
(0.996619 -0.00153289 2.97313e-22)
(1.01724 0.00125286 4.32448e-21)
(1.00122 -0.0155605 6.68591e-23)
(1.0006 -0.000221676 2.27612e-23)
(1.01569 -0.00479451 -3.19465e-21)
(1.00011 -2.40109e-05 -2.47e-23)
(0.999983 -2.37675e-06 -3.04144e-26)
(0.964963 -0.0021392 8.71838e-22)
(0.997599 -0.000867157 1.34501e-22)
(1.00002 -3.97879e-05 1.30468e-24)
(1.02869 0.0614863 3.92191e-21)
(0.932423 0.0397832 -1.70482e-20)
(0.999858 -0.000165403 1.91548e-23)
(0.971652 -0.00168162 -6.66424e-22)
(1.00001 -9.5333e-07 2.37382e-25)
(0.967693 0.0606395 -1.152e-20)
(1.15507 0.0581256 4.8577e-21)
(0.980726 -0.0365113 -2.43978e-21)
(1.00004 -0.000389276 -2.81243e-24)
(1.023 -0.0208909 1.37963e-21)
(1.01964 -0.000771658 -1.1425e-21)
(1.02024 0.000640212 3.27266e-22)
(1.03264 -0.00611884 -5.16757e-22)
(0.999788 -0.00134525 -5.17843e-24)
(0.999906 -0.000594884 8.58441e-24)
(0.990445 -0.0116348 -5.82373e-22)
(1 -5.97715e-06 -2.02096e-25)
(1.00001 -4.32544e-07 -5.9735e-26)
(0.98289 -0.0197224 -5.6873e-22)
(1.00171 -0.0461328 -8.92772e-22)
(0.970429 -0.0304388 -8.07297e-23)
(0.942957 0.0565043 -3.15335e-22)
(1.00014 -1.65986e-05 -1.01266e-23)
(1.01804 -0.0563816 -1.4302e-21)
(1.00506 -0.00363593 -2.91417e-22)
(0.999984 -2.44722e-06 3.44643e-25)
(0.999304 -0.00277471 -8.30434e-23)
(1.00003 -0.000332613 -1.88054e-24)
(0.997082 -0.00919381 1.88892e-22)
(1.00003 -7.37458e-06 1.26578e-24)
(1.03569 -0.0467073 -1.31131e-23)
(1.0129 -0.0012967 2.76846e-21)
(0.981463 0.0680178 2.79824e-21)
(1.01626 -0.00141945 3.12249e-21)
(0.999811 -0.000157727 1.55476e-23)
(1.00031 -0.000278389 -2.31891e-23)
(1.14733 -0.0388794 8.3074e-22)
(1.01698 0.00106907 -3.47618e-21)
(0.997864 -0.000282186 1.20886e-22)
(1.00001 -4.95447e-07 4.95767e-25)
(1.03827 0.0567955 -6.65601e-21)
(1.09958 -0.125831 -5.54904e-22)
(1.0045 -0.0597783 -6.90968e-22)
(0.989858 -0.000561054 -1.535e-22)
(0.999985 -1.53137e-05 6.10513e-25)
(0.999812 -0.000148458 -9.10712e-24)
(1.10572 -0.127548 1.61771e-21)
(1.00091 -0.0365271 -2.44685e-22)
(1.02237 0.0185925 7.26341e-22)
(0.985651 0.0590927 1.07369e-20)
(1.02618 -0.0737649 8.10214e-22)
(0.999131 -5.6098e-05 -2.13365e-23)
(0.999985 -7.10491e-06 -7.56442e-25)
(0.974733 -0.0394995 2.44201e-21)
(0.988613 -0.079533 -2.79258e-21)
(0.999864 -0.000169427 1.02615e-23)
(1.00747 -0.0161229 4.01225e-22)
(0.994373 -0.0195434 -1.03867e-22)
(0.996799 -0.00163952 1.16873e-22)
(0.997822 0.0270674 -8.9206e-21)
(0.999115 -0.000401107 7.61795e-23)
(1.04101 -0.0320742 3.68296e-22)
(1.0874 0.102556 -7.88132e-21)
(0.99465 -0.00239365 -3.44004e-22)
(0.949386 0.0471159 -1.73528e-21)
(0.953368 0.0224771 5.17251e-21)
(0.999979 -3.66923e-05 -2.39241e-24)
(0.999982 -0.000518806 -2.92835e-25)
(0.987998 -0.000731931 -3.64634e-22)
(1.00882 -0.0034032 -6.8904e-22)
(0.972879 -0.00153998 1.39283e-21)
(1.00354 -0.00295385 -3.06051e-22)
(0.99485 -0.00240053 3.21011e-22)
(0.999611 -0.000362415 -3.25673e-23)
(0.972403 0.0609946 -2.07827e-21)
(1.03058 0.034086 -8.26183e-21)
(1.00156 -0.00166246 5.45276e-23)
(0.910664 0.0252926 -3.4151e-21)
(1.00001 -9.63735e-07 -3.40763e-25)
(1.01606 0.00400825 -5.93118e-21)
(1.00144 -0.075482 1.71547e-21)
(1.01987 -0.0561026 5.48549e-22)
(1.00007 -0.000149261 -4.8543e-25)
(0.971525 -0.000870356 1.13762e-21)
(1.01401 0.00318672 3.30395e-21)
(1.00866 -0.00376862 5.72068e-22)
(1.0194 -0.000428847 1.56733e-21)
(0.999691 -2.3249e-05 6.10671e-23)
(0.999673 -0.000356811 3.86544e-23)
(1.0201 -0.0316195 -1.04038e-22)
(0.997638 -0.00094069 -3.81863e-22)
(0.991295 -0.00870803 -6.28013e-22)
(0.999395 -0.0025254 4.91868e-24)
(1.0462 0.0289884 4.64777e-21)
(0.999855 -0.0150936 -4.73364e-23)
(0.996587 -0.00349815 5.59662e-24)
(0.949042 -0.0220448 -3.31095e-21)
(0.994209 0.0498494 1.23484e-21)
(1.07922 -0.0103313 -2.5861e-21)
(1.01517 -0.00456399 2.55951e-21)
(0.999726 -0.000130922 1.15557e-23)
(0.999651 -0.000231807 5.21772e-24)
(0.987954 -0.0157639 1.51192e-21)
(1.00069 -0.000884727 -5.36738e-23)
(0.998227 -0.000494869 -2.1664e-23)
(0.999985 -1.46598e-05 -2.23346e-25)
(0.999801 -0.00137089 1.19518e-24)
(1.01367 0.00297713 -1.28091e-21)
(0.988031 0.0421161 -1.04117e-20)
(0.999912 -1.16311e-05 2.35996e-24)
(1.06475 0.100165 -1.37982e-20)
(0.999997 -2.94902e-05 3.91936e-26)
(0.997778 -0.00202342 1.60856e-22)
(0.999994 -6.65372e-05 1.58855e-25)
(1.00357 -0.00254505 -1.35232e-22)
(1.14402 0.0235032 -2.62814e-21)
(0.999973 -2.95425e-05 2.25727e-25)
(0.999972 -3.26455e-05 1.54078e-24)
(0.961623 -0.0351502 -1.45468e-21)
(1 -5.91163e-06 -1.23876e-26)
(1.03489 -0.00549068 4.39229e-21)
(0.992811 -0.0312886 1.06994e-21)
(0.99998 -0.000453844 8.10743e-25)
(1.04046 0.0459616 -5.21796e-21)
(1 -2.09581e-05 5.99365e-26)
(0.999726 -2.53177e-05 5.33992e-23)
(0.99994 -2.51026e-05 9.2413e-26)
(0.996719 -0.00352137 -9.6005e-23)
(0.999768 -0.00108466 -1.48872e-23)
(0.99573 -0.000213909 -1.1145e-22)
(1.01245 -0.0910984 -2.00866e-22)
(0.999794 -0.00105676 9.78504e-24)
(1.00289 -0.00240154 -1.05435e-22)
(0.999983 -1.70604e-06 -1.30848e-25)
(1.00941 0.0852181 -1.81277e-20)
(1.04003 -0.033123 9.47375e-22)
(1.08143 -0.0101954 -3.93701e-22)
(0.974901 -0.00459999 1.51451e-21)
(0.983981 -0.00322026 -2.70024e-22)
(0.999367 -0.00271877 1.36597e-22)
(1.00201 -0.00183454 1.47824e-22)
(1.02312 0.0405371 2.13657e-21)
(0.989091 -0.0279588 1.69275e-22)
(1.05502 0.0720265 2.79339e-21)
(0.968537 -0.010649 -2.78859e-21)
(0.997696 -0.0019536 -1.52122e-22)
(0.999993 -2.52943e-06 -2.30688e-25)
(0.996096 -0.00201572 -2.15038e-22)
(0.998228 0.0799529 4.5243e-21)
(1.03503 0.0491958 -1.1889e-21)
(0.990536 -0.042493 8.94681e-22)
(0.956691 -0.00460266 6.66901e-22)
(1.0124 0.08174 4.86656e-21)
(0.994133 -0.000424317 2.90439e-22)
(0.996643 -0.0692434 1.35019e-22)
(0.999995 -6.21429e-05 3.20168e-26)
(0.992004 -0.0315235 1.35727e-21)
(0.999435 -0.000162975 -7.9031e-23)
(0.917106 0.0429186 -9.95444e-21)
(0.989757 -0.0566123 -2.00305e-21)
(0.999941 -2.20228e-05 4.21735e-24)
(0.953958 -0.0151906 -1.81158e-22)
(0.98916 -0.029672 8.38748e-23)
(1.0149 0.0422809 7.40417e-21)
(0.998251 -0.000539141 -2.05223e-22)
(0.987628 -0.0287209 -5.11051e-22)
(0.998447 -0.00759032 -1.55318e-22)
(1.0006 -0.0164313 -1.43407e-22)
(0.999141 -0.000404622 -5.18241e-23)
(1.01448 0.0414317 -8.95822e-21)
(1.04808 -0.126889 1.51385e-21)
(0.987888 -0.0124614 -4.45064e-22)
(0.990797 -0.0107933 9.05695e-24)
(0.991096 -0.00358227 -1.41663e-22)
(1.00356 -0.00152883 -1.2312e-22)
(1.01357 0.0799056 1.91779e-20)
(0.987798 -0.0101634 2.04191e-22)
(1.00912 0.0222293 4.90164e-21)
(1.00184 -0.00149445 1.12548e-22)
(1.15042 6.43179e-05 -5.00845e-23)
(0.960967 0.0485708 1.70508e-21)
(0.994021 -0.000337378 -1.00276e-21)
(0.999844 -2.87463e-05 1.01776e-23)
(1.02161 0.0528454 2.29363e-21)
(0.994048 0.064953 -1.62021e-20)
(1.01934 -0.0304548 1.97569e-22)
(1.05926 -0.0213977 3.11546e-22)
(0.996919 -0.00961122 -2.06983e-22)
(0.97529 -0.00414573 -8.9585e-22)
(1.04171 0.0763445 7.72313e-21)
(0.973733 -0.0397407 4.41833e-22)
(0.999983 -1.45591e-05 8.30687e-25)
(0.994921 -7.84878e-05 -5.11166e-22)
(1.00003 -5.05088e-06 1.30197e-24)
(0.996953 -0.000175068 3.79956e-22)
(0.999982 -1.57731e-05 -1.28963e-24)