/*--------------------------------*- C++ -*----------------------------------*\
  =========                 |
  \\      /  F ield         | OpenFOAM: The Open Source CFD Toolbox
   \\    /   O peration     | Website:  https://openfoam.org
    \\  /    A nd           | Version:  7
     \\/     M anipulation  |
\*---------------------------------------------------------------------------*/
FoamFile
{
    version     2.0;
    format      ascii;
    class       volVectorField;
    location    "2.5";
    object      U;
}
// * * * * * * * * * * * * * * * * * * * * * * * * * * * * * * * * * * * * * //

dimensions      [0 1 -1 0 0 0 0];

internalField   nonuniform List<vector> 
7724
(
(1.15245 0.105122 3.60745e-20)
(1.04022 -0.0422392 1.42857e-20)
(1.02155 0.146186 -8.007e-20)
(1.05419 0.0677824 1.11597e-19)
(0.999204 -0.000796495 -2.27015e-22)
(0.999967 -1.17909e-05 -2.56313e-23)
(1.00047 0.122175 -1.58756e-19)
(0.995759 -0.00156346 -4.97135e-23)
(0.999882 -0.000160613 -4.22769e-23)
(1.02438 -0.00280924 -5.42387e-21)
(0.99997 -1.32221e-05 2.82424e-23)
(1.0019 -0.00122544 -9.10097e-22)
(0.993396 -0.00222503 2.35393e-21)
(1.01464 -0.00196254 -3.53971e-20)
(1.02294 -0.000446654 2.29222e-20)
(0.992147 -0.0119693 -4.49879e-21)
(1.15974 0.109814 -7.56491e-20)
(0.991238 -0.00277414 -8.26297e-22)
(1.00195 -0.00760753 -3.39909e-22)
(0.979895 -0.0735176 -3.45663e-21)
(1.03049 -0.00457742 -1.22065e-20)
(1.00123 -0.000512635 1.70697e-21)
(1.01552 -0.00375641 3.09579e-21)
(1.01419 0.031196 -5.86631e-20)
(0.988374 -0.00339976 -3.7887e-21)
(1.14691 0.110302 -3.67308e-20)
(0.999186 -0.000755716 -1.63577e-22)
(1.02241 -0.000692697 1.39548e-20)
(1.00718 0.0161517 -7.59352e-21)
(1.00238 -0.00855161 2.79925e-22)
(0.989894 -0.0128224 -8.44222e-21)
(0.810713 0.0592264 2.42058e-20)
(1.01357 -0.00411624 1.91285e-20)
(0.999602 -0.000336948 2.8601e-22)
(0.999911 -5.66232e-07 5.62963e-25)
(1.02104 0.00013036 8.02719e-21)
(1.00374 -0.00915466 3.24274e-22)
(1.00332 0.111416 -2.53898e-20)
(0.997652 -0.00684534 3.76973e-21)
(0.99971 -4.09618e-05 2.72121e-22)
(0.99744 -0.00686224 -4.39648e-22)
(0.99266 -0.0106337 -1.7216e-21)
(0.997362 -0.0833901 1.36548e-20)
(1.10762 -0.0742461 -1.23945e-21)
(0.999828 -2.95723e-06 8.82948e-23)
(0.999933 -1.73632e-05 -2.5204e-23)
(1.00103 -0.000471995 -1.04355e-21)
(0.996411 -0.00546269 -2.22388e-21)
(0.999945 -2.70389e-05 -2.04654e-23)
(0.982828 -0.074392 4.96729e-21)
(1.00273 -0.00107433 9.87239e-22)
(1.02208 0.000630071 -1.45018e-20)
(0.984981 -0.00401062 -1.27512e-20)
(1.00823 -0.0273573 7.45257e-22)
(1.0192 -0.00251368 -4.7907e-21)
(0.996197 -0.00222941 -4.32315e-22)
(1.00103 -0.00792056 7.13966e-22)
(0.995909 -0.00127368 3.21871e-21)
(0.981392 -0.0150876 -1.50665e-20)
(0.999616 -0.000305126 -3.67241e-22)
(1.00004 -2.07886e-05 -3.75451e-23)
(1.00362 -0.000812865 1.10685e-21)
(1.01615 -0.00144658 -8.29349e-21)
(1.00203 -0.00111554 9.21017e-22)
(0.999241 -0.000197627 5.25094e-22)
(0.989821 -0.013562 1.53164e-21)
(0.999925 -0.000169693 3.26826e-23)
(1.00001 -1.92183e-06 2.59126e-24)
(1.15719 0.00336318 1.93965e-20)
(0.996344 -0.00551811 -6.41266e-22)
(0.999941 -1.78814e-05 2.239e-23)
(0.974179 -0.0444917 -2.63748e-20)
(0.98874 -0.00366362 1.84261e-21)
(0.979459 -0.00430519 2.52715e-21)
(0.991473 -0.00300322 2.58788e-21)
(0.971677 -0.021303 -3.32795e-21)
(1.02847 0.146032 1.28579e-19)
(1.02832 -0.00457476 1.55078e-20)
(1.07662 -0.0173443 -3.12488e-20)
(0.962842 -0.0358271 -3.45756e-20)
(0.993641 -0.00239306 -3.61476e-21)
(1.00157 0.0629529 1.57846e-19)
(1.03491 0.00224195 3.60054e-20)
(0.97856 -0.00812576 1.15819e-20)
(0.998879 -0.00212706 -3.67479e-22)
(0.99807 -0.00025739 3.81406e-22)
(0.995508 -0.00204735 4.44527e-21)
(0.98545 -0.00444344 8.20226e-21)
(0.999436 -0.00100574 2.45352e-22)
(0.996361 -0.000623609 1.37187e-21)
(1.00742 0.018532 5.59351e-20)
(1.13289 -0.0749771 2.28175e-21)
(0.999895 -4.9027e-05 -5.35136e-23)
(1.00151 -0.0066004 2.82201e-22)
(0.997084 -0.00087047 1.24506e-21)
(0.978577 -0.00286502 -2.01507e-20)
(0.976259 -0.0441158 1.74138e-21)
(1.00916 -0.0260708 1.83758e-23)
(0.99896 -0.00211664 1.22318e-22)
(0.99912 -0.000121183 1.75698e-22)
(0.960289 -0.0127792 8.85144e-21)
(1.08031 -0.0124912 2.5186e-20)
(0.997311 -0.00103819 -3.1037e-21)
(0.999977 -1.50483e-07 -2.17218e-24)
(1.14067 -0.0686088 1.27544e-21)
(1.03528 0.0253934 -5.32003e-20)
(0.901077 0.0416827 2.76446e-20)
(0.995878 -0.00211254 -1.78877e-21)
(0.999992 -1.73386e-06 5.43733e-25)
(1.02114 -0.0120203 -6.79654e-21)
(1.0604 0.0641446 -1.29599e-19)
(1.01356 -0.0669314 -1.39221e-20)
(0.99999 -1.57224e-06 -8.02994e-25)
(1.02369 -0.0118161 -1.48177e-21)
(1.03017 0.0257107 5.59141e-20)
(1.00031 -0.000456759 -8.15041e-23)
(1.04033 -0.0836741 -1.26788e-22)
(1.03266 0.0129981 -1.2937e-20)
(0.984111 -0.0357932 1.12421e-20)
(0.978961 -0.00524048 -2.62113e-21)
(0.957848 -0.00841768 -2.14189e-20)
(1.00246 0.0554005 -1.02912e-19)
(1.00155 -0.0824541 -1.87904e-20)
(1.00722 -0.00651745 5.86538e-22)
(0.959267 -0.00965423 8.44133e-21)
(0.999228 -0.00111111 5.47163e-22)
(0.989515 -0.00951136 2.75838e-21)
(1.00251 -0.00770546 -4.93334e-22)
(0.999181 -0.000184957 -1.17034e-21)
(0.988641 -0.0114661 1.35372e-22)
(1.15058 -0.0999208 -3.64596e-22)
(1.07007 -0.0171607 5.29416e-21)
(0.999513 -0.000422258 3.10268e-23)
(0.999359 -0.00103237 -4.76403e-22)
(0.977592 -0.00745715 3.43726e-21)
(1.05566 0.0495178 4.79445e-20)
(0.988913 0.046248 1.82759e-19)
(0.999979 -3.4786e-06 -2.5339e-24)
(1.00705 -0.0024265 4.64355e-22)
(0.943355 -0.00955085 -2.6947e-20)
(0.980432 -0.00290917 -1.03465e-20)
(0.986868 -0.0496058 -1.57741e-20)
(0.971972 -0.02297 4.50714e-21)
(0.980371 -0.00390515 -2.26703e-22)
(0.893507 0.0349044 1.06616e-19)
(1.007 -0.0394262 -4.9864e-22)
(1.01464 0.0171367 -2.85674e-20)
(0.982934 -0.018743 -7.66906e-21)
(0.971315 -0.00461383 2.86519e-21)
(1.00116 0.0575244 -5.11437e-20)
(1.02225 0.00315509 2.02538e-20)
(1.12375 -0.0709454 2.83671e-21)
(0.998631 -0.00165894 -1.27377e-21)
(1.1581 -0.00611365 3.44953e-21)
(1.0349 0.00127845 -3.73906e-20)
(1.02699 0.112757 -1.27548e-19)
(0.966926 -0.0246435 1.38436e-20)
(0.993428 -0.00145002 7.95375e-22)
(0.925835 0.105026 2.40361e-19)
(0.999948 -1.97825e-05 -1.92269e-23)
(1.00095 -0.00668489 -2.18082e-22)
(1.01586 0.0354614 4.20337e-20)
(0.999982 -1.64706e-05 1.24897e-23)
(0.998521 -0.00438325 -1.74385e-21)
(0.996816 -0.00087745 -5.95548e-22)
(1.00734 0.0414076 -1.37504e-20)
(1.00511 0.045398 5.08367e-20)
(0.910905 0.123232 8.01922e-20)
(0.998624 -0.00434342 -1.10915e-21)
(0.997354 -0.000273239 -6.63097e-22)
(1.00001 -2.60444e-07 -2.40539e-24)
(0.955393 -0.00554383 -3.69918e-20)
(1.00028 -0.000415556 1.12098e-22)
(1.04486 -0.0401146 -1.6695e-20)
(1.00733 -0.00277342 3.10218e-21)
(0.971779 -0.00541278 5.94077e-21)
(1.1379 -0.0571911 5.6699e-21)
(1.12558 0.030409 1.51327e-21)
(0.999889 -5.01516e-05 2.93075e-23)
(0.999542 -0.000549534 -3.23991e-22)
(1.05464 0.0696345 -1.95879e-20)
(0.999949 -1.81373e-05 -9.34101e-24)
(0.999906 -8.88392e-06 1.39867e-23)
(1.00394 0.128311 -1.30975e-19)
(1.03848 -0.0454085 5.1968e-21)
(1.00561 -0.0544271 -8.40734e-21)
(0.985881 -0.0350004 -1.59424e-20)
(0.980835 -0.00591426 7.53831e-21)
(1.00447 -0.0407322 8.27411e-22)
(0.944655 -0.00797714 1.41246e-20)
(0.999983 -1.60633e-05 -4.43585e-24)
(0.976724 -0.0415049 -6.28135e-21)
(1.13569 0.0365303 -3.74552e-20)
(0.997251 -0.00122449 4.45804e-22)
(1.00007 -3.30833e-06 -2.83821e-23)
(1.10494 0.0531313 3.83455e-21)
(0.998989 -0.000309075 1.23809e-21)
(0.98921 -0.0116649 4.40791e-21)
(1.00327 -0.0385928 2.80561e-21)
(1.00002 -2.81008e-06 -1.06622e-24)
(1.00061 -0.00176033 -4.56799e-22)
(1.05076 0.0517148 5.92886e-20)
(1.12358 0.0470577 -4.84411e-20)
(1.01359 0.0985707 -1.71424e-20)
(1.03932 -0.0794872 3.90149e-21)
(1.01563 -0.0645826 3.32642e-21)
(1.06586 -0.117369 -1.26391e-21)
(1.02115 -0.00502239 4.13103e-20)
(1.04292 0.0550378 -1.93547e-20)
(0.999819 -1.60171e-05 -1.03624e-22)
(1.00004 -1.60269e-05 9.92701e-24)
(0.927886 0.0164988 -1.05411e-19)
(0.993856 -0.0106287 -1.60745e-21)
(0.999507 -0.000390102 -3.0899e-22)
(0.978556 -0.0408833 1.30122e-20)
(0.988926 -0.009992 -3.19852e-21)
(1.03892 0.0945032 -1.42633e-19)
(1.02958 0.0940727 -3.02079e-20)
(0.983855 -0.050889 4.38343e-21)
(0.847032 0.0851048 -9.13668e-20)
(0.999073 -0.000377642 -9.0886e-22)
(0.99135 -0.0021082 2.93257e-21)
(0.958834 -0.0116178 1.16814e-20)
(1.03177 0.000355526 -8.67635e-21)
(0.996729 -0.101507 -1.84597e-21)
(1.16747 0.0807633 -7.54878e-20)
(0.924481 0.0919001 -2.05557e-19)
(1.00006 -9.28039e-05 3.16665e-23)
(1.00733 -0.00667156 1.52861e-21)
(1.0303 0.0171066 6.98666e-20)
(0.996754 -0.0048914 -2.88651e-21)
(1.03447 0.0136043 -8.8504e-21)
(0.999549 -0.00105938 -7.8385e-23)
(0.875877 0.143851 1.62594e-19)
(1.02417 0.101175 2.80621e-20)
(0.995585 -0.00167802 2.82661e-21)
(1.0034 -0.00700484 -6.87817e-23)
(0.999722 -8.20429e-05 -5.0676e-22)
(1.16536 0.0317683 1.89305e-20)
(0.999916 -1.73988e-05 4.12209e-23)
(0.995152 -0.00916793 1.28117e-21)
(0.950142 -0.0227467 1.58116e-20)
(0.999938 -2.10227e-05 -9.30451e-24)
(0.999037 -0.0024155 -3.16073e-22)
(0.999655 -0.00106639 1.43292e-22)
(1.07744 0.0256855 5.04884e-20)
(0.999983 -2.06352e-05 1.49662e-23)
(0.996215 -0.000499911 1.3923e-24)
(0.96453 -0.0355823 4.00853e-20)
(0.811249 0.0433108 -5.32487e-20)
(1.06891 -0.0202882 -7.19094e-21)
(0.888789 0.0924949 1.23317e-19)
(0.999962 -1.06051e-05 -2.34384e-23)
(1.00209 -0.0392114 -2.16059e-22)
(0.999845 -0.000257666 -1.15587e-22)
(1.0201 0.119235 -1.28113e-19)
(1.00289 -0.000496623 -1.42559e-21)
(0.985601 0.0427801 5.98124e-20)
(1.00266 -0.0092305 -1.35455e-21)
(1.0005 -0.00165254 4.8858e-22)
(1.02211 -0.0330789 -4.02456e-21)
(1.02115 -0.00303406 -3.82583e-20)
(1.00046 -0.000281795 2.33817e-22)
(0.999809 -5.07836e-05 2.69532e-24)
(1.00039 -0.000385027 5.27913e-22)
(0.996609 -0.00521044 -2.54537e-21)
(1.00922 -0.0586772 8.92193e-21)
(0.999964 -1.33694e-05 1.58639e-23)
(0.968255 -0.0238181 9.66063e-21)
(0.996941 -0.00106322 -1.11862e-22)
(0.999871 -5.15638e-05 5.67132e-23)
(0.999516 -0.000481447 1.00493e-22)
(0.980552 0.0732812 1.44106e-19)
(0.993302 -0.000735876 1.14636e-21)
(0.999387 -0.000152422 -1.04997e-22)
(0.852196 0.0199713 2.02136e-19)
(0.998966 -0.00241339 -7.13407e-22)
(1.10841 0.0868864 -4.50306e-20)
(0.999829 -0.000254276 2.08581e-22)
(1.00657 -0.0215228 7.32755e-22)
(1.00002 -6.18606e-07 -8.74192e-25)
(0.983896 -0.0294299 -6.56001e-21)
(1.03141 0.00141963 1.33598e-20)
(1.1442 -0.0534698 -1.53345e-20)
(0.981389 -0.0160619 1.27168e-20)
(0.999683 -0.000576174 3.75587e-22)
(0.979717 -0.0628391 8.19342e-21)
(0.986103 -0.000287076 5.34843e-21)
(0.999838 -3.0153e-05 5.3591e-24)
(1.00035 -0.000324098 -4.67366e-22)
(0.998193 -0.00295704 9.65732e-22)
(0.993371 -0.0011742 -3.4369e-21)
(1.00287 -0.00072209 -1.69236e-21)
(0.998974 -0.00179124 4.56399e-22)
(0.979695 -0.00754164 1.81727e-21)
(1.01343 -0.0554698 -6.69661e-21)
(0.979911 -0.00628151 8.08538e-21)
(1.10541 -0.0679334 5.19025e-22)
(0.973351 -0.00687333 -1.03859e-20)
(1.05597 0.13029 1.43126e-20)
(1.05128 0.137773 -1.05377e-19)
(0.99881 -0.000682024 -7.87923e-22)
(1.1583 -0.0661981 1.40369e-20)
(0.999985 -3.49726e-06 -1.46885e-24)
(0.998093 -0.00349737 -1.15944e-21)
(0.97836 -0.00191984 2.07259e-20)
(1.01049 0.0255192 3.50431e-20)
(1.04155 0.00416595 -3.48246e-20)
(1.00008 -3.73895e-05 6.41854e-23)
(0.998075 -0.00354938 -7.58808e-23)
(0.974373 -0.0076408 7.8262e-21)
(1.06194 0.0293521 -2.03327e-20)
(0.999201 -0.00108261 4.09094e-22)
(1.00288 -0.000887514 9.48846e-22)
(1.00106 -0.000812001 -8.46721e-23)
(1.11671 -0.0215451 2.93983e-20)
(1.1479 -0.106735 -3.52812e-21)
(1.10194 0.142096 6.59671e-20)
(0.998694 -0.000115935 -7.76316e-22)
(1.04897 -0.0468763 -1.33588e-20)
(0.999904 -6.37043e-05 -4.64441e-23)
(1.00424 -0.00639102 -3.3614e-21)
(0.999953 -1.05333e-05 -6.63699e-24)
(0.986895 -0.0179022 2.13551e-21)
(0.999713 -6.58498e-05 -9.72409e-23)
(1.00974 -0.0197007 7.9692e-22)
(1.17287 -0.075072 -9.71396e-21)
(0.976944 -0.0228803 1.50856e-20)
(1.00703 -0.0204867 -4.68975e-22)
(1.0072 -0.00560307 -2.0173e-21)
(0.999388 -0.00017272 4.69753e-22)
(1.02321 -0.0185532 4.8278e-21)
(0.995995 -0.0162911 1.87955e-21)
(1.07642 -0.00446195 -1.43377e-20)
(1.07098 0.0272896 2.30527e-20)
(1.0961 -0.138056 -2.32136e-22)
(1.10394 -0.077351 9.94375e-22)
(0.985827 -0.000699309 -5.7282e-21)
(1.00429 -0.00321751 3.0567e-21)
(0.951899 -0.0215776 -6.13212e-21)
(0.898988 0.124031 -2.49309e-19)
(1.08739 -0.0738038 -5.66104e-21)
(1.02303 -0.0113787 -1.83345e-20)
(0.859203 0.0910691 -1.24329e-19)
(0.998685 -3.96236e-05 3.8263e-22)
(0.998533 -0.000866087 -2.43532e-22)
(1.11882 -0.0757929 1.81505e-21)
(0.99907 -0.00176856 -2.48144e-22)
(1.0074 -0.0372178 5.33128e-22)
(1.00516 -0.00194931 1.05329e-21)
(0.9975 -0.000498419 -5.88848e-22)
(0.998099 -0.00045873 -9.43861e-22)
(1.0339 0.0234852 4.07231e-20)
(0.999942 -0.000139669 -3.1909e-24)
(1.00041 -0.000206126 -2.08033e-22)
(1.00007 -1.77132e-05 4.83961e-23)
(0.997116 -0.000838546 3.20619e-21)
(0.994142 -0.00766955 3.5614e-21)
(0.999985 -4.0405e-06 1.1371e-24)
(0.999099 -0.000231403 9.95558e-23)
(0.982132 -0.0143236 4.49919e-21)
(0.930667 0.0221187 6.59798e-20)
(1.00881 -0.0216623 -5.20095e-22)
(0.993915 -0.00930145 5.67448e-21)
(0.952426 0.0895384 2.83537e-20)
(1.00275 0.0523426 9.13466e-20)
(1.06275 -0.0146692 -1.1978e-20)
(1.15475 -0.0591992 -5.95506e-21)
(0.954591 -0.00410226 2.01877e-20)
(1.00443 -0.00346891 -1.51593e-21)
(1.01284 0.0464012 -5.02154e-21)
(0.990419 -0.00225396 -6.99914e-21)
(1.08275 0.101569 1.80918e-21)
(1.00396 -0.0440889 6.90178e-23)
(1.01364 -0.0961524 -5.93447e-21)
(1.11723 0.0485789 2.99832e-20)
(1.09045 0.107138 -5.85622e-20)
(0.969807 -0.0207245 2.17718e-20)
(1.04592 0.00294506 -2.27549e-20)
(1.17566 0.0785203 7.0331e-20)
(1.10201 0.0937191 8.49315e-20)
(1.02097 -0.00350045 1.30901e-20)
(0.997482 -0.00133807 7.02687e-22)
(0.996415 -0.00198819 6.14594e-22)
(0.999921 -1.53979e-05 -2.2109e-23)
(1.01309 -0.0259079 1.04849e-21)
(0.990368 -0.00188883 1.65595e-21)
(1.00084 -0.00230031 -4.009e-22)
(0.999907 -2.14783e-05 -4.12096e-23)
(0.998549 -0.000677824 3.06353e-22)
(0.978042 -0.0617092 -1.34139e-20)
(1.11211 -0.00301954 1.30084e-20)
(0.98523 -0.0051948 -9.23324e-21)
(0.999091 -0.0115227 1.95974e-21)
(0.99687 -0.000540376 -1.70565e-21)
(1.04815 -0.046035 3.89078e-22)
(0.993797 -0.00144242 -5.56252e-21)
(1.00189 -0.00632588 1.3105e-21)
(1.17837 0.0633347 1.15587e-20)
(0.998346 -0.000335196 -2.21336e-21)
(0.999982 -3.89474e-05 -1.01958e-23)
(0.999952 -0.000167385 -5.64288e-24)
(1.00004 -9.85511e-05 4.12563e-23)
(0.981683 -0.00670899 4.22759e-21)
(1.03219 0.0185014 -4.84591e-20)
(0.996564 -0.000405934 6.5791e-23)
(1.01961 -0.00959503 1.18419e-20)
(1.00012 -0.106967 1.21096e-20)
(1.00519 0.101524 -2.95445e-21)
(1.00347 -0.00713211 1.12049e-21)
(1.0063 -0.00373003 -5.04034e-22)
(0.995776 -0.00232967 -2.24584e-21)
(0.994039 0.0722738 -1.41121e-19)
(0.999107 -1.5511e-05 3.18799e-22)
(1.11125 0.143337 -3.33927e-20)
(1.01333 0.0176823 -5.50092e-20)
(0.999901 -2.7247e-05 4.82673e-23)
(1.0029 -0.0449774 -5.35661e-21)
(0.997296 -0.000852263 -1.57555e-21)
(0.989318 -0.0500323 1.92839e-20)
(1.00045 -9.15214e-05 2.08858e-22)
(1.05818 -0.00975743 1.67292e-20)
(1.00598 -0.0145313 -4.94899e-23)
(1.00551 -0.00320745 2.63743e-22)
(0.999254 -0.000128838 -6.29761e-22)
(1.08767 0.0204163 2.47179e-20)
(1.05599 0.0302998 7.93228e-21)
(1.00222 -0.0568801 8.64269e-21)
(0.982645 -0.016858 -8.67099e-22)
(0.998119 -0.00318129 -8.33791e-22)
(0.997406 -0.0344058 -9.94054e-21)
(1.14887 -0.00970445 -2.54394e-20)
(0.82173 0.0702129 -1.16995e-19)
(1.05423 -0.0814279 -2.59118e-21)
(1.00424 -0.00720786 -5.29609e-22)
(0.999994 -1.04811e-06 -4.29407e-25)
(0.988652 -0.0042816 -7.37406e-21)
(0.998042 -0.000304433 2.03476e-21)
(1.02355 -0.0159335 7.08804e-21)
(0.993289 -0.0867126 -5.76329e-21)
(1.1512 -0.0735333 -3.95386e-21)
(0.988439 0.102169 -1.74368e-19)
(1.06511 0.0234239 3.36678e-20)
(1.07033 -0.109665 6.02222e-21)
(1.11069 0.0604534 1.27974e-20)
(0.998775 0.0556095 1.67397e-19)
(1.01878 -0.00323076 9.76375e-21)
(1.00098 -0.00206587 9.19738e-22)
(1.03912 0.0599939 2.97378e-20)
(0.999237 -0.00184421 5.52586e-22)
(0.999845 -0.000138684 4.61469e-23)
(0.984695 -0.00213874 2.57748e-21)
(1.00009 -3.23919e-05 1.19653e-23)
(1.06978 -0.125107 4.14827e-21)
(1.00292 -0.0162744 -1.73494e-22)
(0.986533 -0.0288809 1.09857e-20)
(1.00159 -0.00152842 4.68859e-22)
(1.09624 0.0532913 6.90044e-20)
(0.998401 -0.000260676 -1.83022e-22)
(0.999979 -3.08581e-05 -9.91716e-25)
(1.00812 -0.0983588 6.66519e-21)
(1.00143 -0.00109922 -2.72127e-22)
(1.09302 -0.0315952 -3.43549e-21)
(0.962211 -0.0120411 4.10702e-21)
(0.945762 -0.014253 2.09853e-21)
(1.18311 -0.0403618 -1.81596e-21)
(1.02826 0.0147031 -1.82109e-20)
(1.02262 0.00326513 1.12979e-20)
(1.021 0.00334689 -4.55055e-21)
(0.999822 -4.10351e-05 1.61166e-23)
(1.1175 -0.00691727 1.01901e-20)
(1.07928 -0.00244812 1.67286e-20)
(0.999573 -0.000548654 1.48192e-22)
(0.985939 -0.00562043 1.07212e-20)
(1.00055 -0.000171873 -2.3243e-22)
(1.0096 -0.0181918 -5.59921e-21)
(1.00748 -0.0242152 -6.24974e-23)
(1.00418 -0.00133071 1.37066e-23)
(0.99937 -0.00115558 -6.63547e-22)
(1.15799 0.0289864 -5.75846e-20)
(0.999982 -2.0388e-05 -1.74005e-23)
(1.00019 -8.34484e-05 -6.19376e-23)
(1.00192 -0.000818942 -1.85894e-23)
(0.980732 -0.00268437 7.21325e-21)
(1.01657 -0.0106971 8.47064e-21)
(0.985532 -0.024083 -1.58207e-20)
(0.976734 -0.00406219 -4.16639e-21)
(1.00813 -0.0543959 4.72338e-21)
(1.01179 -0.115881 -1.2702e-20)
(1.02112 -0.0288952 2.52771e-21)
(1.04851 0.0585696 -1.70155e-19)
(1.17086 -0.066239 5.09579e-21)
(0.994462 -0.0022533 -2.98565e-22)
(0.867993 0.134363 1.93633e-19)
(0.977668 -0.0454097 2.28606e-20)
(0.994236 -0.00788907 1.12193e-21)
(0.97695 -0.00332855 6.90549e-21)
(0.997955 -0.0163115 -5.48833e-22)
(0.981951 -0.0022811 1.09891e-20)
(0.991427 -0.00352992 -2.13331e-21)
(1.02405 -0.0162088 -1.28608e-20)
(1.09035 -0.0776891 1.43534e-21)
(0.999978 -3.90495e-05 -1.39461e-24)
(1.01953 -0.0138478 -1.39111e-21)
(0.999913 -2.74958e-05 -2.33843e-23)
(1.0362 0.112706 3.42395e-20)
(1.16196 0.00475383 4.20788e-20)
(0.995806 -0.00175951 7.01174e-22)
(0.987939 -0.00181586 -9.74734e-21)
(0.999833 -5.12553e-05 -1.18085e-22)
(0.996564 0.0623725 1.05361e-19)
(1.07277 0.114613 7.84471e-20)
(1.11622 -0.0163477 -1.59189e-20)
(1.18731 0.0386762 -4.72281e-20)
(0.977214 -0.0485194 -9.57082e-21)
(0.998913 0.0303528 -1.57557e-19)
(0.999945 -0.000113707 2.15376e-23)
(1.04131 -0.0291602 1.77364e-20)
(0.984574 -0.00160612 -4.09576e-22)
(1.11935 0.0329412 -1.44016e-20)
(0.906382 0.0889288 -1.50065e-19)
(1.14759 -0.016485 3.30368e-20)
(1.05863 0.021632 5.64304e-21)
(0.999947 -0.0112969 -2.97939e-22)
(0.999834 -7.46836e-05 -1.08755e-22)
(1.17316 0.0264037 1.96691e-20)
(1.14465 -0.0902686 -6.37233e-22)
(0.998754 0.0723935 -3.33306e-21)
(1.08576 -0.0319351 2.97709e-20)
(1.04617 0.0477404 5.01243e-20)
(0.993936 -0.00196279 -9.91203e-22)
(1.00084 0.0999641 4.73175e-20)
(1.07447 0.105328 2.75968e-20)
(0.992548 -0.00295251 -5.97848e-21)
(0.993614 -0.00278522 -2.22222e-21)
(1.17243 0.0166311 9.23695e-22)
(0.943945 -0.0131349 -2.83042e-20)
(0.999923 -0.000133437 -3.36027e-23)
(0.989255 -0.00462536 9.49351e-21)
(0.948 -0.0185199 2.06481e-20)
(0.986095 -0.0614212 -2.86084e-21)
(1.00842 -0.00290687 -8.5801e-21)
(1.00617 -0.00517928 5.74642e-22)
(0.999886 -0.000160652 -6.42322e-23)
(1.07916 0.122071 -1.17574e-19)
(1.00039 -0.00917358 4.93807e-23)
(0.999909 -4.99531e-05 2.06831e-23)
(1.01329 -0.0528136 3.9737e-21)
(0.999575 -0.000373151 1.30105e-22)
(0.999808 -7.0827e-05 8.31231e-24)
(1.0045 -0.0110309 -6.32977e-22)
(1.08755 0.0590945 9.3977e-20)
(1.00411 -0.0876495 9.42011e-21)
(0.93366 0.0850034 8.81797e-20)
(1.00006 -1.48603e-05 -3.3305e-23)
(1.09221 0.0611723 -9.80717e-20)
(1.00854 -0.044756 3.67547e-21)
(0.999939 -0.000158373 -9.66686e-24)
(1.00002 -4.33809e-06 -1.02457e-23)
(1.00449 0.0113434 -9.19919e-21)
(1.07462 0.0525858 3.51879e-20)
(0.99673 -0.00213469 6.11635e-22)
(1.06316 0.0398389 -4.59985e-20)
(1.00002 -1.64703e-05 7.29564e-24)
(1.06683 0.0452686 -6.36942e-20)
(1.08437 -0.134235 8.46516e-21)
(0.992055 -0.00255846 6.56248e-21)
(0.999579 0.0439977 -2.15563e-19)
(0.978921 -0.0385018 1.5222e-20)
(1.18361 0.0326847 4.60787e-20)
(0.977975 -0.00383379 4.12792e-21)
(1.07225 0.0463078 8.29148e-20)
(1.08268 0.0533187 -2.54553e-20)
(0.986548 -0.00683788 1.54094e-20)
(0.982487 -0.00832623 -1.1371e-20)
(0.995744 -0.00807566 3.26706e-21)
(0.997582 -0.000606141 -5.16447e-22)
(0.99984 -0.000165488 1.25406e-22)
(1.00045 -0.00854738 -8.70567e-23)
(1.08369 0.0916581 -1.39861e-20)
(0.999976 -3.05802e-05 4.34181e-24)
(1.05675 0.039757 6.08471e-20)
(1.01427 -0.0901246 1.36711e-20)
(1.01449 0.0617127 4.13067e-20)
(1.05451 0.0359405 -6.93842e-20)
(0.94602 -0.0173728 -2.55049e-21)
(0.946307 0.108082 -1.83976e-19)
(0.998677 -0.000965548 4.36558e-23)
(1.01275 -0.0242128 2.52358e-21)
(1.0336 -0.0719628 2.61933e-21)
(0.982811 -0.00189659 -6.40098e-22)
(0.994824 -0.00285452 2.958e-21)
(1.00685 -0.046496 -3.40241e-21)
(1.04637 -0.0249009 -1.84033e-21)
(0.875292 0.0785065 2.35929e-19)
(1.00004 -1.98865e-05 3.58615e-23)
(0.998449 -0.00104039 5.9198e-22)
(1.01001 -0.0646457 1.43672e-22)
(1.00002 -3.89191e-06 1.27322e-24)
(1.03825 0.123026 1.67805e-20)
(1.00129 -0.00101427 0)
(1.00001 -4.03379e-06 9.64199e-25)
(1.00014 -7.22783e-05 1.45048e-22)
(1.00037 -7.54005e-05 2.93058e-24)
(0.987489 -0.0162506 1.0969e-20)
(1.01693 -0.0169448 -5.09928e-21)
(0.99874 -0.000699114 9.28936e-22)
(0.999937 -1.11985e-05 4.36983e-23)
(0.994357 -0.00267947 1.64167e-21)
(1.00315 -0.0116353 -4.94816e-22)
(0.984286 -0.0891583 -1.56432e-20)
(0.950417 -0.00580295 2.04822e-21)
(1.01567 -0.0095865 1.46361e-20)
(0.999977 -2.33259e-06 1.3629e-23)
(1.05032 -0.135393 1.4863e-20)
(0.989419 -0.00306514 -3.79557e-21)
(1.15915 0.0186779 -3.39059e-21)
(1.00102 0.0433446 -2.99168e-20)
(1.00091 -0.0032343 2.24749e-22)
(1.14334 0.0204686 -5.6403e-20)
(1.00012 -8.29515e-05 -9.53884e-26)
(0.990023 -0.00360893 1.0698e-22)
(1.02183 0.000323027 -2.32112e-20)
(0.994746 -0.00315869 -1.2121e-21)
(1.09995 0.0720269 -5.69089e-21)
(0.98982 -0.00556047 -7.158e-21)
(1.04277 -0.0312879 -1.49515e-20)
(1.02436 0.00359659 -2.49724e-20)
(1.07028 0.0264305 -1.4253e-20)
(1.00609 -0.0136876 -2.45853e-21)
(0.991948 -0.00376389 1.77077e-22)
(1.10756 0.0445284 4.28122e-20)
(0.97905 -0.0668009 -1.4752e-20)
(1.02206 0.126445 1.40749e-19)
(0.992809 -0.00407484 -6.93001e-21)
(1.12189 0.0998023 -1.04259e-21)
(0.992899 -0.00367252 1.85193e-21)
(0.999055 -0.000437591 -6.04616e-23)
(1.05473 0.0221224 1.58352e-20)
(1.01134 -0.0274782 -7.42222e-22)
(1.03316 -6.42733e-05 3.52605e-20)
(1.00127 -0.000801073 3.04231e-22)
(1.00001 -2.86628e-06 4.44072e-25)
(0.992074 -0.102614 5.59024e-21)
(1.1695 0.0591478 -6.3664e-20)
(1.00124 -0.00312605 -2.91528e-22)
(1.1503 0.0149419 5.58462e-21)
(0.990311 -0.00516173 -4.67402e-21)
(1.04354 -0.136953 -4.29925e-21)
(1.03431 -0.0411958 5.64271e-22)
(0.985405 -0.0256508 8.8705e-21)
(0.998621 -0.000870375 -3.91535e-22)
(0.993 -0.000903846 -1.37837e-21)
(0.977048 -0.0566902 -9.42454e-21)
(0.976646 -0.00792798 1.58198e-20)
(0.992365 -0.00343243 4.89806e-21)
(0.999881 -0.000373213 5.43216e-23)
(1.0136 0.139277 -1.73027e-20)
(1.13471 0.0163307 3.46638e-20)
(1.0224 -0.0108245 -4.46699e-21)
(0.999841 -0.000127201 8.34171e-23)
(1.06769 0.0997592 -5.32275e-20)
(1.00001 -2.00202e-05 1.93366e-24)
(0.999849 -0.000106988 1.65018e-22)
(1.12677 0.0208902 3.0034e-20)
(1.00913 -0.0219271 1.71157e-21)
(1.16519 0.0456073 5.30957e-20)
(1.02151 -0.00501862 9.88719e-21)
(1.01516 -0.0120603 -1.06353e-21)
(1.06579 -0.0729233 -1.58604e-22)
(1.0243 -0.112259 1.22087e-20)
(1.17871 -0.0433482 -7.96417e-21)
(1.00101 -0.000774556 -6.6397e-22)
(0.96365 -0.013146 -1.63703e-21)
(0.999986 -4.81574e-05 -2.96483e-24)
(1.00451 -0.0104275 4.39331e-22)
(1.09844 0.069496 3.49437e-20)
(0.98715 -0.00640307 1.075e-20)
(0.997812 -0.00127579 8.22017e-22)
(1.01014 -0.0358316 -1.43611e-21)
(0.998464 -0.000930131 5.57023e-23)
(0.999683 -0.000913172 1.70014e-22)
(0.861067 0.0166466 4.16234e-20)
(0.992436 -0.00442775 -3.92861e-21)
(0.999635 -0.000656994 -5.11895e-22)
(0.999984 -1.16104e-06 -2.98273e-24)
(1.01872 0.00533409 4.91773e-20)
(0.978073 -0.0210195 -2.39992e-21)
(0.999737 -0.000493775 1.49153e-22)
(0.99781 -0.000755177 1.05463e-21)
(1.02702 0.0189446 1.99182e-20)
(1.06758 -0.00415651 3.69379e-21)
(0.969739 -0.0188562 -1.34902e-20)
(1 -1.24447e-05 6.84408e-25)
(1.00336 0.0190139 1.31738e-19)
(0.989347 -0.014454 -7.57516e-21)
(1.09247 0.0476287 -6.96175e-20)
(1.0111 -0.00170891 -1.29148e-20)
(1.01275 -0.00123129 2.93399e-20)
(0.975277 -0.00969735 2.16088e-20)
(0.999922 -5.86804e-05 -1.35148e-23)
(1.02286 -0.000646821 -4.53016e-21)
(1.06795 -0.0085548 -5.43182e-21)
(1.16718 -0.0284653 2.24363e-20)
(1.01967 -0.0871318 2.49221e-21)
(1.07501 0.0875098 4.1929e-20)
(1.00538 -0.0012971 -1.98251e-22)
(1.11534 0.045342 -5.8754e-20)
(1.0002 -0.0127411 -5.39486e-22)
(1.01081 -0.0502488 -8.78563e-21)
(0.999686 -0.000141215 -1.63664e-22)
(1.00222 -0.0167382 3.09969e-22)
(0.999915 -0.000378513 1.96943e-23)
(1.05276 0.0242884 -4.65777e-20)
(1.14468 0.089359 -1.17786e-19)
(0.998815 -0.00104668 3.12577e-22)
(1.01521 -0.0119298 3.51805e-22)
(0.986074 -0.00389923 3.69318e-21)
(1.02525 -0.0784231 7.40116e-22)
(1.02002 -0.0813292 -6.86047e-21)
(0.998619 -0.000736775 6.20253e-22)
(1.03596 -0.0286998 -6.29352e-21)
(0.883219 0.00294946 -7.04513e-20)
(1.15675 -0.0384631 1.77206e-20)
(0.999955 -0.000137251 4.58938e-23)
(1.06128 -0.00450891 -1.35801e-20)
(0.997561 -0.00760481 -1.55667e-21)
(0.984354 0.004006 1.48916e-19)
(0.990415 -0.00458938 6.51133e-21)
(0.996387 -0.0231755 -1.77527e-21)
(1.01257 -0.0323549 -2.70745e-22)
(0.994159 -0.0238478 -2.83411e-22)
(0.998105 -0.0189228 -3.8369e-21)
(0.994045 -0.00297028 1.1284e-21)
(0.999661 -0.0126511 2.14158e-21)
(1.00158 -0.00569225 -3.48547e-22)
(1.04661 -0.02957 4.06603e-21)
(1.00009 -3.38418e-05 -9.37068e-23)
(1.11973 -0.124214 -1.32535e-21)
(1.12689 -0.0560254 4.75357e-21)
(1.06328 0.127638 9.67762e-20)
(0.971152 -0.0178364 2.05582e-20)
(1.15598 0.0482604 -2.7147e-20)
(1.00161 -0.000649209 1.07356e-21)
(1.04607 -0.0739521 -2.63919e-22)
(1.00234 -0.0332802 -3.66226e-21)
(1.02725 0.0360755 5.65822e-20)
(0.994452 -0.00346142 2.8048e-21)
(1.0001 -0.000155663 6.16309e-23)
(0.989727 -0.014903 9.87362e-21)
(0.996411 -0.0081604 -1.23685e-21)
(1.0344 -0.0285053 1.24113e-20)
(0.977546 -0.00596854 -1.33329e-20)
(0.981521 -0.00781033 3.75128e-21)
(1.09715 -0.0619053 3.52946e-21)
(0.988381 -0.00238149 -6.33894e-21)
(1.01027 -0.0337234 6.39176e-22)
(0.986131 -0.065232 1.03001e-20)
(1.00001 -7.30388e-06 7.81954e-25)
(1.048 -0.0230387 2.18505e-20)
(0.989096 -0.0593903 -2.81121e-20)
(1.1508 0.0330531 2.63818e-20)
(1.06443 -0.0790544 -7.91159e-22)
(1.03048 -0.00043202 2.98774e-21)
(1.00989 -0.0861064 -1.87351e-20)
(1.10123 0.124092 2.57053e-20)
(1.02694 -0.0350277 5.17486e-21)
(0.974159 -0.00899478 -1.2782e-20)
(1.00915 -0.041766 -3.84785e-21)
(0.937608 0.00611536 6.7024e-20)
(1.0943 -0.115459 3.76384e-22)
(0.989803 -0.00424425 -1.97936e-21)
(1.00684 -0.10492 -1.43028e-21)
(1.0151 -0.0583681 5.25265e-21)
(1.01866 -0.100377 -2.69367e-21)
(1.02472 -0.0732563 -5.96871e-21)
(1.1027 0.0400645 5.48864e-20)
(0.997789 -0.001409 5.45546e-23)
(1.00857 0.0445419 2.11406e-20)
(1.00676 -0.00123142 1.53881e-21)
(0.999672 -0.000476522 -2.14615e-22)
(0.998936 -0.00208923 1.52516e-21)
(1.05406 -0.00769272 -5.21915e-21)
(0.808539 0.00605296 2.02925e-21)
(1.00125 -0.00580581 2.01601e-22)
(1.01139 -0.0471225 1.30618e-21)
(1.02725 0.0200998 -3.30459e-20)
(1.00002 -7.22368e-06 -1.82869e-24)
(0.983251 -0.00782771 9.07081e-21)
(1.01943 -0.00934953 1.05206e-20)
(1.05744 -0.0488325 9.56672e-21)
(1.00673 -0.00106658 8.63173e-21)
(0.998635 -0.00159538 2.82186e-22)
(0.985909 -0.0331432 3.6274e-22)
(0.998072 -0.00747374 -4.13924e-22)
(1.00002 -3.72756e-06 1.96557e-23)
(0.980709 -0.037927 -2.55824e-20)
(1.08211 0.0748414 -1.4924e-20)
(1.01488 -0.0292007 6.55887e-22)
(0.986766 -0.00444478 -6.92194e-21)
(1.0015 -0.000255703 -3.86536e-22)
(1.03141 0.0240514 4.35985e-20)
(0.9997 -0.000538055 -9.94199e-23)
(0.998979 -0.000564742 -3.11753e-23)
(0.999716 -0.000163696 -1.49118e-22)
(0.999372 -0.00188452 -3.78906e-22)
(1.15976 -0.0210041 1.83183e-20)
(1.02236 -0.0363697 7.62848e-21)
(1.00663 -0.0167517 9.30329e-22)
(0.985791 -0.00638235 -3.171e-21)
(1.00004 -4.6226e-05 1.89274e-23)
(1.03841 -0.111061 1.4785e-20)
(1.15365 -0.0826365 5.32498e-22)
(1.04044 -0.119819 -7.1194e-21)
(0.996367 -0.0288755 -3.29768e-21)
(1.01143 -0.0082356 9.81014e-21)
(0.999831 -8.5552e-05 6.87033e-23)
(0.990536 -0.010048 -3.92234e-21)
(0.966218 -0.0375919 -1.5694e-20)
(1.15028 -0.0309919 1.30331e-21)
(1.01068 0.0615149 -1.43409e-21)
(0.999056 -0.00283904 3.03143e-22)
(0.956311 -0.0259735 9.25479e-21)
(0.996202 -0.00250056 -2.66666e-21)
(1.02583 -0.0329003 -1.27406e-21)
(1.11218 0.0286944 5.67563e-21)
(1.00039 -0.000122357 -3.25171e-22)
(0.999881 -0.000172023 -2.55107e-23)
(1.17644 0.0209235 5.53622e-21)
(1.13711 -0.0418152 -3.13243e-21)
(1.01737 -0.0150442 3.63041e-21)
(0.997686 -0.00158296 1.40405e-21)
(0.998387 -0.000304823 -1.39063e-22)
(0.971303 -0.0384056 3.8164e-21)
(0.999864 -0.000312803 -8.37398e-23)
(1.01261 -0.0306323 2.43295e-21)
(0.989474 -0.00129088 1.32284e-20)
(1.00112 0.0431986 -2.48462e-20)
(1.09254 0.0757559 -7.63328e-21)
(1.04316 -0.0687085 5.06538e-22)
(0.991829 -0.0599846 1.05554e-20)
(1.00507 -0.00146791 4.28345e-21)
(1.01117 -0.0227553 -3.782e-21)
(1.12558 -0.0470183 1.68411e-20)
(0.990131 -0.0662062 -6.38134e-21)
(1.01174 -0.0402899 2.07202e-21)
(0.999998 -6.35751e-06 3.60424e-25)
(1.1098 -0.0531779 1.10661e-20)
(0.97898 -0.0025819 1.23845e-21)
(0.988711 -0.0730017 1.28715e-20)
(1.01452 -0.0273926 -6.34131e-21)
(0.965219 -0.0124621 -2.89849e-21)
(0.999696 -0.000290669 -7.31926e-23)
(0.997583 -0.00118976 -6.2532e-22)
(1.04921 0.0349666 5.35241e-20)
(0.976466 -0.00913467 -4.8517e-21)
(0.999987 -1.52511e-06 3.01137e-24)
(0.997792 -0.000424099 -1.45296e-21)
(1.09812 -0.105613 -8.2528e-21)