/*--------------------------------*- C++ -*----------------------------------*\
  =========                 |
  \\      /  F ield         | OpenFOAM: The Open Source CFD Toolbox
   \\    /   O peration     | Website:  https://openfoam.org
    \\  /    A nd           | Version:  7
     \\/     M anipulation  |
\*---------------------------------------------------------------------------*/
FoamFile
{
    version     2.0;
    format      ascii;
    class       surfaceScalarField;
    location    "23.5";
    object      phi;
}
// * * * * * * * * * * * * * * * * * * * * * * * * * * * * * * * * * * * * * //

dimensions      [0 3 -1 0 0 0 0];

internalField   nonuniform List<scalar> 
11512
(
154.866
-512.251
357.384
-764.207
-16.5095
780.716
430.625
-393.564
-37.0619
658.088
266.135
-924.223
1555.66
-1102.39
-453.27
1193.01
-1486.42
293.409
-51.4504
500.505
-449.054
171.867
-862.884
691.017
985.215
-1654.71
669.492
-1781.73
1692.97
88.7593
-569.071
1762.08
-1173.27
1990.09
-816.821
613.469
177.994
-791.463
-22.9183
-1343.71
1366.63
227.221
-2008.95
1055.88
-391.83
-664.049
-177.745
332.612
486.637
180.164
-666.801
1191.16
-1351.53
160.369
-316.694
390.496
-73.8016
1033.28
-1339.37
306.088
1256.17
822.401
-2078.57
70.5745
-1675.61
1605.03
-511.947
-1150.39
1662.34
469.389
164.11
-633.499
-198.443
-313.808
511.467
1044.2
1681.97
-1838.1
156.124
-108.727
-1685.6
1794.33
-1604.4
667.633
936.768
-314.276
673.941
-359.665
-105.893
-100.908
206.801
1312.12
-1241.54
369.01
-1448.49
1079.48
-1100.49
1100.49
95.9134
1560.82
-1656.73
-1107.23
-497.169
674.078
-725.528
-394.395
970.091
-575.696
1242.8
-1236.07
-6.72973
-1133.87
739.474
648.872
407.007
-396.278
-46.046
442.324
-439.748
783.694
-343.946
-961.83
961.83
1208.75
-1345.82
137.07
-502.649
1758.81
1294.59
-324.494
1704.86
-1189.07
-515.795
85.8902
-402.584
2123.62
-1166.65
-956.971
1848.65
-166.673
431.743
132.374
-564.116
-461.718
996.612
-534.895
-1193
1288.92
-585.166
1000.98
-415.816
416.1
775.064
661.165
-489.297
-450.652
615.29
-164.639
1226.23
-857.219
2367.15
-1108.89
-1258.26
1196.78
-2065.48
868.706
-1634.76
1611.84
453.645
-1626.91
-651.703
1150.07
-498.362
-694.202
379.926
1706.62
-721.401
-1134.2
-892.622
2026.82
683.559
-373.743
-309.817
710.469
584.116
-267.531
1476.28
121.978
-331.447
209.469
-287.309
756.698
-294.068
473.379
-179.311
-330.379
817.016
-327.63
-155.56
483.189
340.806
89.8192
1485.77
-452.493
-996.975
502.34
494.635
290.493
91.6507
-382.144
965.143
-351.674
-1744.89
616.044
1128.85
30.8669
-875.294
844.427
-280.84
598.011
-317.171
162.424
-1126.8
964.374
876.81
-890.49
13.6799
384.45
533.951
-918.401
-241.902
673.644
-1134.69
-497.758
1632.45
-495.348
743.337
-247.989
1350.94
-1459.66
-641.739
292.562
349.177
-486.326
-1027.99
1514.32
-557.12
-814.702
1371.82
586.234
-1004.49
418.255
-125.527
-205.81
331.337
422.561
-300.583
-1065.72
604
984.328
-821.904
-98.8028
772.175
-673.372
-188.933
386.386
-197.452
-630.23
-366.745
-397.296
983.53
1238.36
-1238.36
-464.03
-177.71
-946.304
1576.93
-630.629
348.369
-770.734
422.365
-952.277
367.111
-961.276
-1083.91
-1528.95
363.3
1165.65
-274.968
933.056
-311.402
631.136
-319.734
-1987.43
1026.16
-1161.34
-367.612
577.503
-1523.81
1775.78
-1774.37
-1.41053
226.558
-622.709
396.151
-1480.2
976.328
503.868
300.84
217.806
-518.646
298.119
-592.187
183.161
-297.685
114.525
2037.91
-842.151
-1195.76
-563.981
167.703
638.139
854.75
-1492.89
-154.947
338.108
445.353
901.821
-1347.17
-938.361
408.56
529.801
-1073.44
1489.54
-839.798
188.095
777.832
-103.891
553.673
-277.901
-275.772
1023.01
-520.669
613.928
-1445.63
831.706
-1382.25
247.565
-533.704
252.864
-1204.36
929.391
2007.19
-1137.48
-869.709
262.997
975.359
-2151.83
918.21
1233.62
211.781
-15.8801
-195.901
-172.181
337.804
-165.622
-119.4
-387.866
507.266
-483.043
155.414
301.198
-57.2118
405.58
420.044
403.76
-823.804
-2051.31
1136.64
914.675
474.877
-551.177
76.2999
151.15
-227.075
75.925
970.651
1067.26
1815.28
-254.46
734.271
-441.708
819.813
-1431.18
611.363
354.537
329.022
1073.87
-1043
-514.087
-251.655
765.742
494.887
-142.278
-352.609
729.682
-551.688
614.776
-807.643
192.868
521.099
1183.76
-1277.21
720.089
1030.67
-1542.62
2.01186
-1477.85
1475.84
334.694
850.073
-1184.77
623.093
254.032
-877.124
-2276.23
1176.25
1099.98
-1125.92
-1150.31
217.762
397.014
987.464
-652.77
683.778
-695.481
11.7033
-2151.91
1017.72
-90.1681
-103.813
193.981
-44.3898
1820.17
-848.157
83.9499
-1055.06
-1096.77
-179.42
330.57
-679.243
215.213
-276.195
-427.648
703.843
1129.71
-1616.03
803.233
-1414.68
611.447
709.034
-442.899
1943.29
-1422.19
-342.068
-758.419
77.0493
423.455
-548.215
531.706
3.97363
-579.374
575.4
589.537
-288.697
-588.178
279.308
308.87
803.867
-383.823
17.6894
194.092
1220.69
-1218.67
187.186
235.375
396.356
-672.551
637.077
-1034.37
-2080.25
2080.25
-262.035
-452.98
715.015
720.637
407.55
-1128.19
597.117
180.714
405.904
397.962
-2254.93
1362.31
-952.821
-698.807
1651.63
-482.45
-721.909
-260.79
555.9
-295.11
868.136
-221.497
-646.639
-439.198
665.756
389.794
-701.195
-355.524
-147.685
503.208
-1350.32
-487.782
656.627
-1139.08
-331.911
-629.919
865.815
1501.34
229.429
-418.258
188.828
996.446
-347.574
1432.69
-818.766
461.172
-273.986
-341.243
-906.264
593.668
312.596
-354.049
-552.215
315.91
-435.31
-198.254
-127.879
326.133
-404.931
1125.57
401.636
-221.473
-343.881
1382.91
-183.733
-1199.18
-483.948
280.111
203.837
233.979
253.137
-487.116
6.80056
-814.444
609.766
-1775.82
1166.05
1523.36
-885.224
-1049.25
-430.942
-1090.13
590.676
499.451
1400.64
-424.311
955.323
-1453.08
-169.961
-220.183
390.144
-478.434
600.397
-1673.83
418.569
824.23
284.562
300.312
-584.875
492.161
608.326
1138.54
-739.009
-399.526
400.184
-213.988
-186.196
-1456.6
458.741
760.185
-1218.93
1516.62
-561.301
-488.516
941.058
-452.542
441.032
1213.81
-1654.85
19.0564
-514.404
-148.727
439.22
79.8318
-185.725
530.939
492.07
-654.749
56.0189
598.73
967.636
-1193.56
225.921
682.233
-276.329
484.434
-1488.67
1004.23
422.423
1734.05
-537.273
836.197
1170.99
-683.9
-1733.11
780.285
588.633
397.118
-985.751
464.964
82.7502
1797.4
-1880.15
1377.46
-387.989
-989.472
1745.46
-1789.85
-379.657
-526.995
742.092
-215.098
-518.781
192.294
302.593
-381.397
-1247.2
219.205
-789.767
-655.867
-612.253
1051.46
-439.209
-433.887
427.85
6.03752
548.561
-715.431
166.871
-258.148
76.0372
182.111
-668.057
-703.961
359.554
344.407
-956.066
1440.5
-419.893
908.47
-488.577
-2260.89
5.95777
190.189
-556.041
365.852
154.012
1228.9
-106.163
-573.079
167.135
-617.787
1530.05
-726.813
386.358
-481.285
94.9263
-125.334
125.334
625.537
336.293
1828.21
-1265.86
606.923
658.934
765.738
-36.0552
1328.56
795.064
-556.903
1376.72
290.059
307.952
292.714
-819.709
254.929
-694.677
214.493
-397.005
182.512
-247.381
601.274
-353.893
129.933
-377.315
-609.545
-582.329
1191.87
-365.497
541.492
-175.995
-1187.8
2056.04
-868.236
1328.77
-341.309
-164.841
39.3133
-1988.28
837.891
1554.28
-849.333
-704.943
2040.25
-901.728
-1138.52
734.947
593.826
-230.421
444.914
-676.412
1160.05
-483.636
-792.243
1237.6
567.402
950.848
-1774.26
823.414
-543.558
-83.8996
627.458
304.856
248.817
426.691
-105.777
-320.914
723.212
-69.3688
-653.843
932.788
-559.802
-372.987
1617.89
-488.178
912.081
-1672.63
760.553
1094.7
848.588
773.737
-460.461
-313.276
-973.076
-262.993
569.66
601.835
-1171.5
-452.442
511.672
-59.23
596.813
-358.688
-238.126
-1010.77
590.882
615.24
908.124
-436.107
984.668
1444.74
-786.786
-657.953
412.933
-955.181
542.249
-1044.45
414.221
571.423
-1059.94
472.105
-531.272
59.1664
487.208
296.486
-105.6
-19.7339
-818.146
-901.501
1719.65
194.842
205.341
-238.92
456.682
-44.3311
-552.064
596.395
494.046
895.711
-1389.76
-511.147
312.893
761.944
-38.7326
861.139
-1097.22
236.084
390.324
870.757
-1427.66
-453.426
857.187
2033.38
-1319.44
-713.945
233.212
450.566
231.624
645.186
104.425
-989.382
884.957
1719.04
-1115.6
-603.434
-143.217
1940.62
-1915.81
-164.441
444.285
-556.455
112.17
-1046.67
542.117
504.557
-1677.04
489.242
-946.588
847.785
403.47
211.82
470.832
-241.402
-441.115
734.743
261.703
52.5935
791.122
-843.715
-1157.85
-874.077
2031.93
-536.466
1119.79
-583.327
-471.661
-114.684
24.5157
-1701.39
883.242
-833.922
-640.124
1474.05
-271.998
-271.44
543.438
369.104
-666.841
297.737
239.956
-623.778
316.647
221.178
-537.826
354.715
-615.505
635.901
-266.797
323.822
-479.381
678.982
413.182
-179.203
-396.049
-307.912
1245.57
-9.13044
-1236.44
1069.98
-432.903
576.471
424.511
-1791.37
853.662
937.711
513.587
555.436
-1069.02
-411.059
139.061
-270.478
1214.97
-944.496
-1548.1
1206.03
518.748
-1128.29
400.958
-14.5995
426.403
314.116
-740.518
378.958
-620.86
-28.8571
776.823
-747.966
-447.771
701.803
384.573
305.267
460.471
674.834
90.1914
-404.623
314.431
938.661
-546.446
-392.215
510.338
-1708.89
1198.55
-1168.8
1800.88
-632.086
1762.22
-1152.45
-337.817
617.125
-1184.22
1288.64
295.565
-823.337
1640.13
-816.788
-255.153
-228.795
-947.025
1512.48
1863.3
-629.605
-1233.69
-418.325
750.947
-1363.2
-67.6236
-42.1879
468.879
-700.377
-362.794
-1185.3
-234.041
473.996
862.54
-580.301
192.435
-1720.82
-73.9527
1794.78
-1084.24
547.769
590.013
-1215.67
625.657
927.604
935.693
612.156
537.91
701.159
239.899
-1155.89
479.474
-418.99
422.964
642.012
-530.91
261.368
-758.999
497.631
696.58
-342.043
-244.555
143.647
-611.634
228.179
383.455
-915.686
-756.949
1112.95
-2196.87
410.733
-698.042
-319.783
-570.707
859.706
585.033
-361.68
315.634
363.783
253.309
677.758
-931.067
526.663
633.385
-546.399
190.875
364.689
-626.724
-1130.29
-804.242
1934.53
-1837.9
162.295
1138.99
-1409.47
1183.97
-722.485
-461.488
-519.234
1389.99
-1536.78
648.647
888.134
-149.92
-141.31
291.231
1466.48
573.764
337.706
-485.391
-503.435
-578.831
1082.27
-429.377
619.566
1627.8
-1160.92
-466.875
-791.083
338.103
552.589
386.072
-1667.08
431.022
1236.05
-208.502
525.149
821.015
806.781
212.304
-699.257
486.953
195.959
190.427
-224.224
-90.33
314.554
491.056
-5.29562
-485.761
-1657.53
608.278
-1619.34
1694.17
-74.8352
17.0788
-1636.42
1045.55
772.105
-345.702
-818.49
-225.961
-1169.32
-245.366
-318.755
697.713
-1864.04
-639.29
1241.13
212.562
784.05
-1367.55
-697.937
-480.433
616.022
-331.46
-1036.82
1386.89
-1986.05
599.169
664.695
1325.39
339.037
-1.23382
741.344
715.1
-1456.44
-660.958
350.981
309.977
318.654
-77.0389
-241.615
162.719
297.775
175.611
-473.387
-589.371
1178
462.065
-628.437
-472.087
-415.144
887.232
-350.22
180.259
-475.255
174.673
-316.337
-730.337
385.121
-66.4676
-584.702
997.634
333.202
-173.8
-159.402
469.741
-800.12
-667.295
442.877
-1156.74
-848.604
1211.9
-585.343
470.121
295.621
-456.298
82.555
1058.13
-182.475
384.953
-202.478
-523.869
1569.42
-774.24
246.227
386.998
-633.225
228.546
485.659
-25.9534
-459.706
-261.314
-213.942
862.521
1136.17
582.873
-888.45
966.448
-77.9983
-200.811
50.8909
-742.618
314.97
-647.949
320.258
376.322
849.715
-1254.4
404.687
802.292
-831.15
-965.006
-570.169
1535.17
-166.188
466.5
-548.494
270.592
1366.99
789.35
-577.046
1340.06
-683.435
493.055
-693.716
-420.614
-433.224
-388.374
821.598
518.071
-869.745
-457.735
94.4395
363.296
-240.104
591.011
749.912
-339.179
-219.581
-164.727
384.309
-508.706
153.034
355.672
1497.82
81.5688
-1579.39
-769.553
1384.79
-1178.15
-476.552
556.884
-169.885
1183.92
-381.626
1109.26
508.623
716.072
-423.357
-908.118
-540.372
-1352.99
-31.9097
1014.53
-982.623
604.559
342.587
-947.147
-329.613
-234.368
-761.851
416.247
1664
-186.523
372.112
366.814
-738.926
-1890.2
-2160.46
1557.28
603.178
-2041.86
356.258
378.252
540.654
-918.906
-475.08
1051.55
-413.056
-674.855
1087.91
-2082.22
1425.67
656.55
602.386
-1015.44
60.9073
411.198
383.792
208.329
252.843
319.471
980.637
883.241
701.978
-337.541
-364.437
-303.699
639.77
-336.071
593.163
545.372
572.674
496.084
-1068.76
-815.452
-721.329
776.339
407.579
-423.854
721.591
-1221.7
1652.73
440.443
-1115.3
-332.409
553.587
-1416.6
917.32
499.281
-715.444
-309.911
-852.279
383.361
468.917
461.192
739.544
-1200.74
1100.2
-586.616
-406.562
679.104
-272.542
170.697
162.505
-482.59
-446.5
929.09
-251.667
560.033
-972.491
412.458
-455.128
616.174
-1725.07
436.87
691.015
-1127.88
541.336
89.8004
116.499
-2268.41
562.332
-92.2106
1485.71
1821.52
-222.201
-1599.31
-450.599
1837.48
-2042.55
1227.42
815.126
418.876
354.861
-27.4659
887.172
-1322.33
740.003
-897.735
-848.91
817
322.236
55.6241
-377.86
90.1862
99.6811
-189.867
1591.75
-850.411
-927.235
-311.121
490.514
-202.826
-287.688
398.336
358.362
254.164
361.858
-7.93466
1030.06
-1022.12
377.739
287.066
-664.805
-753.5
1865.77
-1112.27
-351.145
749.481
-1240.73
-416.007
-945.38
498.88
587.891
-798.038
210.147
787.233
-394.482
-392.752
-426.047
-462.403
452.24
1098.09
1272.29
-682.279
825.603
-355.862
387.903
327.111
-262.212
-219.073
-221.526
643.949
420.584
-875.663
455.079
220.705
362.627
-583.332
-437.229
857.814
777.504
-1182.43
898.025
-48.3104
-510.282
293.385
780.481
-98.2363
1423.63
1938.01
-73.176
353.287
-323.129
413.32
-1116.6
1108.67
631.903
387.974
399.259
61.7706
428.743
280.149
500.567
-381.199
-279.759
-361.202
-72.6859
-367.89
380.846
-12.9555
-254.779
-278.925
1037.29
-1584.62
547.328
-201.929
-191.634
-387.398
674.464
-1671.94
1634.38
-985.729
271.759
-692.373
600.895
1254.29
-1855.19
627.727
1006.65
316.446
-1152.33
711.22
-290.033
-294.842
1401.7
-1482.43
841.663
640.769
418.58
-641.362
222.781
-370.617
492.488
-121.871
374.838
116.219
1773.25
443.701
-247.742
575.025
-1750.16
1175.13
-92.6994
401.368
351.976
350.003
-462.077
-633.646
1095.72
437.35
-890.777
-660.353
927.865
588.759
-131.617
-126.531
-454.051
-421.612
-318.62
-850.695
1199.3
-1199.3
-98.4624
-1609.22
1707.68
300.982
295.831
-941.152
-573.925
1515.08
-417.237
989.911
-619.56
-1037.97
689.774
408.851
-1098.63
492.6
-168.779
588.95
1250.12
-1839.07
-1049.56
2114.63
-1065.07
-384.308
-309.894
-493.972
832.075
-1795.97
1642.68
153.291
1795.97
-1644.73
-151.24
-246.521
527.011
-280.49
-554.192
1663.45
1590.92
-2006.93
1104
-287.405
-264.277
551.682
252.902
-585.31
-720.762
296.908
1379.72
653.666
593.417
501.975
-1095.39
295.055
421.017
897.113
516.068
-1413.18
545.263
-1048.7
1619.43
-582.132
-774.928
-372.87
-122.464
495.334
-505.459
1245
-767.332
331.037
342.607
367.527
268.886
-636.413
620.429
857.283
-621.2
281.794
684.655
-131.617
-322.395
-240.149
562.545
1197.45
-675.384
630.382
478.465
-1108.85
-992.457
992.457
-398.767
786.742
-297.867
-487.078
784.945
495.661
465.893
-961.554
398.974
-696.841
633.817
-895.177
261.36
-379.663
-512.608
1106.03
-682.641
-729.233
1411.87
-394.066
954.099
-1594.57
692.839
48.949
-429.73
380.781
-507.627
722.84
263.36
337.914
177.743
314.858
-526.671
236.639
1922.6
-2020.84
283.878
-723.076
457.139
-847.338
390.199
-906.294
1436.9
-530.607
-443.78
-501.599
618.715
1153.55
-1772.26
-738.541
354.233
-473.303
1066.47
-787.674
1069.47
-339.322
-641.516
-486.83
741.759
465.86
-301.749
933.011
-309.922
-198.784
1640.26
-1862.46
-365.029
-607.462
-342.278
495.312
268.449
-599.909
-193.054
1084.4
-791.016
223.974
-296.047
-290.086
586.134
412.548
-901.961
489.413
-476.942
-456.99
-418.258
-344.069
590.047
-245.978
-463.655
-429.915
-333.381
-204.445
-391.619
660.505
-450.368
777.479
-1104.7
642.62
-1410.42
576.494
-28.1608
-1885.92
1914.09
588.894
-463.286
1241.6
-693.834
49.0026
-49.0026
689.181
-443.871
1037.66
-1657.22
-1187.68
-972.779
303.663
336.107
901.546
738.579
-496.242
-319.092
815.335
1703.28
-1731.44
-446.848
362.983
226.554
1169.62
-539.241
-967.599
1590.41
-622.81
460.403
-252.074
384.359
398.389
-782.748
538.659
492.709
-1031.37
-333.98
665.017
-39.1791
1961.78
1615.16
1019.23
-1746.04
748.196
-1213.31
465.11
-509.743
1406.86
861.921
-1381.15
-564.961
277.556
815.748
-418.63
573.204
-1222.58
649.372
-656.296
-1246.1
-714.878
1960.97
-212.928
564.998
-352.07
-184.711
298.944
-511.871
334.708
386.878
-721.586
-1521.64
780.793
740.849
904.092
-1474.26
852.522
-443.963
228.459
-377.185
-597.814
275.419
-696.637
-719.964
719.672
521.266
-1240.94
403.034
-209.492
-193.542
572.636
-988.452
-573.204
-428.922
743.892
-853.691
-1188.86
-1478.78
516.089
962.687
8.76535
-643.294
352.8
290.494
-1344.94
1076.49
268.45
-634.556
-470.141
-664.463
896.087
415.895
-212.02
-203.875
525.576
1005.94
-1531.52
1004.55
-332.307
113.334
218.973
-413.679
692.324
-408.446
-525.515
183.237
241.134
-1560.57
551.869
548.334
-764.731
257.104
164.308
-474.229
387.438
-844.428
2001.62
-1224.02
-777.601
413.545
-685.805
272.26
165.715
331.966
130.186
-462.152
-576.313
192.426
251.275
-714.378
1413.48
-699.097
436.334
487.722
-1203.17
272.232
1920.85
-1043.01
-877.833
729.296
-541.91
197.841
1426.6
-986.128
-440.468
351.333
-795.204
-635.56
1771.73
633.336
638.956
332.289
-10.0531
285.762
-1166.68
1772.12
-605.442
-1809.06
841.463
1779.71
-1706.04
-73.6681
-679.875
260.885
580.258
-727.807
240.977
1444.07
-582.148
407.811
449.376
-1909.19
1458.59
560.582
-426.981
-133.6
222.487
-555.868
-279.96
-191.701
-363.733
715.709
-590.589
217.719
619.627
573.039
-1192.67
1143.22
-2001.8
858.578
174.921
328.287
-1748.08
1708.9
332.432
-755.79
-168.957
397.415
769.274
701.825
-1471.1
1094.7
-1103.83
547.827
-1134.44
-652.073
263.962
388.112
532.209
-304.03
-631.31
-1025.91
312.047
-741.962
-934.654
194.381
170.78
232.254
391.674
310.447
-702.121
-642.466
-858.234
-1005.81
511.74
-1088.05
-290.781
494.618
554.898
657.006
-133.062
-31.7782
-412.389
728.835
287.485
-1232.52
590.051
1343.2
-573.922
464.37
-1037.57
-199.53
171.924
388.658
1049.83
569.598
-1728.06
1629.6
1650.72
-595.148
-1055.57
1956.59
-1944.42
-12.1704
211.339
-534.468
-347.559
571.534
-776.23
-326.238
-353.637
1019.41
722.492
-1529.31
806.817
359.811
-25.934
1666.19
-1105.58
430.191
-1261.51
486.582
-61.0435
1558.86
1234.45
-486.256
-304.205
-28.1026
-281.132
756.387
-2002.48
-733.661
358.085
-552.542
194.457
67.4567
-249.932
1170.42
690.211
-1860.63
-619.769
192.788
966.866
-1540.79
-214.313
655.993
-441.68
886.917
1113.08
-754.557
1387.89
614.638
-486.97
-127.669
-362.393
1204.06
1062.76
-1981.84
919.085
-1204.16
564.866
1532.15
-604.283
-380.836
-165.563
-1276.1
593.817
1196.24
-67.3927
973.31
797.725
-1771.04
-222.216
597.314
-1586.09
988.777
504.17
939.927
-1444.1
631.695
609.431
393.214
-1133.87
391.795
1138.19
561.997
-304.269
-257.728
-1216.41
-1802.24
-3.38231
-1724.68
-220.672
-420.69
1652.75
-643.148
-1009.6
-504.252
1116.41
-1354.49
657.462
697.031
-1399.02
1480.59
-1367.42
612.868
1564.18
-401.824
-583.652
202.816
-1501.44
239.853
179.398
235.939
378.699
434.24
416.207
-850.447
524.576
-963.093
925.968
-1487.27
-711.934
248.682
463.252
-1069.86
480.489
-481.763
889.574
718.507
33.0678
-540.618
188.548
-908.338
-1352.55
-739.492
363.29
376.202
419.68
-746.572
326.893
-416.361
-165.492
-529.989
737.063
1583.24
-609.928
830.329
761.425
1371.22
-855.148
-997.298
-588.793
-823.966
440.691
383.274
-1067.46
-663.549
316.263
347.286
-1411.74
-265.304
-817.084
412.276
404.807
-665.315
401.253
264.062
-694.824
286.379
426.746
502.344
401.892
455.922
491.655
395.577
611.96
-993.357
688.807
489.196
452.551
345.771
-798.322
1674.2
-1106.03
-568.168
-521.564
-286.296
-1058.64
467.854
353.745
422.413
611.083
-1033.5
-1419.44
776.295
-553.345
1179
367.237
-69.4615
425.341
-894.041
468.7
-1905.32
296.098
437.718
-706.181
268.463
-191.555
419.433
-227.878
-684.114
320.794
363.32
-697.104
332.666
381.635
405.106
630.917
-1048.15
776.196
680.052
-1456.25
451.577
644.147
322.389
335.605
-657.994
418.485
330.996
604.275
676.016
422.07
597.468
-1043.57
446.101
-1703.43
1181.5
521.921
1741.26
-557.493
640.756
-1182.24
541.488
-607.245
335.805
451.719
-965.111
513.392
763.634
-449.518
358.251
357.459
572.824
-937.853
670.115
-1291.42
621.308
389.269
756.256
-1261.72
791.89
525.558
-1317.45
488.012
426.108
-914.12
-518.558
-960.218
-315.324
650.032
359.585
551.301
-910.885
339.792
325.225
-517.738
1993.57
439.72
-841.759
402.039
-943.488
-830.774
-774.144
381.392
-1245.9
458.222
-1774.13
1644.73
129.401
1792.49
-1642.68
-149.807
-809.914
-609.997
276.434
333.564
-1779.71
2006.93
555.284
814.357
-1369.64
454.474
737.4
709.395
393.857
-1103.25
-61.1569
1662.34
-612.511
403.624
837.979
-581.6
308.273
273.327
-389.489
-234.55
405.248
-232.332
450.138
268.771
-610.068
341.297
273.797
-590.968
-294.165
456.376
-1064.67
608.295
554.687
1119.52
371.711
611.819
230.901
197.914
-428.815
1653.22
-930.725
1739.83
-1563.82
-176.012
-336.2
-850.591
428.979
870.937
-1085.25
-626.935
290.864
-1117.12
1671.8
-1606.93
-71.2654
1678.2
-350.501
-359.886
-380.841
551.949
617.674
-519.209
-31.9677
-539.038
516.165
-288.377
-227.787
1775.51
-1323.27
-638.492
309.01
329.483
417.856
369.618
755.95
-302.385
-410.854
-1792.49
1731.44
473.46
-1133.87
660.409
-40.3159
1669.91
584.504
472.313
-1056.82
80.7485
1176.15
-1494.77
-7.18184
-1898.14
235.675
-583.51
292.132
291.377
-929.495
609.712
-927.678
483.898
-1162.49
693.367
469.125
381.707
283.78
-780.022
-315.332
1254.23
911.122
721.326
-1221.28
476.445
744.84
509.722
721.447
-1231.17
-363.27
-255.03
425.81
-990.975
452.715
538.261
21.3918
-1930.58
1113.15
-479.332
-503.338
575.4
-1419.02
843.62
-432.593
822.792
-417.825
504.939
-1007.54
1870.06
421.145
-188.891
165.237
-176.095
-252.47
428.565
1943.38
-517.709
-1724.22
1082.49
-506.534
271.984
-1045.14
570.064
-318.736
562.815
928.86
-1491.68
-1111.63
447.168
-20.7914
-2000.05
1717.72
-654.964
-517.54
475.906
-1226.97
751.069
196.078
219.817
-238.993
789.93
722.548
848.128
750.563
-404.792
1117.61
-504.396
486.432
-196.909
-289.522
-1977.74
-697.048
-314.739
-406.712
-1.89436
408.607
465.844
-273.418
582.581
1070.64
-819.817
954.063
1281.81
-438.314
-205.058
-251.743
456.8
950.443
-909.012
-342.561
-1099.96
629.815
1597.32
-816.532
555.741
959.335
-398.584
758.748
-360.163
1163.87
-248.883
326.961
1389.76
-725.242
-229.94
465.335
-1236.92
771.587
-990.036
-149.704
1139.74
455.959
-985.779
529.819
189.695
242.18
319.817
789.831
-112.074
881.263
-438.962
1182.87
-789.016
569.888
-1508.26
938.371
-1246.09
1846.99
-439.578
-1547.85
902.781
-1443.15
-321.131
-419.388
1499.88
-1566.43
809.483
1531.82
208.44
277.992
-361.207
-1774.13
-309.521
-1020.87
1603.45
-1801.43
1801.43
1590.92
-1035.13
-655.405
-344.044
370.993
618.918
-367.875
-369.305
-1429.64
919.892
1153.15
618.973
1217.4
1834.63
-1245.68
-623.086
268.935
1704.32
-1969.15
264.83
837.662
-1304.54
1587.23
-580.584
804.253
315.54
-339.62
571.922
818.069
636.167
1395.76
-227.962
-458.978
-362.823
396.311
-263.937
486.972
758.031
-302.166
-159.986
-332.069
585.017
-252.947
26.3209
-385.008
1135.49
-1767.58
-455.663
-493.096
-583.736
890.294
707.03
-1642.3
927.917
-466.231
-631.117
-529.246
1289.43
348.557
1770.43
-1749.04
-1703.28
1944.42
-1599.46
859.769
739.689
-369.986
-1845.81
944.314
600.952
843.118
-413.949
1844.35
-701.13
-411.931
682.419
450.82
-1133.24
-1132.18
459.418
775.034
-1660.23
489.709
923.767
178.113
-398.554
220.441
-1613.32
-395.625
-428.701
1011.31
-686.046
1484.6
-968.599
1855.52
245.05
-548.758
510.408
-301.968
491.235
915.621
561.193
1002.99
-477.584
-442.056
592.278
907.603
-1373.05
-38.6916
1612.2
-850.771
537.844
993.975
-1518.86
-1110.05
1786.36
-1242.78
-543.583
1242.96
-330.298
-912.658
-193.59
460.342
-266.752
-471.166
-256.106
441.069
-184.963
153.141
-408.171
1746.36
-1749.74
-462.771
-549.99
-924.271
441.332
-203.132
-238.2
504.228
-455.547
-358.803
-322.086
680.889
-969.243
417.028
-1195.49
691.235
423.163
-644.838
-449.002
1612.92
-874.336
546.338
-472.507
-587.471
-477.2
55.406
-52.6545
-2.75145
-1123.89
430.061
-684.812
-1061
1745.81
-605.49
-1464.76
735.53
579.945
-1640.69
1060.75
-385.812
-485.841
162.989
538.17
-1295.9
766.655
557.326
1029.91
-2182.69
1016.59
1166.1
-361.487
69.7636
-62.3847
-7.37898
1520.53
-384.25
464.079
1160.29
600.656
931.492
584.839
543.512
-1128.35
173.34
-443.743
-1706.04
272.869
1151.53
-622.703
535.784
1039.76
-1575.54
1119.57
-1687.74
181.382
716.643
554.294
-896.854
-1108.22
-129.887
342.791
-212.904
-558.502
-431.515
-654.936
-486.07
247.077
-1665.21
966.399
-491.249
214.684
-403.575
550.045
-314.37
-611.465
1232.79
-1300.55
929.301
371.254
-1031.4
-365.697
-773.608
-842.757
1733.05
-491.661
1798.79
-1591.54
-207.251
-1598.79
1043.33
555.463
-741.625
-164.699
300.48
-135.781
-598.857
394.717
286.144
-680.861
-540.269
1009.93
651.928
-361.064
-1660.15
1074.81
589.544
1130.69
-1720.23
-414.636
-306.066
-378.048
-761.981
-470.957
-340.412
518.155
1601.41
-1021.46
-797.719
1540.02
683.498
-320.515
746.655
1176.95
-1923.61
288.043
315.661
-502.083
-1986.72
1768.87
217.844
763.874
-488.618
-275.256
548.992
1086.62
-1635.61
55.406
-1731.86
-239.488
1796.77
-1621.14
1102.26
518.888
-1736.17
4.31645
-537.801
69.7636
1748.08
-1768.87
965.891
643.407
-1609.3
268.62
-163.112
-105.508
-410.411
-284.414
62.6157
45.7533
-210.452
-448.336
-446.841
-422.489
230.934
1549.15
392.261
-232.258
-433.057
431.125
-179.85
331.503
1551.3
1102.39
-221.085
-881.309
-1132.82
1751.54
-1777.12
1092.31
-728.228
-1048.89
-1294.67
1891.5
-596.827
1185
-1819.25
634.251
170.592
-902.494
1721.37
44.7206
-1766.09
-507.351
-1108.68
-1746.36
-1011.47
569.417
1043.95
608.363
1160.99
-1769.35
295.935
-465.82
728.083
-395.417
375.723
950.861
700.766
-399.952
-643.617
601.123
1098.88
-1700.01
-408.466
-384.785
793.251
437.607
-1708.9
1563.82
145.082
603.198
-1076.5
560.683
1111.12
-1598.38
1017.8
-248.603
246.251
325.282
1956.59
424.484
-90.5006
1015.28
743.07
-1758.35
-717.324
1111.23
-1599.41
172.46
-586.962
190.84
240.285
-662.018
-583.879
600.938
1061.4
-719.042
-282.585
-1409.5
696.454
713.048
-400.585
811.481
100.08
-911.56
578.997
-141.118
1599.7
-226.411
273.096
-790.137
-1986.72
1709.12
1017.35
76.0372
313.529
450.105
-957.601
-1020.14
-1812.41
658.678
1739.05
528.447
-489.571
1247.6
1116.13
-437.15
1056.07
-1009.48
510.772
498.704
720.588
1076.86
-1797.45
503.531
494.104
-1535.72
-770.632
31.6228
806.699
-425.307
-910.599
407.26
-555.009
-826.145
188.828
-595.002
1438.62
1083.98
165.687
177.104
-568.883
1662.94
-793.823
1570.02
-1773.92
592.886
1181.03
563.701
-911.275
-1780.96
1969.15
-188.194
1761.93
186.924
-559.429
153.024
-107.271
-497.109
1248.18
584.212
1157.05
-501.919
451.248
886.169
-479.162
-798.88
435.637
363.242
1459.13
1119.04
-535.949
1463.87
-501.23
-457.675
958.906
-621.349
508.627
-1231.11
1739.83
1884.47
-707.519
1631.16
-665.269
-1278.72
738.451
-580.491
132.967
-236.779
392.754
-202.327
-535.738
-1277.25
1918.5
-641.247
1208.79
-568.029
1147.26
-1704.76
1734.44
-592.284
-560.937
-566.772
1765.32
-327.062
-710.249
-490.316
1261.9
-1729.19
-1907.65
630.393
337.24
-983.879
174.317
222.031
-1764.17
1232.71
531.464
1190.22
571.715
-526.213
-483.735
1228.57
183.231
236.202
604.945
1279.53
-554.201
-1268
1822.2
-1053.78
1051.54
869.309
-209.21
-1704.32
1749.04
-527.668
1451.44
-1780.96
-380.83
14.0561
366.774
-276.757
605.449
-328.692
90.5055
503.162
806.718
-387.039
1286.06
1298.81
-427.878
880.272
-451.293
1866.35
-681.349
1629.31
-1770.43
-424.149
-757.32
301.307
456.013
-576.229
-581.636
63.5982
-1036.67
-1012.77
-689.45
1702.22
-962.03
-1220.66
155.304
-419.58
-667.356
725.004
1197.45
668.902
1451.81
-608.694
1678.91
1357.08
-590.42
-507.618
205.65
-521.029
1436.65
1277.19
-580.741
-959.467
922.061
53.8023
-975.863
583.29
-523.63
1443.52
1538.44
-606.947
-55.8813
55.8813
-607.838
1668.59
1277.79
-502.753
1160.13
-58.6572
1852.98
-378.715
1532.91
-606.944
-526.048
1385.82
-673.199
1255.2
-582.002
1599.19
-610.417
758.844
596.569
-1355.41
-654.755
294.896
494.454
618.39
-2005.04
-1007.41
1629.31
55.8995
-55.8995
-76.7655
403.061
449.461
392.387
-17.5495
-299.902
914.244
-524.974
-437.958
841.02
-254.101
642.213
-421.141
1557.78
-461.546
-891.449
183.87
212.718
-396.588
618.458
1279.46
-1897.92
956.975
-473.077
-52.6545
129.379
-1993.79
1864.41
-467.784
193.798
1214.39
-457.554
-756.836
-320.215
-590.384
-505.649
-62.3847
-482.157
254.369
1193.59
-575.918
237.528
-396.354
158.826
-6.97867
-99.7806
758.419
-658.638
16.0066
-377.208
-604.795
-80.4013
80.4013
-1256.59
1999.66
-1285.08
-229.465
-1826.79
235.248
-1050.13
-998.349
-192.76
-1684.76
727.156
1260.42
-1975.29
384.332
319.665
-703.997
-1896.97
1264.65
632.325
-127.706
127.706
-984.191
-10.6377
-1915.81
-575.448
1694.96
-697.66
1681.67
-620.266
-189.062
-1709.08
-604.602
-443.791
-612.933
-87.9364
87.9364
-1577.12
200.32
1376.8
156.521
187.982
-344.503
575.782
526.612
1028.12
-489.862
1795.16
792.38
-196.452
189.073
535.587
1748.54
-613.049
-569.967
1681.09
459.774
1861.1
-663.655
-1854.91
-1984.78
-665.707
-93.0155
93.0155
-606.022
243.199
-693.704
1050.65
-480.581
-1102.3
-293.112
975.359
1897.98
1678.29
-1678.29
-281.331
762.505
1807.67
612.185
1306.32
131.522
137.098
606.766
587.552
973.852
-973.852
231.309
-362.24
-445.775
405.972
981.33
-470.558
-658.76
-1158.88
1751.76
292.041
-1670.33
632.354
-295.358
482.282
1791
-609.963
-164.719
-426.405
396.622
741.566
1785.08
-631.927
-528.115
-773.789
2008.86
-892.495
-1116.37
1687.29
-624.374
1254.03
-1872.23
618.204
351.963
-900.721
-180.594
-24.4975
1131.17
-501.36
128.284
641.427
-1667.34
456.981
624.034
-1854.91
-600.698
1833.4
909.324
-1191.55
1806.95
-615.398
1829.96
-592.751
-1237.21
458.002
934.93
-1749.74
948.652
-1476.79
234.163
1242.63
-856.802
-1284.79
-166.303
38.7973
127.505
599.448
281.149
1053.63
-461.31
873.74
-412.43
845.588
758.847
-1604.44
662.01
1096.8
-4.7117
-455.547
460.259
-1793.3
744.411
714.098
98.7402
-1150.38
1986.15
-692.754
-1293.39
-554.667
1711.71
847.5
990.785
-1838.29
1258.65
702.325
-413.493
734.287
849.691
1060.24
-604.278
1807.67
645.344
1819.75
-1214.35
-605.401
-377.663
-338.845
716.509
108.306
-1097.78
1705.07
-557.804
-799.492
799.492
1279.63
611.866
1385.94
215.468
-566.942
291.717
-200.066
718.654
1142.45
499.377
-316.146
-894.865
-592.404
1745.42
-1745.42
553.447
-553.447
1012.41
1050.82
-2063.24
1885.28
-631.252
-598.592
839.005
-971.18
-1078.59
1026.12
710.855
-1736.98
-105.6
-366.114
-649.327
-829.294
2093.94
-1276.94
-630.703
1027.7
999.117
1322.06
664.085
338.594
1037.68
234.92
345.408
608.326
1802.48
-1802.48
681.643
25.5203
-184.922
-1022.03
-560.395
1720.53
988.428
1011.57
-1880.43
-232.997
-371.605
623.853
-350.984
1898.49