/*--------------------------------*- C++ -*----------------------------------*\
  =========                 |
  \\      /  F ield         | OpenFOAM: The Open Source CFD Toolbox
   \\    /   O peration     | Website:  https://openfoam.org
    \\  /    A nd           | Version:  7
     \\/     M anipulation  |
\*---------------------------------------------------------------------------*/
FoamFile
{
    version     2.0;
    format      ascii;
    class       surfaceScalarField;
    location    "12";
    object      phi;
}
// * * * * * * * * * * * * * * * * * * * * * * * * * * * * * * * * * * * * * //

dimensions      [0 3 -1 0 0 0 0];

internalField   nonuniform List<scalar> 
11380
(
168.661
-569.272
400.61
-775.679
14.2056
761.473
459.035
-377.399
-81.6361
684.788
255.408
-940.196
1510.36
-1069.39
-440.967
1216.26
-1527.1
310.841
6.94294
464.381
-471.324
169.104
-840.913
671.808
961.96
-1610.73
648.774
-1779.01
1685.46
93.5508
-542.946
1759.21
-1142.15
1935.9
-793.748
605.758
181.329
-787.087
-26.907
-1323.38
1350.29
223.148
-2002.16
1021.9
-385.131
-636.768
-207.494
376.155
483.09
190.604
-673.694
1154.2
-1315.23
161.037
-318.21
374.153
-55.9424
1007.35
-1329.98
322.638
1221.7
800.099
-2021.8
76.5102
-1651.81
1575.3
-514.598
-1153.6
1668.19
473.411
181.921
-655.333
-209.815
-359.457
497.599
1012.76
1659.62
-1821
161.378
-109.507
-1687.09
1796.6
-1560.21
656.722
903.483
-310.755
652.405
-341.65
-184.579
-87.5072
272.086
1293.85
-1217.34
355.34
-1407.23
1051.89
-1754.25
1754.25
103.238
1545.03
-1648.27
-1084.11
-476.1
675.291
-668.348
-387.54
941.919
-554.379
1331.74
-1317.15
-14.594
-1100.13
712.586
622.826
399.072
-398.735
-23.7071
422.442
-481.394
785.843
-304.45
-1618.36
1618.36
1253.54
-1437.85
184.307
-489.232
1710.94
1253.16
-311.245
1660.71
-1161.21
-499.503
65.5981
-383.808
2067.5
-1136.82
-930.69
1827.75
-168.126
451.674
156.04
-607.713
-470.914
976.523
-505.609
-1181.44
1284.68
-566.674
969.5
-402.827
397.116
757.08
660.488
-491.384
-437.605
590.167
-152.561
1190.55
-835.214
2308.23
-1080.7
-1227.53
1164.61
-2011.55
846.938
-1614.86
1587.96
440.506
-1582.66
-758.761
1250.32
-491.562
-670.792
360.038
1661.42
-699.462
-1106.93
-870.901
1977.83
715.758
-356.848
-358.91
690.472
562.691
-258.214
1511.75
103.686
-311.89
208.204
-284.645
758.056
-333.184
560.712
-227.529
-324.341
807.431
-318.867
-142.485
461.352
318.613
140.422
1473.65
-466.308
-1002.43
480.091
522.342
268.334
94.9435
-363.277
947.112
-341.354
-1708.86
599.51
1109.35
13.0777
-867.704
854.626
-276.599
590.558
-313.959
158.376
-1093.82
935.446
1050.68
-1066.3
15.627
373.098
517.025
-890.123
-245.202
696.875
-1102.97
-482.642
1585.61
-676.905
949.602
-272.696
1353.73
-1463.24
-637.419
249.249
388.17
-470.206
-1011.48
1481.69
-536.152
-796.974
1333.13
575.212
-995.163
419.951
-262.562
-314.631
577.193
401.259
-297.573
-1043.07
572.158
955.554
-797.177
-110.396
943.659
-833.263
-203.984
411.514
-207.53
-655.871
-346.562
-386.722
961.934
1856.35
-1856.35
-502.864
-134.555
-956.086
1589.82
-633.736
415.507
-843.092
427.585
-922.19
355.517
-941.904
-1058.08
-1497.2
338.725
1158.47
-271.255
956.043
-327.444
619.002
-291.558
-1941.89
999.99
-1152.07
-345.122
576.935
-1533.02
1728.48
-1726
-2.48288
185.245
-593.983
408.738
-1484.78
987.193
497.585
278.817
219.485
-498.302
306.034
-639.217
235.977
-410.239
174.262
2024.87
-826.804
-1198.07
-541.649
142.914
614.221
840.868
-1455.09
-182.965
418.942
431.721
876.038
-1307.76
-903.629
388.912
514.717
-1050.76
1447.88
-1068.32
309.556
747.273
-94.868
555.239
-324.875
-230.364
1026.76
-546.669
593.457
-1403.64
810.182
-1342.08
239.111
-541.671
265.072
-1222.36
951.101
1927.17
-1022.55
-904.618
276.798
1579.56
-2099.58
898.573
1201
357.202
-32.6865
-324.515
-222.925
478.826
-255.901
-99.0201
-385.828
484.848
-460.873
142.006
337.788
-132.839
548.346
426.881
374.138
-801.019
-2055.12
1136.94
918.181
461.12
-526.588
65.4676
218.286
-358.918
140.632
961.675
1063.2
1800.47
-255.444
727.657
-478.408
795.56
-1388.95
593.391
336.817
378.941
1067.19
-1054.11
-477.073
-301.612
778.685
470.417
-130.238
-340.179
795.417
-614.088
502.57
-735.449
232.879
503.332
1157.38
-1240.06
703.909
1034.04
-1548.64
-3.118
-1439.42
1442.54
327.467
822.567
-1150.03
622.029
269.889
-891.919
-2277.71
1185.45
1092.26
-1146.88
-1130.83
120.492
382.079
959.049
-631.581
878.131
-897.926
19.7945
-2099.39
992.461
-219.918
-186.957
406.875
-42.099
1770.58
-834.63
58.9508
-1032.12
-1067.45
-227.91
446.196
-672.213
169.349
-268.698
-470.711
739.409
1103.95
-1574.15
782.568
-1374.2
591.63
723.343
-467.935
1947.83
-1444.49
-378.284
-1375.97
33.9782
430.403
-526.926
541.131
26.2425
-579.045
552.802
567.145
-288.328
-599.792
276.008
323.785
782.219
-355.338
34.4548
322.747
1188.47
-1191.59
167.999
233.26
441.67
-710.368
618.446
-1005.17
-2026.77
2026.77
-273.083
-479.912
752.995
698.777
405.841
-1104.62
579.465
167.808
412.512
369.707
-2199.77
1328.86
-925.808
-680.28
1606.09
-480.711
-741.644
-293.919
601.492
-307.573
865.931
-261.696
-604.235
-456.502
641.747
356.684
-684.128
-375.072
-110.291
485.363
-1342.81
-478.194
672.332
-1153.04
-374.141
-1244.22
844.355
1463.87
305.086
-879.44
574.354
965.794
-342.967
1391.19
-797.732
439.993
-271.993
-324.164
-910.508
621.078
289.431
-388.858
-521.651
312.642
-411.662
-139.115
-168.31
307.424
-392.807
1091.58
433.765
-243.161
-386.949
1365.3
-166.673
-1198.63
-465.135
286.55
178.585
276.194
270.625
-546.818
-50.8494
-684.599
592.185
-1729.08
1136.89
1485.85
-871.63
-1058.58
-426.201
-1055.78
574.35
481.432
1404.2
-417.011
928.578
-1411.22
-199.341
-136.128
335.469
-467.814
578.041
-1628.8
427.863
903.882
272.868
360.658
-633.526
568.037
1186.21
1102.4
-710.27
-392.13
396.916
-210.085
-186.831
-1419.42
446.575
736.746
-1183.32
1473.23
-544.648
-515.329
972.686
-457.357
426.161
1186.14
-1612.3
47.4113
-724.317
-149.495
417.829
159.513
-344.092
556.138
470.622
-535.299
0.286629
535.013
1024.51
-1307.64
283.131
666.884
-254.373
468.401
-1447.2
978.796
373.679
1688.71
-524.096
853.203
1073.97
-658.512
-1684.84
759.033
556.71
412.012
-968.722
457.665
79.0935
1750.12
-1829.21
1443.62
-379.492
-1064.13
1699.18
-1741.28
-365.31
-531.524
719.51
-187.987
-502.591
176.806
293.611
-373.133
-1225.92
214.44
-764.729
-638.91
-585.512
984.926
-399.415
-651.369
641.221
10.1479
654.791
-923.395
268.605
-642.356
311.72
330.635
-647.247
-751.503
376.653
374.851
-932.119
1400.52
-424.496
890.83
-466.334
-2205.32
5.55665
172.538
-530.902
358.364
139.893
1225.41
-71.6945
-600.518
154.546
-592.151
1486.99
-704.418
381.82
-460.794
78.9738
-561.739
561.739
1222.96
395.397
1778.28
-1227.89
589.989
637.905
847.104
-51.6873
1292.57
774.938
-540.913
1336.47
293.759
296.799
264.539
-796.063
214.53
-695.924
227.014
-439.057
212.043
-294.149
629.875
-335.726
98.4977
-392.647
-591.249
-564.675
1155.92
-404.804
541.15
-136.346
-1192.15
2032.03
-839.882
1288.34
-329.294
-397.856
135.294
-1993.56
839.968
1559.86
-864.57
-695.292
1987.04
-877.487
-1109.55
714.306
574.037
-239.804
466.818
-695.34
1183.65
-488.313
-769.279
1201
551.892
924.547
-1725.82
801.274
-591.839
-47.1344
638.973
283.46
271.779
445.443
-83.2421
-362.201
896.327
-83.5465
-812.781
927.927
-583.468
-344.459
1576.14
-472.198
894.164
-1629.46
735.295
1068.45
879.38
746.563
-437.38
-309.183
-1058.84
-258.307
571.135
572.844
-1143.98
-503.182
507.313
-4.13131
573.188
-338.198
-234.991
-986.966
562.469
593.734
892.117
-441.766
1096.56
1423.88
-791.642
-632.239
390.163
-922.222
532.058
-1046.98
391.109
573.281
-1088.61
435.146
-528.259
93.1134
458.439
327.405
-512.962
-48.7765
-793.723
-881.558
1675.28
186.736
210.18
-269.855
390.347
1.54794
-580.43
578.882
505.837
867.297
-1373.13
-449.073
309.958
985.19
-88.8621
835.443
-1064.28
228.84
423.207
845.117
-1386.03
-458.012
832.15
1981.96
-1287.84
-694.119
269.565
608.567
255.531
795.146
96.3288
-993.314
896.985
1673.71
-1088.93
-584.78
-138.081
1888.2
-1866.13
-160.645
482.526
-620.677
138.151
-1011.68
527.769
483.913
-1730.46
538.315
-955.46
845.064
392.278
197.888
554.704
-249.618
-415.83
707.756
258.038
0.991523
734.621
-735.613
-1173.2
-853.12
2026.32
-564.47
1127.73
-563.26
-476.499
-326.481
106.563
-1657.49
863.771
-831.119
-645.893
1477.01
-329.496
-294.488
623.984
367.898
-702.749
334.851
252.446
-607.784
325.062
191.975
-517.038
362.558
-656.477
676.762
-308.864
314.619
-457.104
692.158
468.556
-192.363
-439.677
-311.826
1230.09
0.488377
-1230.58
1038.69
-420.241
558.672
410.828
-1782.31
869.808
912.497
485.303
559.752
-1045.06
-532.613
203.117
-264.473
1181.99
-917.512
-1590.82
1212.53
504.595
-1095.84
383.297
-1.47657
469.723
296.688
-766.411
368.736
-613.938
-37.4338
759.005
-721.572
-524.956
794.845
401.001
320.98
526.124
650.902
77.4621
-441.451
363.989
1058.13
-644.603
-413.524
494.045
-1664.27
1170.22
-1140.29
1753.22
-612.929
1715.88
-1123.69
-333.852
609.86
-1196.9
1293.23
424.646
-797.04
1614.19
-817.152
-264.604
-200.531
-930.044
1472.21
1816.11
-610.259
-1205.85
-405.166
719.459
-1304.97
-124.658
-80.0876
525.531
-701.391
-354.182
-1236.64
-214.162
466.608
902.477
-556.89
171.062
-1674.85
-71.326
1746.18
-1089.09
524.619
564.614
-1185.18
620.569
900.868
915.241
630.468
619.854
712.793
259.892
-1175.41
480.066
-392.88
419.123
615.666
-513.588
236.541
-728.278
491.737
725.5
-388.683
-265.454
177.947
-603.496
258.92
344.576
-885.591
-743.867
1087.67
-2145.74
396.143
-680.788
-342.805
-723.499
834.302
589.579
-336.669
312.962
406.595
288.745
600.524
-889.27
548.67
634.983
-527.967
152.895
391.683
-664.766
-1095.38
-801.933
1897.31
-1808.73
156.924
1106.63
-1371.11
1197.72
-715.977
-481.748
-504.482
1349.6
-1495.44
627.927
867.511
-284.535
-209.325
493.86
1428.44
558.598
351.649
-461.94
-479.168
-573.496
1052.66
-422.834
595.372
1583.28
-1130.95
-452.335
-829.704
349.792
654.493
403.633
-1623.42
416.185
1207.23
-180.666
505.728
797.601
785.683
177.296
-693.998
516.702
201.244
210.27
-282.345
-109.62
391.965
480.814
38.3298
-519.144
-1662.78
604.203
-1620.62
1690.37
-69.7588
13.5555
-1634.17
1069.48
795.578
-325.855
-840.424
-206.556
-1134.58
-239.615
-311.939
680.675
-1812.93
-638.284
1211.13
220.186
756.337
-1332.85
-678.703
-466.039
654.03
-381.162
-1013.26
1350.81
-1933.02
582.213
647.312
1288.59
481.281
-2.45489
715.878
714.627
-1430.5
-635.503
329.64
305.863
436.179
-100.434
-335.745
140.465
304.726
148.369
-453.095
-597.831
1154.54
456.081
-639.528
-459.945
-401.81
861.755
-308.964
109.623
-454.035
156.462
-301.765
-709.917
542.16
-105.98
-576.327
966.49
573.757
-267.833
-305.924
453.031
-777.372
-646.238
459.986
-1129.37
-850.017
1188.74
-569.772
444.375
334.31
-480.13
123.282
1027.32
-314.146
589.713
-275.567
-509.041
1578.52
-747.188
288.13
378.187
-666.317
203.74
518.348
1.99088
-520.339
-260.417
-193.618
977.447
1108.84
564.874
-889.009
945.816
-56.8074
-452.246
167.711
-783.234
312.523
-586.149
366.009
359.491
850.985
-1273.66
422.677
775.65
-813.084
-948.838
-550.394
1499.23
-149.938
510.595
-546.33
221.455
1318.97
788.337
-611.041
1359.22
-686.89
487.168
-641.299
-414.619
-421.161
-378.459
799.62
500.504
-841.858
-468.613
64.2234
404.389
-315.032
572.487
726.115
-329.972
-235.728
-174.661
410.389
-486.895
133.353
353.542
1462.21
83.2568
-1545.47
-755.928
1349.66
-1144.78
-465.953
592.699
-214.511
1152.7
-377.053
1083.43
492.72
696.07
-431.531
-884.746
-522.482
-1328.33
-20.5958
985.101
-964.506
629.545
359.148
-988.694
-337.834
-203.815
-683.608
405.541
1621.23
-200.158
380.235
338.031
-718.266
-1839.76
-2106.7
1519.15
587.552
-2045.06
357.965
391.391
557.972
-949.363
-460.5
1019.17
-422.914
-689.715
1112.63
-2030.56
1391.21
639.345
618.458
-1041.37
18.4573
416.689
386.27
189.554
250.439
368.41
1009.85
917.121
676.629
-322.216
-354.413
-289.707
617.477
-327.77
570.006
532.393
564.532
514.57
-1079.1
-796.07
-699.368
750.853
401.85
-425.644
760.495
-1193.38
1609.57
446.602
-1136.32
-342.093
534.069
-1396.76
920.391
476.373
-728.804
-345.348
-750.639
291.934
458.705
447.314
717.502
-1164.82
1075.17
-589.867
-420.372
659.094
-238.722
251.359
322.398
-466.23
-432.285
898.515
-227.549
581.695
-966.127
384.432
-448.786
600.598
-1681.3
423.967
670.177
-1094.14
515.958
103.044
113.411
-2212.8
585.153
-140.778
1444.91
1777.1
-217.549
-1559.55
-438.531
1789.34
-1987.27
1194.59
792.675
397.776
348.787
-47.1065
881.409
-1282.76
718.082
-868.04
-821.453
800.857
297.031
68.6052
-365.636
223.946
177.62
-401.567
1562.41
-846.528
-1530.92
-325.432
486.176
-224.266
-261.91
392.041
366.015
238.123
415.907
-11.2011
1003.35
-992.151
427.997
275.149
-703.146
-734.162
1817.42
-1083.26
-342.652
734.693
-1230.98
-417.29
-913.744
481.459
623.581
-840.047
216.467
758.812
-377.446
-381.366
-445.985
-443.023
454.482
1121.95
1240.55
-675.935
798.797
-345.766
420.676
332.319
-238.344
-222.45
-270.238
643.916
408.14
-845.426
437.286
250.752
387.43
-638.181
-420.338
828.478
754.075
-1146.88
912.61
-61.6249
-483.32
275.478
791.711
-96.5421
1385.13
1890.51
-53.6252
340.175
-373.633
451.095
-1088.13
1076.93
666.121
376.412
382.4
85.474
400.702
251.789
509.685
-375.004
-260.499
-561.716
-89.6526
-363.143
362.042
1.10089
-257.451
-284.22
1010.79
-1540.68
529.892
-160.166
-217.234
-432.205
707.354
-1647.06
1590.94
-963.017
307.815
-722.434
584.332
1224.41
-1808.74
607.441
983.503
307.204
-1124.21
708.382
-336.263
-297.263
1391.47
-1453.87
837.573
616.294
445.872
-629.908
184.036
-379.868
470.731
-90.8629
399.626
81.1878
1724.65
452.825
-251.581
557.662
-1704.79
1147.13
-99.0044
423.423
342.978
333.651
-448.716
-614.604
1063.32
408.634
-866.646
-640.316
902.345
570.882
-441.515
-200.841
-436.155
-409.27
-307.642
-826.941
1821.09
-1821.09
-101.035
-1607.95
1708.98
295.648
277.54
-916.881
-555.606
1472.49
-408.165
972.697
-617.992
-1044.79
718.819
389.362
-1108.18
471.132
-156.513
573.073
1220.34
-1793.41
-1058.82
2116.59
-1057.78
-378.166
-292.627
-517.594
867.386
-1760.37
1607.77
152.603
1760.37
-1614.77
-145.603
-241.136
519.372
-278.236
-537.31
1620.73
1580.77
-1998.06
1109.93
-332.62
-231.594
564.214
221.842
-563.936
-753.532
327.888
1343.51
638.452
585.964
478.801
-1064.76
267.677
428.393
875.227
500.116
-1375.34
539.541
-1018.71
1574.94
-564.155
-793.596
-409.308
-136.751
546.059
-490.307
1207.81
-739.24
330.193
366.682
377.422
237.856
-615.278
599.264
831.597
-602.757
252.119
693.697
-441.515
-368.498
-210.16
578.658
1168.44
-699.727
606.85
468.562
-1075.41
-1275.26
1275.26
-383.463
759.875
-276.781
-482.738
759.519
500.006
437.2
-937.206
394.494
-671.275
604.867
-869.452
264.585
-367.536
-489.512
1075.48
-659.181
-713.463
1372.64
-367.655
949.35
-1552.77
675.286
-1.08812
-390.57
391.658
-552.343
721.691
308.455
321.421
164.567
306.565
-572.039
235.776
1870.51
-1967.05
248.227
-704.73
458.095
-821.936
363.841
-910.335
1445.86
-535.529
-430.194
-483.55
600.866
1124.16
-1725.03
-713.585
335.419
-463.416
1033.42
-800.051
1052.17
-374.145
-623.559
-519.632
734.163
537.882
-355.961
908.64
-311.046
-175.85
1599.03
-1816.58
-335.756
-630.371
-342.571
475.924
261.476
-642.638
-157.624
1077.34
-801.867
196.235
-344.888
-283.834
628.722
384.68
-885.074
500.394
-480.94
-462.988
-879.44
-369.027
568.736
-199.709
-445.271
-439.378
-343.209
-173.829
-403.214
641.07
-479.739
812.058
-1071.82
623.104
-1413.03
581.908
-28.8499
-1840.01
1868.86
570.105
-450.584
1240.35
-715.727
254.631
-254.631
673.944
-450.589
1046.16
-1664.16
-1158.74
-947.964
288.632
328.845
899.232
714.959
-518.18
-288.036
806.216
1661.79
-1690.64
-433.398
338.526
228.619
1134.65
-527.795
-943.34
1550.49
-607.154
440.961
-251.408
391.379
426.786
-818.165
543.408
463.794
-1007.2
-331.27
661.463
-38.1679
1908.68
1623.1
992.42
-1696.84
726.552
-1176.64
450.084
-492.507
1367.73
836.594
-1341.08
-580.822
248.201
807.86
-395.849
546.902
-1191.65
644.752
-634.155
-1215.53
-695.7
1911.23
-176.697
541.94
-365.242
-139.735
315.832
-492.529
334.535
363.415
-697.949
-1490.69
755.968
734.721
883.972
-1434.37
822.039
-433.127
209.643
-359.138
-614.211
245.713
-694.528
-702.236
697.257
507.411
-1204.67
385.444
-204.698
-180.746
554.235
-957.061
-584.042
-464.036
776.559
-831.336
-1155.93
-1437.94
499.731
938.208
41.9826
-658.91
319.97
338.94
-1324.8
1048.27
276.529
-615.378
-456.442
-665.55
921.081
397.137
-194.431
-202.707
508.395
980.435
-1488.83
980.608
-560.024
165.508
394.516
-448.669
673.698
-425.471
-503.752
161.18
234.025
-1521.87
523.117
552.054
-773.096
220.754
142.397
-453.443
358.583
-821.571
1954.16
-1195.38
-758.775
452.64
-688.147
235.507
321.292
332.702
108.881
-441.583
-581.262
189.077
263.749
-691.811
1374.19
-682.377
424.083
491.126
-1219.93
261.921
1866.77
-1013.59
-853.18
784.135
-525.857
156.83
1402.31
-975.111
-427.199
322.758
-773.347
-616.586
1725.43
607.031
633.518
321.86
-24.8288
253.326
-1138.35
1725.72
-587.373
-1763.55
820.207
1774.91
-1703.57
-71.3395
-659.506
266.625
627.404
-725.26
205.628
1402.57
-565.972
379.921
452.229
-1858.75
1420.22
546.138
-460.755
-85.3827
191.285
-534.494
-317.079
-159.419
-349.405
692.383
-649.022
239.714
620.863
545.44
-1166.3
1113.47
-1947.63
834.161
138.836
346.527
-1700.29
1662.13
303.258
-734.789
-169.159
378.802
763.996
677.73
-1441.73
1088.93
-1088.44
519.98
-1109.85
-625.964
248.532
377.432
532.411
-273.491
-632.274
-1031.88
282.196
-721.574
-912.32
162.072
157.729
227.715
403.734
279.547
-683.281
-638.281
-834.377
-978.553
483.587
-1064.85
-301.913
480.498
531.273
657.469
-277.239
-120.617
-452.454
759.658
255.88
-1202.82
564.539
1314.39
-550.395
435.038
-1019.08
-383.22
127.307
418.83
1023.15
551.788
-1728.88
1627.84
1658.38
-597.938
-1060.44
1906.48
-1895.82
-10.6611
215.519
-589.151
-355.71
551.945
-779.76
-327.971
-331.534
1026.1
706.803
-1524.79
817.986
265.158
-26.185
1625.22
-1112.17
412.44
-1276.86
483.264
-61.6039
1523.82
1197.02
-470.469
-486.389
-73.6352
-243.284
736.072
-1951.6
-707.418
357.992
-530.664
172.672
190.515
-504.661
1139.95
671.617
-1811.57
-609.626
148.87
941.668
-1497.27
-210.531
678.761
-468.23
901.29
1098.71
-744.975
1352.01
628.018
-534.58
-93.4377
-339.967
1177.54
1068
-1984.57
916.575
-1177.04
538.757
1488.72
-586.375
-402.714
-125.253
-1245.23
569.291
1172.73
-63.375
946.274
775.989
-1722.26
-198.898
578.794
-1541.72
962.923
487.021
916.424
-1403.45
629.185
581.943
403.025
-1106.61
589.534
1111.37
1215.23
-452.135
-763.095
-1186.2
-1754.93
-4.6691
-1724.21
-179.132
-450.776
1610.91
-634.392
-976.517
-490.814
1121.28
-1321.37
633.351
688.021
-1364.7
1447.96
-1334.02
589.042
1520.46
-428.13
-567.637
164.924
-1508.27
237.085
176.389
201.881
426.138
466.395
400
-866.395
506.443
-938.802
900.14
-1444.79
-707.37
214.664
492.706
-1050.11
452.28
-484.659
864.58
694.636
20.1537
-519.904
154.661
-886.569
-1318.75
-712.252
346.493
365.759
398.32
-721.382
323.062
-474.579
-189.358
-708.568
725.318
1540.1
-593.83
825.432
736.973
1344.63
-844.513
-970.926
-570.791
-793.954
428.579
365.376
-1035.62
-638.834
300.412
338.422
-1433.68
-296.778
-788.066
395.274
392.791
-655.248
425.381
229.867
-679.578
254.107
412.814
485.701
389.841
438.638
477.309
384.446
595.428
-968.561
694.243
460.298
452.08
356.067
-808.148
1630.73
-1079.82
-550.903
-504.853
-293.79
-1031.01
452.018
347.602
409.74
592.853
-1002.59
-1384.28
749.89
-528.052
1148.62
352.314
-47.5885
412.448
-863.407
450.958
-1907.6
299.653
439.485
-724.108
284.623
-189.914
400.422
-210.508
-659.213
301.086
358.126
-670.743
316.33
370.745
389.13
611.868
-1020.03
751.833
664.448
-1416.28
438.849
624.47
337.838
392.007
-729.845
406.626
328.066
624.317
705.147
416.805
616.121
-1036.67
420.546
-1690.82
1167.26
523.567
1696.56
-539.183
618.634
-1146.86
528.223
-640.116
345.628
437.606
-933.553
495.948
784.391
-487.703
350.723
341.659
592.513
-928.269
653.372
-1252.4
599.032
399.526
733.932
-1224.24
768.716
509.973
-1278.69
499.953
396.524
-896.477
-501.789
-936.15
-294.852
629.387
352.503
540.672
-893.175
330.064
331.399
-502.191
1944.73
435.881
-845.684
409.803
-917.579
-808.242
-745.753
364.387
-1231.32
431.269
-1744.88
1614.77
130.113
1752.25
-1607.77
-144.478
-781.921
-588.436
261.675
326.76
-1774.91
1998.06
539.043
790.698
-1329.74
440.16
715.764
689.772
385.614
-1075.39
-16.0177
1617.15
-593.99
381.149
859.196
-646.005
323.934
322.071
-378.601
-296.341
547.7
-214.149
433.635
277.567
-661.572
384.005
260.434
-574.393
-279.237
442.766
-1032.45
589.686
538.069
1092.66
365.984
595.95
309.457
350.718
-660.175
1643.25
-936.452
1692.53
-1521.26
-171.278
-328.002
-820.943
411.673
857.244
-1067.78
-602.967
275.197
-1090.54
1628.61
-1605.36
-74.8112
1680.17
-341.292
-350.202
-370.331
539.817
594.828
-501.419
-25.1683
-549.619
501.661
-283.238
-218.424
1767.7
-1313.22
-621.278
295.733
325.545
398.3
357.314
734.27
-292.433
-399.259
-1752.25
1690.64
459.764
-1100.19
640.431
-41.9059
1669.75
570.79
476.292
-1047.08
103.324
1144.37
-1452.01
-9.24206
-1898.36
223.426
-594.994
306.601
288.393
-954.678
611.872
-896.458
466.264
-1127.93
672.57
455.359
387.647
256.054
-774.234
-356.52
1216.06
886.203
699.406
-1182.62
456.158
726.462
494.639
699.941
-1194.58
-406.861
-248.108
405.837
-959.284
438.92
520.364
21.2171
-1879.97
1080.01
-475.139
-508.062
558.784
-1378.04
819.259
-434.473
798.314
-405.665
504.366
-724.738
1702.19
405.718
-178.003
213.448
-164.142
-246.209
410.351
1895.34
-504.13
-1708.77
1050.72
-597.453
301.112
-1012.56
552.058
-312.472
544.448
904.987
-1449.44
-1103.04
437.486
-21.0684
-1945.98
1721.36
-653.356
-539.416
460.872
-1190.07
729.198
194.746
202.391
-279.323
773.852
698.353
836.527
816.529
-460.461
1084.23
-506.918
473.179
-188.656
-284.523
-1924.7
-713.118
-317.427
-641.026
-6.43069
647.456
461.089
-272.012
568.919
1074.34
-812.958
923.307
1243.91
-425.669
-133.227
-278.018
411.245
941.185
-888.323
-312.959
-1067
610.553
1563.79
-807.823
537.844
934.642
-399.696
735.038
-335.342
1129.93
-274.101
367.579
1349.48
-707.251
-214.97
448.349
-1198.29
749.943
-976.224
-168.588
1144.81
439.864
-954.421
514.557
153.732
732.191
483.039
749.52
-148.996
851.086
-426.121
1181.99
-796.379
552.468
-1465.39
912.921
-1216.64
1800.97
-431.707
-1510.19
879.33
-1401.81
-308.078
-458.334
1457.08
-1527.03
783.161
1491.41
197.17
276.008
-361.354
-1744.88
-280.394
-1023.38
1592.3
-1782.99
1782.99
1580.77
-1004.34
-631.565
-344.562
368.341
604.356
-413.197
-369.484
-1389.69
897.183
1125.08
600.639
1202.38
1789.49
-1216.41
-620.877
272.433
1659.2
-1916.76
257.554
815.696
-1268.03
1545.17
-561.671
789.874
337.855
-360.153
555.481
794.118
627.628
1398.69
-261.593
-445.5
-372.65
494.415
-338.375
471.988
735.821
-304.65
-136.933
-341.309
569.044
-227.735
32.1463
-370.344
1107.35
-1720.28
-464.293
-498.813
-568.858
863.396
700.395
-1596.34
904.525
-452.094
-631.601
-515.045
1251.79
348.021
1723.84
-1702.62
-1661.79
1895.82
-1560.66
840.139
720.522
-398.549
-1799.44
917.884
583.924
818.642
-385.122
1794.51
-681.041
-453.127
708.181
433.593
-1141.77
-1101.55
444.218
752.803
-1617.13
473.266
900.922
170.786
-395.55
224.765
-1611.96
-390.193
-467.393
990.192
-680.688
1442.83
-956.61
1857.9
241.576
-561.908
492.111
-294.94
474.339
893.396
543.343
977.119
-463.336
-427.889
574.312
882.773
-1392.69
-40.9919
1581.32
-844.349
519.972
971.441
-1475.78
-1115.89
1788.72
-1246.23
-542.496
1206.03
-319.304
-886.727
-186.472
448.802
-262.33
-457.294
-250.411
425.386
-174.976
139.996
-388.105
1745.48
-1750.14
-470.089
-530.879
-903.487
438.053
-200.667
-237.386
631.528
-489.754
-405.313
-307.211
712.523
-970.626
448.975
-1166.97
676.161
412.362
-646.323
-445.717
1585.94
-870.982
530.199
-458.324
-569.55
-462.902
359.351
-348.73
-10.6214
-1126.58
410.851
-665.013
-1033.51
1698.53
-615.074
-1424.75
711.291
562.332
-1596.25
1033.92
-410.807
-490.277
149.172
563.621
-1258.31
743.266
539.263
1005.91
-2133.17
999.983
1133.19
-372.422
407.508
-382.249
-25.259
1477.99
-374.029
449.623
1150.13
582.616
906.104
566.427
527.976
-1094.4
159.628
-452.593
-1703.57
243.554
1127.5
-626.26
518.645
1013.58
-1532.22
1092.79
-1643.69
200.636
711.974
558.144
-871.103
-1086.32
-167.686
422.666
-254.98
-586.337
-442.027
-636.671
-624.211
344.888
-1619.59
939.315
-477.091
214.973
-392.976
530.415
-306.989
-622.555
1197
-1311.29
947.657
363.633
-1043.39
-381.068
-764.726
-831.448
1694.84
-477.309
1800.77
-1592.88
-207.895
-1556.58
1018.63
537.947
-732.33
-254.586
435.938
-181.352
-604.55
384.259
269.615
-653.874
-524.299
1000.55
626.601
-351.404
-1620.22
1050.45
571.812
1103.48
-1675.29
-427.401
-286.18
-373.033
-750.931
-501.742
-331.079
495.646
1557.98
-995.651
-774.26
1497.44
657.504
-318.979
725.882
1152.35
-1878.23
296.902
302.041
-487.498
-1934.27
1721.36
212.912
735.383
-475.047
-260.335
531.868
1060.75
-1592.62
359.351
-1733.45
-233.215
1752.37
-1580.65
1073.73
506.924
-1736.88
3.42967
-522.01
407.508
1700.29
-1721.36
939.328
625.214
-1564.54
374.482
-216.483
-158
-430.315
-249.263
63.8919
94.4476
-349.034
-425.096
-444.356
-403.296
213.382
1510.16
379.09
-195.662
-459.585
456.628
-192.879
324.106
1510.7
968.206
-186.102
-782.104
-1104.04
1704.91
-1728.93
1063.92
-707.476
-1021.46
-1265.07
1844.98
-579.914
1155.05
-1771.24
616.193
268.252
-877.701
1675.91
43.4137
-1719.32
-491.189
-1082.96
-1745.48
-980.859
552.97
1019.51
590.278
1132.98
-1723.25
282.702
-497.213
700.824
-384.494
399.75
924.359
681.729
-374.116
-662.552
582.94
1072.48
-1655.42
-406.276
-363.111
769.387
417.742
-1662.13
1521.26
140.869
579.946
-1043.36
544.761
1083.84
-1555.61
993.942
-233.686
220.788
331.157
1906.48
443.483
-61.5725
995.847
722.75
-1718.6
-696.798
1085.26
-1557.46
159.941
-570.031
192.939
263.689
-676.752
-554.568
582.672
1034.47
-710.816
-261.579
-1368.31
673.927
694.384
-408.197
720.749
128.772
-849.521
562.213
-137.19
1557.41
-208.55
277.027
-777.138
-1934.27
1664.6
1019.96
311.72
293.974
490.417
-929.907
-994.79
-1767.26
632.791
1693.76
503.678
-474.627
1210.45
1087.04
-424.936
1029.29
-977.051
488.673
488.378
700.726
1047.9
-1748.63
480.104
486.387
-1493.9
-745.447
35.1772
777.716
-413.329
-887.125
379.062
-539.869
-801.207
574.354
-578.003
1397.26
1055.18
190.186
232.48
-550.67
1618.49
-775.006
1526.84
-1727.83
575.299
1152.54
539.011
-881.978
-1733.1
1916.76
-183.653
1721.73
176.79
-545.744
361.893
-267.445
-481.621
1210.82
568.273
1128.29
-491.164
423.981
856.037
-456.965
-770.985
432.329
338.655
1419.45
1089.54
-518.336
1422.86
-510.508
-533.055
1043.56
-602.812
525.084
-1241.06
1692.53
1839.57
-687.218
1586
-646.668
-1240.78
716.477
-562.858
197.045
-384.002
447.86
-237.59
-518.141
-1246.7
1870.95
-624.249
1173.26
-554.63
1120.25
-1659.43
1705.41
-573.987
-547.825
-549.845
1720.07
-316.192
-688.101
-473.418
1223.36
-1689.95
-1860.11
613.412
366.476
-970.71
163.056
208.873
-1719.02
1204.13
514.891
1162.84
558.888
-512.96
-465.441
1191.9
181.572
218.85
588.447
1251.12
-539.184
-1238.58
1777.76
-1025.27
999.984
866.783
-204.061
-1659.2
1702.62
-510.179
1411.1
-1733.1
-320.87
-33.0693
353.94
-255.434
583.102
-327.668
123.719
497.358
779.602
-381.282
1257.51
1270.62
-413.375
850.095
-438.422
1817.54
-662.487
1586.65
-1723.84
-412.823
-772.757
340.74
432.017
-561.055
-563.561
79.7449
-1138.59
-985.218
-670.313
1655.53
-943.699
-1189.47
198.653
-430.247
-647.384
705.726
1167.43
650.102
1410.27
-591.624
1636.72
1317.98
-574.711
-487.208
192.267
-503.323
1396.72
1239.96
-566.032
-999.981
890.793
58.8602
-949.654
603.413
-506.203
1403.39
1495.05
-588.945
-358.266
358.266
-589.579
1623.5
1239.18
-486.377
1134.13
-60.072
1856.67
-384.746
1489.46
-589.321
-507.697
1347.84
-650.457
1218.5
-568.044
1554.8
-591.881
765.952
572.035
-1337.99
-678.574
264.677
523.66
600.778
-1957.29
-1004.49
1586.65
362.294
-362.294
-61.3939
384.218
437.821
363.705
35.9208
-288.388
945.082
-545.556
-427.764
811.982
-239.308
616.74
-423.552
1560.49
-444.349
-883.981
180.577
224.719
-405.296
601.173
1250.76
-1851.94
925.47
-459.206
-348.73
126.148
-1943.05
1816.9
-447.16
175.167
1181.03
-440.503
-740.523
-293.424
-593.701
-495.466
-382.249
-475.251
256.828
1157.89
-563.066
231.069
-374.142
143.074
-22.8981
-107.682
1375.97
-1268.29
34.6203
-596.336
-586.492
-447.509
447.509
-1262.34
1985.09
-1344.32
-202.78
-1828.69
235.818
-1025.75
-974.243
-180.642
-1639.41
709.499
1229.32
-1925.02
363.978
315.808
-679.786
-1850.02
1234.27
615.753
-559.596
559.596
-958.937
-40.0008
-1866.13
-558.177
1650.83
-675.91
1636.19
-601.718
-186.892
-1711.47
-580.6
-478.783
-594.858
-462.187
462.187
-1537.81
194.528
1343.28
167.414
223.342
-390.755
512.464
455.742
995.847
-475.483
1751.29
768.364
-417.968
392.709
522.807
1702.07
-594.716
-552.987
1636.83
465.372
1812.81
-645.379
-1804.43
-1938.07
-647.085
-475.1
475.1
-584.903
212.252
-714.139
1018.42
-466.363
-1075.52
-290.698
1579.56
1852.29
1635.37
-1635.37
-318.526
739.413
1761.52
595.801
1275.15
168.101
206.382
607.753
596.508
1603.49
-1603.49
217.943
-357.404
-438.04
453.875
950.36
-461.687
-638.785
-1130.96
1706.26
276.399
-1674.74
629.949
-288.376
465.166
1744.65
-592.114
-213.194
-471.408
375.561
735.805
1738.58
-613.497
-511.788
-785.734
1960.54
-870.46
-1090.08
1642.72
-703.741
1223.96
-1824.96
600.998
373.981
-935.888
-185.196
-102.534
1097.51
-486.959
135.809
640.932
-1672.81
430.107
609.417
-1804.43
-583.294
1787.42
883.443
-1162.88
1760.5
-597.611
1783.83
-575.551
-1208.28
429.616
942.224
-1750.14
924.496
-1474.43
227.574
1246.85
-831.372
-1254.22
-373.993
73.7589
300.234
581.765
265.336
1033.03
-439.069
844.892
-405.823
820.284
741.359
-1561.64
644.445
1066.49
-24.0041
-661.795
685.799
-1744.45
722.996
708.306
150.544
-1122.61
1936.78
-674.564
-1262.21
-537.185
1665.47
837.52
967.078
-1804.6
1227.86
683.366
-407.433
708.519
869.171
1027.22
-587.352
1761.52
625.781
1773.56
-1185.59
-587.971
-427.766
-323.84
751.607
121.453
-1185.58
1660.53
-540.283
-1437.78
1437.78
1250.56
594.424
1351.41
206.573
-575.382
280.365
-185.421
699.152
1113.66
477.109
-295.537
-869.484
-575.304
1746.71
-1746.71
973.907
-973.907
987.337
1025.17
-2012.51
1837.96
-613.997
-581.122
854.319
-947.854
-1052.17
998.186
691.271
-1689.46
-512.962
-380.66
-660.712
-808.435
2042.7
-1246.41
-613.702
1002.98
974.858
1289.78
647
322.224
1012.69
263.859
340.533
1186.21
1756.89
-1756.89
671.484
79.5379
-385.462
-997.059
-539.995
1674.12
986.127
1013.87
-1833.3
-219.094