/*--------------------------------*- C++ -*----------------------------------*\
  =========                 |
  \\      /  F ield         | OpenFOAM: The Open Source CFD Toolbox
   \\    /   O peration     | Website:  https://openfoam.org
    \\  /    A nd           | Version:  7
     \\/     M anipulation  |
\*---------------------------------------------------------------------------*/
FoamFile
{
    version     2.0;
    format      ascii;
    class       volScalarField;
    location    "10";
    object      p;
}
// * * * * * * * * * * * * * * * * * * * * * * * * * * * * * * * * * * * * * //

dimensions      [0 2 -2 0 0 0 0];

internalField   nonuniform List<scalar> 
7724
(
0.455535
0.0305061
0.919617
0.571053
-0.00311572
-0.00013547
0.944531
-0.019438
-0.000423853
0.255549
-0.000128456
0.00875688
-0.0290846
0.130867
0.264954
-0.0368842
0.459921
-0.0381808
0.00455009
-0.159278
0.175408
0.0057457
0.0966899
0.477252
-0.0496389
0.488209
-0.00287422
0.159384
0.399676
0.00985902
-0.0517935
1.53752
0.0955551
-0.00175743
-0.00038604
0.210279
0.0110739
0.909271
-0.0161377
-0.00122385
-0.0146335
-0.0357804
-0.147378
-0.0287746
-0.000735706
-0.000302423
0.00568338
-0.01637
-0.000250333
-0.15522
0.0129985
0.151523
-0.0626901
-0.00254344
0.208835
-0.0173168
0.00496385
-0.0195142
-0.0799031
-0.0018422
0.000145609
0.0166621
0.131151
0.00963708
-0.00357161
-0.0504934
-0.000346858
1.58621e-05
0.165077
-0.0152329
-0.00027704
-0.131601
-0.0479426
-0.0819491
-0.0368391
-0.11419
0.898669
0.171537
0.157014
-0.150082
-0.0279145
0.857839
0.246743
-0.0850005
-0.00518209
-0.00832678
-0.02083
-0.0607749
-0.00238164
-0.0162988
0.409898
-0.0393702
-0.00048952
0.00467992
-0.0129718
-0.0837331
-0.125739
0.00468772
-0.00572801
-0.00427743
-0.141225
0.17174
-0.0123379
-7.33963e-05
-0.0249749
0.419143
1.31366
-0.01836
-2.33569e-06
0.091051
0.54012
-0.0855896
-5.32886e-06
0.0966201
0.420226
0.00169426
-0.0901433
0.33968
-0.0935493
-0.083386
-0.146724
0.820464
-0.138267
0.0370496
-0.143188
-0.00351832
-0.046106
0.0076387
-0.00376588
-0.0513788
-0.107439
0.158027
-0.00219631
-0.00280562
-0.0880143
0.526275
1.03935
-6.34256e-05
0.0288526
-0.184147
-0.0776333
-0.107851
-0.114717
-0.0784302
1.33139
-0.0364615
0.403817
-0.0766398
-0.107723
0.816667
0.200418
-0.0254889
-0.00533369
0.138434
0.245948
0.82989
-0.129637
-0.0289562
1.22621
-0.000226679
0.00244381
0.494057
-6.88793e-05
-0.0073764
-0.0146374
0.618356
0.620299
1.27569
-0.00843905
-0.0112542
1.77207e-05
-0.152524
0.00166113
0.0438959
0.0311966
-0.106081
0.00617641
0.293286
-0.000485235
-0.00180985
0.577404
-0.000225296
-0.000414534
0.943066
0.0202473
-0.0767708
-0.0877628
-0.0767703
-0.0446792
-0.180278
-7.53218e-05
-0.121094
0.299188
-0.0124633
0.000262964
0.406384
-0.00463327
-0.0482093
-0.044337
2.08927e-05
0.00359735
0.542238
0.351502
0.84557
-0.0785817
-0.074224
-0.149393
0.173065
0.537587
-0.000786499
0.000128512
1.24369
-0.0316354
-0.00230045
-0.115632
-0.0482337
0.74802
0.771014
-0.116941
1.45434
-0.00428933
-0.0377179
-0.144842
0.208523
-0.180008
0.37321
1.23147
0.000227733
0.0388774
0.361058
-0.0153363
0.331784
-0.00202623
1.3768
0.815659
-0.0207266
0.0107586
-0.0011376
0.241711
-0.000354357
-0.0227041
-0.172111
-0.000277053
-0.00496864
-0.00160966
0.354583
-6.94926e-05
-0.0169368
-0.145494
1.53451
0.142461
1.33525
-0.000168048
-0.0506509
-0.000706958
0.87156
0.0160737
1.0429
0.00593787
0.00308691
0.0280183
0.180214
0.00227949
-0.000855459
0.00203338
-0.0160957
-0.0732649
-0.000156935
-0.125249
-0.0139387
-0.000537162
-0.00240166
0.983719
-0.0289466
-0.00291693
1.44952
-0.00548462
0.511732
-0.000787847
0.0051208
2.88997e-05
-0.084666
0.200706
0.0194889
-0.0802423
-0.00154726
-0.142266
-0.0567727
-0.00068371
0.00195955
-0.00819072
-0.0278498
0.0116547
-0.00458622
-0.0812339
-0.0619855
-0.0802891
-0.00790335
-0.10133
0.772305
0.807492
-0.00572892
-0.0264358
-2.7783e-05
-0.00876092
-0.0848826
0.464236
0.273858
0.000365184
-0.00802495
-0.0985869
0.385058
-0.0037993
0.0142573
0.00488307
0.129813
-0.11969
0.666047
-0.00616985
0.029313
-0.000435861
0.0162367
-0.000201178
-0.0614693
-0.00130982
0.0197366
-0.0687108
-0.0985928
0.00994264
0.0345659
-0.00282153
0.0806665
-0.0257801
0.197854
0.364611
-0.18523
-0.0404375
-0.058563
0.0204279
-0.167253
1.30916
-0.0303918
0.117991
1.42136
-0.0059448
-0.00669567
-0.0387834
-0.00405528
-0.0289298
0.025284
-0.0106643
-0.00795868
0.378806
-0.00025859
0.00217773
0.000294085
-0.0130202
-0.0262753
-3.33742e-05
-0.00424057
-0.0765405
1.23338
0.0128153
-0.0311265
1.13903
0.712244
0.175654
-0.00817137
-0.154675
0.0195459
0.595348
-0.041096
0.615504
-0.0528407
-0.147602
0.365148
0.610597
-0.118966
0.258865
0.350501
0.546709
0.170151
-0.0117404
-0.0162137
-0.000340814
0.016889
-0.0419752
0.00408848
-0.000412696
-0.00617137
-0.143696
0.197525
-0.0614209
-0.00897788
-0.0145391
0.0227414
-0.0266149
0.00729025
0.312526
-0.00725465
-8.53498e-05
-0.000209276
0.000182772
-0.0740267
0.36872
-0.0153266
0.10818
-0.187716
0.893819
0.0130519
0.0264164
-0.0196368
0.949212
-0.00409507
0.649551
0.412172
-0.00044975
-0.0584205
-0.0126346
-0.102744
0.00223949
0.193039
0.0141724
0.0245866
-0.00329668
0.325355
0.394798
-0.0884815
-0.0761927
-0.00865529
-0.0502518
0.139308
1.51017
-0.0638801
0.0180308
-3.37082e-06
-0.0483707
-0.00870494
0.0738377
-0.160758
-0.0422716
0.974318
0.3566
-0.129509
0.419639
0.932391
0.105038
0.00497129
0.6047
-0.00341114
-0.000704323
-0.0628272
0.000331631
-0.165124
0.000487487
-0.0777488
0.00767743
0.423701
-0.00687322
-9.31692e-05
-0.160225
0.00692929
0.100446
-0.135883
-0.179098
0.0198603
0.364798
0.302835
0.310932
-0.00078944
0.178589
0.212568
-0.00202348
-0.0592146
0.00240063
0.0241566
-0.00539388
0.0187783
-0.00299114
0.243064
-7.55715e-05
0.000769843
0.0078503
-0.0763243
0.0801158
-0.0739468
-0.0901068
-0.0699586
-0.186142
0.0342187
0.581398
-0.0420191
-0.0250379
1.39574
-0.122879
-0.027601
-0.0890379
-0.0210164
-0.0719999
-0.0372939
0.107996
-0.0431265
-0.000100513
0.0950296
-0.000372775
0.798836
0.16881
-0.0183352
-0.0502517
-0.000725928
0.862917
0.681785
0.150708
0.232779
-0.128757
1.07829
-0.00024178
0.0758223
-0.063969
0.313913
1.28908
0.120486
0.346793
-0.00614044
-0.000787688
0.212506
-0.0838911
0.903065
0.10568
0.510942
-0.0262915
0.921036
0.65101
-0.0332735
-0.0282153
0.187714
-0.183267
-0.000322693
-0.046412
-0.175452
-0.129184
0.0430942
0.0355723
-0.000472288
0.678211
-0.00327794
-0.000398582
-0.0521814
-0.00187842
-0.000861276
0.0139259
0.47326
-0.145112
1.19444
0.000237576
0.458485
-0.0439703
-0.000286831
6.94841e-05
0.394509
0.466663
-0.0152015
0.434973
9.92061e-05
0.456002
-0.183086
-0.0347399
0.982251
-0.111171
0.222046
-0.0853807
0.446698
0.454468
-0.0571845
-0.0721892
-0.0216066
-0.0105992
-0.000773049
-0.00380005
0.584956
-0.000105047
0.444374
-0.134695
0.766406
0.425179
-0.179533
1.14732
-0.00598125
0.0221917
-0.066209
-0.0689655
-0.0238713
-0.0518269
0.110383
1.37273
0.000164261
-0.00706754
-0.0866503
2.30928e-05
0.8082
0.00705798
2.22329e-05
0.000741088
0.00145262
-0.0590329
0.0716412
-0.00569051
-0.000332704
-0.0252546
0.0104463
-0.179641
-0.165338
0.0811024
-8.32041e-05
-0.193585
-0.0452766
0.213355
0.763555
0.00455645
0.239517
0.000579626
-0.0434823
0.232238
-0.023895
0.492814
-0.0444979
0.0850808
0.240825
0.34704
0.0176785
-0.03566
0.37033
-0.15103
0.882229
-0.0320898
0.517179
-0.0319735
-0.00427676
0.331565
0.0087252
0.227438
0.00729301
1.95016e-05
-0.189845
0.3073
0.00554394
0.213375
-0.042231
-0.199804
0.0280837
-0.0766256
-0.00612413
-0.0302164
-0.140564
-0.0917673
-0.0336364
-0.000557125
0.934963
0.236709
0.107656
-0.000735678
0.654906
1.55301e-05
-0.000675033
0.260974
0.00787654
0.2798
0.157429
0.0632548
-0.0362416
-0.170399
0.0168697
0.00497558
-0.1323
-7.07248e-05
0.0145526
0.473881
-0.0544829
-0.010233
-0.019014
-0.00717172
-0.00150832
1.41873
-0.0339157
-0.0020372
-2.13942e-05
0.332482
-0.0945573
-0.00120523
-0.0100866
0.383095
0.216063
-0.117901
5.4978e-06
0.420747
-0.0533124
0.408729
0.0602069
0.0738119
-0.0967765
-0.000353326
0.235243
0.197139
0.0630285
-0.120974
0.592625
0.0227089
0.353624
-0.00858208
-0.0520855
-0.00145197
-0.00368028
-0.000397801
0.375097
0.434784
-0.00540967
0.0705116
-0.0577739
-0.0937707
-0.108755
-0.00680271
0.0703475
1.35889
0.0477733
-0.000199772
0.214135
-0.0132302
1.14775
-0.0419864
-0.0369744
-0.00161071
-0.042554
-0.0218563
-0.0268772
-0.0114843
0.00580201
0.0954152
0.000388937
-0.156052
0.0158503
0.744764
-0.113212
0.301557
0.00768068
-0.056757
-0.0359523
0.488227
-0.0253492
0.000391769
-0.0519406
-0.0187092
0.0767332
-0.0874045
-0.0750942
0.00729765
-0.0492076
-0.0118643
-0.135334
2.03995e-05
0.127624
-0.119576
0.268751
-0.0532794
0.226162
-0.132205
0.631646
0.0290982
-0.0998815
-0.0355965
1.21725
-0.134786
-0.0439359
-0.173961
-0.062385
-0.150656
-0.0821029
0.358943
-0.0101726
0.580155
0.0321506
-0.00142622
-0.00432455
0.191626
1.54808
0.00417503
-0.0433071
0.401128
8.32964e-05
-0.0690109
0.098799
0.0303836
0.0325677
-0.00582528
-0.084811
-0.0105639
0.000107689
-0.105644
0.531482
0.0147124
-0.0556646
0.00706165
0.400217
-0.00138693
-0.0045643
-0.00132844
-0.00280973
0.0909827
0.0177246
0.0124406
-0.0596858
0.000167817
-0.153226
-0.0662887
-0.171014
-0.0454208
0.0538161
-0.000783245
-0.0425894
-0.142574
0.0726515
0.774724
-0.00455151
-0.15835
-0.0172931
0.0349598
0.307274
0.00161034
-0.000574479
0.197719
0.0546762
0.0554497
-0.0108892
-0.00764693
-0.130242
-0.000655085
0.0050179
-0.0449806
0.668857
0.521402
-0.0462537
-0.114204
0.026809
0.0183084
0.0430973
-0.129175
-0.0257126
-1.65471e-06
0.0350809
-0.0814403
-0.142259
0.0205277
-0.127603
-0.00147249
-0.0109566
0.433063
-0.0927449
-1.53643e-05
-0.0103023
-0.111676
-0.000614355
-0.0330977
-0.000185438
0.0154582
-0.174135
-0.0492798
-8.00286e-05
0.000112771
0.290293
-0.0909552
0.872829
0.501916
0.0294481
-0.0021195
-0.0290008
0.000799779
-0.114989
-0.135028
0.0115141
-0.0540905
0.453744
0.031774
0.00099034
0.0230547
-0.152072
0.00727782
-0.041117
-0.137796
0.0100697
0.0588535
0.169021
0.0314261
-0.0733776
-0.0805359
0.419029
-0.0496345
-1.13614e-06
-0.150516
-0.153095
-0.0587486
0.0162116
0.0027817
0.0306985
-0.167026
0.0868103
-0.0881799
0.256371
-0.0677336
0.0222201
0.0518492
0.0475347
-0.0896161
-0.124527
-0.000384682
0.32894
0.459358
0.0212036
0.333625
-0.12004
0.117963
-0.0899632
0.441231
0.234637
1.33809
1.55061e-05
0.23171
0.384774
0.0393576
-0.00417927
-0.0468713
0.0115051
0.000156422
-0.0467018
-0.101344
-0.0513194
-0.0563799
0.000465359
-0.086889
-0.00105082
-0.00248897
0.527252
0.0187241
0.118322
0.0554355
0.454528
0.0322391
-0.00112202
-0.125988
0.0229721
0.81979
0.00358558
-0.107372
-0.000632897
-0.00155052
0.0212203
-0.0773248
-9.01514e-05
-0.0280011
0.0778563
-0.0054924
0.000112411
-0.000132996
0.33767
-0.0251254
0.0189503
-0.00312585
0.0239906
0.0416231
0.0239273
-0.00082248
0.672657
-0.104276
0.482723
0.576694
-0.000597945
0.105414
0.242237
-0.00215522
-0.000753939
-0.0012082
0.0256808
0.0465043
-0.0218699
-0.0429839
-0.138598
0.376041
-0.135427
3.55614e-05
-0.0494244
-0.0456827
-0.0901537
-0.0117322
0.01655
0.00348736
0.0734586
-0.00143972
-0.000653792
-0.0439833
-0.0117372
-0.0631365
-4.40751e-05
-0.0379298
0.0882739
-0.00642337
-0.0288433
-0.0224135
-0.0302013
-0.0236256
-0.0141139
0.029138
-0.0243848
-0.000294497
-0.00111145
0.0622072
-0.0313686
-0.0134198
0.0230513
0.00906312
-0.201174
-0.0285256
0.34585
-0.0322407
-0.125957
-0.0589266
-0.0574974
-0.0398158
-0.0101885
0.00613001
-0.00956189
-0.0355464
-0.041128
0.405573
0.316159
0.128328
0.756311
-0.00020293
-0.00865276
-0.0419054
-0.0210155
0.195088
-0.0515084
0.125134
-0.0111781
0.422717
-0.00522464
-0.00437145
0.0495494
-0.036906
-0.00060781
-0.0498271
-0.0158969
-0.0530309
-5.52529e-05
-0.01785
0.00549761
-0.0445892
0.0921827
0.0899814
0.0492867
-0.0358178
-0.079277
0.262946
-0.0034351
-0.00532665
-0.00573045
1.12438
-0.000250002
0.173858
-0.0540055
-0.0519402
-0.0670192
-0.096292
-0.0725774
-0.0860228
-0.0462
-0.0124536
-0.000270615
-0.0115182
-0.0549828
0.229694
0.00464584
0.268019
-0.0827754
-0.0338729
-0.00250583
-0.0727458
-0.000285078
0.328962
-0.0760672
-0.0661428
-0.060299
-0.0101625
-0.0809047
-0.00460073
-0.101902
0.235029
-0.0653175
-0.147038
-0.00396721
-0.0682831
-0.0469154
0.039922
-0.00873146
0.316029
-0.0065102
-0.0486077
-0.00181883
0.352897
-0.0977346
-0.0669056
-0.00874642
-0.0252199
-0.00741453
0.375742
0.0459359
0.331619
-0.0126637
-0.00221168
-0.00341916
-0.00624308
0.29744
-0.148136
-0.0183456
0.000915822
-0.0175454
-0.0175869
-0.00242275
-0.0296497
-0.040007
0.139718
-0.0133723
0.0142059
1.11946
-0.152213
-0.073006
-0.1422
9.59389e-05
0.179577
-0.0095657
-0.0680464
-0.0151207
-0.0896659
0.012063
-0.00143454
-0.00782537
0.00879769
0.436475
-0.0157236
-0.00481511
-0.0125467
-0.126436
-0.0223139
-0.0564678
0.0118203
-0.0233533
-0.0239937
-0.00884469
0.443704
-0.115166
0.00874567
-0.0113436
-0.0698701
-0.0368574
-0.123607
-0.00376796
0.214153
0.0599368
-0.0210715
-0.00464078
-0.0357625
1.1529
0.439566
-0.0299635
-0.00156433
-0.00641488
0.0176467
-0.0107395
0.0544355
-0.0011166
-0.0358705
-0.00534268
-0.0443253
-0.080376
-0.00285147
-0.0272916
-0.00366995
0.69256
-0.0172813
-0.0309642
-0.00546835
-0.00524185
-0.0758798
0.108472
0.998247
-0.0285391
-0.0301877
-0.00571678
-0.00124957
4.81823e-06
-1.06878e-05
-0.0269406
-0.00177405
0.223993
-0.00181475
-0.00489977
0.0219022
-0.000694669
-0.110805
-0.119191
0.0446636
0.0987007
0.0669047
0.0935859
-0.0712863
0.211018
0.165301
0.222642
0.276599
-0.0341827
-0.00234011
-0.0151824
-0.132822
-0.00945926
-0.03944
0.0757943
0.640398
-0.104787
-0.00130873
-8.07673e-05
-0.0039591
-4.76282e-07
0.0251084
-0.00149026
-0.0119702
-0.119014
0.00146704
0.00724875
-0.00058414
0.158745
-0.0404883
-0.0510632
-0.00323631
0.71586
0.496301
-0.0267107
-0.122091
-0.070839
-0.0620365
-0.0378304
-0.00502711
-0.15001
-0.0658464
-0.103354
-0.0691595
-0.000134634
0.39626
-0.0243822
-0.0256472
-0.0594686
0.0488938
-0.00142966
-0.0223211
-0.00368409
0.0360674
-0.00401809
0.326364
0.000946409
0.0264934
-0.00111516
-0.104823
0.0236774
-0.00202805
0.0353846
0.00109885
0.0635234
0.259113
0.00528003
-0.00389809
-0.000339017
-0.00153728
-0.00136346
-0.14998
0.281419
0.0524134
-0.000722415
0.0255469
-0.00122947
0.497134
-0.146868
0.507833
-0.107076
-0.00121836
-0.000774947
-0.0195188
-0.0150849
-0.00170135
-4.98654e-05
0.0650909
0.0742927
-0.000633669
-0.000893649
-0.0509702
-6.00276e-05
0.370635
-0.00254317
-0.129772
-0.0491904
-0.016976
-0.135956
-0.14834
0.335771
-0.0321305
-0.0522404
-0.000856313
-0.139028
-0.0531897
0.0448699
0.186655
0.758785
-0.00316423
-0.145516
0.0361943
0.627017
0.0991976
-0.000323178
-0.0161302
-0.0108892
-0.0132724
-0.118363
0.20867
0.000476787
0.0530928
0.00816403
0.179063
-0.00140755
-0.000329479
-0.097857
0.565915
-0.134017
0.306731
-0.00330661
-0.000539342
-6.59509e-06
-0.137112
-0.103521
-0.000919356
0.231481
0.0293261
-0.0142771
0.929233
-0.00105997
-0.00987753
-0.143093
-0.0400399
-0.0061095
0.302378
-0.107248
-0.000447654
0.0357893
-0.000473893
-0.000272627
0.304571
0.0104069
-0.00121763
-0.127029
-0.062678
-0.00932622
-0.0481224
0.00647429
-0.0582246
0.00458157
-0.00934799
-0.157025
-0.0944017
0.0550553
-0.00243439
0.342886
0.454564
-0.135752
0.0261927
0.0495948
-0.0114736
0.366769
0.238435
-0.0710394
-0.000434748
0.0266103
-0.135732
0.0350826
-0.0694968
-0.00559873
0.112921
-0.0696472
-0.000370598
-0.000198857
-0.0568529
-0.06134
-0.065919
0.0258855
0.0392944
-0.108646
-0.000409988
-0.00369451
-0.000562518
-0.0789774
-6.31696e-05
-0.00516383
-0.0859668
-0.164376
0.210198
-0.00794445
0.0111344
-0.0538857
-0.0645509
-0.000346306
-0.114307
0.18928
0.34846
6.31213e-05
-0.000301655
0.354602
-0.00668175
-0.157699
-0.100111
0.00901984
0.00129476
-0.168166
-0.0228678
0.362874
-0.13886
-0.00395156
-0.0217396
-0.124493
-0.00153219
-0.000644876
-0.00245273
0.00395708
-0.125789
0.277066
-0.000562148
1.169
0.00180267
0.000305876
-0.00257375
0.000661026
0.000758728
-3.78357e-05
0.000360313
-0.130114
-0.00193021
0.00114922
-0.000530521
0.314521
-0.0152106
-0.000516752
-0.000120593
0.710044
-0.0546967
-0.0352173
0.00312995
-0.00189792
0.143709
-0.000264283
-0.0305105
-0.15235
0.00588323
-0.0165682
-0.000260987
-0.000542835
-0.0764739
-0.117336
0.0191769
-0.142894
-0.0872607
-7.50674e-05
0.0546227
0.0819972
0.249743
-0.00460352
-0.000419695
-0.137089
-0.0161833
-0.00133472
-0.121183
-0.000369011
0.102754
-0.000243203
-0.00341195
0.0296651
-0.0054756
-0.143059
1.04711
-0.00432105
0.000728467
-0.128428
-0.11595
0.0243811
0.0124964
-0.000406269
-0.0784375
-0.000227496
0.430667
1.45214
0.17076
0.00814267
0.00965075
-4.93535e-05
-0.0695995
-0.000155275
-0.0169801
-0.00451062
0.000975618
-0.00892924
-0.0242388
-0.000331073
0.00233509
-0.020031
-0.000838095
-0.0250462
-0.04214
-0.00684165
-0.00297567
1.28561
-0.00183712
0.00657022
0.000641536
0.0360308
-0.122378
0.0254963
-0.000469925
-0.000269313
0.0070784
-0.000294509
-7.86995e-05
-0.0291512
0.0018486
-6.43609e-05
-0.124997
-0.00582501
-0.138475
-0.00436753
-0.000183596
-0.00829325
-0.013167
-0.038046
-0.0529439
0.0062246
0.00137202
-0.00123821
-0.00526292
-0.000213088
0.598038
0.00418025
-5.20817e-05
0.00156568
-0.00533475
-0.000947086
-0.155776
-0.134212
-0.000351095
-0.0184812
3.56718e-05
-0.00675183
-0.00019793
0.0888912
-0.000374058
-0.000503534
-0.00904103
-6.26809e-05
0.0352175
-0.000592556
-0.00337056
0.0485114
3.2322e-05
0.830674
-0.130969
-0.102871
-6.72057e-05
-5.58963e-05
0.0052205
-0.0031587
-0.122207
-4.45775e-05
-5.67671e-06
0.00199314
-8.26555e-06
0.0009999
0.00119125
-0.00121951
0.00208905
-0.129281
1.06808
-0.0773406
0.721916
0.0238207
-0.0416923
-4.86325e-05
-0.00232972
-0.031773
0.000374244
0.000748452
0.000443797
0.146746
-0.00349809
-0.00058262
1.13369
-0.00141783
0.00156164
0.00133507
-1.24893e-05
0.0603021
-0.00568135
0.00302317
0.000323594
-0.00138096
-0.000183505
-0.00238529
-0.108043
-0.00110732
-0.00408258
-4.42508e-06
0.000127805
-0.000683004
0.421681
-0.00117335
-0.000723513
-0.169968
0.00997697
-0.000225797
-0.00354823
-0.000163791
0.386293
-0.177165
-0.000784467
-0.00102746
-0.00481245
-0.000416918
0.141578
0.254896
0.0904254
0.00135286
-1.80969e-05
-2.69718e-06
0.142361
0.000667123
-0.149663
-0.0525603
-0.0404433
-0.0182491
1.28955
0.00526592
0.405804
-0.0374216
-0.073092
0.393214
-0.000942891
-0.160313
-3.29522e-05
-0.0234719
-0.122029
0.000145306
-0.112585
-0.00250981
-0.00506042
-0.0137349
-0.10674
-0.105302
-0.00790204
-0.145757
-0.110081
-0.000495702
-0.0314304
-0.000136157
-0.0936987
-7.38717e-05
-0.000492461
0.0559364
0.372512
-8.99108e-08
-0.112275
0.00950044
0.000202539
-0.0521004
1.54154e-05
-0.0354719
-0.000689698
-0.0963374
0.00032637
-0.000231714
-0.00527396
-0.00013002
0.364156
-0.0764869
0.169863
-8.04011e-05
0.00166328
-0.0817704
2.00706e-06
-0.140316
-0.162758
-0.137639
1.18086
-0.0169366
-4.59746e-05
0.0672076
-0.103776
-0.00648632
-6.46312e-05
-0.000227416
-0.117546
0.000330004
0.00232071
-1.27824e-06
0.000415847
-0.0708884
0.184661
-0.106096
0.228527
-0.0139659
-3.47595e-06
0.0175401
-0.116551
-5.52933e-05
-3.56719e-05
0.000847686
0.000169751
0.00107273
0.37125
0.0905479
0.000149169
2.87815e-05
-0.163448
0.455036
0.400263
-0.000115657
-0.0905134
-0.0477559
-0.0258267
-0.119288
-0.0212139
-0.00757414
0.325235
-0.000109798
-0.0665114
0.384248
-0.120939
-4.61378e-05
-0.152168
-0.000457405
0.511937
0.0741583
-3.74649e-05
-7.2545e-05
0.414726
9.32334e-06
-0.00046427
-0.0303129
3.38365e-05
0.523565
0.00913197
-0.0190202
-0.160643
-0.00979667
-0.159631
0.417348
-0.0221678
-0.0251775
0.00261342
-5.10674e-05
-0.00264946
-2.13263e-05
-4.20457e-05
0.06914
0.411347
0.344328
-0.00114484
0.554046
-0.0266369
1.99929e-05
-0.11399
-4.74495e-05
-0.0699125
0.0767715
-0.0358896
0.0116146
0.00495515
-0.0240572
0.000645491
-0.00432342
0.0528068
-0.00750089
-0.000126273
7.80861e-05
-0.000162597
0.0800456
0.000146736
-0.0536393
0.588762
-0.015562
0.000134541
-0.0089731
-2.65477e-05
0.157412
-0.000921203
-0.000173
-0.000222032
-3.35559e-05
0.477937
-0.000388607
0.504107
-0.14972
0.000287655
-0.124569
-0.00125453
0.358643
1.16363
-0.00364671
6.32227e-06
4.22226e-05
-5.47656e-05
0.300737
1.74851e-06
0.00277319
-0.0613782
0.485504
1.73297e-05
3.97982e-05
7.74986e-06
6.54127e-05
-0.0520875
4.60399e-06
0.446291
-0.0397281
-0.000325179
7.79324e-05
-0.00534366
-0.0730627
3.81219e-06
-0.000148645
0.37762
8.86515e-05
-0.079891
-0.0958768
0.000344592
2.21063e-06
-0.183807
3.32119e-06
0.369981
3.90237e-05
-0.00115649
3.02298e-05
-0.000455595
0.221414
8.26655e-06
-0.00421612
2.13628e-05
0.0357472
-0.00875633
-0.0164886
0.00263293
0.35246
-0.000694417
-0.000210865
-0.0228097
-0.0220499
-0.000635744
-0.000136146
-0.0023275
0.000106346
0.323257
-0.0256934
1.1241
-1.44256e-06
-0.0196998
-0.000410037
0.299272
0.000150971
-0.0655067
6.17238e-05
-0.00408421
-0.083377
-0.000594974
-0.0399915
-0.122078
0.013225
-2.39094e-05
-0.127477
-0.000853885
-0.000764943
-0.0142844
-0.0294376
0.00344021
-0.000131353
-0.00112975
-0.00226708
-0.00331613
3.42934e-05
-0.00313253
1.12286
0.000255578
-0.00838934
-0.0870412
-0.180492
-0.155496
-0.118614
-0.0547043
-0.00133485
-0.0347336
0.000203767
-0.000213326
1.11296
-0.000245858
0.375306
-0.00115363
0.00103251
-0.00293388
-0.107369
-0.00108358
0.00191365
-3.95857e-05
-0.00101762
-4.10114e-05
-0.000208242
-0.0380606
-0.00028356
-6.97205e-05
-0.000217279
0.000371832
-2.66641e-05
-0.10485
0.393909
-2.50694e-05
-0.00153339
7.17983e-05
8.11308e-05
-0.00214573
2.37936e-05
-0.002328
0.000732194
-0.000947999
-0.158066
-0.00176662
-0.00465745
1.26482e-05
-0.00388841
0.000874397
-3.91098e-05
-2.47385e-05
3.50658e-05
-0.00204017
0.00139257
-0.109202
-0.0658584
-0.159919
0.00172572
-0.00460224
-0.00598051
-0.161205
-0.000245055
0.0413517
0.0177048
-0.00265775
-0.0300525
-0.138927
0.981536
-0.00108357
-3.82535e-05
0.00235816
0.000130054
4.61646e-05
0.178312
0.00951831
0.206946
-0.0836223
0.965936
-0.00133025
5.70481e-06
0.000387483
-4.68649e-05
-0.00348708
0.339717
0.496005
-1.35256e-05
-0.00043361
-4.51938e-05
0.471182
0.0516656
-0.0127499
3.05708e-05
5.05316e-05
0.0188585
-0.00177748
-0.172927
-0.0420048
6.3358e-05
0.00907054
-0.075396
-0.000157255
0.00483076
-0.0001748
-0.1132
-0.00454824
0.328368
4.34263e-05
0.00439852
5.27071e-05
3.89068e-05
0.00044289
-0.0574369
3.82764e-05
-0.00233371
5.92765e-05
-0.0491704
-0.112769
-0.0074805
-0.0163854
-0.021837
0.0236942
-0.0221283
-0.0063721
0.000177918
0.000268267
5.36169e-05
4.66714e-05
-0.000147006
0.0231058
-0.135478
0.00127035
-0.0948824
-0.00788296
-0.113566
0.000229361
-6.87909e-06
0.00343244
-0.0698273
4.73784e-05
-0.0960928
-0.0363943
0.0421943
-0.0929682
6.97464e-05
-0.00874792
0.00049939
-0.156294
0.306289
2.9795e-05
-0.143841
-0.0542642
-0.0107565
0.000100011
-2.15611e-05
0.073858
-0.0416406
6.29445e-05
-0.0171658
-1.21228e-05
0.000555219
0.283928
-2.10985e-05
7.84718e-06
-0.000218011
9.08684e-05
0.00236572
0.000228609
-0.0131857
0.000601061
-0.0315435
0.00289963
-0.000534029
-0.07528
-0.104561
-0.0159126
-3.90816e-05
5.6217e-05
-0.132436
0.0148743
-0.11636
7.55291e-05
-0.0131079
-9.30236e-05
6.41112e-05
0.174632
-0.0176394
-0.00709839
-3.40341e-06
-0.0437275
0.000130532
-0.162356
7.0637e-05
-0.183323
4.90019e-05
-1.5007e-05
0.000222673
0.0026747
-0.113806
-0.0451778
-0.166405
4.18664e-05
0.000238927
-0.187004
-0.0547508
-0.0212332
-1.18126e-05
-0.0390457
-0.119072
-0.189894
8.93587e-06
-1.91816e-05
1.14571e-05
-0.121192
-0.159608
0.00189553
-0.0276466
-0.000146017
0.388259
0.000243974
3.77146e-05
0.000384489
-2.25577e-05
-2.11686e-05
-0.00915743
0.000290474
-0.00640981
-0.152407
-0.0326587
-0.143439
0.00010344
-0.00013304
0.13045
-0.0953664
-0.0119034
0.258994
1.19244e-05
-3.39684e-05
-3.08546e-05
0.227763
0.000444534
-9.52176e-06
-1.18607e-05
-0.135538
-0.0385494
1.48774e-05
0.000196786
-0.0231728
-0.0160739
0.00110832
0.501265
-0.137255
0.000607647
1.46718
-4.78857e-05
-0.00174671
-0.0203111
-0.192156
1.66943e-05
-6.55364e-06
5.60861e-05
0.0123397
-0.0746021
-0.000864251
-0.119393
-0.0194005
7.0741e-05
-1.15479e-05
-0.0253801
0.000592284
0.00334804
-0.0876478
-0.11171
-0.0951923
0.0354095
-0.0651499
-0.000163904
0.000906691
0.0354474
0.00139064
-0.000202842
0.00199593
8.03783e-05
-0.000240309
-0.030136
-3.03478e-05
-7.38716e-05
0.0964512
-0.0185053
-0.000411464
-0.000110172
-1.37948e-05
0.549213
-0.0166074
0.00205846
-0.0681041
0.000587103
0.000509953
0.000436328
-0.0001262
0.00123742
-0.0919007
0.0458919
-2.3056e-05
-0.00041503
-0.0994991
-0.0743973
0.117137
-0.00123733
0.00481447
0.0450167
4.76457e-06
0.000153755
-0.1065
5.77559e-05
0.366799
2.24809e-05
0.0107965
0.000425169
0.000574091
-0.172058
-0.0183948
-0.044215
-0.00609824
6.90766e-05
0.0174636
0.146556
-0.0305524
-0.000341366
0.220686
0.360434
9.1534e-06
-0.126942
-0.000172592
-2.58571e-05
-0.000115108
-0.00142364
0.0496215
-1.3934e-05
0.000634162
-0.0606484
-0.0634459
-0.0546167
0.690852
4.59531e-05
-0.000179096
0.37739
-0.0065173
-0.00953283
-0.00164379
0.372704
0.000114675
-0.000785167
0.000116877
6.93025e-05
8.24851e-05
9.42527e-05
0.000190103
-0.0442529
2.14414e-05
-0.00831458
-0.109617
0.507939
-0.000353582
-0.000128324
0.0120833
0.199636
-0.103253
-0.00190205
-0.171919
0.682434
0.000112422
0.900975
-1.08388e-05
0.00855842
0.0609457
0.00111221
0.987332
-3.8739e-05
-1.49448e-05
0.00305092
8.09237e-05
-0.00218487
0.000671757
2.9094e-05
-0.00497099
2.61191e-05
-0.000366128
-0.00833179
0.53405
0.127529
0.0551853
-0.108117
-1.26527e-05
-4.66413e-05
0.00868322
-0.124474
-2.45384e-05
-0.114966
-0.000138887
0.240307
0.147701
-0.0799315
-0.00342552
-0.0286461
-0.00248037
-0.0369411
0.0111707
-0.0179945
0.153952
5.56666e-06
0.444433
0.0970332
-0.00142917
0.460101
-0.0333448
-3.15649e-05
6.00157e-05
0.000174195
-0.000539991
-0.000302254
0.541173
-0.00249154
0.553986
-0.00261394
0.368219
0.478401
0.242949
-0.0176725
-1.29719e-05
0.000156258
-0.0265203
-0.187145
-0.116976
0.0038853
5.16625e-05
-0.0945555
-0.000756303
1.00251e-05
0.00262907
-0.00271999
-0.00153436
0.0825758
0.000195817
-0.120221
0.141801
0.000151138
0.0006864
-0.0343428
-0.135794
-0.00185287
-0.00131407
3.29356e-05
0.000637268
0.179173
-0.0415982
-0.115352
0.00340423
0.213709
-0.0954932
9.10327e-05
5.90687e-05
0.0694452
-0.000234045
0.188988
0.00642522
-0.0339724
-0.000974926
0.00429247
-0.087931
-9.63057e-05
0.00125661
0.012321
-0.182305
0.320481
-0.15459
-0.0665963
-0.000417777
-0.000117844
0.0171155
0.000120885
-0.185146
-0.160187
0.00144045
0.0086951
0.00973467
-0.175387
0.0016296
0.000486145
9.801e-05
-0.100894
7.49092e-05
0.00142876
0.279682
0.400202
-0.187128
0.119214
0.118766
0.0655681
-0.000402084
0.0317706
0.000315353
2.3098e-05
-0.000183384
-1.32597e-06
7.11189e-05
-0.000911802
-0.0192576
-0.0933186
-0.0245699
-0.0691033
0.130026
0.108473
0.0104351
-0.153697
0.000409006
0.011915
0.0285225
-0.000992564
0.181323
-0.00299646
-0.0272414
0.0314244
0.0140442
0.00271708
-0.0101939
0.109364
0.00214857
-0.0492976
-0.0410354
1.18359
-0.0608731
0.194066
0.0754792
-0.0882058
0.00577323
0.000256847
-0.0065855
0.000143106
-0.00671164
-0.0626499
-0.000179919
-0.000114054
0.552196
-0.00832413
-0.103977
-0.0472685
0.000527788
-0.00345673
-5.90503e-05
2.04944e-05
0.0987695
0.000105116
-0.00747157
0.183672
0.0159526
0.00289694
0.0468751
-0.0145799
0.0107971
-0.170789
0.00225988
-0.0112532
-0.138378
-0.00216426
-0.0204638
0.00200734
0.00346527
0.0025737
0.0963366
-0.000785043
0.014468
-0.135222
-0.0514304
0.000819923
-0.134944
-0.0376356
-0.0433602
0.000276396
0.0169903
-0.156636
-0.00212952
-0.0121952
-0.1257
0.00139573
-0.0030028
0.482337
-0.050531
-0.00010425
0.0211823
-0.120783
-0.00268062
0.434288
-0.00532302
0.00264386
0.143005
-0.00363772
0.0210143
0.292124
0.00018557
0.00304033
0.000453574
8.83421e-05
-0.0113043
-0.0173448
-0.000320323
-0.0604817
0.231662
-0.0938199
-0.162472
0.00301882
-0.00826959
-0.00146664
-0.0822514
6.52029e-05
0.0454917
0.000108111
-0.0400309
-0.00497437
-0.0125026
-0.0169105
0.268778
-0.172223
-0.000137041
0.417525
-0.00481293
-0.00595628
-0.148378
-0.178127
-0.0389947
-7.65966e-05
-0.00272613
0.0185649
-0.00781218
-0.0120041
0.00115606
0.205727
-0.102054
-0.0280705
-0.0168451
0.0658414
-0.00491227
-0.00149417
0.00442144
2.43639e-05
-0.00782848
0.263568
0.00207875
-0.18697
-0.000143057
-0.0185475
-0.00846176
-0.187382
-0.0289087
-0.20827
-0.00016582
-0.000160601
-0.00851144
0.0266604
0.00475616
-0.221787
0.206799
-0.119273
0.000477021
-0.233546
3.58628e-05
-0.235889
-0.0635438
-0.235948
-0.228586
-0.213908
-0.162961
-0.0667743
-0.0299446
0.00458068
0.0414119
0.0783193
0.194375
0.235536
0.279776
0.380358
-0.0203264
-0.0184249
0.15661
-0.0396544
0.00234792
0.0459545
-0.100353
0.00149383
-0.00156894
-7.07108e-06
-0.0354247
0.0449423
0.000116315
-0.000730487
-0.0264777
-0.00835641
-0.24375
-0.0286892
-0.138531
-1.20627e-05
0.0015055
-0.000129726
-0.112631
-0.0218993
-0.0896276
-0.0227534
0.0045199
0.000603838
0.0120812
-8.3638e-05
-0.0138113
-4.3878e-05
0.000943641
-0.0127571
-0.0289154
-0.000523605
0.000828476
0.117818
-0.0258378
0.159056
-0.241816
-0.0173497
0.154453
-0.0469148
0.00943735
-0.0536306
-0.00817151
-0.0314124
-0.0305863
0.765982
-0.00316181
0.000176065
-0.0145879
-0.0221589
8.26048e-06
0.191796
-0.0100093
0.708467
-0.106147
-0.112322
-0.0666262
0.118131
-0.0115559
-0.000126752
-1.94701e-05
-0.0105428
-0.130621
0.000144665
0.712689
-0.00687592
-0.0123033
-0.000167891
-0.000965454
-0.015097
0.116259
-0.0807053
0.276076
0.00161777
-0.0356444
-1.56806e-05
0.0674739
-0.0190481
0.0486483
-0.0277068
-0.0136949
-0.0019308
0.00348841
0.0295771
-3.10277e-05
-0.0234827
0.00157019
-0.000996299
0.00119192
-0.0422987
0.00067567
0.327861
-0.0264962
0.00961221
-0.116656
0.0674617
-0.12095
-0.0283701
0.099207
-0.0455614
0.398184
-0.00469019
-0.00853678
-0.123914
-0.00174231
-0.000122981
0.00110886
0.00022682
-0.00554339
0.0111429
0.000213807
-0.0335895
0.0547125
-0.0077128
0.000108524
-0.00826461
-0.104986
0.340967
-0.0824444
-0.117145
0.0207441
0.189577
-0.00309776
0.0883573
-0.0293386
0.0134482
0.0905433
-0.144913
0.252621
-0.000135694
-0.0725697
0.00294618
-0.00371917
-2.41558e-05
-0.015098
0.243519
0.00247247
0.525854
-0.0516841