/*--------------------------------*- C++ -*----------------------------------*\
  =========                 |
  \\      /  F ield         | OpenFOAM: The Open Source CFD Toolbox
   \\    /   O peration     | Website:  https://openfoam.org
    \\  /    A nd           | Version:  7
     \\/     M anipulation  |
\*---------------------------------------------------------------------------*/
FoamFile
{
    version     2.0;
    format      ascii;
    class       volVectorField;
    location    "13";
    object      U;
}
// * * * * * * * * * * * * * * * * * * * * * * * * * * * * * * * * * * * * * //

dimensions      [0 1 -1 0 0 0 0];

internalField   nonuniform List<vector> 
7807
(
(1.06484 0.1167 9.70645e-21)
(1.04903 -0.0365522 3.26517e-21)
(0.9947 0.0932475 -1.90915e-20)
(1.03141 0.0592872 2.74854e-20)
(0.999251 -0.000892105 -5.37156e-23)
(0.999965 -9.775e-06 -5.42665e-24)
(0.990362 0.0771529 -3.75417e-20)
(0.9953 -0.00171168 -1.16388e-23)
(0.999888 -0.000166894 -9.19659e-24)
(1.02149 9.3227e-05 -1.3221e-21)
(0.999967 -1.12968e-05 5.9853e-24)
(1.00201 -0.00119466 -2.25471e-22)
(0.992768 -0.00220723 5.66999e-22)
(1.01664 -0.00172378 -8.69534e-21)
(1.02081 0.000825035 5.58514e-21)
(0.992297 -0.0138389 -1.1098e-21)
(1.06678 0.122169 -2.04467e-20)
(0.990242 -0.00283505 -1.98767e-22)
(1.0022 -0.00852564 -8.15172e-23)
(0.986207 -0.0905769 -8.74993e-22)
(1.03094 -0.00343757 -3.00696e-21)
(1.00132 -0.000629109 4.26451e-22)
(1.01599 -0.00310366 7.58254e-22)
(1.01006 0.0262236 -1.41167e-20)
(0.98696 -0.00356433 -9.09543e-22)
(1.06084 0.115113 -9.67118e-21)
(0.999269 -0.000841106 -3.8463e-23)
(1.02115 -0.00133204 3.4093e-21)
(1.0052 0.0135592 -1.81749e-21)
(1.00334 -0.00908662 6.8505e-23)
(0.988118 -0.0147961 -2.03894e-21)
(0.888024 0.0340446 5.48299e-21)
(1.01547 -0.00359244 4.65984e-21)
(0.99958 -0.000359745 6.67667e-23)
(0.999907 -4.45542e-06 1.24748e-25)
(1.02057 0.000556377 1.96916e-21)
(1.00405 -0.0100154 7.9832e-23)
(0.994164 0.0747622 -6.01345e-21)
(0.996876 -0.00730849 9.10264e-22)
(0.999703 -5.10685e-05 6.32741e-23)
(0.997199 -0.00750385 -1.04953e-22)
(0.992434 -0.0128929 -4.15874e-22)
(1.01146 -0.098098 3.59498e-21)
(1.13598 -0.0385571 -1.61998e-22)
(0.999822 -8.99105e-06 2.0277e-23)
(0.999931 -1.51209e-05 -5.64991e-24)
(1.0012 -0.000529067 -2.60617e-22)
(0.996545 -0.0065778 -5.37927e-22)
(0.999941 -2.72525e-05 -4.52518e-24)
(0.990202 -0.0909811 1.26083e-21)
(1.0029 -0.00105275 2.42344e-22)
(1.02116 -0.000190723 -3.54768e-21)
(0.982918 -0.00431178 -3.06803e-21)
(1.01084 -0.0277461 1.79382e-22)
(1.02052 -0.000737344 -1.17803e-21)
(0.995862 -0.00236958 -1.03513e-22)
(1.00198 -0.00803775 1.69047e-22)
(0.995273 -0.0014757 7.71888e-22)
(0.979328 -0.0179998 -3.64445e-21)
(0.999568 -0.000319105 -8.58312e-23)
(1.00004 -2.16002e-05 -1.04105e-23)
(1.00383 -0.000992816 2.70933e-22)
(1.01709 -0.00105653 -2.04255e-21)
(1.00213 -0.00103568 2.28252e-22)
(0.999161 -0.00018448 1.2373e-22)
(0.988644 -0.0153567 3.63839e-22)
(0.999916 -0.000169284 6.98512e-24)
(1.00001 -2.09522e-06 7.32633e-25)
(1.1332 0.0653991 5.22902e-21)
(0.996643 -0.00622381 -1.58313e-22)
(0.999935 -1.83142e-05 5.01399e-24)
(0.973969 -0.054242 -6.59553e-21)
(0.987525 -0.00394651 4.41782e-22)
(0.976213 -0.00534878 6.07477e-22)
(0.990672 -0.00312264 6.2208e-22)
(0.967797 -0.0262633 -7.99835e-22)
(0.99796 0.0945201 3.06659e-20)
(1.02918 -0.00327759 3.81532e-21)
(1.07557 0.00113915 -7.99935e-21)
(0.958413 -0.044938 -8.50077e-21)
(0.993108 -0.00243653 -8.70457e-22)
(0.998956 0.0470432 3.74657e-20)
(1.03503 0.0056532 8.86056e-21)
(0.975745 -0.00954124 2.78632e-21)
(0.99882 -0.00228277 -8.58176e-23)
(0.998009 -0.000288368 9.19417e-23)
(0.994986 -0.00225994 1.06423e-21)
(0.983599 -0.00481298 1.97458e-21)
(0.999428 -0.0010634 5.76698e-23)
(0.996042 -0.000616668 3.30453e-22)
(1.00539 0.0154177 1.34372e-20)
(1.16517 -0.0233513 3.78609e-22)
(0.999883 -5.07545e-05 -1.20892e-23)
(1.0017 -0.00683185 6.86445e-23)
(0.996877 -0.000939746 2.98997e-22)
(0.975843 -0.0029969 -4.85523e-21)
(0.976244 -0.0537803 4.62623e-22)
(1.0123 -0.0266636 1.60524e-23)
(0.998716 -0.00220178 2.93027e-23)
(0.999003 -0.000167957 4.1547e-23)
(0.953253 -0.0161892 2.11386e-21)
(1.07627 0.00571161 6.48679e-21)
(0.997056 -0.00106587 -7.45838e-22)
(0.999976 -8.23359e-07 -4.56452e-25)
(1.16803 -0.0122965 1.69829e-22)
(1.02662 0.0260202 -1.29844e-20)
(0.941963 0.024086 6.30512e-21)
(0.995579 -0.00224438 -4.30251e-22)
(0.999992 -1.84201e-06 7.67511e-26)
(1.02272 -0.0117473 -1.6656e-21)
(1.03464 0.0562711 -3.19244e-20)
(1.02578 -0.0719337 -3.73431e-21)
(0.99999 -2.15191e-06 -1.32154e-25)
(1.02434 -0.0123491 -3.64097e-22)
(1.02355 0.0251299 1.36482e-20)
(1.00036 -0.0005092 -2.05803e-23)
(1.0682 -0.0834153 -6.70492e-23)
(1.02696 0.0149085 -3.1574e-21)
(0.985127 -0.0424837 2.7935e-21)
(0.975911 -0.00651355 -6.32591e-22)
(0.949973 -0.0106405 -5.11244e-21)
(1.00084 0.0339135 -2.43944e-20)
(1.01724 -0.096445 -4.95608e-21)
(1.00852 -0.00689805 1.3956e-22)
(0.951743 -0.0121489 2.01629e-21)
(0.999184 -0.00122557 1.28806e-22)
(0.98901 -0.0111253 6.7395e-22)
(1.00265 -0.00773098 -1.16921e-22)
(0.999113 -0.000135849 -2.75948e-22)
(0.988073 -0.0135887 3.38221e-23)
(1.20094 -0.0383665 -2.28599e-22)
(1.07043 -0.000922729 1.34892e-21)
(0.99948 -0.000478579 7.26533e-24)
(0.999342 -0.00109397 -1.11783e-22)
(0.97456 -0.00873881 8.299e-22)
(1.03257 0.0496277 1.18492e-20)
(0.995091 0.0273276 4.30545e-20)
(0.999978 -2.6228e-06 -5.36198e-25)
(1.00684 -0.00269649 1.13345e-22)
(0.931236 -0.0133349 -6.44529e-21)
(0.977727 -0.00384929 -2.48041e-21)
(0.990393 -0.0588266 -4.00769e-21)
(0.968305 -0.0282659 1.08377e-21)
(0.977566 -0.004816 -5.4553e-23)
(0.93646 0.0189259 2.45062e-20)
(1.01243 -0.0425489 -1.27475e-22)
(1.01082 0.015581 -6.87982e-21)
(0.981548 -0.0214927 -1.8724e-21)
(0.966518 -0.00524986 6.90876e-22)
(1.00046 0.0419523 -1.21387e-20)
(1.02147 0.00155995 4.97814e-21)
(1.15279 -0.0262126 7.02942e-22)
(0.998682 -0.00178984 -3.02093e-22)
(1.13823 0.0580508 9.76131e-22)
(1.0334 0.00528348 -9.18231e-21)
(1.00451 0.0776412 -3.06213e-20)
(0.9628 -0.0309551 3.34088e-21)
(0.992763 -0.00167883 1.91408e-22)
(0.951134 0.0631214 5.52182e-20)
(0.999945 -2.24807e-05 -4.21833e-24)
(1.00127 -0.00716631 -5.22904e-23)
(1.01075 0.0292351 1.01437e-20)
(0.999981 -1.77043e-05 2.40944e-24)
(0.998505 -0.00465272 -4.21338e-22)
(0.996473 -0.000904076 -1.43269e-22)
(1.0037 0.0341054 -3.30062e-21)
(1.00203 0.0305782 1.21981e-20)
(0.944112 0.0697853 1.82884e-20)
(0.998284 -0.00450375 -2.66894e-22)
(0.997261 -0.000331102 -1.61745e-22)
(1.00001 -1.9004e-06 -6.8643e-25)
(0.946818 -0.00652803 -8.81976e-21)
(1.00034 -0.000450744 2.83542e-23)
(1.05082 -0.033127 -3.81619e-21)
(1.00697 -0.00301758 7.52581e-22)
(0.967326 -0.00620474 1.42799e-21)
(1.15873 -0.00273761 1.38923e-21)
(1.0922 0.065173 4.26207e-22)
(0.999883 -5.84528e-05 6.58691e-24)
(0.999552 -0.000567583 -7.55984e-23)
(1.03224 0.0624571 -4.8333e-21)
(0.999946 -1.71138e-05 -2.05762e-24)
(0.999901 -1.06733e-05 3.14169e-24)
(0.990561 0.0818178 -3.10736e-20)
(1.05098 -0.0395916 1.1536e-21)
(1.01249 -0.0609427 -2.22871e-21)
(0.986957 -0.0411179 -3.96016e-21)
(0.978381 -0.00695957 1.81655e-21)
(1.00968 -0.0439358 2.11902e-22)
(0.932938 -0.0112572 3.38607e-21)
(0.99998 -1.61686e-05 -8.8653e-25)
(0.976709 -0.0503328 -1.5746e-21)
(1.09455 0.0718801 -1.01765e-20)
(0.997038 -0.00129832 1.07168e-22)
(1.00007 -5.61477e-06 -7.30368e-24)
(1.06685 0.0683233 1.00371e-21)
(0.998914 -0.000348116 2.94135e-22)
(0.988828 -0.0130594 1.07923e-21)
(1.00703 -0.0416257 7.15462e-22)
(1.00002 -2.20763e-06 -2.99464e-25)
(1.00075 -0.00178352 -1.16298e-22)
(1.02939 0.0492094 1.45392e-20)
(1.0823 0.0772576 -1.29061e-20)
(1.00063 0.0685919 -4.10396e-21)
(1.06421 -0.0775379 1.20837e-21)
(1.02908 -0.0684194 8.95659e-22)
(1.1126 -0.110957 -4.428e-22)
(1.02102 -0.00264063 1.00789e-20)
(1.02702 0.0468174 -4.73914e-21)
(0.999811 -1.89713e-05 -2.37911e-23)
(1.00004 -1.81225e-05 2.77953e-24)
(0.956081 0.00976921 -2.44057e-20)
(0.993559 -0.0123439 -3.90113e-22)
(0.99946 -0.000430041 -7.27727e-23)
(0.978875 -0.0494319 3.23932e-21)
(0.988489 -0.0117437 -7.85823e-22)
(1.01282 0.0718212 -3.45839e-20)
(1.00955 0.0696478 -7.32765e-21)
(0.987785 -0.0604263 1.117e-21)
(0.909734 0.047289 -2.0794e-20)
(0.998992 -0.0003992 -2.1593e-22)
(0.990289 -0.00242877 7.10712e-22)
(0.951362 -0.0147947 2.78632e-21)
(1.02978 0.00066861 -2.13639e-21)
(1.01672 -0.122207 -4.97249e-22)
(1.08392 0.115012 -2.10326e-20)
(0.951184 0.0554971 -4.7305e-20)
(1.00006 -9.83281e-05 8.37179e-24)
(1.00842 -0.00655337 3.74737e-22)
(1.02503 0.0171803 1.70374e-20)
(0.996641 -0.00544752 -6.95514e-22)
(1.02917 0.015337 -2.16636e-21)
(0.999532 -0.00115 -1.81424e-23)
(0.924481 0.0789137 3.69172e-20)
(1.00497 0.0717958 6.66963e-21)
(0.994988 -0.00194265 6.76752e-22)
(1.00343 -0.00760637 -1.66765e-23)
(0.999721 -6.36937e-05 -1.177e-22)
(1.11489 0.0915043 5.31069e-21)
(0.999914 -1.13761e-05 9.30906e-24)
(0.995398 -0.010104 3.20416e-22)
(0.940863 -0.0294822 3.81072e-21)
(0.999935 -2.3384e-05 -2.07581e-24)
(0.998929 -0.00264745 -7.42154e-23)
(0.999636 -0.00112026 3.36662e-23)
(1.06004 0.041221 1.27815e-20)
(0.999982 -2.26295e-05 2.84675e-24)
(0.995876 -0.000476769 3.74166e-25)
(0.96067 -0.0445569 9.85278e-21)
(0.889126 0.0253976 -1.20849e-20)
(1.06973 -0.00520576 -1.8119e-21)
(0.934263 0.0531294 2.82265e-20)
(0.999959 -8.28623e-06 -5.04077e-24)
(1.00485 -0.0423949 -6.90448e-23)
(0.999835 -0.000284387 -2.60754e-23)
(1.00003 0.0795362 -3.06054e-20)
(1.00339 -0.000654834 -3.49124e-22)
(0.993035 0.0310517 1.40863e-20)
(1.00271 -0.00928566 -3.27528e-22)
(1.00067 -0.00184706 1.25628e-22)
(1.02796 -0.0309969 -9.61012e-22)
(1.02089 -0.00136587 -9.33694e-21)
(1.0005 -0.000303937 5.82254e-23)
(0.999796 -5.06663e-05 5.93652e-25)
(1.00044 -0.000411969 1.31685e-22)
(0.996457 -0.00576896 -6.1652e-22)
(1.01913 -0.063154 2.34326e-21)
(0.999961 -1.1353e-05 3.41116e-24)
(0.964329 -0.0296265 2.33896e-21)
(0.996653 -0.00105017 -2.67987e-23)
(0.99987 -4.3267e-05 1.28479e-23)
(0.999454 -0.000533454 2.37393e-23)
(0.98846 0.0486177 3.39629e-20)
(0.992715 -0.000786176 2.79216e-22)
(0.99932 -0.000106818 -2.47762e-23)
(0.915121 0.0113321 4.62625e-20)
(0.998797 -0.0025562 -1.6839e-22)
(1.05338 0.0884117 -1.15044e-20)
(0.999816 -0.000264645 4.7773e-23)
(1.00776 -0.0210185 1.68542e-22)
(1.00002 -1.04002e-06 -2.46482e-25)
(0.984328 -0.0343548 -1.61836e-21)
(1.02941 0.000801992 3.29102e-21)
(1.1606 0.00621805 -3.85259e-21)
(0.979592 -0.0193571 3.08297e-21)
(0.999639 -0.000577101 8.74438e-23)
(0.984302 -0.0772816 2.02128e-21)
(0.984636 -0.000454379 1.29494e-21)
(0.999834 -2.05042e-05 1.28918e-24)
(1.00042 -0.000354984 -1.16566e-22)
(0.998147 -0.00329423 2.31232e-22)
(0.99305 -0.00139613 -8.32658e-22)
(1.00282 -0.000849744 -4.15028e-22)
(0.998896 -0.00183337 1.08872e-22)
(0.977011 -0.00889046 4.36713e-22)
(1.02339 -0.0607294 -1.76065e-21)
(0.977134 -0.00745724 1.9449e-21)
(1.12944 -0.0310789 9.31164e-23)
(0.969382 -0.00835841 -2.48961e-21)
(1.01467 0.0925049 3.45476e-21)
(1.01104 0.0948821 -2.55012e-20)
(0.998657 -0.000726407 -1.8828e-22)
(1.18203 0.00443354 2.98515e-21)
(0.999985 -3.34163e-06 -2.98104e-25)
(0.998128 -0.00407579 -2.79774e-22)
(0.97522 -0.0020937 4.98346e-21)
(1.00773 0.0232489 8.42848e-21)
(1.03674 0.00943287 -8.56157e-21)
(1.00009 -3.49448e-05 1.6518e-23)
(0.998205 -0.00384883 -1.82643e-23)
(0.970514 -0.00924073 1.87635e-21)
(1.04672 0.0358536 -5.06126e-21)
(0.999119 -0.00113582 9.70058e-23)
(1.00303 -0.000784204 2.33505e-22)
(1.00113 -0.000912982 -2.11403e-23)
(1.11424 0.0218373 7.66883e-21)
(1.2003 -0.0506074 -1.84808e-21)
(1.03186 0.111277 1.65313e-20)
(0.998565 -0.000218424 -1.84385e-22)
(1.0597 -0.0377193 -3.1085e-21)
(0.999897 -6.45632e-05 -1.04068e-23)
(1.00448 -0.00676509 -8.1171e-22)
(0.999951 -1.24255e-05 -1.45099e-24)
(0.986687 -0.0206176 5.28792e-22)
(0.999689 -7.0154e-05 -2.26275e-23)
(1.01182 -0.0203228 1.97217e-22)
(1.2049 0.0066892 -1.70842e-21)
(0.975206 -0.0276159 3.6724e-21)
(1.00881 -0.0204331 -1.13719e-22)
(1.00767 -0.00583746 -4.88751e-22)
(0.99934 -0.000138092 1.11043e-22)
(1.02495 -0.0163854 1.18307e-21)
(0.997231 -0.0180042 4.71197e-22)
(1.07094 0.0101136 -3.71703e-21)
(1.05542 0.0394161 5.81406e-21)
(1.16127 -0.12221 -1.00005e-23)
(1.13328 -0.0473824 -2.20033e-22)
(0.983967 -0.000936832 -1.38683e-21)
(1.00463 -0.00336347 7.48807e-22)
(0.943168 -0.0279096 -1.47344e-21)
(0.936771 0.0692219 -5.69052e-20)
(1.11451 -0.0483595 -8.02413e-22)
(1.02463 -0.0097773 -4.49913e-21)
(0.917336 0.0509616 -2.82692e-20)
(0.998608 -0.000156521 9.10141e-23)
(0.998421 -0.000902148 -5.81835e-23)
(1.14958 -0.0358421 3.55792e-23)
(0.999031 -0.00196102 -5.80423e-23)
(1.01259 -0.0395659 1.41808e-22)
(1.00533 -0.00177396 2.63684e-22)
(0.997399 -0.000403153 -1.43718e-22)
(0.99809 -0.000346439 -2.26951e-22)
(1.0291 0.0225767 9.98614e-21)
(0.999939 -0.000143413 -4.63708e-25)
(1.00048 -0.000236277 -5.18315e-23)
(1.00008 -1.47048e-05 1.24975e-23)
(0.996816 -0.000651411 7.72512e-22)
(0.99428 -0.00879084 8.63682e-22)
(0.999984 -2.78472e-06 2.23637e-25)
(0.999012 -0.000238473 2.36368e-23)
(0.980324 -0.0170409 1.08665e-21)
(0.955171 0.014477 1.52017e-20)
(1.01062 -0.0213303 -1.31305e-22)
(0.993597 -0.0115301 1.38651e-21)
(0.966383 0.0544164 6.56774e-21)
(1.00099 0.03308 2.18432e-20)
(1.06109 -0.000162041 -3.00762e-21)
(1.17353 0.00995399 -1.33958e-21)
(0.94546 -0.00482598 4.81162e-21)
(1.00462 -0.00383287 -3.69825e-22)
(1.00804 0.0383933 -1.20822e-21)
(0.989415 -0.00218367 -1.69875e-21)
(1.03603 0.0875653 5.16762e-22)
(1.00946 -0.0472675 1.43573e-23)
(1.03766 -0.108532 -1.63011e-21)
(1.07806 0.0742853 7.93512e-21)
(1.03821 0.0925759 -1.46768e-20)
(0.965652 -0.0255298 5.23113e-21)
(1.03801 0.00771885 -5.59703e-21)
(1.0883 0.119284 1.97543e-20)
(1.04809 0.0887994 2.15105e-20)
(1.02175 -0.0019307 3.19306e-21)
(0.99723 -0.00140068 1.68416e-22)
(0.996134 -0.00216165 1.47331e-22)
(0.999918 -2.1067e-05 -4.96077e-24)
(1.01625 -0.0261829 2.55298e-22)
(0.989117 -0.00183432 3.99838e-22)
(1.00094 -0.00226695 -1.02389e-22)
(0.999902 -2.32788e-05 -9.28228e-24)
(0.998518 -0.00067096 7.34078e-23)
(0.981645 -0.0762649 -3.32246e-21)
(1.09915 0.032509 3.41462e-21)
(0.983483 -0.00590796 -2.21157e-21)
(0.999524 -0.0118849 4.9733e-22)
(0.996493 -0.000674647 -4.12421e-22)
(1.05723 -0.0400874 1.03326e-22)
(0.993374 -0.00147424 -1.33828e-21)
(1.0023 -0.00691599 3.16468e-22)
(1.10021 0.114039 3.1577e-21)
(0.998297 -0.000324151 -5.28611e-22)
(0.99998 -4.30948e-05 -1.84321e-24)
(0.999951 -0.000171596 -1.12119e-24)
(1.00004 -0.000101249 1.14981e-23)
(0.979385 -0.00775242 1.0169e-21)
(1.0275 0.0203208 -1.18499e-20)
(0.996269 -0.000517449 1.59979e-23)
(1.0211 -0.00847745 2.90388e-21)
(1.0243 -0.127181 3.39499e-21)
(0.995407 0.0699078 -6.31334e-22)
(1.00383 -0.0070366 2.7036e-22)
(1.00625 -0.00429302 -1.20897e-22)
(0.995299 -0.00244626 -5.37745e-22)
(0.992842 0.0489734 -3.32688e-20)
(0.999038 -0.000111709 7.51386e-23)
(1.03517 0.114878 -8.41866e-21)
(1.00885 0.0162031 -1.32209e-20)
(0.999893 -2.87143e-05 1.08757e-23)
(1.00757 -0.0481937 -1.40001e-21)
(0.996942 -0.000751451 -3.80787e-22)
(0.993774 -0.0595255 4.89491e-21)
(1.00051 -0.000120961 5.17233e-23)
(1.05662 0.00242145 4.20201e-21)
(1.00697 -0.0151814 -1.20945e-23)
(1.00581 -0.00374424 6.25628e-23)
(0.999224 -0.000152585 -1.487e-22)
(1.06499 0.0388049 6.30002e-21)
(1.04255 0.0344798 1.9921e-21)
(1.01049 -0.0636664 2.26989e-21)
(0.98119 -0.0198759 -2.09298e-22)
(0.998038 -0.00351434 -2.00179e-22)
(1.0016 -0.0384541 -2.58974e-21)
(1.13351 0.0491822 -6.88552e-21)
(0.894497 0.0395476 -2.65228e-20)
(1.0815 -0.0717418 -1.03368e-21)
(1.00486 -0.00731917 -1.29793e-22)
(0.999993 -2.13008e-06 -5.06109e-26)
(0.987459 -0.00479089 -1.76553e-21)
(0.997915 -0.000361209 4.91126e-22)
(1.02401 -0.0161414 1.72158e-21)
(1.00831 -0.102925 -1.52518e-21)
(1.18063 -0.00800964 -7.40612e-22)
(0.986522 0.0660695 -4.10216e-20)
(1.05041 0.0329621 8.4233e-21)
(1.11435 -0.0999656 2.07083e-21)
(1.0668 0.0742228 3.33605e-21)
(0.99914 0.0334468 3.95205e-20)
(1.01823 -0.00254985 2.36483e-21)
(1.00111 -0.00217007 2.33724e-22)
(1.02211 0.0522557 7.27279e-21)
(0.999222 -0.00191979 1.2969e-22)
(0.999833 -0.000156128 1.02436e-23)
(0.982635 -0.00201076 6.22616e-22)
(1.00009 -3.25243e-05 3.13691e-24)
(1.12159 -0.118817 1.38278e-21)
(1.00405 -0.0168842 -4.45125e-23)
(0.986431 -0.0337487 2.69817e-21)
(1.00172 -0.00150122 1.16878e-22)
(1.0617 0.065335 1.76008e-20)
(0.998366 -0.000303035 -4.36246e-23)
(0.999978 -3.4362e-05 -2.42391e-25)
(1.03123 -0.113298 1.82657e-21)
(1.00152 -0.00124767 -6.82002e-23)
(1.09816 -0.00470587 -9.02014e-22)
(0.955698 -0.015156 9.81673e-22)
(0.934746 -0.0184482 5.04434e-22)
(1.18661 0.0503317 -4.97276e-22)
(1.02292 0.0160854 -4.45132e-21)
(1.01953 0.00452917 2.74095e-21)
(1.01836 0.00421923 -1.11435e-21)
(0.999812 -4.18956e-05 3.66943e-24)
(1.10648 0.031843 2.69366e-21)
(1.07134 0.013773 4.32933e-21)
(0.999537 -0.000611245 3.4308e-23)
(0.984249 -0.00640679 2.56979e-21)
(1.00057 -0.000191992 -5.75578e-23)
(1.01168 -0.0186406 -1.37985e-21)
(1.0092 -0.0267392 -1.65336e-23)
(1.00418 -0.00130937 2.61379e-24)
(0.999313 -0.00121751 -1.56172e-22)
(1.11367 0.0842121 -1.62313e-20)
(0.99998 -2.09718e-05 -3.40662e-24)
(1.00019 -9.85871e-05 -1.5637e-23)
(1.0019 -0.000971481 -4.6999e-24)
(0.97844 -0.00333897 1.72803e-21)
(1.01775 -0.0101861 2.07621e-21)
(0.985383 -0.0284322 -3.87973e-21)
(0.973297 -0.00519788 -1.00582e-21)
(1.01566 -0.0600851 1.24566e-21)
(1.04272 -0.135825 -3.56357e-21)
(1.02614 -0.0282294 6.1262e-22)
(1.0262 0.0528851 -4.17146e-20)
(1.19556 0.0126519 7.66185e-22)
(0.993895 -0.00247535 -7.00969e-23)
(0.920429 0.073862 4.38756e-20)
(0.978786 -0.0556477 5.68555e-21)
(0.994026 -0.00937176 2.72242e-22)
(0.973969 -0.00429698 1.66077e-21)
(0.998352 -0.0173836 -1.39299e-22)
(0.979819 -0.00245383 2.6395e-21)
(0.990617 -0.00380067 -5.12257e-22)
(1.02525 -0.0119206 -3.15601e-21)
(1.12236 -0.0518241 2.15286e-22)
(0.999976 -4.07443e-05 -2.82823e-25)
(1.02155 -0.0113259 -3.39842e-22)
(0.99991 -2.84417e-05 -5.24718e-24)
(1.00856 0.0800918 8.22016e-21)
(1.13472 0.0714038 1.20813e-20)
(0.995557 -0.00186426 1.68728e-22)
(0.98662 -0.00173001 -2.35224e-21)
(0.999826 -5.10187e-05 -2.70804e-23)
(0.99751 0.0451193 2.49418e-20)
(1.02696 0.0913238 1.93671e-20)
(1.10876 0.0238091 -4.14202e-21)
(1.11961 0.108621 -1.36064e-20)
(0.978884 -0.0591142 -2.40715e-21)
(0.998673 0.0117011 -3.70658e-20)
(0.999943 -0.000124799 4.50327e-24)
(1.04533 -0.0240455 4.37842e-21)
(0.982284 -0.0015335 -9.75872e-23)
(1.0851 0.0629595 -3.76588e-21)
(0.942894 0.050607 -3.4425e-20)
(1.13713 0.0425374 8.89703e-21)
(1.04553 0.0272915 1.4222e-21)
(1.00017 -0.011755 -7.22e-23)
(0.999817 -7.87523e-05 -2.49752e-23)
(1.1218 0.0944564 5.66172e-21)
(1.18837 -0.0303361 -3.88497e-23)
(0.995795 0.0503025 -8.12736e-22)
(1.09125 -0.00595236 7.62123e-21)
(1.02888 0.0430727 1.22854e-20)
(0.993511 -0.00221751 -2.37743e-22)
(0.99242 0.066257 1.11865e-20)
(1.03065 0.0869125 6.87366e-21)
(0.991704 -0.00318799 -1.43514e-21)
(0.993076 -0.00297797 -5.31402e-22)
(1.13222 0.0853092 2.76755e-22)
(0.932147 -0.0171148 -6.79288e-21)
(0.999922 -0.000146083 -7.14998e-24)
(0.988079 -0.00517026 2.27057e-21)
(0.937784 -0.0239595 4.96358e-21)
(0.991877 -0.0741767 -7.07429e-22)
(1.00878 -0.00243672 -2.07974e-21)
(1.00751 -0.00528684 1.38326e-22)
(0.999886 -0.000181002 -1.39161e-23)
(1.0287 0.0963597 -2.91256e-20)
(1.00054 -0.0105042 1.23017e-23)
(0.999905 -5.551e-05 4.63241e-24)
(1.02289 -0.055711 1.09022e-21)
(0.999548 -0.000399982 3.04895e-23)
(0.999796 -7.27168e-05 1.86254e-24)
(1.00507 -0.0112395 -1.55409e-22)
(1.05159 0.0649187 2.37556e-20)
(1.02289 -0.10116 2.54441e-21)
(0.958504 0.0509796 2.03073e-20)
(1.00006 -1.11941e-05 -8.85982e-24)
(1.05619 0.0684325 -2.48546e-20)
(1.01552 -0.0479521 9.61711e-22)
(0.999931 -0.000175263 -2.04773e-24)
(1.00002 -5.38962e-06 -2.87584e-24)
(1.00322 0.0105697 -2.19009e-21)
(1.0475 0.0560258 8.83471e-21)
(0.996414 -0.00228063 1.46411e-22)
(1.04378 0.0435321 -1.1426e-20)
(1.00003 -1.81801e-05 2.11543e-24)
(1.04409 0.0483066 -1.59072e-20)
(1.14659 -0.123917 2.94929e-21)
(0.991243 -0.00285536 1.58031e-21)
(0.999244 0.0184004 -5.08109e-20)
(0.979064 -0.0464525 3.77966e-21)
(1.1235 0.103045 1.34362e-20)
(0.975203 -0.00431753 1.00078e-21)
(1.048 0.0509732 2.07026e-20)
(1.05201 0.0589988 -6.384e-21)
(0.985059 -0.007884 3.69292e-21)
(0.980329 -0.00970843 -2.73211e-21)
(0.995565 -0.00931896 7.97547e-22)
(0.997447 -0.000679164 -1.24385e-22)
(0.999822 -0.00017563 2.86054e-23)
(1.00035 -0.00999541 -2.17239e-23)
(1.03953 0.0825301 -3.47391e-21)
(0.999974 -3.19149e-05 8.90419e-25)
(1.03947 0.0415872 1.51202e-20)
(1.03635 -0.100448 3.75137e-21)
(1.00511 0.0510245 9.83242e-21)
(1.03933 0.0375192 -1.71709e-20)
(0.93513 -0.022476 -6.08936e-22)
(0.964215 0.0651541 -4.26634e-20)
(0.998587 -0.00106611 1.06688e-23)
(1.01584 -0.0240681 6.17985e-22)
(1.05301 -0.0714971 7.57026e-22)
(0.980719 -0.00229637 -1.56425e-22)
(0.994263 -0.00312226 7.06869e-22)
(1.01304 -0.0494448 -8.93174e-22)
(1.05104 -0.0161354 -4.5578e-22)
(0.926389 0.0457831 5.38454e-20)
(1.00004 -1.86654e-05 9.91477e-24)
(0.998335 -0.00113912 1.41389e-22)
(1.02137 -0.0713408 4.29747e-23)
(1.00002 -4.46765e-06 3.64338e-25)
(1.00896 0.0856051 4.03949e-21)
(1.00152 -0.00106977 0)
(1.00001 -5.47371e-06 2.85783e-25)
(1.00017 -7.91238e-05 3.674e-23)
(1.00037 -0.000102016 7.30619e-25)
(0.986968 -0.019234 2.66389e-21)
(1.02102 -0.015323 -1.24543e-21)
(0.998654 -0.000820911 2.21627e-22)
(0.999925 -1.4969e-05 9.78948e-24)
(0.993868 -0.00292833 3.9322e-22)
(1.00439 -0.0117469 -1.19573e-22)
(0.997926 -0.109778 -4.1779e-21)
(0.940649 -0.00757965 4.88063e-22)
(1.01704 -0.00906178 3.59015e-21)
(0.999976 -2.46663e-06 2.86081e-24)
(1.10172 -0.14313 4.44715e-21)
(0.988278 -0.00358829 -9.10416e-22)
(1.1199 0.0773988 -9.8203e-22)
(1.00033 0.016782 -7.17903e-21)
(1.00114 -0.00326808 5.52139e-23)
(1.10865 0.0675446 -1.53526e-20)
(1.00014 -8.7803e-05 -3.70678e-26)
(0.988855 -0.00403004 2.67984e-23)
(1.02134 0.000839418 -5.70264e-21)
(0.994286 -0.0035467 -2.89552e-22)
(1.05295 0.0770605 -1.41368e-21)
(0.988774 -0.00629922 -1.71124e-21)
(1.0465 -0.0218889 -3.692e-21)
(1.02217 0.0018581 -6.11836e-21)
(1.05504 0.035081 -3.62092e-21)
(1.00717 -0.0139634 -6.02966e-22)
(0.991109 -0.00408673 4.25794e-23)
(1.07273 0.0648933 1.1183e-20)
(0.985597 -0.0817121 -3.80339e-21)
(0.999037 0.0841995 3.36793e-20)
(0.992162 -0.00459653 -1.65652e-21)
(1.05557 0.0994276 -1.48234e-22)
(0.992145 -0.0040363 4.42415e-22)
(0.998995 -0.000479181 -1.43756e-23)
(1.04488 0.0246705 3.95072e-21)
(1.01467 -0.0275865 -1.79437e-22)
(1.03235 0.00285523 8.67672e-21)
(1.00154 -0.000787206 7.56835e-23)
(1.00001 -3.91867e-06 1.31717e-25)
(1.01063 -0.124866 1.49828e-21)
(1.09862 0.108149 -1.78636e-20)
(1.00137 -0.00316707 -7.29298e-23)
(1.11693 0.0692113 1.53068e-21)
(0.989395 -0.00586402 -1.11744e-21)
(1.09324 -0.149771 -1.48866e-21)
(1.04421 -0.0369757 1.18619e-22)
(0.98512 -0.030244 2.17606e-21)
(0.998547 -0.000934483 -9.35055e-23)
(0.992356 -0.00101361 -3.34927e-22)
(0.979098 -0.070097 -2.33591e-21)
(0.973212 -0.00936458 3.80086e-21)
(0.991648 -0.00376669 1.17371e-21)
(0.999873 -0.000407549 1.20866e-23)
(0.992967 0.0888927 -4.10183e-21)
(1.10576 0.0600503 9.43303e-21)
(1.02254 -0.00930274 -1.0997e-21)
(0.999827 -0.00013594 1.89588e-23)
(1.02868 0.0820624 -1.31369e-20)
(1 -2.20291e-05 7.78116e-25)
(0.999839 -0.00012045 3.73783e-23)
(1.09786 0.0587923 8.02773e-21)
(1.01053 -0.0230343 4.2465e-22)
(1.10723 0.0977217 1.49652e-20)
(1.02125 -0.00286236 2.42139e-21)
(1.01575 -0.0114889 -2.59866e-22)
(1.09011 -0.0587268 1.96462e-22)
(1.05801 -0.123954 3.60777e-21)
(1.18657 0.0428923 -2.14864e-21)
(1.00112 -0.000782467 -1.6564e-22)
(0.957544 -0.016499 -3.88384e-22)
(0.999984 -5.29793e-05 -5.14002e-25)
(1.00477 -0.0103721 1.08154e-22)
(1.05642 0.0739553 8.90437e-21)
(0.985858 -0.00737125 2.57514e-21)
(0.997593 -0.00136301 1.97031e-22)
(1.01536 -0.0380684 -3.86426e-22)
(0.99831 -0.00100622 1.35561e-23)
(0.999662 -0.00100049 3.93959e-23)
(0.92021 0.0106034 9.55152e-21)
(0.99169 -0.00495637 -9.38813e-22)
(0.999545 -0.000672232 -1.19146e-22)
(0.999983 -7.02038e-07 -5.69725e-25)
(1.01572 0.00553864 1.18966e-20)
(0.975915 -0.0257667 -5.73858e-22)
(0.999719 -0.000508828 3.46729e-23)
(0.997598 -0.000786608 2.53757e-22)
(1.02123 0.0181518 4.83526e-21)
(1.06127 0.00974272 9.35215e-22)
(0.965405 -0.0233036 -3.24238e-21)
(1 -1.38364e-05 5.27595e-25)
(1.0017 0.0136913 3.15016e-20)
(0.988152 -0.0167192 -1.82563e-21)
(1.06166 0.0595778 -1.77109e-20)
(1.0114 -0.00128079 -3.13421e-21)
(1.01308 -0.00111412 7.13738e-21)
(0.971644 -0.0116734 5.18048e-21)
(0.999916 -5.99376e-05 -3.01173e-24)
(1.0213 9.32649e-05 -1.08803e-21)
(1.06562 0.00736428 -1.39753e-21)
(1.16505 0.0479475 6.3411e-21)
(1.04216 -0.0952718 6.8579e-22)
(1.0368 0.0778536 1.0492e-20)
(1.00529 -0.00150157 -5.03672e-23)
(1.07867 0.0683041 -1.53747e-20)
(1.0004 -0.0136929 -1.31694e-22)
(1.01906 -0.0536945 -2.32556e-21)
(0.999662 -0.000152232 -3.82736e-23)
(1.00348 -0.0179437 8.12078e-23)
(0.999911 -0.000394023 3.83993e-24)
(1.04135 0.0296303 -1.15381e-20)
(1.07157 0.107346 -3.15123e-20)
(0.998722 -0.00110348 7.45799e-23)
(1.01679 -0.0114492 8.46249e-23)
(0.984505 -0.00446145 8.86163e-22)
(1.04526 -0.0827016 2.18637e-22)
(1.04024 -0.0881294 -1.87956e-21)
(0.9984 -0.000794368 1.48451e-22)
(1.04203 -0.0245062 -1.54421e-21)
(0.92764 0.00295535 -1.6165e-20)
(1.16112 0.0307261 4.7091e-21)
(0.999953 -0.000150975 9.28789e-24)
(1.057 0.00715712 -3.42299e-21)
(0.997604 -0.00846072 -3.80913e-22)
(0.993736 0.00270914 3.49814e-20)
(0.98939 -0.00513396 1.55735e-21)
(0.997179 -0.0253478 -4.45051e-22)
(1.01746 -0.0335141 -6.63355e-23)
(0.995861 -0.0262705 -7.57457e-23)
(0.999306 -0.0201842 -9.60999e-22)
(0.99346 -0.00318714 2.71128e-22)
(0.999617 -0.0135766 5.26789e-22)
(1.00183 -0.00587088 -8.4385e-23)
(1.05253 -0.0196086 1.00649e-21)
(1.00009 -2.69839e-05 -2.40397e-23)
(1.18444 -0.0892817 -5.95128e-22)
(1.14644 -0.00656373 1.12794e-21)
(1.01844 0.0939652 2.36451e-20)
(0.967171 -0.0220054 4.93483e-21)
(1.09946 0.093654 -7.58566e-21)
(1.00171 -0.000626722 2.66085e-22)
(1.06783 -0.0697668 -7.13954e-23)
(1.00569 -0.0363941 -9.43252e-22)
(1.01859 0.0316768 1.36929e-20)
(0.993926 -0.00383981 6.70245e-22)
(1.0001 -0.000167687 1.60281e-23)
(0.988804 -0.0173731 2.38155e-21)
(0.996347 -0.00905065 -3.02145e-22)
(1.03922 -0.0224674 3.04412e-21)
(0.974635 -0.0071415 -3.21131e-21)
(0.979261 -0.00906999 9.00006e-22)
(1.11827 -0.0316238 8.47904e-22)
(0.986969 -0.0028689 -1.53563e-21)
(1.01517 -0.0352104 1.81761e-22)
(0.993601 -0.0785252 2.65611e-21)
(1.00001 -7.37661e-06 2.45697e-25)
(1.05343 -0.0124655 5.39002e-21)
(0.994895 -0.0703986 -7.14857e-21)
(1.10493 0.0811737 7.30809e-21)
(1.09063 -0.0655083 -6.37583e-22)
(1.03102 0.0023681 7.39767e-22)
(1.02928 -0.0973842 -5.03587e-21)
(1.03674 0.102688 6.46339e-21)
(1.03329 -0.0327967 1.24939e-21)
(0.970339 -0.0108018 -3.06566e-21)
(1.01545 -0.0445242 -1.01132e-21)
(0.964412 0.00441853 1.55111e-20)
(1.14858 -0.0926318 2.84767e-22)
(0.988778 -0.00477516 -4.72766e-22)
(1.03204 -0.122172 -3.9441e-22)
(1.02747 -0.0627884 1.4163e-21)
(1.04586 -0.111713 -7.86028e-22)
(1.04276 -0.0763804 -1.66168e-21)
(1.07226 0.0588973 1.41506e-20)
(0.997615 -0.00156088 1.31159e-23)
(1.0072 0.0371729 5.06889e-21)
(1.00692 -0.00138193 3.74086e-22)
(0.999663 -0.000513305 -4.99603e-23)
(0.998963 -0.002206 3.57331e-22)
(1.05295 0.00129925 -1.31324e-21)
(0.887569 0.00375356 4.60741e-22)
(1.00152 -0.00625603 4.89525e-23)
(1.01893 -0.0498377 3.42218e-22)
(1.02127 0.0205454 -8.04104e-21)
(1.00002 -7.24744e-06 -4.99379e-25)
(0.981343 -0.00911392 2.17733e-21)
(1.02005 -0.00868408 2.58196e-21)
(1.07012 -0.0370537 2.28058e-21)
(1.00697 -0.000838786 2.09473e-21)
(0.998634 -0.00191586 6.64254e-23)
(0.986564 -0.0384602 7.67817e-23)
(0.998199 -0.00814391 -1.03935e-22)
(1.00003 -4.964e-06 5.48138e-24)
(0.981118 -0.045454 -6.35497e-21)
(1.04492 0.0723772 -3.74118e-21)
(1.01897 -0.0292918 1.70308e-22)
(0.985219 -0.00503888 -1.66674e-21)
(1.00158 -0.000360646 -9.59089e-23)
(1.02396 0.022604 1.06093e-20)
(0.999671 -0.000604339 -2.31429e-23)
(0.998924 -0.00062653 -7.34452e-24)
(0.999691 -0.000167367 -3.48785e-23)
(0.999365 -0.00205389 -8.86615e-23)
(1.15288 0.0490292 5.08637e-21)
(1.02725 -0.0333707 1.78488e-21)
(1.00771 -0.0175182 2.25438e-22)
(0.984204 -0.00742024 -7.59387e-22)
(1.00004 -4.91302e-05 5.34872e-24)
(1.07584 -0.117659 4.50696e-21)
(1.19035 -0.0154763 1.55355e-22)
(1.0819 -0.12694 -2.18489e-21)
(0.998417 -0.0322269 -8.24847e-22)
(1.01228 -0.00849858 2.40233e-21)
(0.999817 -9.52998e-05 1.57696e-23)
(0.990085 -0.0113222 -9.53355e-22)
(0.963055 -0.0470369 -3.85361e-21)
(1.15098 0.0327716 3.71189e-22)
(1.00362 0.0498889 -3.55267e-22)
(0.999026 -0.00310276 7.19629e-23)
(0.949272 -0.0334705 2.2338e-21)
(0.995911 -0.00270933 -6.38469e-22)
(1.03131 -0.030357 -2.99855e-22)
(1.08344 0.0561933 1.54372e-21)
(1.00039 -0.00013025 -8.08964e-23)
(0.999867 -0.000203226 -5.56823e-24)
(1.1303 0.091262 1.61165e-21)
(1.14601 0.015443 -7.70747e-22)
(1.0169 -0.0143654 8.99546e-22)
(0.997455 -0.00170649 3.35873e-22)
(0.998192 -0.000441079 -3.32258e-23)
(0.96978 -0.0476221 9.37692e-22)
(0.999852 -0.000341414 -1.88338e-23)
(1.017 -0.03095 5.68068e-22)
(0.988172 -0.00142597 3.19068e-21)
(1.00062 0.0188783 -5.94955e-21)
(1.04844 0.0769368 -1.9171e-21)
(1.06285 -0.064498 2.47206e-22)
(0.998759 -0.070674 2.67443e-21)
(1.00558 -0.0014636 1.04979e-21)
(1.01375 -0.0231361 -9.26876e-22)
(1.13816 8.17173e-05 4.18328e-21)
(0.998624 -0.0787629 -1.64313e-21)
(1.01821 -0.0427395 5.47519e-22)
(0.999999 -6.74426e-06 8.35418e-27)
(1.12579 -0.0138196 2.61578e-21)
(0.976642 -0.00290754 3.00353e-22)
(0.998153 -0.0876407 3.29e-21)
(1.0184 -0.0269858 -1.53236e-21)
(0.959594 -0.0155971 -6.93308e-22)
(0.999656 -0.000297125 -1.70541e-23)
(0.997405 -0.00128022 -1.49687e-22)
(1.03565 0.0356659 1.32468e-20)
(0.973125 -0.0109201 -1.16625e-21)
(0.999986 -1.6685e-06 6.07792e-25)
(0.997514 -0.000520569 -3.50643e-22)
(1.14555 -0.0787612 -3.2611e-21)
(0.999856 -4.57394e-05 3.96086e-23)
(1.02175 -0.0477819 -1.29976e-22)