/*--------------------------------*- C++ -*----------------------------------*\
  =========                 |
  \\      /  F ield         | OpenFOAM: The Open Source CFD Toolbox
   \\    /   O peration     | Website:  https://openfoam.org
    \\  /    A nd           | Version:  7
     \\/     M anipulation  |
\*---------------------------------------------------------------------------*/
FoamFile
{
    version     2.0;
    format      ascii;
    class       volScalarField;
    location    "39.5";
    object      p;
}
// * * * * * * * * * * * * * * * * * * * * * * * * * * * * * * * * * * * * * //

dimensions      [0 2 -2 0 0 0 0];

internalField   nonuniform List<scalar> 
20933
(
0.00161087
0.00234128
-0.000212753
-7.21351e-05
-0.00279759
-0.00301791
-0.0919091
0.297674
-0.0383745
0.288206
-0.0893895
0.147501
-0.0225894
0.00145988
-0.000218468
-7.45047e-05
-0.0882977
0.162538
-0.0523346
0.00278579
-0.0362581
0.158814
0.288837
-0.117207
-0.00177536
0.523119
-0.00211675
-0.0213427
-0.154895
-0.055019
-4.80771e-05
0.605228
0.264507
-0.0101286
-0.000503486
-0.000189977
0.33559
0.000103852
-0.00560092
0.131185
0.00133776
0.346543
0.418896
-0.00201356
0.523641
0.00708128
0.254779
0.0254328
0.000141813
-0.0173322
-0.000512783
0.0176946
-0.105915
-0.00115672
-0.129436
-0.00487114
-0.0116211
-0.000309693
-0.0177647
-0.0789294
0.553772
0.00289876
0.000420317
0.263348
0.000370282
-0.00200856
0.508539
-0.00202294
-0.0246077
0.51988
-0.0115214
-0.109319
-0.000174114
-0.0140948
0.510902
-0.0318371
0.510893
-0.00320525
0.129739
0.474755
-0.00171201
-0.00165146
-0.15291
-0.0361982
0.00394697
0.423142
-0.0184547
0.663596
0.262657
0.549182
0.231819
-0.000141138
-9.25433e-05
0.637717
0.00852471
0.000801217
0.643428
-0.00100805
-0.0783294
0.329778
0.554861
-0.00277581
0.563811
-0.0725773
0.052991
-0.0295101
0.477315
-0.0468021
0.00594782
0.450141
-0.163626
-0.0918552
-0.00798852
-0.00486931
-0.0260514
-1.91906e-05
0.408541
-0.00174578
-0.0920811
0.467395
-0.00013739
-0.0426493
0.148955
-0.0224067
-0.0101967
0.163544
0.223278
-0.0205638
0.613173
0.419427
-0.0266231
-0.0155858
0.00153922
-0.0045215
0.481389
0.0446176
0.0703237
-0.0402044
-0.00216281
-0.0462589
-0.045026
-0.0155401
-0.129552
0.573245
0.016138
0.487962
0.277552
-0.00139058
0.202317
-0.00245355
-0.000328172
0.512494
-8.58305e-05
-0.0305365
-0.00159304
0.282826
0.43175
-0.120723
-0.0045694
-0.0239525
-0.135376
-0.0846955
-0.000128274
0.027969
0.0992498
0.657335
-0.00196086
-0.140234
-0.031229
0.32828
0.0565184
0.526552
0.432776
-0.00878269
0.682197
0.252872
0.00107538
0.540239
-0.0235213
0.470272
0.495749
9.71624e-05
0.569666
0.430096
0.00269839
-0.00576552
-0.0104407
0.313191
-0.0772533
0.617568
0.221774
-0.0479993
0.338217
-0.0185221
-0.00616172
0.131347
0.566105
-0.00819166
0.00203216
0.624425
0.0652399
-0.111834
-0.0956392
0.605969
0.580852
-0.00962294
-0.013609
0.0190647
-0.00526935
0.000881828
0.503687
0.537488
-0.00337118
-0.0144223
0.460944
0.51057
0.00256304
0.467537
-0.0393854
-0.00364924
-0.0217156
0.444937
0.591735
0.234287
0.447021
-0.00307077
-0.0128576
-2.17646e-05
0.00206945
-0.00210228
0.145648
-0.0645595
0.469421
-0.0440155
0.43579
-0.0176142
-0.0232618
0.523187
0.649396
0.437452
0.506149
-0.0131735
0.343889
-0.0213416
0.0606818
-0.00132116
-0.151835
-0.00999386
0.0175627
0.000131095
0.00587029
0.596618
0.143561
-0.00646772
-0.0229418
-0.063078
-0.11627
0.353112
-0.0432356
0.00794934
-0.0255015
-0.00871875
0.000450936
-0.0166846
-0.0805686
0.570824
-0.0227132
-0.00727952
0.44075
0.577855
-0.0180495
-0.000386612
-0.0316403
0.508917
-0.169315
0.550213
-2.70607e-05
-0.0168573
0.446956
0.497757
-0.0275405
-0.0103144
0.617218
-0.0872161
-0.0503648
0.56063
0.613537
-0.0202496
0.45689
0.0787104
0.469892
0.385211
-0.000385175
-0.0331617
0.339715
0.00113637
-0.0560759
0.0154067
-0.170243
0.0600929
0.013086
-6.51422e-05
-0.000679761
0.548717
-0.00365847
-0.0715771
-0.0286105
0.166037
0.00176869
0.467734
0.0600086
-0.0271399
-0.00466735
0.310653
0.147437
-5.9348e-05
0.544618
0.423974
0.535101
-0.117465
0.000389372
0.611225
-0.000665807
-0.0170705
0.134079
0.000822225
-0.0175532
-0.0991424
0.434701
0.637128
0.496793
0.103006
0.690441
-4.83662e-05
-0.00857518
0.497996
-0.13741
0.335566
-0.0129687
0.517899
0.0556459
-0.000814764
0.0539709
0.405497
-0.1266
0.561395
0.406221
0.000228664
-0.00259088
0.268536
0.174826
0.00312581
0.426676
-0.0157841
0.680083
-0.0437198
-0.00229455
0.00484721
0.492574
0.421309
0.00101277
0.310483
0.547428
-0.0038189
0.379809
0.420754
0.682872
-0.00040009
0.191067
-0.0115187
-0.00806449
0.000194633
0.516262
0.351982
-0.0225328
0.529171
0.117598
-0.0107552
0.338521
0.10213
0.150423
0.681762
-0.0363481
0.107776
0.534883
-0.0229069
0.0592899
-0.0797512
0.257837
0.00698454
0.24004
-0.0216435
0.102087
-0.00153233
0.260218
0.530328
0.390608
-0.154531
-0.00819315
0.599215
0.600497
-0.00135749
-0.0155933
0.469769
-0.0671984
-0.0295141
0.354811
0.00437813
0.709104
-0.0227115
0.211329
-0.00143997
0.534351
0.401773
0.0217458
-0.0390482
-0.0502654
0.065499
-0.00111563
0.468478
-0.109199
0.272658
0.672324
-0.119543
-0.0242334
-0.00217412
0.0339222
-0.0211127
-0.00722735
0.37343
-0.000396648
-0.0150156
-0.0035212
-0.0740671
-0.015779
0.000123627
-0.0250933
0.119446
-0.139159
-0.0247677
-0.0103982
0.0266125
0.0239828
-0.0196963
0.000714168
-0.00155899
-0.0242186
-0.0746561
-0.00244298
-0.0242924
0.152983
0.382645
0.0362271
0.000266427
0.631102
-0.00233723
-0.000387902
0.00087931
-0.0147839
-0.0295005
0.576059
-0.0175149
0.0852528
-0.0631564
-0.0685743
0.344146
-0.0175212
-0.0286349
-0.0524465
0.000163246
-0.0667051
0.64059
-0.111627
-0.0214865
0.372305
-0.0210111
0.382332
0.207471
-0.000693809
0.000859073
0.426783
0.664125
-0.113011
0.26483
0.107319
-0.0159654
-0.0170115
0.468463
0.0416089
-0.149211
-0.07754
0.00560493
0.00954877
0.596781
0.123421
-8.81761e-05
0.566495
-0.0211373
-0.0340103
0.438252
-0.00476102
-0.00125753
0.000170541
-0.027386
-0.0063977
-3.4797e-05
0.258305
-0.167449
0.472247
0.000444175
-0.00116353
-0.0212924
-7.06191e-06
-0.116048
-0.146533
-0.00108587
-0.0286317
-0.0078934
0.42967
0.535599
-0.000428608
-0.00113043
-0.0420168
0.542365
-0.00996637
0.542967
-0.00196644
0.672218
0.393321
0.220377
0.649836
-0.099437
0.000998863
-0.0106047
-0.00957398
0.530425
0.465229
-0.00129594
-0.14096
0.0482477
-0.0327018
0.00225153
-0.155487
-4.39914e-05
0.437297
-0.00314482
-0.0254671
-0.00918373
-0.0224395
0.215116
0.0458387
0.00199394
-0.0156307
-8.39608e-08
0.671523
0.590763
0.00123061
-0.00327978
-0.00713326
0.463212
-0.00966841
0.109263
-0.0188352
0.503328
0.217961
-0.00738803
0.701852
0.00619719
0.48891
-0.00321219
-0.0790969
0.559275
-0.0129652
0.673613
0.448712
0.683257
0.000818641
0.00255499
-0.0401025
-0.0018134
-0.00399662
-0.0351519
0.490807
0.511382
0.38824
0.536895
0.668124
0.272162
0.531016
0.390998
-0.00503717
0.433092
-0.0264911
-0.0191516
0.000106333
-0.0327495
-0.100659
0.312445
0.0272297
0.474095
-0.0194783
0.0702928
0.456144
-0.00929033
-0.0371363
-1.21406e-05
-0.00025801
0.311579
-0.0287447
-0.0174502
-0.000302111
-0.00066574
0.0401366
0.000283401
0.00693115
0.673285
0.277927
0.270903
-0.000719522
0.463666
0.0447305
-0.00939546
-0.00358764
-0.00013271
0.000201246
-0.00173514
-0.00919247
-0.081638
0.315527
-0.0260248
0.00308049
5.54976e-06
0.495853
-0.0578213
-0.121449
-0.0132635
0.0834044
-0.0373029
0.00542127
0.456352
0.616549
0.404869
0.00570783
0.411906
0.000914497
-0.0170147
0.300337
-9.36437e-05
-0.00930936
0.198333
0.266789
-0.00725606
0.456486
0.585702
0.444813
-0.0150207
-0.00290855
-0.0186698
0.106264
0.421662
0.000958373
0.557792
-0.0178628
-0.0809378
-0.00176885
0.639034
0.318485
0.470557
-0.150876
0.654503
-0.00624019
-0.0168033
0.688883
0.0142628
-0.0687583
0.481594
0.503142
-0.0145039
0.415507
0.542446
0.498612
0.453355
0.490189
0.395074
0.000129687
-0.00672967
-0.00223837
-0.0693092
0.529664
-0.0642705
0.156233
0.167529
-0.0192568
0.0160326
0.19058
0.5392
0.021469
-0.000795022
0.012434
-0.0202853
-0.0900276
-0.107897
-0.072132
0.448025
0.560652
0.0142563
0.535286
0.668101
0.00221122
-0.00125799
-0.000952309
-0.000402582
0.350516
0.674142
0.12911
0.463975
-0.0073367
0.393558
0.405433
-0.136064
-0.00427404
-0.0120748
0.151913
-0.0146335
-0.0152875
-0.015398
-0.0156626
0.473392
0.000968345
-0.0216692
0.503897
0.0111387
0.614756
-0.0408919
0.384045
-0.104748
-0.0300393
0.555292
0.612523
0.529397
-0.0108012
0.618057
-0.0134847
0.553788
-0.00926685
0.527028
-0.0184195
-5.37208e-05
0.528714
0.559387
0.55491
0.52877
0.311997
0.0654509
0.364205
-0.0671487
0.5283
0.452409
-0.0542754
0.029377
-0.000278932
-0.0958044
0.460398
-0.0118332
0.000996412
0.539595
0.536197
-0.024895
0.521078
-0.0834616
0.0681817
0.00475457
0.546603
0.556368
0.667979
0.548397
0.00130331
-0.00834556
0.000162451
-0.031868
0.610055
0.249141
0.450315
-0.0141017
0.393269
-0.00600075
0.612607
-0.0466293
0.538014
0.00415335
0.595338
0.626163
-0.00830508
0.10468
0.590704
0.00158398
0.635861
-0.0261501
0.00195011
-0.00405652
0.494494
0.191726
-0.0490812
0.52834
0.641014
0.402225
0.00686537
-0.0266814
-0.0181452
0.53514
0.621774
0.695007
0.240751
-0.00252479
0.0065336
0.458446
-0.0023552
0.000708856
-0.00302685
-0.00990045
-0.0856287
-0.127873
0.569813
-0.0156516
0.000109882
0.440273
0.227946
-0.00365267
0.123716
-0.000986425
0.191048
0.449119
0.525398
-0.112779
0.130405
-0.00331305
-0.0490647
0.000839891
0.539124
0.574564
-0.154376
-0.143021
-0.125246
-0.0372664
0.531243
-0.0296145
-0.0856123
-0.0961073
-0.036267
0.65053
-0.119417
-0.00671569
0.54164
0.00214292
0.0668945
-0.0249952
-0.0893334
0.00117978
-0.000767044
0.647827
0.374723
-0.155596
-0.057227
0.390976
0.513725
0.4493
-0.0964188
-0.0179309
-0.0172122
-0.0184818
0.426457
0.000638774
-0.0276238
0.000154656
-0.00653578
0.00074572
-0.0999646
0.497513
-0.0750545
0.541729
0.529234
-0.0179724
-0.00971361
0.663074
0.401518
0.00226909
-0.0110235
0.390588
-0.0241079
0.344733
0.648364
0.337708
-0.00019181
-0.0126724
0.483768
-0.0217991
-0.0635653
-0.028945
0.584082
-0.0148722
-0.0673344
0.380255
0.281463
0.438535
-0.0224775
0.318313
-0.0327114
0.540634
-0.100523
0.176782
-0.0333039
-0.0334795
0.000155008
0.000794271
-0.000628991
0.586333
-0.041792
0.378375
0.0569128
-0.0589215
-0.0772674
0.260025
0.668307
0.60321
-0.0675714
0.235003
-0.0208063
0.0280059
0.00167719
0.165409
-0.0145871
-0.00196103
0.421549
-0.029843
-0.00292498
0.577539
0.473497
0.555027
0.00833073
-0.095766
-0.00774592
0.250901
-0.0248164
-0.000125757
0.586395
0.0907472
0.219217
-0.0539446
0.000148325
-0.00772464
-0.00103004
0.202342
-0.000462138
-0.0153017
-0.0119792
-0.0213861
0.604751
1.70372e-05
-0.0310346
-0.00511246
0.625128
-0.00171209
-6.59867e-06
-0.106935
0.151532
0.436871
-0.00840482
-0.00814967
-0.0214455
0.44948
-0.0122606
0.23401
-0.12599
-0.121088
0.100811
0.424656
0.0803208
0.229516
0.00142202
0.471519
0.631461
-0.00303888
0.363021
-0.0390578
0.644648
0.619141
-0.0826501
0.0346012
0.00258766
0.371252
-0.000240114
0.527109
0.680597
0.000959207
0.152685
0.287503
-0.00105887
-0.000517378
-0.00380108
0.669396
-0.0104453
-0.0341119
0.535399
-0.00392907
0.362504
0.549556
-0.0133332
0.59506
-0.0171077
-0.0104628
0.553097
0.245007
0.4379
0.00157685
0.555638
0.197747
0.524672
-0.0569931
-0.00769759
0.159177
0.587467
0.552517
0.599536
0.534572
-0.0985597
-0.00662735
-0.022641
0.394948
0.525593
0.628104
-0.0157546
0.302636
0.638112
0.498081
-0.00106442
-0.0114874
-0.00292484
0.144172
-0.0568583
0.570451
0.259316
0.522985
0.106408
-0.0412247
0.526643
-0.0628388
0.407059
-0.0912496
0.0218105
-0.0120788
-0.0833731
-0.054279
0.622309
-0.0494274
-0.0164633
-0.0703402
0.207001
0.0454385
-0.0145457
0.0229983
-0.0204968
-0.063518
0.42206
0.220905
0.463318
-0.136259
0.544913
-0.0714398
-0.000700008
-0.00888878
-0.0181517
-0.114955
-0.132115
-0.00486145
0.296517
0.604081
0.174156
0.0386724
-0.0334686
-0.0583779
0.35757
-0.0260109
0.642897
0.305496
-0.0042097
-0.00995511
-0.0128574
-0.0763262
-0.0154426
-0.0259945
-0.0284592
-0.0927332
0.287448
0.613442
0.565753
0.24824
0.00218267
-0.0156902
0.00106754
-0.00719635
0.431225
0.00469786
0.411509
-0.0646369
-0.00904241
0.609687
0.622831
-0.000887859
0.533152
0.563421
0.131617
-0.0163629
0.193022
0.429085
0.620705
0.351236
-0.0724163
0.606713
0.0825388
-0.0346006
-0.0377782
-0.082796
0.635457
-0.0231226
0.543183
0.316789
0.60252
-0.047446
0.372195
0.384549
-0.083792
0.553758
-0.0298189
0.585253
-0.000456476
0.34189
0.410392
0.406491
-0.00228939
-0.0364605
-0.00104497
-0.0182037
0.321724
-0.0145199
0.375266
0.349933
0.673358
-0.021427
0.589444
-0.0185048
-0.0172851
0.00922431
0.532297
0.0828427
-0.0620572
0.0372184
0.459192
-0.00522266
0.659405
-0.00360961
-0.0768979
0.0532492
-0.00382113
0.536153
-0.0404182
0.568022
0.451861
0.140904
0.0117467
0.165664
-0.000818603
0.00206857
0.579915
-0.0300543
-0.0586279
0.327494
0.0394015
-0.0126677
0.0122091
-0.00282308
0.603681
-0.0136888
0.00487231
-0.0819626
-0.0136454
0.523008
0.675996
-0.00905236
-0.0626451
-0.00283235
0.0774928
-0.000910302
0.122543
0.62376
0.597765
-0.0226413
0.183727
-0.000262331
-0.0168408
0.479365
-0.0143059
0.249806
-0.00672472
0.66315
0.460415
-0.0753076
-0.0172781
-0.0273675
0.660523
-0.0153684
-0.000459756
0.0032878
0.134227
-0.0723511
-0.00308771
0.102086
0.603728
-0.0882601
0.638712
0.695853
-0.0147368
-0.0579865
-0.000633691
0.00154745
-0.0552718
-0.0280495
0.653837
-0.0069756
0.00253055
0.411298
-0.0514441
0.454682
0.00312244
-0.056417
0.449638
0.419497
-0.0712987
-0.0189712
-0.0568896
0.50211
-0.0142683
0.275455
-0.016893
-0.00733103
-0.0161369
-0.00846484
-0.00238956
-0.0943179
-0.0911135
-0.11632
-0.00233981
0.109824
0.000101872
-0.014462
-0.0615923
-0.00871037
-0.0290827
0.606636
0.0221601
-0.0208753
-0.0167568
0.489861
0.000920272
0.426753
-0.0789343
-0.00241341
0.00433518
0.449489
0.282369
-0.0176031
-0.0311205
-0.031384
0.35715
-0.000308914
0.416003
0.49589
-0.0108581
-0.053963
0.127419
0.129935
-0.062525
0.139846
0.468412
-0.00581211
0.396723
-0.0189946
-0.00341922
0.379405
0.626052
-0.00432434
-0.00529864
0.522618
0.387696
-0.00778782
-0.0326698
-0.108953
0.00456287
-0.00547975
0.000409699
0.484838
-0.1288
-0.0585868
0.485968
-0.0705867
-0.0180481
0.272405
0.00109231
0.174347
0.411794
-0.0331967
0.411419
-0.00787541
0.595469
-0.0730079
-0.000294361
0.000123307
-0.0280976
-0.000621715
-0.00815312
0.17594
-0.0513742
-0.00431945
-0.0258163
-0.00972404
0.237207
0.536613
0.000524368
-0.0055341
-0.0175379
0.383403
-0.0546084
-0.0103117
-0.00513267
0.0635987
0.277633
-0.0107614
-0.000821395
-0.0863252
0.448695
0.485107
0.125676
0.422246
0.560894
-0.010375
0.388133
0.130793
-0.00706761
-0.00636932
-0.0183231
0.682419
-0.0139091
-0.0820099
-0.0129459
0.446104
-0.000938185
-0.00173758
-0.0150115
-0.0171875
0.0008722
0.53795
0.307307
0.394114
0.493386
0.425313
0.00294691
0.165563
0.336583
-0.0137033
0.526044
0.222223
0.322131
1.78886e-05
0.342536
-0.0373109
0.207008
0.334966
-0.0868387
0.0873101
0.0616637
-0.0125929
0.000232802
-0.00983607
0.190647
0.612493
0.209944
-7.45666e-05
0.299219
-0.00579421
0.335999
0.244813
-0.000271386
-0.013178
0.37786
0.53717
0.105754
-0.00990869
-0.00483389
0.226259
0.397232
-0.01023
0.477755
-0.00793457
0.169886
-0.0277805
0.572103
-0.000227083
-0.00116392
-0.000916646
-0.00406642
-0.103575
0.0029876
0.399425
0.48797
-0.00237123
0.281828
-0.00285356
0.000409041
2.64646e-05
0.236277
-0.00859813
0.285249
4.83459e-05
0.407208
-0.00390972
0.467739
-0.129852
0.504742
-0.0128726
-0.00139848
0.000746603
0.542722
-0.0178812
0.0354025
0.145441
-0.00203924
0.46193
-0.000775406
-0.0126254
-0.00372968
0.000719447
0.541235
-0.000920257
-0.00560824
-0.0058733
-2.03043e-05
0.000886811
0.474021
-0.000694196
-0.0105204
-0.00325978
-0.00081923
0.437095
-0.144806
0.027636
-0.043121
-0.00109311
-0.0102798
-0.0818336
-0.00218373
-0.00137149
-0.0003378
0.261179
-0.000336357
-0.000467852
-0.0829685
0.15434
0.524746
0.00397775
-0.00218336
-0.00284064
-0.0258283
0.42242
0.47918
0.544111
6.02349e-05
0.203815
-0.0118811
-0.00920949
0.306458
-0.0141871
0.000307857
0.00185911
-0.00515283
-0.00521831
-0.00538206
4.24557e-05
-0.00256738
0.00103328
0.402908
-0.00193339
0.297138
0.0705878
0.0380104
0.236116
0.145406
0.348603
0.0115937
0.391524
-0.000877803
-0.0112403
0.363872
-0.023697
0.430079
0.409242
-0.0113716
-0.00818926
-0.000350464
-0.00161881
-0.0404909
0.00125757
0.00198863
-0.00128487
0.00188058
-0.00176239
-0.0137341
0.000847293
-2.87251e-05
-0.0141444
0.349367
-0.00122992
0.00134844
-0.00565876
-0.00445893
-0.0023066
0.477561
0.460152
0.226286
0.58009
-0.0101743
-0.060548
-0.00260999
-0.00306198
-0.00231784
5.52594e-05
3.60173e-05
0.214323
0.0985182
8.62854e-05
-0.0993759
0.108575
0.228201
-0.0350981
0.00397263
-0.0110487
-0.00177572
-0.0012544
-0.00174945
-0.00262666
-0.0314364
0.591629
-0.00347582
-0.0309084
-0.00460403
-0.0141408
0.00303467
0.00641226
-0.000899327
0.00167267
-0.0114087
-0.0017079
-0.0330654
0.0553322
-0.00108696
0.27911
-0.000143899
0.00114611
-0.062329
0.427752
0.447652
0.334879
0.00288017
-0.106229
-0.0341347
-0.119552
-0.019587
-0.118955
-0.00955824
-0.112651
0.00324472
-0.00779677
8.94689e-06
0.0548447
0.00264534
0.000757311
-0.0148253
0.616611
-0.00938506
-0.104147
0.582451
0.598225
0.0031504
0.586692
0.55597
0.433411
-0.00332713
-0.149905
0.599428
0.000834067
-3.15904e-05
-0.00957436
-0.00329625
6.65904e-05
-0.0280742
-0.00371119
-0.000840988
0.00274614
-0.0185921
0.000482154
-0.0346173
-0.000588861
0.661016
0.00358137
0.00305071
0.658132
0.000566648
0.62676
0.59367
0.400061
0.00244643
0.661402
0.0572725
0.508929
-0.00906445
-0.000437102
-0.00809744
-0.02007
0.0286065
0.532996
0.000974648
-0.000629803
-0.00277293
9.20645e-05
-0.150807
0.223457
0.000121825
0.424416
-0.0370803
-0.00104463
-0.0138406
0.00282901
0.13543
0.000104881
0.599367
-0.00121898
0.557224
-0.00231625
-0.00633695
0.000120442
0.00137125
-0.00753869
-0.000298435
0.497191
0.530277
6.29121e-05
0.600309
-0.0146005
-0.00195828
-0.0209774
0.564088
-0.139465
0.000667056
-0.000105102
-0.00129192
-0.000734834
0.000237754
-0.000404536
0.605332
0.000463321
0.000925809
-0.0193142
0.645565
0.696351
0.00325799
-0.0161206
0.436357
0.652051
-0.0200415
-0.0011008
9.9845e-06
-0.000178164
0.542779
0.426883
-0.00108043
0.000874928
-0.0108012
0.572748
-0.0798149
-0.00727925
-0.00369246
-0.00166937
-0.0219902
0.458053
0.000200323
0.586764
0.000746504
0.632844
-0.000611625
0.598609
0.00150106
0.0485846
-0.0164899
6.61147e-05
-0.000810555
-0.000780211
-0.00246813
-0.00688228
-0.000744226
-0.00290075
0.00151386
-0.0114057
-0.000752765
-0.000391559
-0.00038526
-0.00218147
0.0886979
-0.000582036
0.424537
-0.000586809
-0.0119404
-0.00389136
-0.113141
0.653806
5.93635e-05
-0.00146415
-0.00223273
-0.0114423
0.00311876
0.405374
0.452427
-0.00262646
0.00157821
-0.0653045
0.1169
0.588037
-0.00552758
0.395433
0.473653
6.8972e-05
-0.0185936
0.00423584
-0.00129956
0.000862447
0.000651174
-0.00104281
0.00237251
-9.81995e-05
-0.00430005
-0.0131366
-0.00418148
0.231309
-0.0776156
0.423124
0.0884178
-0.0826123
6.97514e-05
-0.000748833
0.539159
-0.00085225
-0.0113661
0.000594779
-0.00357762
-0.00378282
0.32471
0.0421805
0.609324
-0.000518214
-0.00126418
-0.000143149
0.261796
-0.00183145
0.582025
0.0932967
0.00241894
0.00516492
-0.0555313
0.000136853
0.397829
0.0215867
0.544304
-0.00861858
-2.54516e-06
-0.000200972
-0.00144745
-0.000236129
-2.11257e-06
0.00117538
-0.00600565
-0.00446274
-0.00769453
0.000122182
-0.00900494
-0.072136
-1.25778e-05
0.000227696
-0.00203943
-0.00068238
1.5783e-05
-0.00405641
0.00691803
-0.000964938
0.0358169
0.00258014
0.434745
-0.00640038
-0.0502677
3.89582e-05
-0.046769
-0.0218984
-0.0184165
-0.000442237
4.5469e-05
-4.1372e-05
0.000175438
-0.057914
-0.026517
0.106853
-0.106661
-0.000517163
0.0369854
-0.108063
0.469013
0.349243
0.435723
0.00136647
0.000322819
0.000499742
0.00238733
0.561536
0.408627
-0.000917344
-0.00229074
0.286109
0.410088
0.61787
-0.000413968
0.000646225
-0.00313201
2.89304e-05
-0.000399446
0.000149069
-0.00312509
-0.00130974
0.433145
-0.0222622
-0.000678248
-0.00226384
-0.00106817
-0.0436666
-0.00218698
0.272541
-0.00124016
0.149593
-0.0178063
-0.00115633
0.167597
0.109268
-0.000426578
0.1805
0.583525
-0.0121565
0.447945
0.00119921
0.00236584
0.485536
-0.00108389
0.411128
0.000801153
-0.0379336
-0.0669294
0.00210333
0.000693387
-0.00089294
-2.87732e-05
0.00231928
4.99292e-05
-0.000509898
0.000219588
0.591976
-0.0305875
-0.00211389
0.423407
2.87441e-05
-0.000637832
-0.0158798
-0.000685468
0.580639
0.000821066
-0.00075773
0.000281761
0.0901076
-0.0193216
-0.00102928
0.000528163
0.0325413
-0.00422408
-0.000531325
0.527992
0.641485
-0.00188468
-0.0256546
-0.00141179
0.45708
2.96567e-05
0.00125729
7.90352e-05
3.4648e-05
-0.0609551
-0.00246006
-0.000943208
-0.12106
-0.000509082
-0.0665283
0.000447881
-5.98324e-05
-0.00219931
0.490866
0.518125
-0.0145036
0.384346
0.0278196
0.000100444
0.4146
-0.00575825
-0.00125885
-0.00259601
-0.0792896
-0.000151291
-0.0185046
0.000811582
-0.0288647
0.178181
-0.00139902
-0.000981457
0.117824
0.325529
0.127413
-5.4158e-05
5.93328e-06
0.0041082
0.249553
-0.00169499
-0.0595666
0.000411437
0.410133
-0.145176
0.491455
0.327552
0.00466894
0.171212
0.000543758
0.428835
-0.0209066
-0.0138191
0.000132338
-0.000956968
0.00558559
0.00613854
0.00464962
0.00573004
0.128029
0.00449242
0.271961
-0.00064741
-0.00200249
0.000533489
0.0524845
-0.018893
-0.00453063
-9.96037e-06
-0.0182854
0.2427
0.00726835
-0.0174121
-0.0157407
0.0456949
-0.0145961
-0.000215227
-0.000709442
0.472863
0.510146
0.533048
-0.000429175
0.512184
0.462421
0.516431
0.00158728
0.000435109
-0.000441353
0.28894
0.369073
-0.0787564
-0.0117663
0.00704912
-0.00393361
0.0447869
0.00609111
0.00412058
0.392494
-0.00125394
0.00450323
0.000199152
0.00694405
0.515626
-0.0235672
-0.000631167
4.14276e-05
0.565834
0.457322
-0.0418866
0.232024
0.00557563
-0.0506621
0.00580674
-0.0588289
-0.0667918
-0.0706513
0.212568
0.00541135
0.0901577
-0.000228591
0.49891
-0.017205
-0.00448487
0.436828
-0.00327202
-0.00391362
0.00899559
-0.0825417
0.146927
-0.0127057
0.000401025
0.399232
-0.000572121
-0.00486423
0.0315718
-9.98275e-05
0.00258386
-0.00113894
-0.000867408
0.00722064
0.0203135
0.00045367
0.0102888
-0.0141551
0.00328484
-0.00251982
-1.18268e-05
0.000568014
-0.00588536
0.00012061
0.00581522
0.00557224
0.320824
0.00685175
0.00402891
0.000106265
-0.00623408
-0.0197104
5.28587e-05
0.315923
0.486627
-0.00234744
0.00177844
0.00108949
0.00451392
0.000357751
-0.00735678
0.00186291
0.0271752
-6.49868e-05
-0.004531
-0.00268159
0.00764492
-0.000877132
-3.70528e-05
0.305191
0.00170154
0.0650257
0.34966
-0.0209607
-0.0134801
0.00764717
0.000246202
0.0483265
0.000489848
0.00692065
0.0310689
0.169644
-2.3574e-05
0.0147725
0.211931
3.95779e-05
0.12542
-0.000503989
-0.0239714
0.39603
0.000562834
-0.00024795
-0.000326443
0.361004
-0.13725
-0.0168463
0.00753876
0.0017742
0.00451257
-0.00649576
0.00136077
0.100752
0.541389
0.60413
0.438365
1.37364e-05
0.303331
0.0847305
-0.00129505
0.00792252
0.298606
-0.00459589
-0.160037
5.37645e-05
0.00566366
0.406839
9.41411e-05
-0.0619663
-0.0015912
-0.0510745
-0.000670942
0.445627
-0.00853415
0.432989
-0.0021111
0.00786923
-0.0115281
0.000682172
0.379603
-0.00479659
0.00387963
5.82563e-06
-0.0901493
0.00360948
0.149251
-0.00420658
-0.000752192
0.188671
2.56529e-05
0.275271
0.128914
-0.000626376
0.28527
-0.0446813
-1.85101e-05
-0.00237174
0.000642361
-0.00101356
-0.00868427
0.342096
-0.0147767
-0.00131422
-0.0441006
0.00234488
0.362565
0.516475
-0.000521724
-0.0071173
0.00306368
0.000335005
0.382303
-0.00655699
-0.000738606
0.252287
0.127927
0.436245
-0.00630913
-0.000803392
0.296892
-0.00510792
0.0034143
-0.00246217
0.548193
-0.0313181
-0.00302265
-0.000886126
-0.00150762
0.544187
-0.00797655
0.624455
0.170324
-0.00242075
0.00083586
-0.0201061
-0.0351038
-0.000257049
-0.00504447
0.536819
-2.48456e-05
-0.018994
0.544555
0.000579162
-0.00607483
-0.000296856
0.000855857
-0.000299918
0.0149584
-0.010408
0.0010113
-0.0918954
-4.61491e-05
-0.000225587
-0.000199103
5.29846e-05
-0.0238396
-0.000229442
0.00111147
-0.0301532
-0.0147864
0.621932
0.0302017
-0.00699279
0.00274829
-4.35601e-05
-0.00445445
-0.000159047
0.117017
0.419113
0.000837738
-0.0228299
-0.00654682
0.0615317
-0.00265131
0.653046
-0.00162873
0.00130813
0.277632
-0.00344048
-0.00023623
-0.0115722
0.420204
0.000734883
0.404043
0.428829
-0.00436782
-0.0131043
0.501156
-0.00414748
0.00160499
-0.00934883
0.308352
0.117285
-0.0221506
8.82173e-05
0.522647
0.000963192
-0.0046133
0.00316429
0.00194434
0.597005
-0.00161685
-0.000123819
-0.0027729
0.228207
0.626453
0.415184
0.662175
0.000495537
0.585448
0.000121557
0.324289
0.00240318
0.000577434
0.175779
-0.0118172
0.102872
-0.000267283
-0.0155763
0.631764
-0.0108768
-0.0543916
-0.00206127
0.00120527
0.169841
-0.00186084
-0.00686897
-0.000225611
-0.0195077
0.000216382
0.638922
0.000639017
-0.000564582
0.0663588
-0.0968343
0.164977
0.397342
-0.00033885
-0.101971
0.222897
0.450076
0.653812
3.74805e-05
-0.112452
-0.101319
0.00145247
0.253803
0.284414
-0.108643
0.548766
0.120549
0.198372
-0.000576672
0.398407
0.000501065
-0.000496106
-0.000127713
-0.000234931
0.000623727
-0.00157658
0.00171843
-0.000117312
-0.000883587
-0.00280426
0.0001235
0.27435
-0.039831
1.82839e-05
0.637521
-0.000514976
2.21743e-05
0.515652
0.654232
-0.00420048
-0.0104822
0.496117
0.00101168
0.577234
0.0520218
0.000129511
-0.0525487
-0.0256816
-0.00273388
-0.000753185
0.418889
-3.40259e-05
-0.000378712
0.556701
0.000686659
-0.00239799
-0.0360306
0.000986202
0.000130984
-0.000348173
0.0429462
0.00206642
-0.00023846
-0.00306211
0.00125705
0.301257
0.000103609
7.19761e-05
0.00115491
0.538744
0.000877788
0.00170458
0.000211503
-0.00188612
0.521637
-0.00275116
0.121506
0.497869
0.00065538
0.601322
0.478826
0.00378136
-0.0529761
-0.000495329
0.000728596
0.577458
-0.00317959
0.000814493
-0.000159949
-0.000458441
0.00327916
0.000902461
-0.000430768
0.592493
-0.000136519
0.439335
-0.0150747
-0.0587884
-0.000165075
-0.0481463
-0.00159611
0.510316
0.519986
0.141653
-0.00060207
-0.0212763
-0.0569366
0.161058
0.100162
0.261305
-0.0705274
-0.0440177
0.00311566
7.85471e-05
-0.000450602
0.00105891
-0.00109476
-0.000735014
-0.000918554
-0.000152412
0.0028061
0.00671058
-0.00257335
-0.000424452
0.000807415
-0.000146105
-0.00139482
-0.000162843
0.700172
0.0920145
-0.00227657
-0.00358572
-0.00177527
-0.000125962
-0.000196677
-0.000711684
-0.000527378
-0.0167904
-0.000112668
0.002738
-0.00036134
0.00115882
-0.000283613
-0.00215064
-0.0228111
-0.00101975
0.544229
-0.0113523
0.427332
-0.0230444
0.565917
-0.00691066
-0.0087786
-0.0109001
-0.0127224
-0.0131782
-0.0152261
-0.0159952
-0.000107419
-0.0170885
-0.0169522
0.51646
-0.0204237
-0.0446479
-0.0214043
-0.00022237
-0.060207
-0.000861722
-0.000160874
-0.00298658
-2.00675e-05
-4.9984e-05
0.00916774
0.00129686
0.208053
0.4528
-0.0026307
-0.00141991
0.00246124
-0.00414051
-0.00171874
-0.00431323
1.44957e-05
0.000271093
0.646296
0.00175736
-0.00651132
-0.00393792
0.00140263
-0.00149932
0.000614986
-0.00723303
-0.00219607
0.000726045
0.00405549
-0.00273701
-0.00017776
-7.54697e-05
-0.00453952
0.00292926
0.000734463
0.000549902
0.000659484
-0.000182168
-0.000441697
-0.00161801
-0.000412785
0.000687187
0.000461521
0.00163694
0.506842
0.000446574
0.00119491
0.00162185
-0.00188186
-0.000362537
-0.000424971
0.328802
-0.00542842
0.478676
0.000160467
0.000463746
-0.000183846
0.413228
-0.0665016
-0.00040898
-5.02521e-05
2.81215e-05
-0.000301191
0.000328441
-0.0560094
0.000150417
-0.0300193
0.00042266
0.000921097
0.000477637
-4.40219e-05
-0.00168925
-0.0356171
0.495634
-0.0201219
0.00133946
0.000164324
3.03627e-05
-0.00467411
-0.000164191
-0.0155013
0.00180324
0.00226874
-0.000637426
-0.00603871
-0.0010987
-0.0960564
0.000389258
-0.000173731
-0.00108396
0.000352592
-0.000287623
0.00193777
0.0018063
4.5661e-05
0.58146
0.000313654
0.666974
-0.00415914
0.00177357
-0.00232609
-0.000173413
-0.000207844
-0.0233625
-0.000434221
-0.0661024
-0.000229061
-0.106859
-0.000717877
0.000237948
-0.000132658
-0.00414798
0.590073
-0.000178862
-0.0119852
-0.00269616
0.493362
-0.0231248
-0.0522294
-0.000211592
-0.11053
0.00286084
-0.109344
-0.0204555
-0.000341108
-0.00526324
0.619398
-0.0478423
-0.00283895
0.00252316
-4.64176e-06
0.432576
0.489828
-4.10861e-05
0.001298
0.361456
-0.000135799
-0.00287816
4.16243e-06
-0.000319403
-0.0216179
-0.0107422
-0.117761
-0.0138706
-0.000599593
-0.000179311
-0.000101783
-0.0462434
-0.0166174
0.29233
-0.00305368
-5.19436e-05
0.470117
-0.00584018
8.38266e-05
-0.0204064
0.00209937
-0.000783708
-0.00016596
-0.0100619
-0.000310687
-0.0103202
-0.000188989
-0.000495976
0.288824
-0.00270654
0.364324
0.566283
-0.00492559
-0.00538548
-0.0608675
-0.00273178
0.631535
-0.00429747
0.00106967
-0.000126028
0.440046
0.589025
0.259275
-0.0124418
-0.0100234
-0.000151644
0.00141956
-0.000332119
-0.00101143
0.00243551
0.402552
-0.012408
-0.000255952
-0.00231631
-0.000958835
0.059196
0.418007
-0.0174765
0.0042123
-0.00111698
-0.000100426
0.0003558
0.571384
-0.0023214
0.000655611
0.000252625
0.00266689
-0.00437361
0.0660128
-0.00453938
-0.00739443
-0.0173708
0.000174323
-0.00339
0.399292
0.00148955
0.000583462
-0.00613383
0.417842
-0.00141999
0.100244
0.505601
-0.000861783
-0.000125637
0.101174
0.36683
0.16051
0.297919
-0.023919
0.000763537
-0.000509927
0.398923
0.00637324
-0.00203096
-0.0224588
-0.00410391
-0.0609753
-0.00808888
-0.00178983
-0.000534203
0.376906
-0.00264404
-0.00298022
0.517956
-0.00906308
0.489487
5.87609e-05
-0.00176782
0.465095
0.629914
-0.0147888
-0.00412864
-0.0033429
0.000375752
-0.00273024
0.477775
-0.00577146
-0.0131167
-0.00214575
0.000389671
-6.54259e-05
-0.00302689
0.000329652
0.3301
0.000295984
-0.0125704
-0.000459034
0.00148979
0.000307601
0.212452
0.436159
-0.00554055
-0.00889179
-0.0115254
0.000355603
-0.00235532
0.000273668
-0.0111709
-0.0128367
0.248448
0.443155
-0.0145284
0.225149
0.00178296
-0.0478449
0.00109251
-0.0147748
0.292548
0.1823
-0.0171215
0.00427995
0.454762
0.324237
-0.00273682
-0.000281898
0.000922328
0.579906
-0.000587243
-0.000222737
-0.000622405
0.00059786
0.000393922
-0.00166697
0.000669252
-0.00379181
0.126211