/*--------------------------------*- C++ -*----------------------------------*\
  =========                 |
  \\      /  F ield         | OpenFOAM: The Open Source CFD Toolbox
   \\    /   O peration     | Website:  https://openfoam.org
    \\  /    A nd           | Version:  7
     \\/     M anipulation  |
\*---------------------------------------------------------------------------*/
FoamFile
{
    version     2.0;
    format      ascii;
    class       volScalarField;
    location    "28";
    object      p;
}
// * * * * * * * * * * * * * * * * * * * * * * * * * * * * * * * * * * * * * //

dimensions      [0 2 -2 0 0 0 0];

internalField   nonuniform List<scalar> 
7639
(
0.207717
-0.0031593
0.417757
0.25078
-0.00121601
-5.26516e-05
0.425838
-0.00731145
-0.000170312
0.104564
-4.93854e-05
0.00333314
-0.010902
0.0515758
0.109054
-0.0144397
0.221551
-0.0141507
0.00137196
-0.0636323
0.0678139
0.00219281
0.0378246
0.206657
-0.0183206
0.223262
-0.00112378
0.0637704
0.172023
0.00329647
-0.0194136
0.677532
0.037137
-0.000682301
-0.000147976
0.0854197
0.00377014
0.410294
-0.00622525
-0.000477403
-0.00569995
-0.0138502
-0.065511
-0.0677136
-0.000284722
-0.000115786
0.00214868
-0.00644409
-9.56872e-05
-0.0631801
0.00501886
0.0603951
-0.0229845
-0.00440398
0.0844572
-0.00653062
0.00150326
-0.00729654
-0.0295922
-0.000709859
5.67175e-05
0.00643177
0.0519395
0.00368169
-0.00136276
-0.0190547
-0.000136318
5.72375e-06
0.00232692
-0.00605492
-0.000106297
-0.0510663
-0.0177394
-0.0295312
-0.0137116
-0.0414938
0.41044
0.066609
0.0420282
-0.0551475
-0.0104637
0.379357
0.0969243
-0.0309449
-0.0020263
-0.00319262
-0.00781537
-0.0223254
-0.000923602
-0.00618345
0.176083
-0.092857
-0.000188616
0.00159653
-0.00492775
-0.0305346
-0.0486
-0.00152762
-0.00223272
-0.00162259
-0.0497814
0.048952
-0.00467402
-2.82757e-05
-0.0927591
0.177291
0.583204
-0.00694326
-7.52373e-07
0.0335302
0.234444
-0.0441791
-2.10304e-06
0.0355333
0.178403
0.000641782
-0.0603546
0.14127
-0.0371508
-0.0302869
-0.0515595
0.360842
-0.062955
0.0140783
-0.0503305
-0.00135951
-0.0175465
0.00267147
-0.00144013
-0.0196014
-0.137316
0.0448061
-0.000854623
-0.00108815
-0.0319838
0.227435
0.459368
-2.44217e-05
0.0112344
-0.0636997
-0.0280105
-0.0444718
-0.0419156
-0.028423
0.589325
-0.019425
0.172987
-0.0289506
-0.0383845
0.359701
0.0814509
-0.0783185
-0.00212394
-0.0214246
0.0967986
0.3745
-0.0474181
-0.010854
0.54417
-8.67179e-05
0.000722622
0.21461
-2.6508e-05
-0.00292501
-0.00554346
0.271941
0.272766
0.566733
-0.00330543
-0.00432534
6.62164e-06
-0.0532456
0.000634017
0.00314134
0.0122212
-0.0379399
-0.0727107
0.0956527
-0.000187527
-0.000715873
0.254331
-8.64283e-05
-0.000159252
0.426717
-0.00866132
-0.0364898
-0.0350673
-0.0280613
-0.0223315
-0.0623644
-2.90539e-05
-0.0470789
0.0966749
-0.00471833
0.000104394
0.163705
-0.00175818
-0.0184545
-0.0212239
7.921e-06
0.00130155
0.23582
0.131374
0.379147
-0.0548915
-0.0404183
-0.0983825
0.0694581
0.234795
-0.00030529
5.02755e-05
0.549122
-0.0123047
-0.000887099
-0.0451192
-0.0183668
0.335689
0.345825
-0.048554
0.641795
-0.00163096
-0.0138697
-0.050958
0.082688
-0.07943
0.156968
0.545963
9.13112e-05
0.014793
0.151337
-0.00586939
0.137471
-0.000783117
0.607923
0.366929
-0.00775731
0.00393131
-0.000443006
0.046638
-0.000135677
-0.00902768
-0.060629
-0.000105898
-0.00192714
-0.000619988
0.138543
-2.66228e-05
-0.00641635
-0.0538765
0.677128
0.0382349
0.592079
-6.5136e-05
-0.0234682
-0.000270862
0.394492
0.00616582
0.460515
0.00186638
0.00109718
0.00388007
0.0727383
0.000871756
-0.000332249
0.000770527
-0.0061901
-0.0372881
-6.08366e-05
-0.0458937
-0.00528347
-0.000207236
-0.000917917
0.437793
-0.010874
-0.00112057
0.644706
-0.00211793
0.225894
-0.000301913
-0.000159508
1.12627e-05
-0.0334004
0.0794604
-0.0703739
-0.0298947
-0.00060313
-0.0567564
-0.0209444
-0.00026288
0.000749021
-0.00317997
-0.0105055
0.00450185
-0.00181115
-0.0296234
-0.0330515
-0.0292176
-0.058297
-0.0364343
0.352877
0.370801
-0.00218058
-0.113297
-1.05466e-05
-0.00347359
-0.0306373
0.20084
0.108956
0.000144359
-0.00320652
-0.0354668
0.157602
-0.00146291
0.005496
0.00185794
0.000343917
-0.12484
0.319295
-0.00233067
-0.00681433
-0.000168287
0.00616713
-7.73101e-05
-0.023674
-0.000508773
0.00545545
-0.157995
-0.0369654
0.00183976
0.0133795
-0.00108371
0.0284157
-0.01094
0.0637802
0.145076
-0.123231
-0.0661004
-0.0214437
0.00781801
-0.0591586
0.578861
-0.0595763
0.0442698
0.629007
-0.00224914
-0.00255651
-0.0779653
-0.00160499
-0.0164121
0.00969853
-0.00408745
-0.00304535
0.158632
-0.000100722
0.000836014
0.000116287
-0.00495661
-0.0101431
-1.27347e-05
-0.00161283
-0.0284355
0.542942
0.00271587
-0.012055
0.50665
0.315033
0.0567279
-0.104267
-0.0536957
0.00754218
0.261611
-0.0152834
0.279502
-0.0259586
-0.0726909
0.1407
0.278825
-0.0432281
0.101696
0.144886
0.243434
0.0675103
-0.00443831
-0.00611839
-0.000130291
0.00280291
-0.0155799
0.00145601
-0.000158589
-0.00236818
-0.0562148
0.0432327
-0.0225737
-0.00416894
-0.00550506
-0.00725418
-0.0100102
0.00256463
0.108954
-0.00275799
-3.23666e-05
-8.20909e-05
7.2852e-05
-0.0270688
0.154171
-0.00581988
0.0411163
-0.0863312
0.401631
0.0048831
0.0102912
-0.00738596
0.421491
-0.00156104
0.311733
0.1771
-0.000173193
-0.0278958
-0.00478975
-0.0429373
0.000859099
0.0659661
0.00443152
0.00954402
-0.00126176
0.122419
0.163
-0.04216
-0.0286284
-0.0033771
-0.0231835
-0.0108041
0.665489
-0.0551906
0.00678495
-1.18693e-06
-0.0178906
-0.0033321
0.0260145
-0.0717572
-0.112459
0.435939
0.143268
-0.0910735
0.171224
0.411005
0.041568
0.00179406
0.266279
-0.00133854
-0.000273339
-0.0229289
0.000131437
-0.105919
-0.00101892
-0.0304112
0.00288196
0.173591
-0.00261339
-3.54687e-05
-0.0762089
0.00261498
0.00574569
-0.0481206
-0.062511
-0.117501
0.153419
0.126018
0.129745
-0.000306205
0.0318082
0.0700921
-0.00078446
-0.0217749
0.000922124
0.00737182
-0.00483943
0.0072091
-0.00115621
0.0538428
-2.89394e-05
0.000300644
0.00298773
-0.027994
0.0301329
-0.0287196
-0.0323907
-0.0342046
-0.0872926
0.00733339
0.255142
-0.13181
-0.00935791
0.615673
-0.0478728
-0.0106247
-0.0324471
-0.00894032
-0.0264236
-0.0138906
0.0398952
-0.0674836
-3.82533e-05
0.0350757
-0.000143139
0.361698
0.000795834
-0.00694539
-0.0185562
-0.000281227
0.381493
0.313181
0.0146224
0.0324464
-0.0509504
0.475388
-9.34343e-05
0.0196058
-0.0233446
0.107011
0.57158
-0.0224904
0.140601
-0.00297293
-0.000303451
0.0209182
-0.127241
0.399979
0.0100312
0.220972
-0.00986609
0.411582
0.295608
-0.0123866
-0.0105557
0.00946408
-0.0634813
-0.000126087
-0.0171627
-0.0613998
-0.0535221
0.0167701
0.0137682
-0.000187629
0.313883
-0.00177916
-0.000153829
-0.0293879
-0.000729945
-0.00033297
0.00468612
0.200055
-0.0684637
0.530065
9.35205e-05
0.193845
-0.0236281
-0.000112317
2.71716e-05
0.169281
0.197462
-0.00573109
0.18219
3.83902e-05
0.192073
-0.122437
-0.0129518
0.433682
-0.043293
0.0259395
-0.0311278
0.187066
0.190733
-0.0211095
-0.0264789
-0.00844625
-0.00404654
-0.000297092
-0.00192837
0.261348
-4.00754e-05
0.187559
-0.067516
0.33951
0.1783
-0.0625643
0.512741
-0.00229222
0.00520434
-0.0450682
-0.0252993
-0.00891785
-0.0264028
0.0315724
0.607271
6.37065e-05
-0.00269837
-0.0426005
9.17973e-06
0.368469
0.00265731
8.71769e-06
0.000286663
0.000568546
-0.0225238
0.0250172
-0.00217764
-0.000126089
-0.00944348
0.00317574
-0.0771095
-0.0577528
0.0307691
-3.21541e-05
-0.10607
-0.01678
0.0262742
0.336817
0.00162708
0.0529566
0.000227341
-0.0160978
0.0943723
-0.00894789
0.211356
-0.0165176
0.022692
0.0979454
0.137906
0.00590823
-0.0132575
0.143082
-0.062321
0.400662
-0.0119839
0.232869
-0.0119084
-0.00162861
0.133909
-0.000377602
0.0892394
0.0027392
7.57567e-06
-0.0819311
0.104761
0.00206001
0.0338707
-0.0157088
-0.104388
-0.00191199
-0.0297067
-0.00234787
-0.0113278
-0.0549148
-0.0332142
-0.012533
-0.00021265
0.426639
0.0566446
0.0406484
-0.000284726
0.296285
6.18339e-06
-0.000262335
0.0732483
0.000654384
0.0822849
0.0626311
0.023642
-0.0471849
-0.0886887
-0.104603
0.00189334
-0.0469844
-2.6815e-05
0.00505109
0.203201
-0.0201714
-0.00387508
-0.0127271
-0.00273171
-0.000578876
0.631536
-0.0126413
-0.000778592
-8.18067e-06
0.140008
-0.0350719
-0.000467365
-0.0038321
0.162152
0.074409
-0.0426146
2.26749e-06
0.181704
-0.0201247
0.165828
0.0235492
0.0289635
-0.0349781
-0.000135965
0.0955893
0.0645389
-0.0758974
-0.0633322
0.264724
0.00873986
0.133653
-0.00389473
-0.0279415
-0.000556941
-0.00272737
-0.000151105
0.154157
0.194624
-0.00207513
0.0262395
-0.0213072
-0.0529969
-0.0581887
-0.00258382
0.017966
0.599389
-0.0733775
-7.82397e-05
0.0754006
-0.00530958
0.506998
-0.0155749
-0.0156435
-0.00583129
-0.0179913
-0.00966594
-0.0100315
-0.00497348
0.00210947
0.0245564
0.000153777
-0.135492
-0.0641308
0.342958
-0.041078
0.0936741
0.00292159
-0.0452108
-0.0174076
0.211047
-0.00947754
0.000154694
-0.0197429
-0.00734173
0.0213054
-0.0318223
-0.0275549
-0.0445634
-0.0180913
-0.00966022
-0.0571436
8.20238e-06
0.0374396
-0.0501775
0.0706352
-0.0545988
0.0890363
-0.0640392
0.291978
0.00281286
-0.0360694
-0.0200223
0.538521
-0.110755
-0.0162879
-0.0819055
-0.035021
-0.0767572
-0.0479228
0.137599
-0.0038566
0.254664
0.0125409
-0.000556223
-0.00172807
0.0672274
0.684614
0.00144858
-0.0243581
0.170106
3.24898e-05
-0.0253909
0.0375653
-0.0106453
0.0127221
-0.00229797
-0.0336897
-0.00433019
4.14696e-05
-0.0413053
0.233162
0.000868145
-0.0204958
0.00269508
0.169311
-0.000540756
-0.00174107
-0.000508011
-0.00110997
-0.0529486
-0.000473117
0.00339458
-0.0219935
6.42463e-05
-0.0865576
-0.1278
-0.0944804
-0.0197774
0.0206778
-0.000301411
-0.0161715
-0.0528968
-0.0551638
0.342812
-0.00179158
-0.05651
-0.00651952
0.00590854
0.10631
0.000629065
-0.000222842
0.0133306
-0.0552572
0.0200217
-0.00411577
-0.00288797
-0.0491038
-0.000249296
-0.00288099
-0.0166515
0.29424
0.226908
-0.0402578
-0.0489215
0.0103154
0.00416686
-0.0464136
-0.0556454
-0.0164563
-5.55244e-07
-0.0396491
-0.0299733
-0.060223
0.00356152
-0.0455583
-0.000565545
-0.00415616
0.182343
-0.0336526
-5.89698e-06
-0.00391169
-0.10005
-0.000235704
-0.0206437
-7.1286e-05
0.00519048
-0.0754101
-0.038506
-3.08678e-05
4.36436e-05
0.120828
-0.0417232
0.38498
0.223655
-0.0328419
-0.000839926
-0.0156436
0.000311211
-0.129038
-0.0717518
-0.0966707
-0.0199747
0.199331
0.00976583
0.000385895
0.0063229
-0.0938475
0.00276994
-0.0254353
-0.0513324
0.000888623
0.0223272
0.0670384
0.00888928
-0.0272396
-0.0623054
0.178852
-0.0306061
-3.93088e-07
-0.0812107
-0.0545637
-0.0365515
0.00500265
0.00107162
0.00766393
-0.0746117
0.0321636
-0.0315165
0.0745455
-0.0429994
0.00737124
0.0194846
0.0111792
-0.0321224
-0.116822
-0.000145535
0.138643
0.197843
0.00814516
0.117201
-0.0593197
0.0447166
-0.041883
0.188859
0.0939592
0.591815
6.30205e-06
0.0845728
0.159072
0.0153485
-0.00159128
-0.0173009
-0.0531491
6.05976e-05
-0.0173112
-0.0437633
-0.0188902
-0.0208152
0.000184758
-0.110399
-0.000406934
-0.00094539
0.230146
0.00650414
-0.0486312
0.0202448
0.196956
0.0105387
-0.000431311
-0.0960451
0.00800912
0.362144
0.00137376
-0.0455012
-0.000243063
-0.000598457
0.00656882
-0.0502329
-3.42309e-05
-0.0105291
0.0279087
-0.00208732
4.35264e-05
-5.12551e-05
0.142724
-0.0479396
0.00691851
-0.00119076
0.00876255
0.0161169
0.00857061
-0.000316567
0.317952
-0.0867653
0.20874
0.264301
-0.000228835
-0.0533465
0.0844549
-0.0008318
-0.000287846
-0.00046588
-0.027128
0.012285
-0.0127268
-0.0201407
-0.0544831
0.157518
-0.0806344
1.3765e-05
-0.0183457
-0.0177296
-0.0325109
-0.00450384
0.00612416
0.00132803
0.0279778
-0.000554939
-0.000253188
-0.016536
-0.00443772
-0.0232992
-1.68822e-05
-0.0141388
0.033179
-0.0318173
-0.0332865
-0.00839777
-0.0112776
-0.00885743
-0.00534507
0.00609737
-0.00914642
-0.000113102
-0.00043298
0.0227615
-0.0117181
-0.00506781
0.00859389
0.00240062
-0.092094
-0.010673
0.146117
-0.0120535
-0.0466376
-0.0233368
-0.0213082
-0.0148048
-0.00387138
0.00232983
-0.00363248
-0.0133299
-0.0152776
0.166917
0.121248
0.0415516
0.334223
-7.74345e-05
-0.00344043
-0.0155635
-0.00789028
0.0469408
-0.0190647
0.0354827
-0.00445832
0.173316
-0.00201091
-0.00168822
0.0100375
-0.0184511
-0.000233573
-0.0211045
-0.00600697
-0.0195887
-2.14245e-05
-0.00675479
0.00207958
-0.0166022
0.0284739
0.0353804
0.0192841
-0.0133368
-0.029058
0.108299
-0.00132898
-0.00203071
-0.00218502
0.50111
-9.38847e-05
0.0593236
-0.0199284
-0.0192381
-0.0245272
-0.0375938
-0.0265599
-0.0314122
-0.0173332
-0.00470496
-0.000103846
-0.00437855
-0.0203864
0.0921772
0.00176581
0.0745795
-0.0302494
-0.0126619
-0.000954745
-0.0267613
-0.000109345
0.137772
-0.0279029
-0.0243568
-0.0222943
-0.00410725
-0.030538
-0.00173779
-0.0368056
0.09543
-0.0240272
-0.0609211
-0.00151195
-0.0250508
-0.0174372
0.0156365
-0.00332406
0.132618
-0.0024721
-0.0180282
-0.000703465
0.149514
-0.0354169
-0.0245569
-0.00333619
-0.00945699
-0.00283732
0.14708
-0.00362398
0.117297
-0.00499098
-0.000849609
-0.00130344
-0.00239962
0.0924126
-0.0530436
-0.0069011
0.000356667
-0.00794686
-0.0130296
-0.00093794
-0.0150055
-0.0148865
0.0551485
-0.00504834
0.00378953
0.494395
-0.0540369
-0.0265845
-0.0507804
3.70731e-05
0.0717456
-0.00363028
-0.0249161
-0.00570638
-0.032624
0.00424656
-0.000557461
-0.00298119
0.00339002
0.188303
-0.0059375
-0.0018442
-0.00473275
-0.0475937
-0.00835132
-0.0207045
0.00442169
-0.00874016
-0.00901178
-0.00335927
0.189613
-0.0413584
0.00333002
-0.00432737
-0.0255512
-0.0137681
-0.0441469
-0.00145247
0.0853178
0.0229183
-0.00789801
-0.00178579
-0.0133423
0.515102
0.18975
-0.0111855
-0.000600311
-0.00245557
0.00122473
-0.004068
0.0210037
-0.000432444
-0.0167877
-0.00203097
-0.0163371
-0.144823
-0.00110244
-0.0115363
-0.00139768
0.306937
-0.00653089
-0.0115688
-0.0452347
-0.00198847
-0.0277323
-0.044648
0.447881
-0.0106478
-0.0112754
-0.00217903
-0.000483953
1.9645e-06
-4.11377e-06
-0.0100688
-0.000693522
0.0588345
-0.000696472
-0.00186979
0.00836488
-0.000268418
-0.0399577
-0.0519315
0.0174792
0.0388377
0.0262406
-0.043249
-0.0408383
0.0842402
0.0665149
0.0902589
0.114539
-0.0127203
-0.000886026
-0.0059713
-0.057239
-0.0036038
-0.0146538
-0.0450136
0.296441
-0.0455831
-0.000501443
-3.08374e-05
-0.00151223
-1.42408e-07
0.00820243
-0.000581268
-0.00478117
-0.0426721
0.000566852
0.00268967
-0.000228001
0.0491752
-0.0149827
-0.0467866
-0.00125719
0.316171
0.222554
-0.00999816
-0.066265
-0.0259787
-0.0226442
-0.0140582
-0.00193039
-0.0652013
-0.0318262
-0.0384637
-0.11155
-5.23806e-05
0.161291
-0.0169252
-0.00956771
-0.0294874
0.0188741
-0.000552792
-0.00836179
-0.0014022
0.0116868
-0.00159093
0.117818
0.000366483
0.0102787
-0.000430817
-0.105385
0.00904706
-0.000794555
0.00416402
0.000424841
-0.0378496
0.0969736
0.000791215
-0.00148408
-0.000130632
-0.000597402
-0.000524762
-0.0530287
0.116598
-0.0355125
-0.000279904
0.00883049
-0.000476232
0.216559
-0.0522929
0.218784
-0.038693
-0.000467836
-0.00029806
-0.00732845
-0.00570324
-0.000655099
-1.91123e-05
0.024595
0.0284368
-0.000246231
-0.00034716
-0.0188178
-2.29652e-05
0.157394
-0.000958245
-0.0463275
-0.0181989
-0.00638951
-0.0485013
-0.0532247
0.141855
-0.0215157
-0.019249
-0.000328745
-0.0493512
-0.0196621
-0.0291581
0.0221357
0.339367
-0.00120662
-0.0515721
0.0110594
0.280771
0.0379411
-0.000124299
-0.00607487
-0.00412901
-0.00500729
-0.0421463
0.0756044
0.000186918
0.0141502
0.0030257
0.0561958
-0.000540663
-0.000127214
-0.091204
0.249643
-0.0477891
0.115294
-0.00131027
-0.000210258
-2.46788e-06
-0.0759311
-0.0372045
-0.000353874
0.0775971
0.0114108
-0.00539616
0.410224
-0.000408048
-0.00375724
-0.0513574
-0.0264739
-0.00233101
0.126396
-0.0552204
-0.000172479
0.0100572
-0.000181349
-0.000104743
0.119864
-0.00217237
-0.000470148
-0.0450008
-0.0230532
-0.00355344
-0.031727
0.00246601
-0.0214857
0.00169517
-0.00354902
-0.0556609
-0.0342893
0.0131283
-0.000920958
0.139506
0.196717
-0.0858255
0.00934815
0.0191561
-0.00433452
0.156522
0.0855433
-0.0257982
-0.000168776
0.00966461
-0.0478275
0.00879386
-0.0260463
-0.00215432
0.0342889
-0.025669
-0.000142545
-7.61438e-05
-0.0379794
-0.0243513
-0.0241407
0.00962006
-0.0243957
-0.0394441
-0.000159036
-0.00143127
-0.000215695
-0.0316544
-2.47563e-05
-0.0019768
-0.0431449
-0.082474
0.0389952
-0.0030316
0.00427566
-0.0201732
-0.0236854
-0.000133696
-0.0406623
0.0172119
0.147729
2.44232e-05
-0.000115683
0.150692
-0.00256713
-0.0728917
-0.0359993
0.00346626
0.000493379
-0.0576567
-0.0339372
0.15463
-0.0487128
-0.00150265
-0.00977731
-0.0464668
-0.000597797
-0.000249975
-0.000927187
-0.0312634
-0.0447825
0.087419
-0.000218354
0.518444
-0.0636667
0.000120402
-0.000998488
0.000259235
0.000296055
-1.46769e-05
0.000142989
-0.0459856
-0.000742711
0.000447048
-0.00020576
0.132013
-0.00575721
-0.000200612
-4.6027e-05
0.333322
-0.020299
-0.054595
0.00115755
-0.000746
0.0472614
-0.000101749
-0.0130064
-0.130037
0.00223517
-0.00661423
-0.000100054
-0.000214098
-0.0283197
-0.0562444
0.00738824
-0.104005
-0.0603142
-2.89159e-05
0.0214136
0.0322114
0.102181
-0.00175148
-0.000162351
-0.0491241
-0.0061065
-0.000514796
-0.0433057
-0.000142416
0.0322995
-9.16735e-05
-0.00129867
-0.0731091
-0.00217717
-0.050668
0.467148
-0.00168304
0.000283415
-0.0479855
-0.0483371
0.009252
0.00482676
-0.000156442
-0.0286735
-8.71655e-05
0.185773
0.640204
0.0335923
0.00311111
0.00368778
-1.90882e-05
-0.0259055
-5.93075e-05
-0.0074487
-0.00173181
0.000381082
-0.00339661
-0.00959298
-0.000126992
0.000891916
-0.00844091
-0.00032281
-0.0100002
-0.0157087
-0.00905859
-0.0011843
0.56819
-0.000712899
0.00249599
0.000251703
0.0140941
-0.0435717
0.00977215
-0.000183057
-0.000103128
0.00269737
-0.000113332
-2.98671e-05
-0.0115164
0.000715712
-2.47598e-05
-0.0448016
-0.00233839
-0.0486461
-0.00167261
-7.01861e-05
-0.00316115
-0.0094446
-0.0146075
-0.0229069
0.00237455
0.000535281
-0.000477917
-0.00198497
-8.17094e-05
0.263482
0.00159627
-2.02189e-05
0.000597494
-0.00206244
-0.000367144
-0.0545532
-0.0474517
-0.000134396
-0.00694238
1.39567e-05
-0.00270121
-7.56599e-05
0.0348618
-0.000144815
-0.000191717
-0.00362533
-2.38638e-05
0.0137376
-0.000231849
-0.00128079
0.0190448
1.27083e-05
0.371411
-0.0469031
-0.0372955
-2.56339e-05
-2.15849e-05
0.00191099
-0.00120134
-0.0453212
-1.74466e-05
-2.18949e-06
0.000759288
-3.11481e-06
0.000388908
0.000460938
-0.000468325
0.000807752
-0.0459752
0.481343
-0.0315516
0.324238
0.00921806
-0.016311
-1.88288e-05
-0.000893859
-0.0118824
0.000148264
0.000291767
0.000174697
0.0266645
-0.00138827
-0.000223184
0.500024
-0.000553346
0.000599203
0.000516059
-4.74275e-06
-0.0888052
-0.00220868
0.00116305
0.000129069
-0.000547029
-7.02237e-05
-0.00095886
-0.0392154
-0.000423881
-0.00164259
-1.59922e-06
-0.000598643
-0.000264896
0.182123
-0.000449196
-0.000279704
-0.0592099
0.00384618
-8.72257e-05
-0.00134834
-6.3008e-05
0.165145
-0.0623187
-0.000304099
-0.000393934
-0.00194095
-0.000160014
0.0532581
0.0958546
0.00539006
0.000520624
-7.00596e-06
-9.3696e-07
0.0445854
0.000260449
-0.0527164
-0.0239351
-0.015353
-0.1434
0.573814
0.00199827
0.164822
-0.0142176
-0.0269747
0.168068
-0.000363055
-0.056535
-1.29832e-05
-0.00880706
-0.0432557
5.66505e-05
-0.0443299
-0.000959175
-0.00910596
-0.00556569
-0.0381352
-0.0379587
-0.00324646
-0.0534553
-0.0391272
-0.000190344
-0.0117969
-5.30192e-05
-0.0339298
-2.85085e-05
-0.000189374
0.0115725
0.159231
-1.79398e-08
-0.0405675
0.00362647
7.79093e-05
-0.0201021
6.13612e-06
-0.0132031
-0.000263403
-0.0346346
0.000130897
-8.86687e-05
-0.00205416
-4.83891e-05
0.155001
-0.0281392
0.037892
-3.06146e-05
0.00064287
-0.0298073
8.63316e-07
-0.049949
-0.0571267
-0.0486172
0.523726
-0.00637857
-1.78611e-05
0.0258093
-0.0374094
-0.00257404
-2.5271e-05
-8.69441e-05
-0.0420041
0.000131295
0.000894487
-4.31468e-07
0.000163897
-0.0259745
0.00461956
-0.0607711
0.084664
-0.00526674
-1.17165e-06
0.00617241
-0.0459415
-2.12694e-05
-1.40093e-05
0.000328901
6.61813e-05
0.000415168
0.149956
0.0346044
5.77459e-05
1.13734e-05
-0.0568448
0.196168
0.167901
-4.53938e-05
-0.0329963
-0.0185896
-0.0103163
-0.0424904
-0.00848193
-0.00288546
0.136979
-4.18114e-05
-0.0245716
0.163024
-0.0434522
-1.74345e-05
-0.053233
-0.000177247
0.240199
0.0269656
-1.41997e-05
-2.76963e-05
0.173656
3.63224e-06
-0.000183856
-0.0113807
1.32271e-05
0.227112
0.00332548
-0.00720322
-0.0553717
-0.00371924
-0.0653603
0.178466
-0.0122882
-0.0405427
0.00101556
-1.94885e-05
-0.00102645
-7.93103e-06
-1.59843e-05
0.0192054
0.176862
0.145858
-0.000442902
0.244473
-0.0116596
7.89473e-06
-0.0406074
-1.78092e-05
-0.0258668
0.0280819
-0.0141192
0.00447752
0.00188929
-0.00902224
0.000255619
-0.00166446
0.0188453
-0.00283455
-4.83644e-05
3.0324e-05
-6.20523e-05
0.0312801
5.63606e-05
-0.0214263
0.258763
-0.00589639
5.18826e-05
-0.00341445
-1.00118e-05
0.00850199
-0.000358249
-6.60372e-05
-8.54231e-05
-1.30626e-05
0.207423
-0.000153292
0.217346
-0.0536918
0.000115406
-0.0462505
-0.000486462
0.152728
0.514397
-0.00139258
2.43837e-06
1.63693e-05
-2.1034e-05
0.113
6.02884e-07
0.00106023
-0.0226423
0.206922
6.92071e-06
1.54816e-05
2.85214e-06
2.55799e-05
-0.0193696
1.80115e-06
0.206589
-0.0155049
-0.000123767
3.05216e-05
-0.00203117
-0.026439
1.25635e-06
-5.68315e-05
0.16182
3.45789e-05
-0.0292998
-0.0505313
0.000136001
6.9355e-07
-0.11046
1.20082e-06
0.152813
1.50652e-05
-0.000445339
1.19128e-05
-0.000174991
0.0892881
3.25918e-06
-0.00162171
8.41226e-06
0.0120791
-0.00334187
-0.00623528
0.000733195
0.149721
-0.000268993
-8.07024e-05
-0.00857255
-0.00828082
-0.000242976
-5.31551e-05
-0.000886281
4.0858e-05
0.11099
-0.010044
0.503663
-5.05896e-07
-0.00740509
-0.000156465
0.116315
5.78295e-05
-0.0246181
2.40037e-05
-0.0015596
-0.0305259
-0.000230261
-0.0149282
-0.0440109
0.00502116
-8.84696e-06
-0.0503143
-0.000332087
-0.000294446
-0.00539377
-0.0144204
0.00128747
-4.94356e-05
-0.00043318
-0.0009102
-0.00125908
1.34234e-05
-0.00119225
0.495362
9.90706e-05
-0.003198
-0.0317507
-0.0620941
-0.0548641
-0.0424222
-0.02037
-0.000523904
-0.0158394
7.80333e-05
-8.15851e-05
0.495321
-9.41463e-05
0.148351
-0.000447873
0.000403364
-0.00111795
-0.0648986
-0.00041543
0.000579085
-1.50621e-05
-0.000390264
-1.5396e-05
-7.96202e-05
-0.0140995
-0.000109568
-2.69457e-05
-8.30111e-05
0.000147823
-1.00228e-05
-0.0384998
0.164265
-9.81135e-06
-0.000597614
3.09542e-05
3.1557e-05
-0.000824853
9.45457e-06
-0.000893343
0.00028651
-0.000364168
-0.0554154
-0.000684781
-0.00180009
5.03484e-06
-0.00155866
0.00034065
-1.50957e-05
-9.66393e-06
1.38298e-05
-0.000786722
0.000543761
-0.0398143
-0.0252498
-0.0557952
0.000571322
-0.00185433
-0.0383893
-0.0561418
-9.4005e-05
0.0148877
0.00676995
-0.0010347
-0.0112583
-0.0486953
0.440893
-0.000416183
-1.49513e-05
0.000886417
5.01069e-05
1.82104e-05
0.0720403
0.00358969
0.083471
-0.0338336
0.429617
-0.000519135
2.2749e-06
0.000154006
-1.79393e-05
-0.0013453
0.136053
0.216508
-5.17454e-06
-0.000169943
-1.71274e-05
0.204075
0.0148754
-0.00585045
1.21452e-05
1.98397e-05
0.007198
-0.000689126
-0.0613384
-0.0157226
2.45504e-05
0.00347855
-0.0287346
-6.00839e-05
0.00180231
-6.70264e-05
-0.0406453
-0.0017066
0.132086
1.70628e-05
0.00167767
-0.000152185
1.53707e-05
0.00017511
-0.0213358
1.50859e-05
-0.000902126
2.30198e-05
-0.0183041
-0.0402013
-0.00305295
-0.00706067
-0.00819029
0.00902615
-0.00831478
-0.0024036
6.84326e-05
0.000106687
2.08914e-05
1.82942e-05
-5.61775e-05
0.00889337
-0.0507332
0.000497175
-0.0403523
-0.00299757
-0.0454416
8.85537e-05
-2.37688e-06
0.00130906
-0.0974565
1.85178e-05
-0.0398723
-0.0139386
-0.0875207
-0.0408897
2.71414e-05
-0.00334856
0.000196679
-0.136008
0.128066
1.1673e-05
-0.0519805
-0.0207669
-0.00410556
3.85628e-05
-8.46063e-06
0.0220349
-0.0154387
2.43939e-05
-0.00649243
-4.36797e-06
0.00021843
0.115346
-8.24936e-06
3.30129e-06
-8.5042e-05
3.51431e-05
0.00090149
8.89458e-05
-0.0050487
0.000236554
-0.0118331
0.00110588
-0.000205257
-0.0298329
-0.0382063
-0.00600274
-1.51049e-05
2.18347e-05
-0.0536913
0.00570017
-0.041957
2.90594e-05
-0.00495221
-3.6303e-05
2.47892e-05
0.0612338
-0.00666938
-0.00269526
-1.09811e-06
-0.0165525
5.02379e-05
-0.057521
2.72374e-05
-0.0647166
1.9238e-05
-5.84423e-06
8.60393e-05
0.00102471
-0.0828806
-0.0167081
-0.0597046
1.61908e-05
9.57507e-05
-0.0658204
-0.0239762
-0.00797621
-4.62041e-06
-0.0335229
-0.0446038
-0.0655342
3.59982e-06
-7.47728e-06
4.77924e-06
-0.0742844
-0.0581543
0.000724716
-0.0103682
-5.57093e-05
0.15763
9.56829e-05
1.45999e-05
0.000152472
-8.57004e-06
-8.23087e-06
-0.00348782
0.000114835
-0.00248078
-0.0559378
-0.0122037
-0.0500047
4.04187e-05
-5.08722e-05
0.0437475
-0.0485522
-0.0045396
0.104395
5.0353e-06
-1.30454e-05
-1.1927e-05
0.05618
0.000175295
-9.31305e-07
-4.40568e-06
-0.0533008
-0.0143615
5.85105e-06
7.90785e-05
-0.00871642
-0.00610582
0.000429537
0.217857
-0.0517848
0.000150508
0.648653
-1.79081e-05
-0.000675532
-0.00812613
-0.0650446
6.55431e-06
-2.30019e-06
2.19088e-05
0.00474136
-0.0301963
-0.000332095
-0.0434557
-0.007305
2.74138e-05
-4.5183e-06
-0.00951943
-0.00579535
-0.0254002
-0.0770977
-0.0399937
-0.0346856
-0.0193164
-0.0247637
-6.26242e-05
0.000355595
0.00189621
0.000535055
-7.77357e-05
0.000765236
3.13461e-05
-9.01543e-05
-0.0113036
-1.18337e-05
-2.80042e-05
0.0311237
-0.0276769
-0.000158985
-3.94131e-05
-5.2589e-06
0.239947
-0.00627901
0.000785735
-0.0256854
0.000230229
0.000200277
0.000173306
-4.82318e-05
0.00048361
-0.0340083
0.0150056
-8.97017e-06
-0.000161009
-0.037336
-0.0291202
0.0464627
-0.000481832
0.00182788
0.0174032
2.06392e-06
6.1188e-05
-0.0429171
2.25947e-05
0.15659
8.68005e-06
0.00414914
0.00016829
0.000225018
-0.0597792
-0.00693555
-0.0165332
-0.00231221
2.6802e-05
0.00615945
0.058107
-0.0115061
-0.000132577
0.0887065
0.152579
3.66594e-06
-0.0456398
-6.59293e-05
-9.84032e-06
-4.40938e-05
-0.000555619
0.0192654
-5.4462e-06
0.000248641
-0.0225374
-0.0234811
-0.0201762
0.30435
1.79561e-05
-6.83752e-05
0.161459
-0.00668713
-0.00363121
-0.000639596
0.158815
4.46152e-05
-0.000308219
4.63743e-05
2.70258e-05
3.1849e-05
3.63656e-05
7.42135e-05
-0.0163467
8.50102e-06
-0.00318913
-0.0393851
0.218688
-0.000139316
-4.90411e-05
0.00464619
0.0797562
-0.0424389
-0.000735569
-0.0600452
0.301676
4.35471e-05
0.401901
-4.23816e-06
0.00329164
0.0235537
0.000436687
0.438841
-1.39692e-05
-5.86173e-06
0.00115126
3.13316e-05
-0.000842641
0.000263618
1.13088e-05
-0.00189122
1.04603e-05
-0.000142983
-0.00316757
0.233172
0.0466808
0.0213917
-0.0387002
-4.94556e-06
-1.76759e-05
0.00334521
-0.0495181
-9.34233e-06
-0.0411717
-5.30372e-05
0.0969145
0.0583538
-0.0301229
-0.001308
-0.0113017
-0.00095778
-0.0137606
0.00351043
-0.0070468
0.0594503
2.23354e-06
0.191324
0.0117736
-0.000579452
0.196054
-0.012482
-1.21973e-05
2.36462e-05
6.71337e-05
-0.000206764
-0.000119557
0.237573
-0.000953223
0.24284
-0.00105855
0.157019
0.205002
0.0706876
-0.00666558
-4.82237e-06
6.40027e-05
-0.00993785
-0.0987437
-0.0434858
0.00148252
2.04135e-05
-0.0341425
-0.000312825
6.49095e-06
0.00100719
-0.00103767
-0.000641575
0.0317264
7.59603e-05
-0.0427038
0.0536249
5.84619e-05
0.000269039
-0.0135379
-0.0520404
-0.000713315
-0.000508113
1.32305e-05
0.000250652
0.0248349
-0.0159404
-0.0431649
0.00130148
0.0584619
-0.0351732
3.60598e-05
2.29567e-05
0.00945673
-8.85683e-05
0.0494868
0.000922686
-0.0126562
-0.000375189
0.00161242
-0.0330577
-3.47025e-05
0.000490878
-0.00176725
-0.0640777
0.119983
-0.0541929
-0.0248258
-0.000162654
-4.50735e-05
0.00660705
4.66887e-05
-0.0643155
-0.0579261
0.000562868
0.00333847
0.00373493
-0.0841769
0.000637111
0.000191047
3.82608e-05
-0.0373532
2.88231e-05
0.00055859
0.114766
0.170653
-0.0978012
0.0469811
0.0456275
0.0109036
-0.000156888
0.0108678
0.000124021
8.71381e-06
-7.22301e-05
-4.34056e-07
2.65259e-05
-0.000349711
-0.00725222
-0.0550501
-0.0092255
-0.0270106
0.0497807
0.0418339
0.00401362
-0.0558838
0.000161815
0.00455276
0.0110118
-0.000379947
0.0692342
-0.00122622
-0.0103875
0.0116033
0.00541919
0.000978724
-0.00386786
0.0402515
0.000820074
-0.0183511
-0.0154461
0.526274
-0.0230909
0.0750563
0.00803992
-0.0347435
0.00217471
0.000102219
-0.0024756
5.66828e-05
-0.00253744
-0.0235474
-6.8706e-05
-4.52562e-05
0.245433
-0.00317783
-0.0377998
-0.0175053
0.000203541
-0.00142403
-2.24912e-05
8.01439e-06
0.0354904
4.0604e-05
-0.00283155
0.0692953
0.00612811
0.00111517
0.017758
-0.00550456
0.00411352
-0.100919
0.000861829
-0.00426024
-0.0499101
-0.000838318
-0.00769186
0.000747914
0.000784865
0.000983831
0.034031
-0.00031233
0.00556058
-0.0480188
-0.0193395
0.000310385
-0.0475671
-0.0140618
-0.0160339
0.000105121
0.00650223
-0.0612355
-0.000819123
-0.00466725
-0.0442611
-2.75094e-05
-0.00113495
0.2067
-0.0205553
-4.05489e-05
0.00810227
-0.0456622
-0.00102168
0.186656
-0.00217087
0.00100775
0.0569118
-0.00138474
0.00813182
0.121538
6.25085e-05
0.0011631
0.00017814
3.6295e-05
-0.00431956
-0.00698696
-0.000130484
-0.0224222
0.0899109
-0.0337941
-0.0637289
0.00115397
-0.00314927
-0.000603047
-0.045749
2.71715e-05
0.0155523
4.4178e-05
-0.0148963
-0.00188598
-0.00476716
-0.119252
0.102903
-0.0680877
-5.22673e-05
0.171461
-0.0019067
-0.00253516
-0.0522651
-0.0717065
-0.0146975
-2.92399e-05
-0.00111105
0.00710662
-0.00297961
-0.00453523
0.000432183
0.0808048
-0.0398183
-0.0105229
-0.00637317
0.0195794
-0.0027084
-0.00127097
0.00168953
-3.2898e-05
-0.00297704
0.101792
0.000786273
-0.109492
-5.52609e-05
-0.00699118
-0.00359145
-0.0769166
-0.0108987
-0.0891096
-6.33092e-05
-6.12991e-05
-0.00432388
0.0103726
0.00177996
-0.100952
0.0760934
-0.0437651
0.000187402
-0.111056
9.20978e-06
-0.117397
-0.0236111
-0.141802
-0.153023
-0.162789
-0.173293
-0.180352
-0.17414
-0.161748
-0.137834
-0.116535
-0.000784968
0.0414096
0.0884576
0.169178
-0.00765697
-0.00706167
0.0500903
-0.0174746
0.000890503
0.0132328
-0.036808
0.000515471
-0.000665647
-2.69739e-06
-0.0134596
0.0173483
4.46261e-05
-0.000313141
-0.00992008
-0.00699827
-0.135836
-0.0131558
-0.0500025
-4.26002e-06
0.000567177
-5.08463e-05
-0.0503824
-0.0083755
-0.0335081
-0.0105048
0.00170395
0.000221815
0.0046389
-3.23151e-05
-0.0129847
-1.47887e-05
0.000369103
-0.00621397
-0.0108438
-0.000281165
0.000325191
0.0467375
-0.00983155
0.0548236
-0.125932
-0.00823216
-0.0473407
-0.0175077
0.0036264
-0.0200722
-0.00313752
-0.0117779
-0.0121066
0.337455
-0.00129592
6.89438e-05
-0.00555399
-0.00852466
3.13009e-06