/*--------------------------------*- C++ -*----------------------------------*\
  =========                 |
  \\      /  F ield         | OpenFOAM: The Open Source CFD Toolbox
   \\    /   O peration     | Website:  https://openfoam.org
    \\  /    A nd           | Version:  7
     \\/     M anipulation  |
\*---------------------------------------------------------------------------*/
FoamFile
{
    version     2.0;
    format      ascii;
    class       surfaceScalarField;
    location    "28";
    object      phi;
}
// * * * * * * * * * * * * * * * * * * * * * * * * * * * * * * * * * * * * * //

dimensions      [0 3 -1 0 0 0 0];

internalField   nonuniform List<scalar> 
11265
(
140.332
-529.131
388.799
-762.662
7.5284
755.134
429.772
-372.007
-57.7642
664.087
257.883
-921.97
1510.77
-1069.43
-441.334
1216.28
-1527.12
310.842
-26.3137
467.594
-441.281
168.903
-841.912
673.008
962.056
-1610.79
648.737
-1767.7
1674.23
93.4696
-542.947
1759.23
-1141.02
1934.81
-793.797
607.427
181.248
-788.675
-25.657
-1316.69
1342.35
221.643
-1989.34
1023.19
-382.963
-640.231
-210.388
350.72
484.919
190.632
-675.551
1155.07
-1313.77
158.694
-307.831
374.595
-66.7642
1002.46
-1319.43
316.964
1221.59
799.506
-2021.09
74.2038
-1643.28
1569.07
-495.831
-1158.99
1654.82
475.762
182
-657.762
-185.249
-343.882
497.95
1012.82
1650.7
-1809.88
159.181
-97.579
-1688.73
1786.3
-1559.17
653.033
906.138
-308.167
653.231
-345.064
-190.405
-120.27
310.675
1287.07
-1212.86
355.249
-1407.36
1052.11
-1754.3
1754.3
101.567
1535.98
-1637.55
-1080.22
-478.949
654.277
-680.591
-385.294
941.707
-556.413
1331.86
-1317.25
-14.608
-1100.36
715.066
625.924
397.271
-384.886
-36.9035
421.789
-476.36
768.676
-292.316
-1618.44
1618.44
1253.57
-1437.88
184.308
-488.766
1710.35
1254.81
-313.103
1660.74
-1161.24
-499.498
77.067
-384.898
2065.92
-1135.51
-930.407
1817.29
-166.593
454.586
156.12
-610.707
-461.308
971.429
-510.121
-1173.81
1275.38
-567.863
970.54
-402.677
399.993
755.08
661.154
-492.25
-437.767
593.833
-156.067
1190.65
-835.397
2308.21
-1080.68
-1227.53
1163.95
-2009.51
845.554
-1605.8
1580.14
440.641
-1581.66
-758.99
1250.6
-491.608
-672.188
364.02
1661.45
-699.395
-1106.93
-870.896
1977.82
723.296
-368.809
-354.488
689.989
564.821
-258.212
1511.78
112.593
-317.184
204.592
-284.807
760.569
-334.415
564.244
-229.829
-324.501
809.42
-318.445
-147.47
465.915
316.944
112.828
1463
-460.536
-990.765
475.98
514.784
276.549
91.021
-367.57
948.848
-341.421
-1705.86
624.778
1081.08
13.1763
-859.628
846.452
-279.858
594.548
-314.69
157.525
-1093.89
936.369
1051.27
-1066.86
15.5856
373.068
518.269
-891.337
-245.386
699.973
-1103.49
-482.307
1585.8
-677.758
950.582
-272.825
1353.73
-1451.31
-624.777
235.081
389.696
-470.199
-1011.53
1481.73
-538.22
-794.45
1332.67
575.935
-996.026
420.091
-264.723
-316.342
581.065
405.675
-293.082
-1038.04
576.73
955.482
-797.957
-110.358
943.885
-833.527
-208.772
417.117
-208.345
-646.966
-343.799
-386.738
962.673
1856.37
-1856.37
-504.473
-120.304
-952.924
1574.03
-621.11
455.601
-889.8
434.199
-923.323
355.46
-941.908
-1058.08
-1490.71
341.48
1149.23
-272.318
936.405
-313.189
610.464
-297.274
-1941.9
999.994
-1143.13
-347.579
564.882
-1517.81
1728.52
-1725.74
-2.77841
191.269
-584.76
393.491
-1471.14
980.672
490.467
285.646
214.525
-500.17
309.134
-643.548
240.846
-416.602
175.755
2019.24
-864.781
-1154.46
-537.379
152.493
615.977
836.652
-1452.63
-183.945
424.791
431.42
876.571
-1307.99
-906.864
392.291
514.573
-1047.41
1447.4
-1068.6
309.607
750.765
-97.5343
537.388
-331.692
-205.696
1014.67
-538.69
593.376
-1403.81
810.438
-1342.24
238.747
-545.678
265.82
-1203.16
930.843
1941.89
-992.913
-948.977
276.801
1579.57
-2095.87
895.983
1199.89
363.51
-31.5653
-331.944
-223.652
481.552
-257.899
-108.649
-378.771
487.42
-465.506
147.06
340.592
-132.028
587.628
416.99
380.606
-797.596
-2044.29
1125.46
918.825
461.131
-530.842
69.7116
221.168
-362.587
141.419
995.182
1024.06
1789.39
-253.413
711.425
-476.344
796.412
-1389.55
593.14
341.69
381.607
1058.02
-1044.84
-484.776
-267.395
752.17
476.449
-135.138
-341.311
796.826
-615.579
537.572
-733.965
196.393
503.331
1157.4
-1240.01
701.788
1035.35
-1531.19
-3.12656
-1439.43
1442.55
326.068
824.109
-1150.18
622.843
269.948
-892.791
-2271.89
1158.64
1113.24
-1106.88
-1165.01
166.637
370.935
958.794
-632.725
878.814
-898.568
19.7543
-2099.38
992.455
-224.195
-189.083
413.278
-41.8462
1770.37
-825.844
63.1818
-1029.11
-1066.76
-229.234
450.402
-662.918
158.445
-278.068
-455.357
733.425
1104
-1574.2
782.866
-1374.39
591.526
708.444
-450.561
1947.85
-1444.52
-378.285
-1376.01
55.2764
412.318
-523.276
530.804
14.8774
-567.527
552.65
568.991
-283.346
-603.541
278.779
324.761
779.037
-362.048
34.0404
329.469
1188.47
-1191.6
175.888
229.787
427.623
-705.691
619.261
-1006
-2026.73
2026.73
-273.376
-464.001
737.377
699.079
405.865
-1104.94
579.574
171.192
402.764
376.273
-2199.75
1328.86
-926.36
-679.394
1605.75
-481.349
-721.812
-273.779
585.372
-311.593
844.958
-228.669
-616.29
-441.565
632.834
362.824
-676.014
-358.308
-111.089
469.397
-1334.23
-475.654
653.404
-1134.75
-374.145
-1244.29
844.339
1463.87
304.95
-908.973
604.023
966.353
-340.429
1391.35
-797.976
443.55
-267.662
-327.29
-889.114
594.835
294.279
-360.183
-528.931
307.79
-416.438
-179.917
-160.173
340.089
-392.782
1091.86
434.721
-244.089
-392.717
1355.46
-166.81
-1188.65
-458.635
270.335
188.3
235.677
288.342
-524.019
-11.364
-722.601
592.128
-1729.03
1136.91
1483.03
-867.056
-1053.24
-417.9
-1056.84
573.742
483.094
1391.11
-410.435
929.053
-1411.36
-178.144
-174.427
352.571
-468.844
580.061
-1627.47
427.919
903.943
293.382
341.803
-635.185
568.056
1186.24
1103.61
-713.453
-390.152
404.109
-216.943
-187.166
-1419.45
445.722
737.771
-1183.49
1473.32
-544.271
-505.553
957.334
-451.782
426.152
1186.15
-1612.3
47.3857
-725.144
-145.981
422.531
189.187
-379.592
547.843
466.827
-582.72
32.7425
549.977
1024.53
-1307.66
283.132
663.019
-260.254
468.314
-1447.24
978.922
386.883
1687.22
-523.268
885.751
1056.14
-660.735
-1684.67
758.306
559.373
401.969
-961.342
455.166
78.8718
1750.03
-1828.9
1443.7
-379.491
-1064.21
1699.16
-1741.01
-366.846
-518.815
715.226
-196.411
-502.592
182.662
293.787
-373.183
-1225.97
214.441
-764.648
-639.166
-619.189
993.644
-374.455
-652.648
642.587
10.0604
654.952
-923.585
268.633
-696.193
343.265
352.929
-648.171
-721.883
355.957
365.926
-932.251
1400.57
-417.389
886.55
-469.161
-2205.31
5.55761
178.809
-535.083
356.273
139.71
1215.75
-62.5486
-600.369
158.315
-596.082
1487.11
-704.248
374.975
-462.017
87.0422
-564.115
564.115
1223.01
395.424
1778.03
-1228.56
589.488
639.072
848.807
-51.9802
1291.86
774.056
-540.42
1336.83
294.407
300.141
271.09
-789.905
207.558
-683.919
230.089
-443.08
212.991
-266.586
599.81
-333.224
107.291
-373.877
-591.685
-564.629
1156.31
-411.45
533.228
-121.777
-1192.15
2032.04
-839.886
1289.32
-330.528
-400.748
136.025
-1984.45
825.459
1545.28
-856.961
-688.319
1986.98
-877.448
-1109.54
713.85
575.471
-240.527
470.616
-687.201
1166.64
-479.439
-769.798
1201.22
551.709
924.621
-1725.29
800.667
-587.134
-46.928
634.062
267.619
269.769
417.182
-81.5542
-335.627
896.647
-83.5095
-813.138
914.734
-571.059
-343.675
1576.18
-472.181
890.681
-1627.38
736.703
1068.47
879.388
748.643
-441.971
-306.672
-1058.96
-258.297
563.728
576.461
-1140.19
-516.533
496.192
20.3411
576.449
-343.627
-232.822
-983.793
566.403
595.025
888.008
-441.809
1096.76
1414.9
-782.3
-632.597
394.757
-924.132
529.375
-1035.31
388.34
565.561
-1071.11
414.434
-502.658
88.2238
446.217
322.46
-515.382
-48.7329
-794.157
-879.203
1673.36
192.844
211.265
-241.758
408.394
3.15308
-569.659
566.506
498.274
865.912
-1364.19
-491.852
311.936
985.566
-88.9192
836.022
-1064.7
228.674
419.109
845.901
-1386.32
-449.236
829.842
1979.09
-1285.35
-693.74
269.86
608.954
255.749
795.526
90.1678
-979.963
889.795
1673.73
-1089.01
-584.721
-137.906
1887.94
-1866.08
-160.652
483.119
-621.291
138.173
-1013.5
526.972
486.528
-1730.47
538.318
-955.718
845.36
392.268
201.565
573.707
-268.757
-420.065
710.12
256.233
38.7373
723.734
-762.472
-1135.22
-893.122
2028.34
-555.78
1114.54
-558.759
-473.999
-332.038
107.842
-1655.52
861.367
-844.616
-623.262
1467.88
-330.86
-294.95
625.811
354.84
-673.859
319.019
242.275
-604.322
308.944
200.161
-509.106
366.499
-640.277
646.383
-291.543
314.927
-462.397
685.652
448.202
-212.525
-423.009
-298.874
1223.01
-0.800281
-1222.21
1039.43
-420.17
559.763
410.778
-1782.35
869.819
912.528
489.203
551.119
-1040.32
-534.323
203.463
-263.431
1181.22
-917.788
-1590.86
1212.58
504.654
-1096.34
385.104
-10.1291
463.404
296.419
-759.823
371.476
-616.863
-33.3928
756.877
-723.484
-525.599
795.546
391.458
321.91
526.896
652.953
106.469
-450.236
343.767
1058.62
-644.973
-413.649
494.027
-1664.27
1170.24
-1140.38
1753.23
-612.855
1715.84
-1123.72
-334.582
613.361
-1189.48
1279.65
424.984
-796.43
1606.07
-809.636
-247.863
-210.772
-909.259
1470.74
1813.61
-611.007
-1202.61
-405.054
686.27
-1305.46
-124.712
-72.5306
489.712
-690.56
-354.179
-1236.68
-219.583
461.858
903.209
-557.998
179.226
-1674.68
-71.238
1745.92
-1076.89
521.107
567.576
-1182.7
615.121
901.006
912.607
630.648
619.95
703.724
253.61
-1158.37
471.173
-397.285
412.162
619.445
-514.709
244.072
-730.665
486.593
728.619
-386.929
-302.012
181.742
-590.43
246.974
343.455
-887.162
-740.222
1087.67
-2145.75
398.415
-683.223
-342.878
-723.983
832.615
582.283
-341.378
304.474
412.924
251.708
625.085
-876.792
540.801
625.839
-510.447
152.139
374.471
-647.847
-1051.02
-845.54
1896.56
-1800.35
157.077
1106.98
-1370.41
1177.94
-716.492
-461.444
-503.92
1349.82
-1495.5
627.899
867.601
-286.223
-210.071
496.294
1428.41
558.573
333.091
-444.18
-482.895
-568.553
1051.45
-419.164
597.973
1582.64
-1129.82
-452.82
-810.529
346.529
654.735
403.886
-1623.42
416.172
1207.25
-189.876
498.82
797.736
784.9
175.343
-685.692
510.349
205.824
211.294
-289.787
-109.522
399.309
480.614
51.8581
-532.472
-1649.05
595.812
-1611.64
1679.37
-67.7251
12.2279
-1623.87
1069.56
790.097
-326.693
-829.571
-205.735
-1134.57
-239.821
-312.127
683.603
-1812.59
-631.344
1207.8
214.159
757.27
-1330.87
-678.637
-465.665
659.271
-365.89
-1013.28
1350.78
-1932.91
582.13
646.603
1288.21
484.331
-2.77951
716.173
707.784
-1423.96
-638.253
335.126
303.128
438.984
-100.281
-338.704
147.699
285.907
157.602
-443.509
-588.215
1147.59
456.124
-638.311
-461.231
-401.907
863.138
-322.851
144.707
-457.066
163.984
-304.161
-709.338
546.171
-107.187
-572.363
967.12
576.963
-269.031
-307.932
454.969
-779.47
-644.853
449.37
-1129.4
-841.59
1183.07
-569.77
444.295
307.875
-487.216
118.407
1028.47
-315.543
591.91
-276.367
-509.041
1578.6
-710.679
268.712
367.42
-636.132
202.962
534.482
-24.4952
-509.986
-255.224
-201.842
1007.09
1108.9
564.831
-878.334
938.579
-60.2446
-454.585
168.362
-771.213
315.856
-594.084
368.759
359.86
839.589
-1257.27
417.679
777.011
-810.404
-948.916
-550.386
1499.3
-172.076
513.879
-533.231
201.539
1311.05
778.302
-602.959
1338.45
-685.045
487.617
-657.552
-405.147
-422.761
-378.627
801.389
502.1
-843.521
-485.951
78.5124
407.439
-321.352
572.441
728.442
-330.027
-242.76
-175.34
418.1
-487.968
141.86
346.108
1459.19
81.6643
-1540.85
-752.566
1347.59
-1144.77
-466.028
563.25
-195.831
1151.22
-374.211
1083.47
492.711
691.537
-420.446
-884.97
-522.394
-1328.41
-24.7066
985.079
-960.372
611.616
351.9
-963.516
-322.813
-214.566
-683.864
405.527
1621.2
-198.913
370.099
344.433
-714.532
-1839.77
-2106.69
1519.14
587.544
-2038.29
349.568
382.729
546.014
-928.743
-460.361
1020.12
-412.943
-681.42
1094.36
-2030.54
1391.21
639.33
608.241
-1021.18
19.8884
394.546
386.659
196.598
246.952
362.406
990.969
897.915
679.401
-324.898
-354.503
-292.858
620.891
-328.032
572.605
531.001
565.082
514.788
-1079.87
-796.171
-699.33
752.047
399.174
-413.838
732.857
-1193.4
1609.58
436.233
-1117.65
-327.018
527.179
-1388.66
897.867
490.792
-722.141
-352.282
-770.174
329.581
440.593
447.171
718.062
-1165.23
1070.9
-581.694
-407.298
650.539
-243.241
253.115
323.848
-467.644
-432.215
899.859
-234.223
571.837
-956.026
384.189
-459.11
600.599
-1681.27
423.844
670.764
-1094.61
516.252
94.2114
113.409
-2212.79
559.347
-115.052
1444.34
1777.09
-217.551
-1559.54
-438.471
1789.25
-1987.07
1194.51
792.555
401.913
346.73
-41.5211
874.136
-1283.19
718.564
-869.551
-822.412
797.706
304.543
56.5931
-361.137
227.177
181.803
-408.979
1555.97
-839.794
-1530.94
-325.432
462.146
-206.915
-255.231
394.005
366.565
250.568
408.704
-9.69345
1002.2
-992.51
418.126
283.434
-701.56
-734.097
1817.35
-1083.25
-342.892
736.897
-1222.71
-414.836
-915.185
482.971
607.199
-813.104
205.905
761.108
-379.785
-381.323
-437.172
-441.162
451.52
1106.36
1238.11
-670.534
800.695
-345.726
404.715
332.662
-247.73
-214.287
-237.145
624.028
408.131
-847.281
439.149
248.485
361.06
-609.545
-422.068
830.199
754.411
-1147.19
901.665
-62.0768
-486.919
273.989
784.027
-96.0711
1384.28
1890.5
-65.806
336.141
-344.993
451.462
-1086.75
1077.06
668.693
376.49
384.617
71.011
391.135
255.047
500.087
-372.103
-266.151
-563.032
-89.6162
-357.349
365.39
-8.04124
-257.982
-287.696
1010.95
-1540.71
529.752
-175.173
-196.835
-421.559
704.994
-1638.02
1591.01
-963.109
289.86
-695.007
584.321
1224.42
-1808.74
607.423
983.586
311.865
-1120.7
700.63
-315.332
-319.853
1382.19
-1447.89
830.369
617.519
433.096
-617.481
184.385
-360.826
462.409
-101.583
408.19
72.4243
1724.13
458.48
-252.656
557.64
-1704.79
1147.15
-95.1428
408.286
343.171
336.23
-448.622
-615.344
1063.97
413.795
-863.032
-640.852
902.737
570.588
-471.995
-224.198
-438.139
-409.141
-307.392
-827.178
1821.1
-1821.1
-102.527
-1597.86
1700.39
293.828
282.621
-917.133
-555.438
1472.57
-408.223
973.305
-607.527
-1041.52
709.109
386.324
-1095.43
476.107
-161.18
573.066
1220.35
-1793.41
-1042.21
2114.45
-1072.23
-375.779
-296.408
-504.357
850.885
-1754.46
1603.09
151.37
1754.46
-1608.38
-146.082
-244.712
523.507
-278.795
-537.294
1620.77
1570.64
-1985.48
1097.45
-339.771
-229.64
569.411
228.824
-555.841
-727.648
313.81
1342.08
637.009
581.676
482.337
-1064.01
274.308
417.229
875.358
500.111
-1375.47
535.033
-1017.93
1574.95
-564
-786.095
-376.479
-152.059
528.538
-490.122
1208.18
-740.103
332.402
367.57
363.357
243.519
-606.877
592.181
831.839
-603.165
255.21
683.369
-471.995
-374.738
-205.207
579.945
1168.51
-690.563
609.19
466.647
-1075.84
-1286.96
1286.96
-385.55
762.041
-282.337
-477.819
760.157
491.366
441.667
-933.034
390.792
-673.129
609.24
-868.807
259.567
-367.451
-492.93
1074.61
-660.864
-711.125
1371.99
-366.93
938.767
-1552.72
675.276
-9.8473
-365.325
375.172
-552.104
710.549
284.002
315.808
169.157
306.95
-566.232
250.9
1869.83
-1965.9
250.915
-692.48
450.626
-820.361
369.735
-910.379
1430.3
-519.919
-430.016
-485.17
600.774
1124.18
-1724.96
-715.063
339.284
-461.583
1034.19
-788.821
1044.03
-377.728
-627.44
-512.674
720.233
539.584
-357.584
905.162
-302.353
-185.615
1599.03
-1816.58
-335.229
-620.797
-334.29
476.149
273.937
-639.827
-157.333
1068.51
-794.517
204.366
-321.983
-271.708
593.691
387.47
-878.016
490.545
-485.239
-453.162
-908.973
-357.743
546.113
-188.37
-437.739
-427.081
-326.834
-182.272
-389.767
633.286
-466.433
799.095
-1072.5
623.88
-1407.77
563.151
-28.2739
-1836.94
1865.21
569.981
-449.952
1227.61
-706.504
287.232
-287.232
671.806
-440.225
1042.5
-1650.03
-1158.73
-947.953
291.595
329.296
891.458
714.608
-507.68
-287.117
794.797
1658.88
-1687.15
-434.07
345.478
223.513
1134.99
-525.796
-943.336
1550.48
-607.146
443.537
-246.94
379.121
414.459
-793.581
534.653
467.842
-1002.5
-331.72
664.123
-37.9606
1907.79
1607.38
992.697
-1696.95
726.928
-1176.97
450.042
-492.484
1367.84
837.34
-1341.26
-587.92
248.149
799.503
-397.534
550.294
-1189.08
638.787
-637.025
-1215.53
-695.668
1911.2
-182.074
529.551
-347.477
-120.307
295.062
-477.136
329.47
368.667
-698.137
-1485.61
756.258
729.351
884.05
-1434.44
824.435
-432.144
216.878
-362.859
-616.908
242.17
-671.135
-717.523
698.291
506.587
-1204.88
391.324
-204.555
-186.769
555.482
-958.16
-573.871
-451.478
767.334
-831.312
-1155.75
-1437.96
499.678
938.286
27.9275
-657.445
313.168
344.277
-1317.04
1046.01
271.03
-616.226
-456.277
-665.769
921.518
400.406
-201.131
-199.275
508.278
980.583
-1488.86
976.32
-562.005
166.334
395.671
-433.983
664.111
-413.197
-504.101
169.811
234.27
-1519.62
526.933
543.965
-766.236
214.132
151.658
-454.011
364.252
-817.414
1954.16
-1195.39
-758.772
449.714
-679.016
229.301
323.166
322.836
118.985
-441.82
-572.481
193.299
265.181
-691.756
1374.31
-682.549
424.087
480.155
-1202.3
265.525
1866.78
-1013.59
-853.185
784.648
-507.077
149.334
1402.36
-975.163
-427.192
328.49
-768.714
-616.535
1725.44
609.932
628.178
318.508
-13.9641
256.814
-1138.4
1725.72
-587.317
-1763.53
820.196
1763.83
-1693.58
-70.2535
-654.809
257.524
604.443
-713.95
201.276
1402.68
-565.339
385.754
444.088
-1858.63
1420.16
524.869
-455.34
-69.529
198.024
-524.858
-323.853
-150.146
-351.883
695.054
-620.757
244.278
613.256
548.4
-1161.66
1113.59
-1947.53
833.935
141.743
327.654
-1699.4
1661.44
309.014
-729.461
-165.581
382.459
757.872
678.456
-1436.33
1081.63
-1082.43
523.178
-1104.87
-629.567
252.097
377.47
518.153
-271.179
-619.841
-1030.18
287.931
-715.012
-912.32
168.724
163.498
227.826
390.582
284.882
-675.464
-632.403
-834.112
-978.473
486.947
-1059.43
-284.254
472.554
532.499
650.57
-278.983
-121.765
-441.773
753.639
260.772
-1199.74
567.336
1310.24
-552.371
437.615
-1011.49
-386.17
116.323
408.546
1023.29
551.66
-1720.47
1617.94
1643.94
-583.542
-1060.39
1904.36
-1893.15
-11.2154
232.972
-577.965
-342.014
546.38
-772.108
-319.841
-334.968
1024.09
702.35
-1513.08
810.728
308.22
-26.1876
1625.21
-1099.64
409.074
-1260.56
474.469
-60.8676
1520.06
1197.31
-470.381
-487.928
-74.0775
-234.205
736.038
-1951.57
-709.812
350.201
-530.911
180.71
191.092
-506.635
1139.92
671.576
-1811.5
-591.235
135.895
941.903
-1497.34
-210.516
678.857
-468.34
876.967
1123.03
-740.124
1350.06
642.688
-542.889
-99.7992
-343.448
1173.82
1051.07
-1980.45
929.374
-1172.98
541.641
1488.77
-586.036
-388.625
-121.822
-1242.33
571.795
1167.07
-85.9885
946.134
775.694
-1721.83
-207.797
578.604
-1541.74
963.138
487.007
916.578
-1403.59
622.678
585.127
389.593
-1106.63
590.607
1107.71
1215.65
-452.268
-763.384
-1186.2
-1754.94
-5.77685
-1714.69
-176.836
-440.645
1608.49
-630.428
-978.066
-490.851
1121.5
-1318.77
635.246
683.525
-1362.65
1444.31
-1331.31
591.188
1520.51
-403.537
-549.618
160.993
-1493.92
223.373
176.381
206.313
436.375
458.807
396.68
-855.487
506.382
-938.958
900.569
-1444.84
-695.96
211.857
484.103
-1043.14
454.93
-476.541
862.296
694.697
27.7554
-506.48
159.003
-886.566
-1318.74
-714.824
348.993
365.83
402.442
-722.787
320.345
-478.009
-189.38
-709.188
721.333
1539.78
-593.646
818.81
737.157
1344.75
-844.634
-971.183
-570.559
-796.502
428.243
368.259
-1036.4
-641.94
303.301
338.64
-1433.69
-296.78
-790.152
397.394
392.758
-644.085
414.619
229.466
-669.175
255.979
412.804
487.055
389.915
440.284
478.533
384.605
596.292
-969.475
683.9
463.687
453.154
356.373
-809.527
1630.75
-1079.87
-550.88
-504.644
-288.318
-1028.72
453.605
347.784
409.707
593.755
-1003.46
-1381.8
751.369
-531.514
1146.64
345.925
-60.0178
412.337
-865.063
452.726
-1899.33
301.467
440.891
-725.774
284.883
-187.231
404.01
-216.78
-661.193
305.975
355.218
-673.647
319.144
370.933
391.108
612.496
-1020.72
752.769
662.675
-1415.44
438.823
625.143
339.115
392.672
-731.788
408.537
328.359
614.924
694.376
411.985
606.725
-1026.67
419.941
-1679.28
1179.1
500.18
1696.58
-539.178
620.324
-1147.24
526.917
-642.142
347.192
437.463
-934.832
497.369
776.824
-480.405
351.073
343.982
583.303
-918.532
652.017
-1253.02
601.005
393.558
734.51
-1224.63
769.305
509.708
-1279.01
490.565
398.863
-889.427
-501.706
-936.258
-299.946
629.417
352.592
541.525
-894.117
332.15
331.973
-502.184
1944.74
436.714
-846.775
410.062
-917.76
-807.528
-748.138
366.815
-1220.81
431.992
-1737.22
1608.38
128.838
1748.02
-1603.09
-144.925
-783.865
-592.292
264.993
327.3
-1763.83
1985.48
538.687
791.301
-1329.99
440.135
716.18
690.159
385.634
-1075.79
-46.4399
1617.14
-593.851
379.549
848.062
-648.697
325.789
322.908
-378.593
-297.355
550.47
-220.259
434.783
279.97
-665.353
385.383
263.889
-578.578
-281.929
442.641
-1033.27
590.625
538.054
1092.7
366.041
596.632
311.043
351.91
-662.953
1631.56
-929.212
1692.09
-1520.75
-171.337
-328.403
-822.847
413.706
857.43
-1067.95
-606.484
278.451
-1090.58
1628.63
-1593.78
-76.5199
1670.3
-341.491
-350.345
-370.347
537.957
597.029
-502.739
-28.1027
-549.853
505.937
-283.741
-222.195
1755.8
-1304.28
-624.477
298.385
326.091
399.903
357.304
734.557
-295.181
-399.144
-1748.02
1687.15
459.645
-1100.79
641.141
-42.574
1660.51
571.139
476.385
-1047.52
103.983
1144.71
-1452.1
-11.6919
-1887.64
227.142
-598.15
307.379
290.771
-955.222
612.344
-897.948
467.933
-1128.44
673.235
455.2
384.452
255.982
-763.662
-333.259
1216.84
886.604
699.192
-1182.88
456.163
726.716
494.469
700.564
-1195.03
-388.927
-248.039
411.537
-960.404
438.695
521.709
21.2408
-1879.87
1079.92
-470.678
-498.78
558.36
-1378.19
819.832
-427.335
797.071
-405.534
500.6
-713.042
1720.13
411.756
-183.931
215.3
-169.671
-246.224
415.894
1895.33
-504.118
-1697.86
1051.32
-600.683
303.328
-1013.55
553.187
-313.053
544.349
905.202
-1449.55
-1103.6
437.832
-20.8806
-1945.02
1714.21
-663.138
-540.199
460.79
-1190.42
729.632
191.684
208.722
-281.127
770.889
699.853
837.759
817.806
-461.433
1084.79
-493.712
477.971
-192.731
-285.24
-1923.61
-713.829
-318.18
-642.616
-6.58231
649.198
466.261
-272.961
565.633
1065.93
-807.153
924.518
1244.22
-425.453
-166.156
-249.868
416.024
957.789
-888.462
-318.595
-1067.7
611.423
1558.91
-802.655
537.72
934.851
-393.308
734.669
-341.361
1130.29
-275.578
375.885
1349.66
-705.484
-218.648
448.322
-1198.57
750.245
-981.133
-144.293
1125.43
441.323
-955.465
514.143
150.574
732.425
483.227
743.613
-118.528
852.621
-425.914
1182.4
-796.761
552.238
-1465.46
913.225
-1216.65
1800.97
-431.71
-1510.19
879.57
-1401.96
-309.847
-449.976
1457.19
-1524.55
784.323
1491.47
201.185
276.786
-352.443
-1737.22
-285.431
-1016.2
1581.83
-1772.39
1772.39
1570.64
-1004.47
-633.713
-335.026
368.409
604.896
-415.275
-361.099
-1389.8
897.32
1125.13
600.595
1202.66
1789.48
-1216.42
-614.612
273.53
1659.06
-1916.56
257.496
814.871
-1267.69
1545.23
-561.639
782.467
332.072
-349.024
555.034
794.787
655.219
1373.12
-259.697
-445.222
-357.817
496.519
-340.399
471.858
736.326
-294.09
-147.731
-330.705
566.017
-235.312
28.4888
-372.116
1107.42
-1720.28
-456.189
-488.924
-564.928
863.523
695.39
-1596.46
904.708
-451.861
-624.584
-514.263
1252.03
347.617
1723.74
-1702.5
-1658.88
1893.15
-1560.78
840.232
720.545
-390.754
-1796.99
917.786
583.405
819.273
-387.451
1794.37
-680.778
-453.067
698.752
429.55
-1128.3
-1100.07
444.156
753.153
-1617.17
473.225
901.08
176.053
-401.672
225.619
-1602.49
-386.853
-464.884
990.26
-674.993
1442.92
-977.341
1854.31
242.086
-549.057
496.613
-295.428
474.329
893.513
543.19
977.317
-463.035
-427.95
574.069
883.123
-1392.7
-40.9907
1575.41
-838.25
519.96
971.513
-1475.83
-1115.9
1778.15
-1242.65
-535.502
1206.12
-319.111
-887.01
-191.201
454.185
-262.984
-457.403
-250.724
430.831
-180.107
145.512
-393.551
1736.15
-1741.93
-459.7
-530.862
-903.574
443.857
-205.825
-238.032
633.951
-484.649
-398.956
-314.206
713.162
-949.345
420.414
-1167.22
676.368
418.139
-638.479
-437.787
1578.68
-864.072
530.19
-458.065
-570.554
-462.712
363.124
-352.738
-10.3856
-1114.62
408.113
-664.832
-1033.62
1698.45
-605.53
-1423.84
712.717
562.238
-1596.26
1034.02
-400.284
-479.77
149.229
554.495
-1258.45
744.188
539.241
1005.98
-2133.18
999.987
1133.19
-356.134
411.065
-385.895
-25.1704
1478.04
-370.764
449.569
1185.88
582.34
906.433
567.404
527.653
-1095.06
165.314
-441.53
-1693.58
250.167
1127.55
-617.925
518.54
1013.7
-1532.24
1092.84
-1643.72
197.962
703.704
549.236
-867.831
-1086.45
-170.863
427.683
-256.82
-586.812
-430.13
-636.81
-627.223
346.096
-1619.04
939.643
-476.906
215.608
-399.539
534.541
-307.399
-612.624
1197.14
-1295.75
937.637
358.113
-1022.66
-364.737
-759.517
-826.829
1690.35
-477.075
1795.13
-1585.79
-209.349
-1556.62
1018.7
537.924
-727.583
-259.033
441.527
-182.494
-595.741
383.935
273.44
-657.376
-524.067
990.914
629.852
-351.4
-1620.26
1050.49
571.782
1103.52
-1675.31
-414.692
-291.487
-369.706
-746.551
-494.684
-331.014
500.171
1557.99
-995.756
-774.954
1497.46
659.797
-314.318
725.883
1152.36
-1878.24
280.137
306.038
-487.294
-1932.8
1720.28
212.52
738.158
-474.795
-263.364
531.844
1060.81
-1592.65
363.124
-1726.38
-233.211
1752.35
-1580.68
1073.76
506.921
-1728.41
2.02679
-521.798
411.065
1699.4
-1720.28
939.595
624.752
-1564.35
381.291
-218.75
-162.541
-419.195
-249.98
66.726
94.8696
-353.903
-429.355
-439.451
-406.819
219.588
1510.22
378.943
-194.031
-450.054
461.952
-196.771
325.561
1510.75
988.57
-172.806
-815.764
-1104.09
1704.86
-1728.83
1064
-707.259
-1021.57
-1265.08
1844.99
-579.906
1155.07
-1771.18
616.116
270.664
-878.031
1675.77
43.4371
-1719.21
-491.174
-1083.03
-1736.15
-981.843
553.893
1019.58
590.243
1133.02
-1723.26
273.913
-469.744
703.514
-384.369
389.67
924.749
681.006
-373.431
-653.235
582.908
1072.53
-1655.44
-401.624
-367.657
769.281
398.699
-1661.44
1520.75
140.691
582.463
-1044.05
544.752
1083.88
-1555.66
994.025
-237.299
227.623
318.757
1904.36
424.291
-66.6069
995.857
722.753
-1718.61
-697.151
1085.32
-1557.5
165.17
-571.065
196.728
265.224
-667.071
-553.742
582.558
1034.59
-711.056
-256.093
-1368.57
675.211
693.361
-414.17
744.073
96.6294
-840.702
561.879
-137.168
1557.33
-215.135
268.353
-773.177
-1932.8
1664.62
1023.65
343.265
292.289
484.535
-930.013
-993.6
-1767.26
636.032
1693.77
507.555
-474.42
1210.75
1087.11
-424.954
1029.85
-978.222
491.822
486.4
700.384
1047.93
-1748.32
483.817
483.303
-1493.97
-746.542
33.0887
779.899
-413.084
-882.577
383.798
-539.178
-802.082
604.023
-577.519
1397.35
1055.15
193.565
234.118
-550.638
1618.52
-773.341
1526.11
-1727.83
575.268
1152.57
542.591
-883.02
-1732.87
1916.56
-183.685
1721.74
181.224
-544.463
366.416
-271.546
-481.488
1211.12
568.272
1128.31
-491.256
428.62
857.837
-460.566
-771.806
427.006
344.801
1419.03
1089.59
-518.245
1422.95
-510.594
-533.298
1043.89
-602.773
505.266
-1221.76
1692.09
1839.58
-687.214
1585.79
-646.195
-1241.2
717.134
-562.602
201.441
-390.524
453.591
-242.298
-519.465
-1246.71
1870.94
-624.238
1173.42
-553.094
1120.27
-1659.45
1697.91
-573.954
-546.236
-549.826
1720.07
-316.884
-688.064
-473.352
1223.6
-1685.78
-1860.11
613.401
336.332
-952.622
167.847
212.872
-1719.03
1204.15
514.88
1162.85
558.889
-512.057
-465.407
1192.12
179.161
224.85
588.446
1251.13
-539.179
-1238.58
1777.76
-1025.36
999.989
866.787
-204.099
-1659.06
1702.5
-510.113
1411.19
-1732.87
-339.832
-6.08384
345.915
-262.039
584.513
-322.473
104.811
490.025
781.071
-378.629
1257.52
1270.8
-413.365
851.814
-438.107
1817.48
-662.416
1586.57
-1723.74
-412.8
-764.344
336.163
428.181
-560.16
-563.388
79.7386
-1138.7
-985.414
-669.913
1655.33
-943.704
-1189.47
208.414
-438.054
-648.061
705.668
1167.44
650.038
1410.32
-591.046
1636.74
1318.08
-573.893
-491.939
196.511
-503.296
1396.81
1240.11
-564.898
-999.986
892.649
55.9146
-948.563
603.434
-506.158
1403.48
1495.07
-588.637
-364.932
364.932
-589.476
1623.5
1239.43
-486.279
1134.15
-64.8144
1851.12
-392.283
1489.48
-588.91
-507.686
1347.92
-652.02
1218.63
-566.609
1554.81
-591.673
757.48
571.124
-1328.6
-670.087
262.267
516.035
600.376
-1957.3
-994.229
1586.57
367.914
-367.914
-67.646
387.306
437.129
351.829
56.361
-316.092
928.338
-534.78
-426.572
813.879
-242.669
620.139
-426.744
1552.21
-444.345
-884.062
186.064
226.169
-412.233
601.17
1250.77
-1851.94
926.799
-458.867
-352.738
126.151
-1943.03
1816.88
-450.019
182.358
1181.2
-440.476
-740.722
-298.565
-584.013
-493.374
-385.895
-479.73
257.534
1158.26
-561.228
230.591
-380.504
149.912
-22.7714
-107.681
1376.01
-1268.33
34.5907
-597.622
-586.427
-451.042
451.042
-1262.35
1985.11
-1344.36
-206.059
-1824.34
238.553
-1025.75
-974.244
-184.989
-1638.24
708.225
1229.32
-1924.99
368.182
313.15
-681.332
-1850.02
1234.27
615.746
-560.995
560.995
-959.109
-39.9768
-1866.08
-558.155
1650.85
-676.907
1636.18
-601.594
-181.727
-1705.91
-584.16
-472.055
-594.819
-465.302
465.302
-1537.81
194.528
1343.28
172.301
225.39
-397.69
503.808
484.762
996.842
-475.134
1751.3
768.254
-421.718
396.547
521.399
1702.06
-594.637
-552.972
1636.85
470.258
1812.77
-645.321
-1804.11
-1938.07
-646.998
-477.757
477.757
-575.101
217.284
-705.544
1019.26
-466.073
-1073.21
-286.035
1579.57
1852.3
1635.35
-1635.35
-289.623
738.886
1761.5
595.791
1275.15
172.57
208.721
594.429
594.072
1603.51
-1603.51
221.488
-354.605
-435.631
458.789
951.268
-459.446
-639.408
-1130.99
1706.26
279.506
-1662.35
620.831
-289.005
470.229
1744.65
-592.08
-215.161
-444.945
377.851
729.854
1738.57
-613.449
-511.774
-780.409
1960.54
-870.456
-1090.08
1642.76
-705.195
1223.97
-1824.95
600.981
361.911
-910.968
-185.622
-104.861
1098.12
-486.697
126.865
630.023
-1660.21
434.96
599.004
-1804.11
-583.282
1787.43
883.996
-1162.91
1760.49
-597.582
1783.83
-575.535
-1208.3
431.408
927.765
-1741.93
924.676
-1485.29
249.123
1236.16
-830.98
-1254.22
-378.283
75.2128
303.07
581.737
268.739
1028.42
-442.971
846.243
-403.272
820.865
739.481
-1560.35
644.01
1066.34
-24.1424
-662.8
686.942
-1744.37
722.795
702.558
150.553
-1122.66
1936.76
-674.554
-1262.21
-537.18
1665.49
832.631
964.836
-1797.47
1227.86
683.338
-404.218
710.193
834.991
1028.13
-586.811
1761.5
626.365
1773.56
-1185.61
-587.951
-423.136
-326.233
749.368
121.45
-1185.66
1660.55
-540.274
-1437.8
1437.8
1250.57
594.418
1351.51
206.48
-566.832
281.828
-190.807
699.1
1113.67
481.337
-302.176
-869.987
-574.853
1739.9
-1739.9
993.875
-993.875
987.333
1025.17
-2012.5
1837.95
-613.98
-581.112
843.606
-947.852
-1052.16
998.309
690.804
-1689.11
-515.382
-369.573
-651.611
-808.428
2042.7
-1246.42
-613.688
1002.97
974.853
1289.77
646.991
324.921
1012.69
236.74
338.1
1186.24
1756.88
-1756.88
671.802
79.7606
-387.692
-997.054
-539.993
1674.14
990.428
1009.57
-1833.29
-222.484
-361.676
598.022
-347.855
1849.52
-1077.86