/*--------------------------------*- C++ -*----------------------------------*\
  =========                 |
  \\      /  F ield         | OpenFOAM: The Open Source CFD Toolbox
   \\    /   O peration     | Website:  https://openfoam.org
    \\  /    A nd           | Version:  7
     \\/     M anipulation  |
\*---------------------------------------------------------------------------*/
FoamFile
{
    version     2.0;
    format      ascii;
    class       surfaceScalarField;
    location    "18";
    object      phi;
}
// * * * * * * * * * * * * * * * * * * * * * * * * * * * * * * * * * * * * * //

dimensions      [0 3 -1 0 0 0 0];

internalField   nonuniform List<scalar> 
176195
(
198.612
56.5996
-255.212
-473.312
101.919
371.393
-88.87
-72.3275
161.197
88.5879
-250.971
162.383
-468.02
336.696
131.324
156.242
-326.304
170.062
-134.57
226.151
-91.5811
-91.3162
207.754
-116.437
-361.871
341.091
20.7805
-464.625
-8.68691
-224.973
347.635
-122.662
501.287
-360.069
-141.218
-153.554
341.588
-188.034
47.3853
-45.4448
-1.94053
-54.5118
-307.36
-68.2282
29.8371
38.3911
-456.764
95.2117
361.552
-403.706
80.7174
322.989
-188.987
291.918
-102.931
-346.717
-121.303
-84.9597
194.531
-109.571
143.907
-143.193
-0.71418
382.324
-275.506
-106.818
135.405
-279.711
144.306
-341.616
282.036
59.5807
-38.174
166.333
-128.159
-14.0002
37.507
-23.5068
-237.727
524.571
-286.844
-260.993
-177.225
438.218
-55.6357
101.724
-46.0882
423.594
-337.221
-86.3729
-282.337
-37.0113
319.349
-287.666
440.635
-152.969
-76.3201
-59.1855
135.506
-154.168
-106.174
260.342
179.376
68.7743
-248.15
-179.908
76.9987
102.909
-107.843
-348.92
-102.855
-61.4761
164.331
96.768
174.249
-271.017
129.433
-411.77
-62.4628
-341.243
-106.034
-39.3435
145.377
-88.9397
268.316
-28.645
100.426
-71.7807
0.79234
46.593
280.601
67.205
-347.806
616.094
-345.946
-270.147
415.424
-164.657
-250.767
418.582
-540.653
122.072
-390.938
478.417
-87.4791
224.067
-82.9609
-141.106
-471.648
348.232
123.416
-504.051
450.674
53.3769
-127.76
-159.952
287.712
-334.981
-136.667
596.146
-388.345
-207.801
-121.079
86.5831
34.496
-10.2041
50.103
-39.899
119.366
-205.488
86.1217
-511.384
329.661
181.723
-172.417
295.554
-123.137
326.73
-123.072
-203.658
-91.3412
149.331
-57.9899
292.98
88.5696
-381.549
10.6926
-428.404
417.712
-351.498
211.203
140.295
-208.08
418.455
-210.375
7.60207
-41.4837
33.8816
-581.597
279.862
301.735
-53.9918
142.024
-88.0324
63.1767
-39.6616
-23.5151
318.627
-221.859
-98.2863
51.3716
46.9147
-98.522
-89.3893
187.911
65.158
-128.279
63.1211
-153.216
78.7117
74.504
220.861
-402.772
181.911
-341.425
-10.8501
352.275
-274.02
169.396
104.624
-104.059
-169.96
428.072
-431.078
3.00624
26.067
-93.103
67.036
-351.278
640.701
-289.423
-101.666
194.88
-93.2137
342.456
158.831
-101.165
149.978
-48.8126
-323.528
472.508
-148.979
84.8967
-91.8258
6.92902
-88.2257
441.753
-353.527
93.0815
-90.2911
-2.79043
162.634
-16.9752
-145.659
207.985
-468.978
185.014
64.8964
-249.911
-407.185
298.755
108.43
-591.078
426.655
164.423
253.848
-312.227
58.3796
99.5341
-73.4671
-19.0583
-105.762
124.82
2.57656
82.3202
-317.461
-193.923
212.711
-481.691
268.98
343.834
-183.692
-160.142
-533.943
551.033
-17.0896
104.1
-158.092
188.601
-110.506
-78.0943
-458.44
261.191
197.249
-57.2143
115.391
-58.1767
-146.838
212.191
-65.3523
-313.013
-68.78
381.793
-55.7978
174.214
-118.416
-53.6712
307.519
-91.1827
-62.033
141.688
92.1514
-233.839
-180.05
67.3955
112.655
208.215
-351.246
143.031
-301.476
76.503
-91.3883
164.937
-73.5489
364.02
-542.489
178.469
28.1693
35.0073
-162.621
71.2322
-34.8597
-33.3685
-191.226
92.6283
98.598
74.8018
-88.1881
13.3863
-230.56
532.175
-301.615
-113.105
57.4691
-236.538
64.1207
-156.702
86.3031
70.3991
-158.953
-38.6228
197.575
-570.629
572.706
-2.0763
-111.415
234.566
-123.151
577.868
-294.399
-283.469
-99.3049
125.29
-25.9856
545.325
-202.87
-329.499
481.703
-152.205
-152.84
234.151
-81.3111
-341.618
279.232
62.3856
69.7727
-357.439
143.021
-270.781
169.385
126.169
73.6349
9.58635
-83.2212
-199.127
351.658
-152.531
505.238
-506.716
1.478
383.262
-175.29
-207.973
-264.763
153.348
141.933
-532.87
471.344
-349.458
-121.886
-98.4305
-138.107
-477.805
269.725
-220.95
-195.732
416.682
113.527
75.0741
62.1192
-90.7642
6.93267
155.701
-567.304
273.02
294.285
107.87
116.197
-396.891
468.869
-71.978
-411.49
98.4769
-106.004
212.688
-106.685
101.135
-100.663
-0.472223
-183.368
139.153
44.2154
117.344
-52.1858
155.932
315.412
150.178
176.553
-196.358
147.181
49.1767
254.029
-144.79
-109.239
141.827
153.919
-295.745
476.968
-271.955
-205.012
-45.8095
-107.094
152.903
-186.996
80.9929
-230.349
125.747
104.601
-218.89
145.489
73.4013
-107.39
387.991
76.3219
-107.959
31.6372
22.778
27.9385
-50.7165
-77.9803
-75.6798
153.66
221.329
-472.879
251.55
-33.2876
56.0656
164.402
102.569
-266.971
129.803
-353.76
223.958
278.656
136.768
-311.653
-150.751
462.404
-192.403
93.8805
92.5236
-250.997
158.473
-234.896
423.766
-188.871
-212.482
-245.957
-179.878
381.53
-201.652
96.9365
-234.836
137.899
313.606
186.394
-136.581
336.342
-199.761
-2.42207
95.5036
-119.403
283.804
-350.299
193.268
157.031
435.763
-48.8041
-386.959
-172.64
95.7034
76.9368
-174.961
136.787
71.0241
-151.448
80.424
19.641
-52.9286
-114.459
108.287
6.1721
46.8687
-118.438
71.5693
76.3958
136.608
-213.004
-567.722
406.453
161.269
-277.702
334.955
-57.2532
391.333
72.7575
-464.09
481.444
-478.559
-2.88452
-295.05
157.602
137.448
109.31
-66.7948
-42.5154
359.651
-248.149
-111.502
-88.7526
381.732
-227.157
-223.046
450.204
98.506
-217.407
118.901
-31.59
51.2311
6.05032
255.14
-2.79514
-338.821
-384.53
296.304
-143.895
-73.1272
217.022
-74.7889
-97.8513
-132.255
253.765
-121.51
-194.5
-145.924
340.424
41.2766
-40.4843
-129.249
-251.947
381.196
123.155
16.2861
-139.441
120.021
-6.84857
-113.172
129.538
-338.883
209.345
-58.4111
106.772
-48.3611
-73.5374
-430.513
-266.066
76.3181
189.748
-193.044
-94.2557
287.3
144.179
-52.7716
-91.4075
157.475
-86.4511
-401.445
63.1959
338.249
-7.21851
-458.25
465.469
82.5879
-120.674
38.0857
10.4233
-74.2396
63.8163
83.9782
-165.48
81.5014
-235.861
117.996
117.864
-209.868
-357.854
-662.347
295.802
366.545
412.332
-210.832
-201.5
-45.0564
148.413
-103.357
191.438
-130.584
-60.8536
-106.827
67.9177
38.9094
-288.88
163.172
125.708
-145.516
-37.8526
93.8427
-112.901
245.368
-190.185
-55.1833
-226.002
424.619
-198.617
460.987
-249.64
-211.347
104.871
-67.3692
-37.502
-149.176
103.366
-59.4284
-14.604
74.0324
299.607
187.947
-487.555
-343.944
204.844
139.1
241.484
-556.914
315.43
395.563
-219.839
-175.724
160.837
-117.246
-43.5907
-0.778531
-310.875
19.199
71.824
-91.023
-644.508
344.541
299.966
514.601
-514.601
-201.006
109.69
411.897
-412.675
-0.856691
42.1333
-489.495
254.599
28.2858
138.727
-167.012
24.471
-171.309
232.637
-144.049
-9.54888
84.3507
155.504
-247.201
91.6963
19.1036
111.348
-130.452
-117.02
142.929
-25.9091
413.648
-132.057
-281.592
-339.454
202.873
447.4
-168.744
-219.135
-69.7446
161.125
156.344
-317.47
-159.558
79.7054
79.8529
55.2933
-103.164
47.8712
-169.21
91.2294
-247.224
298.927
-51.7038
71.0724
-128.287
-119.38
-76.9781
86.4158
163.518
-404.499
240.981
61.1389
48.1714
460.587
-238.802
-221.785
193.713
225.649
-419.362
21.7177
-287.784
525.551
-538.128
12.5763
129.644
-90.752
-38.8915
-96.2437
-59.3855
155.629
112.314
-57.0205
-500.513
66.9245
433.589
-58.0471
41.7414
16.3057
313.301
-307.251
-245.779
407.494
-161.715
-528.015
340.078
187.937
334.808
-238.101
-96.7068
-180.038
-184.601
364.638
-149.336
355.076
-205.74
-156.725
39.7052
-32.1277
-18.6695
50.7971
114.476
-188.955
74.479
-48.9668
20.9384
28.0283
277.829
-176.399
-101.43
97.5334
29.9139
-127.447
-153.551
272.77
-119.219
-245.618
163.339
82.2798
88.9706
55.2085
233.461
-139.051
-94.4099
-175.868
305.67
-98.4769
-147.744
246.221
91.9411
8.73265
-100.674
-73.5178
108.036
-34.5182
-142.122
97.0656
-326.643
173.089
-185.816
364.17
-178.355
428.405
7.35796
203.015
-429.016
245.882
-110.477
-55.6029
-0.810631
56.4135
-30.3417
-157.56
187.902
254.003
-383.251
-72.385
463.718
-46.5222
-133.528
207.749
28.7599
-236.509
-109.43
48.6609
60.7696
-403.814
6.92325
228.316
-427.224
198.907
20.9211
-53.0488
-22.6476
-35.3995
154.465
-252.942
-432.22
-68.2934
159.369
206.96
-366.328
219.651
115.157
202.762
-89.3127
-113.45
150.572
110.779
-261.352
-228.157
117.028
111.129
78.7145
-355.416
276.701
344.349
-188.106
219.171
-122.235
79.364
87.9682
-167.332
-93.9214
251.43
-157.509
13.5966
-27.5968
80.0994
-145.371
65.2716
237.064
-80.9202
-156.144
-198.034
-214.303
412.336
-175.745
-71.4787
-111.523
-26.2605
137.783
61.0566
51.3922
-112.449
324.854
-171.77
-153.084
-145.234
45.9287
-505.348
328.189
177.16
400.045
11.8518
140.591
-265.852
125.261
177.714
-101.318
196.122
76.7948
-272.917
-50.5929
249.205
-105.487
-299.598
405.085
-191.89
384.866
-192.976
-118.745
267.649
-148.904
-87.9936
218.314
-130.32
151.456
-111.324
-40.1321
-117.42
-62.4881
-225.189
125.815
99.3739
209.062
-85.7112
-123.351
-438.206
332.719
-108.198
110.231
-2.03339
-164.058
89.6732
74.3852
313.703
-184.165
-169.163
473.193
-304.03
220.038
-125.276
-94.7628
1.78484
54.3324
-56.1173
57.4708
47.4004
23.8379
220.753
-244.591
101.48
29.4858
-130.966
79.7427
325.242
-404.985
158.018
516.354
-97.7717
187.369
117.136
-304.504
-141.837
303.029
-161.192
139.456
-56.8679
201.128
-123.13
-77.9987
-64.8579
190.289
-125.431
138.866
-257.61
442.883
-249.17
-368.289
366.17
2.11919
83.1803
-72.757
-53.3835
-16.8714
70.2549
526.281
-189.585
-66.141
191.828
-125.687
-262.496
437.415
-174.919
258.612
152.873
-411.485
48.5024
-149.668
-513.256
275.529
-12.0987
132.12
-302.806
153.433
149.374
132.012
101.449
-314.425
-154.73
469.156
269.404
177.996
-70.6292
-59.405
130.034
77.7975
5.58285
-83.3804
-211.641
335.535
-123.894
106.569
-111.514
4.9453
-143.443
340.532
-197.089
26.4971
153.12
-179.617
85.5257
97.1663
-182.692
142.868
-472.366
-165.313
256.1
-90.7863
-121.084
247.919
-126.835
-91.616
137.631
-46.0153
243.966
-144.631
-99.3355
-241.783
94.0383
241.087
-439.12
-52.0219
205.128
-153.106
-179.478
77.8121
194
104.927
400.996
-131.592
89.9
-184.762
94.8617
353.674
71.123
-424.797
-221.339
457.151
-235.812
-232.691
-266.863
19.0506
-50.6406
609.62
-390.171
-219.45
-22.7348
116.731
-93.9963
-108.246
34.7278
313.825
-367.562
53.7366
-105.421
190.947
-341.898
354.722
-12.8236
358.867
237.28
160.204
135.729
-295.933
-545.333
403.847
141.487
-337.679
423.756
-86.077
-96.1906
214.816
-118.625
140.398
-51.4277
112.41
165.419
122.977
-288.29
-122.28
268.147
-145.867
393.286
216.334
334.312
-325.689
-8.62356
325.144
-535.585
210.441
337.207
-116.346
-116.373
-454.257
63.4734
-213.808
150.334
57.9926
-128.622
344.229
116.358
195.232
-122.374
-72.8579
230.725
193.894
135.707
228.915
-364.622
-86.6014
345.214
441.788
-220.459
-345.032
-39.1819
384.214
-291.062
-182.847
473.909
430.394
-283.83
-146.565
528.756
-280.104
-248.652
-55.8492
-93.3265
-46.9367
247.925
-200.988
74.7426
93.4795
-168.222
64.7359
-110.261
45.5253
96.2694
195.215
-291.485
-124.269
21.4347
102.835
18.5544
88.0144
429.542
-198.817
392.304
133.976
-352.099
-17.8596
369.959
-16.7643
108.705
-188.136
103.177
-187
-230.488
417.488
-22.252
50.1905
-26.4996
-97.7698
168.384
-459.446
221.544
-13.5329
-52.87
66.4028
206.975
-58.5617
-67.5953
-30.691
-258.626
136.346
-62.9435
270.693
-324.409
499.455
-175.046
275.935
-462.935
436.858
-224.147
122.416
195.371
-317.787
-146.797
63.1754
83.622
-367.335
488.592
-121.257
305.501
-226.786
602.283
-246.66
-355.623
104.751
102.224
351.92
-132.576
-219.344
-257.746
431.706
-173.96
156.503
-221.218
64.7153
-231.565
36.9998
194.565
-59.6548
-97.0699
92.7729
-353.943
261.17
12.3107
-88.9556
76.6449
465.347
-262.256
-203.091
297.094
-490.652
193.559
-218.683
166.661
128.528
91.5107
76.0401
-14.7735
-61.2666
247.65
-105.962
258.799
153.533
313.912
-182.468
-131.445
-297.489
182.182
115.308
-511.562
308.76
202.802
172.062
-88.0838
-80.3505
159.068
-78.7176
-180.108
-65.5106
329.222
-15.3969
101.031
-0.59953
-100.431
-97.2396
176.604
-73.1223
-33.7047
-537.105
346.779
190.326
290.27
-149.679
212.349
183.214
183.079
-402.918
-474.056
237.913
236.143
-244.708
162.768
81.9403
119.361
-54.3823
-64.9783
-236.141
-192.851
428.991
120.817
127.169
-247.986
-404.686
267.732
136.954
-255.537
-149.149
-612.956
405.02
207.937
-276.926
96.8179
615.227
-316.821
-298.406
-165.502
-178.686
344.189
-94.4817
102.567
-8.08575
-142.841
258.142
-115.301
-216.973
120.782
-408.906
420.013
-11.1073
50.3315
123.507
-173.839
-396.558
212.683
183.875
-97.4466
-121.444
139.685
-112.358
-27.327
281.206
119.789
574.924
-317.791
-257.133
253.204
-519.73
266.525
37.3827
-87.6089
50.2261
62.0976
13.9425
-60.5336
130.024
-69.4903
274.289
300.635
57.3424
-133.663
-280.288
186.366
33.2633
-25.6612
57.3074
151.755
345.966
82.1053
86.5688
53.8295
46.0428
-184.383
138.341
367.837
-518.442
150.605
-70.2409
327.767
-257.526
-26.891
91.6269
190.519
411.764
-141.159
376.928
-235.769
77.6595
-189.305
111.645
-353.187
-309.16
-49.791
-40.1408
89.9318
11.1208
-105.603
-75.9845
88.2952
142.167
-62.0673
182.843
-348.345
-118.811
56.622
62.1889
-373.13
-75.5624
448.692
-338.373
522.71
-184.337
106.042
-398.921
292.879
47.7148
-113.018
65.3033
-66.3428
-335.102
273.407
110.453
-383.86
175.113
-111.64
222.567
-121.981
-100.586
515.115
-158.334
-356.781
-403.249
50.6935
352.556
326.276
104.062
-430.339
-541.302
562.808
-21.5055
-119.085
-72.1415
-94.3354
113.439
147.016
166.896
278.285
-594.346
316.061
401.552
-390.86
440.33
-166.923
575.978
-312.812
-263.166
-213.584
226.207
-12.6226
-33.1786
134.21
-56.9262
-243.478
300.404
58.6474
455.953
-57.2251
-84.8969
168.425
-93.6826
287.184
-190.914
122.708
56.1064
-178.814
161.233
-208.17
-122.04
-4.28935
126.33
555.383
-555.383
151.172
-124.675
261.942
-145.523
-116.419
-331.644
-196.37
-149.26
93.4105
-405.242
-128.701
-44.1539
45.9387
175.184
-362.137
170.516
191.621
33.5414
-375.44
54.3559
118.267
-172.623
105.867
37.0615
77.454
-3.81916
-67.2841
-335.965
95.3746
-204.977
109.602
51.2223
-396.254
-307.384
166.225
-152.008
-160.539
312.546
68.0832
330.721
-398.804
-328.26
501.902
-173.643
-98.5909
126.877
-12.4731
31.9296
-19.4566
-93.1442
153.547
-60.4031
225.698
197.696
-423.394
336.296
-213.88
375.193
-155.542
-317.818
-227.515
71.212
-260.199
-242.656
88.4884
-408.427
304.584
103.842
72.2931
-445.423
109.535
126.581
-236.116
-208.077
-178.387
386.464
-31.5681
-17.3987
100.786
-117.551
-151.434
-182.008
333.443
-304.322
234.082
-110.459
-47.1158
157.575
-184.348
114.445
69.9027
372.222
-540.24
168.018
318.023
-209.623
-108.4
141.672
319.315
157.267
74.9977
-232.264
396.16
-183.812
146.746
-514.081
207.815
-112.44
153.663
164.36
-64.2342
-344.192
226.878
-403.208
176.33
438.388
-258.105
-180.282
86.9749
-250.282
163.307
-197.289
-8.01334
205.302
144.488
-33.4725
-111.016
65.3833
-120.306
54.9231
197.025
178.169
-43.3513
121.149
-354.605
426.898
137.024
229.411
-366.435
-108.911
317.126
89.7952
9.01445
-98.8096
43.0146
-309.796
266.782
-99.1348
110.256
280.536
-485.923
205.387
-87.7811
210.489
256.375
-452.067
206.289
-156.998
-6.18924
163.187
21.3737
132.63
-154.004
295.332
170.015
-21.7114
111.507
321.81
-21.2717
-300.538
-126.478
444.425
-317.948
105.847
276.478
34.6461
213.279
323.726
144.175
-467.901
333.838
-278.079
-55.7588
-21.5052
-86.6925
-209.775
56.9344
-41.3434
-31.0615
72.4049
19.1805
-60.5239
-320.326
178.489
-95.9558
-158.242
254.197
289.78
20.1147
-309.895
-221.368
-38.2986
259.667
-143.693
86.4683
60.0014
-153.146
-94.364
-317.212
411.576
-78.1886
-140.947
547.604
-267.068
-69.5946
92.7161
45.8603
-138.576
-250.968
104.068
146.9
57.637
-82.2098
24.5728
117.285
147.695
-264.98
-156.555
97.5371
59.0179
-126.086
322.209
-123.517
-86.6378
210.155
-351.661
-229.936
-236.938
124.849
112.089
-229.539
527.542
-298.003
409.033
-316.26
-56.0816
-76.0577
132.139
-35.656
56.5771
-182.84
332.152
-149.311
-122.699
274.815
-152.116
168.288
-78.8243
-89.4632
-283.401
389.443
18.6915
24.9931
-43.6846
-257.161
262.248
-5.08655
-213.502
78.9315
200.694
3.03344
-203.728
-182.715
402.509
-219.795
91.6325
-41.0706
-50.5618
261.556
-530.913
269.357
-497.335
173.807
161.935
-38.7804
-105.19
6.05522
-179.53
88.8497
90.6806
-164.101
390.979
168.807
-91.1475
69.843
-424.448
-55.796
-96.1822
151.978
-112.475
-509.131
354.636
154.494
258.87
74.9681
-325.562
-150.014
475.576
-85.3891
298.922
102.744
-125.479
-54.0823
-105.476
-268.278
-276.163
544.441
-228.412
-256.66
485.072
-240.674
269.403
-28.7287
344.091
-264.348
-281.522
-223.826
340.693
-509.856
102.778
92.3596
-195.138
-389.66
229.87
159.79
149.195
243.109
-65.5692
116.079
-50.5094
-330.335
527.144
-196.81
-48.3359
-6.43627
54.7722
-168.573
66.0068
102.566
24.4946
-36.9676
-76.9342
403.21
22.9633
126.657
-149.62
521.924
-198.198
-177.298
269.822
-321.498
172.162
-280.94
280.94
-125.467
235.002
-554.917
289.546
265.371
-349.71
-61.1605
410.871
184.377
-138.334
-58.72
38.2091
20.5109
-197.264
109.271
129.597
-489.665
28.6686
100.975
-134.657
-305.706
440.363
-227.935
364.959
-255.696
123.441
515.742
-280.911
-234.831
-163.488
-33.8008
158.805
-342.496
-585.949
408.804
177.146
-301.89
-124.52
-143.726
25.9193
117.807
-57.187
-86.0012
143.188
141.718
105.932
-113.994
160.285
-46.2907
-4.96661
113.537
-108.571
184.645
-184.607
-0.0374448
202.67
-338.461
135.79
72.4063
-152.757
-84.209
-134.474
77.6881
-143.696
66.0077
-401.124
-215.541
329.755
-114.214
64.2954
27.3371
1.09352
-197.642
196.548
-167.995
-183.503
183.421
-394.808
211.387
-139.189
83.1071
5.37551
31.3498
-36.7253
31.6143
-142.073
-106.317
209.974
-103.657
154.206
119.634
-273.84
-178.794
-280.654
459.448
172.309
-416.477
244.168
93.8192
-36.6783
-57.141
-541.602
308.539
233.063
499.147
-337.128
-162.018
-501.021
176.612
15.7748
135.397
-81.7558
-106.381
293.944
-380.545
-343.962
-130.094
-253.849
-108.289
-368.946
153.639
215.307
-210.788
132.6
-36.9964
290.067
-253.071
-66.9164
-219.298
121.851
124.021
132.012
-256.033
256.356
-449.724
193.368
203.401
-104.895
-317.321
107.698
201.362
-81.996
-324.935
-114.567
439.502
390.4
-206.979
-326.138
330.459
-4.32154
-82.6401
126.339
-43.6993
-409.112
194.809
-291.694
130.387
161.306
103.678
-103.678
-204.475
-250.534
455.009
473.646
-403.803
77.0434
-270.087
-2.81095
324.621
319.979
195.136
-221.324
-82.5527
303.876
39.2824
-21.2501
-18.0323
-54.2153
102.41
-48.1947
-199.364
130.033
69.3307
-322.564
-244.74
-111.741
-10.2987
125.309
-32.5925
-278.715
-312.363
-130.466
69.9322
149.855
191.733
52.2036
35.4437
-87.6473
-160.227
181.222
-20.9949
393.804
182.174
-168.72
-108.205
-333.801
-175.33
-153.532
-81.8667
235.399
-70.6025
-261.954
332.556
-278.195
177.445
100.75
-73.4494
-72.5266
145.976
332.595
-509.408
176.812
203.592
-349.108
145.516
248.093
-451.874
203.782
-61.9489
-59.1303
-228.819
144.61
196.264
-404.627
208.363
-136.18
78.9933
-343.846
66.1449
-234.323
383.518
-26.7663
46.055
-19.2887
147.404
-143.538
-3.86586
11.5939
-71.0222
-165.651
368.322
483.233
-465.292
-17.941
-68.8786
116.593
-67.3454
107.411
-40.0657
255.756
-460.231
-40.0343
48.7916
-8.75727
-130.154
271.981
390.428
-506.862
116.433
256.236
40.9386
-297.174
39.972
-109.659
69.687
-38.8296
96.4667
53.1082
12.5685
-65.6767
-28.7591
128.374
-99.6149
-8.76363
113.28
-104.517
127.895
-50.2066
408.341
-149.542
-118.449
244.584
-126.135
-303.136
-34.5427
180.512
-109.207
-71.3049
162.303
-298.645
136.342
-223.614
-159.653
383.267
-42.6021
190.006
-269.927
157.973
111.954
185.42
-342.475
157.054
-335.349
211.989
123.361
245.127
-134.619
-110.509
-153.375
78.7991
74.5756
209.388
-436.546
-113.733
-76.059
189.792
-47.9169
-108.778
156.695
104.813
-193.398
88.5847
-37.8136
139.294
135.773
-72.06
-63.7132
-48.1915
-118.443
166.634
-20.4347
121.221
-145.144
-114.107
259.251
-297.365
-8.18094
305.545
60.5367
-144.645
84.108
148.778
88.2866
109.678
91.6847
-146.661
149.784
-3.12327
-143.726
-55.7865
446.215
-179.382
76.5276
396.058
25.3327
-421.391
420.614
-350.841
-472.177
190.655
83.7697
67.196
-150.966
-16.8216
-38.7813
96.8929
-245.601
148.708
154.176
-369.717
-153.951
-3.84656
260.082
-62.7818
263.476
240.677
183.089
-425.572
242.857
-116.586
51.0163
410.091
-168.607
172.08
-94.9738
-77.1061
248.654
-319.257
295.479
-149.567
-145.912
257.685
-230.878
-26.807
152.288
-91.751
-240.283
-225.158
465.441
-209.457
37.9429
171.514
495.348
-489.319
-6.0296
238.779
-69.3758
-169.403
281.166
279.982
-561.148
206.943
-102.13
-150.783
294.061
-143.278
-138.864
299.068
-95.2039
169.821
-74.6171
-174.923
-120.128
5.51567
-32.4934
26.9777
66.404
-189.921
363.262
110.384
-350.957
-57.9482
-73.4108
-177.557
94.7946
-42.591
-145.785
243.106
-97.3208
-43.1309
32.9269
85.3285
-30.8682
-54.4603
-134.49
86.2983
-577.799
343.056
234.743
59.0965
-117.08
57.9837
-148.996
245.889
-48.6159
103.227
-54.611
53.5038
31.8247
-161.944
364.562
-202.619
-33.7227
-114.967
148.69
-52.0105
-15.4396
67.4501
287.159
-112.038
-175.121
208.786
-105.57
-103.215
-386.155
-295.976
-176.201
-110.016
41.0793
68.937
156.389
-322.636
166.247
27.6725
-22.1568
-124.711
140.486
33.4139
-374.839
285.345
-103.163
-170.13
103.989
-187.213
127.7
59.5134
334.328
-130.736
115.831
-95.3064
-20.5241
-128.179
-59.0339
61.0223
-184.957
123.935
100.69
-182.445
119.101
-43.0446
-70.5145
113.559
-120.154
215.938
-95.7844
173.033
-50.2454
-122.787
-262.172
-35.1932
127.394
73.7343
-45.2328
9.57686
-25.1631
132.014
-106.851
-104.382
97.6731
6.70925
-88.6206
-52.3345
-63.3535
115.688
521.546
-407.112
-114.434
390.22
-96.2757
132
-110.626
-425.339
463.479
-38.1405
-151.287
286.432
-135.145
-232.81
309.853
72.4073
63.366
-70.7413
-93.3171
-86.6845
242.189
-173.203
287.569
-114.366
-136.76
202.67
-65.9097
-297.273
168.22
129.053
87.8683
-50.4856
-8.94674
-30.7149
-233.728
-211.809
445.538
162.058
359.488
-503.553
275.14
188.796
-188.796
-123.326
124.905
-1.57873
182.766
-112.816
-69.9503
246.155
-540.404
294.249
142.276
144.883
-242.9
347.185
-104.285
106.798
-47.7015
-162.481
103.155
59.3253
156.867
329.904
-486.772
250.103
-108.385
-329.408
170.066
159.342
81.7933
-187.711
105.917
273.097
179.157
-452.254
-157.133
123.411
-14.6198
-102.216
116.836
136.273
-165.032
-197.637
423.335
-204.437
120.992
83.4446
145.095
-86.1895
-58.9054
-127.424
392.991
-265.567
306.191
-144.958
-29.7707
127.907
-98.1359
202.028
191.64
-393.669
-238.633
-264.92
-89.6475
346.003
71.151
-133.392
62.2413
-183.383
388.506
-205.123
161.738
-79.9447
299.888
-196.057
-103.831
189.468
-99.568
-198.544
-55.1067
28.3404
-621.175
303.384
138.983
496.708
-504.382
7.67356
231.305
164.994
-396.299
86.0403
29.7902
-282.462
-229.1
133.314
-163.655
50.3582
-291.032
-96.1411
63.7397
32.4014
166.096
-304.491
138.396
-29.6337
338.394
-120.894
92.2916
28.6026
50.5186
-159.297
70.9881
-126.555
55.5664
247.385
104.536
234.925
-152.883
-82.0422
44.3327
100.156
-422.222
299.435
122.787
-259.555
-361.62
183.749
55.0291
170.57
-514.249
343.68
-76.6411
-78.1324
154.774
31.1068
-100.273
69.1658
331.244
184.498
-14.3495
410.408
106.13
-167.606
443.898
-170.801
82.2711
-186.896
104.625
-507.557
295.519
212.038
-207.86
-273.303
481.163
-366.29
566.215
-199.925
276.918
146.676
-173.669
225.761
-52.0919
-145.256
266.073
340.86
-267.699
-73.1602
-158.635
278.283
-119.649
-188.914
-161.385
-9.83201
-268.415
278.247
86.6129
34.2414
-120.854
157.899
-107.567
444.85
-368.262
-76.5881
-201.352
95.5105
105.841
80.5834
301.522
-382.106
32.9023
-27.5268
335.77
109.08
-119.246
104.627
-103.295
-17.5996
-226.817
515.793
-288.976
-8.60575
183.455
-174.849
234.559
-420.284
185.725
-63.0431
-32.1896
95.2328
300.623
107.718
-60.935
-5.23104
66.166
-205.459
188.548
16.9109
-210.168
120.049
90.1187
187.535
390.333
70.3109
-17.2027
-293.642
-128.58
217.796
-458.079
414.96
-512.133
97.173
150.463
197.76
-30.9321
-166.828
179.623
-118.6
83.2075
-408.142
-52.8564
-59.6344
112.491
79.6726
5.63428
-85.3069
-153.71
42.187
126.465
117.501
163.729
-353.251
189.522
-71.2397
118.97
-47.73
163.943
-347.326
360.313
-203.924
332.676
-84.0214
-413.105
-231.403
-273.768
476.577
-202.81
427.618
-321.888
-105.73
-9.98397
-389.367
399.351
-371.32
-180.128
551.447
-225.645
-5.91969
119.073
-48.0852
-581.428
303.982
277.446
-263.827
-77.7908
-81.3955
-71.9792
53.7799
40.0393
8.77746
41.3256
-561.558
382.674
178.884
67.1621
-110.207
-18.0818
62.285
-44.2032
159.137
-145.14
193.752
-317.017
123.265
306.664
-242.186
-64.4777
86.8422
-396.354
309.512
194.414
-84.7365
127.59
232.061
-81.4814
-102.866
118.958
-78.9855
472.369
-313.536
-158.833
-262.906
358.573
-95.6666
-19.8191
177.053
295.316
-417.244
31.837
385.407
-279.839
-209.656
77.8108
-177.321
99.5102
-132.506
-84.4062
216.913
113.047
184.479
-297.526
18.3004
-307.252
-274.175
-38.823
2.74484
36.0781
-202.435
331.724
-129.289
527.119
-201.877
410.251
-82.0628
-291.704
138.153
86.5516
-6.87905
-271.255
-44.6057
315.86
75.1097
-389.535
-406.286
148.539
97.3864
-11.7501
-85.6362
134.795
-216.133
81.3388
-118.51
272.716
-458.334
331.856
94.1494
-127.622
500.897
-165.127
-225.947
403.439
-177.492
171.397
-334.487
163.09
490.508
-118.286
61
99.837
-279.167
105.498
259.267
-167.837
-91.4301
-180.124
291.708
-111.585
154.787
372.332
158.463
-262.803
104.339
390.988
-123.256
366.52
124.167
-490.687
310.51
-212.079
-98.4304
513.613
-543.984
30.371
159.432
-110.067
-49.3653
389.627
-321.544
-12.9097
-144.088
-96.6559
-154.296
250.952
178.047
-204.848
26.8013
-43.1056
34.1589
-306.12
474.636
-168.516
-85.834
-32.977
-186.788
178.182
54.2902
21.1782
-93.0801
71.9019
302.672
12.6805
-315.352
-38.0611
5.54547
32.5156
-101.961
455.635
148.123
147.356
-147.81
313.905
-227.809
162.951
360.32
60.2942
-162.472
-166.935
25.6081
193.563
-245.171
76.4509
-106.861
196.416
-89.5547
4.54061
-48.6945
413.699
-182.394
-407.851
402.741
5.10994
-128.709
495.229
53.908
-107.375
53.4674
68.087
-50.5143
-98.4718
148.986
-168.649
134.806
-48.7661
128.869
16.5589
-145.427
59.9342
-126.143
66.2087
-256.571
135.487
-89.2008
-48.0219
137.223
-267.313
-298.85
115.304
183.547
94.2473
-63.1405
69.2313
-123.307
54.0754
60.152
-192.658
111.178
161.591
-128.677
217.441
-88.7642
-19.3989
-12.4656
31.8645
-99.646
128.281
-28.6345
-372.459
192.581
-195.821
397.85
127.656
-243.616
115.96
233.199
144.886
-378.085
-23.4246
-27.8347
51.2593
329.096
98.5212
306.399
-98.2155
-208.183
-167.886
404.823
-236.937
188.084
-71.0414
325.32
-254.279
327.795
121.563
-449.359
474.541
307.229
137.429
-444.658
266.445
-505.078
181.121
-23.3872
-157.733
-350.502
189.081
161.421
-134.402
-76.8997
211.302
61.0907
25.2898
-86.3805
-56.9128
-89.8846
2.01154
-409.863
-357.646
195.702
72.2473
152.348
-224.596
-377.438
306.396
196.616
145.604
-342.221
-45.4698
119.261
-73.7914
-115.147
-145.672
260.819
569.054
-255.448
44.6477
99.2591
-165.622
-268.589
434.211
-98.868
149.387
-245.213
418.361
-173.148
-375.194
39.4183
335.776
-197.696
-277.869
475.565
-76.5825
-91.9907
-565.563
366.727
198.836
286.014
-160.988
-125.026
-147.84
344.456
-136.767
47.5664
75.7491
-128.605
130.438
41.6419
-141.844
-491.172
250.457
240.715
-186.171
57.992
-247.072
101.549
-271.24
-306.558
-67.1001
-237.222
122.2
-346.065
223.865
-191.335
-169.159
57.7569
111.403
-243.867
-73.4549
-97.0141
-38.0429
135.057
-25.925
-24.6499
50.5749
-342.894
215.47
32.3356
-91.7993
59.4637
137.809
-168.741
180.938
-380.857
199.919
15.1093
-286.364
-161.103
291.556
-130.454
-198.476
248.834
115.092
-106.064
-73.418
179.482
458.937
-468.921
-5.8547
-130.905
282.845
207.811
-490.655
-135.221
-50.9501
-88.1761
242.641
383.46
-397.81
76.3495
-15.2588
431.71
-142.649
-289.061
122.696
156.915
-279.611
79.1377
-58.7798
-96.7762
155.556
217.12
-54.5328
-162.587
335.841
55.1472
202.653
-24.6063
-502.804
174.544
56.0874
-104.703
-104.393
50.6943
53.6984
22.9519
66.6303
-89.5822
-131.241
-76.3137
207.555
30.1617
-128.232
98.0708
-96.5868
33.5437
184.705
-186.919
2.21345
221.909
-279.034
57.1247
-208.553
77.3113
-66.6902
-61.5889
-64.1715
-92.5487
156.72
143.331
216.207
186.302
-212.35
175.353
140.844
-111.846
-28.9982
-410.278
277.645
132.632
234.217
-107.636
325.086
175.811
336.059
124.135
-460.194
-125.701
-139.061
-538.308
252.108
286.2
185.911
-301.513
115.602
124.412
110.513
-111.227
81.4565
-64.0048
113.821
-49.8159
-302.195
-247.204
549.399
-485.201
426.558
58.6431
-254.28
110.385
-99.5588
-466.053
-19.9903
486.043
241.243
273.537
-514.779
-126.934
-164.76
-158.96
-138.314
156.731
-27.8627
-359.602
151.742
0.292024
156.211
-26.5514
-268.462
171.26
97.202
62.0858
55.2579
-138.891
-137.551
276.442
103.375
-82.1972
420.717
-283.542
-137.174
-169.988
341.384
-243.198
-7.79912
456.478
24.9652
-88.4252
-58.2528
146.678
456.152
0.111837
-456.263
-129.689
338.649
-208.96
96.7789
68.9264
-165.705
-403.457
233.466
169.991
-110.326
-103.804
-164.657
109.386
-55.4781
-133.982
309.002
-175.02
152.305
131.999
-284.305
-119.501
-42.9794
-273.721
-201.209
474.93
122.419
476.254
-330.038
-146.217
-128.316
120.113
-78.6743
-41.4388
15.3241
-68.194
208.786
-271.567
286.099
-353.199
-446.831
374.446
168.787
-295.721
222.956
206.586
476.443
-228.35
-221.685
103.236
82.8199
59.3468
-89.6241
93.9492
-70.9973
-278.919
306.775
-27.8562
-294.258
-13.1256
76.4338
-127.762
51.3279
132.86
293.717
-178.413
241.277
-135.699
-105.579
-43.8222
48.3628
-277.416
83.3162
-133.83
280.552
-69.6832
-210.869
-293.518
534.76
488.798
-163.712
-360.088
253.861
106.226
-22.5714
478.723
-204.872
433.189
-85.6177
-182.074
267.691
110.398
-243.515
133.117
20.1779
319.9
-334.379
-247.076
581.455
172.291
-367.849
195.558
-290.512
390.111
-99.5996
-116.855
424.084
327.807
-140.438
152.659
-90.8137
368.266
-277.452
-39.2717
1.21058
-173.898
62.7754
111.122
174.702
157.022
88.1163
-68.2094
-272.363
340.572
-385.791
-78.8335
-130.177
-219.281
-356.958
222.976
-408.376
408.376
64.5057
-314.498
249.992
193.764
-359.479
165.715
194.864
85.6878
47.1363
15.9648
-63.101
207.043
-385.431
287.758
-485.454
236.56
-46.2719
139.666
174.037
69.4829
183.619
-253.102
154.025
-98.2105
-55.8147
-72.8259
-286.588
359.414
104.874
-188.88
84.0065
-65.5576
138.045
-72.4875
327.576
6.73611
-63.0915
68.6744
-261.369
311.611
-50.2419
38.6871
142.434
65.7188
24.9503
-90.6691
-337.147
-38.0468