/*--------------------------------*- C++ -*----------------------------------*\
  =========                 |
  \\      /  F ield         | OpenFOAM: The Open Source CFD Toolbox
   \\    /   O peration     | Website:  https://openfoam.org
    \\  /    A nd           | Version:  7
     \\/     M anipulation  |
\*---------------------------------------------------------------------------*/
FoamFile
{
    version     2.0;
    format      ascii;
    class       volScalarField;
    location    "2";
    object      p;
}
// * * * * * * * * * * * * * * * * * * * * * * * * * * * * * * * * * * * * * //

dimensions      [0 2 -2 0 0 0 0];

internalField   nonuniform List<scalar> 
7724
(
2.00142
0.188538
3.00984
1.98444
-0.012072
-0.000529091
3.01098
-0.0753419
-0.00167688
0.91098
-0.000493935
0.0329749
-0.112174
0.476919
0.944645
-0.13777
2.01703
-0.148007
0.0185195
-0.582671
0.654423
0.0215653
0.36268
1.63953
-0.192826
2.07005
-0.0110243
0.583254
1.40821
0.0392772
-0.199555
4.53691
0.358828
-0.00685398
-0.00146581
0.7535
0.0427841
2.9196
-0.0620203
-0.00476788
-0.0557685
-0.134887
-0.501699
0.158562
-0.00284303
-0.00114126
0.0212907
-0.0623399
-0.00094911
-0.564416
0.0497638
0.55447
-0.243628
0.00409281
0.749279
-0.0668777
0.0208766
-0.0759416
-0.308925
-0.00720155
0.000564479
0.0636817
0.477533
0.0363613
-0.013896
-0.193799
-0.00136299
6.27166e-05
0.946082
-0.0575632
-0.00105312
-0.487518
-0.186199
-0.321502
-0.142477
-0.447325
2.9589
0.639706
0.677497
-0.575147
-0.107774
2.70846
0.905983
-0.331655
-0.0206657
-0.0319414
-0.0806835
-0.236252
-0.00923849
-0.0628304
1.4356
0.180751
-0.00189856
0.0186974
-0.0500652
-0.325791
-0.469118
0.0300006
-0.022755
-0.016634
-0.561212
0.728671
-0.0476297
-0.000281938
0.244633
1.46789
3.89469
-0.0708759
-1.12915e-05
0.348048
1.89334
-0.266306
-2.21792e-05
0.369561
1.46746
0.00639427
-0.211851
1.20805
-0.347112
-0.325147
-0.583023
2.60606
-0.469878
0.14321
-0.569288
-0.0136798
-0.175936
0.0307303
-0.014653
-0.195097
-0.0110436
0.672098
-0.00860193
-0.0109366
-0.343166
1.84224
3.15039
-0.000242332
0.110305
-0.733115
-0.305276
-0.387282
-0.447849
-0.306933
3.94305
-0.11466
1.41701
-0.29197
-0.423938
2.59591
0.721211
0.201566
-0.0208995
0.85936
0.901881
2.72338
-0.503108
-0.111521
3.73128
-0.00085765
0.0103942
1.688
-0.000270807
-0.0282261
-0.0565815
2.04868
2.05909
3.85824
-0.0327063
-0.0430181
7.08321e-05
-0.607323
0.0064132
0.231574
0.11975
-0.41699
0.341805
1.29276
-0.00188118
-0.00708086
2.01566
-0.000856926
-0.0015878
3.02613
0.15611
-0.24876
-0.324897
-0.298456
-0.145756
-0.718721
-0.000294934
-0.450415
1.32954
-0.048029
0.00105594
1.6144
-0.0178491
-0.182534
-0.148226
7.96694e-05
0.0131647
1.87949
1.51518
2.73928
-0.174379
-0.222953
-0.337324
0.633823
1.84721
-0.00305711
0.000495418
3.7116
-0.119268
-0.00895975
-0.430291
-0.1839
2.49966
2.54883
-0.415208
4.30169
-0.0165722
-0.146495
-0.575784
0.761639
-0.610393
1.74894
3.7346
0.000927387
0.149679
1.27601
-0.058409
1.18512
-0.0078174
4.14851
2.67064
-0.0804601
0.0428369
-0.00441423
1.26864
-0.00133936
-0.0844113
-0.67998
-0.00104977
-0.0194584
-0.00617025
1.35935
-0.000269041
-0.0653113
-0.556091
4.51923
0.614
3.98825
-0.000648055
-0.170188
-0.00271568
2.83201
0.0615564
3.17144
0.0237419
0.0111718
0.136136
0.657149
0.0087141
-0.00332898
0.00774762
-0.0614605
-0.231017
-0.000605515
-0.486582
-0.053817
-0.0020638
-0.00936018
3.04344
-0.110772
-0.0113492
4.22289
-0.0215801
1.97773
-0.00302785
0.0269014
0.000112622
-0.314327
0.732905
0.394353
-0.308521
-0.00604523
-0.528003
-0.218795
-0.00262497
0.00761258
-0.0315018
-0.106938
0.0445177
-0.0180675
-0.316659
-0.19236
-0.312959
0.228182
-0.397639
2.64826
2.7329
-0.0221536
0.290515
-0.000109926
-0.0336828
-0.332037
1.60291
0.999724
0.00146089
-0.0306228
-0.387016
1.40905
-0.0147892
0.0542053
0.0184611
0.727086
-0.0728558
2.4926
-0.0238123
0.194534
-0.00168024
0.0640794
-0.000764766
-0.232371
-0.00511669
0.0830908
0.199512
-0.37824
0.0452895
0.134452
-0.010949
0.315413
-0.0926291
0.805459
1.37461
-0.402949
0.0990454
-0.226273
0.0780811
-0.660014
3.95847
0.117245
0.446214
4.20926
-0.0228841
-0.02589
0.143529
-0.016107
-0.0862279
0.0949719
-0.0408523
-0.0304826
1.33572
-0.000986529
0.00841792
0.00119995
-0.050243
-0.0995872
-0.000129661
-0.0164631
-0.295483
3.7069
0.0572374
-0.117744
3.4884
2.30793
0.712917
0.355864
-0.617458
0.0756236
1.97817
-0.158067
2.23195
-0.171907
-0.469009
1.53406
2.23969
-0.465787
0.951672
1.71719
2.05758
0.621453
-0.0452871
-0.0625556
-0.00129799
0.0786797
-0.161509
0.0147055
-0.00158535
-0.0237318
-0.538876
0.921779
-0.239361
-0.0309855
-0.056285
0.161043
-0.102625
0.0289854
1.55105
-0.0278664
-0.00032106
-0.000802198
0.000743183
-0.288289
1.30751
-0.0590568
0.405217
-0.612784
2.87217
0.0519817
0.102505
-0.075975
2.95457
-0.0159162
2.46457
1.44499
-0.00173482
-0.189734
-0.0487873
-0.367341
0.0086931
0.765785
0.0583258
0.0955493
-0.0127715
1.26879
1.4289
-0.287228
-0.291126
-0.0333899
-0.16871
0.838231
4.46387
-0.084482
0.0712676
-1.55462e-05
-0.188253
-0.0334803
0.289047
-0.542078
0.222557
3.06832
1.32215
-0.265967
1.67797
2.89242
0.395808
0.0180623
2.05052
-0.0133104
-0.0027431
-0.243755
0.00131271
-0.379777
0.00639325
-0.291961
0.0287318
1.64498
-0.0263794
-0.000352532
-0.51811
0.0257525
0.530746
-0.538615
-0.709378
0.504797
1.28821
1.07491
1.10347
-0.00306784
0.872154
0.859351
-0.00793771
-0.231003
0.00924005
0.0989903
-0.0112426
0.0710918
-0.0116618
1.23549
-0.000293965
0.00301563
0.0293114
-0.296889
0.304261
-0.278396
-0.353003
-0.226845
-0.599119
0.154118
1.99368
0.276753
-0.0969465
4.1977
-0.457952
-0.105097
-0.345814
-0.0757157
-0.279655
-0.144547
0.412782
0.0823064
-0.000378224
0.362617
-0.00142677
2.65856
0.973529
-0.0707179
-0.194432
-0.00281191
2.71714
2.42396
0.780532
1.31184
-0.472971
3.24944
-0.000919164
0.329248
-0.248146
1.34314
3.86431
0.770203
1.27005
-0.0224013
-0.00304844
1.20923
0.0673402
2.84319
0.538374
1.76862
-0.101541
2.93417
2.32011
-0.128816
-0.109111
1.06851
-0.728293
-0.00124868
-0.180855
-0.694896
-0.466933
0.165592
0.138491
-0.00188417
2.43449
-0.0119677
-0.00152802
-0.153697
-0.0073461
-0.0033347
0.0539835
1.76907
-0.476363
3.61598
0.00093788
1.74443
-0.136425
-0.00112495
0.000269092
1.3966
1.70856
-0.0586502
1.57241
0.000374471
1.6485
-0.408128
-0.134144
3.01713
-0.414813
1.24767
-0.33201
1.63479
1.69092
-0.222889
-0.281604
-0.0814609
-0.0407852
-0.00298803
-0.0143205
2.12746
-0.000396886
1.58806
-0.424392
2.48334
1.51832
-0.712088
3.51309
-0.023158
0.097357
-0.157078
-0.267666
-0.0924516
-0.164954
0.46529
4.08306
0.000634125
-0.0273366
-0.281317
9.25562e-05
2.69414
0.0262599
9.03386e-05
0.00291572
0.00567912
-0.225209
0.284003
-0.0219982
-0.00126711
-0.0977099
0.0439114
-0.619558
-0.656604
0.306744
-0.000321063
-0.52676
-0.175733
1.13144
2.44694
0.0179804
1.16637
0.00229551
-0.169093
0.826849
-0.0923985
1.87891
-0.173167
0.366296
0.857547
1.30131
0.0712406
-0.138479
1.50338
-0.542137
2.88153
-0.124352
2.03438
-0.124034
-0.0165006
1.21419
0.047334
0.833661
0.0276225
7.89262e-05
-0.644959
1.52872
0.0207431
1.10273
-0.16412
-0.568725
0.167994
-0.288718
-0.023653
-0.115719
-0.524393
-0.358782
-0.13034
-0.00210303
3.01889
1.12967
0.405166
-0.0028548
2.3063
6.18477e-05
-0.00262289
1.18716
0.0380032
1.38885
0.575408
0.24282
0.0276965
-0.499316
0.473064
0.0187676
-0.523973
-0.000262085
0.0557781
1.80638
-0.211991
-0.0394799
-0.0485192
-0.0277496
-0.00577707
4.14064
-0.131628
-0.00797916
-8.80361e-05
1.17799
-0.366061
-0.00464337
-0.0388468
1.34626
0.855957
-0.463102
2.14413e-05
1.48093
-0.2052
1.57677
0.22913
0.278792
-0.379795
-0.00135487
0.83716
0.800107
0.623769
-0.371054
2.12476
0.0856744
1.46581
-0.030648
-0.16027
-0.00559111
-0.00945693
-0.00147901
1.35802
1.8639
-0.0209607
0.270201
-0.224034
-0.27168
-0.328619
-0.026416
0.306985
4.03529
0.543259
-0.000759549
0.838749
-0.04963
3.40819
-0.163376
-0.133449
0.0154041
-0.152088
-0.0775109
-0.104117
-0.0415867
0.0232882
0.413741
0.0015662
-0.246424
0.359956
2.59294
-0.443594
1.44269
0.0290469
-0.100251
-0.119915
1.67741
-0.0981242
0.0015624
-0.199262
-0.0702492
0.32747
-0.339924
-0.292202
0.245453
-0.191424
-0.0227369
-0.480578
8.09109e-05
0.534076
-0.427358
1.29697
-0.0295683
0.827028
-0.430118
2.35006
0.14675
-0.391775
-0.106947
3.62401
-0.226815
-0.170857
-0.562838
-0.184588
-0.461597
-0.231063
1.44377
-0.039215
1.93722
0.123706
-0.00553306
-0.0171715
0.75112
4.54001
0.0168868
-0.129221
1.4054
0.000321117
-0.268804
0.370862
0.215742
0.125316
-0.0229758
-0.315256
-0.0395254
0.000418237
-0.394001
1.93877
0.0754601
-0.21657
0.0264893
1.40228
-0.00540646
-0.0176087
-0.0051044
-0.0109705
0.706362
0.0990926
0.0524498
-0.232696
0.000639257
-0.419983
0.146676
-0.465707
-0.161144
0.206337
-0.00302316
-0.162848
-0.545323
0.616626
2.49862
-0.0175943
-0.621935
-0.0666899
0.16488
1.29592
0.00626352
-0.00225161
1.12347
0.521903
0.213764
-0.0420034
-0.0295475
-0.494086
-0.00249239
0.0388472
-0.173708
2.18893
1.94388
-0.0678551
-0.404281
0.101936
0.08068
0.444889
-0.454063
-0.0681003
-8.47534e-06
0.374862
-0.315387
-0.506247
0.0954333
-0.503804
-0.00570492
-0.0422139
1.53335
-0.362775
-5.80267e-05
-0.039824
-0.138025
-0.00236984
-0.0898317
-0.000696802
0.0620481
-0.597578
-0.0935271
-0.000294021
0.000433617
1.03242
-0.312139
2.73831
1.96898
0.316131
-0.00826485
-0.090478
0.00312457
-0.0720883
-0.402889
0.420213
-0.210676
1.90151
0.1298
0.00393791
0.0976848
-0.371835
0.0273368
-0.111279
-0.526113
0.0493441
0.225446
0.619643
0.131773
-0.284102
-0.138347
1.46196
-0.134466
-5.42366e-06
-0.435326
-0.602642
-0.15657
0.067071
0.0106757
0.133192
-0.562141
0.330073
-0.347297
1.1459
-0.175346
0.0894239
0.200055
0.210625
-0.352045
-0.126538
-0.00143187
1.16636
1.58743
0.0808469
1.58525
-0.385826
0.443006
-0.30604
1.53171
0.847657
4.02034
6.1386e-05
0.890797
1.38039
0.151275
-0.0161375
-0.181662
0.302345
0.00060356
-0.181795
-0.354699
-0.19876
-0.219286
0.00187566
0.0134199
-0.0040264
-0.00973405
1.78981
0.073919
0.840434
0.214453
1.57617
0.128607
-0.00429398
-0.228097
0.0911334
2.61579
0.0137368
-0.379581
-0.00241108
-0.00599031
0.0867639
-0.193581
-0.000337058
-0.107359
0.300295
-0.0210826
0.000430037
-0.000497843
1.1967
0.0886201
0.073664
-0.0120834
0.0928576
0.160066
0.093294
-0.00314007
2.46135
-0.150372
1.6587
2.15524
-0.00228804
0.784127
0.960126
-0.00838803
-0.00288357
-0.0046516
0.27007
0.199764
-0.0642696
-0.144063
-0.516414
1.32875
-0.352121
0.000138656
-0.192225
-0.172959
-0.352402
-0.0448782
0.0645603
0.0133607
0.278657
-0.00557812
-0.00250923
-0.169568
-0.0452173
-0.245912
-0.000168282
-0.147241
0.334363
0.114366
-0.00389556
-0.0866826
-0.116929
-0.0913322
-0.0544328
0.131952
-0.0942913
-0.00112218
-0.00429679
0.239039
-0.121204
-0.0517146
0.0898954
0.0389377
-0.647428
-0.110405
1.22423
-0.124191
-0.485473
-0.220399
-0.223523
-0.154651
-0.0392319
0.0241152
-0.0368586
-0.136132
-0.159579
1.48596
1.20633
0.518543
2.43932
-0.000766294
-0.0325809
-0.162024
-0.0811313
0.885863
-0.200411
0.528265
-0.0427254
1.60128
-0.0202428
-0.0169564
0.226613
-0.120106
-0.00235826
-0.179668
-0.0612765
-0.206033
-0.000218525
-0.068792
0.0206129
-0.1732
0.378958
0.337182
0.187776
-0.139054
-0.309075
0.937078
-0.0132902
-0.020512
-0.0220851
3.4579
-0.00090788
0.689422
-0.208912
-0.202198
-0.260553
-0.360878
-0.282338
-0.335493
-0.178184
-0.0479667
-0.00102769
-0.0443662
-0.211334
0.828989
0.0174751
1.26217
-0.323251
-0.131265
-0.00973736
-0.283498
-0.00108555
1.16626
-0.296857
-0.257893
-0.234764
-0.0382128
-0.308572
-0.0177805
-0.400724
0.838868
-0.254441
-0.528231
-0.0153435
-0.266234
-0.182383
0.153502
-0.0337175
1.12182
-0.0251502
-0.187843
-0.00708995
1.25011
-0.383388
-0.260251
-0.0337146
-0.0974737
-0.0287038
1.47808
0.269349
1.54245
-0.0482962
-0.00857512
-0.0132046
-0.0242084
1.3989
-0.581417
-0.0707679
0.00356268
-0.061494
-0.0384311
-0.00936981
-0.0965593
-0.155509
0.508918
-0.0515916
0.0604263
3.33563
-0.601378
-0.285191
-0.560129
0.000364183
0.65566
-0.036889
-0.264512
-0.0582532
-0.350569
0.0481668
-0.00559318
-0.0301101
0.0333261
1.52091
-0.0607038
-0.0185808
-0.048374
-0.481381
-0.0864169
-0.219287
0.0466736
-0.0904168
-0.0926588
-0.0341608
1.53892
-0.454034
0.0327873
-0.0436041
-0.272181
-0.141078
-0.488459
-0.0146319
0.777013
0.229175
-0.0814692
-0.0180092
-0.138786
3.56065
1.5363
-0.115985
-0.00604422
-0.0248605
0.0918272
-0.0414059
0.208101
-0.00430888
-0.122639
-0.0206044
-0.172454
0.133178
-0.0110376
-0.0988649
-0.0141505
2.282
-0.0665026
-0.119465
0.191147
-0.020113
-0.295056
0.778891
3.13785
-0.110628
-0.116997
-0.0220336
-0.00484046
2.0222e-05
-4.35585e-05
-0.104283
-0.00696521
1.01211
-0.00697023
-0.0188971
0.0861133
-0.00269704
-0.435801
-0.416385
0.170739
0.369348
0.25377
0.695451
-0.205557
0.76262
0.604061
0.792524
0.985202
-0.131942
-0.00915366
-0.0572729
-0.466701
-0.0363854
-0.153142
0.604777
2.34065
-0.36556
-0.00501724
-0.000296903
-0.0153367
-2.65899e-06
0.101182
-0.00578968
-0.0453407
-0.46935
0.0056744
0.0271448
-0.00229139
0.653526
-0.157173
-0.063763
-0.0124878
2.31123
2.00486
-0.103381
-0.36036
-0.275579
-0.241248
-0.147105
-0.0194678
-0.520051
-0.210895
-0.398015
0.0828684
-0.000514756
1.47065
-0.0581572
-0.0995098
-0.189532
0.186778
-0.0055375
-0.0863031
-0.0142413
0.144729
-0.0157169
1.34072
0.00366526
0.101675
-0.00430819
-0.0900887
0.0893185
-0.00786453
0.176204
0.00439619
0.517044
0.989913
0.0248946
-0.015022
-0.00129699
-0.00597837
-0.00524775
-0.594455
1.00208
0.449062
-0.00280165
0.101792
-0.00477258
1.7071
-0.579495
1.85772
-0.420922
-0.00468848
-0.00295388
-0.0753681
-0.0580982
-0.00652722
-0.00018887
0.249119
0.280673
-0.00246552
-0.00346856
-0.198449
-0.000230256
1.30656
-0.00971779
-0.512565
-0.191675
-0.0656813
-0.536671
-0.580374
1.19029
-0.079736
-0.202823
-0.00329619
-0.550431
-0.205381
0.380213
0.979485
2.49575
-0.0122155
-0.57625
0.147968
2.21209
0.370804
-0.00123518
-0.0622105
-0.0420077
-0.0511639
-0.465994
0.805093
0.00191948
0.227524
0.0324287
0.73469
-0.00541882
-0.00126483
-0.105417
2.03332
-0.529283
1.19335
-0.0128806
-0.00210583
-2.5856e-05
-0.389543
-0.404397
-0.00352534
0.933396
0.112855
-0.0549805
2.89177
-0.00406797
-0.0380523
-0.561091
-0.0998208
-0.0235907
1.07394
-0.33656
-0.00172286
0.150485
-0.00180618
-0.00103599
1.1303
0.0675716
-0.0047083
-0.502982
-0.244612
-0.0358641
-0.12074
0.0241007
-0.22452
0.016764
-0.0361103
-0.62042
-0.370139
0.242655
-0.00944803
1.2447
1.58386
-0.329174
0.102801
0.188514
-0.0442456
1.30329
0.929862
-0.277875
-0.00168407
0.103238
-0.538387
0.152758
-0.267003
-0.0217326
0.466343
-0.271352
-0.00142029
-0.000749289
-0.139207
-0.229105
-0.256408
0.100306
0.328782
-0.425688
-0.00160204
-0.0142578
-0.00216658
-0.292655
-0.000246703
-0.0199734
-0.272433
-0.505162
1.03658
-0.0307828
0.0428278
-0.207751
-0.251656
-0.00132891
-0.450415
1.01341
1.23471
0.000245713
-0.00115153
1.25785
-0.0259586
-0.521935
-0.391465
0.0341595
0.00492758
-0.675971
0.0310107
1.28773
-0.552214
-0.015243
-0.0768131
-0.477717
-0.00599996
-0.00251147
-0.00939145
0.166502
-0.497436
1.19747
-0.00219191
3.50919
0.294405
0.00122578
-0.00995517
0.00263096
0.0030055
-0.000149134
0.00144392
-0.515343
-0.00744919
0.00444952
-0.00206255
1.11611
-0.0585393
-0.00200807
-0.00044835
2.53245
-0.21251
0.0700865
0.0115715
-0.0074947
0.575485
-0.00100487
-0.110329
-0.211438
0.0219562
-0.0620781
-0.000990607
-0.00215399
-0.296233
-0.387404
0.07297
-0.273222
-0.193077
-0.000288883
0.208238
0.307919
0.889263
-0.0177733
-0.00161912
-0.539209
-0.0624721
-0.00514886
-0.478403
-0.00141869
0.419136
-0.000895453
-0.0131981
0.455684
-0.0211419
-0.566739
3.24599
-0.0167599
0.00286093
-0.491467
-0.414503
0.0956386
0.0479621
-0.00155788
-0.305884
-0.000860568
1.50118
4.28296
0.801152
0.0307041
0.0366534
-0.000193691
-0.269161
-0.000581402
-0.0607756
-0.0175168
0.00386394
-0.0344144
-0.0910938
-0.00126759
0.00881563
-0.0727215
-0.00322879
-0.0931051
-0.163615
0.00346249
-0.0116552
3.82003
-0.00711826
0.0246097
0.00252102
0.138718
-0.483401
0.0977257
-0.00183164
-0.00102451
0.0276676
-0.00112373
-0.000289769
-0.109048
0.0071183
-0.000249523
-0.492689
-0.0222069
-0.550179
-0.0168959
-0.000692344
-0.0319424
-0.031723
-0.144251
-0.188406
0.0231488
0.00543721
-0.00477793
-0.0203966
-0.000804522
2.02065
0.0157526
-0.00020614
0.00599955
-0.0207518
-0.00366834
-0.619186
-0.532189
-0.00132731
-0.0714027
0.000140809
-0.0253776
-0.000746882
0.332922
-0.00144383
-0.00190376
-0.0341154
-0.000234882
0.135424
-0.00234935
-0.0129868
0.1853
0.00012705
2.68421
-0.516038
-0.403699
-0.000256312
-0.000215452
0.0190965
-0.0121964
-0.471316
-0.000175231
-2.41163e-05
0.00752406
-2.9348e-05
0.00390796
0.00457171
-0.00467644
0.00806584
-0.510773
3.33064
-0.283525
2.42163
0.0911858
-0.157138
-0.000193807
-0.00902858
-0.123096
0.00150686
0.00293738
0.00179748
0.691423
-0.0135162
-0.00220505
3.3796
-0.00553518
0.00600431
0.00513891
-4.89654e-05
0.63323
-0.0222479
0.0115548
0.00130666
-0.00539073
-0.000694502
-0.00933476
-0.423391
-0.00425799
-0.01557
-1.51916e-05
0.00134568
-0.00262102
1.47669
-0.00450606
-0.00278352
-0.675857
0.0381817
-0.000861523
-0.0136846
-0.000619372
1.36637
-0.699615
-0.00301532
-0.00395367
-0.01803
-0.00157238
0.538684
0.970758
0.475725
0.0051943
-6.8942e-05
-1.17762e-05
0.582246
0.00263809
-0.591509
-0.178535
-0.155009
0.371456
3.81071
0.0197429
1.53211
-0.143153
-0.284376
1.38006
-0.00363067
-0.635095
-0.000131252
-0.0906954
-0.481794
0.000563613
-0.417815
-0.00971882
0.0139626
-0.0513161
-0.418556
-0.414307
-0.0293974
-0.560861
-0.433532
-0.00190708
-0.119965
-0.000513479
-0.36565
-0.000284128
-0.00189554
0.2559
1.32446
-1.2872e-06
-0.441148
0.036158
0.000768226
-0.197952
6.15513e-05
-0.136196
-0.00262306
-0.377223
0.00134584
-0.000876656
-0.0204566
-0.000458335
1.28884
-0.298039
0.773983
-0.000295183
0.00642325
-0.317603
8.92668e-06
-0.554321
-0.646156
-0.545473
3.55268
-0.0653235
-0.000180177
0.254873
-0.404536
-0.0245303
-0.000240232
-0.000860636
-0.464599
0.00134265
0.00900377
-6.71325e-06
0.00166598
-0.275074
1.06006
-0.300626
0.871657
-0.0538402
-1.34197e-05
0.0683724
-0.431545
-0.0002092
-0.000141492
0.00330145
0.000658495
0.00412872
1.699
0.339199
0.0005751
0.000113979
-0.651803
1.57355
1.41106
-0.000461995
-0.353938
-0.180632
-0.096293
-0.471807
-0.079224
-0.0293117
1.15336
-0.000407535
-0.258847
1.34994
-0.47634
-0.000165622
-0.606194
-0.00177203
2.07913
0.28426
-0.000131257
-0.000274935
1.46947
3.97065e-05
-0.00184584
-0.116239
0.000132537
1.87887
0.0362338
-0.0733867
-0.644012
-0.0378414
-0.573203
1.45638
-0.0684342
0.050317
0.0101432
-0.000194605
-0.0102765
-7.18136e-05
-0.000157237
0.292912
1.44861
1.22101
-0.00442697
1.8647
-0.095152
8.01876e-05
-0.448673
-0.00017158
-0.271766
0.293968
-0.134421
0.0454212
0.0184492
-0.0929906
0.00256631
-0.0167647
0.205517
-0.0289493
-0.000469217
0.000300454
-0.000612821
0.300769
0.000557785
-0.199531
1.96485
-0.059822
0.000515089
-0.0345544
-9.54468e-05
0.857907
-0.00358835
-0.000652237
-0.000852535
-0.000133596
1.64932
-0.00153759
1.8127
-0.5835
0.00117514
-0.479381
-0.00485177
1.27324
3.47858
-0.0141438
2.48509e-05
0.000165193
-0.000212831
1.16479
8.06227e-06
0.0105316
-0.235629
1.73301
6.98e-05
0.00015618
2.91745e-05
0.000252965
-0.2022
1.93399e-05
1.91245
-0.149563
-0.00123046
0.000302767
-0.0206268
-0.286305
1.40939e-05
-0.000560697
1.34819
0.00033861
-0.311805
-0.295031
0.00137383
9.98671e-06
-0.445242
1.32872e-05
1.3266
0.000149591
-0.00443102
0.000120572
-0.00175069
0.793999
3.2535e-05
-0.0163535
8.52138e-05
0.141484
-0.0337898
-0.0635952
0.0108811
1.25033
-0.00268319
-0.000795542
-0.0881666
-0.0852947
-0.00242462
-0.000515055
-0.00890145
0.000408372
1.42425
-0.0974392
3.4721
-7.10964e-06
-0.0761072
-0.00154119
1.12132
0.000575284
-0.251608
0.000239715
-0.0157715
-0.325523
-0.00231094
-0.155147
-0.479761
0.0524276
-8.34076e-05
-0.468762
-0.00332948
-0.0029395
-0.0550764
-0.0987564
0.0129187
-0.000480223
-0.00433606
-0.00891444
-0.0127552
0.000134118
-0.0120661
3.35801
0.000985358
-0.0323092
-0.340666
-0.722708
-0.616594
-0.465645
-0.211932
-0.00519693
-0.121332
0.000772998
-0.00080515
3.40456
-0.00093135
1.44027
-0.00449609
0.00412068
-0.0113202
-0.283568
-0.00415844
0.00825864
-0.000149507
-0.00391117
-0.000146755
-0.000786227
-0.146359
-0.00108448
-0.000261556
-0.000822021
0.00151111
-9.76909e-05
-0.407696
1.74262
-0.0001009
-0.0059831
0.000338535
0.00031056
-0.00833348
9.51756e-05
-0.00902072
0.00292381
-0.00363472
-0.628938
-0.00687593
-0.0181219
5.06225e-05
-0.0148584
0.0034042
-0.000152256
-9.90093e-05
0.000138661
-0.0078941
0.00560194
-0.426616
-0.249453
-0.637566
0.00628052
-0.0173697
0.152682
-0.642381
-0.000937811
0.161019
0.0699408
-0.0103956
-0.116299
-0.552324
3.10793
-0.00421917
-0.000152086
0.0089079
0.00049631
0.000181302
0.648286
0.0378904
0.740761
-0.30769
3.01945
-0.00519259
2.11633e-05
0.00156045
-0.000180617
-0.013541
1.25737
1.69803
-5.32377e-05
-0.00169811
-0.000166921
1.62541
0.216542
-0.0442055
0.000122552
0.000197225
0.0717577
-0.00689545
-0.678566
-0.162643
0.000245571
0.0348455
-0.287079
-0.000592368
0.0179713
-0.000655737
-0.446113
-0.0175502
1.20379
0.000171729
0.0165625
0.00126398
0.000153329
0.00176847
-0.222924
0.000151787
-0.00903877
0.00022905
-0.18865
-0.445441
-0.0279537
-0.0586156
-0.0846127
0.0890661
-0.0854179
-0.0245293
0.000674632
0.00108866
0.000207902
0.000181943
-0.000553356
0.0909449
-0.515283
0.00505674
-0.334589
-0.0303993
-0.416278
0.000877958
-2.03824e-05
0.0129967
0.0467046
0.000185837
-0.345076
-0.138516
0.549838
-0.319876
0.000267764
-0.0336162
0.00198584
-0.229434
1.08763
0.0001183
-0.559991
-0.207107
-0.0412749
0.000383167
-8.68963e-05
0.30575
-0.15999
0.000242937
-0.06626
-3.75553e-05
0.00220124
1.02397
-8.52897e-05
3.80024e-05
-0.00084006
0.000348608
0.00895151
0.000893911
-0.0502529
0.00239174
-0.121981
0.0110158
-0.00207488
-0.28146
-0.40798
-0.0613073
-0.000152293
0.000218529
-0.484207
0.0571104
-0.457441
0.00029395
-0.0504779
-0.000364548
0.000248302
0.682655
-0.0679983
-0.0273451
-5.29351e-06
-0.167055
0.000501545
-0.640921
0.000273075
-0.723656
0.000196671
-6.15525e-05
0.000857116
0.0101416
-0.224763
-0.174385
-0.646887
0.000164328
0.000983298
-0.741147
-0.192086
-0.082112
-4.81282e-05
-0.0609505
-0.456359
-0.756585
3.98119e-05
-7.69567e-05
5.25611e-05
-0.307359
-0.6155
0.00717584
-0.105786
-0.000546292
1.69434
0.000947421
0.000149935
0.00155171
-7.78058e-05
-8.36512e-05
-0.0353887
0.00116921
-0.0250062
-0.584582
-0.124852
-0.571796
0.00040778
-0.000502418
0.519581
-0.301526
-0.0455276
0.93489
5.70417e-05
-0.000131538
-0.000121228
1.05081
0.00178166
1.29804e-05
-4.12034e-05
-0.500772
-0.14771
6.62863e-05
0.000832758
-0.0894099
-0.0618848
0.0042947
1.71341
-0.517487
0.0021835
4.32534
-0.000168582
-0.00676372
-0.0756539
-0.775368
6.77858e-05
-1.45294e-05
0.000218847
0.0479422
-0.275727
-0.00330727
-0.466887
-0.0749811
0.000280444
-4.76544e-05
-0.097695
0.028734
0.135426
-0.112337
-0.441048
-0.372793
0.283884
-0.247902
-0.000616817
0.00360911
0.190414
0.00543636
-0.000759348
0.00762044
0.000316427
-0.000873482
-0.115021
-0.000120207
-0.000271766
0.389887
0.0259514
-0.00158717
-0.000366784
-5.26617e-05
1.85892
-0.0639349
0.00784731
-0.260226
0.00234212
0.00202938
0.00175353
-0.000473065
0.00492773
-0.356479
0.183833
-9.25418e-05
-0.00159673
-0.381554
-0.279253
0.434719
-0.00482718
0.0179608
0.171597
2.21715e-05
0.000617483
-0.389307
0.000224136
1.30808
9.60538e-05
0.0411055
0.00170637
0.00227802
-0.685306
-0.0708105
-0.17117
-0.0235515
0.0002667
0.0675719
0.53807
-0.117799
-0.00131625
0.796127
1.27316
3.6548e-05
-0.499394
-0.000648063
-9.71105e-05
-0.000437312
-0.0055597
0.188664
-4.33692e-05
0.00252152
-0.232651
-0.246782
-0.210532
2.25569
0.000187973
-0.000674747
1.33709
-0.00749337
-0.036805
-0.00640393
1.31412
0.000453935
-0.00306718
0.000475569
0.000284425
0.000315612
0.00036265
0.000736847
-0.171223
8.8201e-05
-0.0319873
-0.432158
1.81359
-0.00138787
-0.000485457
0.0462556
0.720514
-0.37275
-0.00736563
-0.682044
2.24509
0.000431639
2.86462
-4.48284e-05
0.0329937
0.231254
0.00443372
3.07033
-0.000120829
-6.10268e-05
0.0114987
0.000310187
-0.00844821
0.00265438
0.00011903
-0.0191704
0.000120747
-0.00142734
-0.0321655
1.81462
0.489594
0.209227
-0.425797
-5.21405e-05
-0.000170098
0.0339698
-0.455322
-9.40192e-05
-0.453213
-0.000522207
0.864521
0.543289
-0.306345
-0.0132091
-0.1074
-0.00970191
-0.141653
0.0457507
-0.067607
0.573851
2.18801e-05
1.8379
0.481654
-0.00567107
1.61341
-0.129132
-0.000123652
0.000244693
0.000667094
-0.00206857
-0.00118579
1.83278
-0.009616
1.86265
-0.010095
1.30481
1.68647
1.06028
-0.0680846
-4.72117e-05
0.000667582
-0.102216
-0.521756
-0.451058
0.0146537
0.000209997
-0.369939
-0.00304615
0.000100217
0.0100051
-0.0105288
-0.00608343
0.309291
0.000749787
-0.475258
0.539052
0.000579298
0.00274244
-0.128314
-0.509093
-0.00719172
-0.00510108
0.000136323
0.00254287
0.905884
-0.157615
-0.442975
0.0128648
0.935052
-0.371242
0.000362609
0.000231811
0.337628
-0.000853484
0.827056
0.0306392
-0.13025
-0.00374695
0.0160236
-0.337371
-0.000309456
0.005015
0.0753853
-0.721254
1.26323
-0.614971
-0.257685
-0.00160743
-0.00044701
0.0650886
0.000470542
-0.736972
-0.621199
0.00572966
0.03441
0.036818
-0.554956
0.00650559
0.00195711
0.000391842
-0.390311
0.000289597
0.00568091
0.996369
1.40032
-0.545397
0.439923
0.442101
0.309727
-0.0015466
0.126222
0.00123898
8.81253e-05
-0.000696537
-7.49622e-06
0.000267885
-0.00351003
-0.0742351
-0.258463
-0.0949374
-0.259431
0.484686
0.403323
0.0400975
-0.591605
0.0016511
0.0472076
0.11131
-0.00381117
0.68263
-0.0113234
-0.104317
0.121294
0.0534374
0.0112543
-0.0393285
0.418387
0.00818079
-0.191237
-0.158124
3.62253
-0.232784
0.724079
0.378682
-0.327392
0.02133
0.00106197
-0.0254754
0.00059027
-0.0258776
-0.241144
-0.000676469
-0.000431377
2.04586
-0.0320262
-0.407386
-0.182358
0.00203362
-0.012633
-0.00022277
8.17922e-05
0.382222
0.000405332
-0.0288114
0.69459
0.0630814
0.0110399
0.181506
-0.0561995
0.04154
-0.437864
0.00863432
-0.0433585
-0.54061
-0.00838031
-0.0789682
0.0075138
0.0144336
0.00975632
0.375902
-0.00307887
0.0557558
-0.533854
-0.197489
0.00313678
-0.534674
-0.145959
-0.167205
0.00106972
0.0646916
-0.580763
-0.00826959
-0.0469347
-0.498926
0.00673999
-0.01152
1.69087
-0.185274
-0.000413044
0.0800731
-0.459111
-0.0103507
1.50898
-0.0196712
0.0100286
0.518949
-0.0141008
0.0824323
1.03907
0.000656079
0.011507
0.00181001
0.000392744
-0.0432902
-0.0646837
-0.00126833
-0.235034
0.856082
-0.367102
-0.602309
0.0114808
-0.0319165
-0.00583968
-0.243131
0.000287952
0.179083
0.000479661
-0.153423
-0.019186
-0.0478621
0.351043
1.01218
-0.629698
-0.000513184
1.55088
-0.0184909
-0.0220688
-0.589706
-0.647175
-0.150281
-0.000293126
-0.01046
0.0708984
-0.0301282
-0.0462634
0.00434298
0.757982
-0.381818
-0.108583
-0.0649978
0.273343
-0.0155977
-0.00349409
0.0166219
-0.000208103
-0.0302525
0.986117
0.00786216
-0.477473
-0.00055238
-0.0716123
-0.0313661
-0.669814
-0.111419
-0.713375
-0.000622595
-0.000601749
-0.0281446
0.105178
0.0186115
-0.717105
0.791192
-0.464093
0.00191093
-0.715352
0.000118502
-0.693684
-0.246557
-0.560777
-0.490387
-0.395601
-0.1597
0.236823
0.381764
0.518039
0.660167
0.802468
1.24403
1.39109
1.55031
1.86394
-0.0785125
-0.0707632
0.638856
-0.140584
0.00892549
0.192423
-0.390996
0.00529422
-0.00616575
-2.99611e-05
-0.135822
0.170682
0.000446693
-0.0029978
-0.101568
-0.0165252
-0.626854
-0.100186
-0.540264
-1.39454e-05
0.00570839
-0.000518888
-0.388782
-0.0837966
-0.345077
-0.0794024
0.0169657
0.00226726
0.0461861
-0.000321042
-0.0169355
-0.000126596
0.00376823
-0.0431804
-0.110475
-0.00224051
0.00329951
0.438403
-0.099027
0.625572
-0.669387
-0.0596835
1.09402
-0.181856
0.0367525
-0.206584
-0.0316017
-0.119866
-0.114109
2.46358
-0.0117825
0.000708927
-0.0560566
-0.0841451
3.16423e-05
0.695289
-0.0378635
2.30972
0.0945699
-0.444063
-0.258796
0.473
-0.0429294
-0.000476989
-7.56179e-05
-0.0405964
-0.478069
0.000579929
2.49618
-0.0268815
-0.047214
-0.000773095
-0.00370662
-0.0559579
0.946913
-0.00772768
0.993534
0.00647921
-0.1381
-6.44297e-05
0.255288
-0.0707392
0.18558
-0.0537732
-0.0527378
-0.00654057
0.0128339
0.116031
-0.000120414
-0.0874117
0.0055212
-0.00382363
0.00464958
-0.0844849
0.00226256
1.16701
-0.102417
0.0378289
-0.256674
0.45175
-0.324903
-0.105696
0.414239
-0.176598
1.41174
0.0943184
-0.0330695
-0.484971
-0.00652243
-0.000464921
0.00441356
0.000911333
-0.0204575
0.0431599
0.000882569
-0.125496
0.207664
-0.0299473
0.00042701
-0.0320394
-0.40927
1.20546
-0.31109
-0.44671
0.0794044
0.730605
-0.0121585
0.59617
-0.113359
0.0512207
0.338093
-0.551895
0.909279
-0.00051178
-0.277806
0.0113255
-0.0146235
-0.000109978
-0.0581393
0.918106
0.0087891
1.78993
-0.199998
0.230009
-0.15246
0.00142226
-0.013563
0.581299
-0.357016
1.75412
0.353032
0.230909
1.36163
-0.401397
-0.0413377
-0.606168
0.00709216
-0.326156
1.24083
-0.0277848
2.04507
-0.0130101
0.776838
0.00100012
0.844286
1.08357
0.0262337
-0.190255
-0.00359578
-5.73569e-05
0.0512603
0.0207464
-0.375606
-0.342585
-0.0545884
-0.389379
1.29562
0.48572
-0.345782
-0.14741
0.000117362
0.0410151
1.62935
0.0448403
1.30302
-0.560499
0.0518088
0.000850914
0.00382834
-0.19656
-0.0109228
-0.0248755
-0.31125
-0.00596211
0.0339686
-0.29482
-0.376816
1.59105
-3.17666e-05
-0.171091
0.00182989
-0.243662
-0.00341773
-0.528874
1.01945
-0.325013
-0.223086
-0.0138968
-0.144626
-0.00641407
-0.0499467
0.705518
-0.257177
-0.000178402
-0.0654283
-0.0359856
-0.00349522
-0.0226297
0.117084
-0.102029
-0.32367
-0.000378325
1.21216
-0.243451
0.0672375
-0.00356624
-0.0754769
-0.00354056
-0.00157906
0.00287567
-0.226414
-0.000990704
-0.358414
0.0273782
-0.000118679
-0.100237
0.00300435
-0.0886566
0.0129629
1.33457
0.0118618
-0.090158
-0.0859604
0.0383061
1.0214
-0.139381
-0.150556
-0.143191
0.00325946
0.995755
0.438313
0.0125325
0.00118418
0.481156
-0.420587
0.0259232
-0.250007
0.0139685
0.00365753
0.28444
-0.261541
-0.124375
-0.107055
2.18376
0.252238
-0.0357829
0.307356
-0.00417154
0.000257825
0.0169967
0.0300421
1.1542
-0.0325389
0.198414
0.00100961
3.32632
3.09116
-0.0144567
1.52959
4.15625
-0.279159
0.000181569
0.998288
1.10195
-0.0353163
-0.222551
0.00177641
6.54938e-05
1.14985