/*--------------------------------*- C++ -*----------------------------------*\
  =========                 |
  \\      /  F ield         | OpenFOAM: The Open Source CFD Toolbox
   \\    /   O peration     | Website:  https://openfoam.org
    \\  /    A nd           | Version:  7
     \\/     M anipulation  |
\*---------------------------------------------------------------------------*/
FoamFile
{
    version     2.0;
    format      ascii;
    class       volScalarField;
    location    "3.5";
    object      p;
}
// * * * * * * * * * * * * * * * * * * * * * * * * * * * * * * * * * * * * * //

dimensions      [0 2 -2 0 0 0 0];

internalField   nonuniform List<scalar> 
19930
(
-0.0170147
-0.0957642
0.11677
0.000166467
0.000184442
-0.0019866
-0.140463
2.20541
-0.062487
2.15094
-0.0772575
1.52212
-0.0895669
-0.0160557
-0.0172485
0.000159765
0.607123
1.42005
-0.138255
-0.0924069
-0.037707
1.55372
2.15733
-0.030785
0.108735
3.54261
0.0379052
-0.0628731
0.0426217
-0.133035
-0.00526883
4.18508
2.01454
-0.045394
-0.000126685
-0.00506253
2.37604
-0.000384867
0.0584164
1.26184
0.195574
2.3973
2.92498
0.033718
3.54248
-0.237912
1.95679
1.02559
-0.000962458
-0.125164
-0.000576972
0.431275
0.290621
0.000753706
0.284715
-0.202357
-0.0964515
-0.00588766
0.00929278
0.634664
3.78925
-0.176757
-0.0458419
2.00679
-0.00245533
-0.0198674
3.48208
-0.0222332
0.391959
3.48689
0.151234
0.475111
-0.0156774
-0.0817563
3.51854
0.19412
3.46339
-0.23841
1.24439
3.2666
-0.0162005
0.00813482
0.019871
-0.0525142
-0.177576
2.94384
-0.0746528
4.51105
2.01548
3.70446
1.83548
0.000580611
4.84923e-05
4.43976
0.973311
-0.0431278
4.48237
-0.00310002
-0.0479553
2.38672
3.74176
-0.0985236
3.82586
0.345143
0.717212
0.300929
3.22351
0.424668
-0.136312
3.05799
0.0341089
-0.150636
-0.094666
0.145607
0.224903
2.68001e-05
2.83645
-0.0142327
0.278599
3.22024
0.000517573
-0.00638787
1.39855
0.000550179
-0.0453647
1.43708
1.79976
-0.0611502
4.23545
2.89395
-0.0856892
-0.125046
0.194505
0.0551657
3.26097
0.659309
1.19428
-0.0292278
-0.0771238
-0.113251
-0.0265828
-0.0894324
0.423912
3.86462
0.891178
3.28577
2.05607
-0.126371
1.70928
0.0428115
-0.128558
3.45776
0.000105792
-0.0475696
0.00794776
2.08969
2.99639
-0.0346701
-0.21711
-0.0955437
0.244196
-0.114819
-0.00600601
0.936723
1.045
4.47731
-0.0931532
0.00119009
0.172262
2.35123
1.16574
3.5816
2.89253
-0.0544765
4.70003
1.97196
-0.0147223
3.74386
0.255918
3.15046
3.34428
-0.000294861
3.87528
2.87268
-0.0875625
-0.237259
0.15544
2.29792
0.316918
4.19189
1.80227
0.62098
2.44092
0.428456
-0.214168
1.42388
3.86026
0.867895
-0.0855378
4.23763
1.13106
0.38227
0.329512
4.11677
3.95076
-0.143357
-0.0213214
0.43873
-0.199608
-0.00805963
3.45669
3.69894
-0.128126
-0.180413
3.11876
3.51677
-0.0291657
3.21925
0.458236
0.0608388
-0.0261092
3.04272
3.97141
1.85967
3.03587
-0.0825769
-0.0120795
7.42894e-05
-0.0229461
0.000275902
1.37777
0.224357
3.19162
-0.10289
3.01841
-0.0674163
0.294951
3.5535
4.52891
3.01366
3.43301
-0.185217
2.4192
0.00813433
0.77639
-0.0146833
0.294862
0.627613
0.457325
-0.000853729
-0.133205
4.01335
1.44071
0.0538507
-0.141329
0.230092
-0.0943816
2.44692
-0.105039
-0.231951
-0.065143
-0.039387
-0.00320538
-0.0688655
-0.103239
3.86622
0.829066
-0.0873716
3.05103
3.93132
-0.0733595
0.00199757
-0.0550399
3.47616
0.173728
3.77312
1.23383e-05
-0.176193
3.01492
3.42362
0.0509054
-0.0896863
4.13657
0.463301
0.610352
3.78854
4.1668
-0.0803534
3.03798
1.03204
3.2355
2.68725
0.00201814
0.81011
2.40548
-0.0160068
-0.121374
0.944878
-0.0150976
1.10892
0.769788
0.000159492
-0.00236797
3.70367
0.000770833
-0.128265
-0.089662
1.56714
-0.158274
3.1401
1.06126
-0.074907
-0.244926
2.27863
1.489
0.000101297
3.71059
2.91267
3.69718
0.327348
-0.00262845
4.11757
-0.0131781
-0.0571423
1.4348
0.889146
-0.103468
0.415118
3.01341
4.41718
3.35564
1.23166
4.72796
0.000150597
-0.0479115
3.43091
0.144558
2.39548
-0.0737766
3.50835
0.988775
-1.6029e-05
0.964782
2.81922
0.086299
3.90972
2.80333
-0.0021935
0.157626
2.02965
1.49356
-0.0272755
2.87309
0.0195863
4.607
-0.0360311
-0.13029
-0.124438
3.34296
2.85281
-0.17555
2.27182
3.70216
0.00103409
2.68741
2.92555
4.69418
-0.0111358
1.65903
0.591645
-0.211027
-0.001284
3.55395
2.39327
0.770725
3.60042
1.29256
-0.102329
2.37461
1.06215
1.46008
4.60397
-0.00240489
1.33996
3.68394
-0.147141
0.894836
-0.0319244
1.98752
-0.165079
1.88384
0.801762
1.30264
0.00405844
1.97841
3.66037
2.73504
0.014
-0.0335392
4.0796
4.14646
-0.0125604
-0.16902
3.21518
-0.123212
0.258091
2.4523
-0.128701
4.81847
0.0735722
1.76648
-0.0387384
3.68584
2.7603
0.472882
0.272467
0.647209
1.16088
-0.0024736
3.22037
0.484255
2.07844
4.56949
0.337408
0.196638
-0.00126686
1.05012
0.817495
-0.0994924
2.58624
-0.000152806
-0.11732
0.0567112
0.497363
-0.0622527
-0.000920533
-0.0826218
1.37786
0.0532149
0.122783
-0.150124
0.970738
0.802358
-0.122615
-0.240852
0.00274603
0.391925
-0.114844
0.0484515
0.071174
1.50591
2.70657
0.974555
-0.00234923
4.20947
0.0490553
-0.000423809
0.180587
-0.155655
-0.0554516
3.92127
0.0560893
1.04995
-0.0877544
-0.102744
2.40992
-0.0505103
-0.0955284
-0.110659
-0.00119392
0.381229
4.30205
-0.0728586
-0.170364
2.57865
-0.098468
2.67464
1.70424
-0.0151786
-0.0075394
2.94128
4.5051
-0.10575
1.98249
1.32799
-0.145271
-0.146813
3.20607
0.647944
0.0462271
-0.00512615
-0.187029
0.304714
4.10642
1.26168
0.00032207
3.83753
0.0919655
-0.0540847
2.96815
0.0647268
-0.0414308
-0.0022086
0.503585
-0.140411
6.14628e-05
1.95876
0.201263
3.24253
-0.00300816
0.000112986
-0.104416
8.84554e-07
-0.119577
0.0763951
-0.00215822
-0.0333125
-0.231579
2.94336
3.62687
-0.0131523
0.0114622
-0.109944
3.6622
0.0020953
3.6956
-0.0738519
4.62697
2.7594
1.79598
4.39959
0.533032
-0.0406647
0.591081
0.0191049
3.58643
3.1914
-0.123078
0.319977
0.790703
0.167812
-0.040266
0.262014
6.44232e-05
2.9705
-0.240187
-0.0780518
-0.0285143
-0.0166676
1.77744
1.02213
-0.0245119
0.0720827
-0.000129398
4.63466
4.06473
-0.0214467
-0.111753
0.130529
3.17801
-0.230341
1.32638
-0.162509
3.40063
1.78887
-0.144403
4.79459
0.269093
3.31409
-0.0324353
-0.128315
3.89865
0.0345953
4.53295
3.09076
4.68095
-0.0382185
-0.0624454
0.00162091
0.679747
0.0586838
0.0182094
3.33529
3.43053
2.72935
3.62679
4.46741
2.02605
3.65738
2.74016
0.0162658
2.98557
-0.0998127
-0.156166
-0.00504079
0.144274
0.0585785
2.28498
0.532617
3.26523
0.0033499
0.921769
3.14136
0.0236199
0.248263
-0.000114759
0.0012499
2.28166
-0.0820174
-0.133022
0.00143026
4.6408e-05
0.740005
-0.00220967
0.952836
4.67019
2.03759
2.0514
-0.144688
3.1427
1.0984
0.00662789
-0.109217
-0.0110982
-0.00237161
0.00637474
-0.0269318
-0.0869981
2.29399
0.660285
-0.235253
-6.09589e-05
3.39196
0.658549
0.418977
0.0431607
1.20999
0.125998
-0.234444
3.14859
4.33737
2.77867
-0.167072
2.82054
-0.157836
-0.0836262
2.16181
0.000316044
-0.0540128
1.68812
2.02246
-0.139644
3.12975
3.93796
3.06568
-0.162758
-0.234943
0.149634
1.0948
2.92758
-0.019213
3.85959
-0.05853
-0.116203
0.632885
4.25568
2.29698
3.23135
0.100877
4.57036
-0.133416
-0.077268
4.74471
0.424975
-0.0557327
3.27755
3.40965
-0.109915
2.89593
3.66179
3.38781
3.06248
3.32545
2.7453
-0.0584349
-0.129418
0.0098592
-0.115892
3.65114
-0.11056
1.52714
1.55057
-0.135046
0.977249
1.67452
3.72988
0.975163
-0.00193708
0.331597
-0.0899208
0.475166
0.452977
-0.118997
3.03506
3.77586
0.7976
3.7005
4.52737
-0.0213065
0.0129855
-0.0152531
-0.116889
2.47494
4.64353
1.29408
3.13781
-0.0813416
2.68642
2.7448
0.239796
-0.180011
-0.226613
1.51115
0.024656
0.698833
-0.137701
-0.202867
3.21276
-0.033765
0.061749
3.40667
0.949907
4.1448
-0.0311398
2.70663
0.440659
-0.0642739
3.84252
4.29715
3.64266
-0.0405947
4.27298
-0.153502
3.76415
0.477799
3.60476
-0.0982396
7.70585e-05
3.62081
3.78606
3.74604
3.63105
2.28932
0.93011
2.57314
-0.0567794
3.63879
3.11383
0.664932
0.551029
-0.0561209
0.541328
3.14085
-0.196341
-0.171028
3.74842
3.66315
-0.0794177
3.55763
-0.131722
1.19595
-0.0791066
3.72577
3.79363
4.54688
3.70238
-0.0183857
-0.0820979
-0.00570512
-0.0821754
4.13035
1.95043
3.06162
-0.200208
2.75052
0.144347
4.14007
0.186366
3.71732
-0.0724905
4.04044
4.2251
-0.0891524
1.26699
4.02443
-0.0189528
4.34404
0.114941
-0.0235863
-0.184633
3.32754
1.67331
-0.0889293
3.5519
4.2879
2.73759
0.286922
-0.0608483
0.541315
3.64775
4.24756
4.66227
1.90814
-0.00102664
-0.181708
3.11758
0.00607419
-0.0655692
0.0095262
-0.0380855
0.0173181
0.149864
3.88341
0.0489825
-0.0042501
3.03962
1.83503
0.00385542
1.39014
0.00678145
1.64858
3.08461
3.58865
0.0962868
1.37583
-0.0290683
0.275235
-0.020387
3.68562
3.9048
0.138675
0.0813574
0.0323181
0.0298009
3.58777
0.0585003
0.0955687
-0.0583422
0.311853
4.44182
-0.0110521
0.852958
3.74361
-0.042127
1.1073
0.086008
-0.0224701
-0.0196561
-0.00163476
4.40679
2.66174
0.110859
0.66834
2.7278
3.51157
3.09292
0.401955
-0.0998406
-0.0513387
-0.0830905
2.954
-0.151693
-0.0453125
-0.000953776
-0.122403
-0.00963643
0.0371319
3.373
-0.0403085
3.66324
3.58454
-0.154459
-0.0690852
4.50833
2.78563
0.712051
-0.0754184
2.67697
-0.0584528
2.45431
4.41318
2.35606
-0.139666
-0.0818553
3.31587
-0.132513
-0.0776816
-0.0523499
3.96493
-0.102975
0.631154
2.62294
2.07313
3.03629
0.0543493
2.26537
0.0255694
3.72332
-0.0691492
1.61065
-0.00278166
-0.0288047
-0.00477212
-0.0105602
0.00396309
3.9704
-0.0421909
2.64232
1.15868
0.206454
0.0153049
1.99869
4.60026
4.062
0.13817
1.87789
0.110861
1.02499
-0.164253
1.52985
-0.180932
0.00393426
2.92598
-0.0935434
0.0650723
3.94025
3.21229
3.74077
0.296716
0.498661
-0.0489042
1.96091
0.341144
0.000505928
4.07843
1.28411
1.80506
0.718931
-0.000852132
-0.0249442
0.00717929
1.73377
0.000779974
-0.0536885
0.0553674
-0.0776633
4.14995
-3.52576e-05
-0.0714904
-0.219332
4.35613
0.0967265
-2.1023e-05
0.0760863
1.37325
2.97695
-0.0757497
-0.0623347
0.0129991
3.0644
-0.075147
1.86829
0.181227
0.121231
1.10746
2.86663
1.00494
1.84866
-0.0217637
3.18737
4.26611
-0.0725018
2.52296
-0.0920386
4.35491
4.20091
0.0257656
1.04936
0.946247
2.61448
-0.000126971
3.62968
4.7108
-0.0361489
1.53047
2.11149
0.00263138
0.00298459
-0.0903977
4.579
-0.0142394
-0.0588104
3.62356
0.0127947
2.56196
3.73347
-0.0957671
4.03112
-0.110916
-0.0687675
3.75213
1.92304
3.03336
-0.0235366
3.74121
1.72494
3.5922
-0.104639
-0.0130055
1.54552
4.06086
3.76528
4.09239
3.67529
0.508408
-0.174916
0.761139
2.75841
3.60557
4.29222
-0.131524
2.24014
4.44996
3.37983
0.00297899
-0.192903
-0.102346
1.46947
0.272808
4.00072
1.9959
3.59463
1.15227
0.313324
3.61766
0.562519
2.84153
0.0928979
0.94349
-0.00756136
0.0729769
-0.0805914
4.31543
-0.0808642
-0.0910505
0.485023
1.73886
1.05636
-0.0960925
0.776366
0.197159
-0.0480324
2.92085
1.75336
3.18008
0.175069
3.80449
0.00375944
0.00174957
-0.0223091
0.0957276
0.0683774
0.114803
0.029355
2.16543
4.09683
1.59941
0.894981
0.0513003
-0.0786256
2.48173
0.0806511
4.38892
2.21722
0.0584689
-0.102713
0.493089
0.13057
-0.0416737
0.0392909
0.346865
-0.0308936
2.11958
4.19836
3.84707
1.93379
-0.031245
-0.117772
-0.0136975
-0.0355174
2.99101
-0.0761618
2.85943
-0.00640884
-0.0622142
4.11692
4.20107
0.0024513
3.64715
3.81621
1.40828
0.0850457
1.66944
2.97719
4.1935
2.50046
0.0640307
4.10745
0.990834
-0.0111706
-0.0375802
0.0619678
4.28042
0.106943
3.70798
2.27087
4.03916
0.230527
2.64261
2.6593
0.00625227
3.77269
0.501723
3.99101
0.00266298
2.41876
2.8652
2.78948
0.00486907
0.693228
-0.0127094
-0.12563
2.33129
-0.0642286
2.629
2.46384
4.55467
0.224035
4.00724
0.170654
0.151578
0.881911
3.63414
1.20724
0.549127
0.86893
3.1148
0.0109925
4.49116
0.0190573
0.424665
1.11855
-0.121857
3.70002
-0.0109305
3.86972
3.1193
1.41116
0.689517
1.56418
0.000715508
0.614406
3.93999
-0.0853757
0.41511
2.31786
1.02842
0.41845
0.712795
-0.0761567
4.18276
-0.109473
0.859045
0.435597
-0.187186
3.57631
4.62594
-0.15199
-0.0846569
0.0417938
1.06853
0.00358527
1.37527
4.21628
4.05177
0.169307
1.61679
0.000292577
-0.158956
3.21528
0.0747645
1.94994
-0.118248
4.44093
3.11291
-0.0816427
0.0814155
-0.0264036
4.47808
-0.12412
-0.00692555
-0.119837
1.43258
-0.0161084
-0.117461
1.28566
4.22244
-0.0884615
4.35135
4.66867
-0.0728297
0.386457
0.00219503
-0.0254773
0.200087
-0.0680548
4.44817
-0.0981801
-0.037699
2.88259
-0.0879011
3.12108
-0.0590304
0.660209
3.02943
2.91854
-0.107184
-0.0295344
-0.0887574
3.43298
-0.123103
2.08419
-0.141557
-0.0430613
-0.15156
0.00121507
-0.0177855
-0.072134
-0.0434772
0.39483
0.0752966
1.2852
-0.0146037
-0.136377
-0.0593675
-0.0951786
0.0458787
4.14324
0.593869
-0.0606505
0.0453488
3.35436
-0.0143993
2.96123
0.37567
0.900021
-0.0699556
3.10122
2.11245
-0.173117
0.014921
-0.0110831
2.52253
-0.000144366
2.90186
3.36589
0.0482294
0.242594
1.34542
1.22856
-0.0192245
1.46421
3.18556
-0.108487
2.77922
-0.167865
0.262081
2.67987
4.19373
0.543315
0.0225333
3.56723
2.64766
-0.121108
-0.0946892
-0.107092
0.242947
-0.119178
-0.0472366
3.33348
0.00973841
0.178955
3.30558
0.113509
-0.105061
2.02349
-0.0297387
1.57397
2.87
0.524163
2.81353
-0.0561153
4.10291
0.0424849
-0.000402907
-0.000548488
0.79975
0.00130017
-0.0691601
1.59192
0.178829
0.0113649
-0.0498597
-0.0760354
1.88984
3.70967
-0.005595
-0.0856373
0.132134
2.66151
-0.117103
-0.082595
-0.129625
0.894812
2.0719
-0.0223803
-0.0663477
0.378991
3.08806
3.27562
1.41382
2.93356
3.7841
0.0070206
2.7134
1.23622
0.561376
-0.111255
0.374037
4.74466
0.0628792
0.0732488
-0.171844
3.03831
-0.0809441
0.000302859
-0.149798
-0.171624
-0.0289374
3.7186
2.21926
2.71105
3.35686
2.95479
-0.115287
1.4914
2.43304
0.798621
3.62293
1.81759
2.26515
-9.67528e-05
2.4467
-0.0517232
1.74787
2.37032
-0.0802387
1.03492
0.998059
-0.088764
-0.0545732
0.879126
1.6766
4.26944
1.75951
-8.21267e-05
2.21984
-0.090674
2.36083
1.92238
-0.0876111
-0.102539
2.61433
3.62671
1.31214
-0.231061
-0.13961
1.79302
2.78175
-0.168578
3.27817
-0.128182
1.54826
0.456932
4.00033
-0.00497238
0.0102725
-0.0310828
-0.149363
0.345025
-0.129957
2.74556
3.27855
0.0551809
2.10484
0.062956
-0.0942464
-5.01492e-05
1.87972
-0.00911614
2.10377
-0.000285511
2.83602
-0.213147
3.22203
0.362939
3.47448
-0.182338
-0.0738178
-0.00635567
3.6714
-0.140649
1.0507
1.4716
0.0784
3.18404
-0.0758803
0.0653008
-0.158694
-0.0328662
3.74132
-0.0335473
-0.143622
-0.101846
-0.0001731
-0.109229
3.26295
0.00452542
-0.207428
0.0107765
-0.0108576
3.02462
0.384835
0.884401
0.0321304
0.00450866
-0.00847338
0.57469
-0.167307
0.0101785
-0.0827132
2.00606
0.000558437
-0.151188
0.535199
1.48743
3.55275
-0.125057
0.0383168
-0.228291
-0.0323571
2.88714
3.25908
3.78736
-0.000378412
1.73427
-0.156316
-0.155451
2.19725
-0.0895271
-0.0891893
-0.114952
-0.0321431
-0.122972
-0.11235
-0.103014
0.0128403
0.172922
2.81624
0.0888571
2.20974
0.848183
0.606063
1.85217
1.32129
2.50443
0.329783
2.65912
0.00208358
-0.0352343
2.49569
-0.177371
2.98552
2.85578
-0.0952641
-0.202892
0.0010046
-0.175415
0.737186
-0.135084
-0.141256
-0.143767
-0.124541
-0.2083
-0.11607
-0.104188
-0.0530528
-0.217428
2.50432
-0.195455
-0.0246823
-0.217379
0.0169898
-0.221059
3.2494
3.16102
1.83675
3.90254
0.0501418
0.309172
-0.172393
0.0155173
-0.0205604
-0.00142678
-0.000141692
1.78154
1.29278
-0.00169602
0.11126
1.14176
1.8104
-0.0928249
-0.14604
0.0576837
-0.0222593
0.0111574
-0.00106953
-0.214651
-0.0351454
4.15603
0.0196253
-0.027505
-0.132866
-0.129319
-0.110582
-0.170166
0.00369955
-0.110079
-0.0888497
-0.20149
-0.0755647
1.12951
-0.115165
2.09344
-0.182456
-0.0261297
0.351394
2.96954
3.08539
2.40733
0.216304
0.132104
0.0594965
0.216896
-0.118992
0.185196
-0.192625
0.15665
-0.0672261
-0.00835166
-0.000310493
0.813561
-0.0555836
-0.00687054
0.0394093
4.27426
-0.131226
-0.025733
4.03948
4.17857
-0.157679
4.11496
3.89062
2.94818
0.00219701
0.205327
4.20423
-0.00895024
-0.00468374
0.0239267
-0.1517
-0.0651129
0.145483
-0.14209
-0.188584
-0.19683
0.00422403
-0.00273324
-0.089776
-0.0683078
4.54811
-0.169427
-0.124843
4.5634
-0.0418445
4.39148
4.05323
2.82268
-0.135366
4.52364
1.03248
3.42548
0.186061
-0.000384169
0.0052131
0.0603628
0.627778
3.67693
-0.02218
0.00227478
-0.160695
-0.00212197
0.0900783
1.78935
-0.00187899
2.94869
-0.0813294
-0.0353263
-0.159344
-0.141769
1.45234
-0.0439775
4.10553
0.0108676
3.82294
0.0668616
-0.164403
-0.000566675
-0.244357
-0.020118
-0.22787
3.38957
3.6141
-0.0005086
4.14987
-0.142599
0.00496106
-0.02597
3.84513
-0.0242308
-0.00818406
-0.00398884
0.0059804
0.00193224
-0.00204883
-0.0076416
4.24823
-0.00460004
-0.0254036
0.051805
4.35223
4.68881
-0.055973
-0.164496
3.01235
4.58074
-0.150271
-0.168728
-0.000429553
0.28683
3.78397
2.96443
0.00464675
-0.140109
-0.173428
3.91047
-0.0989305
-0.0749421
-0.0842137
-0.0842515
0.00849396
3.15196
-0.00169447
3.97853
-0.0267295
4.28482
-0.00921035
4.03893
-0.12947
0.829139
-0.0375291
-0.000313677
0.005909
-0.0617949
-0.119827
-0.0303433
0.00293363
0.016015
-0.0286776
-0.160992
0.00283277
-0.11232
-0.106958
0.0104057
1.01828
-0.000541147
2.94749
-0.176319
0.00147614
0.0242299
-0.0414429
4.41906
-0.0977656
-0.0690119
-0.0685306
-0.197008
-0.152282
2.79759
3.12073
0.0554662
-0.119478
0.199883
1.15041
3.95997
-0.211156
2.78804
3.25999
-0.000574668
-0.178136
-0.163126
0.0114096
-0.00876146
-0.00933496
0.00837876
-0.0645978
-0.0592877
0.0871855
-0.0671983
0.197992
1.84706
0.0563304
2.92984
1.23635
-0.108122
-0.000410637
0.00517779
3.656
-0.00907761
-0.185472
-0.00791368
-0.206368
-0.0944291
2.36431
0.71633
4.22776
0.00177847
0.00405415
-0.196146
1.98164
0.0302574
4.01967
1.25326
-0.168975
-0.114203
-0.0615024
0.128919
2.75939
0.462798
3.73383
-0.216769
-0.00233708
-0.0181309
-0.0890586
0.00101818
-0.00540602
-0.0319656
-0.0790966
0.0760139
-0.193797
-0.00134439
-0.195846
-0.0452463
-4.11984e-05
-0.00178211
0.0300678
0.00414612
-0.00328539
-0.0211659
0.343689
0.00690904
0.683039
-0.106396
3.00953
-0.170624
-0.0628604
-0.000357619
-0.0652811
-0.152312
0.0309141
-0.0552505
-0.000154087
-0.0493817
-0.00187803
-0.0249245
0.786378
1.26479
-0.11923
0.00170723
0.606296
0.0525367
3.18753
2.46967
2.93591
-0.0185433
-0.0390749
-0.00603123
-0.0583661
3.77845
2.84072
-0.0174695
-0.0154267
2.14309
2.85806
4.1816
0.000762771
-0.0304659
-0.0670966
-0.000521434
0.0005926
-0.00144125
0.00670909
-0.0176447
3.00021
0.0164564
0.000127772
0.0703181
0.00595894
0.749319
0.0433299
2.05214
0.00775001
1.41174
-0.16061
-0.222041
1.57946
1.33711
0.0013722
1.62097
3.95744
-0.185718
3.09443
-0.230286
-0.0527952
3.33903
-0.0107405
2.78401
-0.023429
0.222442
0.0305106
-0.0618143
-0.118724
0.00475296
-0.00280842
0.316297
-6.23555e-05
-0.096107
-0.202625
4.01942
0.161282
0.0266815
2.94296
-0.000123591
0.0029738
0.116202
-0.00766757
3.91188
-0.017685
0.00374608
-0.123272
1.16161
-0.0675984
0.00858749
-0.00301338
1.02623
0.0716603
0.00234365
3.58088
4.33416
0.00800057
0.534705
-0.00076985
3.15176
-0.00452206
-0.0281581
-0.00132938
-5.64399e-05
0.0204126
0.0303762
0.0072721
-0.0497483
-0.00658317
0.093988
-0.00245839
-0.00334742
0.081017
3.3792
3.53838
0.101727
2.63004
0.859428
-0.000538526
2.88699
-0.0270735
0.0123287
0.03128
0.523897
-0.00335338
0.32761
-0.0131879
-0.0121035
1.62281
-0.127805
-0.0996753
1.37112
2.36193
1.35572
0.000130035
-1.74917e-05
-0.129998
1.93477
-0.034692
-0.137766
-0.00411438
2.85683
0.254165
3.3765
2.31631
-0.118542
1.53329
-0.008455
2.97883
0.726362
-0.166539
-0.00235304
0.00762366
-0.112076
-0.129895
-0.0963859
-0.15065
1.28461
-0.073663
2.06085
0.00110869
0.034174
-0.00716994
1.10268
0.288024
0.0297157
-0.000292251
0.253714
1.90872
-0.182055
0.222695
0.196276
0.901962
0.173072
-0.00406998
0.00421835
3.24275
3.47457
3.65559
0.00132268
3.50437
3.18554
3.51213
-0.0251031
-0.0037496
0.00182692
2.123
2.60391
-0.0818188
-0.204092
-0.206306
-0.0802285
0.972227
-0.116072
-0.0640492
2.74245
0.0105315
-0.100165
-0.00107492
-0.133873
3.54022
-0.091722
0.000287225
-6.45374e-05
3.83142
3.11666
0.649685
1.8506
-0.10772
0.58392
-0.125565
0.517956
0.45826
0.411992
1.76618
-0.145965
1.22781
-0.000335949
3.43087
-0.0133238
-0.0275865
2.95153
0.186202
-0.0743386
-0.229631
0.558124
1.43058
0.0899973
-0.00222592
2.79345
0.00346177
-0.0820812
0.808804
-0.00281238
-0.0430973
0.00971249
-0.215767
-0.188202
0.724585
-0.00501118
0.645835
-0.058015
0.574854
0.509209
-0.07978
-0.133274
0.450677
-0.192042
-0.120535
-0.103426
2.32711
-0.139246
-0.0616485
-0.00148127
-0.150599
-0.200837
-0.00180101
2.27011
3.31562
-0.180787
-0.146636
-0.0954791
-0.0707804
-0.0033937
0.000491003
-0.0268277
0.521371
-0.00235913
0.147471
-0.200358
-0.19927
0.00669886
-0.00194777
2.23833
-0.0307142
1.13758
2.49239
0.0251934
-0.208381
-0.193513
-0.00163561
1.05473
-0.216636
-0.212694
0.969861
1.581
-1.04895e-06
0.888955
1.75401
-0.00272079
1.31172
-0.0896813
0.124607
2.77167
-0.0371556
0.00123751
0.000413203
2.51549
0.210883
-0.0797532
-0.218424
-0.105929
-0.0671044
-0.0505069
-0.182891
1.19748
3.71942
4.15011
3.02099
-0.00191343
2.22985
1.09554
-0.109243
-0.224402
2.20594
-0.205066
0.159162
-0.00379099
-0.19076
2.77242
-0.0011281
-0.0735383
-0.066259
0.310651
0.00438008
3.04198
-0.206553
2.95574
-0.135914
-0.17089
0.0788387
-0.00755048
2.67732
-0.0883779
-0.0649837
-0.000216431
0.118057
0.395077
1.48693
-0.0603304
0.000165071
1.63314
-0.00029557
2.08168
1.39448
0.00291172
2.12806
-0.0808897
-0.00158825
-0.081715
-0.00413051
0.00586312
0.0176518
2.41468
-0.10323
0.00739371
-0.0893766
-0.102402
2.57515
3.50844
0.00228846
-0.0688653
-0.0459273
-0.0688041
2.64826
0.202504
0.00366657
1.95838
1.40613
3.02259
-0.0440523
0.00565216
2.17275
0.00561598
-0.222772
0.215171
3.8151
-0.0673157
-0.0938804
0.00463055
-0.0385214
3.7864
-0.18138
4.28598
1.5098
-0.0653167
-0.00602459
-0.0670675
0.0647858
0.001252
-0.0775045
3.71939
3.62105e-05
-0.0314861
3.76361
-0.00335283
-0.0738472
0.00145852
-0.0123362
0.00143728
0.483946
0.0406714
-0.0125591
-0.0136133
-0.00558979
0.000824629
0.000902163
-0.00110718
-0.0482736
0.00107685
-0.00842139
0.124637
-0.0476389
4.25115
0.551139
-0.012025
-0.0369876
5.96944e-05
-0.0924088
0.000748301
1.15837
2.86853
-0.0153279
-0.00918514
-0.0228483
0.913161
0.0123589
4.47741
0.0139883
-0.0115678
2.09476
0.0947705
0.00100972
-0.149023
2.92035
-0.00502464
2.77566
2.97341
-0.109321
-0.146308
3.43046
-0.0915481
-0.0153544
-0.185091
2.22603
1.17282
-0.117341
-0.00261165
3.60246
-0.00716009
0.177362
-0.0411213
-0.0202788
4.03971
0.00631716
0.000400996
-0.137647
1.84624
4.31977
2.89061
4.63948
-0.0345777
4.00368
-0.00354682
2.35616
-0.0259744
-0.00668794
1.54706
-0.0679224
1.09597
0.000411045
-0.212819
4.35515
-0.0819789
0.35124
0.0134978
-0.00990679
1.59224
0.0172548
-0.17398
0.000921109
-0.0437301
-0.00159104
4.48258
-0.113283
-0.163044
0.881303
0.139131
1.46636
2.71949
0.00170262
0.28414
1.77317
3.10333
4.52326
-0.000256956
0.22129
0.163779
-0.0133764
1.94333
2.13248
0.189058
3.83269
1.23162
1.68402
-0.0907973
2.78187
-0.210282
0.00100429
0.000482582
0.000844773
-0.00369293
0.00971625
-0.152387
0.000426703
0.00653141
0.0667134
-0.00107203
2.0695
0.0217451
-0.000196779
4.30027
0.0028976
-0.00154596
3.50969
4.50318
-0.225049
-0.0249924
3.40287
-0.0595345
4.01793
0.775439
-0.00290653
-0.109234
-0.0122913
0.0202035
0.00503353
2.85884
4.017e-05
0.00196662
3.79799
-0.00454358
0.0165092
-0.0726477
-0.146186
-0.190342
0.00104803
0.947302
-0.21068
0.000963893
-0.169579
-0.0138024
2.23024
-0.00100982
-0.00101582
-0.0127886
3.74635
-0.0581765
-0.0353278
-0.00990624
0.0153889
3.58413
0.0959528
1.32819
3.40536
-0.00634692
4.06302
3.26177
-0.0665235
-0.107483
0.00269578
-0.128669
4.00839
0.0246289
-0.0055089
0.000604884
-0.208952
-0.0432355
-0.0065608
0.00178321
4.05954
0.000444096
3.03472
-0.0356135
-0.122427
0.000719969
0.0412435
0.00412393
3.50139
3.56791
1.49518
-0.00517075
-0.192197
-0.0511007
1.45115
1.13037
2.02006
-0.138687
-0.0662074
-0.25477
-0.00317353
-0.00437764
-0.00774428
-0.00829481
-0.005947
-0.00699021
-0.0145072
-0.0390529
-0.226865
-0.0132032
-0.0168473
-0.223243
-0.00223257
-0.0097153
0.000152221
4.78386
0.991466
-0.0122953
0.0300891
-0.0110755
0.000101516
-0.00263552
-0.0221336
-0.019207
-0.179164
0.000392886
-0.253393
-0.00383931
-0.00908761
0.000759911
-0.193412
-0.112174
-0.025139
3.69008
-0.0130176
2.9588
-0.144838
3.86562
-0.253505
-0.25181
-0.249448
-0.245586
-0.240823
-0.236684
-0.230419
-0.00188423
-0.224446
-0.216673
3.53488
-0.202573
0.249565
-0.175185
-0.00312624
-0.011586
-0.10522
0.000631703
-0.0152985
-0.000786586
-0.0131763
0.461879
-0.0106702
1.76239
3.13289
-0.0523595
0.0128669
-0.21648
0.0361717
-0.0318089
-0.0457771
-0.170272
-0.00228427
4.36717
-0.101331
-0.100693
-0.0171961
-0.0124195
-0.0280424
-0.0225684
-0.25575
-0.0359356
-0.0148374
-0.0890764
0.778675
0.000438321
-0.00156495
-0.018731
0.218868
-0.0171376
-0.0257586
-0.0197076
0.000709449
0.00214728
0.00323779
0.00226859
-0.0127834
-0.0293294
-0.0305969
3.47704
-0.00685408
-0.0227431
-0.0142559
0.00839166
0.00141399
0.00203196
2.3116
-0.0206189
3.2169
-0.0375597
-0.00809298
0.000632705
2.87366
0.0501525
0.0021154
-0.00127609
-0.00122328
-0.0729326
-0.0332551
0.731171
-0.00128902
-0.0042194
-0.0057741
-0.0166811
-0.00952748
-0.0422859
0.0164159
-0.0775253
3.41095
-0.193395
-0.0843959
-0.00402165
-0.000947702
-0.196344
0.000225909
0.133631
-0.0377398
-0.0422856
0.00343788
-0.0321172
-0.0595428
-0.100825
-0.00482206
0.00059242
-0.13762
-0.00398302
-0.0475941
-0.0522864
-0.0472008
-0.000833893
4.05039
-0.00328355
4.65919
-0.055113
-0.0579853
0.0624248
0.000456416
0.000208266
0.480268
0.00229865
0.118035
-0.00212996
0.564317
-0.0532997
-0.00145832
-0.000880681
0.023592
3.98626
-0.00181052
-0.102103
0.0517591
3.37571
-0.134267
-0.0534374
0.000303603
0.309714
-0.0860135
-0.0520393
0.0322548
0.00169817
0.0818669
4.31072
-0.0563913
0.00775201
-0.0744063
-0.00127171
3.00089
3.3562
-0.000617527
-0.0147892
2.49549
-0.00152238
-0.0403665
-0.000994829
-0.00249863
-0.0710223
-0.158408
0.019505
0.366928
-0.00412876
-0.000284957
-0.00125312
0.0210447
0.0232212
2.16828
-0.0855338
-0.000789674
3.20358
0.0144512
-0.00913379
-0.195228
-0.0639822
-0.00484506
-0.00107296
0.0697612
-0.0129017
-0.0618632
-0.000114236
-0.00357922
2.15497
-0.0441324
2.49128
3.81503
0.0447172
0.0217615
-0.136927
-0.0485692
4.27865
0.0904431
-0.0171452
0.000319719
2.95631
4.10623
1.97581
0.780461
-0.181565
-0.000638652
-0.20336
-0.00302221
0.00685154
-0.0943106
2.81218
-0.115193
-0.00143058
0.0164223
-0.00555692
0.966443
2.88729
-0.00756701
-0.197985
-0.00657096
-0.00883104
-0.0110463
4.02053
0.025
-0.00688994
-0.00335608
-0.0327325
-0.112892
0.969039
-0.0286576
0.0147364
-0.0234743
-0.00135708
0.0897371
2.70197
-0.249275
-0.00995092
0.107946
2.90748
-0.00787059
1.22032
3.43628
0.00586334
0.000147213
1.28287
2.5453
1.49775
2.17371
-0.159002
-0.0112964
0.00257515
2.78389
-0.160539
0.0134682
-0.123137
-0.0701774
0.038076
-0.180979
-0.0090998
0.00272194
2.65314
0.0200248
-0.192113
3.55618
-0.104058
3.36305
-9.66814e-05
-0.187646
3.20462
4.32698
0.117255
-0.0246499
-0.0632796
-0.00615217
-0.0110641
3.24542
0.0834285
-0.140683
-0.0102009
-0.00728243
-0.0122419
0.0243811
-0.00430193
2.38318
-0.0035397
0.103452
-0.0151212
-0.0348205
-0.00578579
1.77168
2.90133
-0.248551
-0.246723
-0.243993
-0.0051684
0.0319939
-0.00289114
-0.238841
-0.235063
1.93989
3.05548
-0.22991
1.82308
-0.0975688
0.0569394
-0.0873509
-0.223888
2.12802
1.63657
-0.217252
-0.0582543
3.13872
2.32036
-0.0120442
0.000798996
-0.0107508
3.96852
-0.00218306
0.000609592
-0.0172363
-0.0135456
-0.00858372
0.0163789
-0.015675
0.0776658
1.25615
-0.0777207
0.000575876
-0.154622
-0.151747
-0.10042
-0.1467
-0.250818
-0.0116379
-0.0216267
-0.0196958
-0.0209822
3.10843
-0.018127
-0.0225863
0.322379
0.000313146
3.87296
2.97873
-0.14395
-0.0207071
-0.00290702
-0.0236599
-0.000787198
3.02784
0.639143
-0.00724593
0.284842
-0.00157618
0.251184
-0.00809156
0.221465
0.195258
3.61724
-0.0982846
-0.00173695
-0.0140812
0.0296937
1.89216
2.5619
-0.198048
2.72114
4.08274
0.00277664
-0.0595433
2.62313
-0.0269914
0.705472
3.89155
2.54487
-0.0745178
2.6253
-0.0254103
-0.0536624
-0.00948597
-0.0111616
-0.195628
-0.000282334
0.633979
0.568355
0.507422
0.45035
-0.0991461
0.871699
0.00324802
-0.0153619
1.89253
-0.0616432
-0.000830061
-0.0173018
-0.0306438
-0.185011
-0.00101025
-0.0819934
0.207032
4.6154
0.783231
3.0799
1.04525
4.8642
0.70204
0.626417
3.71324
3.82136
-0.0911256
1.81023
-0.00101702
0.46481
0.557919
-0.0346607
0.495262
0.0807506
-0.139055
-0.0167449
-0.0284071
-0.0391128
0.0109144
-0.0321791
2.82501
0.0912586
0.0424199
0.00746882
-0.171452
0.0354272
3.46519
-0.0040991
2.69168
-0.0613085
-0.118644
1.19497
1.38223
-0.10175
-0.243631
0.0203264
2.99387
2.26521
2.07802
0.156693
0.00454419
1.1083
1.0258
0.0179215
-0.00202265
-0.0100914
-0.0398242
0.943806
0.017178
1.61047
-0.0439868
3.28362
2.98472
-0.00524019
3.05163
-0.000752157
3.77045
3.57802
-0.022596
1.26746
-0.203077
0.0359942
4.84524
0.0189443
-0.0782704
0.906861
-0.00071221
-0.0443
2.51441
3.06091
-0.0404543
-0.13583
1.16065
-0.0109562
2.14439
2.62224
-0.0493366
0.357621
-0.00662063
-0.0549287
0.00158535
0.00226633
-0.0130622
-0.0362034
0.240009
-0.0494855
1.14803
-0.0039316
-0.0818171
0.176575
1.70313
-0.234682
0.0262996
2.52651
0.0160832
-9.08184e-05
-0.0199119
-0.0184168
-0.19098
-0.0835683
-0.055287
0.0195637
2.02433
1.54317
0.80332
-0.0706882
3.1382
-0.0605061
-0.0518454
1.75406
4.83758
3.07631
0.0276527
-0.156568
0.0612089
-0.107214
-0.0813212
1.45238
4.77111
-0.0716244
-0.12488
1.40175
-0.000713793
-0.0505012
0.00230155
-0.029377
3.39364
1.9579
0.000779102
3.02803
-0.162953
-0.00505892
-0.116112
-0.0382907
-0.00221813
-0.0391927
-0.102805
-0.0375722
2.03292
4.62718
3.28442
0.152264
0.347277
4.68539
3.54554
4.58708
0.00168141
-0.0900462
-0.0302941
4.75587
4.51826
1.18742
2.46281
0.122374
4.44773
0.403444
0.0174901
0.909006
4.36992
-0.048686
-0.0702941
2.17078
4.29944
3.06782
2.13644
0.549635
4.21999
-0.00517951
-0.214321
4.1961
0.00385376
-0.0563725
0.119918
4.14122
-0.0111362
3.1649
4.06249
-0.000125145
0.419926
-0.0435393
-0.00958363
0.021507
3.02366
3.9479
0.609486
2.90829
1.71515
-0.185868
-0.0009467
-0.00126825
-0.108361
0.000198452
2.17727
0.0447945
-0.0289133
-0.0997615
0.787504
0.00174031
-0.157868
-0.0718154
3.09718
-0.148925
0.104359
-0.150604
-0.118671
1.19049
-0.139976
2.46045
2.92179
3.24113
0.593341
-0.115804
3.34384
-0.129797
0.240496
0.987682
1.59145
2.69722
2.24274
3.37164
1.80579