/*--------------------------------*- C++ -*----------------------------------*\
  =========                 |
  \\      /  F ield         | OpenFOAM: The Open Source CFD Toolbox
   \\    /   O peration     | Website:  https://openfoam.org
    \\  /    A nd           | Version:  7
     \\/     M anipulation  |
\*---------------------------------------------------------------------------*/
FoamFile
{
    version     2.0;
    format      ascii;
    class       volScalarField;
    location    "3";
    object      p;
}
// * * * * * * * * * * * * * * * * * * * * * * * * * * * * * * * * * * * * * //

dimensions      [0 2 -2 0 0 0 0];

internalField   nonuniform List<scalar> 
20933
(
-0.0175491
-0.0971163
0.118589
0.000184238
0.000977456
-0.00118994
-0.118237
2.01575
-0.0538442
1.98227
-0.0540518
1.71499
-0.0857724
-0.016536
-0.0173081
0.000183645
0.755723
1.32851
-0.126429
-0.0938781
-0.0275562
1.73812
2.00059
0.0193349
0.110554
2.83512
0.0389942
-0.0581825
0.110338
-0.120635
-0.00523379
3.19092
2.02052
-0.0431186
4.01405e-05
-0.00498702
2.16131
-0.000424083
0.0607703
1.20417
0.197416
2.32131
2.44439
0.0347043
2.83222
-0.240304
1.75951
1.21014
-0.00100913
-0.122907
-0.000414176
0.429604
0.360771
0.00113332
0.375291
-0.20342
-0.0949927
-0.00577968
0.0142179
0.785126
2.96172
-0.178782
-0.0462499
1.88587
-0.00257346
-0.0195333
2.78684
-0.0219033
0.419421
2.80235
0.157179
0.61698
-0.0157277
-0.0794628
2.80135
0.211428
2.78692
-0.240003
1.18515
2.65162
-0.0158383
0.00871491
0.0797501
-0.0442949
-0.179689
2.45505
-0.0710907
3.36062
1.8822
2.92322
1.68294
0.000633036
8.20512e-05
3.34186
1.15996
-0.0435507
3.36451
-0.00277809
-0.0252729
2.07309
2.94477
-0.0989506
2.98826
0.404759
0.700156
0.323171
2.66765
0.472922
-0.138707
2.59678
0.105883
-0.129635
-0.0938895
0.148751
0.240894
3.23758e-05
2.41253
-0.013859
0.334947
2.62434
0.000564097
0.00644773
1.35576
0.00651785
-0.0431606
1.34363
1.92577
-0.056651
3.21786
2.44945
-0.0808601
-0.123058
0.196273
0.0572989
2.68156
0.645529
1.37017
-0.0180918
-0.0773526
-0.105597
-0.0138364
-0.0869914
0.559995
3.01164
0.967244
2.69772
2.12784
-0.127156
1.83679
0.0440178
-0.129551
2.78556
0.000134277
-0.0402921
0.00850562
2.15964
2.48805
0.0149814
-0.218306
-0.0916099
0.340993
-0.0930982
-0.0059376
1.01
1.00319
3.34211
-0.0935773
0.057744
0.188567
2.13612
1.34306
2.84464
2.54224
-0.0527899
3.48165
1.9964
-0.0151031
2.93996
0.272443
2.65254
2.73507
-0.00032408
3.01182
2.49812
-0.0889108
-0.238593
0.160895
2.00965
0.371708
3.18512
1.91049
0.735818
2.11055
0.451751
-0.215162
1.56542
3.00466
1.01806
-0.0867791
3.2097
1.26231
0.486663
0.396463
3.14421
3.05281
-0.143111
-0.0178516
0.436189
-0.200628
-0.00835806
2.77319
2.90932
-0.128671
-0.179965
2.62927
2.80082
-0.0300127
2.62379
0.507603
0.0628298
-0.0205882
2.53288
3.06973
1.69774
2.57641
-0.0827717
-0.00857704
8.22119e-05
-0.0236762
0.000916344
1.33253
0.267344
2.64586
-0.0934714
2.49881
-0.0639339
0.314231
2.82802
3.39312
2.5122
2.76798
-0.185007
2.28478
0.0138628
0.756888
-0.0143994
0.412433
0.675279
0.456453
-0.000901542
-0.135554
3.09228
1.4529
0.056341
-0.138852
0.270361
-0.0638635
2.34234
-0.0975487
-0.234783
-0.0596366
-0.0374798
-0.00335166
-0.0656285
-0.0809327
3.01246
1.00163
-0.0866266
2.51991
3.04257
-0.0696865
0.00215156
-0.0475112
2.78165
0.270024
2.95298
1.98339e-05
-0.175327
2.60287
2.74535
0.0605452
-0.0883533
3.15531
0.565186
0.718401
2.96738
3.17154
-0.076589
2.62295
1.02778
2.63275
2.33254
0.00217868
0.992184
2.16507
-0.0164333
-0.111104
1.08034
0.0380659
1.23336
0.817678
0.000179456
-0.00213631
2.92961
0.00186979
-0.114356
-0.0842842
1.73201
-0.15998
2.65351
1.12482
-0.0694435
-0.246482
2.08522
1.6028
0.000116525
2.91857
2.46698
2.90924
0.420686
-0.00275632
3.14551
-0.0130559
-0.0533581
1.56066
1.02789
-0.100378
0.514315
2.49821
3.32361
2.73311
1.24988
3.49325
0.000167328
-0.0462126
2.74948
0.215051
2.15099
-0.0714029
2.81092
1.03031
0.000286694
1.00148
2.39669
0.141759
3.03874
2.46757
-0.00226348
0.160389
1.97422
1.39023
-0.0282241
2.52157
0.0243595
3.41299
-0.0239539
-0.131017
-0.126509
2.73107
2.47957
-0.177459
2.06781
2.92047
0.00220374
2.27862
2.43722
3.47399
-0.0110493
1.73555
0.637813
-0.2119
-0.00135199
2.82256
2.3323
0.898165
2.87622
1.30019
-0.101103
2.24838
1.01682
1.45749
3.41454
0.00861475
1.4707
2.90057
-0.144657
0.895689
-0.0071808
1.93331
-0.167656
1.70444
0.934208
1.43044
0.00457002
1.77578
2.8862
2.32488
0.0664546
-0.0317032
3.12444
3.1681
-0.0122628
-0.168186
2.63567
-0.109377
0.276875
2.33103
-0.130724
3.54206
0.0821212
1.82966
-0.0385814
2.90207
2.43768
0.470014
0.296941
0.762851
1.29115
-0.0021159
2.63079
0.635607
1.92253
3.39308
0.440273
0.209983
-0.000620454
1.24505
0.970849
-0.0988911
2.37617
-1.34238e-05
-0.115402
0.058577
0.593575
-0.0591178
-0.000959959
-0.0779862
1.53011
0.109387
0.133313
-0.149854
1.0948
0.842111
-0.119864
-0.242637
0.00323016
0.422498
-0.0973893
0.0497217
0.0804347
1.60335
2.3037
1.05595
-0.00243605
3.1924
0.0503379
-0.000287903
0.182437
-0.154649
-0.0465421
3.0361
0.0623459
1.03894
-0.0733216
-0.0884082
2.29506
-0.0465339
-0.0894223
-0.100382
-0.00125555
0.438376
3.24279
-0.0414592
-0.168643
2.35823
-0.0951726
2.31773
1.85104
-0.0150696
-0.00782036
2.47432
3.35489
-0.0769102
2.06809
1.50547
-0.143762
-0.14516
2.63271
0.636297
0.106135
0.0195792
-0.189466
0.305853
3.14347
1.22758
0.000359412
2.99411
0.100214
-0.0445065
2.57806
0.0672158
-0.0413506
-0.00225972
0.546421
-0.14063
6.76806e-05
2.06085
0.300995
2.64366
-0.00314491
0.000487901
-0.101055
3.36232e-06
-0.0900013
0.144413
-0.00182751
-0.0259367
-0.232808
2.54387
2.88903
-0.013078
0.0120192
-0.101214
2.90136
0.00493745
2.90887
-0.0740098
3.4319
2.32761
1.72606
3.29788
0.686589
-0.0411449
0.632219
0.0222542
2.85979
2.61701
-0.124008
0.434219
0.786452
0.182648
-0.0410557
0.376969
7.04096e-05
2.55191
-0.241779
-0.0730539
-0.0262258
-0.0109525
1.81993
1.09931
-0.0252097
0.0781255
-0.000129601
3.43905
3.12058
-0.021912
-0.112184
0.134757
2.61134
-0.231391
1.5177
-0.160782
2.75755
1.73383
-0.144515
3.53132
0.270092
2.7145
-0.0317808
-0.10999
3.03417
0.0388779
3.36675
2.56954
3.4657
-0.0386524
-0.0635154
0.0138124
0.725046
0.0609533
0.0292352
2.71696
2.77942
2.30725
2.88049
3.32865
2.01461
2.88348
2.32162
0.0179658
2.50239
-0.0941512
-0.154344
-0.00508727
0.158137
0.0994267
2.02427
0.525997
2.6509
0.00861483
0.907012
2.57579
0.0268687
0.272047
-0.000111833
0.00135526
2.01592
-0.0763995
-0.131084
0.00155349
0.000288188
0.738997
-0.00230738
1.12957
3.46094
2.10643
1.92671
-0.14596
2.62757
1.28954
0.00937107
-0.109535
-0.0110646
-0.00243592
0.00695093
-0.0245345
-0.0654337
2.12007
0.728844
-0.23723
-6.18502e-05
2.73202
0.805458
0.548065
0.047728
1.37649
0.140631
-0.236726
2.58059
3.28998
2.5099
-0.16946
2.52539
-0.159452
-0.0805415
2.15243
0.000353796
-0.0521827
1.76766
1.98596
-0.139631
2.58323
3.05347
2.52718
-0.161805
-0.236577
0.159177
1.04836
2.43819
-0.0195758
3.00725
-0.0547819
-0.0965215
0.666681
3.21488
2.13872
2.64097
0.173829
3.4168
-0.133563
-0.0742246
3.50658
0.424874
-0.035632
2.68791
2.76024
-0.107992
2.41816
2.90347
2.74339
2.60962
2.71371
2.37083
-0.0589577
-0.129395
0.0106697
-0.101667
2.88061
-0.0961419
1.64612
1.55074
-0.132744
1.14215
1.79531
2.92987
1.11931
-0.00166709
0.332331
-0.0864497
0.584903
0.576188
-0.102073
2.58902
2.96818
0.851568
2.91129
3.3669
-0.0220521
0.0136049
-0.0150909
-0.11784
2.22334
3.44852
1.26008
2.63591
-0.0804685
2.4328
2.48372
0.344048
-0.181152
-0.227474
1.64715
0.0291002
0.766064
-0.136175
-0.202433
2.6542
-0.0342038
0.0690985
2.76597
1.10607
3.1593
-0.0209631
2.29246
0.556025
-0.0576854
2.99791
3.26507
2.87584
-0.038173
3.23889
-0.152649
2.95181
0.500606
2.85475
-0.095264
9.50644e-05
2.8635
2.96126
2.94326
2.86948
2.00124
0.923617
2.26238
-0.0370285
2.8731
2.56807
0.793144
0.543784
-0.0566146
0.704264
2.61816
-0.196513
-0.172747
2.94381
2.88921
-0.0748409
2.82881
-0.113526
1.33894
-0.0808396
2.92559
2.96508
3.3841
2.92691
-0.018898
-0.0810436
-0.00576878
-0.0755221
3.151
1.88255
2.58621
-0.199951
2.33031
0.148568
3.15634
0.211147
2.92246
-0.0740217
3.10213
3.20194
-0.0881329
1.33039
3.09387
-0.0194547
3.27259
0.126474
-0.0242284
-0.185817
2.72324
1.67765
-0.0784289
2.84581
3.23374
2.46696
0.288437
-0.0549493
0.580293
2.88124
3.21988
3.44399
1.82829
-0.000258042
-0.184361
2.60903
0.00686141
-0.0662088
0.010639
-0.0359028
0.0486151
0.216524
3.02042
0.0543565
-0.0042952
2.52565
1.85915
0.00495172
1.51104
0.00718176
1.61689
2.53916
2.84621
0.148464
1.40231
-0.0283515
0.309013
-0.0207172
2.90533
3.03063
0.220981
0.145322
0.0816199
0.0417691
2.86237
0.0693848
0.132151
-0.0286632
0.339253
3.32675
0.0386006
0.983145
2.93758
-0.0429833
1.16689
0.0958782
0.00582632
-0.0200752
-0.00139994
3.30516
2.27386
0.187818
0.846518
2.3467
2.80162
2.55774
0.492985
-0.0966513
-0.0477253
-0.0797492
2.47543
-0.153198
-0.0387659
-0.00100918
-0.122318
-0.00989665
0.0757564
2.74881
-0.0187639
2.89765
2.85421
-0.152797
-0.0675096
3.36
2.38546
0.762332
-0.0736169
2.41509
-0.0531054
2.18473
3.30836
2.28361
-0.140989
-0.0797988
2.68648
-0.129913
-0.0621084
-0.0455771
3.06109
-0.100824
0.754998
2.37768
2.08748
2.51094
0.0622884
2.20675
0.0359867
2.92442
-0.0428638
1.76385
0.00689767
-0.0198292
-0.00483199
-0.0108452
0.00423712
3.0693
-0.0314515
2.30922
1.3019
0.239659
0.0418062
1.92766
3.42358
3.11562
0.171565
1.84698
0.119743
1.18652
-0.166075
1.51244
-0.180402
0.004609
2.43673
-0.0882186
0.0668186
3.04696
2.66743
2.94623
0.297597
0.624201
-0.0474123
1.87706
0.363859
0.00055607
3.13416
1.4535
1.81022
0.874703
-0.000908339
-0.0230223
0.00759886
1.77387
0.000960362
-0.0504326
0.059797
-0.0735015
3.16602
-3.74897e-05
-0.064683
-0.22067
3.29476
0.0983069
-1.80411e-05
0.122121
1.2906
2.54182
-0.0745548
-0.060982
0.0193304
2.57749
-0.0731185
1.77704
0.256834
0.180325
1.07776
2.55216
0.991515
1.85466
-0.0222825
2.66445
3.22395
-0.0724198
2.31845
-0.0840268
3.27281
3.19008
0.0555484
1.22203
1.14649
2.27625
-3.57971e-05
2.86777
3.49162
-0.036624
1.6882
2.1229
0.0030353
0.0032065
-0.0903624
3.4065
-0.0115913
-0.0502932
2.87695
0.0141145
2.24683
2.93615
-0.0938163
3.09801
-0.108255
-0.0670167
2.9435
1.82714
2.51059
-0.0241181
2.95087
1.80289
2.847
-0.0915129
-0.0108379
1.68734
3.12002
2.95009
3.1322
2.89541
0.643521
-0.175631
0.88426
2.3566
2.85464
3.24488
-0.129785
1.9689
3.34923
2.74126
0.00337304
-0.193086
-0.102765
1.56028
0.309802
3.09814
1.81003
2.84624
1.12273
0.344066
2.86116
0.667647
2.38199
0.132378
1.05837
-0.00413322
0.107384
-0.0680407
3.26984
-0.0696327
-0.0882214
0.573547
1.67246
1.1835
-0.0939325
0.81067
0.209201
-0.030813
2.45801
1.60022
2.60589
0.256362
2.98097
0.0271393
0.00201847
-0.0201168
0.103315
0.117083
0.177633
0.0311904
2.13994
3.13293
1.68827
0.936443
0.0630564
-0.0647743
2.2999
0.091211
3.29811
2.16599
0.0603215
-0.101682
0.520187
0.166834
-0.0380754
0.0482303
0.372281
-0.00112534
2.09747
3.19256
2.99467
2.00486
-0.0320161
-0.11572
-0.0140927
-0.0339283
2.4823
-0.0778855
2.41847
0.0142918
-0.0606753
3.14413
3.18932
0.00277509
2.87976
2.98033
1.5118
0.0915662
1.62198
2.47034
3.18497
2.20267
0.0922431
3.13884
0.969485
-0.00110684
-0.0281313
0.0964996
3.23088
0.116628
2.91515
2.17955
3.10305
0.256778
2.24743
2.38102
0.0343824
2.95253
0.549032
3.07539
0.00286066
2.25528
2.3978
2.43955
0.00566554
0.809324
-0.0124806
-0.123098
2.10317
-0.0613832
2.31545
2.3116
3.38532
0.238196
3.08403
0.181
0.160456
1.00082
2.87294
1.3319
0.64644
0.904797
2.61649
0.0126915
3.3543
0.0203974
0.504444
1.31938
-0.122299
2.9095
0.000699678
3.00734
2.56401
1.40718
0.721696
1.64798
0.00100711
0.643685
3.05513
-0.0793121
0.474157
2.21954
1.14723
0.438538
0.75046
-0.0761881
3.19226
-0.1077
0.968621
0.522209
-0.186783
2.83858
3.43352
-0.15205
-0.0688705
0.0430606
1.08593
0.00393547
1.47133
3.19723
3.10884
0.180899
1.56953
0.000395841
-0.157623
2.68277
0.0803613
1.82415
-0.118015
3.31559
2.65389
-0.0629167
0.0883336
-0.0193073
3.34137
-0.122357
-0.00680114
-0.121592
1.47466
0.00574149
-0.117988
1.40998
3.21874
-0.0636341
3.27449
3.4436
-0.070124
0.437879
0.00243866
-0.0260633
0.226973
-0.0619678
3.32832
-0.0977031
-0.0385164
2.41703
-0.0763514
2.58114
-0.0602537
0.831754
2.59914
2.43216
-0.0912043
-0.0249252
-0.0756327
2.75535
-0.121504
1.86786
-0.139654
-0.0416073
-0.150214
0.00369168
-0.0172734
-0.0446645
-0.0168813
0.507159
0.0768495
1.33832
-0.0147038
-0.134987
-0.0435686
-0.094252
0.0560624
3.16094
0.598624
-0.0557968
0.0511276
2.7088
-0.0147307
2.46128
0.444884
1.05887
-0.0714874
2.57507
1.87233
-0.171927
0.0245325
-0.00210744
2.23526
-2.9515e-05
2.42173
2.74758
0.0520885
0.274542
1.35441
1.16596
-0.000582098
1.61098
2.65253
-0.108306
2.34064
-0.166393
0.268036
2.28109
3.18569
0.569431
0.0243793
2.83532
2.41745
-0.120756
-0.0886784
-0.0786693
0.24419
-0.119219
-0.0475944
2.6925
0.054908
0.210421
2.69734
0.144388
-0.102306
2.06174
-0.0301821
1.55796
2.40495
0.580788
2.48721
-0.0547623
3.14402
0.0687254
-0.00028852
-0.000597423
0.963766
0.00152332
-0.0679569
1.59375
0.205696
0.0127726
-0.0438028
-0.0746113
1.84216
2.91649
-0.00577559
-0.0851317
0.140467
2.32912
-0.106419
-0.0811263
-0.129887
0.886396
2.0709
-0.0197607
-0.0667157
0.457266
2.56192
2.71565
1.58432
2.44407
2.9669
0.0100267
2.33167
1.17062
0.591607
-0.11099
0.393871
3.51256
0.0680653
0.105649
-0.171429
2.56674
-0.0814645
0.000847318
-0.148598
-0.170507
-0.0293125
2.92252
2.15264
2.41648
2.72361
2.45569
-0.116882
1.41887
2.10335
0.90972
2.86358
1.80546
2.22555
-9.97768e-05
2.17161
-0.042779
1.77059
2.23283
-0.0556854
1.0136
1.02373
-0.0868737
-0.0550095
1.04926
1.73417
3.24456
1.86684
-5.48673e-05
1.96824
-0.0902634
2.27013
1.89056
-0.0883494
-0.100774
2.36052
2.88589
1.41928
-0.232132
-0.140085
1.63335
2.34774
-0.168413
2.66299
-0.127896
1.51677
0.494193
3.0921
-0.00492287
0.0107752
-0.0310368
-0.150088
0.426819
-0.131757
2.41989
2.71176
0.0565142
2.00784
0.0645307
-0.0951912
-5.37839e-05
1.77523
-0.00671516
2.13157
-0.000298382
2.38371
-0.214576
2.62585
0.48072
2.77489
-0.182193
-0.0741556
-0.00660659
2.91396
-0.138723
1.19812
1.50312
0.0798559
2.60326
-0.0763622
0.0700917
-0.159635
-0.0332332
2.93664
-0.0335108
-0.144025
-0.101602
-0.000166177
-0.110424
2.64953
0.00482522
-0.208001
0.0118805
-0.0106654
2.50155
0.52715
0.941946
0.0457987
0.00492657
-0.00568252
0.721095
-0.168494
0.0107141
-0.0833801
1.81168
0.000683911
-0.152556
0.652892
1.50145
2.84488
-0.126995
0.0394431
-0.229786
-0.0257706
2.49395
2.68725
2.96791
-0.000397094
1.69619
-0.155794
-0.155496
2.18338
-0.0871156
-0.0900567
-0.116392
-0.0310182
-0.123156
-0.112335
-0.103976
0.0137617
0.174809
2.36509
0.0903228
1.94292
0.822857
0.594153
1.67702
1.24379
2.15217
0.330102
2.43756
0.00241535
-0.0326908
2.32275
-0.175527
2.47667
2.39128
-0.0937147
-0.203608
0.0011425
-0.176813
0.886173
-0.136594
-0.14294
-0.144947
-0.126047
-0.209927
-0.114474
-0.105292
-0.053408
-0.217671
2.15505
-0.197051
-0.025171
-0.218584
0.018546
-0.222661
2.66835
2.59625
1.79123
3.03185
0.053776
0.352698
-0.173517
0.0166466
-0.0200893
-0.00144204
-0.000149488
1.75254
1.45098
-0.00172002
0.156139
1.10193
1.65167
-0.0855558
-0.148093
0.061805
-0.0219099
0.0117131
-0.00051921
-0.216193
-0.0269752
3.18604
0.0209081
-0.0195307
-0.133281
-0.127903
-0.112229
-0.172799
0.00403701
-0.111407
-0.0871682
-0.20304
-0.0683415
1.30584
-0.116006
2.01334
-0.184105
-0.026572
0.400314
2.46559
2.54846
2.0897
0.217875
0.182992
0.0728665
0.290232
-0.116345
0.250066
-0.193073
0.21423
-0.0684607
-0.00618716
-0.000310387
0.804275
-0.05665
-0.00713742
0.0443809
3.24236
-0.130788
0.00772958
3.11098
3.19338
-0.159636
3.16168
3.03244
2.53027
0.0031504
0.294003
3.21237
-0.0092207
-0.00468263
0.026981
-0.152584
-0.0656679
0.157947
-0.142761
-0.19015
-0.198937
0.00998882
-0.00289631
-0.0828646
-0.0687665
3.39353
-0.171504
-0.126524
3.40693
-0.0422113
3.31873
3.11066
2.37893
-0.137042
3.37597
1.09019
2.77199
0.192132
-0.000221301
0.00759438
0.0681505
0.628415
2.89579
-0.0225557
0.00251204
-0.161771
-0.00214767
0.16841
1.6381
-0.00191668
2.45508
-0.0732699
-0.0352576
-0.158627
-0.143531
1.61399
-0.0442748
3.14142
0.0114179
2.98144
0.0683237
-0.165002
-0.000604324
-0.246192
-0.0182523
-0.22976
2.73127
2.86292
-0.000526269
3.17333
-0.141372
0.00561635
-0.0209591
2.99332
0.0218856
-0.00842167
-0.00395998
0.00646225
0.00220004
-0.00213098
-0.00751728
3.23769
-0.00476225
-0.0257771
0.0585365
3.26987
3.457
-0.0571299
-0.163395
2.50556
3.42821
-0.148204
-0.170061
-0.000431719
0.2917
2.9684
2.46246
0.00504933
-0.141577
-0.173365
3.0303
-0.0800379
-0.0740394
-0.0841616
-0.0846863
0.0152364
2.58746
-0.00175753
3.06953
-0.0270613
3.23499
-0.00905521
3.10275
-0.130895
0.833071
-0.0335596
-0.000331547
0.00625871
-0.0621044
-0.120508
-0.0288026
0.00321398
0.017083
-0.0292281
-0.160654
0.00312362
-0.113304
-0.107853
0.0111784
0.989847
-0.000345126
2.45188
-0.177841
0.00458011
0.0257182
-0.00374129
3.30785
-0.098655
-0.0692902
-0.0686127
-0.197321
-0.15414
2.39817
2.56371
0.0569319
-0.120864
0.236658
1.09468
3.06094
-0.212313
2.35662
2.64848
-0.00059298
-0.177074
-0.165258
0.0119542
-0.00908073
-0.00956292
0.00881377
-0.0656018
-0.0596795
0.089583
-0.0648022
0.202722
1.93843
0.0862769
2.45629
1.4285
-0.0872044
-0.00043424
0.00550066
2.89248
-0.00886778
-0.185578
-0.00812388
-0.20774
-0.0945551
2.0544
0.710113
3.21838
0.00197427
0.00452254
-0.197843
2.04736
0.0311248
3.09712
1.4522
-0.170863
-0.116248
-0.0474622
0.130866
2.38671
0.459535
2.93011
-0.217703
-0.00233018
-0.0181795
-0.0895726
0.00110849
-0.00541981
-0.032444
-0.0785047
0.078302
-0.194554
-0.0013806
-0.196442
-0.0265155
-3.71147e-05
-0.00185385
0.0309947
0.00443103
-0.00329315
-0.0202667
0.346376
0.00729918
0.681953
-0.107872
2.49142
-0.17123
-0.0503287
-0.000368771
-0.0538608
-0.15001
0.0368824
-0.0555621
-0.000164866
-0.0496888
-0.00193424
-0.00803031
0.931557
1.29834
-0.0951756
0.00190915
0.595883
0.0956741
2.63603
2.21227
2.56831
-0.0189823
-0.0393845
-0.00620436
-0.0593504
2.96732
2.40219
-0.017329
-0.0149404
1.91524
2.39564
3.17868
0.000914435
-0.0307932
-0.0669597
-0.000525642
0.000744533
-0.00148856
0.0077108
-0.0174274
2.48648
0.0235664
0.000345654
0.071724
0.00637367
0.915333
0.0445421
2.10276
0.00823828
1.35435
-0.159145
-0.223743
1.68611
1.48377
0.00153442
1.63912
3.05908
-0.185631
2.54853
-0.232088
-0.0537052
2.69533
-0.0104917
2.48667
-0.0237632
0.245795
0.0534812
-0.0628231
-0.119959
0.0051048
-0.00279521
0.320977
-7.08968e-05
-0.096868
-0.204433
3.09116
0.177685
0.0275543
2.44812
-0.000128986
0.00322612
0.123374
-0.00748936
3.03369
-0.0180051
0.00404574
-0.124434
1.20279
-0.0635582
0.00903065
-0.00318751
1.16614
0.073823
0.0025545
2.85064
3.26112
0.00868055
0.5855
-0.000306468
2.58355
-0.00453883
-0.0286453
-0.00135082
-6.15843e-05
0.040626
0.0314556
0.00766869
-0.0103777
-0.00643421
0.121392
-0.00260888
-0.00332704
0.0826718
2.71912
2.81936
0.107949
2.42836
0.910609
-0.000568025
2.41166
-0.0257572
0.0129343
0.0324309
0.635133
-0.00330859
0.344708
-0.0134834
-0.00411654
1.7595
-0.128785
-0.100368
1.53754
2.0869
1.39732
0.00014833
-1.77477e-05
-0.131942
1.99233
-0.0344938
-0.125148
-0.00425575
2.39197
0.364713
2.71752
2.23295
-0.120544
1.46816
-0.00865363
2.47248
0.831615
-0.165896
-0.00239403
0.00803568
-0.114195
-0.132229
-0.0982328
-0.152962
1.24208
-0.0752865
1.96798
0.00134048
0.0351948
-0.00735607
1.27362
0.302739
0.0314532
-0.000286296
0.266401
1.893
-0.184693
0.233628
0.205695
0.928719
0.181268
-0.00400975
0.00450918
2.64207
2.78337
2.88434
0.00148973
2.79668
2.60324
2.80568
-0.0256544
-0.00389194
0.00200215
2.08554
2.26255
-0.0610503
-0.204443
-0.20883
-0.0800557
1.03459
-0.11833
-0.0655225
2.34135
0.0110713
-0.101956
-0.00114914
-0.136379
2.81452
-0.0868726
0.0004964
-7.06229e-05
2.98651
2.59886
0.747476
1.92716
-0.109803
0.674106
-0.127803
0.600796
0.533028
0.478019
1.85756
-0.148146
1.33516
-0.000244485
2.75073
-0.00842285
-0.0264736
2.56031
0.189881
-0.0741246
-0.232273
0.698306
1.41318
0.0953761
-0.00236242
2.34993
0.00371366
-0.0817659
0.835329
-0.00277951
-0.0439317
0.0102064
-0.217542
-0.190785
0.749754
-0.00516882
0.669547
-0.0552049
0.596245
0.528275
-0.0805064
-0.134539
0.467395
-0.193712
-0.122768
-0.105506
2.09068
-0.141753
-0.0630475
-0.00151365
-0.151041
-0.200083
-0.00181613
2.16551
2.70068
-0.182137
-0.148265
-0.0965525
-0.0723843
-0.00351518
0.00262353
-0.027461
0.516197
-0.0023351
0.150772
-0.201803
-0.20192
0.00707654
-0.00193137
2.07596
-0.0313019
1.24611
2.18978
0.0315909
-0.208635
-0.196195
-0.00171293
1.1608
-0.218451
-0.215136
1.07372
1.64805
5.73585e-06
0.988219
1.67339
-0.00273292
1.30645
-0.0901535
0.136113
2.33962
-0.0375173
0.00134758
0.000539767
2.3015
0.295509
-0.0768693
-0.220934
-0.107298
-0.0686697
-0.0493552
-0.184722
1.20076
2.92179
3.16832
2.5237
-0.00191154
2.05858
1.10286
-0.109959
-0.22692
2.00584
-0.206296
0.254936
-0.00381152
-0.193161
2.47077
-0.00115562
-0.0563435
-0.0664416
0.349487
0.00466896
2.55882
-0.207341
2.5226
-0.136875
-0.173712
0.0834977
-0.00780258
2.27726
-0.0881099
-0.0663542
-0.000217498
0.15979
0.401902
1.5624
-0.0598224
0.000407886
1.57257
-0.000302607
1.91419
1.47639
0.00315405
1.90967
-0.0709671
-0.00157803
-0.0818187
-0.00435413
0.0062574
0.020436
2.23861
-0.101014
0.00787756
-0.0796358
-0.103861
2.20842
2.80959
0.00249063
-0.0678497
-0.0469948
-0.0694314
2.36381
0.207901
0.00395522
1.82084
1.59097
2.50349
-0.0427979
0.00599226
2.05052
0.00704399
-0.224863
0.219286
2.98447
-0.0602374
-0.0940186
0.00497205
-0.0384286
2.96704
-0.181976
3.24344
1.42789
-0.0652931
-0.00632241
-0.0630402
0.0775333
0.00136731
-0.0770617
2.92905
4.20811e-05
-0.0264194
2.9497
-0.00354019
-0.073133
0.00159278
-0.0126476
0.00156613
0.486561
0.0441729
-0.012914
0.0179252
-0.00558772
0.000908728
0.000981483
-0.0011211
-0.0427299
0.00117362
-0.0087832
0.139866
-0.0444436
3.22191
0.542468
-0.0101028
-0.0378862
7.10157e-05
-0.092278
0.000810029
1.10505
2.47503
-0.0156371
-0.00297124
-0.0212273
0.91778
0.0133195
3.35
0.0146362
-0.0120274
1.87107
0.0970532
0.00109909
-0.148453
2.43782
-0.00528416
2.42292
2.46816
-0.109432
-0.14542
2.75313
-0.091656
-0.0158965
-0.185471
2.20745
1.12044
-0.11427
-0.00263731
2.85126
-0.00749009
0.181742
-0.042147
-0.0209523
3.10701
0.00689187
0.000448496
-0.138428
1.78593
3.26516
2.41601
3.45989
-0.0348953
3.08311
-0.00359101
2.07689
-0.0267468
-0.00688437
1.47152
-0.0657895
1.0583
0.000512176
-0.212876
3.28568
-0.0803377
0.39595
0.0142871
-0.010322
1.7225
0.0179886
-0.174577
0.00100455
-0.0393972
-0.00166046
3.37181
-0.114435
-0.164473
0.866111
0.186745
1.38168
2.43382
0.00184976
0.362418
1.61484
2.55788
3.38374
-0.000266386
0.289601
0.217596
-0.0138809
1.74795
1.88646
0.250088
2.99795
1.19092
1.65359
-0.0914827
2.34297
-0.212144
0.00118752
0.000534722
0.000936024
-0.0038994
0.0102798
-0.154082
0.00047515
0.00690371
0.068376
-0.00111009
1.96329
0.034344
-0.000200835
3.24215
0.00311065
-0.00154725
2.81814
3.36838
-0.226508
-0.0222848
2.73362
-0.0601217
3.10172
0.76548
-0.00294998
-0.0978101
-0.00515905
0.0212915
0.00535167
2.53344
4.9552e-05
0.00213765
2.96664
-0.00478266
0.017441
-0.0648114
-0.147725
-0.192105
0.00118121
1.00118
-0.212596
0.00105167
-0.170632
-0.01423
1.97093
-0.00103955
-0.00103415
-0.0132039
2.94562
-0.0586901
-0.0359474
-0.0100004
0.0161055
2.84108
0.0980928
1.35085
2.74327
-0.00657832
3.1152
2.67292
-0.067859
-0.0967389
0.00289396
-0.129949
3.09283
0.0259083
-0.00579198
0.000665315
-0.210689
-0.0443173
-0.00687428
0.00195045
3.1153
0.000496987
2.51738
-0.0320809
-0.11129
0.00078863
0.0570217
0.00466885
2.79293
2.83216
1.68112
-0.00497378
-0.190997
-0.036018
1.3743
1.10876
1.9171
-0.122676
-0.0560033
-0.256222
-0.0031975
-0.00422015
-0.00809368
-0.00798852
-0.00572148
-0.0067229
-0.0145253
-0.0399735
-0.22931
-0.0125721
-0.0168257
-0.225152
-0.00217732
-0.00935486
0.000216143
3.52117
0.953186
-0.0117643
0.0315759
-0.0106442
0.00014969
-0.00256521
-0.0220914
-0.0191808
-0.178124
0.000438153
-0.25537
-0.0037135
-0.00947408
0.000871938
-0.194803
-0.108619
-0.0250502
2.91027
-0.00997807
2.47206
-0.142112
3.00497
-0.255024
-0.253376
-0.250556
-0.246837
-0.241739
-0.23725
-0.230864
-0.00183993
-0.224389
-0.216468
2.81402
-0.201703
0.278919
-0.173305
-0.00303858
0.0064197
-0.105998
0.000696353
-0.0145724
-0.000774784
-0.013233
0.467092
-0.011114
1.90459
2.57026
-0.0521425
0.0134832
-0.218523
0.0379116
-0.0315476
-0.0450523
-0.171877
-0.00237614
3.27924
-0.102593
-0.100222
-0.0162685
-0.012905
-0.0278442
-0.0228352
-0.257824
-0.0355837
-0.0151023
-0.09078
0.851275
0.000507112
-0.00153093
-0.0175991
0.220516
-0.017417
-0.0260204
-0.0199818
0.000781298
0.00232466
0.00380074
0.00243469
-0.0130372
-0.0295858
-0.0312724
2.77872
-0.00701103
-0.0231834
-0.0148096
0.0090473
0.00155783
0.00219837
2.26159
-0.0192539
2.69649
-0.0377891
-0.00825953
0.000703175
2.42037
0.0747993
0.0022756
-0.00125114
-0.00122689
-0.0734762
-0.0334992
0.907564
-0.00133723
0.00436902
-0.00592102
-0.0170229
-0.00970248
-0.0425082
0.0171041
-0.0693762
2.73814
-0.192154
-0.0854756
-0.00407993
-0.000952283
-0.197393
0.000287123
0.141261
-0.0384455
-0.0430767
0.00369472
-0.0307722
-0.0597508
-0.0759887
-0.00495666
0.000658017
-0.138668
-0.00410481
-0.0478202
-0.0531222
-0.0479825
-0.000845721
3.11921
-0.00339098
3.46849
-0.0545685
-0.058852
0.0637874
0.000520802
0.000290691
0.514461
0.00247258
0.147374
-0.00205222
0.731072
-0.0535165
-0.0015381
-0.000824769
0.0251732
3.07459
-0.00174578
-0.100508
0.0531583
2.72657
-0.131222
-0.0400573
0.000383478
0.388929
-0.0874574
-0.0185113
0.0393477
0.00184967
0.0845304
3.26411
-0.044232
0.00869036
-0.0756392
-0.00126621
2.48782
2.70895
-0.000601872
-0.0152555
2.35294
-0.00147064
-0.0399004
-0.000992468
-0.00239634
-0.0665808
-0.158142
0.0633709
0.384269
-0.00393136
-0.000212795
-0.00121324
0.0353909
0.0286296
1.94284
-0.0857263
-0.000768335
2.64242
0.0164057
-0.00918658
-0.194301
-0.0649284
-0.00460343
-0.00100244
0.07379
-0.0128733
-0.0599877
-4.24338e-05
-0.00341584
1.90558
-0.0437764
2.37627
2.98646
0.0469575
0.0236918
-0.122386
-0.0482421
3.23296
0.0929585
-0.0175347
0.000366701
2.58284
3.14982
2.01622
0.884291
-0.181769
-0.00057987
-0.205239
-0.00290354
0.00726269
-0.0957191
2.36527
-0.113786
-0.00132978
0.017306
-0.00527695
0.987612
2.45652
-0.00272078
-0.200117
-0.00625241
-0.00880257
-0.0111798
3.11113
0.0259375
-0.00711407
-0.00344048
-0.0336074
-0.113113
0.9716
-0.0277062
0.0171393
-0.0190785
-0.00141405
0.0919406
2.48445
-0.250985
-0.0101621
0.111382
2.42582
-0.00749519
1.25131
2.76809
0.00621527
0.000193023
1.38289
2.35993
1.4663
2.11285
-0.156622
-0.0115719
0.00277795
2.36495
-0.163003
0.0142179
-0.11991
-0.0698359
0.0596992
-0.181447
-0.00865765
0.00293693
2.29068
0.02106
-0.193383
2.82492
-0.10306
2.71082
-0.000115463
-0.189093
2.61397
3.26695
0.123943
-0.0236988
-0.0630168
-0.00628735
-0.0104292
2.70159
0.0862978
-0.139634
-0.00968058
-0.00742599
-0.012255
0.0255894
-0.00441668
2.12439
-0.00364292
0.109185
-0.0150817
-0.0354007
-0.00589436
1.75968
2.57301
-0.249952
-0.248225
-0.245031
-0.00529422
0.0329999
-0.00298454
-0.239958
-0.235813
1.75711
2.54744
-0.230418
1.72349
-0.098859
0.0742195
-0.0883893
-0.224122
2.17933
1.68947
-0.217253
-0.0597241
2.57359
2.19075
-0.0113418
0.000906306
-0.0110737
3.06368
-0.00199324
0.000693604
-0.0171794
-0.01378
-0.00873372
0.0170691
-0.0159261
0.0797731
1.2073
-0.0717786
0.000665031
-0.154981
-0.151445
-0.101567
-0.146242
-0.252676
-0.0118591
-0.0223013
-0.0196258
-0.0179687
2.63464
-0.0183659
-0.0224817
0.337504
0.000364515
3.01822
2.56929
-0.14323
-0.0209408
-0.0026349
-0.023884
-0.000713132
2.50321
0.699027
-0.00723365
0.297821
-0.00165725
0.262499
-0.00812053
0.231226
0.203824
2.86974
-0.0996139
-0.00178055
-0.0131867
0.0310977
1.7126
2.32316
-0.199223
2.30568
3.13822
0.00653649
-0.056996
2.23597
-0.0272067
0.802919
3.02692
2.2207
-0.0752144
2.24123
-0.0252133
-0.0547729
-0.00960176
-0.0113432
-0.194565
-0.00030677
0.72453
0.651798
0.583224
0.518701
-0.0990173
0.894171
0.00349318
-0.0142853
1.95138
-0.0617627
-0.000851493
-0.0174888
-0.0308481
-0.187315
-0.000980499
-0.0833577
0.210808
3.43702
0.805129
2.53634
1.0824
3.57723
0.723496
0.646347
2.9218
2.98818
-0.0930727
1.88558
-0.000999493
0.46649
0.57588
-0.0348468
0.511387
0.085054
-0.136114
-0.0154143
-0.0281355
-0.0392795
0.0115812
-0.0318065
2.51379
0.096289
0.0448982
0.00787704
-0.173908
0.0383472
2.77305
-0.00373374
2.38374
-0.0592452
-0.11617
1.29554
1.3641
-0.0978112
-0.245144
0.0211238
2.48261
2.04285
2.04399
0.158703
0.00484596
1.20908
1.12437
0.0186221
-0.00211756
-0.0102451
-0.0404938
1.03936
0.0178854
1.722
-0.0441545
2.66523
2.53488
0.00237644
2.52196
-0.000766309
2.95731
2.86025
-0.0227583
1.25991
-0.203337
0.0376433
3.56556
0.0197859
-0.0798031
1.08542
-0.000669507
-0.045021
2.16572
2.52777
-0.0395988
-0.13771
1.16
-0.0111952
1.95534
2.23206
-0.0500986
0.36333
-0.00606954
-0.0557168
0.00171946
0.00245577
-0.0132482
-0.0357332
0.241496
-0.049639
1.35434
-0.00393388
-0.0830734
0.179965
1.62521
-0.236112
0.0272773
2.19114
0.016839
-3.61104e-05
-0.01971
-0.0168531
-0.191644
-0.085451
-0.0554315
0.0204528
1.86567
1.60552
0.805388
-0.0718302
2.608
-0.0613899
-0.0523665
1.63809
3.55607
2.53661
0.0285317
-0.157882
0.064752
-0.106454
-0.0821673
1.5223
3.50621
-0.0711493
-0.111401
1.32367
-0.000774336
-0.0498108
0.00248288
-0.029511
2.73069
1.76652
0.00103049
2.50414
-0.162888
-0.00463577
-0.112739
-0.0370843
-0.00223257
-0.0398007
-0.102855
-0.0376543
1.82184
3.41899
2.70381
0.192864
0.383118
3.45296
2.82932
3.39226
0.00182537
-0.0913925
-0.0153422
3.48988
3.3555
1.20505
2.26234
0.125463
3.31736
0.402426
0.019775
0.878814
3.27719
-0.0493483
-0.071316
1.92482
3.24104
2.57003
2.16534
0.544609
3.20026
-0.00443037
-0.214966
3.1933
0.00591443
-0.0552269
0.122892
3.16058
-0.00975081
2.59421
3.12052
-0.000109572
0.429488
-0.0376402
-0.00860304
0.0223523
2.50236
3.05224
0.616079
2.5349
1.72096
-0.184818
-0.000855274
-0.00118224
-0.106961
0.000226272
2.04112
0.0585322
-0.0284673
-0.0950317
0.988899
0.0758282
-0.139342
-0.0154899
2.66318
-0.135482
0.203654
-0.127427
-0.112142
1.40336
-0.129769
2.38409
2.59535
2.71631
0.772472
-0.0752014
2.75154
-0.12166
0.367475
1.1955
1.77909
2.49917
2.26165
2.76119
1.95616
1.60009