/*--------------------------------*- C++ -*----------------------------------*\
  =========                 |
  \\      /  F ield         | OpenFOAM: The Open Source CFD Toolbox
   \\    /   O peration     | Website:  https://openfoam.org
    \\  /    A nd           | Version:  7
     \\/     M anipulation  |
\*---------------------------------------------------------------------------*/
FoamFile
{
    version     2.0;
    format      ascii;
    class       volScalarField;
    location    "5";
    object      p;
}
// * * * * * * * * * * * * * * * * * * * * * * * * * * * * * * * * * * * * * //

dimensions      [0 2 -2 0 0 0 0];

internalField   nonuniform List<scalar> 
30084
(
0.0572525
0.54462
-0.0544651
-0.201769
-0.0149336
-0.230493
0.0138894
0.0599707
0.012623
0.00114678
0.0486463
-0.025545
-0.00297587
-0.000148992
0.731869
-0.0364339
-0.00099086
0.396449
-0.0132741
-0.0636569
-0.00532439
0.0118533
-0.0548969
-0.0131088
1.56308
0.541188
-0.00319587
1.3783
0.723536
-0.00923778
0.0972459
0.288619
-0.283292
-0.0339366
1.38701
-0.0270152
0.644504
-0.164817
0.034659
0.0335733
0.00268162
-0.0926553
-0.000882509
-0.0497108
0.000193851
-0.0079353
-0.022391
0.00047101
0.0207309
0.630328
0.080197
-0.179627
0.296008
-0.224105
-0.0356093
0.690549
-0.0208168
-0.00546977
-0.0218659
-0.0626831
-0.00037429
-0.0128489
0.475732
-0.0225239
0.930051
1.48318
-0.0372658
-0.0499897
1.42658
0.0027966
0.536818
1.19216
0.0158063
1.50852
-0.0473456
0.218276
0.804721
-0.149579
-0.000279515
-0.0629548
-0.210801
0.698265
0.0570226
2.79195e-05
0.0258699
0.00145701
0.962265
-0.00308448
-0.00287737
-0.31243
-0.112515
-0.150399
0.019179
0.313929
-0.323365
0.995269
-0.138659
0.00295249
-0.218358
0.807004
-0.000296112
-0.140803
-0.000365976
0.229234
-0.184756
0.478938
1.06204
-0.0027671
-1.70219e-05
-0.237612
-0.286461
0.109774
1.6998e-05
-0.00889372
-0.000968666
1.17327
0.761862
-0.0694083
0.000157446
0.0179816
0.293327
0.574086
0.220022
1.48449
0.0067588
0.281555
0.411128
-0.0407083
0.0251191
0.000161875
-0.0439949
0.788147
1.20447
0.16838
0.226326
0.094467
1.10592
-0.14407
-0.214039
0.789436
0.298937
-0.2738
-0.258472
1.29086e-05
-1.06467e-05
-0.0153128
-0.0208053
-0.22252
-0.0937451
0.61556
0.165957
0.086143
0.00269552
-0.000802643
0.722425
0.00326978
-0.0445891
1.0796
0.835365
0.0955702
-0.202679
-0.196319
0.707734
-0.000288635
-1.17233e-05
-0.0697598
-0.252267
0.000331658
2.06684e-05
-0.0411732
0.000246697
0.0354038
1.09401
-0.142204
-0.132518
-0.0301885
0.0128906
-0.144394
-0.00703017
0.254538
-9.07385e-05
0.000230515
0.960129
-0.0473437
-0.21514
0.736046
-0.0376275
-0.106405
0.0234625
-0.00807024
-0.00170222
0.0192217
1.50045
0.713216
-0.0819185
-0.0428298
1.30093
0.657646
-0.318114
0.00713021
-0.0254451
-0.2547
-0.0241075
0.00520007
1.10879
-0.0398503
0.0422956
-0.225979
-0.243558
-0.000183456
1.26525
-0.00627424
1.00815e-05
-0.00331003
-0.102372
0.530683
0.00672273
0.0412416
-0.0129784
-0.315549
0.000187269
0.00293237
-0.0139613
0.396552
-0.0166653
-0.00851063
0.278627
0.00080049
0.000180751
0.0322528
-0.154098
-0.12851
-0.028372
0.53227
-0.0875126
0.0898342
-0.000156869
-0.018005
0.00484764
-0.0150325
-0.293937
-0.00833196
0.00290105
-0.00914085
0.0184464
-0.0623027
-0.000272943
0.0132893
0.000280553
0.401797
-0.0201561
0.000910637
0.484361
-0.263902
0.00155354
1.66143e-06
-0.274499
-0.289391
-0.052682
-0.0479647
0.166487
0.928669
0.000491915
-0.149368
0.264856
1.33086
-0.0479167
0.727296
0.233521
-0.00101171
1.72859
-0.00330708
-0.144168
-0.311144
0.0137875
0.409356
-0.0496855
1.2194
-0.0207926
-0.10476
-0.00149659
0.923378
-0.0141513
1.0087
-0.0031133
-0.0346773
1.34959
0.354445
0.277788
-0.18248
-0.000928479
0.017837
-0.00104369
1.70144e-05
0.411361
0.000232861
-0.114479
0.253234
1.57662
1.19514
-0.235163
-0.10371
-0.123086
0.0931096
0.0228474
-0.107554
-0.24409
0.945231
1.19088
-0.00777948
1.05015
0.401355
0.233241
0.0721865
-0.00591278
-0.00597495
-0.0322422
-0.0161766
-0.000343061
-0.00945619
0.20569
0.938578
0.010129
-0.158268
0.0838331
-0.000205958
-0.239462
1.63444
-0.0378144
-0.00787659
0.0766949
-0.0603564
0.553178
-0.00788516
-0.000180108
1.72036e-05
-0.016362
1.35655
0.184797
-0.284989
4.13493e-06
-0.306265
0.377965
-0.0308978
-0.297755
-0.00720759
-0.00270924
-0.14306
0.00574957
0.268263
0.0638911
0.72572
-0.000635597
0.0163719
0.569594
0.295793
0.00266184
0.00282427
1.1717
-0.110261
-0.00883914
0.681939
1.34509
0.0648158
-0.0352366
0.538122
-0.00475915
-0.0517966
-0.0203233
0.646495
-8.09191e-05
0.0615982
-0.0398494
1.20213
1.49845
-0.0365098
-0.0539215
0.948205
-0.0660178
-0.000333582
0.703295
0.415664
0.421591
-0.0423287
0.150473
1.37536
-0.134307
1.26801
1.20706
-7.22331e-06
0.204867
-0.116238
-0.0174805
0.0103218
1.35387
0.185692
0.00176427
-0.177805
-0.260668
-0.0339895
-0.000739903
1.04085
0.748912
0.000304922
0.025903
0.034174
0.0909085
-0.181186
0.000406427
-1.28772e-05
0.00312125
0.56328
-0.163813
0.971083
-0.287665
-0.09954
-0.131408
0.671124
0.476299
-0.00754081
0.0509221
0.00535692
1.28669
-0.152394
0.0068606
-0.0460013
0.318998
-0.00807416
-0.073906
0.00149478
0.00153319
1.65036
-0.0494925
-0.0306034
-0.00262059
-0.00464661
0.899509
-0.0347182
-0.133365
3.15142e-05
1.07038e-05
-0.157568
-0.0413654
-0.032153
0.105721
0.0392913
-0.0128851
0.333158
-0.10631
1.25458
0.0436798
0.00158388
-0.236186
-0.131987
0.427503
-0.0202349
-0.131433
-8.72966e-05
1.44481
0.118273
0.000548744
1.50019
-0.138498
-9.36096e-05
0.00931186
-0.240238
0.11056
0.282406
-7.81011e-06
-0.0495114
0.00147132
-0.0329821
-0.00298465
-0.0510245
1.30974
-0.0502194
-0.0711677
0.747702
-0.0176835
1.31206
-0.000104922
-0.0897258
-0.22259
-0.127581
0.208714
-0.0094366
0.0224623
-0.000938666
-0.112658
0.100311
-0.000194742
4.14227e-05
-0.0391929
1.23365
0.0548682
0.0163233
-0.32334
7.37969e-06
0.00633989
-0.00024558
0.0662254
-0.105597
-0.00247971
-0.0470015
-0.0759144
0.00658497
-0.00011037
0.332566
-0.00231963
0.351732
1.13871
0.956692
-0.0197072
0.0386754
0.154322
-0.000561635
-0.0200831
3.55197e-07
1.21784
-0.0824365
0.104198
-0.103999
0.0134623
-0.0189801
-0.000661992
5.05061e-05
-0.0296569
0.302904
0.852646
0.00803805
-0.211217
-0.152013
-0.0485389
0.612517
-0.00841509
0.0110847
-0.0346419
-0.000609179
-0.244928
0.924344
0.697842
-0.134322
0.90318
0.000551187
2.68022e-05
0.695465
0.425796
1.49214
-0.176984
-0.130602
0.337332
0.00763378
-0.0361652
0.00298213
-0.0650776
-0.0773996
-2.00508e-05
-0.00571548
1.19518
-0.000873571
1.41163
3.57612e-06
0.423849
0.34082
0.345992
0.00681567
0.00121786
1.21128
0.365671
-0.228488
0.709267
-0.0356622
-0.0810249
-0.0256814
0.991532
-0.152148
0.102049
-0.0450039
1.00058e-05
-0.00831857
0.0386824
-0.10864
-0.131229
-0.247413
-0.109849
0.497374
-0.0136254
-0.308734
-0.0839054
0.000261397
-0.07396
0.0919733
0.504341
-0.161334
-2.16878e-05
-0.109859
0.00108625
0.00913523
-0.10556
0.969677
0.00589927
-0.0728333
0.0615399
0.355681
1.2914
0.0119038
-0.0224767
0.925618
0.624172
-0.0840748
0.0318985
-0.27304
-2.97926e-06
-0.246087
0.00055918
0.0518518
-0.000176455
0.000178772
-0.0297119
0.493863
1.16872
0.100293
0.0787125
3.38582e-08
-0.0390791
0.000578647
-0.0204125
0.00018014
0.295309
-0.00307097
0.725598
-0.000814943
-0.0782971
-0.214411
-0.0269473
1.28547
-0.10096
-0.159849
-0.035326
0.249955
-0.224321
0.166814
-0.0185677
-9.23222e-06
-0.0261799
-0.0252332
0.00162198
0.000556623
0.989794
-0.0311287
0.383899
-0.0196987
0.00560942
0.188465
0.00108899
-0.000114697
-0.243436
-0.0223141
0.000198986
0.920096
1.59407
-0.00135983
-0.206309
3.87066e-05
1.3877
0.425566
-0.201823
0.000293223
0.102633
0.308691
0.354854
0.280562
-0.00259319
-0.000868532
-0.091705
1.22536e-05
1.55416e-05
-0.155379
-0.13233
-0.242028
1.54275
0.00131934
-0.109506
0.0495599
-0.000102621
-0.00754138
0.000222512
-0.0359927
0.000279155
-0.00897832
0.162093
1.3011
0.243279
-0.00180274
0.00303037
0.0709506
0.376133
-0.0197018
5.71643e-05
0.832351
-0.232395
-0.171432
-0.085869
-0.000113754
-0.00178982
-0.234902
-0.0996762
0.604301
1.25089
-0.156269
-0.008134
-9.33402e-05
-0.238571
-0.285009
-0.00130904
0.0279531
-0.0812566
-0.0295935
1.18944
-0.00828334
0.0888495
0.822441
-0.0481661
1.49695
1.47637
-0.000180441
-0.000180321
-0.0997435
0.0975773
-0.199354
0.0343641
-0.0466245
-0.00369122
1.3562
0.711195
0.0148428
1.70832
2.99644e-05
0.466296
-0.233402
-0.102296
0.000630291
-0.206987
0.479042
0.0936607
0.323265
-0.00291543
-0.00312062
0.0186769
-0.0219811
-0.0809233
-0.00661961
0.598265
-0.0294966
-0.0325029
-0.33198
1.15737
0.255894
0.185096
-0.002599
-0.0033128
-0.116088
0.00648801
-0.0165826
-0.000108718
-0.0022511
0.480232
1.21654
-0.000826954
0.912281
-2.17656e-05
-0.0211452
-4.05419e-05
0.035165
0.315072
-0.000240825
-0.000246956
-0.293207
1.4066e-05
0.287786
-0.125396
-0.00016472
0.751099
3.17066e-06
-0.00259033
-0.000564665
-0.0313212
-0.00230538
-0.0384969
-0.251782
-0.00203863
0.0276894
-0.000117313
1.15537
0.0800779
0.257924
-0.18774
-0.129809
-0.00693048
0.0190666
0.813861
-0.136704
0.831297
-0.22803
-0.0218487
-1.2987e-05
-0.0357636
1.21021
0.805491
-0.171439
-0.287532
1.12314
-0.0519029
-0.229165
-4.14238e-05
-0.130853
-0.00536952
1.67935
-0.216623
-0.00055093
-0.306845
-0.140834
0.895166
-0.0163827
-0.147542
-0.0215311
-0.0276327
-0.00808652
0.8916
-0.293549
-0.110803
-0.0877367
-0.0776888
0.0360158
1.10819
-0.108512
0.710039
0.0177684
0.222546
1.42566
-0.0528457
-0.00147498
0.915947
1.19784
0.0219402
0.186741
-0.0381061
-0.185299
0.922204
-0.243108
-0.000122407
-0.045369
0.000218717
-0.0278584
-0.000130393
-0.024627
-0.00609814
-0.0191009
0.132447
-0.00379725
-0.00318501
-0.00645423
0.765622
-0.0129569
-0.0201165
-0.0180479
0.676678
0.0334846
-0.00216634
1.19889
1.4591
-0.113298
1.36067
-0.0997702
1.13185
0.0343752
-0.0336725
0.01634
-0.00286854
9.85238e-05
0.0163813
-0.0682526
-0.113513
0.698602
-0.130864
-0.115132
-0.00571313
0.169791
-0.128065
0.0412422
-1.94301e-05
0.101688
0.715275
1.18459
0.23192
-0.0757322
0.576174
-0.00190126
0.203887
-0.101947
0.00427778
-0.302376
0.0243722
1.13157
-0.012423
-0.00325468
-0.000593883
-0.225963
-0.0069633
1.68432
1.72902
0.0704374
-0.000194421
0.0495945
-9.5414e-05
0.394939
-0.00321457
0.12815
1.59385
0.441629
0.000105534
-0.0462935
-6.33757e-06
-0.304336
-0.196279
1.34294
0.00138137
0.0679897
0.0252794
0.00170778
-0.0132469
-0.00176897
-0.0339816
-0.180258
-0.127531
0.0543192
0.73774
-0.0740278
0.0373731
-0.112493
-0.00924303
-0.146856
6.61869e-05
0.000262054
-0.0124967
0.163239
-0.120137
-0.0865411
-0.0205512
0.0155855
-0.00566902
1.01201
-0.071558
-1.41728e-05
-0.293708
1.25592
0.157984
-0.0664057
0.491149
2.23298e-05
-0.00382261
-0.15626
-0.000156212
-0.0025252
-0.000100529
1.70715
0.0501616
0.0206019
2.0613e-06
1.25242e-05
-2.09259e-05
-4.59764e-06
-0.125592
1.20464
-0.1945
-0.00245365
-0.000894472
-0.0249792
1.3276
-0.228401
1.25996
0.258483
0.557229
-0.000594812
1.31188
-0.0121238
-0.0507623
0.187986
0.0609756
0.0668543
0.707749
-0.223585
1.29828
1.04157
-0.0424483
-0.140928
0.0781985
-0.158479
4.27467e-06
-0.00508389
0.0151615
0.326178
-0.0351286
-0.126044
-0.0171176
1.5422
-0.24066
-0.000163645
-0.00013976
1.35305
-0.026533
0.0206883
-0.0710222
-0.0121372
-0.0799233
-0.0515285
0.187995
0.563856
0.268472
-0.0531536
-0.0744542
0.000471392
-0.0305865
-0.00215458
-0.0422641
-0.000133489
0.000307322
-0.0544097
-0.104794
1.28691
-0.0117475
-0.000997738
-0.00780911
-0.001641
1.19175
0.163066
-0.000167664
-0.119865
-0.0237282
-0.0181039
-0.143791
-0.173113
0.0358747
0.296901
-0.239258
0.000398363
0.0310206
-0.0712232
-4.65827e-05
-0.000310227
0.469687
0.375924
0.301911
-0.264321
-0.222014
0.00275193
1.42043
0.000453125
-0.0615107
1.22115
-0.0895058
-0.18776
2.18099e-05
0.000853575
-0.185578
-0.0486409
0.00714096
-0.173874
0.831866
1.05554
0.00349099
0.00137236
0.843891
-0.0648073
-4.84017e-05
-0.00735748
-0.146644
-0.10588
-0.0420902
-0.00402671
0.915657
7.27392e-05
0.333982
0.982072
0.000192903
0.0791789
-0.00223955
-0.212436
-0.0699997
-0.00333983
0.129418
0.00109342
0.828696
0.00704269
0.107882
0.215997
1.57557
1.13029
-0.283713
-0.0349609
1.8616e-05
0.376327
-0.0646083
0.624795
1.12235
-0.172338
0.091269
-0.0767102
-0.0290262
0.551459
-0.000900789
1.34648
0.12201
0.000239954
0.000197518
0.000494896
-0.0581729
-0.0802375
0.00349275
0.447338
0.572694
-0.260836
0.00331195
0.000336922
-0.101324
-0.000166801
-0.0124727
-0.047662
-0.00245514
0.3736
0.0217414
-0.00588999
-0.0165347
-0.0687624
1.12927
1.15602
0.169238
-1.20879e-05
-0.0023422
0.866253
-0.00194161
-0.0944773
-0.000863217
-0.0851298
-0.281417
-0.000840409
-0.000971475
-0.132632
0.0064633
-0.000301171
-0.00558764
0.792129
-0.149859
-0.000135146
0.384169
1.12647
1.16726
0.00291564
-0.129582
-0.0397249
1.25049
-0.257995
-0.263341
0.0434754
-0.0552475
0.127264
-0.109953
1.16538
0.407281
-0.000718792
-0.23286
-0.325373
-0.0157142
-4.64473e-06
-0.00723283
0.739287
-0.000761506
0.0688271
-0.0164614
-0.00496994
0.0386541
0.119596
-0.000746406
-0.000505707
-0.0172421
-0.203119
-0.148701
-0.276312
0.82574
-0.0018221
-0.00112326
-0.142988
-0.100448
0.0442484
0.0561882
0.000344628
0.289642
0.556977
0.0777657
0.104857
-0.00260093
-0.0560649
0.416147
0.0054851
-0.000155318
-0.0367772
-0.0167615
-0.00299966
-0.0446166
-0.00347792
1.00902
-0.0374622
-0.275248
-0.0976413
-0.0446834
0.0489098
1.38367
-0.188832
-0.000481253
1.30529
0.608893
0.0322744
-0.0243458
0.0314464
0.291642
0.579216
0.00147552
-0.0074097
1.58569
0.944721
1.10812
-0.184465
-0.00575582
-0.00506538
-0.000140681
-0.00529909
1.05301
0.324156
0.0462829
-0.00420389
-0.00141835
0.19731
1.48827
1.21373
0.314559
-0.0116276
-0.277728
-0.011093
-0.00296561
-0.0650021
0.0800648
-0.114973
-0.0145142
0.00392069
-0.293592
-0.213827
0.122228
-0.101029
0.000257379
-0.109363
-0.000821026
-0.0281431
-0.00282671
1.13905
0.00022041
9.96236e-06
-0.0449838
-0.0824512
-0.120913
0.15824
0.000246326
-0.304205
0.291962
0.701697
1.67535
-0.0188007
-0.14437
0.128434
-0.00846363
0.447682
-0.00244648
0.0438672
-0.000768306
0.952421
0.111269
0.0442422
0.574394
0.44042
0.00630524
0.0156803
1.70252e-05
1.27624
-2.83168e-07
-0.192486
0.00141364
0.00738836
0.671147
0.396792
-0.251091
-0.165008
-0.0162362
1.71692
-0.272335
1.92486e-05
-0.0635886
-0.000149489
-0.0343896
0.403875
0.697244
0.0037243
-0.146784
-0.0383264
0.547232
0.456777
-0.135249
1.55787
-0.0402487
0.000282579
-0.136158
1.59724
0.011757
0.356781
-0.174898
0.595411
0.00776631
0.17139
-0.33444
0.0276316
0.219737
-0.0373595
0.8249
-0.108134
-0.0790681
-0.00321262
-0.00324953
1.42157
-1.36148e-05
-0.0186618
-0.000124815
-0.0328468
0.00147849
-0.0290976
0.935835
1.13383e-06
-0.00414992
0.654867
-0.250173
-0.0828403
0.00485464
1.21057
-0.168517
0.620764
-0.0486644
0.571419
0.0321952
-0.00300139
0.1841
0.00323714
1.45556
-0.106289
-0.000453682
0.00927343
0.527354
-0.0457249
-0.00280317
-0.000501297
-0.22676
-0.0105209
-0.0387305
-0.270667
8.61496e-06
-0.293379
0.00188145
1.11139
-0.0405113
0.5524
0.0200252
-0.0147893
0.94572
-0.149568
-0.121437
-0.0171952
-0.223698
0.970536
1.02446
-0.0572748
-8.99272e-05
-0.0631128
0.0190982
5.95362e-05
0.381721
1.17361
0.0515272
0.00650229
0.0606706
-0.298416
-0.000678895
0.351994
0.214451
0.328509
0.0543342
0.113796
-0.00156096
0.63542
0.147633
-0.253205
-0.00406454
0.111172
0.55221
0.00331582
-0.309683
0.764234
-0.12758
-0.312124
-0.331328
-0.125855
-0.136315
0.212398
0.761584
-0.211598
2.94478e-06
0.0038436
0.152258
-0.00724268
0.072551
-1.40575e-05
-0.0232767
0.0163304
-0.000274914
0.226274
-0.00207643
0.456403
-0.128741
-0.0129237
-0.0280232
-0.0351237
-0.254512
-0.0240085
-0.0039628
0.0863989
0.315895
0.0208354
-0.138365
-0.0120058
0.124383
-0.0387088
-0.0793244
-0.322944
-0.0654295
-0.000128973
-0.0626393
1.29914
0.000134352
0.713317
-0.0610609
1.53071
0.197453
-0.199537
4.57247e-07
0.00696577
-0.302083
-7.4995e-05
-0.011021
-1.53002e-05
-0.265535
0.0186595
-0.212731
-0.095664
-0.000504396
0.917785
0.883061
-0.146536
0.00186708
-0.000693923
-3.87808e-07
-0.000222634
1.42405
-0.00538988
0.00936436
0.0885567
0.00395966
-0.00241409
-0.331235
-0.000937363
0.205532
0.0213314
-0.00848006
-0.0029776
-0.107665
-0.172209
0.66539
0.491226
-0.000661937
-0.0539739
0.00228304
-0.0221998
-0.00180765
0.543684
-0.0225011
1.73091
-0.0327632
-0.00592997
0.296132
-0.0785269
1.1016
-0.174985
-0.0467766
-0.0536536
0.0746402
-0.0146264
3.75351e-05
-0.034048
1.00989
-0.187196
-0.0133557
-0.177383
-0.113918
0.557895
-0.00207414
0.946553
0.0122523
-0.249452
-0.00217187
0.0546939
0.190513
0.0150506
1.10424
-0.00192853
0.133371
0.344311
0.00220359
-0.0005315
1.50025
0.324414
0.000488935
0.124755
0.121001
0.000556846
-0.0246878
-0.0912892
-0.25954
-0.0408841
1.05748
0.0194589
0.776566
-0.00162953
1.21734
-0.305579
-0.0219897
0.0258826
0.127761
-0.23268
-0.111407
-0.0356539
0.000223814
1.60063
-0.0949125
0.00344534
0.0570156
-0.168911
1.11807
0.0125033
-0.0681545
-0.000213914
0.462336
0.0335743
-0.163454
0.00341972
-0.0144263
-0.118932
0.000153164
-0.221414
-0.00640964
-0.0618032
-0.274083
0.941987
-0.042636
0.358621
-0.077116
-0.124673
-8.91712e-05
0.000626021
-0.0153596
0.000158811
-0.0471564
0.358583
-0.00852631
1.41539e-05
1.44787
0.0210048
0.00144413
-0.000147314
-0.00879406
1.08948
-0.230012
1.60128
0.669787
0.094436
0.937452
-1.3373e-05
-0.05704
-0.00348232
-0.0103213
0.694437
-0.04074
1.62482
0.879288
-0.23739
0.895959
0.0400638
-0.059138
0.00939647
-0.0594625
-0.0166234
-0.222158
-0.245469
-0.0125723
0.892967
-0.0414004
0.000604247
-0.0179677
-0.00278441
-0.149374
-0.000684558
-0.00522706
-0.000105322
0.591108
-0.0875325
0.917315
0.122571
-0.0114523
-0.122944
-0.0826865
0.288026
-0.0128491
-0.00445616
-0.284748
-0.188827
0.063401
-0.185739
-0.0188599
0.0916713
0.0171526
0.000153311
0.53212
-0.00015485
0.22793
-0.0033758
1.57494e-05
0.00827745
-0.00279997
-0.00513247
-0.066139
0.704126
0.553685
-0.0852725
-0.0529761
0.0122084
-0.021717
-0.0431313
0.0003861
-0.00206097
0.00293539
0.438947
-0.0344987
-0.23338
-0.167015
-0.0078805
-0.0701067
-0.0235201
-0.00721925
0.022431
-0.0528241
0.846444
-0.258177
0.0287308
0.0137503
-0.157356
1.58101
-0.0419215
-0.0130124
0.0327593
0.32445
0.0169343
0.0186805
0.897217
-0.001539
0.188215
-0.0877826
-0.166604
0.0266983
-0.0155676
-0.0233442
0.170976
-0.0152695
-0.00260968
0.0193935
0.0110368
-0.00096871
0.172577
-0.0394713
-0.0085696
-1.37754e-05
0.596691
-0.000147494
-0.116797
0.314617
-0.0890574
0.000638681
0.433805
-0.112477
0.636706
-0.000189135
-0.0163066
0.550228
0.000754468
0.0209132
-0.0190457
0.0440451
-0.087862
-0.139347
-0.0329431
-0.0113273
0.0418009
0.0857399
0.632515
-0.000784641
0.449784
-0.172813
-0.013747
-0.0294018
0.00170587
-0.1609
0.000320558
1.31013
0.837941
-0.00206911
-0.0890261
0.0011337
-0.00910496
-0.0197897
-0.0365348
0.592219
0.720184
0.169028
0.0430119
-0.319404
0.169007
0.375719
0.443084
-0.221191
0.0885782
0.801174
-0.0403049
1.18097
-0.00386201
-0.0463282
-0.188617
-0.000380591
-0.00315081
-0.000160027
1.17325
-0.0436097
0.00115797
-0.0652989
-0.0142611
-0.00136207
-0.0555703
1.00327
0.00440247
0.0465869
-0.107548
-0.00185288
-0.0192555
-0.00334367
1.64036
0.000897028
0.000116009
-0.00759581
-0.0574933
0.592114
0.00231097
0.101279
0.316438
-0.000604327
0.00911668
-0.31638
0.495108
-0.0795387
3.7797e-06
0.00147657
0.101556
0.136371
1.02489
0.36346
-0.149362
4.9746e-06
-0.167795
-0.0109919
-0.0518868
-0.0501028
0.647102
1.27142
-0.000429879
0.557342
0.831797
-0.0406233
0.029556
-0.0858809
-0.0262137
0.000471546
-0.170675
-0.0350036
-0.000422337
-0.00219921
-0.00649205
-0.00786636
-0.0027648
1.0142
1.10668
0.816878
-1.46938e-05
-0.0978633
0.353699
0.412795
1.32507
-0.00202419
-0.0847872
-0.0772719
1.0868
-0.0794088
-0.0379782
0.101821
0.569084
0.00128411
-0.00194462
-0.0973554
-0.116852
0.611893
0.287182
-0.141441
-0.0900277
0.624536
0.0880256
-0.195685
0.0290832
0.396983
0.683505
-0.00141469
-0.00251586
0.49676
0.000870958
0.241655
0.129094
-1.0456e-05
1.06471
-0.0425338
-0.0183527
1.66092
-0.154431
-0.0263659
-0.157099
-0.0093096
1.26249
0.00487518
1.58185
-0.000536642
0.0399943
1.61949
0.0285138
1.2652
-0.0237334
3.32571e-05
-0.060767
1.31046
-0.00646068
-0.0274066
-0.0333175
-0.00410691
-0.08634
1.29277
0.466367
4.28206e-05
0.0867697
-0.0153815
0.124447
-0.00361988
0.0943491
-0.0108491
-0.00182778
1.23811
1.32972
1.24596
-0.217091
0.436746
0.000631684
-0.242952
0.935312
0.0798361
0.00104005
-0.153006
0.00247928
-0.000412723
1.3149
0.000538098
0.0176925
-0.00783336
-0.0359098
1.25435
1.30543
1.32348
0.0495268
0.00205937
0.761241
0.0314088
0.129032
-0.0374847
0.000299393
-0.0120658
-8.27349e-05
-0.0186245
-0.00302494
-0.0229955
-0.000234901
0.556639
0.00873218
-0.223089
-0.0368303
-0.303319
-0.0672566
-0.00313284
1.13072
-0.0443411
2.3345e-05
-0.000102986
1.56578
0.000123729
0.0471839
0.254831
-0.074278
1.01114
-0.0213764
-0.18225
-0.15227
-0.00184175
0.000535356
0.854107
1.32078
-0.00627043
-0.0779913
-0.000939127
1.3212
1.52356
-0.00583378
-0.0258615
0.0789805
0.0132178
-0.100484
0.000310125
0.0418406
-0.1545
0.258382
1.15304
-0.00603911
0.116685
0.559722
0.34053
-0.185993
0.117084
1.48655
0.714692
-0.229311
1.34302
-0.00233044
1.32446
-0.0263641
1.14501
0.342396
-0.0206341
0.181264
0.00994712
0.0722516
-0.312176
-0.0027185
-0.0957659
1.16725
-0.104995
0.140816
-0.00593943
0.272901
0.69966
-0.0372063
0.309874
0.00299168
-0.0145112
-0.0978909
-0.00874623
0.00834746
-0.0360543
-0.00201509
0.00998838
1.14102
0.00954676
-0.0655924
-0.233181
-0.117822
-0.270237
-0.256821
0.0173461
-5.71713e-06
8.49436e-06
0.888975
-0.171355
0.000257103
0.0141648
0.629077
-0.237672
-0.0605769
0.00049199
-0.00762175
-0.192728
0.586502
-0.0301746
-0.00192161
-0.192357
-0.076708
1.61801
0.412861
0.288356
-0.183817
-5.0694e-06
-0.0272071
0.253488
-0.00144507
8.16272e-05
0.614875
0.400472
0.00255403
-0.00341356
0.0447609
-0.115528
0.0429388
0.0365763
-0.061053
0.00022753
1.0419
0.00243957
-0.00234788
-0.000911818
-0.00086436
-0.000597013
0.311656
0.00417038
-0.0112252
-0.0383572
-0.0173747
0.117411
-0.0215899
-0.170056
-0.0416521
1.23378
1.0589
-0.00192857
-0.00575138
0.388565
-0.00322537
-0.0717669
0.370539
0.551978
-0.0038331
0.0819256
0.158644
0.00546793
0.505676
-0.000386267
0.0299933
0.0785153
0.0562392
-0.0571729
0.188371
0.000312448
0.00692919
0.00119441
-0.000164153
-0.00541774
-0.0384789
-0.0509676
-0.115359
0.35089
0.168054
0.0362762
-0.214593
0.054467
0.0416568
0.0525095
0.00024831
1.28877
-0.0323621
-0.0128382
0.133891
1.63664
2.70787e-05
0.461622
3.46659e-05
0.0450046
-0.0251642
-0.0833865
0.61142
-0.0155642
-3.88925e-05
0.784648
0.267805
-0.00214193
0.198544
-2.92327e-05
0.558506
0.0345223
-0.108532
-0.000531842
0.839562
0.111638
-0.0804819
0.00017586
0.581105
0.99698
-0.00434996
-9.92255e-05
-0.140285
-0.0351014
0.0699754
0.12069
1.33042
0.852633
0.00193705
1.10754
0.857779
-0.0109484
-0.22727
-0.106681
-0.05309
-0.171784
0.690515
0.00327837
1.38553
0.556452
0.0490043
0.00041213
0.00253471
3.81424e-05
-0.00209565
-0.0106373
1.4791
5.3864e-05
0.287931
0.10379
-0.000850942
1.39913
1.52804
0.671151
0.752012
0.298554
0.00966689
-0.00106301
-0.0422486
-3.44789e-05
-0.0041737
-0.263752
-2.9392e-05
-0.00532803
1.4195
-0.0444444
-5.958e-05
1.45072
0.00184813
-0.139841
-0.26856
-0.00495207
-0.232232
-0.000874455
0.662109
0.0129738
-0.0576612
0.00744356
-0.00239337
-0.00144433
-0.000821719
-0.291455
-0.231994
0.521968
0.0111763
0.0132338
0.810704
0.000304238
1.59133
-0.00185592
-0.349552
0.00873545
0.00626205
0.18853
0.200584
3.97739e-05
-0.0154451
0.000434245
-0.00253016
0.00330362
0.303436
0.18041
1.00917
-0.107321
-0.000354745
0.000677065
0.347636
1.13409
-0.0168915
-0.0237908
1.57788
-0.0104697
-0.0791376
0.00410335
0.378227
-0.0883658
-0.0322434
0.53212
0.00517978
-0.000892738
0.00632377
0.259429
1.58287
1.27884
-0.0926533
-0.114938
-0.0237663
0.00598199
0.000119978
0.271204
0.709538
4.53326e-05
-0.0274998
-5.6803e-05
0.00055495
1.22907
-9.67955e-07
-0.246192
-0.173785
-0.224686
0.255426
3.60877e-05
0.0381934
-0.0222975
1.15573
0.157275
0.0190819
-0.114538
0.00247945
1.1245
0.677832
0.0443981
0.258427
1.43677
-0.239336
-0.206384
-0.00712084
-0.0264503
-0.00133823
0.130886
-0.000198812
0.5555
0.0112161
0.716715
-0.125287
-2.28503e-06
0.232658
-0.000595535
6.305e-06
-0.00274768
1.55209
1.49763
1.06719
0.00023895
0.731264
1.3158
-0.00362518
0.0113084
-0.031886
0.416646
1.32512
-0.104925
0.422215
-0.0089302
-0.255394
-0.28981
1.68305
-0.00223147
1.28486
0.313995
0.626041
0.00050972
0.000837758
0.0207626
-0.0335297
0.307032
-0.000169342
0.000270459
1.25726
-0.197817
0.00116473
1.30997
-0.00857232
0.000621197
1.13881
-0.0216417
-0.00554315
0.338708
0.655654
0.00123957
-0.000452902
0.0137059
-0.0151567
1.25753
1.54652
0.963806
1.64186
0.626627
-0.179156
1.44651
-0.000259595
-0.0118469
0.68455
-0.0126679
-0.00241157
-0.000349054
1.31333
0.199696
-0.00238395
1.50799
0.267993
0.93759
0.162293
-0.0101218
-0.0771147
0.613586
0.286435
1.32398
-0.0799277
-0.00288782
1.22338
1.19744
0.0529484
1.01452
-0.135771
-0.0292401
-0.03344
-0.00235558
-0.000489174
1.23166
-0.232238
0.266426
0.00417837
0.537121
-0.121013
-0.0337235
-0.00342757
-0.0119097
1.35374
-0.00294139
-0.0645878
-0.0111033
1.3494
-0.0700999
0.074392
-0.0279501
0.00529647
0.515117
-0.0834963
1.3653
0.671063
1.64092
0.776874
-0.237221
0.11445
-0.00650047
0.124099
0.216274
1.27074
1.34405
1.47117
1.055
1.2402
-0.00127317
1.40775
-9.1724e-05
0.000277756
-0.183143
1.51117
0.180555
0.825296
7.26187e-05
-0.00795964
0.105047
-0.114268
1.24852
-0.00249386
-0.0286466
1.06629
0.00389659
-0.0156389
1.5992
0.171852
-0.103684
-0.0208981
-0.00192362
0.456285
0.670483
1.65922
0.577698
0.373552
0.0172519
-0.000852865
0.0273203
0.624369
0.02992
0.000512832
-0.0323229
0.750552
-0.00542779
1.29986
-0.218616
1.30805
0.00918501
-0.0839195
1.43874
-0.0196932
0.393417
-0.00145682
-0.00478691
-0.254584
-0.0841868
-0.139039
-0.0357873
0.112148
-0.0549201
-0.275747
1.31621
0.00103596
0.00288484
-0.0732814
0.426111
-0.105444
-0.224708
3.77596e-05
-0.0287805
0.174151
-0.000351768
-0.220718
0.336827
1.31195
-0.183204
1.3072
-0.0503244
0.484385
0.763089
-0.132737
1.06757
-0.00606084
0.474965
0.00788492
0.29464
0.642038
0.558137
-0.103673
0.0228917
-0.00229201
0.569427
-0.000279248
-0.000445982
-0.00378323
0.11423
0.0735041
0.0554621
1.14148
0.56206
1.57048
1.07407
-0.00555854
-0.124432
-0.000574144
-0.173791
-0.00381705
0.0212968
0.00239377
-0.103221
0.986735
1.27095
-0.00104488
8.86413e-05
0.355141
-6.83613e-06
-0.0333744
-0.000624188
0.497513
-0.132957
0.588273
-0.232427
0.000171536
-0.0511671
-0.147857
-0.0790816
-0.0599426
-0.201001
0.296377
-0.000577599
-9.72562e-05
0.00765147
-0.000466086
0.329278
0.547148
0.148713
1.47928
0.165113
-0.244152
-0.338694
-0.00155541
0.179848
-0.000419201
1.2409
0.333674
1.40879
0.000552435
-0.11976
-0.0246999
0.188249
0.808725
1.17765
-0.0273123
0.150658
-0.00698211
-0.0610799
-0.0289993
-0.0220633
0.353904
0.00582326
-0.0217157
-0.0738141
0.906604
0.279092
1.63108e-05
-0.00316382
-0.0224457
-0.00217811
0.438759
-0.00238778
-0.0556799
0.537674
0.000301785
0.81091
0.000339656
-7.81317e-06
-0.282834
-0.037242
0.000631311
-0.0821707
0.000680174
1.46475
0.0451402
-0.0901359
1.34923
0.412442
-0.116627
1.12466
-0.00992492
-0.0066741
-0.00746449
0.315691
1.73757
-0.00533378
-0.00207677
2.24204e-05
0.0283835
-0.00445095
0.0898388
0.0221988
-0.0769002
-0.220046
0.0671887
0.0405183
-0.0672544
-0.00190746
0.134874
1.16452
-0.00640315
-0.049987
-0.000809629
1.13905
0.205683
1.1491
0.00159425
-0.00299179
-0.0848498
1.47692
0.469601
-0.103472
-0.00044507
0.114294
0.461369
0.0144626
0.65696
-0.179399
0.078601
-0.247031
1.17387
-0.0498357
0.750502
-0.0113544
1.6667
-0.153131
-0.0397395
1.37627
-0.159482
0.521394
-0.268009
0.566116
0.0233068
0.17793
0.951381
0.174488
-0.181076
-0.0349202
-0.0265175
-0.0145728
0.143039
-0.0048132
-0.200441
-0.104914
0.00729751
-0.246999
-0.308707
-0.000109951
0.621077
-0.0327906
0.666712
1.40967
1.08964
-0.202193
-0.261995
0.00171734
-0.158523
-0.0134388
1.61521
-0.129813
-0.111972
1.07318
0.166293
-0.139648
0.81275
-0.136347
-0.00220804
-0.0423164
0.0364204
0.00258748
1.12046
-0.00967725
0.449468
1.07145
-0.0206524
0.712679
-0.228018
-0.00132275
0.0242654
0.401889
1.07351
-0.00904329
0.331716
-0.249606
0.286747
-0.0831345
1.08804
0.0998074
0.00338975
-0.00895072
0.000689556
1.29735
-0.00867636
-0.0652929
-0.000359174
0.631853
-0.000202023
-0.138221
0.00361004
-0.104556
0.00250619
-0.0349621
0.723026
-0.0139185
0.00335399
0.00242527
-0.0146836
0.321329
-0.000268333
-6.42431e-05
-0.0305401
-0.037966
-0.0797713
0.0292653
-0.00679622
0.258755
0.266648
-0.00450928
0.00368383
-0.00067694
1.28449
-0.0150925
-0.024381
1.15899
-0.0656332
1.09914
0.211479
1.29717
0.689499
0.387931
-0.00532076
0.0403392
0.277083
0.09318
-0.0156612
0.000705449
0.0303213
-0.179371
-0.00338498
-0.0298153
-0.0288324
-0.031547
-8.76393e-05
-0.0117138
0.000245902
-0.000248053
0.00314631
0.972416
0.711432
-0.0399091
-0.0100435
-0.168513
-0.075196
0.895974
1.18436
-0.173585
0.00743625
0.637431
0.0285148
0.00219971
-0.272903
9.47056e-07
0.392886
0.520968
-0.00233035
-0.131289
0.000777124
-0.0282738
-0.0278471
0.385016
0.0895894
-0.19492
-0.00013335
0.0389251
0.00629038
-0.124574
0.0201159
1.30835
0.00135409
-0.0140076
-0.116396
0.830346
0.960186
1.05782
0.232741
0.000210839
0.0239066
-0.0022502
-0.00506571
-0.00341686
0.317625
0.660973
-0.0435471
-0.0665764
0.97479
-0.0148523
-0.0201521
-0.21469
0.362769
-0.00342678
0.299893
-0.0504669
0.347353
0.521067
-0.216797
0.00182696
-0.0102466
0.353688
0.00488093
-0.000220115
0.638959
-0.00142973
1.10249
0.974947
-0.32385
0.900178
0.140099
-0.0130368
-0.174008
1.05186
-0.0735813
0.869849
0.18111
-0.00205691
0.128668
0.00442621
0.553449
0.538211
-0.00679092
0.344298
-0.0262744
0.0192616
0.924807
-0.00465656
-0.00274621
-0.000485316
-0.0336609
0.812358
-0.0207848
-0.0442401
-0.0195532
0.599324
1.46255
0.00248795
0.647104
0.568679
-0.00217197
-0.2552
0.0985847
0.785468
-0.0339828
-0.0606552
0.903367
0.9178
-0.0941288
0.882196
-0.258284
1.02634
0.498757
-0.25762
-7.73052e-05
-0.0255358
0.258727
-0.0625406
0.61904
-1.40374e-06
1.12308
-0.00544936
0.840437
0.00622394
-0.261081
0.802454
0.000217567
-0.00109989
-0.0193695