/*--------------------------------*- C++ -*----------------------------------*\
  =========                 |
  \\      /  F ield         | OpenFOAM: The Open Source CFD Toolbox
   \\    /   O peration     | Website:  https://openfoam.org
    \\  /    A nd           | Version:  7
     \\/     M anipulation  |
\*---------------------------------------------------------------------------*/
FoamFile
{
    version     2.0;
    format      ascii;
    class       surfaceScalarField;
    location    "27";
    object      phi;
}
// * * * * * * * * * * * * * * * * * * * * * * * * * * * * * * * * * * * * * //

dimensions      [0 3 -1 0 0 0 0];

internalField   nonuniform List<scalar> 
11380
(
164.042
-584.291
420.248
-791.239
22.4655
768.774
472.532
-374.893
-97.6386
709.646
240.751
-950.397
1509.98
-1069.37
-440.612
1216.25
-1527.09
310.841
32.1334
457.097
-489.231
169.329
-839.893
670.565
961.864
-1610.68
648.814
-1787.17
1694.18
92.9888
-542.947
1759.19
-1143.27
1936.92
-793.655
604.027
181.421
-785.448
-27.7763
-1329.25
1357.03
225.303
-2012.47
1020.64
-387.385
-633.254
-224.546
388.589
481.215
190.563
-671.778
1153.22
-1316.66
163.434
-328.623
373.585
-44.9622
1014.57
-1340.86
326.291
1221.81
800.68
-2022.49
78.6339
-1659.64
1581
-537.726
-1137.95
1675.68
470.961
181.85
-652.811
-204.971
-379.319
497.238
1012.74
1667.8
-1830.86
163.06
-117.673
-1682.94
1800.62
-1561.22
660.483
900.737
-313.392
651.511
-338.118
-182.098
-75.7175
257.816
1300.29
-1221.66
355.429
-1407.1
1051.67
-1754.21
1754.21
103.02
1553.94
-1656.96
-1087.88
-473.337
684.881
-652.747
-389.874
942.125
-552.251
1331.63
-1317.05
-14.5792
-1099.96
710.086
619.594
401.045
-412.632
-10.1514
422.783
-498.211
807.862
-309.651
-1618.28
1618.28
1253.51
-1437.82
184.308
-489.663
1711.47
1251.44
-309.311
1660.69
-1161.18
-499.508
53.8638
-382.486
2069.12
-1138.15
-930.97
1837.13
-169.329
448.639
155.953
-604.592
-481.303
981.934
-500.631
-1188.5
1291.52
-565.466
968.453
-402.988
394.141
759.083
659.826
-490.498
-437.449
586.372
-148.923
1190.47
-835.04
2308.26
-1080.72
-1227.54
1165.38
-2013.67
848.287
-1622.99
1595.21
440.369
-1583.64
-758.528
1250.04
-491.514
-669.358
355.965
1661.39
-699.527
-1106.93
-870.906
1977.84
737.396
-369.211
-368.185
691.015
560.422
-258.221
1511.73
94.4187
-306.388
211.969
-284.49
755.451
-331.922
557.047
-225.125
-324.172
805.387
-319.334
-137.264
456.598
312.055
160.477
1485.23
-470.663
-1021.38
488.369
533.008
259.745
99.0004
-358.746
945.317
-341.29
-1712.55
578.698
1133.85
15.637
-877.717
862.08
-273.235
586.445
-313.21
159.33
-1093.88
934.549
1050.07
-1065.74
15.6698
373.133
515.748
-888.881
-245.012
693.651
-1102.42
-482.985
1585.4
-676.029
948.598
-272.569
1348.12
-1465.8
-655.71
254.026
401.684
-470.217
-1011.43
1481.65
-534.126
-799.427
1333.55
574.48
-994.27
419.789
-260.316
-312.885
573.201
396.661
-302.242
-1048.68
567.378
955.651
-796.321
-110.445
943.438
-832.993
-199.018
405.703
-206.685
-667.698
-353.679
-386.716
961.197
1856.34
-1856.34
-518.625
-137.085
-951.057
1601.44
-650.384
399.77
-827.455
427.686
-921.036
355.57
-941.9
-1058.08
-1504.5
335.799
1168.7
-260.083
969.728
-342.414
627.413
-284.999
-1941.89
999.99
-1160.86
-343.642
593.041
-1544.1
1728.48
-1726.24
-2.24155
175.924
-601.16
425.235
-1496.31
988.81
507.5
271.646
224.716
-496.362
302.794
-634.715
230.916
-403.604
172.688
2025.61
-844.706
-1180.91
-545.399
132.767
611.961
845.267
-1457.23
-181.936
412.852
432.053
875.476
-1307.53
-900.306
385.383
514.923
-1054.13
1448.27
-1068.04
309.508
743.6
-92.0893
572.89
-336.679
-236.211
1044.75
-556.378
593.538
-1403.47
809.928
-1341.91
239.491
-537.536
264.301
-1232.24
972.158
1931.61
-1012.17
-919.444
276.795
1579.55
-2103.37
901.185
1202.19
350.643
-33.8892
-316.754
-222.198
476.027
-253.829
-88.9451
-393.125
482.07
-456.043
136.709
334.85
-134.593
534.363
437.428
367.273
-804.7
-2058.97
1147.67
911.299
461.105
-522.167
61.0617
215.291
-355.102
139.81
951.862
1073.75
1810.42
-256.479
747.948
-493.922
794.608
-1388.32
593.711
347.723
389.674
1077.3
-1061.67
-463.313
-328.064
791.377
464.117
-125.134
-338.983
793.963
-612.542
485.909
-737.069
251.16
503.333
1157.35
-1240.17
706.042
1021.8
-1559.52
-3.10756
-1439.42
1442.53
328.857
821.06
-1149.92
621.186
269.858
-891.043
-2275.61
1193.03
1082.57
-1128.87
-1146.74
100.038
385.871
959.277
-630.421
877.439
-897.28
19.8409
-2099.4
992.465
-215.491
-184.715
400.207
-42.2839
1770.77
-845.302
54.0625
-1034.8
-1068.57
-226.55
441.841
-691.045
172.42
-282.817
-477.969
760.787
1103.89
-1574.11
782.262
-1374.01
591.749
728.777
-488.025
1947.8
-1444.47
-378.28
-1375.93
18.614
438.483
-530.794
553.259
38.3495
-591.078
552.729
565.196
-293.551
-595.903
273.128
322.775
785.692
-348.264
34.8877
315.755
1188.47
-1191.58
159.765
236.896
451.076
-733.894
617.606
-1004.32
-2026.81
2026.81
-289.661
-482.686
772.347
698.482
405.819
-1104.3
579.407
164.193
422.943
362.749
-2199.77
1328.87
-925.214
-681.229
1606.44
-469.577
-762.663
-293.002
616.144
-323.141
876.453
-288.281
-588.172
-473.76
649.684
349.694
-692.108
-393.215
-104.697
497.912
-1350.74
-480.121
697.031
-1166.61
-374.131
-1244.15
844.373
1463.88
308.569
-873.763
565.193
965.272
-345.679
1391.04
-797.498
436.3
-276.535
-320.899
-919.939
641.498
278.441
-413.14
-506.799
317.664
-406.609
-123.576
-171.195
294.771
-392.844
1091.33
432.784
-242.221
-380.954
1375.62
-168.326
-1207.29
-470.8
302.346
168.454
279.057
289.019
-568.076
-69.6696
-667.4
592.245
-1729.12
1136.88
1488.15
-876.193
-1057.83
-438.481
-1054.79
574.991
479.796
1416.73
-427.92
928.072
-1411.06
-206.51
-120.359
326.868
-466.76
576.127
-1630.26
427.807
903.825
285.541
370.407
-655.947
568.018
1186.19
1101.2
-707.057
-394.14
389.435
-202.908
-186.526
-1419.4
447.576
735.642
-1183.22
1473.11
-545.04
-514.948
989.545
-474.597
426.171
1186.12
-1612.29
47.4474
-723.476
-153.127
412.872
148.838
-330.937
567.495
477.251
-515.45
-13.5128
528.962
1024.5
-1307.63
283.13
670.995
-248.052
468.489
-1447.17
978.679
356.817
1690.28
-524.897
847.108
1084.5
-656.176
-1685.03
759.814
554.396
422.628
-977.024
459.677
79.2365
1750.28
-1829.51
1443.55
-379.492
-1064.06
1699.26
-1741.54
-363.772
-544.941
723.795
-178.854
-502.589
170.678
293.439
-373.084
-1225.88
214.447
-764.806
-638.66
-561.378
981.017
-419.639
-650.069
639.82
10.2494
654.639
-923.21
268.57
-622.578
300.137
322.441
-646.303
-770.554
375.403
395.151
-931.991
1400.48
-431.655
895.233
-463.578
-2205.33
5.55587
165.94
-526.541
360.602
140.765
1234.85
-73.0595
-617.985
150.624
-588.073
1486.85
-704.585
388.822
-459.468
70.6459
-559.266
559.266
1222.91
395.369
1778.49
-1227.24
590.486
636.752
845.332
-51.3698
1293.19
775.932
-541.478
1336.09
293.109
293.336
257.272
-802.213
216.163
-714.374
223.822
-434.906
211.084
-314.905
642.902
-327.998
85.3398
-400.245
-590.799
-564.736
1155.54
-417.191
556.843
-139.652
-1192.14
2032.02
-839.882
1287.28
-328.002
-394.872
134.556
-1992.2
854.246
1575.47
-869.115
-706.358
1987.09
-877.52
-1109.57
714.768
572.511
-239.082
462.904
-695.918
1201.45
-505.532
-768.736
1200.79
552.124
924.466
-1726.33
801.863
-606.352
-48.9895
655.342
291.415
281.475
447.322
-69.8581
-377.464
896.026
-83.601
-812.425
943.385
-598.896
-344.49
1576.11
-472.216
897.721
-1631.75
734.028
1068.43
879.372
744.429
-432.636
-311.793
-1058.73
-258.32
579
569.101
-1148.1
-518.189
521.904
-3.7159
569.844
-332.541
-237.303
-990.316
558.662
592.359
895.795
-441.725
1096.36
1433.9
-800.928
-632.975
385.268
-920.22
534.952
-1067.04
399.337
592.064
-1107.01
445.839
-548.222
102.383
467.409
340.453
-510.451
-48.8144
-793.311
-883.851
1677.16
180.381
209.054
-281.456
381.494
7.93607
-599.03
591.094
512.631
869.755
-1382.39
-432.437
308.861
984.816
-88.7895
834.858
-1063.87
229.016
438.297
844.286
-1385.76
-467.397
834.67
1984.8
-1290.41
-694.39
269.258
608.181
255.304
794.764
109.32
-1008.22
898.905
1673.7
-1088.86
-584.835
-138.181
1888.46
-1866.17
-160.638
481.935
-620.065
138.129
-1009.83
528.671
481.155
-1730.45
538.314
-955.216
844.771
392.313
194.059
550.517
-241.947
-411.316
705.278
259.994
-19.6773
742.307
-722.629
-1155.29
-871.131
2026.42
-572.773
1145.51
-572.737
-490.25
-320.703
105.212
-1659.48
866.166
-809.354
-668.081
1477.44
-328.116
-294.006
622.122
361.636
-718.625
356.989
263.121
-611.385
341.082
182.814
-523.896
380.908
-673.91
692.484
-330.848
314.325
-451.589
697.756
485.308
-206.251
-464.339
-306.214
1236.68
1.44396
-1238.13
1037.93
-420.324
557.549
410.904
-1782.27
869.797
912.47
481.436
568.862
-1050.3
-530.871
202.755
-265.5
1182.75
-917.251
-1590.78
1212.5
504.554
-1095.35
381.402
7.41988
479.649
305.914
-785.562
365.902
-610.913
-41.5505
761.22
-719.669
-524.29
794.148
412.592
319.995
525.338
648.845
85.6243
-461.313
375.689
1057.65
-644.246
-413.401
494.066
-1664.27
1170.2
-1140.21
1753.21
-612.998
1715.91
-1123.67
-333.106
606.234
-1197.31
1306.63
424.307
-798.692
1622.84
-824.145
-280.913
-189.888
-941.028
1473.85
1818.58
-609.864
-1208.72
-405.287
747.448
-1308.83
-124.598
-98.6125
545.934
-710.844
-354.187
-1236.59
-208.4
471.521
901.725
-555.606
162.481
-1675.04
-71.3893
1746.43
-1105.58
532.807
561.618
-1187.86
626.24
900.751
917.831
630.285
619.757
729.968
259.577
-1192.48
496.56
-387.925
426.274
611.729
-512.47
228.38
-725.688
497.307
746.46
-398.737
-251.822
176.105
-617.049
274.37
342.678
-884.319
-747.43
1087.66
-2145.74
393.807
-678.298
-342.72
-723.018
836.332
597.572
-331.504
321.353
419.757
315.155
580.885
-896.04
549.691
651.759
-541.733
148.518
394.104
-683.765
-1080.56
-819.093
1899.65
-1816.79
157.155
1106.31
-1371.81
1208.69
-703.963
-504.73
-505.074
1349.36
-1495.38
627.955
867.422
-282.821
-208.553
491.374
1428.46
558.624
369.44
-474.137
-475.386
-578.672
1054.06
-426.734
592.673
1583.87
-1132.16
-451.708
-850.884
368.198
654.26
403.387
-1623.41
416.201
1207.21
-170.785
511.867
797.405
786.46
179.317
-709.211
529.895
196.487
209.217
-274.56
-109.754
384.314
494.109
39.665
-533.774
-1673.32
615.492
-1625.7
1699.18
-73.4814
16.3238
-1642.02
1069.42
815.932
-336.284
-854.832
-212.204
-1134.58
-239.435
-311.758
677.659
-1813.22
-645.608
1214.71
226.632
755.302
-1334.7
-678.97
-466.432
675.726
-390.186
-1013.25
1350.83
-1933.12
582.291
648.066
1288.86
478.141
-2.11435
715.794
721.497
-1437.29
-632.654
323.895
308.759
433.302
-100.63
-332.672
132.717
322.505
138.468
-460.973
-608.266
1162.66
446.03
-657.84
-458.602
-401.74
860.342
-302.574
96.0645
-450.886
148.644
-299.311
-710.515
538.01
-104.708
-580.609
965.877
570.472
-266.599
-303.873
451.049
-775.221
-648.224
475.345
-1129.35
-858.133
1193.93
-569.771
435.177
356.2
-495.374
126.163
1026.13
-312.711
587.455
-274.744
-509.038
1578.46
-760.688
310.526
370.57
-681.095
209.58
537.115
0.761997
-537.876
-265.789
-185.098
987.832
1108.78
564.916
-901.31
954.549
-53.2395
-449.845
167.024
-804.756
326.787
-585.119
376.248
370.211
869.049
-1290.01
420.965
774.408
-815.959
-948.765
-550.402
1499.17
-156.875
527.282
-562.653
225.975
1326.15
804.541
-625.224
1376.05
-679.017
486.715
-625.874
-408.099
-419.497
-378.302
797.799
498.872
-840.162
-484.78
67.9068
416.873
-308.449
572.531
723.747
-329.939
-228.367
-173.983
402.349
-485.645
124.519
361.125
1464.96
84.7633
-1549.73
-759.219
1351.58
-1144.79
-465.887
606.592
-236.023
1154.42
-380.01
1083.38
492.729
700.727
-443.455
-884.533
-522.566
-1328.26
-16.4171
985.418
-969.001
632.933
379.018
-1011.95
-353.052
-192.347
-687.077
405.554
1621.25
-217.95
390.926
331.229
-722.155
-1839.74
-2106.72
1519.16
587.558
-2042.83
359.883
410.671
558.207
-968.879
-460.647
1018.2
-441.378
-689.346
1130.72
-2030.57
1391.22
639.359
618.162
-1059.54
10.5072
435.331
385.89
182.189
254.111
380.24
1028.83
937.225
673.795
-319.451
-354.344
-286.451
613.969
-327.518
567.338
533.859
563.956
514.353
-1078.31
-795.975
-699.402
749.64
404.779
-420.538
777.526
-1193.36
1609.56
464.81
-1154.16
-357.52
540.334
-1398.24
940.599
457.636
-727.668
-338.121
-740.097
271.972
468.125
447.468
716.945
-1164.41
1079.87
-598.438
-434.991
667.203
-232.212
249.568
320.904
-464.776
-432.373
897.149
-220.459
593.294
-978.912
385.618
-445.949
600.597
-1681.32
424.093
669.593
-1093.69
515.145
112.268
113.415
-2212.81
597.961
-162.784
1445.47
1777.1
-217.546
-1559.56
-438.601
1789.43
-1987.46
1194.66
792.796
393.466
350.963
-53.2184
889.55
-1282.33
717.591
-866.516
-820.583
804.166
289.191
80.652
-369.843
220.573
173.291
-393.864
1569.29
-853.498
-1530.91
-325.431
506.4
-241.339
-265.062
389.989
365.462
248.26
427.467
-12.6565
1004.47
-991.816
438.222
286.834
-725.056
-734.241
1817.49
-1083.25
-342.426
732.415
-1237.79
-419.168
-912.283
479.91
645.393
-857.201
211.807
756.48
-375.052
-381.428
-455.379
-445.931
456.387
1141.76
1243.25
-681.628
796.873
-345.824
423.849
348.499
-228.722
-230.746
-292.201
649.019
408.162
-843.542
435.38
271.858
389.326
-661.184
-418.571
826.733
753.74
-1146.58
923.858
-54.8095
-479.819
279.107
798.196
-97.0655
1385.92
1890.52
-41.4468
343.793
-382.88
468.504
-1089.58
1076.92
686.482
376.35
380.13
99.5078
406.893
248.056
520.718
-378.083
-254.571
-560.362
-89.7074
-369.102
358.539
10.5631
-256.919
-280.617
1010.62
-1540.66
530.036
-146.282
-228.611
-440.87
727.703
-1656.83
1590.88
-962.924
329.755
-737.855
584.344
1224.4
-1808.75
607.457
983.421
319.917
-1128.18
716.868
-344.095
-311.852
1399.74
-1460.23
845.14
615.088
463.211
-643.164
179.953
-398.402
477.463
-79.0609
410.9
83.2094
1725.15
446.969
-250.482
557.685
-1704.79
1147.11
-102.464
427.443
342.801
330.994
-448.819
-613.845
1062.66
403.088
-870.485
-639.781
901.934
571.178
-430.601
-191.978
-434.128
-409.414
-307.873
-826.702
1821.09
-1821.09
-98.1589
-1615.2
1713.36
297.644
272.2
-916.633
-555.769
1472.4
-408.128
972.084
-631.279
-1042.04
729.777
397.048
-1126.83
465.96
-151.635
573.081
1220.34
-1793.42
-1050.27
2114.46
-1064.19
-380.671
-288.686
-519.608
887.806
-1766.13
1612.19
153.938
1766.13
-1620.84
-145.289
-237.423
515.11
-277.687
-537.325
1620.7
1589.12
-2008.29
1129.11
-342.368
-238.278
580.646
213.568
-571.089
-770.252
349.715
1344.81
639.99
590.571
475.162
-1065.73
260.498
440.229
875.102
500.114
-1375.22
544.361
-1019.75
1574.93
-564.309
-793.454
-413.455
-153.291
566.746
-490.502
1207.45
-738.731
327.914
365.737
392.152
230.821
-622.973
605.72
831.364
-602.348
248.777
705.772
-430.601
-379.306
-216.088
595.393
1168.37
-708.531
604.503
470.556
-1075.06
-1279.82
1279.82
-381.32
757.671
-270.893
-487.979
758.871
509.37
432.519
-941.888
398.447
-669.34
600.413
-870.151
269.739
-367.643
-485.944
1076.51
-657.491
-715.809
1373.3
-369.041
962.335
-1552.82
675.297
-6.01821
-401.121
407.14
-569.039
741.459
330.087
312.815
159.75
306.21
-592.668
248.573
1871.17
-1968.24
243.009
-716.768
466.226
-823.724
357.498
-900.81
1457.08
-556.265
-430.389
-481.894
600.959
1124.13
-1725.09
-712.087
331.416
-465.336
1032.67
-813.243
1062.02
-370.414
-619.557
-535.562
751.725
536.139
-354.289
912.458
-319.892
-165.753
1599.04
-1816.59
-337.328
-641.584
-351.041
475.56
273.979
-664.165
-153.838
1086.28
-807.172
187.282
-366.781
-275.745
642.526
381.797
-893.145
511.348
-476.505
-473.472
-873.763
-385.051
585.299
-200.248
-451.698
-452.52
-359.663
-164.233
-417.608
648.429
-483.773
832.272
-1071.12
622.302
-1408.62
599.269
-29.459
-1843.18
1872.64
570.213
-451.214
1257.79
-724.984
242.827
-242.827
676.063
-461.656
1042.75
-1674.03
-1158.74
-947.973
285.581
328.388
906.958
715.879
-531.876
-287.706
819.582
1664.59
-1694.05
-432.668
331.226
233.97
1134.38
-529.872
-943.345
1550.51
-607.161
438.302
-256.113
385.889
450.623
-836.511
552.812
459.786
-1012.6
-330.806
658.72
-38.3278
1909.5
1635.79
992.135
-1696.72
726.178
-1176.31
450.133
-492.531
1367.63
835.815
-1340.89
-598.098
255.73
816.776
-394.147
543.368
-1194.63
651.257
-631.209
-1215.52
-695.73
1911.25
-168.848
551.962
-383.114
-142.896
335.893
-504.741
339.852
357.939
-697.79
-1496.08
755.427
740.654
883.898
-1434.3
819.615
-434.232
202.084
-355.211
-631.979
252.673
-715.429
-682.806
696.213
508.275
-1204.49
379.343
-204.855
-174.487
552.953
-955.941
-595.227
-470.041
796.828
-831.376
-1156.08
-1437.92
499.788
938.134
42.5019
-677.464
328.233
349.231
-1332.62
1050.32
282.293
-614.503
-456.618
-665.325
920.629
393.742
-187.452
-206.291
508.521
980.288
-1488.81
985.331
-557.989
164.657
393.332
-471.312
683.051
-440.042
-503.208
152.167
233.861
-1524.27
519.069
560.806
-794.188
225.149
132.764
-452.656
352.51
-825.982
1954.16
-1195.38
-758.78
466.837
-705.828
238.992
319.371
342.635
98.4781
-441.113
-590.512
184.682
262.287
-691.865
1374.07
-682.209
424.085
508.677
-1236.35
258.19
1866.76
-1013.59
-853.176
783.612
-540.827
155.776
1402.27
-975.061
-427.206
316.553
-778.209
-616.634
1725.41
604.027
639.219
325.025
-35.8347
248.06
-1138.29
1725.72
-587.428
-1763.56
820.217
1782.99
-1710.14
-72.8427
-663.989
276.064
647.26
-742.597
207.035
1402.45
-566.632
373.695
460.975
-1858.87
1420.27
562.807
-477.702
-85.1045
182.983
-542.645
-326.639
-163.611
-346.853
689.655
-671.631
258.176
629.032
542.212
-1171.24
1113.37
-1947.76
834.384
132.334
365.578
-1701.11
1662.78
296.802
-740.257
-172.88
374.965
770.295
676.955
-1447.25
1096.14
-1094.7
516.848
-1115.29
-622.256
244.846
377.41
547.174
-272.804
-647.625
-1026.4
275.569
-728.089
-912.322
153.56
151.743
227.599
417.69
273.169
-690.859
-644.49
-834.591
-978.627
480.269
-1070.78
-319.52
487.974
530.333
663.6
-275.472
-119.4
-460.062
779.979
249.595
-1206.17
561.677
1318.8
-548.509
432.59
-1027.82
-380.18
126.709
436.097
1023.01
551.914
-1732.37
1634.21
1667.43
-616.096
-1051.34
1908.56
-1898.45
-10.1126
229.254
-612.134
-369.783
557.066
-787.071
-336.291
-327.698
1019.81
713.489
-1536.2
822.715
247.507
-26.1806
1625.22
-1128.81
420.28
-1293.28
499.826
-62.4345
1527.4
1196.75
-470.57
-484.81
-73.1785
-247.538
736.105
-1951.62
-704.991
365.99
-530.263
164.274
189.915
-502.626
1139.97
671.652
-1811.62
-627.658
149.956
941.432
-1497.2
-210.549
678.678
-468.129
888.571
1111.43
-750.157
1354.18
647.119
-550.681
-96.4386
-336.31
1181.45
1072.36
-1982.36
910.002
-1181.55
535.943
1488.65
-586.719
-420.064
-121.669
-1248.41
566.785
1176
-42.1462
946.364
776.273
-1722.64
-189.616
578.983
-1541.69
962.709
487.039
916.274
-1403.31
635.964
578.746
417.472
-1106.58
588.45
1115.48
1214.82
-452.008
-762.815
-1186.2
-1754.93
-2.6963
-1729.67
-176.394
-466.771
1613.84
-638.472
-975.369
-490.786
1121.07
-1324.19
631.539
692.65
-1366.94
1451.71
-1337.05
586.895
1520.41
-436.639
-582.738
162.674
-1516.91
228.144
176.39
208.425
438.694
471.419
409.782
-881.202
506.502
-938.647
899.697
-1444.74
-723.011
215.017
507.994
-1057.97
449.701
-493.387
867.082
694.606
12.3001
-530.712
147.598
-886.57
-1318.76
-709.637
343.926
365.711
394.02
-719.97
325.951
-471.044
-189.344
-707.936
729.522
1540.41
-594.046
832.162
737.13
1344.52
-844.402
-970.668
-571.023
-791.389
428.947
362.442
-1034.83
-635.642
297.432
338.21
-1433.68
-296.775
-785.943
393.103
392.84
-667.88
440.076
227.804
-690.3
250.258
412.833
484.316
389.771
436.962
476.048
384.294
594.544
-967.628
705.875
456.787
450.966
355.743
-806.71
1630.7
-1079.78
-550.926
-505.066
-298.682
-1033.94
450.391
347.408
409.778
591.929
-1001.71
-1387
748.53
-524.56
1150.8
357.756
-35.2507
412.575
-861.723
449.148
-1910.11
294.906
438.04
-722.394
284.354
-192.727
396.68
-203.953
-657.145
295.988
361.157
-667.76
313.416
370.559
387.112
611.225
-1019.35
750.832
666.3
-1417.13
438.886
623.778
336.504
391.344
-727.848
404.662
327.753
625.191
712.487
429.268
626.668
-1049.31
422.644
-1694.97
1154.3
540.667
1696.54
-539.188
616.982
-1146.49
529.513
-638.031
344.024
437.755
-932.253
494.498
802.858
-496.944
350.375
339.28
604.019
-941.347
654.84
-1251.85
597.013
417.617
733.354
-1223.86
768.128
510.235
-1278.36
510.535
394.187
-904.722
-501.875
-936.046
-289.526
629.377
352.405
539.812
-892.217
327.923
330.797
-502.198
1944.73
435.025
-844.576
409.551
-917.419
-808.909
-743.329
361.901
-1244.42
431.172
-1752.37
1620.84
131.532
1756.48
-1612.19
-144.295
-779.952
-584.483
258.262
326.221
-1782.99
2008.29
539.401
790.081
-1329.48
440.188
715.347
689.392
385.598
-1074.99
2.20992
1617.14
-594.123
385.557
872.233
-643.222
322.014
321.208
-378.643
-295.285
544.852
-207.764
432.48
275.065
-657.624
382.559
256.871
-570.081
-276.466
442.897
-1031.62
588.723
538.084
1092.62
365.929
595.268
307.825
349.501
-657.326
1655.05
-941.562
1692.95
-1521.74
-171.216
-327.612
-819.006
409.593
857.061
-1067.61
-599.371
271.853
-1090.5
1628.58
-1614.62
-71.3407
1685.96
-341.109
-350.061
-370.328
541.767
592.608
-500.062
-22.1048
-549.396
497.256
-282.754
-214.502
1777.75
-1321.36
-617.975
292.999
324.976
396.498
357.331
733.995
-289.587
-399.403
-1756.48
1694.05
459.898
-1099.59
639.688
-40.5633
1674.77
570.436
476.205
-1046.64
102.644
1144.04
-1451.91
-5.08392
-1905.03
219.569
-591.712
305.775
285.938
-954.127
611.407
-894.942
464.554
-1127.42
671.881
455.537
404.033
255.656
-787.532
-363.414
1215.26
885.771
699.63
-1182.37
456.158
726.215
494.821
699.305
-1194.13
-415.592
-248.165
399.908
-958.15
439.157
518.992
21.1967
-1880.07
1080.24
-479.824
-517.975
559.202
-1377.89
818.687
-442.119
799.617
-405.813
507.875
-720.18
1708.01
399.451
-171.851
211.542
-158.408
-246.188
404.595
1895.36
-504.141
-1718.25
1050.11
-594.101
298.817
-1011.55
550.902
-311.891
544.542
904.783
-1449.33
-1102.46
437.138
-21.2928
-1946.95
1721.02
-648.661
-538.639
460.964
-1189.73
728.764
197.954
195.788
-277.485
776.879
696.969
835.26
815.23
-459.487
1083.68
-524.291
468.231
-184.407
-283.824
-1925.81
-712.38
-316.647
-639.378
-6.27307
645.651
455.744
-271.062
573.149
1081.9
-819.126
922.071
1243.59
-425.903
-115.405
-291.126
406.532
949.731
-888.176
-306.723
-1066.28
609.657
1568.68
-813.254
537.964
934.439
-406.438
735.394
-328.956
1129.58
-272.569
379.008
1349.28
-709.041
-211.178
448.378
-1198.03
749.649
-961.088
-197.818
1158.91
438.398
-953.377
514.979
152.694
731.961
482.862
749.326
-168.441
849.537
-426.344
1181.59
-795.992
552.679
-1465.3
912.624
-1216.63
1800.98
-431.704
-1510.19
879.112
-1401.68
-319.088
-466.474
1456.95
-1529.62
782.187
1491.36
192.986
275.246
-370.444
-1752.37
-274.418
-1029.98
1603.13
-1792.32
1792.32
1589.12
-1004.24
-629.404
-354.178
368.273
603.811
-424.791
-378.097
-1389.58
897.05
1125.04
600.682
1202.1
1789.49
-1216.41
-627.422
271.337
1659.34
-1916.96
257.615
816.569
-1268.28
1545.13
-561.705
801.212
344.297
-374.09
555.919
793.44
621.217
1405.21
-282.305
-445.794
-388.106
492.252
-336.3
472.137
735.311
-315.258
-125.855
-352.487
572.136
-219.65
35.9966
-368.538
1107.28
-1720.28
-481.821
-509.43
-572.946
863.35
705.331
-1596.21
904.347
-452.343
-639.339
-515.876
1251.52
362.231
1723.93
-1702.73
-1664.59
1898.45
-1560.54
840.045
720.499
-414.118
-1801.94
918.085
584.449
817.999
-382.611
1794.65
-681.272
-465.956
717.043
444.218
-1161.26
-1103.23
444.287
752.461
-1617.1
473.306
900.768
165.329
-389.197
223.868
-1618.25
-394.215
-480.679
990.129
-686.736
1442.75
-967.371
1855.94
241.043
-561.328
487.464
-294.478
474.349
893.284
543.495
976.92
-463.652
-427.816
574.527
882.422
-1392.68
-40.9943
1587.72
-850.585
519.982
971.373
-1475.73
-1115.89
1793.67
-1243.98
-549.691
1205.95
-319.482
-886.464
-181.555
443.231
-261.676
-457.192
-250.096
419.743
-169.648
134.269
-382.434
1750.71
-1753.4
-481.407
-530.897
-903.404
432.037
-195.314
-236.724
629.033
-503.605
-414.693
-318.296
732.989
-983.964
477.166
-1166.75
675.959
406.372
-654.396
-440.497
1593.76
-877.881
530.207
-458.596
-568.52
-463.101
355.417
-344.542
-10.875
-1141.98
416.995
-665.181
-1033.41
1698.6
-625.378
-1425.72
709.915
562.414
-1596.23
1033.82
-426.962
-486.797
158.513
571.455
-1258.19
742.319
539.286
1005.84
-2133.16
999.979
1133.18
-389.085
403.798
-378.446
-25.352
1477.93
-383.412
449.676
1138.96
582.881
905.771
565.434
528.295
-1093.73
153.72
-464.688
-1710.14
235.937
1127.46
-635.018
518.751
1013.45
-1532.2
1092.74
-1643.67
197.484
726.375
567.943
-874.666
-1086.2
-164.374
417.456
-253.082
-585.854
-454.92
-636.562
-621.117
343.632
-1620.21
938.979
-477.284
214.311
-386.162
526.169
-306.6
-633.63
1196.87
-1329.31
953.753
375.553
-1032.63
-398.379
-770.267
-836.213
1699.56
-477.552
1800.17
-1594.49
-205.681
-1556.54
1018.57
537.971
-737.294
-249.96
430.119
-180.159
-613.994
384.62
265.629
-650.25
-524.551
1012.29
623.27
-351.417
-1620.19
1050.42
571.841
1103.44
-1675.28
-441.264
-280.622
-376.523
-755.463
-515.975
-331.201
490.951
1557.97
-995.555
-773.563
1497.43
655.12
-323.894
725.884
1152.34
-1878.22
313.23
313.011
-487.73
-1935.79
1722.4
213.387
732.551
-475.348
-257.203
531.892
1060.7
-1592.59
355.417
-1734.76
-233.218
1752.38
-1580.62
1073.7
506.929
-1740.38
5.61926
-522.245
403.798
1701.11
-1722.4
939.071
625.693
-1564.76
367.387
-214.106
-153.281
-444.36
-245.939
59.7988
93.9949
-343.955
-420.61
-449.541
-399.621
206.894
1510.11
379.243
-193.917
-473.963
451.114
-188.827
336.766
1510.66
965.788
-196.505
-769.283
-1104
1704.96
-1729.03
1063.85
-707.668
-1021.36
-1265.06
1844.98
-579.922
1155.04
-1771.31
616.271
265.746
-877.387
1676.05
43.3913
-1719.44
-491.204
-1082.9
-1750.71
-979.847
552.031
1019.46
590.312
1132.94
-1723.25
273.552
-509.574
698.078
-384.662
414.701
924.009
682.434
-376.905
-672.407
582.97
1072.43
-1655.4
-411.208
-358.308
769.516
430.079
-1662.78
1521.74
141.047
577.34
-1042.68
544.77
1083.81
-1555.57
993.86
-229.943
213.275
343.79
1908.56
463.63
-53.9855
995.838
722.749
-1718.59
-696.451
1085.21
-1557.43
154.5
-568.943
188.989
262.125
-687.508
-556.907
582.779
1034.36
-710.588
-268.754
-1368.1
672.611
695.493
-401.999
706.031
150.905
-856.936
562.523
-137.217
1557.49
-201.667
285.944
-781.088
-1935.79
1664.58
1010.17
300.137
301.721
501.136
-929.67
-996.142
-1767.26
629.467
1693.75
499.627
-474.854
1210.16
1086.98
-424.922
1028.73
-975.784
485.335
490.449
701.08
1047.85
-1748.94
476.293
489.584
-1493.82
-744.27
37.2127
775.492
-413.591
-891.92
373.945
-540.585
-800.304
565.193
-578.491
1397.18
1055.19
186.661
230.795
-550.703
1618.47
-776.73
1527.56
-1727.83
575.329
1152.5
535.25
-880.929
-1733.34
1916.96
-183.623
1721.72
172.169
-547.044
357.171
-263.176
-481.759
1210.52
568.274
1128.27
-491.056
419.071
854.116
-453.07
-770.21
438.07
332.14
1419.84
1089.5
-518.426
1422.77
-510.418
-532.808
1043.23
-602.849
550.161
-1254.12
1692.95
1839.56
-687.224
1586.23
-647.16
-1240.39
715.84
-563.111
192.495
-377.211
441.909
-232.693
-516.784
-1246.7
1870.96
-624.261
1173.15
-556.172
1120.22
-1659.41
1712.53
-574.018
-549.481
-549.864
1720.07
-315.784
-688.143
-473.48
1223.13
-1694.02
-1860.12
613.424
393.724
-981.897
158.067
204.71
-1719.02
1204.11
514.903
1162.83
558.89
-513.899
-465.476
1191.69
184.098
212.581
588.449
1251.11
-539.191
-1238.57
1777.76
-1025.16
999.982
866.779
-204.021
-1659.34
1702.73
-510.244
1411.01
-1733.34
-307.497
-48.2867
355.783
-248.48
581.634
-333.154
146.316
495.182
778.074
-384.054
1257.5
1270.44
-413.382
848.35
-438.757
1817.6
-662.559
1586.71
-1723.93
-412.845
-789.887
348.476
441.411
-561.981
-563.735
79.7528
-1138.49
-985.032
-670.723
1655.75
-943.695
-1189.47
204.528
-442.806
-646.68
705.819
1167.43
650.171
1410.22
-592.219
1636.7
1317.88
-575.562
-482.311
187.832
-503.35
1396.63
1239.81
-567.201
-999.977
889.069
61.8233
-950.892
603.397
-506.247
1403.3
1495.02
-589.253
-351.352
351.352
-589.674
1623.49
1238.94
-486.477
1134.11
-53.5749
1854.19
-376.891
1489.44
-589.743
-507.712
1347.76
-648.929
1218.4
-569.468
1554.8
-592.089
774.527
574.218
-1348.75
-684.593
267.46
537.081
601.199
-1957.28
-1018.49
1586.71
356.433
-356.433
-54.6931
381.077
438.538
373.683
37.2167
-276.939
964.63
-547.013
-428.969
810.046
-235.851
613.261
-416.319
1563.99
-444.353
-883.903
174.886
223.193
-398.08
601.177
1250.76
-1851.93
924.12
-459.567
-344.542
126.145
-1943.06
1816.92
-444.198
167.662
1180.86
-440.529
-740.331
-287.897
-604.024
-497.719
-378.446
-470.634
256.132
1157.59
-564.983
231.545
-367.496
135.951
-23.0295
-107.687
1375.93
-1268.24
34.6615
-595.023
-586.554
-443.829
443.829
-1262.33
1985.08
-1344.28
-198.95
-1827.33
232.839
-1025.75
-974.245
-176.1
-1640.52
710.845
1229.32
-1925.05
359.608
318.621
-678.228
-1850.03
1234.26
615.761
-558.151
558.151
-958.773
-40.0302
-1866.17
-558.198
1650.82
-674.943
1636.19
-601.835
-193.891
-1711.13
-576.96
-488.166
-594.897
-458.984
458.984
-1537.81
194.532
1343.28
162.35
221.181
-383.532
522.18
443.608
994.836
-475.844
1751.28
768.589
-414.066
388.714
524.224
1702.07
-594.793
-553.002
1636.81
460.326
1812.86
-645.435
-1804.73
-1938.07
-647.175
-472.369
472.369
-593.608
205.502
-721.698
1017.57
-466.67
-1077.83
-295.553
1579.55
1852.29
1635.39
-1635.39
-323.115
740.262
1761.53
595.81
1275.15
163.468
203.92
624.34
593.216
1603.48
-1603.48
214.279
-360.363
-440.534
448.786
949.367
-464.032
-638.148
-1130.92
1706.25
273.209
-1683.38
641.341
-287.756
459.924
1744.65
-592.147
-211.109
-487.276
373.813
741.667
1738.58
-613.544
-511.804
-784.603
1960.55
-870.465
-1090.08
1642.67
-702.249
1223.95
-1824.97
601.015
398.195
-959.524
-184.75
-100.13
1096.89
-487.228
144.863
654.156
-1680.56
424.963
620.03
-1804.73
-583.306
1787.42
882.85
-1162.86
1760.5
-597.64
1783.83
-575.567
-1208.26
428.39
935.811
-1753.4
924.321
-1465.71
215.59
1250.12
-831.818
-1254.22
-369.521
72.2363
297.285
581.793
261.844
1037.41
-435.042
843.52
-408.479
819.695
743.234
-1562.93
644.87
1066.6
-23.8565
-660.779
684.635
-1744.55
723.189
714.014
150.518
-1122.57
1936.79
-674.573
-1262.21
-537.191
1665.46
842.481
969.212
-1811.69
1227.85
683.393
-410.792
706.78
853.261
1026.29
-587.889
1761.53
625.189
1773.56
-1185.57
-587.991
-437.618
-334.252
771.87
121.457
-1185.52
1660.51
-540.292
-1437.76
1437.76
1250.55
594.43
1351.31
206.657
-570.683
278.812
-179.812
699.201
1113.66
472.71
-288.611
-868.971
-575.765
1747.78
-1747.78
974.758
-974.758
987.341
1025.17
-2012.52
1837.97
-614.014
-581.131
871
-947.858
-1052.17
998.067
691.75
-1689.82
-510.451
-399.045
-660.495
-808.444
2042.71
-1246.41
-613.716
1002.98
974.862
1289.78
647.009
319.435
1012.69
266.957
343.032
1186.19
1756.9
-1756.9
671.172
79.3063
-383.179
-997.064
-539.998
1674.11
988.585
1011.41
-1833.32
-215.6
-361.36