/*--------------------------------*- C++ -*----------------------------------*\
  =========                 |
  \\      /  F ield         | OpenFOAM: The Open Source CFD Toolbox
   \\    /   O peration     | Website:  https://openfoam.org
    \\  /    A nd           | Version:  7
     \\/     M anipulation  |
\*---------------------------------------------------------------------------*/
FoamFile
{
    version     2.0;
    format      ascii;
    class       volVectorField;
    location    "26";
    object      U;
}
// * * * * * * * * * * * * * * * * * * * * * * * * * * * * * * * * * * * * * //

dimensions      [0 1 -1 0 0 0 0];

internalField   nonuniform List<vector> 
29659
(
(1.01332 -0.0171248 1.82996e-22)
(1.01246 0.00570802 8.97196e-22)
(0.988311 -0.00427359 -1.08629e-21)
(0.962058 -0.0644416 3.44499e-22)
(0.996918 -6.6225e-05 1.55146e-22)
(0.944587 -0.0398928 -4.9996e-22)
(1.07315 -0.0963139 9.32559e-22)
(1.01751 -0.0258492 -1.7855e-23)
(1.00253 -0.00244835 2.70673e-23)
(1.00023 -6.21303e-05 8.29748e-24)
(1.01965 -0.0345171 -5.77534e-24)
(0.997428 -0.0209174 -4.15204e-22)
(0.999396 -0.000245956 2.00682e-23)
(0.999961 -1.36316e-05 3.06003e-25)
(1.21689 0.0718701 1.01161e-21)
(0.992347 -0.00247376 1.67063e-22)
(0.999801 -0.00107506 -7.56401e-24)
(1.163 -0.0180937 -8.63648e-23)
(0.997313 -0.00227366 -5.28663e-23)
(0.986157 -0.00102808 -2.39299e-22)
(0.998915 -0.00034716 -7.07732e-23)
(1.00238 -0.00244303 9.48814e-23)
(0.9882 -0.00452057 1.19434e-21)
(0.997297 -0.000217352 6.79196e-23)
(0.804641 0.213716 4.02809e-22)
(1.01367 0.00451067 4.82736e-21)
(0.999348 -7.41969e-05 4.60642e-23)
(0.911937 0.172603 -2.92398e-20)
(1.22116 0.0688756 -2.85005e-21)
(0.999011 -0.0114402 -7.63204e-23)
(1.01921 -0.0138612 1.31885e-22)
(1.04723 -0.00930038 -9.91491e-22)
(0.978954 -0.149558 3.63999e-21)
(0.997788 -0.0289519 2.13939e-22)
(0.907086 0.164578 2.40142e-20)
(1.00475 -0.0410751 6.33471e-22)
(1.09782 0.0545177 -1.35152e-21)
(0.964428 -0.0361027 1.421e-21)
(1.00666 -0.00103404 -3.6441e-22)
(1.00643 -0.000740186 6.93569e-22)
(1.00054 -0.00020566 -2.37248e-23)
(0.986148 -0.038668 -1.45269e-21)
(0.999824 -0.00104484 -1.8539e-25)
(1.0342 -0.0889569 -2.67008e-21)
(1.00005 -7.10542e-06 -2.13001e-24)
(0.999266 -0.0116014 5.69372e-23)
(0.99693 -0.0155451 -1.18137e-22)
(1.0001 -0.000106594 5.0275e-24)
(1.00419 -0.0045772 -3.80077e-22)
(1.09682 0.051008 -5.57115e-22)
(1.14094 -0.104964 6.30635e-22)
(0.96623 -0.056597 -1.63215e-21)
(1.04712 -0.00817217 3.50339e-22)
(0.946378 -0.0395213 -8.34436e-22)
(0.992537 -0.00253731 -1.47184e-22)
(1.21901 0.0573552 -1.83836e-21)
(0.995757 -0.00284139 5.30392e-23)
(0.998885 -0.000382454 8.95852e-23)
(1.00012 -0.0272731 -3.03058e-22)
(1.01426 -0.0731081 -1.14623e-21)
(0.999917 -8.86041e-06 9.42629e-25)
(0.997408 -0.00232958 -1.09006e-23)
(1.25825 -0.0196878 -6.16894e-22)
(1.0052 -0.0401327 -3.5559e-22)
(1.11923 0.14411 1.08545e-20)
(0.849998 0.0569499 6.29562e-20)
(0.999021 -0.0343497 -5.82181e-22)
(0.990903 -0.0174847 5.18419e-22)
(0.889473 0.0357858 2.53329e-20)
(1.00057 -0.00019414 1.53883e-23)
(1.0158 0.00539827 -6.57667e-21)
(0.985876 0.132907 1.66885e-20)
(1.00407 -0.0113383 -1.41661e-22)
(0.847775 0.24993 1.5218e-20)
(0.98985 -0.000801954 7.74161e-22)
(1.13891 -0.0617394 -1.58632e-22)
(1.29122 0.0689581 8.60953e-22)
(0.965659 -0.0204833 3.36305e-22)
(0.999938 -2.81091e-05 -2.44839e-24)
(1.00541 -0.0605979 -1.10155e-21)
(0.946297 -0.000926466 -5.48639e-22)
(1.03201 0.0567335 3.85737e-21)
(1.01358 -0.0178654 -5.4983e-22)
(1 -7.85868e-05 -2.12209e-24)
(1.07588 -0.0937885 -1.44402e-21)
(1.24561 -0.14786 -3.64471e-21)
(1.07256 0.137659 -2.27708e-20)
(0.999372 -0.000242338 -1.82996e-23)
(0.999415 -0.000219248 -5.39231e-24)
(0.917321 -0.0516119 -2.00604e-21)
(0.992897 -0.0666246 1.99101e-21)
(0.96554 -0.0214577 3.77692e-22)
(1.00393 -0.00473138 6.46278e-23)
(1.07422 -0.0152068 -5.40678e-22)
(0.909145 -0.0221187 -1.68623e-21)
(1.0977 0.162666 1.04012e-20)
(0.996216 -0.0862132 3.16165e-21)
(1.00059 -0.000484762 3.80185e-23)
(0.963609 -0.0808805 -3.07995e-21)
(1.22487 0.0994706 5.59564e-21)
(0.999934 -2.75166e-05 3.55049e-24)
(0.967256 -0.0133323 -2.02682e-21)
(0.99992 -1.08922e-05 -4.94685e-25)
(1.0581 -0.0254966 -2.66175e-21)
(0.964467 -0.0564381 1.05704e-21)
(1.0484 0.0162676 6.52385e-21)
(1.01071 0.120377 2.44188e-20)
(0.999439 -0.000221868 -4.48804e-23)
(0.999994 -8.72858e-05 1.28145e-25)
(0.998614 -0.141937 -1.85173e-22)
(0.976025 -0.148043 -3.28232e-21)
(1.05288 -0.0515033 1.17091e-22)
(1.00002 -2.57628e-06 4.61646e-25)
(0.998588 -0.00774175 -1.9866e-22)
(0.99986 -0.00276296 4.26001e-24)
(0.991225 0.135163 1.52521e-22)
(1.06635 0.0785535 -8.06999e-21)
(0.985238 -0.00918349 -8.21849e-22)
(1.00003 -8.58264e-05 8.01611e-25)
(1.00446 -0.0112277 -1.09699e-22)
(1.27106 -0.0682368 9.16621e-21)
(1.00827 0.0173924 1.06277e-20)
(1.19374 -0.0767599 -4.25443e-21)
(0.846798 0.0697875 -5.82013e-20)
(1.00137 -0.000449688 -9.19104e-23)
(1.18589 -0.0560349 5.52838e-22)
(1.16197 -0.0136037 -5.1992e-22)
(1.01973 -0.0703524 8.74384e-22)
(1.00501 -0.00434022 -3.40124e-22)
(1.00003 -0.0005526 2.30293e-24)
(1.03364 -0.0865368 9.52548e-22)
(1.29024 0.062938 1.35583e-22)
(1.04498 0.237045 2.28527e-20)
(1.19884 -0.0933478 -1.2927e-21)
(1.05621 -0.0250197 2.24062e-21)
(1.01865 -0.0133533 2.51323e-21)
(1.19935 0.244167 1.28834e-21)
(0.965742 -0.000989574 2.81632e-21)
(1.15763 -0.222401 1.10332e-20)
(1.22295 0.0931964 -4.35195e-21)
(1.1852 -0.0511432 -5.04563e-22)
(0.925539 -0.00650264 -2.20316e-21)
(0.939147 -0.0556257 6.57789e-22)
(1.00002 -2.32069e-06 -1.95996e-25)
(0.999986 -4.52449e-06 2.66991e-26)
(0.996838 -0.000109999 -1.21213e-22)
(0.997167 -0.0152295 2.41927e-22)
(0.980789 -0.113404 -2.51285e-21)
(1.15537 -0.171882 5.13021e-21)
(1.28251 0.00680898 -1.89338e-21)
(1.03835 -0.0243628 1.23185e-21)
(1.02235 -0.0248789 3.9476e-22)
(1.00054 -0.000786196 5.95094e-23)
(0.999835 -0.000278811 4.18361e-24)
(1.0025 0.034218 -2.37262e-20)
(1.00067 -0.00192472 6.48065e-24)
(0.991655 -0.0142244 1.40886e-25)
(1.2224 0.231948 -3.48781e-21)
(1.00774 0.0684987 -2.60588e-20)
(1.14392 -0.101012 -1.36177e-21)
(0.948804 -0.00352182 9.36366e-22)
(0.963285 -0.0631086 2.50146e-21)
(1.22215 0.0614673 4.72659e-22)
(0.999938 -5.76126e-05 7.33753e-25)
(0.999985 -4.35814e-06 -1.07442e-26)
(0.985172 -0.00965117 2.96196e-22)
(0.940649 -0.0544795 -3.61729e-21)
(1.00007 -0.000283385 -6.0969e-24)
(1 -8.34591e-05 -1.19811e-24)
(0.991528 -0.00643199 -9.87508e-23)
(1.00004 -0.000536288 -1.88809e-24)
(1.00718 -0.00746344 -1.87263e-22)
(1.2195 0.241267 3.93721e-21)
(0.96624 -0.000524203 -2.38416e-21)
(1.05417 -0.139633 -1.19102e-21)
(0.993662 -0.000124005 5.00129e-22)
(1.00264 -0.00338417 2.01138e-23)
(0.966371 -0.0131125 3.34712e-21)
(0.998961 -0.00772374 -1.80764e-23)
(1.1986 -0.0674742 2.56422e-21)
(0.999973 -1.2746e-05 7.75775e-25)
(1.0161 -0.0483973 -5.17879e-22)
(1.07687 0.1396 8.01028e-21)
(0.991277 -0.016245 -2.95606e-23)
(1.1506 -0.219197 -1.05849e-20)
(1.04972 0.0686383 -7.22435e-21)
(0.992123 -0.00354504 -7.31797e-22)
(0.9774 -0.019298 9.1341e-22)
(1.00473 -0.00436206 5.16583e-22)
(0.999106 -0.0106661 -1.18478e-22)
(0.999653 -9.23984e-06 4.94951e-24)
(1.00754 -0.0224678 6.11206e-23)
(0.837579 0.0348706 2.44923e-20)
(1.00158 0.0279269 1.82996e-20)
(0.982095 -0.00777644 2.27281e-23)
(0.992027 -0.0140117 -3.26277e-22)
(0.966383 0.0735501 -2.35094e-20)
(1.01941 0.0446747 3.33382e-21)
(0.911059 -0.0218747 2.08196e-21)
(1.00143 -0.000601891 -7.1653e-23)
(1.08861 -0.11906 1.79774e-21)
(0.96317 -0.107302 3.25381e-21)
(0.997769 -0.0213464 1.9793e-22)
(1.00105 -0.00132361 -1.17155e-22)
(1.20802 0.247783 1.63769e-21)
(0.991798 -0.00644518 -6.65176e-23)
(1.00837 -0.00668633 -2.11573e-22)
(0.978609 -0.112803 3.27384e-21)
(0.999089 -0.145332 4.56821e-22)
(0.999954 -6.54604e-06 2.77766e-25)
(0.979548 0.198754 -2.55263e-20)
(0.998717 -2.89628e-05 -1.19735e-24)
(1 -6.69908e-05 -5.1141e-25)
(0.999324 -0.000258351 7.81938e-24)
(0.996517 -0.0669417 -7.35918e-22)
(1.25581 -0.00302664 1.48619e-21)
(1.01732 -0.0474298 4.31935e-23)
(1.00812 -0.0062461 -1.45116e-22)
(0.997327 -0.000298882 1.69097e-22)
(0.912722 -0.0243806 -3.99491e-22)
(1.00004 -0.000587366 -1.6282e-24)
(1.0006 -0.00196238 5.01974e-25)
(0.997121 -0.000253789 -1.11656e-22)
(1.03573 0.00151524 6.11054e-21)
(0.996733 -0.0049082 -3.662e-23)
(0.998616 -0.00719297 5.87406e-23)
(1.03475 -0.0018283 2.9539e-21)
(1.00016 -0.000479572 7.33577e-24)
(1.00004 -6.15514e-06 5.63339e-25)
(1.00614 -0.000743545 7.37342e-23)
(0.969585 -0.0410974 -1.23389e-21)
(0.969953 -0.000504333 -1.167e-21)
(0.994048 -0.000471721 -5.29252e-22)
(1.01713 0.00424191 5.43434e-21)
(0.980447 -0.0014244 5.62322e-22)
(1.02265 -0.0240453 -3.89764e-22)
(0.99996 -1.52057e-05 8.46382e-25)
(0.996353 -0.00324197 -2.05315e-22)
(1.00098 -0.00131358 1.26685e-22)
(1.08784 -0.114794 1.79769e-21)
(1.07073 -0.224977 7.47191e-21)
(0.998288 -0.000154763 8.70587e-23)
(1.00058 -0.000699018 -4.5301e-23)
(0.998494 -0.00702254 -1.98588e-23)
(1.00434 -0.0100298 -2.72068e-22)
(0.986433 -0.000758626 -1.02187e-21)
(0.99994 -5.49609e-05 -8.29139e-26)
(1.24058 -0.145156 -7.94042e-21)
(1.00006 -0.000600481 2.7223e-24)
(1.03531 0.00142918 -4.30509e-21)
(0.995891 -0.00284458 -1.07034e-22)
(1.00018 -0.000465218 2.89042e-24)
(1.04711 0.016914 -4.14574e-21)
(0.956584 -0.102849 -3.2666e-21)
(1.00031 -5.2599e-05 2.62846e-23)
(1 -1.58103e-05 -2.03094e-25)
(0.925331 -0.00465359 -2.50498e-21)
(1.05061 -0.209672 -1.15811e-21)
(0.989307 -0.0102423 -7.9579e-23)
(1.01858 -0.0719145 -2.30288e-22)
(1.03939 -0.0252687 -2.01533e-22)
(1.08394 0.132264 9.88688e-22)
(1.0001 -0.000100631 1.35807e-24)
(0.97016 -0.0402353 1.25104e-21)
(1.2401 -0.0737489 4.69417e-21)
(0.9367 0.107957 5.47165e-22)
(0.991167 -0.0158812 2.39263e-22)
(1.04765 0.0664127 8.88302e-21)
(1.13928 -0.0574293 -7.05389e-23)
(0.999859 -0.00304036 -7.16724e-24)
(0.680883 0.096135 3.28665e-20)
(0.999327 -0.000544088 -5.25297e-23)
(1.05337 -0.143694 -1.51346e-21)
(0.914185 -0.0243528 2.58733e-21)
(1.0028 -0.0031981 -1.10639e-22)
(1.22381 -0.0279449 -1.14288e-21)
(0.989329 -0.00116266 -6.11469e-22)
(1.05706 0.256734 1.6125e-20)
(0.99568 -0.000328523 4.8653e-23)
(0.978059 -0.0208115 -4.79683e-23)
(0.999748 -0.00276208 -4.10837e-23)
(1.23058 0.147502 1.31852e-21)
(1.00012 -0.0216311 5.26951e-23)
(1.09289 0.165993 6.74306e-22)
(0.999366 -5.74149e-05 -2.03152e-23)
(0.992734 -0.00234828 -2.33209e-22)
(0.955821 0.254361 -1.08339e-20)
(1.04169 9.78853e-06 -4.97988e-21)
(1.03449 -0.00130472 3.43944e-21)
(0.963624 -0.0522952 2.9856e-21)
(0.999811 -4.08135e-05 4.57938e-24)
(1.00421 -0.00968835 -3.09184e-23)
(0.999796 -0.00117437 -1.30757e-23)
(1 -6.34838e-05 -3.29425e-25)
(1.07517 0.00396833 1.27856e-21)
(1.00005 -6.61638e-06 3.67951e-26)
(0.975083 -0.0184639 2.13895e-21)
(1.23684 -0.075675 -4.44407e-21)
(0.79968 0.224158 -2.95008e-20)
(1.05149 0.235756 -3.6414e-20)
(0.960747 -0.0887306 1.00395e-21)
(0.982786 -0.037648 7.83955e-22)
(0.971413 -0.0019471 5.56779e-22)
(1.04256 -0.0474268 4.78573e-22)
(1.00825 -0.0221613 -1.32099e-22)
(0.977256 -0.0202223 -1.26081e-21)
(0.961875 -0.0973829 4.48575e-22)
(1.08245 0.136852 -1.48769e-20)
(0.999299 0.0279625 3.75635e-20)
(0.998401 -0.000188745 4.78185e-23)
(1.0135 0.121014 -3.33469e-20)
(1.07379 0.0022281 4.22643e-22)
(1.19853 -0.0739237 1.21163e-21)
(1.01708 -0.0198964 1.90786e-22)
(1.00143 -0.0199101 -2.6445e-22)
(1.02828 -0.0658063 -6.26694e-22)
(0.993259 -0.00227109 -5.52107e-22)
(0.996664 -0.000825092 -3.56799e-23)
(0.999924 -8.57499e-06 4.84925e-24)
(0.998905 -0.0109294 1.73534e-22)
(1.11693 -0.0588823 7.27221e-23)
(1.23679 0.152428 -2.11632e-21)
(1.00203 -0.0017383 5.25045e-23)
(0.965768 -0.0338117 -1.6941e-21)
(1.0195 -0.0203428 -6.00679e-22)
(0.999951 -2.0856e-05 -3.67555e-25)
(0.961256 -0.0928946 -1.6037e-21)
(0.749629 0.171504 -1.52204e-20)
(0.992224 -0.00605657 8.24532e-22)
(0.998638 -0.00575257 5.35691e-23)
(1.01783 -0.0196623 -1.19099e-22)
(1.00499 -0.0588505 1.39688e-21)
(1.12064 0.0313619 1.44434e-21)
(0.999386 -0.0123976 -2.80004e-23)
(0.99996 -6.67349e-05 1.41262e-24)
(1.00002 -3.63315e-06 2.4574e-25)
(0.996619 -0.000751688 -3.95421e-23)
(0.950879 0.253199 1.56645e-20)
(1.0627 -0.0383432 4.89116e-22)
(1.07661 -0.222247 -1.92628e-21)
(1 -1.58398e-05 -5.56269e-26)
(1.04765 -0.214911 7.43134e-22)
(1.10499 -0.00911242 -1.55614e-21)
(0.993507 -0.00020743 -2.47916e-22)
(0.917347 -0.00886602 -3.10891e-21)
(0.998744 -0.00565159 -5.38197e-23)
(0.999452 -0.000248595 -3.25948e-24)
(0.970996 -0.0363543 -3.72472e-22)
(1.00116 -0.00145231 -5.62242e-23)
(1.20297 -0.0648223 -2.26417e-21)
(1.01162 -0.00135213 -1.53411e-21)
(1.26809 0.0506414 -5.33926e-22)
(0.999905 -0.00300034 9.24156e-24)
(1.00549 -0.0176618 4.53071e-23)
(1.00799 0.015367 -1.4366e-20)
(1.26707 -0.0672946 -3.7229e-21)
(1.00053 -0.000740054 -3.49569e-23)
(1.00056 -0.000655598 3.43775e-24)
(1.00087 0.159815 1.58681e-21)
(0.994345 -0.067854 -3.94717e-22)
(0.999167 -0.0122099 3.42454e-23)
(1.01797 0.0500243 1.75991e-21)
(0.951411 0.0378216 4.63263e-20)
(1.14163 -0.109807 -2.12724e-21)
(0.999017 -0.0331568 -1.73969e-22)
(1.25332 -0.000580344 -1.49168e-21)
(0.999033 -9.31989e-05 -3.52728e-23)
(0.988982 -0.00535507 2.16126e-22)
(0.99577 -0.000345529 -1.35873e-22)
(1.02159 0.0423501 8.7424e-25)
(0.999985 -0.000965016 -1.00723e-24)
(1.01123 -0.00164616 1.56736e-21)
(1.17965 -0.158374 1.45295e-22)
(1.03607 0.223629 3.63995e-20)
(0.855373 0.258455 -6.69245e-21)
(0.992364 -0.00353734 2.99187e-23)
(0.988989 -0.0100014 2.38152e-22)
(1.11669 0.149963 -8.59527e-21)
(1.01483 -0.0753632 1.6517e-21)
(0.999927 -1.02737e-05 -4.73982e-24)
(1.28723 0.0291022 -1.43383e-21)
(1.03492 0.00220157 -1.83704e-21)
(1.03431 0.00218483 -1.24992e-21)
(0.992747 -0.0172647 -3.55583e-22)
(1.02385 -0.00249991 -2.41048e-21)
(0.927906 0.227011 6.37236e-21)
(1.15044 -0.183187 -1.44917e-21)
(0.987483 0.213542 6.23265e-21)
(1.01432 0.204878 -1.06569e-20)
(0.999996 -8.36058e-05 -4.12843e-25)
(1.11335 -0.0575337 1.03461e-23)
(1.15055 -0.177154 9.61048e-22)
(0.996581 -0.00495276 9.50985e-23)
(1.00208 -0.00186485 -8.66355e-23)
(0.942447 0.0442761 1.10923e-20)
(1.06479 -0.0394471 -6.17805e-22)
(1.00036 -9.68385e-05 5.92411e-24)
(0.976895 -0.0779675 -3.81434e-21)
(0.962227 -0.11016 -1.53565e-21)
(0.992893 -0.00241301 3.27899e-22)
(0.999847 -0.000270677 -5.26543e-24)
(1.12491 0.191474 -1.16744e-21)
(1.06511 0.0755316 1.35394e-20)
(1.00006 -0.000657791 -8.58057e-26)
(1.0052 -0.004685 6.66282e-23)
(1.0067 -0.00469477 3.604e-22)
(1.21688 -0.118304 6.05101e-21)
(0.963668 -0.0508854 -2.70454e-21)
(1.00008 -0.000780892 -4.76069e-24)
(0.999981 -2.91276e-06 -4.63576e-26)
(1.00063 -0.00021329 8.99922e-24)
(1.11909 0.0336131 -1.41208e-22)
(0.964405 -0.0348301 -1.3583e-21)
(1.00468 0.0735522 7.68665e-21)
(0.930268 -0.0615723 1.56996e-21)
(0.983823 -0.0374728 -8.25153e-22)
(0.969077 -0.00151298 -2.22612e-21)
(1.02023 0.0480324 -8.66995e-21)
(1.25316 -0.0182796 -1.81065e-22)
(0.998451 -0.000200633 8.73317e-23)
(1.01007 -0.00763362 -3.82929e-22)
(1.00108 -0.00143731 6.37717e-23)
(0.99052 0.237585 -1.55254e-20)
(0.96702 -0.0315583 7.27688e-22)
(1.00139 -0.000365476 -3.01534e-23)
(0.990306 -0.00477004 -2.96262e-22)
(1.18996 -0.0466149 -5.47957e-22)
(0.999514 -0.0133212 -7.6131e-23)
(0.985141 -0.01651 -1.66241e-22)
(1.0003 -0.000184809 -1.83494e-23)
(1.00031 -7.05076e-05 -8.2148e-25)
(0.741984 0.183534 2.29099e-20)
(0.98941 -0.0017319 -3.80112e-22)
(0.993833 -0.00624121 3.39538e-22)
(0.999518 -0.00244859 -3.86962e-23)
(0.999057 -7.11985e-05 -4.83229e-24)
(1.09343 0.125692 -4.95367e-21)
(1.18585 -0.158813 3.65994e-22)
(0.981146 -0.0563338 4.98157e-22)
(1.00002 -2.84296e-06 -2.26525e-25)
(1 -5.10663e-05 -2.94312e-25)
(0.965724 -0.0326939 1.91654e-21)
(0.991251 -0.00254023 7.8063e-23)
(0.993316 -0.00289808 -4.49868e-23)
(1.01869 -0.00700578 7.40693e-22)
(1.00751 -0.00318944 1.29333e-22)
(1.00047 -0.0221504 -9.49056e-23)
(1.15809 -0.0344702 3.8348e-22)
(0.975915 -0.00588338 -4.70993e-22)
(0.990106 0.20817 -5.29473e-21)
(1.01854 -0.0345425 -1.2172e-22)
(1.00032 -0.000185517 2.03473e-23)
(0.959588 -0.0870968 1.47486e-22)
(0.978787 -0.0499561 -1.72011e-21)
(1.21618 -0.0218812 -3.65045e-22)
(0.996287 -0.008157 -1.01904e-22)
(0.986148 -0.0660425 -5.89877e-22)
(0.999972 -7.47052e-06 4.61244e-25)
(0.877643 0.181995 -2.31261e-20)
(1.01992 -0.00292669 1.35583e-21)
(1.00011 -0.000315837 -7.96137e-24)
(0.83744 0.0477079 -3.176e-20)
(0.979775 -0.0566183 1.1072e-21)
(0.999971 -8.7162e-06 8.15316e-26)
(1.00188 -0.00169861 2.56208e-23)
(0.959892 -0.0910787 -8.78773e-22)
(1.05092 -0.0498222 1.52472e-22)
(1.06458 -0.0182392 1.55835e-21)
(0.999988 -4.88603e-06 -1.98184e-26)
(0.989352 -0.000885196 3.02272e-22)
(1.0294 -0.0643899 1.14417e-21)
(0.99309 -0.00221412 4.5306e-22)
(0.999393 -6.59097e-05 -1.08863e-22)
(0.9892 -0.00552941 5.83281e-24)
(0.960424 0.0771993 2.7252e-21)
(0.990733 -0.0169876 -4.30855e-22)
(0.985772 -0.0161687 1.21527e-22)
(1.00294 0.0400666 -7.37693e-21)
(0.996419 -0.00306269 1.06587e-22)
(0.979981 0.243856 -1.93701e-21)
(0.99997 -8.78335e-06 -2.42724e-25)
(0.986574 -0.0377142 3.37155e-22)
(0.977926 -0.107295 3.84214e-21)
(0.987474 -0.0664577 1.0087e-21)
(1.23304 -0.0864315 1.28652e-21)
(0.998461 -0.00752262 1.33093e-22)
(1.01236 -0.0323975 1.59539e-23)
(0.999887 -0.00323162 1.28588e-24)
(0.977797 -0.0293969 -9.53241e-22)
(1.05268 -0.0539854 9.42077e-24)
(0.999953 -1.99748e-05 1.75191e-24)
(1.00002 -1.63442e-06 -3.96993e-25)
(0.991677 -0.000569757 2.05616e-22)
(0.974372 0.144257 1.67521e-20)
(1.01687 -0.0267714 6.46285e-22)
(1.00339 -0.00477673 -1.05651e-22)
(0.9117 -0.0456826 2.15174e-21)
(1 -1.42239e-05 -1.72121e-25)
(1.00128 -0.00158559 -1.0137e-22)
(0.999954 -0.000920152 -1.20965e-24)
(1.01868 -0.0256641 7.48287e-22)
(0.977965 -0.0217313 1.68282e-22)
(0.999497 -0.000386866 1.34148e-23)
(0.991345 -0.0151554 1.6351e-22)
(0.983749 -0.00958117 -1.74275e-22)
(1.00134 -0.000219244 -8.26171e-24)
(0.999969 -1.01787e-05 -1.58922e-25)
(1.2437 -0.0527524 -4.04752e-21)
(0.999568 -0.00240748 4.15962e-23)
(1.10131 -0.0147138 1.18115e-21)
(1.06206 0.208397 3.66461e-20)
(1.1084 0.151048 -8.06897e-21)
(1.00086 -0.0279493 -3.60585e-22)
(1.00736 -0.00289197 -4.27993e-23)
(1.02431 -0.00199205 1.47744e-21)
(0.999952 -0.00330316 -1.43375e-24)
(0.997126 -0.0141817 1.70963e-22)
(1 -2.35608e-05 -4.34294e-25)
(1.00905 0.206765 -7.55879e-22)
(0.983969 -0.0217437 2.36243e-22)
(1.01832 -0.00646388 -5.29662e-22)
(0.976459 -0.00610568 9.80319e-22)
(1.00486 -0.0173722 5.4152e-24)
(0.99651 -0.00802191 2.22393e-22)
(0.999862 -0.000277419 1.15904e-24)
(1.00002 -1.53811e-06 -2.02503e-24)
(0.994043 -0.00621634 -2.47284e-22)
(1.07433 -0.0173929 -8.32584e-22)
(1.00822 0.0718901 1.18665e-21)
(1.00161 -0.000647994 -1.21427e-22)
(0.965848 -0.080957 -8.13502e-22)
(0.966924 -0.0306127 -3.2065e-22)
(0.989614 -0.000693426 -1.13317e-21)
(1.27907 0.00767613 1.17236e-21)
(0.998287 -0.00131845 -5.24715e-23)
(1.00496 -0.0196411 -1.03987e-22)
(0.992794 -0.00381194 2.29567e-22)
(0.999874 -0.000267434 9.85317e-25)
(0.960317 -0.0953403 1.00888e-21)
(1.00396 0.0628402 -1.20141e-20)
(1.04778 0.0599054 -9.06858e-21)
(0.970111 -0.020458 -1.54682e-22)
(1.003 0.0593918 -4.99695e-22)
(1.00011 -0.000296649 1.58514e-23)
(1.00002 -2.09168e-06 6.4919e-25)
(1.28339 0.0292535 4.0964e-22)
(1.22226 -0.0232543 1.01946e-21)
(0.846012 0.187374 -1.08449e-21)
(1.00112 -0.111629 2.94076e-21)
(0.969413 -0.00208905 -7.19543e-22)
(1.18888 -0.0410031 8.41567e-22)
(1.00153 -0.000675081 1.37634e-22)
(0.992533 -0.00513394 1.31525e-22)
(1.0006 -0.00022641 -8.505e-24)
(0.985866 -0.000972283 -2.42759e-22)
(0.984479 -0.017777 -3.45561e-22)
(0.999995 -4.58017e-05 1.00272e-24)
(0.998829 -4.50393e-05 2.03229e-23)
(1.03368 0.217924 -3.5675e-20)
(0.99983 -0.000955516 1.12515e-23)
(0.892446 0.166003 2.89813e-20)
(1 -2.24351e-05 3.28905e-25)
(1.27227 -0.0367896 -3.69815e-21)
(1.10116 -0.0173314 -2.54493e-21)
(1.15811 -0.0306556 -4.34434e-22)
(1.00137 -0.000639731 8.27006e-24)
(1.00025 -5.6916e-05 1.65764e-23)
(0.980707 0.134908 -2.55214e-20)
(1.10497 -0.0120746 5.1648e-21)
(0.977241 -0.109461 -3.49154e-21)
(1.03345 0.0595554 4.19014e-21)
(0.997151 -0.0284092 1.48199e-22)
(0.982268 -0.00732685 -2.5357e-22)
(0.994634 -0.000295879 -1.36053e-22)
(1.27252 0.173367 -7.53192e-21)
(0.968403 -0.0365903 1.19773e-21)
(1.04317 -0.0454331 -3.51316e-22)
(0.991692 -0.0150143 -9.40335e-23)
(1 -1.41525e-05 -4.92688e-27)
(0.998304 -0.00124512 -4.44737e-23)
(1.0079 -0.00806237 2.22625e-22)
(0.975612 -0.0108899 1.25353e-21)
(0.970894 -0.0206211 2.32295e-22)
(0.942745 -0.0554837 -3.51961e-22)
(0.975358 -0.0115474 -9.50927e-22)
(1.02543 0.00384788 7.31554e-22)
(0.997191 -0.000191784 2.79975e-24)
(0.919312 -0.0522419 1.11367e-21)
(0.981331 -0.00124916 -3.47957e-22)
(1.00005 -0.000286457 3.51118e-24)
(0.983717 -0.000999408 -2.40228e-22)
(1.04398 -0.0491139 -4.64948e-22)
(1.02441 0.00412994 -4.04707e-21)
(0.965691 -0.0368272 -2.96556e-22)
(0.999977 -1.00248e-06 -1.67452e-27)
(0.976935 -0.0222172 2.53292e-22)
(1.00293 -0.0200837 3.17367e-23)
(1.00184 -0.00157657 3.30443e-23)
(1.17501 -0.180108 -4.42477e-21)
(1.00332 0.0593371 -2.81394e-20)
(1.0012 -0.00156614 9.41989e-23)
(0.983997 -0.000754135 3.1753e-24)
(1.13167 -0.11019 8.364e-23)
(1.03639 0.000352984 6.09873e-21)
(0.983605 0.0533119 -2.9338e-21)
(1.00245 -0.00333328 2.90276e-23)
(1.00064 -0.0291124 1.12112e-22)
(1.19341 0.150773 -1.95477e-21)
(1.02265 0.0374188 -2.13667e-20)
(0.987975 -0.0375768 8.97301e-22)
(1.00631 -0.00469784 -4.02969e-23)
(0.93664 -0.0658547 1.61405e-21)
(0.999996 -7.31447e-06 -1.8469e-25)
(0.934774 -0.00279829 -1.13243e-21)
(1.00011 -9.39577e-05 2.66037e-24)
(1.12839 -0.111646 -5.00997e-21)
(0.999956 -4.79743e-06 -1.89396e-25)
(1.00004 -8.39088e-05 2.35897e-24)
(1.00018 -0.0325637 -1.36338e-22)
(1.26151 -0.0160054 1.51322e-21)
(1.11732 0.260222 1.38095e-20)
(1.04835 -0.050516 -6.69344e-22)
(1.01859 -0.0205454 3.99597e-22)
(0.999999 -5.76791e-06 6.97369e-26)
(0.991941 -0.00610046 -4.45029e-22)
(1.00012 -2.86833e-05 -1.9059e-24)
(0.995855 -0.00325959 1.5329e-22)
(1.00004 -7.8147e-05 -1.8474e-24)
(1.06481 -0.0157343 -4.85623e-21)
(0.999378 -0.000640304 -5.34396e-23)
(1.08933 0.0744853 8.41724e-21)
(0.999834 -0.000295687 -8.16725e-24)
(0.982917 -0.00715632 -4.29137e-22)
(0.945116 -0.00150262 2.64365e-21)
(0.994357 -0.000406946 -1.75786e-22)
(0.973228 0.0769146 2.81353e-20)
(0.977057 -0.000979795 6.54045e-22)
(1.03724 -0.13942 2.60486e-22)
(0.992729 -0.00538467 6.81884e-22)
(1.03386 -0.00356588 -1.24305e-21)
(0.962434 -0.0822469 3.53072e-21)
(1.02587 -0.00186601 -4.13473e-21)
(1.05421 -0.094634 -1.13973e-22)
(0.999981 -2.35841e-06 9.19699e-27)
(0.999152 -0.0275237 1.23691e-22)
(0.994721 -0.000390553 2.1421e-23)
(1.00033 -0.00012479 1.21503e-23)
(1.00011 -2.41096e-05 3.27066e-24)
(1.27917 0.169544 8.14628e-21)
(0.993539 -0.00290714 3.79806e-22)
(1.03618 0.00139698 6.98643e-21)
(1.00149 -0.0298082 1.38429e-22)
(1.00114 -0.000410708 3.23679e-23)
(1.03147 -0.0112391 -4.4824e-21)
(1.00022 -5.37724e-05 -3.72973e-23)
(0.999968 -4.64277e-06 -2.18889e-26)
(0.935572 -0.0037273 8.73858e-22)
(0.99538 -0.00165749 1.70566e-22)
(1.00004 -7.61001e-05 2.50785e-24)
(1.12536 0.141788 5.65796e-21)
(0.774521 0.149162 -4.23929e-20)
(0.999721 -0.000312959 2.29776e-23)
(0.947574 -0.00303027 -7.29049e-22)
(1.00002 -2.09682e-06 4.56729e-25)
(0.91985 0.222539 -2.61641e-20)
(1.27587 -0.0371247 -4.7173e-21)
(0.962224 -0.0659546 -2.82172e-21)
(1.00006 -0.000755117 -5.85738e-24)
(1.04167 -0.0438633 8.93343e-22)
(1.04121 -0.00388113 -1.71719e-21)
(1.04267 -5.9963e-05 5.12919e-22)
(1.06607 -0.0191841 -5.93219e-22)
(0.999523 -0.00258085 -6.06668e-24)
(0.999828 -0.00114471 1.02545e-23)
(0.981528 -0.0216398 -7.50161e-22)
(1.00001 -1.24961e-05 -6.91818e-25)
(1.00002 -1.79021e-06 -1.17456e-25)
(0.967249 -0.0359529 -7.03284e-22)
(0.998119 -0.0850649 -1.5753e-21)
(0.944415 -0.0544239 -8.96224e-23)
(0.817461 0.21468 -9.88428e-22)
(1.00027 -3.46756e-05 -1.51992e-23)
(1.02451 -0.105362 -3.47905e-21)
(1.00975 -0.00716728 -3.93879e-22)
(0.999969 -4.92481e-06 2.57461e-25)
(0.998668 -0.00535589 -1.15866e-22)
(1.00005 -0.000639934 -4.25503e-24)
(0.99417 -0.0175013 2.68724e-22)
(1.00006 -1.40843e-05 2.16928e-24)
(1.05649 -0.0928682 -2.71631e-22)
(1.02536 -0.00227862 4.00854e-21)
(0.982232 0.23805 5.43411e-21)
(1.03317 -0.00336236 4.67421e-21)
(0.999633 -0.000306678 1.88554e-23)
(1.00061 -0.000528996 -3.31638e-23)
(1.2166 -0.124303 -6.10301e-21)
(1.03611 0.00107958 -5.62058e-21)
(0.99591 -0.000535911 1.53483e-22)
(1.00002 -2.10194e-06 9.49063e-25)
(1.13987 0.112765 -8.93776e-21)
(1.13552 -0.222573 -1.84786e-21)
(1.00115 -0.109152 -1.3136e-21)
(0.980815 -0.0010639 -1.83667e-22)
(0.999972 -3.05967e-05 3.7481e-25)
(0.999636 -0.000289297 -1.10085e-23)
(1.14314 -0.225353 5.15981e-21)
(0.998107 -0.0680682 -4.32545e-22)
(1.05568 0.04105 1.28403e-21)
(0.987322 0.200625 2.30195e-20)
(1.03537 -0.135929 1.92272e-21)
(0.998329 -0.000115135 -2.7415e-23)
(0.999972 -1.43293e-05 -5.1091e-25)
(0.951458 -0.0705913 2.75595e-21)
(0.972278 -0.141245 -3.86067e-21)
(0.999732 -0.0003241 1.20803e-23)
(1.01318 -0.0314943 2.29228e-22)
(0.988383 -0.0365662 -1.59157e-22)
(0.993875 -0.00311706 1.49835e-22)
(0.997558 0.0524484 -2.17437e-20)
(0.998302 -0.000743739 9.74069e-23)
(1.0701 -0.0696944 -2.02637e-22)
(1.29486 0.0704446 -9.74145e-22)
(0.989771 -0.00450041 -4.32348e-22)
(0.841089 0.176301 -4.09267e-21)
(0.854218 0.0813126 1.32706e-20)
(0.999959 -7.06349e-05 -1.36265e-24)
(0.999966 -0.00100584 3.0687e-25)
(0.977335 -0.00130207 -4.18981e-22)
(1.01739 -0.00634576 -9.5976e-22)
(0.949791 -0.00279213 1.52263e-21)
(1.00687 -0.00582695 -4.13265e-22)
(0.990139 -0.00451413 4.04404e-22)
(0.999251 -0.000681479 -4.11931e-23)
(0.939155 0.220942 -4.59214e-21)
(1.0893 0.070749 -1.30839e-20)
(1.00301 -0.00323032 7.42573e-23)
(0.694748 0.091485 -8.38133e-21)
(1.00002 -1.82132e-06 -6.65638e-25)
(1.03419 0.00868957 -9.88266e-21)
(0.994091 -0.135494 2.81357e-21)
(1.02773 -0.105215 1.36119e-21)
(1.00013 -0.00028815 -8.42211e-25)
(0.947359 -0.00153025 1.25167e-21)
(1.03084 0.00791205 5.58846e-21)
(1.01694 -0.00679125 7.93568e-22)
(1.04054 -0.00241672 2.4007e-21)
(0.999409 -5.17115e-05 7.6545e-23)
(0.99937 -0.000682011 4.84545e-23)
(1.03352 -0.0626561 3.34955e-22)
(0.995457 -0.00178564 -4.90045e-22)
(0.98331 -0.0161712 -8.14387e-22)
(0.99883 -0.00485359 6.86322e-24)
(1.11891 0.0428111 5.85972e-21)
(0.998813 -0.0286807 -8.42293e-23)
(0.993474 -0.00660664 8.4322e-24)
(0.90698 -0.0387423 -3.15668e-21)
(1.00528 0.158847 2.61271e-21)
(1.14355 -0.0537354 2.20204e-22)
(1.03077 -0.0107721 3.60454e-21)
(0.999475 -0.000249511 1.44253e-23)
(0.999329 -0.000446133 6.57049e-24)
(0.976789 -0.0290546 1.91488e-21)
(1.00132 -0.0017059 -7.50278e-23)
(0.996577 -0.000945077 -2.7687e-23)
(0.999973 -2.93722e-05 -1.38694e-25)
(0.999573 -0.00262937 1.22471e-24)
(1.03 0.00729263 -2.17632e-21)
(0.980124 0.141335 -2.44506e-20)
(0.999831 -2.1296e-05 2.67963e-24)
(1.28124 0.12651 -5.11903e-21)
(0.999994 -5.71058e-05 -4.1078e-25)
(0.995726 -0.00386015 2.08716e-22)
(0.999989 -0.000130946 -1.74914e-25)
(1.00691 -0.00504474 -1.83577e-22)
(1.24492 -0.0568832 3.07346e-21)
(0.999948 -5.93807e-05 2.15119e-25)
(0.999946 -6.35945e-05 1.31586e-24)
(0.928834 -0.0623267 -1.49975e-21)
(1.00001 -1.23689e-05 -3.14712e-26)
(1.0703 -0.0192576 4.91224e-21)
(0.984297 -0.0576283 1.60254e-21)
(0.99997 -0.000884432 7.12492e-25)
(1.12761 0.0847453 -7.07252e-21)
(1 -4.0829e-05 5.52786e-25)
(0.999475 -5.34612e-05 6.62054e-23)
(0.999883 -4.8919e-05 1.11687e-25)
(0.993709 -0.00661874 -1.27453e-22)
(0.99956 -0.00209646 -1.92858e-23)
(0.991837 -0.000432327 -1.38263e-22)
(1.01063 -0.162379 -3.26439e-22)
(0.99961 -0.0020415 1.29e-23)
(1.00553 -0.0047047 -1.42975e-22)
(0.999967 -3.37105e-06 -1.01072e-25)
(1.11817 0.252541 -2.69273e-20)
(1.06796 -0.0711435 -5.68277e-22)
(1.1473 -0.0547533 2.38205e-22)
(0.953368 -0.0083366 1.64117e-21)
(0.97003 -0.00589118 -3.03045e-22)
(0.998786 -0.00523758 1.91341e-22)
(1.00385 -0.00359523 2.00621e-22)
(1.07815 0.0957555 3.67564e-21)
(0.977929 -0.0514281 2.33674e-22)
(1.20283 0.11203 2.57922e-21)
(0.941856 -0.0190029 -2.9561e-21)
(0.995572 -0.00372741 -1.96595e-22)
(0.999987 -5.92009e-06 2.29334e-26)
(0.992546 -0.00382544 -2.76699e-22)
(1.06493 0.257816 7.30497e-21)
(1.12022 0.102118 -1.68769e-21)
(0.978977 -0.07734 1.307e-21)
(0.920851 -0.00825404 6.8083e-22)
(1.11944 0.233888 7.36869e-21)
(0.988817 -0.000791673 3.57913e-22)
(0.98659 -0.124312 2.22736e-22)
(0.999989 -0.00012525 -1.10149e-24)
(0.982791 -0.0579386 1.98996e-21)
(0.998907 -0.000308312 -1.00735e-22)
(0.715143 0.15877 -2.39942e-20)
(0.976191 -0.102026 -2.88549e-21)
(0.999885 -4.38884e-05 4.50446e-24)
(0.915906 -0.0268457 -1.7589e-22)
(0.977832 -0.0545677 1.05982e-22)
(1.05987 0.111107 1.35623e-20)
(0.996625 -0.00103144 -2.60704e-22)
(0.975201 -0.0527015 -6.97529e-22)
(0.996883 -0.0145414 -2.38899e-22)
(1.00026 -0.0314656 -2.81955e-22)
(0.998346 -0.000756908 -6.65713e-23)
(1.05741 0.108913 -1.65e-20)
(1.06308 -0.2202 3.28732e-21)
(0.976865 -0.0231302 -5.61293e-22)
(0.982245 -0.0201131 1.20298e-23)
(0.983057 -0.00675963 -1.72941e-22)
(1.00689 -0.00274384 -1.68771e-22)
(1.11897 0.225286 2.87291e-20)
(0.976749 -0.0187598 2.53562e-22)
(1.0224 0.0572432 9.23063e-21)
(1.00355 -0.00288738 1.52978e-22)
(1.23737 -0.0834897 -9.74258e-23)
(0.887843 0.178888 4.39863e-21)
(0.988594 -0.000617115 -1.23827e-21)
(0.999701 -5.62525e-05 1.22623e-23)
(1.09169 0.130478 3.825e-21)
(1.02505 0.209736 -2.94296e-20)
(1.03246 -0.0604538 -4.1658e-22)
(1.10593 -0.0597595 -3.08145e-23)
(0.993881 -0.0181508 -3.0085e-22)
(0.954086 -0.0075351 -9.73313e-22)
(1.1874 0.148752 7.94914e-21)
(0.949607 -0.0709042 4.56482e-22)
(0.999969 -2.93773e-05 5.46436e-25)
(0.990301 -0.000152991 -6.37496e-22)
(1.00005 -7.64213e-06 2.27237e-24)
(0.994163 -0.000365555 4.77537e-22)
(0.999967 -3.0819e-05 -8.61686e-25)
(0.997462 -0.0202825 4.01853e-22)
(0.998752 -4.98908e-05 3.59695e-23)
(0.996455 -0.00760728 2.56924e-23)
(1.22305 -0.107087 -1.0401e-21)
(0.999228 -0.000521769 3.54896e-23)
(0.999351 -0.000267464 2.39347e-23)
(0.999113 -0.00796886 2.97469e-23)