/*--------------------------------*- C++ -*----------------------------------*\
  =========                 |
  \\      /  F ield         | OpenFOAM: The Open Source CFD Toolbox
   \\    /   O peration     | Website:  https://openfoam.org
    \\  /    A nd           | Version:  7
     \\/     M anipulation  |
\*---------------------------------------------------------------------------*/
FoamFile
{
    version     2.0;
    format      ascii;
    class       surfaceScalarField;
    location    "12";
    object      phi;
}
// * * * * * * * * * * * * * * * * * * * * * * * * * * * * * * * * * * * * * //

dimensions      [0 3 -1 0 0 0 0];

internalField   nonuniform List<scalar> 
11265
(
149.962
-524.582
374.62
-749.489
-0.409786
749.899
421.392
-374.292
-47.0994
644.911
270.574
-915.485
1511.07
-1069.46
-441.608
1216.29
-1527.13
310.841
-43.8424
473.192
-429.35
168.736
-842.691
673.955
962.131
-1610.84
648.707
-1760.79
1666.93
93.8567
-542.947
1759.24
-1140.15
1934.02
-793.868
608.738
181.182
-789.92
-24.8913
-1311.91
1336.8
219.945
-1980.73
1024.24
-381.314
-642.922
-195.592
345.554
486.333
190.669
-677.002
1155.86
-1312.7
156.844
-301.202
375.945
-74.7432
996.863
-1310.49
313.629
1221.51
799.056
-2020.56
72.4316
-1636.94
1564.51
-477.791
-1170.83
1648.62
477.594
182.065
-659.659
-194.191
-330.392
498.227
1012.84
1644.04
-1801.78
157.738
-90.7901
-1691.86
1782.65
-1558.45
650.13
908.316
-306.259
653.969
-347.709
-191.901
-129.464
321.365
1281.86
-1209.43
355.181
-1407.46
1052.28
-1754.33
1754.33
101.603
1528.7
-1630.31
-1077.3
-481.144
648.495
-692.337
-383.526
941.569
-558.044
1331.95
-1317.33
-14.6195
-1100.52
716.994
628.397
395.839
-375.545
-47.4195
422.965
-456.758
747.704
-290.947
-1618.5
1618.5
1253.59
-1437.9
184.308
-488.429
1709.94
1256.15
-314.579
1660.75
-1161.26
-499.494
85.8093
-387.011
2064.67
-1134.47
-930.191
1809.64
-165.6
456.838
156.2
-613.038
-453.162
967.481
-514.318
-1168.01
1269.61
-568.785
971.344
-402.559
402.319
753.541
661.662
-492.926
-437.995
596.703
-158.708
1190.71
-835.532
2308.19
-1080.66
-1227.53
1163.36
-2007.86
844.499
-1599.15
1574.26
440.749
-1580.9
-759.168
1250.81
-491.644
-673.342
367.083
1661.47
-699.344
-1106.93
-870.892
1977.82
697.701
-349.543
-348.158
689.594
566.554
-258.207
1511.8
119.237
-321.415
202.178
-284.939
762.534
-335.38
566.961
-231.58
-324.638
810.971
-318.293
-151.158
469.451
321.992
99.3993
1453.57
-456.709
-973.654
468.95
504.705
282.648
88.3778
-371.025
950.214
-341.476
-1703.46
639.669
1063.79
11.214
-851.349
840.135
-282.306
597.6
-315.294
156.798
-1093.86
937.063
1051.74
-1067.3
15.5527
373.046
519.241
-892.286
-245.549
702.388
-1103.91
-482.043
1585.96
-678.428
951.351
-272.923
1357.83
-1448.62
-605.049
234.065
370.983
-470.19
-1011.57
1481.76
-539.808
-792.552
1332.36
576.495
-996.709
420.214
-266.369
-317.647
584.017
409.341
-290.104
-1033.96
580.798
955.41
-798.613
-110.32
944.055
-833.735
-212.245
421.294
-209.05
-636.215
-337.439
-386.744
963.239
1856.38
-1856.38
-483.939
-121.11
-956.943
1564.75
-607.803
467.183
-901.514
434.331
-924.207
355.422
-941.911
-1058.08
-1485.09
344.088
1141
-282.011
926.923
-301.483
605.082
-303.599
-1941.91
999.994
-1135.98
-349.107
551.973
-1508.92
1728.52
-1725.55
-2.96948
201.88
-581.865
379.985
-1461.64
979.213
482.424
291.059
210.896
-501.956
311.499
-646.88
244.393
-421.314
176.922
2018.36
-854.628
-1163.73
-536.625
161.08
617.787
833.197
-1450.98
-184.755
429.147
431.168
877.003
-1308.17
-909.41
394.94
514.47
-1044.81
1447.12
-1068.81
309.645
753.559
-99.5903
517.62
-311.941
-205.679
998.751
-529.802
593.314
-1403.95
810.634
-1342.37
238.455
-548.734
266.428
-1196.77
914.758
1939.58
-998.331
-941.248
276.803
1579.57
-2092.91
893.936
1198.97
368.135
-30.8184
-337.317
-224.212
483.634
-259.422
-116.135
-373.887
490.022
-469.117
150.824
342.749
-130.827
598.01
408.987
386.41
-795.397
-2040.73
1116.74
923.985
461.263
-534.178
72.9149
223.319
-365.356
142.037
1003.13
1015.23
1781.2
-252.494
691.503
-457.437
797.138
-1390.04
592.9
326.332
371.369
1049.67
-1038.46
-495.351
-249.237
744.588
481.079
-138.714
-342.365
797.934
-616.751
549.237
-732.98
183.743
503.33
1157.42
-1239.96
700.15
1044.5
-1522.29
-3.13463
-1439.43
1442.56
325.004
825.276
-1150.28
623.487
269.976
-893.462
-2273
1151.88
1121.12
-1117.08
-1155.92
181.07
368.167
958.625
-633.621
879.345
-899.064
19.7194
-2099.38
992.452
-227.295
-190.706
418.001
-41.6991
1770.22
-817.537
68.0479
-1026.98
-1065.93
-230.258
453.577
-641.655
157.717
-260.691
-452.989
713.68
1104.05
-1574.24
783.102
-1374.54
591.435
705.958
-435.384
1947.88
-1444.54
-378.288
-1376.04
65.8534
407.339
-521.005
520.595
5.38581
-558.909
553.524
570.773
-279.714
-606.429
280.889
325.54
776.952
-367.966
33.7917
334.343
1188.47
-1191.61
181.897
227.444
423.376
-684.067
619.903
-1006.65
-2026.7
2026.7
-257.354
-465.132
722.486
699.306
405.881
-1105.19
579.68
173.878
394.962
381.99
-2199.75
1328.85
-926.819
-678.665
1605.48
-490.777
-705.993
-280.594
576.08
-295.485
838.582
-210.109
-628.473
-426.793
628.673
369.599
-671.082
-341.35
-120.884
462.235
-1327.65
-474.126
634.169
-1124.95
-374.152
-1244.35
844.326
1463.86
302.744
-913.671
610.927
966.818
-338.421
1391.47
-798.157
446.577
-264.68
-329.729
-883.796
580.909
302.888
-343.231
-540.565
304.548
-420.682
-191.495
-157.739
349.234
-392.755
1092.06
435.467
-244.798
-396.999
1347.03
-165.636
-1181.39
-456.994
259.814
197.179
243.893
267.392
-511.285
1.95007
-734.93
592.082
-1729
1136.92
1481.23
-863.446
-1053.64
-407.999
-1057.62
573.265
484.352
1380.78
-401.564
929.442
-1411.49
-172.533
-185.622
358.155
-469.645
581.584
-1626.39
427.962
903.987
273.152
341.124
-614.276
568.07
1186.26
1104.57
-715.925
-388.644
409.428
-221.865
-187.564
-1419.47
444.964
738.618
-1183.58
1473.41
-543.971
-507.634
943.813
-436.18
426.145
1186.16
-1612.31
47.3592
-725.787
-143.653
426.301
197.466
-389.367
537.262
461.489
-596.93
42.7543
554.176
1024.54
-1307.67
283.133
660.317
-265.355
468.247
-1447.26
979.012
399.258
1686.01
-522.643
890.888
1048.69
-662.574
-1684.53
757.707
561.902
393.19
-955.092
453.546
78.7561
1749.91
-1828.67
1443.76
-379.491
-1064.27
1699.11
-1740.81
-368.023
-508.846
713.072
-204.227
-502.593
186.996
294.083
-373.222
-1226.01
214.435
-764.589
-639.359
-636.381
996.802
-360.421
-653.637
643.652
9.98495
655.07
-923.728
268.659
-710.89
351.946
358.944
-648.897
-710.826
361.393
349.434
-932.35
1400.6
-411.775
883.247
-471.472
-2205.3
5.55864
183.695
-538.526
354.831
139.099
1207.93
-62.6971
-578.958
161.175
-599.17
1487.22
-704.119
370.74
-463.947
93.2062
-565.967
565.967
1223.05
395.446
1777.86
-1229.07
589.11
639.961
850.153
-52.2189
1291.37
773.291
-539.991
1337.13
294.929
302.671
277.604
-786.45
208.943
-665.701
232.389
-446.116
213.727
-252.822
592.628
-339.806
116.794
-369.616
-592.031
-564.583
1156.61
-393.804
514.177
-120.373
-1192.16
2032.04
-839.886
1290.14
-331.517
-402.947
136.578
-1984.91
814.083
1532.26
-853.059
-679.197
1986.94
-877.423
-1109.52
713.502
576.64
-241.107
473.497
-687.62
1152.36
-464.738
-770.214
1201.38
551.533
924.685
-1724.89
800.21
-572.807
-44.277
617.084
262.427
255.193
419.337
-92.4731
-326.864
896.881
-83.4696
-813.412
902.226
-557.229
-344.997
1576.21
-472.167
887.918
-1625.65
737.729
1068.48
879.393
750.364
-445.541
-304.823
-1059.04
-258.287
557.558
579.627
-1137.19
-491.963
477.495
14.4679
579.065
-347.772
-231.293
-981.351
569.575
596.145
885.088
-441.841
1096.91
1407.01
-774.611
-632.398
398.533
-925.788
527.255
-1017.32
381.108
548.974
-1056.61
412.093
-485.925
73.8318
440.693
307.012
-517.258
-48.7092
-794.497
-877.403
1671.9
197.226
212.202
-233.309
414.38
-6.76062
-550.492
557.253
492.496
864.233
-1356.73
-503.894
312.399
985.855
-88.9734
836.471
-1065.01
228.54
400.556
846.539
-1386.53
-442.03
828.44
1976.88
-1283.35
-693.529
270.095
609.25
255.923
795.819
79.6104
-967.882
888.271
1673.75
-1089.07
-584.679
-137.824
1887.74
-1866.04
-160.658
483.572
-621.761
138.189
-1014.95
526.32
488.626
-1730.48
538.319
-955.906
845.586
392.334
204.369
577.088
-274.344
-423.793
712.03
254.788
53.1001
718.786
-771.886
-1145.37
-882.918
2028.29
-548.238
1099.02
-550.787
-456.501
-336.109
108.814
-1653.99
859.498
-861.089
-606.435
1467.52
-331.9
-295.32
627.22
362.398
-664.771
302.373
234.146
-602.111
297.399
209.06
-506.46
347.259
-627.854
638.072
-275.674
315.298
-466.456
680.906
439.143
-195.251
-404.554
-306.272
1217.64
-1.66702
-1215.97
1040.01
-420.109
560.62
410.724
-1782.38
869.828
912.549
492.604
543.929
-1036.53
-535.639
203.739
-262.634
1180.63
-917.994
-1590.89
1212.61
504.687
-1096.72
387.144
-16.403
454.852
286.511
-741.363
373.579
-619.128
-30.2213
755.217
-724.996
-526.107
796.082
381.221
322.655
527.497
654.572
90.0964
-430.147
340.051
1058.99
-645.247
-413.744
494.011
-1664.27
1170.26
-1140.44
1753.24
-612.801
1715.81
-1123.73
-335.174
616.063
-1189.06
1268.67
425.244
-795.359
1599.2
-803.845
-236.329
-220.665
-902.446
1469.5
1811.7
-611.361
-1200.34
-404.966
666.846
-1303.23
-124.758
-59.1118
478.449
-682.902
-354.175
-1236.72
-224.318
458.463
903.785
-559.722
185.835
-1674.54
-71.1876
1745.72
-1062.64
514.406
570.02
-1180.74
610.722
901.117
910.58
630.788
620.025
688.625
255.188
-1144.9
457.284
-401.91
407.296
622.438
-515.569
250.496
-733.134
482.638
704.357
-378.025
-312.172
182.708
-580.071
231.929
348.142
-888.217
-737.43
1087.67
-2145.75
400.163
-685.102
-342.942
-724.353
831.247
575.762
-346.743
299.324
393.067
233.475
639.191
-872.666
540.933
611.425
-501.761
160.411
376.543
-633.897
-1058.75
-836.273
1895.02
-1793.89
156.941
1107.24
-1369.87
1170.77
-726.502
-444.271
-503.467
1350.01
-1495.55
627.878
867.67
-287.498
-210.654
498.152
1428.39
558.553
317.293
-438.178
-485.92
-564.576
1050.5
-416.519
600.213
1582.18
-1128.88
-453.299
-794.742
329.609
654.916
404.076
-1623.43
416.16
1207.27
-199.18
496.579
797.885
784.297
174.361
-671.29
496.929
209.164
212.13
-295.142
-109.551
404.693
460.316
50.2656
-510.581
-1640.37
586.734
-1607.24
1672.02
-64.7832
10.0574
-1617.3
1069.61
769.471
-314.619
-816.832
-200.491
-1134.58
-239.961
-312.292
685.871
-1812.36
-625.564
1205.19
209.138
758.343
-1329.41
-678.449
-465.364
636.489
-363.337
-1013.28
1350.76
-1932.83
582.069
646.021
1288
486.658
-3.02343
716.414
702.204
-1418.62
-640.576
339.441
301.135
441.12
-100.169
-340.951
154.163
273.624
167.27
-440.895
-579.685
1141.59
464.78
-612.336
-462.248
-401.969
864.217
-327.118
154.584
-459.841
169.738
-306.023
-708.922
549.228
-108.108
-569.17
967.704
579.409
-269.957
-309.452
456.464
-781.102
-643.488
433.932
-1129.41
-834.904
1178.99
-569.77
451.845
292.743
-469.335
119.792
1029.38
-316.618
593.609
-276.991
-509.043
1578.65
-700.329
252.582
375.281
-627.864
196.664
511.974
-13.4264
-498.548
-251.722
-208.119
1001.67
1108.95
564.798
-868.092
931.913
-63.8213
-456.376
168.878
-753.287
300.297
-594.98
357.967
346.39
824.39
-1244.03
419.645
778.018
-808.24
-948.972
-550.38
1499.35
-156.755
497.878
-514.57
202.629
1306.51
763.479
-589.118
1325.91
-691.743
487.966
-668.971
-412.189
-424.015
-378.757
802.772
503.337
-844.813
-463.26
67.6658
395.594
-325.961
572.407
730.236
-330.073
-247.808
-175.971
423.779
-489.878
148.629
341.249
1457.02
80.4525
-1537.47
-749.959
1346.1
-1144.76
-466.079
555.973
-180.692
1149.96
-371.943
1083.51
492.703
688.826
-411.222
-885.134
-522.329
-1328.46
-27.9992
984.912
-956.913
612.106
334.822
-946.928
-311.866
-224.759
-681.83
405.517
1621.19
-182.636
361.956
350.299
-712.255
-1839.79
-2106.68
1519.14
587.539
-2039.44
347.58
366.402
547.955
-914.357
-460.253
1020.87
-397.426
-682.844
1080.27
-2030.53
1391.21
639.319
610.01
-1007.44
33.3719
378.721
386.956
202.023
244.554
355.219
976.412
882.777
681.542
-326.95
-354.592
-295.247
623.518
-328.271
574.652
529.917
565.522
514.955
-1080.48
-796.245
-699.303
753.014
396.948
-420.381
722.754
-1193.42
1609.58
421.138
-1103.98
-315.448
524.508
-1388.3
883.635
504.661
-723.766
-357.359
-777.858
343.507
434.351
447.053
718.491
-1165.54
1067.48
-574.872
-395.118
645.736
-250.618
254.441
324.967
-468.748
-432.157
900.904
-240.156
561.488
-945.366
383.878
-461.139
600.599
-1681.26
423.748
671.214
-1094.96
518.092
86.9899
113.407
-2212.79
551.706
-99.8614
1443.91
1777.09
-217.553
-1559.54
-438.418
1789.18
-1986.92
1194.46
792.462
405.159
345.205
-36.3871
867.634
-1283.52
718.941
-870.716
-823.168
795.169
311.467
48.0983
-359.565
229.579
184.806
-414.386
1550.56
-834.149
-1530.94
-325.432
448.404
-191.242
-257.163
395.541
366.993
234.82
401.669
-8.55915
1001.34
-992.778
412.279
268.029
-680.308
-734.037
1817.29
-1083.25
-343.078
738.619
-1217.03
-413.277
-916.305
484.149
590.523
-802.856
212.333
762.881
-381.579
-381.302
-428.814
-439.278
449.901
1089.91
1236.11
-666.094
802.16
-345.696
406.027
316.458
-255.168
-208.778
-222.422
621.68
408.128
-848.719
440.591
230.335
364.906
-595.241
-423.403
831.531
754.669
-1147.42
892.413
-68.0233
-490.031
271.182
778.491
-95.6671
1383.66
1890.5
-75.3521
335.166
-345.746
435.842
-1085.63
1077.08
647.099
376.557
386.324
57.3719
391.032
259.034
490.865
-370.016
-270.56
-564.059
-89.5781
-353.737
368.424
-14.6876
-258.426
-290.308
1011.08
-1540.72
529.642
-184.917
-189.375
-416.708
684.737
-1630.26
1591.06
-963.181
273.542
-685.731
584.311
1224.42
-1808.73
607.41
983.649
296.972
-1117.89
694.093
-315.52
-298.756
1375.38
-1442.94
824.304
618.631
416.42
-607.125
190.705
-346.843
460.286
-113.444
390.774
69.5416
1723.74
462.715
-253.551
557.622
-1704.79
1147.17
-92.3893
407.887
343.332
338.209
-448.545
-615.925
1064.47
418.592
-860.622
-641.263
903.053
570.36
-480.1
-230.79
-439.67
-409.05
-307.213
-827.363
1821.11
-1821.11
-104.772
-1591.75
1696.53
292.54
286.525
-917.325
-555.312
1472.64
-408.254
973.776
-596.877
-1043.5
699.48
379.728
-1079.21
479.917
-164.619
573.06
1220.35
-1793.41
-1047.21
2115.82
-1068.61
-373.991
-299.351
-505.237
834.847
-1749.89
1599.58
150.306
1749.89
-1603.52
-146.366
-247.387
526.654
-279.267
-537.282
1620.79
1563.7
-1976.98
1080.59
-328.42
-218.578
546.998
237.183
-552.631
-717.169
296.788
1341.07
635.812
578.184
485.184
-1063.37
280.551
408.275
875.455
500.112
-1375.57
531.372
-1017.29
1574.96
-563.881
-786.751
-380.623
-134.132
514.754
-489.973
1208.46
-740.731
334.096
368.292
351.979
250.87
-602.849
589.162
832.02
-603.48
258.688
673.225
-480.1
-361.472
-197.216
558.688
1168.56
-682.916
611.005
465.14
-1076.15
-1284.5
1284.5
-387.158
763.715
-286.869
-473.964
760.833
484.078
445.8
-929.878
387.925
-674.794
612.76
-868.426
255.666
-367.379
-495.706
1073.89
-662.189
-709.31
1371.5
-366.518
928.006
-1552.69
675.267
3.36565
-362.017
358.651
-532.138
689.854
269.256
323.371
172.577
307.34
-549.186
233.666
1869.32
-1964.99
257.556
-684.349
444.591
-819.483
374.891
-917.674
1421.46
-503.789
-429.879
-486.427
600.702
1124.2
-1724.91
-716.291
342.3
-460.142
1034.79
-777.684
1036.37
-380.452
-630.422
-495.589
704.532
540.901
-358.836
902.67
-296.466
-193.412
1599.02
-1816.57
-334.581
-610.786
-328.596
477.225
256.932
-620.269
-163.651
1061.11
-789.925
212.642
-307.412
-280.299
587.712
390.48
-871.991
481.512
-488.495
-445.097
-913.671
-340.021
535.331
-195.31
-435.509
-416.851
-314.412
-192.048
-378.277
629.148
-465.809
782.267
-1073.04
624.495
-1410.76
549.669
-27.7887
-1834.47
1862.26
569.896
-449.468
1212.8
-698.394
296.211
-296.211
670.172
-431.704
1045.09
-1641.97
-1158.73
-947.946
293.844
329.674
885.146
714.058
-495.048
-288.993
784.041
1656.68
-1684.47
-434.627
351.014
219.759
1135.23
-524.221
-943.332
1550.47
-607.14
445.789
-243.766
386.373
395.077
-781.45
527.228
471.453
-998.681
-332.089
666.185
-37.8332
1907.15
1597.06
992.917
-1697.04
727.216
-1177.22
450.005
-492.466
1367.92
837.939
-1341.41
-565.405
236.985
792.634
-399.444
553.185
-1186.96
633.771
-639.242
-1215.54
-695.645
1911.18
-192.287
525.145
-332.857
-121.502
278.662
-470.949
325.575
372.998
-698.574
-1481.4
756.755
724.646
884.107
-1434.49
826.306
-431.366
222.273
-365.926
-594.952
233.479
-656.328
-731.967
699.097
505.927
-1205.02
395.737
-204.64
-191.097
556.46
-959.019
-564.613
-449.009
749.306
-831.283
-1155.63
-1437.98
499.635
938.344
34.6185
-635.722
304.6
331.122
-1310.88
1044.53
266.35
-616.895
-456.145
-665.942
921.865
403.136
-206.164
-196.972
508.181
980.697
-1488.88
973.028
-563.538
166.972
396.566
-416.482
658.029
-400.473
-505.496
176.899
234.405
-1517.75
530.388
537.087
-743.108
210.97
159.205
-455.671
369.572
-814.669
1954.16
-1195.39
-758.769
433.284
-661.024
227.74
324.594
316.381
127.063
-443.444
-565.08
196.398
266.317
-691.714
1374.39
-682.679
424.087
465.752
-1189.52
268.228
1866.78
-1013.59
-853.188
785.05
-495.722
155.701
1402.39
-975.203
-427.187
334.042
-765.746
-616.498
1725.45
612.357
623.756
317.341
-5.87383
262.911
-1138.45
1725.72
-587.275
-1763.52
820.188
1757.04
-1687.98
-69.0563
-652.621
250.711
591.728
-697.49
201.901
1402.77
-564.832
390.947
437.492
-1858.54
1420.12
510.732
-433.451
-77.2804
206.838
-521.249
-310.852
-145.649
-353.781
697.114
-607.309
226.687
606.797
551.187
-1157.98
1113.67
-1947.43
833.763
151.264
310.971
-1698.76
1660.93
314.936
-726.158
-163.181
385.454
752.837
679.178
-1432.01
1075.72
-1077.38
525.979
-1100.85
-632.369
254.807
377.562
506.595
-274.666
-607.667
-1034.3
294.211
-711.062
-912.319
178.302
167.648
228.089
379.521
291.283
-670.804
-627.557
-833.943
-978.417
489.978
-1055.06
-271.82
469
533.472
645.52
-280.297
-122.65
-437.36
734.333
267.458
-1197.26
569.707
1306.85
-554.009
440.224
-1004.84
-388.405
123.296
387.436
1023.4
551.562
-1717.28
1612.51
1636.61
-569.359
-1067.25
1902.74
-1891.09
-11.6508
215.087
-560.833
-331.577
544.22
-766.03
-313.865
-338.755
1028.94
697.058
-1503.63
806.568
320.867
-26.1905
1625.21
-1085.39
402.479
-1247.49
460.738
-60.2096
1517.23
1197.52
-470.304
-489.12
-74.4185
-232.417
736.013
-1951.55
-711.652
344.747
-532.069
187.322
191.545
-508.164
1139.91
671.548
-1811.46
-573.612
140.161
942.085
-1497.4
-210.503
678.922
-468.419
884.445
1115.55
-736.092
1348.45
615.482
-525.052
-90.4307
-346.525
1170.83
1046.78
-1981.76
934.984
-1169.63
544.063
1488.82
-585.772
-371.236
-130.525
-1239.95
573.859
1165.06
-101.265
946.061
775.474
-1721.54
-214.976
578.459
-1541.76
963.303
486.993
916.695
-1403.69
617.38
587.811
378.054
-1106.65
591.433
1104.62
1215.97
-452.367
-763.6
-1186.2
-1754.94
-7.32951
-1709.95
-182.632
-424.493
1606.29
-627.241
-979.049
-490.873
1121.66
-1316.63
636.732
679.902
-1360.92
1441.37
-1329.04
592.945
1520.54
-399.885
-538.655
167.419
-1487.03
233.518
176.38
194.036
421.447
454.689
387.967
-842.656
506.336
-939.077
900.91
-1444.88
-681.897
213.442
468.456
-1037.19
457.507
-469.852
860.8
695.087
33.4067
-500.883
168.025
-886.565
-1318.74
-716.807
350.913
365.894
405.705
-723.954
318.25
-480.621
-189.392
-709.672
718.074
1539.54
-593.481
813.384
737.179
1344.83
-844.721
-971.382
-570.38
-798.47
428.003
370.467
-1037
-644.343
305.507
338.836
-1433.7
-296.781
-791.77
399.03
392.74
-633.924
400.583
233.34
-661.474
261.002
412.796
488.109
389.978
441.553
479.491
384.726
596.967
-970.189
674.622
466.965
454
356.622
-810.621
1630.77
-1079.91
-550.863
-504.48
-284.269
-1026.61
454.835
347.937
409.68
594.461
-1004.14
-1379.73
752.489
-534.338
1145.06
344.249
-70.6246
412.253
-866.352
454.099
-1896.9
305.144
441.983
-727.075
285.092
-185.43
406.896
-221.466
-662.929
309.846
353.083
-675.901
321.31
371.089
392.626
612.989
-1021.24
753.548
661.247
-1414.79
438.796
625.674
340.119
393.181
-733.3
410.013
328.605
615.532
689.023
400.884
597.452
-1016.18
418.725
-1676.13
1188.69
487.437
1696.6
-539.174
621.605
-1147.54
525.934
-643.717
348.397
437.356
-935.83
498.474
759
-472.489
351.356
345.758
572.959
-907.54
650.915
-1253.47
602.56
377.54
734.955
-1224.93
769.758
509.507
-1279.27
481.672
401.504
-883.176
-501.64
-936.339
-304.096
629.671
352.668
542.182
-894.85
333.746
332.439
-502.178
1944.74
437.366
-847.623
410.257
-917.887
-807.008
-749.983
368.681
-1210.32
432.64
-1731.2
1603.52
127.681
1744.68
-1599.58
-145.097
-785.366
-595.241
267.49
327.751
-1757.04
1976.98
538.412
791.776
-1330.19
440.113
716.501
690.451
385.646
-1076.1
-59.0719
1617.15
-593.748
376.189
836.61
-650.785
327.22
323.565
-378.598
-298.155
552.596
-225.01
435.906
281.81
-668.288
386.478
266.483
-581.777
-284
442.543
-1033.9
591.362
538.042
1092.73
366.084
597.155
312.263
352.828
-665.091
1621.89
-924.837
1691.76
-1520.38
-171.385
-328.758
-824.328
415.279
857.571
-1068.07
-609.181
280.91
-1090.61
1628.65
-1586.06
-79.2315
1665.29
-341.691
-350.499
-370.395
536.481
598.746
-503.873
-30.3057
-550.025
509.188
-284.181
-225.007
1747.44
-1297.54
-626.95
300.406
326.544
402.191
357.291
734.77
-297.276
-399.07
-1744.68
1684.47
459.545
-1101.25
641.71
-43.6184
1656.13
571.411
476.452
-1047.86
104.49
1144.96
-1452.17
-14.9543
-1881.94
229.921
-600.598
308.014
292.584
-955.645
612.702
-899.111
469.232
-1128.83
673.764
455.065
369.038
257.494
-752.543
-334.099
1217.47
886.935
699.02
-1183.07
456.164
726.906
494.33
701.053
-1195.38
-386.603
-248.208
415.856
-961.276
438.52
522.756
21.257
-1879.79
1079.9
-467.142
-491.05
558.038
-1378.31
820.274
-421.549
796.441
-405.446
497.734
-715.496
1717.17
416.28
-188.191
216.701
-173.661
-246.419
420.08
1895.32
-504.11
-1690.1
1051.79
-603.179
305.024
-1014.32
554.071
-313.549
544.276
905.36
-1449.64
-1104.04
438.099
-20.708
-1944.28
1713.98
-667.203
-540.794
460.72
-1190.69
729.967
189.626
213.51
-282.494
768.543
700.959
838.725
818.798
-462.176
1085.22
-479.978
481.598
-195.741
-285.856
-1922.75
-714.393
-318.788
-643.864
-6.69949
650.563
470.153
-273.756
562.278
1059.62
-802.223
925.465
1244.46
-425.298
-178.421
-240.912
419.333
952.792
-888.574
-324.059
-1068.25
612.109
1555.08
-798.324
537.628
935.009
-388.255
734.7
-346.446
1130.56
-276.724
355.993
1349.81
-704.227
-221.561
448.3
-1198.77
750.473
-992.773
-122.85
1115.62
442.445
-956.274
513.829
154.039
732.603
483.364
744.38
-105.19
853.806
-425.76
1182.7
-797.058
552.074
-1465.53
913.455
-1216.66
1800.97
-431.713
-1510.19
879.74
-1402.07
-297.434
-443.929
1457.29
-1522.56
785.133
1491.52
204.169
277.429
-346.29
-1731.2
-291.561
-1010.72
1573
-1764.76
1764.76
1563.7
-1004.55
-635.379
-328.608
368.462
605.315
-402.242
-355.169
-1389.89
897.423
1125.16
600.562
1202.88
1789.48
-1216.42
-609.453
274.412
1658.95
-1916.4
257.449
814.197
-1267.5
1545.26
-561.613
772.997
326.028
-336.207
554.697
795.31
660.9
1367.39
-242.403
-445.012
-345.794
498.142
-341.942
471.746
736.718
-287.012
-156.432
-322.282
564.265
-241.983
25.8015
-373.573
1107.48
-1720.28
-441.075
-480.627
-562.438
863.641
691.438
-1596.56
904.845
-451.681
-618.44
-513.628
1252.25
333.258
1723.67
-1702.41
-1656.68
1891.09
-1560.87
840.304
720.563
-372.426
-1795.05
917.65
583.002
819.769
-390.319
1794.27
-680.597
-438.508
691.242
420.337
-1111.58
-1098.91
444.103
753.416
-1617.19
473.194
901.2
179.846
-406.229
226.382
-1597.13
-383.603
-450.054
990.309
-670.246
1442.99
-971.028
1855.47
242.62
-551.851
500.04
-295.871
474.321
893.599
543.073
977.471
-462.802
-428.007
573.901
883.394
-1392.71
-40.9891
1570.4
-833.218
519.952
971.565
-1475.86
-1115.9
1773.77
-1244.08
-529.693
1206.19
-318.973
-887.216
-194.653
458.239
-263.585
-457.484
-251.103
434.934
-183.831
149.496
-397.704
1731.6
-1738.93
-450.81
-530.849
-903.638
448.204
-209.569
-238.635
635.827
-469.75
-392.234
-298.941
691.175
-940.773
400.208
-1167.4
676.524
422.466
-632.005
-443.627
1572.5
-858.439
530.183
-457.863
-571.342
-462.563
365.97
-355.753
-10.2174
-1101.52
403.13
-664.701
-1033.7
1698.4
-596.969
-1423.12
713.805
562.173
-1596.28
1034.1
-382.954
-484.662
140.17
548.455
-1258.55
744.919
539.223
1006.04
-2133.18
999.99
1133.19
-342.947
413.773
-388.66
-25.1138
1478.08
-362.143
449.531
1194.7
582.135
906.69
568.167
527.41
-1095.58
169.436
-431.947
-1687.98
257.585
1127.59
-610.873
518.458
1013.8
-1532.26
1092.87
-1643.73
200.956
691.457
541.517
-865.576
-1086.55
-173.197
431.442
-258.245
-587.183
-419.778
-636.899
-629.536
347.043
-1618.57
939.904
-476.76
216.224
-404.415
537.69
-307.769
-603.333
1197.25
-1281.07
932.827
348.24
-1028.97
-349.619
-755.178
-823.04
1686.68
-476.892
1795.17
-1584.09
-211.079
-1556.65
1018.74
537.906
-723.689
-262.297
445.702
-183.405
-588.093
383.751
276.385
-660.136
-523.875
981.33
632.361
-351.451
-1620.29
1050.52
571.761
1103.56
-1675.32
-403.346
-295.686
-367.243
-742.998
-479.996
-331.086
503.663
1558
-995.831
-775.491
1497.47
661.892
-310.878
725.882
1152.37
-1878.25
268.238
292.503
-487.119
-1931.63
1719.47
212.156
740.324
-474.633
-265.692
531.826
1060.85
-1592.67
365.97
-1724.91
-233.209
1752.35
-1580.71
1073.79
506.918
-1725.22
0.31132
-521.62
413.773
1698.76
-1719.47
939.795
624.383
-1564.18
386.286
-220.506
-165.78
-406.393
-255.081
69.9539
95.2297
-357.527
-432.878
-435.548
-409.701
224.272
1510.26
378.826
-198.002
-435.921
465.945
-199.628
311.946
1510.79
990.93
-165.704
-825.225
-1104.12
1704.82
-1728.76
1064.06
-707.11
-1021.65
-1265.09
1844.99
-579.9
1155.08
-1771.13
616.057
272.505
-878.274
1675.66
43.4548
-1719.12
-491.162
-1083.07
-1731.6
-982.617
554.61
1019.63
590.216
1133.05
-1723.26
282.377
-463.069
705.598
-384.288
374.621
925.024
680.459
-371.633
-644.544
582.885
1072.57
-1655.46
-397.949
-371.384
769.333
390.802
-1660.93
1520.38
140.554
584.47
-1044.61
544.745
1083.91
-1555.7
994.089
-240.035
234.488
309.732
1902.74
404.806
-75.27
995.864
722.754
-1718.62
-697.419
1085.36
-1557.53
168.977
-571.893
199.526
266.419
-657.808
-552.516
582.475
1034.67
-711.233
-247.836
-1368.75
676.225
692.52
-418.619
754.671
81.3026
-835.973
561.639
-137.148
1557.27
-220.076
262.25
-770.075
-1931.63
1664.63
1031.08
351.946
284.586
474.414
-930.191
-992.561
-1767.27
638.558
1693.77
510.731
-474.247
1210.97
1087.16
-424.966
1030.28
-979.242
494.376
484.866
700.111
1047.97
-1748.08
486.785
480.919
-1494.03
-747.471
31.5457
781.596
-412.915
-879.41
388.36
-538.629
-802.777
610.927
-577.143
1397.42
1055.14
196.063
235.379
-550.612
1618.53
-772.009
1525.56
-1727.84
575.245
1152.59
545.467
-883.888
-1732.69
1916.4
-183.709
1721.75
184.483
-543.469
369.802
-274.572
-481.382
1211.35
568.271
1128.33
-491.338
432.818
859.336
-463.497
-772.829
422.897
349.932
1418.73
1089.62
-518.176
1423.02
-510.663
-533.487
1044.15
-602.745
486.136
-1212.64
1691.76
1839.58
-687.21
1585.61
-645.817
-1241.5
717.627
-562.406
204.612
-395.318
457.873
-245.743
-520.499
-1246.71
1870.94
-624.23
1173.52
-551.916
1120.29
-1659.47
1692.19
-573.93
-544.979
-549.812
1720.07
-317.239
-688.032
-473.304
1223.78
-1682.57
-1860.1
613.391
317.034
-945.506
171.349
215.859
-1719.03
1204.16
514.871
1162.86
558.889
-511.331
-465.38
1192.29
177.539
229.357
588.444
1251.14
-539.174
-1238.59
1777.76
-1025.44
999.991
866.789
-204.129
-1658.95
1702.41
-510.063
1411.26
-1732.69
-349.193
4.27591
344.918
-267.338
585.951
-318.613
88.1062
492.802
782.315
-376.61
1257.53
1270.93
-413.36
853.151
-437.872
1817.44
-662.36
1586.52
-1723.67
-412.782
-748.014
328.424
419.589
-559.45
-563.254
79.733
-1138.78
-985.559
-669.597
1655.16
-943.708
-1189.47
201.393
-419.97
-648.602
705.6
1167.45
649.985
1410.36
-590.588
1636.75
1318.16
-573.241
-495.551
199.68
-503.275
1396.87
1240.23
-564.005
-999.989
894.025
53.6226
-947.648
603.446
-506.124
1403.55
1495.09
-588.399
-369.778
369.778
-589.402
1623.5
1239.62
-486.202
1134.16
-69.9152
1852.57
-397.836
1489.5
-588.586
-507.676
1347.98
-653.205
1218.72
-565.517
1554.82
-591.513
750.258
569.663
-1319.92
-665.058
260.745
502.734
600.053
-1957.3
-982.419
1586.52
372.062
-372.062
-72.8169
389.679
436.627
338.662
52.1123
-324.426
912.877
-535.337
-425.702
815.381
-245.202
622.764
-432.324
1549.07
-444.342
-884.122
190.005
227.364
-417.369
601.167
1250.78
-1851.95
927.836
-458.604
-355.753
126.153
-1943.01
1816.86
-452.602
187.922
1181.33
-440.456
-740.87
-303.541
-575.87
-491.676
-388.66
-483.119
258.112
1158.52
-559.772
230.465
-385.338
154.873
-22.6894
-107.677
1376.04
-1268.37
34.5613
-598.62
-586.378
-453.741
453.741
-1262.36
1985.11
-1344.4
-209.951
-1825.01
240.917
-1025.76
-974.243
-188.211
-1637.37
707.184
1229.32
-1924.96
371.488
311.132
-682.62
-1850.01
1234.27
615.74
-562.09
562.09
-959.236
-39.9676
-1866.04
-558.139
1650.87
-677.655
1636.18
-601.503
-176.168
-1705.78
-586.893
-463.428
-594.789
-467.669
467.669
-1537.81
194.525
1343.28
175.8
227
-402.8
497.318
493.612
997.62
-474.865
1751.3
768.174
-424.565
399.452
520.316
1702.06
-594.578
-552.961
1636.87
473.938
1812.73
-645.278
-1803.88
-1938.08
-646.928
-479.788
479.788
-570.589
224.795
-699.045
1019.91
-465.844
-1071.44
-282.865
1579.57
1852.3
1635.33
-1635.33
-293.44
738.348
1761.49
595.784
1275.15
175.774
210.512
581.372
596.865
1603.52
-1603.52
224.142
-352.466
-433.775
462.482
952.068
-457.692
-639.897
-1131.02
1706.27
281.863
-1655.2
611.705
-289.584
474.067
1744.64
-592.054
-216.702
-436.594
379.48
725.137
1738.57
-613.413
-511.761
-781.737
1960.53
-870.452
-1090.08
1642.8
-706.329
1223.98
-1824.94
600.967
341.945
-893.796
-185.961
-106.529
1098.6
-486.493
120.777
619.494
-1653.79
439.25
591.288
-1803.88
-583.273
1787.43
884.451
-1162.93
1760.49
-597.56
1783.83
-575.523
-1208.31
433.04
931.387
-1738.93
924.812
-1492.18
258.881
1233.3
-830.827
-1254.23
-381.506
76.2885
305.217
581.716
271.313
1025
-446.04
847.364
-401.324
821.332
738.024
-1559.36
643.68
1066.26
-24.2536
-663.576
687.83
-1744.29
722.646
698.001
150.572
-1122.7
1936.75
-674.547
-1262.21
-537.176
1665.5
828.643
963.177
-1791.82
1227.87
683.317
-401.827
711.673
844.08
1028.85
-586.409
1761.49
626.819
1773.56
-1185.63
-587.935
-414.783
-313.15
727.933
121.446
-1185.71
1660.56
-540.266
-1437.82
1437.82
1250.58
594.414
1351.59
206.414
-572.412
283.147
-194.769
699.062
1113.67
484.692
-307.153
-870.383
-574.498
1738.62
-1738.62
994.068
-994.068
987.33
1025.17
-2012.5
1837.94
-613.966
-581.105
829.193
-947.848
-1052.16
998.401
690.435
-1688.84
-517.258
-354.511
-652.925
-808.421
2042.69
-1246.42
-613.677
1002.97
974.85
1289.77
646.984
327
1012.69
240.489
336.275
1186.26
1756.87
-1756.87
672.042
79.9386
-389.39
-997.052
-539.991
1674.15
988.963
1011.04
-1833.28
-225.029
-361.864
595.172
-337.587
1849.48
-1077.86