/*--------------------------------*- C++ -*----------------------------------*\
  =========                 |
  \\      /  F ield         | OpenFOAM: The Open Source CFD Toolbox
   \\    /   O peration     | Website:  https://openfoam.org
    \\  /    A nd           | Version:  7
     \\/     M anipulation  |
\*---------------------------------------------------------------------------*/
FoamFile
{
    version     2.0;
    format      ascii;
    class       volVectorField;
    location    "39";
    object      U;
}
// * * * * * * * * * * * * * * * * * * * * * * * * * * * * * * * * * * * * * //

dimensions      [0 1 -1 0 0 0 0];

internalField   nonuniform List<vector> 
29540
(
(1.00977 -0.0128403 2.31139e-23)
(1.00841 0.00434289 1.20388e-22)
(0.991445 -0.00310616 -1.4764e-22)
(0.971083 -0.0453089 5.08879e-23)
(0.997739 -4.84123e-05 2.10929e-23)
(0.959904 -0.0276182 -7.1662e-23)
(1.0507 -0.0790128 1.57271e-22)
(1.01275 -0.0194825 -2.22956e-24)
(1.00186 -0.00180855 3.37733e-24)
(1.00017 -4.56439e-05 8.71167e-25)
(1.0141 -0.0260984 -1.15721e-24)
(0.997909 -0.0153699 -5.66603e-23)
(0.999556 -0.000180769 2.90656e-24)
(0.999972 -1.00613e-05 8.24172e-26)
(1.1761 0.0978492 1.57518e-22)
(0.994394 -0.00180555 2.27679e-23)
(0.999853 -0.000791318 -1.34234e-24)
(1.14214 -0.0145195 -5.59444e-24)
(0.998024 -0.00166523 -7.17919e-24)
(0.9899 -0.000745527 -3.29806e-23)
(0.999202 -0.000255456 -9.8495e-24)
(1.00175 -0.00180419 1.1847e-23)
(0.991363 -0.00328525 1.63196e-22)
(0.998016 -0.000159126 9.2475e-24)
(0.879862 0.1235 6.208e-23)
(1.00934 0.00346015 6.46009e-22)
(0.999521 -5.44957e-05 6.62184e-24)
(0.940846 0.105876 -4.06233e-21)
(1.18215 0.0975078 -4.80867e-22)
(0.999208 -0.00842115 -1.05434e-23)
(1.01424 -0.0104696 1.68812e-23)
(1.03591 -0.00706562 -1.30659e-22)
(0.975384 -0.104605 5.41125e-22)
(0.997986 -0.0212797 2.92979e-23)
(0.938727 0.100911 3.25989e-21)
(1.00271 -0.0304475 9.17129e-23)
(1.07348 0.0479736 -1.91086e-22)
(0.973835 -0.0255049 1.95492e-22)
(1.00491 -0.000768165 -4.63943e-23)
(1.00475 -0.000554386 8.84243e-23)
(1.0004 -0.000150766 -2.73805e-24)
(0.989227 -0.028 -1.99289e-22)
(0.99987 -0.000769288 -1.73301e-26)
(1.02139 -0.068351 -4.18059e-22)
(1.00003 -5.22614e-06 -1.64768e-25)
(0.999395 -0.00854245 7.68774e-24)
(0.997637 -0.0114145 -1.62084e-23)
(1.00007 -7.8424e-05 4.30339e-25)
(1.00308 -0.00338974 -4.79383e-23)
(1.07315 0.0449106 -7.81668e-23)
(1.10695 -0.100011 1.23623e-22)
(0.974352 -0.0400077 -2.33145e-22)
(1.03584 -0.00617086 4.6039e-23)
(0.96115 -0.027411 -1.1701e-22)
(0.994531 -0.00185194 -1.9983e-23)
(1.18636 0.0843676 -2.85194e-22)
(0.996882 -0.00208059 7.19709e-24)
(0.99918 -0.000281401 1.24793e-23)
(0.999747 -0.0201015 -4.23194e-23)
(1.00793 -0.0547623 -1.69285e-22)
(0.99994 -6.49382e-06 1.92445e-25)
(0.998094 -0.00170662 -1.47707e-24)
(1.27372 -0.0104365 -2.6248e-22)
(1.00309 -0.0297744 -5.14593e-23)
(1.0712 0.119884 1.68254e-21)
(0.909556 0.0345858 8.22888e-21)
(0.998739 -0.0252773 -8.10865e-23)
(0.993196 -0.012745 6.92748e-23)
(0.934062 0.022201 3.29884e-21)
(1.00042 -0.000142224 1.77143e-24)
(1.01097 0.00416207 -8.80333e-22)
(0.988256 0.0890592 2.22137e-21)
(1.00294 -0.00839673 -1.73699e-23)
(0.901513 0.143816 2.26026e-21)
(0.992579 -0.000582513 1.04918e-22)
(1.11389 -0.0584127 -5.11038e-23)
(1.25127 0.159147 1.6256e-22)
(0.975044 -0.0144998 4.62483e-23)
(0.999955 -2.06317e-05 -5.46563e-25)
(1.00224 -0.0448968 -1.61483e-22)
(0.961639 -0.000642957 -7.68497e-23)
(1.02201 0.0438556 5.22157e-22)
(1.00994 -0.0133972 -6.99585e-23)
(1 -5.80054e-05 6.56207e-26)
(1.05321 -0.0773652 -2.47411e-22)
(1.18141 -0.193014 -8.13098e-22)
(1.04128 0.105164 -3.30312e-21)
(0.999538 -0.000178117 -2.63412e-24)
(0.99957 -0.000161158 -7.72181e-25)
(0.941053 -0.0348795 -3.01377e-22)
(0.992774 -0.0485341 2.80649e-22)
(0.974945 -0.015188 5.24842e-23)
(1.00289 -0.00350263 8.12856e-24)
(1.05795 -0.0119565 -7.02703e-23)
(0.936147 -0.0148634 -2.52101e-22)
(1.05235 0.127037 1.63291e-21)
(0.993734 -0.0628774 4.59659e-22)
(1.00044 -0.000357222 4.38606e-24)
(0.971274 -0.0568073 -4.67149e-22)
(1.16878 0.127684 1.05718e-21)
(0.999952 -2.02222e-05 7.99231e-25)
(0.976268 -0.00946092 -2.78216e-22)
(0.999941 -7.95573e-06 -9.95688e-26)
(1.04447 -0.0202348 -3.3869e-22)
(0.97313 -0.0398209 1.53724e-22)
(1.03637 0.0133121 8.78613e-22)
(1.00448 0.083843 3.28723e-21)
(0.999587 -0.000163074 -6.52831e-24)
(0.999996 -6.43588e-05 -1.2993e-26)
(0.989554 -0.102024 -2.78074e-23)
(0.973691 -0.103182 -4.87285e-22)
(1.03912 -0.0409298 6.26913e-24)
(1.00001 -2.09594e-06 2.78615e-26)
(0.998931 -0.00569616 -2.71925e-23)
(0.999893 -0.00203203 1.02406e-24)
(0.991134 0.0912983 1.70939e-23)
(1.04588 0.0628688 -1.12511e-21)
(0.989187 -0.00665389 -1.12632e-22)
(1.00002 -6.32174e-05 3.6201e-26)
(1.00324 -0.00832024 -1.3582e-23)
(1.27776 -0.113152 3.10525e-21)
(1.00523 0.0123678 1.42661e-21)
(1.16932 -0.0860802 -1.05795e-21)
(0.907362 0.0422666 -7.79869e-21)
(1.00101 -0.000331764 -1.11859e-23)
(1.16533 -0.0597829 1.69318e-22)
(1.14091 -0.00964746 -4.56727e-23)
(1.01223 -0.0531235 1.3265e-22)
(1.00369 -0.00321522 -4.30318e-23)
(1.00002 -0.000406569 3.02342e-26)
(1.02122 -0.0665066 1.47732e-22)
(1.25593 0.151337 4.8696e-23)
(1.00614 0.158616 4.03146e-21)
(1.16938 -0.107212 -3.10867e-22)
(1.04295 -0.0197973 2.84085e-22)
(1.01382 -0.0100897 3.23443e-22)
(1.08389 0.207027 2.68094e-22)
(0.975272 -0.000702402 4.05237e-22)
(1.07635 -0.199016 1.92233e-21)
(1.17065 0.120989 -8.17463e-22)
(1.16539 -0.0537342 -1.64575e-22)
(0.947338 -0.00443981 -3.21822e-22)
(0.95566 -0.0382643 9.88381e-23)
(1.00001 -1.92086e-06 -1.2205e-26)
(0.99999 -3.69991e-06 4.38104e-26)
(0.99768 -8.04687e-05 -1.665e-23)
(0.997815 -0.0111886 3.29488e-23)
(0.980561 -0.0804941 -3.66604e-22)
(1.09562 -0.161681 9.19241e-22)
(1.3069 0.0582571 -8.57925e-22)
(1.02877 -0.0188555 1.57991e-22)
(1.01645 -0.0188668 4.91067e-23)
(1.0004 -0.00057956 6.75134e-24)
(0.999879 -0.000205252 7.67019e-25)
(1.00145 0.0197598 -3.19767e-21)
(1.00049 -0.00141659 7.79902e-25)
(0.993792 -0.0103809 3.31241e-27)
(1.10051 0.210113 -7.45755e-22)
(1.00436 0.0430738 -3.49448e-21)
(1.11053 -0.0971818 -2.79491e-22)
(0.963377 -0.00245125 1.32748e-22)
(0.971999 -0.0444415 3.58752e-22)
(1.18714 0.0906716 7.83271e-23)
(0.999954 -4.2536e-05 1.74038e-25)
(0.999989 -3.57615e-06 -1.62717e-26)
(0.989134 -0.00699171 3.98504e-23)
(0.95673 -0.0375383 -5.22547e-22)
(1.00005 -0.000208435 -4.11458e-25)
(1 -6.15513e-05 2.6001e-26)
(0.993776 -0.00469257 -1.34777e-23)
(1.00003 -0.000394625 -2.2105e-26)
(1.00529 -0.00555385 -2.37841e-23)
(1.0953 0.21413 8.73247e-22)
(0.975625 -0.000373292 -3.33695e-22)
(1.02887 -0.108836 -1.86652e-22)
(0.995362 -9.06389e-05 6.76543e-23)
(1.00194 -0.00249924 2.51004e-24)
(0.975643 -0.00929625 4.70337e-22)
(0.999205 -0.00568519 -2.51438e-24)
(1.17787 -0.0765511 6.91529e-22)
(0.99998 -9.45373e-06 2.6884e-25)
(1.01083 -0.0364289 -8.13765e-23)
(1.0439 0.107395 1.17853e-21)
(0.993485 -0.0118481 -3.90448e-24)
(1.0727 -0.193867 -1.77351e-21)
(1.03451 0.053901 -9.94665e-22)
(0.994225 -0.00258712 -9.82438e-23)
(0.983415 -0.0138431 1.22856e-22)
(1.00348 -0.00323114 6.55736e-23)
(0.999289 -0.00785304 -1.64914e-23)
(0.999745 -6.76197e-06 7.57413e-25)
(1.00535 -0.0167173 5.62416e-24)
(0.902354 0.0210985 3.26198e-21)
(1.00086 0.0159104 2.45997e-21)
(0.98693 -0.00561272 3.07773e-24)
(0.994066 -0.0102313 -4.36786e-23)
(0.980624 0.0449358 -3.02945e-21)
(1.01299 0.0339199 4.48302e-22)
(0.937432 -0.0147262 3.04609e-22)
(1.00106 -0.000442657 -8.75401e-24)
(1.05896 -0.0999103 3.06941e-22)
(0.969193 -0.0748694 4.844e-22)
(0.998151 -0.0156928 2.68431e-23)
(1.00077 -0.000974844 -1.40384e-23)
(1.08719 0.212118 3.76845e-22)
(0.993974 -0.00470339 -8.91817e-24)
(1.00618 -0.00498064 -2.69842e-23)
(0.979184 -0.0798598 4.87025e-22)
(0.989445 -0.104258 7.07922e-23)
(0.999967 -4.76097e-06 6.59609e-26)
(0.97627 0.127476 -3.66458e-21)
(0.999056 -2.12455e-05 -1.6415e-25)
(1 -4.94539e-05 1.83283e-26)
(0.999503 -0.000189948 1.12488e-24)
(0.995365 -0.0490009 -1.04711e-22)
(1.26526 0.0203213 7.48731e-22)
(1.0118 -0.0357503 5.41626e-24)
(1.00599 -0.00464995 -1.84718e-23)
(0.998038 -0.000218647 2.29715e-23)
(0.938522 -0.0164289 -5.97288e-23)
(1.00003 -0.000432117 -1.09742e-25)
(1.00044 -0.00144396 7.35454e-26)
(0.997887 -0.000185615 -1.51936e-23)
(1.02668 0.00131818 8.12764e-22)
(0.997589 -0.00360051 -4.93135e-24)
(0.998955 -0.00529112 8.05627e-24)
(1.0261 -0.00135249 3.88934e-22)
(1.00012 -0.000352734 6.60865e-25)
(1.00003 -4.54257e-06 4.34738e-26)
(1.00453 -0.000554945 9.3056e-24)
(0.977316 -0.0291825 -1.84796e-22)
(0.978263 -0.000358533 -1.61864e-22)
(0.995642 -0.000344655 -7.19937e-23)
(1.012 0.00327704 7.27078e-22)
(0.985769 -0.00102637 7.77485e-23)
(1.01669 -0.0182356 -4.92529e-23)
(0.999971 -1.12027e-05 2.31262e-25)
(0.997317 -0.00237629 -2.75555e-23)
(1.00072 -0.000967604 1.51683e-23)
(1.05923 -0.0963521 3.0495e-22)
(1.02029 -0.17042 1.16817e-21)
(0.998742 -0.000113423 1.20354e-23)
(1.00042 -0.000515393 -5.19428e-24)
(0.998866 -0.00516501 -2.73173e-24)
(1.00316 -0.00743042 -3.4036e-23)
(0.9901 -0.000550094 -1.39546e-22)
(0.999956 -4.0562e-05 -1.06725e-26)
(1.18001 -0.186733 -1.84308e-21)
(1.00004 -0.000441776 1.17476e-25)
(1.02634 0.00124555 -5.72211e-22)
(0.99698 -0.00208288 -1.44603e-23)
(1.00013 -0.000342294 2.81624e-25)
(1.03532 0.0137814 -5.58218e-22)
(0.965103 -0.07134 -5.01029e-22)
(1.00023 -3.87809e-05 2.86783e-24)
(1 -1.18078e-05 1.11633e-26)
(0.947201 -0.00317678 -3.6579e-22)
(1.01176 -0.155796 -1.79941e-22)
(0.992126 -0.00745285 -1.06358e-23)
(1.01124 -0.0542056 -3.42839e-23)
(1.02957 -0.0195872 -2.58912e-23)
(1.05016 0.103865 1.46966e-22)
(1.00007 -7.40378e-05 1.19199e-25)
(0.977747 -0.0286014 1.73496e-22)
(1.22991 -0.101779 1.31758e-21)
(0.960425 0.0687396 7.33194e-23)
(0.99341 -0.0115804 3.19658e-23)
(1.03314 0.0521334 1.21149e-21)
(1.1148 -0.0541313 -3.02516e-23)
(0.999892 -0.00223566 -1.35716e-24)
(0.809446 0.0578562 4.91348e-21)
(0.999505 -0.000399966 -7.56086e-24)
(1.02747 -0.111628 -2.34954e-22)
(0.939509 -0.0164356 3.78644e-22)
(1.00206 -0.00236193 -1.38467e-23)
(1.21873 -0.0265467 -5.04886e-22)
(0.9922 -0.00084385 -8.34824e-23)
(1.00859 0.171436 2.79925e-21)
(0.996835 -0.00023955 6.71853e-24)
(0.983862 -0.0149402 -6.45486e-24)
(0.999811 -0.00203098 -6.77656e-24)
(1.14566 0.166752 2.79184e-22)
(0.999869 -0.0159488 7.29427e-24)
(1.04858 0.127942 1.03649e-22)
(0.999534 -4.22294e-05 -2.89682e-24)
(0.994676 -0.00171411 -3.16086e-23)
(0.956626 0.154832 -1.88196e-21)
(1.03144 0.000222326 -6.61603e-22)
(1.0259 -0.000973089 4.52487e-22)
(0.972722 -0.0368808 4.31333e-22)
(0.999861 -2.99267e-05 7.68257e-25)
(1.00306 -0.00717785 -3.80854e-24)
(0.999849 -0.000863838 -2.42007e-24)
(1 -4.68547e-05 1.43507e-26)
(1.05854 0.00409264 1.69809e-22)
(1.00004 -4.89511e-06 3.9768e-27)
(0.981771 -0.013212 2.90796e-22)
(1.22408 -0.10243 -1.19709e-21)
(0.877064 0.128919 -4.78953e-21)
(1.0098 0.159178 -6.20769e-21)
(0.968829 -0.0620364 1.53416e-22)
(0.986833 -0.0271545 1.10243e-22)
(0.9793 -0.0013872 7.69414e-23)
(1.03119 -0.0370691 4.14679e-23)
(1.00588 -0.0165012 -1.48198e-23)
(0.983297 -0.0145036 -1.69703e-22)
(0.969026 -0.0680302 6.79571e-23)
(1.04818 0.106745 -2.20335e-21)
(0.999485 0.0147455 4.85037e-21)
(0.998825 -0.00013852 6.63345e-24)
(1.00603 0.0850798 -4.52518e-21)
(1.05744 0.00261239 5.44105e-23)
(1.17589 -0.084338 3.00758e-22)
(1.01254 -0.0149783 2.43491e-23)
(1.00087 -0.0147078 -3.83181e-23)
(1.01895 -0.0503144 -9.83576e-23)
(0.995059 -0.00165844 -7.44953e-23)
(0.997552 -0.000602835 -4.83146e-24)
(0.999945 -6.24788e-06 1.01611e-24)
(0.999139 -0.00804453 2.43306e-23)
(1.09338 -0.0527995 4.08394e-24)
(1.14652 0.173077 -4.94512e-22)
(1.0015 -0.00128488 6.48456e-24)
(0.974838 -0.0239231 -2.31631e-22)
(1.01436 -0.015358 -7.62068e-23)
(0.999965 -1.53373e-05 -8.83654e-26)
(0.968917 -0.0649275 -2.43406e-22)
(0.850059 0.100068 -2.18033e-21)
(0.994286 -0.00442206 1.10908e-22)
(0.998983 -0.00422879 7.45716e-24)
(1.01311 -0.0148117 -1.51573e-23)
(1.00202 -0.043598 2.00915e-22)
(1.09602 0.0310774 2.00671e-22)
(0.999473 -0.00913275 -3.84148e-24)
(0.99997 -4.92984e-05 5.74235e-25)
(1.00001 -2.95238e-06 1.34737e-26)
(0.997519 -0.000549208 -5.38488e-24)
(0.95441 0.153594 2.72536e-21)
(1.04778 -0.0308655 5.64607e-23)
(1.02459 -0.170173 -2.89258e-22)
(1 -1.18179e-05 1.07934e-27)
(1.00857 -0.158497 1.16274e-22)
(1.08469 -0.00656071 -1.92007e-22)
(0.995248 -0.000151699 -3.39051e-23)
(0.941762 -0.00601421 -4.51765e-22)
(0.999061 -0.00415518 -7.49237e-24)
(0.999597 -0.000182761 -4.77473e-25)
(0.978457 -0.0258644 -5.11144e-23)
(1.00085 -0.00107005 -6.7779e-24)
(1.18409 -0.0745359 -6.2424e-22)
(1.00863 -0.000994681 -1.96714e-22)
(1.24539 0.111653 -6.28307e-23)
(0.999927 -0.00220661 1.75526e-24)
(1.00392 -0.0131159 5.16649e-24)
(1.00505 0.0109306 -1.93023e-21)
(1.2726 -0.1081 -1.27545e-21)
(1.00039 -0.00054567 -3.96728e-24)
(1.00041 -0.000483445 3.87977e-25)
(0.993828 0.1079 2.25328e-22)
(0.993738 -0.0495246 -5.52951e-23)
(0.999314 -0.00899241 4.71533e-24)
(1.01179 0.0374286 2.37023e-22)
(0.97239 0.0230915 5.96967e-21)
(1.10629 -0.104742 -4.287e-22)
(0.998772 -0.0244029 -2.3687e-23)
(1.25994 0.0234344 -7.4359e-22)
(0.999289 -6.8689e-05 -4.96747e-24)
(0.991927 -0.00389388 2.92798e-23)
(0.996901 -0.000252092 -1.86077e-23)
(1.01471 0.0324665 1.74332e-25)
(0.999988 -0.000710398 1.65529e-25)
(1.00833 -0.0012173 2.00989e-22)
(1.1208 -0.161863 2.21883e-23)
(1.00369 0.149696 6.31212e-21)
(0.90497 0.148525 -1.04132e-21)
(0.9944 -0.00258238 4.01525e-24)
(0.991897 -0.00727407 3.18422e-23)
(1.06795 0.123391 -1.34837e-21)
(1.00817 -0.0564663 2.45358e-22)
(0.999947 -7.50023e-06 -9.91228e-25)
(1.29082 0.104352 -6.50375e-22)
(1.026 0.00184377 -2.44656e-22)
(1.02553 0.0018033 -1.66598e-22)
(0.994545 -0.0126102 -4.76638e-23)
(1.01782 -0.0018705 -3.1406e-22)
(0.945071 0.137189 9.3394e-22)
(1.08751 -0.168432 -2.65338e-22)
(0.978741 0.136784 9.84347e-22)
(0.994896 0.135724 -1.65186e-21)
(0.999997 -6.16946e-05 4.14572e-26)
(1.09021 -0.0512127 3.02301e-23)
(1.09007 -0.163704 1.71308e-22)
(0.997477 -0.0036325 1.28849e-23)
(1.00153 -0.00137711 -1.07077e-23)
(0.966752 0.0274576 1.4342e-21)
(1.04944 -0.0318672 -7.10603e-23)
(1.00027 -7.13947e-05 6.56271e-25)
(0.980672 -0.055601 -5.50131e-22)
(0.968339 -0.0767154 -2.27255e-22)
(0.994792 -0.00176141 4.44197e-23)
(0.999888 -0.000199302 -9.6086e-25)
(1.06121 0.151871 -2.19435e-22)
(1.04536 0.0604717 1.87753e-21)
(1.00005 -0.000484262 -3.20017e-26)
(1.00383 -0.00347213 8.44932e-24)
(1.00494 -0.00348874 4.58332e-23)
(1.17633 -0.143225 1.30887e-21)
(0.972801 -0.0358923 -3.81842e-22)
(1.00006 -0.000574938 -2.74351e-25)
(0.999987 -2.43613e-06 -2.42633e-26)
(1.00047 -0.000156477 1.04309e-24)
(1.09435 0.0327888 -1.85454e-23)
(0.973855 -0.0246059 -1.87172e-22)
(1.00246 0.0429086 1.02936e-21)
(0.949409 -0.0419803 2.4203e-22)
(0.98759 -0.0270615 -1.1373e-22)
(0.977638 -0.00107491 -3.2054e-22)
(1.01352 0.0364626 -1.1673e-21)
(1.26474 -0.00863908 -6.86561e-23)
(0.998861 -0.000147346 1.21456e-23)
(1.00744 -0.00570259 -4.90004e-23)
(1.0008 -0.00105877 7.68528e-24)
(0.97707 0.150115 -2.54649e-21)
(0.975777 -0.022358 9.92404e-23)
(1.00103 -0.000269733 -3.66612e-24)
(0.992893 -0.00347566 -3.97804e-23)
(1.17174 -0.0490581 -2.2402e-22)
(0.99956 -0.00981545 -1.056e-23)
(0.989031 -0.0119508 -2.23417e-23)
(1.00022 -0.000135926 -1.99189e-24)
(1.00023 -5.21318e-05 -8.80625e-26)
(0.845861 0.106837 3.42207e-21)
(0.992258 -0.00125782 -5.20721e-23)
(0.995458 -0.00456253 4.57327e-23)
(0.999643 -0.00180072 -5.95286e-24)
(0.999306 -5.2563e-05 -6.82591e-25)
(1.05797 0.101131 -7.27688e-22)
(1.12621 -0.165473 7.06678e-23)
(0.984914 -0.0405001 7.0001e-23)
(1.00002 -2.21453e-06 -1.41886e-26)
(1 -3.77032e-05 1.30182e-26)
(0.974837 -0.0231305 2.62869e-22)
(0.993595 -0.00185185 1.05566e-23)
(0.995098 -0.00211727 -6.07059e-24)
(1.01391 -0.00528993 9.57209e-23)
(1.00555 -0.00237452 1.64841e-23)
(1.00012 -0.0163398 -1.32978e-23)
(1.13648 -0.0321847 -8.21624e-23)
(0.982501 -0.00421012 -6.54985e-23)
(0.980968 0.134233 -7.9922e-22)
(1.01325 -0.0260779 -1.28234e-23)
(1.00024 -0.000136427 2.21568e-24)
(0.968146 -0.0608289 2.2725e-23)
(0.983513 -0.0358396 -2.38237e-22)
(1.20775 -0.0178173 -2.13608e-22)
(0.997243 -0.00598433 -1.38598e-23)
(0.987972 -0.047718 -8.57504e-23)
(0.99998 -5.64623e-06 1.4797e-25)
(0.920941 0.108879 -3.27717e-21)
(1.01485 -0.00222579 1.755e-22)
(1.00008 -0.000232273 -6.69335e-25)
(0.902125 0.0288355 -4.19958e-21)
(0.983915 -0.0406442 1.60827e-22)
(0.999979 -6.54271e-06 2.34381e-26)
(1.00139 -0.00125508 3.16433e-24)
(0.968106 -0.0635957 -1.35154e-22)
(1.03766 -0.0394744 1.25606e-23)
(1.04992 -0.0144102 2.01104e-22)
(0.999992 -3.99836e-06 3.46101e-26)
(0.992217 -0.000642854 4.16414e-23)
(1.01993 -0.0493001 1.83609e-22)
(0.994936 -0.00161647 6.14719e-23)
(0.999553 -4.84972e-05 -1.5727e-23)
(0.992085 -0.00402138 7.44506e-25)
(0.976899 0.048025 3.5265e-22)
(0.993081 -0.0123817 -5.76856e-23)
(0.989493 -0.0117126 1.62801e-23)
(1.00156 0.023326 -9.92296e-22)
(0.997365 -0.00224464 1.43463e-23)
(0.970568 0.151995 -3.29753e-22)
(0.999978 -6.56355e-06 -7.51944e-26)
(0.989568 -0.0273283 4.62388e-23)
(0.979206 -0.0760639 5.70189e-22)
(0.988878 -0.048097 1.46133e-22)
(1.21312 -0.115045 3.36951e-22)
(0.998839 -0.00553381 1.82403e-23)
(1.00868 -0.0242693 -1.63371e-24)
(0.99991 -0.00237712 2.92559e-25)
(0.983493 -0.0210828 -1.30635e-22)
(1.03877 -0.0428961 -4.12961e-24)
(0.999966 -1.46778e-05 4.49304e-25)
(1.00002 -1.22963e-06 -2.34758e-26)
(0.99391 -0.000416424 2.80852e-23)
(0.979943 0.0949969 2.28102e-21)
(1.01225 -0.0201665 7.75585e-23)
(1.00249 -0.00353514 -1.32768e-23)
(0.937441 -0.0307432 3.21545e-22)
(1 -1.06702e-05 3.10642e-27)
(1.00094 -0.0011688 -1.22922e-23)
(0.999966 -0.00067718 -1.77473e-25)
(1.01364 -0.0193738 9.26479e-23)
(0.983779 -0.0155984 2.26223e-23)
(0.99963 -0.000284445 1.97739e-24)
(0.993553 -0.0110533 2.20973e-23)
(0.988108 -0.0069287 -2.34444e-23)
(1.00099 -0.000161979 -1.00948e-24)
(0.999978 -7.55197e-06 -4.69779e-26)
(1.24455 -0.0690934 -1.26515e-21)
(0.99968 -0.0017709 6.39127e-24)
(1.08141 -0.0115999 1.41565e-22)
(1.02122 0.146378 6.02536e-21)
(1.06223 0.121918 -1.25602e-21)
(1.00028 -0.0206194 -5.0429e-23)
(1.00545 -0.0021551 -5.4406e-24)
(1.01818 -0.00148722 1.92064e-22)
(0.999958 -0.00243017 -3.30907e-25)
(0.997797 -0.0104225 2.31845e-23)
(1 -1.74308e-05 2.08917e-26)
(0.991719 0.136129 -1.19976e-22)
(0.988098 -0.0157154 3.16975e-23)
(1.01365 -0.00488482 -6.83484e-23)
(0.982888 -0.00437176 1.33718e-22)
(1.00345 -0.012892 6.91888e-25)
(0.997407 -0.00588649 2.99025e-23)
(0.999899 -0.000204262 2.27229e-25)
(1.00002 -1.19126e-06 -1.31964e-25)
(0.995612 -0.00454537 -3.32697e-23)
(1.05802 -0.0137821 -1.06444e-22)
(1.00457 0.0452328 1.57701e-22)
(1.00119 -0.00047721 -1.4905e-23)
(0.972808 -0.0569906 -1.20475e-22)
(0.975734 -0.0216833 -4.48133e-23)
(0.992408 -0.000503227 -1.55529e-22)
(1.29963 0.0564901 5.4018e-22)
(0.99874 -0.000966837 -7.19379e-24)
(1.00349 -0.0145716 -1.01716e-23)
(0.994712 -0.002784 3.08132e-23)
(0.999907 -0.000196959 1.90168e-25)
(0.968115 -0.0665255 1.53456e-22)
(1.00199 0.0361938 -1.59936e-21)
(1.0337 0.0472316 -1.23698e-21)
(0.978198 -0.0145558 -2.16744e-23)
(1.00145 0.0341536 -6.81885e-23)
(1.00008 -0.000218199 1.28799e-24)
(1.00002 -1.59769e-06 4.0185e-26)
(1.28538 0.100335 1.90799e-22)
(1.21645 -0.0195346 3.97539e-22)
(0.903152 0.110404 -1.59101e-22)
(0.994864 -0.0813093 4.46678e-22)
(0.977877 -0.00148484 -1.01212e-22)
(1.17116 -0.0420495 3.29941e-22)
(1.00113 -0.000496733 1.68816e-23)
(0.994516 -0.00374905 1.76566e-23)
(1.00044 -0.000166004 -9.93987e-25)
(0.989689 -0.000704743 -3.40257e-23)
(0.988533 -0.012859 -4.63145e-23)
(0.999996 -3.38269e-05 -1.10209e-25)
(0.999139 -3.29954e-05 2.84143e-24)
(1.00322 0.146273 -5.73949e-21)
(0.999875 -0.000703318 2.17959e-24)
(0.930269 0.100766 3.92218e-21)
(1 -1.65862e-05 -1.60512e-26)
(1.29907 -0.0468742 -1.43559e-21)
(1.08126 -0.0139469 -3.13958e-22)
(1.13668 -0.0280291 8.58667e-23)
(1.00101 -0.000470252 1.00935e-24)
(1.00018 -4.1793e-05 1.76411e-24)
(0.98481 0.0898665 -3.3993e-21)
(1.08469 -0.00922516 6.45991e-22)
(0.978539 -0.0774403 -5.27089e-22)
(1.02294 0.0460073 5.69163e-22)
(0.997533 -0.0208656 2.03076e-23)
(0.987057 -0.00529017 -3.45471e-23)
(0.996071 -0.000215703 -1.86142e-23)
(1.15497 0.208799 -2.19188e-21)
(0.976614 -0.0259567 1.63622e-22)
(1.03178 -0.0355402 -3.37417e-23)
(0.993809 -0.0109558 -1.26458e-23)
(1 -1.06211e-05 -3.62497e-28)
(0.998753 -0.000913167 -6.11482e-24)
(1.00582 -0.00600629 2.82683e-23)
(0.982243 -0.00779649 1.71428e-22)
(0.978754 -0.014683 3.23678e-23)
(0.958128 -0.0383026 -5.14085e-23)
(0.982054 -0.0082651 -1.29742e-22)
(1.01844 0.00301095 9.81572e-23)
(0.997938 -0.000140395 3.81234e-25)
(0.942375 -0.0353429 1.6952e-22)
(0.986406 -0.000901644 -4.79146e-23)
(1.00004 -0.000210667 1.61581e-25)
(0.988131 -0.000724113 -3.32499e-23)
(1.03221 -0.0384759 -3.43375e-23)
(1.01765 0.00321774 -5.43085e-22)
(0.9747 -0.0260493 -4.07494e-23)
(0.999984 -7.90077e-07 -6.80509e-28)
(0.983032 -0.0159272 3.42411e-23)
(1.00198 -0.0148647 5.18728e-24)
(1.00135 -0.00116475 4.07572e-24)
(1.10715 -0.177163 -7.89396e-22)
(1.00174 0.0333119 -3.74256e-21)
(1.00088 -0.00115416 1.14142e-23)
(0.988334 -0.000546861 4.41476e-25)
(1.09711 -0.102545 1.86468e-23)
(1.02727 0.000320893 8.0903e-22)
(0.991024 0.0299726 -3.76591e-22)
(1.0018 -0.00246105 3.6184e-24)
(1.00008 -0.0214724 1.56355e-23)
(1.1195 0.150039 -3.90182e-22)
(1.01565 0.0288554 -2.87521e-21)
(0.990586 -0.027277 1.23304e-22)
(1.00465 -0.00348798 -5.13096e-24)
(0.95351 -0.0451601 2.44924e-22)
(0.999997 -5.72273e-06 2.0278e-26)
(0.953673 -0.00192324 -1.69194e-22)
(1.00008 -6.9126e-05 2.42939e-25)
(1.09384 -0.102773 -9.59225e-22)
(0.999968 -3.48924e-06 -4.95465e-26)
(1.00003 -6.17996e-05 1.3024e-25)
(0.999645 -0.0240048 -1.9056e-23)
(1.27894 -0.00246678 6.38391e-22)
(1.03778 0.18708 2.57642e-21)
(1.03557 -0.0398517 -4.16046e-23)
(1.01367 -0.0154939 5.06943e-23)
(0.999999 -4.63827e-06 -5.48753e-27)
(0.99408 -0.00445285 -6.00125e-23)
(1.00009 -2.121e-05 -1.8287e-25)
(0.996952 -0.00238768 2.05332e-23)
(1.00003 -5.75817e-05 -1.01085e-25)
(1.05012 -0.012343 -6.25871e-22)
(0.999542 -0.000470624 -7.7507e-24)
(1.0639 0.0627884 1.19747e-21)
(0.999878 -0.000217539 -1.46114e-24)
(0.987526 -0.00517204 -5.80123e-23)
(0.960819 -0.00104258 3.79669e-22)
(0.995868 -0.000297571 -2.39173e-23)
(0.984649 0.0464063 3.62449e-21)
(0.983333 -0.000701384 9.29069e-23)
(1.0167 -0.10585 4.10018e-23)
(0.994657 -0.00393302 9.15975e-23)
(1.02541 -0.00270102 -1.63672e-22)
(0.970379 -0.0576739 5.591e-22)
(1.01935 -0.0013996 -5.39044e-22)
(1.03599 -0.0751078 -1.82622e-23)
(0.999987 -2.03376e-06 6.00785e-27)
(0.999027 -0.0202619 1.71591e-23)
(0.996134 -0.000284761 2.92264e-24)
(1.00024 -9.17465e-05 1.33797e-24)
(1.00008 -1.78739e-05 3.03032e-25)
(1.16115 0.212124 2.38838e-21)
(0.99526 -0.00212422 5.11543e-23)
(1.02704 0.00117208 9.28311e-22)
(1.00069 -0.0220125 1.94328e-23)
(1.00084 -0.000303242 3.90493e-24)
(1.0236 -0.00859007 -5.85869e-22)
(1.00016 -3.96421e-05 -3.87738e-24)
(0.999977 -3.50544e-06 -6.66475e-27)
(0.95422 -0.00256329 1.29933e-22)
(0.99661 -0.00121232 2.30871e-23)
(1.00003 -5.60821e-05 1.54932e-25)
(1.076 0.120154 8.88077e-22)
(0.86408 0.0875128 -5.98866e-21)
(0.999795 -0.000230113 3.67222e-24)
(0.962523 -0.0021066 -1.02587e-22)
(1.00002 -1.59336e-06 2.87233e-26)
(0.941224 0.134072 -3.76183e-21)
(1.30625 -0.0486715 -1.88048e-21)
(0.971134 -0.0463814 -4.39474e-22)
(1.00005 -0.000555919 -3.28984e-25)
(1.03068 -0.0342288 9.26159e-23)
(1.03114 -0.00286431 -2.26907e-22)
(1.03221 0.00018552 6.83882e-23)
(1.05115 -0.0152013 -7.63928e-23)
(0.999644 -0.00189767 -9.17935e-25)
(0.999873 -0.000842135 1.91533e-24)
(0.98634 -0.0155981 -1.00697e-22)
(1 -9.45276e-06 5.64406e-28)
(1.00001 -1.47257e-06 -7.41901e-27)
(0.975822 -0.0254738 -9.61638e-23)
(0.995198 -0.0621865 -2.30819e-22)
(0.959315 -0.0376339 -1.3108e-23)
(0.886763 0.12429 -1.32619e-22)
(1.0002 -2.55198e-05 -1.6294e-24)
(1.0123 -0.0794736 -5.24962e-22)
(1.00721 -0.00535152 -5.03394e-23)
(0.999978 -3.7366e-06 7.65833e-26)
(0.999006 -0.00393763 -1.61202e-23)
(1.00003 -0.000470991 -2.01603e-25)
(0.995583 -0.0128063 3.59366e-23)
(1.00004 -1.03909e-05 1.78966e-25)
(1.03789 -0.0739872 -4.42826e-23)
(1.01896 -0.0017077 5.2328e-22)
(0.97254 0.149285 8.71573e-22)
(1.0249 -0.00255554 6.1442e-22)
(0.99973 -0.000225642 2.88223e-24)
(1.00045 -0.000389739 -3.82102e-24)
(1.17263 -0.149906 -1.33291e-21)
(1.027 0.000887049 -7.45975e-22)
(0.997003 -0.000391117 2.10347e-23)
(1.00002 -1.64031e-06 6.21895e-26)
(1.09486 0.103449 -1.40321e-21)
(1.06186 -0.189784 -3.06278e-22)
(0.995154 -0.0796214 -1.9583e-22)
(0.986034 -0.000767283 -2.51314e-23)
(0.99998 -2.24439e-05 1.52415e-25)
(0.999732 -0.000212826 -1.68912e-24)
(1.06562 -0.19466 8.52262e-22)
(0.996445 -0.0499231 -6.23182e-23)
(1.04099 0.0332264 1.7519e-22)
(0.980324 0.129559 3.33093e-21)
(1.01591 -0.103087 2.95512e-22)
(0.998772 -8.44651e-05 -3.78768e-24)
(0.99998 -1.05818e-05 -1.75462e-25)
(0.963487 -0.0490874 4.27794e-22)
(0.97206 -0.0982493 -5.9692e-22)
(0.999803 -0.000238356 1.95617e-24)
(1.00933 -0.0236132 2.24365e-23)
(0.990913 -0.0265593 -2.19995e-23)
(0.995504 -0.00227855 2.01728e-23)
(0.998502 0.0282543 -2.82223e-21)
(0.998752 -0.000544461 1.35907e-23)
(1.05148 -0.0570805 -4.82567e-23)
(1.25179 0.166121 -3.02748e-22)
(0.992505 -0.00327672 -5.84705e-23)
(0.900878 0.104065 -5.81024e-22)
(0.911567 0.0493203 1.78882e-21)
(0.99997 -5.21083e-05 -5.77331e-25)
(0.999975 -0.000740602 -1.68596e-25)
(0.983532 -0.000932567 -5.91139e-23)
(1.01294 -0.00477026 -1.23838e-22)
(0.964066 -0.00194545 2.1698e-22)
(1.00506 -0.00432977 -5.25649e-23)
(0.992773 -0.00328827 5.44664e-23)
(0.999449 -0.000500713 -5.92189e-24)
(0.951622 0.134967 -6.70185e-22)
(1.06445 0.059819 -1.85499e-21)
(1.00221 -0.00238651 9.3004e-24)
(0.817623 0.0547509 -1.21856e-21)
(1.00002 -1.37288e-06 -4.12112e-26)
(1.0253 0.00693034 -1.32615e-21)
(0.987237 -0.0970899 4.24755e-22)
(1.01467 -0.0797495 2.05449e-22)
(1.00009 -0.000212004 -6.55296e-26)
(0.962376 -0.00106294 1.7637e-22)
(1.0227 0.00628604 7.49643e-22)
(1.01259 -0.00509872 1.0244e-22)
(1.03059 -0.00171264 3.17183e-22)
(0.999565 -3.81007e-05 1.10997e-23)
(0.999537 -0.000501205 7.01866e-24)
(1.02318 -0.0482918 5.71768e-23)
(0.996666 -0.00130604 -6.60808e-23)
(0.987713 -0.0116801 -1.09492e-22)
(0.999128 -0.00356925 9.55291e-25)
(1.09302 0.0409011 8.30207e-22)
(0.998746 -0.0211045 -1.1586e-23)
(0.995193 -0.00482867 1.16562e-24)
(0.934396 -0.0259938 -4.78213e-22)
(0.996522 0.107824 3.69826e-22)
(1.11959 -0.051054 1.74439e-22)
(1.02308 -0.0082336 4.69473e-22)
(0.999614 -0.000183448 2.11013e-24)
(0.999507 -0.000327922 9.54556e-25)
(0.982781 -0.0208132 2.62963e-22)
(1.00097 -0.00125767 -9.15342e-24)
(0.997488 -0.000690608 -3.75593e-24)
(0.99998 -2.15445e-05 -5.81093e-26)
(0.999682 -0.00193348 1.72418e-25)
(1.02205 0.00578331 -2.92035e-22)
(0.983725 0.0938559 -3.27504e-21)
(0.999876 -1.5662e-05 4.57416e-25)
(1.19194 0.189255 -1.61294e-21)
(0.999996 -4.21504e-05 4.72835e-26)
(0.996854 -0.00282832 2.80287e-23)
(0.999992 -9.64918e-05 6.50195e-26)
(1.0051 -0.00374937 -2.33455e-23)
(1.24469 -0.076957 9.94547e-22)
(0.999962 -4.38493e-05 4.90685e-26)
(0.999961 -4.69345e-05 3.45771e-25)
(0.948409 -0.0424245 -2.39439e-22)
(1 -9.36578e-06 -1.30811e-27)
(1.05464 -0.0153248 6.34971e-22)
(0.987097 -0.0415749 2.23947e-22)
(0.999977 -0.000650826 1.84926e-25)
(1.0923 0.0780198 -1.07832e-21)
(1 -3.02118e-05 -3.07781e-26)
(0.999614 -3.94496e-05 9.69514e-24)
(0.999914 -3.6081e-05 1.58872e-26)
(0.995365 -0.00483803 -1.7125e-23)
(0.999675 -0.00154178 -3.00927e-24)
(0.994027 -0.000316338 -1.89383e-23)
(0.99467 -0.117379 -4.84426e-23)
(0.999711 -0.00150132 2.01452e-24)
(1.00408 -0.00348862 -1.81334e-23)
(0.999976 -2.55561e-06 -2.87325e-26)
(1.04048 0.183457 -4.86737e-21)
(1.04961 -0.0580339 -1.27869e-22)
(1.12338 -0.0524467 6.51095e-23)
(0.966536 -0.00582808 2.35067e-22)
(0.978302 -0.0041921 -4.31896e-23)
(0.999094 -0.00385139 2.66219e-23)
(1.00283 -0.00266298 2.52814e-23)
(1.05238 0.0770643 5.21918e-22)
(0.982839 -0.0368522 3.24309e-23)
(1.14428 0.126349 4.70363e-22)
(0.958438 -0.0131357 -4.28712e-22)
(0.996742 -0.00273045 -2.64412e-23)
(0.999991 -4.705e-06 -6.30708e-26)
(0.994531 -0.00279327 -3.7116e-23)
(1.01244 0.173632 1.29192e-21)
(1.08262 0.0898457 -2.54141e-22)
(0.98218 -0.0552871 1.87541e-22)
(0.944141 -0.00561476 9.9336e-23)
(1.04665 0.174174 1.2919e-21)
(0.991829 -0.000574119 4.87795e-23)
(0.983426 -0.0886052 3.36217e-23)
(0.999992 -9.23688e-05 1.24991e-25)
(0.986002 -0.041724 2.7903e-22)
(0.999196 -0.000226701 -1.40612e-23)
(0.830544 0.0932911 -3.52571e-21)
(0.978438 -0.0723188 -4.31534e-22)
(0.999916 -3.23859e-05 8.46679e-25)
(0.940634 -0.0181383 -2.5471e-23)
(0.982626 -0.0390869 1.50838e-23)
(1.03711 0.0853898 1.94013e-21)
(0.997523 -0.000753837 -3.5326e-23)
(0.980845 -0.037633 -9.74547e-23)
(0.997613 -0.0106822 -3.25132e-23)
(0.999739 -0.0232 -3.93514e-23)
(0.998785 -0.000554211 -9.24468e-24)
(1.03561 0.0835998 -2.35042e-21)
(1.0169 -0.165266 5.06092e-22)
(0.982966 -0.0165796 -7.61397e-23)
(0.986883 -0.014511 1.62907e-24)
(0.987629 -0.00488658 -2.36621e-23)
(1.0051 -0.0020357 -2.14856e-23)
(1.04882 0.169445 4.99566e-21)
(0.982957 -0.0134473 3.42147e-23)
(1.01486 0.0433159 1.24562e-21)
(1.00261 -0.00213483 1.92426e-23)
(1.22051 -0.113614 -1.84015e-23)
(0.926859 0.107792 5.95946e-22)
(0.991668 -0.00044717 -1.69632e-22)
(0.99978 -4.14357e-05 1.89985e-24)
(1.05573 0.104173 5.70457e-22)
(0.999956 0.140148 -4.80991e-21)
(1.02254 -0.0465297 -7.34031e-23)
(1.0832 -0.0524377 -1.95895e-23)
(0.995362 -0.0132745 -4.05987e-23)
(0.967044 -0.00527187 -1.39684e-22)
(1.11589 0.146385 1.53431e-21)
(0.962201 -0.0492306 6.91449e-23)
(0.999977 -2.15519e-05 1.96312e-25)
(0.992907 -0.000111411 -8.66494e-23)
(1.00004 -5.59981e-06 1.8099e-25)
(0.995727 -0.000267323 6.52278e-23)
(0.999977 -2.263e-05 -3.08092e-25)
(0.997947 -0.0149062 5.63753e-23)
(0.999082 -3.65652e-05 5.01556e-24)
(0.99737 -0.0055813 3.46874e-24)
(1.18926 -0.134712 -2.3724e-22)
(0.999433 -0.000383709 5.06075e-24)
(0.999523 -0.000196549 3.44808e-24)