/*--------------------------------*- C++ -*----------------------------------*\
  =========                 |
  \\      /  F ield         | OpenFOAM: The Open Source CFD Toolbox
   \\    /   O peration     | Website:  https://openfoam.org
    \\  /    A nd           | Version:  7
     \\/     M anipulation  |
\*---------------------------------------------------------------------------*/
FoamFile
{
    version     2.0;
    format      ascii;
    class       volScalarField;
    location    "31.5";
    object      p;
}
// * * * * * * * * * * * * * * * * * * * * * * * * * * * * * * * * * * * * * //

dimensions      [0 2 -2 0 0 0 0];

internalField   nonuniform List<scalar> 
20933
(
0.00102981
-0.000837234
0.00316028
-6.32829e-05
-0.00274091
-0.00301173
-0.0872417
0.338425
-0.0375552
0.328687
-0.0832115
0.191521
-0.0240646
0.000906143
-0.000762649
-6.57281e-05
-0.0571219
0.192308
-0.0528361
-0.000291281
-0.0347744
0.202847
0.32989
-0.103924
0.00145912
0.571894
-0.00100543
-0.0221952
-0.136144
-0.054886
-0.000249164
0.657916
0.308923
-0.0112025
-0.000520087
-0.000379079
0.378086
8.43856e-05
-0.00366764
0.159428
0.00709367
0.394044
0.463039
-0.00103952
0.572276
-0.00114128
0.290549
0.0633256
0.000103248
-0.0204745
-0.000542681
0.0298623
-0.0846832
-0.00114618
-0.105718
-0.011353
-0.0141311
-0.000519279
-0.016431
-0.0476844
0.603422
-0.00293471
-0.001071
0.302809
0.00027667
-0.00258685
0.556551
-0.00268081
-0.00887586
0.56799
-0.0060325
-0.0792189
-0.000680641
-0.0160167
0.558752
-0.022425
0.559089
-0.0107975
0.15753
0.520824
-0.00222528
-0.00141618
-0.135489
-0.0352085
-0.00202401
0.467261
-0.0198767
0.71866
0.302002
0.598869
0.266941
-0.000123699
-9.69457e-05
0.692313
0.0454316
-0.000652452
0.698424
-0.0011306
-0.07211
0.369231
0.604857
-0.00576839
0.614455
-0.0523394
0.0712757
-0.0165298
0.524514
-0.0269119
0.00131194
0.497382
-0.144179
-0.0875539
-0.0106996
-0.000164409
-0.0162493
-1.81178e-05
0.452789
-0.00217702
-0.0725583
0.513193
-0.000120925
-0.0393879
0.180694
-0.0209334
-0.0112302
0.193554
0.268439
-0.0214171
0.666211
0.464001
-0.0276779
-0.0189086
0.00730366
-0.00277476
0.528613
0.0617397
0.10928
-0.0379979
-0.00456981
-0.0461871
-0.0422419
-0.017577
-0.101077
0.623899
0.0466136
0.535253
0.324862
-0.00549532
0.246392
-0.00116937
-0.00456608
0.560574
-8.7385e-05
-0.0300033
-0.00135714
0.330889
0.476229
-0.107963
-0.0117451
-0.0255029
-0.111518
-0.0798366
-0.000352207
0.0587987
0.123661
0.712285
-0.00494623
-0.123774
-0.0225858
0.370524
0.0954731
0.575276
0.479883
-0.0102102
0.73861
0.297485
0.000567015
0.589506
-0.0128728
0.517705
0.543768
8.21919e-05
0.620214
0.475775
-0.00021871
-0.013213
-0.00489729
0.351964
-0.0575174
0.670148
0.266548
-0.0191205
0.378158
-0.00213909
-0.0130391
0.172079
0.616718
0.0258584
-0.000802354
0.677384
0.101619
-0.0857966
-0.0740923
0.658055
0.631862
-0.0136964
-0.0136529
0.0313075
-0.0115271
0.00059619
0.551653
0.586596
-0.00735978
-0.0195103
0.50839
0.558398
0.00155706
0.51324
-0.018789
-0.00178879
-0.0212598
0.490073
0.643248
0.269661
0.493809
-0.0055328
-0.0126735
-1.97244e-05
0.0012772
-0.00208281
0.176838
-0.049955
0.516534
-0.0440926
0.480239
-0.0188506
-0.0111351
0.571538
0.704732
0.482457
0.554065
-0.0185247
0.390224
-0.0196969
0.0802164
-0.00178496
-0.12535
0.0133456
0.0305984
9.80484e-05
0.00133711
0.648655
0.179108
-0.00461635
-0.0260371
-0.0486535
-0.106946
0.400753
-0.0432067
-7.41456e-05
-0.0260569
-0.00965832
0.000328147
-0.0180384
-0.0755997
0.621635
0.012052
-0.00976895
0.485509
0.628784
-0.0195169
-0.000330669
-0.0312803
0.556712
-0.14568
0.599725
-2.72475e-05
-0.02155
0.494964
0.54491
-0.023902
-0.0127024
0.669354
-0.0608244
-0.0220326
0.610899
0.665967
-0.0217157
0.504654
0.105591
0.515802
0.428898
-0.000327487
0.00178741
0.381877
0.000596187
-0.0553022
0.0496059
-0.154028
0.0958167
0.0389515
-6.3583e-05
-0.000780115
0.598844
-0.00358148
-0.069238
-0.0296958
0.209707
-0.0034341
0.515393
0.091988
-0.0278297
-0.0123566
0.352676
0.187961
-5.95352e-05
0.594109
0.46878
0.584207
-0.0926719
0.000288851
0.663462
-0.00109027
-0.0180834
0.174412
0.0345543
-0.020131
-0.0735518
0.479255
0.691601
0.544476
0.135315
0.747035
-4.1187e-05
-0.00978263
0.545172
-0.117491
0.377564
-0.0147845
0.566326
0.0848537
-0.000848746
0.0823317
0.449411
-0.110105
0.612093
0.453057
0.000141365
0.00229907
0.310847
0.205625
0.00217797
0.473628
-0.0143142
0.735676
-0.0414054
-0.00644374
0.000633332
0.540508
0.467088
-0.00469981
0.351896
0.597105
-0.0037398
0.421669
0.464306
0.739321
-0.000775349
0.232359
0.0106137
-0.0145043
0.000144916
0.56439
0.399451
0.00909648
0.579078
0.150278
-0.0135539
0.384041
0.126762
0.185512
0.737122
-0.0336791
0.147217
0.583828
-0.02623
0.0835315
-0.0729173
0.299636
0.00128381
0.27528
0.0109358
0.140681
-0.00141456
0.296068
0.579167
0.433245
-0.138556
-0.00896981
0.650961
0.652812
-0.00174401
-0.0201373
0.516184
-0.0649679
-0.0180528
0.401843
4.21808e-05
0.766144
-0.0187588
0.253917
-0.00270021
0.583347
0.447964
0.0349417
-0.0259676
-0.0204666
0.102574
-0.00122083
0.514694
-0.0785833
0.312465
0.727617
-0.0942021
-0.0156574
-0.0022041
0.0726238
0.0125934
-0.0101646
0.420177
-0.000413195
-0.018061
-0.00179388
-0.0480027
-0.0169761
8.57523e-05
-0.0261403
0.160109
-0.122489
-0.0188838
-0.0147087
0.0604655
0.0496494
-0.0226498
-0.00727197
-0.00148257
-0.00837685
-0.0714579
-0.000994309
-0.0202613
0.193081
0.425221
0.067949
0.00017504
0.683567
-0.000873213
-0.000415373
0.00620046
-0.0190025
-0.0295849
0.626804
-0.0146931
0.111944
-0.0603098
-0.0656044
0.39086
-0.0182787
-0.0300674
-0.0517686
0.000116902
-0.0461019
0.693881
-0.102429
-0.0256518
0.418466
-0.0229158
0.425715
0.251776
-0.00118162
0.000590796
0.471517
0.71901
-0.105371
0.311192
0.148486
-0.0198339
-0.0208511
0.514922
0.0585664
-0.131991
-0.0699855
-0.000727145
0.0182486
0.648829
0.153017
-7.79224e-05
0.616979
-0.0167103
-0.0335263
0.486145
-0.00275973
-0.00260009
8.44173e-05
-0.00699725
-0.0105652
-2.94449e-05
0.304909
-0.142845
0.518556
0.000328337
-0.00117855
-0.023404
-7.94208e-06
-0.108371
-0.127978
-0.00116762
-0.027811
-0.0149529
0.476942
0.585358
-0.000862786
-0.000799623
-0.0425182
0.591913
-0.00953005
0.592196
-0.00429986
0.728278
0.435653
0.258322
0.703948
-0.0682136
-0.000348194
0.0110794
-0.00865376
0.579539
0.511336
-0.00519392
-0.115204
0.0697882
-0.0242922
0.000894113
-0.12872
-3.86808e-05
0.484164
-0.0109695
-0.0264149
-0.00977671
-0.0215934
0.257083
0.0781738
0.00114693
-0.0124421
-7.39582e-06
0.727654
0.64249
0.000514595
-0.00670248
-0.0027637
0.509335
-0.0163987
0.15058
-0.0231031
0.55127
0.256378
-0.0116775
0.758778
0.0139759
0.53671
-0.00420855
-0.075681
0.609851
-0.0112534
0.728364
0.494773
0.739406
-0.000447539
0.000462451
-0.0368386
0.0223179
-0.00227159
-0.0318284
0.53835
0.559528
0.430315
0.586165
0.722338
0.315724
0.579936
0.433418
-0.00443928
0.478263
-0.0283023
-0.0231241
-7.32678e-05
-0.0251334
-0.0877837
0.351944
0.0416423
0.520127
-0.0181865
0.0939459
0.501239
-0.00826952
-0.0250051
-1.92118e-05
-0.000224585
0.350842
-0.0294983
-0.0207752
-0.000261815
-0.000702198
0.0608281
0.00019648
0.0433709
0.729891
0.32444
0.311135
-0.00529513
0.510731
0.0837152
-0.00884391
-0.00690748
-0.000522239
0.000109786
-0.00154326
-0.00976369
-0.0766024
0.358437
0.000283126
-0.0048243
1.01239e-06
0.543096
-0.0268437
-0.0931166
-0.0112474
0.12207
-0.0298581
-0.00264855
0.501525
0.670579
0.453488
9.79151e-06
0.460506
-0.00419781
-0.0188506
0.346207
-8.34502e-05
-0.010694
0.2402
0.309674
-0.0113905
0.502246
0.637166
0.489285
-0.0194965
-0.010439
-0.0124404
0.131596
0.465113
0.000313773
0.608036
-0.0187919
-0.0769905
0.0203596
0.691996
0.361804
0.516988
-0.131382
0.710147
-0.0102231
-0.018407
0.74567
0.0265094
-0.064108
0.528987
0.551142
-0.0173233
0.458894
0.592089
0.546338
0.500914
0.537748
0.439217
-0.00171059
-0.0105496
-0.00194848
-0.066891
0.578502
-0.0620357
0.197549
0.204285
-0.0226245
0.0522375
0.234005
0.58849
0.0565351
-0.000879706
0.0218059
-0.0220141
-0.0629598
-0.0797193
-0.0695249
0.495216
0.611121
0.0410885
0.584365
0.723309
0.00147255
-0.000877322
-0.00143106
-0.0041865
0.39372
0.730205
0.159355
0.511323
-0.00966079
0.440443
0.453068
-0.111866
-0.009766
-0.0184211
0.193632
-0.0130848
0.0113046
-0.0190455
-0.0213119
0.520388
-0.000153852
-0.0182153
0.552166
0.0465371
0.667218
-0.0386305
0.426015
-0.0772419
-0.0301167
0.605354
0.666233
0.578175
-0.0116922
0.671439
-0.0177339
0.603867
0.00799558
0.575586
-0.0205965
-5.65451e-05
0.577326
0.609215
0.604705
0.577483
0.35059
0.0900629
0.407372
-0.0629828
0.576976
0.497926
-0.0226997
0.0442497
-0.00203364
-0.0640997
0.507313
-0.0175689
-0.00457322
0.588854
0.585207
-0.0258251
0.569398
-0.0798806
0.106677
0.00208187
0.596052
0.606447
0.72309
0.598391
0.000680183
-0.0106265
-3.95986e-05
-0.0324075
0.662256
0.289896
0.497123
-0.019797
0.435795
-0.00127232
0.66498
-0.0359882
0.587196
0.00170551
0.646954
0.679122
-0.0108673
0.139559
0.642183
0.000916701
0.689624
-0.0204217
0.00113992
-0.00968749
0.542252
0.230681
-0.0479919
0.5772
0.693933
0.449513
0.0151773
-0.0269795
0.00253784
0.584092
0.674653
0.750439
0.28035
-0.00255554
0.000354123
0.505233
-0.00216185
-0.00142933
-0.00275204
-0.0107049
-0.0759619
-0.108537
0.620919
-0.0132217
-4.22368e-05
0.48544
0.270047
-0.00348126
0.163142
-0.000788762
0.227898
0.493695
0.57391
-0.0971006
0.165422
-0.00420847
-0.0345182
0.000154574
0.588693
0.625654
-0.132724
-0.124614
-0.11044
-0.0333229
0.58044
-0.0254823
-0.0731314
-0.0880781
-0.0218882
0.704943
-0.104481
0.0260347
0.591114
0.000732675
0.0996812
-0.0203802
-0.0809988
0.000508294
-0.000837124
0.701847
0.416955
-0.134839
-0.0229229
0.43455
0.561748
0.49479
-0.0714986
-0.0203686
-0.0179263
-0.0201621
0.471145
-0.00427155
-0.0272947
0.000116201
-0.0101669
0.000407089
-0.0879078
0.545718
-0.069102
0.59109
0.578151
-0.0219828
-0.0115182
0.718045
0.445499
0.0272588
-0.0129642
0.437065
-0.024565
0.387005
0.702449
0.384685
-0.00464144
-0.014718
0.530515
-0.0246768
-0.0604051
-0.0287351
0.635281
-0.0174474
-0.036729
0.426364
0.326801
0.482773
-0.019247
0.364326
-0.0294082
0.589773
-0.0925234
0.220484
-0.0309355
-0.0320374
-1.57767e-05
0.000432089
-0.000512248
0.638024
-0.0399414
0.421908
0.0947089
-0.0456649
-0.0690085
0.301395
0.72397
0.655138
-0.0558586
0.275876
-0.0157791
0.0647505
-0.00369158
0.20099
-0.0196778
-0.00185609
0.464956
-0.0308494
-0.000970904
0.628454
0.520995
0.605094
0.0168366
-0.0666593
-0.0090389
0.291286
-0.010869
-0.000110228
0.638259
0.130973
0.260311
-0.0208752
0.000114788
-0.00828906
-0.000822908
0.243738
-0.000460181
-0.0162801
-0.00967314
-0.0227202
0.657205
1.28685e-05
-0.0312921
-0.0119558
0.679191
0.00111599
-9.00961e-06
-0.0927165
0.180901
0.483366
-0.0105048
-0.00983793
-0.019696
0.495988
-0.0140927
0.272412
-0.10502
-0.103565
0.12755
0.473086
0.105966
0.271285
0.000680559
0.519154
0.684581
-0.00528808
0.408641
-0.039209
0.698351
0.671851
-0.0732401
0.0720097
0.0397249
0.414191
-0.000255727
0.575729
0.737176
-0.000218859
0.195695
0.333501
-0.00100505
-0.000430275
-0.00659294
0.724771
-0.0104591
-0.0336647
0.58461
-0.00347297
0.405247
0.599426
-0.0157712
0.64675
-0.0198981
-0.012212
0.602881
0.284168
0.482041
0.000782707
0.60596
0.240565
0.573108
-0.0557016
-0.00791665
0.20164
0.639204
0.602391
0.651444
0.58347
-0.0690538
-0.0119059
0.00828117
0.438427
0.5741
0.681422
-0.019188
0.340999
0.692959
0.545829
-0.000991681
-0.0171038
-0.00600848
0.183479
-0.0415176
0.621835
0.296294
0.571466
0.134089
-0.0261725
0.575159
-0.0352022
0.449962
-0.0782329
0.054846
-0.0117899
-0.0718377
-0.0523485
0.676038
-0.0480759
-0.0185968
-0.0450082
0.244252
0.0806936
-0.0168936
0.047778
-0.0124094
-0.0594421
0.466569
0.25438
0.509157
-0.114931
0.594658
-0.064411
-0.000678839
-0.009274
-0.0139314
-0.100119
-0.113799
-0.00387532
0.342188
0.655985
0.215294
0.0661505
-0.0291327
-0.0558549
0.403052
-0.0214668
0.696977
0.351222
-0.00234596
-0.0127518
0.00527141
-0.0639497
-0.0160462
-0.0229122
-0.0138322
-0.0841384
0.332456
0.666172
0.616054
0.293733
0.00110942
-0.0187078
0.000601071
-0.00810928
0.47553
0.00212296
0.455599
-0.0588845
-0.0106648
0.661906
0.675641
-0.000834436
0.582017
0.613692
0.170533
-0.0126668
0.229808
0.472926
0.673388
0.393464
-0.0629983
0.658787
0.10723
-0.0323662
-0.0361197
-0.0722394
0.688641
-0.0179653
0.592472
0.361904
0.654135
-0.0346307
0.413646
0.430313
-0.0750198
0.603505
-0.00897293
0.636432
-0.000381065
0.387252
0.453516
0.452218
-0.00215259
-0.00675437
-0.00144925
-0.0214103
0.363308
-0.0158896
0.419328
0.396625
0.728382
-0.0122346
0.640757
-0.011599
-0.0111909
0.0415722
0.58112
0.11976
-0.0350638
0.0638303
0.506272
-0.00479008
0.714148
-0.00299721
-0.0531263
0.0929392
-0.00756167
0.585363
-0.0375509
0.618484
0.49674
0.175116
0.0346404
0.206091
-0.000827176
0.0230803
0.631636
-0.0308595
-0.0373001
0.373049
0.0738911
0.002695
0.035901
-0.00517979
0.656369
-0.0165485
0.036535
-0.0574687
-0.0191115
0.571396
0.731863
-0.0133402
-0.0596952
-0.00154638
0.106596
-0.000822393
0.160755
0.6766
0.64958
-0.0153
0.219549
-0.000266526
-0.0210521
0.527039
-0.0111491
0.288324
-0.0102552
0.717019
0.508864
-0.0709825
-0.0136079
-0.0264222
0.715077
-0.0185631
-0.00069008
-0.00069664
0.171236
-0.065936
-0.00669136
0.140009
0.656832
-0.0827245
0.692659
0.751401
-0.0163496
-0.0382755
-0.000585614
0.000685344
-0.0428557
-0.0284663
0.708253
-0.00977425
0.00124911
0.455176
-0.0500356
0.500552
0.0011365
-0.0225226
0.497124
0.462898
-0.0682252
-0.0188581
-0.0549185
0.549601
-0.017516
0.3129
-0.0206634
-0.00845109
-0.0201475
-0.00815977
-0.0029347
-0.0868287
-0.0834066
-0.0896336
-0.000105933
0.144498
-0.000375427
-0.0181304
-0.0580073
-0.0113983
-0.025433
0.658844
0.0396852
-0.0217661
-0.0143603
0.536816
0.000432491
0.470663
-0.0564999
0.0325548
0.0019653
0.495621
0.319305
-0.0222417
-0.0283362
-0.0295088
0.400036
-0.00032539
0.459411
0.544241
-0.00887072
-0.0400906
0.161082
0.157153
-0.0572422
0.181431
0.515944
-0.00906929
0.439167
-0.0233314
0.00507613
0.421463
0.678396
0.0147855
-0.00449527
0.571077
0.43459
-0.0113174
-0.033462
-0.100709
0.011622
-0.00907559
-0.00115505
0.531524
-0.114364
-0.0463656
0.533226
-0.0593223
-0.0204803
0.317728
9.50287e-05
0.21072
0.455195
-0.0111375
0.458507
-0.00936338
0.647486
-0.0642474
-0.000321036
9.75422e-05
0.00582284
-0.000597393
-0.0100344
0.213464
-0.0404886
-0.0038942
-0.0258298
-0.0117256
0.277691
0.585798
0.000325222
-0.00812223
-0.0120813
0.427203
-0.0538485
-0.0124993
-0.00907511
0.0871436
0.322662
-0.0110266
-0.002916
-0.0634323
0.494459
0.533385
0.167521
0.465995
0.61112
-0.00975937
0.431395
0.158038
0.012979
-0.00970856
-0.00393718
0.739313
-0.0111783
-0.0712528
-0.0177824
0.492566
-0.00348451
-0.0017295
-0.0190511
-0.0217703
-8.74943e-05
0.587219
0.352384
0.440249
0.540857
0.46906
-0.00089686
0.197832
0.376378
0.0172024
0.574678
0.262873
0.368548
1.15586e-05
0.384512
-0.0361869
0.247886
0.3802
-0.0806567
0.113056
0.0899904
-0.0148515
-0.00154252
0.0253211
0.231791
0.665896
0.254075
-8.32211e-05
0.337947
-0.00849336
0.382611
0.286359
-0.00305043
-0.0158296
0.423534
0.586655
0.143555
-0.0168036
-0.00907414
0.260339
0.439974
-0.0152244
0.524212
-0.0116682
0.205187
-0.00915517
0.62355
-0.000400193
-0.000881782
-0.00190618
-0.00863663
-0.0800969
-0.00131176
0.445123
0.535863
-0.00072511
0.323984
-0.000943725
-0.00262078
2.0832e-05
0.274378
-0.00861275
0.331595
3.50194e-05
0.450323
-0.0105705
0.513436
-0.103207
0.552294
-0.017976
-0.00370946
0.000518811
0.592832
-0.0214466
0.0717967
0.182445
0.000252449
0.507329
-0.00319081
-0.00993145
-0.0085638
-0.00035982
0.590663
-0.00198369
-0.00993112
-0.00888164
-3.005e-05
-0.00264743
0.520065
-0.000560119
-0.0166707
-0.00290294
-0.00117238
0.481437
-0.11633
0.0562369
-0.0384546
-0.000975193
-0.0101529
-0.0508309
-0.00747346
-0.00106746
-0.00297631
0.298004
-0.000331154
-0.00527137
-0.0542711
0.190653
0.573888
-0.000215965
-0.00104618
-0.0102447
-0.0252416
0.468575
0.526885
0.593779
4.36971e-05
0.242233
-0.0162928
-0.0135824
0.352885
-0.0164309
-0.00257414
-0.00190585
-0.00605071
-0.00894206
-0.00876683
-0.00325764
-0.00216883
0.00613504
0.445607
0.000667574
0.335076
0.0914825
0.0538604
0.270869
0.173864
0.38893
0.0209113
0.438816
-0.000842794
-0.0119019
0.409696
-0.0278455
0.473949
0.45224
-0.0139169
-0.0144039
-0.000333298
-0.0071563
-0.00777501
-0.00313194
-0.00264965
-0.00579301
-0.00220542
-0.00840143
-0.0167754
-0.00255391
-0.00174128
-0.0204196
0.389843
-0.0074759
0.000521318
-0.0124141
-0.00386319
-0.00935736
0.524596
0.505969
0.265978
0.631101
-0.00817067
-0.0436215
-0.00811968
-0.0025812
-0.00295624
-8.55429e-07
2.7824e-05
0.253814
0.138336
1.99358e-05
-0.084857
0.135437
0.262654
-0.0357075
-0.000907413
-0.0087403
-0.0024876
-0.000930835
-0.00179208
-0.00946367
-0.0303959
0.644302
-0.00283901
-0.0296391
-0.00868118
-0.0175787
-0.000633031
0.00060411
-0.000802655
-0.00195013
-0.0137622
-0.00816501
-0.0332513
0.0939896
-0.00472014
0.321739
-0.00602183
0.000265326
-0.04345
0.471555
0.492878
0.374432
0.00922723
-0.0902047
-0.0294117
-0.0987579
-0.0223154
-0.0996757
-0.0152569
-0.0950365
0.000996928
-0.00781441
-5.54358e-06
0.0763824
0.00079204
0.000513388
-0.0127917
0.670006
-0.0131202
-0.094038
0.634079
0.65097
-0.00209341
0.639044
0.606499
0.479853
-0.00320201
-0.127177
0.652444
0.000519235
-0.000200705
-0.00846143
-0.00799527
-0.00198246
-0.020981
-0.00811741
-0.00691568
-0.00376723
-0.017451
0.000376204
-0.0351127
-0.00275508
0.716355
-0.0020515
-0.00111622
0.713674
-0.000810778
0.681152
0.645216
0.443632
-0.0020327
0.716452
0.0882868
0.556998
-0.00261891
-0.000474086
-0.00767006
-0.0168551
0.0465141
0.582016
0.000234622
-0.000574837
-0.00778559
9.76972e-06
-0.13121
0.257895
4.96711e-05
0.468387
-0.037073
-0.00218518
-0.0181825
-0.00188615
0.177438
-0.00132366
0.651339
-0.000891709
0.607212
-0.000343607
-0.0112738
9.7191e-05
-0.00683291
-0.00792963
-0.00768622
0.544361
0.578997
4.21474e-05
0.652695
-0.0184147
-0.00181448
-0.0205374
0.614279
-0.125396
0.000378052
-0.000254286
-0.00112159
-0.000696458
0.000161387
-0.000675502
0.658698
0.000297321
8.10429e-05
-0.0164579
0.699189
0.752235
0.00136651
-0.020563
0.481148
0.707891
-0.0237517
-0.0065154
-8.00709e-06
0.00881344
0.592282
0.470582
-0.000953073
-0.00366516
-0.0158742
0.623376
-0.075527
-0.00937559
-0.00626079
-0.00428839
-0.02038
0.503664
0.000133791
0.638196
-0.000143945
0.686149
-0.000923868
0.650361
-0.00276541
0.0717348
-0.0168734
5.19085e-05
-0.000637057
-0.00276035
-0.00618692
-0.00763169
-0.000671227
-0.00240219
0.000543647
-0.0159753
-0.000687717
-0.00396861
-0.0038297
-0.00186922
0.113528
-0.000625285
0.468282
-0.00625264
-0.0113614
-0.00310413
-0.102423
0.707746
-0.00309747
-0.00362619
-0.00436693
-0.0171592
-0.00195982
0.449532
0.497398
-0.000963738
-0.00234941
-0.0515832
0.142854
0.639228
-0.0121158
0.438657
0.51966
4.50095e-05
-0.0231617
-0.00124107
-0.000981415
0.000557288
0.000325865
-0.0007948
0.000201688
-0.00203127
-0.00155639
-0.0146673
0.00217336
0.276051
-0.0677966
0.467429
0.129088
-0.0779553
5.03734e-05
-0.000596727
0.588476
-0.00114795
-0.0167129
0.000318665
-0.010089
-0.00658798
0.363929
0.0616806
0.662353
-0.000477556
-0.0011568
-0.00651321
0.307698
-0.000969786
0.633457
0.134507
-0.0031962
0.00128322
-0.0527312
0.00389061
0.442302
0.034372
0.593669
-0.0150754
-9.3126e-05
-0.00078072
-0.00422837
-0.000207645
-0.000193378
0.000115127
-0.00830421
-0.00206402
-0.0135329
6.90181e-05
-0.0148403
-0.0667627
-1.70567e-05
0.000156887
-0.00115044
-0.000560766
-0.000105098
-0.00463929
0.0171046
-0.000761612
0.0548545
-0.000953866
0.478883
-0.0116109
-0.0481382
2.40647e-05
-0.0451644
-0.0254807
-0.0163597
-0.00220742
3.64664e-05
-0.00164959
0.000102911
-0.0535351
0.00638683
0.14046
-0.099434
-0.000482674
0.0530166
-0.0945407
0.515728
0.39215
0.483488
0.000730902
-0.000957749
0.0002838
0.000430789
0.611851
0.452386
-0.00147173
-0.0027472
0.324233
0.453292
0.670392
-0.000404227
-0.000363717
-0.00518737
6.59149e-06
-0.000398865
9.23436e-05
-0.00288537
-0.00184894
0.477349
-0.0203665
-0.000693809
-0.00018894
-0.000906198
-0.0098086
-0.000901494
0.319064
-0.00102714
0.18108
-0.022002
-0.00834271
0.209204
0.14911
-0.000396814
0.219187
0.634837
-0.0174702
0.49263
-0.00645258
0.000590074
0.532184
-0.00141228
0.458301
1.67739e-05
-0.0268319
-0.0593515
5.16749e-05
-0.00315207
-0.000768419
-0.000136067
0.0120491
4.60542e-05
-0.00355727
-0.00635448
0.643491
-0.0226494
-0.0013061
0.466983
2.1054e-05
-0.000563582
-0.0111539
-0.000940946
0.631599
0.00022295
-0.0006617
-0.00372981
0.122117
-0.0204945
-0.000776002
0.000410846
0.0681829
-0.00196401
-0.000474756
0.576818
0.695034
-0.0016612
-0.00405825
-0.00145948
0.50224
-0.000133714
0.000320359
2.59417e-05
2.81674e-05
-0.0544962
-0.00155033
-0.000731155
-0.109803
-0.000735419
-0.0566249
0.000352554
-0.000186771
0.000201368
0.537796
0.566454
-0.0104073
0.43199
0.0554832
7.68987e-05
0.457781
-0.00646015
-0.00088814
-0.00165302
-0.0512571
-0.000276715
-0.0058117
0.000358509
-0.027264
0.22145
-0.00537455
-0.00414721
0.158854
0.366019
0.162554
-5.14583e-05
3.30869e-06
-0.000261177
0.294479
-0.00278194
-0.05927
0.000259283
0.453112
-0.118565
0.538284
0.373605
0.000658713
0.204622
0.00024813
0.472638
0.00858173
-0.0184335
4.2484e-05
-0.000732116
0.00175097
0.00168032
0.00138435
0.000576347
0.15765
0.00198994
0.313586
-0.000632549
-0.00100113
0.000279488
0.0902658
-0.00762677
-0.00354182
-2.33656e-05
-0.00836852
0.284559
0.000968448
-0.00872276
-0.00818903
0.0722542
-0.00800667
-0.000365021
-0.000588157
0.519051
0.558051
0.581976
-0.000404281
0.560115
0.507883
0.564591
0.00073037
0.000294679
-0.00039879
0.333377
0.411688
-0.0739641
-0.0177399
-0.000109784
-0.00637906
0.0749997
0.00210133
0.00195521
0.435646
-0.000934033
0.00109917
0.000158247
0.00232381
0.563603
-0.0253135
-0.000639913
3.50617e-05
0.616097
0.503809
-0.013687
0.276296
0.00188719
-0.0239708
0.00150094
-0.0338033
-0.043218
-0.0484284
0.256195
0.000419414
0.126737
-0.000252885
0.546345
-0.0167818
-0.00531661
0.484175
0.00261242
-0.0061615
0.000911303
-0.0524559
0.180794
-0.00918464
0.000314536
0.44176
-0.000469944
-0.00730822
0.0563043
-0.000206524
0.00111571
-0.000847358
-0.00781108
0.000696125
0.043219
0.000271551
0.0313732
-0.0153188
0.0225602
0.0149811
-0.00253089
-0.00379407
0.00981927
-0.00613903
0.00168429
0.00203714
0.362008
0.00205488
0.00193052
4.84972e-05
-0.0106641
-0.0250256
-1.65691e-05
0.360576
0.533897
-0.00802246
-0.00304472
-0.00203749
0.00210345
0.000230637
-0.00713308
0.0009616
0.0414162
-0.000155365
0.000153754
-0.00901891
0.000705451
-0.000680912
-0.000113018
0.347465
0.000673546
0.100521
0.391543
-0.0188262
-0.0194916
0.000923868
0.000181435
0.0824656
-0.00661403
-0.000471753
0.063759
0.209696
-2.72873e-05
0.0460612
0.248756
-6.23304e-05
0.157654
-0.00354304
-0.0180638
0.438602
-0.00064987
-0.000213132
-0.000328884
0.406177
-0.114996
-0.018484
-7.64978e-05
-0.00168822
0.00222308
-0.00789238
-0.00463413
0.1315
0.590627
0.656462
0.483767
-6.18925e-05
0.345109
0.113667
-0.00478265
6.59717e-05
0.338906
-0.0110001
-0.136801
-8.49834e-05
-0.000846711
0.453754
4.91478e-05
-0.0588584
-0.00367665
-0.0349151
-0.000543894
0.491795
-0.0148027
0.479117
-0.00628438
0.00197014
-0.00847639
0.000420991
0.42152
-0.00747168
0.00166462
-4.48471e-06
-0.0763283
0.016003
0.188179
-0.00602069
-0.000771133
0.224144
1.30995e-05
0.314556
0.166725
-0.000550085
0.323355
-0.0438319
-8.15133e-05
-0.00498557
0.000486071
-0.000852811
-0.0078534
0.386821
-0.0174088
-0.00109601
-0.0436672
-0.00103412
0.403695
0.564881
-0.000463426
-0.0090645
0.00150646
-0.00190877
0.427611
0.000212195
-0.000640656
0.290453
0.169908
0.480316
-0.00753765
-0.000638705
0.339128
-0.00478481
-0.00406066
0.00433081
0.598039
-0.0314096
-0.00596894
-0.000759072
-0.00269808
0.593829
-0.0133621
0.677774
0.202464
-0.00445868
0.000617937
-0.0211302
-0.0301368
-0.000220714
-0.00735309
0.585779
-2.23377e-05
-0.019059
0.594037
0.000448985
-0.00822789
-0.000253737
0.000436003
-0.000258469
0.0292476
-0.00867985
0.000574579
-0.0826747
-0.000244367
-0.00020726
-0.000172588
8.56056e-06
-0.0239824
-0.000197944
0.000808897
-0.0235159
-0.0155806
0.674943
0.0449146
-0.00719117
0.00148478
-3.80614e-05
-0.00727086
-0.000137581
0.14337
0.464856
0.000313665
-0.0217093
-0.00711423
0.0863468
-0.00227484
0.707736
-0.001208
0.000903532
0.314976
-0.000518897
-0.000212873
-0.0157678
0.463993
0.000549428
0.449358
0.472725
-0.00770075
-0.0171252
0.548591
-0.00675102
0.0010699
-0.0148274
0.35537
0.144083
-0.0246039
-1.09039e-05
0.571098
0.000705982
0.00110331
0.00176372
0.00124229
0.649426
-0.00144878
-0.000114808
-0.00705032
0.267521
0.680129
0.458602
0.718472
-0.000645222
0.63679
-7.22435e-06
0.364515
0.00150414
0.000341678
0.2089
-0.0134865
0.128745
-0.000265298
-0.0216227
0.685716
-0.0130267
-0.0364155
-0.00166971
0.000854904
0.212503
-0.00135698
-0.0121496
-0.000202598
-0.019786
0.000154561
0.694006
-0.00304484
-0.00576255
0.0889874
-0.0814993
0.196105
0.44384
-0.000289253
-0.0807508
0.256699
0.495372
0.708984
2.53884e-05
-0.0922775
-0.0844171
0.000987493
0.28935
0.321598
-0.0901416
0.598765
0.149232
0.235904
-0.00347297
0.440812
-0.00636436
-0.000481129
-0.000116215
-0.000217747
0.000481847
-0.00129735
-0.00327252
-0.000105001
-0.000691727
-0.000786305
8.0168e-05
0.315568
-0.0358803
8.67432e-06
0.690866
-0.000436996
-3.99275e-05
0.564557
0.709141
-0.0112641
-0.0109046
0.543051
-0.0010059
0.628633
0.0725271
2.16192e-05
-0.0516872
-0.0244191
-0.00212229
-0.00060479
0.466984
-3.57102e-05
-0.00032025
0.606627
0.000516676
-0.00190547
-0.0357855
-0.00375431
-0.00601724
-0.000326748
0.0723279
-0.00494301
-0.000209976
-0.00838121
0.0007783
0.339834
6.30345e-05
3.04787e-05
0.000712055
0.587882
-0.00110339
0.000507466
-0.000124842
-0.00143613
0.569956
0.000182273
0.155569
0.545445
0.000432062
0.653275
0.525861
0.00152676
-0.0520428
-0.000421266
-0.00347744
0.628801
-0.00241649
0.000614061
-0.000142199
-0.00723328
0.00180704
0.000666334
-0.000386672
0.644178
-0.000127891
0.484225
-0.0154715
-0.0575536
-0.000146586
-0.0424559
-0.00149359
0.558138
0.568234
0.185285
-0.000785039
-0.026074
-0.0536671
0.192256
0.127904
0.302066
-0.0689431
-0.0426861
-0.00547219
-3.97066e-05
-0.000613125
0.000780609
-0.00138438
-0.000943844
-0.0011584
-0.000631006
0.00147396
-0.00110746
-0.00297578
-0.000966402
-0.00651565
-0.000236036
-0.0017077
-0.000167984
0.757035
0.115421
-0.00264262
-0.00264677
-0.0021181
-0.000130718
-0.000302299
-0.00142038
-0.0011451
-0.0217761
-0.00010185
-0.00582705
-0.000506957
0.000833732
-0.000271985
-0.00835726
-0.0251169
-0.0018213
0.593714
-0.0112957
0.471763
-0.0263606
0.616296
-0.0147543
-0.0164476
-0.0182638
-0.0197949
-0.0200966
-0.0218865
-0.0224487
-0.000183874
-0.023279
-0.0230207
0.564586
-0.0257206
-0.0317039
-0.0258528
-0.000349172
-0.055086
-0.00421124
-0.000144958
-0.00345462
-5.54883e-05
-0.00047972
0.0233507
0.000922301
0.253609
0.498143
-0.00424057
-0.00103726
-0.00474396
-0.00298623
-0.00273317
-0.00565224
-0.00544522
0.000186635
0.700045
-0.00158488
-0.00948073
-0.00441302
0.000970215
-0.00238402
-0.000136182
-0.015165
-0.00332897
0.000221156
0.00105745
0.0254349
-0.000172622
-0.000140058
-0.00506156
0.00929622
0.00015559
-0.000303466
3.01486e-06
-0.000165276
-0.000387392
-0.00154974
-0.000351096
0.000252306
-0.000508007
0.000620358
0.554499
0.000204956
0.00042495
0.00112644
-0.00163682
-0.000330887
-0.000371911
0.375865
-0.00598388
0.526916
-0.00107205
0.00018126
-0.000171377
0.457169
-0.0583142
-0.000352087
-0.000104199
-2.21599e-05
-0.00263095
-0.00076742
-0.0223385
9.98892e-05
-0.0280443
0.00021712
0.0003583
0.000148892
-0.0014223
-0.00121517
-0.0356407
0.542789
-0.0252301
-0.00138595
1.90516e-05
-9.46754e-06
-0.0109243
-0.000164986
-0.0102329
0.000541973
0.00085849
-0.000546013
-0.00690065
-0.00298955
-0.0892929
0.000215588
-0.000160488
-0.00550177
0.000207555
-0.00182877
0.000201486
0.000242992
1.1591e-05
0.633198
0.000193627
0.723301
-0.00579773
-0.000133154
-0.00047699
-0.000165812
-0.000212958
-0.00443363
-0.000373462
-0.0554449
-0.00031429
-0.0762847
-0.00241544
0.000183293
-0.000174275
-0.0033725
0.641575
-0.000252015
-0.0147147
-0.00113327
0.540762
-0.0261058
-0.049561
-0.000211456
-0.0875954
1.58479e-05
-0.0995581
-0.0181995
-0.000290709
-0.00262881
0.673021
-0.0458409
-0.00257782
6.88928e-05
-5.61937e-05
0.476499
0.536753
-6.92241e-05
0.000789628
0.408627
-0.000198095
-0.00411944
-3.7138e-05
-0.000417061
-0.0227233
-0.015256
-0.10437
-0.000271923
-0.000749391
-0.000200865
-0.000154169
-0.0416863
-0.0149949
0.330955
-0.00559104
-8.72391e-05
0.51691
-0.0052761
-0.000227782
-0.0254812
-1.98867e-05
-0.000950254
-0.000215423
-0.00744038
-0.000728675
-0.0118834
-0.000203055
-0.000629144
0.326277
-0.00406193
0.412157
0.61682
-0.00352519
-0.00462894
-0.0603121
-0.00423736
0.685131
-0.00146565
0.000480936
-0.000121132
0.488095
0.641249
0.30409
0.017725
-0.0153431
-0.000183395
-0.00529169
-0.000452654
-0.000823328
-0.00067631
0.445386
-0.0155312
-0.000322517
-0.0018216
-0.00114663
0.086582
0.462991
-0.0167893
-0.00248187
-0.00133907
-0.000407432
-2.23476e-05
0.622917
-0.00157562
0.000409925
0.000128681
0.00154178
-0.00780676
0.092234
-0.00532542
-0.00673861
-0.0172031
0.000120742
-0.000614146
0.447556
-0.00680079
0.000238283
-0.0026126
0.461307
-0.00167049
0.132856
0.553499
-0.00069176
-0.00012699
0.138168
0.413608
0.194934
0.342444
-0.0275041
0.000372729
-0.000441192
0.442273
0.000859246
-0.00163342
-0.0251685
-0.00622802
-0.0539131
-0.0135186
-0.00206112
-0.000463356
0.419755
-0.00203123
-0.00908722
0.566077
-0.012049
0.536402
5.16797e-05
-0.00775055
0.510824
0.683629
-0.0101475
-0.00484446
-0.0052801
0.000157467
-0.00303174
0.526239
-0.0030527
-0.0169915
-0.00244375
0.00013427
-0.00047738
-0.00226829
0.000173229
0.371566
0.000165909
-0.00861967
-0.00093777
0.000336446
0.000101087
0.252364
0.484095
-0.0133183
-0.0163574
-0.0186036
0.000169986
-0.00140226
0.000166045
-0.0181964
-0.0197113
0.284554
0.488986
-0.0210946
0.262467
-0.00140528
-0.041677
-0.00174133
-0.0212099
0.340754
0.222606
-0.0230946
0.00229248
0.500013
0.368977
-0.00310837
-0.000266602
0.00054413
0.63093
-0.000680325
-0.000211975
-0.00116793
0.000139106
9.64961e-05
-0.00118055