/*--------------------------------*- C++ -*----------------------------------*\
  =========                 |
  \\      /  F ield         | OpenFOAM: The Open Source CFD Toolbox
   \\    /   O peration     | Website:  https://openfoam.org
    \\  /    A nd           | Version:  7
     \\/     M anipulation  |
\*---------------------------------------------------------------------------*/
FoamFile
{
    version     2.0;
    format      ascii;
    class       volVectorField;
    location    "14";
    object      U;
}
// * * * * * * * * * * * * * * * * * * * * * * * * * * * * * * * * * * * * * //

dimensions      [0 1 -1 0 0 0 0];

internalField   nonuniform List<vector> 
7639
(
(1.1204 0.144022 7.18732e-21)
(1.0348 -0.040422 1.10234e-21)
(1.0001 0.121401 -1.72396e-20)
(1.04575 0.0658263 2.26325e-20)
(0.999393 -0.000723991 -3.83737e-23)
(0.999973 -7.33295e-06 -4.00595e-24)
(0.99263 0.0985844 -3.43361e-20)
(0.996224 -0.00135119 -8.18235e-24)
(0.999911 -0.00013496 -6.73884e-24)
(1.02108 -0.000305712 -1.03486e-21)
(0.999975 -8.5464e-06 4.42017e-24)
(1.00164 -0.000981168 -1.60909e-22)
(0.99424 -0.0017115 3.99705e-22)
(1.01512 -0.00179167 -6.49431e-21)
(1.02054 0.000500772 4.38114e-21)
(0.993457 -0.0106854 -7.97082e-22)
(1.12646 0.15337 -1.50597e-20)
(0.992284 -0.00216779 -1.39595e-22)
(1.00156 -0.00705044 -5.16585e-23)
(0.978412 -0.0618007 -6.32459e-22)
(1.02871 -0.00648856 -2.18553e-21)
(1.00108 -0.00052291 3.03968e-22)
(1.01411 -0.00301411 5.54883e-22)
(1.01186 0.0284277 -1.17329e-20)
(0.989784 -0.00267801 -6.35542e-22)
(1.11249 0.143278 -7.30232e-21)
(0.999411 -0.00068347 -2.74598e-23)
(1.01943 -0.00179423 2.5715e-21)
(1.00556 0.0142531 -1.48061e-21)
(1.00249 -0.0075871 4.22578e-23)
(0.990243 -0.0111341 -1.4473e-21)
(0.858702 0.0424073 5.29396e-21)
(1.01364 -0.00352604 3.42079e-21)
(0.999659 -0.000292433 4.77681e-23)
(0.999926 -3.7069e-06 8.92541e-26)
(1.01965 -5.81476e-06 1.53085e-21)
(1.003 -0.00837503 5.0972e-23)
(0.997848 0.0949966 -5.44283e-21)
(0.997328 -0.0058082 6.55978e-22)
(0.999763 -4.1595e-05 4.54912e-23)
(0.997581 -0.00598018 -7.52723e-23)
(0.993599 -0.00997314 -2.95643e-22)
(0.991949 -0.0714403 2.7999e-21)
(1.09613 -0.0862227 5.62637e-22)
(0.999858 -7.36441e-06 1.46995e-23)
(0.999945 -1.2261e-05 -4.14973e-24)
(1.00099 -0.000437636 -1.85751e-22)
(0.997107 -0.00524094 -3.87519e-22)
(0.999953 -2.17695e-05 -3.33097e-24)
(0.980627 -0.0628212 9.17588e-22)
(1.00239 -0.000871405 1.73187e-22)
(1.01931 -0.000626158 -2.66998e-21)
(0.986766 -0.00317263 -2.1345e-21)
(1.00642 -0.0235552 8.78365e-23)
(1.01969 -0.00128929 -8.918e-22)
(0.996662 -0.00187581 -7.34124e-23)
(1.00144 -0.00663793 1.11308e-22)
(0.996204 -0.00116561 5.45826e-22)
(0.983644 -0.0129748 -2.54666e-21)
(0.99965 -0.00025933 -6.13818e-23)
(1.00003 -1.70685e-05 -7.125e-24)
(1.00316 -0.000843077 1.93741e-22)
(1.01551 -0.00111693 -1.53159e-21)
(1.00175 -0.000850685 1.62905e-22)
(0.999323 -0.00014739 8.81411e-23)
(0.990599 -0.0115829 2.547e-22)
(0.999932 -0.000136119 5.14889e-24)
(1.00001 -1.62912e-06 5.02799e-25)
(1.18304 0.00585571 1.93508e-21)
(0.997203 -0.0049667 -1.15096e-22)
(0.999949 -1.47601e-05 3.68394e-24)
(0.976536 -0.0371854 -4.63748e-21)
(0.990205 -0.00297412 3.09186e-22)
(0.981889 -0.00382325 4.18872e-22)
(0.992611 -0.00239388 4.37091e-22)
(0.975147 -0.0180142 -5.52141e-22)
(1.00493 0.122963 2.77276e-20)
(1.0269 -0.00600047 2.78966e-21)
(1.07316 -0.0185969 -4.34161e-21)
(0.967496 -0.0295757 -5.82232e-21)
(0.994502 -0.00189388 -6.13663e-22)
(1.00012 0.0576746 3.37587e-20)
(1.03532 0.00142502 6.58384e-21)
(0.981462 -0.00679597 1.92491e-21)
(0.999027 -0.0018433 -6.1485e-23)
(0.998397 -0.000230935 6.5374e-23)
(0.995969 -0.00178066 7.52839e-22)
(0.98726 -0.00355259 1.37335e-21)
(0.999532 -0.00086281 4.11897e-23)
(0.996825 -0.000488306 2.33952e-22)
(1.00587 0.0162585 1.10236e-20)
(1.12581 -0.0999436 -1.08117e-21)
(0.999907 -4.0281e-05 -8.81118e-24)
(1.00125 -0.00562866 4.57252e-23)
(0.997484 -0.000748616 2.12087e-22)
(0.981663 -0.00213716 -3.34681e-21)
(0.978092 -0.0371148 3.03099e-22)
(1.00776 -0.0229335 8.37619e-23)
(0.998941 -0.00177604 2.0959e-23)
(0.999195 -0.000136491 2.95684e-23)
(0.965961 -0.0106062 1.42806e-21)
(1.07601 -0.0146129 3.64164e-21)
(0.997625 -0.00085004 -5.28969e-22)
(0.999981 -7.60896e-07 -3.32535e-25)
(1.13711 -0.0956297 -9.46502e-22)
(1.03139 0.0257625 -1.04584e-20)
(0.92732 0.0305909 6.01399e-21)
(0.996441 -0.00177296 -3.0474e-22)
(0.999994 -1.18213e-06 5.67135e-26)
(1.01895 -0.0121767 -1.15463e-21)
(1.04894 0.0612774 -2.62883e-20)
(1.00726 -0.0588238 -3.32326e-21)
(0.999992 -1.80047e-06 -9.79403e-26)
(1.0204 -0.0130342 -2.49529e-22)
(1.02761 0.0250595 1.1005e-20)
(1.00029 -0.000417387 -1.45728e-23)
(1.03052 -0.0799569 -1.84741e-22)
(1.0292 0.0132113 -2.50266e-21)
(0.985437 -0.0307239 2.02889e-21)
(0.981652 -0.00465125 -4.37439e-22)
(0.963979 -0.00691175 -3.44315e-21)
(1.00137 0.0396477 -2.19725e-20)
(0.995576 -0.0718236 -3.84898e-21)
(1.007 -0.00609485 9.78715e-23)
(0.965095 -0.00792954 1.35645e-21)
(0.999332 -0.000993824 9.20481e-23)
(0.991104 -0.00845021 4.78552e-22)
(1.00199 -0.00639805 -7.66573e-23)
(0.999285 -0.000108295 -1.96599e-22)
(0.990281 -0.0102432 2.49402e-23)
(1.12862 -0.136239 -7.97238e-22)
(1.06717 -0.0180902 7.51043e-22)
(0.999578 -0.000389753 5.19135e-24)
(0.999462 -0.000886433 -7.99415e-23)
(0.980646 -0.006194 5.71719e-22)
(1.04489 0.0535476 9.58958e-21)
(0.994447 0.0329701 3.99055e-20)
(0.999983 -2.29702e-06 -3.93344e-25)
(1.00565 -0.00232946 8.14731e-23)
(0.95208 -0.00826764 -4.27481e-21)
(0.983 -0.00277076 -1.71492e-21)
(0.986638 -0.0425095 -2.97807e-21)
(0.975356 -0.0194046 7.47848e-22)
(0.982869 -0.00346275 -3.75202e-23)
(0.920201 0.0239916 2.34575e-20)
(1.00491 -0.0350983 -1.06854e-22)
(1.01178 0.0163428 -5.59914e-21)
(0.985024 -0.0156218 -1.31755e-21)
(0.975108 -0.00360476 4.71205e-22)
(1.00123 0.0502434 -1.0898e-20)
(1.02027 0.001002 3.82186e-21)
(1.11545 -0.0913787 1.16936e-22)
(0.998927 -0.0014476 -2.159e-22)
(1.18163 -0.00778733 -2.77547e-23)
(1.03353 0.00146467 -6.86929e-21)
(1.01247 0.0978172 -2.72774e-20)
(0.971483 -0.0208089 2.29038e-21)
(0.994242 -0.00130567 1.35208e-22)
(0.938848 0.0814362 5.22965e-20)
(0.999957 -1.80064e-05 -3.11739e-24)
(1.00087 -0.0058916 -2.91675e-23)
(1.01274 0.0319025 8.48913e-21)
(0.999985 -1.41353e-05 1.81263e-24)
(0.998727 -0.003745 -3.05783e-22)
(0.997162 -0.000719091 -1.01565e-22)
(1.00474 0.039121 -2.81176e-21)
(1.00265 0.0342555 1.04733e-20)
(0.929591 0.0899967 1.74136e-20)
(0.998548 -0.00361808 -1.92111e-22)
(0.997799 -0.000265871 -1.14805e-22)
(1.00001 -1.87979e-06 -4.71015e-25)
(0.962008 -0.00419862 -5.91475e-21)
(1.00028 -0.00036867 2.00877e-23)
(1.03722 -0.038007 -1.29866e-21)
(1.00577 -0.00261151 5.3978e-22)
(0.975652 -0.00427208 9.76384e-22)
(1.1389 -0.0810103 -9.59921e-22)
(1.13177 0.043585 1.55044e-22)
(0.999906 -4.68222e-05 4.80519e-24)
(0.999638 -0.000459922 -5.41364e-23)
(1.04827 0.0699893 -4.00134e-21)
(0.999957 -1.37218e-05 -1.51451e-24)
(0.999922 -8.59054e-06 2.29293e-24)
(0.993327 0.1053 -2.83338e-20)
(1.03509 -0.043482 9.58216e-23)
(1.0011 -0.048137 -1.85986e-21)
(0.986874 -0.0300044 -2.88043e-21)
(0.983412 -0.00501984 1.25797e-21)
(1.00267 -0.0355678 1.93169e-22)
(0.953161 -0.00699526 2.2449e-21)
(0.999985 -1.29205e-05 -6.63899e-25)
(0.978832 -0.03495 -1.11286e-21)
(1.14013 0.0511563 -5.68248e-21)
(0.997608 -0.00103563 7.60011e-23)
(1.00005 -4.56757e-06 -5.07649e-24)
(1.09887 0.0640246 6.97788e-22)
(0.999122 -0.000281588 2.09398e-22)
(0.99088 -0.00988566 7.65087e-22)
(1.00113 -0.0333788 6.3588e-22)
(1.00001 -1.24002e-06 -2.04249e-25)
(1.00061 -0.00145983 -8.2364e-23)
(1.04062 0.0537977 1.2089e-20)
(1.12709 0.0676324 -8.30452e-21)
(1.00596 0.0856502 -3.6733e-21)
(1.03045 -0.0751103 1.46944e-21)
(1.01043 -0.0573187 7.54437e-22)
(1.04375 -0.113682 -5.70386e-22)
(1.01963 -0.00282116 7.64878e-21)
(1.03652 0.0507055 -3.90599e-21)
(0.999849 -1.52069e-05 -1.7182e-23)
(1.00003 -1.44732e-05 1.89873e-24)
(0.945072 0.0124399 -2.30977e-20)
(0.994491 -0.00961239 -2.79685e-22)
(0.999562 -0.000349947 -5.19706e-23)
(0.980366 -0.0346132 2.3191e-21)
(0.990685 -0.00888907 -5.57847e-22)
(1.02342 0.088369 -3.01672e-20)
(1.01854 0.0858016 -6.35697e-21)
(0.984612 -0.0431762 8.10839e-22)
(0.885681 0.0597034 -2.00061e-20)
(0.999184 -0.000322207 -1.5377e-22)
(0.992325 -0.00186014 4.98915e-22)
(0.964775 -0.0096397 1.87838e-21)
(1.02843 -0.00206479 -1.58713e-21)
(0.988787 -0.0864334 -3.49858e-22)
(1.15558 0.129284 -1.36759e-20)
(0.938988 0.0714485 -4.47297e-20)
(1.00005 -7.93058e-05 5.77976e-24)
(1.00696 -0.00576372 2.68862e-22)
(1.02757 0.0159498 1.35691e-20)
(0.997216 -0.00433836 -4.98112e-22)
(1.03155 0.0130764 -1.70388e-21)
(0.999615 -0.000934507 -1.31082e-23)
(0.903373 0.101332 3.53442e-20)
(1.01236 0.0895888 6.05696e-21)
(0.995973 -0.00153194 4.7824e-22)
(1.00261 -0.00635639 -1.16008e-23)
(0.999777 -5.08513e-05 -8.46554e-23)
(1.18947 0.0611161 2.46216e-21)
(0.999932 -9.07193e-06 6.82338e-24)
(0.996068 -0.00796112 2.30889e-22)
(0.957514 -0.0186064 2.5474e-21)
(0.999948 -1.8776e-05 -1.52418e-24)
(0.999106 -0.00214115 -5.31963e-23)
(0.999699 -0.000910084 2.41403e-23)
(1.07669 0.0320669 9.2642e-21)
(0.999985 -1.81095e-05 2.16603e-24)
(0.996694 -0.000376763 2.72896e-25)
(0.969005 -0.0295184 6.75611e-21)
(0.860242 0.0317275 -1.16769e-20)
(1.06464 -0.0216136 -1.03824e-21)
(0.917257 0.0680398 2.69493e-20)
(0.999969 -6.52896e-06 -3.72288e-24)
(0.999434 -0.0336182 -4.60927e-23)
(0.999866 -0.000230992 -1.89015e-23)
(1.00639 0.100991 -2.7611e-20)
(1.00281 -0.000559138 -2.49853e-22)
(0.992056 0.0386216 1.29888e-20)
(1.00194 -0.00767315 -2.11519e-22)
(1.00054 -0.00151969 8.87438e-23)
(1.01949 -0.0296849 -4.14467e-22)
(1.01962 -0.00154193 -7.08387e-21)
(1.00041 -0.000248672 4.12849e-23)
(0.999837 -4.05662e-05 4.39205e-25)
(1.00036 -0.000336346 9.32637e-23)
(0.997061 -0.00458986 -4.4236e-22)
(1.00504 -0.0513234 2.12803e-21)
(0.99997 -8.95304e-06 2.51818e-24)
(0.97259 -0.0200477 1.60621e-21)
(0.997304 -0.000834313 -1.90799e-23)
(0.999898 -3.46119e-05 9.36404e-24)
(0.999556 -0.000433612 1.69464e-23)
(0.987331 0.0606379 3.12315e-20)
(0.994214 -0.00061092 1.96504e-22)
(0.999452 -8.4408e-05 -1.76804e-23)
(0.893209 0.014316 4.45276e-20)
(0.999001 -0.00206355 -1.20447e-22)
(1.08831 0.100777 -8.85592e-21)
(0.999851 -0.00021434 3.45225e-23)
(1.00498 -0.0177188 5.14376e-23)
(1.00001 -7.92564e-07 -1.72954e-25)
(0.985841 -0.0250057 -1.15828e-21)
(1.02777 -0.00172563 2.46779e-21)
(1.14781 -0.0774685 1.67077e-21)
(0.983753 -0.0139626 2.15717e-21)
(0.999705 -0.000466877 6.26549e-23)
(0.979557 -0.0534234 1.45679e-21)
(0.988077 -0.000338794 9.01844e-22)
(0.999868 -1.60326e-05 9.67813e-25)
(1.00034 -0.000290526 -8.25519e-23)
(0.99847 -0.0026535 1.66013e-22)
(0.994472 -0.00108902 -5.86872e-22)
(1.00231 -0.000711612 -2.9624e-22)
(0.999095 -0.00147999 7.78052e-23)
(0.982381 -0.00636971 3.02697e-22)
(1.00845 -0.050597 -1.55494e-21)
(0.982504 -0.0053492 1.34414e-21)
(1.09751 -0.0768414 -1.36347e-22)
(0.977029 -0.00580368 -1.70766e-21)
(1.02956 0.118032 3.0731e-21)
(1.02438 0.121935 -2.25239e-20)
(0.99891 -0.000585353 -1.34008e-22)
(1.16067 -0.0985401 -4.9996e-21)
(0.999988 -2.76276e-06 -2.14739e-25)
(0.998438 -0.00328289 -2.01469e-22)
(0.981224 -0.00148876 3.43387e-21)
(1.009 0.0251987 7.02617e-21)
(1.03803 0.00524925 -6.4804e-21)
(1.00007 -2.79469e-05 1.15192e-23)
(0.99851 -0.00310136 -1.32926e-23)
(0.977791 -0.00644327 1.2871e-21)
(1.05793 0.0312283 -3.88719e-21)
(0.99928 -0.00091923 6.91936e-23)
(1.00249 -0.000647123 1.67102e-22)
(1.00092 -0.000752922 -1.50409e-23)
(1.12376 -0.023965 2.56512e-21)
(1.12122 -0.14007 -4.3392e-21)
(1.06027 0.144737 1.40552e-20)
(0.998842 -0.00017936 -1.31084e-22)
(1.04233 -0.0450811 -6.16691e-22)
(0.999917 -5.14626e-05 -7.61421e-24)
(1.00354 -0.00569828 -5.67257e-22)
(0.999961 -1.01734e-05 -1.07198e-24)
(0.988808 -0.0153592 3.7233e-22)
(0.999751 -5.70327e-05 -1.62373e-23)
(1.00832 -0.0177511 1.32045e-22)
(1.17416 -0.121913 5.7292e-21)
(0.980118 -0.019462 2.5662e-21)
(1.00591 -0.017381 -5.89179e-23)
(1.00632 -0.00510839 -3.48622e-22)
(0.999469 -0.000109739 7.92682e-23)
(1.02028 -0.0166196 8.09311e-22)
(0.996936 -0.0142539 3.58902e-22)
(1.0727 -0.00747748 -2.2626e-21)
(1.07015 0.0315612 4.28783e-21)
(1.05941 -0.142289 5.0609e-23)
(1.08935 -0.0896946 -1.96432e-21)
(0.987577 -0.000694147 -9.65175e-22)
(1.0038 -0.00284877 5.34316e-22)
(0.959032 -0.017725 -9.8843e-22)
(0.919888 0.0890419 -5.42325e-20)
(1.0773 -0.0797593 1.92572e-21)
(1.02142 -0.010857 -3.21951e-21)
(0.895332 0.0646557 -2.71471e-20)
(0.998878 -0.000130207 6.47196e-23)
(0.99872 -0.000726065 -4.13891e-23)
(1.10654 -0.094448 -2.07311e-21)
(0.999202 -0.00158899 -4.17207e-23)
(1.00563 -0.0329468 1.60395e-22)
(1.00443 -0.00149532 1.89358e-22)
(0.997908 -0.000320879 -1.0207e-22)
(0.998462 -0.000275287 -1.61341e-22)
(1.03329 0.02075 7.94677e-21)
(0.99995 -0.000115515 -4.16569e-25)
(1.00039 -0.000194429 -3.67561e-23)
(1.00006 -1.17868e-05 8.68254e-24)
(0.997439 -0.00051553 5.47418e-22)
(0.995241 -0.00689201 6.18013e-22)
(0.999988 -2.63466e-06 1.63765e-25)
(0.999201 -0.000192133 1.68052e-23)
(0.984413 -0.012346 7.58979e-22)
(0.943831 0.0184733 1.44409e-20)
(1.00722 -0.0183466 -3.10687e-23)
(0.994557 -0.00898743 9.98141e-22)
(0.958867 0.0695546 6.17102e-21)
(1.00157 0.0377629 1.92642e-20)
(1.0588 -0.0131033 -1.90644e-21)
(1.1606 -0.0869558 1.60102e-21)
(0.961153 -0.00309311 3.22769e-21)
(1.00377 -0.00325078 -2.63312e-22)
(1.0109 0.043715 -1.07868e-21)
(0.991664 -0.00166003 -1.19077e-21)
(1.06123 0.105567 3.43225e-22)
(1.00188 -0.0379161 2.30394e-23)
(1.00422 -0.0845431 -1.33816e-21)
(1.1187 0.065142 5.23267e-21)
(1.06612 0.112693 -1.21303e-20)
(0.973746 -0.017388 3.59144e-21)
(1.0388 0.00333303 -4.16041e-21)
(1.16696 0.13512 1.26229e-20)
(1.08006 0.103649 1.71552e-20)
(1.02022 -0.00259792 2.4127e-21)
(0.99776 -0.00111862 1.19529e-22)
(0.99688 -0.0017152 1.04467e-22)
(0.999935 -1.69775e-05 -3.63381e-24)
(1.01096 -0.0232703 1.19831e-22)
(0.991439 -0.0013924 2.80462e-22)
(1.00076 -0.00185469 -7.24406e-23)
(0.999922 -1.85636e-05 -6.77081e-24)
(0.998804 -0.000539481 5.22558e-23)
(0.978167 -0.0522717 -2.39871e-21)
(1.11651 -0.00105204 1.77172e-21)
(0.987152 -0.00436073 -1.5416e-21)
(0.999225 -0.00959833 3.85445e-22)
(0.997181 -0.000539677 -2.92345e-22)
(1.03955 -0.0457617 -1.73195e-23)
(0.994722 -0.00115051 -9.43689e-22)
(1.00174 -0.0057353 2.16384e-22)
(1.18565 0.114836 2.15543e-21)
(0.998628 -0.000259567 -3.75763e-22)
(0.999984 -3.45925e-05 -1.44835e-24)
(0.99996 -0.00013846 -8.55315e-25)
(1.00004 -8.14837e-05 7.83628e-24)
(0.984116 -0.00561477 7.05738e-22)
(1.03105 0.0186327 -9.37122e-21)
(0.997005 -0.000413109 1.13484e-23)
(1.01827 -0.00885591 2.092e-21)
(0.991722 -0.091207 2.56716e-21)
(0.998916 0.0881957 -6.13435e-22)
(1.00299 -0.00587498 1.87641e-22)
(1.00513 -0.00369022 -8.66145e-23)
(0.996213 -0.0019286 -3.80237e-22)
(0.992476 0.0606341 -3.0538e-20)
(0.999225 -9.21747e-05 5.35001e-23)
(1.06623 0.150267 -7.06008e-21)
(1.00962 0.0172251 -1.0841e-20)
(0.999916 -2.28009e-05 7.93011e-24)
(1.00036 -0.0382812 -1.14388e-21)
(0.997536 -0.000595405 -2.69857e-22)
(0.988691 -0.0435327 3.65437e-21)
(1.00041 -0.000100757 3.66534e-23)
(1.05563 -0.00901732 2.71287e-21)
(1.00497 -0.0128958 -7.16544e-24)
(1.00477 -0.00322246 4.335e-23)
(0.999374 -0.000123452 -1.06032e-22)
(1.08116 0.0272366 4.39366e-21)
(1.05248 0.0308875 1.49746e-21)
(0.998983 -0.0496178 1.84454e-21)
(0.98487 -0.0144419 -1.45892e-22)
(0.998379 -0.00282869 -1.43453e-22)
(0.997652 -0.030268 -2.09383e-21)
(1.16696 -0.0125101 -2.05585e-21)
(0.866594 0.0493747 -2.56202e-20)
(1.04412 -0.078275 -1.47062e-21)
(1.00384 -0.00618251 -8.82823e-23)
(0.999994 -1.42361e-06 -4.0004e-26)
(0.99014 -0.00361045 -1.23617e-21)
(0.998321 -0.00028981 3.48953e-22)
(1.01933 -0.0161508 1.17404e-21)
(0.988867 -0.0736224 -1.13819e-21)
(1.14835 -0.104672 1.95781e-21)
(0.986284 0.0837587 -3.76722e-20)
(1.06111 0.0264568 6.29321e-21)
(1.04967 -0.109044 2.39045e-21)
(1.10208 0.0724421 2.32871e-21)
(0.999267 0.0398618 3.6139e-20)
(1.01612 -0.00246689 1.74572e-21)
(1.0009 -0.00178181 1.65628e-22)
(1.032 0.0595077 6.12704e-21)
(0.999357 -0.00155505 9.30835e-23)
(0.999865 -0.00012649 7.43922e-24)
(0.986589 -0.00147422 4.32646e-22)
(1.00007 -2.63218e-05 2.18202e-24)
(1.04415 -0.121474 1.177e-21)
(1.00242 -0.0139959 -6.76427e-23)
(0.987393 -0.0247906 1.95594e-21)
(1.00141 -0.0012354 8.32287e-23)
(1.09004 0.062582 1.29455e-20)
(0.998684 -0.000244114 -3.10095e-23)
(0.999982 -2.76417e-05 -1.78503e-25)
(0.999238 -0.0853369 1.45927e-21)
(1.00124 -0.00103256 -4.86121e-23)
(1.09048 -0.0369385 -5.22093e-22)
(0.967601 -0.0100082 6.66483e-22)
(0.954125 -0.0115024 3.28686e-22)
(1.21476 -0.0780989 2.80731e-22)
(1.02515 0.0153324 -3.54319e-21)
(1.01978 0.0039937 2.18317e-21)
(1.01869 0.00385703 -8.68937e-22)
(0.99985 -3.3439e-05 2.67297e-24)
(1.12375 -0.00717648 1.24324e-21)
(1.07496 -0.00421894 2.63346e-21)
(0.999623 -0.000496159 2.45133e-23)
(0.987707 -0.00474659 1.79077e-21)
(1.00046 -0.000157526 -4.07889e-23)
(1.00846 -0.0163628 -8.56183e-22)
(1.00521 -0.0224855 -4.97444e-23)
(1.00344 -0.00109809 1.86214e-24)
(0.999436 -0.000986751 -1.11631e-22)
(1.17886 0.0512962 -7.5534e-21)
(0.999984 -1.67322e-05 -2.57294e-24)
(1.00016 -8.08455e-05 -1.09792e-23)
(1.00155 -0.000806847 -3.37677e-24)
(0.983522 -0.00241035 1.19441e-21)
(1.01491 -0.00992485 1.46443e-21)
(0.98718 -0.0209077 -2.78029e-21)
(0.979828 -0.00367176 -6.91413e-22)
(1.00332 -0.0482867 1.04397e-21)
(0.998795 -0.100479 -2.74613e-21)
(1.01858 -0.0270846 2.98465e-22)
(1.03736 0.0594922 -3.48051e-20)
(1.17688 -0.107328 -3.95212e-21)
(0.995112 -0.00193838 -4.96672e-23)
(0.898295 0.0945255 4.21539e-20)
(0.979474 -0.0386787 4.04342e-21)
(0.995015 -0.0073277 1.95126e-22)
(0.980316 -0.00304513 1.14282e-21)
(0.997866 -0.0138497 -1.0339e-22)
(0.98453 -0.00178085 1.8273e-21)
(0.992557 -0.0029137 -3.60079e-22)
(1.02163 -0.0127513 -2.21173e-21)
(1.07999 -0.0861485 -4.87377e-22)
(0.999981 -3.26641e-05 -2.16834e-25)
(1.01825 -0.0115755 -2.49254e-22)
(0.999928 -2.25262e-05 -3.83578e-24)
(1.01861 0.10072 7.30639e-21)
(1.19295 0.0101193 3.50172e-21)
(0.996429 -0.00147262 1.19543e-22)
(0.989553 -0.00129623 -1.64252e-21)
(0.999862 -4.1052e-05 -1.96194e-23)
(0.998227 0.0549749 2.2625e-20)
(1.04832 0.11372 1.64286e-20)
(1.12063 -0.0172916 -1.31369e-21)
(1.21535 0.0850697 -5.70138e-21)
(0.979096 -0.0409494 -1.73205e-21)
(0.998355 0.0136541 -3.46378e-20)
(0.999953 -0.000100778 3.38027e-24)
(1.03569 -0.028765 2.40675e-21)
(0.986332 -0.001123 -6.77934e-23)
(1.12063 0.0455314 -2.38783e-21)
(0.928357 0.0649265 -3.27808e-20)
(1.16418 -0.0232877 1.40587e-21)
(1.05317 0.021615 1.04566e-21)
(0.999754 -0.009529 -6.14517e-23)
(0.999853 -6.33864e-05 -1.80658e-23)
(1.20328 0.0585704 2.23525e-21)
(1.13159 -0.122679 8.83075e-22)
(0.996419 0.0621819 -6.92066e-22)
(1.08377 -0.0341083 2.96755e-21)
(1.03787 0.0459151 1.02144e-20)
(0.994819 -0.0017325 -1.67911e-22)
(0.994235 0.0834597 1.0193e-20)
(1.05287 0.106094 5.69206e-21)
(0.9934 -0.0024609 -1.00995e-21)
(0.994469 -0.00231625 -3.75016e-22)
(1.20682 0.032435 -2.95252e-23)
(0.952558 -0.0106154 -4.5052e-21)
(0.999937 -0.000117874 -5.31889e-24)
(0.990599 -0.00390894 1.5909e-21)
(0.955814 -0.0150312 3.30729e-21)
(0.984848 -0.0527915 -5.09303e-22)
(1.00742 -0.00211747 -1.50167e-21)
(1.00625 -0.00462913 9.74986e-23)
(0.999909 -0.000146621 -1.0163e-23)
(1.05216 0.121132 -2.47309e-20)
(1.0001 -0.00856624 1.06402e-23)
(0.999924 -4.42025e-05 3.39296e-24)
(1.0094 -0.046962 1.1659e-21)
(0.999633 -0.00032518 2.17864e-23)
(0.999837 -5.83376e-05 1.35449e-24)
(1.00378 -0.00946226 -1.03429e-22)
(1.07587 0.0670888 1.82019e-20)
(0.997789 -0.0761426 2.02217e-21)
(0.948625 0.0652608 1.92061e-20)
(1.00005 -8.49558e-06 -6.12183e-24)
(1.08384 0.0696494 -1.88361e-20)
(1.00604 -0.0396456 8.94901e-22)
(0.999943 -0.000141804 -1.51358e-24)
(1.00002 -4.57944e-06 -1.99264e-24)
(1.00341 0.0111286 -1.7855e-21)
(1.06658 0.05648 6.86218e-21)
(0.9971 -0.0018126 1.03964e-22)
(1.05702 0.0418 -8.969e-21)
(1.00002 -1.45405e-05 1.43827e-24)
(1.05907 0.0478544 -1.23342e-20)
(1.05251 -0.135318 3.1758e-21)
(0.993051 -0.00219933 1.11134e-21)
(0.999104 0.021393 -4.68772e-20)
(0.980852 -0.0326799 2.69721e-21)
(1.21573 0.0705434 5.04151e-21)
(0.981193 -0.003073 6.89768e-22)
(1.06517 0.0497468 1.61024e-20)
(1.0739 0.0586825 -4.98098e-21)
(0.988267 -0.00586485 2.582e-21)
(0.984744 -0.00705657 -1.89787e-21)
(0.99622 -0.00736289 5.75772e-22)
(0.997943 -0.000543506 -8.83117e-23)
(0.999856 -0.000141828 2.07066e-23)
(0.999967 -0.00814202 -1.88089e-23)
(1.06501 0.0969753 -2.88813e-21)
(0.99998 -2.56663e-05 6.72907e-25)
(1.05096 0.0405835 1.18625e-20)
(1.00584 -0.0794735 3.20162e-21)
(1.00938 0.0619155 8.78391e-21)
(1.04938 0.0356557 -1.3571e-20)
(0.954208 -0.0140237 -4.10144e-22)
(0.956523 0.0839321 -4.00711e-20)
(0.998852 -0.000860538 7.55493e-24)
(1.01104 -0.0214782 3.59303e-22)
(1.02528 -0.0670281 8.38939e-22)
(0.985185 -0.00167482 -1.08842e-22)
(0.99539 -0.00244842 4.99678e-22)
(1.00397 -0.0401669 -7.94231e-22)
(1.04336 -0.0240523 -2.46902e-22)
(0.907108 0.0584041 5.15281e-20)
(1.00003 -1.45216e-05 6.79105e-24)
(0.998649 -0.000917913 1.00563e-22)
(1.00455 -0.0572616 3.78223e-23)
(1.00001 -3.5989e-06 2.50694e-25)
(1.0201 0.108535 3.59555e-21)
(1.00125 -0.000884597 0)
(1.00001 -4.94364e-06 1.95463e-25)
(1.00014 -6.42655e-05 2.57904e-23)
(1.0003 -8.44509e-05 5.15373e-25)
(0.9891 -0.0143681 1.8995e-21)
(1.01704 -0.015096 -8.40313e-22)
(0.998908 -0.00066403 1.57788e-22)
(0.99994 -1.20848e-05 7.17375e-24)
(0.995086 -0.00229096 2.77534e-22)
(1.00319 -0.00984317 -7.44411e-23)
(0.981442 -0.0751937 -3.07217e-21)
(0.95806 -0.00479949 3.25971e-22)
(1.01442 -0.00881113 2.57865e-21)
(0.99998 -2.04528e-06 2.10014e-24)
(1.02469 -0.124372 3.73398e-21)
(0.990778 -0.00271873 -6.37823e-22)
(1.18096 0.0354688 -2.54381e-22)
(1.00046 0.0185891 -6.3101e-21)
(1.00091 -0.00268343 3.85355e-23)
(1.15613 0.0333881 -7.5622e-21)
(1.00011 -7.08447e-05 -1.92869e-26)
(0.991207 -0.00306142 1.84556e-23)
(1.02061 0.000412651 -4.40336e-21)
(0.995403 -0.00278282 -2.04659e-22)
(1.08303 0.0839963 -1.09712e-21)
(0.991097 -0.00478055 -1.20074e-21)
(1.03757 -0.0273427 -2.11612e-21)
(1.02148 0.0011544 -4.74697e-21)
(1.06719 0.0268022 -2.61182e-21)
(1.00528 -0.0119099 -3.96189e-22)
(0.992929 -0.00314217 2.98952e-23)
(1.10493 0.055744 7.54282e-21)
(0.979657 -0.0563866 -2.74286e-21)
(1.00558 0.107904 3.02953e-20)
(0.99373 -0.00355886 -1.16865e-21)
(1.09633 0.117456 -3.01135e-22)
(0.993727 -0.00312352 3.1217e-22)
(0.999186 -0.000387146 -1.02489e-23)
(1.05135 0.0186413 2.97327e-21)
(1.00945 -0.0240879 -5.73622e-23)
(1.03174 -0.000828261 6.4607e-21)
(1.00127 -0.000647826 5.39431e-23)
(1.00001 -3.62823e-06 8.96726e-26)
(0.98505 -0.0864361 1.11261e-21)
(1.17744 0.104986 -1.03987e-20)
(1.0011 -0.00260408 -5.13715e-23)
(1.16848 0.0273783 6.14167e-22)
(0.99158 -0.004467 -7.85593e-22)
(1.0189 -0.124266 -1.29954e-21)
(1.03075 -0.0392586 -2.96875e-23)
(0.986821 -0.0221717 1.56362e-21)
(0.998822 -0.000753336 -6.6581e-23)
(0.993934 -0.000786626 -2.35921e-22)
(0.977661 -0.0479293 -1.67757e-21)
(0.979676 -0.00659849 2.61713e-21)
(0.99335 -0.0029066 8.26356e-22)
(0.999896 -0.000331565 8.81629e-24)
(0.99737 0.115175 -3.78228e-21)
(1.14567 0.0260865 4.47073e-21)
(1.01937 -0.00982305 -8.02033e-22)
(0.99986 -0.000110058 1.37434e-23)
(1.0486 0.0992729 -1.10509e-20)
(1 -1.76217e-05 4.91991e-25)
(0.99987 -9.77805e-05 2.71359e-23)
(1.13448 0.030951 4.28478e-21)
(1.00683 -0.0197361 2.2023e-22)
(1.18226 0.0795894 7.93257e-21)
(1.0195 -0.00323195 1.81899e-21)
(1.01289 -0.0107503 -1.75907e-22)
(1.05543 -0.0735161 8.82805e-22)
(1.01082 -0.0995889 3.0675e-21)
(1.20524 -0.0814067 1.21942e-21)
(1.00091 -0.000642217 -1.17995e-22)
(0.968772 -0.0109579 -2.6097e-22)
(0.999987 -4.26842e-05 -4.119e-25)
(1.0036 -0.00869802 7.29977e-23)
(1.08656 0.0773862 6.73928e-21)
(0.988878 -0.00550738 1.80281e-21)
(0.998051 -0.00109214 1.39905e-22)
(1.00797 -0.0323728 -4.70884e-22)
(0.998629 -0.000810447 9.61008e-24)
(0.999721 -0.000814025 2.83575e-23)
(0.89964 0.013493 9.15826e-21)
(0.993357 -0.00382543 -6.61554e-22)
(0.999628 -0.000544703 -8.51271e-23)
(0.999987 -7.0654e-07 -3.94901e-25)
(1.01617 0.00535999 9.52047e-21)
(0.980732 -0.018233 -3.96239e-22)
(0.999771 -0.000412468 2.49201e-23)
(0.998061 -0.00063016 1.80163e-22)
(1.02351 0.0178728 3.90105e-21)
(1.06323 -0.00349742 6.50664e-22)
(0.973707 -0.0158705 -2.2301e-21)
(1 -1.09328e-05 3.1435e-25)
(1.00182 0.0142547 2.58915e-20)
(0.990143 -0.0125769 -1.29991e-21)
(1.08705 0.05477 -1.2986e-20)
(1.00978 -0.00113712 -2.28369e-21)
(1.01135 -0.00104792 5.22117e-21)
(0.978507 -0.00816965 3.56195e-21)
(0.999933 -4.78558e-05 -2.20978e-24)
(1.0206 -0.000112836 -8.71894e-22)
(1.06634 -0.00784823 -8.29041e-22)
(1.19503 -0.050328 -6.00299e-22)
(1.01078 -0.0781531 6.99454e-22)
(1.05947 0.090732 8.53009e-21)
(1.00437 -0.00127956 -3.6473e-23)
(1.115 0.0567116 -1.03366e-20)
(0.999774 -0.0110948 -1.09291e-22)
(1.00718 -0.0445421 -2.1293e-21)
(0.999728 -0.00012275 -2.74559e-23)
(1.00184 -0.0147959 1.29849e-22)
(0.999927 -0.000320095 2.92814e-24)
(1.04958 0.025549 -8.92939e-21)
(1.12774 0.12314 -2.28166e-20)
(0.998961 -0.000890328 5.30798e-23)
(1.01385 -0.0109847 4.08847e-23)
(0.987939 -0.00331125 6.18847e-22)
(1.01654 -0.0714868 2.98651e-22)
(1.01181 -0.0732777 -1.61124e-21)
(0.998703 -0.000640041 1.05564e-22)
(1.03269 -0.0282221 -8.22047e-22)
(0.908742 0.00384068 -1.5481e-20)
(1.17278 -0.0589827 -6.61284e-22)
(0.999961 -0.00012213 7.05363e-24)
(1.05789 -0.00441715 -2.31799e-21)
(0.997866 -0.00676989 -2.78506e-22)
(0.992643 0.00329484 3.28984e-20)
(0.991592 -0.0039103 1.09327e-21)
(0.99617 -0.0198492 -3.38753e-22)
(1.01045 -0.0293438 -3.96462e-23)
(0.995065 -0.0204092 -4.96861e-23)
(0.99836 -0.0161008 -7.52405e-22)
(0.994764 -0.00248529 1.91059e-22)
(0.999161 -0.0109444 4.08537e-22)
(1.00139 -0.00484394 -5.80412e-23)
(1.04336 -0.0275278 5.73186e-22)
(1.00008 -2.13336e-05 -1.67658e-23)
(1.08695 -0.143023 -1.67183e-21)
(1.12709 -0.0731893 -5.17662e-22)
(1.03561 0.119561 2.05417e-20)
(0.974976 -0.0150885 3.39322e-21)
(1.16556 0.0798546 -4.15451e-21)
(1.0014 -0.000514963 1.89874e-22)
(1.03575 -0.0712837 -2.51547e-23)
(1.00101 -0.0293215 -7.85713e-22)
(1.02262 0.0339396 1.14061e-20)
(0.995115 -0.00300481 4.7417e-22)
(1.00008 -0.000136152 1.11455e-23)
(0.990579 -0.0131119 1.69908e-21)
(0.996847 -0.00718266 -2.18274e-22)
(1.03106 -0.0256856 1.82463e-21)
(0.980737 -0.00506837 -2.21284e-21)
(0.983992 -0.00656293 6.25932e-22)
(1.08938 -0.0703308 -9.66188e-23)
(0.989802 -0.00215942 -1.07332e-21)
(1.00839 -0.0301736 2.92009e-22)
(0.98522 -0.0558405 1.98387e-21)
(1.00001 -5.73443e-06 1.65169e-25)
(1.04681 -0.0218208 3.27024e-21)
(0.987459 -0.050867 -5.37499e-21)
(1.16303 0.05547 3.57987e-21)
(1.05249 -0.0781467 -1.70277e-21)
(1.03033 -0.000956973 5.39845e-22)
(1.00253 -0.0756449 -4.1593e-21)
(1.06646 0.129637 5.28056e-21)
(1.02315 -0.0325008 5.54459e-22)
(0.977627 -0.00752364 -2.10776e-21)
(1.00674 -0.0371685 -1.02169e-21)
(0.955798 0.00561917 1.46997e-20)
(1.06921 -0.124042 8.35818e-22)
(0.991137 -0.00362553 -3.32187e-22)
(0.997255 -0.0904806 -3.12499e-22)
(1.01084 -0.0531462 1.43783e-21)
(1.008 -0.0888479 -5.24201e-22)
(1.01698 -0.0666977 -1.66565e-21)
(1.10068 0.0480832 9.744e-21)
(0.998067 -0.00125196 9.28922e-24)
(1.00956 0.0419945 4.29994e-21)
(1.00578 -0.00120664 2.69054e-22)
(0.999726 -0.000416331 -3.58348e-23)
(0.999147 -0.00178343 2.56141e-22)
(1.05132 -0.00873742 -8.01692e-22)
(0.858402 0.00470609 4.46277e-22)
(1.00112 -0.0051537 3.14539e-23)
(1.00806 -0.0417704 3.06973e-22)
(1.02409 0.0205288 -6.48166e-21)
(1.00002 -5.63616e-06 -3.45038e-25)
(0.985501 -0.00665786 1.51517e-21)
(1.01721 -0.00882692 1.85417e-21)
(1.05075 -0.0489325 4.432e-22)
(1.00584 -0.000711954 1.5081e-21)
(0.998883 -0.00155195 4.74214e-23)
(0.986925 -0.0280989 4.52009e-23)
(0.998359 -0.00654126 -7.89183e-23)
(1.00002 -4.02515e-06 3.75061e-24)
(0.982352 -0.0322522 -4.5471e-21)
(1.0693 0.0799408 -2.96653e-21)
(1.01256 -0.0263404 1.6166e-22)
(0.988457 -0.00375336 -1.16197e-21)
(1.00129 -0.000302529 -6.84149e-23)
(1.02726 0.0222393 8.53371e-21)
(0.99973 -0.00049194 -1.65627e-23)
(0.999128 -0.000506334 -5.25277e-24)
(0.999751 -0.000134478 -2.50608e-23)
(0.999471 -0.00166729 -6.39269e-23)
(1.18631 -0.034827 7.77835e-22)
(1.01832 -0.0313412 5.66733e-22)
(1.00532 -0.0149081 1.24867e-22)
(0.987648 -0.00549735 -5.30565e-22)
(1.00003 -3.97978e-05 3.64967e-24)
(1.02247 -0.102205 4.1376e-21)
(1.14625 -0.117844 6.62086e-23)
(1.02187 -0.109087 -1.96556e-21)
(0.996213 -0.0251805 -6.34334e-22)
(1.01018 -0.00773828 1.71294e-21)
(0.999853 -7.70396e-05 1.14118e-23)
(0.991909 -0.00864024 -6.75857e-22)
(0.970304 -0.0313383 -2.65723e-21)
(1.16705 -0.0464403 5.42408e-22)
(1.0072 0.0603945 -3.08118e-22)
(0.99918 -0.00251131 5.21069e-23)
(0.962572 -0.0215451 1.50585e-21)
(0.996696 -0.00214624 -4.53003e-22)
(1.02229 -0.0299951 -6.45349e-23)
(1.11385 0.0376737 8.3507e-22)
(1.00032 -0.000106197 -5.71948e-23)
(0.999892 -0.000165198 -4.05756e-24)
(1.21108 0.0428168 4.60296e-22)
(1.14657 -0.0567957 3.66543e-22)
(1.01344 -0.0133148 6.19318e-22)
(0.997937 -0.00136641 2.38595e-22)
(0.99854 -0.000355994 -2.36073e-23)
(0.974611 -0.0323846 6.49439e-22)
(0.999879 -0.000277458 -1.36831e-23)
(1.01065 -0.0272578 1.25459e-22)
(0.990725 -0.00107899 2.23259e-21)
(1.0008 0.0206101 -5.2603e-21)
(1.07639 0.0857118 -1.55371e-21)
(1.03448 -0.0658915 6.62443e-22)
(0.989908 -0.051782 1.98862e-21)
(1.00466 -0.00124063 7.54173e-22)
(1.00948 -0.0203714 -5.18336e-22)
(1.12694 -0.061132 -1.96759e-22)
(0.988334 -0.0569001 -1.22101e-21)
(1.00914 -0.036476 5.7464e-22)
(0.999999 -5.01981e-06 1.89207e-26)
(1.10696 -0.0624351 -5.91086e-22)
(0.982239 -0.0020826 2.07228e-22)
(0.986223 -0.062358 2.42786e-21)
(1.01259 -0.0243479 -7.38804e-22)
(0.970167 -0.0104358 -4.69977e-22)
(0.99972 -0.000239542 -1.22281e-23)
(0.997902 -0.00102419 -1.06332e-22)
(1.0444 0.0345473 1.04863e-20)
(0.979569 -0.00768922 -8.02248e-22)
(0.999989 -1.47905e-06 4.57822e-25)
(0.997996 -0.000417302 -2.48862e-22)
(1.07627 -0.115745 -5.33349e-21)
(0.999886 -3.74938e-05 2.88284e-23)