/*--------------------------------*- C++ -*----------------------------------*\
  =========                 |
  \\      /  F ield         | OpenFOAM: The Open Source CFD Toolbox
   \\    /   O peration     | Website:  https://openfoam.org
    \\  /    A nd           | Version:  7
     \\/     M anipulation  |
\*---------------------------------------------------------------------------*/
FoamFile
{
    version     2.0;
    format      ascii;
    class       volScalarField;
    location    "29";
    object      p;
}
// * * * * * * * * * * * * * * * * * * * * * * * * * * * * * * * * * * * * * //

dimensions      [0 2 -2 0 0 0 0];

internalField   nonuniform List<scalar> 
7724
(
0.13882
-0.00840638
0.511561
0.296914
-0.00143377
-4.8398e-05
0.545042
-0.00872752
-0.000178289
0.128282
-4.50792e-05
0.00405835
-0.0130623
0.0626927
0.133959
-0.0175986
0.142785
-0.0169104
0.00158506
-0.0839184
0.0815562
0.00268532
0.0457299
0.259128
-0.0219522
0.166059
-0.0013279
0.0776526
0.214407
0.0038406
-0.0233458
0.960698
0.0448709
-0.000785757
-0.000155369
0.104504
0.00446307
0.521516
-0.00746179
-0.000544608
-0.00685115
-0.0167818
-0.0897888
-0.0871332
-0.000316595
-0.000117884
0.00262448
-0.00779903
-9.45734e-05
-0.0830494
0.00608304
0.0735604
-0.0275544
-0.00667897
0.103254
-0.00780999
0.0016771
-0.008681
-0.0357958
-0.000816328
8.36886e-05
0.00778827
0.0631803
0.00447873
-0.00159762
-0.0229771
-0.00013649
9.37574e-06
-0.0101378
-0.0073607
-0.000106736
-0.0651034
-0.0212803
-0.035235
-0.0164288
-0.0503467
0.497794
0.080236
0.0449624
-0.0689018
-0.0125433
0.498185
0.116712
-0.0372175
-0.00238408
-0.003811
-0.00934128
-0.0267775
-0.00107598
-0.00739748
0.219294
-0.11053
-0.000201339
0.00189404
-0.00587791
-0.0367843
-0.0615155
-0.00313786
-0.00263011
-0.00190824
-0.0600355
0.0527184
-0.00557024
-2.49606e-05
-0.106283
0.217236
0.821559
-0.0083131
-9.21162e-08
0.0399805
0.277482
-0.0604035
-1.39325e-06
0.0423596
0.219534
0.00080439
-0.0829487
0.172902
-0.0466623
-0.0363606
-0.0622717
0.473206
-0.0850243
0.0168358
-0.0606558
-0.00159699
-0.0212959
0.00314347
-0.00169383
-0.0238179
-0.163102
0.0487627
-0.000990916
-0.00127192
-0.0384806
0.270772
0.625226
-2.13159e-05
0.0136075
-0.077561
-0.0334018
-0.0573636
-0.0510577
-0.0340154
0.831249
-0.0259911
0.215131
-0.0353952
-0.0459682
0.47141
0.0996268
-0.0947695
-0.00253246
-0.0252739
0.116694
0.463081
-0.0581264
-0.0129922
0.745116
-8.48231e-05
0.000830892
0.269184
-2.03637e-05
-0.00350149
-0.00661155
0.346852
0.347899
0.780741
-0.00393981
-0.00517265
1.09945e-05
-0.0641714
0.000791251
-0.000575068
0.0147927
-0.0455063
-0.0851686
0.0852056
-0.0002002
-0.000829015
0.29744
-8.47454e-05
-0.00016805
0.539038
-0.0151678
-0.0490103
-0.044095
-0.033743
-0.0296135
-0.0757145
-2.32859e-05
-0.0595032
0.0844437
-0.00563121
0.000143532
0.165231
-0.00207413
-0.0224478
-0.027787
1.26838e-05
0.00160033
0.283801
0.113354
0.479459
-0.0761214
-0.055458
-0.138214
0.0846169
0.285851
-0.000340516
7.5246e-05
0.767879
-0.0149116
-0.00102945
-0.0569811
-0.022287
0.407155
0.426148
-0.0630577
0.907637
-0.00192027
-0.016472
-0.0615112
0.100176
-0.110289
0.086963
0.751346
0.000131974
0.0177103
0.185762
-0.00705976
0.167691
-0.000906889
0.842705
0.456614
-0.00925175
0.00468302
-0.000504018
0.0197928
-0.000140921
-0.0110315
-0.0741962
-0.000106162
-0.0022711
-0.000711048
0.153648
-1.92648e-05
-0.00767219
-0.0673409
0.96137
0.0411484
0.828225
-6.15473e-05
-0.0306287
-0.000294465
0.492164
0.00744722
0.626238
0.00216179
0.00135364
0.00223137
0.088683
0.0010813
-0.000371984
0.000959195
-0.00744871
-0.0504023
-5.69279e-05
-0.0563463
-0.00630351
-0.000224639
-0.00106312
0.586793
-0.0130371
-0.00130961
0.920138
-0.00249334
0.221008
-0.000331955
-0.000975151
1.7876e-05
-0.0417489
0.0963588
-0.080241
-0.0362834
-0.000689518
-0.0726365
-0.0251479
-0.000290546
0.000928469
-0.00380374
-0.0126271
0.00546942
-0.0021431
-0.0356228
-0.044492
-0.0350679
-0.0749858
-0.0437739
0.406841
0.433642
-0.00257601
-0.120065
-8.61885e-06
-0.00417561
-0.0366682
0.251502
0.131154
0.000193865
-0.00386794
-0.0425564
0.183776
-0.00171911
0.00666401
0.00227476
-0.00429993
-0.165251
0.304474
-0.00276194
-0.013391
-0.000177651
0.00739472
-7.48162e-05
-0.0289969
-0.000580141
0.00577201
-0.156113
-0.0453642
0.00145606
0.0160396
-0.00126687
0.0333761
-0.0136704
0.0707942
0.163716
-0.176599
-0.0888321
-0.0256318
0.00943197
-0.0724097
0.799154
-0.0778622
0.0529604
0.887622
-0.00266691
-0.0030302
-0.098943
-0.00189039
-0.0222082
0.0117437
-0.00488115
-0.00363634
0.193582
-9.5589e-05
0.00103462
0.000157609
-0.00590255
-0.0122825
-1.0796e-05
-0.00189757
-0.034432
0.755179
0.00240526
-0.014578
0.689008
0.407097
0.0639685
-0.109229
-0.0645557
0.00909604
0.331586
-0.0183188
0.29856
-0.0345432
-0.101061
0.127761
0.29047
-0.0526135
0.122148
0.0637117
0.248356
0.0821177
-0.00529192
-0.0073149
-0.00013403
0.00204291
-0.0186579
0.00178831
-0.000167055
-0.00281428
-0.0718423
0.0414219
-0.0270948
-0.00525375
-0.00655971
-0.0138319
-0.0120134
0.00303863
0.0515336
-0.00328806
-2.17147e-05
-7.21109e-05
0.000109659
-0.0325118
0.188232
-0.00695825
0.0494623
-0.12143
0.512359
0.00582859
0.0124213
-0.00883004
0.562483
-0.00183867
0.289808
0.220524
-0.000183884
-0.0371238
-0.00569166
-0.055071
0.00106126
0.0756392
0.00497821
0.0115085
-0.00148035
0.134651
0.192185
-0.05658
-0.0348553
-0.00404225
-0.0299571
-0.0181543
0.942032
-0.0771803
0.00809899
-1.55663e-07
-0.0214645
-0.00396853
0.0305877
-0.0983014
-0.125415
0.571426
0.16589
-0.127565
0.168847
0.549158
0.0503015
0.00219617
0.325624
-0.00157399
-0.000299842
-0.0273928
0.000178345
-0.151253
-0.00165552
-0.0376981
0.00350327
0.180923
-0.00311447
-2.66366e-05
-0.106361
0.00319185
0.00125254
-0.058102
-0.0764207
-0.109114
0.188792
0.155245
0.160007
-0.00034136
0.0274272
0.0776389
-0.000906224
-0.0261187
0.00114095
0.0081839
-0.00680994
0.00872961
-0.00135174
0.029347
-2.20916e-05
0.000387974
0.00365126
-0.0337555
0.0360898
-0.0354104
-0.0387099
-0.0456014
-0.124083
0.00692263
0.30833
-0.137821
-0.011198
0.855791
-0.0603101
-0.0128177
-0.0391434
-0.0111558
-0.0318162
-0.0166665
0.047471
-0.0871644
-2.89536e-05
0.0418116
-0.000148898
0.438086
-0.0121356
-0.00831658
-0.0222371
-0.000311891
0.502754
0.342626
0.011193
-0.00195258
-0.0650992
0.650877
-8.74527e-05
0.0208712
-0.0279076
0.101522
0.796705
-0.0271454
0.16576
-0.00375577
-0.0003371
-0.00744498
-0.146453
0.527858
0.00671193
0.268963
-0.0118293
0.532495
0.325447
-0.0148293
-0.0126558
-0.00843387
-0.077482
-0.000125286
-0.0205739
-0.0750355
-0.0693643
0.0202142
0.0164986
-0.000197298
0.335589
-0.00216993
-0.000161059
-0.0400636
-0.000842055
-0.000372773
0.00542588
0.217406
-0.0942955
0.730183
0.000130238
0.204443
-0.0317682
-0.00010727
4.2193e-05
0.210592
0.222705
-0.00684848
0.212572
5.98592e-05
0.222522
-0.170588
-0.0155197
0.584923
-0.0543988
-0.00133924
-0.0375339
0.213394
0.21074
-0.0253522
-0.031841
-0.0102308
-0.00482542
-0.00032759
-0.00230754
0.281804
-3.23413e-05
0.221602
-0.093549
0.434173
0.21183
-0.076381
0.694144
-0.0027156
0.00507537
-0.062389
-0.0304215
-0.0106726
-0.0353894
0.0347815
0.854208
9.25833e-05
-0.00320211
-0.0571116
1.5052e-05
0.442822
0.00323916
1.50239e-05
0.000368908
0.000714536
-0.0274012
0.0292659
-0.00257752
-0.000128439
-0.0113127
0.0035227
-0.104999
-0.0701556
0.0369445
-2.85575e-05
-0.156267
-0.0201278
0.0135674
0.438857
0.00195663
0.0413187
0.000297446
-0.0192857
0.115733
-0.0107259
0.21784
-0.0198295
0.0242517
0.120076
0.157579
0.00678806
-0.0158868
0.141974
-0.0820589
0.494089
-0.0143843
0.21504
-0.0142685
-0.00191938
0.15854
-0.00181467
0.107646
0.0033207
1.29098e-05
-0.11578
0.0490584
0.00249933
0.020189
-0.0188714
-0.154286
-0.00617972
-0.0366368
-0.00278435
-0.0135661
-0.0700227
-0.039907
-0.0150266
-0.000223958
0.530448
0.0459809
0.0487649
-0.000314027
0.333256
1.80365e-05
-0.000287942
0.065915
-7.68378e-05
0.0442897
0.0761746
0.0281975
-0.0661881
-0.127117
-0.106342
0.00231765
-0.0567106
-1.40796e-05
0.00598419
0.211285
-0.0242537
-0.00461569
-0.0176017
-0.00323867
-0.000660697
0.900855
-0.0151646
-0.000895952
-6.79587e-06
0.173112
-0.0426399
-0.000528619
-0.00456185
0.200169
0.0846537
-0.0516496
9.67708e-06
0.226487
-0.0243286
0.176575
0.0284441
0.0350197
-0.0420649
-0.000139873
0.117217
0.0723253
-0.0759115
-0.0874959
0.292493
0.0105935
0.127697
-0.00487071
-0.037761
-0.000638046
-0.00373096
-0.000150738
0.182692
0.14539
-0.00245475
0.0313101
-0.0255894
-0.073159
-0.0801813
-0.0030531
0.018989
0.845378
-0.076803
-6.82765e-05
0.0865674
-0.00643001
0.702711
-0.0186774
-0.019644
-0.00895988
-0.0226344
-0.0121933
-0.0120128
-0.00616373
0.00252075
0.0260861
0.000205004
-0.17512
-0.0746733
0.385516
-0.0498284
0.0619261
0.00355435
-0.063744
-0.0226414
0.262722
-0.0113575
0.000212167
-0.0239091
-0.0088971
0.0231467
-0.0383283
-0.0331927
-0.0580746
-0.0216062
-0.013709
-0.0753867
1.46593e-05
0.0417697
-0.0654435
0.050362
-0.075909
0.107628
-0.088006
0.291687
0.000560264
-0.0434335
-0.0270856
0.752278
-0.1449
-0.0195392
-0.114878
-0.0475639
-0.107665
-0.0661397
0.140389
-0.00459825
0.322777
0.0151519
-0.000635102
-0.00204454
0.0777629
0.974942
0.0017245
-0.0331076
0.20997
4.99023e-05
-0.0305651
0.0451768
-0.0182672
0.0153593
-0.00272976
-0.0421928
-0.00525719
6.23209e-05
-0.0519253
0.254502
-0.000677224
-0.0245718
0.00329258
0.208471
-0.000615379
-0.00205482
-0.000579178
-0.00130003
-0.0549405
-0.00325406
0.00361671
-0.0264179
9.59291e-05
-0.122404
-0.141275
-0.13769
-0.0250931
0.0248086
-0.000334628
-0.0195592
-0.0658096
-0.0581151
0.440779
-0.00212209
-0.0692979
-0.00780554
0.00459598
0.103923
0.000788653
-0.000237842
-0.00739253
-0.0601279
0.0237196
-0.0049061
-0.00342041
-0.0613244
-0.000267912
-0.00525479
-0.0199464
0.378127
0.24018
-0.0563621
-0.063832
0.012457
0.00395553
-0.0567538
-0.073448
-0.0226534
2.51419e-06
-0.0510094
-0.0363181
-0.079686
0.0027573
-0.0550984
-0.000644508
-0.00495845
0.218761
-0.0405239
-4.8067e-06
-0.00464217
-0.133826
-0.000257113
-0.0283905
-6.14494e-05
0.00598534
-0.10258
-0.0540417
-1.3184e-05
6.55942e-05
0.148907
-0.0540534
0.510206
0.211258
-0.0449892
-0.000975846
-0.0208763
0.000399938
-0.154704
-0.100169
-0.0982278
-0.0239786
0.161414
0.0109009
0.000495547
0.00666949
-0.133761
0.00338016
-0.0350421
-0.0640352
-5.56809e-05
0.0267337
0.0814657
0.00960262
-0.0329605
-0.0872922
0.221568
-0.0421672
1.33711e-07
-0.114686
-0.0666903
-0.0506272
0.00556549
0.00132259
0.00781443
-0.103763
0.0383893
-0.0374829
0.0692481
-0.0596443
0.00845604
0.0232304
0.0111222
-0.0383146
-0.154665
-0.000144268
0.17146
0.246301
0.00984905
0.0722773
-0.0813984
0.0537054
-0.0542127
0.234123
0.114234
0.82272
1.16152e-05
0.0981898
0.190183
0.0185158
-0.00187369
-0.0206991
-0.0663066
9.21471e-05
-0.0207848
-0.0568413
-0.0226025
-0.0250083
0.000243644
-0.137265
-0.000456152
-0.00109307
0.29059
0.00759017
-0.0510469
0.0239549
0.246597
0.0120614
-0.000483819
-0.1315
0.00935205
0.471846
0.00168615
-0.0590612
-0.000258759
-0.000688103
0.00734453
-0.0695241
-2.30977e-05
-0.0126315
0.0329188
-0.00248287
6.67457e-05
-3.7029e-05
0.176695
-0.0647604
0.00822833
-0.00139371
0.0104093
0.0194057
0.0101251
-0.000347559
0.321753
-0.119729
0.260318
0.265456
-0.000249725
-0.0545519
0.0950563
-0.000963844
-0.000314258
-0.000524346
-0.0390023
0.0129269
-0.0172384
-0.0262352
-0.0693518
0.193031
-0.114376
2.19397e-05
-0.022054
-0.0216213
-0.0389497
-0.00537827
0.00731422
0.00162721
0.0335896
-0.000635304
-0.000270822
-0.0199527
-0.00529698
-0.028034
-1.45169e-05
-0.0169817
0.0397462
-0.0457778
-0.0476413
-0.0100568
-0.0135255
-0.0106143
-0.00638508
0.0055617
-0.0109583
-0.000112901
-0.000486988
0.0270612
-0.0140468
-0.00605342
0.0102438
0.00249732
-0.133916
-0.0128079
0.180851
-0.0144418
-0.057571
-0.028827
-0.0256487
-0.0177694
-0.00461368
0.00282238
-0.00432821
-0.01603
-0.0183246
0.19307
0.137734
0.0474635
0.433226
-7.43113e-05
-0.00413941
-0.0186598
-0.00945662
0.0459815
-0.0229046
0.0391234
-0.0053635
0.189228
-0.00238056
-0.00199283
0.00932145
-0.0243235
-0.000250297
-0.026622
-0.00717623
-0.0235148
-1.55447e-05
-0.00808654
0.00254298
-0.0199625
0.0320162
0.0428425
0.0233052
-0.0160018
-0.0350229
0.133109
-0.00156217
-0.00240233
-0.00259022
0.677456
-8.29254e-05
0.0683539
-0.0239077
-0.0231095
-0.0294078
-0.0469761
-0.0319165
-0.0378747
-0.0208951
-0.00562017
-0.000102576
-0.00522388
-0.0245419
0.112256
0.00216378
0.0576653
-0.0364278
-0.0152106
-0.00110858
-0.0322424
-0.000109184
0.170056
-0.0335888
-0.0292905
-0.0268147
-0.00496366
-0.0373292
-0.00204426
-0.0443264
0.116825
-0.02889
-0.0806105
-0.00177888
-0.03009
-0.0209534
0.0188751
-0.00395746
0.163822
-0.00292972
-0.0216562
-0.000809962
0.185201
-0.0426869
-0.0295053
-0.00396675
-0.0113476
-0.00337177
0.154903
-0.00986162
0.0796447
-0.00601196
-0.000983598
-0.00152952
-0.00284635
0.0661689
-0.0648163
-0.00826469
0.000455766
-0.0100623
-0.0182826
-0.00109128
-0.0197653
-0.0178696
0.0671137
-0.00602314
0.00394267
0.682262
-0.0658108
-0.0318704
-0.061776
5.75338e-05
0.0874149
-0.00432128
-0.029905
-0.00682733
-0.0392889
0.00498173
-0.000635926
-0.00354571
0.00413394
0.235191
-0.00708488
-0.00217975
-0.00564763
-0.0592065
-0.00998763
-0.0247504
0.00529901
-0.0104559
-0.0107999
-0.00399583
0.234524
-0.0498932
0.00406092
-0.0051624
-0.0306501
-0.0165173
-0.0532674
-0.00170742
0.103744
0.0274902
-0.00945329
-0.0021082
-0.0160171
0.688429
0.236985
-0.0134008
-0.000688954
-0.00291008
-0.000572856
-0.00485338
0.0252393
-0.000486863
-0.0217645
-0.00240025
-0.0195124
-0.156465
-0.00128927
-0.014349
-0.00164294
0.38817
-0.00782834
-0.0138506
-0.0621154
-0.00236449
-0.0333351
-0.0489078
0.586245
-0.0127569
-0.0135236
-0.00258399
-0.00054695
1.25323e-05
-2.66634e-06
-0.0120715
-0.000798667
0.0563128
-0.000801857
-0.00220856
0.0100146
-0.000294999
-0.0482688
-0.068622
0.021116
0.0470537
0.0317214
-0.0481364
-0.0561049
0.102594
0.0811074
0.110626
0.140968
-0.0152117
-0.00102043
-0.00721418
-0.0761711
-0.00429428
-0.0175687
-0.0505702
0.306487
-0.0597462
-0.000571868
-1.3821e-05
-0.0017797
6.38542e-06
0.00935283
-0.000665319
-0.00577786
-0.0515438
0.000711181
0.00325936
-0.000246494
0.0551218
-0.0179109
-0.0642964
-0.00147648
0.408487
0.194594
-0.01199
-0.0920323
-0.031235
-0.0270401
-0.0168547
-0.00228202
-0.088076
-0.0422588
-0.0471517
-0.129677
-3.58571e-05
0.183967
-0.0235821
-0.0114211
-0.0392818
0.0226779
-0.000631269
-0.0100159
-0.00164659
0.0133321
-0.00188025
0.119703
0.000467508
0.0124109
-0.000488859
-0.135417
0.0109378
-0.000919738
0.00208383
0.000539717
-0.0464658
0.112153
0.000522771
-0.0017467
-0.000133535
-0.000684774
-0.000598568
-0.0643606
0.143482
-0.0445915
-0.00030988
0.0102605
-0.000538776
0.272246
-0.0636701
0.242588
-0.0467013
-0.000532126
-0.000325812
-0.00877402
-0.00681394
-0.000753508
-1.63939e-05
0.0294273
0.0342075
-0.000269217
-0.000382752
-0.0225645
-1.96578e-05
0.195106
-0.00111492
-0.0560303
-0.0218366
-0.00761709
-0.0587872
-0.0651244
0.175609
-0.0298733
-0.0230579
-0.000366898
-0.0597326
-0.0235994
-0.0390618
0.0129986
0.422536
-0.00141391
-0.0625177
0.0123535
0.317844
0.0457166
-0.00012659
-0.0072663
-0.00491918
-0.00598018
-0.0506865
0.0882358
0.000254212
0.0150486
0.00362421
0.0628121
-0.000618034
-0.000123553
-0.120967
0.278219
-0.0579105
0.127769
-0.00154112
-0.00022603
-1.83735e-06
-0.106519
-0.0447346
-0.000392661
0.0861158
0.0137711
-0.00645395
0.547582
-0.000455767
-0.00448389
-0.0627321
-0.0367458
-0.00276317
0.155974
-0.0755066
-0.00018303
0.010862
-0.000187598
-0.000102814
0.140534
-0.00476059
-0.000535287
-0.0540915
-0.0276785
-0.00422818
-0.0439223
0.00302055
-0.0258195
0.00208687
-0.00422546
-0.0679221
-0.0413148
0.0133547
-0.00106489
0.166973
0.245956
-0.120202
0.0110016
0.0230707
-0.00517059
0.194235
0.0974491
-0.0308206
-0.000177365
0.0114532
-0.0575361
0.00900142
-0.0316105
-0.00255086
0.038538
-0.0309118
-0.000148088
-6.88808e-05
-0.052749
-0.0301706
-0.0289478
0.0114631
-0.0342944
-0.0477193
-0.000161395
-0.00168597
-0.000228482
-0.0396912
-2.03823e-05
-0.00233619
-0.0579087
-0.116607
0.0318607
-0.00360239
0.00517607
-0.0243017
-0.0284212
-0.000136363
-0.0487691
0.00851683
0.183073
3.80276e-05
-0.000116869
0.186837
-0.00304575
-0.101205
-0.0432388
0.00422198
0.000630577
-0.0690255
-0.047849
0.191847
-0.0585233
-0.0017675
-0.0123824
-0.057505
-0.000683467
-0.000273683
-0.00107781
-0.043899
-0.0539897
0.0856913
-0.000235891
0.7179
-0.0781769
0.000170574
-0.00116442
0.000341953
0.000386479
-8.04517e-06
0.000196666
-0.0552891
-0.000858003
0.000566597
-0.000221669
0.163085
-0.00688742
-0.000215268
-3.31353e-05
0.355735
-0.0244187
-0.0736045
0.00143191
-0.000861491
0.0542849
-9.83793e-05
-0.0162885
-0.170854
0.00273666
-0.00802164
-9.87867e-05
-0.000229412
-0.0342447
-0.0762078
0.00894743
-0.146259
-0.0830351
-2.49134e-05
0.0258721
0.0389923
0.125461
-0.00206535
-0.00017044
-0.0597699
-0.00729418
-0.000583984
-0.0522686
-0.000146874
0.0366842
-8.04812e-05
-0.00152245
-0.0801485
-0.00258652
-0.0613921
0.625261
-0.00198955
0.000365215
-0.0595868
-0.0627372
0.0110528
0.00585332
-0.000164204
-0.0344894
-8.2244e-05
0.231938
0.906958
0.0325803
0.00379196
0.00447871
-1.24524e-05
-0.031333
-4.92744e-05
-0.00930063
-0.00204169
0.00048917
-0.00404166
-0.0116388
-0.000129765
0.00111048
-0.0104742
-0.000359802
-0.0122537
-0.0188791
-0.01336
-0.00139144
0.798375
-0.00082074
0.00304945
0.000327633
0.0170137
-0.0524974
0.0117808
-0.000193739
-0.000102499
0.00326042
-0.000112329
-1.51466e-05
-0.0140214
0.000892585
-2.06143e-05
-0.0542357
-0.00280078
-0.0584335
-0.00197239
-6.66214e-05
-0.00375999
-0.0131407
-0.017724
-0.0290243
0.00291247
0.000674906
-0.000541721
-0.00233954
-7.48224e-05
0.324693
0.00196134
-1.55128e-05
0.000754025
-0.0024418
-0.000406663
-0.0660561
-0.0571757
-0.000131954
-0.00830416
2.63207e-05
-0.00324719
-7.20531e-05
0.042207
-0.000148873
-0.000199643
-0.00437065
-1.24977e-05
0.0165815
-0.000249394
-0.00150196
0.0230202
2.55868e-05
0.472503
-0.0568942
-0.0450521
-1.68536e-05
-1.79242e-05
0.00233893
-0.001406
-0.0558727
-1.34868e-05
2.42254e-06
0.000949046
-2.59595e-06
0.000494553
0.000583959
-0.000531293
0.00100302
-0.0555105
0.630912
-0.0397924
0.391717
0.0111461
-0.0199364
-1.35405e-05
-0.0010385
-0.0142637
0.000201783
0.000375512
0.000230132
0.0258163
-0.00163893
-0.000236215
0.690957
-0.000634129
0.000755854
0.000650311
-3.53231e-06
-0.0817731
-0.00261699
0.00143391
0.000178259
-0.000622216
-6.68822e-05
-0.00111966
-0.0474927
-0.000479181
-0.0019527
-1.2611e-06
-0.000864845
-0.000293676
0.227233
-0.00050894
-0.000301604
-0.0719951
0.00467127
-7.60731e-05
-0.00158303
-5.94941e-05
0.205155
-0.0764059
-0.000330571
-0.000444063
-0.00232641
-0.000159617
0.0635686
0.111467
0.000955194
0.000662784
-5.68852e-06
-4.57612e-07
0.0505048
0.000336524
-0.0639034
-0.030751
-0.0185684
-0.129648
0.810245
0.0024459
0.182643
-0.017183
-0.0325324
0.209068
-0.000408133
-0.0688494
-8.67559e-06
-0.01056
-0.0519369
8.27846e-05
-0.0559091
-0.00111614
-0.0137169
-0.00676258
-0.0457209
-0.0457465
-0.00393754
-0.0664631
-0.0468062
-0.000204381
-0.0141477
-3.8464e-05
-0.0408474
-2.47983e-05
-0.000203213
0.0110162
0.197634
4.42281e-07
-0.0490484
0.00440163
0.000112967
-0.0245136
1.39457e-05
-0.0157914
-0.000284701
-0.0415259
0.000175936
-8.48956e-05
-0.00243248
-2.90841e-05
0.192278
-0.0339321
0.0376297
-1.52783e-05
0.000803535
-0.0358708
2.0566e-06
-0.0606189
-0.0694598
-0.0586705
0.724785
-0.00763401
-1.42706e-05
0.0310426
-0.0450862
-0.00308042
-4.00021e-06
-8.36611e-05
-0.050574
0.000179661
0.00110562
5.59012e-07
0.000222014
-0.0312311
-0.0105326
-0.0844021
0.0989837
-0.00629304
-7.58681e-07
0.00726225
-0.0581375
-1.86133e-05
-1.02406e-05
0.000421145
9.51894e-05
0.000527548
0.0970225
0.0416739
8.41228e-05
2.20281e-05
-0.0687103
0.244617
0.204726
-4.10242e-05
-0.039801
-0.0227316
-0.0126047
-0.051101
-0.0103276
-0.00342508
0.169412
-2.97342e-05
-0.029605
0.201627
-0.0525577
-9.51182e-07
-0.0642135
-0.00018763
0.19766
0.0320053
5.49664e-06
-1.83017e-05
0.209033
6.49595e-06
-0.000193794
-0.0136445
2.99206e-05
0.258406
0.00395866
-0.00863306
-0.0663255
-0.00443157
-0.0863852
0.221487
-0.0164054
-0.0562009
0.00125512
-1.0435e-05
-0.00119845
8.88916e-06
-4.88935e-06
0.0208277
0.220307
0.180699
-0.000499622
0.310206
-0.0146649
1.72763e-05
-0.0487556
-2.17917e-06
-0.0312173
0.0333687
-0.017235
0.00540573
0.00232072
-0.0107938
0.000339494
-0.00196364
0.0222154
-0.00336267
-3.52391e-05
4.74306e-05
-5.75871e-05
0.0378291
8.58322e-05
-0.0265073
0.329385
-0.00706196
7.63513e-05
-0.00406683
3.58576e-06
0.00237103
-0.000402752
-6.11762e-05
-8.37114e-05
-7.2648e-06
0.260269
-0.000155444
0.248973
-0.065876
0.00016014
-0.057226
-0.000549072
0.189448
0.713872
-0.00163582
4.19514e-06
3.29574e-05
-1.36247e-05
0.126156
1.23471e-06
0.00131363
-0.0272296
0.2421
1.40869e-05
3.00624e-05
4.78837e-06
4.05551e-05
-0.0233153
3.2744e-06
0.150188
-0.0188972
-0.000126528
4.67271e-05
-0.00240346
-0.0315438
2.2067e-06
-5.26888e-05
0.200849
5.32275e-05
-0.0352961
-0.0690108
0.000184282
1.35438e-06
-0.162117
2.0324e-06
0.183557
2.38013e-05
-0.000504013
2.19072e-05
-0.000186407
0.109149
8.14999e-06
-0.00191208
1.99207e-05
0.0139665
-0.00398186
-0.00745185
0.000836337
0.185614
-0.000288652
-7.52539e-05
-0.0102681
-0.00991391
-0.000266643
-3.64323e-05
-0.0010316
6.51702e-05
0.0952933
-0.0121345
0.671522
4.73931e-06
-0.00886444
-0.000155644
0.135202
8.68852e-05
-0.0298626
3.79117e-05
-0.00183702
-0.0368081
-0.000250471
-0.0179481
-0.0533963
0.00601272
6.97114e-06
-0.0640124
-0.000371849
-0.000318332
-0.00644362
-0.0187738
0.00158546
-3.05019e-05
-0.000489634
-0.00105987
-0.00147693
2.8369e-05
-0.00139657
0.683006
0.00013854
-0.00380634
-0.0382374
-0.0752408
-0.0666482
-0.0511822
-0.0245396
-0.00059358
-0.0203021
0.00011235
-7.7177e-05
0.674017
-9.26303e-05
0.162808
-0.000508357
0.000514071
-0.00130721
-0.0902561
-0.000469296
0.000672403
-4.81139e-06
-0.000439627
3.35076e-06
-7.57353e-05
-0.016828
-0.000106977
-6.58293e-06
-7.9887e-05
0.000208422
2.61643e-06
-0.0467607
0.117484
-5.68998e-06
-0.000686198
6.82951e-05
4.96924e-05
-0.000955512
1.77128e-05
-0.00103842
0.000373448
-0.00040984
-0.067103
-0.00078857
-0.00212408
1.0604e-05
-0.00184918
0.000437416
-1.25173e-05
-4.05366e-06
2.26774e-05
-0.00091067
0.000682046
-0.048297
-0.030937
-0.0674156
0.000722154
-0.00221569
-0.0538029
-0.0678182
-9.30287e-05
0.0175733
0.00810763
-0.00120838
-0.0135215
-0.0584944
0.570182
-0.000468803
-9.86032e-06
0.00110261
7.68099e-05
2.9903e-05
0.087923
0.00430076
0.102136
-0.0425949
0.568912
-0.000593563
5.87958e-06
0.000207498
-9.62973e-06
-0.00158505
0.158615
0.272515
3.24334e-06
-0.00017789
-4.19527e-06
0.255776
0.0162927
-0.00741879
1.97097e-05
3.16906e-05
0.00869162
-0.000795398
-0.0756254
-0.0189301
4.64926e-05
0.00421816
-0.0351978
-5.50361e-05
0.00220917
-5.70189e-05
-0.0490296
-0.00201558
0.156713
2.77399e-05
0.00205834
-0.000213494
2.66841e-05
0.000234484
-0.0256808
2.55977e-05
-0.00104905
4.14518e-05
-0.022036
-0.0482378
-0.00369075
-0.00883091
-0.0097944
0.010905
-0.00997251
-0.0028503
0.000100193
0.00015099
3.71106e-05
3.21233e-05
-5.16466e-05
0.0106546
-0.0633499
0.000625387
-0.0521533
-0.00356104
-0.0576869
0.00012528
1.31213e-05
0.00161187
-0.119637
3.16182e-05
-0.0511094
-0.0168952
-0.08602
-0.053346
4.45167e-05
-0.00398854
0.000261896
-0.178904
0.158004
2.97033e-05
-0.0637925
-0.025279
-0.00489216
6.31321e-05
-3.75566e-06
0.0246005
-0.0184717
4.477e-05
-0.00776298
1.50355e-05
0.000289598
0.140302
-4.88441e-06
2.27053e-05
-7.40414e-05
5.74741e-05
0.00112019
0.000124551
-0.00603717
0.000312499
-0.0142236
0.00136657
-0.000216036
-0.037038
-0.0463705
-0.00718591
-1.21678e-05
3.75386e-05
-0.0693825
0.00688591
-0.0507891
5.26679e-05
-0.00591931
-3.22935e-05
4.28525e-05
0.0712502
-0.00796638
-0.00320392
1.5533e-05
-0.0199015
7.62169e-05
-0.0703012
4.74798e-05
-0.0790061
4.29906e-05
-2.77308e-06
0.000121521
0.0012698
-0.114155
-0.0199995
-0.0741024
3.44395e-05
0.000136115
-0.079739
-0.0305525
-0.00953226
1.53217e-06
-0.0471549
-0.0551766
-0.0797835
1.95795e-05
-1.09646e-06
2.87231e-05
-0.104279
-0.0721735
0.000908877
-0.0124117
-4.57187e-05
0.121917
0.00013369
3.4084e-05
0.000204755
1.406e-05
-8.06867e-07
-0.00415553
0.000162425
-0.00294327
-0.0697255
-0.0146065
-0.0599439
6.80493e-05
-4.66661e-05
0.0505364
-0.0657673
-0.00541242
0.126948
3.28223e-05
-4.60504e-06
-4.42397e-06
0.052561
0.000233561
2.83172e-05
8.60997e-06
-0.0678815
-0.0172119
2.65429e-05
0.000125189
-0.0104603
-0.00730505
0.000551491
0.272934
-0.0650524
0.000212225
0.919748
6.34762e-06
-0.000775579
-0.00990591
-0.0783376
2.14514e-05
1.83056e-05
3.55388e-05
0.00572265
-0.03785
-0.000366999
-0.0529277
-0.0087262
5.20723e-05
-2.34122e-06
-0.0113932
-0.0091625
-0.0370191
-0.104267
-0.0480999
-0.041891
-0.0287964
-0.0302242
-5.6951e-05
0.000457175
-0.00119213
0.000669851
-6.00703e-05
0.000957223
6.17074e-05
-7.70635e-05
-0.0135457
-8.67533e-06
-1.46705e-05
0.0356213
-0.0397409
-0.000155728
-1.70464e-05
4.2927e-06
0.30331
-0.00752543
0.000981913
-0.0311784
0.000299063
0.00026519
0.000230336
-4.02586e-05
0.000611185
-0.0413234
0.0172091
-6.02912e-06
-0.000159432
-0.0458272
-0.0360027
0.0563491
-0.000549028
0.00224194
0.0209705
1.68017e-05
9.38947e-05
-0.0545644
3.71206e-05
0.194241
3.40485e-05
0.00503909
0.000223633
0.000296301
-0.0724779
-0.00831144
-0.019903
-0.00274101
4.33471e-05
0.00727565
0.0706046
-0.0138404
-0.000134203
0.108225
0.188915
1.05267e-05
-0.0553726
-5.81675e-05
6.73858e-07
-3.89411e-05
-0.000636611
0.0232438
1.84714e-05
0.000325949
-0.0272249
-0.0282761
-0.0242294
0.389477
4.37078e-05
-6.29088e-05
0.200572
-0.00968981
-0.0043303
-0.000736041
0.19712
7.67329e-05
-0.000333985
8.31775e-05
5.83413e-05
5.12507e-05
5.82359e-05
0.000105834
-0.0195421
2.74462e-05
-0.00380554
-0.0474261
0.253503
-0.00013108
-4.37552e-05
0.00563071
0.0972201
-0.0542542
-0.000850756
-0.0731931
0.382617
6.73656e-05
0.5221
8.02636e-07
0.00399525
0.0283656
0.000553007
0.585113
1.14252e-05
-1.41957e-06
0.00142369
5.1275e-05
-0.000977971
0.000343423
3.16158e-05
-0.00223401
3.97088e-05
-0.000145633
-0.00376513
0.292375
0.0553526
0.0257968
-0.0465097
-1.39253e-06
-3.93812e-06
0.00404784
-0.0631979
1.92967e-07
-0.0496318
-4.61589e-05
0.118248
0.0708188
-0.0367437
-0.00153687
-0.0137929
-0.00111238
-0.0164785
0.00396268
-0.00853331
0.0716065
5.08616e-06
0.164773
0.00897626
-0.000660423
0.236907
-0.0149928
-9.44677e-06
4.89959e-05
9.78217e-05
-0.000223749
-0.000115975
0.30049
-0.00111042
0.305091
-0.00124333
0.194872
0.244522
0.0709967
-0.0079854
7.0893e-06
0.000107002
-0.0118914
-0.146875
-0.0535473
0.00182337
4.99457e-05
-0.0410193
-0.000339247
3.73494e-05
0.00124668
-0.00121035
-0.000737996
0.038253
0.000108923
-0.0512952
0.0641106
8.65999e-05
0.000351289
-0.0165131
-0.0652961
-0.000822685
-0.000580019
3.73366e-05
0.000330461
0.020483
-0.0193388
-0.0532231
0.00160572
0.0599851
-0.0427011
6.58473e-05
4.60209e-05
0.00674194
-7.47882e-05
0.0515645
0.000541812
-0.015134
-0.000418713
0.00198218
-0.0403879
-1.12234e-05
0.000618188
-0.00434889
-0.0781518
0.129613
-0.0655791
-0.0300306
-0.000161376
-4.02984e-05
0.00801232
7.49207e-05
-0.0779527
-0.0715055
0.000705401
0.00402797
0.00454546
-0.11949
0.000795057
0.000258143
7.0574e-05
-0.0456288
5.09411e-05
0.000699497
0.140757
0.211659
-0.138706
0.0569938
0.0550178
0.00906756
-0.000153764
0.0126068
0.000169763
1.39216e-05
-5.3427e-05
1.78552e-06
6.65065e-05
-0.000391072
-0.00869337
-0.0761886
-0.0110657
-0.0333868
0.0599422
0.0505081
0.0048662
-0.0697592
0.000224072
0.00546972
0.0132081
-0.000425659
0.0826964
-0.00145321
-0.0125316
0.0138252
0.00657555
0.00118293
-0.004612
0.0478528
0.00102185
-0.0220723
-0.0186197
0.713946
-0.0281054
0.0900357
0.00465721
-0.0433282
0.00266723
0.000151944
-0.00292793
9.58154e-05
-0.00301126
-0.02854
-6.24004e-05
-1.98807e-05
0.25743
-0.0037817
-0.0457178
-0.0209918
0.000279723
-0.00171062
-1.18526e-05
2.13757e-05
0.0419249
6.69933e-05
-0.00336104
0.0824518
0.00735522
0.00137831
0.0212097
-0.00658189
0.00496777
-0.143354
0.0010717
-0.00508574
-0.0610008
-0.000972663
-0.00921686
0.000937169
0.000813901
0.00122121
0.0399502
-0.00033953
0.00671996
-0.058001
-0.0233538
0.000408576
-0.057336
-0.0168975
-0.0191735
0.000160141
0.00786334
-0.0790049
-0.000949202
-0.00558385
-0.0529798
-0.000170485
-0.00132629
0.248827
-0.0255294
-3.61755e-05
0.00979944
-0.0568015
-0.00119093
0.232431
-0.00261894
0.00124785
0.0693403
-0.00162333
0.00977483
0.149761
0.000111773
0.00143763
0.000240538
7.22496e-05
-0.00515271
-0.00850959
-0.00012128
-0.027005
0.107792
-0.04051
-0.0822203
0.00142362
-0.00374643
-0.000690471
-0.0626968
6.11615e-05
0.0181371
8.44183e-05
-0.0178489
-0.00222601
-0.00568161
-0.124091
0.120741
-0.0903026
-4.4189e-05
0.193623
-0.00226701
-0.00308101
-0.0632014
-0.0948224
-0.0177265
-2.13332e-05
-0.00131061
0.00858467
-0.00354287
-0.00541376
0.000556905
0.0974703
-0.0498202
-0.0126313
-0.0076091
0.0217238
-0.00353643
-0.0017338
0.00207587
-1.59325e-06
-0.00353385
0.120137
0.000983295
-0.157316
-3.1289e-05
-0.00834792
-0.00437563
-0.103323
-0.0131132
-0.125312
-5.67474e-05
-5.33971e-05
-0.00558612
0.0124494
0.00216642
-0.146543
0.0893886
-0.0534736
0.000252778
-0.165843
4.64588e-05
-0.175892
-0.0284895
-0.209956
-0.21718
-0.219366
-0.204232
-0.164732
-0.147883
-0.132204
-0.115206
-0.0940345
-0.0382038
-0.0172449
0.00627904
0.0710345
-0.00915829
-0.00847323
0.0569169
-0.0222361
0.00110693
0.0144408
-0.0446786
0.000657691
-0.000771143
-9.86244e-07
-0.0162504
0.0209142
7.11706e-05
-0.000340773
-0.0118649
-0.00990829
-0.205101
-0.0168293
-0.0611611
2.74559e-05
0.000718039
-4.64284e-05
-0.0664112
-0.0100879
-0.0408845
-0.0133937
0.00208918
0.000302181
0.00562041
-2.85292e-05
-0.0186993
1.46118e-05
0.000471745
-0.00798064
-0.0129867
-0.00030792
0.000419292
0.056675
-0.0118525
0.0636357
-0.191525
-0.0105284
-0.0589241
-0.0210785
0.0043833
-0.0241486
-0.00373849
-0.0141169
-0.014775
0.438625
-0.00154573
0.000109405
-0.00665729
-0.0102927
6.53099e-06
0.0929299
-0.00473464
0.399876
-0.184173
-0.0474884
-0.0297929
0.044992
-0.00587174
-4.16958e-05
-6.25686e-06
-0.00477577
-0.0671149
9.49383e-05
0.365663
-0.0031399
-0.00569986