/*--------------------------------*- C++ -*----------------------------------*\
  =========                 |
  \\      /  F ield         | OpenFOAM: The Open Source CFD Toolbox
   \\    /   O peration     | Website:  https://openfoam.org
    \\  /    A nd           | Version:  7
     \\/     M anipulation  |
\*---------------------------------------------------------------------------*/
FoamFile
{
    version     2.0;
    format      ascii;
    class       volScalarField;
    location    "14";
    object      p;
}
// * * * * * * * * * * * * * * * * * * * * * * * * * * * * * * * * * * * * * //

dimensions      [0 2 -2 0 0 0 0];

internalField   nonuniform List<scalar> 
7807
(
0.363517
-0.00212144
0.483491
0.317242
-0.00147582
-4.74689e-05
0.473407
-0.00842238
-0.000210128
0.131662
-4.63693e-05
0.00306544
-0.0127902
0.0644537
0.136833
-0.022532
0.376051
-0.0171346
-0.00105623
-0.122712
0.0887736
0.00189263
0.0461494
0.246957
-0.0225831
0.372103
-0.00137032
0.0798726
0.208042
0.00119141
-0.0294967
0.639371
0.0454123
-0.000735559
-0.000121358
0.107622
0.00153694
0.459697
-0.00974426
-0.000404561
-0.00922155
-0.0215159
-0.12385
-0.039294
-0.000225776
-0.00010069
0.00187751
-0.00967362
-9.20415e-05
-0.12106
0.00487177
0.0754772
-0.0288036
-0.0131884
0.106713
-0.0078706
-0.000686086
-0.00828093
-0.0442056
-0.00074151
3.95674e-06
0.00645634
0.0647051
0.00344887
-0.00123958
-0.0292921
-0.000185996
-1.21053e-06
0.150669
-0.00902883
-9.4099e-05
-0.0895962
-0.0219733
-0.037974
-0.0166697
-0.0642564
0.478315
0.0865931
0.0865742
-0.0924401
-0.0123836
0.411715
0.129389
-0.041768
-0.00285234
-0.00316456
-0.00928957
-0.0281189
-0.00126322
-0.00638312
0.213297
-0.038954
-0.000171834
-0.00029339
-0.00536421
-0.0364841
-0.0859457
-0.00896971
-0.00303276
-0.0015118
-0.0701916
0.097444
-0.00516123
-2.56254e-05
-0.0233447
0.222857
0.548274
-0.00825289
-1.60998e-06
0.0410106
0.300742
-0.0791881
-3.16316e-06
0.0439119
0.222289
0.0003873
-0.0904444
0.179411
-0.064573
-0.0397182
-0.0701602
0.393427
-0.117474
0.0149622
-0.0682396
-0.00176813
-0.0253135
0.000758667
-0.00130103
-0.0289956
-0.0948724
0.0855376
-0.000949114
-0.00143156
-0.0428287
0.29062
0.46666
-2.2875e-05
0.011895
-0.0918305
-0.0351679
-0.0807703
-0.0657837
-0.0364448
0.54939
-0.0374619
0.210371
-0.0447296
-0.0489925
0.392784
0.102295
-0.0304429
-0.00274677
0.126454
0.128593
0.433887
-0.0744637
-0.0124288
0.556994
-8.30743e-05
-0.00146224
0.25555
-3.3658e-05
-0.00478982
-0.00603111
0.312288
0.312922
0.577996
-0.00515961
-0.00442723
-1.76346e-06
-0.0666256
0.000380627
0.00700965
0.0130229
-0.0481807
0.00215509
0.215048
-0.00017779
-0.00084746
0.325051
-7.80705e-05
-0.00012792
0.479444
-0.00864
-0.0677315
-0.0610824
-0.0367357
-0.0422406
-0.0911494
-3.45486e-05
-0.0821031
0.225133
-0.00533131
2.48573e-05
0.266525
-0.00176693
-0.0272316
-0.0405717
-6.34064e-07
0.000827842
0.296141
0.259854
0.429686
-0.0818387
-0.0714158
-0.143987
0.0872623
0.290218
-0.00023947
2.04331e-06
0.517286
-0.0193661
-0.000958827
-0.078925
-0.0266105
0.399712
0.404864
-0.0868619
0.620341
-0.00165691
-0.016613
-0.0714179
0.107078
-0.153071
0.327448
0.551432
-1.24461e-06
0.0160035
0.190596
-0.00859271
0.175966
-0.00116773
0.620249
0.423096
-0.00906168
0.00220242
-0.000379634
0.227296
-0.00011399
-0.0141605
-0.0925581
-9.85035e-05
-0.00293678
-0.000998916
0.213244
-3.74406e-05
-0.00662947
-0.0900985
0.632843
0.0744362
0.584748
-5.6754e-05
-0.0441953
-0.000352774
0.450977
0.00619933
0.468638
-0.000624187
0.000580495
0.00057127
0.0913289
0.000621852
-0.000283512
0.00051937
-0.00908564
-0.0675525
-5.4518e-05
-0.0716912
-0.0057975
-0.00018416
-0.0010401
0.457908
-0.0119105
-0.000983954
0.578738
-0.00309322
0.336382
-0.000369005
-0.00604545
-1.09118e-06
-0.0559361
0.102484
0.0158934
-0.0452075
-0.000753817
-0.106726
-0.0243794
-0.000212533
0.000496964
-0.00457349
-0.011837
0.00430031
-0.00243588
-0.0398073
-0.0600916
-0.0384579
-0.022987
-0.048818
0.433052
0.447659
-0.002369
-0.0160928
-1.10815e-05
-0.00518945
-0.0369746
0.240448
0.145115
4.62281e-05
-0.00477902
-0.0476639
0.218513
-0.00182946
0.00544324
0.00151327
0.0916371
-0.114675
0.430587
-0.00229127
-0.00308333
-0.000165657
0.00505804
-7.09421e-05
-0.0373607
-0.000439771
0.00153496
-0.046003
-0.0583671
-0.00329438
0.0141259
-0.000955831
0.0343819
-0.0195568
0.112704
0.215152
-0.177966
-0.0513467
-0.0250358
0.00784985
-0.0899415
0.588502
-0.0440258
0.0560525
0.610151
-0.00219853
-0.00283517
-0.0450449
-0.00228748
-0.0322931
0.0103589
-0.00416694
-0.00302493
0.202255
-0.000151336
0.000588882
2.90924e-05
-0.00519121
-0.0151065
-1.29192e-05
-0.00154664
-0.0422104
0.524096
-0.00233473
-0.0187406
0.51912
0.352269
0.0940767
-0.00123657
-0.0678933
0.00734882
0.303773
-0.0177997
0.373541
-0.0482176
-0.131415
0.260554
0.378885
-0.066229
0.136478
0.327797
0.348374
0.0853936
-0.00508414
-0.00731222
-0.000118147
-0.00261511
-0.0181199
0.000919759
-0.000138317
-0.00251945
-0.106335
0.134332
-0.0291554
-0.00874217
-0.00589209
-0.00761441
-0.0113849
0.000839037
0.2942
-0.00272035
-5.47706e-05
-0.000149891
-1.30318e-05
-0.0358226
0.196249
-0.00623985
0.0511345
-0.162598
0.448889
0.0035079
0.0105075
-0.00887886
0.44455
-0.00142573
0.428816
0.214577
-0.000150446
-0.0516752
-0.00506564
-0.0784995
0.000615488
0.104035
0.0010346
0.00968545
-0.00117277
0.197383
0.220988
-0.0760314
-0.0436618
-0.00487062
-0.042201
0.119435
0.629334
-0.0725085
0.00572215
-2.83274e-06
-0.0226788
-0.00334318
0.0306679
-0.133954
-0.0339795
0.47184
0.203978
-0.12696
0.280087
0.433104
0.0507448
0.00129846
0.323358
-0.00201653
-0.000293203
-0.0263957
3.97575e-05
-0.158422
-0.00641685
-0.0519155
0.0025619
0.269843
-0.00262624
-5.16951e-05
-0.140661
0.00229793
0.0555227
-0.06772
-0.0871418
0.0440589
0.191969
0.157354
0.16156
-0.000262311
0.124881
0.123068
-0.00093869
-0.0283931
0.000672199
0.00443815
-0.0139362
0.00739961
-0.00155552
0.215939
-3.77104e-05
0.000148946
0.00271233
-0.0343616
0.0360277
-0.0474283
-0.0418056
-0.0635104
-0.165242
0.00517858
0.315344
-0.0278433
-0.0111745
0.621731
-0.08554
-0.0159525
-0.0410599
-0.0168682
-0.0314439
-0.0172493
0.0502668
-0.0520552
-5.70226e-05
0.0433486
-0.000128379
0.426932
0.163667
-0.00805736
-0.0211384
-0.000245787
0.411587
0.402594
0.102541
0.241449
-0.0910374
0.475035
-0.000139055
0.0288498
-0.0273903
0.220853
0.56555
0.102101
0.193642
-0.00726072
-0.00027865
0.217794
-0.0724604
0.429723
0.0570183
0.275572
-0.0116088
0.453087
0.384609
-0.0151408
-0.0128209
0.185826
-0.0893981
-0.000171319
-0.0219873
-0.0902751
-0.0995129
0.0188141
0.0147241
-0.000230436
0.40866
-0.00550047
-0.0001506
-0.0530982
-0.000795927
-0.000297019
0.00242388
0.288414
-0.125689
0.534586
2.10956e-05
0.287696
-0.0442249
-0.000175007
-8.99991e-07
0.205324
0.274638
-0.00694784
0.246898
-1.44544e-06
0.260723
-0.173564
-0.0156568
0.44839
-0.0750847
0.227917
-0.0391209
0.260109
0.273434
-0.0283244
-0.0360897
-0.013242
-0.00429759
-0.000323118
-0.00552979
0.35446
-5.3185e-05
0.248562
-0.120751
0.383533
0.236015
-0.0915199
0.532472
-0.00264327
0.00104454
-0.0705664
-0.031234
-0.0110191
-0.0490583
0.050582
0.592247
7.88851e-06
-0.00310046
-0.0779754
-2.34534e-06
0.436758
0.00237144
-3.93554e-06
0.000141497
0.000358751
-0.0353927
0.029714
-0.00242025
-0.000109926
-0.0115149
0.00046559
-0.146557
-0.0787514
0.0368665
-2.86496e-05
-0.182988
-0.0206855
0.190044
0.371438
0.000795095
0.19216
9.53485e-05
-0.0200588
0.118967
-0.0112756
0.312713
-0.0217757
0.0346333
0.123603
0.201798
0.00324226
-0.0166533
0.247927
-0.115479
0.46113
-0.0153951
0.354255
-0.01502
-0.0016967
0.183782
-0.00736294
0.11803
0.00247757
-3.03291e-06
-0.160817
0.285325
0.00128554
0.18102
-0.0205492
-0.187702
-0.00279177
-0.0495825
-0.00263593
-0.0125546
-0.102023
-0.0446318
-0.015618
-0.000355429
0.484978
0.182615
0.0505827
-0.000292939
0.379325
-1.72259e-05
-0.00026718
0.192314
-0.00557623
0.25199
0.0786879
0.027039
-0.0513276
-0.156348
0.037127
0.00157245
-0.066624
-5.65679e-05
0.00311239
0.301282
-0.0268683
-0.00446145
-0.0265159
-0.00307174
-0.000919399
0.575954
-0.0163705
-0.00096277
-7.23535e-06
0.173075
-0.0552091
-0.000611558
-0.00412325
0.201208
0.120395
-0.0643256
-1.27748e-05
0.218977
-0.0312951
0.255883
0.0274481
0.0344574
-0.0482319
-0.000138506
0.120521
0.110245
0.0753715
-0.110691
0.351079
0.00917287
0.244469
-0.00926038
-0.0515572
-0.000530432
-0.00893818
-0.000296306
0.208249
0.338341
-0.00243537
0.0307082
-0.0268807
-0.0899776
-0.100785
-0.00281171
0.0255357
0.560905
0.0496448
-0.000139458
0.117626
-0.00909403
0.486873
-0.0200138
-0.0284185
-0.015595
-0.0317264
-0.018657
-0.0123371
-0.0105716
0.000548947
0.0412127
5.15461e-05
-0.147438
0.00621635
0.427327
-0.0615807
0.256973
0.0026661
-0.0655842
-0.0337532
0.255217
-0.0120438
2.59732e-05
-0.0310802
-0.0118114
0.0296152
-0.0413922
-0.0371329
-0.0121603
-0.0219372
-0.02157
-0.105886
-4.40891e-06
0.0615048
-0.0931073
0.224267
-0.0647015
0.117041
-0.116533
0.401047
0.000100683
-0.0493039
-0.0382538
0.507617
-0.127876
-0.0206956
-0.152286
-0.0619369
-0.13634
-0.0807653
0.234823
-0.00454358
0.296038
0.0135949
-0.000689886
-0.00248739
0.102026
0.623343
-0.000330318
-0.0451966
0.21093
3.46466e-08
-0.0343774
0.0461608
-0.00195057
0.0138311
-0.0029971
-0.0581618
-0.00775965
1.83312e-06
-0.0718717
0.321002
-0.00529686
-0.0260733
0.00244261
0.211183
-0.000722926
-0.00188082
-0.000496706
-0.00182894
0.0931711
-0.00605749
-0.000804336
-0.0292146
1.11214e-06
-0.143717
-0.053594
-0.161078
-0.0361767
0.0231391
-0.000287346
-0.0237201
-0.0898625
0.0673752
0.384439
-0.00295571
-0.0889028
-0.00804279
0.0043375
0.209812
0.000410567
-0.000275491
0.198678
0.04497
0.0219868
-0.00489711
-0.00294698
-0.0844391
-0.000360693
-0.0110271
-0.0191111
0.333043
0.323512
-0.0570738
-0.0906105
0.0110655
-0.00049292
0.0246875
-0.102935
-0.0323686
-7.05329e-06
0.012987
-0.0367862
-0.113667
-0.00122385
-0.0645498
-0.000602688
-0.00471532
0.237237
-0.0460953
-6.57656e-06
-0.0040585
-0.109927
-0.00021154
-0.0388769
-0.000120893
0.00250105
-0.141679
-0.0584406
-9.16272e-05
2.50936e-06
0.150482
-0.0772222
0.411932
0.340177
0.00369632
-0.00152566
-0.0311282
0.000162399
-0.104715
-0.124294
0.021874
-0.0261451
0.337289
0.00766595
0.000140911
0.0027437
-0.145762
0.00253127
-0.0460477
-0.0873194
-0.00518065
0.0252899
0.0848174
0.0063737
-0.0395668
-0.0859377
0.219698
-0.0537085
-1.2429e-06
-0.139482
-0.0853754
-0.0621416
0.00162036
0.000808794
0.0047821
-0.14245
0.039164
-0.04038
0.182289
-0.0705456
0.00482932
0.0214844
0.012188
-0.0424208
-0.119616
-0.000276728
0.171211
0.239806
0.00849507
0.289001
-0.106815
0.0562789
-0.0774912
0.231304
0.121256
0.593386
-4.16268e-06
0.126953
0.211055
0.0170579
-0.00175007
-0.0200018
-0.00411121
-4.32813e-06
-0.0225815
-0.0803629
-0.0220354
-0.0269657
6.92236e-05
-0.0828279
-0.000576961
-0.000863826
0.270115
0.00448217
0.128792
0.0226277
0.235566
0.00888142
-0.000763054
-0.123596
0.00602461
0.398195
0.00109386
-0.0832674
-0.000437981
-0.000593371
0.00339395
-0.0793021
-5.9655e-05
-0.0114617
0.0334824
-0.0018573
-8.85388e-07
-0.000109746
0.175773
-0.0414481
0.00570345
-0.0011196
0.00776599
0.0179973
0.00716714
-0.000490367
0.422088
-0.105691
0.251604
0.368853
-0.000203868
0.114239
0.140352
-0.000888096
-0.000382855
-0.000873231
-0.00250803
0.0125992
-0.0263666
-0.0376283
-0.101583
0.198993
-0.129674
-1.38766e-06
-0.0245263
-0.0284419
-0.0424415
-0.00463418
0.00477194
0.00105927
0.0329684
-0.000508661
-0.000467043
-0.0233712
-0.00520519
-0.0316764
-1.68928e-05
-0.0185744
0.0403142
-0.0284906
-0.0445574
-0.0102812
-0.0141041
-0.0104838
-0.00600932
0.00265859
-0.0104667
-0.000127755
-0.000621206
0.0256681
-0.0141972
-0.00591394
0.00780191
-0.00163008
-0.178463
-0.0137704
0.180122
-0.0141784
-0.0771341
-0.0392804
-0.029062
-0.0188812
-0.00425831
0.00133499
-0.00414162
-0.0155931
-0.0188994
0.232508
0.184707
0.0616297
0.371528
-7.74545e-05
-0.00590253
-0.0186949
-0.00999048
0.127916
-0.024786
0.0603292
-0.00732706
0.257896
-0.00242781
-0.00215903
0.0124475
-0.0355359
-0.000296084
-0.0381304
-0.00671168
-0.0247949
-2.93973e-05
-0.00748832
0.0017434
-0.0222722
0.0392291
0.0428254
0.0219982
-0.0170807
-0.0401209
0.135694
-0.00184117
-0.00218365
-0.00225467
0.520162
-0.000227012
0.0902973
-0.024621
-0.025912
-0.030244
-0.0651592
-0.0340237
-0.0431732
-0.02467
-0.00569656
-0.000116723
-0.00479002
-0.024835
0.118283
0.00150458
0.213492
-0.0420269
-0.0167015
-0.000893825
-0.0370975
-0.000116176
0.171228
-0.0389514
-0.033336
-0.0306242
-0.00728418
-0.047257
-0.00171076
-0.0519358
0.120643
-0.0317957
-0.115689
-0.0015099
-0.033337
-0.0235706
0.0173918
-0.00393356
0.164282
-0.00254554
-0.0212268
-0.000910218
0.183778
-0.0496773
-0.0316466
-0.00345451
-0.0122556
-0.00337107
0.238633
0.00864397
0.276888
-0.00780472
-0.0011559
-0.00130791
-0.0028682
0.244208
-0.0835487
-0.00878528
0.000197875
-0.0160451
-0.0267366
-0.00147723
-0.0296542
-0.019706
0.0689771
-0.00575744
-0.000418724
0.48565
-0.0829891
-0.0325738
-0.0780752
-8.58382e-07
0.090517
-0.0040478
-0.0313201
-0.00707884
-0.0450956
0.00250599
-0.000648454
-0.00310925
0.0031387
0.226555
-0.00648071
-0.00206436
-0.00560235
-0.081135
-0.010022
-0.0255113
0.00312066
-0.0101379
-0.00993333
-0.00388586
0.233368
-0.0594604
0.00302898
-0.00459802
-0.0330058
-0.0156206
-0.0631335
-0.00191825
0.109541
0.0261564
-0.00979603
-0.00220486
-0.0177374
0.545179
0.227939
-0.0137098
-0.000576149
-0.00286392
-0.0043704
-0.00495217
0.0236912
-0.000558926
-0.0319008
-0.00213142
-0.0196832
-0.0627378
-0.00160193
-0.0207832
-0.00146155
0.35384
-0.008885
-0.0137241
-0.0254897
-0.00191941
-0.0353087
0.11233
0.484778
-0.0134859
-0.0146662
-0.0021848
-0.000723225
-1.8846e-05
-6.12964e-06
-0.0126407
-0.000783495
0.153545
-0.00100412
-0.00204104
0.0076806
-0.000263167
-0.0571042
-0.0958845
0.019726
0.0473672
0.030898
0.0884345
-0.0707094
0.107739
0.0831481
0.113798
0.143065
-0.0150692
-0.00103418
-0.00979765
-0.107195
-0.00384018
-0.0183252
0.0641475
0.396959
-0.0842318
-0.000507829
-8.60389e-05
-0.00146423
-1.33763e-05
0.00588778
-0.000787068
-0.00794652
-0.0607281
0.000368931
0.00233948
-0.00024015
0.0826958
-0.0181952
-0.0610748
-0.001879
0.354068
0.353393
-0.0130647
-0.113467
-0.0342252
-0.0280654
-0.0181505
-0.00224161
-0.122074
-0.0584855
-0.0607165
-0.06171
-0.000131965
0.230785
-0.0326993
-0.011011
-0.0545982
0.020946
-0.000609843
-0.0106792
-0.00142479
0.010524
-0.00252646
0.21579
0.00020879
0.0109588
-0.00039538
-0.101641
0.00942163
-0.00142231
0.00351635
0.000185409
0.0450008
0.145694
-0.0040046
-0.00161557
-0.000140078
-0.000663406
-0.000554904
-0.0786918
0.145762
0.0296095
-0.000253625
0.00699251
-0.000578599
0.256244
-0.0797436
0.303538
-0.0558442
-0.000451707
-0.000453592
-0.0094115
-0.00645674
-0.000928674
-1.95387e-05
0.0283773
0.0336645
-0.000238482
-0.000559993
-0.0240553
-2.27471e-05
0.193208
-0.00118744
-0.0677961
-0.0239343
-0.00720942
-0.0727565
-0.0852711
0.174729
-0.0394701
-0.0238858
-0.000317244
-0.0718499
-0.0236705
0.0183188
0.15126
0.394277
-0.00116709
-0.0772225
0.00959395
0.362796
0.0466216
-0.000126124
-0.00760176
-0.00457873
-0.00611313
-0.0517982
0.111366
2.17707e-06
0.016134
0.0016129
0.0975975
-0.000551306
-0.00021963
-0.0984258
0.334224
-0.0692402
0.185318
-0.00228938
-0.000220123
-3.18665e-06
-0.128023
-0.0448726
-0.000488173
0.135111
0.0122896
-0.00648691
0.433199
-0.00070631
-0.00492944
-0.0802812
-0.0465959
-0.00242691
0.156949
-0.0977336
-0.000156338
0.00828768
-0.000282322
-0.000126427
0.17006
-0.00926071
-0.00043439
-0.0608729
-0.0308441
-0.00368798
-0.0539141
0.00217957
-0.0262147
0.00124208
-0.00424119
-0.0847826
-0.0485544
0.0163211
-0.00119723
0.186754
0.235522
-0.130711
0.00803346
0.0214904
-0.0053279
0.19113
0.135209
-0.032264
-0.00018385
0.00881907
-0.0622919
0.00676792
-0.0387727
-0.00262593
0.052313
-0.0359486
-0.000132923
-0.000109102
-0.0620731
-0.0413061
-0.03041
0.00900627
0.00997589
-0.0597893
-0.000236732
-0.00200613
-0.000301773
-0.0547252
-2.86128e-05
-0.00223599
-0.0767109
-0.148217
0.162198
-0.0036404
0.00408839
-0.0292407
-0.0308049
-0.000152754
-0.0503644
0.161133
0.181456
-1.01854e-06
-0.000112101
0.184691
-0.00309706
-0.136116
-0.0433787
0.00323839
0.000102047
-0.0799228
-0.0401937
0.189066
-0.0636263
-0.00159152
-0.0192795
-0.0776699
-0.000701556
-0.000232841
-0.00112918
-0.0198054
-0.06211
0.190203
-0.000218846
0.508799
-0.00948855
9.42071e-08
-0.0015952
6.26388e-05
8.60071e-05
-2.55903e-05
2.54836e-05
-0.0626963
-0.000983688
0.000269158
-0.000196235
0.163467
-0.00666562
-0.000199674
-8.90377e-05
0.426704
-0.0279853
-0.0488208
0.000688222
-0.000847623
0.0713218
-0.000134211
-0.0239583
-0.142662
0.00198767
-0.0110667
-0.000105968
-0.000235552
-0.0414026
-0.102623
0.00760949
-0.139319
-0.089233
-3.03617e-05
0.024685
0.0386936
0.128398
-0.00184532
-0.000167305
-0.0749642
-0.00713309
-0.000784079
-0.0599374
-0.000153365
0.0459482
-0.000211788
-0.00126641
0.0261253
-0.00373432
-0.0731498
0.491055
-0.00226244
0.000142286
-0.0809366
-0.0890411
0.00871079
0.00468017
-0.000146714
-0.038883
-0.000113046
0.223832
0.580902
0.10967
0.00288139
0.0033756
-2.93135e-05
-0.0380203
-9.54227e-05
-0.0150871
-0.00205045
0.000158293
-0.00366682
-0.0156168
-0.000123278
0.000614341
-0.015808
-0.000322832
-0.0154043
-0.0213165
-0.0203595
-0.00197658
0.529193
-0.00122959
0.00225393
0.000115555
0.015502
-0.0585176
0.0101855
-0.000200288
-0.000104097
0.00184192
-0.000137659
-7.07358e-05
-0.0185376
0.00049549
-2.75047e-05
-0.0652275
-0.00404723
-0.0641868
-0.00190474
-7.01257e-05
-0.00330658
-0.0213805
-0.0221372
-0.0417196
0.00211666
0.00028408
-0.000547738
-0.00192923
-0.00011837
0.317067
0.00133156
-2.53457e-05
0.000227724
-0.00259
-0.000605382
-0.0729863
-0.0648119
-0.000238827
-0.00864823
-1.05199e-05
-0.00496361
-7.93644e-05
0.0421759
-0.000166287
-0.000306543
-0.00628496
-4.75712e-05
0.0150404
-0.000257956
-0.00136575
0.02161
-1.26849e-05
0.419067
-0.0698886
-0.0534741
-4.10017e-05
-2.40491e-05
0.00145674
-0.00122988
-0.0741452
-2.17672e-05
-1.15278e-05
0.000485251
-3.42815e-06
0.000220064
0.000285635
-0.000510685
0.000574599
-0.0635469
0.519874
-0.055771
0.389041
0.00971526
-0.0263895
-2.56431e-05
-0.000847538
-0.0158714
3.30368e-05
0.000149155
6.346e-05
0.0887955
-0.00247478
-0.000381678
0.483648
-0.000473079
0.000270033
0.000329823
-6.04708e-06
0.0815882
-0.00278601
0.000900074
2.20457e-05
-0.00114007
-6.71151e-05
-0.00187229
-0.0574735
-0.000420624
-0.00308393
-1.60596e-06
-0.00346904
-0.000233373
0.219421
-0.000466972
-0.000570268
-0.0760555
0.00362538
-0.000182873
-0.00149617
-6.00842e-05
0.201176
-0.0946002
-0.000695637
-0.000373734
-0.00384621
-0.000354349
0.0694427
0.141538
0.0440071
0.000172245
-8.18846e-06
-1.39286e-06
0.0704118
0.000125385
-0.0652871
-0.044269
-0.0223562
0.0121969
0.542611
0.00174396
0.243994
-0.0209796
-0.0386344
0.204655
-0.000328228
-0.0836585
-1.92722e-05
-0.0115673
-0.0535724
6.08251e-06
-0.0783179
-0.000949266
-0.0202061
-0.00964183
-0.0463689
-0.0530551
-0.00615102
-0.0867669
-0.0482677
-0.000151906
-0.0130966
-0.000117382
-0.0412138
-2.85843e-05
-0.000161012
0.0160914
0.194178
-7.88576e-07
-0.0598899
0.00325906
1.00866e-05
-0.0323491
-9.89345e-06
-0.014528
-0.000388663
-0.042152
3.53946e-05
-0.000105734
-0.00318807
-0.00017002
0.189755
-0.0399037
0.105431
-7.57423e-05
0.000433268
-0.0349635
-2.21495e-06
-0.0742424
-0.0821354
-0.0661222
0.516296
-0.00823609
-2.0987e-05
0.0300766
-0.0464695
-0.00465818
-0.000107106
-9.69174e-05
-0.0586819
2.62822e-05
0.000648082
-2.21967e-06
3.73648e-05
-0.0306327
0.178872
-0.101496
0.123765
-0.00663512
-1.48255e-06
0.00467346
-0.0819206
-2.03452e-05
-1.88638e-05
0.000178959
1.03963e-05
0.000248763
0.311806
0.0420591
7.44854e-06
-9.82604e-06
-0.0795558
0.237016
0.213709
-3.7307e-05
-0.0464163
-0.0301197
-0.0168481
-0.0574694
-0.0140924
-0.00335291
0.169143
-7.67393e-05
-0.0341747
0.201327
-0.0638834
-5.98677e-05
-0.0718272
-0.000183655
0.373006
0.0318916
-7.11256e-05
-4.51947e-05
0.225799
-2.55971e-06
-0.00021215
-0.0129521
-2.03116e-05
0.304559
0.00185637
-0.00801836
-0.0743402
-0.00459535
-0.121963
0.218305
-0.0255567
-0.0420666
0.000751764
-3.5914e-05
-0.00146757
-4.75216e-05
-3.80183e-05
0.0251292
0.213844
0.17925
-0.000532906
0.283636
-0.0221985
-1.11898e-05
-0.0510778
-5.62307e-05
-0.0367937
0.0335164
-0.0228881
0.00380036
0.00161282
-0.0100984
3.91102e-05
-0.00203246
0.0208173
-0.00283667
-9.58895e-05
-1.75873e-06
-6.48123e-05
0.0373902
-1.91202e-06
-0.0364032
0.298515
-0.00817554
6.13578e-06
-0.00377044
-3.87909e-05
0.119943
-0.000300125
-7.27511e-05
-7.0666e-05
-2.24345e-05
0.246672
-0.000219109
0.2916
-0.0900456
1.74225e-05
-0.074315
-0.000935345
0.186856
0.491053
-0.00132974
-7.03928e-07
-1.676e-05
-3.28968e-05
0.179017
-8.1432e-07
0.000713762
-0.0259535
0.274162
-7.96184e-06
-1.33513e-05
-2.88509e-07
-2.50042e-06
-0.0265132
-1.22071e-06
0.352503
-0.0248549
-0.000104586
1.95327e-07
-0.00202538
-0.0327066
-8.91933e-08
-5.65356e-05
0.196903
2.01975e-07
-0.0418406
-0.0887661
3.91072e-05
-6.3566e-07
-0.17645
-3.40675e-07
0.2014
-5.61824e-07
-0.00050659
-8.12537e-06
-0.000139213
0.113131
-7.04876e-06
-0.00189706
-1.44999e-05
0.011213
-0.00447804
-0.00673099
-0.00159384
0.183574
-0.000531185
-0.000103875
-0.0095795
-0.00955269
-0.000199717
-0.000141263
-0.00113562
-7.68464e-06
0.242007
-0.0159551
0.534385
-1.13273e-05
-0.00910095
-0.000333232
0.168893
7.81759e-07
-0.0370193
-2.01925e-06
-0.00176245
-0.0431223
-0.000212815
-0.0201089
-0.0657799
0.00395729
-4.45849e-05
-0.0923561
-0.000258075
-0.000650559
-0.00633976
-0.0285087
0.000843482
-0.000159217
-0.000467846
-0.00173668
-0.00138438
-1.60833e-05
-0.00125705
0.48695
2.28912e-05
-0.00342347
-0.0451617
-0.0800247
-0.0818337
-0.0538109
-0.028541
-0.00106604
-0.0301919
1.2116e-05
-9.67513e-05
0.506601
-9.47165e-05
0.228384
-0.000356795
0.000184826
-0.00113206
-0.104102
-0.000427605
-0.00131347
-3.45933e-05
-0.000383577
-6.71024e-05
-8.83537e-05
-0.0162119
-0.000145633
-0.000101182
-8.73359e-05
-4.08919e-05
-3.57089e-05
-0.0596632
0.315669
-1.64312e-05
-0.000485327
-0.000145702
-2.36155e-06
-0.000774434
-7.23782e-06
-0.000872529
9.36651e-05
-0.000342547
-0.0801155
-0.000702926
-0.00232529
-6.67816e-06
-0.00287161
0.000179647
-1.66899e-05
-1.94093e-05
-3.24642e-06
-0.000660629
0.00029608
-0.0612086
-0.0396763
-0.0780096
-0.000393168
-0.00359446
-0.0275491
-0.0757922
-8.22158e-05
0.0151525
0.00595379
-0.000850419
-0.0149188
-0.0610833
0.484214
-0.000368185
-2.2472e-05
0.000448345
-2.21234e-06
-4.24108e-06
0.0902988
0.00237742
0.105335
-0.0595721
0.458762
-0.000417125
-5.27956e-06
4.33603e-05
-3.23682e-05
-0.00114887
0.192293
0.255856
-2.10653e-05
-0.000196912
-4.48763e-05
0.243624
0.0161806
-0.0126695
-2.69482e-06
-2.3525e-06
0.00725231
-0.000567942
-0.0993027
-0.0216998
-2.11594e-05
0.00295443
-0.0457765
-6.59437e-05
0.00137608
-0.000111793
-0.056604
-0.00153951
0.180516
-3.47376e-06
0.00137895
-0.00228305
-6.75068e-06
5.38349e-05
-0.0301103
-5.44646e-06
-0.000757093
-1.33983e-05
-0.0204011
-0.0534971
-0.00571865
-0.0137804
-0.00926291
0.00950878
-0.0108326
-0.00228434
7.5544e-06
6.24672e-06
-1.07532e-05
-8.56232e-06
-5.85048e-05
0.00846897
-0.0873271
0.000287894
-0.0735558
-0.00282172
-0.0814065
1.80976e-05
-3.5285e-05
0.00100678
-0.0687971
-6.98221e-06
-0.0718953
-0.0209466
0.0508465
-0.0748192
-5.96066e-06
-0.00319947
6.33541e-05
-0.147422
0.159124
-2.57249e-05
-0.0836355
-0.0329189
-0.00402797
-1.09048e-05
-1.66342e-05
0.0284954
-0.0171711
-1.67395e-05
-0.00747173
-5.24978e-05
7.14626e-05
0.149195
-1.36308e-05
-4.13415e-05
-0.000170262
-8.96574e-06
0.000636343
1.93356e-05
-0.00501809
7.40203e-05
-0.0160939
0.000780759
-0.00028004
-0.0514704
-0.0573758
-0.00768361
-1.77164e-05
-8.64848e-06
-0.100374
0.00545705
-0.0613089
-2.10555e-05
-0.00618482
-3.1465e-05
-1.0718e-05
0.0902458
-0.00675616
-0.00254987
-3.76471e-05
-0.0251352
-6.8708e-07
-0.0880202
-1.32805e-05
-0.100706
-3.54624e-05
-1.10905e-05
1.75917e-05
0.000754402
-0.112876
-0.018879
-0.0999694
-2.11237e-05
4.04402e-06
-0.0992833
-0.043746
-0.00833925
-1.63504e-05
-0.0505104
-0.0747607
-0.0971863
-2.97892e-05
-1.91787e-05
-5.92698e-05
-0.11734
-0.0985173
0.000433616
-0.010918
-8.82524e-05
0.301643
2.25064e-05
-2.67385e-05
4.47414e-05
-7.75527e-05
-2.18074e-05
-0.00426543
4.928e-06
-0.00306643
-0.0965607
-0.0132605
-0.0612814
-2.00925e-05
-5.05665e-05
0.0628734
-0.0866682
-0.00453288
0.135032
-8.71817e-05
-2.81972e-05
-2.51174e-05
0.161914
5.69599e-05
-0.000136292
-3.07412e-05
-0.0974408
-0.0158801
-4.31837e-05
-9.63315e-05
-0.011679
-0.00617649
0.00017689
0.259878
-0.090966
-0.000938719
0.621178
-0.000118328
-0.00114264
-0.0133082
-0.0944992
-2.3512e-05
-5.52647e-05
-4.09629e-06
0.00421333
-0.0530327
-0.000451771
-0.0688083
-0.00754112
-2.76132e-05
-8.23626e-06
-0.0100554
-0.015168
-0.0211763
-0.0908469
-0.0546079
-0.0498902
0.00420523
-0.0377445
-7.31453e-05
0.000151988
0.00242662
0.000338152
-0.000289186
0.00043418
-4.64654e-05
-0.000251775
-0.0120722
-1.58882e-05
-6.13269e-05
0.0421438
-0.0365305
-0.00047114
-0.000187675
-2.3498e-05
0.280546
-0.0082844
0.000415231
-0.0395472
0.000102367
7.016e-05
5.9797e-05
-6.5079e-05
0.000254992
-0.0522664
0.0151473
-1.31879e-05
-0.000395025
-0.0605187
-0.0492444
0.0573
-0.000385437
0.00156246
0.0194013
-2.78824e-05
-1.12446e-05
-0.0770602
-5.12883e-06
0.191159
-6.13811e-05
0.00388508
5.86373e-05
8.18152e-05
-0.0856794
-0.00951175
-0.0229802
-0.00230532
-4.71259e-06
0.00419012
0.0727566
-0.016268
-0.000163209
0.112935
0.187908
-1.06069e-05
-0.0686031
-9.23882e-05
-3.01031e-05
-4.78417e-05
-0.000448698
0.0218134
-8.12885e-05
9.02953e-05
-0.0270161
-0.0329961
-0.0224937
0.346077
-4.6973e-05
-8.0281e-05
0.196691
-0.0169172
-0.00459657
-0.000521629
0.194279
-3.36536e-05
-0.000779174
-6.58151e-05
-6.60334e-05
-5.22377e-06
-6.55078e-06
1.37458e-05
-0.0190664
-3.26038e-05
-0.00440495
-0.0553746
0.289164
-0.000550325
-5.34281e-05
0.00436554
0.10144
-0.0763853
-0.000612615
-0.0777889
0.34691
-2.74964e-06
0.441
-1.3942e-05
0.00266203
0.0271484
0.000235223
0.46306
-0.00012498
-1.40184e-05
0.000721517
-7.2605e-06
-0.000703371
0.000113084
-3.39188e-05
-0.00196283
-9.10183e-05
-0.00017673
-0.00354811
0.27683
0.0611537
0.0244414
-0.0511752
-1.13839e-05
-4.87873e-05
0.0025593
-0.0894625
-2.72043e-05
-0.0559332
-6.59742e-05
0.123857
0.0733081
-0.0479428
-0.0014948
-0.0174345
-0.000795322
-0.0150745
0.00028675
-0.0112164
0.0764785
-3.86168e-06
0.321987
0.0474387
-0.0012868
0.250153
-0.0171104
-1.52069e-05
-3.64878e-05
7.74747e-06
-0.00016493
-0.000189419
0.277341
-0.00097177
0.286692
-0.00216402
0.191881
0.264692
0.16206
-0.00887066
-2.82491e-05
-9.76432e-05
-0.0105518
-0.175835
-0.0714242
0.00118754
-6.43746e-05
-0.0455753
-0.000922329
-0.000141697
0.000745478
-0.00100848
-0.00156851
0.0381371
1.30134e-05
-0.055046
0.069616
3.97958e-06
9.3874e-05
-0.0216814
-0.0925439
-0.000684743
-0.000458621
-4.60186e-05
7.14064e-05
0.13185
-0.0238414
-0.0717078
0.000981835
0.137214
-0.0546366
-3.55854e-05
-2.72416e-05
0.0245375
-0.000265394
0.115754
-0.00402466
-0.0138537
-0.000474556
0.00119206
-0.0528645
-0.000196648
0.000269216
-0.00881892
-0.097358
0.198676
-0.0758103
-0.0361947
-0.000419859
-4.67088e-05
0.00669897
-1.31522e-05
-0.0946575
-0.0970279
0.000333337
0.00237296
0.00351327
-0.156352
0.00038237
2.22153e-05
-4.71279e-05
-0.0572856
-1.65416e-05
0.000336175
0.145128
0.209265
-0.16982
0.0581897
0.057071
0.0217236
-0.000499107
0.00952804
3.4215e-05
-4.38356e-07
-0.000302118
-5.12524e-06
-0.000219508
-0.000353611
-0.00950555
-0.0910725
-0.012461
-0.0448211
0.06301
0.0517623
0.00356587
-0.0955822
-9.93871e-06
0.00349819
0.0108859
-0.000424388
0.09252
-0.00268359
-0.0151693
0.0113385
0.00536107
-0.000500858
-0.00494654
0.0508807
0.000509877
-0.0254099
-0.022112
0.545259
-0.0356371
0.0995562
0.0294343
-0.0584774
0.00178391
-5.77507e-05
-0.00241121
-6.61265e-05
-0.00238007
-0.0351762
-8.71518e-05
-0.000347425
0.343044
-0.00300234
-0.05595
-0.0193666
-5.01571e-05
-0.00333243
-4.34092e-05
-1.85514e-05
0.0446845
-1.4194e-05
-0.00268876
0.0940416
0.00527109
0.000847674
0.0191165
-0.00715492
0.00392097
-0.161152
0.000512826
-0.00535871
-0.0785176
-0.00126974
-0.0101674
0.000280959
-0.00209371
0.000673847
0.0430213
-0.000826547
0.00520162
-0.062214
-0.0278083
-7.39313e-05
-0.0593099
-0.0191665
-0.0178895
-0.000134821
0.00644686
-0.113179
-0.00081466
-0.00647354
-0.055669
-0.00359483
-0.0012771
0.263448
-0.035463
-3.44254e-05
0.00836848
-0.0779832
-0.00105509
0.226449
-0.00443503
0.000714963
0.0710657
-0.00160145
0.00760768
0.151473
-0.000399739
0.000870023
3.91664e-05
-9.87618e-05
-0.00426442
-0.0117842
-0.000578012
-0.031303
0.121186
-0.0440893
-0.119834
0.000871713
-0.00360567
-0.00137537
-0.0792832
-9.60905e-05
0.0158692
-0.000147323
-0.0165738
-0.00191205
-0.00474674
-0.000378049
0.147947
-0.129548
-7.1262e-05
0.245839
-0.00318997
-0.0053916
-0.0758961
-0.137283
-0.0208802
-4.1856e-05
-0.00232148
0.00704426
-0.00330242
-0.00575647
-9.36614e-06
0.105714
-0.0686366
-0.0141235
-0.00644755
0.0239308
-0.00805856
-0.00565827
0.00137449
-0.000695194
-0.00323516
0.143613
0.000371294
-0.176277
-0.000331665
-0.00716704
-0.00695897
-0.148529
-0.0152974
-0.175861
-7.97467e-05
-8.50696e-05
-0.0107121
0.0102673
0.000731776
-0.197775
0.109429
-0.0701994
3.41545e-05
-0.212961
-0.000382276
-0.220403
-0.0336837
-0.225037
-0.218233
-0.20155
-0.143667
-0.0324443
0.0105132
0.049785
0.0896167
0.128687
0.237708
0.272071
0.303943
0.35642
-0.00793396
-0.0104703
0.0800101
-0.0325446
0.000500766
0.0132485
-0.0557347
-8.3305e-05
-0.00167811
-5.93123e-06
-0.0197159
0.0192186
-9.44272e-06
-0.00097295
-0.0103472
-0.0171932
-0.232406
-0.0255465
-0.0799778
-0.000212899
0.000151838
-4.16469e-05
-0.0923747
-0.0122691
-0.0528957
-0.0211254
0.00131532
-0.000213706
0.00441059
-3.11422e-05
-0.0262493
-0.000207465
0.000170905
-0.0138144
-0.0114959
-0.00128531
0.000140739
0.0576153
-0.014275
0.080388
-0.22766
-0.017211
0.203017
-0.0240585
0.00297343
-0.0295917
-0.00415532
-0.0126762
-0.0197181
0.373786
-0.00289557
-4.29848e-05
-0.00762558
-0.0128991
-3.58372e-06
0.0972143
-0.00637208
0.355205
-0.0766355
-0.0526542
-0.0354853
0.0551859
-0.00883062
-5.97944e-05
-7.9728e-06