/*--------------------------------*- C++ -*----------------------------------*\
  =========                 |
  \\      /  F ield         | OpenFOAM: The Open Source CFD Toolbox
   \\    /   O peration     | Website:  https://openfoam.org
    \\  /    A nd           | Version:  7
     \\/     M anipulation  |
\*---------------------------------------------------------------------------*/
FoamFile
{
    version     2.0;
    format      ascii;
    class       volVectorField;
    location    "19";
    object      U;
}
// * * * * * * * * * * * * * * * * * * * * * * * * * * * * * * * * * * * * * //

dimensions      [0 1 -1 0 0 0 0];

internalField   nonuniform List<vector> 
29540
(
(1.00764 -0.010251 3.62455e-23)
(1.00824 0.00345263 1.63831e-22)
(0.993283 -0.00242354 -2.25098e-22)
(0.976911 -0.0346643 7.52613e-23)
(0.998218 -3.80222e-05 3.17609e-23)
(0.968767 -0.0209708 -1.09787e-22)
(1.03727 -0.0641445 1.38597e-22)
(1.00988 -0.0156112 -3.60632e-24)
(1.00147 -0.00142972 5.08112e-24)
(1.00014 -3.60899e-05 1.31828e-24)
(1.01078 -0.0209025 -5.74484e-25)
(0.998249 -0.0120716 -8.02068e-23)
(0.999649 -0.000142976 4.35662e-24)
(0.999978 -7.82782e-06 1.19263e-25)
(1.14973 0.0736041 3.58304e-22)
(0.995587 -0.00141649 3.43413e-23)
(0.999883 -0.000623404 -1.96316e-24)
(1.11427 -0.0180321 -2.60416e-23)
(0.998441 -0.00131343 -1.08343e-23)
(0.992069 -0.000582806 -5.01622e-23)
(0.999371 -0.000200494 -1.48538e-23)
(1.00139 -0.00142689 1.78124e-23)
(0.993218 -0.00256409 2.48739e-22)
(0.998437 -0.000124724 1.39893e-23)
(0.895996 0.104684 7.64519e-23)
(1.00896 0.00272443 8.78934e-22)
(0.999622 -4.29443e-05 9.92912e-24)
(0.947804 0.0879748 -5.13438e-21)
(1.15487 0.0729288 -9.982e-22)
(0.999351 -0.00663697 -1.54793e-23)
(1.01127 -0.00841604 2.58059e-23)
(1.02893 -0.00646041 -1.92551e-22)
(0.977828 -0.0798199 7.47211e-22)
(0.998218 -0.0167199 3.98247e-23)
(0.945796 0.0838048 4.12125e-21)
(1.0017 -0.023998 1.10506e-22)
(1.06122 0.0365574 -2.7581e-22)
(0.979437 -0.0195891 2.96801e-22)
(1.00391 -0.000608827 -6.92979e-23)
(1.00377 -0.000427711 1.31634e-22)
(1.00032 -0.000120851 -4.08796e-24)
(0.991258 -0.0217823 -2.82815e-22)
(0.999897 -0.00060578 -2.51922e-26)
(1.01484 -0.0542686 -4.53177e-22)
(1.00003 -4.04187e-06 -2.64134e-25)
(0.99949 -0.00673546 1.16322e-23)
(0.998068 -0.00897039 -2.24825e-23)
(1.00006 -6.20574e-05 6.68028e-25)
(1.00243 -0.00268708 -7.25123e-23)
(1.0608 0.0340864 -1.1299e-22)
(1.08036 -0.0842334 1.02664e-22)
(0.979549 -0.0307043 -3.43049e-22)
(1.02887 -0.00572222 6.76531e-23)
(0.969722 -0.0208396 -1.80114e-22)
(0.995695 -0.00145457 -3.01717e-23)
(1.15758 0.0615971 -6.05066e-22)
(0.997539 -0.00163546 1.072e-23)
(0.999353 -0.000221107 1.88162e-23)
(0.999611 -0.0158286 -5.52978e-23)
(1.00497 -0.0431184 -2.01743e-22)
(0.999952 -5.28059e-06 2.80914e-25)
(0.998495 -0.0013454 -2.23078e-24)
(1.22799 -0.0256457 -1.02179e-22)
(1.00202 -0.0234807 -6.04507e-23)
(1.06123 0.0968583 2.32486e-21)
(0.919354 0.0287891 1.02509e-20)
(0.99871 -0.0198615 -1.06904e-22)
(0.994593 -0.00997532 1.02833e-22)
(0.939502 0.0183455 4.10962e-21)
(1.00033 -0.000114351 2.64455e-24)
(1.01024 0.00328354 -1.19807e-21)
(0.988235 0.0721133 2.8316e-21)
(1.00229 -0.0066605 -2.82024e-23)
(0.914987 0.121717 2.84707e-21)
(0.994169 -0.000458396 1.5877e-22)
(1.08865 -0.0516623 -3.70985e-24)
(1.22416 0.123204 1.01312e-21)
(0.980496 -0.0111502 7.10017e-23)
(0.999964 -1.63297e-05 -7.97145e-25)
(1.00091 -0.0352353 -2.00289e-22)
(0.970289 -0.000491241 -1.19565e-22)
(1.01949 0.0342207 7.04707e-22)
(1.00779 -0.0106989 -1.09593e-22)
(1 -4.55743e-05 6.28837e-26)
(1.03931 -0.0630057 -2.12376e-22)
(1.13659 -0.166588 -7.4735e-22)
(1.03525 0.0848256 -4.42645e-21)
(0.999635 -0.00014088 -3.94332e-24)
(0.99966 -0.000127421 -1.15537e-24)
(0.954446 -0.0261217 -4.75178e-22)
(0.993484 -0.0377512 3.79207e-22)
(0.980411 -0.0116806 7.9851e-23)
(1.00227 -0.00277679 1.24194e-23)
(1.04634 -0.0113431 -1.09782e-22)
(0.951018 -0.0111018 -3.92771e-22)
(1.04524 0.103425 2.21284e-21)
(0.993719 -0.0488524 6.14767e-22)
(1.00034 -0.000281845 6.61312e-24)
(0.976726 -0.0434193 -6.62775e-22)
(1.1452 0.0995854 1.87731e-21)
(0.999962 -1.60204e-05 1.16603e-24)
(0.981479 -0.00728649 -4.24213e-22)
(0.999954 -6.48568e-06 -1.45081e-25)
(1.03519 -0.0172963 -5.46688e-22)
(0.978619 -0.0305334 2.29368e-22)
(1.03021 0.00970889 1.22897e-21)
(1.00337 0.0676957 4.26018e-21)
(0.999674 -0.000128992 -9.78219e-24)
(0.999996 -5.06497e-05 -1.64257e-26)
(0.988702 -0.0786196 -3.52405e-23)
(0.976634 -0.0786376 -6.72275e-22)
(1.03001 -0.0335459 3.85942e-23)
(1.00001 -1.38814e-06 4.74789e-26)
(0.999143 -0.00448674 -4.00897e-23)
(0.999914 -0.0016051 1.61286e-24)
(0.990995 0.0737419 1.81814e-23)
(1.0388 0.0494028 -1.52627e-21)
(0.991502 -0.00518114 -1.71027e-22)
(1.00002 -4.98841e-05 6.22135e-26)
(1.00252 -0.00659568 -2.16016e-23)
(1.22927 -0.113578 2.42019e-21)
(1.00567 0.0107343 1.92962e-21)
(1.13126 -0.0778273 -6.96013e-22)
(0.917678 0.0352218 -9.72115e-21)
(1.0008 -0.000261662 -1.68198e-23)
(1.13002 -0.0564271 6.28738e-23)
(1.11356 -0.0139529 -1.48511e-22)
(1.0084 -0.0420356 1.49926e-22)
(1.00291 -0.00255581 -6.45993e-23)
(1.00002 -0.000320905 9.24943e-26)
(1.0148 -0.0528372 1.59047e-22)
(1.22798 0.115981 4.97313e-22)
(1.00592 0.131959 5.30102e-21)
(1.12984 -0.0948774 -2.27598e-22)
(1.03396 -0.0168979 4.59804e-22)
(1.01094 -0.00807388 4.8771e-22)
(1.07512 0.171871 3.72277e-22)
(0.980733 -0.000535953 6.24354e-22)
(1.04973 -0.16007 2.04884e-21)
(1.14642 0.0937361 -1.43352e-21)
(1.13048 -0.0514846 -4.98271e-23)
(0.959463 -0.00333879 -5.08714e-22)
(0.965359 -0.0289527 1.47746e-22)
(1.00001 -1.23146e-06 -2.02153e-26)
(0.999992 -2.42927e-06 6.25729e-26)
(0.998172 -6.28621e-05 -2.51333e-23)
(0.998211 -0.00879626 4.59663e-23)
(0.982908 -0.0617569 -5.11072e-22)
(1.06695 -0.132032 9.13642e-22)
(1.27085 0.030429 -1.92423e-22)
(1.02269 -0.015571 2.48025e-22)
(1.0128 -0.0152104 8.09712e-23)
(1.00032 -0.000456262 1.01811e-23)
(0.999904 -0.000161839 1.13017e-24)
(1.00175 0.0248884 -4.25386e-21)
(1.00039 -0.00112088 1.1872e-24)
(0.995069 -0.00812863 9.46206e-26)
(1.08987 0.174141 -1.07133e-21)
(1.00483 0.0438474 -4.60174e-21)
(1.08333 -0.0822726 -2.08353e-22)
(0.971615 -0.00186976 2.07491e-22)
(0.977636 -0.0340342 5.24594e-22)
(1.15874 0.0668413 1.61465e-22)
(0.999964 -3.35143e-05 2.52463e-25)
(0.999991 -2.33805e-06 -2.34953e-26)
(0.991461 -0.00544622 6.06403e-23)
(0.966187 -0.0284248 -7.94568e-22)
(1.00004 -0.000164663 -6.36172e-25)
(1 -4.83754e-05 2.06553e-26)
(0.995092 -0.00367538 -2.00514e-23)
(1.00002 -0.000311379 -7.49558e-26)
(1.00416 -0.00440783 -3.61907e-23)
(1.08548 0.177814 1.25887e-21)
(0.981006 -0.000280363 -5.14295e-22)
(1.01853 -0.0861507 -2.03776e-22)
(0.996348 -7.0884e-05 1.02219e-22)
(1.00153 -0.00197893 3.78198e-24)
(0.980994 -0.0071545 7.17628e-22)
(0.999359 -0.0044806 -3.64381e-24)
(1.13898 -0.0709184 4.06432e-22)
(0.999984 -7.29211e-06 3.87923e-25)
(1.00791 -0.0289278 -7.59702e-23)
(1.03751 0.0866615 1.58249e-21)
(0.994831 -0.00926933 -6.1008e-24)
(1.04705 -0.155673 -1.89134e-21)
(1.02943 0.0421488 -1.34306e-21)
(0.995453 -0.00202908 -1.48019e-22)
(0.986971 -0.0107281 1.86356e-22)
(1.00276 -0.00256606 9.84776e-23)
(0.999404 -0.00619005 -2.23775e-23)
(0.999798 -5.42733e-06 1.13037e-24)
(1.00408 -0.0132781 1.65043e-23)
(0.913178 0.0175939 4.05552e-21)
(1.0012 0.0208917 3.27343e-21)
(0.989748 -0.00436099 4.87429e-24)
(0.995287 -0.00801293 -6.41688e-23)
(0.979396 0.0397902 -3.82382e-21)
(1.01233 0.0268691 6.042e-22)
(0.951977 -0.0110067 4.78365e-22)
(1.00083 -0.000353071 -1.31692e-23)
(1.04253 -0.0810641 2.97471e-22)
(0.974512 -0.0570301 6.76885e-22)
(0.998435 -0.0123339 3.84698e-23)
(1.00061 -0.000771255 -2.09266e-23)
(1.07821 0.176267 5.31257e-22)
(0.995248 -0.0036859 -1.35004e-23)
(1.00488 -0.00396359 -4.05948e-23)
(0.98191 -0.0612038 6.77226e-22)
(0.988498 -0.0802824 9.04468e-23)
(0.999973 -3.74605e-06 9.48681e-26)
(0.979111 0.105541 -4.70785e-21)
(0.999255 -1.69442e-05 -2.44325e-25)
(1 -3.89414e-05 1.81996e-26)
(0.999607 -0.000149945 1.68122e-24)
(0.99546 -0.0381968 -1.39949e-22)
(1.2224 0.00124263 1.85398e-22)
(1.00868 -0.0284208 8.53899e-24)
(1.00473 -0.0036997 -2.78369e-23)
(0.998454 -0.000172128 3.46993e-23)
(0.95278 -0.0122889 -8.69538e-23)
(1.00002 -0.000341342 -1.49428e-25)
(1.00035 -0.00114324 1.26945e-25)
(0.998335 -0.000145751 -2.2909e-23)
(1.0221 0.000740457 1.13546e-21)
(0.998091 -0.00283272 -7.2126e-24)
(0.999165 -0.00417006 1.19116e-23)
(1.02119 -0.00125048 5.55693e-22)
(1.00009 -0.000279267 1.00524e-24)
(1.00003 -3.44304e-06 6.89262e-26)
(1.0036 -0.000436508 1.41896e-23)
(0.982035 -0.0224632 -2.6874e-22)
(0.983038 -0.000278805 -2.47967e-22)
(0.99657 -0.000269786 -1.08925e-22)
(1.01104 0.00256926 9.9094e-22)
(0.988857 -0.000796182 1.1815e-22)
(1.01303 -0.0147242 -7.8861e-23)
(0.999977 -8.73655e-06 3.36363e-25)
(0.997882 -0.00186791 -4.13493e-23)
(1.00057 -0.000764833 2.26264e-23)
(1.04296 -0.0782914 2.92602e-22)
(1.00787 -0.133179 1.36257e-21)
(0.999008 -8.9358e-05 1.80861e-23)
(1.00033 -0.000405985 -7.85056e-24)
(0.999097 -0.0040681 -4.07167e-24)
(1.00247 -0.00588781 -5.35261e-23)
(0.992227 -0.00043028 -2.12657e-22)
(0.999965 -3.18685e-05 -1.61913e-26)
(1.13521 -0.161005 -1.67673e-21)
(1.00003 -0.000349213 1.62125e-25)
(1.02184 0.000702279 -7.99461e-22)
(0.997617 -0.00163895 -2.15985e-23)
(1.0001 -0.000270569 4.26915e-25)
(1.02939 0.0101223 -7.81142e-22)
(0.971541 -0.0541975 -7.1466e-22)
(1.00018 -3.06699e-05 4.33648e-24)
(1 -8.92594e-06 1.13198e-26)
(0.959362 -0.00238958 -5.79768e-22)
(1.00236 -0.121241 -2.10277e-22)
(0.993795 -0.00582765 -1.60281e-23)
(1.00756 -0.0428325 -3.92669e-23)
(1.02331 -0.0161883 -4.07022e-23)
(1.04281 0.0836532 1.9651e-22)
(1.00006 -5.85913e-05 1.84892e-25)
(0.982381 -0.0220301 2.54639e-22)
(1.18147 -0.0968732 9.4991e-22)
(0.9629 0.0562691 9.379e-23)
(0.994779 -0.00905566 4.81816e-23)
(1.02832 0.0406953 1.63337e-21)
(1.08961 -0.0482492 4.79595e-24)
(0.999908 -0.00176637 -1.65679e-24)
(0.834721 0.0495668 6.07427e-21)
(0.999609 -0.000315428 -1.13368e-23)
(1.01726 -0.0882398 -2.6679e-22)
(0.95352 -0.012304 5.83668e-22)
(1.00163 -0.00187112 -2.08136e-23)
(1.17693 -0.0337468 -1.12273e-22)
(0.993873 -0.000663818 -1.26602e-22)
(1.00836 0.143054 3.67502e-21)
(0.997505 -0.000189497 9.94646e-24)
(0.987305 -0.01158 -9.75056e-24)
(0.999848 -0.00160443 -9.74051e-24)
(1.12726 0.134475 4.58733e-22)
(0.999781 -0.0125536 9.87922e-24)
(1.04201 0.10428 1.37664e-22)
(0.999632 -3.29802e-05 -4.34971e-24)
(0.995809 -0.00134731 -4.75381e-23)
(0.962808 0.12984 -2.42026e-21)
(1.02571 -0.000348628 -9.3927e-22)
(1.02103 -0.000870279 6.45593e-22)
(0.978378 -0.0282651 6.40779e-22)
(0.99989 -2.37545e-05 1.14318e-24)
(1.0024 -0.00567889 -6.13433e-24)
(0.999881 -0.000681458 -3.52136e-24)
(1 -3.68865e-05 1.52134e-26)
(1.0475 0.00153175 2.56628e-22)
(1.00003 -3.84472e-06 6.65216e-27)
(0.985703 -0.0102287 4.40342e-22)
(1.17612 -0.0965891 -8.7348e-22)
(0.893686 0.10943 -5.98393e-21)
(1.00911 0.132361 -8.16028e-21)
(0.974694 -0.0472942 2.20473e-22)
(0.989418 -0.0210957 1.57152e-22)
(0.983843 -0.00107329 1.18195e-22)
(1.0239 -0.0301758 1.33e-22)
(1.00451 -0.0131113 -3.00309e-23)
(0.986871 -0.0112373 -2.57397e-22)
(0.974634 -0.0518467 9.65506e-23)
(1.0412 0.0861234 -2.97077e-21)
(0.999455 0.0194358 6.17431e-21)
(0.999073 -0.000108968 9.97665e-24)
(1.00484 0.068326 -5.87016e-21)
(1.04654 0.000383477 8.65685e-23)
(1.13679 -0.0770209 2.00182e-22)
(1.00985 -0.0120234 3.78378e-23)
(1.00057 -0.011599 -4.54917e-23)
(1.01373 -0.0401275 -9.64254e-23)
(0.996111 -0.00130382 -1.12165e-22)
(0.998072 -0.000475207 -7.32424e-24)
(0.999956 -5.14325e-06 1.48317e-24)
(0.999282 -0.00633825 3.30908e-23)
(1.07254 -0.0457873 1.96122e-23)
(1.12839 0.139951 -7.82257e-22)
(1.00118 -0.00101027 9.80651e-24)
(0.980229 -0.0183894 -3.53945e-22)
(1.01126 -0.0123802 -1.19444e-22)
(0.999972 -1.20623e-05 -1.28996e-25)
(0.974663 -0.0494921 -3.48746e-22)
(0.870063 0.085168 -2.69672e-21)
(0.995494 -0.00346567 1.66525e-22)
(0.999184 -0.00333279 1.07353e-23)
(1.01029 -0.0119135 -2.33992e-23)
(1.00078 -0.0342172 2.50529e-22)
(1.07906 0.0217844 3.18829e-22)
(0.999551 -0.00719625 -5.67236e-24)
(0.999976 -3.87696e-05 8.34117e-25)
(1.00001 -1.94639e-06 2.35811e-26)
(0.998046 -0.000432759 -8.14106e-24)
(0.960813 0.128831 3.50168e-21)
(1.0373 -0.0259416 1.09803e-22)
(1.01116 -0.133296 -3.5163e-22)
(1 -8.94854e-06 5.64601e-28)
(0.999712 -0.123113 1.37736e-22)
(1.06805 -0.00829666 -3.49594e-22)
(0.99626 -0.000118405 -5.143e-23)
(0.955269 -0.00450567 -7.11765e-22)
(0.999246 -0.00327582 -1.071e-23)
(0.999682 -0.000144395 -7.14373e-25)
(0.982982 -0.0199439 -7.64529e-23)
(1.00067 -0.000845888 -1.01226e-23)
(1.14427 -0.069855 -3.57021e-22)
(1.00685 -0.00082496 -2.91892e-22)
(1.21247 0.0812741 -4.46928e-22)
(0.999933 -0.00174355 2.14996e-24)
(1.00301 -0.0103825 9.76135e-24)
(1.00548 0.00948842 -2.61044e-21)
(1.22316 -0.108316 -9.69553e-22)
(1.00031 -0.000429283 -5.98743e-24)
(1.00033 -0.000380635 5.87861e-25)
(0.993905 0.087941 2.91559e-22)
(0.994188 -0.0385451 -7.59987e-23)
(0.99943 -0.00708387 6.9361e-24)
(1.01141 0.0300849 3.18502e-22)
(0.971688 0.020111 7.50687e-21)
(1.07949 -0.0879784 -3.54644e-22)
(0.998754 -0.0191732 -3.26359e-23)
(1.21774 0.00435603 -1.83791e-22)
(0.999439 -5.36455e-05 -7.49971e-24)
(0.993658 -0.00304668 4.48998e-23)
(0.997557 -0.000198802 -2.80089e-23)
(1.01362 0.0254526 1.77288e-24)
(0.99999 -0.000560245 2.25254e-25)
(1.00662 -0.00100043 2.98254e-22)
(1.0869 -0.134309 2.25163e-23)
(1.00354 0.124243 8.22391e-21)
(0.918083 0.12567 -1.31634e-21)
(0.995591 -0.00202464 5.79077e-24)
(0.993618 -0.00568987 4.80898e-23)
(1.05854 0.0999531 -1.86222e-21)
(1.0051 -0.0444466 2.9136e-22)
(0.999958 -6.09717e-06 -1.44687e-24)
(1.25879 0.0722309 3.08056e-22)
(1.02166 0.00119642 -3.40705e-22)
(1.02128 0.00121729 -2.30889e-22)
(0.995642 -0.00988363 -6.92977e-23)
(1.01427 -0.00158993 -4.5964e-22)
(0.952344 0.11485 1.18838e-21)
(1.06016 -0.136738 -2.70476e-22)
(0.981499 0.113584 1.26288e-21)
(0.995557 0.112273 -2.14035e-21)
(0.999998 -4.84722e-05 5.1462e-26)
(1.07009 -0.0443671 -2.86679e-23)
(1.06248 -0.133166 1.73106e-22)
(0.998002 -0.00285687 1.89766e-23)
(1.00121 -0.00108625 -1.61712e-23)
(0.966893 0.0232667 1.79855e-21)
(1.0386 -0.0267951 -1.41506e-22)
(1.00021 -5.62055e-05 9.8538e-25)
(0.983955 -0.0428004 -7.73166e-22)
(0.973792 -0.0583928 -3.18707e-22)
(0.9959 -0.00138533 6.68202e-23)
(0.999911 -0.000157132 -1.41957e-24)
(1.05354 0.12462 -3.13674e-22)
(1.03837 0.0474558 2.5579e-21)
(1.00004 -0.000382019 -5.66847e-26)
(1.00303 -0.00275742 1.27007e-23)
(1.00391 -0.00276829 6.88284e-23)
(1.13315 -0.12456 1.1217e-21)
(0.978455 -0.0275115 -5.68157e-22)
(1.00005 -0.000453118 -4.23291e-25)
(0.999989 -1.52941e-06 -3.55791e-26)
(1.00037 -0.000125214 1.55935e-24)
(1.07775 0.0233029 -3.06012e-23)
(0.979462 -0.0188972 -2.84573e-22)
(1.00246 0.0481404 1.33812e-21)
(0.960568 -0.0316127 3.64215e-22)
(0.990002 -0.0210326 -1.63978e-22)
(0.98256 -0.000833488 -4.9659e-22)
(1.01278 0.0288639 -1.56826e-21)
(1.21941 -0.023146 -3.42243e-23)
(0.999102 -0.000115888 1.82771e-23)
(1.00588 -0.00454046 -7.36706e-23)
(1.00063 -0.000837447 1.14762e-23)
(0.980412 0.125252 -3.27632e-21)
(0.980969 -0.0172043 1.51991e-22)
(1.00081 -0.000212798 -5.502e-24)
(0.994413 -0.00271831 -6.03729e-23)
(1.13601 -0.0482274 -2.37447e-23)
(0.999607 -0.00773343 -1.46483e-23)
(0.991343 -0.009316 -3.33525e-23)
(1.00018 -0.000107507 -3.00488e-24)
(1.00018 -4.06486e-05 -1.32856e-25)
(0.866552 0.091084 4.23603e-21)
(0.993914 -0.00098872 -7.88705e-23)
(0.996414 -0.00358515 6.79996e-23)
(0.999715 -0.00141956 -8.47278e-24)
(0.999453 -4.08443e-05 -1.02795e-24)
(1.0494 0.0811711 -9.9116e-22)
(1.09108 -0.137666 6.86185e-23)
(0.987645 -0.0313505 9.80836e-23)
(1.00001 -1.56877e-06 -2.39649e-26)
(1 -2.96099e-05 1.3814e-26)
(0.980239 -0.0177789 4.00949e-22)
(0.99496 -0.00145107 1.60228e-23)
(0.996139 -0.00166128 -9.17004e-24)
(1.01105 -0.00423699 1.42273e-22)
(1.00439 -0.00187489 2.47652e-23)
(0.999972 -0.012869 -1.7606e-23)
(1.10857 -0.032017 2.13495e-22)
(0.986312 -0.00326925 -9.97674e-23)
(0.983363 0.111271 -1.02614e-21)
(1.01014 -0.0208479 -3.00517e-23)
(1.00019 -0.000107938 3.34143e-24)
(0.974216 -0.0463515 3.3191e-23)
(0.986681 -0.0277122 -3.42885e-22)
(1.16833 -0.0255381 1.57885e-23)
(0.997805 -0.00470627 -2.0246e-23)
(0.989818 -0.0369793 -1.19673e-22)
(0.999984 -4.29686e-06 2.13529e-25)
(0.930784 0.091166 -4.10827e-21)
(1.01185 -0.00177387 2.58189e-22)
(1.00006 -0.000183566 -1.02734e-24)
(0.913088 0.0240822 -5.22569e-21)
(0.986875 -0.0314468 2.27846e-22)
(0.999983 -5.00337e-06 3.40139e-26)
(1.00109 -0.000988013 4.77202e-24)
(0.974092 -0.048451 -1.94983e-22)
(1.02892 -0.03232 4.27413e-23)
(1.03976 -0.0129213 3.15805e-22)
(0.999993 -2.58e-06 5.01998e-26)
(0.993887 -0.0005038 6.29264e-23)
(1.01454 -0.0393534 1.65181e-22)
(0.996013 -0.00127151 9.25747e-23)
(0.999647 -3.79675e-05 -2.35695e-23)
(0.99378 -0.00314688 1.31032e-24)
(0.976089 0.0411257 4.47143e-22)
(0.994506 -0.00968459 -8.62117e-23)
(0.991704 -0.00913458 2.44628e-23)
(1.00216 0.0284863 -1.31825e-21)
(0.997922 -0.00176433 2.16603e-23)
(0.974825 0.127075 -4.23077e-22)
(0.999982 -5.03275e-06 -1.08757e-25)
(0.991533 -0.0212688 6.58753e-23)
(0.982065 -0.0583424 7.61534e-22)
(0.990495 -0.0373002 2.02612e-22)
(1.16583 -0.105648 2.59619e-22)
(0.999072 -0.00435808 2.6896e-23)
(1.00655 -0.019285 1.01029e-23)
(0.99993 -0.00187684 4.65299e-25)
(0.986939 -0.0163397 -1.94774e-22)
(1.02966 -0.0350967 1.08343e-23)
(0.999973 -1.1538e-05 6.52634e-25)
(1.00001 -8.91172e-07 -4.1518e-26)
(0.995213 -0.000324574 4.26596e-23)
(0.981122 0.0772595 2.90991e-21)
(1.00945 -0.0161351 1.37415e-22)
(1.00196 -0.00279657 -2.0121e-23)
(0.95182 -0.0229689 5.10034e-22)
(1 -8.01397e-06 1.2421e-27)
(1.00074 -0.000923434 -1.83838e-23)
(0.999973 -0.000534219 -2.65913e-25)
(1.01059 -0.0155394 1.54433e-22)
(0.987233 -0.0120901 3.4202e-23)
(0.999708 -0.000224481 2.97031e-24)
(0.994874 -0.00865007 3.2006e-23)
(0.990659 -0.00538952 -3.58047e-23)
(1.00078 -0.000127391 -1.51515e-24)
(0.999982 -5.83224e-06 -6.80218e-26)
(1.19635 -0.0714589 -8.31651e-22)
(0.999744 -0.00139651 9.07349e-24)
(1.06518 -0.0122035 2.67157e-22)
(1.01868 0.120929 7.91595e-21)
(1.05358 0.0988274 -1.71795e-21)
(1.00001 -0.0162458 -6.5322e-23)
(1.00429 -0.00169536 -8.19915e-24)
(1.01454 -0.00126742 2.8124e-22)
(0.999967 -0.00191941 -5.27745e-25)
(0.998208 -0.00818923 3.27207e-23)
(1 -1.34563e-05 2.06149e-26)
(0.992807 0.112682 -1.58669e-22)
(0.99058 -0.0122319 4.72779e-23)
(1.01081 -0.00389889 -1.01573e-22)
(0.986616 -0.00339659 2.04173e-22)
(1.00265 -0.010195 1.06966e-24)
(0.997936 -0.0046323 4.38678e-23)
(0.99992 -0.000160987 3.32278e-25)
(1.00001 -8.26908e-07 -2.21052e-25)
(0.996536 -0.00357214 -4.94687e-23)
(1.04632 -0.0128362 -1.73257e-22)
(1.00513 0.0457633 2.10166e-22)
(1.00094 -0.000378497 -2.23815e-23)
(0.977894 -0.0436 -1.72761e-22)
(0.980948 -0.0166823 -6.87912e-23)
(0.994035 -0.00039657 -2.35742e-22)
(1.2619 0.0294184 1.21699e-22)
(0.999007 -0.000762134 -1.08633e-23)
(1.00265 -0.0115301 -2.53631e-23)
(0.995835 -0.00218339 4.64432e-23)
(0.999927 -0.000155175 2.80529e-25)
(0.973997 -0.0506721 2.19346e-22)
(1.00246 0.0426229 -2.08654e-21)
(1.02878 0.0367578 -1.6761e-21)
(0.982921 -0.0112363 -3.30203e-23)
(1.00187 0.0407438 -9.07599e-23)
(1.00006 -0.000172333 1.98141e-24)
(1.00001 -1.1569e-06 6.88082e-26)
(1.25172 0.0689166 -1.60594e-22)
(1.17552 -0.027681 1.26691e-22)
(0.915645 0.0928949 -2.01121e-22)
(0.993793 -0.0630347 5.64338e-22)
(0.982742 -0.00115035 -1.53701e-22)
(1.13606 -0.0424783 4.6096e-23)
(1.00089 -0.000395505 2.53435e-23)
(0.995678 -0.00293984 2.66522e-23)
(1.00035 -0.000133252 -1.48938e-24)
(0.991904 -0.000551807 -5.17705e-23)
(0.990948 -0.0100162 -6.93136e-23)
(0.999997 -2.6513e-05 -1.39028e-25)
(0.999321 -2.62862e-05 4.28178e-24)
(1.00307 0.121258 -7.48283e-21)
(0.9999 -0.000554575 3.20921e-24)
(0.938555 0.0839399 4.93572e-21)
(1 -1.27818e-05 -1.55922e-26)
(1.25323 -0.0600231 -9.47287e-22)
(1.065 -0.0140986 -5.76795e-22)
(1.10893 -0.0286086 -2.37904e-22)
(1.0008 -0.000376123 1.51818e-24)
(1.00014 -3.31226e-05 2.66453e-24)
(0.98516 0.0727575 -4.33726e-21)
(1.06794 -0.0104601 1.15481e-21)
(0.981491 -0.0593393 -7.02628e-22)
(1.02028 0.0359768 7.65001e-22)
(0.997874 -0.0163812 2.80873e-23)
(0.989849 -0.0041087 -5.2682e-23)
(0.996906 -0.000170873 -2.82105e-23)
(1.13831 0.171151 -3.58805e-21)
(0.981565 -0.0199851 2.45986e-22)
(1.02443 -0.0289885 -9.16398e-23)
(0.995077 -0.00857988 -1.82732e-23)
(1 -7.96995e-06 -5.25503e-28)
(0.999016 -0.00071933 -9.23244e-24)
(1.00458 -0.00476847 4.31573e-23)
(0.986106 -0.00604224 2.63324e-22)
(0.983351 -0.0113396 4.91155e-23)
(0.967229 -0.0290339 -7.75674e-23)
(0.985958 -0.00640565 -1.99254e-22)
(1.01608 0.00231167 1.34586e-22)
(0.998375 -0.000109864 5.74542e-25)
(0.955425 -0.0264923 2.65971e-22)
(0.989353 -0.000698862 -7.31538e-23)
(1.00003 -0.000166494 2.68815e-25)
(0.990694 -0.000561324 -5.08839e-23)
(1.02465 -0.0313242 -1.39719e-22)
(1.01545 0.00249272 -7.43781e-22)
(0.980092 -0.020024 -6.16558e-23)
(0.999987 -5.7166e-07 -9.8458e-28)
(0.986651 -0.0123365 5.14693e-23)
(1.00144 -0.0117338 4.67034e-24)
(1.00107 -0.000918157 6.1234e-24)
(1.07518 -0.145335 -7.83492e-22)
(1.00185 0.0409345 -4.86405e-21)
(1.00069 -0.000912262 1.7065e-23)
(0.990851 -0.000422807 7.33712e-25)
(1.07238 -0.0856088 1.29904e-23)
(1.0224 0.000133455 1.13717e-21)
(0.989435 0.0310906 -4.75072e-22)
(1.00142 -0.00194829 5.45829e-24)
(0.999843 -0.0169111 2.04055e-23)
(1.10372 0.121106 -5.63388e-22)
(1.01435 0.022541 -3.88391e-21)
(0.992326 -0.0212487 1.74761e-22)
(1.00368 -0.00277097 -7.7082e-24)
(0.963583 -0.0340985 3.67997e-22)
(0.999998 -3.92062e-06 2.55361e-26)
(0.964247 -0.00145995 -2.68073e-22)
(1.00007 -5.46629e-05 3.74366e-25)
(1.06977 -0.0855061 -8.27964e-22)
(0.999974 -2.71453e-06 -7.23309e-26)
(1.00002 -4.87923e-05 2.16421e-25)
(0.999446 -0.0188773 -2.45276e-23)
(1.23385 -0.0194668 2.72663e-22)
(1.03424 0.155885 3.46079e-21)
(1.02726 -0.0325377 -2.11792e-22)
(1.01072 -0.0124745 7.95703e-23)
(0.999999 -2.96733e-06 -6.54297e-27)
(0.995332 -0.00348878 -9.01344e-23)
(1.00007 -1.65761e-05 -2.79163e-25)
(0.997595 -0.00187736 3.09372e-23)
(1.00002 -4.54369e-05 -1.68204e-25)
(1.04005 -0.0112796 -9.84038e-22)
(0.999639 -0.00037135 -1.1645e-23)
(1.05376 0.0489845 1.66874e-21)
(0.999904 -0.00017185 -2.20006e-24)
(0.990215 -0.00401815 -8.88105e-23)
(0.969667 -0.000792472 5.94013e-22)
(0.996747 -0.000231794 -3.6233e-23)
(0.983208 0.0422459 4.57167e-21)
(0.98697 -0.000547638 1.43153e-22)
(1.00928 -0.0831081 4.66241e-23)
(0.995788 -0.00308425 1.37945e-22)
(1.02061 -0.00232508 -2.35793e-22)
(0.976008 -0.0440413 7.93166e-22)
(1.01554 -0.00118161 -7.85484e-22)
(1.02595 -0.0602975 -1.87418e-23)
(0.999989 -1.18772e-06 9.37575e-27)
(0.99904 -0.0159435 2.25958e-23)
(0.996956 -0.000225419 4.42027e-24)
(1.00019 -7.27593e-05 2.01055e-24)
(1.00007 -1.39009e-05 4.68559e-25)
(1.14418 0.173951 3.91994e-21)
(0.996266 -0.00166726 7.72701e-23)
(1.02238 0.000772721 1.29939e-21)
(1.00031 -0.0173412 2.48699e-23)
(1.00066 -0.000239619 5.85684e-24)
(1.01888 -0.00709889 -8.63101e-22)
(1.00013 -3.09177e-05 -5.90048e-24)
(0.999981 -2.70222e-06 -9.7208e-27)
(0.964661 -0.00194527 2.06206e-22)
(0.99733 -0.000952266 3.49964e-23)
(1.00002 -4.42555e-05 2.53166e-25)
(1.06531 0.0969302 1.24963e-21)
(0.881824 0.0741724 -7.44777e-21)
(0.999838 -0.000181998 5.47559e-24)
(0.970964 -0.00160518 -1.60767e-22)
(1.00001 -1.14294e-06 4.91212e-26)
(0.948913 0.112267 -4.77002e-21)
(1.26219 -0.0627357 -1.29671e-21)
(0.976928 -0.0354827 -6.45775e-22)
(1.00004 -0.000438339 -4.84717e-25)
(1.02361 -0.0279116 2.20717e-22)
(1.02524 -0.00274868 -3.25651e-22)
(1.02632 -0.000424789 9.66062e-23)
(1.04069 -0.0136126 -1.22514e-22)
(0.999721 -0.00149687 -1.43292e-24)
(0.999899 -0.000664508 2.77172e-24)
(0.98922 -0.0121202 -1.51423e-22)
(1 -7.01087e-06 -1.14471e-26)
(1.00001 -9.0973e-07 -1.25661e-26)
(0.980964 -0.0196027 -1.45366e-22)
(0.99487 -0.0483748 -2.99834e-22)
(0.968143 -0.0285537 -2.00177e-23)
(0.901908 0.105216 -1.55764e-22)
(1.00016 -2.00336e-05 -2.46237e-24)
(1.00731 -0.0624826 -6.23946e-22)
(1.00569 -0.00426019 -7.57011e-23)
(0.999982 -2.85646e-06 1.11212e-25)
(0.999206 -0.00310265 -2.33359e-23)
(1.00003 -0.000371857 -2.87338e-25)
(0.996449 -0.0100475 5.24253e-23)
(1.00004 -8.20033e-06 2.81997e-25)
(1.02746 -0.0595113 -4.25574e-23)
(1.01522 -0.00144178 7.62787e-22)
(0.976453 0.124639 1.11907e-21)
(1.02015 -0.00217465 8.84371e-22)
(0.999787 -0.000177947 4.3282e-24)
(1.00035 -0.00030806 -5.75768e-24)
(1.12979 -0.129669 -1.14735e-21)
(1.02228 0.000601117 -1.04421e-21)
(0.997637 -0.000308383 3.16746e-23)
(1.00001 -1.15635e-06 1.03933e-25)
(1.08076 0.0821738 -2.01578e-21)
(1.03879 -0.151504 -3.29466e-22)
(0.994104 -0.0617777 -2.44363e-22)
(0.989065 -0.000594357 -3.86415e-23)
(0.999984 -1.75403e-05 2.15468e-25)
(0.999789 -0.000167856 -2.53708e-24)
(1.04148 -0.155688 9.20966e-22)
(0.996262 -0.0389464 -8.20332e-23)
(1.03445 0.0253904 2.38073e-22)
(0.982715 0.107224 4.27684e-21)
(1.00883 -0.0809361 3.47829e-22)
(0.999031 -6.63073e-05 -5.68562e-24)
(0.999984 -8.18839e-06 -2.53016e-25)
(0.971027 -0.0373271 6.32024e-22)
(0.975634 -0.0748174 -8.16622e-22)
(0.999845 -0.000188309 2.93118e-24)
(1.00709 -0.0187942 5.92146e-23)
(0.992595 -0.0206982 -3.05851e-23)
(0.996458 -0.00178831 3.04398e-23)
(0.99804 0.0343046 -3.5955e-21)
(0.999015 -0.000431527 2.03634e-23)
(1.03901 -0.0469238 -1.01867e-23)
(1.22595 0.129382 -1.16739e-21)
(0.99411 -0.00256327 -8.87107e-23)
(0.913552 0.0875405 -7.31619e-22)
(0.921269 0.0411333 2.22666e-21)
(0.999976 -4.11069e-05 -8.3796e-25)
(0.99998 -0.000583767 -2.34437e-25)
(0.987125 -0.000727283 -9.117e-23)
(1.01027 -0.00386933 -1.83734e-22)
(0.972141 -0.00148408 3.37602e-22)
(1.004 -0.00344081 -7.91834e-23)
(0.99432 -0.00257281 8.27335e-23)
(0.999565 -0.000395775 -8.87101e-24)
(0.95794 0.112735 -8.51986e-22)
(1.0541 0.0465387 -2.58798e-21)
(1.00175 -0.00189076 1.40049e-23)
(0.841703 0.0468198 -1.51041e-21)
(1.00001 -9.98369e-07 -7.06718e-26)
(1.02134 0.00516762 -1.83405e-21)
(0.987188 -0.0747399 5.53506e-22)
(1.00913 -0.0628162 2.43202e-22)
(1.00007 -0.000167348 -1.01867e-25)
(0.970852 -0.000812487 2.7492e-22)
(1.01924 0.00468308 1.03185e-21)
(1.01001 -0.00414716 1.52188e-22)
(1.02488 -0.00181787 4.52575e-22)
(0.999657 -2.96647e-05 1.66341e-23)
(0.999634 -0.000395755 1.05457e-23)
(1.01714 -0.0386907 4.36428e-23)
(0.997373 -0.00102678 -9.97495e-23)
(0.990322 -0.00909788 -1.63622e-22)
(0.999304 -0.00281281 1.38064e-24)
(1.07699 0.0300332 1.2507e-21)
(0.998812 -0.0165995 -1.55606e-23)
(0.996204 -0.00379102 1.60507e-24)
(0.949615 -0.0193814 -7.66397e-22)
(0.996301 0.0878099 4.78154e-22)
(1.0936 -0.0460926 -7.89666e-23)
(1.01843 -0.00678472 6.91586e-22)
(0.999695 -0.00014496 3.15904e-24)
(0.99961 -0.000258689 1.42697e-24)
(0.986392 -0.0161224 3.93648e-22)
(1.00076 -0.000993839 -1.37022e-23)
(0.998021 -0.00054401 -5.6697e-24)
(0.999984 -1.68099e-05 -8.10954e-26)
(0.999749 -0.00152524 2.98059e-25)
(1.01874 0.00432931 -4.01263e-22)
(0.984396 0.0760816 -4.1783e-21)
(0.999902 -1.24155e-05 6.78383e-25)
(1.17037 0.152409 -3.03867e-21)
(0.999997 -3.31558e-05 6.01817e-26)
(0.997518 -0.00222273 4.21975e-23)
(0.999994 -7.60047e-05 9.04474e-26)
(1.00403 -0.00297767 -3.50687e-23)
(1.19609 -0.0781867 6.58862e-22)
(0.99997 -3.43765e-05 7.10735e-26)
(0.999969 -3.69358e-05 5.00081e-25)
(0.959801 -0.0319188 -3.60165e-22)
(1 -6.94352e-06 -2.1319e-27)
(1.04349 -0.0138487 1.02441e-21)
(0.989298 -0.0322289 3.12373e-22)
(0.999982 -0.000513406 2.68462e-25)
(1.07774 0.06089 -1.54749e-21)
(1 -2.36578e-05 -3.41603e-26)
(0.999695 -3.08005e-05 1.45517e-23)
(0.999932 -2.84351e-05 2.41918e-26)
(0.996341 -0.00380158 -2.54571e-23)
(0.999741 -0.001216 -4.37645e-24)
(0.995304 -0.000245429 -2.87488e-23)
(0.99174 -0.0906407 -6.42876e-23)
(0.99977 -0.00118444 2.90884e-24)
(1.00322 -0.00277039 -2.72586e-23)
(0.999981 -1.96727e-06 -4.17011e-26)
(1.03646 0.152658 -6.54236e-21)
(1.03751 -0.047574 -3.09679e-23)
(1.09662 -0.0474127 2.0365e-23)
(0.974026 -0.00445658 3.67254e-22)
(0.98306 -0.00323785 -6.68267e-23)
(0.999275 -0.00303492 3.84782e-23)
(1.00224 -0.00210652 3.80632e-23)
(1.04442 0.0610749 7.10726e-22)
(0.986135 -0.0284785 4.67025e-23)
(1.12396 0.0996507 7.38195e-22)
(0.967815 -0.0099757 -6.70445e-22)
(0.997431 -0.00214558 -3.98539e-23)
(0.999993 -3.20654e-06 -9.04731e-26)
(0.995694 -0.00219019 -5.59589e-23)
(1.01178 0.144865 1.70527e-21)
(1.07 0.0710457 -3.62771e-22)
(0.985119 -0.0426051 2.60252e-22)
(0.957055 -0.00421247 1.56838e-22)
(1.04154 0.144413 1.74094e-21)
(0.993581 -0.000451422 7.43368e-23)
(0.98471 -0.0680863 4.36003e-23)
(0.999994 -7.25445e-05 1.5985e-25)
(0.988452 -0.0323184 3.91298e-22)
(0.999366 -0.00017864 -2.11555e-23)
(0.853225 0.0797203 -4.38364e-21)
(0.981634 -0.0554686 -5.89485e-22)
(0.999934 -2.54721e-05 1.25055e-24)
(0.954349 -0.0135861 -4.14674e-23)
(0.985919 -0.0301896 2.31282e-23)
(1.03164 0.0680843 2.59261e-21)
(0.998048 -0.000593753 -5.35627e-23)
(0.984584 -0.029026 -1.40268e-22)
(0.998061 -0.00839178 -4.56417e-23)
(0.999536 -0.018248 -5.09954e-23)
(0.999041 -0.000438925 -1.38521e-23)
(1.03039 0.0665812 -3.13972e-21)
(1.00562 -0.128901 5.96134e-22)
(0.98659 -0.0128395 -1.14712e-22)
(0.989652 -0.0112801 2.41538e-24)
(0.990298 -0.00379474 -3.60479e-23)
(1.00403 -0.00162997 -3.21521e-23)
(1.04329 0.140236 6.76674e-21)
(0.986621 -0.0104203 5.20639e-23)
(1.01387 0.0343016 1.66714e-21)
(1.00206 -0.00169292 2.89604e-23)
(1.1724 -0.105336 -2.00906e-23)
(0.935794 0.090037 7.40777e-22)
(0.993456 -0.000352484 -2.57547e-22)
(0.999826 -3.26181e-05 2.83805e-24)
(1.04757 0.0838064 7.77e-22)
(1.00008 0.11602 -6.25447e-21)
(1.01671 -0.0372819 -5.00155e-23)
(1.06441 -0.0449315 1.10656e-23)
(0.996268 -0.010419 -5.84067e-23)
(0.974416 -0.00403177 -2.17785e-22)
(1.10046 0.118076 2.26376e-21)
(0.970051 -0.0374017 1.08306e-22)
(0.999982 -1.68458e-05 2.82277e-25)
(0.994428 -8.69477e-05 -1.31566e-22)
(1.00003 -4.49873e-06 2.87025e-25)
(0.996635 -0.000208072 9.86977e-23)
(0.999981 -1.77587e-05 -4.41786e-25)
(0.998269 -0.0117106 7.81942e-23)
(0.999275 -2.92011e-05 7.54479e-24)