/*--------------------------------*- C++ -*----------------------------------*\
  =========                 |
  \\      /  F ield         | OpenFOAM: The Open Source CFD Toolbox
   \\    /   O peration     | Website:  https://openfoam.org
    \\  /    A nd           | Version:  7
     \\/     M anipulation  |
\*---------------------------------------------------------------------------*/
FoamFile
{
    version     2.0;
    format      ascii;
    class       volScalarField;
    location    "32";
    object      p;
}
// * * * * * * * * * * * * * * * * * * * * * * * * * * * * * * * * * * * * * //

dimensions      [0 2 -2 0 0 0 0];

internalField   nonuniform List<scalar> 
115545
(
-0.0122903
-5.51002e-06
-0.0149481
-0.0037574
0.00146001
-0.000805418
0.369579
-0.057683
-0.000180786
-5.88692e-06
-0.000211464
0.000262208
-0.00180379
-0.0576409
-0.000183327
-0.0565344
-1.8723e-05
-0.000279255
0.45831
0.00151551
-0.0599317
-0.00556243
-0.000321187
-0.00597225
0.673315
0.0554655
-0.100059
0.0233774
9.93745e-06
0.385999
-0.000105152
0.0973429
0.00500325
-0.014215
0.677937
-0.00168269
0.361602
-1.57606e-05
-0.193554
0.249628
0.0977787
-0.000283411
-0.0202044
-0.00168652
-0.052038
-0.0579156
0.00228937
0.00593312
-0.000831029
0.000250274
2.29861e-06
-0.003227
0.110761
-2.86397e-06
-0.00310695
0.112433
0.0903261
-0.0425642
-0.0400753
-0.0132599
-5.46204e-07
-0.0061704
-0.00065489
-0.0185848
-3.89375e-05
0.00104907
-0.00150327
0.0644071
-0.110356
0.0823268
0.239887
0.000761286
0.245879
-0.0374952
-0.0294888
-0.0269595
-0.0267819
-0.000802329
0.437875
0.0256258
0.0265973
-4.10606e-05
-0.108588
0.0229869
-0.00320056
0.000256137
-0.0200095
6.89583e-07
-0.0275588
1.19278e-05
-0.131237
-0.0115442
9.33725e-06
-0.00124803
-0.000354746
0.000463609
-0.000321286
-0.10875
-0.107524
-0.0274867
-1.21261e-06
0.0290591
-0.000442176
0.00270751
0.242759
-0.0574712
0.273047
-0.0594437
-0.0164498
2.20589e-05
0.0171693
-0.000318945
-0.0249053
-0.0103375
0.867404
-0.00329196
-0.000211242
0.208763
5.91406e-05
0.0015392
0.211212
-0.059515
-0.0148631
-0.0211615
-8.71247e-07
0.384716
-0.00604083
0.659125
-0.00149701
0.048914
-0.0201208
0.000348254
0.156791
0.000255946
5.90711e-05
0.45903
0.636882
0.00478857
-0.00297264
-0.00611036
0.0644122
-0.00246748
0.000114846
0.115164
-0.0183189
2.85341e-06
0.00781664
-0.00616068
0.0656376
0.000765341
-0.0562358
-0.0541126
-0.0114564
-1.0466e-06
-0.00315804
0.00734456
2.35931e-05
-0.00250669
-0.0254206
-0.0836433
-0.0263761
0.00776848
-0.000641904
-0.0368251
-0.0109138
-0.000727304
0.0318056
-0.0226505
-0.00303797
-0.0118494
-0.0126691
0.00259289
-0.156892
-0.0587133
-0.032342
0.0617309
-0.0588992
-0.00224351
0.00346168
-0.000814663
0.0138996
-0.0290612
0.47768
0.118784
0.274593
-0.000231745
-0.00399338
0.150451
0.0160388
-0.131327
-0.00221951
-0.00224667
0.511358
-0.025313
0.0582163
-0.0769555
-0.0590132
-0.0106422
-0.0265115
-0.0160613
0.129479
0.387605
0.0169133
3.8102e-06
-0.00390942
-0.0319227
-0.000553572
-3.6475e-05
0.0454867
-0.0385311
-0.0581518
0.270498
0.669786
1.32076e-05
-0.0128627
-0.0256449
0.016933
0.00323018
-0.0587988
-6.4996e-05
-0.0348879
-0.0231249
-0.00167717
-0.0257481
-3.08989e-06
0.567768
-0.00158926
-0.0276582
-0.0755103
0.591946
0.027053
-0.0385844
0.104682
-0.0255974
-0.0221223
0.130563
0.000526749
-0.000994856
-0.0249767
-0.003252
-0.115975
-0.0109615
-0.0842204
-0.112417
-0.0015874
0.000671559
0.0810448
-0.0270158
-0.0222389
-0.0551725
0.527205
-0.00122973
0.111803
-0.000170875
0.675514
0.0142988
-0.0475427
0.0243954
0.000388337
-0.0601076
0.014567
-0.058251
0.119697
-0.200893
-0.0171771
-0.00366568
-0.0189967
-0.00150229
-0.0121484
-0.0430028
-4.37958e-05
0.016968
-0.000683422
-0.0108111
-0.00146597
-0.0209393
-0.0452251
-0.0319105
-0.00412547
-0.0599565
-0.0380561
-0.00156638
2.93538e-05
-0.0306213
0.000142228
0.0111162
0.559518
0.10459
-0.0983449
-0.184176
-0.0456166
4.86944e-06
-0.0424193
0.266393
2.16896e-05
0.0192954
-0.0013217
0.09208
-0.000327985
-0.0443656
-0.0587112
-0.0307013
-0.146574
-0.00702032
-0.0395985
0.0369928
-0.0178338
-0.0272163
-0.210836
0.00362103
-0.00262423
0.205414
0.142202
-0.0249554
-0.00194181
-0.000168158
0.511486
0.000624786
-0.00576286
-0.0546755
-0.00965783
-5.85133e-05
0.0163914
0.862497
0.0477151
-0.0254611
0.00769139
0.088895
-0.059697
-0.0434023
-0.00263541
5.13224e-06
-0.000219838
-0.00128529
0.806679
-0.00352915
0.00253611
-3.92429e-05
-0.000810616
-0.00396952
-0.014139
0.0586668
-0.108172
-0.0181032
-0.00987425
0.00147673
-0.00436787
0.690692
-0.031851
-0.00349092
0.158736
0.158413
0.0144711
-0.002825
-0.016913
-0.00351079
-0.0115518
2.04981e-06
-0.000555986
0.00453584
0.126892
-0.0436692
0.366505
0.80987
-0.0260911
2.21182e-06
-0.0139185
-0.0197074
-0.00152969
3.82684e-06
-0.0895244
-0.0317488
-0.0269919
-0.000452781
-0.00250567
0.00351801
-0.000405849
0.000245091
-0.00115007
0.00606588
-0.0387335
-0.0154218
-0.0102759
0.00405315
0.0112674
-9.47679e-05
0.0977229
-0.0562769
0.00154229
-0.0465645
0.0952478
0.212893
-0.0202694
0.0234848
-0.022714
-0.00176353
-0.207368
0.000610466
-0.000667239
-0.0185623
-0.0289304
-0.001861
0.29393
0.237491
-0.211565
-0.0342135
5.97977e-05
-0.0070822
0.0133084
-0.00684468
-0.0105983
-0.00266063
0.00155857
-0.00338051
-0.00327917
-0.00397307
-0.000550296
-0.142918
9.2004e-05
0.0111284
-4.54996e-07
-0.0590923
0.000346662
0.390801
0.148452
0.167894
-0.0343381
0.184282
0.088815
-0.00192107
0.00169281
-7.87558e-05
-0.00440993
-0.0268148
-0.0069845
-0.00732007
-0.00913415
0.000342466
-0.00011183
0.000238487
-0.000827656
0.0498804
-0.0107979
-0.0192561
0.000131373
-0.0884281
0.000659257
-9.62626e-05
0.210543
0.0608277
0.294605
9.80088e-05
0.000189926
0.00173288
-0.0222529
-0.00594994
-0.0834242
-0.0266683
0.117837
-0.00825731
0.295242
0.000692717
0.00147624
0.35438
0.200167
-0.0614654
0.00251495
-0.0582149
-0.00822114
9.88538e-05
0.0110266
-0.0560564
-0.0258803
-0.0379642
-0.0108235
0.0476374
1.00836e-07
0.00256051
0.028549
0.0294549
0.410561
1.09928e-06
-3.77966e-05
0.0018245
-0.026193
-0.000457909
1.99994e-05
-0.0040165
0.72287
-0.0437498
0.272779
-0.0178363
0.549638
0.123801
-0.00336434
-0.0916795
-0.050999
-0.00997582
-0.000973913
-0.00430059
-0.00122102
0.447835
-0.0250887
0.335478
-0.0190143
0.165866
-0.0188513
-0.0137884
-0.113828
0.134359
-0.0026965
-0.000150235
-0.000243373
-1.35164e-05
-0.0106765
-0.0512625
0.000334471
0.0119059
-0.000159086
-0.000162023
0.00210095
-0.017473
0.000775095
-0.000136839
-0.0207009
-0.00449975
-0.00442431
0.474218
-0.0584114
0.00630264
-0.0125871
-0.0349969
-0.000540089
5.75331e-05
1.07469e-06
-0.0330111
-0.050489
-0.0308322
5.63628e-05
-0.0143136
0.0608591
-0.117883
-0.0249993
-3.86501e-05
-0.026631
-0.0162575
0.0001812
1.83111e-05
-0.0260123
0.00176957
-2.87762e-05
-0.0712722
0.000538814
-0.0547146
-0.0209642
-0.017776
-0.0177956
0.000101746
-0.0376337
0.000380656
5.64293e-05
0.00437192
0.249194
0.586295
0.21096
-0.0121095
-0.0122683
0.233657
0.0142226
0.000334703
0.0393384
-0.0148723
-0.0177048
-0.00422061
0.0618653
0.00104292
0.208164
0.000639885
-0.00570855
-0.018765
0.258532
0.000375753
-0.0249619
-0.0819619
0.114626
-0.0259876
-0.00562718
-0.0927395
0.000130408
-0.211284
-0.00475414
0.0197931
-0.022
0.00275652
-0.0205301
0.241011
0.567207
0.184451
0.169766
-0.0451387
0.0638218
0.0146398
0.242642
0.299565
-0.000242432
-0.00151948
0.583021
7.02502e-05
-0.203866
-0.110536
-0.0191291
0.000928001
0.0296803
-0.00128523
0.00170737
0.451915
0.66785
-0.000117896
0.000390206
-0.00285453
-3.41207e-05
-0.146907
0.206571
0.135384
2.4562e-05
-0.0386772
-0.0314568
0.000677049
-0.0031123
0.079911
0.654519
-0.000103943
1.25623e-06
0.239936
-0.00344541
-0.000121775
0.0346642
0.00415745
-0.00343913
-0.00195551
-0.187467
-0.0158102
-0.00125667
-0.0287383
0.000401572
-8.52241e-05
-0.00304037
-0.03057
-0.000179047
-0.0207479
0.00079054
-0.0249799
0.261713
1.10745e-05
0.859812
-0.0419103
0.549183
-0.027508
-0.000424607
1.40967e-05
-0.000315944
-0.0059624
0.119699
-0.00263807
-0.013829
0.456309
-0.0537715
-0.0540662
0.00734244
0.00568959
0.468819
-0.000368018
-0.0247554
-0.0194208
0.000312751
-0.0123248
0.000811294
-0.00974798
-0.0548087
0.735819
-0.055974
-0.00208633
-0.020569
-0.00297377
0.0194795
0.0836785
-0.0154919
8.28328e-06
0.269599
-0.013163
-0.0601209
-0.00259052
0.00374448
-0.0351505
0.00450269
-0.113126
-0.000739164
0.367957
-0.0059991
0.082363
-0.0372718
0.0290068
-3.86504e-09
-0.0344925
-0.0208044
-0.0252362
0.0335411
-0.0718678
0.000412031
-0.151343
-0.00124942
2.86295e-05
-0.00253123
0.000358823
0.663846
0.000321141
0.388126
-0.0209871
0.0277276
0.0028272
0.0843614
0.00327418
0.160627
4.03259e-06
-0.0273639
-0.00169412
0.00124441
-0.0252289
6.46131e-05
-0.0656143
0.582992
-0.105206
0.000334897
-0.105347
0.119026
0.473737
-0.00048676
-0.000228329
-0.00173595
0.000273005
0.598216
-0.0156263
-0.0342272
0.12882
0.000262999
-0.0987827
0.186921
-8.62887e-05
0.0161335
0.578726
-0.00194407
-0.000639273
0.000499908
0.00302106
-0.0186491
-0.00613678
0.31986
-0.00980461
0.742256
0.893891
-0.00253455
0.000159688
0.339591
-0.00338373
-0.0163285
0.000369738
0.140824
-0.0375872
0.712634
-0.00159776
4.13526e-05
-0.0132611
-0.119876
-0.0387278
-0.00600114
0.00989519
0.120897
-0.00013535
-0.100872
5.27292e-05
0.00157038
4.794e-08
-0.204389
-0.0626926
0.208368
-1.41087e-05
0.567945
-0.000336855
-0.0118394
-0.000490889
-0.0565024
-0.0126085
0.0628433
-0.000115559
-0.0382785
-0.0027526
-0.0128795
2.40346e-05
1.7536e-05
-0.000193187
-0.040449
0.00143703
-0.000916206
-0.0280136
0.000195869
0.000406949
-0.0011813
-0.000414181
0.231152
0.0594988
-0.132321
-0.0226588
-0.054023
-1.11578e-06
-0.096589
-0.0559735
0.00047526
-0.0308316
-0.0018025
-0.0322483
-0.158718
0.000627081
-0.017453
2.97955e-05
-0.00561051
-0.000309687
0.230396
-0.00759609
0.000249336
-0.000128163
0.0277395
-0.0445036
-0.00336537
6.52055e-05
0.323535
0.382882
0.0013337
-0.0110695
-0.112517
-0.0549044
0.000167202
-1.48783e-06
0.245013
-0.0310741
0.000203964
-0.0203295
-0.000720192
-2.06284e-06
0.0492529
-0.0755882
-0.0557111
-0.0572756
-0.0218916
-0.00648413
-0.0158504
-0.000716725
0.156449
-9.75345e-05
-0.0321202
0.0339443
6.74467e-07
-0.105215
-0.0116161
0.141326
-0.00101411
-0.00945685
0.462113
0.0465435
-0.0445518
-0.0197981
0.241983
-0.00162331
-0.012226
-0.0368875
0.203875
-0.000985863
-0.000278231
-0.136632
-0.0096146
-0.0126542
0.79238
-0.00633962
-1.70474e-06
-0.198547
0.00216255
0.00507581
0.160304
-0.169196
-0.0533445
-0.0020566
0.142434
-0.0204724
0.0501439
-0.00562376
0.116143
0.0839944
-0.0255767
0.111524
0.180803
-0.000308276
0.0437049
0.667588
-0.133737
0.000454696
-0.0560589
0.144769
-0.018094
0.0296979
0.23773
-0.00402433
-0.00193406
-0.00522276
-0.00397293
-0.053598
0.0191859
0.000402344
0.474206
0.735913
-0.0319947
-0.00163511
-0.0452578
-0.0365431
-0.0383862
0.250676
0.276907
-0.00207166
-0.0293811
-0.0365521
-0.000902614
0.0432063
-0.0565492
-0.00276667
0.0345854
0.00034642
0.162126
-0.120385
0.124635
-0.0619211
-0.202871
0.430988
-0.00119597
-0.0477919
-0.0972588
-0.000122399
-0.0207703
-0.0971189
-0.166419
-0.0647735
-0.00464582
-0.0126668
-0.00111509
-0.182605
-0.000277189
-0.0152105
-0.0592656
0.158839
-0.0536649
-0.0560844
-0.00912599
0.0016123
0.205666
-0.0453769
-8.49539e-06
-0.0025821
-0.000721407
-0.0120169
-0.0198484
-0.0014666
0.0500633
-0.199282
0.00152402
-0.0325384
-0.0139018
0.0398308
0.0015445
0.00293299
-0.00350486
0.826861
-0.0325596
2.56018e-06
-0.00271842
-0.000288871
0.273804
-0.013088
2.18726e-07
-0.00961261
-0.00186725
-0.0630524
0.125104
0.0469589
-0.102529
-0.0220498
0.000954917
0.47731
-0.0248812
0.0923161
-0.00578805
-0.114193
0.00841514
0.00302803
-0.000110655
-0.0115406
-0.000133638
-0.0660155
-0.000906563
-0.143645
4.18107e-05
-0.00226006
5.99619e-05
-0.00265671
0.000144023
0.126388
-0.0203105
0.4476
-0.0105369
0.0867117
-0.154087
-0.00108214
0.440277
-0.0388171
-0.0197788
0.908348
-0.000459111
-0.00908602
-0.183184
0.0305457
6.11942e-05
-0.019019
0.00568963
-0.0473015
-0.024631
0.577888
0.00217097
-0.186004
0.124467
-0.161616
0.00375832
0.001636
-6.21222e-07
-0.000102025
-0.00156604
0.0129123
-0.000356375
-0.00317082
-0.00227397
0.476079
0.386931
-0.0628173
0.000121202
-0.0913754
0.0470126
-0.12529
0.000122795
-0.105743
-0.0393954
8.38096e-05
-0.00500732
0.0370951
-0.026855
-0.000764057
-0.0515574
0.813844
-0.0862154
0.000342226
-0.0571816
0.0311904
0.000478477
0.000107872
-0.182913
-0.00148571
-0.169854
2.23702e-05
-0.0088324
-0.0390392
0.688958
-0.0105785
0.00443255
-0.0192303
-0.000148679
0.122907
-0.000301065
0.0251365
0.140314
-2.94174e-05
0.0346853
0.00183643
0.720379
0.902918
0.0131209
0.629985
0.474248
-0.0993896
-0.0404913
0.000259283
-0.012752
-0.0406786
-0.00148278
-0.000118066
-0.00234452
-0.000567566
-2.58255e-05
-0.0124656
-0.000532063
-0.0321611
-0.0740553
-1.56079e-05
-0.000166655
-0.155402
-1.61156e-05
-1.47894e-05
0.121033
-0.0183889
-0.0385872
-0.000882162
-0.0570358
0.0134574
-0.0411409
-0.00329843
0.0037287
0.158728
0.0362741
-0.0387252
0.000344476
0.000585981
8.99799e-06
-0.0240042
0.354292
0.00830622
1.68595e-05
-0.182334
0.000135081
6.96991e-06
0.110487
0.000661273
0.672554
-0.00161726
0.243916
-0.00815811
0.00368943
-0.00922945
-0.000133411
0.155714
-0.000669317
0.00157513
0.607089
0.578622
0.845048
-0.0022136
-0.184886
-0.0104949
3.20277e-05
-0.0372377
-0.00495084
0.240814
0.226981
0.00243946
-0.122125
9.09719e-05
0.0418704
-0.000831925
-0.0104105
0.00490032
-0.00192516
-0.00402782
-0.0168579
-0.00305111
-0.0166213
0.124585
0.0020182
0.154887
-0.0258971
-0.188982
-0.00649173
0.035837
-0.0203505
0.83315
0.380021
0.012401
-0.0188466
5.40613e-05
-0.000664658
-0.0240901
-0.0546732
-0.0405809
0.0347797
0.229965
-0.13922
0.0662606
-0.000218054
0.00860732
-0.00560277
0.217912
-0.0569935
-2.86369e-05
0.148361
-2.39274e-05
-9.09676e-05
-1.40943e-05
1.25454e-06
1.0429e-06
0.221988
0.00312375
-0.0284671
-0.00114304
-0.213615
-0.0417111
0.411814
0.00208742
-0.000862793
-0.0027381
-1.41159e-05
-0.000651735
-0.0932811
0.0102282
0.149722
-0.00545396
0.124911
-0.0197423
0.00721387
0.0226507
0.000641201
0.591294
7.3889e-05
-0.00335329
-0.000608521
-0.0191042
-0.00893265
0.179576
-0.00345364
4.72817e-05
-0.100136
-0.00485958
0.251288
2.47961e-05
7.98056e-05
5.64903e-05
-0.0335639
-0.00260899
-0.0239844
-0.0551827
0.0928984
0.412194
-0.00147289
0.000128469
0.000499633
-0.00113809
0.0870906
-0.0551356
-0.00301243
0.0347879
-0.210692
0.000664526
-0.1
-0.00257927
0.00234058
-0.0411962
-0.000346721
0.0173396
0.23293
0.370269
0.165523
-0.000136579
-0.183726
7.06979e-05
-0.0298114
-0.0304348
0.0535479
-0.00893309
-0.140514
-0.0271294
-0.037229
-0.0048676
-0.00889732
-0.027348
-0.126911
5.70925e-05
0.0805344
-0.000483545
0.255914
0.0476511
-0.00462079
0.000133171
0.000693563
-0.0177195
3.91695e-05
0.0917964
-0.00888807
-0.117847
-0.0787041
0.0544316
0.47365
-0.0123443
-0.0271122
0.137844
0.0205009
-0.000948927
0.00242981
0.850238
0.00159966
-0.00177744
-0.152169
-0.0128517
-0.0261304
-0.00349244
0.220894
0.000173787
0.108737
0.479503
3.64303e-06
-0.012679
0.000102829
0.0853488
-0.0114549
0.00692645
-0.00607251
-0.013334
-0.0257093
-2.08102e-05
-0.00198105
-0.0133859
0.00880112
-0.00347438
2.87584e-05
-0.00209112
-0.0305053
-0.056229
-0.00540372
2.69607e-05
0.0161341
-0.000950564
0.000685985
0.0271823
0.158865
-0.0175757
-0.0281332
0.054548
-0.000695904
-0.00015833
-0.0315771
-0.000396782
-0.000551493
-0.0165287
-0.0153642
-0.00038058
-0.00646489
-0.00200808
0.0204689
0.000142946
-0.000314686
0.000101195
0.0884137
-0.000951439
-0.00332649
0.018874
-1.25505e-06
0.000106347
-7.99848e-05
0.219045
-0.00114758
-0.00567119
-3.99941e-05
-0.119039
0.12837
-0.00321904
-0.129618
9.90647e-06
-6.26557e-06
0.00783239
1.72647e-05
-0.000117375
0.440776
0.00343377
-0.00195637
-0.0583127
4.30748e-05
0.000663133
-0.0105648
-0.0014817
-0.000758073
0.567118
-0.000173276
-0.0591938
0.21369
-0.000110452
-0.0276412
-0.00038732
-0.0282348
-0.0400857
0.023524
-0.00681093
-0.000425888
-0.00637494
-0.110432
-0.00297275
-0.0174774
0.000874414
-0.000614311
-4.21126e-05
-0.00016742
-0.0678099
-0.0242294
0.103245
0.00236352
-0.0126467
0.815005
0.114391
-0.0548325
-0.000159136
-0.025486
-0.0314968
0.0439994
-0.0509927
-0.0911058
0.0860438
0.0966694
-0.017769
-0.0501929
0.379491
-0.0586064
0.000236316
-0.0572832
-0.0584316
-0.00796738
0.00636953
-0.0202221
-0.00147875
0.0185139
-0.0343078
0.357303
-0.0474124
0.36402
-0.0353456
-0.000511491
0.00257022
-0.00015344
6.5166e-05
1.52123e-05
0.162601
-2.23285e-05
-0.0258309
-0.000430453
0.00812768
-0.0393425
-0.000295203
-0.0138286
-0.0276341
-9.67472e-05
0.161352
0.00472679
-0.000778379
-0.0259428
0.0697242
-4.93692e-07
0.0459951
0.000691236
0.0918231
-0.04313
-0.0363251
-0.0268884
-0.000767416
-0.000551028
0.116317
0.218944
0.216036
-0.00513569
-0.0297329
0.353507
0.0414365
0.00660755
-1.05243e-06
0.112724
0.018846
-0.000394307
-0.0976154
0.437093
-0.0199383
0.000605653
0.719245
-9.55229e-05
-0.00781181
0.0857791
0.229034
0.0895596
0.0908102
0.5059
0.184831
-0.000171946
-0.000485621
-0.00087952
-0.000755328
0.0967008
-0.0252842
0.338402
-0.0186558
-0.00647504
-0.0176053
-0.0885585
0.00052188
0.000725037
-0.00047753
-0.0330421
-0.00132682
0.00478521
3.43386e-05
5.82804e-05
9.94804e-05
9.19008e-06
0.000589361
-0.1137
-0.00746319
-0.121799
-0.128513
0.784814
-0.0351509
-0.0003335
-0.00165947
-0.157876
-0.000742181
-0.000106493
-0.0129926
-0.00225726
-0.000537282
-0.00662151
0.031495
-1.08046e-05
0.00194291
0.00230923
-0.00051015
-0.000226867
0.00280272
0.000890892
-0.0393646
0.0323532
-0.0611058
-0.0114268
-0.0153815
-0.0447864
-0.000956407
3.54975e-05
0.00018671
-0.00415886
0.157698
-0.131012
-0.00546865
-0.00940477
-0.102911
-0.00035833
0.478922
-0.0105701
0.063549
0.000664846
-0.000447816
0.000140965
-0.0703785
-0.0588859
0.457442
0.47993
0.115691
-0.0126667
-0.0306417
-2.20909e-05
4.19377e-05
-0.00755111
-0.127039
0.203523
-0.111473
-0.0303262
-0.0344404
0.134524
-0.0197917
-0.154713
2.29712e-06
-0.0376374
0.161493
0.00289944
-7.38108e-07
-0.00764554
-0.00408865
0.213686
0.058551
0.00181503
-0.0157118
0.82325
-0.0113039
5.57638e-07
2.77679e-05
0.00545376
-0.0127127
0.0848834
3.23727e-05
-0.079254
0.00195862
0.000111564
0.555483
-0.00776359
0.0862194
-0.00827473
0.000686026
0.0105634
-0.0773184
0.12495
-0.0189169
-0.0117104
0.556678
0.000585262
0.0235632
0.0685476
0.335236
-0.00095177
0.0722323
1.02035e-06
0.000512044
0.11672
-0.0107575
-0.00624886
0.0455124
8.75558e-05
0.205287
-0.0678826
1.39788e-05
-0.0504672
-0.00184477
-0.00655683
-0.000178763
-3.57736e-05
-0.0333564
-0.10274
0.000652451
-0.00513089
0.00159958
0.0894246
0.414678
0.000206472
-0.00176504
-0.000345948
-0.0360211
-0.000210681
0.000108858
-1.55482e-05
0.359048
-0.0116396
0.000720772
-0.0431931
-0.0262587
-0.0532094
0.405982
0.251493
0.221499
1.50756e-05
-0.180691
-0.0354952
-0.0080581
-0.0525108
-0.000969508
0.159123
-0.0151502
0.00687272
-0.000840561
0.0126495
-0.0528166
0.00983071
3.47814e-06
0.0316951
-3.50169e-05
-0.000228793
-0.0645548
-0.00118847
-0.0328168
0.798367
-0.010416
0.00125025
-0.0022974
0.13921
0.232588
0.467786
0.241417
-0.0550721
-0.00179727
-0.000593426
-0.0232657
-0.0291016
0.00198064
-5.37805e-05
-0.063617
0.00142394
-0.0231446
-0.00934212
-4.519e-06
-0.0957501
0.0124823
0.53882
0.123298
-5.49176e-06
0.0221387
0.000689756
-0.0509233
-0.0552206
-0.0117449
0.44451
-0.00039715
-0.0321038
-0.0220902
-0.000339431
0.000160205
-0.0268568
0.112331
-0.0373766
-0.0335222
0.00544628
-0.110619
-1.50935e-06
4.03087e-05
0.00318798
0.00332307
-0.0258614
-0.000584815
0.161154
-8.31315e-05
-6.1906e-07
-0.000649321
0.00268089
-0.0107582
-8.78751e-06
-0.0223466
0.0334649
0.138735
-0.00217888
0.280649
-0.0158387
0.140925
-0.0088327
0.007201
0.000105327
0.0131199
0.00519526
0.0549446
0.669017
0.182223
-0.00949379
0.000157414
0.212012
-0.00819601
0.217799
2.93189e-06
0.00345824
0.0105021
0.500789
0.00024438
1.37344e-05
0.165428
0.474244
0.0983642
6.10527e-05
-0.177599
0.0618745
-0.00328192
-0.00101392
0.000367187
0.0232097
0.00730325
0.350479
-0.00171164
-0.0377828
-0.00289276
-0.00234241
-0.00124781
0.410946
0.0932357
-0.0129249
-0.000646122
0.066001
-0.0803869
0.00285113
-0.030156
0.000281963
-0.0303494
0.0128362
-0.0136097
-0.0022857
-0.0579251
-0.00801125
-3.36914e-06
-0.116941
-0.00278719
0.000148939
0.00887462
-0.00138038
-0.00344927
0.0225542
-1.34094e-05
0.00746014
-0.0412416
0.25794
-0.000163836
0.727166
9.24649e-06
-0.00690393
0.00630961
-2.64516e-05
-0.00622999
-0.00179371
-0.0545198
0.183361
-0.0222722
-0.0672901
-0.0360096
0.298526
1.03377e-05
-0.137342
0.0372538
-0.0265338
1.48985e-05
0.81337
0.00505382
0.00640716
-0.00367528
-0.00247898
-3.42429e-05
0.2607
-0.00520099
0.118857
0.000251084
-0.0417167
-0.000938899
-2.01719e-06
0.351714
-4.31345e-05
0.158607
0.608501
0.141347
-0.00759262
0.146467
0.124304
0.282339
0.3477
0.216785
0.548948
3.66827e-06
-0.0248781
0.145023
-0.000472295
0.106355
-0.0356379
-5.0233e-06
-0.000202042
-0.0267496
0.728315
-0.00124971
0.00464948
0.0900211
-0.000183814
0.000123558
0.00740667
-0.0245212
0.00748897
0.262842
0.710865
-0.0255994
0.358859
-0.0341371
0.0323275
0.442876
-0.000140456
0.183998
-0.00603552
0.0214354
0.00153384
-0.119253
-0.0110913
-0.0446355
4.85566e-06
-0.0201651
1.78497e-05
0.156818
0.737778
-0.166081
0.000795778
-0.0456173
-0.0318443
-4.18085e-05
0.00578482
-0.0259128
0.00600058
-0.0292872
-0.0239091
-0.000515466
0.000221819
0.0409039
0.000222254
-0.0283557
1.9696e-05
0.0994163
-0.0014513
-0.0317355
0.000219112
-0.00535711
-0.0351689
-0.0128589
-0.0502755
0.000701352
0.0613893
-0.0320317
-0.0575441
-0.00010933
0.0400142
0.0407487
-0.0812991
0.34529
-0.00650446
-0.0579757
0.00866741
-0.00457594
0.00452007
0.000101942
-0.163762
-0.0187198
-0.00321021
-0.000107504
-0.000683641
0.0830795
-3.56008e-07
-0.000454022
0.000126594
-1.49909e-05
-0.00174521
0.41081
0.854247
-0.000315849
-0.0102552
-1.51229e-05
-0.053029
0.00276288
-0.00918247
0.0182527
-0.00137221
0.125048
0.00249973
-0.001321
-0.00156119
-0.00522272
-0.00204329
-0.000226639
0.301875
-0.00198335
0.720476
-0.0224603
1.14651e-05
0.0911588
-0.000657836
-0.0239271
0.156873
-0.00349381
-0.0224882
0.707097
-0.0318177
0.000357666
-0.0785259
0.0479596
-0.00654738
-0.0355155
-2.89036e-05
-0.024252
0.000743851
0.487127
-0.0137679
-0.0250575
0.0188246
-0.00650921
-0.0168466
-0.0193467
-0.0220635
0.140566
0.00106921
-0.122349
-0.0063814
-0.00190944
-0.000432654
0.00447184
-0.0347626
-0.00101893
-0.0771939
0.00522486
0.000806874
-0.0376549
-0.000260009
-0.000444935
-0.00139439
-4.3387e-05
-0.0563548
0.00113772
0.126236
4.32275e-05
-0.00044037
0.000105486
0.602421
-4.3608e-05
-0.0525866
-0.0017623
0.144577
0.000405008
-0.00471753
0.00293761
0.00189677
-0.0134419
-0.0355174
-0.0341863
-0.0220945
-0.00574136
-0.000345251
0.0890327
0.0293975
-0.0383575
-0.000898489
-0.217625
-0.0348324
-0.000118882
-0.00756297
0.0449802
0.707834
0.35745
-0.00299655
-0.136257
-0.0113566
-0.000464196
-0.000187055
-0.0251483
-3.85731e-07
-0.101815
-0.0226715
-5.17771e-06
6.11325e-05
-0.0395787
0.00992495
-0.0310837
0.0409608
8.61028e-05
-0.0350915
0.0162856
-0.0322503
0.000216486
-0.0340242
-0.000378071
0.160469
-0.000509799
-0.0480272
-2.22306e-06
-0.00261173
-0.0270176
-0.143748
-0.0128231
-0.0289062
0.000176884
-0.0457219
-0.0112087
-0.022334
-0.0719369
0.00455416
0.0403816
0.736744
0.00267608
0.0162997
0.000390932
8.80899e-05
-0.000149319
-0.0392782
1.81872e-05
-0.00150048
-0.0346329
0.647302
0.666417
-0.000608813
0.209538
-0.00656615
0.000756838
-0.00116861
-0.0325308
-0.0381403
5.9835e-05
0.0195093
-0.0208339
-0.110367
-0.0579658
-0.0585072
-0.022666
2.99528e-05
0.000841743
-0.00710155
0.166761
-0.0346148
-0.0460019
-0.0303853
0.65342
-0.011131
0.13849
-3.50919e-05
-0.031944
-0.00447485
4.8602e-05
0.00101618
-0.00352573
-0.00350832
-0.0583857
-0.00376755
0.0213372
0.411104
-0.00674054
2.5566e-06
2.31107e-05
-0.0259193
0.0330663
-0.0252975
-0.00886654
0.00111663
0.000535193
0.0982401
-2.70419e-05
-0.0213728
-0.000609876
-0.00685875
-0.00335405
-0.00361481
0.00727433
0.00803397
0.0055378
0.0264808
0.904594
-0.0736824
0.222627
0.0489509
-0.0414162
-0.0611997
0.00468227
-0.0414279
-0.0209565
0.126046
-0.0179277
0.000103444
-0.00552635
-4.21324e-07
-0.0508925
-0.00232482
-0.00179694
-0.00604625
0.129937
-0.00016369
-1.32847e-05
-0.0656666
-0.149595
1.27252e-05
3.17206e-05
0.00117207
-0.181663
-2.4505e-06
-0.0382678
-0.00122334
-0.0256284
-0.0249514
-0.0958541
-0.0157347
0.00288313
-0.0415979
0.000249917
-0.00067649
0.256454
-0.00683228
0.0143425
0.000100253
-0.0222669
-0.022449
0.000120268
-0.0180882
-0.0211035
0.00282474
0.449406
-3.11043e-05
-0.146356
-0.000671941
-0.00114266
-0.000327843
-0.00340767
0.194843
0.00402558
-1.03652e-07
0.0650101
-0.0108029
-0.000389819
-0.124719
-0.00139288
0.0322995
-0.0595294
-0.000134999
-0.00133111
-0.0379319
-0.0249363
8.43191e-05
-0.170178
-0.0247165
0.00814389
-0.0382175
0.00907464
0.415222
-0.00727139
0.019311
0.116236
-0.000395536
-0.000334608
0.245387
8.75454e-06
0.884679
-0.0144974
-3.77893e-07
0.141159
0.182165
-0.209465
-0.00346803
-0.0300147
0.0336098
-0.00537832
0.0101635
8.65484e-08
-0.00703327
0.0384842
-0.0231853
-0.0171948
-0.00219782
-0.0415584
-0.00410416
-0.00247428
-0.000116508
0.0448327
0.690125
-0.0308026
-1.14842e-09
-9.57115e-06
0.00112198
-0.00118604
-0.168539
0.141232
-0.0420311
-0.0227687
-0.09836
-0.109042
0.622089
6.79621e-05
0.00552139
0.00556032
-0.0445006
0.00167134
0.0653061
-0.00218607
-0.000670296
-0.00711426
-1.64905e-05
1.2133e-05
0.0302377
-0.00162715
0.154776
-3.0819e-05
0.0452742
-0.00850647
-0.0310402
-0.0223579
-0.0260924
-0.0580997
0.00947125
2.65375e-06
0.048958
-0.102889
-0.0100555
0.0902949
-0.0404673
-0.0169838
-0.0342888
-0.197108
0.0926943
-0.186913
0.0450777
0.000269859
-0.0226659
0.000198174
0.136524
0.0103756
-0.00015836
-4.36446e-06
0.0974231
-0.000720996
0.0401156
0.094213
-0.164563
-2.51086e-05
-0.0192802
0.46007
0.0895099
-0.00567702
0.13883
0.00167242
0.0423755
0.000346448
-0.0014226
0.0136493
0.181747
-0.0364312
-0.000235287
-0.000662072
9.71827e-05
-0.0488591
-0.0416971
0.0452803
0.00130777
-0.0183653
-0.126115
-0.0399723
-0.0777073
-0.0412802
0.260249
0.0288311
-0.0792245
-0.0015807
1.3247e-05
-0.0091498
-0.101087
0.00168863
-0.000177734
0.116529
0.0689545
-0.0273526
0.102877
0.00347104
0.441559
-0.00118657
0.161852
-0.0889273
-0.00152157
1.97784e-06
0.0302176
-0.0260355
-0.000665932
-0.0114992
0.225063
0.227682
-0.0155752
0.437563
0.149834
-0.0260763
-0.0241365
-0.0544274
-0.00308563
0.135776
-0.0489836
-0.000236724
-1.30763e-06
-0.000657969
-0.0313986
-0.00476272
-0.019636
-0.0735895
-0.114306
-0.000806695
0.478249
-0.0140733
0.245603
0.744044
0.139953
-0.0611967
-3.945e-06
-0.0249196
0.00150922
-0.00694674
0.415961
0.105462
0.083824
0.610915
0.00572676
0.0350915
-0.0343298
4.32508e-05
0.199785
-0.00406493
-0.0566727
-0.0207666
0.00652858
3.16495e-05
-0.079514
0.0452778
2.2191e-06
0.733424
0.0693271
-0.000279625
-0.000175611
-0.000905956
0.205004
0.056011
-6.09729e-07
-0.000920137
9.41172e-05
-0.000144629
0.00129549
-0.000902201
-0.00674067
-0.00333217
-0.00179601
-0.00701056
-0.000329535
-0.000276066
0.0279561
-4.63616e-06
-1.47992e-06
-0.0585472
-0.0420618
-0.00381671
0.355606
-0.0377338
-0.000539381
-0.00720155
-3.68533e-07
0.00331867
-0.0527427
-0.101524
-0.126367
-0.000243831
0.255711
-0.00571389
0.118479
0.0134906
-0.0200567
-0.0197951
-0.00910634
5.64678e-05
0.00700255
-0.123719
0.000257813
-0.0379314
-0.0431656
1.07301e-05
0.802111
0.113249
-0.000988885
-0.0440952
-0.020053
-0.0193415
-0.00934519
1.33635e-05
-0.0253162
-0.0154603
-7.82262e-07
0.0666879
1.59756e-05
-0.000802929
-0.0304294
-0.0584787
-0.00474217
-0.00594389
-1.32511e-06
-0.046714
0.00160633
0.136882
-0.0258383
-5.20456e-06
-0.00489044
-0.00102526
-0.0652414
-0.151332
-0.0949983
-0.00770847
-0.0524757
0.100595
0.000921349
-5.58618e-07
-0.00237022
-0.030297
-0.0185142
0.591626
-0.0396839
0.86069
4.654e-05
-0.0307306
-0.0581345
0.212078
0.442636
-0.00927176
-0.00132431
-0.0551079
1.18373e-05
0.643911
0.20438
0.0817622
-0.032073
0.0495807
0.102229
0.571222
0.201817
0.153362
-0.0480871
-0.11381
0.234354
-0.0574377
-0.00099126
-0.0921523
0.0185653
0.000654304
-0.0226401
-0.000153747
0.00398186
-0.00346901
0.00178714
-0.024974
0.000100719
-0.0249437
-0.112193
-0.0483463
1.91127e-05
-0.00380662
-3.42229e-05
4.49066e-05
0.119893
-0.0533257
-0.0125398
-0.000287459
0.00864671
4.97409e-06
-3.14991e-05
-0.000420445
-0.000205767
-0.123114
-0.0392039
-0.00108195
0.08614
-0.00134883
-0.041288
0.0397791
-0.00804388
-0.0016555
6.55143e-05
0.0054125
-0.0316163
-0.00156208
4.74466e-05
0.00332408
-0.0728998
-0.0246523
0.0344629
0.000121655
-0.0248448
0.726258
0.000757678
0.000956948
0.0299801
-0.000386827
-0.000703394
2.51029e-06
-7.04462e-07
-5.26059e-05
0.0129578
-0.0530142
0.520477
0.803594
-0.000240665
2.91104e-06
-0.000237343
-0.0566417
0.916484
-0.0509344
-0.0574984
-0.0334445
-3.37382e-05
0.000707676
-0.0459316
-0.00237466
-0.0608764
0.00993749
-0.0815685
-0.0524705
0.00114617
0.642309
-0.121816
0.000451204
-0.00142228
0.00429061
-0.0182175
-0.159413
-0.0537918
-0.00771921
0.318821
0.474148
0.121905
0.280412
0.0520304
-0.0637349
-0.00756591
0.00390833
-0.00209511
-0.0267645
0.000369278
-3.61581e-06
-0.122269
-0.158273
-0.000517451
-0.0249814
-0.0581311
-0.0580468
0.465161
-0.0015171
-0.0245027
-0.0146331
-0.0320627
-0.0128587
0.0223705
0.00350994
-0.00376973
-0.0150643
-0.0139371
-0.0100908
-0.0272069
-0.00401262
-0.0577769
0.234633
-0.030906
-0.0136487
-0.00386035
0.111192
-0.107051
-0.0557167
-0.0911786
5.33369e-06
0.261003
0.0384756
-0.0390752
0.0015897
-0.0199242
-0.0133196
-0.00171958
-0.0414571
-0.0123343
-0.12376
-0.00579411
0.00160538
9.92814e-05
-0.000131768
0.0293602
-7.82488e-06
-0.0167797
-0.0332648
-0.0368164
-0.000146045
9.30362e-05
0.00021562
0.00147832
-0.0181881
0.0148223
-0.0473947
-0.0582098
-0.0584848
-0.0097405
-0.00220897
0.575446
-0.00995871
-0.00326703
0.277825
-0.0136923
0.295923
0.58757
-0.00882257
0.105186
-0.0121279
0.00753372
-0.00213216
-0.00154307
-0.0051014
-0.0312059
-0.161133
-0.0325422
0.00218237
0.0643504
-0.104752
-0.164935
-0.000233989