/*--------------------------------*- C++ -*----------------------------------*\
  =========                 |
  \\      /  F ield         | OpenFOAM: The Open Source CFD Toolbox
   \\    /   O peration     | Website:  https://openfoam.org
    \\  /    A nd           | Version:  7
     \\/     M anipulation  |
\*---------------------------------------------------------------------------*/
FoamFile
{
    version     2.0;
    format      ascii;
    class       surfaceScalarField;
    location    "25";
    object      phi;
}
// * * * * * * * * * * * * * * * * * * * * * * * * * * * * * * * * * * * * * //

dimensions      [0 3 -1 0 0 0 0];

internalField   nonuniform List<scalar> 
11512
(
144.171
-506.951
362.78
-769.532
1.73504
767.797
417.825
-372.956
-44.8689
648.179
261.284
-909.463
1510.46
-1069.41
-441.045
1216.26
-1527.11
310.842
-44.8145
472.277
-427.463
169.106
-841.074
671.968
961.98
-1610.75
648.767
-1767.47
1675.23
92.2367
-542.947
1759.21
-1141.86
1935.63
-793.766
605.92
181.359
-787.279
-25.4411
-1319.64
1345.08
222.414
-1989.88
1022.67
-385.383
-637.283
-187.635
331.806
483.214
190.654
-673.867
1154.73
-1315.26
160.52
-325.637
378.938
-53.3014
1009.52
-1322.77
313.253
1221.68
799.954
-2021.63
74.4207
-1646.83
1572.41
-488.168
-1162.03
1650.19
473.462
182.008
-655.47
-187.256
-319.695
497.668
1012.79
1654.21
-1812.78
158.568
-95.7705
-1689.22
1784.99
-1560.54
655.938
904.601
-311.211
652.926
-341.715
-192.795
-130.222
323.017
1290.05
-1215.63
355.321
-1407.26
1051.94
-1754.26
1754.26
100.172
1538.6
-1638.77
-1083.34
-477.198
645.654
-690.468
-387.36
942.073
-554.713
1331.77
-1317.17
-14.5966
-1100.44
713.082
623.289
399.377
-407.366
-22.5633
429.929
-455.843
793.231
-337.387
-1618.37
1618.37
1253.54
-1437.85
184.308
-489.107
1710.79
1253.57
-311.494
1660.72
-1161.21
-499.502
63.6729
-389.31
2067.12
-1136.47
-930.642
1820.7
-166.485
451.61
156.145
-607.754
-468.791
977.884
-509.093
-1175.92
1276.09
-566.842
969.686
-402.845
397.978
756.757
660.607
-491.5
-438.348
590.415
-152.067
1190.58
-835.255
2308.23
-1080.69
-1227.53
1164.5
-2011.04
846.535
-1608.88
1583.44
440.554
-1582.41
-758.803
1250.37
-491.571
-671.409
360.197
1661.43
-699.448
-1106.93
-870.9
1977.83
692.593
-379.56
-313.033
690.543
563.024
-258.215
1511.76
101.395
-312.153
210.758
-284.776
758.238
-333.348
560.618
-227.27
-324.431
807.645
-320.072
-141.156
461.229
321.126
96.6984
1466.99
-457.477
-993.566
492.483
501.083
266.282
97.2423
-363.525
947.335
-341.416
-1703.44
637.606
1065.83
19.7233
-862.299
842.576
-276.213
590.477
-314.263
158.261
-1093.91
935.648
1050.78
-1066.4
15.6211
373.132
517.183
-890.314
-245.363
696.973
-1103.07
-482.579
1585.65
-677.031
949.756
-272.725
1354.29
-1450.06
-649.989
287.089
362.901
-470.206
-1011.49
1481.7
-536.791
-796.44
1333.23
575.329
-995.304
419.976
-262.383
-314.655
577.038
402.304
-300.909
-1044.85
576.055
955.57
-797.309
-110.393
943.704
-833.311
-202.534
410.503
-207.969
-634.041
-359.524
-386.741
962.07
1856.36
-1856.36
-476.962
-173.027
-948.713
1565.51
-616.798
469.249
-905.189
435.94
-922.378
355.536
-941.904
-1058.08
-1497.49
343.726
1153.76
-272.998
921.177
-328.201
626.566
-298.365
-1941.9
999.992
-1147.28
-350.204
562.257
-1510.97
1728.51
-1725.94
-2.56686
202.149
-612.921
410.772
-1467.44
975.901
491.542
278.814
221.478
-500.292
305.713
-639.061
234.567
-408.77
174.203
2017.57
-867.26
-1150.31
-553.133
145.767
615.384
839.411
-1454.8
-183.206
417.774
431.677
876.139
-1307.82
-904.119
389.032
515.087
-1050.07
1448.04
-1068.37
309.567
747.663
-94.7372
566.096
-292.86
-273.236
1018.92
-526.439
593.441
-1403.68
810.236
-1342.11
239.046
-541.502
265.288
-1189.29
916.292
1943.7
-989.641
-954.057
276.798
1579.56
-2098.53
897.719
1200.81
355.554
-33.5549
-321.999
-223.044
478.81
-255.766
-97.846
-389.94
487.786
-460.848
140.775
337.574
-131.391
600.64
427.356
378.33
-805.686
-2042.26
1122.91
919.352
461.938
-526.802
64.8646
217.775
-358.438
140.663
1005.21
1012.37
1791.81
-253.203
741.967
-454.879
795.697
-1389.08
593.379
358.054
334.539
1060.16
-1040.43
-492.689
-247.416
740.105
469.902
-128.77
-341.132
795.597
-614.237
551.731
-734.419
182.688
503.332
1157.38
-1240.34
703.549
1037.05
-1525.22
-3.11906
-1439.42
1442.54
327.253
822.919
-1150.17
622.149
269.918
-892.067
-2270.77
1151.73
1119.04
-1104.65
-1166.12
183.279
368.451
959.069
-631.815
878.248
-898.039
19.7916
-2099.39
992.46
-218.693
-186.653
405.346
-42.0204
1770.53
-838.823
69.2917
-1030.99
-1067.53
-227.967
445.741
-686.458
209.496
-280.775
-426.408
707.183
1103.96
-1574.16
782.627
-1374.24
591.614
697.917
-436.634
1947.83
-1444.5
-378.283
-1375.98
67.0092
405.268
-535.699
537.434
25.4529
-583.517
558.064
569.137
-290.324
-599.728
275.768
323.96
786.294
-358.938
34.8921
320.661
1188.47
-1191.59
166.636
235.667
396.217
-676.992
618.574
-1005.31
-2026.76
2026.76
-265.721
-447.655
713.376
698.838
405.847
-1104.69
579.931
167.732
413.507
372.787
-2199.76
1328.86
-925.942
-680.095
1606.04
-481.045
-708.244
-255.142
555.416
-300.274
835.286
-209.823
-625.464
-454.573
656.722
364.906
-693.107
-373.848
-131.352
505.199
-1335.45
-477.336
641.715
-1122.76
-374.139
-1244.24
844.353
1463.87
303.862
-917.308
613.446
966.386
-343.097
1391.23
-797.785
441.382
-274.745
-324.188
-878.814
578.533
300.28
-342.597
-536.216
316.103
-413.949
-193
-158.167
351.167
-392.808
1091.65
433.877
-243.224
-385.741
1360.33
-171.62
-1188.71
-478.653
296.724
181.929
225.623
264.563
-490.186
3.09684
-737.516
592.174
-1729.07
1136.9
1485.16
-869.775
-1049.48
-417.962
-1056.09
574.36
481.733
1388.06
-412.163
928.67
-1411.25
-172.398
-187.758
360.156
-467.943
578.857
-1628.92
427.874
903.895
292.323
299.866
-592.189
568.04
1186.22
1102.92
-710.827
-392.091
395.215
-207.422
-187.793
-1419.43
446.483
736.934
-1183.42
1473.25
-544.578
-488.224
937.727
-449.502
426.159
1186.14
-1612.3
47.4144
-724.445
-151.793
418.075
198.42
-391.215
537.645
481.277
-599.889
43.6686
556.22
1024.52
-1307.65
283.131
669.86
-256.353
468.384
-1447.21
978.826
398.238
1688.35
-523.847
894.912
1048.79
-659.318
-1684.83
758.893
563.993
406.946
-970.938
456.36
79.0183
1750.13
-1829.14
1443.64
-379.491
-1064.15
1699.2
-1741.22
-365.55
-534.832
727.083
-192.251
-502.591
175.273
294.629
-373.155
-1225.93
214.443
-764.713
-638.964
-635.366
997.094
-361.728
-651.526
641.376
10.1509
654.825
-923.433
268.608
-713.974
353.555
360.42
-647.426
-697.405
349.248
348.156
-932.148
1400.53
-422.698
891.024
-468.326
-2205.32
5.55678
172.052
-531.954
359.903
143.42
1216.91
-102.843
-583.615
154.086
-592.434
1487.01
-704.383
388.031
-465.742
77.7106
-561.806
561.806
1222.97
395.401
1778.22
-1228.07
589.932
638.143
847.298
-51.7012
1292.38
774.74
-540.853
1336.55
294.014
296.462
270.295
-805.127
245.087
-700.93
226.507
-438.683
212.176
-249.117
586.41
-337.292
117.166
-366.283
-591.326
-564.677
1156
-376.315
550.109
-173.794
-1192.15
2032.03
-839.884
1288.56
-329.495
-397.691
135.308
-1982.93
820.907
1542.31
-850.487
-691.823
1987.03
-877.477
-1109.55
714.274
574.289
-240.07
466.577
-675.46
1152.17
-476.714
-769.375
1201.05
551.872
924.572
-1725.7
801.126
-551.365
-79.8256
631.191
306.364
259.732
412.925
-92.5845
-320.34
896.395
-83.5463
-812.849
929.946
-571.876
-358.07
1576.15
-472.195
893.283
-1629.29
736.008
1068.45
879.381
747.455
-437.549
-309.906
-1058.87
-258.305
569.208
575.964
-1145.17
-467.211
521.066
-53.8544
573.909
-337.644
-236.265
-987.836
565.138
594.602
890.557
-441.775
1096.6
1422.02
-785.196
-636.821
391.025
-923.447
532.422
-1038.32
404.278
565.057
-1053.28
469.9
-545.313
75.4122
482.898
310.333
-512.995
-48.8107
-794.002
-880.818
1674.82
184.487
210.728
-233.005
416.284
-28.4141
-566.438
594.852
498.364
870.659
-1369.02
-506.57
313.57
985.262
-88.8672
835.551
-1064.37
228.817
404.58
845.267
-1386.12
-457.825
836.156
1981.14
-1287.09
-694.051
269.61
608.637
255.567
795.216
92.223
-975.871
883.648
1673.72
-1088.95
-584.768
-138.018
1888.14
-1866.12
-160.647
482.623
-620.781
138.158
-1012.16
527.934
484.23
-1730.46
538.316
-955.515
845.122
392.897
197.518
579.318
-275.456
-418.628
708.223
258.163
54.164
719.415
-773.579
-1132.74
-895.348
2028.09
-543.279
1115.4
-572.118
-479.158
-325.041
106.348
-1657.08
863.074
-851.912
-612.119
1464.03
-329.574
-294.571
624.144
355.093
-655.942
300.85
252.726
-611.664
332.535
199.203
-531.738
359.381
-614.523
627.059
-271.966
315.54
-456.697
680.011
415.469
-189.846
-400.195
-297.21
1225.7
-2.38268
-1223.31
1038.82
-420.249
558.829
410.857
-1782.31
869.81
912.504
489.549
557.574
-1047.12
-532.745
203.171
-264.22
1181.83
-917.606
-1590.83
1212.54
504.615
-1095.94
386.638
1.39345
431.354
311.971
-743.326
368.666
-614.029
-36.693
758.998
-722.305
-525.05
794.968
394.247
321.061
526.237
651.603
99.5036
-414.171
314.667
1058.23
-644.676
-413.549
494.042
-1664.27
1170.23
-1140.31
1753.22
-612.913
1715.87
-1123.7
-334.102
609.87
-1183.54
1275.76
424.706
-799.898
1611.16
-811.263
-272.945
-205.707
-900.291
1472.14
1815.53
-610.793
-1204.74
-405.196
668.775
-1304.14
-124.666
-54.8147
467.739
-687.97
-354.182
-1236.64
-216.36
469.086
902.599
-561.329
171.388
-1674.82
-71.2979
1746.12
-1077.23
533.952
566.369
-1185.75
619.383
901.11
914.424
630.502
619.872
697.324
240.403
-1145.77
470.311
-397.713
423.166
616.024
-513.8
238.243
-731.825
493.583
704.98
-346.926
-313.839
183.617
-613.337
248.116
365.221
-886.531
-742.76
1087.67
-2145.74
396.197
-680.973
-342.817
-723.587
836.794
585.222
-342.874
320.311
377.081
232.774
639.035
-871.809
527.124
625.05
-548.819
174.971
359.255
-624.976
-1045.94
-849.687
1895.63
-1804.27
157.439
1106.75
-1370.97
1165.08
-717.33
-447.75
-504.389
1349.66
-1495.45
627.921
867.529
-284.523
-209.378
493.901
1428.43
558.593
355.219
-486.571
-480.748
-572.753
1053.5
-424.723
596.775
1583.12
-1130.69
-452.431
-787.04
339.385
654.542
403.683
-1623.42
416.184
1207.24
-186.445
518.98
797.63
785.492
202.72
-698.04
495.32
199.943
210.56
-279.609
-110.324
389.932
499.23
-2.90833
-496.322
-1644.87
595.391
-1610.54
1679.25
-68.7075
12.8179
-1623.36
1069.5
776.518
-345.163
-818.63
-219.69
-1134.58
-239.666
-312.159
680.825
-1812.84
-636.081
1212.05
219.086
758.798
-1332.24
-678.791
-465.975
623.564
-331.241
-1013.26
1350.8
-1932.99
582.194
647.15
1288.48
481.199
-2.38891
718.133
710.486
-1428.62
-636.737
329.695
307.042
436.118
-100.654
-335.464
143.566
315.852
154.693
-470.544
-593.241
1157.23
456.836
-641.005
-460.073
-401.883
861.956
-328.684
156.286
-456.285
155.377
-301.994
-710.17
541.925
-105.807
-576.451
967.476
573.742
-267.878
-305.864
453.162
-777.593
-648.917
454.483
-1129.38
-843.841
1187.57
-569.771
449.083
291.022
-462.701
83.1411
1027.5
-314.19
589.831
-275.642
-509.04
1578.54
-698.232
250.206
370.184
-620.39
225.152
495.338
-31.4648
-463.873
-263.861
-192.424
1010.36
1108.85
564.865
-884.53
950.201
-65.6715
-452.26
167.737
-743.61
317.203
-596.792
326.563
378.417
838.361
-1245.65
407.292
776.309
-813.002
-948.854
-550.392
1499.25
-172.821
472.687
-558.074
265.215
1306.38
788.226
-585.506
1324.22
-682.502
487.263
-667.517
-405.736
-421.27
-378.56
799.83
500.666
-842.081
-466.411
98.1061
368.305
-313.163
572.477
726.334
-330.137
-233.03
-175.313
408.342
-492.148
133.189
358.959
1461.18
82.4535
-1543.64
-754.617
1349.22
-1144.78
-465.971
547.499
-177.315
1152.92
-376.611
1083.44
492.718
702.382
-432.087
-884.796
-522.463
-1328.35
-21.9544
985.721
-963.767
596.416
342.404
-938.82
-344.429
-208.704
-683.352
405.538
1621.22
-190.624
380.814
342.685
-723.498
-1839.76
-2106.7
1519.15
587.55
-2038.34
349.114
375.2
534.632
-909.832
-460.514
1019.34
-407.187
-671.511
1078.7
-2030.55
1391.21
639.342
597.548
-1004.73
42.8121
427.088
386.375
188.695
252.686
322.517
972.748
877.036
676.836
-322.152
-354.684
-289.453
617.567
-328.114
570.45
532.468
564.618
514.614
-1079.23
-796.092
-699.359
751.36
401.56
-411.424
712.274
-1193.39
1609.57
432.057
-1103.57
-347.302
546.506
-1384.83
884.377
500.452
-713.714
-343.353
-779.361
345.396
433.964
447.297
717.612
-1164.91
1076.69
-587.143
-419.172
670.756
-251.583
251.301
322.441
-466.384
-432.346
898.73
-230.85
568.026
-963.792
395.765
-462.901
600.598
-1681.29
423.952
670.289
-1094.24
523.377
103.189
113.411
-2212.8
547.065
-97.9822
1444.78
1777.1
-217.549
-1559.55
-438.522
1789.32
-1987.22
1194.57
792.649
397.956
349.499
-41.5425
878.336
-1282.85
718.172
-868.267
-822.356
800.401
300.635
73.4614
-374.096
223.258
176.24
-399.498
1560.48
-842.351
-1530.93
-325.432
505.063
-223.582
-281.48
392.097
366.141
258.969
364.595
-10.8034
1003.1
-992.299
379.597
290.67
-670.266
-734.153
1817.4
-1083.25
-342.79
734.887
-1224.44
-414.332
-913.982
481.636
586.471
-789.588
203.116
759.072
-377.516
-381.557
-434.71
-449.82
450.792
1092.18
1240.88
-674.509
799.034
-345.872
384.23
329.147
-238.482
-227.26
-219.779
618.017
408.244
-845.691
437.447
229.51
352.834
-582.344
-420.475
828.718
754.141
-1146.95
893.464
-55.1034
-487.272
279.792
780.366
-96.4336
1384.91
1890.51
-52.3458
349.07
-319.734
419.237
-1087.85
1077.04
638.565
376.57
382.503
81.9224
423.14
261.905
505.891
-376.483
-260.254
-561.852
-89.6744
-368.458
364.155
4.30371
-257.761
-283.74
1010.82
-1540.69
529.864
-185.489
-187.467
-388.68
679.35
-1643.74
1590.96
-963.035
273.037
-678.774
584.33
1224.41
-1808.74
607.436
983.52
318.503
-1126.02
707.388
-287.865
-304.324
1384.26
-1452.62
834.054
618.564
435.511
-641.032
205.521
-388.062
487.119
-99.0574
383.681
115.549
1724.53
451.962
-252.019
557.658
-1704.79
1147.13
-97.6194
395.848
343.194
333.642
-448.717
-614.726
1063.44
413.131
-870.956
-640.416
902.424
570.824
-482.055
-231.919
-436.301
-409.39
-307.586
-826.99
1821.1
-1821.1
-102.266
-1597.1
1699.36
296.946
276.963
-916.936
-555.571
1472.51
-408.19
972.809
-605.577
-1039.3
694.279
398.306
-1092.59
470.79
-155.249
573.072
1220.34
-1793.41
-1042.61
2114.43
-1071.81
-378.774
-292.635
-489.349
828.733
-1757.82
1605.9
151.93
1757.82
-1611.7
-146.125
-240.537
519.172
-278.636
-537.306
1620.74
1572.21
-1986.54
1098.56
-293.927
-266.838
560.764
230.792
-578.095
-709.566
298.142
1343.1
638.032
585.65
479.809
-1065.46
272.563
429.82
875.254
500.112
-1375.37
539.206
-1019.95
1574.94
-564.122
-775.341
-363.846
-134.165
498.011
-490.281
1207.89
-742.133
330.166
366.807
380.762
247.745
-628.507
611.554
831.65
-602.833
262.711
687.491
-482.055
-330.487
-241.017
571.504
1168.46
-678.924
607.363
468.44
-1075.8
-1288.12
1288.12
-383.544
760.114
-277.575
-483.376
760.951
499.007
442.007
-941.014
395.249
-672.824
606.288
-870.618
264.33
-367.601
-490.363
1076.01
-659.714
-712.942
1372.66
-379.155
947.181
-1552.76
675.285
34.3613
-429.136
394.774
-520.396
729.892
265.725
320.685
163.457
307.333
-531.582
243.718
1870.35
-1966.79
264.046
-718.619
459.072
-825.502
366.429
-910.322
1422.83
-512.511
-430.259
-483.723
600.847
1124.17
-1725.01
-714.373
335.599
-463.371
1033.82
-791.069
1053.78
-373.773
-623.554
-499.417
744.504
538.018
-356.01
912.138
-316.332
-175.816
1599.03
-1816.58
-349.373
-614.419
-347.335
480.523
274.05
-605.291
-177.826
1070.74
-790.944
202.077
-301.008
-275.533
576.541
392.265
-888.338
496.073
-480.607
-463.002
-917.308
-360.518
594.863
-234.345
-459.391
-440.221
-349.317
-182.421
-404.248
651.993
-447.496
776.643
-1071.95
623.233
-1406.96
555.045
-28.609
-1839.12
1867.73
570.075
-450.472
1231.49
-697.536
297.662
-297.662
673.517
-450.936
1039.24
-1644.82
-1158.74
-947.961
288.459
329.107
894.101
717.06
-506.552
-304.666
811.217
1660.86
-1689.47
-433.505
338.756
230.382
1134.98
-527.616
-943.339
1550.49
-607.152
442.443
-253.748
374.523
398.785
-773.308
541.393
468.836
-1010.23
-331.439
661.605
-38.1002
1908.45
1601.5
992.477
-1696.86
726.626
-1176.71
450.081
-492.503
1367.76
836.747
-1341.14
-573.292
279.365
808.242
-401.297
548.988
-1192.69
643.701
-634.312
-1215.53
-695.693
1911.22
-192.343
561.794
-369.451
-180.993
320.875
-513.217
335.356
364.883
-700.239
-1489.34
757.007
732.333
883.989
-1434.38
822.51
-433.477
207.899
-359.691
-605.928
275.442
-657.872
-726.957
697.479
507.29
-1204.77
384.566
-205.925
-178.641
554.411
-957.256
-578.673
-427.943
745.145
-831.337
-1155.88
-1437.95
499.721
938.225
6.27633
-651.287
351.28
300.008
-1322.48
1049.15
273.328
-615.514
-456.436
-665.591
921.158
398.097
-193.036
-205.061
508.374
980.467
-1488.84
983.4
-560.144
165.532
394.612
-415.064
685.224
-421.178
-509.338
162.003
234.172
-1521.26
526.731
549.961
-772.291
251.895
142.883
-459.215
363.698
-826.699
1954.16
-1195.38
-758.775
425.917
-690.609
264.692
321.272
339.403
108.762
-448.164
-578.286
187.955
264.007
-691.8
1374.21
-682.413
424.097
476.921
-1190.63
261.411
1866.77
-1013.59
-853.181
784.225
-546.582
186.064
1402.32
-975.121
-427.197
328.478
-779.413
-616.575
1725.43
608.593
632.285
328.343
-27.7081
266.052
-1138.36
1725.72
-587.361
-1763.54
820.205
1764.13
-1693.42
-70.7057
-667.385
269.671
578.758
-730.636
231.22
1402.61
-565.859
383.441
452.715
-1858.73
1420.21
567.92
-443.65
-124.27
201.36
-550.677
-287.897
-191.261
-349.386
692.58
-590.376
226.53
618.441
548.818
-1167.26
1113.51
-1947.62
834.111
156.882
348.318
-1700.06
1661.96
309.817
-741.904
-171.492
379.391
761.089
679.312
-1440.4
1082.88
-1085.27
524.106
-1111.25
-626.208
248.266
377.942
539.161
-291.045
-616.018
-1028.8
289.791
-730.013
-912.321
173.732
155.761
228.806
404.224
288.62
-692.843
-636.764
-834.301
-978.535
488.462
-1066.75
-310.277
492.206
534.518
653.049
-277.215
-120.476
-413.423
731.926
266.508
-1203.34
566.574
1313.68
-552.596
442.742
-1021.42
-383.022
161.203
406.717
1023.18
551.761
-1719.86
1617.59
1638.05
-577.657
-1060.39
1905.89
-1895.03
-10.8604
220.014
-539.748
-360.407
562.483
-773.08
-331.126
-336.259
1022.03
706.306
-1513.63
807.325
323.216
-26.185
1625.22
-1097.66
418.731
-1250.28
474.934
-61.2802
1522.46
1197.09
-470.459
-486.505
-73.6387
-275.013
736.065
-1951.59
-707.653
362.046
-535.73
173.685
190.56
-504.75
1139.94
671.606
-1811.55
-628.115
184.465
941.718
-1497.29
-210.529
678.784
-468.255
876.874
1123.13
-743.712
1352.31
624.937
-494.745
-130.192
-343.174
1177.23
1048.88
-1980.27
931.386
-1177.71
541.632
1488.73
-586.308
-397.714
-151.105
-1245.5
570.99
1163.99
-98.1539
946.228
775.918
-1722.15
-199.283
578.755
-1541.72
962.97
487.02
916.456
-1403.48
627.551
584.495
405.139
-1106.61
589.674
1112.22
1215.32
-452.162
-763.153
-1186.2
-1754.94
-5.77934
-1714.08
-205.18
-435.852
1610.85
-633.21
-977.643
-490.825
1121.33
-1321.26
634.532
686.723
-1364.27
1446.72
-1334.15
590.433
1520.47
-393.593
-587.229
189.515
-1487.98
226.864
176.385
238.753
386.184
439.759
407.686
-847.445
506.43
-938.835
900.23
-1444.81
-712.92
237.059
475.862
-1051.88
458.643
-484.363
867.804
697.315
18.1796
-539.075
169.624
-886.568
-1318.75
-712.506
346.536
365.97
398.671
-722.21
323.539
-474.427
-189.37
-708.67
724.321
1540.03
-593.798
821.837
738.647
1344.65
-844.539
-970.981
-570.743
-794.356
428.839
365.517
-1035.76
-638.998
300.302
338.696
-1433.69
-296.778
-788.339
395.408
392.931
-663.607
414.864
248.744
-689.674
268.496
412.863
485.866
389.925
438.793
477.451
384.505
595.561
-968.716
691.188
466.045
452.199
356.124
-808.323
1630.73
-1079.83
-550.899
-504.812
-290.064
-1032.42
452.157
347.673
409.754
592.995
-1002.75
-1384.06
750.848
-529.801
1149.18
364.581
-48.7299
412.531
-863.666
451.135
-1898.4
301.299
439.605
-724.291
284.685
-191.755
400.87
-209.115
-660.514
301.426
359.087
-670.963
316.279
370.872
389.242
611.974
-1020.16
752.107
664.064
-1416.17
438.858
624.585
337.916
392.112
-730.028
406.721
328.165
601.984
676.363
415.819
603.376
-1033.12
429.745
-1674.75
1185.24
489.508
1696.57
-539.182
619.023
-1147.09
528.068
-640.273
345.702
437.644
-933.778
496.133
765.984
-454.012
350.898
341.683
578.929
-928.302
653.316
-1252.75
599.431
387.688
734.046
-1224.33
768.836
509.927
-1278.76
494.3
405.514
-899.814
-501.773
-936.174
-295.807
631.163
352.528
540.802
-893.33
330.075
331.53
-502.19
1944.73
435.992
-845.851
409.859
-917.642
-808.056
-746.034
364.478
-1230.6
439.534
-1740.88
1611.7
129.176
1750.75
-1605.9
-144.851
-782.173
-588.446
261.354
327.092
-1764.13
1986.54
538.98
790.82
-1329.8
440.159
715.844
689.848
385.621
-1075.47
-59.9458
1617.14
-593.959
390.138
841.35
-646.114
323.94
322.174
-378.864
-296.432
547.733
-213.732
435.21
277.405
-661.534
384.128
260.022
-574.285
-279.27
442.768
-1032.61
589.838
538.066
1092.67
366.003
596.067
309.478
350.804
-660.283
1633.62
-927.312
1692.43
-1521.13
-171.292
-328.425
-821.225
411.835
857.281
-1067.81
-603.077
274.963
-1090.54
1628.61
-1592.76
-76.0009
1668.76
-341.722
-350.538
-370.661
539.665
595.314
-502.201
-24.6014
-549.668
501.436
-283.734
-217.702
1756.86
-1306.07
-621.363
295.616
325.748
403.076
357.315
734.331
-292.256
-399.499
-1750.75
1689.47
459.759
-1100.31
640.55
-42.3317
1659.92
570.854
476.313
-1047.17
103.326
1144.44
-1452.03
-11.927
-1886.47
222.8
-595.019
306.737
288.282
-954.776
611.959
-896.712
466.453
-1128.03
672.688
455.346
381.237
270.131
-776.682
-311.568
1216.34
886.278
699.369
-1182.68
456.161
726.515
494.619
700.058
-1194.68
-361.573
-249.389
405.149
-959.495
438.941
520.554
21.2232
-1879.95
1081.27
-474.979
-507.258
558.703
-1378.09
819.384
-434.624
801.053
-405.837
501.063
-711.885
1722.24
404.734
-175.928
213.32
-162.32
-247.313
409.633
1895.34
-504.128
-1700.65
1050.83
-597.449
301.017
-1012.74
552.23
-312.874
544.427
905.036
-1449.46
-1103.14
437.548
-21.0263
-1945.76
1713.25
-664.368
-539.539
460.863
-1190.15
729.283
196.834
201.263
-279.307
773.154
698.986
836.705
816.709
-460.585
1084.34
-488.936
472.758
-187.663
-285.095
-1924.46
-713.229
-317.614
-641.177
-6.43018
647.607
460.475
-272.52
568.826
1064.79
-810.028
923.511
1243.97
-425.817
-180.38
-239.737
420.117
957.388
-888.347
-319.041
-1067.13
610.698
1562.36
-805.355
537.818
934.688
-400.071
737.295
-337.224
1130.01
-274.131
340.073
1349.52
-707.928
-215.519
448.345
-1198.35
750.006
-985.584
-128.393
1113.98
440.088
-954.656
514.569
178.066
732.237
483.079
743.229
-104.193
851.325
-426.22
1182.07
-796.449
552.416
-1465.4
912.989
-1216.64
1800.97
-431.708
-1510.19
879.387
-1401.85
-321.094
-422.232
1457.1
-1526.68
783.923
1491.43
196.299
276.459
-366.455
-1740.88
-288.883
-1015.2
1584.03
-1775.36
1775.36
1572.21
-1004.38
-632.002
-350.454
368.358
604.451
-375.846
-373.727
-1389.71
897.211
1125.09
600.63
1202.44
1789.49
-1216.41
-618.844
272.812
1659.17
-1916.72
257.542
815.513
-1267.94
1545.19
-561.665
793.081
322.316
-353.398
555.398
794.259
662.38
1365.71
-237.541
-445.577
-376.735
494.499
-338.354
471.974
735.918
-311.129
-137.035
-342.536
573.193
-230.657
33.3522
-370.996
1107.37
-1720.28
-451.298
-498.221
-573.386
864.215
698.147
-1596.36
904.565
-452.141
-628.896
-514.924
1251.86
348.7
1723.82
-1702.59
-1660.86
1895.03
-1560.68
840.157
720.526
-385.379
-1798.83
918.011
583.828
818.779
-394.038
1794.48
-680.973
-421.011
684.9
439.803
-1124.7
-1102.55
444.21
752.875
-1617.14
473.258
900.955
169.02
-394.356
225.336
-1602.03
-387.85
-438.714
990.207
-678.925
1442.85
-977.12
1853.99
242.414
-540.035
491.849
-295.55
474.337
893.421
543.312
977.161
-463.362
-427.914
574.255
882.848
-1392.69
-40.992
1579.48
-840.836
519.969
971.457
-1475.79
-1115.9
1776.59
-1242.21
-534.375
1206.05
-319.261
-886.793
-185.115
448.126
-263.011
-457.338
-251.29
424.678
-173.388
138.205
-387.594
1735.75
-1741.53
-469.597
-530.876
-903.505
437.134
-199.088
-238.046
631.652
-465.944
-361.995
-325.532
687.527
-937.848
401.632
-1167.03
676.204
411.434
-643.153
-436.529
1583.2
-866.145
530.197
-458.332
-569.704
-462.902
358.813
-348.067
-10.7452
-1115
417.461
-664.97
-1033.54
1698.51
-609.142
-1424.76
711.815
562.308
-1596.25
1033.94
-401.165
-475.167
158.852
538.472
-1258.39
743.462
539.259
1005.93
-2133.17
999.983
1133.19
-376.945
407.146
-381.808
-25.3381
1478
-378.87
449.638
1197.4
582.557
906.175
566.601
527.944
-1094.55
157.837
-452.112
-1693.42
251.147
1127.51
-622.787
518.624
1013.6
-1532.23
1092.8
-1643.7
187.196
706.268
556.627
-875.668
-1086.35
-166.857
421.869
-255.012
-586.419
-441.393
-636.724
-624.272
344.965
-1619.5
939.408
-477.077
215.711
-391.639
530.3
-307.5
-615.902
1197.04
-1288.49
927.594
360.895
-1022.88
-382.193
-763.155
-829.37
1693.59
-477.296
1795.07
-1585.42
-209.656
-1556.59
1018.65
537.943
-730.823
-253.451
434.915
-181.464
-600.704
384.843
269.409
-654.252
-524.27
999.141
626.782
-351.82
-1620.23
1050.46
571.806
1103.49
-1675.3
-426.336
-286.377
-374.137
-749.526
-481.701
-332.086
495.542
1557.99
-995.677
-774.402
1497.45
659.476
-320.721
725.883
1152.35
-1878.23
304.698
317.355
-487.484
-1933.91
1721.09
212.828
735.78
-475.507
-260.273
531.863
1060.76
-1592.63
358.813
-1726
-233.214
1752.36
-1580.66
1073.74
506.924
-1727.83
1.82469
-521.989
407.146
1700.06
-1721.09
939.396
625.12
-1564.52
372.626
-216.337
-156.288
-422.687
-266.986
67.2439
94.575
-348.026
-426.307
-444.311
-403.971
212.216
1510.18
379.064
-218.075
-445.533
455.866
-191.859
331.722
1510.72
994.082
-166.431
-827.651
-1104.05
1704.9
-1728.91
1063.94
-707.421
-1021.49
-1265.07
1844.98
-579.913
1155.05
-1771.23
616.178
268.058
-877.776
1675.88
43.4193
-1719.3
-491.186
-1082.98
-1735.75
-981.024
553.111
1019.53
590.27
1132.98
-1723.25
279.574
-456.89
701.095
-384.816
389.672
924.475
681.562
-384.9
-648.221
582.933
1072.49
-1655.43
-406.5
-364.036
770.536
441.078
-1661.96
1521.13
140.826
580.445
-1043.82
544.759
1083.85
-1555.62
993.959
-233.311
225.897
336.586
1905.89
443.759
-73.7598
995.849
722.751
-1718.6
-696.868
1085.28
-1557.47
158.343
-570.167
192.016
263.85
-666.172
-564.431
582.646
1034.5
-710.867
-283.607
-1368.47
674.201
694.27
-407.058
755.438
81.0527
-836.49
562.148
-137.187
1557.39
-207.137
281.24
-775.835
-1933.91
1664.6
1025.28
353.555
309.496
456.488
-929.927
-994.53
-1767.26
633.109
1693.76
504.816
-474.598
1210.52
1087.06
-424.947
1029.4
-977.64
489.15
488.49
700.654
1047.91
-1748.56
481.022
486.454
-1493.91
-745.835
35.0083
778.013
-413.535
-891.646
384.388
-539.75
-801.386
613.446
-577.909
1397.29
1055.17
189.38
232.489
-550.664
1618.49
-774.62
1526.73
-1727.83
575.293
1152.54
539.533
-882.63
-1733.05
1916.72
-183.661
1721.73
175.606
-545.552
361.068
-266.493
-481.6
1210.88
568.273
1128.29
-491.18
427.775
856.533
-457.156
-774.049
433.901
340.148
1419.34
1089.55
-518.318
1422.88
-510.524
-533.1
1043.62
-602.804
492.519
-1209.85
1692.43
1839.57
-687.218
1585.97
-646.57
-1240.88
716.615
-562.804
195.677
-382.329
446.87
-236.31
-518.315
-1246.7
1870.95
-624.247
1173.44
-554.415
1120.25
-1659.43
1701.59
-573.98
-547.659
-549.842
1720.07
-316.654
-688.095
-473.405
1223.41
-1688.49
-1860.11
613.41
318.09
-943.553
161.667
208.115
-1719.02
1204.13
514.889
1162.84
558.889
-512.754
-465.435
1191.95
183.196
217.674
588.447
1251.12
-539.184
-1238.58
1777.76
-1025.29
999.986
866.784
-204.068
-1659.17
1702.59
-510.166
1411.12
-1733.05
-350.19
5.885
344.305
-255.728
585.278
-329.55
90.1811
488.352
780.361
-381.69
1257.51
1270.65
-413.372
850.378
-438.543
1817.53
-662.473
1586.63
-1723.82
-412.818
-758.908
309.59
449.318
-560.908
-563.526
79.744
-1138.61
-985.269
-670.228
1655.5
-943.7
-1189.47
160.079
-426.916
-647.506
705.726
1167.44
650.091
1410.29
-591.515
1636.72
1318.03
-574.57
-486.922
191.372
-503.318
1396.74
1240.05
-565.853
-999.982
891.546
58.231
-949.777
603.418
-506.194
1403.41
1495.06
-588.881
-356.391
356.391
-589.555
1623.5
1239.24
-486.36
1134.13
-65.8679
1850.86
-382.735
1489.47
-589.24
-507.696
1347.85
-650.825
1218.64
-567.814
1554.81
-591.838
757.682
577.055
-1334.74
-657.853
284.497
503.729
600.697
-1957.29
-999.319
1586.63
360.956
-360.956
-61.9658
384.433
438.076
396.971
-13.2892
-325.872
909.138
-521.45
-427.983
812.416
-239.005
616.947
-427.738
1550.64
-444.348
-883.997
178.645
225.045
-403.69
601.173
1250.77
-1851.94
925.714
-459.261
-348.067
126.148
-1943.04
1816.89
-449.172
174.427
1181.06
-440.497
-740.565
-299.16
-592.486
-495.359
-381.808
-474.892
257.19
1158.18
-562.867
232.437
-373.294
140.858
-22.995
-107.683
1375.98
-1268.29
34.6304
-596.482
-586.478
-447.226
447.226
-1262.34
1985.09
-1344.33
-212.323
-1824.41
238.999
-1025.75
-974.244
-179.589
-1639.12
709.193
1229.32
-1925.01
364.254
316.418
-680.671
-1850.02
1234.27
615.752
-559.728
559.728
-958.977
-40.0799
-1866.12
-558.172
1650.84
-676.127
1636.19
-601.69
-180.909
-1705.56
-580.727
-449.412
-594.85
-462.057
462.057
-1537.81
194.529
1343.28
165.666
223.308
-388.975
498.754
495.328
996.044
-475.489
1751.29
769.455
-417.577
392.239
522.613
1702.07
-594.699
-552.984
1636.84
464.828
1812.8
-645.367
-1804.35
-1938.07
-647.067
-475.077
475.077
-600.103
223.368
-696.266
1018.59
-466.358
-1075.26
-293.795
1579.56
1852.29
1635.36
-1635.36
-275.185
740.854
1761.51
595.799
1275.15
166.536
206.09
589.799
589.64
1603.49
-1603.49
217.426
-357.956
-438.108
453.229
950.842
-461.692
-638.896
-1130.97
1706.26
276.244
-1658.74
619.439
-289.078
464.684
1744.65
-592.107
-213.094
-424.797
379.147
733.07
1738.58
-613.487
-511.786
-773.354
1960.54
-870.46
-1090.08
1642.73
-703.912
1223.96
-1824.96
600.995
349.874
-889.909
-185.245
-101.783
1097.63
-486.935
140.456
627.237
-1656.04
433.18
620.384
-1804.35
-583.292
1787.43
883.547
-1162.89
1760.49
-597.605
1783.83
-575.548
-1208.28
437.878
928.185
-1741.53
924.536
-1488.19
255.231
1232.96
-832.807
-1254.22
-373.303
73.394
299.909
581.76
265.128
1032.2
-439.512
845.622
-406.11
820.523
740.875
-1561.4
644.339
1066.45
-24.0128
-661.939
685.952
-1744.44
722.95
705.979
150.541
-1122.62
1936.77
-674.562
-1262.21
-537.184
1665.48
834.821
966.661
-1801.48
1227.86
683.36
-408.363
709.79
833.883
1027.43
-587.345
1761.51
625.884
1773.56
-1185.6
-587.967
-383.024
-340.601
723.624
121.453
-1185.6
1660.53
-540.281
-1437.79
1437.79
1250.56
594.423
1351.43
206.551
-559.958
281.266
-184.024
699.141
1113.66
477.458
-294.262
-869.591
-575.217
1739.71
-1739.71
997.966
-997.966
987.336
1025.17
-2012.51
1837.96
-613.993
-581.12
835.215
-947.854
-1052.16
998.221
691.17
-1689.39
-512.995
-361.219
-643.516
-808.434
2042.7
-1246.41
-613.699
1002.97
974.857
1289.78
646.998
322.231
1012.69
228.614
340.849
1186.22
1756.89
-1756.89
671.546
79.5749
-385.439
-997.058
-539.995
1674.13
990.187
1009.81
-1833.3