/*--------------------------------*- C++ -*----------------------------------*\
  =========                 |
  \\      /  F ield         | OpenFOAM: The Open Source CFD Toolbox
   \\    /   O peration     | Website:  https://openfoam.org
    \\  /    A nd           | Version:  7
     \\/     M anipulation  |
\*---------------------------------------------------------------------------*/
FoamFile
{
    version     2.0;
    format      ascii;
    class       volScalarField;
    location    "9";
    object      p;
}
// * * * * * * * * * * * * * * * * * * * * * * * * * * * * * * * * * * * * * //

dimensions      [0 2 -2 0 0 0 0];

internalField   nonuniform List<scalar> 
20933
(
-0.00458498
-0.0308568
0.0377662
9.61438e-06
-0.00202756
-0.00286314
-0.0912616
0.83529
-0.042277
0.819315
-0.0675487
0.663119
-0.0440151
-0.00439693
-0.00598238
3.90415e-06
0.215511
0.532873
-0.0760216
-0.0293533
-0.0327827
0.676812
0.825939
-0.0531724
0.0342558
1.22628
0.0106972
-0.0344962
-0.0385523
-0.0750761
-0.00195423
1.38454
0.823909
-0.0223379
-0.000503449
-0.00198059
0.904543
-6.84547e-05
0.0152795
0.47523
0.0650408
0.96745
1.0388
0.00936993
1.22541
-0.0764182
0.725097
0.430164
-0.000240414
-0.0536882
-0.0006588
0.153123
0.0697884
-0.000748251
0.0648241
-0.0727647
-0.0402095
-0.00233389
-0.00764073
0.22932
1.28108
-0.0579812
-0.0153006
0.774356
-0.00058945
-0.0081518
1.20079
-0.00899727
0.128225
1.21368
0.0443368
0.159787
-0.00543676
-0.0368585
1.20505
0.052659
1.20348
-0.0827577
0.468274
1.13578
-0.0068516
0.00130807
-0.0484327
-0.0377779
-0.0577653
1.04437
-0.0369636
1.47891
0.772505
1.26982
0.68762
7.13225e-05
-8.63416e-05
1.45076
0.4033
-0.0142418
1.4624
-0.00196743
-0.0521334
0.868369
1.28031
-0.0350723
1.29945
0.101674
0.264304
0.0927225
1.14682
0.137111
-0.0420948
1.10986
-0.0443892
-0.0950312
-0.0374881
0.0452116
0.0656896
-7.15051e-06
1.02428
-0.00612703
0.0679528
1.12256
5.86563e-05
-0.0241619
0.536331
-0.0128361
-0.0222374
0.538014
0.772939
-0.0334835
1.39856
1.04238
-0.0449831
-0.0528553
0.0650421
0.0148182
1.15318
0.241427
0.506053
-0.0313586
-0.0276323
-0.063495
-0.0324003
-0.0401704
0.127632
1.31242
0.339334
1.16221
0.868337
-0.0441983
0.732203
0.0121506
-0.0442644
1.20403
-5.81358e-05
-0.033588
0.0013208
0.881949
1.05989
-0.0578741
-0.0783487
-0.0467397
0.05039
-0.0788567
-0.00226703
0.359774
0.391206
1.46962
-0.033056
-0.0490985
0.0449694
0.892101
0.489734
1.2304
1.08369
-0.0245264
1.52546
0.810049
-0.00422986
1.26404
0.0779144
1.13902
1.17936
-4.47743e-05
1.30893
1.06645
-0.0278257
-0.0849363
0.0463409
0.838492
0.0884813
1.39279
0.766687
0.229869
0.885021
0.142764
-0.0780367
0.60356
1.30488
0.346178
-0.0275681
1.4051
0.467025
0.112301
0.0875367
1.37282
1.32849
-0.0547801
-0.0160623
0.15606
-0.0717771
-0.00210938
1.19377
1.25438
-0.0458182
-0.0707216
1.12632
1.2043
-0.0081077
1.1221
0.153151
0.0171869
-0.0220198
1.08314
1.3429
0.693625
1.10111
-0.0298142
-0.0125552
3.65962e-06
-0.00628526
-0.00156507
0.526253
0.0564249
1.1353
-0.0594124
1.06502
-0.0340077
0.0926627
1.22265
1.47459
1.07204
1.19442
-0.0718024
0.952695
-0.00969627
0.287241
-0.00599304
0.0672956
0.225345
0.161718
-0.000205003
-0.0410928
1.35371
0.568196
0.0132405
-0.0619726
0.0579571
-0.0824675
0.977595
-0.0592902
-0.0736546
-0.0374004
-0.0193612
-0.000797767
-0.0339895
-0.0727492
1.31134
0.33404
-0.0345219
1.07474
1.32369
-0.0364702
0.000320935
-0.0367587
1.19903
0.010513
1.27587
-2.07809e-05
-0.0704612
1.11141
1.17922
0.00243834
-0.0371846
1.38471
0.150948
0.22197
1.29076
1.38614
-0.0399284
1.12321
0.388859
1.12713
0.986106
0.000331913
0.325114
0.907335
-0.00457124
-0.0708875
0.379027
-0.073013
0.453965
0.285723
-1.55589e-05
-0.00146217
1.27261
-0.00254532
-0.0797552
-0.0474532
0.678814
-0.0525417
1.1382
0.415211
-0.041496
-0.0856195
0.865806
0.62381
-3.05026e-05
1.26418
1.05093
1.25281
0.0874547
-0.000634894
1.37826
-0.00499197
-0.0304039
0.603068
0.353928
-0.0468435
0.127241
1.0647
1.44654
1.17851
0.478424
1.53589
1.35118e-05
-0.0221149
1.18076
0.00558884
0.900183
-0.0337089
1.21519
0.379855
-0.000804513
0.368837
1.01705
-0.0156569
1.30793
1.04463
-0.000618401
0.050373
0.808974
0.559773
-0.00704281
1.07344
-0.00322397
1.50583
-0.0352423
-0.0459649
-0.0388494
1.17581
1.05559
-0.0584434
0.859544
1.26776
-0.00262716
0.962206
1.03572
1.52503
-0.00415671
0.690598
0.211166
-0.0771883
-0.000305355
1.21487
0.974141
0.298224
1.24449
0.502747
-0.0418754
0.937484
0.397288
0.572871
1.50562
-0.0201535
0.559059
1.24986
-0.0640108
0.33419
-0.046798
0.789436
-0.0512508
0.698792
0.310779
0.542514
6.69018e-05
0.733249
1.243
0.984315
-0.0554716
-0.017046
1.36179
1.3744
-0.00527434
-0.0673141
1.13045
-0.0760331
0.076749
0.974314
-0.0406025
1.56313
0.0124464
0.732553
-0.0143862
1.24992
1.0321
0.169058
0.07909
0.23811
0.476602
-0.00185019
1.12744
0.165918
0.791128
1.49435
0.0922476
0.0558379
-0.00214198
0.447145
0.323891
-0.0387925
0.998089
-0.000420652
-0.0496583
0.0159226
0.166616
-0.0312122
-0.000241614
-0.0427908
0.585929
-0.032757
0.0290695
-0.0576584
0.389448
0.299148
-0.0544293
-0.0823031
-0.000394174
0.129523
-0.0758467
0.0140007
0.0109512
0.626575
0.972906
0.379935
-0.000636534
1.40506
0.0142572
-0.000512761
0.0598294
-0.0624122
-0.0364701
1.31991
0.00858889
0.395941
-0.0616215
-0.0692405
0.956602
-0.0283665
-0.0500881
-0.0655574
-0.000296506
0.115979
1.42739
-0.0730045
-0.0711353
0.991114
-0.0462894
0.979307
0.740318
-0.00568202
-0.00195436
1.05423
1.47749
-0.0869269
0.841921
0.572317
-0.0597354
-0.0608693
1.12895
0.235914
-0.0386205
-0.0361402
-0.0597516
0.106055
1.36511
0.479063
3.40279e-05
1.30241
0.0195871
-0.0378132
1.09862
0.0176075
-0.015157
-0.000665367
0.171346
-0.0518052
3.13446e-06
0.836272
0.0223121
1.13365
-0.000739207
-0.000989786
-0.0485431
-9.40683e-06
-0.092851
-0.0236534
-0.00167171
-0.027762
-0.083633
1.082
1.25191
-0.00482973
0.00281923
-0.061056
1.25905
-0.00612974
1.2597
-0.0265323
1.50609
0.985481
0.699043
1.4498
0.188332
-0.0131862
0.209141
-0.000268349
1.23871
1.12147
-0.0425534
0.0786629
0.290834
0.0421601
-0.0121139
0.0549405
-1.15123e-06
1.08834
-0.0846658
-0.0418239
-0.0160645
-0.0189693
0.730952
0.399679
-0.00690432
0.0149785
-5.82719e-05
1.50735
1.35354
-0.00636998
-0.0400137
0.0389834
1.1187
-0.0841349
0.57757
-0.0674408
1.19009
0.700731
-0.0538806
1.55433
0.0926057
1.16854
-0.0134931
-0.0822728
1.30425
0.00332555
1.48686
1.09793
1.52189
-0.0124544
-0.0194322
-0.0202635
0.246433
0.0158549
-0.0122735
1.1696
1.2021
0.975813
1.24897
1.47151
0.825611
1.24317
0.982971
0.00161976
1.06716
-0.0507053
-0.0652389
-0.00168177
0.0336824
-0.0185992
0.844091
0.191063
1.13519
-0.0104802
0.343388
1.09968
0.0013504
0.0712629
-6.4964e-05
0.000177588
0.84061
-0.0447838
-0.0562725
0.000204615
-0.000688019
0.270469
-0.000569301
0.392569
1.51633
0.861302
0.792262
-0.0493519
1.12659
0.467187
-0.00427113
-0.0393841
-0.00398833
-0.000695439
0.00068977
-0.0156421
-0.0680252
0.880826
0.23627
-0.0780438
-2.66925e-05
1.17555
0.247406
0.128753
0.00614085
0.515646
0.0253526
-0.0763653
1.10148
1.41984
1.05969
-0.0527907
1.06837
-0.0528175
-0.0393102
0.887001
2.72725e-05
-0.0247028
0.705534
0.812423
-0.0522799
1.10579
1.33443
1.07861
-0.0650979
-0.0818469
0.0410333
0.410218
1.03626
-0.00584707
1.29613
-0.0310643
-0.0786376
0.225682
1.41775
0.888976
1.13224
-0.0161989
1.48532
-0.0493833
-0.0369103
1.53828
0.149146
-0.0516891
1.15531
1.19073
-0.0467733
1.02687
1.26
1.1823
1.11632
1.16842
1.00416
-0.0196282
-0.0483624
0.00140997
-0.0743481
1.24093
-0.0702913
0.643313
0.613665
-0.0584013
0.401299
0.711506
1.26119
0.39577
-0.00139871
0.116643
-0.04307
0.156173
0.144831
-0.0765411
1.1063
1.29195
0.297936
1.25337
1.48451
-0.00561719
0.00322423
-0.0058752
-0.0400846
0.932763
1.51061
0.493421
1.12991
-0.0326026
1.02723
1.05079
0.0512733
-0.0634544
-0.0837013
0.641737
-0.000851573
0.254309
-0.0567797
-0.0792023
1.13988
-0.0108196
0.00879227
1.19367
0.386224
1.38482
-0.0322101
0.968998
0.139629
-0.0392171
1.29123
1.41
1.23941
-0.0212045
1.4087
-0.0609425
1.28119
0.164363
1.23241
-0.0450295
-4.23646e-05
1.23583
1.28657
1.27916
1.23741
0.835064
0.346703
0.951882
-0.0517902
1.23752
1.09814
0.248135
0.198249
-0.0189801
0.196506
1.12132
-0.0747
-0.057285
1.26465
1.24903
-0.0414989
1.22111
-0.0855386
0.494738
-0.0234679
1.26704
1.28597
1.48771
1.27128
-0.00523918
-0.0334669
-0.00186559
-0.046398
1.37809
0.767267
1.10594
-0.0774916
0.987148
0.0443514
1.38206
0.0449108
1.25786
-0.0216802
1.35327
1.40531
-0.0360034
0.507684
1.34719
-0.00538466
1.43175
0.0258506
-0.00663125
-0.0649498
1.17462
0.669441
-0.0564455
1.23315
1.424
1.04322
0.0986268
-0.0364596
0.187529
1.24627
1.40535
1.52312
0.744247
-0.00238882
-0.0572253
1.11735
0.000127606
-0.0218506
0.000621866
-0.0195818
-0.0294913
0.0103184
1.31334
0.00704093
-0.00140275
1.07784
0.750417
-0.00151165
0.580581
0.00141743
0.647313
1.08504
1.22908
-0.00690346
0.544421
-0.012438
0.0785099
-0.00634243
1.25723
1.31917
-0.000180088
-0.0216407
-0.0359159
-0.0090253
1.24024
0.00431549
-2.96115e-05
-0.0618178
0.0953507
1.45829
-0.0454491
0.334406
1.26542
-0.0127399
0.433164
0.0158789
-0.0465584
-0.00585477
-0.0012609
1.44977
0.958706
-0.0114592
0.266668
0.993251
1.2081
1.09332
0.121582
-0.0458704
-0.028199
-0.0398519
1.05396
-0.0509913
-0.0314375
-0.000225669
-0.0458929
-0.00275634
-0.0264352
1.18461
-0.0484888
1.25692
1.23571
-0.0640009
-0.029931
1.47808
1.01179
0.261363
-0.032931
1.01944
-0.0343719
0.915892
1.45118
0.950022
-0.047287
-0.0361263
1.15393
-0.0581416
-0.0581597
-0.0345515
1.33371
-0.0446107
0.227005
1.00152
0.855609
1.06768
0.00581304
0.914006
-0.0086757
1.2606
-0.0682836
0.694698
-0.0190123
-0.0283374
-0.00155023
-0.00301676
0.000780557
1.33947
-0.0366113
0.974955
0.475565
0.0497277
-0.0283838
0.788256
1.49841
1.36386
0.0215319
0.748617
0.0263235
0.422589
-0.0544066
0.598879
-0.0711008
-0.000342641
1.03551
-0.0490769
0.019081
1.32406
1.14499
1.28109
0.102701
0.168287
-0.0219408
0.766048
0.109134
6.08644e-05
1.35336
0.545137
0.72878
0.274672
-0.000190577
-0.0139628
0.00150417
0.708465
-0.000205905
-0.0280856
0.0109537
-0.0398135
1.37822
-9.28114e-06
-0.0422714
-0.0778876
1.42813
0.0303027
-2.02384e-05
-0.0135442
0.514812
1.08427
-0.0314146
-0.0267079
-0.00826312
1.10215
-0.0335192
0.722917
0.0261361
0.00058645
0.417199
1.08381
0.3775
0.749355
-0.00637141
1.14337
1.4149
-0.0267989
0.972901
-0.053171
1.43841
1.39594
-0.025943
0.438237
0.39616
0.959621
-0.0002869
1.23529
1.52671
-0.011579
0.656419
0.870729
-9.4534e-05
0.000545516
-0.0333734
1.49461
-0.0117885
-0.039351
1.24677
0.00127422
0.945454
1.27372
-0.0412228
1.35264
-0.0489817
-0.0302891
1.27756
0.74566
1.06631
-0.00682709
1.28358
0.716708
1.22835
-0.0654524
-0.0100263
0.65929
1.35115
1.27894
1.36437
1.24837
0.172671
-0.0634959
0.292363
0.998146
1.23095
1.41721
-0.0548875
0.819579
1.4536
1.18151
4.41407e-05
-0.0731538
-0.0364799
0.607132
0.0752355
1.32987
0.744742
1.22664
0.435147
0.0947301
1.23323
0.198153
1.01032
-0.00254727
0.37441
-0.0105285
-0.00747353
-0.0555981
1.41885
-0.0537409
-0.0416282
0.161827
0.673807
0.429513
-0.0419909
0.287911
0.0572792
-0.0474155
1.04599
0.653465
1.11633
0.020251
1.27837
-0.0309014
-0.000121713
-0.0136976
0.0221353
-0.0186905
-0.00537434
0.0060913
0.880545
1.36821
0.666112
0.338731
0.000243581
-0.056502
0.964058
0.0136356
1.44386
0.893593
0.0162502
-0.0412905
0.169272
0.0158748
-0.0241424
-0.00102375
0.110371
-0.0503768
0.861408
1.39168
1.30085
0.811391
-0.00910542
-0.05023
-0.0038485
-0.0171269
1.05735
-0.0224843
1.02725
-0.0323623
-0.0271916
1.37653
1.39937
-8.53604e-07
1.24401
1.29591
0.584781
0.0191772
0.649643
1.05059
1.3961
0.924747
-0.00855219
1.37241
0.370903
-0.0225267
-0.033229
-0.0121027
1.42002
0.0240422
1.26143
0.903355
1.3593
0.0613887
0.94801
1.00434
-0.0338117
1.27987
0.171564
1.33754
0.000481518
0.941038
1.01712
1.03461
-0.000288832
0.259797
-0.00512816
-0.0547542
0.876953
-0.0312311
0.97598
0.964721
1.49132
0.0668334
1.34346
0.0485712
0.0421221
0.348643
1.24169
0.498891
0.191286
0.327141
1.1207
-0.000353046
1.47226
0.00348605
0.134667
0.482607
-0.0438463
1.25428
-0.0248339
1.30603
1.09246
0.550848
0.251667
0.647796
-0.000554554
0.219471
1.33154
-0.0467355
0.13276
0.922436
0.413736
0.140975
0.261758
-0.0278249
1.38303
-0.0461276
0.335384
0.138052
-0.0730564
1.22502
1.50812
-0.0570371
-0.0601499
0.0116348
0.40916
0.000361212
0.566048
1.40175
1.35757
0.0465361
0.626965
-0.000171049
-0.0648046
1.15376
0.0165436
0.746274
-0.0447206
1.46341
1.13532
-0.0640942
0.0175091
-0.0247295
1.47014
-0.0520575
-0.00275261
-0.0383386
0.571268
-0.038666
-0.0418132
0.535308
1.39085
-0.0710237
1.43485
1.52457
-0.034229
0.119472
0.000135834
-0.00753185
0.0470129
-0.0396667
1.46095
-0.037807
-0.0110687
1.02576
-0.0570582
1.10439
-0.0178053
0.262121
1.11097
1.03293
-0.071851
-0.0216984
-0.0595644
1.18658
-0.0510855
0.772085
-0.0592863
-0.0196857
-0.0618474
-0.00559592
-0.00789824
-0.0661833
-0.0552286
0.11669
0.0228743
0.512663
-0.00488845
-0.0557598
-0.0506974
-0.0381614
4.70207e-05
1.37748
0.213202
-0.0337559
0.00520482
1.16451
-0.00422583
1.0475
0.11358
0.363359
-0.0207112
1.10006
0.776727
-0.0702172
-0.0117863
-0.0211473
0.939296
-0.000350041
1.02784
1.18365
0.0090789
0.0642676
0.526285
0.462577
-0.0361356
0.623606
1.13757
-0.0407797
0.991233
-0.0690668
0.0862567
0.963371
1.3996
0.190732
0.00355248
1.22434
1.01924
-0.0462915
-0.0510588
-0.0841497
0.0829079
-0.0441545
-0.015919
1.15561
-0.0460653
0.0396357
1.16027
0.0110642
-0.0472018
0.842701
-0.00936314
0.619094
1.02151
0.180889
1.05419
-0.0243867
1.36321
-0.0168146
-0.000432948
-0.000109409
0.3181
-0.00013995
-0.0289557
0.632794
0.0406656
0.000522549
-0.0322322
-0.0322289
0.747799
1.25623
-0.00153668
-0.0330344
0.0351288
0.984481
-0.068878
-0.0348473
-0.0474504
0.332947
0.847738
-0.0147987
-0.0230849
0.113262
1.09501
1.16789
0.607723
1.03962
1.29085
-0.00471152
0.986446
0.463587
0.196901
-0.042157
0.122818
1.53447
0.012631
-0.0084272
-0.0668316
1.09696
-0.0280532
-0.00132587
-0.0605996
-0.0693224
-0.00925187
1.25878
0.889713
1.02122
1.17274
1.04392
-0.0371605
0.565202
0.881635
0.305148
1.23361
0.728399
0.922675
-3.14637e-05
0.910064
-0.0381405
0.709445
0.930177
-0.0668156
0.388459
0.379802
-0.0384027
-0.0184282
0.356485
0.689383
1.40454
0.745505
-0.000115612
0.818145
-0.0347655
0.944267
0.768627
-0.0298364
-0.0434113
0.994194
1.25139
0.539755
-0.0850057
-0.0505406
0.667327
0.994878
-0.0644098
1.1428
-0.0487933
0.602234
0.152971
1.33083
-0.0019248
0.00235235
-0.0112699
-0.0533001
0.0950133
-0.0419367
1.02458
1.16781
0.0162633
0.826347
0.018563
-0.0316466
-1.04087e-05
0.723114
-0.00913767
0.872613
-7.3969e-05
1.01216
-0.0747962
1.12261
0.10071
1.19321
-0.0701033
-0.0259878
-0.00162848
1.26434
-0.0591848
0.429743
0.586533
0.0240361
1.11157
-0.0262996
0.0140915
-0.0560331
-0.0106914
1.26456
-0.0121147
-0.0524083
-0.0384734
-9.41631e-05
-0.0363734
1.13475
0.000916517
-0.0774994
0.00100662
-0.00435853
1.06608
0.108307
0.335597
-0.0105519
0.000530377
-0.00984452
0.208781
-0.0582529
0.00224711
-0.0282631
0.745855
-0.000138629
-0.0513992
0.18374
0.590487
1.23106
-0.0396327
0.010805
-0.0803191
-0.0261342
1.06092
1.15448
1.27468
-9.57787e-05
0.681025
-0.0608891
-0.0583533
0.900667
-0.0398007
-0.0300393
-0.0376513
-0.0146905
-0.0452048
-0.0417579
-0.0348602
0.0021901
0.057404
1.00243
0.0276353
0.80782
0.314761
0.220478
0.687235
0.495802
0.904208
0.115328
1.02829
-0.000142287
-0.0195555
0.975241
-0.0745083
1.05263
1.0143
-0.0398849
-0.0747874
-8.94018e-06
-0.060414
0.285376
-0.044852
-0.0464774
-0.0493518
-0.0409353
-0.071759
-0.0483337
-0.0348219
-0.0181106
-0.0833308
0.905643
-0.0670232
-0.00742705
-0.0777695
0.002271
-0.0766709
1.14638
1.11167
0.724882
1.32345
0.0101197
0.0881362
-0.0605473
0.00267563
-0.00880985
-0.000477427
-3.31904e-05
0.706005
0.548577
-0.000549144
0.00197851
0.429374
0.675189
-0.0517984
-0.0467622
0.0122308
-0.00902703
0.00262778
-0.00180875
-0.0746954
-0.0296976
1.37167
0.0038054
-0.0266972
-0.0481926
-0.0530859
-0.0353423
-0.0532657
0.000430138
-0.0362411
-0.0377655
-0.0695831
-0.0447365
0.47785
-0.0397547
0.827237
-0.0619143
-0.00808744
0.104365
1.04804
1.08884
0.876517
0.0730215
0.00825498
0.00308839
0.0399437
-0.0527296
0.0258015
-0.0718046
0.0162316
-0.0205561
-0.00836964
-0.000117435
0.300226
-0.0169504
-0.00178598
0.00407611
1.40788
-0.0506425
-0.0523573
1.34415
1.3794
-0.0513137
1.3611
1.30097
1.07878
-0.00176988
0.0265971
1.38512
-0.00247209
-0.0016821
0.00145271
-0.0536103
-0.0219702
0.0359398
-0.0507421
-0.0646033
-0.0648943
-0.01012
-0.000599405
-0.0503106
-0.0235574
1.48484
-0.0550504
-0.0403653
1.4862
-0.0139184
1.43584
1.35333
1.00718
-0.044286
1.47993
0.401661
1.19811
0.0573766
-0.000584203
-0.00399142
0.00887244
0.226514
1.24799
-0.00685037
0.000181293
-0.0562656
-0.000695884
-0.0182456
0.668303
-0.000581539
1.04471
-0.048577
-0.0128842
-0.0629417
-0.0461986
0.622487
-0.0149276
1.36611
0.00260885
1.28959
0.0200904
-0.0598089
-0.000120523
-0.0832175
-0.0121112
-0.077487
1.1762
1.23765
-0.000139646
1.37481
-0.0578407
2.86242e-05
-0.0213984
1.29878
-0.0635407
-0.00231205
-0.00151669
0.000882073
-4.10776e-05
-0.000538893
-0.00301367
1.3968
-0.00124555
-0.00799625
0.00627311
1.43843
1.52942
-0.0167297
-0.0663241
1.06878
1.48621
-0.0636783
-0.0581303
-0.000154304
0.095855
1.27313
1.0463
0.000608095
-0.0468533
-0.0662226
1.31545
-0.0721427
-0.0303086
-0.031134
-0.029621
-0.0101315
1.10715
-0.000459244
1.33867
-0.00858817
1.41924
-0.00367476
1.35673
-0.0430352
0.307561
-0.0232295
-7.29422e-05
0.0012758
-0.0215839
-0.0421807
-0.0151297
0.000302697
0.00298441
-0.00869231
-0.0621525
0.000241929
-0.0382685
-0.0365865
0.00165991
0.381
-0.000767627
1.04299
-0.0601892
-0.00734813
0.00503461
-0.0608324
1.45492
-0.0331574
-0.0244054
-0.02483
-0.0743728
-0.0496258
1.01843
1.09343
0.0161861
-0.0395069
0.0456792
0.43096
1.33693
-0.0756243
0.997348
1.13381
-0.00016102
-0.0719827
-0.0525243
0.00261709
-0.00233352
-0.00272494
0.00192015
-0.0203919
-0.0203324
0.025715
-0.0313617
0.0635997
0.780541
-0.0129093
1.04556
0.53782
-0.0759687
-0.000104675
0.00108463
1.25359
-0.00378102
-0.0704306
-0.0022745
-0.0725078
-0.0343736
0.85929
0.26156
1.39478
0.000112506
0.000250176
-0.0666844
0.832877
0.00838956
1.34008
0.54879
-0.055634
-0.0351665
-0.0491351
0.0421252
1.01119
0.1652
1.26543
-0.0791138
-0.000851497
-0.00631309
-0.0311195
0.000127671
-0.00189635
-0.0100526
-0.0309212
0.0218297
-0.0708798
-0.000395179
-0.072538
-0.0495525
-3.88164e-05
-0.000468442
0.00825199
0.000796987
-0.00115482
-0.010152
0.118002
0.00148535
0.248399
-0.0343457
1.06123
-0.062214
-0.0475504
-0.000103313
-0.0470186
-0.0652621
-0.000568682
-0.0191033
-3.12362e-05
-0.0169046
-0.000538506
-0.0367152
0.307669
0.49727
-0.0888862
7.35091e-05
0.220143
-0.0230291
1.13128
0.928147
1.09413
-0.00536435
-0.013109
-0.00170921
-0.0181879
1.29185
1.02006
-0.00661272
-0.00695664
0.793708
1.01725
1.39166
-0.000139411
-0.00993867
-0.0249723
-0.000176445
-0.000200209
-0.000406695
-0.000202943
-0.00691285
1.05924
-0.00748178
-0.000596095
0.0212914
0.00104086
0.294204
0.0124403
0.856746
0.0014755
0.535178
-0.0659449
-0.0762863
0.662308
0.564676
5.67947e-05
0.650916
1.33349
-0.0711194
1.08504
-0.0779823
-0.0163308
1.15672
-0.00447473
1.0542
-0.00741208
0.0613846
-0.0193186
-0.0194767
-0.039759
0.000772584
-0.00103782
0.107058
5.33444e-06
-0.0329134
-0.0685232
1.34798
0.0410254
0.00718162
1.04006
-3.36355e-05
0.000402865
0.03019
-0.00319185
1.32384
-0.00542588
0.000556418
-0.0417275
0.456536
-0.0351695
0.00199477
-0.000670376
0.417235
0.0205862
0.000284643
1.2336
1.43273
0.00104447
0.186029
-0.00149571
1.1022
-0.0015736
-0.00867587
-0.000425877
-8.04103e-06
-0.0210629
0.00803876
0.00161557
-0.0666796
-0.0026979
0.00465287
-0.000527766
-0.00125522
0.0248391
1.16735
1.21677
0.0257855
1.02176
0.324996
-0.000127556
1.02368
-0.0133182
0.00305658
0.00824566
0.179412
-0.00132638
0.105596
-0.00390637
-0.0203886
0.693425
-0.0440588
-0.0344973
0.587791
0.872098
0.541493
-7.84329e-06
-9.01425e-06
-0.0413098
0.807632
-0.0130809
-0.0785481
-0.00112699
1.01531
0.0572745
1.16716
0.927286
-0.0369585
0.585194
-0.00249746
1.05038
0.27536
-0.0655248
-0.000741421
0.00172822
-0.0341335
-0.0398169
-0.0294232
-0.0471887
0.48596
-0.021843
0.807642
-0.000239169
0.00955276
-0.00207331
0.465025
0.0907741
0.00646933
-0.000125407
0.078349
0.76871
-0.0569076
0.0674559
0.0586251
0.339086
0.0507529
-0.00162834
0.000791908
1.13325
1.20078
1.24521
2.6132e-05
1.20539
1.11241
1.21168
-0.00742255
-0.000995057
0.00019144
0.857864
0.953587
-0.0652582
-0.0771241
-0.0654768
-0.0299924
0.376266
-0.035137
-0.0188047
0.991579
0.00248005
-0.0308657
-0.000225676
-0.0406141
1.21175
-0.0460833
-0.0004908
-6.61509e-06
1.29891
1.11295
0.235416
0.776864
-0.0326621
0.205761
-0.038581
0.176268
0.148906
0.128121
0.743546
-0.0458581
0.50365
-0.000355393
1.18262
-0.0154606
-0.0128637
1.09157
0.0598669
-0.0279387
-0.0722649
0.199561
0.555593
0.0224919
-0.000479421
0.995728
0.000660498
-0.0311726
0.300246
-0.00109501
-0.0129323
0.00229764
-0.0736404
-0.0591061
0.265206
-0.00139727
0.232416
-0.0288068
0.203704
0.17727
-0.0269473
-0.0450227
0.154381
-0.065052
-0.0368473
-0.0311788
0.871913
-0.0425086
-0.0180978
-0.000454069
-0.0549359
-0.080666
-0.000609998
0.89788
1.16155
-0.0627116
-0.0485786
-0.0316972
-0.0208572
-0.000921051
-0.00519395
-0.00775905
0.187665
-0.000906042
0.0458758
-0.0697434
-0.0626379
0.00148182
-0.000739856
0.860384
-0.00924211
0.460035
0.919305
-0.00370135
-0.0796223
-0.0606251
-0.000401177
0.422449
-0.0733245
-0.0678154
0.383774
0.649493
-3.75448e-05
0.346192
0.676298
-0.000941678
0.50862
-0.0313585
0.0302459
0.991401
-0.0122631
0.000184758
-0.000190238
0.965856
0.033286
-0.0376387
-0.0693648
-0.0346046
-0.0196079
-0.0216662
-0.0611697
0.459759
1.26089
1.37703
1.07699
-0.000690136
0.853166
0.418117
-0.038017
-0.0712125
0.832135
-0.072742
0.00923924
-0.00130136
-0.0609866
1.0464
-0.000338958
-0.055929
-0.0236411
0.091805
0.00087829
1.09363
-0.0759934
1.07554
-0.0471655
-0.0525974
0.0192638
-0.00205287
0.962149
-0.0333528
-0.019385
-8.36984e-05
0.00748713
0.13579
0.610081
-0.0234826
-0.000667909
0.630204
-9.2926e-05
0.789439
0.57057
0.000406126
0.791787
-0.0517797
-0.000598298
-0.0296134
-0.000962423
0.00105671
-0.000255816
0.935174
-0.0447943
0.00135994
-0.0545158
-0.0330249
0.930514
1.21372
0.000286571
-0.0282563
-0.0134125
-0.0231639
0.997081
0.0641932
0.000560616
0.746203
0.6116
1.06316
-0.0194525
0.00119394
0.848158
-0.00177719
-0.0735831
0.0702331
1.28219
-0.0409961
-0.0341035
0.00076175
-0.0141582
1.27457
-0.0665659
1.41427
0.570533
-0.0239273
-0.00143926
-0.0351791
0.00443475
0.000186612
-0.0298043
1.25707
-4.40231e-06
-0.0227264
1.27043
-0.000756208
-0.0292638
0.000224664
-0.003569
0.000211087
0.170784
0.00679904
-0.00354635
-0.0433773
-0.00200448
5.75938e-05
0.000125888
-0.000366301
-0.0306774
0.000154236
-0.00207994
0.0280373
-0.0256481
1.40638
0.198338
-0.00916981
-0.0106562
-4.14948e-06
-0.034478
0.000107551
0.435346
1.05256
-0.00462078
-0.0165652
-0.012489
0.342978
0.00193445
1.46633
0.00330808
-0.00297013
0.774208
0.0287255
0.000107702
-0.0581746
1.03692
-0.00118582
1.02745
1.0504
-0.0400889
-0.0581988
1.18508
-0.0333468
-0.00404288
-0.0690922
0.909785
0.44042
-0.0535252
-0.000868654
1.22775
-0.00173657
0.0563236
-0.0117281
-0.00546406
1.35896
0.000683394
1.58135e-05
-0.0485409
0.723784
1.42198
1.02656
1.50335
-0.0114554
1.34001
-0.00115358
0.867894
-0.00712802
-0.00187155
0.588364
-0.0309201
0.411516
-0.000126548
-0.0825396
1.43167
-0.0350582
0.106415
0.00272727
-0.00249418
0.676304
0.00414059
-0.0636271
9.63373e-05
-0.0267331
-0.000405155
1.46003
-0.0380325
-0.0555739
0.327251
0.0137964
0.552216
1.02902
0.000268488
0.0725284
0.659657
1.09307
1.47574
-7.24905e-05
0.0428646
0.0227556
-0.00346927
0.720383
0.782409
0.0305683
1.28587
0.465253
0.663889
-0.0312026
0.993233
-0.0709136
-0.00013641
3.99576e-05
4.98038e-05
-0.000834867
0.00188009
-0.0504599
4.10813e-05
0.00142375
0.0198048
-0.000295794
0.807036
-0.0129294
-6.65932e-05
1.42479
0.000496678
-0.000553039
1.21701
1.47178
-0.0792532
-0.0157095
1.17496
-0.0197513
1.33657
0.285549
-0.000931177
-0.065238
-0.0190428
0.00446098
0.00103586
1.07414
-2.81756e-05
0.000325732
1.28595
-0.00106463
0.00348628
-0.044964
-0.0488237
-0.06428
1.80878e-05
0.363941
-0.0702443
0.000115283
-0.0596942
-0.0037813
0.819796
-0.000289957
-0.000320131
-0.00349746
1.26337
-0.0194681
-0.0108769
-0.00324702
0.0035044
1.22398
0.029593
0.522328
1.18097
-0.00167459
1.36232
1.14838
-0.0199836
-0.0647286
0.000453764
-0.0432678
1.3353
0.00561749
-0.00128276
6.48072e-05
-0.0712643
-0.0123539
-0.00157285
0.000195824
1.35403
1.27739e-05
1.0741
-0.0217435
-0.0724424
8.6711e-05
-0.00914756
-2.36633e-05
1.20251
1.22051
0.648864
-0.0023088
-0.0782578
-0.0459679
0.547727
0.427242
0.784576
-0.0833742
-0.0461846
-0.0847937
-0.00106979
-0.00194336
-0.00187549
-0.00373843
-0.00267912
-0.00316501
-0.00507103
-0.0113148
-0.0727403
-0.00648759
-0.00603858
-0.0753022
-0.000944763
-0.00440028
-0.000124624
1.5512
0.370532
-0.00589837
0.00712086
-0.00512071
-0.000103706
-0.00113495
-0.00804438
-0.00692194
-0.0721231
3.1344e-05
-0.0850347
-0.0016898
-0.00226514
-2.86389e-05
-0.0673376
-0.0522694
-0.00930721
1.26214
-0.0119994
1.05285
-0.0635771
1.30343
-0.0904052
-0.0911629
-0.0913517
-0.0912029
-0.0900861
-0.0899812
-0.0885699
-0.000786293
-0.087175
-0.0848149
1.21335
-0.0817624
0.0697802
-0.0731675
-0.00134853
-0.032749
-0.0362803
6.0289e-05
-0.00752749
-0.000323365
-0.00450554
0.161233
-0.00267677
0.757935
1.09756
-0.0196701
0.00308691
-0.0718567
0.00879786
-0.0121874
-0.0186231
-0.0575566
-0.000598617
1.44175
-0.0332271
-0.038623
-0.00877009
-0.0031826
-0.0106821
-0.00726898
-0.0915483
-0.0139261
-0.00454473
-0.0273236
0.289543
-3.64801e-05
-0.000646236
-0.00979163
0.0736854
-0.00532306
-0.00841284
-0.0062464
6.37633e-05
0.000304616
-0.000345341
0.000381182
-0.0038628
-0.00970624
-0.00913319
1.19605
-0.00203434
-0.00688927
-0.00363731
0.00121058
0.000124042
0.000288018
0.938306
-0.0110354
1.1585
-0.0127514
-0.00244346
2.86765e-05
1.02838
-0.0118556
0.000332841
-0.000523282
-0.00043422
-0.0249668
-0.0111531
0.283818
-0.000350579
-0.0181172
-0.00168191
-0.00500814
-0.00291979
-0.0145076
0.0039834
-0.0467161
1.1762
-0.0786557
-0.0275692
-0.00128412
-0.000333327
-0.0702647
-9.33968e-05
0.0364507
-0.0115294
-0.0127577
0.000569247
-0.0152457
-0.0210435
-0.0777448
-0.00138215
3.15937e-05
-0.0475426
-0.00112308
-0.0164825
-0.0163848
-0.0147102
-0.000273954
1.34558
-0.000911524
1.50945
-0.0216524
-0.0183958
0.0186716
-1.9302e-05
-0.00014884
0.162262
0.000367228
0.0137152
-0.000973115
0.19544
-0.0186636
-0.000330162
-0.000458931
0.00463167
1.34267
-0.000816869
-0.0425882
0.0149471
1.17302
-0.0599967
-0.0449654
-0.000111733
0.0787826
-0.027068
-0.0641
-0.00117707
0.000268138
0.0233527
1.41606
-0.0442827
0.000344032
-0.0233974
-0.00047594
1.05672
1.16434
-0.000276392
-0.00405485
0.984937
-0.000677572
-0.0158667
-0.000370455
-0.00117592
-0.0376099
-0.0607793
-0.0390428
0.121546
-0.00196105
-0.000293722
-0.00055403
-0.0158396
-0.00247974
0.806851
-0.0308504
-0.000349654
1.13383
0.000380758
-0.00309055
-0.0789944
-0.0202956
-0.00232509
-0.000557526
0.0168431
-0.00462062
-0.0279286
-0.000236674
-0.001698
0.79119
-0.0169825
0.994777
1.30073
0.010854
0.00311366
-0.0789876
-0.018533
1.41972
0.0267518
-0.00506672
-2.01908e-05
1.10151
1.36085
0.82036
0.29718
-0.068311
-0.000385225
-0.0681922
-0.00139181
0.00137636
-0.0302102
1.00318
-0.0473133
-0.000772785
0.00354195
-0.00269748
0.36607
1.04461
-0.0134556
-0.0646262
-0.00315852
-0.00316468
-0.00354177
1.3341
0.00639796
-0.00187746
-0.000989623
-0.00926616
-0.0411931
0.3637
-0.0129856
-0.000480755
-0.0188274
-0.000354788
0.0271415
1.04849
-0.0837549
-0.00298222
0.0317089
1.0308
-0.00378096
0.477783
1.19394
0.00121474
-8.08651e-05
0.524898
0.989452
0.58029
0.871362
-0.0684908
-0.00329978
0.000396617
1.00258
-0.05011
0.00277017
-0.0559177
-0.0267183
-0.01454
-0.0669253
-0.0044378
0.000417651
0.966863
0.00450209
-0.0674347
1.21687
-0.0415479
1.16427
-8.7918e-07
-0.0648647
1.11855
1.42524
0.031034
-0.0114834
-0.0238741
-0.00184642
-0.00575779
1.15958
0.0236049
-0.0563924
-0.00507205
-0.00222095
-0.00426282
0.00567139
-0.00124996
0.887783
-0.00101402
0.0272371
-0.00545282
-0.0107695
-0.00178178
0.707717
1.09642
-0.0881726
-0.0896088
-0.0898691
-0.00152573
0.00864877
-0.000811219
-0.0884241
-0.0883807
0.720918
1.08771
-0.0875805
0.699802
-0.0317639
-0.00316974
-0.0288106
-0.0859658
0.893557
0.669726
-0.0848362
-0.0167125
1.09944
0.910371
-0.00624822
-5.19451e-06
-0.00300538
1.32998
-0.00131901
-1.51489e-05
-0.00629389
-0.00418477
-0.00265909
0.0040468
-0.0048818
0.0228747
0.473699
-0.0435741
-3.74513e-05
-0.0569239
-0.0583274
-0.0332663
-0.0568157
-0.0893175
-0.00354443
-0.00591107
-0.00723976
-0.0150426
1.12713
-0.00578919
-0.00841245
0.104748
-3.57412e-05
1.29781
1.09558
-0.0565792
-0.00670529
-0.00173755
-0.00777337
-0.000469373
1.06632
0.232606
-0.00260225
0.0906912
-0.00036114
0.0785564
-0.00278625
0.0682018
0.059042
1.2428
-0.031822
-0.00051665
-0.00755389
0.00712531
0.702714
0.976526
-0.0702767
0.975248
1.35452
-0.00774018
-0.0287162
0.943924
-0.00898734
0.263533
1.30331
0.933926
-0.0250593
0.945957
-0.00975702
-0.0161259
-0.00304596
-0.0034734
-0.0792424
-5.57958e-05
0.229455
0.199261
0.172814
0.146715
-0.0369886
0.326363
0.00053525
-0.00848068
0.788667
-0.0221335
-0.000246889
-0.00564266
-0.0103307
-0.0594787
-0.000445251
-0.0257782
0.0675368
1.50076
0.289775
1.08207
0.401635
1.57208
0.256501
0.225319
1.25691
1.3015
-0.0272764
0.757083
-0.000416303
0.164209
0.197745
-0.0118307
0.172915
0.0205534
-0.0620517
-0.00960822
-0.0110297
-0.013516
0.00207325
-0.0126493
1.0655
0.0232694
0.00939583
0.00163923
-0.0539425
0.0061402
1.19426
-0.00239977
1.00713
-0.0282668
-0.0519278
0.484675
0.534536
-0.0485393
-0.0821586
0.00506598
1.05487
0.849534
0.838502
0.0515805
0.000891499
0.445316
0.407573
0.00451449
-0.000497955
-0.00317465
-0.0123384
0.369786
0.0043414
0.678382
-0.0153101
1.14369
1.0814
-0.0171025
1.07188
-0.000236779
1.27076
1.24116
-0.00754169
0.488295
-0.0770077
0.00893057
1.56738
0.00450213
-0.0237642
0.372195
-0.000370629