/*--------------------------------*- C++ -*----------------------------------*\
  =========                 |
  \\      /  F ield         | OpenFOAM: The Open Source CFD Toolbox
   \\    /   O peration     | Website:  https://openfoam.org
    \\  /    A nd           | Version:  7
     \\/     M anipulation  |
\*---------------------------------------------------------------------------*/
FoamFile
{
    version     2.0;
    format      ascii;
    class       volScalarField;
    location    "21";
    object      p;
}
// * * * * * * * * * * * * * * * * * * * * * * * * * * * * * * * * * * * * * //

dimensions      [0 2 -2 0 0 0 0];

internalField   nonuniform List<scalar> 
29540
(
0.0133975
0.170799
-0.0134651
-0.0518221
-0.00381956
-0.0548406
-0.0300727
0.0125085
0.00314147
0.000274761
0.0074786
-0.00733578
-0.000780727
-4.44521e-05
0.138782
-0.00917478
-0.000298512
0.0390616
-0.00338298
-0.0157997
-0.0013742
0.00294977
-0.0136413
-0.00333629
0.673473
0.169656
-0.000838713
0.563885
0.126174
-0.00262489
0.0243962
0.0760568
-0.0809806
-0.0104188
0.571745
-0.0117249
0.184869
-0.04022
0.00886118
0.00852369
0.000664113
-0.0254079
-0.000267614
-0.0332067
4.4628e-05
-0.00236324
-0.00645284
0.000104628
0.00515485
0.179901
-0.0480621
-0.0458055
0.0786999
-0.053049
-0.00898049
0.121248
-0.00534778
-0.00141499
-0.00742666
-0.0276313
-0.000107208
-0.00328483
-0.0517497
-0.0103731
0.298305
0.634421
-0.0123506
-0.0129831
0.604586
0.000695484
0.16793
0.469326
0.00351521
0.63181
-0.0118427
-0.00613427
0.101678
-0.0357714
-8.03535e-05
-0.0239723
-0.0490146
0.230486
0.0133479
-3.84435e-06
-0.0274378
-0.162813
0.332329
-0.000811037
-0.0007547
-0.0706315
-0.0341528
-0.0361617
0.00474163
0.0714716
-0.0725258
0.337315
-0.0442335
0.000721154
-0.0577607
0.17604
-8.47915e-05
-0.033753
-0.000103679
0.0509134
-0.0467865
0.141861
0.400382
-0.000725935
-1.74362e-05
-0.078153
-0.0801815
0.0118226
3.91804e-06
-0.00241704
-0.000276616
0.457475
0.247988
-0.0171823
2.8892e-05
0.00411386
-0.144716
0.1825
-0.0503396
0.631031
0.00170754
-0.0258555
0.0449605
-0.0228476
0.00629436
6.77613e-06
-0.0309901
0.0856885
0.449391
-0.0721258
0.0504619
0.0236892
0.359881
-0.0343893
-0.136576
0.167191
-0.0185437
-0.0616575
-0.0620426
2.86292e-06
-3.79344e-06
-0.0039073
-0.00603536
-0.0633874
-0.107387
-0.0309659
0.0387392
0.0189649
0.000650295
-0.000227742
0.243791
0.000770376
-0.0117119
0.33555
0.294636
-0.0469114
-0.0471348
-0.050428
0.128904
-8.46979e-05
-4.1693e-06
-0.0172963
-0.0602033
6.53657e-05
-6.00692e-06
-0.0104989
2.74578e-05
0.00877782
0.342376
-0.0337902
-0.067932
-0.00763076
0.003215
-0.0349136
-0.00196764
-0.0437802
-2.69999e-05
-0.00725134
0.328847
-0.0121401
-0.135417
0.242685
-0.00949735
-0.0261695
0.00591051
-0.00249845
-0.000454032
0.00278901
0.641921
0.239754
-0.0201274
-0.0112315
0.535114
0.215058
-0.0717235
0.00178647
-0.0516987
-0.0690474
-0.00705599
0.00128902
0.355527
-0.0101127
0.0106328
-0.0631687
-0.0802277
-5.42745e-05
0.499008
-0.00162803
-7.11146e-06
-0.000873246
-0.0325436
-0.0329354
-0.00557766
0.0103601
-0.00330913
-0.0719342
2.41375e-05
0.000678489
-0.00356488
0.116715
-0.00434941
-0.00229682
0.078185
0.000173661
4.15017e-05
0.00814622
-0.0398606
-0.0309938
-0.00715189
0.166091
-0.0214286
0.0201241
-4.64782e-05
-0.0045969
0.00120084
-0.0481894
-0.114943
-0.00215553
0.000696941
-0.00240862
0.00432219
-0.015363
-8.06727e-05
-0.158547
4.6786e-05
0.118626
-0.00516741
0.000202091
0.144202
-0.0691993
0.000375487
-1.70189e-06
-0.0617442
-0.11052
-0.0131983
-0.0248871
0.0384878
0.314783
0.000110216
-0.0380653
-0.0828041
0.549014
-0.0121914
0.239006
-0.000591184
-0.000385895
0.766805
-0.000869495
-0.0707571
-0.0710914
0.00345392
-0.02517
-0.0123205
0.454573
-0.00530752
-0.025936
-0.000447184
0.241357
-0.00471573
0.344694
-0.000814961
-0.00876816
0.534282
0.100831
0.0780784
-0.0456919
-0.000250622
0.00420412
-0.000314936
-5.07308e-06
0.106713
5.31428e-05
-0.0280778
-0.0854934
0.681736
0.444838
-0.0614929
-0.0276916
-0.0295879
0.0115791
0.00393396
-0.0265516
-0.064954
0.322454
0.474188
-0.0020081
0.393474
0.103673
-0.0518414
0.0169573
-0.00283051
-0.0151781
-0.00814446
-0.00409249
-9.71782e-05
-0.00289919
0.00631979
0.24722
0.002519
-0.0385878
0.0197292
-6.06602e-05
-0.063157
0.716147
-0.00958546
-0.00221832
0.018122
-0.0226101
0.131036
-0.00233676
-5.66989e-05
3.52577e-06
-0.00412834
0.53787
0.0325717
-0.117222
-6.87557e-07
-0.116529
0.0768216
-0.00777714
-0.067005
-0.00203087
-0.000710402
-0.0357282
0.00142841
-0.0445838
0.0164484
0.0737281
-0.000297777
0.00306125
0.180884
-0.14171
0.00063849
0.000679624
0.45225
-0.0342315
-0.00253344
0.225476
0.559208
-0.0588574
-0.0115077
-0.0251605
-0.00123074
-0.0128083
-0.00519217
0.210306
-5.84786e-05
0.0158192
-0.110825
0.455585
0.621492
-0.0092233
-0.0135215
0.309536
-0.028793
-9.41205e-05
0.0205905
0.123341
0.125541
-0.0112637
0.0399071
0.556061
-0.119278
0.50046
0.463035
-1.42131e-05
0.00771462
-0.108237
-0.00458238
0.00256945
0.564406
0.032282
0.000434459
-0.0493328
-0.0703129
-0.00859687
-0.000211067
0.349258
0.242958
5.3073e-05
0.00651096
0.0086212
-0.111269
-0.0455373
7.70542e-05
-4.32212e-06
0.000777784
0.137379
-0.0399168
0.358899
-0.0683189
-0.0268465
-0.0311247
0.220582
-0.0406278
-0.00194892
0.01288
0.00132973
0.50478
-0.0370347
0.00173444
-0.0114805
-0.0152764
-0.00249978
-0.0186053
0.000361153
0.000370481
0.726132
-0.0123803
-0.00787057
-0.000762581
-0.00120188
0.2971
-0.112796
-0.0370994
7.0584e-06
-5.23965e-06
-0.0382255
-0.0104049
-0.00809954
0.0272992
0.00989989
-0.00449746
0.0186111
-0.0259559
0.49153
0.00670617
0.000384055
-0.0611289
-0.0353466
-0.00676705
-0.00538351
-0.0370619
-2.54975e-05
0.605813
0.0310687
0.000117563
0.642055
-0.0381639
-2.72137e-05
0.00233583
-0.0627737
0.0134096
0.0651466
-3.01047e-06
-0.0122648
-0.0131698
-0.00835015
-0.000782875
-0.0126637
0.541004
-0.012948
-0.0179993
0.256205
-0.00446865
0.522418
-3.00634e-05
-0.0246625
-0.0655276
-0.036422
-0.0966146
-0.00252709
0.00186858
-0.000288638
-0.0284097
0.00884304
-5.70817e-05
9.49967e-06
-0.00978851
0.490117
0.0109397
0.00403696
-0.0722107
-9.58062e-08
0.00157839
-9.56172e-05
0.014312
-0.0261843
-0.000652306
-0.012484
-0.0187859
0.00166492
-3.18569e-05
-0.084009
-0.000682998
0.0688909
0.418759
0.316215
-0.00704598
0.00973871
0.0410449
-0.000193696
-0.00569155
-3.72976e-06
0.468002
-0.0208789
0.0269277
-0.0252498
0.00244517
-0.00501431
-0.000190031
1.14684e-05
-0.00762106
0.0669687
0.299671
0.00201675
-0.0555899
-0.0366196
-0.0121593
-0.0269275
-0.0021642
0.00146679
-0.00874818
-0.000176007
-0.0643803
0.334493
0.226703
-0.0329167
0.328149
0.000119263
5.93383e-06
0.0259379
-0.0167264
0.629662
-0.0601902
-0.0312102
-0.00711256
0.00191832
-0.00913323
0.00074123
-0.0161404
-0.0195268
-1.22293e-05
-0.00147843
0.451275
-0.000255743
0.585277
-2.60317e-06
-0.110237
0.0645157
0.02363
0.00170683
0.000291918
0.479556
0.0721125
-0.0669407
0.235291
-0.0106199
-0.019844
-0.00648408
0.251526
-0.0376068
0.0143827
-0.0119576
7.7899e-07
-0.00214147
0.00953771
-0.0262987
-0.0322064
-0.0592344
-0.026571
0.152909
-0.00348025
-0.0706779
-0.0205144
4.49498e-05
-0.0181118
0.010554
0.155565
-0.039541
-7.29702e-06
-0.0271987
-0.00101935
0.00228461
-0.121733
0.357679
0.00146905
-0.0178788
-0.0474887
0.103285
0.529908
0.00296508
-0.00784495
0.262315
0.201093
-0.0232462
0.00805578
-0.0646177
-2.01143e-06
-0.0557274
0.000128092
-0.0465374
-5.13837e-05
3.46805e-05
-0.0101895
-0.0503555
0.416133
0.0111866
0.0184554
-8.84801e-07
-0.00990886
0.000135217
-0.00520771
3.5177e-05
0.0699379
-0.000806667
0.222587
-0.000226909
-0.019127
-0.0494651
-0.00678725
0.525863
-0.0243739
-0.0689884
-0.0089352
0.0691149
-0.0596673
0.0448557
-0.030264
-3.06029e-06
-0.00854308
-0.00635506
0.00039572
0.000129423
0.247701
-0.00785269
0.112651
-0.00737673
0.00141378
0.0494679
0.000259331
-3.21171e-05
-0.0550065
-0.00563101
4.03181e-05
0.290123
0.689008
-0.000367006
-0.0477466
8.56231e-06
0.565831
-0.120566
-0.051351
5.23702e-05
0.0153116
0.0858033
0.100596
0.0635712
-0.000691578
-0.000270424
-0.023012
1.14838e-06
3.36798e-06
-0.0382179
-0.0431869
-0.0582093
0.659323
0.000317372
-0.0465966
0.0125444
-2.90822e-05
-0.00205231
3.5208e-05
-0.00970314
6.37882e-05
-0.0282487
0.0433935
0.515474
0.0671173
-0.000480277
0.0007377
-0.115526
0.110276
-0.00502317
1.27137e-05
0.243198
-0.130016
-0.0584344
-0.0209071
-3.55092e-05
-0.000475352
-0.133132
-0.0323282
0.186097
0.489052
-0.0673926
-0.00209541
-2.8335e-05
-0.0598118
-0.0800791
-0.000353383
0.00350114
-0.0224904
-0.00748399
0.474184
-0.00215086
-0.00353988
0.114358
-0.0120108
0.632765
0.630708
-5.67327e-05
-8.2938e-05
-0.0240235
0.0253206
-0.046387
0.00865274
-0.0116305
-0.000968519
0.547295
0.216982
0.00371257
0.757587
6.65981e-06
0.141049
-0.073602
-0.0459727
0.000139444
-0.0479813
0.14637
0.0242207
0.0908344
-0.000762475
-0.000819501
-0.00895395
-0.00556913
-0.0202406
-0.0017825
0.153066
-0.00943763
-0.00836631
-0.0730955
0.443803
0.00371972
0.0486056
-0.000681925
-0.00086685
-0.0292037
0.00161722
-0.00419724
-3.3902e-05
-0.000602256
0.146879
0.481566
-0.00022261
0.186395
-1.40623e-05
-0.00537897
-2.5048e-05
0.00887122
-0.0914921
-7.08962e-05
-7.33423e-05
-0.06995
1.88277e-06
0.0645459
-0.0352658
-7.56499e-05
0.217022
-5.74921e-06
-0.00067807
-0.000155095
-0.00803901
-0.000650021
-0.00963885
-0.0836958
-0.000579543
0.00696972
-3.25742e-05
0.408515
-0.00500806
0.00118027
-0.0437242
-0.0315592
-0.00189471
0.00478598
0.265867
-0.0365592
0.20517
-0.0528478
-0.005555
-4.50185e-06
-0.00902044
0.447046
0.240144
-0.0483956
-0.0647491
0.392272
-0.0129272
-0.0691828
-2.47362e-05
-0.036614
-0.00138291
0.736588
-0.0620073
-0.000151446
-0.0698231
-0.0376761
0.307574
-0.00414687
-0.0390156
-0.00608718
-0.00951713
-0.00209395
0.306802
-0.112906
-0.0275991
-0.0219413
-0.0189565
0.00915073
0.384821
-0.0266373
0.237028
0.00445478
-0.0990795
0.595981
-0.0131336
-0.000391817
0.305713
0.456451
-0.00742604
0.00721482
-0.0103873
-0.0432463
0.264122
-0.0599006
-3.86517e-05
-0.0113181
5.0183e-05
-0.00703121
-4.0991e-05
-0.00740886
-0.00157938
-0.00501203
-0.106609
-0.000994355
-0.000836003
-0.00182989
0.255178
-0.00330908
-0.00513424
-0.00475754
0.209192
0.00843922
-0.000620895
0.442686
0.62186
-0.0275246
0.547144
-0.0242988
0.416522
0.00871376
-0.0203345
0.0040967
-0.000754185
2.19853e-05
0.00405131
-0.0170584
-0.0274383
0.230985
-0.031451
-0.0278409
-0.00147621
-0.103152
-0.034006
0.0103321
-5.94943e-06
0.0123067
0.0814335
0.45935
0.011843
-0.0187349
0.181455
-0.000565832
0.0539173
-0.0248005
0.000948241
-0.0690296
0.00447592
0.41787
-0.00318212
-0.000854878
-0.000213108
-0.0660283
-0.0019825
0.741457
0.76579
0.0182357
-5.76178e-05
0.0126294
-2.81904e-05
0.0766117
-0.000844723
0.0324135
0.67631
0.000842957
2.3516e-05
-0.0115561
-1.79102e-05
-0.112223
-0.0457061
0.549974
0.000333788
0.0175508
0.00390744
0.000418106
-0.00337574
-0.000469964
-0.00855971
-0.0490637
-0.0310405
0.00898887
0.2113
-0.0182866
0.00932823
-0.0275681
-0.00270796
-0.0365551
1.46967e-05
5.98151e-05
-0.00319643
0.0402054
-0.0412759
-0.0220883
-0.00521806
0.00392118
-0.0320951
0.27106
-0.0174558
-4.86675e-06
-0.0659605
0.505085
-0.0684655
-0.0164616
0.0727417
-1.01194e-05
-0.000998178
-0.0376842
-4.64185e-05
-0.000659901
-2.8673e-05
0.758638
0.0127281
0.0051628
4.39427e-07
2.6511e-06
-1.55976e-05
-1.86971e-06
-0.0300574
0.458224
-0.0456992
-0.000697646
-0.000239967
-0.0075835
0.547502
-0.0653126
0.497079
0.0162589
0.175678
-0.000188655
0.541322
-0.00310597
-0.0127358
0.00531755
0.010521
0.0122337
0.230389
-0.0520219
0.53378
0.345015
-0.0112231
-0.0375633
-0.00437654
-0.0381514
-7.10351e-06
-0.00131325
0.00380271
0.0908045
-0.00890948
-0.0301963
-0.00450081
0.654569
-0.0826348
-4.88011e-05
-4.1236e-05
0.556982
-0.00669227
0.00262553
-0.0174531
-0.00308983
-0.0202016
-0.0130026
-0.0668281
0.0712022
0.0217811
-0.0133742
-0.01885
9.64888e-05
-0.00772328
-0.00173667
-0.0105614
-3.94838e-05
6.42264e-05
-0.0254782
-0.0264803
0.52825
-0.0348654
-0.000286989
-0.00205942
-0.000434638
0.440056
-0.0615197
-4.97222e-05
-0.0362489
-0.00601652
-0.00474981
-0.0361122
-0.0411563
0.00888115
0.071473
-0.0753117
8.10923e-05
0.00782468
-0.0173346
-1.49668e-05
-8.76377e-05
0.142053
0.105245
-0.0345701
-0.0595384
-0.0636058
0.000674335
0.577548
8.08935e-05
-0.0220288
0.473738
-0.0219105
-0.046103
4.34266e-06
0.000184591
-0.0460035
-0.0120939
0.00179461
-0.0404369
0.28199
0.311854
0.00087107
0.00030584
0.246898
-0.0160722
-1.56224e-05
-0.00193628
-0.0351323
-0.0277516
-0.0134955
-0.00287511
0.195712
1.59118e-05
0.0935783
0.332692
3.64289e-05
0.0114289
-0.000589558
-0.0905044
-0.0172274
-0.000874018
0.034135
0.000231905
0.272537
0.00178158
0.0268766
0.00784451
0.681243
0.438907
-0.0638222
-0.00885463
4.25976e-06
-0.0686732
-0.0159757
0.178752
0.381939
-0.040304
-0.0233133
-0.0189657
-0.00733051
0.17257
-0.000242941
0.538288
0.0290774
5.46361e-05
3.8048e-05
0.000112704
-0.0144438
-0.0198168
0.000809209
0.0304986
0.123092
-0.0590418
0.000558974
7.2595e-05
-0.0257625
-4.81172e-05
-0.00319645
-0.0124629
-0.00081754
-0.00957307
0.00481546
-0.00152545
-0.00418625
-0.0174579
0.439471
0.451727
0.0419108
-1.30466e-05
-0.000615692
0.298272
-0.000515523
-0.11545
-0.000232403
-0.0215274
-0.0804173
-0.000242058
-0.000262233
-0.0351038
0.00148583
-8.49662e-05
-0.0014562
0.233079
-0.0366706
-4.72678e-05
0.107838
0.417493
0.43276
0.00066852
-0.102923
-0.00994249
0.501753
-0.0678382
-0.0694589
-0.011213
-0.0136466
0.0308228
-0.0268208
0.432997
0.0810698
-0.000201419
-0.0551925
-0.071702
-0.00407252
-1.98559e-06
-0.00194359
0.250945
-0.000220699
-0.0059839
-0.00426622
-0.00127831
0.00952767
0.0314002
-0.000208015
-0.000139592
-0.00792026
-0.0906232
-0.0371616
-0.0746005
0.288962
-0.00229576
-0.000307017
-0.0379908
-0.0250809
0.0101487
0.0142642
5.787e-05
0.079823
0.165616
0.0201716
0.025906
-0.000686574
-0.0139113
-0.0562994
0.00137684
-7.89432e-05
-0.0097907
-0.00424375
-0.000796248
-0.0117435
-0.000913929
0.264286
-0.00944574
-0.119959
-0.024858
-0.0111658
0.0124296
0.563232
-0.0440562
-0.000142841
0.538263
0.18896
0.00815856
-0.00613294
0.0079267
-0.0355532
0.184511
0.00035686
-0.00327135
0.675783
0.345359
0.375207
-0.0455192
-0.00148942
-0.00130914
-4.67605e-05
-0.00138532
0.328634
0.0913506
-0.00967362
-0.00614396
-0.000399009
-0.0588541
0.639064
0.475946
0.0874845
-0.00297868
-0.0626286
-0.00535322
-0.000778838
-0.0230652
0.0126444
-0.027841
-0.00370176
0.000921086
-0.087284
-0.0906271
0.0322051
-0.0254515
-0.00514174
-0.0263393
-0.000220835
-0.00720717
-0.000740861
0.40248
4.20036e-05
2.24265e-06
-0.0310399
-0.0201562
-0.0290719
0.0411845
2.71826e-05
-0.0845261
0.0663839
0.229023
0.725819
-0.00481118
-0.109203
0.0316271
-0.0021855
0.0267746
-0.000642838
0.0108483
-0.000213075
0.286636
-0.112341
0.0111235
0.126095
0.132236
0.00150816
0.00279879
3.47254e-06
0.499897
-3.05391e-06
-0.0451749
0.00033982
0.00171277
0.205355
0.112464
-0.0745055
-0.0390912
-0.00424975
0.764255
-0.0747667
4.26127e-06
-0.0158807
-5.59729e-05
-0.0172735
0.114877
0.231657
0.000914829
-0.0352337
-0.00965394
0.171621
-0.0423079
-0.032573
0.659461
-0.0101434
6.45051e-05
-0.138749
0.685145
0.00175427
0.103622
-0.0440765
0.15504
0.00195851
0.0304761
-0.0734974
0.00539073
0.0586046
-0.0305167
0.194129
-0.02641
-0.0197452
-0.000846951
-0.00085165
0.592614
-1.09937e-05
-0.00590311
-3.70899e-05
-0.00828851
0.0003571
-0.00746978
0.276485
-2.37627e-06
-0.0010737
-0.00933219
-0.127894
-0.0247752
0.00116287
0.485455
-0.0551002
0.199252
-0.0121121
0.179445
0.00684503
-0.000791811
-0.106168
0.000788105
0.60791
-0.0277494
-0.00013438
0.00234298
0.16422
-0.0114572
-0.000741479
-0.000146613
-0.0869424
-0.00269426
-0.0100501
-0.0731729
2.04348e-06
-0.0669402
0.000406199
0.419794
-0.0105081
0.171945
0.00453147
-0.00381306
0.313222
-0.0621022
-0.141907
-0.00448638
-0.0902356
0.324108
0.343202
-0.0142894
-2.60848e-05
-0.0157586
0.00478878
4.6845e-06
0.0389952
0.457721
0.0130804
0.00164359
0.00712722
-0.0680224
-0.000184162
0.0818597
0.0494539
0.0757683
0.0137512
0.0287575
-0.000414277
0.206155
-0.11043
-0.131689
-0.00105462
0.0180099
0.164665
0.000826037
-0.0698186
0.255994
-0.042943
-0.0708208
-0.0724413
-0.102737
-0.102394
0.0563125
0.259884
-0.103803
-6.75215e-06
0.000841633
-0.0581096
-0.00186676
0.00407979
-1.06309e-05
-0.00590127
0.00411427
-7.8726e-05
0.0620531
-0.000550039
0.138154
-0.0338579
-0.00694105
-0.00708433
-0.00877439
-0.0677257
-0.00603728
-0.0011005
0.0222898
0.085106
0.00455516
-0.0332465
-0.00307283
0.0303038
-0.0096974
-0.0195814
-0.0718513
-0.0161682
-4.28182e-05
-0.0155254
0.536235
2.64854e-05
0.0547631
-0.0548605
0.646282
0.0518868
-0.0463925
-1.10491e-06
0.00173827
-0.0849137
-2.19077e-05
-0.00281959
-4.97279e-06
-0.0735965
0.00468077
-0.083597
-0.0232939
-0.000139115
0.324837
0.314275
-0.0359787
0.000461678
-0.000190666
-7.05833e-06
-6.5312e-05
0.580067
-0.00139049
0.00236827
0.0228775
0.000976625
-0.000633021
-0.0729637
-0.000291643
0.0470377
0.00148681
-0.00218955
-0.000790412
-0.0259887
-0.0414466
0.205649
0.0839701
-0.000179609
-0.0135267
0.000552029
-0.0812523
-0.00066696
0.145444
-0.0104559
0.761365
-0.0179869
-0.00153326
0.0817431
-0.0194167
0.41396
-0.0420639
-0.0116035
-0.0133426
0.0193264
-0.00378543
3.49749e-06
-0.00862101
0.363634
-0.0438786
-0.00340237
-0.0419162
-0.0274333
0.175967
-0.000546812
0.327091
-0.00438808
-0.0660736
-0.000571782
0.0138718
0.0483896
-0.00860868
0.392287
-0.000510348
0.0352272
0.0976364
0.000487841
-0.000155418
0.630576
0.0629861
-0.00132796
0.031304
0.0166678
0.000122276
-0.0840525
-0.0228288
-0.117269
-0.0109761
0.399473
0.00429738
0.132431
-0.000431654
0.476286
-0.0690259
-0.00555005
0.00650934
0.033393
-0.0687827
-0.118765
-0.00892888
4.28552e-05
0.696373
-0.0230992
0.000840959
-0.0475062
-0.0399544
0.402582
0.00312963
-0.0168185
-6.29094e-05
0.0561496
0.0084208
-0.0388077
0.000835378
-0.00367799
-0.0285813
3.48219e-05
-0.0522573
-0.00167078
-0.0153471
-0.0641946
0.344843
-0.0106802
0.00750662
-0.0500939
-0.0329037
-4.53372e-05
0.000140262
-0.00400752
3.6332e-05
-0.0116809
-0.078643
-0.00220073
-6.58134e-06
0.61676
0.00525859
0.000330946
-5.05086e-05
-0.00227767
0.385628
-0.0527403
0.697767
0.219826
0.0234156
0.337008
-1.24081e-05
-0.015237
-0.000913786
-0.0026462
0.23074
-0.0106309
0.699135
0.30425
-0.0572109
0.320976
0.0090093
-0.0148576
0.00234361
-0.0536955
-0.00422213
-0.0523016
-0.0560539
-0.00322448
0.315331
-0.0104224
0.000139184
-0.00458026
-0.000727583
-0.0349071
-0.00018765
-0.00136159
-3.10399e-05
0.187104
-0.119587
0.32578
0.0291894
-0.00294249
-0.0351304
-0.0210702
0.0813166
-0.00327941
-0.00115432
-0.0650336
-0.0463823
0.00815876
-0.0433597
-0.0047943
0.00466051
0.00199376
2.76674e-05
0.157923
-5.20064e-05
0.0625902
-0.000882934
3.18551e-06
0.00209399
-0.000738555
-0.00132586
-0.0168351
0.193022
0.174467
-0.0209321
-0.0132991
0.00304986
-0.005468
-0.0107804
-0.000106812
-0.000544737
0.000712573
0.131093
-0.00929167
-0.0580237
-0.0533959
-0.00258729
-0.0257367
-0.0170374
-0.00185882
0.00559803
-0.0131172
0.288201
-0.0704474
0.00581033
0.00136434
-0.0394477
0.684921
-0.0105932
-0.00598778
0.00821914
0.0921449
0.00424035
-0.00699138
0.316874
-0.000408486
0.0476337
-0.0252003
-0.0589649
0.00673396
-0.00401207
-0.00590738
0.0447356
-0.00389131
-0.00069081
-0.00256023
0.00264968
-0.000266872
0.0297077
-0.00994638
-0.00220982
-1.17983e-05
0.189366
-5.14216e-05
-0.0337598
0.0888361
-0.0261785
0.000127739
0.129777
-0.0455585
0.205713
-7.14462e-05
-0.00424727
0.0608542
0.000176176
0.00522799
-0.00485003
0.0111473
-0.0217977
-0.0333661
-0.00975185
-0.00289949
0.010529
0.0223062
-0.0269948
-0.000211111
0.135636
-0.0411448
-0.00356716
-0.00741525
0.000415699
-0.0647559
7.33183e-05
0.541628
0.24832
-0.000543535
-0.0224458
5.28258e-05
-0.00235053
-0.0061516
-0.0192859
0.189499
0.142954
0.00579934
0.0108309
-0.0722756
0.037621
0.00910463
0.00954371
-0.0516618
0.0150585
0.245442
-0.0101304
0.460328
-0.00101139
-0.0115408
-0.0515694
-0.000111612
-0.000826336
-4.56759e-05
0.456768
-0.0109238
0.000266685
-0.0163278
-0.0059836
-0.000361801
-0.0138363
0.328364
0.00101059
0.0115766
-0.0320414
-0.000549004
-0.0048982
-0.000878052
0.709134
0.000212231
2.60467e-05
-0.00211666
-0.0152325
0.0244152
0.000550709
0.00805358
0.0858836
-0.000184665
0.00213979
-0.0716818
-0.0228049
-0.0519104
9.34688e-07
0.000340393
-0.0164503
0.0338345
0.373191
0.105891
-0.0350676
1.12232e-06
-0.0570181
-0.00280361
-0.0131352
-0.0127111
0.210093
0.518386
-0.00012127
0.17458
0.282862
-0.0101731
-0.0287964
-0.0247771
-0.0165141
0.000106442
-0.040611
-0.00906955
-0.000146605
-0.000596137
-0.00168738
-0.00202591
-0.000729231
0.3636
0.385637
0.203485
-4.78807e-06
-0.0238174
-0.0129993
0.120666
0.54885
-0.000530467
-0.0208635
-0.0189404
0.347686
-0.019657
-0.0100098
-0.019814
0.179677
0.000298576
-0.000546197
-0.0264467
-0.0470316
0.143648
0.0277114
-0.0436986
-0.0251314
-0.00433651
0.0208616
-0.0497983
0.00733085
-0.0688909
0.119276
-0.000382365
-0.000675958
0.090275
0.000204952
0.0120542
0.0338587
-1.32798e-05
0.304401
-0.0110696
-0.00466571
0.728127
-0.0370149
-0.0109968
-0.0389896
-0.0028859
0.513533
0.00118841
0.687157
-0.00015315
-0.0275101
0.701449
0.00719609
0.510397
-0.00600253
-1.17367e-05
-0.0283541
0.520481
-0.00167593
-0.00692469
-0.00843917
-0.00106778
-0.0219399
0.523705
0.117193
1.98411e-06
0.0207506
-0.00391975
0.0315471
-0.000949403
0.0246211
-0.00276135
-0.000512765
0.496155
0.535498
0.502059
-0.0508297
-0.0549732
0.00013991
-0.0555977
0.334901
0.0156022
0.000236202
-0.0701868
0.000604716
-0.00011635
0.532272
0.000122199
0.00439533
-0.00203247
-0.00949604
0.507642
0.524088
0.540791
0.0124188
0.000482836
0.245256
0.00794723
0.0228699
-0.00941505
6.83381e-05
-0.00309398
-2.41882e-05
-0.00474653
-0.000794022
-0.00602777
-8.21689e-05
0.169245
0.00220888
-0.0731801
-0.00952392
-0.0683411
-0.0166063
-0.000823073
0.409397
-0.0110772
-1.91143e-05
-3.4978e-05
0.676326
2.76272e-05
0.011947
0.0572158
-0.0182468
0.349573
-0.00544137
-0.0426062
-0.036656
-0.000555937
0.000122675
0.301518
0.536869
-0.00162413
-0.0229313
-0.000253184
0.529789
0.650463
-0.00151531
-0.00677183
0.0203688
0.00315011
-0.0246616
5.67365e-05
0.0106185
-0.0374706
0.0576623
0.410472
-0.00158241
0.0303143
0.0778324
-0.000677205
-0.0436511
0.0297549
0.63034
0.20258
-0.05191
0.537395
-0.000628075
0.54776
-0.00778492
0.445367
0.0774144
-0.00525437
0.0339725
0.00251452
0.0185625
-0.0698371
-0.000709072
-0.0234174
0.441312
-0.0265363
0.0221931
-0.00155229
-0.0569122
0.193427
-0.00944575
-0.1479
0.000724124
-0.00377082
-0.023947
-0.00224887
0.00204038
-0.00904699
-0.000531295
0.00252788
0.440301
0.00223001
-0.0160826
-0.0573812
-0.0289776
-0.0608335
-0.0824979
0.00435207
-2.85454e-06
-1.87952e-05
0.293897
-0.0585751
5.85405e-05
-0.0747909
0.198261
-0.0583154
-0.0151026
0.000114177
-0.00197419
-0.0449161
0.146339
-0.00912471
-0.000507653
-0.0448162
-0.0198258
0.703649
0.120475
0.0704464
-0.0506665
-2.08964e-06
-0.00686179
0.0686696
-0.000395517
1.80666e-05
0.183505
0.10424
0.000628457
-0.000898847
0.00693186
-0.0396884
0.0105939
0.00813437
-0.0151212
5.1728e-05
0.308525
0.000589972
-0.000669282
-0.000251799
-0.000232857
-0.000168053
0.0868524
0.00094751
-0.00287312
-0.00962108
-0.00492431
0.0295831
-0.00548205
-0.0403698
-0.0104362
0.481403
0.391119
-0.000513924
-0.00151142
0.1007
-0.00085021
-0.0215158
0.0439929
0.00897117
-0.00100003
0.0212799
0.0417166
0.00130571
0.0802851
-0.00011231
0.0075903
-0.0247391
0.0141315
-0.0144656
0.0510119
6.9883e-05
-0.000131858
0.000265159
-5.48e-05
-0.00160174
-0.00965384
-0.0126788
-0.0285337
0.0374705
0.0375946
0.00933798
-0.0636755
0.0107182
0.00584891
0.0132215
5.63936e-05
0.524375
-0.00820147
-0.00328406
-0.0419168
0.713356
6.01544e-06
0.028075
-4.4225e-06
-0.0536525
-0.00637218
-0.0213795
0.182622
-0.00396999
-4.97984e-05
0.138441
0.0749928
-0.000566619
0.0528881
-1.16152e-05
0.173929
0.0062106
-0.0273151
-0.00015257
0.255288
0.0289867
-0.019689
3.32489e-05
0.180103
0.349428
-0.00112616
-4.25115e-05
-0.0346665
-0.00880127
0.00274399
0.0201794
0.550683
0.302009
0.000465385
0.37585
0.261203
-0.00280611
-0.0518706
-0.0363389
-0.0158685
-0.0548182
0.0659646
0.000795364
0.574217
0.150552
0.0123397
8.24111e-05
0.000612739
8.53753e-06
-0.000566014
-0.00273611
0.618964
2.89023e-06
0.081341
0.027175
-0.000231794
0.570657
0.651426
0.209319
0.248755
-0.0849536
0.00241827
-0.000290602
-0.0106196
-1.27957e-05
-0.00108571
-0.124092
-3.4726e-05
-0.00189181
0.585721
-0.0111373
-2.00203e-05
0.611145
0.000440042
-0.0331189
-0.064903
-0.00129284
-0.078966
-0.000235482
0.112962
0.0032459
-0.0168691
0.00188294
-0.000651774
-0.000390785
-0.000224
-0.121786
-0.0561162
0.162133
0.00268832
-0.00768143
0.245984
6.81308e-05
0.683125
-0.000545701
-0.0766021
0.00217905
0.0015831
0.0511834
0.0536641
-2.11259e-06
-0.00400291
9.6837e-05
-0.000662097
0.000808268
0.0848144
0.0489191
0.356389
-0.045176
-9.99848e-05
0.000157152
0.100682
0.386455
-0.00428326
-0.00602289
0.682414
-0.00268675
-0.019381
0.00079092
0.0495306
-0.0449026
-0.00813186
0.166078
0.00127642
-0.000249828
0.00159871
-0.0544875
0.672139
0.522991
-0.0225899
-0.0382513
-0.00615683
0.00150808
2.23482e-05
0.0758372
0.20282
1.57452e-06
-0.00694873
-1.87504e-05
0.000121553
0.490006
-2.77893e-07
-0.0738149
-0.0567719
-0.0918888
0.0694982
2.717e-06
0.0095932
-0.00588616
0.449148
-0.0150373
0.00481948
-0.0283952
0.000598216
0.389577
0.223517
0.0102537
0.0471749
0.593222
-0.0592923
-0.0549103
-0.00184196
-0.0066801
-0.000379592
0.0188385
-7.36304e-05
0.174245
0.00278909
0.189404
-0.0327322
-1.44652e-06
0.0528058
-0.000168118
-7.25318e-06
-0.000738858
0.665753
0.637677
0.330958
5.34074e-05
0.151227
0.546594
-0.000943896
0.00120926
-0.00801205
0.0529545
0.524602
-0.025699
0.124427
-0.00245925
-0.0589048
-0.0660225
0.739018
-0.000583585
0.521093
0.0883669
0.201855
9.72545e-05
0.000195688
0.00514525
-0.0084793
0.0819238
-5.56517e-05
6.05594e-05
0.511054
-0.0991145
0.000269823
0.537182
-0.00222158
0.000139254
0.424746
-0.00680817
-0.00149048
-0.0712623
0.116364
0.000296727
-0.000131556
0.00326073
-0.00385905
0.506624
0.661807
0.295807
0.720118
0.0451865
-0.0423171
0.599578
-8.02196e-05
-0.00308852
0.0744345
-0.00329316
-0.000631215
-9.83601e-05
0.535221
0.0126128
-0.000627552
0.643103
0.0750805
0.215971
0.0422245
-0.00259648
-0.0193438
0.140495
0.0690277
0.533641
-0.0230286
-0.000755204
0.487256
0.443819
0.0123438
0.366659
-0.036624
-0.00736125
-0.00889147
-0.000616914
-0.000137705
0.493375
-0.0572362
-0.0211101
0.000748179
0.159066
-0.0290375
-0.0185553
-0.000965454
-0.00374273
0.556368
-0.000770429
-0.0162939
-0.00285272
0.547185
-0.018175
0.0191477
-0.00705963
0.00131312
0.156181
-0.0204019
0.569984
0.025357
0.717717
0.267251
-0.0543593
0.0300251
-0.00170326
0.000576323
-0.0904433
0.514768
0.551952
0.622484
0.333421
0.499133
-0.000364067
0.586846
-3.17928e-05
6.2077e-05
-0.0436337
0.63789
0.0488922
0.247402
-1.06991e-05
-0.00206031
-0.103712
-0.0335046
0.505351
-0.000654564
-0.00722548
0.329984
0.000973668
-0.00401719
0.694481
0.0454097
-0.0407792
-0.165853
-0.000522527
0.0164478
0.00156294
0.727347
0.00767205
0.00278091
0.00394621
-0.000229627
-0.0100073
0.195572
0.00492147
0.000118797
-0.101282
0.254513
-0.00140973
0.521897
-0.0669802
0.528337
-0.0301029
-0.0211672
0.596067
-0.00501805
-0.0196217
-0.000393151
-0.00125663
-0.057366
-0.0207097
-0.0330899
-0.00910137
-0.00352708
-0.104324
-0.0631472
0.525841
0.000234584
0.000700654
-0.0189559
0.11259
-0.106215
-0.0529436
3.86835e-07
-0.106795
0.0439635
-0.000103965
-0.076708
-0.141444
0.533216
-0.0935672
0.519849
-0.0126802
0.0882909
0.260202
-0.0316952
0.310306
-0.00168779
0.0701656
0.000608936
0.0822417
0.193655
0.174413
-0.0259441
0.0056797
-0.000648366
0.179157
-7.98836e-05
-0.000126773
-0.000986086
-0.0119834
0.0137535
0.0138294
0.436925
0.141201
0.674867
0.401133
-0.00144416
-0.0295527
-0.000165319
-0.043409
-0.00118623
0.0053537
0.000584618
-0.0308432
0.348733
0.520053
-0.000279411
1.94877e-05
-0.0061002
-1.44291e-05
-0.00844366
-0.000178275
0.117607
-0.031987
0.187756
-0.0819244
3.17533e-05
-0.0126971
-0.035567
-0.0236573
-0.0149349
-0.0466651
0.0327375
-0.000157261
-3.42158e-05
0.00190708
-0.000136061
0.0636538
0.0117441
0.0357188
0.624216
0.0410687
-0.116356
-0.0751303
-0.000419136
0.0477848
-0.000121829
0.487488
0.0939446
0.579519
0.000122914
-0.0293598
-0.00624896
0.044597
0.122633
0.440596
-0.00694558
0.0245461
-0.00178611
-0.0176963
-0.00732722
-0.00559255
0.101341
0.00144383
-0.00801538
-0.0183568
0.20529
0.0520153
3.10225e-06
-0.00083096
-0.00568898
-0.000571366
0.0973879
-0.000627238
-0.0299026
0.129565
6.88902e-05
0.25157
7.78084e-05
-3.04769e-06
-0.0807245
-0.0184793
0.000145716
-0.0203155
0.000142135
0.607115
0.0113866
-0.0217928
0.561384
0.121179
-0.0280602
0.42911
-0.00254766
-0.00173404
-0.0019282
0.0737083
0.765436
-0.0013903
-0.000574522
-4.38374e-06
0.00715832
-0.00116548
0.023401
0.00559995
-0.0188245
-0.0521114
0.0168252
0.00952408
-0.0169307
-0.000507819
-0.0433166
0.418938
-0.0016775
-0.0124441
-0.000220437
0.439479
0.0479659
0.414052
0.000387172
-0.00079552
-0.0214649
0.625941
0.138488
-0.0253217
-0.000126169
0.0285726
0.0593385
-0.0281694
0.19008
-0.0419826
0.0172055
-0.11998
0.441111
-0.0150922
0.24463
-0.00291305
0.724607
-0.0364614
-0.0099613
0.568314
-0.0379553
0.157972
-0.128233
0.178339
0.0058686
0.045207
0.330968
0.045655
-0.0423192
-0.00877212
-0.0069229
-0.0147336
-0.0181871
-0.00142117
-0.0501566
-0.0252319
0.00176452
-0.0574224
-0.0710557
-3.75563e-05
0.0522158
-0.00826207
0.0361082
0.574125
0.379879
-0.0469372
-0.0617964
0.000403343
-0.0726307
-0.00408786
0.700491
-0.0312704
-0.0269462
0.37482
0.0439563
-0.035601
0.191804
-0.0326357
-0.000610808
-0.0105838
0.00911554
0.000579429
0.397468
-0.0024893
0.134916
0.322109
-0.00520377
0.237803
-0.0927011
-0.000351476
0.0060544
0.0519661
0.346735
-0.00232482
0.0665176
-0.0613032
0.0557062
-0.0205899
0.386483
-0.00373362
-0.0802312
-0.00299014
0.000162093
0.517139
-0.0022545
-0.0300721
-0.000104828
0.205067
-6.18337e-05
-0.0427438
-0.00293263
-0.143975
0.000575338
-0.00934314
0.153534
-0.00357987
0.000835957
0.000556064
-0.00377061
0.0223816
-7.68736e-05