/*--------------------------------*- C++ -*----------------------------------*\
  =========                 |
  \\      /  F ield         | OpenFOAM: The Open Source CFD Toolbox
   \\    /   O peration     | Website:  https://openfoam.org
    \\  /    A nd           | Version:  7
     \\/     M anipulation  |
\*---------------------------------------------------------------------------*/
FoamFile
{
    version     2.0;
    format      ascii;
    class       volVectorField;
    location    "33";
    object      U;
}
// * * * * * * * * * * * * * * * * * * * * * * * * * * * * * * * * * * * * * //

dimensions      [0 1 -1 0 0 0 0];

internalField   nonuniform List<vector> 
29540
(
(1.00903 -0.0119777 1.24093e-22)
(1.00834 0.00407722 6.33387e-22)
(0.992116 -0.00286667 -7.57178e-22)
(0.97307 -0.0415965 2.35151e-22)
(0.997937 -4.45885e-05 1.10839e-22)
(0.963004 -0.025286 -3.38036e-22)
(1.04593 -0.0742583 7.03627e-22)
(1.01175 -0.0181979 -1.2024e-23)
(1.00171 -0.00167774 1.79742e-23)
(1.00015 -4.12042e-05 4.46045e-24)
(1.01292 -0.0243742 -5.4032e-24)
(0.998008 -0.0142442 -2.95989e-22)
(0.999601 -0.000164952 1.58633e-23)
(0.999978 -8.09372e-06 5.61062e-25)
(1.1681 0.0895669 8.78523e-22)
(0.99484 -0.00166761 1.17064e-22)
(0.999864 -0.000728597 -7.49978e-24)
(1.13308 -0.016267 -4.48371e-23)
(0.998183 -0.00153825 -3.79101e-23)
(0.990701 -0.00068703 -1.66336e-22)
(0.999278 -0.00023402 -5.30252e-23)
(1.00161 -0.0016736 6.28411e-23)
(0.99204 -0.00303213 8.32446e-22)
(0.998191 -0.000146397 4.877e-23)
(0.884566 0.118073 2.79005e-22)
(1.00921 0.00323398 3.40655e-21)
(0.999573 -4.99102e-05 3.60725e-23)
(0.942869 0.100572 -1.9484e-20)
(1.17388 0.0890959 -2.51276e-21)
(0.999245 -0.00780899 -5.68761e-23)
(1.01322 -0.00979784 9.09729e-23)
(1.0336 -0.00692636 -6.91623e-22)
(0.97594 -0.0960498 2.40753e-21)
(0.998036 -0.019726 1.50997e-22)
(0.940756 0.095845 1.59994e-20)
(1.00231 -0.0282642 4.51813e-22)
(1.0697 0.0441338 -9.89879e-22)
(0.975785 -0.0234452 9.71069e-22)
(1.00455 -0.000714868 -2.48226e-22)
(1.00439 -0.000513047 4.72785e-22)
(1.00036 -0.000138664 -1.43972e-23)
(0.9899 -0.0258572 -1.0048e-21)
(0.999879 -0.000708177 -8.45902e-26)
(1.01899 -0.0636919 -1.91691e-21)
(1.00003 -4.23334e-06 -6.92251e-25)
(0.999415 -0.0079229 4.19249e-23)
(0.997775 -0.0105782 -8.39606e-23)
(1.00006 -7.14183e-05 2.01346e-24)
(1.00284 -0.00314945 -2.55974e-22)
(1.06934 0.0412539 -4.06742e-22)
(1.09769 -0.0953347 5.19765e-22)
(0.976125 -0.0367685 -1.11177e-21)
(1.03354 -0.0060854 2.44576e-22)
(0.964148 -0.0251067 -5.653e-22)
(0.994967 -0.00171069 -1.03117e-22)
(1.17758 0.0764665 -1.55581e-21)
(0.997129 -0.00192258 3.75626e-23)
(0.999257 -0.000257936 6.71642e-23)
(0.999671 -0.0186484 -2.16671e-22)
(1.00679 -0.050855 -8.08459e-22)
(0.999951 -5.68594e-06 1.18855e-24)
(0.998246 -0.00157634 -7.84994e-24)
(1.26042 -0.0166762 -9.54379e-22)
(1.00268 -0.0276455 -2.54216e-22)
(1.06834 0.112464 8.37112e-21)
(0.912176 0.0329046 4.08834e-20)
(0.998693 -0.0234327 -4.10737e-22)
(0.993671 -0.0117915 3.61931e-22)
(0.935444 0.0210575 1.648e-20)
(1.00038 -0.000130963 9.30588e-24)
(1.01074 0.00387739 -4.64074e-21)
(0.988256 0.0841782 1.12956e-20)
(1.00271 -0.00780587 -9.23796e-23)
(0.905551 0.137348 1.01103e-20)
(0.993175 -0.000538666 5.40197e-22)
(1.10537 -0.0567438 -1.89165e-22)
(1.24448 0.147492 1.33062e-21)
(0.976961 -0.0133414 2.30344e-22)
(0.999964 -1.78943e-05 -3.48109e-24)
(1.0017 -0.0416252 -7.78843e-22)
(0.964697 -0.00058975 -3.72452e-22)
(1.02129 0.0407928 2.72794e-21)
(1.00919 -0.0124981 -3.73273e-22)
(1 -5.14231e-05 9.85393e-25)
(1.04829 -0.072794 -1.09601e-21)
(1.16713 -0.1863 -3.14449e-21)
(1.03962 0.098717 -1.66903e-20)
(0.999586 -0.00016276 -1.43156e-23)
(0.999614 -0.000146876 -4.19194e-24)
(0.945739 -0.0317681 -1.33961e-21)
(0.992927 -0.0448442 1.37288e-21)
(0.976866 -0.0139741 2.58579e-22)
(1.00266 -0.00325375 4.35843e-23)
(1.05412 -0.0119128 -3.75466e-22)
(0.941393 -0.0135192 -1.12459e-21)
(1.05038 0.119515 7.88249e-21)
(0.99359 -0.0580987 2.16666e-21)
(1.00039 -0.000328858 2.30898e-23)
(0.973092 -0.05215 -2.07537e-21)
(1.16175 0.118301 5.21232e-21)
(0.999962 -1.76418e-05 5.10137e-24)
(0.978111 -0.00871181 -1.38696e-21)
(0.999952 -6.94515e-06 -6.12647e-25)
(1.04136 -0.0193827 -1.8185e-21)
(0.975008 -0.0365847 7.24714e-22)
(1.0344 0.0120938 4.60661e-21)
(1.0042 0.0793324 1.68449e-20)
(0.99963 -0.000148434 -3.56427e-23)
(0.999996 -5.80724e-05 -1.24348e-25)
(0.988969 -0.0940276 -1.24627e-22)
(0.974429 -0.0946969 -2.16991e-21)
(1.03597 -0.0385923 5.9484e-23)
(1.00001 -1.66775e-06 8.83065e-26)
(0.998997 -0.0052791 -1.45921e-22)
(0.999897 -0.00188019 6.03808e-24)
(0.991118 0.0861633 8.35587e-23)
(1.04379 0.0585112 -5.7983e-21)
(0.99001 -0.00613903 -5.70446e-22)
(1.00002 -5.64062e-05 8.16552e-26)
(1.00298 -0.00773458 -7.25506e-23)
(1.26472 -0.115628 1.17587e-20)
(1.00535 0.0120223 7.50136e-21)
(1.15654 -0.0843502 -4.32965e-21)
(0.910155 0.0402368 -3.7815e-20)
(1.00092 -0.000307177 -5.97146e-23)
(1.1536 -0.0595645 6.53279e-22)
(1.13205 -0.0116263 -3.02721e-22)
(1.0108 -0.0494217 6.21796e-22)
(1.00341 -0.00299 -2.29978e-22)
(1.00002 -0.000372813 -1.07916e-25)
(1.01887 -0.061986 6.85316e-22)
(1.24891 0.139834 5.44367e-22)
(1.00632 0.150321 1.69586e-20)
(1.15601 -0.104213 -1.26536e-21)
(1.03994 -0.0189504 1.52972e-21)
(1.01283 -0.00943295 1.72854e-21)
(1.08164 0.195824 1.19538e-21)
(0.977228 -0.000645657 1.92798e-21)
(1.06667 -0.186625 7.72897e-21)
(1.16339 0.111839 -4.04787e-21)
(1.15383 -0.0538492 -6.36482e-22)
(0.951616 -0.0040511 -1.48417e-21)
(0.959036 -0.0349872 4.42575e-22)
(1.00001 -1.46088e-06 -3.91114e-26)
(0.999992 -3.08388e-06 3.60768e-25)
(0.997882 -7.40574e-05 -8.6509e-23)
(0.997941 -0.0103695 1.72066e-22)
(0.98119 -0.0740414 -1.6889e-21)
(1.08527 -0.152393 3.85247e-21)
(1.29835 0.0485575 -2.88976e-21)
(1.02671 -0.0178203 8.44389e-22)
(1.01519 -0.0176663 2.66904e-22)
(1.00036 -0.000533814 3.53637e-23)
(0.999891 -0.000187016 4.42431e-24)
(1.00149 0.0209396 -1.66718e-20)
(1.00045 -0.00131079 4.13538e-24)
(0.99423 -0.00960458 1.20863e-25)
(1.09773 0.198623 -3.37476e-21)
(1.00447 0.0437734 -1.81892e-20)
(1.10108 -0.0928201 -1.16991e-21)
(0.966291 -0.00224865 6.36129e-22)
(0.97392 -0.0408132 1.6971e-21)
(1.17851 0.0824607 4.08954e-22)
(0.999963 -3.81782e-05 1.10517e-24)
(0.999992 -3.09147e-06 -1.35531e-25)
(0.989959 -0.00645211 2.0573e-22)
(0.960022 -0.0343335 -2.43521e-21)
(1.00004 -0.000190487 -1.71643e-24)
(1 -5.4981e-05 4.68813e-25)
(0.99425 -0.00433606 -6.90475e-23)
(1.00003 -0.000361788 1.01023e-25)
(1.00489 -0.00516771 -1.27345e-22)
(1.09278 0.202553 3.7859e-21)
(0.977553 -0.00034211 -1.63218e-21)
(1.02498 -0.101318 -8.30377e-22)
(0.995745 -8.35024e-05 3.51609e-22)
(1.00179 -0.0023194 1.33453e-23)
(0.977537 -0.0085588 2.29062e-21)
(0.99925 -0.00526999 -1.35138e-23)
(1.16491 -0.07572 2.76965e-21)
(0.999985 -7.81868e-06 1.93241e-24)
(1.00976 -0.0339221 -3.83709e-22)
(1.04213 0.100813 5.88973e-21)
(0.993943 -0.0109611 -2.08113e-23)
(1.0633 -0.181648 -7.39653e-21)
(1.03302 0.050117 -5.14099e-21)
(0.994677 -0.00238975 -5.12373e-22)
(0.984655 -0.0127667 6.29284e-22)
(1.00322 -0.00300384 3.49311e-22)
(0.999319 -0.00728304 -8.68332e-23)
(0.999778 -6.08831e-06 4.22195e-24)
(1.00489 -0.0155577 3.5948e-23)
(0.905273 0.0200896 1.58773e-20)
(1.00091 0.0169847 1.28588e-20)
(0.987939 -0.0051739 1.58906e-23)
(0.994485 -0.0094666 -2.28283e-22)
(0.980293 0.0439738 -1.55422e-20)
(1.01281 0.0318094 2.35062e-21)
(0.942562 -0.0133986 1.39036e-21)
(1.00097 -0.000410893 -4.66618e-23)
(1.05306 -0.0938751 1.33717e-21)
(0.970902 -0.0686726 2.17423e-21)
(0.99823 -0.0145482 1.41348e-22)
(1.0007 -0.00090181 -7.41721e-23)
(1.08491 0.200704 1.62517e-21)
(0.994431 -0.00434636 -4.66259e-23)
(1.00572 -0.00463742 -1.44479e-22)
(0.97995 -0.0734238 2.19973e-21)
(0.988817 -0.0960609 3.08023e-22)
(0.999974 -3.78583e-06 4.34083e-25)
(0.977225 0.120806 -1.77063e-20)
(0.999148 -1.94981e-05 -8.71208e-25)
(0.999999 -4.33561e-05 2.59882e-25)
(0.999553 -0.000173927 6.08435e-24)
(0.995302 -0.0453157 -5.10094e-22)
(1.25268 0.0130673 2.59207e-21)
(1.01067 -0.0333044 2.86134e-23)
(1.00554 -0.00432906 -9.89371e-23)
(0.998211 -0.000201283 1.21364e-22)
(0.943548 -0.0149523 -2.6494e-22)
(1.00003 -0.000396517 -4.3994e-25)
(1.0004 -0.00133617 4.24571e-25)
(0.998072 -0.000170859 -7.9905e-23)
(1.02518 0.00112692 4.29859e-21)
(0.99777 -0.00333116 -2.60216e-23)
(0.999021 -0.00490355 4.33464e-23)
(1.02447 -0.00132272 2.06817e-21)
(1.0001 -0.000324091 3.20286e-24)
(1.00002 -3.58128e-06 1.80487e-25)
(1.00419 -0.000515158 5.00806e-23)
(0.978945 -0.0268454 -8.43408e-22)
(0.979982 -0.000330631 -8.00241e-22)
(0.996003 -0.000317546 -3.72602e-22)
(1.0117 0.0030489 3.83379e-21)
(0.986897 -0.000944927 3.88038e-22)
(1.01543 -0.0170822 -2.65315e-22)
(0.999978 -9.03324e-06 1.57206e-24)
(0.997527 -0.00219652 -1.45879e-22)
(1.00066 -0.000894696 8.00839e-23)
(1.0534 -0.0905815 1.3363e-21)
(1.01534 -0.157927 4.76554e-21)
(0.998859 -0.000104157 6.36823e-23)
(1.00038 -0.000474803 -2.73089e-23)
(0.99894 -0.00478544 -1.45969e-23)
(1.00291 -0.00690656 -1.808e-22)
(0.990886 -0.000507045 -7.10604e-22)
(0.999964 -3.61952e-05 -6.03816e-26)
(1.16554 -0.180112 -7.13515e-21)
(1.00004 -0.000405647 3.15418e-25)
(1.02488 0.00106484 -3.0285e-21)
(0.99722 -0.00192503 -7.58201e-23)
(1.00012 -0.00031442 1.40631e-24)
(1.03343 0.0125463 -2.92735e-21)
(0.967222 -0.0653659 -2.18463e-21)
(1.0002 -3.53746e-05 1.49014e-23)
(1 -8.75172e-06 1.47763e-25)
(0.951492 -0.00289872 -1.6876e-21)
(1.00791 -0.144121 -7.58964e-22)
(0.992713 -0.00688779 -5.55887e-23)
(1.00986 -0.0504055 -1.6315e-22)
(1.02744 -0.0185178 -1.38088e-22)
(1.04809 0.0974105 7.39381e-22)
(1.00006 -6.73401e-05 5.65023e-25)
(0.979345 -0.026317 8.56128e-22)
(1.21461 -0.101828 5.106e-21)
(0.961045 0.0651924 3.7004e-22)
(0.993876 -0.0107116 1.67438e-22)
(1.03172 0.048453 6.30467e-21)
(1.10632 -0.0527229 -1.0536e-22)
(0.999894 -0.00206919 -7.18594e-24)
(0.816492 0.0555875 2.11793e-20)
(0.999551 -0.000366816 -4.11108e-23)
(1.0236 -0.103862 -1.03642e-21)
(0.944447 -0.0149635 1.72565e-21)
(1.0019 -0.0021924 -7.37105e-23)
(1.20542 -0.0300076 -1.84009e-21)
(0.992824 -0.000780201 -4.26476e-22)
(1.0088 0.16259 1.21236e-20)
(0.997102 -0.000221102 3.44487e-23)
(0.985059 -0.0137795 -3.30732e-23)
(0.999821 -0.00187915 -3.68052e-23)
(1.14034 0.156198 1.34971e-21)
(0.999816 -0.0147956 3.82628e-23)
(1.04678 0.120423 5.02564e-22)
(0.999585 -3.85597e-05 -1.57599e-23)
(0.995101 -0.00158345 -1.63476e-22)
(0.95863 0.147256 -7.54611e-21)
(1.02956 2.21113e-06 -3.49642e-21)
(1.02429 -0.000946742 2.40852e-21)
(0.974667 -0.033879 2.03605e-21)
(0.999881 -2.65714e-05 4.4272e-24)
(1.00282 -0.00666988 -2.03064e-23)
(0.99986 -0.000795941 -1.3543e-23)
(1 -4.08994e-05 1.89108e-25)
(1.05497 0.00311256 8.95857e-22)
(1.00003 -4.16142e-06 2.30851e-26)
(0.983148 -0.0121807 1.47047e-21)
(1.20877 -0.102105 -4.81745e-21)
(0.881929 0.123312 -1.93172e-20)
(1.00984 0.150819 -2.70258e-20)
(0.970778 -0.0569063 6.76918e-22)
(0.987704 -0.0250602 5.40401e-22)
(0.980938 -0.00127813 3.82195e-22)
(1.02865 -0.0348533 2.80032e-22)
(1.00539 -0.0153593 -8.42086e-23)
(0.984542 -0.0133751 -8.68762e-22)
(0.970862 -0.0624045 3.01202e-22)
(1.04622 0.100173 -1.09919e-20)
(0.999501 0.0155486 2.51356e-20)
(0.998935 -0.000127106 3.5047e-23)
(1.00574 0.0802577 -2.30402e-20)
(1.05391 0.00174077 2.91711e-22)
(1.16281 -0.0829657 1.2301e-21)
(1.0116 -0.0139995 1.30266e-22)
(1.00075 -0.0136527 -1.95649e-22)
(1.01706 -0.0469437 -4.55202e-22)
(0.995454 -0.00153161 -3.87476e-22)
(0.99776 -0.000556006 -2.54476e-23)
(0.999955 -5.37446e-06 6.35961e-24)
(0.999179 -0.00745954 1.27084e-22)
(1.08634 -0.0508913 3.23536e-23)
(1.14132 0.16227 -2.29335e-21)
(1.00137 -0.00119004 3.46923e-23)
(0.976716 -0.0219988 -1.16066e-21)
(1.01329 -0.014374 -4.09379e-22)
(0.999972 -1.27818e-05 -5.80841e-25)
(0.970813 -0.0595593 -1.07885e-21)
(0.855761 0.0958631 -9.81711e-21)
(0.994721 -0.004086 5.77297e-22)
(0.99905 -0.00391681 3.9498e-23)
(1.01213 -0.0138522 -8.11495e-23)
(1.00151 -0.0404209 9.8408e-22)
(1.09069 0.0277897 1.04792e-21)
(0.999486 -0.00847011 -2.08982e-23)
(0.999975 -4.41868e-05 3.91754e-24)
(1.00001 -2.37686e-06 3.45433e-26)
(0.997731 -0.00050656 -2.81397e-23)
(0.956448 0.146108 1.09031e-20)
(1.04423 -0.0293797 3.18808e-22)
(1.0193 -0.157837 -1.21682e-21)
(1 -8.73578e-06 2.50269e-26)
(1.0049 -0.146522 4.82176e-22)
(1.07927 -0.00740145 -1.05422e-21)
(0.99564 -0.000139725 -1.74338e-22)
(0.946529 -0.00547835 -2.087e-21)
(0.999122 -0.00384889 -3.98271e-23)
(0.999639 -0.000166229 -2.61159e-24)
(0.98002 -0.023807 -2.55377e-22)
(1.00078 -0.000990258 -3.58525e-23)
(1.17088 -0.0740621 -2.48043e-21)
(1.008 -0.000938587 -1.05453e-21)
(1.23608 0.101359 -5.89685e-22)
(0.999926 -0.00204231 9.26927e-24)
(1.00359 -0.0121936 2.85274e-23)
(1.00517 0.0106253 -1.01438e-20)
(1.25883 -0.11038 -4.81637e-21)
(1.00036 -0.000502547 -2.08072e-23)
(1.00037 -0.000445243 2.03462e-24)
(0.993926 0.101791 1.10325e-21)
(0.993797 -0.0457739 -2.72136e-22)
(0.999341 -0.00833816 2.56117e-23)
(1.0117 0.0353473 1.24001e-21)
(0.972148 0.022476 3.0417e-20)
(1.09693 -0.0997439 -1.75589e-21)
(0.998732 -0.0226223 -1.22335e-22)
(1.24742 0.0162086 -2.59118e-21)
(0.99936 -6.26637e-05 -2.66402e-23)
(0.992555 -0.00359679 1.5082e-22)
(0.997162 -0.000232553 -9.62082e-23)
(1.01441 0.0303122 2.34505e-24)
(0.999987 -0.000654028 1.18515e-24)
(1.00773 -0.0011425 1.07727e-21)
(1.10883 -0.15354 9.51274e-23)
(1.00387 0.141796 2.65146e-20)
(0.908936 0.141844 -4.46649e-21)
(0.994839 -0.00238501 2.07362e-23)
(0.992503 -0.0067224 1.65961e-22)
(1.06527 0.115855 -6.65692e-21)
(1.00699 -0.0524339 1.166e-21)
(0.999957 -6.42931e-06 -6.1994e-24)
(1.28319 0.093618 -1.84245e-21)
(1.02459 0.00161906 -1.29293e-21)
(1.02415 0.0016031 -8.8022e-22)
(0.994915 -0.0116726 -2.49158e-22)
(1.01662 -0.00177389 -1.67441e-21)
(0.947327 0.130501 4.33459e-21)
(1.07757 -0.158404 -1.05086e-21)
(0.97971 0.129709 4.34636e-21)
(0.995265 0.128502 -7.56675e-21)
(0.999997 -5.54102e-05 4.00533e-25)
(1.08341 -0.0493413 8.67897e-23)
(1.08006 -0.154065 6.89529e-22)
(0.997666 -0.00336073 6.76821e-23)
(1.0014 -0.00127615 -5.7141e-23)
(0.9667 0.0264708 7.27235e-21)
(1.04577 -0.0303412 -4.00119e-22)
(1.00024 -6.52791e-05 3.41618e-24)
(0.981716 -0.051179 -2.5945e-21)
(0.970088 -0.0703467 -1.02739e-21)
(0.995207 -0.00162718 2.29907e-22)
(0.999899 -0.00018153 -5.55442e-24)
(1.05912 0.143174 -1.06493e-21)
(1.04328 0.0562547 9.71938e-21)
(1.00004 -0.000444986 -2.1258e-25)
(1.00354 -0.00322875 4.51523e-23)
(1.00457 -0.00324541 2.45349e-22)
(1.16181 -0.138389 5.40615e-21)
(0.974748 -0.0329727 -1.84491e-21)
(1.00005 -0.000528987 -1.09964e-24)
(0.99999 -2.13462e-06 -1.88468e-25)
(1.00042 -0.000144164 5.49193e-24)
(1.08914 0.0294575 -9.92203e-23)
(0.975809 -0.0226188 -9.2919e-22)
(1.00246 0.0443805 5.31599e-21)
(0.953293 -0.0383183 1.0478e-21)
(0.9884 -0.0249795 -5.69259e-22)
(0.979407 -0.000991051 -1.52701e-21)
(1.01332 0.0341859 -6.10854e-21)
(1.25126 -0.0146054 -2.59876e-22)
(0.998968 -0.000135172 6.41978e-23)
(1.00689 -0.00531281 -2.62215e-22)
(1.00073 -0.000979676 4.06276e-23)
(0.978256 0.142518 -1.09315e-20)
(0.977585 -0.0205673 4.98722e-22)
(1.00094 -0.000249658 -1.95523e-23)
(0.993447 -0.00321015 -2.06889e-22)
(1.15996 -0.0496741 -8.19294e-22)
(0.999562 -0.00910412 -5.63186e-23)
(0.989832 -0.011039 -1.15258e-22)
(1.0002 -0.000124314 -1.02744e-23)
(1.0002 -4.75609e-05 -4.54239e-25)
(0.851769 0.102403 1.4788e-20)
(0.992876 -0.00116262 -2.65085e-22)
(0.9958 -0.00421913 2.3859e-22)
(0.999667 -0.00166469 -3.17506e-23)
(0.999376 -4.79222e-05 -3.65768e-24)
(1.05551 0.0947253 -3.67675e-21)
(1.11387 -0.157143 2.95622e-22)
(0.985806 -0.0373383 3.41897e-22)
(1.00001 -1.72949e-06 -4.91361e-26)
(0.999999 -3.26934e-05 1.71927e-25)
(0.976719 -0.021269 1.3125e-21)
(0.994105 -0.0017106 5.45762e-23)
(0.995485 -0.00195487 -3.16206e-23)
(1.01293 -0.00494924 5.1166e-22)
(1.00514 -0.00220787 8.82983e-23)
(1.00005 -0.0151611 -6.94843e-23)
(1.12729 -0.0327424 -9.89278e-23)
(0.983873 -0.00388117 -3.2403e-22)
(0.981825 0.127222 -3.69551e-21)
(1.01214 -0.0243396 -7.589e-23)
(1.00021 -0.000124829 1.14399e-23)
(0.970172 -0.055787 9.95105e-23)
(0.984572 -0.0330273 -1.18166e-21)
(1.19515 -0.0213327 -7.41923e-22)
(0.997438 -0.00554239 -7.23925e-23)
(0.988528 -0.0440242 -4.05697e-22)
(0.999984 -5.41155e-06 1.05285e-24)
(0.923803 0.103678 -1.52801e-20)
(1.01382 -0.00207874 9.39147e-22)
(1.00007 -0.000212646 -3.14509e-24)
(0.905083 0.0274681 -2.0597e-20)
(0.984887 -0.0374627 7.58419e-22)
(0.999984 -5.95746e-06 1.638e-25)
(1.00127 -0.00116247 1.68782e-23)
(0.970093 -0.0583245 -5.92841e-22)
(1.03464 -0.0372066 8.74712e-23)
(1.04655 -0.014056 1.07633e-21)
(0.999994 -3.09333e-06 3.03095e-25)
(0.99284 -0.000593956 2.10822e-22)
(1.01798 -0.046014 8.47437e-22)
(0.995341 -0.00149315 3.17944e-22)
(0.999603 -4.41983e-05 -8.55687e-23)
(0.992699 -0.00371473 4.05805e-24)
(0.976636 0.0464996 1.79903e-21)
(0.993566 -0.0114534 -3.01189e-22)
(0.990259 -0.0108206 8.42499e-23)
(1.00167 0.0246262 -5.17224e-21)
(0.997573 -0.0020745 7.58869e-23)
(0.972032 0.144411 -1.35691e-21)
(0.999983 -5.8689e-06 -5.31775e-25)
(0.990219 -0.0252409 2.33521e-22)
(0.980036 -0.0699517 2.58345e-21)
(0.989352 -0.044388 6.94846e-22)
(1.19781 -0.113516 1.35196e-21)
(0.998913 -0.00512788 9.77952e-23)
(1.00791 -0.0226013 1.32042e-24)
(0.999912 -0.0022001 1.73281e-24)
(0.984681 -0.0194412 -6.56544e-22)
(1.03561 -0.0404191 -5.7412e-24)
(0.999974 -1.21294e-05 3.00768e-24)
(1.00001 -8.59856e-07 -8.27526e-26)
(0.994405 -0.000384422 1.43981e-22)
(0.98029 0.089727 1.13616e-20)
(1.01127 -0.0188279 4.28717e-22)
(1.00229 -0.00328151 -7.0685e-23)
(0.942485 -0.0279734 1.43607e-21)
(1 -7.74024e-06 7.57298e-26)
(1.00086 -0.00108205 -6.51033e-23)
(0.999967 -0.000623257 -9.74202e-25)
(1.01257 -0.0181046 5.0279e-22)
(0.984979 -0.0143864 1.15946e-22)
(0.999665 -0.000259456 1.08259e-23)
(0.994006 -0.0102258 1.14136e-22)
(0.989014 -0.00639123 -1.20691e-22)
(1.0009 -0.000149656 -5.38677e-24)
(0.999983 -6.43801e-06 -3.29071e-25)
(1.22957 -0.0714042 -5.00294e-21)
(0.999701 -0.00163698 3.41899e-23)
(1.0761 -0.0120606 7.88195e-22)
(1.02068 0.138406 2.72528e-20)
(1.05978 0.114516 -6.15374e-21)
(1.00016 -0.0191332 -2.58002e-22)
(1.00504 -0.00200287 -2.92135e-23)
(1.01695 -0.00141258 1.02614e-21)
(0.999956 -0.00224972 -1.96671e-24)
(0.997929 -0.00965815 1.21717e-22)
(1 -1.45667e-05 2.85687e-25)
(0.992209 0.12892 -5.49739e-22)
(0.988951 -0.014513 1.63702e-22)
(1.01268 -0.00456771 -3.65951e-22)
(0.98423 -0.00403031 6.74834e-22)
(1.00316 -0.0119811 3.68856e-24)
(0.99759 -0.0054524 1.58082e-22)
(0.999909 -0.00018595 1.32497e-24)
(1.00001 -1.01391e-06 -4.9342e-25)
(0.995942 -0.00420357 -1.7376e-22)
(1.05415 -0.0136392 -5.72093e-22)
(1.0047 0.0458892 8.25145e-22)
(1.00109 -0.000442693 -7.93998e-23)
(0.974493 -0.0523374 -5.51411e-22)
(0.977551 -0.0199453 -2.19856e-22)
(0.993017 -0.00046553 -7.90524e-22)
(1.29018 0.0469854 1.81773e-21)
(0.998846 -0.000891419 -3.82775e-23)
(1.00318 -0.0135439 -5.97461e-23)
(0.995124 -0.00257132 1.60883e-22)
(0.999917 -0.000179148 1.11044e-24)
(0.970054 -0.0610101 6.77856e-22)
(1.00206 0.0378951 -8.32442e-21)
(1.03223 0.0438532 -6.44052e-21)
(0.979856 -0.0134077 -1.06109e-22)
(1.00152 0.0358373 -3.53185e-22)
(1.00007 -0.0001996 5.96251e-24)
(1.00001 -9.56102e-07 1.41727e-25)
(1.27695 0.0897623 4.80424e-22)
(1.20343 -0.0232464 1.50105e-21)
(0.906777 0.105297 -7.36348e-22)
(0.994287 -0.0750896 2.00583e-21)
(0.979625 -0.00136866 -4.9317e-22)
(1.15963 -0.0430484 1.21933e-21)
(1.00103 -0.000461059 8.99025e-23)
(0.994937 -0.00346372 9.21144e-23)
(1.0004 -0.000152989 -5.24647e-24)
(0.990507 -0.000649618 -1.68637e-22)
(0.989368 -0.011876 -2.39369e-22)
(0.999995 -2.91166e-05 -1.0963e-24)
(0.999224 -3.02232e-05 1.51905e-23)
(1.00339 0.138513 -2.59114e-20)
(0.999884 -0.000647116 1.23872e-23)
(0.932655 0.0958036 1.91749e-20)
(1 -1.36197e-05 -2.18976e-25)
(1.28712 -0.0528722 -5.31962e-21)
(1.07593 -0.014268 -1.71299e-21)
(1.12756 -0.0288145 9.08395e-23)
(1.00092 -0.000436661 5.36043e-24)
(1.00016 -3.78447e-05 9.07775e-24)
(0.984912 0.0848856 -1.72809e-20)
(1.07922 -0.00990668 3.5104e-21)
(0.979397 -0.0711934 -2.3474e-21)
(1.02217 0.0428096 2.96116e-21)
(0.997622 -0.0193362 1.04737e-22)
(0.988059 -0.00487569 -1.75465e-22)
(0.996398 -0.000199166 -9.59686e-23)
(1.15054 0.196707 -1.00457e-20)
(0.97833 -0.0238797 8.19679e-22)
(1.02923 -0.0334403 -2.13424e-22)
(0.994243 -0.0101372 -6.56179e-23)
(1 -7.75266e-06 -1.45953e-27)
(0.998858 -0.000841767 -3.25464e-23)
(1.00538 -0.00559009 1.51514e-22)
(0.983613 -0.00718862 8.63001e-22)
(0.980367 -0.0135264 1.59441e-22)
(0.961292 -0.0350455 -2.3732e-22)
(0.983436 -0.00762116 -6.54713e-22)
(1.01767 0.002784 5.15831e-22)
(0.99812 -0.000129134 2.00356e-24)
(0.94694 -0.0322011 7.44791e-22)
(0.987484 -0.000829741 -2.40634e-22)
(1.00003 -0.000192528 4.90491e-25)
(0.989073 -0.000666219 -1.66467e-22)
(1.02958 -0.0361796 -2.58609e-22)
(1.01694 0.00298165 -2.85355e-21)
(0.976574 -0.0239517 -2.02599e-22)
(0.99999 -5.4888e-07 -5.05181e-27)
(0.98429 -0.0146865 1.74417e-22)
(1.00177 -0.0138046 2.56901e-23)
(1.00124 -0.00107859 2.17055e-23)
(1.09574 -0.167347 -3.26346e-21)
(1.00176 0.0350078 -1.94189e-20)
(1.0008 -0.00106835 6.04138e-23)
(0.98926 -0.00050286 2.26814e-24)
(1.08844 -0.097422 7.70449e-23)
(1.02568 0.000247608 4.28551e-21)
(0.990696 0.0304427 -1.93869e-21)
(1.00165 -0.00228369 1.92332e-23)
(0.999966 -0.0199221 8.01568e-23)
(1.11492 0.140593 -1.82387e-21)
(1.01527 0.0268641 -1.50685e-20)
(0.991157 -0.0252028 6.22579e-22)
(1.0043 -0.00324491 -2.74641e-23)
(0.957002 -0.0412629 1.08141e-21)
(0.999998 -3.7094e-06 2.32577e-25)
(0.957405 -0.00175993 -7.66387e-22)
(1.00007 -6.26652e-05 1.17124e-24)
(1.08538 -0.0975107 -4.00415e-21)
(0.999975 -2.66736e-06 -3.38647e-25)
(1.00002 -5.50799e-05 4.13224e-25)
(0.999543 -0.0222614 -9.68788e-23)
(1.26605 -0.00924421 2.29534e-21)
(1.03704 0.177242 1.11859e-20)
(1.03269 -0.037519 -3.55112e-22)
(1.01264 -0.014494 2.72515e-22)
(0.999999 -2.73712e-06 -7.13053e-26)
(0.994531 -0.00411439 -3.11643e-22)
(1.00008 -1.92934e-05 -8.8996e-25)
(0.997191 -0.00220714 1.08584e-22)
(1.00002 -5.11062e-05 -3.16598e-25)
(1.04679 -0.0121254 -3.35229e-21)
(0.999583 -0.000431655 -4.22554e-23)
(1.06084 0.0582551 6.13129e-21)
(0.99989 -0.000198356 -8.413e-24)
(0.988491 -0.00476686 -2.97296e-22)
(0.963946 -0.000955138 1.79406e-21)
(0.996211 -0.000273878 -1.23889e-22)
(0.984287 0.0457472 1.86179e-20)
(0.984655 -0.000647251 4.50567e-22)
(1.01382 -0.0982441 1.80388e-22)
(0.995066 -0.00363392 4.78177e-22)
(1.02381 -0.00259127 -8.68422e-22)
(0.972258 -0.0529301 2.37921e-21)
(1.01806 -0.00132911 -2.87587e-21)
(1.03237 -0.0702888 -8.35693e-23)
(0.99999 -1.73981e-06 4.94163e-26)
(0.999003 -0.0187917 8.77775e-23)
(0.996456 -0.000262828 1.50907e-23)
(1.00022 -8.41529e-05 6.93857e-24)
(1.00007 -1.64063e-05 1.45714e-24)
(1.1567 0.199891 1.08787e-20)
(0.995634 -0.00196135 2.66791e-22)
(1.0255 0.00102233 4.91299e-21)
(1.00053 -0.0204266 9.90876e-23)
(1.00076 -0.000280101 2.07438e-23)
(1.02201 -0.00812351 -3.11327e-21)
(1.00014 -3.55847e-05 -1.9793e-23)
(0.999982 -3.48214e-06 -4.69858e-26)
(0.957905 -0.00234546 5.91567e-22)
(0.996886 -0.00111883 1.20661e-22)
(1.00003 -4.97137e-05 5.57576e-25)
(1.07292 0.112649 4.41276e-21)
(0.869099 0.0837035 -2.7462e-20)
(0.999816 -0.000210165 2.0445e-23)
(0.965508 -0.00193185 -4.96067e-22)
(1.00001 -1.12718e-06 1.05176e-25)
(0.943579 0.127562 -1.76773e-20)
(1.29535 -0.0550107 -6.9401e-21)
(0.973106 -0.0425809 -1.91709e-21)
(1.00004 -0.000511393 -1.25093e-24)
(1.02823 -0.0322011 5.58701e-22)
(1.0292 -0.00287119 -1.2027e-21)
(1.03028 -5.03199e-05 3.60663e-22)
(1.04768 -0.0148186 -4.07673e-22)
(0.999669 -0.0017547 -5.06169e-24)
(0.999881 -0.000775991 1.07484e-23)
(0.987334 -0.0143973 -5.18317e-22)
(1 -6.87556e-06 2.07709e-25)
(1.00001 -8.77992e-07 -2.68382e-26)
(0.977607 -0.0234312 -4.80974e-22)
(0.994947 -0.0574859 -1.0819e-21)
(0.962385 -0.0344452 -6.0797e-23)
(0.891193 0.118763 -5.98269e-22)
(1.00017 -2.31079e-05 -8.40148e-24)
(1.01038 -0.073786 -2.4138e-21)
(1.00667 -0.0049847 -2.69357e-22)
(0.999983 -3.83403e-06 5.38386e-25)
(0.999073 -0.00364654 -8.58785e-23)
(1.00003 -0.000432655 -6.28114e-25)
(0.995873 -0.0118584 1.88873e-22)
(1.00004 -9.1467e-06 7.95034e-25)
(1.03415 -0.0692918 -1.99033e-22)
(1.01769 -0.00162236 2.78773e-21)
(0.97389 0.141779 3.8129e-21)
(1.02331 -0.00244448 3.2662e-21)
(0.999757 -0.000205616 1.59597e-23)
(1.0004 -0.00035892 -2.0124e-23)
(1.15819 -0.144558 -5.41157e-21)
(1.02546 0.00078322 -3.95241e-21)
(0.997256 -0.000360884 1.08837e-22)
(1.00001 -1.53892e-06 2.33083e-25)
(1.09068 0.0964562 -7.02758e-21)
(1.05329 -0.177395 -1.25625e-21)
(0.994591 -0.0735509 -8.96942e-22)
(0.987143 -0.000706105 -1.27018e-22)
(0.999985 -1.81791e-05 1.07248e-24)
(0.99976 -0.000193842 -9.33656e-24)
(1.05672 -0.182111 3.48749e-21)
(0.996282 -0.0461845 -3.00494e-22)
(1.03897 0.0306539 9.11019e-22)
(0.981163 0.122749 1.59513e-20)
(1.01316 -0.0956775 1.32194e-21)
(0.998887 -7.74893e-05 -2.00171e-23)
(0.999985 -8.59013e-06 -1.25576e-24)
(0.966073 -0.0449686 1.85456e-21)
(0.973046 -0.0901363 -2.55862e-21)
(0.999823 -0.000217726 1.10016e-23)
(1.00852 -0.0220012 1.3776e-22)
(0.991465 -0.0245433 -1.10312e-22)
(0.995858 -0.00210408 1.05421e-22)
(0.998453 0.0294924 -1.45843e-20)
(0.998862 -0.00050182 7.12499e-23)
(1.04714 -0.0538924 -1.89695e-22)
(1.24553 0.154288 -1.81273e-21)
(0.993091 -0.00302669 -3.01748e-22)
(0.90453 0.0992539 -2.71316e-21)
(0.914204 0.0469621 8.63306e-21)
(0.999975 -4.6755e-05 -3.94634e-24)
(0.999975 -0.000681923 -1.11071e-24)
(0.984838 -0.000860264 -2.88661e-22)
(1.01202 -0.00446983 -6.62844e-22)
(0.966923 -0.00178495 1.03501e-21)
(1.00468 -0.00402924 -2.81253e-22)
(0.993338 -0.00303735 2.82366e-22)
(0.999499 -0.000460108 -3.20442e-23)
(0.953594 0.128287 -3.12571e-21)
(1.06131 0.0554446 -9.54744e-21)
(1.00204 -0.00221533 4.95938e-23)
(0.824338 0.0525645 -5.41165e-21)
(1.00001 -7.34063e-07 -1.46283e-25)
(1.02403 0.00634119 -6.96416e-21)
(0.986954 -0.0894407 1.8869e-21)
(1.01256 -0.0740949 9.45936e-22)
(1.00008 -0.000193862 -2.96249e-25)
(0.965373 -0.000975338 8.50182e-22)
(1.0216 0.00576283 3.93942e-21)
(1.0117 -0.00477859 5.47844e-22)
(1.02871 -0.00178404 1.68347e-21)
(0.999614 -3.46383e-05 6.03143e-23)
(0.999578 -0.000460049 3.82775e-23)
(1.02102 -0.0451377 2.56022e-22)
(0.996937 -0.0012057 -3.46778e-22)
(0.988621 -0.0107853 -5.62861e-22)
(0.999186 -0.0033046 5.09017e-24)
(1.08803 0.0371426 4.30945e-21)
(0.998739 -0.0195706 -5.98079e-23)
(0.995554 -0.00446464 5.92093e-24)
(0.939748 -0.023632 -2.10974e-21)
(0.996548 0.101683 1.80646e-21)
(1.11088 -0.0499875 5.65454e-22)
(1.02151 -0.00778208 2.50356e-21)
(0.999654 -0.000166718 1.15454e-23)
(0.999554 -0.000300754 5.19154e-24)
(0.984028 -0.019189 1.31802e-21)
(1.00089 -0.00116466 -4.85088e-23)
(0.9977 -0.000636966 -1.97021e-23)
(0.999986 -1.71682e-05 -4.0494e-25)
(0.999703 -0.00178803 9.74743e-25)
(1.021 0.00530564 -1.5343e-21)
(0.983925 0.0885793 -1.65786e-20)
(0.999894 -1.3675e-05 2.6472e-24)
(1.18613 0.177325 -7.42253e-21)
(0.999995 -3.66638e-05 4.58547e-25)
(0.997098 -0.00261515 1.47774e-22)
(0.999993 -8.72031e-05 4.93812e-25)
(1.00472 -0.0034887 -1.24959e-22)
(1.22963 -0.078975 3.82425e-21)
(0.999968 -3.89982e-05 3.07726e-25)
(0.999967 -4.18646e-05 2.2263e-24)
(0.952374 -0.0387117 -1.00072e-21)
(1 -6.90881e-06 -4.95271e-28)
(1.05095 -0.0149955 3.37105e-21)
(0.987797 -0.0383522 1.10173e-21)
(0.999978 -0.000598932 1.08424e-24)
(1.08791 0.072321 -5.38316e-21)
(0.999999 -2.62616e-05 -3.77252e-25)
(0.999658 -3.57888e-05 5.29244e-23)
(0.999927 -3.23508e-05 8.52758e-26)
(0.995712 -0.00447419 -8.94835e-23)
(0.999697 -0.0014246 -1.63086e-23)
(0.994513 -0.000291763 -9.68024e-23)
(0.993277 -0.108267 -2.16711e-22)
(0.999731 -0.00138715 1.09126e-23)
(1.00377 -0.00324445 -9.69296e-23)
(0.999982 -2.59853e-06 -1.99631e-25)
(1.03958 0.173732 -2.16979e-20)
(1.04539 -0.0547357 -5.04275e-22)
(1.11442 -0.0513804 2.49841e-22)
(0.969186 -0.00535214 1.11781e-21)
(0.980007 -0.00386249 -2.07882e-22)
(0.999154 -0.00356665 1.4182e-22)
(1.00261 -0.00247177 1.34924e-22)
(1.05004 0.0719014 2.67005e-21)
(0.98394 -0.033954 1.60671e-22)
(1.13823 0.117479 2.31979e-21)
(0.96174 -0.0120275 -2.00156e-21)
(0.996996 -0.00252437 -1.39202e-22)
(0.999993 -3.71269e-06 -5.41997e-25)
(0.994958 -0.00257986 -1.9394e-22)
(1.01252 0.164647 5.55907e-21)
(1.07887 0.0836863 -1.27762e-21)
(0.983103 -0.0509112 8.8924e-22)
(0.948698 -0.00511816 4.57908e-22)
(1.04539 0.164748 5.90737e-21)
(0.992481 -0.000530691 2.49361e-22)
(0.983651 -0.0815587 1.48778e-22)
(0.999993 -8.34493e-05 1.10673e-24)
(0.98679 -0.0384774 1.36623e-21)
(0.999273 -0.000207756 -7.54436e-23)
(0.836964 0.0895144 -1.55157e-20)
(0.979401 -0.0665037 -1.94616e-21)
(0.999929 -2.90944e-05 5.04297e-24)
(0.945465 -0.016518 -1.17947e-22)
(0.983721 -0.0360077 7.52134e-23)
(1.03557 0.0798814 9.76079e-21)
(0.997731 -0.000695228 -1.85815e-22)
(0.982103 -0.0346498 -4.78058e-22)
(0.997758 -0.00989833 -1.69958e-22)
(0.999636 -0.021517 -2.00677e-22)
(0.998892 -0.00051069 -4.86883e-23)
(1.03414 0.0781825 -1.18631e-20)
(1.01236 -0.153029 2.09663e-21)
(0.984225 -0.0152873 -3.86651e-22)
(0.98784 -0.0133954 8.36287e-24)
(0.988589 -0.00450279 -1.19748e-22)
(1.00471 -0.00189663 -1.15139e-22)
(1.04741 0.160184 2.30654e-20)
(0.984237 -0.0124008 1.74864e-22)
(1.01459 0.0406358 6.50197e-21)
(1.00241 -0.00198233 1.02769e-22)
(1.2051 -0.112528 -7.7613e-23)
(0.92946 0.102556 2.86093e-21)
(0.992333 -0.000413518 -8.62827e-22)
(0.999808 -3.68989e-05 1.06272e-23)
(1.05341 0.0976486 2.87385e-21)
(1.00019 0.132684 -2.10439e-20)
(1.02045 -0.0434908 -3.24504e-22)
(1.07682 -0.0503075 -6.30003e-23)
(0.995666 -0.0122924 -2.11346e-22)
(0.969653 -0.0048421 -6.63171e-22)
(1.1114 0.13714 7.25327e-21)
(0.964896 -0.0450847 3.07757e-22)
(0.999983 -1.75924e-05 1.37334e-24)
(0.993479 -0.00010287 -4.45254e-22)
(1.00003 -4.74373e-06 7.78743e-25)
(0.996081 -0.000246001 3.36216e-22)
(0.999983 -1.87806e-05 -2.13568e-24)
(0.998041 -0.0138157 2.85728e-22)
(0.999172 -3.35558e-05 2.67978e-23)
(0.997557 -0.00516887 1.8351e-23)
(1.17436 -0.130973 -9.62932e-22)
(0.999486 -0.000352297 2.7391e-23)