/*--------------------------------*- C++ -*----------------------------------*\
  =========                 |
  \\      /  F ield         | OpenFOAM: The Open Source CFD Toolbox
   \\    /   O peration     | Website:  https://openfoam.org
    \\  /    A nd           | Version:  7
     \\/     M anipulation  |
\*---------------------------------------------------------------------------*/
FoamFile
{
    version     2.0;
    format      ascii;
    class       volScalarField;
    location    "14";
    object      p;
}
// * * * * * * * * * * * * * * * * * * * * * * * * * * * * * * * * * * * * * //

dimensions      [0 2 -2 0 0 0 0];

internalField   nonuniform List<scalar> 
117990
(
22.5205
-0.0414029
8.72695
2.48954
8.00757
-0.0145611
37.3744
17.4589
-0.258581
-0.04321
-0.448772
0.369959
5.33629
72.6716
-0.251072
68.2996
-0.0728167
-0.47226
36.2514
8.10277
17.3725
-4.34037
-0.493082
3.66952
36.1192
32.5734
12.8751
21.0979
-0.0808371
33.4167
-0.298962
33.1031
15.3089
4.88035
35.1873
-1.42429
37.0168
-0.0653924
-5.78574
38.2646
33.1822
-0.472658
14.0139
-1.46554
24.3347
72.8249
15.3476
10.8316
8.54366
0.334076
-0.000191583
-3.10286
33.7428
-0.0224115
8.4346
33.8268
32.1101
35.4666
23.9927
9.91545
-0.0927586
3.85896
-0.921227
10.4181
-0.182469
3.40636
5.14782
30.2418
12.6892
31.2584
36.9871
30.5583
38.2205
57.8074
19.8303
25.0792
24.6721
2.84216
37.4412
30.2335
30.3075
-0.176292
23.2067
20.5923
-2.70423
0.354833
12.4672
-0.0581029
33.0166
-0.0564014
0.533351
3.953
-0.0837755
-1.12954
-0.533991
0.798908
-0.582767
22.6953
11.4148
32.9942
-0.0938845
23.3697
12.9976
6.98759
37.0928
17.7191
38.4682
16.9027
17.0065
-0.0669127
30.2791
-0.57766
24.7893
14.6173
29.4346
11.8865
-0.452306
36.6733
0.0243792
30.4695
36.5668
68.3884
8.93278
25.5556
-0.00764692
33.7238
3.97047
26.9367
-1.75296
26.3356
21.8648
0.533949
34.8754
0.352565
0.0253208
35.8833
35.6024
15.3784
8.55681
3.82728
23.3376
11.7216
0.0988656
34.0021
22.1418
-0.000278359
19.1662
4.00868
30.285
5.05078
17.5814
25.1479
3.86086
-0.00751603
-3.06008
15.2854
-0.0645809
28.0677
30.3836
17.9317
24.1452
19.0509
-0.907973
17.2394
13.09
-0.877847
25.3455
17.6035
27.9054
12.9608
10.9061
15.2793
-2.77853
69.984
17.4656
29.1462
70.2332
1.82266
17.5233
8.43549
19.4706
19.9292
35.6649
34.1131
38.4679
-0.0430396
1.41087
36.3279
24.3553
0.746412
1.87531
11.4228
36.612
16.327
32.712
16.9916
70.3517
-1.35166
17.6032
19.5477
34.8614
37.9351
20.5386
-0.066737
0.793837
26.8032
-0.389941
-0.177717
26.8316
18.6877
70.6572
38.4408
36.1566
-0.0547337
17.8284
16.557
28.8561
15.4051
72.711
-0.191677
17.0132
14.3932
9.82698
33.9976
-0.0237234
34.5338
16.8736
19.1312
16.8251
36.3595
22.2864
20.831
25.4196
17.0424
21.6459
34.9417
0.956461
11.1198
17.3609
-3.15645
7.74238
21.1357
17.8789
10.7083
-1.80639
5.38433
32.0564
38.6293
17.6106
54.9944
36.5467
-0.42001
34.0014
4.74687
28.119
19.5964
22.1545
21.034
0.610464
17.3143
19.6209
72.8836
34.1715
-6.10383
17.0634
2.59884
25.874
-1.72196
27.8959
22.0621
-0.19034
24.4416
8.41859
21.1807
3.98708
12.9943
23.1767
17.5911
10.4108
16.3715
17.2855
-1.77964
2.49144
26.4833
0.474534
17.4075
34.7036
33.4928
22.3683
-4.85161
24.0063
-0.0604412
21.7732
38.4115
0.054151
21.1951
-0.0576455
32.9589
6.59699
21.7218
71.7605
17.0064
-2.29916
5.82732
15.4242
30.8217
20.9672
18.9907
0.914221
17.5354
-0.634467
33.7412
30.4498
17.3996
5.25785
12.8237
36.606
5.38021
3.72028
19.7639
26.4481
-0.181603
20.4146
29.5257
31.4053
27.501
15.4518
32.6532
71.9146
21.9956
-0.459549
-0.0607844
0.045396
-0.094602
33.5588
3.72292
28.6112
-0.18275
-0.0974137
1.30929
8.91922
31.873
12.1148
9.74948
6.62336
7.19051
10.4632
25.479
22.2903
10.3897
35.0368
36.2084
19.5027
1.83194
19.4567
17.9734
22.5545
-0.000890474
0.816434
24.1292
36.4407
14.3661
37.0299
32.0269
24.7529
-0.000779407
3.3457
14.2304
9.85048
-0.00371241
14.4675
27.337
37.8321
-0.736611
28.8691
10.8522
12.8542
0.327775
-0.0663832
24.5566
21.4629
17.0862
14.3292
24.0918
17.3794
-0.285783
26.0123
58.194
7.95681
18.8345
32.9436
37.696
12.6129
21.1536
14.2538
0.715431
1.25577
3.08802
8.33136
11.25
19.709
1.08774
27.5976
38.1156
-2.33949
22.4714
0.0257556
9.68388
28.3718
-4.43833
15.6858
-0.707101
7.28948
2.84243
-2.77093
10.2812
8.31226
12.2849
0.0673642
17.0948
-0.00084456
70.8293
0.543093
35.5105
30.7951
36.3847
22.7786
36.9858
31.9632
3.59858
5.93372
0.023792
-0.20302
18.4367
5.77674
9.65624
22.8491
0.530513
-0.307957
0.316106
2.71837
26.5226
22.6019
11.344
0.447683
14.3981
5.27996
-0.282316
37.6308
29.0913
38.3994
0.0744714
0.375117
6.18441
17.5967
4.83928
17.0516
38.8256
35.2277
-4.01096
27.7639
5.27581
7.86446
38.2186
33.848
17.245
7.67469
69.9098
-3.93052
0.0751319
17.1476
57.0652
17.3406
58.3549
22.7565
31.3645
-0.00293747
7.72712
23.3041
27.1458
35.3301
-0.00206658
-0.180948
5.38891
17.3453
-0.301386
0.0752119
27.4719
35.355
21.8996
38.341
10.2018
36.3713
34.5724
2.96558
14.541
65.971
14.5434
11.0179
7.01655
-1.08445
37.4336
17.0795
35.7162
20.9911
36.2751
10.5972
8.9376
6.95072
35.1602
1.9075
4.63185
4.72188
-0.0822237
22.259
19.3465
0.647217
27.7634
-0.027824
-0.0169633
6.02439
21.1684
2.05806
10.1777
15.9069
4.51455
-0.0386251
36.8496
18.9486
17.7695
11.1007
19.4662
8.21664
0.0151039
-0.00201563
51.9673
66.0619
19.9536
0.0136683
5.03916
31.9171
11.8172
24.3841
-0.173043
18.2674
19.472
0.206361
-0.0649817
38.557
5.26786
7.74233
17.9219
0.991141
39.1064
16.1828
10.0741
9.62088
10.284
32.0022
0.730592
0.0227521
11.266
34.0204
36.3492
37.6101
22.4865
9.29086
38.0568
18.9606
0.61408
24.607
9.11381
27.5117
6.92877
28.4833
3.40914
37.551
1.41309
5.46687
10.4363
38.3477
0.592338
17.3964
17.0519
35.1888
17.5654
4.6851
13.4388
0.122862
-2.38714
4.52074
21.3648
17.5929
7.08939
27.5298
38.169
35.6802
37.001
37.1261
21.8074
22.7621
19.0912
38.2722
38.4008
7.72162
3.57824
36.3287
0.0369838
-6.02027
14.5565
12.0388
5.32993
27.1805
-0.223043
6.0329
36.3764
35.2224
-0.325039
0.757462
27.1623
4.55395
-2.48986
34.0751
35.5706
-0.0564157
16.0505
17.1066
1.56965
21.3134
31.951
35.4662
4.64605
-0.00261366
38.2973
21.2476
-0.328726
26.5705
15.2954
3.48999
-2.14906
-6.21749
5.62522
-0.257485
19.3625
0.772431
-0.2639
11.8799
24.8266
-0.407944
15.7876
3.41295
17.5705
38.3822
0.0405449
30.8851
20.4627
36.3657
25.0901
-0.618894
-0.0842654
-0.489109
4.81168
34.5183
10.5306
3.46976
35.9864
63.7442
64.2731
24.6964
27.2201
36.6305
-0.562749
17.4308
12.1672
0.497232
21.344
3.38497
22.3198
16.199
32.1413
40.7812
1.40422
12.7651
17.9218
29.8741
31.4119
19.9208
0.000364815
38.3135
5.12607
72.2298
9.95569
23.7928
15.896
11.2775
7.35561
-1.00083
37.4915
14.1597
32.2304
55.9349
22.5374
-0.0596434
17.0252
16.0389
17.26
26.4625
17.9283
0.802276
15.1752
-1.09467
-0.0547867
10.4473
0.687417
35.432
0.507566
35.6057
13.2064
22.1453
8.04992
33.4454
10.8048
36.2663
-0.00355801
20.0675
5.82704
7.78545
16.8902
0.0307789
18.4787
28.5551
15.2609
0.614172
11.8235
34.4745
35.7903
6.56081
-0.47204
27.2619
0.3877
36.3548
19.5322
26.9801
36.4444
0.372089
22.4136
37.086
-0.266781
28.8396
36.2017
-2.16356
13.0238
0.900329
15.4314
10.5491
-4.48782
35.4835
14.3831
27.3114
30.5295
-2.58327
0.271872
35.895
3.1192
5.0902
0.714716
35.8854
55.4729
34.1491
5.22227
1.32558
5.26224
9.06877
16.2517
27.7553
25.9845
34.3682
-0.333175
9.89772
0.00914664
5.57347
-0.00372756
-2.04771
17.1957
37.5931
-0.0845987
35.8008
-0.577602
21.4721
-0.688124
57.6873
11.3508
32.555
-0.317575
18.7588
21.4668
9.95578
-0.0643841
1.22899
-0.425029
16.7561
7.20608
-1.02663
39.5208
0.253987
0.822459
17.0196
-0.60875
38.0471
31.4026
2.24595
21.4164
18.0609
-0.0089828
12.9654
16.6416
0.828507
19.8423
5.22911
27.6167
5.24507
1.34551
21.2079
-0.0537108
4.29175
-0.550912
38.3311
-1.10726
0.373664
-0.331316
23.9096
35.4388
3.2366
1.52665
35.3104
37.9914
7.79953
30.037
11.9576
54.6134
0.281133
-0.0128641
34.1781
28.4731
0.266692
28.3436
-0.887177
-0.0322806
31.3558
16.7113
40.2976
59.6184
17.5591
-4.47805
4.96379
10.9507
36.8257
0.0133449
16.6852
30.6548
0.122566
12.346
20.8945
35.7117
13.1578
12.8557
31.7253
26.9228
18.7276
14.0336
37.7399
28.9558
1.48025
16.6424
34.1817
-1.23156
-0.524977
16.1135
6.50185
9.81133
29.6803
-4.50367
-0.030994
-6.09112
9.07068
15.2942
36.2751
14.6482
20.1163
1.18299
35.9182
14.1002
31.3319
14.1202
34.0005
32.3039
17.1059
33.9664
36.3656
-0.546966
31.1963
36.0771
16.141
2.13933
17.4764
36.0899
21.594
22.5903
37.8191
6.67648
3.46022
-2.0141
0.825111
24.465
29.8392
0.806778
36.875
32.496
26.7496
-1.77047
23.2473
58.2118
16.4774
38.1244
31.8248
1.06391
29.1514
57.7434
2.98006
32.3518
60.6672
-1.2474
31.0428
0.675497
36.3316
6.86762
34.6722
23.7827
-2.0627
37.5106
-1.0517
18.7105
13.604
-0.325995
13.6282
13.4846
10.8241
17.0692
4.44975
1.90023
28.0008
13.754
-0.529664
17.0196
72.3041
37.0543
25.649
39.5881
-3.05154
5.67644
37.5272
20.1568
-0.0578384
1.90693
17.0339
1.3779
14.3678
-1.69993
31.481
-4.23542
26.3293
51.6327
31.0691
26.2248
5.57732
8.12284
-3.31318
27.1045
16.7716
0.000288328
-1.25943
-0.521308
31.3548
4.60466
-0.00625811
14.3326
11.9293
17.3073
34.6034
32.4198
11.7435
17.5817
5.31473
33.8082
16.3342
32.6299
4.51473
18.4461
18.0681
8.25415
-0.315695
0.800325
-0.0583646
17.0984
-1.0389
12.3453
1.43043
30.3981
0.0186646
1.8531
0.143956
34.5215
13.1674
37.4578
26.2459
33.5669
-1.15707
14.3356
37.474
24.9433
14.1102
29.3752
-0.316517
6.4751
-5.74383
24.979
0.0198589
21.4628
11.3594
17.2993
17.246
36.2096
9.03104
-5.9509
34.5531
10.3928
9.48938
5.46749
-0.00576638
-0.295595
-1.12888
27.7679
-0.616416
3.68741
11.5491
36.3467
34.4379
18.4749
0.358715
14.3109
27.1913
8.18986
0.337868
11.037
25.2394
0.0567642
4.65935
26.8984
39.1979
10.847
67.6267
31.9033
14.8717
0.516279
60.1565
25.1158
2.24333
0.0889341
-5.58322
-1.78112
10.8667
-0.0673868
-2.95755
28.7333
26.4116
15.5625
16.0932
10.7457
-0.077312
34.5951
-0.537468
21.2372
35.4543
-0.15764
23.7201
6.23066
35.4082
29.4247
16.4943
35.7187
31.9361
10.3715
24.1684
0.35962
1.91294
66.1799
-1.75213
-0.320796
22.1862
-0.838338
-0.135426
9.86277
-0.4004
17.0809
16.4613
3.02429
-0.392685
-1.97577
2.97694
-0.0893443
34.2624
26.1587
18.9612
-0.938633
60.1239
16.6852
27.1393
10.2492
10.7566
36.1946
30.809
28.0213
17.1973
3.12684
0.0618707
28.4346
37.3069
25.8022
-0.0791956
-6.4108
0.349094
0.0932702
34.6169
1.53435
27.505
-1.06498
38.3236
19.2849
10.6285
20.0584
-0.00875924
36.4986
-0.937921
4.75017
29.7089
36.3281
31.2577
1.52442
3.59945
31.4412
-0.0220172
32.7822
4.79059
38.2812
29.7645
11.6193
7.04237
0.0659492
31.0801
14.3038
14.3795
15.125
12.071
1.21682
21.3966
-2.66168
27.6196
34.4229
8.86612
36.4756
33.6119
-5.17483
-4.3738
26.7674
12.7063
27.786
34.6063
28.3534
11.5082
0.0106295
7.83246
17.0342
15.3663
18.8606
30.712
38.2608
0.67872
35.0684
-0.00977743
18.013
3.50717
37.7921
69.6873
-0.154938
36.2973
-0.0374278
4.53576
-0.0893335
-0.00225446
-0.00184909
37.856
8.33419
17.5082
12.9212
3.32153
45.8455
35.3809
8.96654
3.10556
-0.696426
-0.0894233
1.77557
22.902
26.2855
36.3074
-4.31624
34.5533
14.0661
17.8451
24.3137
1.74448
29.0136
0.0408147
3.72634
1.80985
11.6587
-2.77621
36.3097
3.37754
0.00157585
13.1318
4.45887
38.1221
-0.0495169
3.24042
3.16219
17.456
21.5124
15.8596
74.7826
32.6651
35.8803
-1.78023
3.4627
17.3343
-1.00846
33.5308
15.7535
-2.97441
23.7186
-4.54559
1.99256
13.01
-0.388315
9.12376
45.1101
7.9826
27.8548
38.2565
35.9731
37.1625
-0.0228192
3.91652
0.0373838
30.3187
26.2318
35.0134
10.4403
15.9815
39.6901
16.4853
20.5338
10.6154
25.702
16.339
0.0232102
32.1138
-0.698471
33.9816
28.5169
26.9128
0.333612
3.41535
22.2629
-0.00858956
33.7015
6.37884
18.6227
23.6553
27.3244
37.1978
17.9635
39.1954
35.636
20.229
-1.0428
26.4659
27.8092
5.47957
27.5592
-0.333157
21.6696
23.5607
8.9156
30.3252
0.384546
34.5686
35.629
-0.0666582
3.83392
0.0820546
32.9502
4.72027
18.1196
3.70841
21.7253
32.845
5.70253
18.3967
4.69851
15.3525
10.2737
-0.0560969
1.28655
20.7178
56.5812
14.2316
-0.0396653
20.4569
-1.02849
5.17137
23.8284
36.886
9.357
19.9583
35.0539
9.50473
7.78982
20.6394
7.89364
7.86157
19.9727
27.8384
17.1736
-4.2846
-1.62033
20.1512
0.345722
-0.496477
0.0799319
32.5909
-1.16757
2.20537
21.0956
-0.0113586
5.95718
-0.260686
37.7915
0.00157734
4.43404
-0.184844
7.68216
36.9855
10.1317
16.2974
-0.0790568
-0.0450375
19.3643
5.76541
-0.321556
37.0402
16.9674
-1.63685
62.1049
4.68275
1.80983
14.1901
9.71749
-1.03393
28.3448
-0.392759
17.5477
34.9105
-0.307426
19.9535
-0.585051
17.521
39.1978
24.4285
-4.47069
0.312731
9.4315
9.06471
10.1161
21.4346
3.72618
-0.88724
-0.184798
-0.383807
17.3237
15.8778
33.377
9.07722
3.94866
27.2987
33.9745
25.3013
-0.372919
17.2795
21.0697
26.3436
24.017
14.2534
32.9795
33.0149
16.9182
23.1778
34.5456
17.4066
0.313872
64.4811
71.4061
22.9781
11.2149
12.3145
3.83771
27.9132
16.1846
37.5186
17.4854
37.3371
57.008
-0.783514
11.5712
5.58491
0.0312123
-0.0704341
37.0792
-0.119788
25.0238
12.4171
19.4399
38.2041
-0.530544
20.3188
26.2536
-0.284979
37.0735
16.0906
-0.932171
26.3836
32.9525
-0.00438697
27.164
1.7166
25.9857
22.7001
54.7624
36.4299
-0.930046
-0.825119
34.8329
37.7233
37.7257
4.44948
20.3543
37.599
31.2973
16.6619
-0.00801956
33.8938
19.1177
10.4926
12.5713
34.7696
14.1578
3.83161
24.6594
-0.289102
19.2093
32.416
38.0007
33.5886
33.5737
33.5187
26.1885
-0.390238
-0.691674
-0.954627
-1.03169
33.6171
34.5303
33.7752
21.73
-4.42693
16.819
14.4433
2.34767
5.1688
-0.680735
51.5272
9.73073
26.3149
-0.0225492
0.0240069
3.37736
0.0688679
3.56453
6.82812
23.0149
5.92852
5.58509
30.1568
57.2704
5.30594
-1.79792
4.81083
-1.02109
-0.303626
4.40055
11.8417
0.924277
5.24406
25.2068
-0.0698088
26.6186
21.1033
10.4956
-0.445335
9.13548
26.4791
15.557
30.8811
18.88
0.853532
23.087
14.4739
-1.16258
-0.020746
0.356287
6.59911
36.5585
2.0573
3.56165
6.53942
12.6511
-0.53988
36.7811
-1.20218
32.9991
1.97894
-0.733052
0.330195
16.8864
65.7047
36.067
33.9519
34.0124
1.74299
18.3781
-0.119533
-0.00530878
-0.745915
6.18668
37.4417
21.2186
46.9757
16.133
37.0248
28.1182
15.1322
0.000164034
27.4061
36.0653
23.767
-0.0838734
-0.893301
2.96415
37.6682
34.7977
21.0125
23.1002
33.1241
4.25437
-0.0824019
-0.0571761
26.4554
4.29161
31.5404
-0.0229248
23.0811
9.01817
0.0945876
33.283
19.1299
31.6821
-1.41773
1.72194
27.5862
22.1453
24.466
11.5441
4.04992
27.6248
3.49558
21.5081
35.2335
33.8519
-1.0834
33.1597
-0.00178067
0.933543
35.1124
12.6698
26.7245
26.8993
4.6998
37.4965
26.0458
-0.0548525
67.3951
4.95332
5.12573
-0.410319
-0.171821
51.0159
9.8223
3.88677
14.2002
7.27048
33.6385
36.4743
0.265648
-1.84118
-0.607387
19.5434
-0.443634
0.0936189
-0.0914257
33.0719
20.9509
5.05761
18.8638
28.0724
61.9745
35.9196
33.8655
37.8779
-0.0531024
-5.03735
28.92
12.1711
16.6757
-1.18717
35.9723
5.04595
16.6918
2.91963
27.2311
61.394
26.2318
-0.00123759
30.4385
-0.160697
0.00688587
25.259
-1.45146
18.0515
32.4109
14.5434
3.94113
-1.61118
35.4301
38.0639
37.2673
38.3553
53.6643
-1.86327
-0.875963
22.73
17.2115
8.9721
-0.20996
18.545
7.36749
16.0173
6.44095
-0.0342478
13.1328
22.9474
36.4789
34.5279
-0.0410561
30.4384
2.85432
72.8704
64.9259
13.0958
37.3691
-0.597391
49.8635
25.6576
-0.520059
0.1712
28.8178
33.8034
15.7891
22.4194
28.96
11.4534
-0.0121481
-0.00776864
28.8173
21.343
17.7629
-0.877497
31.4047
-0.210737
-0.00474091
-0.769185
7.74897
12.9581
-0.0593795
18.4562
31.0061
35.676
1.6292
32.3757
5.59508
35.8124
-2.71793
18.2809
0.0865008
26.8832
28.7721
27.4122
31.5319
36.9985
12.6145
17.3978
37.9146
-1.29116
34.7377
4.69735e-05
32.2051
23.5153
33.79
0.327629
-0.0677363
25.3837
34.2937
33.6714
0.0264485
4.75673
31.4934
3.64428
-1.25176
27.4772
20.7022
17.5964
36.7783
-1.82007
25.1565
9.98903
27.895
-0.37912
35.4413
33.0101
27.7619
-0.779392
33.1669
16.664
23.4763
32.3874
0.399527
18.5516
23.0411
20.4668
-1.69304
15.4384
12.0495
-0.0490135
15.2778
-2.77498
4.82238
16.0593
-1.60135
3.68778
25.317
0.109181
29.1717
65.1368
34.0367
-0.379273
25.7266
-0.0897521
1.00071
11.9297
-0.142887
9.2903
5.96839
65.4072
37.0133
17.5469
18.1019
31.3734
38.4884
-0.0884461
15.9703
24.2462
24.9039
-0.0654287
32.561
15.0968
24.4315
0.333458
11.5884
-0.167575
33.8888
-1.92025
34.3878
0.340196
65.4891
-1.14265
-0.0248515
38.2356
-0.187688
36.0727
31.6051
26.4279
-0.542457
36.198
36.9876
38.4797
37.0717
37.6915
34.6906
-0.0646997
16.1196
36.192
0.669755
24.41
31.9385
-0.0375347
0.0697402
37.1324
24.9846
28.3132
14.4973
32.4372
-0.410693
0.478721
16.0123
15.9492
16.2105
38.2844
34.0902
17.5155
36.8044
37.6071
24.2453
36.45
5.54442
36.2622
9.31503
26.5411
5.47199
15.3956
13.1148
18.6082
-0.0627952
17.9097
-0.0758558
35.986
27.7925
-5.1214
3.28561
18.483
21.8016
-0.179175
10.6544
17.6202
10.9194
17.9276
15.76
-0.771178
10.264
26.4496
0.285337
25.6313
-0.0780017
33.3862
3.72436
21.0012
0.279759
-2.1634
15.9641
11.5051
21.2735
3.39235
28.4052
17.947
63.9077
-0.302453
24.7536
26.5044
15.3095
36.8485
1.09623
67.655
15.4406
9.3756
19.9514
0.0810569
10.4961
11.4067
-3.11447
-0.295676
-0.901441
32.764
-0.00126707
0.274072
0.117672
-0.0949899
-1.84408
36.1949
30.9101
-0.559405
21.7805
-0.0949201
21.1413
11.6915
-2.90669
25.6398
-1.5803
34.7632
11.9987
4.00443
11.4493
-1.73337
21.8359
-0.449591
38.4948
5.3504
25.2565
17.2989
-0.0699009
32.7683
-0.925023
15.9969
36.5323
3.77335
17.5609
35.372
49.3136
17.3171
15.6115
26.1684
2.48198
24.8929
-0.150908
15.7222
3.07626
36.3285
21.3977
30.7537
25.7528
-4.49406
27.2762
22.5389
21.7558
35.4806
6.03093
19.6754
-4.21007
1.07413
-0.284483
19.8113
31.4973
-1.25643
15.5325
15.0465
3.52563
15.8829
-0.480332
0.788018
-1.60263
-0.187595
55.5496
4.23243
34.8472
-0.00434028
-0.715885
0.0850488
27.8931
-0.189426
34.1564
30.9908
36.0657
0.690515
13.1116
9.25054
6.32251
2.33489
30.3051
17.3863
17.3438
5.66199
-0.58411
33.4849
22.4884
18.7834
-1.0373
2.96395
29.6564
-0.319587
11.8078
26.4289
35.5436
33.0514
-2.99543
1.19943
12.9721
-0.30955
0.111438
17.4293
-0.00374273
14.6333
14.2365
-0.0390236
0.0291428
21.6268
20.0773
16.9354
26.3253
0.0486249
30.6201
20.6073
17.9535
0.274006
36.5371
-0.55801
37.1058
-0.76332
20.1023
-0.0259853
11.996
36.7597
11.2786
20.4876
17.188
0.201477
25.8671
4.98688
21.7979
16.9198
11.0955
31.3328
25.5035
21.2459
30.0665
1.92606
0.0521478
-0.361083
17.1683
-0.0826996
4.99926
26.8149
36.2335
27.634
-0.877021
30.8414
9.4088
3.17649
21.9357
25.065
19.8588
0.0274608
29.5968
22.0408
23.0352
68.3764
71.1997
15.9327
-0.0518923
5.13481
3.18153
37.0867
19.1026
21.8562
19.7148
26.8666
21.6485
35.6248
-0.162308
19.0105
9.31324
0.00290719
3.73145
28.1372
3.60623
68.022
22.2855
26.469
36.5529
0.829198
-0.00201318
0.0477914
17.0769
26.0164
17.404
-3.00878
6.08999
2.46675
33.8247
-0.151607
22.171
-0.888764
9.52794
9.03651
2.568
30.7581
17.9322
11.2901
22.29
29.127
16.7071
37.8863
35.0686
36.1938
16.8435
11.0999
46.6053
21.8049
34.5953
17.3808
0.0832869
-4.34225
-0.00364807
68.4782
-0.616826
0.98191
-4.43993
26.3444
-0.292803
-0.081244
25.203
14.5812
0.000914514
-0.0244305
4.29098
4.40961
0.0549758
25.4005
9.59089
17.3703
30.0254
16.2256
19.9623
22.6956
14.9602
0.376208
-0.508228
38.3577
2.67039
17.0911
0.0774266
16.9658
17.0423
0.455488
22.7636
15.9884
11.6555
36.7688
-0.161038
14.6947
-0.815877
9.61442
-0.572153
-3.27689
37.2812
8.84184
-0.00924346
35.2244
3.12173
-0.628875
6.82198
3.94724
25.8717
16.6862
-0.337269
-1.53448
23.8055
16.6382
0.058041
14.8722
16.129
24.8144
18.69
19.7585
36.1867
11.8621
29.6016
34.0426
-0.576309
10.1924
38.3833
0.000455939
30.3601
20.1845
-0.00320829
35.529
36.9213
4.60831
27.6689
47.2681
25.6378
3.50683
14.5166
-0.00365982
2.9176
30.8945
15.8151
17.3642
-1.63629
47.3703
2.81607
-0.386166
-0.314598
26.3465
35.9153
20.6989
-0.00255235
0.116599
7.1789
-1.46227
15.2025
35.5541
65.4848
14.5385
14.741
9.71809
31.5158
0.0341849
27.1907
12.2067
37.9055
5.0799
29.0213
-1.65312
-0.806387
3.28594
-0.0382549
-0.0651633
30.5113
1.15064
31.0239
-0.149729
26.603
-0.0580206
18.1917
14.1193
22.4399
68.6422
19.9811
-0.0686446
31.8046
16.939
21.9442
32.4859
66.1795
17.4424
16.3995
-3.87084
33.0054
11.6372
31.4997
12.4637
17.4996
0.253171
35.264
22.5019
-0.281589
-0.0508761
33.8096
-0.947971
29.1481
26.5072
11.0807
-0.134469
11.7528
36.0303
32.5961
3.67423
35.4017
30.4436
25.1477
0.566629
-1.64958
23.1724
36.9097
16.3607
12.3803
-0.937219
0.0723318
14.3386
23.2371
26.6653
31.19
10.1655
6.28336
17.2055
16.7403
19.4765
26.9293
22.4568
22.711
5.49211
-0.0677623
22.0733
17.0835
6.07849
-0.39839
34.0316
35.0847
38.862
33.2108
16.9531
34.7066
-0.375403
36.3427
14.0383
11.3302
-0.0819972
24.4409
24.7716
-0.934467
4.21579
37.9471
37.8701
5.56151
36.5821
36.6174
28.1679
16.0104
18.1315
-2.71576
35.4908
14.336
-0.476678
-0.0114659
-0.49229
16.9704
1.52863
11.4603
16.5077
6.82945
-0.974993
34.0236
20.3529
38.0882
26.6929
35.703
18.7683
-0.0377666
29.4912
4.64893
1.26568
35.2491
33.4585
33.2162
28.1614
12.2829
24.8173
16.485
0.0139723
26.2432
-0.598754
17.5133
12.9513
17.9388
-0.0233995
15.6451
31.5123
0.000137035
25.3754
29.5999
-0.492276
-0.405881
-1.03287
34.5345
32.1733
-0.00655314
-1.12587
0.0695419
-0.366937
5.97194
-1.10599
2.15345
2.08228
0.804789
1.15776
-0.507172
-0.48817
22.2301
-0.0355781
-0.031055
19.2372
18.9605
22.4739
38.184
20.6131
2.6194
2.95993
-0.00137157
9.01159
15.036
12.195
15.6757
-0.465118
38.1678
28.4703
35.193
16.6342
22.2134
16.0725
19.2848
0.0242911
17.9013
12.4311
0.355311
18.7569
19.3058
-0.0814825
29.9882
33.8504
0.107695
37.5824
25.0482
11.9472
12.4944
-0.0849628
31.2287
15.0848
-0.00665572
29.2158
-0.0823326
-0.954831
33.2049
66.2179
1.46101
9.18126
-0.0298493
19.4916
5.52181
35.6717
26.0603
0.0785614
0.262639
4.32938
20.9496
0.884607
13.0983
1.41387
59.0697
33.4106
4.32922
-0.111533
-0.691035
18.2964
26.5244
36.3491
19.696
30.9944
5.87659
44.9917
62.6927
30.3748
37.4804
-2.56495
0.808674
18.2805
-0.0815791
36.2228
34.4273
31.1754
48.6944
31.5062
33.1375
31.7674
37.4488
35.5169
27.4375
8.1023
38.356
54.2222
-1.25308
14.0651
23.0115
1.8599
17.4758
-0.36712
15.1042
17.8678
6.2626
19.5426
0.0736625
28.028
11.4482
23.1239
-0.0727524
0.583614
-0.171962
-0.0180235
34.4754
33.4871
9.13078
-0.447345
19.6736
-0.0647949
0.0985391
0.822532
-0.422093
6.12847
60.9407
10.7593
33.2944
-1.5566
31.456
26.2743
14.7317
5.44966
1.63806
22.9527
48.5488
-1.03584
-0.0148058
8.97381
16.1645
16.9081
25.7583
6.27222
28.8468
26.3856
3.462
4.37224
30.4187
0.432697
-0.944914
-0.106547
-0.00610751
-0.172064
23.8466
32.7976
36.5896
31.5729
-0.236937
-0.099542
-0.48269
18.1014
30.5355
25.1511
56.1225
33.1228
-0.166138
2.96781
18.6327
11.9739
17.3251
15.5535
16.4371
20.0541
7.16628
26.5478
7.34379
0.78109
4.04874
27.8785
10.0105
11.2887
74.7488
7.73849
38.4606
36.5192
34.4236
38.4828
32.672
21.1467
1.40206
9.6063
31.8589
35.4901
0.622232
-0.0506451
12.3817
14.8402
-0.792033
19.5769
15.853
21.6997
37.2438
-0.986336
27.6239
20.2237
17.7681
28.5022
20.3875
12.0751
22.0697
15.0853
21.4597
3.17664
25.4678
-0.489499
21.2289
38.1094
20.0892
5.97512
0.640449
35.9352
8.83136
17.9441
14.1244
-0.0630016
38.3494
30.9185
20.4194
5.47958
11.8451
14.2894
0.78297
65.8559
18.212
15.787
9.2093
7.11822
0.0698916
-0.252892
24.8623
-0.0541022
17.4238
21.6694
15.6273
-0.346802
1.74636
0.270602
7.34947
26.3879
17.3042
26.9743
17.8769
20.2672
3.16997
2.34707
30.2685
3.21154
-3.18416
31.9832
2.36828
36.1823
36.2421
-2.18762
34.2587
3.76465
17.0196
-2.26904
-1.75168
20.4098
47.078
5.60099
21.6339
6.13102
35.1285
13.5476
11.5644
-0.477525
0.52186
38.1746
36.9395
17.7721
38.3645
-1.3509
36.2108
14.7804
7.25216
28.4775
28.1882
-0.207495
-0.993286
37.507
15.9809
-0.068152
35.6026
33.4948
20
26.4827
38.1286
35.9644
9.11038
17.393
0.575966
9.42141
10.774
5.97645
19.4654
0.266887
3.27814
14.9924
26.699
34.8882
19.4332
37.3636
47.8863
2.15764
11.494
22.4884
2.53844
30.0857
4.23152
-1.37282
34.1974
19.2653
55.2291
-0.725573
29.1989
17.7378
-0.0541046
10.6073
-0.205896
9.04006
37.7256
34.2609
35.9708
11.8808
24.1978
-0.408904
-0.182417
0.952519
35.6706
-5.95997
10.5842
-0.201505
36.927
28.6648
0.125531
9.81721
31.3485
-1.01364
16.1715
-0.868064
7.62591
22.3869
34.5766
34.433
28.8537
-0.18537
18.8991
4.57469
15.861
-0.221298
12.0953
0.0559088
20.6218
0.367158
37.1363
17.3992
17.1827
37.3593
-0.182656
37.9427
-1.62279
37.4626
0.0149039
36.1041
12.4963
23.6513
23.5209
30.6842
35.4364
33.4333
35.3387
67.2151
28.0742
9.0026
18.1652
0.42462
46.2794
36.9647
-0.422119
26.2195
21.6485
-0.369909
35.5863
26.8514
26.8303
-1.22811
-2.41236
22.2836
18.9777
22.2486
26.0236
6.40978
27.0436
24.5975
27.6242
27.3703
23.7334
8.71869
-0.458439
50.5313
26.1468
15.2287
-0.00158036
9.46329
36.3385
36.3506
14.7627
17.8594
31.6276
-0.200061
27.2894
27.4249
35.3519
26.6344
17.7279
35.2674
2.57315
28.5082
37.419
-0.949398
4.27172
26.1758
-0.466136
-0.213529
17.6487
0.000908099
-1.86052
-0.429678
37.2131
28.4312
21.2989
-0.0303183
37.5439
8.7126
0.0952114
37.1011
17.105
25.4426
15.8056
38.0778
0.429517
-0.019689
-0.55017
37.4409
33.4991
16.7996
28.3768
29.4959
2.0512
25.222
55.4537
34.7793
25.6834
19.0906
13.2609
17.1129
30.4309
17.829
-0.27324
24.8725
32.6327
34.4148
15.4199
26.4136
32.7716
29.6223
-0.145858
17.0437
25.4505
31.0206
0.0697109
38.4038
26.879
37.8066
-1.34652
34.4327
32.8259
-1.54804
18.1461
17.0037
26.7654
1.48979
3.77313
14.5438
27.6384
53.0679
4.04108
27.643
2.28711
3.19758
8.33167
55.4906
2.44633
13.0732
20.7364
14.177
7.8465
1.96844
0.496277
1.66408
31.1585
12.3114
34.414
0.0650018
18.5259
1.1262
14.3131
-0.184762
27.278
0.0746974
0.100315
30.7765
21.5859
10.6867
27.6004
17.0416
36.9026
-0.0924698
11.3407
28.6762
8.21609
28.0323
2.25549
5.44313
4.53391
9.37056
27.9546
31.6473
21.1447
19.3513
19.4215
4.32667
7.67666
-0.051446
-0.43706
13.9657
15.8529
12.6035
18.4495
0.100358
37.3478
8.8591
-2.7804
16.8256
-0.265025
34.8467
23.2086
59.6361
18.6178
18.7446
37.975
24.3317
28.0637
1.98391
33.6662
17.3943
-0.721451
36.2194
1.87599
5.72273
-1.04477
27.2827
4.88524
36.0994
13.4313
12.7308
6.46096
32.9194
38.1435
14.2438
5.96083
-0.335705
15.467
34.8287
-2.55006
17.389
21.3541
-0.0388807
37.2098
-2.81438
-1.10863
24.281
30.9639
-0.621482
15.0714
0.0875184
27.7841
28.1712
29.2086
4.74643
29.0787
19.9624
37.6221
0.060664
51.0214
14.1742
7.3172
7.16662
26.0736
15.9827
6.53637
-0.00582789
32.1082
-0.0052789
23.6617
5.06792
27.8871
30.8461
32.0815
0.754074
30.9617
36.2844
2.74114
9.82689
9.24945
19.0228
-0.000734937
27.422
37.1448
12.2783
0.0289819
22.91
3.51887
19.7362
21.5276
28.1759
33.8751
19.0582
53.1028
29.7849
0.542956
6.948
-1.67777
-0.513346
35.5683
22.9514
0.630459
62.5949
-2.64555
14.2853
0.414043
16.427
30.9772
0.026579
0.128038
8.80033
-1.88618
-0.670889
14.2175
19.5927
2.8922
33.513
-1.04144
5.26779
23.44
16.7243
-0.827158
6.92736
10.1047
14.0943
28.545
5.20536
14.2452
38.1022
14.4937
73.6103
16.744
-0.279704
1.65403
17.8309
36.7631
58.0478
8.59544
-1.60163
23.861
30.3933
5.00371
0.344933
0.0571687
31.5103
0.371765
26.9927
0.903592
60.2267
0.765172
36.3055
-0.33794
-0.911562
-0.149498
14.2446
5.2499
14.2713
2.03013
35.2793
24.2621
34.0384
36.9591
31.0947
6.61729
34.9712
6.86574
14.7009
16.5248
7.60007
0.395967
-0.0478824
35.6972
29.3044
-0.397261
21.5955
30.5632
-0.034412
17.1825
-0.780323
27.6629
35.1125
32.3732
22.7185
19.0145
12.8805
13.2622
9.29804
0.897213
13.1297
12.3249
0.811876
6.72055
20.6363
-2.39173
63.1631
15.5479
-1.02374
34.0563
23.0192
37.0422
34.8308
10.0999
21.331
5.50151
-0.00861289
35.5695
22.5627
29.3178
12.279
31.5748
48.1765
-0.0833923
12.5493
16.7887
22.6329
-0.174723
34.7723
15.8777
28.9403
-0.00435787
24.9294
-0.33938
14.0869
20.6953
28.6622
8.52494
0.678452
1.76265
32.6922
25.6632
-3.00242
-0.220179
17.1596
31.8034
26.6009
27.1403
28.6656
34.2854
16.8138
7.83667
21.014
11.8254
23.4577
37.957
1.67047
67.8862
33.1551
0.570778
15.3373
40.0671
11.4701
7.98778
1.40453
20.6113
7.01655
17.8816
8.77192
17.6998
19.3327
26.0862
32.7305
36.1576
-0.241169
37.8975
31.5094
29.3037
10.0918
-1.0255
29.4148
34.8787
38.1424
-0.0261518
20.9252
30.0209
31.0376
-2.52293
0.357903
18.5833
13.0328
-0.278073
-1.64166
11.1102
3.49103
11.9889
1.72193
-0.793146
24.348
1.45166
30.3887
-0.47013
-0.718065
21.6356
13.9071
16.6468
22.8235
1.79233
4.8372
16.3063
30.772
17.6614
26.614
36.0019
17.6689
3.25499
3.7557
29.1389
-0.582008
33.3463
20.989
4.25601
18.0991
15.1906
22.0731
28.3445
36.2659
35.1194
-4.18812
26.2668
15.2108
5.53634
4.84167
0.0522507
15.3596
-2.59819
22.5068
0.17838
65.972
20.0882
26.1234
34.7247
67.6987
0.0355013
36.2741
-1.07176
0.164705
20.1941
14.8926
-0.47402
35.0645
66.6913
28.3658
5.6402
11.2752
36.8727
10.3484
68.1823
-0.0291806
-0.269716
29.9631
35.7727
11.8941
22.1512
36.7089
3.18532
-0.412765
66.481
16.767
-0.707095
-0.630282
34.8329
-0.982997
32.1968
-0.290137
20.0266
-0.923627
27.9427
6.01592
9.28363
7.526
30.4993
1.97562
17.0193
26.0061
-0.207388
12.8646
33.6122
23.7172
26.611
-0.0771235
31.4384
4.76917
24.048
36.9712
35.178
-1.64671
35.7439
3.2018
-1.15887
-0.116177
12.4424
54.157
36.1902
-1.59058
8.35135
26.8578
16.1859
37.4266
31.9044
35.3829
-0.0772339
26.0237
15.3887
20.1354
2.70631
-0.430052
35.0266
1.72577
72.2726
36.372
-0.0141725
32.0459
37.3531
16.7541
-4.43451
15.1089
23.1436
36.8407
16.6368
6.10494
37.1256
-0.33789
27.9395
37.7756
15.8904
8.66239
25.2881
24.1585
26.6467
28.6417
19.4158
28.2972
15.9779
-1.16223
29.7229
-0.101896
34.6848
5.22805
28.1363
22.8443
36.8336
0.356708
19.5252
16.3223
2.14775
52.9238
26.9257
0.134112
33.1021
21.3454
3.61935
4.1782
23.7893
1.08991
9.36788
19.2049
-0.290144
3.19681
19.4615
-3.9833
35.6485
0.000759172
24.8067
-0.228007
18.0792
37.1747
3.55699
36.8606
-0.467472
-0.000409064
16.8686
-0.504576
-0.324894
26.5114
36.2717
17.9698
4.85066
12.7877
16.0403
0.00768112
25.2007
-0.037953
21.0872
19.3838
5.04864
-0.169985
-0.500789
-0.146299
36.2766
22.1331
18.076
33.8303
-0.00665311
-0.899042
-0.0129631
30.1004
21.4135
8.55835
18.015
-1.64747
0.0608053
3.61663
4.23675
-0.0544029
29.8149
26.1422
32.989
-2.90006
-0.627153
18.6397
37.0331
44.3769
0.0497033
33.0008
31.1502
29.4715
1.87665
-2.80321
12.7636
36.3483
22.5759
14.1196
16.6156
7.2601
31.0194
30.4398
20.2778
14.3597
27.8906
26.192
15.422
6.43388
15.5586
30.7059
5.41106
0.553697
35.2095
42.4096
-0.341072
32.5169
52.4076
38.0413
33.9525
12.4754
31.755
3.05192
1.90506
17.3812
25.5334
0.0147478
36.6983
34.7555
-0.76166
20.2791
7.61448
8.48598
-0.872854
29.4438
69.334