/*--------------------------------*- C++ -*----------------------------------*\
  =========                 |
  \\      /  F ield         | OpenFOAM: The Open Source CFD Toolbox
   \\    /   O peration     | Website:  https://openfoam.org
    \\  /    A nd           | Version:  7
     \\/     M anipulation  |
\*---------------------------------------------------------------------------*/
FoamFile
{
    version     2.0;
    format      ascii;
    class       volVectorField;
    location    "8.5";
    object      U;
}
// * * * * * * * * * * * * * * * * * * * * * * * * * * * * * * * * * * * * * //

dimensions      [0 1 -1 0 0 0 0];

internalField   nonuniform List<vector> 
20933
(
(0.997096 -0.000335643 -8.82502e-23)
(0.98806 -0.000895794 2.3391e-21)
(1.02082 -0.00257342 -3.10599e-22)
(1.00027 -1.81472e-05 4.31085e-25)
(1.00079 -0.00704803 4.91594e-23)
(1.00056 -0.00746516 -4.7585e-23)
(1.02975 -0.122066 -8.49655e-22)
(1.07819 0.0528986 -3.52968e-20)
(1.00637 -0.0611348 -2.25325e-21)
(1.08231 0.053687 2.5233e-20)
(1.03833 -0.110337 -2.05622e-21)
(1.1601 0.0999143 -1.6753e-21)
(0.991448 -0.0401126 -5.55029e-22)
(0.997067 -0.00039543 6.57064e-23)
(0.996865 -0.00282011 3.07328e-22)
(1.00026 -2.66003e-05 6.3255e-25)
(1.21943 -0.020908 3.86185e-21)
(1.08782 0.000584675 -2.04775e-20)
(1.00526 -0.0912883 -2.05892e-21)
(0.990307 -0.000450183 -2.05301e-21)
(1.01543 -0.0702179 2.3603e-21)
(1.15619 0.0990954 -2.81501e-21)
(1.08392 0.0582191 -1.91506e-20)
(1.09941 -0.145095 -9.92359e-22)
(1.01907 -0.000851029 1.68219e-23)
(0.996089 0.0629959 -5.06733e-20)
(1.00723 -0.00206487 -1.79249e-22)
(0.997651 -0.0430379 1.60056e-21)
(1.13942 -0.139967 -4.32416e-22)
(1.00711 -0.0923147 6.85479e-21)
(0.999097 -0.00180916 -4.15453e-24)
(0.949728 0.014234 7.69565e-20)
(1.10778 0.0915476 1.59374e-20)
(0.995455 -0.0253787 1.68163e-22)
(1.00009 -0.0013279 6.59702e-24)
(0.999149 -0.00194544 -1.42678e-23)
(1.0721 0.0671171 -3.75381e-20)
(0.999846 -5.19621e-06 2.57987e-24)
(1.01181 -0.0146986 -2.12651e-22)
(1.09567 0.00215448 -7.3875e-21)
(1.03164 -0.00651419 7.28624e-23)
(1.08061 0.109306 2.68986e-20)
(1.02687 0.0319887 -1.4959e-20)
(1.00652 -0.00248047 1.49428e-22)
(0.995785 0.0606 1.99324e-20)
(0.974677 -0.00170109 1.346e-21)
(1.0738 0.0059903 -5.42186e-20)
(1.20308 0.0483135 -9.53731e-21)
(0.999647 -9.1541e-05 6.59268e-24)
(0.982445 -0.0356512 4.24696e-22)
(1.00002 -0.00140651 -1.70132e-23)
(1.0575 -0.00665073 6.95144e-21)
(1.14539 -0.0898049 -4.53288e-21)
(1.0004 -0.00306086 -1.49896e-23)
(1.17699 -0.0938904 5.71825e-22)
(0.961703 -0.0160407 -6.28723e-22)
(0.985558 -0.0242939 1.02535e-22)
(0.999009 -0.0023204 9.01679e-24)
(1.00887 -0.0360565 -5.78261e-22)
(1.2159 -0.0168704 -2.80627e-21)
(0.979692 0.0234736 4.20326e-20)
(0.969291 -0.00456154 2.03658e-21)
(0.991285 -0.00314849 -5.35862e-22)
(1.09222 0.0535148 -1.6891e-21)
(0.999394 -0.000111211 -4.35165e-23)
(0.996857 -0.00645906 3.27596e-24)
(0.997352 0.0433852 1.27817e-21)
(0.996488 -0.00675359 1.50048e-22)
(1.09275 -0.0582368 8.5701e-21)
(1.0003 0.0640259 1.88903e-20)
(1.03154 -0.0318394 2.61668e-21)
(1.22291 -0.0472744 3.65003e-21)
(0.997167 -0.00281064 -5.93573e-23)
(0.98973 -0.0298103 2.2042e-21)
(0.999587 0.0149385 -1.90815e-20)
(1.05811 -0.0644171 -2.54559e-21)
(1.00044 0.0598869 8.82509e-21)
(0.96001 -0.00525623 5.50191e-22)
(1.09447 0.000878126 4.59939e-21)
(1.0033 0.0252359 2.81998e-20)
(0.997564 -0.00669538 3.60313e-22)
(1.00187 -0.00356623 2.64023e-23)
(1.12444 -0.140109 3.81104e-22)
(1.00706 -0.059245 1.86496e-21)
(0.971005 -0.00364652 -2.24368e-21)
(1.02496 0.0300496 7.22268e-20)
(0.99341 -0.0374423 -1.04859e-21)
(0.923729 0.0439989 7.13998e-21)
(1.08944 0.0495784 -1.56933e-20)
(0.986001 0.0641564 3.18143e-20)
(1.08413 0.0199916 -2.14781e-20)
(1.00031 -4.77642e-05 -1.72382e-24)
(1.00005 -0.000252269 4.17722e-24)
(0.949448 0.0051944 -2.14012e-20)
(1.20774 0.043184 4.84806e-21)
(0.99178 -0.00327383 -3.36107e-22)
(0.957677 0.00333371 3.27884e-20)
(0.99974 -0.0036676 2.78682e-23)
(1.04161 -0.106724 -7.0107e-22)
(1.05444 0.01156 -1.98426e-20)
(0.983854 0.0659167 -9.41465e-20)
(0.982066 -0.00923073 1.63072e-22)
(0.977506 0.0609071 -1.02776e-19)
(1.13479 -0.0808326 -9.30147e-21)
(1.07875 -0.00188506 -1.52775e-20)
(1.07774 -0.0626273 -6.04253e-21)
(1.01801 0.0712577 3.63946e-20)
(1.12496 -0.0663096 -6.50494e-21)
(0.98727 -0.0005606 -2.5593e-21)
(1.03 0.0810421 8.40878e-21)
(1.14576 -0.143347 -1.22387e-21)
(1.02615 -0.121535 -2.05113e-21)
(0.984702 -0.0193887 1.04574e-21)
(1.02606 -0.0166508 -1.96317e-21)
(1.05942 -0.0593949 -1.64254e-21)
(1.00009 -5.34474e-05 -3.35544e-25)
(1.03774 0.0528798 3.57366e-20)
(0.997975 -0.00625908 -1.32393e-22)
(1.12861 -0.0900255 -1.29825e-21)
(1.00296 0.0222801 -6.67621e-20)
(1.00031 -2.90817e-05 -3.36052e-25)
(1.02412 -0.0730737 9.11351e-22)
(1.10935 0.0158145 -9.89514e-21)
(1.00963 -0.0411348 -8.27702e-22)
(0.995302 -0.0240943 -2.31302e-22)
(1.08844 0.00190799 1.08145e-20)
(1.13161 0.103461 -4.04859e-20)
(0.997432 -0.0414768 1.35751e-21)
(0.945277 0.0167967 -2.23531e-20)
(1.03455 0.0545336 1.89843e-20)
(0.994839 -0.0477481 -1.26443e-21)
(0.982139 -0.0343828 -1.27192e-21)
(1.03167 -0.00336145 9.77063e-22)
(1.01119 -0.0134529 4.75909e-22)
(1.01446 0.0668169 -4.92915e-20)
(1.07576 -0.00450954 -4.55103e-21)
(1.18356 0.0615461 -1.15203e-20)
(1.0177 -0.0706478 -1.04481e-21)
(0.986113 -0.00908644 1.42741e-21)
(0.99672 -0.0627573 5.37201e-21)
(1.02125 -0.0753323 2.60327e-22)
(0.988619 -0.0307913 -2.15582e-21)
(1.22279 -0.0571103 2.95708e-21)
(0.975325 0.0662453 -3.22467e-20)
(1.16072 -0.00591713 6.42067e-21)
(1.01371 0.0688324 4.44446e-20)
(1.11029 0.11363 -3.99376e-21)
(0.976513 -0.00999755 -1.42984e-21)
(1.1381 0.0966881 -2.85527e-20)
(1.00809 -0.00275384 3.96348e-22)
(0.975873 -0.00925467 2.89359e-21)
(1.00141 0.0627891 2.28499e-21)
(1.00007 -0.00021177 -2.60165e-24)
(1.00581 -0.0549339 7.33543e-22)
(1.00181 -0.00319865 -5.49729e-23)
(1.10728 0.115633 2.229e-20)
(1.02219 0.03158 -7.76096e-21)
(1.09566 -0.141782 3.88912e-21)
(0.958915 -0.0184166 1.13368e-21)
(0.990855 -0.0410787 1.18267e-21)
(1.18153 -0.101392 -9.65454e-22)
(1.03296 -0.118086 1.25031e-21)
(0.998978 -0.00214888 -1.21602e-23)
(1.15849 -0.00148458 -9.83523e-21)
(1.08876 -0.00251809 -2.24863e-21)
(0.926677 0.0454608 1.69137e-20)
(0.98303 -0.00929783 1.13834e-21)
(1.11891 -0.145123 1.70736e-22)
(1.05492 -0.0657578 2.9365e-21)
(1.07304 0.0642468 -2.20871e-20)
(1.18781 0.0612712 3.69844e-21)
(0.992066 0.0486845 1.98037e-20)
(1.04445 0.0951568 5.73392e-20)
(0.993231 -0.022327 4.32684e-23)
(0.919651 0.0142195 -2.51712e-20)
(1.11147 0.0927414 1.97572e-20)
(0.997068 -0.000697917 9.9268e-23)
(0.989276 0.00710849 -4.99053e-20)
(1.06414 -0.0581855 -5.46381e-23)
(1.02498 0.0840533 1.58469e-20)
(1.01063 0.0729392 -2.24943e-20)
(0.999787 -9.80709e-06 -3.27312e-24)
(0.972829 0.0471996 1.43181e-21)
(1.04333 0.0830443 4.84125e-20)
(0.989756 -0.000700458 1.32817e-22)
(0.954737 -0.0139186 6.6243e-21)
(1.03109 -0.0297304 -1.76398e-21)
(1.05898 0.00804318 -5.03657e-21)
(1.12985 -0.084774 2.70137e-21)
(0.949108 0.0381413 2.26221e-20)
(1.13021 0.100066 -1.3748e-20)
(1.19156 -0.0332269 4.37005e-21)
(1.05153 0.00825519 4.01466e-20)
(1.09214 -0.0535535 6.98178e-21)
(0.959844 -0.0192172 2.77095e-21)
(1.16008 0.0738279 -1.9077e-20)
(0.973661 0.0495278 -1.56188e-21)
(1.20005 0.0148078 -1.5529e-20)
(0.991791 -0.000283922 1.64229e-23)
(0.945981 0.0379741 -2.20715e-20)
(1.17738 0.0397496 -2.68109e-20)
(1.18947 -0.0743637 -2.45834e-21)
(1.14467 -0.0841847 6.48798e-21)
(0.955219 0.0426995 -2.73541e-20)
(0.967338 0.0439452 6.45036e-20)
(0.975063 -0.0203586 -1.08438e-21)
(1.00165 -0.0307884 -1.05204e-22)
(1.05757 -0.00393844 -9.57585e-22)
(0.962449 -0.0171665 -2.83298e-21)
(0.998541 -0.000150915 -1.12646e-22)
(0.998602 0.0445364 -9.46509e-21)
(0.989391 0.0183811 -1.79347e-20)
(0.9766 -0.0122909 2.05869e-21)
(0.969251 -0.0276412 1.40432e-21)
(1.02646 0.0817852 2.46126e-20)
(0.999051 0.0199071 2.88489e-20)
(0.998246 -7.33412e-05 3.68691e-22)
(1.00177 0.0208275 -4.51525e-20)
(1.12869 -0.0623642 -3.13619e-21)
(1.01202 -0.0118324 -1.07295e-21)
(1.00533 -0.044438 1.22395e-22)
(1.02426 0.050214 -3.80549e-21)
(0.96928 0.0732428 3.00022e-20)
(1.08219 0.0175427 2.839e-20)
(1.031 0.0778473 -4.03251e-20)
(0.985166 -0.0090939 -2.41555e-21)
(1.0032 -0.030354 -4.15079e-22)
(1.00012 -6.08485e-05 5.26758e-27)
(0.998735 -5.48686e-05 -1.24751e-22)
(1.00067 -0.00592584 9.56463e-23)
(1.10754 0.0137037 4.75067e-21)
(1.10189 -0.0904346 1.03832e-21)
(1.01952 0.0692871 -4.64716e-20)
(1.0029 -0.0730796 1.50578e-21)
(1.01813 0.0255117 2.76436e-20)
(0.994412 -0.0361345 -1.90329e-22)
(1.07311 -0.059798 4.29234e-21)
(0.993668 0.0475937 3.53392e-20)
(0.951265 0.00403062 1.10417e-19)
(1.02518 0.0474883 6.56538e-20)
(1.00217 0.0580911 -5.43401e-20)
(0.96802 -0.0271663 -1.26581e-21)
(1.07722 0.0977618 -1.62573e-20)
(1.01034 -0.0398881 8.76946e-22)
(1.08086 -0.00329053 3.04715e-20)
(0.99783 -0.00567907 -2.57207e-22)
(1.21041 -0.0874177 2.84432e-21)
(1.13362 -0.0415585 1.50268e-20)
(1.06441 -0.0201257 1.08657e-20)
(0.999658 -6.73976e-05 -8.03742e-24)
(0.985459 -0.000783426 2.9662e-21)
(0.966642 0.0747908 -4.61355e-20)
(1.12962 0.0355039 7.17895e-20)
(1.01136 -0.0159127 6.28376e-22)
(0.980315 -0.0386018 -2.17269e-21)
(1.09751 -0.0868682 -6.26542e-22)
(1.05583 -0.130957 2.71889e-21)
(1.07727 0.10832 -3.32748e-21)
(0.997527 -0.0620242 -1.44998e-21)
(0.97087 -0.00208606 -2.42081e-21)
(0.999503 -0.0487661 1.71817e-21)
(0.995775 -0.0214065 -2.29712e-22)
(0.999281 -9.2083e-05 5.23294e-24)
(0.993648 -0.0345524 9.54984e-22)
(1.03579 -0.118213 -6.60974e-22)
(0.974733 0.063765 6.12252e-20)
(1.21426 0.0185002 7.72984e-21)
(0.985885 -0.0184578 -2.07872e-21)
(1.01644 0.0267522 -4.26267e-20)
(0.968816 0.0469245 -7.63936e-21)
(0.993943 -0.0388603 2.2898e-22)
(1.00055 -0.000216252 1.64415e-23)
(1.00526 -0.0570546 -1.35274e-21)
(0.997316 0.0409449 1.09424e-20)
(1.19239 -0.117406 4.9368e-22)
(0.981147 0.0217473 -6.35878e-20)
(1.00005 -6.32948e-05 3.61193e-25)
(0.970802 -0.0300202 2.27848e-21)
(1.03608 0.0948481 4.63227e-21)
(0.999529 0.0202447 5.88814e-20)
(1.02465 -0.0546687 5.41612e-23)
(0.986516 -0.0231853 1.24868e-21)
(0.956806 0.0681229 4.87675e-20)
(1.18414 -0.0609624 -1.17557e-21)
(1.18545 -0.0362022 -3.3193e-21)
(0.980224 0.0616722 4.24165e-20)
(0.951438 0.0424715 -4.61103e-21)
(0.993012 -0.0401796 -6.33338e-22)
(1.03479 0.0967349 -2.92943e-20)
(1.11265 -0.00693583 -1.4845e-20)
(1.00462 0.0252306 -7.70578e-20)
(1.04856 0.0582807 2.20709e-20)
(1.00057 -0.000161921 -2.26045e-23)
(1.22055 0.0203052 -6.75232e-21)
(1.06781 0.0617978 1.32994e-20)
(0.996851 -0.000634824 3.1983e-22)
(1.00188 -0.0770307 -5.90492e-22)
(1.18827 0.0187458 -5.92818e-21)
(1.10825 -0.138156 -5.12832e-22)
(1.17545 0.0347069 1.50982e-20)
(1.13767 -0.0258736 -8.25401e-21)
(1.00011 -0.000132479 2.97534e-25)
(0.999775 -0.00260939 7.64003e-23)
(0.987273 0.0725307 -7.55839e-20)
(1.00138 -0.0104155 -3.38387e-23)
(1.01002 -0.0917374 -1.50669e-21)
(0.995538 -0.0514263 1.97167e-22)
(1.15361 0.0947143 -1.57327e-20)
(0.972166 -0.00448635 -4.01837e-22)
(1.02584 0.0860935 2.80528e-20)
(1.15269 0.0106214 2.01677e-20)
(0.997752 -0.0491815 1.08231e-21)
(0.958012 -0.00620084 -1.55274e-21)
(1.07666 0.0612828 2.40047e-21)
(1.15101 0.0715597 1.39684e-20)
(1.00007 -0.000135838 -6.11507e-25)
(0.983701 0.0457655 6.31778e-20)
(1.03397 0.0570676 9.61783e-21)
(0.992613 0.0143688 -1.55102e-20)
(1.17965 -0.0861219 1.51614e-21)
(0.999391 -8.7276e-05 3.42297e-23)
(0.957637 0.0656751 -3.20103e-21)
(0.997877 -0.00398346 -2.92412e-22)
(0.99686 -0.0380422 3.73874e-22)
(1.15658 0.0700445 -5.83968e-21)
(1.19332 0.0132062 1.93112e-21)
(0.988405 -0.0404429 -1.81355e-21)
(1.18316 -0.0691984 -4.14058e-21)
(1.02037 0.0299314 1.09686e-20)
(0.95123 0.00499186 4.02364e-20)
(1.00865 0.0661448 -5.82101e-20)
(1.13173 0.0160964 -2.21225e-20)
(0.913363 0.0186385 5.42239e-21)
(1.0003 -1.6711e-05 3.61594e-25)
(0.994196 -0.0211669 -2.90214e-22)
(1.00009 0.0146007 7.78756e-20)
(1.14628 -0.119455 -1.37047e-22)
(1.06742 0.0588827 -3.13762e-20)
(0.991286 -0.0300871 -8.39597e-22)
(0.997647 0.0591743 5.38816e-20)
(1.14026 -0.00319315 1.2827e-20)
(1.00024 -0.00282661 2.07602e-23)
(1.13607 -0.00674588 -1.1231e-20)
(1.03789 0.0490388 -4.60524e-20)
(1.11685 -0.123261 7.22936e-23)
(0.972685 0.00664539 -1.15571e-20)
(1.04797 0.086802 6.98992e-21)
(0.999465 -0.000287331 -7.76754e-24)
(1.02764 -0.015011 -3.47031e-21)
(1.10106 0.0766154 1.70364e-20)
(1.0881 -4.44143e-05 3.89682e-20)
(0.997483 -0.000138995 -3.78458e-22)
(1.04523 0.0926335 -5.13787e-20)
(1.01056 -0.035514 -1.17988e-23)
(0.915796 0.0447842 -3.09798e-21)
(1.01844 -0.0742229 -1.76654e-21)
(0.975922 -0.011327 9.2196e-22)
(0.986221 -0.000863694 -2.62271e-21)
(1.00956 0.0684728 6.50381e-20)
(1.04344 0.0809467 -7.74427e-20)
(0.973422 -0.00286117 1.04271e-21)
(1.0753 0.0566991 8.63864e-21)
(0.985664 0.0612078 -1.84326e-20)
(1.00146 -0.0112033 -1.34285e-23)
(1.03669 0.00448774 1.14309e-20)
(1.01961 0.0123665 -3.12054e-20)
(0.909274 0.0271466 3.58268e-20)
(0.998167 -0.00333534 9.13974e-23)
(1.13539 0.0773596 -3.07804e-20)
(1.12911 -0.0451597 -4.57188e-21)
(0.960253 -0.0157332 -1.00812e-21)
(0.999599 -6.22872e-05 8.12385e-24)
(0.999726 0.00864568 4.66477e-20)
(1.08173 0.112068 1.57483e-20)
(1.19489 -0.00602343 -3.51483e-20)
(0.99345 0.0723869 -1.95502e-20)
(1.12754 0.0187775 1.12443e-20)
(0.98431 -0.0240675 8.71073e-22)
(1.0797 0.0945962 -1.21377e-20)
(1.08827 -0.00140548 -7.29138e-21)
(1.12461 0.032846 2.01736e-20)
(0.916464 0.0289399 -9.35085e-20)
(1.02001 -0.0650528 4.09003e-22)
(1.16401 0.062976 7.75298e-21)
(0.991639 0.0171656 -4.06316e-20)
(0.979375 -0.0392401 1.99449e-21)
(1.10782 -0.0147588 1.09433e-21)
(1.04661 -0.107089 1.58604e-21)
(1.10326 0.0730856 -7.51795e-21)
(0.993075 -0.000214907 -3.90938e-21)
(1.07844 0.00679928 -6.30015e-21)
(1.19584 0.00024375 1.49779e-20)
(1.16614 0.0585339 2.01135e-20)
(1.00106 -0.00359923 -3.56942e-23)
(1.07096 0.00523776 5.72831e-20)
(0.997009 0.0140115 -3.89351e-20)
(1.03962 0.0346337 8.30692e-20)
(1.10871 -0.134593 -1.72941e-21)
(0.99661 -0.0202123 5.04226e-22)
(0.957578 0.0394533 -3.19546e-20)
(0.951959 0.0160909 -8.25264e-20)
(0.998199 -0.00532013 -6.02881e-23)
(0.971992 -0.0293306 1.07849e-21)
(1.0139 0.0502929 8.61068e-21)
(1.01324 -0.096132 -1.20618e-21)
(1.06834 -0.0620816 -3.58712e-21)
(1.07635 0.10461 5.05288e-20)
(0.988046 -0.000596291 3.27002e-21)
(0.902602 0.0247545 6.0726e-20)
(1.02581 -0.0489851 7.79901e-23)
(1.12695 0.0831466 9.55502e-21)
(0.993411 -0.00787217 1.3599e-22)
(0.995189 0.0131602 -1.65938e-20)
(1.05056 0.0847841 -1.44543e-20)
(1.06481 -0.0155238 -1.07008e-20)
(1.07837 -0.0675424 1.46054e-21)
(1.19288 -0.0278883 -7.25556e-21)
(1.17546 0.0437084 2.89056e-21)
(0.999883 -0.00398869 -4.90625e-24)
(1.01151 0.0414877 -1.59386e-20)
(1.22923 -0.0425917 -8.04992e-21)
(1.08554 0.0494061 3.84071e-20)
(0.918814 0.0467076 9.35195e-20)
(1.18823 -0.0832812 -1.53206e-21)
(1.05211 -0.0565753 5.20243e-21)
(1.00043 -0.00642105 -9.75088e-23)
(1.20383 0.0545 1.97801e-20)
(1.20533 0.00955125 9.25026e-21)
(0.983641 -0.0190014 3.66142e-21)
(1.06449 0.0955998 -4.50155e-21)
(1.00007 -0.0010778 -2.46874e-23)
(0.983187 -0.031842 -4.41e-22)
(1.01134 -0.0106474 1.53436e-21)
(1.17779 -0.0564239 -6.77086e-22)
(0.994478 -0.0331955 8.2115e-22)
(0.999668 -0.000120496 -2.81553e-24)
(0.993946 -0.0426375 2.27642e-21)
(1.16549 0.0730576 -1.0152e-20)
(1.11711 -0.13006 -3.13078e-22)
(1.03607 -0.0516823 2.09552e-22)
(0.973977 -0.0209117 -2.15591e-21)
(1.18171 0.0177484 -1.94215e-20)
(1.13271 -0.0230602 1.23016e-20)
(0.984598 -0.0403967 -9.71422e-22)
(0.955485 -0.0086935 4.91771e-21)
(1.00084 -0.00377216 4.73088e-24)
(1.09747 -0.060731 -9.11721e-21)
(1.021 -0.103464 -1.65721e-22)
(1.00911 -0.00230352 -3.16348e-22)
(1.02706 -0.0522228 -8.74123e-22)
(1.14713 0.0682318 -2.17112e-20)
(1.04111 0.0321765 -5.09329e-20)
(1.16227 0.00542427 4.57853e-21)
(0.999423 -0.000249522 -3.18826e-23)
(0.95239 0.0719456 -7.06701e-20)
(1.00923 -0.00123959 -1.19644e-21)
(1.00001 -0.00116699 2.9706e-23)
(1.03 -0.00795813 2.97728e-21)
(0.974761 -0.029399 -1.72474e-21)
(1.00944 -0.0672588 1.53952e-22)
(0.969249 0.0409835 -3.81181e-20)
(1.01881 -0.0403708 -8.66843e-23)
(1.10889 -0.00612796 -6.61067e-21)
(1.01784 -0.0898994 2.30836e-21)
(1.01566 -0.0914025 -3.23097e-21)
(1.0788 0.101792 -3.50407e-20)
(0.99832 -0.0384548 -5.45349e-22)
(0.99711 -0.059259 1.06209e-21)
(1.00318 -0.075803 1.22609e-21)
(0.999631 -3.95271e-05 -1.61755e-23)
(1.13401 -0.0743476 6.12713e-21)
(0.945153 0.0693315 -6.82502e-21)
(1.05783 -0.126607 6.12456e-22)
(0.97374 -0.0364674 -4.30261e-22)
(1.06421 0.0916518 -6.26952e-22)
(0.98903 -0.0382179 -1.90451e-22)
(1.04847 0.0548847 -1.83868e-20)
(1.13998 0.0995562 -3.37461e-21)
(0.997539 -0.00426982 4.47399e-22)
(0.998511 -0.000218138 9.06879e-23)
(1.03097 0.0520543 5.64135e-21)
(0.925924 0.0553394 3.05237e-20)
(1.04597 -0.124984 1.93951e-22)
(1.11504 0.108034 5.04058e-21)
(1.17467 0.0764319 -2.84775e-20)
(0.977661 -0.0324676 -7.02566e-22)
(0.977743 -0.0339784 -1.62063e-21)
(1.01502 0.0525286 -2.38216e-21)
(1.07589 -0.00831033 6.77041e-21)
(1.12446 -0.133483 8.60309e-22)
(1.0496 -0.1025 -8.36435e-22)
(0.97646 -0.00178541 9.83611e-23)
(1.04708 -0.0109575 5.49409e-21)
(0.954454 0.0231457 -1.42726e-20)
(1.10823 0.0060665 -3.88721e-20)
(1.00028 -5.60183e-05 -1.29271e-24)
(0.97641 0.0586687 6.62582e-20)
(1.02779 -0.0465911 1.71694e-21)
(1.0104 -0.0684426 1.71488e-21)
(1.03861 0.0939098 -2.68181e-20)
(1.01351 -0.0175492 1.36871e-21)
(0.992828 -0.00757794 -4.02413e-22)
(0.9995 -0.000398137 -1.54619e-23)
(1.12102 -0.0546393 5.2918e-21)
(0.97483 -0.0163872 -1.80666e-21)
(1.00029 -2.3576e-05 -9.22337e-25)
(1.11734 0.109947 -1.23839e-20)
(1.19478 -0.110767 5.35725e-22)
(1.00994 0.0403012 -2.74726e-20)
(0.999283 -0.000128739 1.21759e-23)
(1.00031 -0.00336091 -5.64357e-24)
(0.988284 -0.0391903 -8.58732e-22)
(1.00002 -4.90862e-05 -2.78354e-26)
(1.04658 -0.128723 -1.02192e-21)
(1.13898 -0.131706 -2.00011e-22)
(0.999871 -0.00337051 1.73019e-23)
(1.00815 -0.0541555 -4.6378e-22)
(0.955864 -0.0137138 1.53897e-21)
(1.03837 0.0851541 -2.76961e-21)
(0.991999 0.0715253 1.58835e-20)
(0.997833 -0.0036361 9.2454e-23)
(1.00256 -0.000869192 -7.60076e-23)
(1.0007 -0.0719023 -3.442e-21)
(0.988911 0.0653068 5.03607e-20)
(1.00446 -0.0250241 2.13965e-22)
(0.984538 0.0429892 -1.81035e-21)
(0.986875 -0.00982566 -1.58189e-22)
(0.91204 0.037684 -2.55359e-20)
(1.03182 0.0104504 -6.19821e-21)
(1.10494 0.0469819 -4.11343e-20)
(0.933884 0.0450853 -2.78777e-20)
(1.22745 -0.0326368 -4.27393e-22)
(0.992205 -0.00270399 -1.94821e-22)
(1.12298 -0.0443967 4.19137e-21)
(1.00767 -0.0257835 -3.39974e-23)
(0.993654 0.0648388 1.28556e-20)
(1.01409 0.0454582 3.74072e-20)
(0.976937 -0.0074508 1.13065e-21)
(1.20426 -0.0830436 -4.43003e-21)
(1.09638 -0.0193917 -1.1132e-21)
(1.04988 -0.0599495 1.45597e-21)
(0.994876 -0.000336451 -4.11608e-22)
(1.20989 -0.0959552 -2.79774e-21)
(1.00027 -1.43373e-07 -7.08771e-25)
(1.03627 0.0825716 1.67612e-20)
(0.953917 -0.0130317 -6.09617e-21)
(0.996359 -0.047605 -3.64819e-22)
(0.998175 -0.0231717 3.96226e-22)
(1.00688 -0.0436891 1.44949e-21)
(1.12457 0.0792436 2.9483e-21)
(1.15973 0.0100907 -1.75399e-20)
(0.997834 -8.18929e-05 4.45251e-22)
(1.02095 -0.0387714 1.14803e-21)
(0.999912 -9.68866e-05 2.32304e-24)
(0.911524 0.0354667 1.92465e-20)
(0.95776 0.0209409 2.94714e-20)
(0.995778 -0.00106559 -2.19964e-22)
(0.979686 -0.0110396 -1.08241e-21)
(1.02706 -0.0286954 2.06206e-21)
(1.01546 0.0477658 1.60707e-20)
(0.956421 -0.0194516 -2.87689e-21)
(1.17694 0.0798176 -6.24207e-21)
(0.975297 -0.0371631 4.37582e-22)
(1.00555 0.0657824 -1.16975e-21)
(1.10786 0.0502814 -4.66932e-21)
(0.974269 -0.0177339 -1.18587e-21)
(0.907624 0.0203484 -3.8929e-20)
(1.04096 -0.00194076 -5.3027e-21)
(1.01181 0.0695843 -3.48128e-20)
(0.995041 -0.0109779 5.83095e-23)
(1.02236 -0.109763 5.08964e-21)
(0.975921 0.00416425 -9.7002e-20)
(1.01235 -0.0323385 -3.40016e-22)
(0.924675 0.0586181 -1.37893e-20)
(1.02236 0.0556613 2.05693e-21)
(0.913113 0.0225944 -9.40723e-21)
(0.992701 -0.00276386 1.14632e-22)
(0.99131 -0.000665363 1.03834e-21)
(1.02369 -0.0697178 -3.35025e-22)
(1.13262 -0.0355804 -2.03528e-20)
(1.01259 -0.0174395 -1.5028e-21)
(1.02298 -0.063003 -9.24745e-23)
(1.00882 0.0615836 3.16732e-21)
(1.00488 0.0711454 1.07128e-20)
(1.03327 0.00156223 7.3339e-24)
(0.991 0.0637208 -3.59658e-20)
(0.931355 0.0620402 7.56805e-21)
(1.10579 0.0882424 3.11658e-20)
(0.998661 0.00974004 -6.66265e-20)
(1.03662 0.0266255 -1.59146e-20)
(1.00454 -0.0134659 2.33507e-22)
(1.02878 0.0535677 -1.84298e-21)
(0.995976 -0.0588786 -9.17159e-22)
(0.976462 -0.0362812 1.14739e-21)
(0.99903 -0.00106185 1.21426e-23)
(1.04498 -0.0598109 -3.68203e-21)
(1.08738 -0.115893 -2.3147e-22)
(1.06516 0.0315506 1.37932e-20)
(1.06531 -0.00631149 1.30284e-20)
(1.00269 0.0241612 5.5231e-21)
(1.00845 -0.0375812 5.28241e-22)
(1.09892 -0.0117767 6.38683e-21)
(1.00408 0.0194358 -6.4659e-21)
(1.00864 -0.0270448 -2.61482e-22)
(1.07579 -0.0705524 -3.21993e-21)
(0.999942 -0.000118482 -5.57111e-25)
(1.0004 -0.000187809 -2.87041e-24)
(1.06424 0.0288441 -1.90261e-23)
(0.997106 -0.0510867 -1.06491e-21)
(0.980594 -0.0338524 1.75698e-21)
(1.00044 -0.000175244 4.58344e-24)
(1.00017 -0.00235752 1.06464e-23)
(1.09613 -0.022681 -1.9903e-21)
(0.999436 -7.86717e-05 -2.05027e-23)
(1.20548 0.0360512 -9.2973e-22)
(0.909833 0.0293917 4.91839e-20)
(1.11057 0.109796 1.87241e-21)
(1.09136 0.0577665 -1.09179e-21)
(0.972786 -0.00742134 -1.83604e-21)
(1.02343 0.0740262 1.28014e-20)
(1.19801 0.059017 -9.93673e-21)
(1.00474 -0.023334 -1.21333e-23)
(0.980333 -0.0121025 -1.02243e-21)
(0.998159 -0.00309205 6.26698e-25)
(0.999451 -0.000361659 8.72041e-24)
(1.00156 -0.00380338 1.5411e-23)
(0.998745 -0.0246167 3.62208e-22)
(1.03389 -0.109504 2.19118e-21)
(1.07915 0.0710098 4.41071e-20)
(1.15431 -0.0361791 4.15325e-21)
(0.963558 -0.00387202 3.95232e-22)
(0.999917 -5.90923e-05 -6.51857e-25)
(1.00168 0.0406387 3.66821e-20)
(1.20922 -0.0167261 -1.34782e-20)
(1.21402 -0.0615806 -2.06563e-21)
(1.01416 -0.0332252 3.99991e-22)
(1.17955 0.0592487 1.34892e-20)
(1.04352 -0.0620591 6.36924e-22)
(0.98088 -0.00094975 -3.04138e-22)
(1.00292 0.0184945 3.25981e-20)
(0.976223 0.000931273 -1.23652e-19)
(1.0522 0.103399 -3.58639e-20)
(0.987927 -0.000458428 -2.21398e-21)
(1.05016 0.102702 2.77146e-20)
(0.971175 -0.00559528 7.4397e-22)
(0.991037 -0.0357557 -1.06785e-21)
(1.09877 0.102774 -3.46098e-20)
(1.00025 -6.85276e-05 -2.25433e-24)
(0.993589 -0.0236226 -1.83166e-22)
(1.13473 0.0814305 1.04803e-20)
(1.10279 0.0799631 3.6381e-20)
(0.97539 -0.018957 -3.19228e-22)
(1.01829 0.047851 2.45141e-21)
(0.972014 0.0749757 -3.12194e-21)
(1.0129 0.0227539 -7.53772e-20)
(0.973449 -0.0301512 2.65232e-21)
(0.956586 -0.00852982 -2.27026e-21)
(1.03889 -0.0489149 9.60602e-22)
(1.09216 -0.00129919 1.08524e-21)
(1.0184 0.0103954 -1.85792e-20)
(0.996219 -0.00137634 -7.0113e-23)
(0.97626 0.0089102 -3.62274e-20)
(0.996281 -0.0363541 1.97231e-21)
(1.02587 -0.109657 -3.37252e-21)
(1.12043 -0.039784 4.39284e-21)
(0.949971 0.073391 1.00505e-19)
(1.0801 0.0750909 -3.64582e-20)
(1.01175 0.0456397 -3.93034e-20)
(1.14665 -0.127361 3.3307e-23)
(0.958993 0.00242335 -5.45608e-20)
(0.976263 -0.016139 1.82684e-21)
(0.991997 -0.0344514 7.66797e-22)
(0.923376 0.0111223 1.88254e-20)
(1.06216 -0.0222226 -3.53911e-21)
(1.0343 -0.101626 -4.00629e-22)
(1.0129 0.0643175 -8.02482e-21)
(1.0044 0.0632361 -2.43879e-20)
(0.98441 -0.0307826 -1.59357e-21)
(1.02247 0.01365 -4.20647e-20)
(0.98934 0.0679678 -6.68711e-21)
(1.00503 0.0586592 3.18929e-20)
(1.0312 0.0869696 1.06568e-20)
(1.01007 0.0643488 5.1577e-20)
(1.04552 0.0601965 -2.8599e-20)
(0.989003 -0.00349769 7.5112e-22)
(0.977267 -0.017291 2.11587e-21)
(1.00246 -0.00601488 1.63438e-23)
(1.01155 -0.0900797 3.69259e-21)
(0.993765 0.0188857 -9.40346e-21)
(1.01568 -0.0951594 2.14368e-21)
(1.14976 0.0770321 -9.42213e-22)
(1.12449 0.0431837 -2.56851e-20)
(0.981436 -0.0388889 1.17684e-21)
(1.19916 0.0344291 1.19749e-23)
(1.14059 0.0926199 -1.06096e-20)
(0.991698 0.00884902 -2.83979e-21)
(1.19061 0.0257566 7.47652e-21)
(0.999892 -0.00284358 -7.1204e-24)
(1.04967 -0.0110217 2.16288e-22)
(0.990696 -0.0384778 5.27873e-22)
(1.19193 -0.0573409 1.22463e-22)
(1.20693 -0.0571983 5.13339e-21)
(1.01827 -0.100945 7.39121e-22)
(1.03209 0.0834856 6.02254e-21)
(0.982705 0.0732636 5.30205e-20)
(1.14342 -0.0223547 9.04183e-21)
(0.996449 0.00952969 2.95044e-20)
(0.923941 0.0524875 -3.39549e-20)
(0.997986 -0.000133655 -9.85803e-23)
(1.00279 -0.000900909 1.20351e-23)
(0.997593 -0.00468628 -2.00539e-22)
(0.978034 -0.0077846 4.23244e-22)
(1.06498 0.0669952 -2.27302e-20)
(0.925032 0.0126425 -4.09082e-20)
(1.11021 0.00940742 3.34765e-20)
(1.02456 0.0791935 7.63129e-21)
(0.987257 -0.0190593 -9.85735e-22)
(1.05776 0.0958374 4.73202e-20)
(1.0548 0.10114 1.51067e-20)
(1.18992 -0.102558 -3.34763e-22)
(0.966 -0.0111585 2.05353e-21)
(0.95729 -0.0184778 1.74176e-21)
(1.15335 0.080536 2.73365e-21)
(1.0108 -0.0331526 -6.16455e-25)
(1.15328 -0.0317523 5.8599e-21)
(0.97898 -0.0315834 3.68756e-22)
(0.96506 -0.0316189 -4.01e-21)
(1.01753 0.0665378 5.73994e-20)
(0.993496 -0.00235727 4.00707e-22)
(1.02167 -0.0443348 2.02768e-22)
(1.00596 0.0700527 2.66619e-20)
(1.19723 0.0272866 3.39589e-20)
(0.955541 0.0628312 1.15501e-20)
(1.01446 -0.0649281 -6.44189e-22)
(1.03551 0.00899298 2.03809e-20)
(1.19882 -0.0618311 -4.54992e-21)
(1.00203 -0.0538513 3.63526e-22)
(0.978358 0.00691644 -1.33725e-20)
(0.987652 0.000554401 8.028e-20)
(0.991402 0.0226335 -1.4592e-20)
(0.996601 -0.0262556 -9.65071e-22)
(0.943363 0.0153856 4.51215e-20)
(0.974769 -0.0278375 1.36866e-21)
(0.980811 0.055124 1.60541e-21)
(1.09626 -0.0494986 -2.81144e-21)
(0.990114 0.0348775 -8.29015e-21)
(0.988483 -0.0368039 6.74361e-22)
(1.00006 -0.000175247 3.6139e-25)
(0.989717 0.0306631 2.74587e-20)
(0.978912 0.0496817 3.1686e-20)
(0.982623 0.05973 -5.0786e-20)
(0.990167 0.0266416 -3.20031e-20)
(1.05931 0.00481305 -7.43902e-20)
(1.10555 -0.0127803 -6.28189e-22)
(1.05587 0.0581888 -5.61611e-20)
(1.03201 -0.0984597 8.7553e-22)
(0.996085 0.0174568 9.63221e-20)
(1.01811 0.0428661 -4.89059e-20)
(1.2034 -0.0204647 1.644e-20)
(1.06841 -0.0081473 -1.37218e-20)
(0.98933 -0.00332938 4.26563e-22)
(1.23317 -0.0281071 1.6406e-21)
(1.02238 0.0687492 -9.82334e-21)
(0.965013 -0.0252292 1.17799e-22)
(0.969861 -0.00483141 -2.33712e-21)
(0.989782 0.00482625 -1.91379e-20)
(0.986533 0.0377018 -5.86903e-20)
(0.994091 -0.0415636 -9.00047e-22)
(0.992728 0.0406351 4.30445e-20)
(1.02013 -0.106989 1.23337e-21)
(1.17875 0.0540336 -2.23239e-20)
(0.992231 -0.000386983 -9.32213e-22)
(0.98261 0.0406918 -3.29173e-20)
(0.978208 0.0442986 8.35453e-20)
(0.919898 0.0318263 7.60104e-20)
(0.986928 0.0698229 6.92846e-20)
(0.996679 -0.000422655 -1.1078e-22)
(0.987474 -0.0205851 6.4759e-22)
(0.9989 -0.00109528 -1.04619e-22)
(0.999378 -0.056424 -3.29253e-21)
(0.955 0.0498425 -1.64387e-20)
(1.10249 0.064413 -5.25446e-20)
(1.02881 0.0755139 -5.67418e-22)
(0.965334 -0.0304404 2.64613e-21)
(1.03687 0.0291213 5.00556e-20)
(1.02875 -0.0279447 -2.36055e-21)
(0.955038 0.0566465 2.38192e-20)
(1.06803 -0.075812 9.65614e-22)
(0.994266 0.0077985 3.26523e-20)
(0.992487 -0.00038022 -5.52036e-22)
(0.961163 0.0467922 -5.5518e-20)
(0.949278 0.0600696 -6.62301e-20)
(0.986225 -0.0215715 -1.65024e-21)
(1.14774 0.0321425 1.34458e-20)
(0.961738 0.0400739 -5.5439e-20)
(0.996371 -0.000616816 5.24931e-22)
(0.93587 0.0312352 -8.63656e-21)
(1.03676 -0.0546828 -3.9839e-22)
(0.995989 -0.000463804 -1.64531e-22)
(0.965011 -0.012199 -1.43333e-21)
(1.01189 0.0722123 -3.39002e-20)
(1.12275 0.0572339 -3.24756e-20)
(1.00809 -0.0759082 1.68992e-21)
(0.996592 0.0700879 2.71324e-21)
(0.946109 0.0667678 4.3727e-21)
(1.05469 0.0977032 -5.12583e-20)
(1.0439 -0.0080427 -2.66409e-21)
(1.00103 -0.0502172 5.94431e-22)
(1.11913 -0.0497741 -5.73423e-21)
(0.987416 0.0423881 4.83228e-20)
(0.943709 0.0310412 -4.99291e-21)
(0.913648 0.0310904 4.92538e-21)
(1.10129 0.0558093 8.13458e-21)
(1.00076 -0.00809621 1.12802e-23)
(0.974651 -0.00204519 3.02594e-22)
(1.02422 0.0709933 -3.48424e-20)
(1.0018 -0.00625563 -3.86729e-24)
(0.987624 -0.00496416 -7.78952e-24)
(1.00283 -0.00974009 1.29944e-23)
(0.996335 -0.0229062 -4.88226e-22)
(1.06635 -0.111568 6.51843e-22)
(1.13795 -0.11642 1.62804e-22)
(0.972841 0.0593513 -7.38672e-20)
(1.01632 -0.0367154 4.37426e-24)
(0.999166 -0.000881997 7.02266e-23)
(1.02307 0.0448497 -7.48278e-22)
(1.11908 0.0797884 2.62262e-20)
(1.0019 -0.00989944 -1.01056e-23)
(1.15828 0.0638732 -1.67928e-20)
(1.00153 -0.0010604 -6.12297e-24)
(1.11495 0.0435241 2.78232e-21)
(1.01278 0.0239724 5.27684e-20)
(0.990907 0.0390353 -8.34734e-20)
(1.11054 -0.119208 8.22868e-24)
(1.13383 0.0326275 -1.78894e-20)
(0.995731 -0.0112043 -1.00374e-22)
(1.09266 -0.0768588 -6.73866e-22)
(0.996035 -0.00165997 -3.21346e-23)
(0.985125 0.0478285 -8.56081e-20)
(0.971553 0.0579063 2.29121e-20)
(1.1635 -0.122655 -4.06353e-22)
(1.13193 -0.128487 4.95652e-23)
(1.10218 -0.129898 1.62497e-21)
(1.0262 -0.0645267 1.22634e-22)
(0.994008 0.0673263 5.76057e-21)
(1.02836 -0.0588994 -1.44125e-22)
(1.08323 -0.105319 -1.23672e-22)
(1.055 -0.12163 -7.03068e-22)
(1.08769 -0.0674966 3.43168e-21)
(0.928064 0.0316167 4.18702e-20)
(1.10327 -0.143306 -3.72765e-21)
(1.19066 0.00539492 -2.26661e-21)
(0.986698 0.014085 1.66979e-20)
(0.994099 -0.000471248 5.34419e-22)
(1.15116 0.0149572 8.2447e-21)
(1.03018 -0.0530012 6.43556e-22)
(1.05547 -0.111889 1.10612e-21)
(0.996109 -0.0011021 1.8128e-23)
(0.999855 -0.0024133 -2.5176e-23)
(0.931606 0.0386682 -7.14213e-20)
(1.04349 0.0313326 3.86452e-20)
(1.15994 -0.129211 -9.89457e-23)
(1.23118 -0.00394097 3.60692e-21)
(1.04459 0.0529384 -2.07736e-20)
(0.995259 0.0396658 -6.80572e-21)
(1.02001 0.0455423 1.49597e-20)
(1.17469 -0.0725447 4.56871e-21)
(0.98926 -0.0411437 1.97106e-21)
(0.997171 -0.034865 -5.08529e-22)
(0.99162 -0.0372306 -1.41361e-22)
(1.02876 0.0462945 -5.00881e-20)
(0.971968 -0.00598248 2.09327e-21)
(1.00454 -0.0511208 7.83927e-22)
(0.999646 -3.95366e-05 4.50029e-24)
(0.978612 -0.0169432 -3.56063e-21)
(0.998023 -0.000640677 8.71954e-24)