/*--------------------------------*- C++ -*----------------------------------*\
  =========                 |
  \\      /  F ield         | OpenFOAM: The Open Source CFD Toolbox
   \\    /   O peration     | Website:  https://openfoam.org
    \\  /    A nd           | Version:  7
     \\/     M anipulation  |
\*---------------------------------------------------------------------------*/
FoamFile
{
    version     2.0;
    format      ascii;
    class       surfaceScalarField;
    location    "7";
    object      phi;
}
// * * * * * * * * * * * * * * * * * * * * * * * * * * * * * * * * * * * * * //

dimensions      [0 3 -1 0 0 0 0];

internalField   nonuniform List<scalar> 
11265
(
153.802
-521.214
367.412
-743.589
-4.24237
747.832
416.976
-375.251
-41.7246
635.925
276.109
-912.033
1511.19
-1069.47
-441.727
1216.3
-1527.14
310.841
-52.3936
475.813
-423.419
168.657
-843.024
674.367
962.162
-1610.86
648.694
-1757.32
1663.6
93.7271
-542.946
1759.24
-1139.77
1933.67
-793.904
609.313
181.147
-790.459
-24.4514
-1309.7
1334.15
219.259
-1976.58
1024.7
-380.635
-644.069
-188.434
342.236
486.942
190.69
-677.632
1156.22
-1312.29
156.067
-298.558
376.665
-78.1069
994.634
-1306.72
312.086
1221.47
798.864
-2020.34
71.5594
-1634.11
1562.55
-469.274
-1175.94
1645.21
478.39
182.095
-660.485
-197.706
-323.508
498.343
1012.85
1641.02
-1798.07
157.053
-86.8914
-1693.51
1780.4
-1558.15
648.91
909.237
-305.44
654.297
-348.857
-192.769
-134.821
327.59
1279.55
-1207.99
355.152
-1407.51
1052.35
-1754.35
1754.35
101.667
1525.27
-1626.94
-1076.01
-482.132
645.541
-697.935
-382.722
941.503
-558.781
1331.99
-1317.36
-14.6242
-1100.56
717.838
629.458
395.246
-371.77
-51.9091
423.679
-447.74
739.12
-291.381
-1618.53
1618.53
1253.6
-1437.91
184.307
-488.29
1709.76
1256.75
-315.245
1660.76
-1161.27
-499.492
89.5264
-388.085
2064.12
-1134.02
-930.104
1806.26
-165.241
457.819
156.23
-614.049
-449.446
965.768
-516.322
-1165.24
1266.91
-569.187
971.694
-402.507
403.317
752.904
661.876
-493.219
-438.124
597.947
-159.823
1190.74
-835.588
2308.18
-1080.65
-1227.53
1163.1
-2007.14
844.047
-1596.04
1571.59
440.796
-1580.56
-759.248
1250.9
-491.657
-673.831
368.391
1661.48
-699.323
-1106.93
-870.89
1977.82
685.848
-341.991
-343.858
689.453
567.295
-258.204
1511.8
122.049
-323.249
201.201
-284.994
763.384
-335.811
568.13
-232.319
-324.7
811.643
-318.265
-152.704
470.97
324.283
92.6927
1449.56
-454.93
-966.054
466.215
499.839
285.216
87.3092
-372.525
950.809
-341.497
-1702.46
646.96
1055.5
10.8161
-847.822
837.006
-283.343
598.912
-315.569
156.454
-1093.82
937.361
1051.95
-1067.49
15.5384
373.035
519.664
-892.699
-245.615
703.434
-1104.1
-481.928
1586.03
-678.728
951.691
-272.963
1359.45
-1446.34
-597.179
234.859
362.32
-470.186
-1011.59
1481.78
-540.506
-791.724
1332.23
576.736
-997.005
420.268
-267.064
-318.212
585.276
410.959
-288.911
-1032.16
582.71
955.368
-798.914
-110.3
944.128
-833.828
-213.699
423.059
-209.36
-630.96
-335.093
-386.743
963.48
1856.38
-1856.38
-474.441
-122.739
-958.12
1560.09
-601.966
474.029
-908.754
434.724
-924.591
355.404
-941.913
-1058.08
-1482.77
345.335
1137.44
-286.114
922.038
-296.476
603.016
-306.54
-1941.91
999.994
-1132.9
-349.876
546.357
-1504.48
1728.52
-1725.47
-3.05128
206.961
-581.19
374.229
-1457.03
978.05
478.984
293.397
209.386
-502.783
312.51
-648.321
245.88
-423.299
177.419
2017.13
-852.014
-1165.12
-536.624
164.854
618.624
831.725
-1450.35
-185.105
430.985
431.054
877.193
-1308.25
-910.529
396.076
514.453
-1043.71
1447.03
-1068.91
309.66
754.786
-100.489
509.727
-302.71
-207.017
991.65
-525.435
593.287
-1404.01
810.719
-1342.42
238.325
-550.048
266.705
-1193.33
907.212
1939.86
-999.025
-940.839
276.804
1579.58
-2091.62
893.072
1198.54
370.074
-30.5183
-339.555
-224.457
484.524
-260.067
-119.345
-371.892
491.237
-470.672
152.407
343.672
-130.17
604.199
405.528
389.052
-794.58
-2038.36
1112.53
925.836
461.354
-535.619
74.2653
224.224
-366.531
142.308
1009.87
1007.26
1777.37
-252.102
683.595
-448.736
797.453
-1390.25
592.795
320.49
365.359
1046.12
-1035.3
-500.226
-240.38
740.606
483.06
-140.214
-342.846
798.415
-617.268
555.686
-732.838
177.152
503.33
1157.43
-1239.96
699.452
1048.17
-1517.44
-3.13824
-1439.43
1442.57
324.535
825.778
-1150.31
623.767
269.984
-893.752
-2273.31
1146.76
1126.55
-1119.03
-1154.28
188.939
366.747
958.548
-634.013
879.572
-899.279
19.7066
-2099.38
992.451
-228.585
-191.399
419.984
-41.639
1770.16
-814.07
70.4806
-1026.04
-1065.57
-230.701
454.925
-633.203
158.762
-253.477
-450.722
704.199
1104.06
-1574.25
783.201
-1374.6
591.395
704.228
-428.119
1947.88
-1444.55
-378.289
-1376.06
71.0622
404.751
-520.285
516.043
1.26011
-555.333
554.073
571.612
-278.214
-607.669
281.785
325.885
776.148
-370.619
33.6957
336.378
1188.47
-1191.61
184.458
226.502
420.243
-673.72
620.187
-1006.93
-2026.69
2026.69
-250.399
-464.675
715.073
699.403
405.887
-1105.29
579.742
175.044
391.617
384.531
-2199.74
1328.85
-927.007
-678.359
1605.37
-494.597
-698.729
-282.497
570.759
-288.262
835.327
-201.109
-634.218
-420.386
627.347
372.727
-669.203
-334.116
-125.569
459.685
-1324.4
-473.677
625.401
-1120
-374.156
-1244.37
844.32
1463.86
302.092
-917.271
615.178
967.024
-337.567
1391.52
-798.235
447.928
-263.47
-330.787
-880.888
574.115
306.773
-335.101
-545.788
303.244
-422.588
-198.062
-156.441
354.502
-392.741
1092.14
435.789
-245.099
-398.804
1343.35
-165.269
-1178.08
-456.672
255.582
201.09
246.397
257.795
-504.192
9.02854
-741.867
592.062
-1728.98
1136.92
1480.53
-861.908
-1053.24
-403.793
-1057.96
573.08
484.883
1375.92
-397.869
929.614
-1411.54
-169.407
-191.764
361.17
-469.989
582.239
-1625.95
427.979
904.007
264.805
338.883
-603.688
568.076
1186.27
1105.01
-717.018
-387.992
411.672
-223.91
-187.762
-1419.47
444.601
739
-1183.6
1473.45
-543.839
-507.697
937.086
-429.389
426.141
1186.17
-1612.31
47.3405
-726.069
-142.716
427.932
202.3
-395.07
532.115
459.535
-604.931
48.2866
556.644
1024.55
-1307.68
283.133
659.256
-267.639
468.217
-1447.27
979.051
405.162
1685.48
-522.386
895.663
1044.2
-663.378
-1684.46
757.452
563.168
389.303
-952.471
452.973
78.7083
1749.86
-1828.57
1443.78
-379.491
-1064.29
1699.08
-1740.72
-368.509
-504.626
712.335
-207.709
-502.593
188.823
294.237
-373.237
-1226.02
214.432
-764.565
-639.441
-645.505
998.855
-353.35
-654.063
644.114
9.94851
655.122
-923.79
268.668
-719.601
357.037
362.564
-649.215
-704.798
363.12
341.679
-932.393
1400.61
-409.313
881.832
-472.519
-2205.3
5.55903
185.788
-540.044
354.256
138.894
1204.46
-63.7949
-569.408
162.385
-600.509
1487.27
-704.067
369.087
-464.916
95.8284
-566.768
566.768
1223.07
395.456
1777.79
-1229.3
588.958
640.345
850.744
-52.3286
1291.17
772.954
-539.807
1337.26
295.159
303.753
280.564
-785.19
210.439
-658.179
233.364
-447.408
214.044
-245.98
588.63
-342.65
121.303
-367.283
-592.179
-564.561
1156.74
-385.489
506.572
-121.083
-1192.16
2032.05
-839.886
1290.51
-331.96
-403.881
136.818
-1984.49
808.557
1525.89
-850.745
-675.147
1986.93
-877.412
-1109.52
713.371
577.137
-241.365
474.729
-686.982
1145.29
-458.307
-770.398
1201.45
551.465
924.709
-1724.72
800.013
-565.308
-44.2731
609.581
260.951
248.776
419.675
-97.4564
-322.219
896.984
-83.4506
-813.533
896.875
-550.873
-346.002
1576.23
-472.16
886.703
-1624.88
738.173
1068.49
879.396
751.118
-447.069
-304.049
-1059.08
-258.283
554.812
581.145
-1135.96
-480.317
470.131
10.1864
580.208
-349.531
-230.677
-980.341
571.028
596.681
883.851
-441.854
1096.98
1403.4
-771.041
-632.355
400.188
-926.544
526.356
-1009.37
378.41
541.707
-1049.4
411.999
-479.376
67.377
439.106
300.014
-518.071
-48.6965
-794.656
-876.607
1671.26
199.049
212.623
-228.746
417.685
-11.8572
-541.95
553.807
489.806
863.697
-1353.5
-510.792
312.73
985.98
-88.9966
836.664
-1065.14
228.481
392.215
846.813
-1386.62
-438.945
827.997
1975.88
-1282.44
-693.448
270.194
609.378
256.001
795.949
75.3468
-962.621
887.275
1673.75
-1089.09
-584.66
-137.79
1887.65
-1866.03
-160.66
483.768
-621.963
138.195
-1015.58
526.046
489.532
-1730.48
538.32
-955.983
845.682
392.384
205.563
579.598
-277.505
-425.529
712.87
254.155
60.4841
716.708
-777.192
-1147.99
-880.972
2028.96
-544.536
1092.06
-547.519
-449.284
-337.814
109.229
-1653.34
858.685
-869.099
-598.041
1467.14
-332.344
-295.481
627.824
365.387
-659.779
294.392
230.652
-601.271
292.675
213.046
-505.722
338.842
-621.339
633.367
-267.98
315.486
-468.191
678.07
433.655
-187.258
-395.643
-309.156
1215.12
-2.09118
-1213.03
1040.27
-420.082
560.994
410.7
-1782.39
869.832
912.558
494.212
540.74
-1034.95
-536.204
203.86
-262.28
1180.37
-918.086
-1590.91
1212.62
504.699
-1096.88
388.112
-19.0243
449.932
282.862
-732.794
374.483
-620.098
-28.8545
754.493
-725.639
-526.331
796.315
376.589
322.982
527.761
655.305
83.297
-420.281
336.984
1059.15
-645.365
-413.787
494.005
-1664.27
1170.27
-1140.47
1753.25
-612.779
1715.8
-1123.74
-335.44
617.224
-1188.3
1263.65
425.361
-794.886
1596.08
-801.194
-231.617
-225.055
-899.044
1468.94
1810.85
-611.525
-1199.33
-404.927
657.442
-1302.95
-124.78
-52.658
472.333
-678.913
-354.173
-1236.74
-226.433
457.084
904.036
-560.612
188.72
-1674.47
-71.1669
1745.64
-1056.37
511.831
571.13
-1179.91
608.78
901.142
909.711
630.849
620.056
681.767
255.319
-1138.39
451.41
-404.068
405.329
623.738
-515.933
253.326
-734.322
480.996
693.309
-372.819
-318.075
183.255
-575.945
225.236
350.708
-888.636
-736.24
1087.67
-2145.75
400.915
-685.909
-342.976
-724.512
830.727
572.669
-349.227
297.318
383.833
224.728
646.214
-870.941
540.253
605.036
-498.648
164.532
376.524
-626.923
-1059.16
-834.879
1894.04
-1790.96
156.845
1107.35
-1369.63
1167.04
-730.726
-436.314
-503.274
1350.09
-1495.57
627.869
867.699
-288.043
-210.904
498.947
1428.38
558.544
310.706
-436.275
-487.228
-562.87
1050.1
-415.436
601.224
1581.99
-1128.49
-453.509
-786.799
322.124
654.995
404.157
-1623.43
416.154
1207.27
-203.314
495.99
797.953
784.041
174.821
-665.41
490.589
210.564
212.495
-297.37
-109.582
406.952
452.285
47.8215
-500.107
-1635.97
582.723
-1604.79
1668.46
-63.6663
9.18332
-1613.97
1069.63
760.066
-310.134
-810.782
-198.589
-1134.58
-240.017
-312.363
686.846
-1812.26
-622.994
1204.14
206.885
758.883
-1328.79
-678.356
-465.231
625.531
-360.726
-1013.29
1350.75
-1932.79
582.043
645.764
1287.91
487.649
-3.12494
716.596
699.677
-1416.27
-641.619
341.305
300.315
442.031
-100.123
-341.908
157.002
268.639
171.585
-440.224
-575.883
1139.05
468.311
-601.4
-462.69
-401.995
864.685
-329.508
160.101
-461.096
172.185
-306.849
-708.729
550.531
-108.501
-567.811
967.998
580.456
-270.357
-310.099
457.111
-781.811
-643.09
427.249
-1129.42
-832.054
1177.39
-569.77
455.18
285.426
-460.972
118.981
1029.77
-317.077
594.341
-277.264
-509.045
1578.67
-692.585
244.721
378.553
-623.274
194.757
501.018
-9.38461
-491.634
-250.311
-210.785
1000.97
1108.97
564.784
-863.625
929.227
-65.6028
-457.147
169.104
-744.436
293.714
-595.902
351.977
341.332
817.766
-1237.71
419.942
778.422
-807.277
-948.997
-550.378
1499.37
-150.629
489.512
-507.187
204.477
1304.4
757.211
-582.39
1319.69
-694.287
488.12
-674.316
-415.058
-424.558
-378.815
803.373
503.876
-845.373
-453.179
64.0902
389.089
-327.889
572.391
731.007
-330.093
-249.905
-176.265
426.17
-490.858
151.546
339.312
1456.1
79.9327
-1536.03
-748.797
1345.48
-1144.75
-466.101
551.879
-173.325
1149.36
-370.94
1083.53
492.7
687.84
-407.276
-885.205
-522.302
-1328.49
-29.4396
984.828
-955.389
611.359
327.165
-938.523
-307.355
-229.269
-681.383
405.513
1621.18
-175.44
358.46
352.968
-711.429
-1839.79
-2106.67
1519.14
587.537
-2039.26
345.748
359.031
548.081
-907.111
-460.21
1021.2
-390.47
-682.834
1073.3
-2030.52
1391.21
639.314
610.126
-1000.6
39.6862
372.313
387.085
204.341
243.587
350.389
969.157
875.245
682.464
-327.83
-354.634
-296.27
624.652
-328.382
575.543
529.467
565.713
515.028
-1080.74
-796.276
-699.292
753.416
395.946
-422.879
717.271
-1193.43
1609.58
414.541
-1097.38
-310.653
523.699
-1388.11
877.078
511.033
-723.851
-359.487
-782.098
350.824
431.274
447
718.677
-1165.68
1066.05
-571.839
-389.924
644.042
-254.118
255.007
325.449
-469.226
-432.136
901.362
-242.81
556.566
-940.771
384.206
-462.505
600.599
-1681.25
423.707
671.407
-1095.11
519.112
83.9039
113.406
-2212.78
547.628
-92.4485
1443.72
1777.09
-217.554
-1559.54
-438.395
1789.15
-1986.85
1194.43
792.422
406.556
344.562
-34.028
864.755
-1283.66
719.103
-871.221
-823.497
794.057
314.541
44.5908
-359.132
230.593
186.054
-416.646
1548.15
-831.552
-1530.95
-325.433
443.014
-184.56
-258.455
396.21
367.174
228.649
396.882
-8.07608
1000.97
-992.892
408.252
261.906
-670.159
-734.011
1817.26
-1083.25
-343.156
739.366
-1214.41
-412.524
-916.797
484.661
582.432
-797.232
214.8
763.65
-382.353
-381.297
-425.019
-438.605
449.184
1081.96
1235.24
-664.113
802.793
-345.682
405.593
309.48
-258.379
-206.536
-215.09
620.252
408.132
-849.349
441.216
221.915
365.842
-587.757
-423.977
832.11
754.782
-1147.52
887.873
-70.1065
-491.415
270.313
775.804
-95.4942
1383.4
1890.5
-79.4192
335.001
-344.627
427.924
-1085.15
1077.08
636.901
376.59
387.06
51.4574
391.557
261.012
486.819
-369.172
-272.447
-564.508
-89.5548
-352.332
369.792
-17.4595
-258.629
-291.419
1011.14
-1540.73
529.594
-189.661
-185.59
-413.29
675.196
-1626.94
1591.08
-963.212
265.7
-680.758
584.308
1224.42
-1808.73
607.405
983.676
290.909
-1116.73
691.198
-314.175
-289.513
1372.17
-1440.83
821.615
619.214
409
-603.066
194.066
-341.052
459.798
-118.746
382.65
69.6358
1723.57
464.511
-253.946
557.614
-1704.79
1147.18
-91.1859
406.991
343.405
339.059
-448.512
-616.18
1064.69
420.779
-859.723
-641.438
903.191
570.263
-485.009
-234.592
-440.334
-409.015
-307.135
-827.444
1821.11
-1821.11
-105.628
-1588.7
1694.32
292.016
288.192
-917.408
-555.256
1472.66
-408.267
973.981
-592.099
-1043.87
694.545
377.349
-1071.89
481.547
-166.06
573.057
1220.35
-1793.41
-1048.33
2116.54
-1068.21
-373.224
-300.608
-504.762
826.886
-1747.88
1598.04
149.843
1747.88
-1601.33
-146.553
-248.522
528.006
-279.484
-537.277
1620.8
1560.41
-1972.93
1072.95
-322.097
-215.25
537.346
240.996
-551.649
-711.567
288.689
1340.62
635.267
576.587
486.461
-1063.05
283.373
404.467
875.497
500.113
-1375.61
529.804
-1017.03
1574.97
-563.829
-786.298
-381.418
-126.053
507.471
-489.909
1208.59
-741.151
334.823
368.611
347.237
254.272
-601.509
588.233
832.096
-603.615
260.567
668.66
-485.009
-354.527
-194.978
549.505
1168.59
-679.018
611.79
464.478
-1076.27
-1283.78
1283.78
-387.851
764.441
-288.865
-472.298
761.163
480.937
447.667
-928.604
386.685
-675.55
614.298
-868.284
253.986
-367.345
-496.952
1073.54
-662.766
-708.523
1371.29
-366.681
923.247
-1552.68
675.264
9.89298
-361.724
351.831
-522.576
681.338
261.953
326.677
174.016
307.53
-540.483
226.308
1869.11
-1964.6
260.891
-681.277
442.026
-819.229
377.202
-920.502
1417.07
-496.563
-429.823
-486.974
600.671
1124.21
-1724.88
-716.82
343.596
-459.518
1035.06
-772.59
1033.16
-381.616
-631.71
-487.753
698.192
541.468
-359.373
901.716
-294.073
-196.785
1599.02
-1816.57
-334.856
-605.915
-326.291
477.837
249.916
-610.642
-166.944
1057.78
-787.467
216.344
-300.163
-283.899
584.062
392.009
-869.507
477.498
-489.887
-441.612
-917.271
-332.365
531.478
-199.112
-434.932
-412.463
-309.27
-196.452
-373.425
627.697
-464.569
774.049
-1073.28
624.766
-1411.88
542.778
-27.5688
-1833.4
1860.97
569.859
-449.259
1206.16
-694.327
301.415
-301.415
669.464
-428.055
1045.74
-1637.84
-1158.73
-947.943
294.808
329.844
882.207
713.872
-489.294
-290.319
779.613
1655.72
-1683.29
-434.88
353.408
218.204
1135.32
-523.527
-943.331
1550.47
-607.138
446.804
-242.463
389.116
385.994
-775.11
524.029
473.115
-997.144
-332.249
667.072
-37.7783
1906.88
1592.09
993.01
-1697.08
727.34
-1177.33
449.987
-492.458
1367.95
838.202
-1341.48
-555.471
233.374
789.737
-400.434
554.486
-1186.09
631.604
-640.193
-1215.54
-695.636
1911.18
-197.065
523.77
-326.705
-123.354
271.756
-468.822
323.933
374.91
-698.843
-1479.52
757.07
722.453
884.131
-1434.51
827.118
-431.042
224.548
-367.264
-585.351
230.824
-649.406
-738.705
699.449
505.628
-1205.08
397.608
-204.709
-192.899
556.891
-959.398
-560.462
-446.923
740.637
-831.27
-1155.58
-1437.98
499.616
938.369
36.3329
-626.273
301.985
324.288
-1308.26
1043.98
264.283
-617.191
-456.087
-666.02
922.021
404.333
-208.291
-196.042
508.138
980.746
-1488.88
971.695
-564.202
167.251
396.951
-408.115
655.813
-394.922
-506.267
179.976
234.489
-1516.92
532.033
534.017
-733.224
210.649
162.484
-456.558
372.018
-813.63
1954.16
-1195.39
-758.768
425.577
-653.531
227.954
325.209
313.795
130.531
-444.325
-561.836
197.698
266.812
-691.695
1374.43
-682.735
424.089
459.457
-1183.31
269.377
1866.78
-1013.59
-853.189
785.223
-491.536
159.171
1402.41
-975.22
-427.185
336.602
-764.657
-616.482
1725.45
613.482
621.761
317.028
-2.4866
265.889
-1138.46
1725.72
-587.256
-1763.52
820.185
1753.67
-1685.12
-68.551
-651.909
247.84
585.035
-690.711
202.958
1402.81
-564.611
393.299
434.698
-1858.5
1420.1
505.403
-423.735
-81.668
210.876
-520.146
-304.385
-144.898
-354.597
698.002
-600.051
218.633
603.924
552.507
-1156.43
1113.7
-1947.39
833.691
155.786
303.899
-1698.49
1660.71
317.676
-724.952
-162.209
386.756
750.524
679.576
-1430.1
1073.06
-1075.15
527.326
-1099.16
-633.584
255.962
377.622
501.889
-276.653
-602.211
-1035.62
297.134
-709.596
-912.319
182.718
169.378
228.23
374.796
294.285
-669.081
-625.423
-833.87
-978.394
491.438
-1053.27
-266.721
467.811
534.066
643.323
-280.851
-123.03
-434.307
725.216
270.616
-1196.22
570.798
1305.38
-554.856
441.617
-1002.08
-389.352
127.161
378.242
1023.45
551.519
-1715.37
1609.75
1632.76
-562.967
-1069.79
1902.04
-1890.21
-11.8271
207.241
-551.868
-327.248
543.592
-763.242
-311.403
-340.506
1030.55
694.911
-1499.2
804.289
327.898
-26.1915
1625.21
-1079.01
399.988
-1241.11
454.811
-59.886
1515.98
1197.61
-470.269
-489.635
-74.5663
-232.602
736.002
-1951.54
-712.445
342.528
-532.723
190.195
191.746
-508.822
1139.9
671.537
-1811.44
-566.797
143.062
942.163
-1497.42
-210.496
678.951
-468.454
886.342
1113.66
-734.299
1347.78
603.507
-515.81
-87.6969
-347.997
1169.61
1042.95
-1982.12
939.174
-1168.24
545.241
1488.85
-585.658
-363.759
-134.889
-1238.93
574.814
1163.84
-108.34
946.03
775.381
-1721.41
-218.084
578.396
-1541.77
963.375
486.986
916.747
-1403.73
615.062
589.078
373.229
-1106.66
591.786
1103.41
1216.11
-452.413
-763.696
-1186.2
-1754.95
-7.98643
-1707.39
-185.847
-417.219
1605.35
-625.87
-979.48
-490.883
1121.73
-1315.69
637.42
678.274
-1360.2
1440.13
-1328.05
593.751
1520.56
-397.62
-534.587
170.828
-1483.47
237.724
176.382
190.112
413.394
452.024
384.65
-836.673
506.317
-939.129
901.06
-1444.9
-676.137
214.785
461.352
-1034.73
458.847
-466.993
860.292
695.353
35.7792
-498.978
172.273
-886.565
-1318.74
-717.665
351.738
365.927
407.136
-724.467
317.331
-481.739
-189.392
-709.887
716.714
1539.44
-593.411
810.887
737.261
1344.87
-844.758
-971.468
-570.303
-799.334
427.911
371.423
-1037.27
-645.38
306.455
338.925
-1433.7
-296.782
-792.474
399.736
392.737
-629.906
394.314
235.592
-658.514
263.592
412.796
488.566
390.01
442.099
479.902
384.782
597.263
-970.5
670.501
468.55
454.363
356.739
-811.102
1630.78
-1079.92
-550.856
-504.41
-282.505
-1025.75
455.362
348.011
409.667
594.77
-1004.44
-1378.84
752.968
-535.592
1144.37
343.858
-75.2195
412.22
-866.915
454.695
-1895.27
306.576
442.449
-727.637
285.188
-184.703
408.146
-223.443
-663.716
311.521
352.194
-676.875
322.241
371.163
393.279
613.203
-1021.47
753.896
660.616
-1414.51
438.787
625.905
340.552
393.402
-733.954
410.648
328.718
614.998
685.721
396.238
593.063
-1011.61
418.549
-1673.68
1193.17
480.512
1696.6
-539.173
622.143
-1147.66
525.516
-644.395
348.914
437.314
-936.268
498.954
750.869
-468.007
351.484
346.519
568.05
-902.906
650.451
-1253.67
603.216
370.484
735.149
-1225.06
769.956
509.419
-1279.37
477.748
402.871
-880.619
-501.611
-936.373
-305.905
629.837
352.698
542.465
-895.163
334.425
332.647
-502.176
1944.74
437.646
-847.986
410.34
-917.942
-806.781
-750.783
369.486
-1205.75
433.158
-1728.43
1601.33
127.101
1743.18
-1598.04
-145.14
-786.016
-596.511
268.554
327.957
-1753.67
1972.93
538.291
791.985
-1330.28
440.1
716.64
690.58
385.65
-1076.23
-65.3901
1617.15
-593.704
375.072
831.085
-651.688
327.838
323.851
-378.606
-298.503
553.51
-227.046
436.431
282.593
-669.557
386.964
267.585
-583.155
-284.881
442.502
-1034.19
591.685
538.037
1092.74
366.098
597.382
312.787
353.222
-666.009
1617.52
-922.612
1691.62
-1520.22
-171.407
-328.926
-824.974
415.959
857.633
-1068.13
-610.345
281.963
-1090.62
1628.66
-1582.19
-80.3506
1662.54
-341.791
-350.572
-370.42
535.829
599.488
-504.392
-31.2273
-550.096
510.582
-284.387
-226.194
1743.37
-1294.18
-628.013
301.268
326.745
403.321
357.283
734.861
-298.169
-399.045
-1743.18
1683.29
459.502
-1101.46
641.959
-44.0029
1653.75
571.531
476.483
-1048.01
104.706
1145.07
-1452.21
-16.3517
-1878.92
231.098
-601.649
308.295
293.353
-955.828
612.852
-899.62
469.797
-1129
673.994
455.005
362.317
258.589
-747.883
-333.241
1217.75
887.077
698.949
-1183.15
456.165
726.987
494.27
701.265
-1195.53
-384.334
-248.315
417.693
-961.658
438.445
523.213
21.2641
-1879.76
1079.92
-465.626
-487.705
557.899
-1378.36
820.465
-419.096
796.299
-405.414
496.565
-716.216
1717.19
418.199
-189.968
217.292
-175.328
-246.532
421.86
1895.31
-504.106
-1686.71
1051.99
-604.256
305.753
-1014.67
554.457
-313.778
544.244
905.428
-1449.67
-1104.23
438.213
-20.6386
-1943.96
1713.14
-670.199
-541.053
460.687
-1190.8
730.111
188.795
215.539
-283.077
767.497
701.445
839.145
819.233
-462.494
1085.41
-473.928
483.146
-197.007
-286.14
-1922.39
-714.644
-319.056
-644.41
-6.74548
651.155
471.81
-274.111
560.853
1056.67
-799.947
925.88
1244.57
-425.237
-184.752
-236.282
421.034
951.673
-888.625
-326.643
-1068.5
612.412
1553.41
-796.338
537.587
935.077
-386.121
734.806
-348.686
1130.68
-277.22
346.777
1349.88
-703.714
-222.829
448.291
-1198.86
750.571
-997.604
-113.251
1110.86
442.927
-956.626
513.699
156.242
732.684
483.425
744.855
-98.6408
854.319
-425.698
1182.84
-797.19
552.004
-1465.56
913.555
-1216.66
1800.97
-431.713
-1510.19
879.812
-1402.11
-292.577
-440.217
1457.34
-1521.71
785.473
1491.54
205.425
277.721
-343.782
-1728.43
-294.407
-1008.02
1568.88
-1761.28
1761.28
1560.41
-1004.58
-636.082
-326.027
368.487
605.494
-395.449
-352.748
-1389.93
897.468
1125.17
600.547
1202.97
1789.48
-1216.43
-607.144
274.803
1658.91
-1916.34
257.429
813.908
-1267.42
1545.28
-561.601
769.094
322.961
-330.569
554.551
795.537
666.419
1362.54
-234.209
-444.925
-340.773
498.836
-342.606
471.696
736.89
-284.167
-160.158
-318.659
563.614
-244.955
24.6843
-374.215
1107.5
-1720.28
-434.406
-477.029
-561.469
863.785
689.623
-1596.6
904.904
-451.607
-615.729
-513.344
1252.34
327.126
1723.63
-1702.37
-1655.72
1890.21
-1560.91
840.334
720.572
-364.376
-1794.21
917.606
582.828
819.985
-391.759
1794.22
-680.524
-431.24
687.244
416.681
-1103.93
-1098.46
444.08
753.53
-1617.2
473.178
901.252
181.43
-408.154
226.724
-1594.38
-382.199
-442.882
990.33
-668.129
1443.02
-969.553
1855.9
242.871
-552.53
501.507
-296.082
474.318
893.637
543.022
977.537
-462.703
-428.035
573.828
883.512
-1392.71
-40.9885
1568.15
-830.884
519.949
971.587
-1475.88
-1115.91
1771.29
-1244.36
-526.935
1206.22
-318.912
-887.306
-196.101
459.962
-263.861
-457.517
-251.286
436.678
-185.391
151.157
-399.472
1729.12
-1737.11
-446.981
-530.843
-903.666
450.047
-211.138
-238.909
636.638
-462.757
-387.95
-293.043
680.994
-936.227
390.44
-1167.47
676.59
424.3
-629.105
-445.867
1569.71
-855.838
530.181
-457.776
-571.685
-462.502
367.175
-357.025
-10.1495
-1095.64
401.311
-664.644
-1033.73
1698.38
-593.113
-1422.8
714.279
562.146
-1596.28
1034.14
-375.416
-486.422
136.695
545.072
-1258.59
745.241
539.216
1006.06
-2133.18
999.991
1133.19
-337.428
414.926
-389.834
-25.092
1478.1
-358.758
449.52
1201.46
582.047
906.802
568.498
527.31
-1095.81
171.161
-427.818
-1685.12
260.985
1127.6
-607.726
518.423
1013.84
-1532.27
1092.89
-1643.74
201.786
686.087
538.131
-864.774
-1086.59
-174.178
433.034
-258.856
-587.342
-415.311
-636.935
-630.531
347.453
-1618.37
940.01
-476.696
216.507
-406.476
539.044
-307.945
-599.208
1197.29
-1274.15
930.104
344.051
-1030.45
-343.192
-753.236
-821.335
1685.12
-476.814
1794.66
-1582.84
-211.829
-1556.66
1018.76
537.898
-721.943
-263.668
447.464
-183.796
-584.725
383.69
277.64
-661.33
-523.793
977.269
633.448
-351.485
-1620.3
1050.53
571.751
1103.57
-1675.32
-398.465
-297.504
-366.212
-741.417
-473.179
-331.143
505.159
1558.01
-995.862
-775.725
1497.47
662.859
-309.451
725.881
1152.37
-1878.26
263.346
287.246
-487.04
-1931.12
1719.12
211.995
741.265
-474.556
-266.708
531.818
1060.87
-1592.68
367.175
-1723.74
-233.208
1752.34
-1580.72
1073.8
506.917
-1723.3
-0.439942
-521.54
414.926
1698.49
-1719.12
939.882
624.222
-1564.1
388.383
-221.26
-167.123
-400.702
-257.811
71.3643
95.3848
-359.053
-434.426
-433.858
-410.957
226.253
1510.28
378.774
-200.375
-429.531
467.64
-200.827
306.33
1510.8
993.395
-162.33
-831.065
-1104.13
1704.8
-1728.73
1064.08
-707.045
-1021.68
-1265.09
1844.99
-579.898
1155.08
-1771.11
616.031
273.287
-878.38
1675.62
43.462
-1719.08
-491.157
-1083.09
-1729.12
-982.953
554.918
1019.65
590.205
1133.06
-1723.27
286.025
-459.35
706.498
-384.257
367.96
925.144
680.221
-371.217
-640.395
582.875
1072.59
-1655.47
-396.359
-373.02
769.379
388.135
-1660.71
1520.22
140.491
585.342
-1044.86
544.742
1083.92
-1555.72
994.116
-241.2
237.585
306.007
1902.04
396.589
-79.3002
995.867
722.754
-1718.62
-697.535
1085.38
-1557.54
170.574
-572.254
200.701
266.939
-653.498
-552.25
582.44
1034.71
-711.308
-245.12
-1368.82
676.655
692.162
-420.499
760.275
73.9573
-834.232
561.535
-137.139
1557.24
-222.162
259.753
-768.746
-1931.12
1664.64
1034.23
357.037
281.823
469.047
-930.278
-992.111
-1767.27
639.652
1693.78
512.113
-474.17
1211.06
1087.18
-424.976
1030.47
-979.71
495.505
484.205
699.992
1047.98
-1747.97
488.067
479.932
-1494.06
-747.907
30.8894
782.334
-412.848
-878.178
390.473
-538.39
-803.085
615.178
-576.98
1397.45
1055.14
197.111
235.923
-550.601
1618.54
-771.427
1525.32
-1727.84
575.235
1152.6
546.724
-884.291
-1732.62
1916.34
-183.72
1721.75
185.85
-543.039
371.228
-275.844
-481.335
1211.45
568.271
1128.33
-491.381
434.723
860.004
-464.758
-773.35
421.174
352.176
1418.59
1089.64
-518.146
1423.05
-510.694
-533.567
1044.26
-602.733
477.271
-1208
1691.62
1839.58
-687.208
1585.53
-645.651
-1241.63
717.839
-562.322
205.932
-397.331
459.683
-247.189
-520.953
-1246.71
1870.94
-624.226
1173.55
-551.407
1120.3
-1659.47
1689.65
-573.919
-544.443
-549.805
1720.07
-317.42
-688.018
-473.284
1223.85
-1681.17
-1860.1
613.387
307.672
-941.89
172.817
217.12
-1719.03
1204.16
514.867
1162.86
558.888
-511.015
-465.37
1192.36
176.886
231.26
588.443
1251.14
-539.172
-1238.59
1777.76
-1025.48
999.992
866.791
-204.144
-1658.91
1702.37
-510.04
1411.29
-1732.62
-353.993
9.59219
344.401
-269.623
586.626
-317.004
80.3845
493.73
782.887
-375.751
1257.53
1270.99
-413.356
853.735
-437.776
1817.42
-662.336
1586.49
-1723.63
-412.775
-740.657
324.235
416.422
-559.136
-563.195
79.7307
-1138.81
-985.622
-669.46
1655.08
-943.709
-1189.48
196.794
-412.044
-648.837
705.57
1167.45
649.962
1410.37
-590.389
1636.76
1318.2
-572.955
-497.095
201.013
-503.266
1396.9
1240.28
-563.621
-999.991
894.603
52.6452
-947.248
603.451
-506.109
1403.58
1495.1
-588.296
-371.8
371.8
-589.37
1623.51
1239.7
-486.171
1134.17
-72.1844
1852.58
-400.175
1489.5
-588.444
-507.671
1348.01
-653.713
1218.76
-565.049
1554.82
-591.443
746.952
569.175
-1316.13
-662.325
260.69
496.521
599.911
-1957.3
-977.133
1586.49
373.808
-373.808
-75.0657
390.697
436.421
334.295
48.3551
-329.156
905.234
-534.75
-425.347
816.044
-246.28
623.901
-434.551
1547.08
-444.34
-884.148
191.646
227.889
-419.535
601.166
1250.78
-1851.95
928.291
-458.494
-357.025
126.154
-1943.01
1816.85
-453.768
190.298
1181.38
-440.448
-740.934
-305.852
-572.326
-490.926
-389.834
-484.567
258.373
1158.63
-559.146
230.447
-387.391
156.944
-22.6592
-107.675
1376.06
-1268.38
34.544
-599.052
-586.358
-454.893
454.893
-1262.36
1985.12
-1344.41
-211.959
-1824.92
242.086
-1025.76
-974.242
-189.565
-1637
706.725
1229.32
-1924.95
372.92
310.264
-683.184
-1850.01
1234.27
615.737
-562.562
562.562
-959.291
-39.9672
-1866.03
-558.132
1650.87
-677.973
1636.18
-601.464
-173.677
-1705.24
-588.071
-458.835
-594.776
-468.68
468.68
-1537.81
194.524
1343.28
177.255
227.695
-404.95
494.669
498.726
997.962
-474.749
1751.3
768.198
-425.778
400.686
519.837
1702.05
-594.553
-552.956
1636.87
475.504
1812.71
-645.26
-1803.78
-1938.08
-646.899
-480.665
480.665
-569.053
228.28
-695.649
1020.2
-465.745
-1070.67
-281.582
1579.58
1852.31
1635.33
-1635.33
-294.073
738.159
1761.48
595.781
1275.16
177.106
211.277
575.417
597.465
1603.52
-1603.52
225.266
-351.547
-432.986
464.05
952.433
-456.928
-640.108
-1131.03
1706.27
282.875
-1651.44
607.578
-289.855
475.705
1744.64
-592.043
-217.366
-431.916
380.333
723.077
1738.57
-613.397
-511.756
-781.653
1960.53
-870.45
-1090.08
1642.81
-706.823
1223.98
-1824.94
600.962
332.696
-885.225
-186.11
-107.222
1098.82
-486.405
118.286
614.729
-1650.35
441.196
588.38
-1803.78
-583.269
1787.43
884.653
-1162.94
1760.49
-597.55
1783.84
-575.518
-1208.32
433.95
931.787
-1737.11
924.87
-1496.63
265.114
1231.52
-830.784
-1254.23
-382.866
76.7369
306.129
581.707
272.417
1023.66
-447.382
847.883
-400.501
821.541
737.388
-1558.93
643.539
1066.22
-24.3048
-663.912
688.217
-1744.26
722.582
695.978
150.584
-1122.72
1936.75
-674.544
-1262.21
-537.174
1665.51
826.85
962.46
-1789.31
1227.87
683.308
-400.826
712.347
845.716
1029.17
-586.247
1761.48
627.015
1773.56
-1185.63
-587.929
-409.751
-308.174
717.926
121.445
-1185.74
1660.56
-540.263
-1437.83
1437.83
1250.58
594.412
1351.62
206.386
-574.416
283.739
-196.43
699.045
1113.67
486.141
-309.255
-870.556
-574.344
1737.55
-1737.55
995.333
-995.333
987.329
1025.17
-2012.5
1837.94
-613.961
-581.102
822.416
-947.847
-1052.16
998.442
690.274
-1688.72
-518.071
-347.623
-652.974
-808.418
2042.69
-1246.43
-613.673
1002.97
974.848
1289.77
646.981
327.892
1012.69
241.36
335.505
1186.27
1756.87
-1756.87
672.145
80.017
-390.116
-997.051
-539.99
1674.16
988.56
1011.44
-1833.27
-226.108