/*--------------------------------*- C++ -*----------------------------------*\
  =========                 |
  \\      /  F ield         | OpenFOAM: The Open Source CFD Toolbox
   \\    /   O peration     | Website:  https://openfoam.org
    \\  /    A nd           | Version:  7
     \\/     M anipulation  |
\*---------------------------------------------------------------------------*/
FoamFile
{
    version     2.0;
    format      ascii;
    class       volScalarField;
    location    "27.5";
    object      p;
}
// * * * * * * * * * * * * * * * * * * * * * * * * * * * * * * * * * * * * * //

dimensions      [0 2 -2 0 0 0 0];

internalField   nonuniform List<scalar> 
7807
(
0.249473
-0.0179292
0.362591
0.227766
-0.000831069
-6.54019e-06
0.356364
-0.00464718
-9.20527e-05
0.0888228
-6.37942e-06
0.00163765
-0.00710093
0.0410997
0.0927796
-0.0148909
0.2614
-0.00956654
-0.00161133
-0.0917057
0.0559793
0.000997171
0.0287772
0.176696
-0.012558
0.257977
-0.000773186
0.0519586
0.147421
-0.000421775
-0.018414
0.490916
0.0281228
-0.000366981
-2.96889e-05
0.07161
-0.000262301
0.34536
-0.00626773
-0.000163859
-0.00604273
-0.0140282
-0.101532
-0.0727886
-7.36691e-05
-2.24826e-05
0.000976343
-0.00627953
-2.2914e-05
-0.0914003
0.00270199
0.0489419
-0.0158941
-0.0139926
0.0707643
-0.00446264
-0.0013907
-0.00448545
-0.0271507
-0.00036044
1.05486e-05
0.00363207
0.0414315
0.00186394
-0.000564059
-0.018527
-7.81125e-05
5.04526e-07
0.0712394
-0.00590198
-2.02809e-05
-0.0625548
-0.0122122
-0.0210205
-0.00931011
-0.0390958
0.358452
0.0547547
0.0419446
-0.0595573
-0.00687949
0.306041
0.0843584
-0.0238506
-0.00173176
-0.00162379
-0.00521131
-0.0155309
-0.000725871
-0.00331614
0.150934
-0.0816852
-5.55108e-05
-0.000864624
-0.00290069
-0.0195238
-0.0597102
-0.0111721
-0.00181587
-0.00071287
-0.0386613
0.0502273
-0.00278924
-1.51695e-06
-0.0706679
0.155885
0.416102
-0.00466752
1.02916e-07
0.0232835
0.214126
-0.0699599
-3.11195e-07
0.0250108
0.155986
0.000183548
-0.091214
0.123298
-0.0455394
-0.0225091
-0.0376139
0.291261
-0.0966941
0.00826719
-0.0364531
-0.0010153
-0.0158432
-0.000372279
-0.000598233
-0.0183507
-0.136622
0.0427593
-0.000493015
-0.000818051
-0.0244797
0.206486
0.350637
-1.18909e-06
0.00692457
-0.0507412
-0.019356
-0.0601666
-0.0406387
-0.0202133
0.415602
-0.0328968
0.148544
-0.0285755
-0.0257698
0.290841
0.0679903
-0.0703836
-0.00166013
0.0500117
0.0839757
0.322781
-0.0461893
-0.00680012
0.425836
-1.95571e-05
-0.00161368
0.183338
-5.67837e-06
-0.00314137
-0.00325159
0.227905
0.228433
0.443629
-0.00330451
-0.00234114
6.57196e-07
-0.033359
0.000182188
-0.0108716
0.00764081
-0.0254708
-0.0476126
0.132814
-6.12956e-05
-0.000456271
0.233442
-1.54349e-05
-3.1739e-05
0.361179
-0.0233735
-0.056622
-0.0433519
-0.0209124
-0.0358748
-0.0513359
-5.64839e-06
-0.0570993
0.139483
-0.00292668
2.2345e-05
0.178975
-0.000887591
-0.0172758
-0.0334604
1.23197e-06
0.00031538
0.211624
0.1695
0.320154
-0.0842998
-0.0648048
-0.148275
0.057117
0.208111
-8.03075e-05
9.41889e-06
0.390199
-0.0127151
-0.000487124
-0.055094
-0.0166694
0.294346
0.299223
-0.0650748
0.4772
-0.000831417
-0.00916132
-0.039223
0.0696824
-0.126091
0.218107
0.420811
1.03977e-05
0.00897427
0.131977
-0.0053909
0.120453
-0.000683772
0.478585
0.314423
-0.00500045
0.000519081
-0.000151323
0.132993
-2.55902e-05
-0.00947177
-0.0531642
-2.44279e-05
-0.00182209
-0.000588337
0.14093
-7.17556e-06
-0.00343715
-0.0585184
0.486042
0.0344422
0.44895
-8.16173e-06
-0.0356968
-0.000166962
0.337429
0.00345176
0.35179
-0.00144501
0.000160801
-0.00890539
0.0600778
0.000318784
-0.000104696
0.000257655
-0.00572853
-0.058791
-7.88328e-06
-0.0444842
-0.0031154
-6.1055e-05
-0.000536842
0.344438
-0.00635573
-0.000439021
0.440546
-0.00188577
0.235363
-0.000172348
-0.00750447
1.74402e-06
-0.0387209
0.0665381
-0.0378928
-0.0281487
-0.000400113
-0.0778794
-0.0130951
-6.33106e-05
0.000247466
-0.00284542
-0.00650797
0.00238125
-0.00146686
-0.0228739
-0.0533497
-0.0216366
-0.058976
-0.0273474
0.319388
0.332267
-0.00124912
-0.0711063
-3.41833e-07
-0.00333283
-0.0194143
0.171813
0.0957525
3.30887e-05
-0.00308517
-0.0266489
0.148573
-0.00103187
0.00303535
0.000774348
0.0326512
-0.152728
0.313439
-0.00115181
-0.0213233
-5.71141e-05
0.00238396
-1.48052e-05
-0.0245705
-0.000179676
-0.0029208
-0.102714
-0.0373851
-0.00568362
0.00799198
-0.000421194
0.0177411
-0.0143823
0.0634997
0.143741
-0.188813
-0.0806313
-0.0133988
0.00432134
-0.0525131
0.451352
-0.0703801
0.0333823
0.468704
-0.00111407
-0.00152953
-0.0810617
-0.00140225
-0.0291847
0.00592537
-0.00215381
-0.00152607
0.140138
-6.0792e-05
0.00030143
2.3904e-05
-0.00267472
-0.0096762
-6.63516e-07
-0.000746348
-0.0259816
0.396522
-0.00547338
-0.0122087
0.394186
0.259627
0.0516812
-0.0580171
-0.0336626
0.00402695
0.221076
-0.00962055
0.26895
-0.0406194
-0.114959
0.171628
0.272444
-0.0402098
0.0889856
0.216821
0.246183
0.0553591
-0.0028002
-0.00413182
-3.27578e-05
-0.00749213
-0.0097703
0.000320434
-4.03107e-05
-0.00133853
-0.0762892
0.0697553
-0.0165353
-0.00677955
-0.00315375
-0.0232337
-0.00626664
-0.000239175
0.188177
-0.00137139
-1.37637e-05
-6.26298e-05
4.24403e-06
-0.020399
0.135742
-0.00336565
0.0308467
-0.13818
0.336345
0.00140208
0.00598333
-0.00501384
0.333139
-0.000679931
0.310818
0.151894
-4.39534e-05
-0.0428661
-0.00262994
-0.05897
0.000317026
0.0602402
-0.00164807
0.00547424
-0.000560166
0.127375
0.151365
-0.0634727
-0.0275526
-0.00304725
-0.0336338
0.0470375
0.481856
-0.0826321
0.00267866
-7.63005e-08
-0.012895
-0.00172995
0.0155315
-0.109698
-0.0842311
0.355607
0.136804
-0.134993
0.189169
0.323309
0.0320836
0.000539466
0.234158
-0.00124013
-0.000126183
-0.0136332
3.04554e-05
-0.162985
-0.00648722
-0.0357059
0.00131068
0.183147
-0.00135384
-1.225e-05
-0.121149
0.00118305
0.0122257
-0.0378198
-0.0458183
-0.0286468
0.133326
0.107984
0.111195
-9.78025e-05
0.0608828
0.0710347
-0.000500914
-0.0161432
0.000349306
-0.000743235
-0.0136499
0.0041652
-0.000897137
0.125581
-6.9329e-06
8.36891e-05
0.00144699
-0.0189636
0.0208698
-0.0320097
-0.0231525
-0.0537263
-0.143135
-0.00467286
0.227179
-0.0868405
-0.00625489
0.478956
-0.0599485
-0.010189
-0.0229452
-0.0125272
-0.01708
-0.00983205
0.0290878
-0.0777011
-1.44059e-05
0.0249082
-3.58305e-05
0.316579
0.0815323
-0.00449596
-0.0112347
-8.88653e-05
0.306158
0.293579
0.0422252
0.138557
-0.0651597
0.3567
-5.37522e-05
0.00789479
-0.014339
0.138744
0.432546
0.032817
0.130456
-0.00579012
-0.000106807
0.122248
-0.114941
0.320648
0.0147011
0.196217
-0.00652575
0.339519
0.278772
-0.00852661
-0.00726452
0.0970212
-0.0470452
-6.99641e-05
-0.0125322
-0.0500754
-0.0750574
0.0111836
0.00839676
-0.000101634
0.29796
-0.00448461
-5.00503e-05
-0.0485088
-0.000402703
-0.000115109
-4.28497e-05
0.199756
-0.106793
0.407472
2.01408e-05
0.198482
-0.0391466
-7.43194e-05
4.73653e-06
0.145139
0.190917
-0.00394646
0.170807
6.86482e-06
0.181146
-0.180929
-0.00883167
0.3357
-0.052065
0.12907
-0.0214075
0.179681
0.188678
-0.0164847
-0.0209668
-0.00870433
-0.00231281
-0.000140743
-0.00438098
0.253273
-1.25004e-05
0.173104
-0.106368
0.283401
0.163559
-0.0500606
0.406571
-0.00145763
-0.00465948
-0.0713319
-0.0172539
-0.00628085
-0.0423166
0.0217439
0.454544
1.25304e-05
-0.00170915
-0.0665263
1.20322e-06
0.324765
0.00122513
8.22972e-07
7.76665e-05
0.000192672
-0.022972
0.014948
-0.00130437
-2.56439e-05
-0.0065395
-0.00142623
-0.117108
-0.041848
0.0216891
-1.85811e-06
-0.176812
-0.0116673
0.103057
0.27441
0.000147496
0.109282
5.67993e-05
-0.0112888
0.0796513
-0.00651966
0.217082
-0.0126897
0.0113502
0.0828698
0.134172
-7.39105e-05
-0.00950008
0.163403
-0.0876118
0.345323
-0.00896113
0.248201
-0.00861993
-0.000868312
0.123307
-0.0106167
0.0765146
0.00128412
7.24133e-07
-0.132415
0.181465
0.000475291
0.0978896
-0.0119865
-0.177258
-0.0163453
-0.0335197
-0.00143579
-0.00673735
-0.0725627
-0.025139
-0.00893176
-0.000180829
0.365943
0.1036
0.0301814
-0.00012303
0.275418
-1.20971e-06
-0.000110088
0.113527
-0.00777429
0.154635
0.05089
0.0150309
-0.0684297
-0.143686
-0.0317817
0.000811361
-0.0373848
-1.49714e-05
0.000630287
0.208982
-0.015693
-0.00246348
-0.0254169
-0.00166824
-0.000532889
0.437736
-0.00952823
-0.000512316
5.23991e-07
0.120128
-0.0347719
-0.000320359
-0.00219557
0.140594
0.0710956
-0.0384006
-8.65577e-07
0.155639
-0.0199472
0.172742
0.0167326
0.0212724
-0.0274922
-4.5508e-05
0.0807129
0.062664
0.00420792
-0.0994713
0.251786
0.00524336
0.15918
-0.00726991
-0.0458397
-0.000234772
-0.00821509
-0.000150006
0.141991
0.232047
-0.00135019
0.0172254
-0.0152613
-0.0837899
-0.0913502
-0.00148716
0.00612782
0.425372
-0.0148714
-5.66039e-05
0.0703273
-0.00620253
0.366216
-0.011506
-0.0210849
-0.0177728
-0.023414
-0.0142922
-0.00700264
-0.00799956
-0.000229869
0.0143662
3.55534e-05
-0.170203
-0.041239
0.314511
-0.0369354
0.160211
0.00141927
-0.0717099
-0.0278677
0.182248
-0.00697389
2.19034e-05
-0.0200623
-0.00783861
0.00955776
-0.0230785
-0.0215686
-0.045553
-0.012104
-0.0216933
-0.0817372
1.0033e-06
0.0290027
-0.0710722
0.134405
-0.0791845
0.0761231
-0.100274
0.288687
-0.0106879
-0.0280702
-0.0345757
0.38241
-0.143533
-0.0118469
-0.130807
-0.0565973
-0.122145
-0.0762059
0.153816
-0.00254599
0.215301
0.00799205
-0.000362545
-0.00154907
0.0599825
0.476747
-0.000804507
-0.0410715
0.147791
5.87091e-06
-0.020066
0.0276469
-0.023395
0.00814842
-0.00180263
-0.04087
-0.00540663
7.35954e-06
-0.0500608
0.227016
-0.0104903
-0.0147115
0.00130788
0.147649
-0.000392199
-0.000987069
-0.000219349
-0.00115424
0.0213941
-0.0137573
-0.00331089
-0.0169053
9.95699e-06
-0.13669
-0.10185
-0.154575
-0.0275975
0.0133122
-0.000114021
-0.0148676
-0.0587222
0.00243029
0.284202
-0.00190315
-0.0531698
-0.00462048
-0.00697259
0.131434
0.000219405
-0.000123151
0.106254
-0.0122183
0.0111674
-0.00274956
-0.00150398
-0.0564743
-0.000175905
-0.0142823
-0.0102066
0.244095
0.227123
-0.0638866
-0.0701209
0.00635668
-0.00512843
-0.0253665
-0.0805078
-0.0307813
-4.76541e-07
-0.0295999
-0.0200763
-0.0883128
-0.00726693
-0.0368705
-0.000285977
-0.00259568
0.165168
-0.0264813
-5.371e-07
-0.00212237
-0.130699
-7.29845e-05
-0.0368765
-4.54508e-05
-0.000303329
-0.113589
-0.0626133
-3.29714e-05
8.20382e-06
0.103171
-0.0621988
0.306402
0.237817
-0.0327211
-0.000977919
-0.0273688
9.01466e-05
-0.136186
-0.113427
-0.0379314
-0.0150391
0.231515
0.000647079
6.44797e-05
-0.00264128
-0.146204
0.00135509
-0.0438292
-0.0574061
-0.00825068
0.0143491
0.054902
-0.00104918
-0.0241184
-0.0938363
0.154825
-0.0513269
-1.48757e-09
-0.129451
-0.0510248
-0.0600707
-0.00158674
0.000422582
-0.00313663
-0.11827
0.0223837
-0.0222335
0.107118
-0.0691671
0.000485417
0.0117516
-0.00130184
-0.023738
-0.147102
-0.000136322
0.118863
0.170541
0.00482494
0.18562
-0.0927608
0.0339699
-0.0630024
0.163584
0.0800053
0.455507
7.61031e-07
0.0781622
0.14477
0.0101181
-0.000920586
-0.0108779
-0.0444315
7.93057e-06
-0.0130762
-0.0622207
-0.0117716
-0.0155024
4.51152e-05
-0.118184
-0.000307516
-0.000388966
0.195051
0.00106644
0.0457959
0.0118678
0.168282
0.00217728
-0.000447284
-0.135566
0.00172703
0.295023
0.000570569
-0.0636194
-0.00023732
-0.000275916
-0.000997396
-0.0788148
-1.5897e-05
-0.00604626
0.0178295
-0.000881488
7.53333e-06
-4.12935e-05
0.122369
-0.0627022
0.00240242
-0.000524437
0.00346842
0.0106018
0.00280303
-0.000260654
0.307596
-0.121625
0.179709
0.263656
-7.01742e-05
0.0350912
0.0852597
-0.000446465
-0.000184431
-0.000528416
-0.0335168
0.000445712
-0.0239454
-0.0304396
-0.0727703
0.137953
-0.126943
2.12349e-06
-0.0144024
-0.0188714
-0.0234313
-0.00245165
0.00198955
0.000545859
0.019303
-0.000219021
-0.000259121
-0.0142992
-0.00290982
-0.0185915
-1.17363e-06
-0.0108912
0.0235228
-0.0481549
-0.0547467
-0.00585608
-0.00810016
-0.00588173
-0.00330001
-0.00568873
-0.00575849
-4.3192e-05
-0.000337642
0.013626
-0.00802857
-0.00329947
0.00375645
-0.00336087
-0.154892
-0.00804768
0.125469
-0.00788947
-0.0496531
-0.0271314
-0.0171734
-0.0108781
-0.00230909
0.000470967
-0.00228415
-0.00865764
-0.0107059
0.158897
0.120029
0.0314856
0.274659
-1.81889e-05
-0.00395937
-0.0103829
-0.00580119
0.0668567
-0.0143157
0.0273832
-0.00488655
0.175522
-0.00136954
-0.00124395
-0.00273435
-0.0300294
-0.00013417
-0.0284391
-0.00366795
-0.0141232
-4.9112e-06
-0.00406872
0.00089027
-0.0131565
0.0168978
0.0267742
0.0132814
-0.00988258
-0.0235143
0.0920581
-0.00108518
-0.00114808
-0.00116363
0.395798
-0.000110845
0.0511288
-0.0137833
-0.0151981
-0.0167741
-0.0451403
-0.0192306
-0.025134
-0.0150856
-0.00323699
-3.79877e-05
-0.00259625
-0.0138933
0.078162
0.000787951
0.127333
-0.0245086
-0.00985013
-0.000414761
-0.0218782
-3.63112e-05
0.118349
-0.0229041
-0.0195294
-0.0180782
-0.00500426
-0.030199
-0.000834577
-0.0299095
0.0806073
-0.0183638
-0.0886778
-0.000751136
-0.01913
-0.0139236
0.0103788
-0.00221047
0.113579
-0.00131499
-0.0116689
-0.000497208
0.128326
-0.0288174
-0.0179933
-0.00181786
-0.00719302
-0.00189867
0.158207
-0.0153877
0.177383
-0.00509561
-0.000651081
-0.000647629
-0.0016185
0.151049
-0.0502433
-0.0051171
0.000108309
-0.0125333
-0.0265393
-0.000895256
-0.025145
-0.0115555
0.0442223
-0.00316242
-0.00348309
0.365517
-0.0485422
-0.0174453
-0.046155
6.6096e-06
0.0591537
-0.00219908
-0.0174663
-0.00407733
-0.0260217
0.000488014
-0.000329107
-0.00164564
0.00171662
0.161153
-0.00346079
-0.00111145
-0.00313841
-0.0539472
-0.00562741
-0.0140553
0.00124212
-0.0055753
-0.00527947
-0.00215115
0.164824
-0.0342729
0.0016106
-0.0024233
-0.0185501
-0.00849379
-0.0359706
-0.0011088
0.0717617
0.0151103
-0.00561171
-0.00124858
-0.0104629
0.416166
0.162284
-0.00776857
-0.000257523
-0.00158908
-0.01076
-0.00282111
0.0138113
-0.000288095
-0.0257609
-0.00109894
-0.0107851
-0.113721
-0.000950638
-0.015242
-0.000743358
0.259885
-0.00535243
-0.00762185
-0.0551699
-0.000939299
-0.0195717
0.0364728
0.366433
-0.00777491
-0.00857901
-0.0010934
-0.000404313
-2.00486e-06
-5.75555e-07
-0.00727727
-0.000404965
0.0854195
-0.000569139
-0.00107879
0.00393685
-0.000104379
-0.0331856
-0.0755941
0.0118474
0.0297792
0.0189878
0.019718
-0.0657849
0.0707092
0.0544592
0.0759211
0.0975924
-0.00831961
-0.000533001
-0.00652096
-0.0844791
-0.00204856
-0.0104018
0.00256617
0.287197
-0.0659886
-0.000230811
-2.96415e-05
-0.000709522
-1.22167e-06
0.000808788
-0.000433955
-0.00534006
-0.034931
0.000194115
0.00115328
-9.83025e-05
0.0430535
-0.0100923
-0.0699975
-0.00113922
0.260636
0.245807
-0.00767721
-0.104247
-0.0196553
-0.0155033
-0.0104973
-0.00123465
-0.0976328
-0.0488803
-0.0384848
-0.101343
-5.47083e-05
0.156446
-0.0321298
-0.00599969
-0.0463389
0.0121259
-0.000298849
-0.00620834
-0.000710458
0.00285114
-0.00160665
0.137736
0.000112964
0.00634295
-0.000166337
-0.126693
0.00527878
-0.000897217
-0.00916569
8.75755e-05
-0.00885005
0.0919178
-0.0050425
-0.000843224
-4.80765e-05
-0.000331581
-0.00026181
-0.0452035
0.0995012
-0.0173771
-9.59442e-05
0.00208142
-0.000292841
0.184307
-0.0469754
0.212815
-0.0325825
-0.000196937
-0.000236843
-0.00549237
-0.00354019
-0.000522267
-1.72744e-06
0.0161733
0.0199488
-9.26315e-05
-0.000309655
-0.0136669
-1.73532e-06
0.135262
-0.00063678
-0.0390377
-0.0138564
-0.00391592
-0.0423807
-0.0520262
0.121584
-0.0386318
-0.0133049
-0.000129047
-0.0408
-0.0131371
-0.0219464
0.0756165
0.291218
-0.000564997
-0.0444969
0.0014667
0.261953
0.0282041
-3.98297e-05
-0.00438654
-0.00247956
-0.00348243
-0.0268626
0.0674577
6.2652e-07
0.0022177
0.000398208
0.053016
-0.000254939
-0.000101051
-0.118081
0.238202
-0.0398483
0.119229
-0.00148634
-8.77385e-05
-2.19524e-07
-0.119707
-0.0233238
-0.000250262
0.080069
0.00717314
-0.0036822
0.323537
-0.000408442
-0.00291325
-0.0484039
-0.0457289
-0.0012587
0.108068
-0.0864541
-4.92554e-05
-0.000331368
-0.000134145
-4.4042e-05
0.112018
-0.0145095
-0.000184179
-0.0335476
-0.0178332
-0.00191095
-0.0531341
0.00115349
-0.0143963
0.000564099
-0.00238963
-0.0495835
-0.0282983
0.000773461
-0.00065373
0.126242
0.168129
-0.130979
0.00316471
0.0125711
-0.00304182
0.134245
0.0827241
-0.0177467
-7.04958e-05
0.0039607
-0.0326781
-0.00242268
-0.0241606
-0.00148995
0.0242681
-0.0213183
-4.00327e-05
-3.77974e-05
-0.0619876
-0.0286895
-0.0168996
0.00438952
-0.0247383
-0.0359753
-0.000107533
-0.00119243
-0.000141371
-0.0388002
-4.46187e-06
-0.00121101
-0.0659327
-0.132448
0.0867199
-0.00205729
0.00224137
-0.0179283
-0.0174759
-5.59589e-05
-0.0263035
0.0816676
0.12671
4.00471e-06
-3.18826e-05
0.129246
-0.00175714
-0.114935
-0.022625
0.00176855
2.9825e-06
-0.0418822
-0.0531831
0.132629
-0.0330943
-0.000816048
-0.014995
-0.0507162
-0.000361635
-8.6866e-05
-0.000600735
-0.0431401
-0.0346905
0.115062
-8.44681e-05
0.385326
-0.0524956
8.57559e-06
-0.000976719
3.19215e-05
4.09248e-05
-4.18394e-06
2.28252e-05
-0.0345815
-0.000543171
0.000144486
-7.08051e-05
0.113009
-0.00371991
-7.47439e-05
-2.98968e-05
0.31347
-0.0166347
-0.0704854
0.000269216
-0.000445382
0.0381032
-4.94407e-05
-0.0178391
-0.166263
0.00105366
-0.00750706
-3.17202e-05
-9.92487e-05
-0.0252011
-0.0869884
0.00432056
-0.152271
-0.0916704
-4.08084e-06
0.015006
0.0240642
0.0865756
-0.00095059
-6.00183e-05
-0.0445483
-0.00397568
-0.000443418
-0.0337747
-5.45181e-05
0.0213755
-0.000100591
-0.000612067
-0.0312174
-0.00246089
-0.0414091
0.371696
-0.00134096
7.9718e-05
-0.053135
-0.0672927
0.00446705
0.00260733
-4.60977e-05
-0.022398
-3.8529e-05
0.159174
0.440904
0.0521149
0.00155668
0.00179836
-5.06793e-06
-0.0233307
-3.20134e-05
-0.0115276
-0.00113346
7.87899e-05
-0.00195672
-0.0104769
-3.67387e-05
0.000308215
-0.0116268
-0.000135562
-0.0102871
-0.012671
-0.0223401
-0.00126425
0.399919
-0.000754918
0.00119947
6.75714e-05
0.00919543
-0.0320777
0.00573898
-7.92171e-05
-2.95153e-05
0.000787298
-4.96136e-05
-2.15364e-05
-0.0124215
0.000260605
-3.63623e-06
-0.0379359
-0.00270563
-0.0343006
-0.00102961
-1.5729e-05
-0.00173067
-0.020702
-0.0142055
-0.0317103
0.00113129
0.000143012
-0.000267874
-0.00093384
-4.25215e-05
0.229874
0.000700916
-3.58914e-06
7.61897e-05
-0.00149531
-0.000340054
-0.0383264
-0.0351488
-0.00011246
-0.00497024
8.88707e-07
-0.0033866
-2.01165e-05
0.0262837
-6.28904e-05
-0.000148808
-0.00425582
-1.13743e-05
0.00886418
-0.000110141
-0.000696451
0.0130564
4.32896e-07
0.311864
-0.0410283
-0.0313543
-8.67687e-06
-3.03786e-06
0.000652628
-0.000610059
-0.0476087
-2.9903e-06
-1.13943e-06
0.000236369
-2.486e-07
0.000118619
0.00015249
-0.000240757
0.000301277
-0.0355378
0.395933
-0.0404346
0.285845
0.00559248
-0.0176869
-3.8252e-06
-0.000395104
-0.00941143
2.63969e-05
8.3675e-05
4.07421e-05
0.038306
-0.0016229
-0.000198645
0.363838
-0.000197139
0.000111656
0.000174388
-4.96229e-07
0.00792993
-0.00162443
0.000471474
2.17277e-05
-0.000735589
-1.3604e-05
-0.00124456
-0.0341272
-0.000182761
-0.00207935
1.93595e-07
-0.0032718
-8.62873e-05
0.155956
-0.000211868
-0.000333824
-0.0386562
0.00199089
-8.27244e-05
-0.00078318
-1.16025e-05
0.141714
-0.0544983
-0.000428998
-0.000155265
-0.00265863
-0.000192675
0.0418618
0.0895659
0.00542524
5.57236e-05
-8.49519e-07
6.46872e-08
0.0359784
7.1579e-05
-0.0330258
-0.0350477
-0.0139893
-0.0532707
0.412417
0.000917294
0.165072
-0.0131969
-0.0231944
0.144273
-0.000128441
-0.0478537
-2.73918e-06
-0.00682758
-0.0277197
1.10894e-05
-0.0552389
-0.00045603
-0.0231285
-0.00665012
-0.0239735
-0.0304423
-0.00432301
-0.0549799
-0.0250785
-3.95613e-05
-0.00703873
-4.59275e-05
-0.0219079
-3.16058e-06
-4.77026e-05
-0.000987745
0.136567
3.93682e-08
-0.0353415
0.00171533
1.46239e-05
-0.0213965
-7.83317e-08
-0.00773837
-0.000194209
-0.0221817
2.82184e-05
-3.3767e-05
-0.00200565
-7.94149e-05
0.133025
-0.0237756
0.0510117
-2.41472e-05
0.000227508
-0.0184949
-1.25456e-07
-0.0431176
-0.0459493
-0.0357448
0.39135
-0.00482678
-2.55964e-06
0.0177455
-0.0247423
-0.00313923
-4.27185e-05
-2.85759e-05
-0.033039
2.33869e-05
0.000337887
-4.35015e-08
2.75747e-05
-0.0164499
0.0919245
-0.095709
0.0767991
-0.00383825
8.8851e-08
0.00155202
-0.0580875
-1.34535e-06
-2.53576e-06
9.81151e-05
1.35605e-05
0.000133466
0.206177
0.0252588
1.1505e-05
6.89611e-07
-0.0428446
0.168662
0.148397
-2.40524e-06
-0.0272112
-0.0201353
-0.0114476
-0.0316717
-0.00959313
-0.00185706
0.117334
-2.37172e-05
-0.0202971
0.140962
-0.0372898
-1.6986e-05
-0.0383361
-6.83047e-05
0.262343
0.0172777
-2.29075e-05
-1.02494e-05
0.156519
1.14916e-07
-8.92916e-05
-0.00706883
-1.17751e-06
0.215223
0.000440304
-0.0043856
-0.0388022
-0.00263436
-0.092322
0.154071
-0.0226224
-0.058609
0.000399479
-7.21368e-06
-0.000863848
-1.16893e-05
-8.01911e-06
0.00720852
0.151514
0.125045
-0.000265562
0.206636
-0.016915
-7.29367e-08
-0.0267351
-1.51599e-05
-0.0221179
0.0184813
-0.0153833
0.00193849
0.000846471
-0.00564807
1.7079e-05
-0.00114286
0.0104073
-0.00144538
-3.35679e-05
5.14771e-06
-1.44373e-05
0.0230342
8.57926e-06
-0.0253845
0.217407
-0.00496326
1.03289e-05
-0.00204543
-8.28644e-06
0.0516153
-0.000112196
-1.82514e-05
-1.09506e-05
-3.39453e-06
0.176795
-9.82049e-05
0.205446
-0.0559537
1.97054e-05
-0.0475008
-0.000575446
0.130973
0.369514
-0.000646362
3.40975e-07
-5.64546e-08
-6.07766e-06
0.11497
-9.27927e-08
0.000346533
-0.0138185
0.19227
2.30559e-07
5.83101e-07
4.62465e-07
4.23119e-06
-0.015771
1.0515e-07
0.243672
-0.0165352
-2.25722e-05
5.5329e-06
-0.00102286
-0.0178253
1.55481e-07
-1.08403e-05
0.138778
6.47477e-06
-0.0248614
-0.0793179
2.962e-05
-9.43598e-08
-0.178215
9.41801e-08
0.13786
2.5789e-06
-0.000244126
9.21373e-07
-3.4722e-05
0.0750991
-1.46265e-07
-0.00104344
-5.17278e-07
0.00392513
-0.00266766
-0.00360152
-0.00178165
0.128385
-0.00030583
-3.40625e-05
-0.00525474
-0.00531658
-6.06234e-05
-6.08265e-05
-0.000622478
5.11047e-06
0.152425
-0.010482
0.40788
-9.57521e-07
-0.00520639
-0.000176776
0.110275
9.45562e-06
-0.0232151
3.88916e-06
-0.000943682
-0.0254838
-7.65713e-05
-0.0119465
-0.0390499
0.00181278
-1.03694e-05
-0.0662634
-8.61342e-05
-0.000393347
-0.00354844
-0.0236675
0.000368495
-7.20313e-05
-0.000216855
-0.00114364
-0.000718066
-1.36157e-07
-0.000635863
0.366158
2.08867e-05
-0.00183283
-0.0265632
-0.0399278
-0.0466352
-0.0287297
-0.0171723
-0.00067698
-0.0238935
1.51068e-05
-2.96319e-05
0.384341
-2.54761e-05
0.152174
-0.000131182
9.36228e-05
-0.000557671
-0.10089
-0.000190913
-0.00137108
-6.861e-06
-0.000163762
-2.05722e-05
-2.48624e-05
-0.00880279
-5.54639e-05
-3.8719e-05
-2.3291e-05
-2.16666e-05
-7.16698e-06
-0.0368618
0.211513
-2.15247e-06
-0.000192985
-7.58014e-05
5.3831e-06
-0.000360349
7.1768e-07
-0.000416885
4.86809e-05
-0.000139972
-0.0445817
-0.000340527
-0.00134739
1.21006e-07
-0.00191967
9.88983e-05
-1.62143e-06
-2.76e-06
1.90655e-06
-0.000276714
0.000150051
-0.0373493
-0.0259153
-0.0424131
-0.000495931
-0.00246288
-0.0518558
-0.0402005
-1.60433e-05
0.00716152
0.00298695
-0.000374846
-0.00884065
-0.0310524
0.365326
-0.000144438
-3.35074e-06
0.000166815
7.96055e-06
2.60104e-06
0.0594627
0.000911391
0.0698107
-0.0428387
0.344496
-0.000161692
-7.73947e-09
3.21753e-05
-6.06458e-06
-0.00052811
0.128393
0.184223
-2.92377e-06
-8.02502e-05
-1.04873e-05
0.174243
0.00349547
-0.0100122
1.62469e-06
3.18027e-06
0.00399568
-0.000232922
-0.0600559
-0.0130728
-4.97288e-07
0.00151291
-0.0298964
-1.57205e-05
0.000651228
-4.05611e-05
-0.0322703
-0.000715553
0.120962
2.3842e-06
0.000713623
-0.00198617
1.77644e-06
3.69132e-05
-0.0181036
1.8204e-06
-0.000328682
1.66655e-06
-0.0108999
-0.0293804
-0.00398416
-0.010365
-0.00506551
0.00533022
-0.00638291
-0.00110092
1.30092e-05
1.34239e-05
1.96313e-06
1.98935e-06
-1.22848e-05
0.004505
-0.0580338
0.000152447
-0.0561083
-0.00138982
-0.0585843
1.83746e-05
-6.80307e-06
0.000512486
-0.101595
2.16701e-06
-0.0535332
-0.013389
-0.0169253
-0.0587103
3.93922e-06
-0.00159834
4.08125e-05
-0.17402
0.109619
-2.903e-06
-0.0515172
-0.0214921
-0.00204753
4.05083e-06
-2.22561e-06
0.0104334
-0.00906164
9.27069e-07
-0.00415657
-1.39315e-05
4.39278e-05
0.100215
-1.67135e-06
-9.04832e-06
-7.51461e-05
4.31387e-06
0.000321034
1.86405e-05
-0.00258504
4.36447e-05
-0.00966346
0.000384919
-0.000128178
-0.0359601
-0.0347617
-0.0044927
-2.01828e-06
2.4242e-06
-0.0745005
0.00295385
-0.0360154
-3.97552e-07
-0.0035704
-1.97478e-06
2.40181e-06
0.0523481
-0.00346704
-0.0012592
-7.71001e-06
-0.0158418
8.23134e-06
-0.0512212
2.0624e-06
-0.0590297
-6.4271e-06
-1.2384e-06
1.78269e-05
0.00038833
-0.120402
-0.0100705
-0.0626301
-1.25885e-06
1.27491e-05
-0.056081
-0.0336231
-0.00436019
-2.00589e-06
-0.0556098
-0.0490279
-0.053479
-4.79236e-06
-2.65525e-06
-1.76401e-05
-0.115517
-0.0630611
0.000207746
-0.00567899
-2.8438e-05
0.200879
2.11045e-05
-3.18394e-06
3.24895e-05
-2.67919e-05
-3.25886e-06
-0.00243976
1.20776e-05
-0.00177074
-0.0630019
-0.00698962
-0.0301561
6.20371e-07
-9.01805e-06
0.0334224
-0.075693
-0.00231381
0.0898566
-3.34479e-05
-4.91426e-06
-4.0949e-06
0.0901201
3.80422e-05
-6.34754e-05
-5.47165e-06
-0.0695541
-0.00844558
-1.00256e-05
-4.95983e-05
-0.00697699
-0.00319934
8.19106e-05
0.18656
-0.0615714
-0.000824098
0.479162
-5.01357e-05
-0.000692389
-0.00903196
-0.0495258
-2.72651e-06
-1.54378e-05
3.20433e-06
0.00219663
-0.0380324
-0.000227548
-0.042376
-0.00393318
-3.10352e-06
-8.87475e-07
-0.005281
-0.0183269
-0.0404374
-0.105508
-0.0304697
-0.0295204
-0.0254892
-0.0241527
-1.93116e-05
7.96961e-05
-0.0117799
0.00017487
-0.000161796
0.000200382
-1.23159e-05
-0.000129624
-0.00633538
-1.97898e-06
-1.71134e-05
0.0198728
-0.0470835
-0.000285284
-9.26022e-05
-3.51954e-06
0.202998
-0.00492539
0.000177681
-0.0251339
6.02847e-05
4.39828e-05
4.04969e-05
-1.73573e-05
0.000131312
-0.0325055
0.00529378
-1.53369e-06
-0.00022515
-0.0391523
-0.0337554
0.0364557
-0.000143967
0.000814498
0.0113612
-4.1971e-06
5.38066e-06
-0.0558445
3.26549e-06
0.134298
-1.93211e-05
0.00211047
3.94899e-05
4.88611e-05
-0.0469199
-0.00573732
-0.0138572
-0.00115282
3.96845e-06
0.0011202
0.0467645
-0.00996715
-6.34276e-05
0.0746937
0.131189
-4.85055e-07
-0.0405415
-2.94876e-05
-5.45794e-06
-9.23048e-06
-0.000176308
0.0129615
-2.9352e-05
5.19443e-05
-0.0148741
-0.0197089
-0.0116706
0.253958
-1.21162e-05
-2.22165e-05
0.138504
-0.017429
-0.00267472
-0.000208316
0.136384
-6.31406e-06
-0.000498502
-2.45692e-05
-2.3281e-05
4.71948e-06
4.96864e-06
1.56958e-05
-0.0103713
-5.44953e-06
-0.002669
-0.0315698
0.204176
-0.00035593
-1.1046e-05
0.0023684
0.0664968
-0.056381
-0.000255372
-0.0399669
0.254518
7.04862e-06
0.329995
-1.58325e-06
0.0013319
0.0160963
0.00012562
0.348076
-5.49126e-05
-1.70367e-06
0.000317892
4.25177e-06
-0.000290515
6.53515e-05
-6.02631e-06
-0.00100853
-3.66587e-05
-7.07066e-05
-0.00192975
0.199699
0.035477
0.014526
-0.0279578
-1.27102e-06
-1.20822e-05
0.00122747
-0.0644023
-4.5855e-06
-0.0313083
-1.70496e-05
0.0823452
0.0469235
-0.0308675
-0.000799151
-0.0115227
-0.00034601
-0.00797312
-0.00168951
-0.0074074
0.0477859
4.35763e-08
0.220088
0.0103582
-0.000858398
0.175822
-0.0102762
-1.72698e-06
-6.98344e-06
1.2757e-05
-4.46352e-05
-8.3881e-05
0.201172
-0.000476802
0.207562
-0.00146948
0.134722
0.186578
0.0936821
-0.00528098
-4.70663e-06
-4.71599e-05
-0.00544281
-0.166806
-0.0460134
0.000613722
-2.14367e-05
-0.0255555
-0.000626662
-6.88066e-05
0.000384817
-0.000482123
-0.00109216
0.0229665
1.56918e-05
-0.0292093
0.0422782
1.08209e-05
5.16473e-05
-0.0145225
-0.0636959
-0.000317039
-0.000194788
-1.1192e-05
3.98849e-05
0.0639104
-0.0152059
-0.0467753
0.000498584
0.075559
-0.0338682
-6.49012e-06
-2.88548e-06
-0.00116142
-0.00014073
0.0603734
-0.00545162
-0.00733967
-0.000235346
0.000565934
-0.034039
-0.000100605
0.000139346
-0.014714
-0.0553088
0.127896
-0.0415111
-0.0222038
-0.000244745
-8.23704e-06
0.00379164
3.49221e-06
-0.0515551
-0.0610694
0.000174099
0.00105654
0.0019154
-0.136958
0.00019757
1.43601e-05
-1.3201e-05
-0.0356718
1.22943e-06
0.000176384
0.09832
0.147221
-0.155187
0.0368499
0.0350746
-0.000875895
-0.000309513
0.00321668
2.72418e-05
1.39074e-06
-0.000174701
-2.79299e-07
-0.000133219
-0.000150892
-0.00562152
-0.0867665
-0.00745407
-0.0304909
0.0387444
0.0318207
0.00188085
-0.061464
-2.48483e-06
0.00160737
0.0059212
-0.000195828
0.0576623
-0.00187318
-0.00953046
0.00561547
0.00299943
-0.000712409
-0.00288247
0.0292486
0.000242762
-0.0152002
-0.0136024
0.415645
-0.0228245
0.0630692
-0.000105373
-0.0404605
0.00089071
-2.64859e-05
-0.0011856
-2.61492e-05
-0.00112789
-0.0220167
-2.6125e-05
-0.000216627
0.243129
-0.00147704
-0.0333608
-0.0101558
-4.25169e-05
-0.00239318
-9.78794e-06
-1.3828e-06
0.0246373
2.98461e-06
-0.00133833
0.0580321
0.00264345
0.000443683
0.0104634
-0.00420606
0.00211692
-0.157581
0.000234384
-0.00310132
-0.0476729
-0.000753092
-0.0060225
6.54791e-05
-0.0024911
0.000333476
0.0229606
-0.000539387
0.00279298
-0.0332162
-0.0171024
-9.18991e-05
-0.0304255
-0.0114542
-0.00941669
-8.6774e-05
0.00354772
-0.0814293
-0.000390786
-0.00394766
-0.0288747
-0.00356487
-0.000660588
0.186048
-0.0252066
-1.76865e-06
0.00468982
-0.0520933
-0.000521181
0.160586
-0.00312514
0.00035651
0.0458817
-0.000857473
0.00406064
0.103841
-0.000292206
0.000444708
2.71048e-05
-4.43764e-05
-0.00216949
-0.00807957
-0.000384032
-0.0187022
0.0778847
-0.0241954
-0.0868966
0.00044645
-0.00198994
-0.000932595
-0.0727918
-4.11214e-05
0.00657344
-8.03468e-05
-0.00882785
-0.000959564
-0.00242262
-0.0634598
0.0949368
-0.0959095
-1.98723e-05
0.167701
-0.00207659
-0.00393592
-0.0425353
-0.10321
-0.0128394
-8.70196e-06
-0.00159406
0.00386558
-0.00179287
-0.00333982
-7.69906e-05
0.0681314
-0.0474857
-0.00841642
-0.00330802
0.00784976
-0.00689266
-0.00511471
0.000711532
-0.000534011
-0.00172768
0.0925388
0.00013692
-0.173096
-0.000200522
-0.00371359
-0.00501347
-0.114624
-0.0093598
-0.143322
-2.28729e-05
-2.60619e-05
-0.00892755
0.00569282
0.000114523
-0.171326
0.0670076
-0.0440663
2.28617e-05
-0.192
-0.000260884
-0.204611
-0.0203794
-0.230017
-0.23133
-0.223597
-0.183464
-0.0965259
-0.0615094
-0.0289255
0.0040313
0.0371922
0.132005
0.162788
0.190955
0.238431
-0.00414244
-0.00659379
0.0426306
-0.0250988
0.000213723
0.00207716
-0.0340188
-0.000196619
-0.00118604
-5.64857e-07
-0.0123665
0.0111863
4.82329e-06
-0.000676711
-0.00532665
-0.0170334
-0.229962
-0.0202528
-0.0490629
-0.000120534
1.77381e-05
-3.3003e-06
-0.0738556
-0.00771823
-0.0336693
-0.0167907
0.000642784
-0.000185565
0.00240196
-3.58865e-06
-0.02785
-0.000112754
8.96269e-05
-0.0112866
-0.00600024
-0.000984343