/*--------------------------------*- C++ -*----------------------------------*\
  =========                 |
  \\      /  F ield         | OpenFOAM: The Open Source CFD Toolbox
   \\    /   O peration     | Website:  https://openfoam.org
    \\  /    A nd           | Version:  7
     \\/     M anipulation  |
\*---------------------------------------------------------------------------*/
FoamFile
{
    version     2.0;
    format      ascii;
    class       volVectorField;
    location    "27.5";
    object      U;
}
// * * * * * * * * * * * * * * * * * * * * * * * * * * * * * * * * * * * * * //

dimensions      [0 1 -1 0 0 0 0];

internalField   nonuniform List<vector> 
7807
(
(1.06519 0.1353 5.32308e-21)
(1.05307 -0.040628 -1.10243e-21)
(0.983226 0.0981818 -1.10145e-20)
(1.03047 0.0651369 1.45178e-20)
(0.999269 -0.000785059 -1.75852e-23)
(0.999972 -4.18451e-06 -3.71757e-25)
(0.982086 0.0788233 -2.12709e-20)
(0.99535 -0.00120916 -3.59255e-24)
(0.999899 -0.000139673 -2.53613e-24)
(1.02207 0.00111054 -6.09631e-22)
(0.999973 -5.83393e-06 4.17264e-25)
(1.00187 -0.00109131 -5.2687e-23)
(0.993022 -0.00139563 1.72848e-22)
(1.01832 -0.00170213 -3.47731e-21)
(1.02139 0.00144109 2.58756e-21)
(0.991042 -0.0134277 -5.42381e-22)
(1.06751 0.141882 -1.1194e-20)
(0.990661 -0.0017566 -6.17183e-23)
(1.00173 -0.00870622 2.92973e-23)
(0.975866 -0.101933 -6.33648e-22)
(1.03297 -0.00403997 -1.19352e-21)
(1.00122 -0.000657234 8.96401e-23)
(1.01666 -0.00309834 2.73874e-22)
(1.00952 0.0281604 -7.20226e-21)
(0.987766 -0.00216137 -2.78653e-22)
(1.06034 0.133124 -5.28276e-21)
(0.999308 -0.000749116 -1.22936e-23)
(1.02171 -0.00176175 1.42388e-21)
(1.00453 0.0137109 -9.0498e-22)
(1.00305 -0.0093312 -3.21391e-23)
(0.98635 -0.0138196 -9.11201e-22)
(0.928263 0.0128492 2.95088e-21)
(1.01648 -0.0037767 1.72681e-21)
(0.999597 -0.000295089 1.73655e-23)
(0.99996 -3.06165e-06 1.61862e-26)
(1.02196 0.000356354 8.91229e-22)
(1.00352 -0.0102454 -1.83221e-23)
(0.987077 0.077332 -3.35641e-21)
(0.996256 -0.00691758 4.41665e-22)
(0.999771 -2.58286e-05 1.07625e-23)
(0.996623 -0.00716713 -4.79937e-23)
(0.991216 -0.0125201 -1.82757e-22)
(1.00692 -0.112816 3.22472e-21)
(1.15291 -0.0401592 8.20341e-22)
(0.999927 -4.76211e-06 2.53555e-24)
(0.999946 -7.69836e-06 -5.45059e-25)
(1.00117 -0.000532821 -5.48059e-23)
(0.996133 -0.00629777 -2.59154e-22)
(0.999948 -1.87956e-05 -5.86029e-25)
(0.980752 -0.102797 9.29155e-22)
(1.00278 -0.000968034 6.18275e-23)
(1.02145 -0.0010114 -1.4679e-21)
(0.984571 -0.00241518 -9.59114e-22)
(1.00994 -0.0296635 -8.48569e-23)
(1.02243 -0.000296517 -5.00856e-22)
(0.995817 -0.00190405 -3.42171e-23)
(1.00169 -0.00807787 -2.75599e-23)
(0.995426 -0.000983451 2.19811e-22)
(0.976615 -0.0160997 -1.5361e-21)
(0.999583 -0.000256511 -2.14543e-23)
(1.00003 -1.79679e-05 -8.27673e-25)
(1.00366 -0.00107846 7.13856e-23)
(1.01851 -0.00109359 -8.28915e-22)
(1.00203 -0.000952354 5.33571e-23)
(0.999305 -8.81488e-05 2.37896e-23)
(0.986872 -0.0144668 1.3728e-22)
(0.999918 -0.000140063 2.18737e-24)
(1.00001 -1.96545e-06 3.44571e-26)
(1.14562 0.0769787 1.65053e-21)
(0.99633 -0.00596574 -8.62876e-23)
(0.999946 -1.03187e-05 5.37625e-25)
(0.965116 -0.0563372 -3.81539e-21)
(0.987797 -0.00255966 1.42418e-22)
(0.980172 -0.00264282 1.82048e-22)
(0.990794 -0.0020937 1.96482e-22)
(0.96266 -0.0231889 -3.41844e-22)
(0.986805 0.100406 1.77321e-20)
(1.03127 -0.00400487 1.52858e-21)
(1.08225 0.00250001 -2.19746e-21)
(0.948212 -0.042728 -4.13976e-21)
(0.993191 -0.00165668 -2.65865e-22)
(0.997503 0.0470406 2.02467e-20)
(1.0375 0.00635858 3.82343e-21)
(0.975181 -0.0065983 9.71802e-22)
(0.99872 -0.00206842 -3.73147e-23)
(0.998562 -0.000120858 2.2041e-23)
(0.994938 -0.00171546 3.32175e-22)
(0.984397 -0.00290882 6.1034e-22)
(0.99942 -0.000948141 2.02608e-23)
(0.997069 -0.000256496 8.67231e-23)
(1.00476 0.0155579 6.74487e-21)
(1.18482 -0.0212521 -1.32362e-21)
(0.999896 -3.33512e-05 -1.87951e-24)
(1.00135 -0.0067984 -1.02267e-23)
(0.997021 -0.000606756 8.53752e-23)
(0.986479 -0.000876663 -1.40344e-21)
(0.96789 -0.0560899 2.13621e-22)
(1.01173 -0.0285467 3.01733e-22)
(0.998598 -0.00198168 1.16305e-23)
(0.999209 -9.37206e-05 9.05177e-24)
(0.954959 -0.00949258 7.19565e-22)
(1.08278 0.00760858 1.96463e-21)
(0.997136 -0.000748327 -2.09369e-22)
(0.99999 -6.01016e-07 -1.69639e-26)
(1.18727 -0.00865279 -1.00003e-21)
(1.0272 0.0290155 -6.43493e-21)
(0.955624 0.0111161 3.37888e-21)
(0.995554 -0.00174717 -1.33471e-22)
(0.999994 -1.82431e-06 2.11086e-27)
(1.02354 -0.0132247 -4.86498e-22)
(1.03385 0.0619652 -1.68673e-20)
(1.02512 -0.0813664 -4.21584e-21)
(0.999992 -2.1618e-06 -9.77513e-27)
(1.02517 -0.0136458 -1.03914e-22)
(1.02422 0.0275493 6.77792e-21)
(1.00034 -0.000479881 -2.61257e-24)
(1.07612 -0.0956387 -2.88964e-22)
(1.02778 0.0165891 -1.51812e-21)
(0.979757 -0.044174 1.71543e-21)
(0.977933 -0.00374323 -2.13959e-22)
(0.963432 -0.00431458 -1.58765e-21)
(1.00037 0.0231507 -1.30739e-20)
(1.01411 -0.111094 -4.41813e-21)
(1.00865 -0.00744321 2.78469e-23)
(0.960626 -0.00565017 5.99227e-22)
(0.999157 -0.00109693 4.72011e-23)
(0.987896 -0.0102099 2.95781e-22)
(1.00225 -0.00768977 2.37558e-23)
(0.999373 -5.78031e-05 -5.46257e-23)
(0.986564 -0.0126279 2.22934e-23)
(1.22487 -0.0355236 -7.90993e-22)
(1.07667 4.0486e-05 3.82238e-22)
(0.999491 -0.000410553 2.00562e-24)
(0.999326 -0.000963793 -4.15082e-23)
(0.974895 -0.00558567 2.6809e-22)
(1.03193 0.055403 6.13069e-21)
(0.996411 0.0171147 2.29905e-20)
(0.999987 -1.10858e-06 -9.8704e-27)
(1.0064 -0.00289668 3.41113e-23)
(0.955934 -0.00554308 -2.15516e-21)
(0.984205 -0.00153898 -7.58591e-22)
(0.984051 -0.0637742 -2.85529e-21)
(0.962825 -0.0255261 4.64988e-22)
(0.981571 -0.00235024 -1.85894e-23)
(0.959385 0.00798559 1.27681e-20)
(1.01104 -0.0465933 -1.25297e-22)
(1.00987 0.0170335 -3.4153e-21)
(0.978528 -0.0201741 -8.59125e-22)
(0.978934 -0.00196828 2.17865e-22)
(0.999877 0.0364186 -6.51856e-21)
(1.02231 0.000787282 2.18913e-21)
(1.17122 -0.0252801 -4.08291e-23)
(0.998677 -0.00162786 -1.15277e-22)
(1.15133 0.0689211 1.35203e-22)
(1.03557 0.00591209 -3.97473e-21)
(0.997904 0.0822069 -1.72146e-20)
(0.956195 -0.0274563 1.4343e-21)
(0.99354 -0.000917359 5.67077e-23)
(0.941832 0.0535125 3.103e-20)
(0.999953 -1.57739e-05 -5.40925e-25)
(1.0009 -0.0071806 6.66649e-23)
(1.00956 0.0309373 5.22442e-21)
(0.999983 -1.3677e-05 3.1586e-25)
(0.998241 -0.00437304 -2.30395e-22)
(0.996747 -0.000557367 -4.00299e-23)
(1.00264 0.0318699 -1.72176e-21)
(1.00125 0.0224522 6.41622e-21)
(0.932962 0.0584826 1.05195e-20)
(0.997989 -0.0042037 -1.2552e-22)
(0.998163 -0.000135683 -4.21647e-23)
(1.00001 -2.60991e-06 -2.94792e-26)
(0.974845 -0.00156062 -2.41005e-21)
(1.00032 -0.000428128 3.68842e-24)
(1.0549 -0.0366476 1.2773e-21)
(1.00669 -0.00313874 2.24158e-22)
(0.976341 -0.00252051 4.12939e-22)
(1.17655 0.00148779 -9.65028e-22)
(1.09919 0.0757189 1.41747e-22)
(0.999895 -4.40825e-05 1.02484e-24)
(0.999568 -0.000484073 -2.39944e-23)
(1.03136 0.0689191 -2.59067e-21)
(0.999955 -9.90514e-06 -2.17324e-25)
(0.999942 -4.49907e-06 4.07836e-25)
(0.981117 0.084305 -1.7759e-20)
(1.05541 -0.0441988 -9.42636e-22)
(1.00986 -0.0679485 -2.20195e-21)
(0.981992 -0.0428095 -2.44398e-21)
(0.978891 -0.00439242 5.95761e-22)
(1.0078 -0.0479538 2.56896e-22)
(0.960682 -0.00366112 1.19825e-21)
(0.999982 -1.22597e-05 -9.37657e-26)
(0.968964 -0.0521531 -9.37956e-22)
(1.10149 0.0833687 -4.45151e-21)
(0.997081 -0.000973905 2.96451e-23)
(1.00006 -5.39776e-06 -6.6276e-25)
(1.06981 0.0780768 5.10766e-22)
(0.998979 -0.000241129 6.95928e-23)
(0.987448 -0.012151 4.70358e-22)
(1.00484 -0.045141 8.24695e-22)
(1.00001 -1.59169e-06 -1.0897e-26)
(1.00069 -0.00170185 -1.30861e-23)
(1.02849 0.0544911 7.69063e-21)
(1.08758 0.0892699 -6.20655e-21)
(0.995393 0.0717111 -2.3176e-21)
(1.07128 -0.0886467 2.09093e-21)
(1.02928 -0.0772986 9.29715e-22)
(1.13024 -0.12605 -7.77873e-22)
(1.02211 -0.00185202 4.29979e-21)
(1.02644 0.050865 -2.4358e-21)
(0.999894 -6.39715e-06 -3.04374e-24)
(1.00003 -1.61229e-05 2.08504e-25)
(0.978991 0.00272482 -1.26078e-20)
(0.992414 -0.0120274 -1.81661e-22)
(0.999475 -0.000358149 -1.91365e-23)
(0.971627 -0.0513987 1.94878e-21)
(0.987277 -0.0107893 -3.47675e-22)
(1.00803 0.0774646 -1.9196e-20)
(1.00496 0.074468 -3.99946e-21)
(0.980835 -0.0654033 7.46811e-22)
(0.919164 0.0268935 -1.14745e-20)
(0.999039 -0.000288964 -5.25847e-23)
(0.991207 -0.00138204 2.13278e-22)
(0.955954 -0.00790413 8.86933e-22)
(1.03114 0.000329489 -8.90613e-22)
(1.01259 -0.14329 -4.09023e-22)
(1.0883 0.133623 -1.0892e-20)
(0.944458 0.044766 -2.63617e-20)
(1.00005 -8.59267e-05 5.01713e-25)
(1.00865 -0.0068348 1.15322e-22)
(1.02578 0.0188927 8.2625e-21)
(0.996318 -0.00510238 -3.01318e-22)
(1.03034 0.016977 -1.03647e-21)
(0.999505 -0.00104358 -9.88828e-24)
(0.910261 0.0626121 2.12932e-20)
(0.999413 0.0759963 3.77865e-21)
(0.994996 -0.00141216 2.0129e-22)
(1.00299 -0.00777613 -1.75673e-24)
(0.999773 -3.27938e-05 -1.98545e-23)
(1.12467 0.106464 2.20317e-21)
(0.999951 -4.961e-06 8.83576e-25)
(0.994692 -0.00971717 1.59169e-22)
(0.935689 -0.0210626 1.4437e-21)
(0.999943 -1.56366e-05 -2.14435e-25)
(0.998786 -0.00245247 -3.27396e-23)
(0.999604 -0.00101668 1.37495e-23)
(1.06395 0.0473702 6.0949e-21)
(0.999983 -1.81889e-05 4.64258e-25)
(0.997437 -0.000173829 -1.68478e-25)
(0.950998 -0.04272 4.8196e-21)
(0.942992 0.00701011 -6.47972e-21)
(1.07593 -0.00488491 -4.93464e-22)
(0.930151 0.0382606 1.56927e-20)
(0.999969 -3.37685e-06 -3.40979e-25)
(1.00222 -0.0458866 -1.354e-23)
(0.999837 -0.000245616 -8.25435e-24)
(0.992523 0.083487 -1.74216e-20)
(1.00342 -0.00073455 -9.39447e-23)
(0.994453 0.0244261 7.55895e-21)
(1.00218 -0.00934653 7.24146e-23)
(1.0006 -0.00183096 8.99846e-24)
(1.02918 -0.0339495 3.51279e-22)
(1.02203 -0.000926896 -3.97934e-21)
(1.00047 -0.000287958 9.72906e-24)
(0.999829 -2.82428e-05 1.25506e-25)
(1.00041 -0.000387105 2.00212e-23)
(0.996111 -0.00542676 -2.7716e-22)
(1.01766 -0.070858 2.72466e-21)
(0.999968 -5.2551e-06 2.16868e-25)
(0.958174 -0.0262879 1.00727e-21)
(0.996796 -0.000693873 -9.93399e-24)
(0.999888 -2.67747e-05 1.94705e-24)
(0.999451 -0.000456423 6.43693e-24)
(0.987023 0.0461085 1.84723e-20)
(0.995741 -0.000237539 7.7254e-23)
(0.999532 -3.96493e-05 -4.66716e-24)
(0.968377 0.00174339 2.40176e-20)
(0.998656 -0.0023391 -6.89194e-23)
(1.05283 0.100759 -6.10935e-21)
(0.999821 -0.00022411 1.347e-23)
(1.00697 -0.0219694 -2.73467e-22)
(1.00001 -1.47992e-06 -1.55454e-26)
(0.979893 -0.0348468 -8.8891e-22)
(1.03055 -6.21895e-05 1.40451e-21)
(1.17806 0.0116858 1.67235e-21)
(0.976698 -0.017628 1.31815e-21)
(0.999632 -0.000493039 2.88681e-23)
(0.974719 -0.0854835 1.34255e-21)
(0.997485 -0.000110366 3.56302e-22)
(0.999909 -8.67271e-06 1.01081e-25)
(1.00039 -0.00033903 -1.76845e-23)
(0.998006 -0.0030677 1.02804e-22)
(0.994148 -0.000675511 -2.38976e-22)
(1.00259 -0.000871294 -1.02264e-22)
(0.998856 -0.00164762 4.07755e-23)
(0.976519 -0.00614428 1.57099e-22)
(1.02274 -0.0683144 -1.93921e-21)
(0.977639 -0.00477006 6.46782e-22)
(1.14522 -0.0319032 -2.0147e-22)
(0.972453 -0.00456369 -8.19947e-22)
(1.00696 0.100881 1.9887e-21)
(1.00236 0.103093 -1.46098e-20)
(0.998681 -0.000569369 -5.16899e-23)
(1.20155 0.0108513 -4.2993e-21)
(0.999988 -1.86503e-06 -1.70635e-27)
(0.997911 -0.00385126 -1.318e-22)
(0.98991 -0.000509555 1.41225e-21)
(1.00717 0.0251556 4.31359e-21)
(1.03857 0.0110567 -3.83849e-21)
(1.00008 -2.69602e-05 1.68506e-24)
(0.99805 -0.00363018 -1.09779e-23)
(0.971817 -0.00556003 6.18112e-22)
(1.04897 0.0404435 -2.45265e-21)
(0.999098 -0.00099737 3.20617e-23)
(1.00296 -0.000708743 6.13914e-23)
(1.00104 -0.000900793 -3.92794e-24)
(1.12589 0.0274947 1.67441e-21)
(1.2247 -0.0492793 -4.94544e-21)
(1.02523 0.126028 9.56059e-21)
(0.998889 -0.0001132 -4.25674e-23)
(1.06515 -0.041836 1.5661e-21)
(0.999907 -4.86106e-05 -1.84418e-24)
(1.00416 -0.00689952 -1.47108e-22)
(0.999959 -7.83562e-06 -1.45345e-25)
(0.984245 -0.0199424 2.48524e-22)
(0.999737 -3.99685e-05 -3.92719e-24)
(1.01149 -0.0217109 4.01173e-23)
(1.22593 0.0146195 4.66894e-21)
(0.970683 -0.0260097 1.71565e-21)
(1.0082 -0.021398 5.8425e-23)
(1.00771 -0.00611848 -1.3981e-22)
(0.999477 -5.89396e-05 2.18984e-23)
(1.02581 -0.0174617 3.38339e-22)
(0.995885 -0.0183223 3.4505e-22)
(1.0767 0.0122609 -1.32888e-21)
(1.05889 0.0449472 2.73879e-21)
(1.18732 -0.134851 1.38039e-22)
(1.1501 -0.0506042 -2.61709e-21)
(0.99536 -0.000166305 -3.90757e-22)
(1.00449 -0.00343376 1.96379e-22)
(0.938464 -0.0198736 -5.37798e-22)
(0.925782 0.0556017 -3.21734e-20)
(1.12903 -0.0526175 3.14055e-21)
(1.02603 -0.0105459 -1.59317e-21)
(0.919688 0.0317046 -1.5845e-20)
(0.999048 -6.08957e-05 2.09562e-23)
(0.998445 -0.000712638 -1.66639e-23)
(1.16808 -0.0364331 -2.54909e-21)
(0.998974 -0.00180682 -2.77085e-23)
(1.0114 -0.0432461 2.75148e-22)
(1.00521 -0.00166567 7.36103e-23)
(0.998068 -0.000181331 -3.42393e-23)
(0.99852 -0.000162984 -5.44166e-23)
(1.03063 0.0246102 4.89202e-21)
(0.99994 -0.00012019 -5.25479e-25)
(1.00045 -0.00023549 -8.69686e-24)
(1.00006 -1.06798e-05 1.14858e-24)
(0.997333 -0.000344074 1.94056e-22)
(0.993602 -0.00835159 3.88217e-22)
(0.999988 -1.14906e-06 1.27171e-26)
(0.999117 -0.00014076 5.48151e-24)
(0.977845 -0.0152265 4.4558e-22)
(0.97006 0.0059613 7.96392e-21)
(1.01004 -0.0225581 2.12435e-22)
(0.992518 -0.0112178 6.79385e-22)
(0.960491 0.0474919 3.63024e-21)
(1.0004 0.0231614 1.166e-20)
(1.06617 0.000958319 -1.01037e-21)
(1.1921 0.0165769 1.39622e-21)
(0.980716 -0.00117445 1.26223e-21)
(1.00444 -0.00397349 -9.40051e-23)
(1.00762 0.0409585 -6.54003e-22)
(0.991246 -0.001054 -4.89942e-22)
(1.03279 0.0981821 2.72434e-22)
(1.00731 -0.0516539 4.3107e-23)
(1.03925 -0.126329 -1.65664e-21)
(1.08272 0.0855409 3.84203e-21)
(1.03487 0.104288 -8.16254e-21)
(0.960491 -0.0219653 2.12673e-21)
(1.03957 0.00906295 -2.42273e-21)
(1.09359 0.138841 1.02108e-20)
(1.04665 0.100718 1.16601e-20)
(1.02306 -0.00206822 1.34381e-21)
(0.99725 -0.00109031 5.01765e-23)
(0.996101 -0.00173683 4.70335e-23)
(0.99993 -1.45561e-05 -5.34984e-25)
(1.01607 -0.0282792 -1.16933e-22)
(0.991935 -0.000815242 1.14386e-22)
(1.00082 -0.00214301 -1.18069e-23)
(0.99992 -1.26187e-05 -1.11617e-24)
(0.998581 -0.000501285 2.0412e-23)
(0.971603 -0.0839174 -2.22839e-21)
(1.10824 0.0389149 1.15827e-21)
(0.983409 -0.00396398 -7.43655e-22)
(0.998802 -0.0118523 4.40415e-22)
(0.997038 -0.000374401 -1.1215e-22)
(1.06208 -0.0447541 -1.05015e-22)
(0.994208 -0.000777272 -3.85531e-22)
(1.00199 -0.00695936 9.76594e-24)
(1.10759 0.132418 1.63928e-21)
(0.99863 -0.000167347 -1.26622e-22)
(0.999981 -3.5985e-05 -5.50465e-25)
(0.999949 -0.000147106 -5.06865e-25)
(1.00004 -8.75195e-05 2.74929e-25)
(0.97908 -0.00531282 3.55627e-22)
(1.02911 0.0224972 -5.73045e-21)
(0.997291 -0.000205293 4.36358e-24)
(1.022 -0.0091544 1.03183e-21)
(1.02227 -0.149675 3.16706e-21)
(0.989139 0.0722018 -2.8641e-22)
(1.00346 -0.00703177 3.96592e-23)
(1.00598 -0.00445376 -3.66534e-23)
(0.995228 -0.0019139 -1.64592e-22)
(0.991517 0.0463338 -1.80807e-20)
(0.999336 -5.25726e-05 1.53772e-23)
(1.02887 0.130791 -4.83123e-21)
(1.00768 0.017623 -6.63273e-21)
(0.99991 -1.70927e-05 1.39865e-24)
(1.00499 -0.0525687 -1.28108e-21)
(0.997243 -0.000419545 -9.45782e-23)
(0.987944 -0.0649743 3.52248e-21)
(1.00047 -0.000127196 8.92996e-24)
(1.06128 0.00353019 1.472e-21)
(1.0064 -0.0158691 3.2994e-24)
(1.0056 -0.00403571 8.91907e-24)
(0.999356 -7.67684e-05 -3.07077e-23)
(1.06902 0.0449129 2.8892e-21)
(1.0446 0.0385733 9.67118e-22)
(1.00742 -0.0710694 2.08621e-21)
(0.978364 -0.0184192 -8.54085e-23)
(0.997886 -0.00328308 -8.55528e-23)
(0.999022 -0.0414068 -2.31028e-21)
(1.14638 0.0588617 -1.84005e-21)
(0.921929 0.0170221 -1.4511e-20)
(1.09154 -0.0811281 -2.18583e-21)
(1.00461 -0.0074811 -8.19662e-24)
(0.999994 -2.50246e-06 -1.29755e-27)
(0.987276 -0.00338134 -5.79245e-22)
(0.998355 -0.000179762 1.22115e-22)
(1.02451 -0.0176664 4.6562e-22)
(1.00286 -0.11872 -1.2637e-21)
(1.2008 -0.00302276 1.86093e-21)
(0.980134 0.065716 -2.29874e-20)
(1.05305 0.0374562 3.95004e-21)
(1.13154 -0.112938 3.27215e-21)
(1.06935 0.084826 1.6827e-21)
(0.998887 0.0225303 2.11983e-20)
(1.01818 -0.00241021 9.03584e-22)
(1.00101 -0.00208331 3.12965e-23)
(1.02082 0.0572595 3.8616e-21)
(0.999155 -0.00176789 5.8746e-23)
(0.999843 -0.000129426 2.61023e-24)
(0.990293 -0.000572845 1.65528e-22)
(1.00007 -2.66527e-05 3.06612e-25)
(1.14145 -0.134715 1.70846e-21)
(1.00325 -0.0175304 -2.18339e-22)
(0.982268 -0.0344223 1.57295e-21)
(1.00163 -0.00143253 2.41264e-23)
(1.06417 0.0744643 8.8325e-21)
(0.998677 -0.000155933 -9.24734e-24)
(0.999979 -2.83426e-05 -4.17981e-26)
(1.0312 -0.13223 1.78694e-21)
(1.00143 -0.0012394 -1.41566e-23)
(1.10822 -0.00340907 -3.17565e-22)
(0.957462 -0.00884821 3.53566e-22)
(0.945679 -0.00940852 1.01303e-22)
(1.20412 0.0614386 1.0277e-22)
(1.02337 0.0179954 -2.16409e-21)
(1.01995 0.00524376 1.31163e-21)
(1.01869 0.00494114 -5.11912e-22)
(0.999848 -2.0754e-05 6.44516e-25)
(1.11658 0.0383785 8.59608e-22)
(1.07705 0.0165788 1.51843e-21)
(0.999528 -0.000527367 1.11008e-23)
(0.983834 -0.00457932 8.54495e-22)
(1.00051 -0.000182555 -9.95744e-24)
(1.01145 -0.0199088 1.72997e-23)
(1.00805 -0.0286878 -1.61011e-22)
(1.00399 -0.00128068 9.83328e-25)
(0.999281 -0.00108676 -5.79402e-23)
(1.12328 0.0980556 -6.88022e-21)
(0.999982 -1.63763e-05 -4.69037e-25)
(1.00017 -9.45238e-05 -1.98655e-24)
(1.00172 -0.000975481 -1.31247e-24)
(0.985675 -0.00122133 5.31396e-22)
(1.01832 -0.0109721 6.41268e-22)
(0.981799 -0.0283874 -2.07275e-21)
(0.97997 -0.00237076 -3.11964e-22)
(1.01361 -0.067132 1.24205e-21)
(1.0456 -0.160373 -3.48136e-21)
(1.02717 -0.031066 -1.22826e-22)
(1.0248 0.0583343 -2.20953e-20)
(1.21562 0.0206163 -3.13987e-21)
(0.993868 -0.00182093 -2.6335e-23)
(0.909076 0.0558173 2.51116e-20)
(0.970659 -0.0587123 3.3964e-21)
(0.993251 -0.00888109 1.2554e-22)
(0.982187 -0.00185775 5.26825e-22)
(0.997086 -0.0176969 -8.78161e-23)
(0.988595 -0.000906137 7.78901e-22)
(0.990487 -0.00275116 -1.64339e-22)
(1.02641 -0.0123548 -1.03495e-21)
(1.13824 -0.0563674 -7.31193e-22)
(0.999978 -3.3162e-05 -8.18898e-26)
(1.02255 -0.0120499 -1.34494e-22)
(0.999924 -1.83382e-05 -6.9913e-25)
(1.00192 0.085761 4.6109e-21)
(1.14723 0.0837099 3.92468e-21)
(0.995586 -0.00137708 5.37586e-23)
(0.991681 -0.000608423 -6.63297e-22)
(0.999851 -3.16551e-05 -4.34051e-24)
(0.997404 0.0423689 1.34355e-20)
(1.02175 0.101569 1.08928e-20)
(1.11943 0.0295425 -8.64427e-22)
(1.12982 0.126031 -5.81974e-21)
(0.970396 -0.0628141 -1.53738e-21)
(0.998799 0.00532004 -1.95989e-20)
(0.999944 -0.000106124 1.46217e-24)
(1.04853 -0.0264697 5.04616e-22)
(0.992267 -0.000491589 -2.10301e-23)
(1.09108 0.0729029 -1.6888e-21)
(0.938677 0.0374018 -1.89535e-20)
(1.15061 0.0514818 1.46808e-21)
(1.04772 0.0307205 6.66617e-22)
(0.999486 -0.0117551 -1.05928e-22)
(0.999833 -5.57673e-05 -4.44177e-24)
(1.13252 0.109949 2.32739e-21)
(1.21083 -0.0275389 9.21002e-22)
(0.993567 0.0495698 -4.31311e-22)
(1.10055 -0.00493679 1.01558e-21)
(1.02844 0.0471993 6.42417e-21)
(0.993606 -0.00151715 -7.62579e-23)
(0.986508 0.0669556 6.3089e-21)
(1.02657 0.0968163 3.7833e-21)
(0.991638 -0.00229412 -4.58635e-22)
(0.992997 -0.00220457 -1.72778e-22)
(1.14418 0.0993578 5.1823e-23)
(0.947704 -0.00841138 -2.1155e-21)
(0.999925 -0.000123017 -2.28052e-24)
(0.987729 -0.00383911 7.60939e-22)
(0.938813 -0.0145934 1.72215e-21)
(0.984299 -0.0823942 -4.69319e-22)
(1.00885 -0.00231371 -6.71821e-22)
(1.00774 -0.00555428 3.42003e-23)
(0.99989 -0.000153021 -4.06969e-24)
(1.0233 0.107707 -1.64945e-20)
(0.999853 -0.0106621 2.02553e-23)
(0.999915 -4.20645e-05 7.97661e-25)
(1.02244 -0.0623078 1.74277e-21)
(0.999565 -0.000332918 8.11582e-24)
(0.999819 -4.65465e-05 3.34633e-25)
(1.00463 -0.011555 -1.30648e-24)
(1.05236 0.0736004 1.2227e-20)
(1.02108 -0.117076 2.42413e-21)
(0.953415 0.0420107 1.12465e-20)
(1.00005 -7.74677e-06 -8.16098e-25)
(1.05765 0.0778118 -1.2715e-20)
(1.01426 -0.0528942 1.20778e-21)
(0.99993 -0.000153187 -6.53724e-25)
(1.00002 -5.01224e-06 -1.9968e-25)
(1.00248 0.0101048 -1.08806e-21)
(1.04866 0.0630831 4.52963e-21)
(0.996361 -0.00187968 4.93902e-23)
(1.0451 0.0487187 -5.71715e-21)
(1.00002 -1.615e-05 1.54668e-25)
(1.04486 0.0540984 -7.99129e-21)
(1.17097 -0.138525 4.32284e-21)
(0.991372 -0.00191917 4.89559e-22)
(0.999232 0.0102388 -2.72035e-20)
(0.972248 -0.047995 2.20304e-21)
(1.13426 0.119537 5.54741e-21)
(0.982464 -0.00174327 2.80594e-22)
(1.04936 0.0574205 1.04501e-20)
(1.05344 0.0668125 -3.27785e-21)
(0.984212 -0.00623121 1.32696e-21)
(0.97916 -0.00745861 -9.75027e-22)
(0.994862 -0.00899815 3.97331e-22)
(0.997636 -0.00043002 -3.37819e-23)
(0.999829 -0.000144328 6.98055e-24)
(0.999646 -0.0101685 -3.57828e-23)
(1.03735 0.0926887 -1.90721e-21)
(0.999977 -2.55518e-05 1.59047e-25)
(1.04073 0.0462203 7.5764e-21)
(1.03768 -0.116348 4.00975e-21)
(1.00276 0.0549106 5.37414e-21)
(1.04068 0.0416407 -8.55457e-21)
(0.939436 -0.0127695 -2.6689e-22)
(0.955663 0.0594548 -2.40836e-20)
(0.998598 -0.000896999 2.23485e-24)
(1.01573 -0.0259235 -4.15583e-23)
(1.05767 -0.0814907 1.15449e-21)
(0.988966 -0.000758375 -5.53388e-23)
(0.994127 -0.00249886 2.32373e-22)
(1.01128 -0.0543661 -1.0199e-21)
(1.05537 -0.0174978 -6.54298e-23)
(0.928073 0.0290028 2.94743e-20)
(1.00003 -1.51903e-05 7.994e-25)
(0.998344 -0.000944583 4.14609e-23)
(1.01981 -0.080649 7.07735e-23)
(1.00001 -3.94742e-06 1.61288e-26)
(1.00167 0.0919996 2.28847e-21)
(1.00147 -0.00107095 0)
(1.00001 -5.30711e-06 1.14107e-26)
(1.00015 -7.316e-05 4.55635e-24)
(1.00032 -0.000104586 1.11975e-25)
(0.984668 -0.0185367 1.29335e-21)
(1.02214 -0.016608 -3.29691e-22)
(0.998678 -0.000677137 6.30425e-23)
(0.999939 -8.73581e-06 1.12023e-24)
(0.993772 -0.00226199 1.21672e-22)
(1.00398 -0.012038 2.61194e-23)
(0.989398 -0.126939 -3.41179e-21)
(0.971456 -0.00211475 1.44185e-22)
(1.01761 -0.00977772 1.21425e-21)
(0.999985 -1.06953e-06 9.21859e-26)
(1.1191 -0.16559 5.14188e-21)
(0.988564 -0.00228754 -2.8757e-22)
(1.13039 0.0904665 -3.35884e-22)
(1.00013 0.00924528 -3.83673e-21)
(1.001 -0.00316131 1.33521e-24)
(1.11778 0.0789974 -6.1478e-21)
(1.00012 -7.84655e-05 4.25107e-26)
(0.988793 -0.00278525 3.36301e-24)
(1.0223 0.000785115 -2.54202e-21)
(0.994111 -0.00293872 -9.54187e-23)
(1.05304 0.0877049 -7.10423e-22)
(0.98821 -0.00508759 -5.95271e-22)
(1.04996 -0.0236775 -5.88701e-22)
(1.02266 0.00139741 -2.7575e-21)
(1.05833 0.0397257 -1.72301e-21)
(1.00673 -0.0145441 -2.52746e-23)
(0.990891 -0.0031041 1.33141e-23)
(1.0768 0.0743936 5.3616e-21)
(0.976108 -0.0909968 -2.73086e-21)
(0.99026 0.0885886 1.91538e-20)
(0.991861 -0.00376775 -5.7104e-22)
(1.05472 0.113749 -1.27479e-22)
(0.991906 -0.00318913 1.5357e-22)
(0.999036 -0.000365567 -4.2543e-24)
(1.04736 0.0274296 1.85187e-21)
(1.01423 -0.0297103 1.82378e-22)
(1.03475 0.00308731 3.71749e-21)
(1.00152 -0.000746262 1.63332e-23)
(1.00001 -4.20932e-06 5.27105e-27)
(1.00477 -0.146466 1.29794e-21)
(1.1058 0.125619 -8.7217e-21)
(1.00122 -0.00307186 -9.11828e-24)
(1.12719 0.0811363 5.33223e-22)
(0.988903 -0.0047247 -3.91509e-22)
(1.10899 -0.174531 -2.01677e-21)
(1.0476 -0.0412062 -2.01219e-22)
(0.981262 -0.0303655 1.19375e-21)
(0.998574 -0.000761167 -2.78674e-23)
(0.994894 -0.000371973 -9.08296e-23)
(0.969228 -0.0761383 -1.51278e-21)
(0.97343 -0.00600632 1.29102e-21)
(0.991468 -0.00286146 3.81542e-22)
(0.999865 -0.000361479 5.48181e-24)
(0.982325 0.0928311 -2.4144e-21)
(1.11477 0.0703819 3.65618e-21)
(1.02326 -0.0101411 -4.09856e-22)
(0.999838 -0.00010944 4.22484e-24)
(1.02478 0.0908664 -7.25663e-21)
(1 -1.88511e-05 -2.84322e-26)
(0.999851 -9.71676e-05 7.77669e-24)
(1.10588 0.0686762 3.21831e-21)
(1.00977 -0.0246251 -1.80646e-22)
(1.11575 0.113433 6.85628e-21)
(1.0221 -0.00260078 9.97006e-22)
(1.01594 -0.0122134 -5.30997e-23)
(1.10115 -0.0656793 1.45575e-21)
(1.0647 -0.144919 4.03369e-21)
(1.20444 0.0531809 5.91612e-22)
(1.00105 -0.000755504 -3.36737e-23)
(0.957148 -0.0105376 -1.13474e-22)
(0.999984 -4.47214e-05 -1.8366e-25)
(1.00434 -0.0104596 4.74547e-24)
(1.05743 0.0840312 4.62784e-21)
(0.985117 -0.00582131 9.17625e-22)
(0.997606 -0.00109469 5.77716e-23)
(1.01455 -0.0417373 -8.6063e-22)
(0.998326 -0.000811977 2.57024e-24)
(0.99963 -0.000911616 1.84266e-23)
(0.96987 0.00308339 4.97551e-21)
(0.991339 -0.00406887 -3.25185e-22)
(0.999525 -0.000578623 -3.78237e-23)
(0.999994 -2.48757e-07 2.38386e-26)
(1.01578 0.00616957 5.7456e-21)
(0.97168 -0.0241128 -2.34942e-22)
(0.999716 -0.000438688 1.17889e-23)
(0.997697 -0.000548391 6.88866e-23)
(1.02136 0.0199092 2.38259e-21)
(1.06606 0.0117362 3.91015e-22)
(0.960752 -0.0194484 -1.33662e-21)
(1 -1.18729e-05 -4.42144e-26)
(1.00101 0.0100995 1.5855e-20)
(0.986173 -0.0159244 -8.62897e-22)
(1.06446 0.0678581 -8.77626e-21)
(1.01157 -0.0011633 -1.09944e-21)
(1.01344 -0.00119351 2.57299e-21)
(0.970636 -0.0081401 1.80603e-21)
(0.999924 -4.56489e-05 -5.35568e-25)
(1.02204 0.000331841 -5.28595e-22)
(1.07117 0.00927532 -4.62025e-22)
(1.18124 0.058115 5.1148e-22)
(1.04479 -0.110077 9.29975e-22)
(1.03467 0.0869239 5.66797e-21)
(1.00496 -0.00154624 -1.62362e-23)
(1.08353 0.0785315 -7.37693e-21)
(0.999483 -0.013846 -1.62724e-22)
(1.01803 -0.0597403 -2.80479e-21)
(0.999687 -0.000110164 -7.65461e-24)
(1.00258 -0.0187306 4.36572e-22)
(0.999902 -0.000347467 3.47057e-24)
(1.04364 0.0334853 -5.56915e-21)
(1.07372 0.12411 -1.68312e-20)
(0.998726 -0.000936779 2.18707e-23)
(1.01736 -0.0123756 -2.09104e-23)
(0.985316 -0.00270012 3.04647e-22)
(1.04847 -0.0948475 4.52731e-22)
(1.04244 -0.101383 -2.00873e-21)
(0.998425 -0.000612634 4.05506e-23)
(1.04506 -0.0271835 -1.02958e-22)
(0.987225 0.00132929 -8.24783e-21)
(1.17764 0.0390321 -2.26369e-22)
(0.999952 -0.000130633 3.76523e-24)
(1.06143 0.00879827 -1.35087e-21)
(0.997034 -0.00825634 -2.19299e-22)
(0.999052 0.00104604 1.80621e-20)
(0.989005 -0.00396805 5.26644e-22)
(0.995081 -0.0262073 -3.20437e-22)
(1.01718 -0.0367529 -7.00818e-24)
(0.993607 -0.0271021 -2.29535e-23)
(0.997915 -0.0206693 -8.06987e-22)
(0.993335 -0.0024623 8.293e-23)
(0.998629 -0.0136822 4.47241e-22)
(1.00154 -0.00583498 -3.09241e-24)
(1.05694 -0.0212457 1.92905e-22)
(1.00008 -1.97663e-05 -2.44692e-24)
(1.21094 -0.0946376 -1.91503e-21)
(1.16324 -0.00333471 -6.40345e-22)
(1.01121 0.103371 1.35119e-20)
(0.962927 -0.0183705 1.96389e-21)
(1.10679 0.108701 -3.51162e-21)
(1.00162 -0.000580909 6.16216e-23)
(1.0752 -0.0793539 -5.1125e-24)
(1.00373 -0.0392751 -9.25367e-22)
(1.01801 0.0343649 7.04334e-21)
(0.993718 -0.00318787 2.32862e-22)
(1.00008 -0.000150369 1.15264e-24)
(0.9868 -0.0167322 1.13455e-21)
(0.995683 -0.00878237 -1.51507e-22)
(1.04197 -0.0246809 5.40204e-22)
(0.976638 -0.00413876 -1.04581e-21)
(0.978356 -0.00664634 3.32297e-22)
(1.13244 -0.0332462 -3.56084e-22)
(0.988817 -0.00154946 -4.63043e-22)
(1.0145 -0.0385043 6.4302e-22)
(0.986164 -0.0877892 2.05218e-21)
(1.00001 -6.22463e-06 1.03066e-26)
(1.05825 -0.0133519 1.45127e-21)
(0.988278 -0.0779806 -5.43563e-21)
(1.11323 0.094479 3.05171e-21)
(1.10197 -0.0735089 -2.6632e-21)
(1.03323 0.00260084 2.99739e-22)
(1.02899 -0.112519 -5.05573e-21)
(1.03196 0.116075 3.58522e-21)
(1.03507 -0.0362916 -3.16435e-22)
(0.970234 -0.00705579 -1.06313e-21)
(1.01436 -0.0489903 -1.51058e-21)
(0.99019 0.00187126 7.93954e-21)
(1.17106 -0.101731 1.23865e-21)
(0.988489 -0.00353004 -1.64833e-22)
(1.03212 -0.143318 -3.8467e-22)
(1.02757 -0.0708432 1.99962e-21)
(1.04943 -0.130191 -6.55111e-22)
(1.04545 -0.0871774 -2.25397e-21)
(1.07654 0.0674774 6.71426e-21)
(0.99761 -0.00129622 3.3492e-24)
(1.00668 0.0388342 2.63687e-21)
(1.00675 -0.00149118 1.13831e-22)
(0.999664 -0.000441265 -1.58517e-23)
(0.998909 -0.00201149 1.57349e-22)
(1.05715 0.0019514 -4.06669e-22)
(0.987268 0.000212689 2.3258e-22)
(1.00119 -0.00623771 -2.24181e-23)
(1.01808 -0.0552541 3.913e-22)
(1.02145 0.0227843 -3.96901e-21)
(1.00002 -5.80845e-06 -3.72083e-26)
(0.980291 -0.00699073 7.68254e-22)
(1.02068 -0.00940248 8.9107e-22)
(1.07712 -0.0410685 -8.93379e-22)
(1.00687 -0.000759682 6.49979e-22)
(0.998579 -0.00175996 2.5463e-23)
(0.981857 -0.0396902 2.26714e-24)
(0.997683 -0.00795539 -8.65868e-23)
(1.00002 -4.81121e-06 4.13719e-25)
(0.974766 -0.047089 -3.74542e-21)
(1.0444 0.0814382 -1.94368e-21)
(1.01909 -0.0319337 2.08165e-22)
(0.985339 -0.00337038 -5.34405e-22)
(1.00147 -0.000392641 -2.17857e-23)
(1.02428 0.0245493 5.22188e-21)
(0.999663 -0.000544845 -7.50563e-24)
(0.998959 -0.000500986 -2.9833e-24)
(0.999712 -0.000125077 -7.54398e-24)
(0.999289 -0.00191255 -4.61371e-23)
(1.16794 0.0590613 1.05946e-21)
(1.02815 -0.0364827 -1.23552e-21)
(1.00712 -0.0184683 -9.80529e-23)
(0.983465 -0.00563202 -2.69315e-22)
(1.00003 -4.30355e-05 3.53083e-25)
(1.08638 -0.1365 5.57834e-21)
(1.21183 -0.0107078 6.15797e-23)
(1.09422 -0.147357 -2.66082e-21)
(0.99586 -0.0339677 -6.17372e-22)
(1.01244 -0.00902997 7.34284e-22)
(0.999832 -7.18144e-05 2.9015e-24)
(0.988984 -0.0104932 -4.07843e-22)
(0.953316 -0.0460773 -1.93219e-21)
(1.16647 0.0409044 3.89546e-22)
(1.00177 0.0529012 -1.79721e-22)
(0.998877 -0.00290899 3.97279e-23)
(0.941082 -0.0274501 9.03548e-22)
(0.995828 -0.00225105 -2.15228e-22)
(1.03288 -0.0333989 2.48619e-22)
(1.08945 0.0650747 6.60369e-22)
(1.00034 -0.000119783 -1.29582e-23)
(0.999867 -0.000176887 -1.81692e-24)
(1.14191 0.106104 5.71382e-22)
(1.16174 0.021367 3.10754e-22)
(1.01665 -0.0152943 2.35708e-22)
(0.997437 -0.00141816 1.05664e-22)
(0.998377 -0.000265115 -8.49081e-24)
(0.961165 -0.0479395 4.85274e-22)
(0.999847 -0.000298248 -6.71979e-24)
(1.01679 -0.0337396 -6.92547e-22)
(0.992856 -0.000462289 8.99862e-22)
(1.0003 0.0113043 -3.18516e-21)
(1.04799 0.087164 -1.0209e-21)
(1.06922 -0.0732335 1.16856e-21)
(0.992953 -0.0786602 1.97742e-21)
(1.00558 -0.00136727 3.07058e-22)
(1.01351 -0.0248839 1.85406e-22)
(1.15357 0.00376935 -7.37382e-22)
(0.992254 -0.0884149 -1.25085e-21)
(1.01759 -0.0471289 8.83173e-22)
(0.999998 -5.92817e-06 1.27525e-26)
(1.14021 -0.0124354 -1.22351e-21)
(0.98681 -0.000825604 8.81697e-23)
(0.991003 -0.0992473 2.51281e-21)
(1.01851 -0.0292641 5.28206e-22)
(0.959241 -0.010068 -2.33272e-22)
(0.999668 -0.000235845 -4.50472e-24)
(0.997439 -0.000995444 -4.53886e-23)
(1.03668 0.0394233 6.61808e-21)
(0.972262 -0.00758236 -3.84469e-22)
(0.999989 -1.41016e-06 3.83685e-26)
(0.997852 -0.000287931 -8.8734e-23)
(1.16641 -0.0858608 -6.82534e-21)