/*--------------------------------*- C++ -*----------------------------------*\
  =========                 |
  \\      /  F ield         | OpenFOAM: The Open Source CFD Toolbox
   \\    /   O peration     | Website:  https://openfoam.org
    \\  /    A nd           | Version:  7
     \\/     M anipulation  |
\*---------------------------------------------------------------------------*/
FoamFile
{
    version     2.0;
    format      ascii;
    class       surfaceScalarField;
    location    "40";
    object      phi;
}
// * * * * * * * * * * * * * * * * * * * * * * * * * * * * * * * * * * * * * //

dimensions      [0 3 -1 0 0 0 0];

internalField   nonuniform List<scalar> 
44078
(
-595.156
673.141
-77.9843
1069.95
-1075.42
5.46261
-333.782
379.978
-46.1965
217.546
-257.171
39.6251
-497.701
497.701
210.842
-258.002
47.1601
-394.966
377.133
17.8326
35.5017
-573.669
538.167
665.139
-834.302
169.163
-1009.44
1102.38
-92.945
566.349
-156.996
-409.353
-535.146
534.866
0.280718
-687.576
582.526
105.049
-859.801
868.855
-9.05469
285.268
66.8967
-352.165
383.892
-9.8633
-374.029
814.252
-666.946
-147.306
-428.98
426.548
2.43239
160.197
314.839
-475.036
288.657
-354.555
65.8989
-593.794
81.7366
512.058
725.108
-59.9689
48.7459
-382.528
136.274
-488.773
352.499
201.803
-73.6226
-128.18
1072.48
-2.53097
659.652
-680.759
21.1071
-303.679
41.3593
262.32
326.383
-41.1143
-445.122
543.836
-98.7133
959.554
-245.873
-713.681
-688.407
776.651
-88.2436
256.867
-219.996
-36.871
483.901
-78.6984
-405.203
89.2517
-392.931
258.164
-431.038
172.875
465.649
-610.135
144.487
290.246
-44.3543
-245.891
826.833
-982.419
155.587
1065.19
-238.354
-1018.52
1035.95
-17.4314
396.202
-83.4455
-312.757
704.111
110.141
180.592
-314.708
134.116
1228.5
-777.726
-450.775
-590.921
145.798
534.595
-538.716
4.12144
230.458
645.598
-876.056
227.117
537.093
-764.211
-100.943
566.592
-399.991
186.988
213.003
-5.18312
-226.886
232.069
-680.044
-8.36353
235.632
-24.7901
422.704
-38.812
-295.807
-58.9582
354.765
523.103
-498.979
-24.1242
-34.3899
-559.405
-467.695
49.4462
418.249
-292.919
-41.4393
334.358
799.469
17.5798
-817.049
-409.134
569.33
-16.3242
-248.75
265.075
-226.249
484.413
-365.69
465.467
-99.777
255.348
206.323
-461.671
493.398
-117.786
-375.612
429.789
-52.5133
-377.276
-430.222
-13.5878
443.809
-986.944
-31.572
1068.98
3.5053
342.013
237.653
-579.666
-247.832
549.317
-301.485
192.013
39.9428
-231.956
-429.628
379.865
49.7627
-398.144
399.182
-1.03783
311.421
-164.785
-146.636
-249.552
-56.6035
306.155
-699.266
16.5268
682.739
403.744
-81.9773
-321.767
-246.9
246.9
59.2466
-758.831
699.584
-668.57
73.4138
-947.205
848.246
98.9592
-323.746
-71.2195
-42.2545
233.157
-190.903
532.493
-110.399
-422.094
-644.364
-43.2112
652.246
-69.7195
88.9672
83.6659
-172.633
-361.574
103.136
258.438
-303.87
54.3185
848.246
-621.128
586.424
-613.397
26.9724
213.835
-88.2488
-125.586
-397.863
169.161
228.703
-36.1844
261.95
-225.766
-846.829
847.757
-0.928519
-40.9474
-150.796
191.743
296.766
4.68217
-301.448
-711.43
12.1641
-260.205
279.604
-19.3991
778.708
20.7616
434.509
-649.226
214.717
204.587
-209.77
-768.399
837.278
-68.8792
678.321
-712.295
33.9737
74.5817
577.664
943.818
-846.985
-96.833
-205.524
246.816
-41.292
193.74
63.1275
353.277
134.338
-487.615
1009.1
-256.889
-752.215
16.321
564.824
-581.145
-11.7796
-588.038
599.817
543.014
-201.001
137.548
424.473
-562.021
-302.397
404.947
-102.551
76.7029
-814.817
738.114
-701.71
453.878
-14.0304
-205.332
219.362
27.3548
-861.51
834.155
-327.079
343.633
-16.5544
-15.4271
270.776
23.8852
-891.275
867.39
-380.209
359.866
20.3423
-92.2762
-336.704
25.2707
-299.742
274.472
706.737
-787.811
81.0739
725.974
-860.306
134.332
-166.195
346.787
184.992
126.429
223.558
-207.985
-15.5729
304.479
-330.456
25.9771
-137.071
571.58
633.621
325.934
151.389
108.168
-259.557
272.031
-310.583
38.5527
213.093
-260.535
47.4427
-26.6339
323.4
-367.028
-13.1809
2.26862
-180.405
178.136
213.709
-53.1344
-160.574
181.126
827.977
-198.07
-739.273
937.343
-101.033
-396.668
523.153
11.442
240.551
-222.087
-18.4643
285.163
-218.262
-66.901
8.69558
-229.08
220.384
-397.877
644.519
-246.642
43.8597
517.578
-561.438
984.175
-886.872
-97.3034
790.793
-787.069
-3.72427
-569.577
-240.849
810.425
-145.143
721.988
-576.845
451.052
-442.609
-8.44286
-264.205
20.5343
243.671
9.94817
-753.114
743.166
-187.445
-212.546
-240.558
227.677
12.8809
241.343
-23.7976
30.5759
1020.84
-572.449
-448.393
735.192
-933.261
-396.081
93.6845
7.17105
206.538
16.623
-778.363
761.74
-90.3438
-856.862
414.692
-450.453
35.7613
-106.899
832.874
51.3705
-737.088
685.717
-239.327
-24.8783
272.031
22.1431
243.881
-266.024
-431.331
431.331
81.7091
681.099
-762.808
-309.676
49.4713
-580.596
596.917
347.916
-316.02
-31.8957
-777.826
-63.2628
841.089
-159.806
456.965
-297.159
468.098
64.395
430.865
-440.504
9.63894
274.639
-61.546
-185.394
-356.98
542.374
498.97
-380.335
-118.634
-327.097
21.758
305.339
786.923
-80.1861
-517.89
-83.0024
600.892
-660.968
660.968
-135.591
507.38
-371.789
97.7236
-317.781
220.057
-919.578
350.002
305.073
-354.75
49.6776
436.214
14.838
794.193
-459.835
-334.358
934.716
-88.2345
-846.482
70.6148
143.22
-847.779
614.936
232.843
-37.7048
284.663
-246.958
-200.571
224.382
-23.811
-48.2828
-486.864
875.9
-890.498
14.5981
-87.9379
428.47
-13.7786
790.019
-796.473
6.45399
244.431
-3.87995
37.0096
-242.534
822.114
-963.795
141.681
281.621
-336.469
54.8471
570.307
-570.307
899.93
-93.2087
-806.721
594.003
73.1233
-667.126
68.2201
-333.772
265.552
-214.345
288.005
-73.6601
-482.464
322.658
51.3513
738.668
-392.568
528.842
242.123
-171.508
-684.239
-176.068
485.277
-630.42
452.982
-500.424
47.442
-909.991
1047.72
-137.733
-578.366
555.212
23.1543
507.33
-581.315
73.9846
130.464
744.714
-875.177
211.106
530.911
-742.017
723.361
505.139
322.825
742.361
317.947
-230.495
-87.452
-290.945
290.945
370.077
-400.861
30.7844
-26.7897
1095.77
267.428
-320.335
52.9064
531.989
-488.13
-297.43
-562.371
551.18
-564.18
13.0002
-28.8016
904.702
261.327
-299.032
-243.266
203.728
39.5384
498.604
-587.248
88.6443
-197.428
959.174
-761.746
588.376
-81.0458
772.82
-381.668
-391.152
336.764
-48.107
471.966
548.877
-221.047
178.793
-743.828
59.5894
-947.834
37.8431
476.928
46.1749
-680.062
891.168
-710.197
-58.2018
179.915
-204.062
24.1473
-73.9859
915.329
-841.343
-38.0632
-817.787
855.85
176.824
-174.555
65.3666
165.204
-230.571
-6.24887
-365.709
371.958
332.556
-307.285
-617.726
219.848
-284.768
468.867
-184.099
908.577
-678.119
303.774
14.1725
300.445
10.8122
-311.258
-565.558
197.252
368.306
459.006
-28.1417
550.839
-736.233
-383.163
-14.9812
645.794
-746.162
100.367
-178.471
133.869
44.6021
-655.928
638.854
17.0745
239.332
-217.189
67.6426
174.48
-744.869
826.578
-344.637
339.745
4.89176
67.8803
-361.434
293.554
257.994
-200.133
-57.8604
525.4
-328.003
-197.397
12.3735
-345.561
333.188
-496.506
484.726
-91.5275
319.602
-228.075
-664.31
163.743
500.567
-357.334
-40.5297
653.599
6.05207
443.549
-20.8444
-191.879
46.4032
145.475
-22.9808
738.166
-715.185
-866.964
997.428
318.117
-154.471
-163.646
677.272
-775.037
97.7643
426.761
346.059
705.997
59.9826
-765.98
818.115
81.8145
569.359
-543.269
-26.09
1093.75
-1012.34
-81.4103
0.746541
-290.111
289.365
305.611
-5.1654
63.331
138.471
211.884
11.6737
198.717
-193.691
-5.02623
135.985
153.016
-289
-300.12
280.485
19.6347
-175.378
-294.961
470.339
417.456
-553.047
-314.723
199.657
-185.94
-13.7163
183.331
1010.15
-567.114
-443.037
525.472
-109.006
-416.466
173.035
505.286
82.6252
486.734
20.8367
-703.033
717.609
-14.5759
39.9128
-544.321
504.408
-104.97
-243.535
348.505
-447.004
38.4449
408.559
-140.025
-335.653
475.678
779.97
-1.26242
25.9459
188.004
-390.702
202.699
176.21
-267.738
-921.097
850.366
70.7314
-289.593
304.973
-15.3796
679.956
-91.7813
-588.174
1046.99
-603.799
-443.19
197.995
-185.317
-12.6781
222.67
-121.619
-101.05
-419.227
417.227
2.00031
661.451
-29.9414
-631.51
-698.38
-4.65287
381.557
22.1867
-591.204
471.239
119.964
586.33
-577.614
-8.71643
-855.761
44.4229
811.338
856.38
33.1959
-889.576
-423.825
283.8
-205.597
13.7179
-325.799
546.242
-220.443
-178.813
-64.4525
754.99
-793.053
-136.475
201.842
562.341
-181.568
-380.773
-123.236
-308.095
211.245
-210.893
-0.352323
619.605
41.8463
683.227
-608.645
27.4484
-301.337
273.889
838.408
-876.727
38.3196
-328.26
12.24
961.08
-963.863
2.78339
48.4518
231.498
-279.95
680.105
-34.3107
573.526
-591.805
18.2786
-826.601
853.956
198.204
-212.234
786.747
211.911
747.263
199.046
161.331
-360.377
-293.354
-4.59077
840.727
-93.5984
-747.129
588.459
-140.64
-447.819
259.379
-72.3912
75.9475
417.451
74.4048
-288.75
473.631
-503.644
30.0128
140.311
-346.509
206.198
137.321
388.079
77.9452
856.771
653.248
-773.078
119.831
-21.8962
982.976
-273.315
-38.7546
312.069
-208.925
220.899
-11.9743
39.5123
152.501
47.4508
451.519
334.359
-340.608
-378.073
12.383
-346.306
53.3879
838.317
-58.3464
64.285
-247.321
183.036
-969.249
21.4152
-933.361
-35.8879
-486.053
60.9529
425.1
-741.482
911.106
-169.624
-236.081
-20.0165
256.098
-136.078
-75.8734
211.951
-125.262
-77.6674
202.93
-176.02
237.513
-61.4934
853.474
430.52
-242.516
149.086
-11.2199
-567.146
-880.383
-40.7142
424.869
163.59
203.579
-529.378
200.841
-1107.26
906.416
14.1844
209.461
-223.645
5.08175
-205.652
417.382
26.1663
89.0323
701.761
286.839
42.887
-329.726
-472.837
610.385
728.953
72.6156
-801.569
-781.648
-6.16312
804.485
-857.105
52.6194
322.522
-283.338
-39.184
88.63
229.487
851.005
-864.876
13.8716
978.822
-862.14
-116.682
939.494
-943.958
4.46471
-419.369
-171.835
0.652637
-873.093
560.665
312.428
-173.564
159.599
13.9653
-246.885
382.87
138.177
90.4589
-228.635
752.493
272.098
-288.423
431.375
94.0965
785.187
-701.481
-83.706
-52.0909
-135.201
-62.9433
198.145
-301.932
261.031
40.9005
863.011
-839.126
-20.4772
377.36
-356.883
-357.134
-9.89395
573.526
-582.361
8.83521
363.953
-327.045
-36.9082
-828.677
731.282
97.3956
-905.911
831.926
142.776
79.8934
-404.139
275.147
128.991
465.591
-452.857
-12.7336
620.492
-622.579
2.08683
517.868
-44.2363
-361.277
-115.889
477.166
27.2685
-300.583
-61.1599
-250.779
311.939
544.291
563.937
-1108.23
-900.856
849.229
51.6277
3.04082
-403.476
416.864
-13.3875
430.255
-398.805
-31.4498
675.121
-852.871
177.75
712.416
-884.939
172.523
-500.368
-163.941
-466.948
81.577
385.371
300.859
-5.48004
-295.379
-325.696
200.434
477.275
89.0734
-719.775
-108.902
16.8413
181.876
-295.322
302.741
-7.41892
53.7951
-371.374
317.579
487.875
41.1481
-529.023
-239.869
300.662
-60.7928
-896.185
-19.6354
915.821
-150.741
-73.7941
224.535
5.42758
-853.224
847.797
804.699
-118.293
-686.406
304.047
146.985
-208.145
-874.863
-21.3224
808.943
41.4228
4.30421
557.145
-203.868
-525.514
-10.2487
535.763
-801.986
913.791
-111.806
312.242
-244.362
-409.013
304.043
-29.6219
590.547
63.0523
381.35
-241.039
275.384
518.809
-10.7146
22.611
341.342
-774.095
78.9309
695.164
455.509
95.6707
-101.466
-64.7743
166.24
-851.797
-23.066
62.9755
333.227
-184.314
230.243
-45.9284
38.6523
-278.522
-280.445
295.324
-14.8785
-16.4906
19.5672
-511.443
491.876
-612.185
-133.977
-17.1168
297.157
-280.04
-333.591
467.928
599.38
447.608
-1102.79
430.494
672.296
328.16
0.18532
-328.345
-188.512
-207.771
396.283
-523.944
559.446
-661.313
-20.2923
681.605
99.8635
78.5691
-178.433
-44.2605
799.25
839.888
-862.896
23.0071
807.315
-154.068
32.1186
-605.788
-319.924
-25.6377
556.754
57.6448
-614.398
434.755
24.2515
-347.793
389.201
-41.4083
-854.268
-3.64419
857.912
-27.8233
-823.973
313.319
-292.303
-21.0168
625.221
-4.72875
595.487
-426.178
-169.31
-204.142
291.02
-86.8771
-71.0145
-307.058
-417.488
-50.2069
897.766
-185.349
-830.83
89.3483
-629.061
16.8765
-536.387
46.2362
490.151
820.542
-39.618
-780.924
-279.047
103.027
5.33177
-356.398
351.066
866.547
-191.426
304.497
-3.63736
636.906
-63.38
494.305
-6.42991
801.285
-712.253
-1045.15
-57.643
444.023
21.5682
546.47
39.9539
722.004
-712.056
796.915
-38.8532
-758.062
186.578
-227.526
270.794
-9.7626
-117.385
213.631
-204.935
474.828
15.1163
-489.944
575.054
-92.2227
-482.832
-457.312
420.877
36.4351
128.772
672.513
14.3397
-82.3225
-769.376
851.698
56.9134
-673.04
616.126
220.428
-299.196
78.7685
-736.259
653.936
91.6317
713.067
-504.415
1048.71
244.128
-179.842
-290.842
-192.558
224.659
-32.1007
197.64
-264.414
66.7734
-177.466
315.643
-8.62603
-348.508
-50.8644
4.26388
-408.686
404.422
-47.4501
-160.701
-193.855
-25.8341
363.182
-337.348
-870.863
944.455
-73.5918
45.4535
-527.801
482.347
63.9832
-272.908
-755.572
105.809
649.763
340.829
-251.577
819.41
1.13221
-8.48307
226.329
-217.846
452.402
143.085
-124.699
-342.249
816.507
-201.57
-95.2459
-914.19
603.001
-365.347
136.163
60.1169
654.986
-595.739
494.03
-10.129
339.209
-34.1363
338.076
-420.316
82.2403
225.362
-280.22
54.8574
54.1576
242.277
-296.435
336.082
-511.461
-7.85416
761.954
-806.215
537.175
-62.3472
-109.406
740.881
-631.475
-267.497
299.925
-32.4284
-71.0435
291.471
195.61
-188.439
-277.313
9.81614
-1070.11
594.738
475.372
-35.7914
-78.8908
167.858
-306.633
292.453
14.1795
-675.955
692.578
266.366
-270.978
4.61177
-488.405
193.445
-509.709
-560.401
232.673
-277.027
847.154
-946.584
99.4303
-342.402
22.4785
490.435
-625.65
135.215
-3.09647
812.04
254.341
-291.872
37.5312
-312.993
-560.1
-36.8386
291.354
-24.9879
365.923
-117.608
-248.315
-20.2252
-854.933
875.158
-873.119
467.299
405.82
-54.8982
735.997
-462.449
44.961
-147.575
-150.322
297.897
878.753
-839.185
-39.5684
387.929
-324.953
798.468
6.0179
110.098
75.1799
-185.277
-580.549
1024.4
-443.848
140.197
-187.342
47.1453
-759.051
-144.949
904
133.679
232.244
853.492
-31.3783
813.466
-736.763
499.905
-423.957
7.82173
-256.572
81.4366
145.459
-226.896
306.102
251.043
-18.4243
-1098.2
619.194
479.005
9.24301
891.74
-60.5334
-831.207
-430.389
621.441
-191.052
57.1084
756.358
21.4465
-546.961
-590.471
-18.0772
608.548
446.479
137.477
-583.956
-264.822
-522.247
277.784
61.4255
-172.89
-74.0106
-405.189
351.882
53.3067
-783.936
324.1
198.55
-259.117
60.5672
217.329
-263.79
46.4611
427.966
-423.702
737.026
54.0469
-791.072
-200.557
49.761
831.326
20.5073
-851.833
-380.978
31.9058
349.072
118.64
860.182
-405.676
455.122
410.419
-72.3438
-954.68
99.7798
854.901
789.152
102.588
-42.4013
267.764
49.6904
380.564
912.844
134.88
19.9135
-482.363
28.9303
-827.453
798.523
704.179
-777.042
72.8632
636.399
465.982
768.998
-56.0294
-712.969
188.77
-48.5734
75.749
338.962
-414.711
-735.281
792.39
298.021
167.445
-235.624
167.527
68.0969
-111.296
-426.683
537.979
-30.854
-209.704
1004.43
-573.932
40.9398
-277.021
208.251
-216.734
-107.814
-149.357
30.9462
820.058
-177.114
513.197
-611.173
769.201
-158.028
696.185
-719.166
-402.973
392.724
-443.382
-179.197
39.0514
348.567
-17.0879
-331.479
-46.2974
808.252
-505.254
-623.372
1128.63
286.831
-245.454
209.269
0.311477
195.299
-219.626
146.004
-885.412
909.089
-23.6771
-286.784
255.373
31.4114
71.7134
713.474
3.36077
765.637
634.247
-14.6414
-14.8752
-509.577
472.818
36.7592
933.113
17.1477
-950.26
-321.312
-59.6663
0.495709
-236.667
808.595
-71.5698
529
-622.984
93.9837
-762.336
-84.493
35.4352
287.087
901.619
11.2244
-489.747
440.041
49.706
-950.468
-94.6793
33.2577
-404.256
370.998
-208.85
248.022
-39.1715
253.074
-55.4333
-39.2045
1050.28
-313.204
-737.076
579.476
-50.476
65.7885
-259.142
-74.6296
-700.231
799.158
-98.9265
-44.0749
-28.0381
245.367
504.362
-5.75771
92.7819
-870.608
-81.9804
205.699
-123.718
-206.462
212.88
-6.41763
-681.76
570.463
-459.238
478.806
344.547
43.3815
-458.835
423.943
34.8921
567.661
442.49
497.889
-459.585
-38.3039
500.992
-315.3
-185.692
-212.169
47.3832
348.264
-20.3761
-327.888
-228.633
36.0748
-285.135
269.708
-219.065
-636.696
-691.735
-81.3429
256.858
-58.3084
670.128
196.419
7.07309
220.604
817.837
-82.7247
-735.113
327.787
-141.83
646.686
-504.856
264.251
-284.268
-85.6058
532.085
-751.352
6.48323
-82.9276
-95.5431
500.011
-100.392
796.362
-695.969
-191.202
229.811
-38.6089
-45.8006
-240.984
829.582
-737.95
216.046
-429.722
-415.48
845.202
869.207
-199.079
-44.9931
802.973
-757.98
597.209
-6.66174
17.4773
-607.949
277.686
152.261
-429.946
-403.48
479.229
-26.1724
-312.472
338.644
-615.752
64.214
551.538
-142.643
537.317
-394.673
-484.374
406.886
-481.58
74.6936
104.214
-168.635
64.4204
-156.075
355.121
-183.371
-199.792
740.459
-36.2803
102.175
581.052
-610.921
648.613
-37.6923
269.303
-286.42
-811.436
-51.4597
96.6441
-432.297
590.118
460.162
-615.699
172.317
425.298
-855.02
414.488
-681.825
28.6404
653.184
-224.502
273.764
-49.2613
-816.309
886.689
-70.3809
-47.2326
-431.92
479.153
1005.36
-405.659
-599.701
-66.9821
-790.123
5.4696
307.85
-950.451
207.441
743.01
-857.67
-92.7809
-168.514
-5.04991
-777.774
731.477
-138.675
-302.67
441.346
-3.63938
-271.95
275.59
160.025
647.291
263.245
153.341
-416.586
-902.86
154.557
748.303
541.051
-580.793
39.7416
604.517
58.5722
-663.089
-45.9716
673.248
-639.93
-33.3183
351.728
-23.5674
-44.664
243.919
-199.255
608.547
64.7008
12.1786
-793.827
721.528
-777.557
-175.365
256.802
330.565
170.427
151.75
-335.121
199.403
-201.97
2.56629
336.347
-197.043
-139.305
592.284
41.9622
-749.752
801.861
-52.1091
-442.199
-81.0815
523.281
-3.89964
-291.423
270.46
68.4231
-338.883
241.236
-94.2692
-146.967
418.021
-465.253
-61.7112
-740.274
-409.861
123.947
134.047
539.682
-457.752
-81.9293
-234.308
248.492
-193.458
187.239
6.21935
50.3114
-256.671
206.36
-320.652
377.306
-56.6536
221.919
-25.6468
-196.273
450.48
554.88
-254.418
555.274
-473.537
135.96
-189.608
53.6476
-192.147
-25.5153
217.662
701.236
-96.7189
230.564
-162.922
-357.083
268.809
88.2748
-417.324
-43.972
461.296
-351.653
448.297
303.514
-323.692
20.1781
-13.2343
25.0853
474.819
462.473
35.416
62.4117
-479.735
219.985
-16.2571
-332.93
-9.47176
-365.882
298.412
67.4703
339.404
-61.6208
676.972
220.793
-236.924
287.235
-283.505
305.263
126.188
650.016
-776.204
-738.531
-24.5552
763.086
25.1654
190.088
16.7686
-337.421
-690.577
621.028
69.5488
107.59
-200.183
163.857
36.3266
438.351
-160.665
-246.125
-190.296
436.421
-160.519
-349.058
215.154
-15.7507
-285.769
138.194
98.3805
-180.361
-1009.52
696.316
-346.206
346.206
851.485
242.263
-35.1117
-509.078
-500.443
206.965
327.901
527.801
42.5064
543.487
-49.1817
288.8
-266.319
-22.4809
-629.256
661.98
-32.7232
-50.3616
-531.31
-49.2855
-632.174
737.874
-105.7
83.3814
-492.515
-352.426
539.271
4.2158
537.843
37.8337
-575.676
750.855
-646.574
6.64471
-95.665
-93.0962
188.761
-390.788
105.653
307.109
-30.1412
-276.968
-137.825
-67.7719
-298.148
286.57
11.5787
-305.327
101.185
872.081
-195.109
-340.318
40.576
770.034
-2.81903
-767.215
584.103
-658.766
74.6626
-922.87
830.389
92.4807
-21.8363
-639.477
110.491
294.456
-20.6098
-259.606
280.216
-806.681
47.8505
-200.486
-285.987
265.378
-465.871
511.324
-260.459
283.563
-23.1045
-296.77
301.891
-5.12107
-815.538
706.132
995.968
-148.814
-182.303
320.16
-271.709
358.337
-197.007
439.051
-324.352
-114.699
284.1
55.3041
817.096
-80.242
-736.854
184.881
-681.387
-765.029
683.881
81.1483
6.34835
-616.722
625.385
-8.6636
58.159
172.405
-105.984
523.44
-261.842
310.692
-48.8505
378.652
-457.725
79.0725
-608.472
648.982
-40.5104
586.404
43.2478
-629.652
255.172
-216.963
-38.2083
557.714
-26.9287
-530.785
191.581
-83.4121
-108.169
-96.6826
-42.7398
139.422
961.507
-951.942
-9.56491
-575.484
-388.31
-45.1779
-760.649
805.827
-897.623
834.361
-612.381
378.1
234.281
605.006
-623.083
-10.1184
678.682
-668.564
57.4738
111.574
-169.047
-73.6069
-297.767
-855.992
-66.8776
15.4736
364.391
334.017
-739.677
214.134
5.85075
-223.12
223.12
391.337
-99.5345
-291.802
-911.402
25.99
-2.3564
-19.5128
-484.288
503.8
-753.84
-80.4239
486.368
-405.944
-252.363
-408.605
430.538
-9.66093
-45.6709
255.132
152.522
183.825
-552.506
395.51
-163.872
427.117
337.049
-52.949
763.957
-712.586
-282.759
-4.088
269.725
-946.906
-3.56174
5.61967
927.493
532.017
-448.635
-851.37
578.846
272.524
17.0901
253.852
-270.942
350.489
-12.2957
-338.193
-460.729
30.3397
-836.142
749.867
86.2748
-122.253
-199.058
219.557
51.0287
-270.586
212.61
124.439
-800.984
17.787
-581.967
340.178
241.789
42.3601
262.119
358.973
-323.387
-35.5857
-405.739
419.428
-13.6886
847.398
-513.381
-454.78
312.95
-316.503
188.106
128.397
423.364
-720.794
568.26
-27.209
811.233
-807.873
82.0911
109.49
-831.488
816.455
15.0335
-795.524
45.7723
-472.164
-527.852
1042.66
-186.279
931.08
-835.195
-95.8856
-521.123
-463.309
984.432
-47.6844
-252.435
37.3298
222.81
-226.035
3.22456
-21.3538
-56.0519
733.324
471.892
-39.9091
-431.983
-347.126
-218.432
33.0848
-54.9985
-281.47
-166.721
444.501
-277.78
-926.002
926.002
92.0673
-798.387
464.03
-510.183
68.9792
441.204
-210.337
-193.801
184.395
-175.824
-376.682
-563.339
387.515
607.753
53.455
187.781
428.281
-929.09
500.809
-49.5432
336.382
-226.433
-259.621
-210.098
437.302
-106.737
-177.895
-138.608
-65.4633
-835.393
452.298
-517.836
65.5376
18.6826
-707.484
790.38
-82.8961
415.646
-418.729
3.08382
243.26
-565.834
529.68
36.1531
61.388
137.503
-198.891
191.22
-235.884
378.949
-708.776
329.827
110.531
758.324
143.24
248.097
-68.4338
-491.841
472.328
290.954
-304.675
13.7216
416.048
-37.3952
353.463
-379.298
-19.8566
-367.302
387.158
-39.3926
-291.063
338.356
14.7946
-353.15
-446.18
279.459
-385.566
36.137
631.219
-749.512
-409.145
530.348
-311.591
-91.8858
976.631
-866.1
-492.811
-312.264
805.075
291.117
33.2068
290.842
-324.048
-444.838
158.414
-280.667
-51.4609
450.075
-563.49
113.415
47.4084
613.56
-201.218
105.553
349.157
-306.797
708.735
-329.786
273.62
-170.484
23.2496
364.349
-387.598
-26.5625
-289.633
-11.7044
-249.167
247.658
1.50875
3.79298
568.325
-546.879
55.6143
-891.582
113.219
802.271
-3.803
327.393
-114.783
525.497
328.695
-854.191
598.381
239.936
678.241
-778.633
-765.067
108.209
656.858
296.046
63.6664
-359.712
180.27
-172.627
-7.64349
38.0958
274.79
572.967
-209.161
63.885
145.276
-156.478
-607.189
763.667
-335.333
366.996
-31.6623
-279.799
284.845
-5.04646
-146.825
-173.51
-254.088
204.978
49.11
920.103
-920.103
-86.9696
726.972
-640.003
292.778
-204.148
343.327
-68.1797
-658.432
186.845
25.9957
-212.84
14.9222
-586.226
571.304
50.9058
-275.372
224.466
908.659
-914.263
5.60448
301.555
-674.738
373.182
364.905
-331.647
50.2638
308.709
-350.735
876.232
556.719
-106.644
-71.716
-238.867
-399.122
315.928
83.1935
226.831
-344.617
327.999
-500.182
172.182
-273.394
48.8915
-873.308
-73.5985
33.9732
-741.457
339.731
-170.571
796.369
-773.272
-23.0975
431.491
61.7577
-493.249
-685.395
610.57
74.8246
-276.446
219.702
56.7441
318.266
-27.3126
-425.994
-254.764
886.432
-841.108
-45.3247
-357.324
658.879
115.2
-557.399
-865.282
11.0143
-51.7273
-609.857
661.585
48.3487
-142.219
-93.4045
-920.342
395.051
525.291
183.826
3.41335
448.184
-32.5386
543.451
284.186
-277.633
-6.55371
-332.678
-5.58791
338.266
-566.666
465.723
19.894
-239.25
219.356
226.823
-39.9781
-108.239
379.98
-271.741
-352.054
4.26079
433.344
-9.40041
51.0484
-813.407
762.358
-664.232
664.232
85.1074
179.144
-96.671
-506.944
603.616
-854.506
938.127
-83.6213
741.157
55.2125
-14.0952
-834.603
848.699
322.455
-339.408
16.9532
323.696
12.1831
-335.88
585.283
-636.651
51.3688
47.2483
327.772
-375.02
-220.53
-128.469
348.999
188.711
-8.44017
109.151
-711.731
602.58
-760.052
267.241
345.074
-311.868
793.722
59.7703
-77.1942
-432.989
338.98
-391.493
-682.61
104.16
578.45
334.776
-294.897
-39.8786
-529.677
617.549
-87.8721
-81.4537
-362.557
444.011
404.367
-381.756
-605.083
-315.259
619.873
-722.982
103.109
-410.186
-441.184
837.872
-39.6694
-645.726
97.2617
487.004
-584.266
563.536
-644.639
81.103
47.1955
-265.458
11.1134
-692.938
-316.221
321.552
-12.7225
570.363
-692.663
122.3
-344.458
-430.578
5.97083
-686.286
697.678
-11.3916
763.047
-164.666
645.07
-102.496
-542.574
236.887
302.794
283.067
-294.348
11.2809
807.727
-935.849
128.123
-664.007
-101.06
-317.647
55.8047
-326.718
59.322
267.396
-55.2115
640.494
106.951
-279.919
172.968
356.247
-334.521
-21.7261
-370.03
-211.937
-26.2183
206.133
-39.2533
-164.809
227.638
151.586
-379.224
-269.856
317.846
-47.9902
592.72
-689.391
20.7469
286.362
-292.215
-34.5032
-303.049
-309.332
-711.285
540.773
170.512
-112.77
-145.232
-153.511
65.2624
-576.651
536.085
40.5656
576.95
-1098.07
-23.4672
-1014.94
-140.922
376.299
61.0032
-21.4395
-51.3462
-761.65
130.175
858.993
-853.566
617.327
-76.5545
1.85766
589.211
-591.069
-291.821
-159.387
451.208
-63.3147
-213.132
14.1415
185.031
-211.538
26.5073
-996.921
243.807
449.32
-121.321
19.554
-627.843
608.289
299.614
-364.74
32.0306
332.71
66.1151
573.703
-639.818
-100.485
773.934
-673.449
-669.681
-195.195
-739.501
37.8991
701.602
-24.0848
579.668
-555.583
929.816
-920.832
-8.98384
571.636
-623.363
-611.178
-23.4006
634.579
-393.497
123.641
283.345
-281.798
-1.54648
801.838
-772.908
-95.6026
730.666
-635.064
456.293
16.5247
-433.107
-669.544
604.125
65.4186
399.933
-92.0142
-563.914
-60.6624
-10.0488
-398.637
-44.7753
243.267
-198.492
17.6141
327.46
-358.596
362.831
-4.23458
750.105
-795.283
91.5218
164.576
208.923
-219.976
11.0533
684.173
-775.201
91.0278
-331.088
-700.619
0.387401
796.388
75.6936
290.379
120.04
814.05
-17.6627
-32.2143
-1029.82
168.306
3.92679
24.9083
-569.229
150.001
-92.5276
-1082.37
-254.7
274.594
76.4563
216.322
-107.269
-467.072
574.341
-2.33514
-477.347
479.683
838.902
-31.1752
569.956
75.1147
-60.5332
-219.79
280.323
754.645
-799.638
-165.095
392.733
-416.079
447.197
-31.118
-679.393
722.922
-43.529
304.241
-329.471
11.6904
388.218
-109.535
-278.683
179.207
-510.922
465.656
45.2656
3.42055
-459.089
466.624
-7.53484
613.484
-596.006
46.224
-173.677
605.168
-289.747
57.3629
440.338
39.9805
608.604
-648.584
-63.3387
-156.657
223.284
-3.58138
33.208
-385.727
20.9868
-416.216
0.136745
248.032
-249.757
1.72482
711.186
-682.546
-482.766
82.2875
400.479
-42.1292
626.233
-48.4809
-208.191
914.253
-141.723
-772.53
518.882
537.492
-1056.37
-308.567
-6.14042
288.185
4.26812
10.293
270.192
-697.468
-6.63423
704.103
592.376
-748.854
-221.636
186.725
34.9117
-541.648
-4.26936
-668.77
30.1584
105.802
-136.23
-427.95
-108.147
215.098
22.7561
-645.59
622.834
-37.8173
-497.989
535.806
-272.948
320.196
-69.1779
625.931
-733.622
755.674
-22.0521
217.622
-482.444
279.097
-280.696
1.59883
5.46138
-840.428
24.8903
257.269
-477.798
921.367
-932.748
11.3817
638.185
12.0709
-650.256
-48.174
-543.631
-807.259
840.455
143.833
-206.777
897.666
-78.2565
234.385
-11.5749
-60.498
-716.04
776.538
-89.9149
-596.371
-35.8005
573.643
-687.947
23.9401
200.768
-242.297
41.5287
-230.71
-0.354635
231.064
-556.754
533.486
23.2675
-172.714
76.0312
45.5708
98.287
-143.858
-880.26
314.221
17.2341
-331.455
54.88
637.921
-692.801
-336.319
375.272
-38.9536
-663.68
-24.2669
-658.496
784.684
-897.098
127.88
769.218
-141.985
-167.691
-443.148
62.8131
-457.334
-618.082
274.593
-2.4943
-284.328
287.199
-2.87095
159.1
-97.7122
-420.505
392.562
27.9426
-954.915
972.062
-320.103
109.918
210.185
97.3837
52.6177
526.88
870.405
-890.63
276.309
-46.8215
388.878
-531.521
-790.112
811.841
-21.7284
-351.228
-196.6
547.828
127.668
-164.396
36.7279
424.516
-530.5
759.805
-691.988
-67.8167
-262.595
-45.9722
359.058
-88.5982
310.802
-290.055
327.291
-652.012
-17.5316
5.68692
633.167
-350.871
99.2936
20.6296
-891.493
550.588
-386.845
608.137
368.494
422.645
7.89292
744.706
-805.204
-38.7433
-6.67258
827.286
70.3803
420.969
-499.624
78.6552
239.91
-190.046
-49.8639
-198.773
237.442
-38.6685
-1.00427
338.328
-337.324
-618.749
658.73
432.886
256.204
-210.509
-45.6949
354.671
524.082
311.941
-332.317
724.799
92.2973
84.8524
-607.638
522.786
639.49
-35.3644
34.8651
-930.887
114.286
816.601
192.776
-266.57
-246.106
-793.214
732.281
60.9329
5.07713
815.157
-820.235
934.819
-934.819
-376.313
17.717
602.814
36.6756
-109.041
-43.4046
-189.755
233.16
437.274
27.5327
-464.807
-431.938
18.1408
413.797
190.113
972.174
-453.293
-217.34
34.1251
183.215
-627.772
630.582
-2.80995
459.359
-471.986
12.6265
-430.319
-1.61912
36.2384
-770.673
734.434
-635.699
-66.0107
-547.97
518.304
29.6662
-392.672
321.657
41.5295
-252.957
211.428
-174.988
-145.115
-27.0732
238.031
-14.747
32.6733
329.766
-286.879
-71.0422
791.598
363.864
-49.6435
-770.172
31.6408
-890.016
814.45
75.5658
128.527
298.021
353.243
189.771
-759.775
859.367
326.271
200.371
-526.642
-159.181
594.424
-643.983
49.5591
498.293
56.7554
-555.048
653.515
-355.235
-298.28
-494.601
-118.795
-784.487
684.001
22.9251
-690.636
667.711
-711.198
108.478
602.721
-761.239
17.2445
49.2488
508.389
-87.4206
-532.233
355.118
573.699
-597.784
-35.2998
-63.404
219.031
-155.627
77.804
-709.978
-228.364
-222.262
158.858
-25.843
290.994
-110.866
-180.129
182.847
-5.22441
-638.869
717.8
-49.4203
221.172
-171.752
869.858
-630.71
13.9878
145.858
203.299
0.987671
397.276
-398.263
-219.924
-210.891
430.815
180.915
763.54
378.441
-355.191
-843.965
7.82302
626.379
-609.853
-1.87229
-822.412
824.284
589.508
15.9528
-605.461
855.381
47.947
-903.328
304.783
-2.89147
117.735
-409.556
425.094
8.2492
-254.246
333.841
-79.5954
185.128
380.651
-90.2716
610.382
-53.6309
-556.751
-759.962
788.503
-28.5407
12.3122
662.467
-674.779
-647.59
117.913
-4.72429
-441.942
615.476
34.0652
322.182
-28.3572
181.413
-81.5497
-333.968
1.29024
95.9324
742.969
1.99261
-275.15
273.158
-424.933
-504.157
-57.4188
-757.78
815.199
276.515
-45.0174
188.693
-274.964
86.2715
177.446
-93.1611
-216.046
-516.873
-581.326
-792.297
-19.1389
-158.509
-815.745
776.436
39.3085
-34.1691
469.131
-434.962
59.7795
821.331
-881.11
189.691
-144.12
776.925
24.9358
-240.055
196.651
19.148
-303.003
283.855
575.692
-573.834
-647.736
105.273
542.464
-592.921
587.399
5.52207
27.0473
256.02
-665.311
-441.946
608.526
45.7637
-654.29
-721.945
606.74
-679.194
72.454
-131.868
-77.2931
449.744
-484.134
-847.401
852.478
109.245
-308.179
-588.92
-642.218
593.183
49.035
173.311
-69.0971
-42.657
465.78
187.736
-578.023
66.5802
514.428
-526.401
11.9724
73.4749
-717.625
644.151
264.168
-16.1359
-306.248
163.959
142.288
-577.622
615.456
-136.484
498.046
-361.562
681.369
-86.9454
-1.21283
-315.039
316.252
-447.189
-442.712
889.901
-147.185
265.031
-117.846
-104.326
-578.284
-592.19
440.008
152.182
410.775
-47.7983
-362.977