/*--------------------------------*- C++ -*----------------------------------*\
  =========                 |
  \\      /  F ield         | OpenFOAM: The Open Source CFD Toolbox
   \\    /   O peration     | Website:  https://openfoam.org
    \\  /    A nd           | Version:  7
     \\/     M anipulation  |
\*---------------------------------------------------------------------------*/
FoamFile
{
    version     2.0;
    format      ascii;
    class       surfaceScalarField;
    location    "8";
    object      phi;
}
// * * * * * * * * * * * * * * * * * * * * * * * * * * * * * * * * * * * * * //

dimensions      [0 3 -1 0 0 0 0];

internalField   nonuniform List<scalar> 
43924
(
-594.918
664.485
-69.5668
1061.87
-1071.85
9.98633
-335.385
383.065
-47.68
230.442
-259.929
29.4875
-498.769
498.769
224.602
-266.169
41.567
-361.659
362.798
-1.1385
23.0731
-559.813
536.739
663.148
-833.25
170.102
-1009.24
1102.22
-92.9786
551.004
-140.046
-410.958
-530.272
537.064
-6.79152
-687.941
582.719
105.222
-859.823
868.886
-9.06301
262.032
53.7897
-315.822
386.418
-10.6284
-375.79
814.7
-666.835
-147.865
-396.845
393.825
3.02004
161.519
314.768
-476.287
291.306
-358.132
66.8254
-594.144
81.6402
512.503
724.226
-61.0779
50.3754
-385.761
136.637
-489.738
353.101
240.252
-134.071
-106.181
1066.66
-4.79001
659.929
-681.088
21.1587
-275.229
-8.66012
283.889
295.292
-33.2599
-440.732
543.852
-103.12
949.776
-249.716
-700.06
-666.996
754.967
-87.9702
239.663
-226.785
-12.8782
477.097
-66.9952
-410.102
138.426
-413.655
270.276
-431.397
161.121
426.398
-577.921
151.523
292.15
-35.9144
-256.235
823.652
-977.795
154.143
1060.69
-237.037
-1018
1035.59
-17.5834
405.318
-95.6652
-309.653
703.998
110.703
194.405
-307.15
112.745
1228.46
-777.694
-450.765
-591.338
150.606
540.038
-538.71
-1.32804
230.518
645.501
-876.018
223.638
537.316
-760.953
-112.193
538.592
-362.948
162.092
200.855
-17.2928
-224.405
241.697
-661.23
-5.76602
241.144
-16.5419
424.721
-38.3025
-264.343
-58.7791
323.122
525.276
-500.142
-25.1332
-34.2253
-559.918
-461.954
39.4303
422.524
-300.149
-22.3999
322.549
799.525
17.5774
-817.102
-409.171
570.69
-17.2571
-229.555
246.812
-212.611
482.887
-314.144
432.514
-118.37
262.815
244.981
-507.796
497.641
-128.845
-368.796
428.182
-46.0122
-382.17
-452.71
-31.7384
484.449
-986.559
-31.4433
1058.84
7.82197
291.793
291.71
-583.503
-241.136
545.872
-304.737
167.16
88.3105
-255.47
-432.827
382.426
50.4001
-364.321
370.931
-6.61019
284.995
-154.99
-130.005
-251.58
-62.6877
314.268
-699.313
16.5492
682.764
408.77
-96.2875
-312.482
-257.201
257.201
92.1508
-763.99
671.839
-660.805
65.8865
-947.225
848.215
99.0098
-310.646
-51.0138
-38.5258
205.285
-166.76
522.115
-144.241
-377.875
-644.615
-43.3255
652.56
-69.8411
104.464
79.7791
-184.243
-352.983
85.6258
267.358
-312.098
60.518
845.154
-621.516
558.75
-587.435
28.6846
231.111
-98.9038
-132.207
-354.646
126.33
228.315
-15.5594
247.999
-232.44
-846.663
847.301
-0.637974
-26.1643
-164.384
190.548
261.798
10.2136
-272.012
-711.461
12.1485
-268.675
284.986
-16.3111
778.753
20.7717
425.363
-626.122
200.76
202.407
-219.7
-752.749
811.887
-59.1384
638.088
-718.892
80.804
74.7192
577.841
943.856
-846.971
-96.8856
-222.508
236.783
-14.275
201.747
37.9159
351.794
115.265
-467.059
1009.09
-256.883
-752.205
19.51
563.182
-582.692
-13.3451
-587.052
600.398
538.847
-247.053
98.5251
428.351
-526.877
-303.541
408.982
-105.441
76.7632
-814.83
738.067
-697.307
456.171
-20.9081
-184.643
205.551
17.3999
-853.704
836.304
-297.523
310.693
-13.1703
-39.9403
302.756
24.169
-890.579
866.41
-346.836
329.068
17.7682
-86.6534
-310.192
5.37451
-280.466
275.092
702.652
-786.116
83.4642
726.229
-860.265
134.036
-142.078
336.483
172.916
112.078
193.135
-206.368
13.2329
275.684
-297.524
21.84
-125.312
550.675
622.526
327.25
152.837
68.1852
-221.022
278.75
-318.546
39.7963
198.937
-225.09
26.1532
-30.2653
292.063
-335.882
-10.9541
1.28395
-190.517
189.233
227.772
-65.6628
-162.109
181.122
827.966
-198.077
-739.277
937.354
-101.203
-397.566
522.688
17.3501
222.83
-226.657
3.8266
247.888
-201.927
-45.9605
10.4636
-218.795
208.332
-394.445
628.428
-233.982
54.9882
504.262
-559.251
984.038
-886.296
-97.7412
790.968
-787.102
-3.86616
-571.116
-239.904
811.021
-146.296
722.158
-575.862
457.084
-444.114
-12.9697
-211.689
-5.46209
217.151
38.0595
-765.583
727.523
-162.932
-200.016
-250.451
236.216
14.235
241.506
-11.0642
30.9489
1020.89
-572.445
-448.449
735.196
-933.273
-401.029
97.4884
18.3468
209.425
16.4141
-778.188
761.774
-90.4038
-856.821
418.605
-452.98
34.3755
-106.573
832.802
55.387
-736.084
680.697
-208.834
-2.85483
278.75
-4.50047
243.562
-239.062
-433.237
433.237
83.2668
678.847
-762.114
-316.95
48.2756
-578.92
598.43
315.758
-287.494
-28.2634
-777.837
-63.2737
841.11
-139.971
443.293
-303.322
430.152
91.9631
428.08
-443.892
15.8123
235.307
-36.3699
-215.752
-320.187
535.939
502.193
-381.814
-120.38
-328.936
16.2056
312.73
784.752
-82.1003
-521.694
-78.0811
599.775
-661.134
661.134
-123.564
500.315
-376.751
94.4615
-347.962
253.5
-920.119
349.002
307.464
-359.86
52.3962
437.023
20.0606
812.664
-498.449
-314.215
911.403
-60.2483
-851.155
79.9034
151.207
-846.996
613.974
233.022
-18.0777
256.136
-238.058
-215.17
220.976
-5.80641
-40.719
-489.553
874.63
-890.015
15.3847
-55.9974
430.216
-11.6113
787.496
-789.968
2.47261
245.563
-22.7326
13.2049
-235.713
822.139
-963.831
141.692
241.851
-343.84
101.989
570.82
-570.82
899.947
-93.2534
-806.693
594.361
73.0593
-667.42
51.8198
-325.076
273.256
-198.636
266.248
-67.612
-468.685
328.714
54.4823
733.013
-393.225
529.862
261.497
-181.594
-683.901
-176.364
484.23
-630.525
453.827
-501.474
47.6462
-892.756
1026.1
-133.342
-581.258
555.892
25.3658
505.393
-582.671
77.2782
128.41
728.591
-857.001
211.376
530.629
-742.004
723.333
505.127
321.776
738.913
328.203
-232.835
-95.3676
-297.396
297.396
371.508
-402.597
31.089
-28.5918
1087.43
270.926
-324.97
54.0439
529.607
-474.618
-297.43
-562.393
551.883
-566.204
14.3202
-29.5921
904.222
252.215
-270.292
-203.713
191.017
12.6962
499.16
-587.976
88.8168
-197.789
958.99
-761.201
588.914
-83.5208
771.255
-384.429
-386.825
340.038
-48.7314
472.014
548.879
-195.333
156.807
-743.857
59.9558
-928.638
35.8819
477.956
47.3193
-679.781
891.157
-688.34
-64.4088
192.366
-200.786
8.41913
-74.0173
915.149
-841.132
-38.0458
-817.796
855.842
186.939
-185.655
29.5571
169.277
-198.834
-10.1615
-366.071
376.232
318.144
-312.769
-601.187
206.741
-232.598
439.568
-206.97
908.537
-678.019
303.667
24.5352
269.439
13.7865
-283.226
-567.243
160.115
407.127
461.443
-33.3626
514.604
-730.357
-355.518
-8.80218
647.384
-746.15
98.7664
-231.868
157.442
74.4258
-656.36
639.017
17.3428
209.273
-213.773
77.0321
184.465
-742.323
825.59
-317.033
310.535
6.49872
68.107
-364.142
296.035
233.12
-209.525
-23.5956
526.987
-328.923
-198.064
6.64654
-347.266
340.619
-497.658
484.313
-68.7124
277.091
-208.378
-659.605
155.52
504.084
-347.607
-7.0382
653.894
6.03476
446.36
-21.6391
-161.309
8.93099
152.378
-21.4333
719.932
-698.499
-848.668
977.078
322.219
-148.131
-174.087
677.351
-775.154
97.8024
422.782
348.473
706.527
59.4424
-765.969
818.091
81.8555
543.52
-521.618
-21.9023
1093.7
-1012.3
-81.4037
6.25926
-298.397
292.138
277.326
-7.88654
99.1698
141.083
211.839
-18.7039
193.998
-202.895
8.89726
147.458
147.07
-294.529
-306.655
286.074
20.5811
-157.308
-296.974
454.282
421.493
-545.057
-322.289
195.279
-197.53
2.25156
197.555
1009.71
-569.003
-440.709
526.073
-109.185
-416.888
126.699
511.39
76.2214
467.299
18.2343
-688.23
710.763
-22.5329
48.7078
-548.986
500.278
-81.4921
-249.178
330.67
-449.664
39.4515
410.212
-140.693
-336.2
476.893
780.019
-1.266
22.1584
183.826
-366.822
182.996
162.101
-230.813
-920.592
848.825
71.7668
-299.215
306.304
-7.0891
665.787
-81.4472
-584.339
1047.03
-603.811
-443.218
193.467
-196.037
2.57011
265.199
-110.101
-155.098
-422.598
418.639
3.95848
663.984
-32.2934
-631.691
-692.21
3.97961
371.205
37.5644
-560.532
440.286
120.245
582.027
-578.513
-3.51407
-855.762
44.3854
811.377
856.366
33.1996
-889.565
-424.953
284.26
-202.81
41.5018
-321.634
524.077
-202.444
-172.332
-31.3812
754.997
-793.043
-148.674
178.231
530.471
-172.041
-358.43
-123.704
-309.533
224.48
-226.066
1.58588
619.519
44.4652
683.543
-608.824
18.5157
-302.054
283.538
837.147
-876.25
39.1033
-298.814
11.3197
952.994
-956.386
3.39155
45.7795
209.587
-255.367
680.294
-32.9101
566.775
-593.082
26.3073
-830.323
847.723
178.064
-198.972
786.249
212.222
746.768
149.225
197.606
-346.831
-301.164
-9.31054
818.425
-62.6803
-755.745
596.436
-129.025
-467.412
236.27
-74.1775
87.3156
410.325
67.6033
-266.24
473.926
-504.004
30.0776
143.352
-349.813
206.462
137.835
389.151
48.813
862.59
652.979
-773.341
120.362
-23.0616
976.056
-248.171
-24.4691
272.64
-221.64
207.187
14.4539
-6.98783
174.147
48.8899
453.304
335.409
-345.57
-354.372
40.2283
-335.528
35.379
838.362
-58.3422
65.5497
-233.741
168.191
-951.555
22.9177
-914.832
-36.7235
-486.114
54.9461
431.167
-729.145
897.534
-168.39
-197.783
-64.086
261.869
-107.857
-79.4187
187.276
-158.677
-42.1656
200.843
-129.021
228.934
-99.9128
853.452
403.384
-219.558
140.031
-13.058
-568.2
-878.816
-41.7763
448.052
148.384
187.497
-509.131
200.719
-1106.95
906.233
32.3966
199.726
-232.123
-16.1281
-199.042
419.29
27.0703
89.2067
701.761
284.034
6.13166
-290.166
-473.758
572.284
728.692
72.9409
-801.632
-777.299
-8.81691
799.572
-854.508
54.9363
286.003
-252.565
-33.4383
80.7847
241.434
850.686
-864.994
14.3076
978.834
-862.153
-116.681
938.972
-943.565
4.5936
-388.027
-172.505
-7.06545
-873.083
546.291
326.792
-188.618
162.904
25.714
-243.065
390.523
141.676
92.3001
-233.976
758.177
249.82
-267.077
431.795
94.2782
781.854
-694.441
-87.4126
-52.8676
-101.787
-94.3745
196.162
-310.759
260.644
50.1151
862.331
-838.162
-22.1887
380.594
-358.405
-326.83
-9.05166
569.381
-584.142
14.761
370.158
-327.468
-42.6903
-828.434
731.181
97.2526
-905.742
831.725
142.055
123.144
-407.225
277.638
129.587
469.24
-454.443
-14.7975
621.606
-622.686
1.07939
518.213
-44.2871
-308.687
-141.008
449.695
15.8284
-263.999
-76.5865
-244.981
321.568
544.283
563.925
-1108.21
-900.87
849.209
51.6605
-4.45505
-405.656
419.806
-14.1495
432.678
-400.169
-32.5087
670.855
-842.65
171.795
710.768
-880.506
169.739
-504.238
-155.367
-430.562
74.1398
356.423
307.069
-6.83771
-300.231
-327.392
168.715
473.999
77.0048
-719.666
-108.768
3.0361
190.962
-305.423
300.264
5.15912
51.3504
-341.223
289.873
491.226
38.8053
-530.031
-228.324
301.3
-72.9764
-896.2
-19.6398
915.84
-201.962
-33.5857
235.548
6.9105
-843.281
836.371
804.708
-118.477
-686.231
339.442
139.446
-216.033
-874.884
-21.3167
808.414
40.4114
-9.42792
536.506
-184.712
-502.881
-15.0447
517.925
-801.995
913.797
-111.802
314.446
-246.339
-392.422
310.93
-30.3742
590.78
63.114
384.931
-241.579
305.568
507.095
-15.7105
27.9301
342.228
-776.1
84.8818
691.218
457.193
94.6901
-133.496
-26.6617
160.158
-851.812
-23.0715
73.754
331.564
-202.913
227.811
-24.8972
52.5599
-280.884
-251.248
266.892
-15.6434
-19.4892
31.9411
-513.909
481.968
-610.756
-135.394
-25.1005
304.522
-279.421
-330.04
445.305
599.391
447.638
-1102.77
430.482
672.285
329.952
0.395551
-330.347
-240.88
-161.075
401.955
-525.066
548.139
-661.178
-17.7593
678.937
99.1211
92.4702
-191.591
-44.2452
799.242
838.557
-862.414
23.8576
807.557
-154.578
41.3472
-601.16
-327.669
-19.5968
556.831
57.8594
-614.691
441.67
19.7728
-350.008
394.404
-44.3962
-853.385
-3.83323
857.218
-27.8166
-823.996
289.465
-266.599
-22.8663
625.208
-3.60197
561.689
-402.438
-159.251
-221.713
275.021
-53.308
-94.3617
-260.01
-422.085
-39.8697
893.471
-182.703
-818.027
88.8827
-629.396
18.64
-541.104
52.1953
488.908
820.556
-39.6333
-780.923
-257.537
128.517
-1.85651
-356.047
357.903
856.477
-185.622
309.04
-1.9714
636.578
-69.8033
494.164
-2.93843
801.428
-712.221
-1045.13
-57.6401
445.318
23.9219
523.714
35.036
733.211
-695.152
795.742
-38.3642
-757.378
197.536
-223.7
277.214
-16.5696
-118.381
201.441
-190.978
475.005
15.7416
-490.747
576.88
-100.18
-476.7
-460.244
422.356
37.8879
128.935
672.493
-0.75857
-94.173
-763.914
858.087
86.4195
-668.934
582.515
229.517
-306.086
76.5691
-740.097
645.924
91.8051
712.903
-504.402
1048.69
229.211
-163.661
-265.683
-175.079
254.267
-79.1877
214.383
-261.931
47.5478
-181.118
322.794
-7.83496
-318.995
-51.2542
5.96435
-411.685
405.721
-47.587
-162.487
-195.644
-31.7933
369.633
-337.839
-870.847
944.47
-73.6225
45.5186
-528.247
482.728
25.2893
-246.93
-755.948
106.33
649.618
359.027
-220.601
819.403
1.15251
-3.12556
209.83
-206.705
428.032
133.657
-114.477
-316.085
815.724
-201.751
-95.1922
-914.046
616.595
-324.885
128.033
42.6496
654.695
-562.544
495.993
-18.896
343.731
-36.267
339.431
-421.916
82.4856
200.174
-240.303
40.1293
45.133
252.797
-297.93
336.345
-493.653
-2.44411
761.958
-806.204
537.912
-62.9066
-104.421
736.029
-631.608
-270.151
305.75
-35.5994
-67.7267
297.244
209.125
-190.779
-283.479
13.3286
-1055.96
585.092
470.869
-35.9105
-75.7773
180.241
-310.884
296.156
14.7289
-676.055
692.469
269.269
-274.243
4.97405
-471.213
174.239
-500.863
-555.098
243.307
-279.221
847.172
-946.604
99.4318
-344.388
16.7187
484.305
-627.404
143.099
-2.18692
810.601
229.463
-251.822
22.3599
-317.227
-555.856
-37.6937
294.67
-25.4008
337.344
-116.605
-220.739
-20.2945
-836.309
856.604
-875.113
487.232
387.881
-56.6117
735.459
-456.065
33.9803
-149.717
-118.714
268.431
875.186
-814.686
-60.5001
395.356
-321.602
796.281
3.29096
104.359
89.8703
-194.229
-580.557
1024.4
-443.84
148.045
-197.25
49.2052
-758.943
-145.003
903.946
131.463
205.881
853.522
-31.3827
813.474
-736.71
504.778
-417.462
9.11457
-238.67
38.6631
152.972
-191.635
307.916
228.59
-26.4231
-1098.2
619.199
479
7.61859
891.676
-60.5481
-831.128
-430.681
623.478
-192.797
57.1655
756.308
24.1873
-527.068
-590.549
-18.3925
608.941
404.334
149.939
-554.273
-264.689
-522.413
279.391
64.3401
-180.478
-76.7229
-406.836
353.158
53.678
-791.161
292.712
202.074
-263.492
61.418
224.577
-247.55
22.9727
430.963
-424.999
723.005
51.3385
-774.343
-204.319
39.9353
817.302
20.8573
-838.159
-348.48
11.3647
337.115
118.64
860.194
-411.348
450.778
411.896
-72.465
-954.409
99.6713
854.738
789.082
102.594
-30.7122
230.886
50.9079
381.77
892.809
133.289
30.2587
-486.324
28.6151
-826.653
798.038
694.893
-761.643
66.7495
636.274
465.942
769.018
-56.0326
-712.985
198.279
-50.2343
76.6394
339.623
-416.262
-735.23
792.395
255.773
176.741
-280.153
168.021
112.132
-111.142
-426.9
538.042
-32.6038
-217.847
1004.41
-573.924
92.7441
-290.527
199.92
-203.045
-101.509
-158.42
30.523
820.163
-159.412
495.757
-596.855
749.972
-153.117
679.113
-700.546
-388.737
373.693
-442.388
-180.297
39.6916
348.904
-10.2462
-338.658
-46.2847
808.243
-505.242
-623.363
1128.61
288.44
-233.277
217.717
11.1042
198.021
-254.139
120.068
-885.255
908.909
-23.6542
-265.995
255.894
10.1016
74.9573
706.897
3.36411
765.654
636.356
-16.8368
-15.1652
-513.497
470.443
43.0535
933.065
17.1555
-950.22
-309.815
-38.6653
-0.725487
-235.284
791.684
-68.6798
529.027
-623.19
94.1631
-761.822
-84.8412
30.6127
255.39
882.723
10.0856
-491.223
441.202
50.0206
-950.448
-94.6794
51.456
-382.801
331.345
-194.087
210.429
-16.342
245.251
-30.8679
-39.958
1050.31
-313.23
-737.079
579.651
-50.624
41.2202
-266.407
-58.6684
-690.29
768.386
-78.0961
-85.5405
-1.7817
226.359
504.955
-5.79552
92.7944
-870.631
-96.081
216.04
-119.959
-190.961
217.93
-26.9689
-681.809
570.667
-447.377
479.318
341.971
53.3853
-461.31
425.21
36.1003
577.287
432.426
498.686
-460.106
-38.5804
471.811
-308.15
-163.661
-193.115
38.1252
351.478
-21.8925
-329.585
-256.782
81.7027
-331.926
291.986
-219.026
-636.736
-691.487
-81.8547
260.992
-58.9177
658.961
197.517
6.93875
229.277
815.659
-85.6937
-729.965
329.289
-142.22
647.165
-504.945
235.465
-299.551
-103.551
507.885
-750.624
8.30097
-125.251
-106.617
500.003
-93.2018
779.058
-685.856
-202.604
217.542
-14.9382
-23.0953
-242.9
829.59
-737.784
224.597
-427.75
-403.833
831.583
859.529
-200.568
-43.5226
783.284
-739.761
597.461
-6.68048
17.84
-608.389
282.281
132.289
-414.57
-404.385
481.025
-20.6515
-319.768
340.42
-617.56
66.5192
551.041
-145.413
507.9
-362.487
-478.343
410.696
-483.809
73.1125
105.766
-182.079
76.3128
-187.515
336.74
-174.238
-181.28
725.057
-30.1639
102.336
581.207
-611.092
648.993
-37.9012
269.261
-294.361
-810.043
-52.3718
97.2803
-433.48
590.12
460.19
-615.826
173.438
414.817
-842.567
375.715
-681.916
28.6577
653.258
-198.781
241.074
-42.2922
-816.289
886.707
-70.4182
-48.7982
-432.321
481.119
1005.36
-405.6
-599.762
-69.6188
-784.889
9.00962
280.455
-950.471
207.416
743.055
-857.727
-92.7435
-174.798
-13.82
-777.764
731.48
-129.129
-293.614
422.743
-20.2331
-264.521
284.754
160.488
647.069
225.707
155.98
-381.687
-902.872
154.584
748.288
541.236
-581.02
39.7843
604.551
58.6064
-663.158
-43.7464
674.102
-639.852
-34.2499
353.74
-23.7882
-15.379
217.995
-202.616
608.315
65.7878
14.6716
-791.971
721.546
-777.578
-179.694
218.357
322.212
149.599
135.994
-310.232
205.385
-209.901
4.51582
343.824
-200.514
-143.31
592.058
44.2975
-746.713
800.681
-53.9689
-392.476
-108.321
500.796
-16.862
-288.561
249.942
49.2734
-299.215
253.358
-102.293
-151.065
418.459
-467.258
-61.7178
-740.278
-411.354
84.7943
148.326
497.796
-439.818
-57.9782
-227.467
259.863
-206.678
198.271
8.40742
11.9966
-218.093
206.096
-323.338
380.181
-56.8429
209.549
-4.14684
-205.403
450.432
554.93
-265.214
555.637
-473.996
141.556
-239.153
97.5967
-205.559
-6.71561
212.275
701.3
-96.7494
248.466
-171.434
-358.064
279.796
78.268
-431.02
-9.11343
440.134
-352.206
449.486
315.088
-323.597
8.50974
-18.4156
35.7127
469.065
462.922
35.7643
26.8751
-457.895
178.682
12.3353
-340.755
-3.63211
-371.965
297.183
74.7822
343.324
-63.9333
672.159
221.311
-233.531
245.528
-291.214
307.42
91.9339
660.184
-752.118
-735.793
-26.2538
762.046
26.0776
157.064
16.7813
-340.12
-690.739
621.144
69.5955
130.88
-169.767
171.739
-1.97201
423.976
-141.695
-238.823
-170.327
409.15
-167.507
-345.989
223.091
-17.7056
-257.179
107.462
90.3227
-186.404
-1009.55
696.319
-348.558
348.558
851.454
242.248
-35.3285
-509.108
-500.442
211.31
325.754
528.247
42.5735
546.592
-52.4278
258.024
-237.746
-20.2781
-629.467
662.428
-32.9611
-50.2544
-533.043
-45.8776
-639.559
709.582
-70.0229
84.6147
-493.785
-353.387
539.515
7.07661
526.765
14.2417
-541.006
746.04
-647.641
7.78837
-117.823
-61.1283
178.951
-418.048
86.1223
314.404
-34.6946
-279.71
-158.189
-44.6215
-303.757
290.543
13.2138
-290.368
68.6556
868.18
-196.02
-332.684
52.2179
767.225
-0.825244
-766.399
584.211
-659.126
74.9145
-922.849
830.369
92.4799
-24.2637
-636.914
109.936
299.046
-24.4904
-262.013
286.503
-779.324
15.3344
-205.096
-292.808
268.318
-466.243
511.762
-232.896
254.944
-22.0475
-306.09
299.397
6.69294
-808.712
704.291
995.987
-148.815
-163.297
291.752
-245.972
363.246
-165.64
406.143
-305.737
-100.406
288.993
54.3312
811.439
-95.2823
-716.157
184.019
-681.677
-750.146
665.943
84.2037
5.28354
-617.595
623.713
-6.11805
67.0711
181.395
-95.3336
516.827
-273.134
289.36
-16.2259
379.369
-458.554
79.1849
-608.714
649.324
-40.6105
585.347
44.811
-630.158
240.547
-224.161
-16.3865
555.82
-23.089
-532.731
240.31
-129.051
-111.259
-132.511
-50.1557
182.667
952.856
-943.986
-8.87068
-575.503
-388.328
-46.8346
-754.8
801.634
-897.648
834.374
-575.009
354.56
220.449
605.124
-623.517
-16.6786
671.122
-654.444
16.7683
150.398
-167.167
-69.1265
-272.097
-855.97
-66.8787
15.4571
366.969
334.104
-739.704
197.227
-18.5451
-231.536
231.536
412.698
-150.016
-262.682
-911.202
25.9473
-3.52932
-29.6983
-474.267
503.965
-753.69
-80.748
487.365
-406.617
-252.419
-408.715
433.168
-10.8113
-60.8486
260.575
156.861
186.964
-538.91
398.865
-172.248
397.955
340.639
-51.6464
762.151
-706.764
-284.955
-9.13157
271.313
-946.887
-3.56054
5.60711
927.457
533.393
-448.778
-831.935
571.874
260.062
-3.25296
263.075
-259.822
350.212
-4.86152
-345.35
-462.543
31.8628
-834.5
748.232
86.2675
-133.649
-176.165
195.628
34.2376
-229.865
213.194
127.445
-800.995
17.8015
-592.213
322.181
270.033
40.9475
234.736
363.492
-326.118
-37.3748
-376.633
386.071
-9.43821
847.424
-513.32
-455.107
312.887
-325.444
193.253
132.191
423.388
-720.818
568.469
-27.2326
811.253
-807.889
78.7632
161.547
-827.75
809.589
18.1602
-794.265
47.5523
-472.162
-527.844
1042.65
-186.28
931.104
-835.172
-95.932
-521.12
-463.317
984.436
-49.0199
-257.635
59.1661
227.386
-236.174
8.78808
-22.4327
-56.0776
733.429
467.364
-31.0846
-436.28
-373.008
-194.235
13.8903
-97.5487
-246.291
-150.345
411.967
-261.623
-926.353
926.353
93.2414
-805.314
491.099
-511.156
69.2767
441.88
-212.259
-194.967
164.561
-159.871
-379.039
-549.551
389.68
601.024
59.7298
193.628
421.88
-928.689
506.809
-18.4832
302.518
-221.677
-264.437
-218.618
409.905
-87.6927
-183.066
-142.378
-65.4991
-835.371
452.591
-518.22
65.6288
16.6006
-689.557
770.613
-81.0566
415.829
-421.83
6.00094
248.376
-568.806
529.755
39.0516
112.113
112.679
-224.792
198.882
-214.261
378.933
-708.794
329.861
110.546
758.341
174.656
238.042
-68.7581
-492.662
462.964
293.576
-308.401
14.8251
416.74
-37.3704
354.228
-386.021
-23.7095
-367.736
391.446
-33.9084
-263.615
312.123
9.57324
-321.696
-414.893
264.549
-389.78
42.1649
631.061
-749.538
-410.402
533.012
-314.051
-91.6056
976.659
-866.114
-492.707
-312.322
805.029
295.744
41.3139
290.163
-331.477
-453.234
135.295
-268.945
-51.9505
451.535
-564.104
112.568
47.4337
613.701
-184.303
66.4806
316.694
-275.746
708.754
-329.822
267.925
-182.299
24.3502
365.05
-389.4
-29.2911
-299.3
-2.75367
-259.527
252.89
6.63708
-0.0554957
549.085
-524.898
34.1793
-891.589
113.401
797.695
-1.41431
330.711
-117.517
525.486
328.712
-854.198
598.408
239.954
668.092
-761.294
-741.109
102.937
638.172
269.373
58.7814
-328.154
190
-183.037
-6.9638
22.2514
274.413
572.888
-194.574
29.503
165.071
-157.03
-606.811
763.84
-341.952
358.735
-16.783
-247.086
296.092
-49.006
-149.166
-175.805
-256.364
215.165
41.1993
920.088
-920.088
-87.4894
727.081
-639.592
295.197
-214.412
345.775
-68.1366
-657.556
191.64
28.6341
-220.274
53.4404
-587.425
533.984
27.1325
-228.834
201.701
908.111
-913.856
5.74517
300.771
-674.414
373.643
341.79
-290.334
52.4198
311.073
-350.752
876.239
557.22
-105.685
-73.3484
-245.198
-400.857
325.954
74.9031
217.482
-346.327
335.089
-500.161
165.072
-238.64
39.8585
-873.288
-73.599
33.1355
-722.692
313.48
-187.15
796.387
-773.227
-23.1597
431.278
46.3185
-477.597
-685.669
610.714
74.9554
-238.593
208.481
30.1116
321.89
-28.3142
-426.176
-254.912
874
-830.91
-43.0893
-357.845
658.616
136.51
-528.986
-864.486
11.101
-57.8668
-596.801
654.667
39.3211
-136.001
-144.152
-916.865
414.071
502.794
195.793
2.4782
450.891
-35.0615
543.443
262.776
-253.674
-9.10156
-335.474
-6.25579
341.729
-545.141
432.948
-12.0768
-192.922
204.999
233.876
-42.2365
-87.2202
346.674
-259.454
-357.205
7.19734
435.57
-10.3602
64.7286
-808.447
743.719
-664.321
664.321
44.4552
191.01
-86.193
-505.086
591.279
-854.463
938.096
-83.6333
741.109
55.278
-14.1598
-834.499
848.658
325.066
-342.61
17.544
325.798
15.3908
-341.189
583.869
-637.012
53.1429
45.3586
300.116
-345.475
-212.862
-111.949
324.811
199.388
-9.38739
105.353
-710.026
604.672
-759.996
267.289
353.107
-311.793
793.745
59.7769
-77.4636
-433.693
343.937
-389.949
-680.633
100.444
580.19
305.833
-270.617
-35.2161
-531.983
613.631
-81.6476
-82.1323
-363.097
445.229
410.594
-382.664
-597.042
-319.824
595.137
-724.923
129.787
-406.213
-425.723
837.85
-39.7751
-645.894
132.808
448.568
-581.376
563.577
-644.859
81.2824
28.3003
-230.228
11.1077
-693.024
-323.334
321.478
10.7857
570.628
-692.747
122.119
-344.526
-430.628
-5.82632
-684.195
698.311
-14.1162
763.085
-164.678
645.796
-103.086
-542.71
205.864
291.932
292.855
-298.873
6.01717
807.724
-935.895
128.171
-645.53
-95.5796
-285.999
12.8653
-329.05
90.6183
238.431
-56.9141
640.783
76.2699
-243.886
167.616
358.485
-336.326
-22.1591
-332.147
-260.067
-10.6057
202.972
-23.2879
-177.498
231.623
131.49
-363.112
-272.57
320.432
-47.8617
586.951
-673.144
25.1045
289.3
-260.299
-68.7501
-286.031
-288.977
-711.355
540.67
170.686
-110.939
-155.23
-166.04
67.1358
-579.083
536.531
42.5528
576.957
-1098.08
-25.5021
-1016
-140.728
364.285
45.6199
-23.191
-51.4129
-757.405
125.797
848.809
-841.898
617.421
-76.7515
1.86162
589.256
-591.118
-279.006
-167.678
446.683
-34.3125
-204.28
4.36731
202.435
-211.651
9.21612
-994.844
229.261
448.293
-113.204
19.7274
-628.036
608.308
298.226
-365.11
24.7334
340.377
58.247
573.422
-631.669
-104.231
770.406
-666.175
-669.368
-195.626
-722.594
38.7649
683.829
-38.2142
565.477
-527.263
920.789
-912.582
-8.20667
559.304
-617.171
-611.191
-23.7608
634.952
-396.986
124.415
262.374
-258.187
-4.18769
801.094
-772.479
-96.2245
730.961
-634.736
460.928
9.51496
-434.338
-670.009
604.146
65.8633
398.883
-92.2948
-564.065
-44.6755
-11.7118
-399.973
-17.0539
204.152
-187.098
25.6067
327.5
-361.307
365.056
-3.74941
744.374
-791.208
130.921
130.948
216.045
-228.22
12.1747
684.141
-775.322
91.1807
-318.082
-670.892
-19.3978
794.385
73.7943
291.303
120.593
810.348
-15.9627
-29.4408
-1030.58
176.879
3.94677
17.6397
-566.625
160.168
-143.399
-1081.14
-243.491
231.414
68.9905
226.206
-107.852
-467.149
575.001
-2.54237
-477.574
480.116
838.939
-31.2144
570.126
75.6696
-30.3452
-205.764
236.109
737.334
-780.857
-145.329
376.952
-399.687
443.303
-43.6162
-679.228
723.302
-44.0747
276.785
-365.987
18.0249
396.339
-153.775
-242.564
173.759
-511.873
466.314
45.5586
5.27601
-462.467
459.512
2.95558
613.89
-596.05
29.2538
-157.191
588.469
-296.707
57.5431
441.226
41.9603
606.924
-648.885
-86.7569
-140.028
186.091
22.3896
30.7187
-393.85
28.7403
-412.402
12.7147
252.302
-254.497
2.19523
711.279
-682.621
-485.996
84.8089
401.187
-42.341
626.552
-9.94131
-208.151
914.268
-141.794
-772.474
518.881
537.483
-1056.36
-284.973
-22.1772
292.007
4.14856
10.2611
275.813
-688.295
-1.33479
689.63
592.03
-749.06
-209.367
197.233
12.1337
-517.867
-33.0787
-635.856
-0.897395
142.454
-137.82
-428.383
-110.721
186.991
14.3453
-630.679
616.334
-39.193
-497.704
536.897
-249.075
294.434
-69.361
626.192
-726.115
752.908
-26.7938
217.754
-482.443
233.516
-256.456
22.9397
5.45945
-837.562
28.85
233.404
-446.267
905.469
-914.868
9.39829
636.232
14.4229
-650.655
-55.7164
-537.366
-807.246
840.445
113.243
-207.617
897.677
-78.2734
244.003
-16.6175
-60.3419
-715.965
776.307
-86.9344
-597.261
-13.1902
539.955
-665.517
19.9871
211.581
-231.263
19.6823
-239.385
3.40508
235.98
-559.394
533.536
25.8575
-221.349
88.8373
66.2674
84.7141
-150.981
-880.246
314.809
21.2144
-336.023
55.001
637.873
-692.874
-343.254
364.283
-21.0294
-645.045
-20.4716
-669.762
761.696
-896.464
127.404
769.06
-147.609
-169.341
-446.257
64.4432
-457.103
-614.751
254.501
-4.68113
-292.559
292.405
0.154467
179.047
-66.9347
-423.679
394.281
29.3989
-954.865
972.02
-277.687
101.1
176.587
143.23
16.9381
521.164
851.916
-872.21
277.285
-35.8514
358.41
-503.823
-789.087
811.122
-22.035
-346.132
-180.135
526.267
134.542
-177.915
43.3735
427.264
-522.598
740.823
-678.655
-62.1674
-260.359
-24.6143
321.874
-71.9318
317.883
-292.778
333.576
-652.053
-17.9561
5.46677
633.55
-375.657
155.056
20.6615
-891.509
547.054
-391.534
608.147
368.512
424.051
9.11699
744.615
-804.957
-40.6782
-23.6626
827.282
70.3949
421.195
-499.935
78.7403
225.895
-183.019
-42.8761
-186.739
200.868
-14.1297
-14.366
344.859
-330.493
-616.986
658.946
430.997
248.25
-222.432
-25.8186
369.298
505.888
313.483
-335.375
703.146
108.293
75.0013
-598.612
523.611
639.916
-35.7697
33.9956
-930.255
113.804
816.451
221.222
-254.808
-253.787
-793.327
732.256
61.0703
5.31741
813.984
-819.302
926.623
-926.623
-378.83
17.5231
602.829
37.0862
-109.186
-16.609
-194.225
210.834
437.709
27.9406
-465.649
-436.55
22.5911
413.959
186.307
972.164
-453.283
-233.768
41.7838
191.984
-626.974
630.897
-3.92278
420.182
-470.72
50.5383
-430.979
-5.57132
50.5421
-763.105
712.563
-637.088
-60.2189
-550.042
518.57
31.4715
-369.681
275.319
17.724
-234.304
216.579
-147.92
-129.767
-29.6391
221.211
-35.1192
53.4699
286.285
-280.153
-71.9198
791.613
368.157
-53.3481
-768.984
33.1917
-890.029
814.417
75.6123
118.657
275.168
385.098
153.749
-752.792
858.498
332.259
183.798
-516.057
-166.697
594.463
-644.062
49.5991
474.94
54.5898
-529.529
631.846
-338.626
-293.22
-472.072
-115.362
-780.369
676.138
29.1512
-683.712
654.561
-711.371
108.525
602.846
-765.873
17.1977
23.6901
508.679
-87.4844
-513.745
354.333
546.592
-584.806
-35.454
-68.6926
235.097
-166.404
37.7363
-677.295
-236.53
-238.876
170.184
-31.4978
262.382
-110.843
-151.539
151.662
-9.32366
-637.31
722.192
-22.41
189.892
-167.482
869.871
-628.818
11.2226
135.336
181.358
1.01329
397.675
-398.688
-224.178
-192.118
416.296
180.943
763.527
380.096
-355.746
-841.978
7.47841
626.42
-609.871
-0.178627
-807.261
807.44
589.566
16.1256
-605.691
841.529
45.2182
-886.747
313.077
-13.6801
127.268
-406.274
426.292
9.27763
-255.688
335.54
-79.8524
197.689
381.952
-90.6491
611.592
-55.9464
-555.646
-754.832
779.49
-24.6583
13.0996
642.458
-655.558
-645.097
113.113
-7.57327
-442.596
601.297
34.6507
323.835
-31.4068
192.446
-93.325
-337.554
2.08043
95.9746
742.964
4.33821
-278.799
274.461
-425.29
-503.399
-57.4568
-757.742
815.199
252.941
-43.3539
194.034
-259.449
65.4145
200.99
-95.7002
-224.597
-516.879
-581.321
-791.866
-18.1768
-171.451
-815.763
776.45
39.3126
-34.5962
469.999
-435.403
59.7828
821.342
-881.124
201.518
-135.251
773.992
26.6892
-217.239
200.63
20.8694
-308.423
287.554
575.739
-573.878
-647.166
142.227
504.939
-550.024
589.309
-39.2847
33.5338
259.322
-665.167
-441.785
608.549
45.835
-654.384
-721.929
606.767
-679.223
72.4556
-157.468
-37.106
450.177
-484.402
-846.176
851.493
104.697
-307.645
-588.819
-642.5
593.316
49.1836
185.096
-79.3298
-44.049
456.733
175.113
-567.907
53.9979
514.194
-527.521
13.3274
73.0468
-717.683
644.637
268.916
-16.6138
-315.944
167.337
148.608
-567.221
581.463
-130.242
461.533
-331.291
681.445
-86.9816
1.81081
-319.184
317.373
-446.789
-442.785
889.574
-147.731
241.795
-94.0645
-100.73
-579.903
-563.304
409.849
153.455
400.256
-33.0371
-367.219
0.69588