/*--------------------------------*- C++ -*----------------------------------*\
  =========                 |
  \\      /  F ield         | OpenFOAM: The Open Source CFD Toolbox
   \\    /   O peration     | Website:  https://openfoam.org
    \\  /    A nd           | Version:  7
     \\/     M anipulation  |
\*---------------------------------------------------------------------------*/
FoamFile
{
    version     2.0;
    format      ascii;
    class       surfaceScalarField;
    location    "37";
    object      phi;
}
// * * * * * * * * * * * * * * * * * * * * * * * * * * * * * * * * * * * * * //

dimensions      [0 3 -1 0 0 0 0];

internalField   nonuniform List<scalar> 
172499
(
201.264
58.9145
-260.178
-473.773
101.999
371.773
-111.494
-76.5814
188.075
112.539
-278.062
165.523
-436.175
323.553
112.622
138.373
-337.079
198.706
-142.656
287.269
-144.613
-80.8963
196.905
-116.008
-363.388
351.883
11.5057
-465.117
-8.65598
-229.957
354.456
-124.499
495.02
-360.236
-134.785
-169.23
341.029
-171.8
87.4156
-88.1491
0.733545
-44.0512
-319.337
-104.244
58.9645
45.2792
-456.1
86.5252
369.575
-411.546
77.0347
334.511
-113.136
286.147
-173.012
-331.886
-104.29
-72.5674
184.952
-112.385
198.841
-196.787
-2.05369
392.773
-290.204
-102.569
159.354
-312.819
153.465
-227.151
200.7
26.4514
-117.549
229.334
-111.785
69.351
73.2812
-142.632
-207.875
463.596
-255.72
-263.243
-175.9
439.143
-47.6449
100.73
-53.0851
427.804
-342.009
-85.7953
-249.399
-66.996
316.395
-266.937
406.415
-139.477
-101.081
-75.5489
176.63
-69.4456
-100.509
169.955
182.212
95.2843
-277.496
-226.255
98.916
127.339
-99.7148
-356.385
115.704
-148.037
32.3333
126.035
197.058
-323.092
157.464
-406.863
-57.6171
-353.929
-131.459
-34.5986
166.057
-118.857
301.069
-36.4133
101.035
-64.6216
-2.11845
89.534
263.649
66.5706
-330.219
544.255
-303.932
-240.323
397.97
-148.764
-249.205
414.147
-534.1
119.952
-390.722
478.202
-87.4801
279.601
-101.643
-177.958
-473.802
332.2
141.603
-504.397
451.001
53.3961
-119.518
-165.726
285.244
-319.13
-154.672
556.821
-366.929
-189.892
-131.524
82.3949
49.1292
87.0782
78.1324
-165.211
126.96
-229.251
102.29
-515.335
327.482
187.853
-186.327
330.537
-144.21
345.924
-129.373
-216.55
-103.882
184.932
-81.0502
295.874
87.1849
-383.059
9.44075
-401.342
391.902
-351.564
197.466
154.098
-220.266
401.308
-181.041
80.8069
-146.966
66.1591
-538.112
255.859
282.252
-105.187
203.131
-97.9442
205.184
-156.309
-48.8746
373.41
-247.376
-133.258
67.3343
65.924
-98.8143
-90.397
189.211
79.6237
-163.327
83.703
-210.668
50.3621
160.305
202.666
-402.951
200.285
-249.18
-139.928
389.108
-298.601
221.591
77.0103
-79.7525
-218.849
429.778
-432.777
2.99891
36.0537
-84.7106
48.6569
-307.066
559.257
-252.191
-137.12
240.628
-103.508
342.478
152.542
-107.808
177.049
-69.2409
-324.468
472.876
-148.408
105.183
-116.937
11.7539
-86.7018
441.525
-354.823
136.419
-5.18883
-131.23
202.259
-20.6246
-181.635
206.544
-469.787
221.138
50.2614
-271.399
-420.519
315.132
105.387
-575.014
416.912
158.102
261.939
-321.774
59.8348
93.6478
-57.5942
88.6031
-166.075
77.4722
0.773328
104.409
-314.496
-200.84
201.074
-436.283
235.209
328.103
-177.381
-150.723
-485.688
499.611
-13.923
111.173
-216.36
171.312
-97.0361
-74.2764
-502.176
319.781
182.395
-41.9113
103.213
-61.3021
-140.738
225.117
-84.3793
-311.346
-71.1227
382.469
-124.274
237.057
-112.783
-54.6567
316.596
-178.865
-31.8028
133.075
107.878
-240.953
-103.634
46.3464
57.2873
203.646
-345.311
141.665
-307.556
77.5994
-99.3217
224.435
-125.114
364
-541.572
177.572
51.9868
153.197
-217.066
117.744
-64.358
-39.8857
-222.329
115.335
106.995
47.7842
-174.57
126.786
-230.663
532.609
-301.946
-112.88
65.2352
-264.521
78.1939
-113.259
77.5412
35.7179
-180.986
-41.6854
222.671
-509
511.774
-2.77348
-110.619
238.323
-127.705
567.205
-287.783
-279.422
-172.698
190.4
-17.7024
538.981
-196.503
-329.44
480.85
-151.41
-111.894
226.934
-115.04
-258.718
173.141
85.5765
63.6341
-330.572
147.749
-267.267
182.745
147.792
83.2948
57.0872
-140.382
-192.038
341.172
-149.133
502.991
-504.549
1.55818
382.977
-196.944
-186.033
-269.767
159.148
141.96
-532.683
438.783
-333.119
-105.665
-115.093
-149.428
-454.843
234.576
-226.571
-167.783
394.354
106.534
64.7789
56.1728
-92.5861
8.06909
194.19
-567.957
273.279
294.678
133.029
146.572
-361.404
428.001
-66.5973
-412.189
100.843
-68.3292
223.975
-155.646
132.03
-132.219
0.188101
-153.8
115.481
38.3194
149.466
-69.8427
137.226
301.557
158.324
187.6
-190.728
146.803
43.9251
263.345
-142.624
-120.721
139.941
173.322
-313.263
447.401
-261.409
-185.992
-62.3817
-104.268
166.649
-193.033
124.703
-240.755
122.711
118.045
-241.278
155.321
85.9562
-102.924
366.572
-98.5044
-28.3375
126.842
26.7274
58.849
-85.5764
-74.4773
-81.0497
155.527
220.685
-438.747
218.062
-69.5257
96.2531
193.46
85.941
-279.401
113.168
-333.438
220.271
276.911
121.058
-290.215
-131.065
421.28
-194.576
95.7619
155.594
-263.332
107.739
-210.844
418.063
-207.218
-275.812
-226.364
-162.613
384.864
-222.251
95.5355
-261.676
166.141
311.123
188.877
-139.089
327.727
-188.638
128.413
8.00542
-106.195
299.655
-338.868
188.497
150.371
453.303
-164.028
-289.274
-201.603
116.513
85.0903
-236.145
118.596
67.864
-131.978
64.1139
21.5017
-91.0274
-172.415
163.298
9.11742
54.9138
-145.748
90.8346
85.1609
136.862
-222.023
-569.936
391.543
178.393
-183.024
360.877
-177.853
365.048
56.177
-421.225
481.283
-479.308
-1.97489
-338.157
169.033
169.124
134.653
-89.3778
-45.2752
369.935
-271.279
-98.6558
-87.3063
383.18
-214.517
-196.992
411.51
96.3251
-210.372
114.047
-66.2462
87.7478
55.682
264.099
18.8904
-246.042
-384.206
297.504
-164.461
-62.6493
227.111
-84.0227
-117.581
-100.798
256.238
-155.441
-182.934
-138.037
320.971
77.6803
-79.7988
-123.625
-261.392
385.016
128.716
10.3967
-139.113
133.703
0.312419
-134.015
134.498
-329.291
194.793
-74.9938
138.106
-63.1123
-73.5436
-430.853
-174.277
11.4039
162.873
-201.285
-80.1205
281.406
183.763
-68.5572
-115.206
138.571
-70.7073
-351.286
103.389
247.897
0.594092
-414.545
413.951
69.8102
-117.425
47.6148
54.3846
-135.776
81.3912
82.6794
-175.829
93.1495
-239.75
122.003
117.746
-224.679
-345.257
-641.928
285.528
356.401
392.927
-204.432
-188.495
-57.192
160.778
-103.587
239.562
-166.162
-73.4002
-45.1331
152.474
-107.341
-294.048
168.163
125.884
-121.13
-32.6705
156.635
-68.0317
278.105
-217.146
-60.959
-234.448
407.651
-173.203
450.206
-223.08
-227.126
133.718
-85.6744
-48.0436
-163.297
100.915
-64.2376
-30.7651
95.0027
206.353
279.094
-485.447
-370.425
240.781
129.644
227.623
-531.967
304.344
387.313
-236.385
-150.928
117.574
-69.7301
-47.8442
-6.84316
-283.371
-75.3185
181.098
-105.78
-563.45
300.13
263.32
503.727
-503.727
-189.565
108.669
370.535
-377.378
-3.63195
81.3123
-483.19
272.346
-129.162
125.59
3.57246
41.9959
-182.733
257.678
-145.139
-106.784
154.568
179.472
-279.821
100.349
105.66
98.8891
-204.549
-102.69
211.647
-108.957
415.208
-131.53
-283.678
-329.641
190.553
428.164
-151.253
-224.79
-69.258
142.016
177.18
-319.196
-187.224
104.313
82.9117
46.1303
-99.3313
53.201
-171.565
97.0873
-247.769
297.84
-50.0707
73.7606
-115.672
-120.205
-70.5232
97.1187
184.319
-404.751
220.432
69.584
65.069
456.601
-254.25
-202.351
172.088
207.32
-379.409
70.3517
-244.628
498.96
-509.106
10.1469
117.042
-73.5948
-43.4468
101.132
-151.933
50.8009
108.729
-62.5986
-500.322
66.131
434.191
-171.813
30.2659
141.547
370.691
-315.009
-258.559
409.607
-151.048
-482.108
303.15
178.958
364.127
-244.48
-119.647
-142.443
-213.865
356.308
-161.213
345.126
-183.913
-235.466
132.776
-66.7598
-22.9048
89.6646
112.004
-192.857
80.8528
-60.7765
133.589
-72.8123
308.503
-193.38
-115.123
86.5026
36.803
-123.306
-131.521
285.917
-154.396
-253.88
168.438
85.4415
110.962
72.8013
102.403
-130.865
28.4619
-173.88
287.048
-92.0262
-187.265
279.291
130.697
12.6794
-143.376
-94.9465
165.467
-70.5202
-152.679
95.4869
-330.225
160.995
-179.393
346.561
-167.168
340.326
112.976
178.018
-412.466
272.5
-113.146
-183.122
125.542
57.5799
-3.63354
-182.441
186.075
262.725
-386.35
-57.2765
422.325
-35.0175
-68.6161
186.744
71.7664
-258.51
-141.918
59.0178
82.9007
-368.55
7.14692
198.607
-415.686
217.079
29.1816
-95.9414
-155.278
-16.535
193.858
-285.885
-432.871
-67.4514
141.743
229.36
-371.102
219.149
144.978
120.589
-57.0127
-63.5768
171.845
102.282
-274.127
-260.871
170.266
90.6045
80.3319
-357.601
277.269
352.971
-214.598
243.198
-147.662
82.7401
108.138
-190.878
-132.935
271.179
-138.244
130.402
-61.0514
90.757
-181.009
90.2516
265.648
-89.5289
-176.119
-170.708
-212.697
383.405
-175.216
-72.5526
-65.5789
-37.5738
103.153
77.0161
50.1254
-127.142
320.49
-172.574
-147.916
-218.867
46.169
-510.307
344.08
166.227
366.026
4.50885
169.974
-290.152
120.179
186.359
-101.198
180.696
91.7176
-272.413
-53.1237
254.388
-105.321
-299.56
404.881
-171.369
388.64
-217.272
-112.504
263.995
-151.491
-172.332
286.382
-114.05
144.512
-99.3348
-45.1773
-142.591
-83.6634
-133.439
80.8615
52.5771
279.157
-159.977
-119.181
-438.081
332.76
-160.355
163.076
-2.72131
-185.156
112.156
72.9995
303.644
-169.146
-168.962
473.041
-304.079
204.051
-89.414
-114.637
68.3749
87.808
-156.183
72.193
61.525
25.6657
229.86
-255.526
97.1602
106.968
-204.128
63.9346
305.895
-369.829
148.711
510.45
-96.3028
225.623
95.9065
-321.53
-143.985
301.631
-157.646
135.586
-65.7753
213.413
-116.969
-96.4448
-81.8211
203.331
-121.51
141.18
-253.684
396.61
-224.522
-371.318
369.326
1.99154
145.33
-90.9451
-58.3994
-35.5326
93.932
489.332
-165.779
-61.6014
186.729
-125.128
-232.474
430.446
-197.973
281.642
170.071
-451.712
68.724
-176.532
-455.844
247.969
-22.9238
156.627
-324.654
187.206
137.449
3.09893
99.3044
-316.441
-132.199
448.641
267.275
160.889
-74.36
-84.5164
158.876
95.5503
3.17895
-98.7292
-241.91
354.502
-112.592
127.985
-117.755
-10.2296
-173.439
394.548
-221.109
-128.363
133.865
-5.5027
55.6202
125.538
-181.158
142.051
-471.491
-168.79
261.102
-92.3123
-98.313
252.325
-154.012
-133.185
197.43
-64.2452
254.538
-163.327
-91.2114
-274.439
87.1742
237.167
-407.875
-39.6941
214.046
-174.352
-225.613
88.4925
195.591
102.248
381.981
-114.706
86.5199
-139.398
52.8785
353.324
69.9371
-423.261
-196.242
407.331
-211.089
-232.838
-267.158
22.8219
-89.0681
601.536
-379.343
-222.194
-33.2146
128.836
-95.6209
-163.897
68.9504
308.862
-392.952
84.09
-140.184
195.804
-390.374
381.911
8.46286
331.544
225.276
148.143
156.685
-304.829
-504.979
382.621
122.358
-352.469
426.169
-73.6998
-99.4581
252.521
-153.063
178.882
-67.92
128.275
180.228
126.216
-295.006
-123.806
271.568
-147.762
382.856
218.681
336.274
-330.387
-5.88733
325.158
-529.576
204.418
341.413
-138.747
-103.174
-405.827
67.0412
-218.364
151.323
80.5627
-154.923
357.353
99.2476
185.828
-82.3939
-103.434
237.793
169.858
134.621
233.642
-368.263
-96.9403
378.582
415.785
-195.1
-400.728
9.20772
391.52
-291.196
-180.987
472.183
421.624
-291.778
-129.846
489.964
-249.811
-240.153
-72.1709
-91.1262
-59.3227
271.872
-212.549
56.3252
87.3844
-143.71
83.2529
-140.104
56.8507
157.436
161.029
-318.465
-184.674
31.2646
153.409
40.2845
87.7001
412.103
-174.31
374.925
114.408
-269.338
-145.328
414.666
-27.5922
158.289
-176.857
104.29
-161.478
-219.929
381.407
-25.4954
84.3444
-37.9122
-146.762
166.35
-457.546
200.368
-31.2533
-57.2634
88.5167
216.488
-55.7092
-89.4953
-43.763
-262.523
138.717
-103.949
290.693
-324.718
499.957
-175.239
261.305
-422.783
399.283
-198.209
104.105
197.947
-302.052
-143.702
61.8865
81.8153
-367.32
488.64
-121.319
307.401
-227.069
554.861
-227.579
-327.282
116.096
100.392
358.766
-116.995
-241.771
-271.694
434.514
-162.82
142.104
-250.125
108.022
-158.768
33.1299
125.638
-156.38
-79.0855
147.382
-391.478
244.096
10.6259
-118.728
108.102
454.573
-197.072
-257.501
303.14
-478.588
175.448
-227.596
187.902
90.8855
113.165
100.699
-6.68259
-94.016
253.684
-120.608
249.527
143.4
322.388
-180.991
-141.397
-326.737
217.171
109.566
-488.961
396.519
92.4421
183.601
-100.922
-104.789
188.897
-84.1081
-184.325
-69.555
350.371
-41.5095
117.883
11.2835
-129.166
-117.957
200.697
-133.048
87.9153
-531.311
359.864
171.447
311.277
-141.303
226.144
161.17
161.546
-397.931
-474.616
238.098
236.518
-249.47
166.766
82.7042
112.753
-44.5447
-68.208
-219.124
-203.06
422.185
102.008
150.029
-252.037
-407.086
282.463
124.623
-272.103
-134.983
-561.882
373.632
188.25
-285.425
101.101
586.057
-299.845
-286.212
-149.411
-176.229
325.64
-131.908
136.734
-4.82592
-164.916
274.537
-109.621
-254.212
154.754
-416.084
298.65
117.435
108.788
93.3261
-202.114
-371.101
193.692
177.409
-112.992
-128.285
141.133
-105.2
-35.933
276.08
105.902
573.971
-316.419
-257.553
253.319
-519.759
266.441
54.9962
-116.166
61.1699
93.4831
7.21556
-62.9193
144.658
-81.7384
272.978
300.993
71.7987
-172.88
-292.414
159.479
120.438
-39.6315
117.955
161.203
347.268
82.5102
107.043
71.8388
37.0371
-186.891
149.854
365.277
-514.261
148.984
-60.9687
326.114
-265.146
-33.6988
116.952
174.793
380.068
-146.52
359.066
-212.545
70.429
-167.462
97.0329
-341.035
-300.893
-61.1116
-37.0941
98.2057
6.40489
-138.313
-106.955
117.581
176.207
-85.4503
178.716
-328.127
-137.042
76.9881
60.0534
-351.952
-87.6624
439.614
-338.281
521.85
-183.569
108.175
-370.783
262.608
60.3824
-146.731
86.3481
-116.164
-235.122
295.209
105.941
-401.15
179.517
-112.476
249.685
-142.194
-107.49
555.035
-194.158
-360.876
-371.553
53.4173
318.136
331.633
90.7998
-422.433
-480.921
501.162
-20.2414
-146.228
-76.1014
-96.4085
202.068
142.973
179.414
250.821
-538.307
287.486
377.054
-367.613
461.77
-166.561
553.047
-298.865
-254.182
-224.094
244.721
-20.6275
-52.1878
170.07
-102.818
-252.627
355.445
56.7886
446.939
-68.7618
-83.9171
144.267
-87.9414
324.854
-167.418
128.31
60.5855
-188.895
167.108
-226.431
-69.552
-102.728
172.28
552.679
-552.679
-3.17118
-125.192
280.823
-167.997
-112.826
-310.992
-171.117
-163.059
90.8877
-366.632
-119.056
-77.5257
145.901
199.972
-293.99
189.467
104.523
15.7635
-406.138
128.711
110.957
-239.668
90.533
121.114
137.351
-54.0559
-67.8466
-303.707
83.1232
-255.214
172.09
-7.40502
-393.323
-298.185
151.664
-132.529
-183.565
316.094
115.374
234.799
-350.173
-328.357
500.853
-172.497
-92.2084
-36.9541
-73.7192
105.507
-31.7878
-98.4613
180.74
-82.2792
227.732
169.737
-397.469
319.176
-215.071
405.683
-186.534
-304.331
-200.648
161.3
-274.436
-160.6
91.154
-412.899
308.077
104.821
83.9106
-435.862
91.3652
153.187
-244.552
-221.769
-153.536
375.304
41.0991
-101.876
139.33
-166.922
-120.098
-224.863
344.961
-301.85
240.881
-102.723
-50.9122
153.635
-188.379
111.328
77.0513
358.27
-517.338
159.068
320.171
-214.533
-105.638
157.137
293.069
74.6589
87.0733
-161.732
387.185
-161.042
146.879
-514.2
261.998
-178.875
159.248
160.923
-64.6905
-348.208
219.669
-379.56
159.891
409.086
-238.485
-170.601
75.6724
-260.317
184.645
-228.715
-10.1026
238.818
66.6201
-158.825
92.2052
83.2596
-160.746
77.486
193.59
212.093
-49.1404
144.691
-334.371
418.281
135.783
234.083
-369.866
-105.979
309.625
79.6215
108.495
-188.116
41.7876
-314.658
272.871
-138.785
145.19
278.611
-458.15
179.539
-94.7957
223.105
267.873
-455.228
196.668
-92.5593
1.41326
91.146
40.3627
122.065
-162.428
222.011
232.562
-116.298
195.919
339.82
-28.417
-311.403
-124.04
444.717
-320.677
101.961
290.812
44.2556
227.616
317.157
135.089
-452.246
327.732
-268.613
-59.1193
-32.2676
-128.087
-208.689
96.7948
-74.6679
-31.0434
105.711
14.1708
-88.8387
-317.543
173.558
-75.2561
-179.605
254.861
185.66
134.874
-320.534
-222.591
-47.5357
270.127
-153.696
84.9347
82.0789
-180.54
-84.0551
-318.654
402.709
-82.5031
-142.287
517.722
-239.111
-69.9526
76.8094
50.888
-127.697
-166.945
83.4005
83.5446
69.5891
-90.8387
21.2496
106.157
172.653
-278.81
-186.032
104.942
81.0894
-138.724
319.42
-100.666
-127.97
228.636
-328.506
-209.606
-244.783
126.775
118.009
-229.283
527.006
-297.723
440.828
-293.446
-72.632
-93.7995
166.432
-72.1307
101.312
-183.169
323.658
-140.489
-117.947
271.322
-153.375
163.225
-70.6134
-92.6116
-251.664
359.839
145.661
-87.6895
-57.9716
-274.046
279.953
-5.90647
-279.542
136.886
195.324
11.4666
-206.791
-198.434
391.041
-192.607
123.736
-59.9476
-63.7888
227.969
-470.373
242.404
-497.834
173.365
163.96
-35.2437
-139.363
0.577682
-189.295
86.7329
102.562
-149.739
369.408
148.864
-78.4351
80.8445
-415.215
-40.8433
-73.8249
114.668
-105.599
-509.239
357.358
151.881
249.388
78.3446
-305.81
-160.731
466.541
-85.9407
298.801
106.991
-140.205
-53.8845
-133.34
-233.548
-244.522
478.07
-198.627
-242.898
441.525
-288.318
277.833
10.4848
314.193
-250.258
-295.257
-215.05
340.839
-509.801
103.063
94.9094
-197.972
-383.202
212.565
170.637
156.956
217.969
-76.569
141.899
-65.3303
-330.359
526.172
-195.814
-191.222
137.294
53.9276
-129.589
39.92
89.6686
53.2855
-127.005
-63.9542
395.587
96.7961
64.9352
-161.731
504.539
-187.383
-110.353
265.947
-318.51
157.297
-287.007
287.007
-152.712
244.077
-548.858
281.611
267.247
-237.296
-98.5854
335.882
186.631
-149.593
-126.943
136.076
-9.13307
-254.96
82.6275
123.382
-483.617
36.741
80.3006
-138.4
-310.216
448.616
-232.446
368.228
-252.311
151.513
500.915
-245.281
-255.634
-191.222
-37.493
150.782
-328.163
-568.519
398.524
169.995
-285.858
-156.07
-203.229
37.777
165.452
-57.09
-110.794
167.884
132.514
121.17
-62.6043
110.057
-47.4524
-0.0701591
59.1507
-59.0806
222.82
-221.873
-0.947293
212.814
-337.858
125.044
74.3567
-179.145
-73.1391
-154.457
104.507
-198.565
94.0577
-393.473
-264.806
339.745
-74.9385
83.1912
40.5452
-22.436
-113.065
135.501
-150.68
-200.884
155.966
-386.716
230.749
-173.318
100.686
89.6448
47.7287
-137.374
35.9541
-138.677
-159.719
243.792
-84.0738
157.644
107.782
-265.426
-157.724
-287.137
444.86
171.145
-421.676
250.531
109.313
-160.33
51.0172
-540.731
308.913
231.818
465.442
-323.445
-141.996
-501.517
176.799
-127.929
124.758
-67.1953
-109.662
316.472
-413.413
-344.521
-130.095
-154.806
-139.184
-380.667
155.932
224.735
-215.825
133.322
-46.2531
307.196
-260.943
-89.6527
-240.837
127.844
175.65
106.068
-281.718
258.798
-454.455
195.656
197.905
-101.58
-317.251
102.718
223.283
-96.3227
-327.558
-112.158
439.717
383.614
-227.647
-331.832
336.453
-4.62066
-72.2902
122.318
-50.0279
-380.573
167.876
-312.352
126.509
185.843
131.744
-131.744
-194.966
-256.063
451.03
471.564
-390.72
63.5947
-264.88
3.94277
335.877
331.838
223.197
-242.885
-48.6155
291.501
127.496
6.76571
-134.262
-72.7449
138.559
-65.8143
-183.863
116.919
66.9441
-323.01
-244.947
-168.16
98.6085
116.939
-40.1299
-272.653
-302.361
-144.058
81.1385
132.931
208.098
72.2221
34.6475
-106.87
-45.8899
141.013
-95.1227
379.822
173.225
-172.946
-112.479
-336.282
-172.958
-156.643
-99.8196
256.463
-69.3833
-272.621
342.005
-354.48
196.754
157.725
-91.5982
-103.646
195.245
337.792
-505.08
167.287
209.145
-354.6
145.455
236.635
-415.713
179.078
-77.7728
-53.7513
-237.91
164.77
166.999
-395.176
228.177
-154.998
97.9077
-380.354
197.329
-206.166
363.122
-76.612
146.932
-70.3203
91.903
-146.037
54.1342
25.3698
-89.6074
-154.059
366.874
483.497
-465.545
-17.9518
-94.1595
154.542
-78.2025
134.375
-56.1724
260.871
-455.837
-59.7203
168.858
-109.137
-149.207
289.148
390.876
-507.237
116.361
234.916
76.8083
-311.725
46.0849
-100.977
54.8922
-36.9259
106.515
59.2653
30.9105
-90.1757
-42.9868
142.608
-99.6212
-10.7883
160.596
-149.808
176.028
-71.5203
387.706
-138.179
-76.8164
280.944
-204.128
-303.722
-48.7475
182.553
-105.403
-77.1496
199.832
-308.469
108.637
-239.757
-147.258
387.015
-87.9538
179.857
-275.488
164.392
111.096
229.599
-359.893
130.294
-324.147
204.662
119.485
251.982
-132.671
-119.31
-134.821
71.0927
63.7281
184.351
-398.869
-112.127
-72.1699
184.297
-43.6823
-135.876
179.558
104.226
-250.011
145.785
-114.264
211.424
185.539
-98.4817
-87.057
-55.2837
-112.843
168.127
-36.3389
175.669
-163.709
-117.502
281.211
-304.759
-8.64858
313.407
46.9697
-111.799
64.8295
168.41
97.2374
115.841
107.442
-81.8812
95.6533
-13.7722
-203.229
-55.6422
446.518
-2.95786
118.662
377.21
13.714
-390.924
390.065
-326.431
-477.401
182.144
63.5067
47.2658
-110.773
-149.03
-34.0911
83.2476
-259.81
176.562
122.852
-387.659
-175.141
-34.6656
269.582
-69.82
265.144
257.49
160.573
-414.223
215.789
-142.68
66.1108
390.685
-163.062
246.754
-110.935
-135.82
258.999
-328.382
309.544
-186.659
-122.885
178.968
-168.895
-10.0738
118.661
-71.6912
-215.457
-235.475
450.932
-196.637
31.2867
165.35
491.744
-485.095
-6.64852
243.586
-71.3606
-172.225
245.116
247.826
-492.941
275.314
-171.088
-164.072
300.726
-136.654
-159.189
307.332
-134.661
219.994
-85.3334
-189.67
-148.487
72.5971
-156.06
83.4625
106.955
-207.621
352.165
119.4
-239.026
-177.058
-64.8037
-102.141
115.693
-43.4713
-172.324
275.434
-103.11
-67.4186
154.497
115.703
-43.3336
-72.3691
-136.255
80.9713
-581.784
367.587
214.197
54.8039
-139.421
84.6172
-178.529
261.777
-65.4558
130.518
-65.0617
71.1655
44.5372
-143.032
363.735
-220.703
-124.566
-104.67
229.236
-57.9211
-35.6139
93.535
337.569
-144.987
-192.582
247.159
-86.719
-160.44
-379.855
-308.366
-169.034
-56.6101
-98.794
155.404
125.208
-315.628
190.42
146.199
-73.6017
-124.521
-3.40873
171.305
-420.485
312.19
-95.0193
-164.57
102.969
-175.122
83.5425
91.5793
338.846
-129.7
159.038
-127.347
-31.691
-80.6159
-94.506
68.8851
-135.575
66.6895
103.952
-171.147
115.907
-63.966
-103.859
167.825
-91.7983
228.384
-136.585
126.068
-43.3829
-82.6847
-269.291
-35.4682
120.584
92.8298
-83.0792
10.9484
-96.6485
215.024
-118.375
-98.0248
98.546
-0.521136
-98.0375
-77.8663
-95.7341
173.6
484.047
-385.961
-98.0862
424.257
-107.785
142.583
-102.22
-425.693
463.885
-38.1925
-178.346
305.233
-126.888
-238.301
301.896
99.3582
86.1805
-69.4368
-115.719
-93.0005
272.473
-150.352
302.159
-151.806
41.1052
58.9175
-100.023
-300.355
158.671
141.684
115.672
-60.676
-83.8885
-72.4207
-221.488
-187.876
409.364
139.719
344.329
-456.645
258.018
239.565
-239.565
-64.4072
78.8941
-14.4869
185.407
-108.532
-76.8752
246.001
-540.003
294.002
182.759
154.81
-252.658
356.433
-103.775
123.509
-68.7055
-203.024
129.901
73.1233
156.96
330.238
-487.197
253.842
-121.328
-317.637
162.67
154.967
96.2636
-187.459
91.1949
281.48
158.664
-440.144
-232.457
107.892
93.5612
-165.51
71.9483
136.49
-179.477
-170.292
398.024
-179.821
111.102
68.7195
172.68
-105.853
-66.8274
-96.3832
373.211
-276.827
332.195
-165.087
-31.9995
107.653
-75.6532
179.854
180.33
-360.184
-207.824
-248.821
-90.7696
349.568
97.7785
-183.713
85.9341
-204.806
399.353
-194.548
160.887
-64.6239
318.644
-219.247
-99.3967
144.299
-57.7795
-219.717
-163.774
87.1616
-620.25
303.832
132.931
493.643
-501.559
7.9157
212.8
188.601
-401.401
113.69
45.3479
-369.634
-119.327
152.139
-155.772
16.4346
-304.752
-25.0324
-124.318
149.351
158.257
-296.684
138.427
120.591
275.928
-130.596
88.4788
42.1174
46.5072
-182.383
33.3215
-66.385
33.0635
263.318
95.4473
262.144
-172.943
-89.2012
147.191
-80.5712
-397.515
275.946
121.569
-260.071
-360.179
187.095
56.4908
145.391
-456.48
311.089
-67.6363
-77.1549
144.791
32.4677
-123.902
91.434
290.112
210.802
-3.17968
380.39
-78.5137
-69.5234
430.519
-149.039
82.3018
-135.314
53.0117
-464.318
260.902
203.417
-201.742
-245.743
447.486
-366.485
566.484
-199.999
280.957
146.848
-173.843
249.655
-75.8119
-165.081
267.09
351.934
-277.038
-74.8955
-179.216
290.552
-111.336
-184.394
-154.475
-116.642
-165.985
282.627
90.6895
28.2465
-118.936
192.483
-83.6942
440.476
-378.688
-61.7879
-188.06
117.549
70.5108
85.2006
269.146
-354.346
122.725
-33.0801
347.425
93.0513
-68.294
161.855
-101.304
-29.2924
-225.97
514.18
-288.21
3.59834
191.699
-195.298
227.045
-395.652
168.607
-80.3682
-41.1482
121.516
288.736
98.97
-82.54
-19.9974
102.537
-127.1
108.352
18.7473
-190.576
130.237
60.3387
182.873
384.332
95.9338
-36.6685
-270.926
-126.589
228.469
-443.926
413.735
-509.871
96.1358
68.6776
223.018
-31.8218
-191.197
134.489
-65.6035
80.9163
-408.475
-77.4701
-88.4353
165.905
98.7903
-7.22135
-91.5689
-111.7
46.1206
119.586
134.953
151.591
-329.461
177.869
-91.12
161.007
-69.8873
152.483
-357.288
361.873
-236.665
341.826
-82.8274
-362.371
-201.079
-287.376
474.166
-186.791
429.259
-324.284
-104.974
-9.33304
-343.33
352.663
-336.706
-176.3
513.006
-149.644
-9.12436
62.4814
-29.1599
-506.346
263.114
243.232
-157.771
-100.947
-68.8936
-65.9272
-48.8514
158.164
-97.0533
175.186
-554.712
382.758
171.955
97.2202
-161.186
-23.7492
88.1741
-64.4249
181.333
-146.377
199.624
-319.904
120.28
322.396
-255.431
-66.965
87.4108
-397.449
310.038
214.836
-98.995
114.616
255.318
-88.5507
-99.8285
108.778
-62.6929
474.768
-299.418
-175.351
-267.285
363.98
-96.6958
-123.537
191.855
282.913
-417.832
31.8672
385.964
-290.116
-193.075
145.309
-225.533
80.2235
-129.201
-83.9871
213.188
107.659
210.802
-318.461
38.0127
-266.42
-239.926
-93.9643
-35.158
129.122
-203.038
326.148
-123.11
481.919
-176.024
414.079
-69.9991
-306.493
174.972
94.0604
4.72989
-274.788
-32.2318
307.02
57.4066
-373.848
-408.879
137.185
128.239
-16.7635
-111.476
165.912
-280.381
114.469
-108.924
266.568
-458.716
334.676
-77.7633
-81.0621
497.298
-149.873
-240.437
406.745
-166.308
218.837
-349.439
130.603
470.166
-111.896
59.8309
57.7434
-309.06
135.217
357.097
-207.925
-149.172
-170.877
297.303
-126.426
134.289
347.629
170.741
-270.286
99.5446
389.88
-107.417
360.477
129.592
-490.068
329.039
-226.064
-102.975
473.933
-502.861
28.9282
122.433
-72.4181
-50.0146
340.315
-224.942
-11.6423
-80.9171
-80.8255
-182.02
262.846
41.2927
-126.037
84.7445
-152.641
68.7526
-307.185
474.404
-167.218
-87.2908
-49.7508
-194.647
198.245
101.883
52.8729
-134.409
81.5357
288.257
4.38584
-292.643
-146.906
93.1535
53.7522
-100.816
454.14
184.431
125.113
-146.537
304.793
-236.845
155.023
335.878
54.1869
-157.97
-159.668
17.0433
226.154
-251.866
78.9203
-141.013
240.856
-99.8422
61.9527
-139.478
416.706
-203.907
-371.526
376.989
-5.46385
-133.527
494.003
66.7814
-137.436
70.6545
133.465
-68.3485
-141.554
209.902
-152.516
184.855
-71.1656
63.9041
25.3386
-89.2427
58.8668
-129.469
70.602
-258.614
160.301
-97.5479
-69.4675
167.015
-267.753
-293.623
126.452
167.17
116.904
-84.4358
55.8398
-113.805
57.9649
59.5915
-188.792
145.575
140.343
-123.563
273.294
-149.731
-142.86
89.3911
53.4692
-84.0273
206.56
-122.533
-375.349
212.736
-183.735
363.589
151.558
-270.849
119.291
257.639
162.616
-420.255
-51.4992
-32.3604
83.8596
331.445
97.8134
340.3
-146.748
-193.552
-157.718
406.183
-248.465
165.417
-70.9645
325.724
-254.76
327.681
121.679
-449.36
474.56
340.371
130.587
-470.959
249.326
-457.15
189.258
-25.5271
-163.731
-338.513
183.027
155.486
-129.735
16.7755
112.959
88.485
19.3549
-107.84
-57.6827
-86.0192
12.2225
-383.748
-356.292
213.259
61.4436
192.424
-253.868
-377.991
307.026
222.168
123.442
-345.61
-52.3132
108.385
-56.0714
-100.575
-152.46
253.035
568.601
-257.478
63.0913
135.749
-142.085
-279.907
421.991
-123.237
169.745
-221.612
385.437
-163.825
-361.439
45.1785
316.26
-178.144
-279.147
457.291
-70.1025
-59.4861
-564.256
366.718
197.538
300.44
-181.712
-118.728
-124.209
346.377
-166.816
69.2676
110.991
-188.461
158.688
88.0663
-162.237
-490.529
250.991
239.537
-174.589
93.9734
-265.94
97.9426
-290.746
-291.038
-58.2423
-243.607
96.1023
-332.319
236.217
-203.315
-171.994
62.7011
109.293
-248.551
-68.7006
-114.695
-37.441
152.136
-48.9648
-42.7041
91.6689
-321.53
225.147
28.2082
-94.2212
66.013
158.112
-189.934
154.047
-365.628
211.58
2.89029
-277.678
-191.519
316.358
-124.839
-242.045
258.479
106.728
-132.809
-89.4199
222.229
403.683
-413.016
114.32
-73.2152
285.322
189.803
-475.125
-81.7618
-92.8275
-78.5416
272.4
364.619
-367.799
94.1611
-5.67614
410.156
-126.287
-283.869
106.625
169.027
-275.652
138.435
-57.2975
-117.889
175.186
279.982
-121.198
-158.784
347.726
42.1542
131.871
-90.5783
-501.733
173.376
67.567
-133.023
-130.206
68.0521
62.1542
-51.9995
168.959
-116.96
-142.029
-76.1873
218.217
22.9509
-98.4114
75.4605
-123.217
42.8491
178.685
-185.946
7.26063
232.421
-281.718
49.2975
-218.29
76.261
-87.3608
-75.9658
-50.5893
-72.4404
123.03
142.57
189.454
201.586
-225.467
179.214
178.286
-140.767
-37.5192
-380.239
271.969
108.27
238.014
-84.8279
336.118
161.18
335.041
103.218
-438.259
-130.173
-139.594
-537.847
251.055
286.791
225.866
-313.548
87.6818
141.65
120.495
-95.1013
63.1018
-43.4802
99.6944
-56.2142
-273.099
-221.04
494.138
-418.118
441.368
-23.2494
-267.401
102.94
-126.823
-457.994
-21.0164
479.01
210.226
244.882
-455.108
-123.851
-188.501
-150.32
-150.034
92.2907
-28.3866
-337.448
135.705
-32.8042
174.908
-129.507
-275.78
176.257
99.5236
83.2216
66.2447
-131.716
-143.527
275.243
143.454
-90.5806
416.419
-294.44
-121.979
-140.661
359.497
-209.041
-54.2911
457.15
24.1324
-114.312
-74.9804
189.292
454.659
-0.194148
-454.465
-93.8171
330.239
-236.422
116.244
82.5318
-198.776
-375.285
224.045
151.24
-130.074
-106.578
-169.202
140.191
-73.4093
-108.421
290.455
-182.034
137.369
143.471
-280.841
-150.171
-52.8534
-246.166
-178.346
424.512
117.452
476.438
-332.678
-143.759
-153.653
146.505
-93.0232
-53.4815
32.1919
-89.4553
201.969
-271.789
294.373
-352.615
-405.364
348.088
193.478
-317.329
230.571
181.532
441.703
-205.069
-241.095
164.278
93.7637
82.4436
-91.5135
115.507
-167.506
-270.801
290.42
-19.6189
-277.398
-20.7866
78.0271
-139.786
61.7588
116.534
286.143
-159.691
248.767
-141.136
-107.63
-81.2195
143.172
-270.533
120.296
-188.645
311.002
-62.5803
-248.422
-261.099
471.325
484.82
-148.702
-370.062
267.152
102.91
-22.2853
476.944
-222.655
421.262
-86.0438
-203.097
289.141
105.117
-263.015
157.898
11.1112
292.039
-334.611
-247.386
581.997
148.005
-348.227
200.222
-292.772
392.806
-100.034
-111.262
451.633
352.233
-126.609
175.552
-89.5818
369.581
-280
-80.4427
-66.463
-249.237
155.501
93.7364
175.912
150.236
68.0716
-59.7531
-279.789
339.543
-386.129
-78.9874
-135.705
-197.414
-338.119
229.698
-412.869
412.869
178.976
-339.333
160.357
178.922
-340.882
161.96
231.541
79.4607
53.7727
36.0748
-89.8475
217.972
-371.507
287.697
-465.841
240.911
-37.5795
144.153
159.491
72.7418
197.87
-270.612
124.356
-68.9705
-55.3856
-71.8678
-293.418
365.285
118.097
-188.511
70.4139
-79.3789
191.693
-112.314
331.902
4.37251
-77.1509
80.3298
-276.239
321.582
-45.3428
40.7416
148.516
90.7204
18.6303
-109.351
-317.956
-43.4831