/*--------------------------------*- C++ -*----------------------------------*\
  =========                 |
  \\      /  F ield         | OpenFOAM: The Open Source CFD Toolbox
   \\    /   O peration     | Website:  https://openfoam.org
    \\  /    A nd           | Version:  7
     \\/     M anipulation  |
\*---------------------------------------------------------------------------*/
FoamFile
{
    version     2.0;
    format      ascii;
    class       volScalarField;
    location    "38";
    object      p;
}
// * * * * * * * * * * * * * * * * * * * * * * * * * * * * * * * * * * * * * //

dimensions      [0 2 -2 0 0 0 0];

internalField   nonuniform List<scalar> 
117990
(
35.2323
-0.0642236
12.8692
3.63804
12.2771
-0.0245656
64.0486
27.1341
-0.45981
-0.0670425
-0.730013
0.561425
8.16329
110.977
-0.449224
103.134
-0.150648
-0.787141
62.2907
12.415
27.0396
-7.08231
-0.829318
5.19007
63.9309
54.6382
25.4019
33.3762
-0.130713
60.6764
-0.482026
54.1853
23.9415
7.06306
62.319
-2.35423
63.6727
-0.139597
-12.4926
64.4437
54.3441
-0.788746
20.9524
-2.42981
35.9719
111.333
23.9279
16.9507
13.0609
0.509516
-0.00023044
-5.16087
55.3905
-0.0348036
12.7574
55.5463
52.2972
53.7711
43.2439
15.0286
-0.16708
5.50896
-1.52886
15.5211
-0.291768
5.29307
7.84448
48.8477
26.7637
50.7703
62.8737
53.9712
64.3409
87.9594
30.5578
39.6078
41.4045
4.34338
63.954
49.3517
49.5523
-0.2783
33.9393
32.5507
-4.42505
0.538472
18.5846
-0.0909781
51.6372
-0.0896666
1.42028
5.53158
-0.135316
-1.8994
-0.895754
1.24104
-0.954361
33.3319
18.9264
51.6804
-0.169332
37.1414
20.0405
10.8901
63.0537
26.9369
64.9633
25.5186
25.807
-0.109752
50.3061
-0.946084
41.6071
22.2898
54.5605
18.1262
-0.735721
62.5905
0.0351085
53.8282
62.4726
103.107
13.1912
43.9505
-0.0118524
61.0021
5.71947
48.0296
-2.92145
42.3358
34.9778
0.817736
61.3603
0.535301
0.036762
61.5299
62.675
24.0482
12.9475
5.45669
47.8245
17.9106
0.148844
55.879
35.4271
-0.000369739
29.9883
5.78614
48.9356
7.77285
26.7619
37.1784
5.34744
-0.0117399
-5.08973
23.9877
-0.106247
45.8099
47.5315
28.009
38.0533
29.7974
-1.50669
26.0248
19.6724
-1.48143
40.4603
26.7163
45.5643
19.4811
16.5982
23.8265
-4.61226
105.912
26.7868
47.0971
106.401
2.61846
27.3429
12.8856
30.5248
30.7258
61.8814
56.1016
64.9553
-0.128546
1.8635
59.8933
38.5099
1.79015
2.70522
17.4831
63.442
24.3573
54.8435
26.4694
106.616
-1.76273
26.4248
29.9978
57.3952
64.4932
32.3405
-0.105567
0.937926
41.7409
-0.696247
-0.284228
43.0511
28.4433
107.157
64.8593
63.8674
-0.0871047
27.5016
24.6643
46.6656
24.0381
111.323
-0.328086
25.8284
21.4632
14.9957
52.7316
-0.0368457
61.1521
26.2702
28.7886
26.2709
63.2814
35.3628
31.3947
50.1309
26.0442
34.6757
57.5381
1.50255
17.0741
26.4899
-5.24493
13.7609
33.1669
27.9563
17.8044
-3.0124
8.23148
52.0103
59.1227
26.7219
83.4492
63.4009
-0.678044
55.528
7.29868
50.3152
30.7354
37.6117
33.281
0.938098
26.8491
30.7819
111.712
56.2092
-12.9799
25.8738
3.8079
44.3066
-2.87197
46.3631
37.3043
-0.301777
38.674
12.8627
33.2184
6.10371
19.3426
34.2817
26.9814
15.8297
24.7763
26.1142
-2.96803
3.90637
41.3161
0.714265
27.2563
61.372
54.638
33.029
-10.4618
35.6153
-0.0951861
39.2128
64.7786
0.0400124
33.4833
-0.0708735
53.9024
10.1602
36.766
108.87
25.69
-2.33273
8.7551
22.864
50.2998
32.6116
28.5723
-3.51456
27.3677
-1.01097
59.7327
55.7731
26.5302
8.04319
19.7613
63.4166
8.22016
5.28419
35.6353
42.5156
-0.312376
32.1221
54.9837
51.6578
42.755
24.255
53.2269
109.052
39.7569
-0.742471
-0.0958113
0.0195332
-0.133508
60.6178
5.45221
46.6495
-0.289463
-0.163953
1.69858
13.2582
51.7561
23.9378
14.5901
9.93652
11.1462
15.9225
48.0537
33.5928
15.7829
61.5033
59.9508
30.5923
2.60608
29.8542
28.0282
35.2561
-0.00141942
1.32544
38.0611
61.0849
22.2064
63.634
58.9603
41.6909
-0.00126884
5.14837
21.6563
15.0418
-0.00554111
22.6167
50.4652
57.9633
-1.21419
47.9779
16.8604
19.7974
0.499585
-0.0932607
38.7908
32.4128
26.0392
21.8094
38.0023
27.2171
-0.457062
50.8652
89.1184
12.212
29.194
53.8371
63.0614
18.7878
33.4632
21.2505
1.08824
-2.81165
4.84153
12.7225
16.6188
29.7882
1.61256
52.9647
64.0964
-6.77732
36.7246
0.0373229
14.6958
45.7995
-7.07067
23.9522
-1.1254
11.2856
4.1828
-4.54211
15.6142
12.6961
17.3255
0.0999516
26.7849
-0.00138747
107.419
0.82911
62.3333
56.1475
60.64
37.2235
61.7741
52.0299
5.48766
9.20276
-0.0221137
-0.501921
27.6845
8.69333
14.6492
35.7672
0.809539
-0.499669
0.479278
4.14354
42.6522
35.2739
16.7759
0.668477
22.9266
8.08425
-0.457921
62.9198
46.9941
64.8923
0.110475
0.547463
9.5985
26.6977
7.31642
25.8297
59.5171
58.5888
-6.13804
53.0778
8.0836
12.0816
64.7696
59.9925
26.8095
11.8885
105.722
-5.99596
0.111426
26.8622
87.2053
26.4694
88.8583
35.64
51.559
-0.004589
11.9763
37.0292
43.5035
60.2399
-0.00314265
-0.286552
8.38265
26.4619
-0.550092
0.0701411
44.9885
64.2354
37.1062
64.6282
15.891
63.2551
56.8271
4.36458
22.6396
100.745
22.2
16.9106
10.6577
-1.82871
64.0301
26.078
62.4205
32.7116
60.4141
15.877
13.3105
12.4251
57.9244
2.73347
7.13896
7.26174
-0.128069
34.7159
29.4874
0.991619
44.8544
-0.107072
-0.0896247
9.32071
33.0614
3.30302
15.5913
24.8384
6.79068
-0.276414
63.4649
31.4375
27.7753
16.8863
29.3431
12.5438
0.0199575
-0.00313391
79.5932
101.017
30.0298
0.0178981
7.32633
51.8659
25.3213
41.1418
-0.272913
27.4321
29.8932
0.312619
-0.126643
59.1671
8.20288
11.8713
27.4394
1.56077
58.9153
25.2987
15.6991
14.369
15.7613
49.4365
1.1312
0.0330799
17.5364
59.0945
63.2621
62.8214
35.0974
14.0383
63.8088
29.7306
0.937103
39.323
13.46
45.7845
10.5372
45.9694
5.29622
62.7014
2.26492
8.33278
15.6139
64.5998
0.90905
26.5191
25.8421
58.5399
26.6918
7.05343
22.2736
0.185261
-6.63719
6.7991
33.7726
26.6879
11.0551
50.6935
64.2209
62.6218
61.7806
62.5298
36.877
47.1178
29.9473
64.8364
64.9008
11.8341
5.48247
63.2154
0.0537889
-12.5948
29.9774
17.9951
8.19093
43.5497
-0.343868
9.35987
62.443
62.3038
-0.522494
1.17671
43.6801
7.03215
-2.70418
60.3056
58.9194
-0.113093
24.5753
26.035
2.52213
33.2147
51.8124
62.5754
7.16061
-0.00400455
64.855
33.1065
-0.528924
42.5254
23.8932
5.11236
-3.56811
-12.9116
8.35862
-0.403196
29.2045
1.20171
-0.428155
18.1263
41.8599
-0.663576
24.7449
5.32202
26.7747
64.7003
0.0180081
57.4099
32.9291
63.2602
42.2394
-1.03492
-0.139278
-0.822085
7.27278
56.4828
16.0426
5.31705
61.586
97.1517
97.9511
39.0272
43.874
63.1919
-0.944157
26.5432
18.1723
0.756142
33.4582
5.28241
34.8293
24.1809
59.0658
61.4407
2.02052
18.9761
27.9518
48.6279
51.0407
30.7002
0.000568613
64.5457
7.47172
109.59
15.1087
37.4812
23.6228
17.5593
15.0361
-1.66364
64.1898
21.6535
52.3584
86.4419
35.8124
-0.0934638
25.8584
25.1643
26.3262
42.3202
27.5205
1.25197
21.0765
-1.84279
-0.0919211
15.9119
1.05877
62.5933
0.772787
62.5279
19.6551
35.1564
12.4932
55.4588
16.781
60.0826
-0.00533752
31.0137
8.94345
11.9741
25.2618
0.0446787
33.41
53.3335
31.0765
0.937503
19.2627
56.4135
61.884
10.1017
-0.769139
43.7907
0.588385
63.3201
29.9893
50.2157
61.102
0.564397
33.1036
61.7992
-0.432496
46.6327
63.1906
-3.5954
20.0709
1.40854
24.0722
15.7372
-7.25526
61.8447
21.9624
52.4673
56.1528
-4.3041
0.388049
62.6744
4.58247
7.84908
1.10492
59.5659
85.6902
61.2988
7.96625
2.1428
7.69004
19.4594
24.8033
45.5181
41.4818
56.4498
-0.544805
17.648
0.0111892
8.63264
-0.00584619
-5.81631
26.7728
62.8237
-0.13182
62.75
-0.951808
33.6543
-1.15231
88.2831
17.2504
54.1804
-0.510079
28.6281
33.4873
15.1052
-0.107741
1.9873
-0.690117
24.6708
11.1742
-1.73334
60.541
0.376762
1.28429
26.5071
-1.01798
63.7781
50.8881
7.15314
33.8921
27.2943
-0.0140678
21.5341
24.7362
1.28977
29.8749
7.98884
42.6685
7.50004
2.15285
33.1693
-0.0905051
6.33673
-0.907292
64.7325
-1.95549
0.560009
-0.537873
37.965
53.7998
4.75386
2.45986
61.6349
64.5656
11.9989
53.7251
19.0726
82.7085
0.403388
-0.0200935
59.3808
44.6869
0.39665
50.5092
-1.49502
-0.0498958
50.9623
25.5255
60.7402
91.5494
26.5965
-7.17663
7.59825
16.8126
61.8738
-0.0398041
25.1789
49.8672
0.137972
19.6508
32.777
59.1941
20.2896
19.3479
54.7908
43.2291
29.0456
21.0723
64.0678
48.0844
2.07161
25.5727
60.5351
-2.05518
-0.858362
23.815
9.73129
14.8828
56.3473
-7.27174
-0.0478693
-13.1608
14.0176
23.9072
60.0927
19.3291
36.3232
1.71015
59.6124
21.1292
50.8921
21.5904
55.8827
52.4985
25.6023
55.4569
62.2631
-0.901467
51.1671
63.7341
23.9245
3.43083
27.107
59.5655
34.3787
35.9086
64.1905
10.1916
5.27325
-3.18888
0.974796
45.174
48.564
1.25727
63.4992
59.4564
41.3452
-2.95822
42.2237
87.5553
25.3461
64.0851
56.377
1.53837
45.4466
86.7907
4.559
54.6561
93.084
-1.97947
51.5605
1.03893
60.2187
12.3251
57.3341
44.2096
-5.65876
64.0278
-1.77408
28.9875
21.6383
-0.529149
21.1714
21.5144
14.0333
26.5629
6.6733
3.03103
45.7105
16.2389
-0.865883
25.9199
109.643
62.2179
39.1076
59.676
-4.48824
8.79506
62.6863
32.4314
-0.0897921
2.73825
26.5353
1.91168
21.8944
-2.83472
51.8219
-9.9602
42.2314
79.1276
54.5182
41.9676
8.63737
12.6119
-5.50904
52.6792
25.4768
0.000433273
-2.00264
-0.859021
55.9852
6.63059
-0.00976061
21.908
18.2412
27.4919
56.8727
54.7789
19.5742
26.6289
8.17567
58.6103
24.5155
53.1714
6.74898
27.2349
28.2843
12.8209
-0.506375
1.01252
-0.153882
27.108
-1.75127
17.2896
2.30737
54.1602
0.0252755
2.64934
0.217205
56.8952
20.4508
64.064
42.2573
55.6558
-1.57685
22.276
64.044
38.0301
21.2438
53.9851
-0.57663
9.70756
-11.9216
39.8033
0.0270127
34.1138
17.7664
26.3527
25.8437
63.202
13.9585
-12.7816
56.7795
13.5599
14.7463
8.46493
-0.00899491
-0.476113
-1.85179
44.878
-1.01143
5.44721
17.6695
62.8463
60.2906
30.5854
0.519913
22.5493
43.6761
17.9855
0.48622
18.4501
38.4961
0.0845317
7.0284
43.1058
59.9793
16.6442
104.052
58.9051
22.9824
0.790469
92.4039
40.0503
3.59009
0.133278
-11.7839
-2.96585
13.8784
-0.112662
-4.4189
44.2478
48.8352
23.7401
25.1418
16.7675
-0.184419
57.183
-0.885962
33.6209
58.4935
-0.250109
37.8223
9.67547
64.2155
54.1693
25.8946
62.8631
55.3517
18.3755
43.2626
0.545002
3.01732
101.77
-2.9195
-0.515663
34.7262
-1.38801
-0.212316
14.9792
-0.713795
26.0552
25.1823
4.68334
-0.635769
-3.08806
4.61477
-0.139292
56.3777
43.6898
29.2184
-1.59291
92.2808
26.2066
50.3485
15.5558
16.7099
59.9244
50.3005
43.1573
26.8051
4.89463
0.0484548
44.6862
64.0429
41.1692
-0.131576
-13.0589
0.504565
0.0941909
57.2559
2.46372
49.3628
-1.74027
64.9219
29.909
16.5047
31.0906
-0.0760244
60.2704
-1.5567
7.41324
54.231
63.2042
57.8428
2.17277
2.08234
54.9446
-0.0366687
50.608
7.26118
64.8608
54.0431
18.0057
15.3861
0.0978765
50.8952
22.2403
21.9113
23.6391
18.447
1.55254
33.5154
-4.37577
50.7165
56.7127
13.6497
60.2136
51.8061
-11.2627
-7.00857
42.8668
19.7528
53.2003
60.8892
45.7473
16.95
0.0133154
11.9557
25.496
23.0239
29.0644
50.0618
64.7589
3.84314
59.906
-0.073234
28.204
4.95213
63.2949
105.167
-0.245665
60.4483
-0.102932
7.00495
-0.139327
-0.00349376
-0.00285767
63.3374
12.9493
26.4071
19.8525
-0.367354
71.6551
60.2036
13.8212
4.76756
-1.11032
-0.139479
2.772
33.6221
42.104
59.8622
-7.04757
56.7895
21.2296
27.9183
38.6239
2.81189
53.9735
0.0594049
5.48519
2.82804
17.19
-4.16241
62.1367
4.94723
-0.000268415
20.935
6.68425
64.0801
-0.103138
5.01735
4.89442
26.4268
33.5641
23.9958
114.774
53.2377
62.1479
-2.96335
5.36464
27.0277
-1.70375
55.5578
23.5257
-4.94755
37.8227
-10.7337
3.20649
20.8048
-0.632208
14.1173
70.5309
12.1837
44.9674
64.7753
62.9659
62.6155
-0.0985276
2.74915
0.0542971
47.3418
41.1217
59.9442
15.8903
23.4136
60.705
25.2336
31.9422
16.1536
40.5884
24.2537
0.0336646
52.1321
-1.16764
58.7813
45.8026
43.2935
0.479384
5.31762
35.6563
-0.0155626
55.8303
9.54702
27.2415
35.2402
44.0008
63.8844
27.7284
59.954
58.623
31.9452
-1.7612
42.4825
53.0024
8.48184
45.0781
-0.0848278
33.7744
37.116
13.4738
54.7406
0.561738
57.2038
61.9124
-0.105232
5.22983
0.123238
53.9831
6.92303
28.3271
5.24974
33.8822
50.6228
8.67542
28.7026
6.77903
24.1262
15.5925
-0.0947285
1.85087
31.6871
86.3578
21.7711
-0.0880291
32.1801
-1.73897
7.93639
37.8137
62.0146
13.9823
30.8138
59.9937
14.5411
11.9322
31.162
12.0454
12.0082
30.7911
51.0208
26.7626
-6.8494
-2.67113
31.8225
0.498746
-0.832328
0.119919
53.0914
-1.95181
3.20044
33.3177
-0.0178147
9.11576
-0.415717
63.1999
0.0172653
6.60194
-0.294909
16.7389
62.0139
15.3685
24.1646
-0.148253
-0.0699114
30.3202
8.78372
-0.516511
63.5334
26.4692
-2.70307
95.442
7.21621
2.9151
21.572
14.8425
-1.71761
54.8643
-0.639313
28.0331
61.0959
-0.498473
30.2792
-0.978763
26.4342
61.2328
38.82
-7.11386
0.500744
14.3099
15.9546
15.3513
33.6085
5.7805
-1.47239
-0.293336
-0.624928
28.3618
24.0425
54.4514
14.0479
5.43412
53.0538
55.8148
38.4277
-0.60669
26.3668
31.7138
42.2077
35.4431
22.5597
54.0622
53.9942
25.6866
34.1728
60.921
26.9908
0.475927
98.4794
108.307
36.0509
17.5746
19.1418
5.87752
45.0321
24.2105
64.2752
26.5704
64.0181
85.0806
-1.29556
17.9396
8.48413
0.0452331
-0.13473
62.3152
-0.187402
39.5807
19.0806
30.4418
59.6037
-0.874099
31.5897
41.348
-0.461847
62.4413
25.1472
-1.57033
41.7023
54.9192
-0.00690374
43.6125
2.75636
50.9738
38.5369
84.0961
55.8883
-1.56568
-1.36564
57.5967
63.0373
63.0602
6.66015
31.1037
64.3482
52.4136
26.0865
-0.0124942
55.6708
30.1711
16.0893
20.9896
58.4614
21.4347
5.92881
49.0011
-0.46247
29.7493
52.7254
63.8298
55.6287
55.5468
58.9586
49.7876
-0.635464
-1.15532
-1.61787
-1.71393
55.2842
53.5223
60.4112
34.7278
-7.08837
25.5612
22.9141
3.75001
7.93718
-1.13708
78.3238
14.8703
42.2423
-0.0382168
0.0346186
5.22877
0.0585143
5.52883
13.738
36.1474
12.1665
10.3384
57.006
85.5131
8.05505
-3.00331
6.52249
-1.69598
-0.48958
6.27154
18.0937
1.49733
7.90921
40.2094
-0.1086
42.7296
33.0268
16.0913
-0.732425
14.1553
42.4834
22.9891
51.1922
34.203
1.08344
37.0581
22.2443
-1.94471
-0.0353547
0.517436
10.0736
60.4204
6.78183
5.04777
9.80891
20.205
-0.905809
63.4292
-1.53335
55.4045
3.18405
-1.20849
0.473696
27.589
100.24
61.8987
58.9583
55.8954
2.73819
27.7541
-0.18701
-0.0107386
-1.45913
11.2569
62.4983
29.973
71.8493
24.1621
62.0391
50.3309
20.8462
0.000222754
50.7083
59.9545
37.4371
-0.132728
-1.66366
4.31069
62.9407
59.3672
32.8637
37.0772
60.0818
6.14212
-0.130519
-0.0961121
42.5085
6.08544
51.2662
-0.0384147
34.3756
13.9159
0.142276
59.6549
29.6208
51.521
-2.38337
2.76433
44.5377
33.0599
47.877
16.9967
5.72959
54.0992
5.42678
34.0277
60.038
60.2552
-1.82438
55.313
-0.00270391
1.46372
58.3549
19.0568
42.9363
43.1636
7.24193
62.6049
38.5585
-0.0874285
103.618
7.55082
7.73082
-0.667026
-0.273577
77.6498
19.0917
6.01114
21.7282
11.2535
55.7394
62.123
0.397081
-3.07804
-0.99609
29.471
-0.721586
0.127304
-0.142646
60.4872
32.8603
7.77882
29.3084
43.7959
94.1713
62.351
58.6186
63.5539
-0.0847969
-10.7033
44.6431
18.3451
25.083
-1.98405
59.7549
7.40158
26.1363
4.46671
43.9324
93.2492
42.0436
-0.00194672
49.52
-0.253029
-0.0445889
47.3286
-2.41691
27.127
59.5326
22.1592
6.10343
-2.61841
58.438
63.9772
63.9382
64.7613
80.8777
-3.11492
-1.45244
36.4603
26.1697
13.8442
-0.333163
31.1897
11.408
24.4373
9.64271
-0.0531422
25.7276
36.1558
63.3282
56.7446
-0.0636735
50.5794
4.50885
110.895
99.079
19.6823
63.9115
-0.998979
76.2423
42.9915
-0.872616
0.25857
44.9655
55.4429
23.7278
34.0408
47.8235
18.6703
-0.018969
-0.0144379
47.0614
33.447
26.6375
-1.45409
56.7971
-0.35989
-0.00736396
-1.30612
12.0213
19.4749
-0.092251
29.2451
51.588
58.7004
2.3291
56.8813
8.29689
58.9771
-4.10091
28.5766
0.129551
43.2373
46.889
44.1508
55.657
61.6052
18.9758
27.1315
63.6831
-2.21436
60.889
5.19085e-05
55.8227
46.1521
59.1649
0.496983
-0.10897
49.1174
58.7706
55.3753
0.0381552
4.16301
51.0438
5.37216
-2.08884
44.1519
32.7333
27.5422
63.5393
-3.04171
38.4054
15.1506
45.5424
-0.60599
60.5354
54.0151
46.5159
-1.32152
55.6666
25.1626
36.9204
50.7523
0.606849
28.0623
36.3148
31.9148
-2.76074
23.4578
18.17
-0.0762613
22.8922
-4.6211
7.41531
25.2141
-2.67212
5.41739
40.1986
0.11589
48.2224
99.7905
58.9734
-0.617138
50.465
-0.144983
1.09065
18.6929
-0.225305
14.0889
9.16585
99.7803
61.6419
26.6142
30.5122
48.3129
65.2076
-0.143127
23.541
38.7115
41.8539
-0.105519
59.6249
23.6053
38.579
0.310581
17.7158
-0.266191
58.7289
-3.04179
56.7609
0.516473
100.409
-1.912
-0.0383269
64.7701
-0.298053
59.7765
56.8379
50.4189
-1.18314
59.7762
62.069
65.0185
63.7654
62.9659
61.3556
-0.102087
24.1716
60.2451
1.08739
47.8928
49.4101
-0.0582657
0.0584876
56.9292
50.0524
46.2303
22.6432
52.7851
-0.668812
0.722912
25.0829
23.8592
25.3912
64.4475
61.3344
26.559
63.5262
59.3756
38.5725
62.4245
8.42465
62.2934
14.1259
42.4204
8.47367
23.0745
19.7055
29.0802
-0.0990701
27.6924
-0.125926
59.5988
52.9012
-9.55463
5.13827
28.9148
32.8171
-0.283014
16.6611
26.4352
17.0944
27.5342
23.9127
-1.27573
15.7338
42.362
0.432615
39.5364
-0.13945
54.7565
5.70906
31.7116
0.423497
-3.42174
23.7168
17.4748
36.268
5.28547
45.835
26.9611
97.7913
-0.491752
39.572
42.4612
24.6896
63.5877
1.26963
102.205
24.2686
14.1705
31.1521
0.121369
13.5181
16.7814
-5.17682
-0.481095
-1.50611
53.5903
-0.00202405
0.437097
0.177325
-0.148199
-3.08177
61.8161
57.2125
-0.921159
34.0742
-0.148085
32.0223
18.1393
-4.27438
40.7615
-2.6384
57.1006
18.5552
6.14601
17.5536
-2.76003
34.1594
-0.738672
65.2165
8.1944
48.4734
26.2271
-0.112081
53.4746
-1.53525
24.1315
60.3585
5.53786
26.6323
63.2639
75.4917
27.0024
25.1473
42.0486
3.46989
44.2879
-0.238246
23.5091
4.83381
62.9457
33.2956
47.6072
40.9783
-7.21643
45.7614
36.1761
34.8722
58.5379
9.27996
27.6192
-6.72775
1.58456
-0.524935
30.9448
48.5108
-2.09503
24.9576
23.5306
5.48528
23.8821
-0.792385
1.27952
-2.67525
-0.297355
84.478
6.54758
57.252
-0.00938939
-1.17925
0.12677
50.3035
-0.300488
51.0575
54.0885
59.5105
1.06458
20.028
14.343
9.81935
3.51875
46.815
26.3519
26.2744
8.63397
-0.963155
55.3858
35.7387
28.6226
-1.74877
-0.707139
45.6118
-0.518597
17.8303
42.3725
64.167
60.5828
-4.9803
4.99699
19.4946
-0.567823
0.128395
26.4918
-0.00579309
22.5519
21.2166
-0.0605346
0.0431253
32.661
31.482
25.5523
42.1402
0.0695582
47.3086
32.4329
27.4956
0.415267
57.742
-0.938174
62.3942
-1.2623
29.4553
-0.0401024
18.3065
56.6912
15.8177
31.9676
26.172
0.304929
47.2593
7.31491
34.5165
25.8029
17.2791
51.6299
50.6028
33.2734
49.8782
3.10028
0.0749963
-0.586254
25.9552
-0.146408
7.61572
49.8049
63.4953
49.1576
-1.45456
55.4794
14.2737
4.9792
34.3451
44.386
31.3252
0.0406827
48.1366
35.3486
33.1458
102.995
108.028
24.2907
-0.0869313
7.8992
4.37075
62.4223
28.7934
37.014
29.6398
47.6785
33.885
58.6775
-0.255695
28.7981
14.0733
0.00160702
5.78418
46.0362
5.27533
102.638
34.8578
42.3091
62.3358
0.808514
-0.00298348
0.0311385
26.0925
41.5941
26.487
-4.4673
9.38369
3.92897
55.8427
-0.240354
35.5598
-1.47421
14.4561
13.6612
3.76497
54.6304
28.0683
17.6497
35.3636
53.0652
25.5928
63.5333
59.9243
54.845
26.0185
17.2922
72.7689
34.9336
56.8766
26.631
0.124818
-7.0739
-0.00568266
105.434
-0.975913
1.46759
-7.19774
50.3338
-0.501837
-0.126532
47.304
20.2422
0.00137754
-0.040883
6.63943
3.37753
0.0359066
38.7984
14.6614
26.0621
46.4451
32.6503
30.7859
44.8004
22.9379
0.564197
-0.891373
64.9838
3.71448
26.8695
0.115081
25.8393
25.9308
0.682912
36.5397
25.2272
18.0918
63.1958
-0.255548
20.6097
-1.37973
14.7026
-0.94162
-5.44739
62.2007
13.7233
-0.0142583
60.2087
4.09942
-1.03868
12.1433
6.05472
41.337
25.8003
-0.550623
-2.56268
40.2707
24.8355
0.0864325
19.5584
24.165
39.2407
28.4235
30.9583
61.648
17.9107
48.1417
55.9532
-0.967255
15.6123
64.8316
0.000700261
55.8734
31.2866
-0.00505912
58.6272
61.5823
1.40385
45.2972
72.3104
40.9876
4.97063
22.7704
-0.00566767
4.03796
50.3527
24.0136
26.6062
-2.67238
73.9423
4.09583
-0.621315
-0.510663
42.2323
63.8751
30.993
-0.00398642
0.127365
11.1442
-2.43406
20.4063
58.676
100.477
21.6645
22.7001
16.9892
55.8511
0.049591
43.7934
19.0407
57.4147
7.91884
46.9016
-2.7075
-1.36521
4.51805
-0.101724
-0.125501
49.6217
1.7304
56.3926
-0.235297
42.6689
-0.556402
27.8999
21.0378
35.9637
103.329
31.3224
-0.108747
52.8004
25.5438
34.2824
52.8792
101.759
26.7895
25.2399
-9.12749
53.9922
13.3359
52.5873
19.2012
26.539
0.377529
58.1236
35.4071
-0.4845
-0.0790933
55.7867
-1.58272
46.9728
51.5898
13.7114
-0.210748
18.1948
61.957
53.0934
5.2148
58.3835
54.3106
40.279
0.86537
-2.75058
36.5597
61.5804
25.1051
19.0384
-1.55645
0.107104
21.569
39.3771
42.7727
54.3255
15.157
11.3296
26.0429
25.2635
30.6911
51.8204
35.6787
33.8811
8.39355
-0.108811
34.4651
25.8796
9.43036
-0.648666
55.9014
59.9664
59.6149
54.1942
26.4502
58.4497
-0.609181
60.2284
23.3314
17.3739
-0.130056
38.9008
39.1666
-1.55273
6.06234
63.7129
64.2308
8.28474
62.6619
61.4311
43.8126
24.1792
27.3977
-4.46805
58.407
21.5219
-0.777456
-0.0179212
-0.866087
25.6901
2.04443
17.831
26.9431
14.0013
-1.63977
58.5514
31.6665
63.9938
51.7496
59.1725
31.6256
-0.0584209
46.19
7.25056
1.54688
59.8779
54.814
54.8408
50.3802
19.167
39.5298
25.3312
0.0204969
49.7863
-1.03384
27.2202
19.2603
28.0393
-0.0389244
25.2704
51.9996
0.000228391
49.7098
47.9034
-0.815731
-0.659419
-1.7411
60.986
53.4258
-0.010286
-1.88364
0.104099
-0.592565
9.22125
-1.85101
2.99111
2.99676
1.21122
1.35824
-0.852198
-0.808423
35.2978
-0.0552085
-0.047975
32.5102
29.5104
35.1048
64.7492
33.1641
4.02771
4.08468
-0.00221049
14.0068
23.5581
19.8366
23.5004
-0.765716
64.1946
47.3469
58.484
26.1222
35.6459
24.6663
29.8895
0.0359782
27.9967
18.6373
0.541711
28.5637
30.4504
-0.132579
56.4491
55.5455
0.187363
56.9757
46.7595
18.5107
18.8018
-0.140046
48.7447
22.9836
-0.0103664
47.2406
-0.137231
-1.60813
52.1594
100.792
1.93041
13.9138
-0.0460984
28.5237
8.55107
59.1226
41.2251
0.0703083
0.113139
6.64266
32.1248
1.61101
21.8084
1.78529
89.4798
54.8019
6.68279
-0.182842
-1.09372
28.0849
44.834
63.2772
31.0824
57.1304
8.97092
68.9034
96.2545
54.8465
64.1499
-3.79113
1.27238
27.6275
-0.13234
63.4286
60.7937
50.62
74.446
51.8845
54.0578
58.1551
62.496
61.4708
42.0644
14.3508
64.7823
81.9634
-2.08649
27.4359
36.2704
2.99637
26.5146
-0.596183
23.5918
27.8578
9.72325
29.9241
0.0986448
43.2661
18.6019
34.122
-0.120915
0.649532
-0.273893
-0.0331147
56.9412
49.9948
13.7841
-0.754961
30.8202
-0.10261
0.0975666
1.33649
-0.693907
11.0925
92.4066
16.5061
54.9903
-2.59895
48.161
42.0581
22.5481
8.33171
2.63203
35.9834
74.251
-1.70049
-0.0281381
13.9502
25.2679
25.8466
41.2038
9.65133
44.4956
51.1809
5.38982
6.75051
49.5094
0.700422
-1.57494
-0.175233
-0.00945713
-0.297062
37.567
48.8833
63.4357
58.4108
-0.439506
-0.176592
-0.787082
27.393
56.184
46.2674
85.5624
51.0365
-0.263499
4.6752
28.84
18.2844
27.6174
24.4205
29.9617
33.9243
11.1275
47.0574
12.8164
1.21113
6.20089
44.8683
14.9709
14.2031
114.8
11.7191
65.2285
63.0854
56.5477
65.0278
55.2625
32.3737
1.76934
14.9265
55.4496
54.5082
0.953776
-0.0788632
18.6958
20.2537
-1.30968
29.9463
24.0048
32.632
63.967
-1.61716
43.4841
31.375
27.2341
51.7858
32.2157
18.7612
34.5411
22.9555
33.4061
4.20398
40.1173
-0.876188
32.0248
63.9213
30.2752
8.76219
0.722716
60.7745
17.4126
27.1603
22.5019
-0.0997388
64.795
50.5418
32.7956
8.48524
18.4312
21.6208
1.19202
101.122
28.1234
23.6406
13.9531
11.0222
0.102071
-0.437172
39.5974
-0.0839566
26.762
32.9194
23.9393
-0.568178
2.80107
0.410847
11.3801
44.4457
27.2189
41.2793
27.109
34.2302
4.20872
3.46445
56.7603
4.26595
-5.29066
56.5475
3.59966
62.2037
63.1618
-3.38498
56.6676
5.12803
26.6482
-3.7809
-2.92172
31.7454
72.076
7.58875
32.8597
9.48705
59.9099
28.2907
15.2929
-0.778437
0.848064
64.2063
61.4696
27.407
64.8479
-2.29403
62.1525
22.6201
10.994
46.9634
45.269
-0.35825
-1.68363
62.5991
23.777
-0.130688
64.0965
54.9552
30.9331
39.1993
63.9639
63.8056
13.7886
26.0229
0.880157
14.6455
16.5368
10.9873
29.7655
0.405245
4.48413
20.8946
42.9114
57.4071
32.9788
62.3522
73.3511
3.15257
14.957
35.7357
3.97981
56.0115
6.26492
-1.92036
60.6131
28.9439
84.6407
-1.19943
47.5777
27.7336
-0.0839394
16.1801
-0.355003
13.3313
63.1455
56.6431
61.7499
13.8637
38.1769
-0.663805
-0.285659
1.4852
61.5661
-12.2593
15.9115
-0.344658
61.4329
46.0377
0.187573
14.9115
51.5137
-1.68388
24.8565
-1.43987
11.5454
35.0043
57.9842
60.7315
51.1143
-0.719416
29.7916
6.69909
24.9041
-0.413653
18.4724
0.0736143
33.1075
0.533943
62.5258
26.4286
26.0151
58.2787
-0.291627
64.2325
-2.70741
62.5137
-0.0345473
63.6662
19.2399
37.4279
37.2568
56.944
58.3084
59.8071
60.3535
101.774
45.2681
13.2763
27.4871
0.644127
70.9722
63.5571
-0.694932
44.4357
36.7787
-0.597451
58.9474
43.0613
42.066
-2.12817
-3.69347
34.8724
28.4576
35.3321
41.6093
9.8371
43.5691
39.3659
44.2893
44.1627
37.556
13.5322
-0.753114
77.3545
41.7896
22.8009
-0.00252333
14.3284
63.2424
59.9309
22.958
26.876
48.9144
-0.341787
43.6971
44.8316
58.3003
44.6245
27.7527
61.6132
4.02584
45.778
62.4504
-1.57516
6.61029
41.854
-0.759229
-0.33905
27.0488
-0.000518116
-3.11097
-0.697719
58.0378
44.1982
32.2121
-0.0899485
64.0968
13.229
-0.11751
63.7981
25.9142
42.6629
24.8243
63.8407
0.651876
-0.0753916
-0.94674
64.136
58.9651
22.9694
45.5639
53.7667
3.27336
40.0344
85.333
57.5295
40.8387
30.067
20.471
26.058
57.091
27.2985
-0.439189
39.6259
53.2286
61.5319
27.231
42.326
55.4393
51.9745
-0.230579
26.0232
40.654
50.5974
0.091264
64.8082
43.2732
64.1429
-1.83469
61.2173
53.5912
-2.58898
27.5951
26.7303
50.4902
2.0696
5.15693
22.7375
53.5371
80.2349
7.7303
44.629
3.48481
4.91779
12.6099
84.7379
3.84928
20.3163
31.3091
16.8501
12.0296
3.16239
0.430721
2.3626
51.9243
18.9602
56.5356
0.0958819
28.1439
1.98688
21.9218
-0.295167
44.6015
0.0993969
-0.32601
50.0908
34.1582
16.2928
52.9574
26.0566
63.1883
-0.136825
15.773
51.9392
12.434
53.3874
4.41183
8.2622
6.99647
14.3354
45.1981
56.2209
30.0483
29.6659
29.7898
6.69742
11.9034
-0.086595
-0.718902
21.9198
24.7855
18.7449
27.6625
-0.325931
62.3298
13.0664
-4.5101
26.3423
-0.425663
57.3299
36.4795
90.386
28.3084
28.6261
64.4568
38.7052
43.9338
2.87614
55.2106
26.3954
-1.18845
62.2791
3.0226
8.80802
-1.76921
50.5102
9.20386
61.721
20.0461
19.1572
9.68904
55.666
64.0023
22.3185
8.52101
-0.549788
24.17
52.1701
-4.24796
27.122
33.3947
-0.0601863
63.9134
-4.56326
-1.84379
41.0128
47.8234
-1.02628
27.0232
0.117118
43.1801
47.2356
44.6324
7.25442
46.7128
30.9076
64.0867
0.089329
78.0647
22.2879
11.0822
10.6309
41.7539
25.0951
9.68662
-0.00910049
50.1223
-0.00824752
34.9116
7.41469
43.7958
56.9755
47.7732
1.16134
50.0156
59.8292
3.8037
14.908
14.3763
29.5033
-0.00119636
44.2498
61.9202
18.2893
0.0404971
33.1121
5.38623
29.5698
32.4383
43.7123
55.4934
32.2734
79.7937
48.0774
0.831487
10.2686
-2.79959
-0.883221
58.5736
36.1733
0.967187
95.2382
-4.19078
21.8916
0.414867
24.4993
50.854
0.03692
0.19304
12.9866
-3.15508
-3.02383
22.1222
33.0887
4.41677
54.9153
-3.6225
8.02118
45.6447
26.2698
-1.31038
5.57966
15.4893
21.5563
46.0405
7.93479
21.5324
64.1606
26.1252
113.091
25.2305
-0.449391
2.24987
27.5536
63.3052
86.7869
13.7135
-2.67667
37.579
51.2566
7.61546
0.220755
0.0840259
57.9745
0.563755
43.3073
1.42284
91.3306
0.760831
59.8568
-0.544082
-1.54877
-0.234968
22.1622
8.06691
22.0901
3.07877
58.2847
38.4818
56.0627
61.4641
55.0538
10.2893
57.8841
10.1055
21.9259
24.3014
13.6824
0.640506
-0.138905
61.3072
53.7118
-0.643057
33.8721
49.702
-0.11657
31.2786
-1.29413
44.4969
57.8436
53.8449
35.549
29.4784
19.3756
19.8093
13.8177
1.41193
20.4195
19.1877
1.26697
10.4504
31.112
-3.98579
96.1253
23.7888
-1.73341
55.8903
36.6133
62.1057
61.5231
15.7178
36.1162
5.59747
0.00148852
62.6568
35.7664
47.6808
18.9201
52.5625
73.6893
-0.132134
20.3239
24.7797
34.5654
-0.27682
57.5185
24.8173
46.9952
-0.00682352
39.4628
-0.551443
21.2666
31.1647
46.2775
12.9479
1.04477
2.84181
53.3259
43.1176
-7.18646
-0.353924
26.1617
56.4092
47.6333
42.1256
48.0129
60.7219
25.482
13.9154
32.7113
18.5198
36.8872
64.4721
2.68987
102.606
56.1629
0.909665
22.9685
61.3077
17.1449
12.9534
2.22157
32.0535
10.909
27.4359
12.9349
27.1499
30.5184
41.72
55.0562
54.3626
-0.38372
57.9268
52.6827
47.241
15.4509
-1.73785
45.0768
59.556
57.9157
-0.104107
32.0518
48.8415
50.1594
-3.99248
0.542431
27.6454
20.0473
-0.446994
-2.73807
18.0693
4.73796
18.2731
2.45605
-1.31538
36.4792
2.32812
55.7888
-0.766503
-1.20504
32.7684
22.1138
24.6569
35.6995
2.88142
7.43766
25.5495
51.8418
26.9626
41.1631
61.6598
28.9556
4.32401
5.82307
46.8214
-0.960788
55.6292
32.6712
1.01126
27.2629
23.0654
35.4078
45.521
63.1802
59.7824
-6.57824
42.1641
23.1225
8.40474
7.00359
0.0675869
31.2339
-3.80487
35.4006
0.269599
99.9326
31.0842
41.8949
57.1186
104.312
0.0675373
62.2097
-1.80548
0.247799
31.305
22.4624
-0.835078
58.0579
101.379
45.878
8.64929
17.3018
61.3012
15.8585
104.926
-0.0450879
-0.433232
46.0442
58.8906
18.3875
35.1699
61.0541
4.18867
-0.67177
100.625
25.3222
-1.18654
-1.09205
59.6731
-1.66391
52.4578
-0.467223
30.972
-1.53364
45.0326
9.18785
13.74
11.5281
46.7299
3.15162
25.8621
41.4882
-0.32903
19.6388
54.8436
37.5634
42.6896
-0.129274
52.7348
6.99874
35.7914
62.0232
58.1047
-3.39605
60.6042
4.22768
-1.94843
-0.190245
19.3674
83.2544
59.7527
-2.62989
8.17833
43.1214
28.6273
63.9406
56.4966
58.2018
-0.120251
48.6777
23.6518
31.216
3.80159
-5.10566
61.8218
2.46908
110.201
63.244
-0.0220675
53.0703
62.9728
26.1405
-7.1761
22.5093
36.8194
61.3824
25.4842
9.34103
63.6039
-0.54876
44.8708
57.4843
23.4606
13.6349
38.1246
38.4248
43.5532
46.1078
32.9425
45.5043
23.7939
-1.96374
47.9794
-0.167786
53.3248
7.96976
45.3807
35.8173
61.3899
0.516093
29.9782
24.3961
3.00148
81.642
52.1724
0.164904
56.6067
32.4724
4.91823
6.42191
37.6458
1.75126
14.5581
28.8316
-0.466111
4.90638
29.8521
-6.58196
55.275
-0.00104358
39.2394
-0.397773
27.5118
56.9802
5.02209
61.2613
-0.761351
-0.00066844
25.661
-0.826525
-0.52212
42.385
63.0544
28.0569
7.57
19.2222
24.03
0.0104968
38.4815
-0.12342
32.825
29.7229
7.71535
-0.270252
-0.840062
-0.232099
62.8274
37.429
27.9084
55.462
-0.0102484
-1.52763
-0.020259
55.613
33.5268
15.2622
27.0964
-2.75335
0.0882074
5.61952
6.44423
-0.0849982
55.3731
50.7665
53.7817
-8.12708
-1.00272
27.8182
62.0557
66.7157
0.0841397
53.9741
55.8251
45.4904
3.00604
-4.66484
19.1901
63.3298
35.7451
21.9226
25.4655
11.259
50.3316
50.5009
31.4291
21.7206
51.0824
50.8318
23.7148
9.86905
23.2258
49.6457
8.20937
0.89911
60.1551
65.2541
-0.577787
54.0773
80.973
63.8711
55.8015
18.6278
51.4804
4.74633
3.05547
26.4078
38.3273
0.0212628
61.6123
57.1902
-1.26179
30.3528
11.5262
14.0036
-1.48483
47.895
104.287
63.2971
-0.560713
63.1318
30.4924
0.0613892
5.08949
58.8904
22.8946
59.5485
64.465
17.2907
27.3638
34.2137
10.87
97.2195
64.5631
45.1934
27.1007
17.265
3.8573
16.0957
-2.052
104.466
-4.35484
2.98972