/*--------------------------------*- C++ -*----------------------------------*\
  =========                 |
  \\      /  F ield         | OpenFOAM: The Open Source CFD Toolbox
   \\    /   O peration     | Website:  https://openfoam.org
    \\  /    A nd           | Version:  7
     \\/     M anipulation  |
\*---------------------------------------------------------------------------*/
FoamFile
{
    version     2.0;
    format      ascii;
    class       volVectorField;
    location    "17.5";
    object      U;
}
// * * * * * * * * * * * * * * * * * * * * * * * * * * * * * * * * * * * * * //

dimensions      [0 1 -1 0 0 0 0];

internalField   nonuniform List<vector> 
7724
(
(1.22739 0.151429 5.24314e-21)
(1.06078 -0.0602458 9.15344e-22)
(1.03084 0.218227 -1.95173e-20)
(1.08181 0.0991353 2.48794e-20)
(0.998985 -0.00123247 -4.38795e-23)
(0.999951 -1.24472e-05 -4.98917e-24)
(1.00528 0.17783 -4.08968e-20)
(0.99355 -0.00231952 -9.04457e-24)
(0.999851 -0.000229071 -8.18495e-24)
(1.03372 0.000259786 -1.17051e-21)
(0.999955 -1.46015e-05 5.50638e-24)
(1.00276 -0.00161385 -1.79312e-22)
(0.990142 -0.00293618 4.48195e-22)
(1.02545 -0.00276381 -7.29447e-21)
(1.03292 0.00120231 4.95916e-21)
(0.989166 -0.018545 -9.0164e-22)
(1.24085 0.155137 -1.09578e-20)
(0.986754 -0.00375088 -1.56111e-22)
(1.00279 -0.0119198 -5.44372e-23)
(0.972214 -0.11322 -7.43685e-22)
(1.0465 -0.00959539 -2.4343e-21)
(1.00183 -0.000904977 3.3796e-22)
(1.02334 -0.00466795 6.21535e-22)
(1.01932 0.0464375 -1.35203e-20)
(0.98239 -0.00467879 -7.09825e-22)
(1.21917 0.159608 -5.95264e-21)
(0.999024 -0.00116613 -3.12856e-23)
(1.03146 -0.0029318 2.89135e-21)
(1.00859 0.0228315 -1.69393e-21)
(1.00446 -0.0127439 4.45193e-23)
(0.983464 -0.0194949 -1.61921e-21)
(0.725462 0.0851419 6.95955e-21)
(1.02285 -0.00557264 3.82427e-21)
(0.999421 -0.000494173 5.48244e-23)
(0.999873 -7.26573e-06 1.01314e-25)
(1.03219 1.62743e-05 1.73118e-21)
(1.00522 -0.0140395 5.45747e-23)
(1.01375 0.168887 -6.46967e-21)
(0.995474 -0.00990426 7.39717e-22)
(0.999593 -7.17331e-05 5.25948e-23)
(0.995954 -0.0101958 -8.41676e-23)
(0.989354 -0.0173553 -3.32099e-22)
(1.00069 -0.125748 3.37149e-21)
(1.15893 -0.0977064 6.89148e-22)
(0.999757 -1.39118e-05 1.71525e-23)
(0.999904 -2.00346e-05 -5.0047e-24)
(1.0017 -0.000745986 -2.06474e-22)
(0.995186 -0.0090148 -4.37714e-22)
(0.999918 -3.71949e-05 -4.05129e-24)
(0.976818 -0.114231 1.08054e-21)
(1.00402 -0.00142743 1.93153e-22)
(1.03117 -0.00129487 -3.00244e-21)
(0.977073 -0.00559312 -2.38772e-21)
(1.0124 -0.0389545 8.39596e-23)
(1.03256 -0.00154036 -1.0029e-21)
(0.994326 -0.00320565 -8.23997e-23)
(1.00264 -0.0111348 1.18174e-22)
(0.993506 -0.00200629 6.11961e-22)
(0.971971 -0.0232171 -2.86318e-21)
(0.999401 -0.000438894 -7.02953e-23)
(1.00005 -2.93857e-05 -7.32435e-24)
(1.0053 -0.0014491 2.1591e-22)
(1.02587 -0.00171627 -1.72344e-21)
(1.00296 -0.00139548 1.81548e-22)
(0.998841 -0.000244474 9.98627e-23)
(0.984151 -0.0202472 2.80752e-22)
(0.999884 -0.000230187 6.3596e-24)
(1.00002 -2.97685e-06 4.97836e-25)
(1.22233 0.00428292 1.65466e-21)
(0.995384 -0.00853134 -1.3174e-22)
(0.99991 -2.46948e-05 4.44155e-24)
(0.962332 -0.068035 -5.35376e-21)
(0.983139 -0.00519393 3.46118e-22)
(0.968369 -0.00689087 4.69047e-22)
(0.987335 -0.0041417 4.89279e-22)
(0.956933 -0.0330575 -6.21545e-22)
(1.04157 0.217624 3.13864e-20)
(1.04384 -0.00899023 3.11011e-21)
(1.11086 -0.0226455 -4.4745e-21)
(0.944066 -0.0554688 -6.67166e-21)
(0.990604 -0.00324918 -6.88048e-22)
(1.00341 0.102098 4.0737e-20)
(1.05637 0.00298004 7.30546e-21)
(0.967729 -0.0122193 2.15817e-21)
(0.998352 -0.00312096 -7.01623e-23)
(0.997274 -0.000395162 7.38999e-23)
(0.993116 -0.00305717 8.4361e-22)
(0.97796 -0.00625751 1.53604e-21)
(0.999219 -0.00145934 4.70072e-23)
(0.99458 -0.000830397 2.62829e-22)
(1.00916 0.0260696 1.26427e-20)
(1.19477 -0.0971424 -1.22887e-21)
(0.999837 -6.84201e-05 -1.0371e-23)
(1.0022 -0.00945567 4.9459e-23)
(0.995712 -0.00127433 2.38428e-22)
(0.967976 -0.00383344 -3.75234e-21)
(0.965146 -0.0676915 3.6479e-22)
(1.01461 -0.037748 1.18531e-22)
(0.998187 -0.00300817 2.37025e-23)
(0.99862 -0.000235944 3.341e-23)
(0.939366 -0.0199333 1.60418e-21)
(1.11413 -0.0172054 3.76149e-21)
(0.995954 -0.00144764 -5.94333e-22)
(0.999968 -1.36224e-06 -4.22746e-25)
(1.20287 -0.0881205 -1.01395e-21)
(1.05077 0.0410096 -1.18287e-20)
(0.865097 0.0602635 7.77191e-21)
(0.993948 -0.00302914 -3.42406e-22)
(0.999989 -2.68704e-06 8.66548e-26)
(1.03163 -0.0193863 -1.27457e-21)
(1.08463 0.0917685 -2.88886e-20)
(1.02246 -0.0977173 -4.0326e-21)
(0.999987 -3.20517e-06 -1.41781e-25)
(1.03387 -0.0205273 -2.75882e-22)
(1.04493 0.0399321 1.24457e-20)
(1.00051 -0.000706922 -1.57107e-23)
(1.06922 -0.122056 -2.30166e-22)
(1.0465 0.0212927 -2.82921e-21)
(0.977344 -0.0547721 2.33162e-21)
(0.967981 -0.00838186 -4.90651e-22)
(0.935448 -0.0130491 -3.86582e-21)
(1.00298 0.0628636 -2.66303e-20)
(1.00755 -0.124929 -4.63798e-21)
(1.01195 -0.0101393 1.07e-22)
(0.937592 -0.0149315 1.52351e-21)
(0.99887 -0.00168946 1.04851e-22)
(0.984948 -0.0147771 5.40457e-22)
(1.00346 -0.0106692 -8.10712e-23)
(0.998776 -0.000179041 -2.22779e-22)
(0.983564 -0.0179606 2.84061e-23)
(1.21946 -0.125761 -8.24447e-22)
(1.10298 -0.022601 7.78095e-22)
(0.999282 -0.000666145 5.94788e-24)
(0.999094 -0.00149668 -9.15154e-23)
(0.966232 -0.0111634 6.41535e-22)
(1.07684 0.0819121 1.05407e-20)
(0.991905 0.0552457 4.99068e-20)
(0.999971 -3.27769e-06 -4.9682e-25)
(1.0093 -0.00393399 9.09563e-23)
(0.91273 -0.0160684 -4.8243e-21)
(0.970362 -0.00498765 -1.9178e-21)
(0.981819 -0.0756267 -3.46821e-21)
(0.957452 -0.0355908 8.42348e-22)
(0.970138 -0.00621804 -4.1855e-23)
(0.850262 0.0473591 3.06395e-20)
(1.01201 -0.0586682 -1.26435e-22)
(1.01838 0.0266853 -6.40471e-21)
(0.974635 -0.0277909 -1.48946e-21)
(0.95606 -0.00658028 5.2829e-22)
(1.00337 0.0849237 -1.31504e-20)
(1.03296 0.00112532 4.31493e-21)
(1.18129 -0.0937719 7.48435e-23)
(0.998215 -0.00246813 -2.45724e-22)
(1.22095 -0.00592528 -2.62072e-23)
(1.05353 0.00302818 -7.64646e-21)
(1.04092 0.167633 -3.12712e-20)
(0.950479 -0.0385865 2.5857e-21)
(0.990139 -0.00225797 1.52173e-22)
(0.893611 0.162138 6.63332e-20)
(0.999925 -3.1277e-05 -3.82454e-24)
(1.0016 -0.00994471 -2.83183e-23)
(1.02043 0.0518956 9.80363e-21)
(0.999974 -2.43701e-05 2.41722e-24)
(0.997879 -0.00634352 -3.47996e-22)
(0.995154 -0.00122823 -1.14122e-22)
(1.00772 0.0643038 -3.27165e-21)
(1.0043 0.0524151 1.22729e-20)
(0.875867 0.181115 2.20776e-20)
(0.997545 -0.00613444 -2.16884e-22)
(0.996251 -0.000461696 -1.29445e-22)
(1.00002 -3.25079e-06 -4.55358e-25)
(0.931627 -0.0079431 -6.6379e-21)
(1.00049 -0.000627625 2.17129e-23)
(1.06387 -0.0560919 -1.08322e-21)
(1.00957 -0.0043492 6.02144e-22)
(0.957087 -0.00779772 1.09284e-21)
(1.19882 -0.0743834 -1.01823e-21)
(1.18316 0.0451312 1.19463e-22)
(0.99984 -8.17467e-05 5.67015e-24)
(0.999393 -0.000776344 -6.26202e-23)
(1.08771 0.104765 -4.33395e-21)
(0.999925 -2.28669e-05 -1.84821e-24)
(0.999864 -1.51373e-05 2.72197e-24)
(1.00982 0.190568 -3.32492e-20)
(1.06219 -0.064756 -5.47364e-23)
(1.00857 -0.0817214 -2.22054e-21)
(0.979774 -0.0532433 -3.30951e-21)
(0.971161 -0.0089813 1.40953e-21)
(1.00828 -0.0599007 2.31401e-22)
(0.914778 -0.0135959 2.53805e-21)
(0.999972 -2.21596e-05 -8.59709e-25)
(0.966105 -0.0635764 -1.28782e-21)
(1.19345 0.0504715 -4.90851e-21)
(0.995932 -0.00176375 8.53862e-23)
(1.00009 -8.23722e-06 -5.21962e-24)
(1.15379 0.0774899 6.13416e-22)
(0.998503 -0.00048141 2.36609e-22)
(0.984599 -0.0172851 8.63741e-22)
(1.00519 -0.0565029 7.56791e-22)
(1.00002 -2.81641e-06 -1.99274e-25)
(1.00106 -0.00245135 -9.0547e-23)
(1.07037 0.0834717 1.3443e-20)
(1.18656 0.0708571 -7.30032e-21)
(1.02433 0.148558 -4.22735e-21)
(1.06649 -0.114431 1.83186e-21)
(1.02731 -0.0941814 9.16863e-22)
(1.10938 -0.164238 -7.06506e-22)
(1.03201 -0.00382273 8.6017e-21)
(1.06292 0.078823 -4.44738e-21)
(0.999741 -2.68266e-05 -1.99816e-23)
(1.00005 -2.53669e-05 1.93986e-24)
(0.898584 0.0244641 -2.96984e-20)
(0.990844 -0.0166614 -3.14105e-22)
(0.999254 -0.000595406 -5.93322e-23)
(0.96885 -0.0627024 2.6689e-21)
(0.984237 -0.0155762 -6.31354e-22)
(1.05591 0.145959 -3.3898e-20)
(1.04655 0.143728 -7.23802e-21)
(0.978421 -0.0772303 9.47061e-22)
(0.780828 0.120998 -2.61766e-20)
(0.99861 -0.000547451 -1.73955e-22)
(0.986811 -0.00323499 5.58559e-22)
(0.937081 -0.018173 2.10783e-21)
(1.0456 -0.00293544 -1.77692e-21)
(1.00215 -0.154263 -4.31765e-22)
(1.2475 0.110553 -9.29714e-21)
(0.892144 0.141307 -5.67627e-20)
(1.00008 -0.000135181 5.8188e-24)
(1.0119 -0.00944496 3.00514e-22)
(1.04413 0.0255051 1.53548e-20)
(0.995334 -0.00742299 -5.61029e-22)
(1.05023 0.0208864 -1.91889e-21)
(0.999355 -0.0015845 -1.53674e-23)
(0.820651 0.208786 4.53288e-20)
(1.03719 0.153093 7.10164e-21)
(0.993115 -0.00263697 5.35741e-22)
(1.00448 -0.0106792 -1.29261e-23)
(0.999619 -8.40586e-05 -9.78611e-23)
(1.2378 0.0439153 1.94169e-21)
(0.999882 -1.4017e-05 8.16155e-24)
(0.993526 -0.01364 2.64089e-22)
(0.923891 -0.0356121 2.88754e-21)
(0.99991 -3.24553e-05 -1.83871e-24)
(0.998486 -0.00363658 -6.00504e-23)
(0.999496 -0.00153965 2.78012e-23)
(1.11735 0.0437157 9.62378e-21)
(0.999975 -3.13587e-05 2.93765e-24)
(0.994352 -0.000639059 3.03612e-25)
(0.946904 -0.0551696 7.73806e-21)
(0.729165 0.063681 -1.53794e-20)
(1.09994 -0.0277346 -1.08887e-21)
(0.847213 0.137132 3.48051e-20)
(0.999943 -1.06345e-05 -4.59795e-24)
(1.00225 -0.0571978 -5.35402e-23)
(0.999773 -0.000393402 -2.24853e-23)
(1.03169 0.175962 -3.19033e-20)
(1.00482 -0.000969401 -2.78691e-22)
(0.988285 0.0694131 1.60978e-20)
(1.00341 -0.0128453 -2.25501e-22)
(1.00094 -0.0025932 9.71803e-23)
(1.0348 -0.046773 -3.89013e-22)
(1.03202 -0.00208197 -7.96681e-21)
(1.0007 -0.000422218 4.50715e-23)
(0.999718 -6.90345e-05 5.2723e-25)
(1.00061 -0.00057074 1.01349e-22)
(0.995085 -0.00786569 -4.99974e-22)
(1.01632 -0.0858185 2.56255e-21)
(0.999946 -1.45454e-05 3.10531e-24)
(0.952449 -0.0370366 1.81946e-21)
(0.995401 -0.00141594 -2.15732e-23)
(0.999822 -5.79779e-05 1.10158e-23)
(0.999237 -0.000739921 1.93096e-23)
(0.982691 0.110054 3.85333e-20)
(0.99009 -0.00105425 2.20185e-22)
(0.999058 -0.000138198 -2.01028e-23)
(0.796315 0.0286652 5.85315e-20)
(0.9983 -0.00349834 -1.36008e-22)
(1.15875 0.127708 -8.48556e-21)
(0.999746 -0.000364007 4.05406e-23)
(1.00927 -0.0293413 3.34398e-23)
(1.00002 -1.72048e-06 -1.71544e-25)
(0.977188 -0.0444615 -1.32209e-21)
(1.04453 -0.00276021 2.76523e-21)
(1.20503 -0.0676492 1.79113e-21)
(0.972245 -0.0249838 2.42753e-21)
(0.999497 -0.000785844 7.25828e-23)
(0.971717 -0.0972296 1.67464e-21)
(0.979368 -0.000605221 1.00933e-21)
(0.999774 -2.57517e-05 1.16361e-24)
(1.00059 -0.000495559 -8.96859e-23)
(0.997435 -0.00452543 1.87949e-22)
(0.990552 -0.00188621 -6.58869e-22)
(1.00384 -0.00121286 -3.29764e-22)
(0.998479 -0.00250278 8.87655e-23)
(0.969363 -0.0114263 3.39418e-22)
(1.02193 -0.0837539 -1.86901e-21)
(0.969538 -0.00959621 1.50442e-21)
(1.15611 -0.0869707 -1.67091e-22)
(0.95966 -0.0105781 -1.91056e-21)
(1.08283 0.193113 3.38449e-21)
(1.07618 0.202528 -2.45611e-20)
(0.998141 -0.000995731 -1.51332e-22)
(1.22336 -0.0801496 -4.92058e-21)
(0.999979 -4.40264e-06 -2.73756e-25)
(0.997387 -0.00560998 -2.28889e-22)
(0.96716 -0.00267404 3.84177e-21)
(1.01454 0.0415334 8.10848e-21)
(1.05992 0.00903888 -7.21601e-21)
(1.00012 -4.57743e-05 1.20283e-23)
(0.997532 -0.00528634 -1.51527e-23)
(0.961064 -0.01172 1.44015e-21)
(1.09125 0.0456407 -4.24873e-21)
(0.998778 -0.00155848 7.84469e-23)
(1.00422 -0.0010465 1.86609e-22)
(1.00156 -0.00128091 -1.66474e-23)
(1.17041 -0.0232247 2.37285e-21)
(1.21533 -0.136097 -4.87152e-21)
(1.15514 0.210711 1.32988e-20)
(0.99802 -0.000314534 -1.47652e-22)
(1.07337 -0.065115 -3.45665e-22)
(0.999858 -8.84946e-05 -9.06505e-24)
(1.00604 -0.00952064 -6.27863e-22)
(0.999932 -1.74843e-05 -1.31515e-24)
(0.981357 -0.0270283 4.24122e-22)
(0.99957 -9.7179e-05 -1.87071e-23)
(1.01492 -0.0291817 1.45812e-22)
(1.24318 -0.0898444 5.40909e-21)
(0.966204 -0.0352157 2.90784e-21)
(1.01083 -0.0286799 -5.84363e-23)
(1.01072 -0.00843146 -3.87555e-22)
(0.99909 -0.000179667 9.02495e-23)
(1.03398 -0.0259018 8.90915e-22)
(0.995446 -0.0244273 4.13938e-22)
(1.10931 -0.00822902 -2.36054e-21)
(1.10866 0.044085 4.5883e-21)
(1.15461 -0.1896 8.93219e-23)
(1.15273 -0.105511 -2.3409e-21)
(0.978476 -0.00123024 -1.07921e-21)
(1.00642 -0.00476027 5.95694e-22)
(0.926731 -0.0338165 -1.11751e-21)
(0.854873 0.180462 -6.93988e-20)
(1.13322 -0.0991924 2.45079e-21)
(1.03546 -0.0167341 -3.57831e-21)
(0.801237 0.131261 -3.52916e-20)
(0.998086 -0.000234068 7.2966e-23)
(0.997822 -0.00123074 -4.66634e-23)
(1.17379 -0.101467 -2.38016e-21)
(0.998664 -0.00270438 -4.76262e-23)
(1.01278 -0.0548882 1.98668e-22)
(1.00743 -0.00241902 2.12322e-22)
(0.996437 -0.000544471 -1.15307e-22)
(0.997387 -0.000461113 -1.8219e-22)
(1.05368 0.0324231 8.93645e-21)
(0.999916 -0.000196386 -7.42579e-25)
(1.00067 -0.000335365 -4.01448e-23)
(1.0001 -1.8684e-05 8.94446e-24)
(0.995629 -0.000864994 6.13733e-22)
(0.992045 -0.0119069 6.96665e-22)
(0.999978 -3.40373e-06 2.1191e-25)
(0.998633 -0.000325279 1.88841e-23)
(0.973312 -0.0220388 8.53156e-22)
(0.896165 0.0362003 1.86609e-20)
(1.01309 -0.0301981 -1.7402e-23)
(0.990934 -0.0156093 1.12508e-21)
(0.931003 0.134114 7.77953e-21)
(1.00306 0.0582699 2.2967e-20)
(1.09096 -0.0165262 -2.03499e-21)
(1.21882 -0.071131 1.58963e-21)
(0.929954 -0.00585905 3.62008e-21)
(1.00637 -0.00546495 -2.93237e-22)
(1.01958 0.0728008 -1.28343e-21)
(0.985671 -0.00287047 -1.33366e-21)
(1.12522 0.151316 2.00216e-22)
(1.0074 -0.0640142 2.83944e-23)
(1.02858 -0.142882 -1.64352e-21)
(1.17705 0.0709584 4.72161e-21)
(1.13706 0.158336 -1.20914e-20)
(0.954312 -0.0320179 4.04542e-21)
(1.06084 0.00605989 -4.61372e-21)
(1.2594 0.107152 8.23066e-21)
(1.14954 0.136924 1.68424e-20)
(1.03317 -0.00385542 2.70888e-21)
(0.996188 -0.00190393 1.34331e-22)
(0.994695 -0.00293446 1.17275e-22)
(0.999887 -3.04793e-05 -4.32338e-24)
(1.01995 -0.0378746 1.17072e-22)
(0.985267 -0.00240759 3.13846e-22)
(1.00129 -0.00310058 -7.99578e-23)
(0.999865 -3.2056e-05 -8.01842e-24)
(0.997973 -0.000912752 5.90636e-23)
(0.968699 -0.0956208 -2.7671e-21)
(1.16164 0.000510512 1.73336e-21)
(0.9778 -0.00769992 -1.72489e-21)
(0.99897 -0.0162308 4.48285e-22)
(0.995184 -0.000934012 -3.28944e-22)
(1.06938 -0.0671436 -3.16554e-23)
(0.990978 -0.00198177 -1.05766e-21)
(1.00305 -0.00964342 2.36399e-22)
(1.25856 0.0817295 1.56188e-21)
(0.997666 -0.000438347 -4.23709e-22)
(0.999972 -5.98281e-05 -2.0537e-24)
(0.999933 -0.000235394 -1.14391e-24)
(1.00006 -0.000138579 7.62196e-24)
(0.972442 -0.0100155 7.91099e-22)
(1.05012 0.029501 -1.05533e-20)
(0.994886 -0.000713273 1.28925e-23)
(1.0303 -0.0139006 2.32987e-21)
(1.00992 -0.161277 3.21221e-21)
(1.01275 0.156013 -8.9104e-22)
(1.00511 -0.00976759 2.07198e-22)
(1.00857 -0.00617131 -9.62604e-23)
(0.993543 -0.00329714 -4.25971e-22)
(0.990774 0.108527 -3.76019e-20)
(0.998673 -0.000165531 6.05063e-23)
(1.16832 0.212699 -6.51054e-21)
(1.01485 0.0282822 -1.2426e-20)
(0.999852 -3.94093e-05 9.37661e-24)
(1.00481 -0.0648918 -1.34541e-21)
(0.995789 -0.00100165 -3.02889e-22)
(0.985816 -0.0769887 4.25211e-21)
(1.00071 -0.000176121 4.0032e-23)
(1.08629 -0.0111236 2.90882e-21)
(1.00885 -0.0214329 -7.56011e-24)
(1.00801 -0.00547032 4.79483e-23)
(0.998932 -0.000210957 -1.20303e-22)
(1.12202 0.0368987 4.51823e-21)
(1.08345 0.0459263 1.59573e-21)
(1.00556 -0.0847376 2.19185e-21)
(0.974273 -0.0257311 -1.63592e-22)
(0.997288 -0.0048276 -1.62244e-22)
(0.998784 -0.0518302 -2.46489e-21)
(1.20948 -0.00982309 -1.76905e-21)
(0.741269 0.0992868 -3.37089e-20)
(1.08816 -0.112846 -1.88048e-21)
(1.00661 -0.0102932 -9.70113e-23)
(0.999991 -3.41105e-06 -6.52384e-26)
(0.983048 -0.00631524 -1.3834e-21)
(0.997139 -0.000498215 3.93543e-22)
(1.03235 -0.0256097 1.29165e-21)
(0.996193 -0.130824 -1.37275e-21)
(1.21625 -0.090495 2.00836e-21)
(0.987333 0.15246 -4.55817e-20)
(1.09501 0.0385179 6.83523e-21)
(1.11439 -0.153421 2.99072e-21)
(1.16113 0.086237 2.09904e-21)
(0.999563 0.0652233 4.44797e-20)
(1.0262 -0.00380867 1.94916e-21)
(1.00154 -0.00299156 1.82796e-22)
(1.05881 0.0948701 6.93933e-21)
(0.998922 -0.00263645 1.06209e-22)
(0.99977 -0.000217024 8.78635e-24)
(0.976743 -0.00258026 4.82983e-22)
(1.00012 -4.37723e-05 2.27417e-24)
(1.11616 -0.174861 1.55551e-21)
(1.00471 -0.0234607 -8.77381e-23)
(0.979865 -0.043896 2.22866e-21)
(1.00239 -0.00205576 9.23879e-23)
(1.14243 0.0791106 1.28495e-20)
(0.997765 -0.000414957 -3.49697e-23)
(0.999969 -4.77902e-05 -1.99068e-25)
(1.02034 -0.146897 1.79357e-21)
(1.00211 -0.00175121 -5.41012e-23)
(1.13535 -0.0428689 -5.34215e-22)
(0.942412 -0.0187342 7.4876e-22)
(0.916887 -0.0221851 3.73549e-22)
(1.25173 -0.0481661 2.28789e-22)
(1.04024 0.0248715 -4.0032e-21)
(1.03163 0.00676116 2.4802e-21)
(1.02987 0.00651747 -9.81817e-22)
(0.99974 -5.69842e-05 3.1344e-24)
(1.16932 -0.00598144 1.17571e-21)
(1.11211 -0.00373698 2.76087e-21)
(0.999355 -0.000841874 2.80869e-23)
(0.97879 -0.00837026 2.00376e-21)
(1.00078 -0.000268089 -4.45556e-23)
(1.01501 -0.0268791 -9.20486e-22)
(1.01025 -0.0375228 -6.62967e-23)
(1.00576 -0.0018131 1.72157e-24)
(0.999046 -0.00167063 -1.27213e-22)
(1.22669 0.0394068 -5.72956e-21)
(0.999972 -2.88059e-05 -3.39057e-24)
(1.00027 -0.000139605 -1.17241e-23)
(1.00258 -0.00137593 -3.85409e-24)
(0.971323 -0.0043191 1.33528e-21)
(1.02496 -0.0158554 1.62708e-21)
(0.97904 -0.0370313 -3.15853e-21)
(0.964666 -0.00666472 -7.76352e-22)
(1.01254 -0.0813235 1.24496e-21)
(1.02841 -0.173892 -3.42909e-21)
(1.03294 -0.0428919 2.98082e-22)
(1.06701 0.0933438 -3.88961e-20)
(1.23877 -0.0798371 -3.67218e-21)
(0.991655 -0.00334199 -5.53648e-23)
(0.808846 0.194415 5.45717e-20)
(0.968041 -0.0702964 4.65187e-21)
(0.991653 -0.0126592 2.18989e-22)
(0.965567 -0.00552352 1.27883e-21)
(0.996942 -0.0236395 -1.19545e-22)
(0.973113 -0.00316039 2.04337e-21)
(0.987256 -0.00504718 -4.03259e-22)
(1.03576 -0.0194469 -2.44774e-21)
(1.13989 -0.105873 -6.02898e-22)
(0.999967 -5.60826e-05 -2.86094e-25)
(1.03049 -0.0180151 -2.78061e-22)
(0.999876 -3.90804e-05 -4.56697e-24)
(1.0533 0.169345 8.35616e-21)
(1.22995 0.00667341 2.70224e-21)
(0.993924 -0.00251817 1.34411e-22)
(0.981978 -0.00225837 -1.83814e-21)
(0.999761 -6.97985e-05 -2.28954e-23)
(1.00006 0.09624 2.75646e-20)
(1.11128 0.172081 1.69414e-20)
(1.16644 -0.0166772 -1.20448e-21)
(1.26183 0.0497212 -3.66372e-21)
(0.967794 -0.0744869 -2.00484e-21)
(0.997077 0.0215444 -4.37863e-20)
(0.999921 -0.000172623 4.32269e-24)
(1.05966 -0.042539 2.52744e-21)
(0.976274 -0.00196716 -7.51018e-23)
(1.17228 0.0499743 -2.28031e-21)
(0.869509 0.129033 -4.22233e-20)
(1.20776 -0.0188732 1.16295e-21)
(1.08297 0.0323562 1.11782e-21)
(0.999852 -0.0160933 -7.31536e-23)
(0.999746 -0.000108568 -2.10377e-23)
(1.24606 0.0380045 1.53308e-21)
(1.21257 -0.113747 9.40267e-22)
(0.997982 0.111078 -7.80052e-22)
(1.1267 -0.0406207 2.87946e-21)
(1.06366 0.0714375 1.15521e-20)
(0.991153 -0.00298759 -1.88397e-22)
(1.00187 0.149396 1.21124e-20)
(1.11315 0.157453 5.85819e-21)
(0.988698 -0.00426128 -1.13059e-21)
(0.990559 -0.00398584 -4.20029e-22)
(1.24213 0.0204169 -2.25435e-23)
(0.913777 -0.0205161 -5.09344e-21)
(0.999893 -0.000201384 -6.67631e-24)
(0.983858 -0.00682783 1.7803e-21)
(0.920384 -0.0288794 3.74361e-21)
(0.981335 -0.0945446 -5.87581e-22)
(1.01241 -0.00335665 -1.67562e-21)
(1.0107 -0.00765411 1.07091e-22)
(0.999844 -0.000250156 -1.22643e-23)
(1.12226 0.180789 -2.51338e-20)
(1.00037 -0.0145615 1.2162e-23)
(0.99987 -7.68734e-05 4.0482e-24)
(1.02248 -0.0773488 1.44174e-21)
(0.999378 -0.000551371 2.49294e-23)
(0.999718 -9.8843e-05 1.58866e-24)
(1.00662 -0.0157519 -1.12335e-22)
(1.126 0.0907226 1.84827e-20)
(1.01329 -0.131477 2.469e-21)
(0.910331 0.127225 2.44527e-20)
(1.00008 -1.39565e-05 -6.35545e-24)
(1.13728 0.0903745 -1.89841e-20)
(1.01491 -0.0660464 1.08152e-21)
(0.999905 -0.000243669 -1.87866e-24)
(1.00003 -7.71395e-06 -2.00723e-24)
(1.0051 0.0177764 -2.03694e-21)
(1.10941 0.0794255 7.1806e-21)
(0.99507 -0.00309769 1.16781e-22)
(1.09179 0.0610065 -9.79764e-21)
(1.00004 -2.53746e-05 1.4695e-24)
(1.0961 0.0693906 -1.3185e-20)
(1.13976 -0.186982 3.98639e-21)
(0.988091 -0.00381605 1.24383e-21)
(0.998519 0.0333176 -5.82909e-20)
(0.969394 -0.0590813 3.09737e-21)
(1.25722 0.0415768 3.19482e-21)
(0.967144 -0.00553023 7.77385e-22)
(1.1053 0.0703513 1.71927e-20)
(1.12019 0.0799347 -5.22891e-21)
(0.979822 -0.0103327 2.89223e-21)
(0.973617 -0.012566 -2.12746e-21)
(0.993733 -0.0126557 6.50657e-22)
(0.996497 -0.000928871 -9.94192e-23)
(0.999752 -0.00024237 2.42464e-23)
(1.0001 -0.0138946 -2.19285e-23)
(1.12532 0.136932 -3.01504e-21)
(0.999965 -4.39602e-05 8.68809e-25)
(1.08283 0.0603494 1.29259e-20)
(1.02883 -0.1334 3.92377e-21)
(1.02195 0.107099 1.03965e-20)
(1.07945 0.0532832 -1.49849e-20)
(0.917236 -0.0270463 -4.62907e-22)
(0.930467 0.162921 -5.00661e-20)
(0.998054 -0.00146585 8.4658e-24)
(1.01983 -0.0349253 3.79579e-22)
(1.05497 -0.104138 1.03415e-21)
(0.974271 -0.00297825 -1.23588e-22)
(0.99214 -0.00421112 5.59808e-22)
(1.0115 -0.0673665 -9.56197e-22)
(1.07043 -0.0341541 -2.56689e-22)
(0.825498 0.118217 6.69628e-20)
(1.00006 -2.49864e-05 6.98928e-24)
(0.997705 -0.00156241 1.133e-22)
(1.0173 -0.0961539 5.18445e-23)
(1.00002 -6.26884e-06 2.4128e-25)
(1.06023 0.182022 4.0805e-21)
(1.00214 -0.00150062 0)
(1.00002 -7.97472e-06 1.83243e-25)
(1.00024 -0.00011007 2.75036e-23)
(1.00051 -0.000148347 5.57428e-25)
(0.981783 -0.0252917 2.14341e-21)
(1.02903 -0.0238785 -9.24795e-22)
(0.998146 -0.00113844 1.78245e-22)
(0.999894 -2.14376e-05 8.55993e-24)
(0.991622 -0.00394331 3.10908e-22)
(1.00572 -0.0163981 -7.9809e-23)
(0.983123 -0.136973 -3.72616e-21)
(0.924124 -0.00921249 3.66068e-22)
(1.02413 -0.0141001 2.87528e-21)
(0.999966 -3.43303e-06 2.65459e-24)
(1.08895 -0.194816 4.73281e-21)
(0.984137 -0.00475641 -7.13514e-22)
(1.22483 0.0270935 -1.71605e-22)
(1.00085 0.026488 -7.50527e-21)
(1.00157 -0.00449723 4.1992e-23)
(1.2041 0.0303823 -6.50003e-21)
(1.00019 -0.000120793 9.74796e-27)
(0.984891 -0.00534176 2.07093e-23)
(1.03345 0.000675508 -4.97578e-21)
(0.992174 -0.00479139 -2.29268e-22)
(1.14289 0.109753 -1.19777e-21)
(0.984755 -0.00834215 -1.34438e-21)
(1.06218 -0.0398334 -2.2401e-21)
(1.03442 0.00157188 -5.36315e-21)
(1.10345 0.037847 -2.70922e-21)
(1.0093 -0.0197419 -4.32469e-22)
(0.987903 -0.00544091 3.34891e-23)
(1.15792 0.0655761 7.11078e-21)
(0.972815 -0.102662 -3.25171e-21)
(1.03414 0.189767 3.48357e-20)
(0.989304 -0.00616018 -1.30918e-21)
(1.17955 0.142514 -4.57866e-22)
(0.989284 -0.00540194 3.49729e-22)
(0.998615 -0.00065888 -1.16295e-23)
(1.08019 0.027966 3.25525e-21)
(1.01757 -0.0394151 -4.46483e-23)
(1.05105 -0.000616343 7.18914e-21)
(1.00219 -0.00107679 5.99078e-23)
(1.00002 -5.90953e-06 8.48083e-26)
(0.994993 -0.156208 1.36076e-21)
(1.24742 0.0791587 -7.23619e-21)
(1.00188 -0.00436295 -5.68157e-23)
(1.21352 0.0229387 5.2217e-22)
(0.985593 -0.00778525 -8.79854e-22)
(1.07887 -0.199703 -1.74164e-21)
(1.05447 -0.0593997 -5.86979e-23)
(0.978536 -0.0393235 1.77689e-21)
(0.998004 -0.00128018 -7.52477e-23)
(0.989606 -0.00136194 -2.64569e-22)
(0.966586 -0.0877549 -1.93084e-21)
(0.964488 -0.0119297 2.93145e-21)
(0.988631 -0.00503199 9.25117e-22)
(0.999825 -0.000563157 1.08109e-23)
(1.02241 0.207449 -4.3935e-21)
(1.19325 0.0254736 3.85506e-21)
(1.03194 -0.0153981 -8.97118e-22)
(0.99976 -0.000188034 1.61148e-23)
(1.10248 0.14961 -1.16713e-20)
(1.00001 -3.06182e-05 3.55882e-25)
(0.999778 -0.000167437 3.18748e-23)
(1.1833 0.0321181 3.91921e-21)
(1.0126 -0.0326702 2.23198e-22)
(1.23826 0.0594951 5.78546e-21)
(1.0318 -0.00469391 2.04262e-21)
(1.02167 -0.0172851 -1.92385e-22)
(1.10211 -0.101015 1.14024e-21)
(1.04796 -0.164474 3.85839e-21)
(1.2474 -0.0527845 1.0756e-21)
(1.00156 -0.00108118 -1.3097e-22)
(0.944651 -0.0204493 -2.91625e-22)
(0.999978 -7.34245e-05 -6.03723e-25)
(1.00625 -0.0144205 8.00347e-23)
(1.14406 0.0990795 6.5573e-21)
(0.980893 -0.00968447 2.01945e-21)
(0.996685 -0.00186076 1.5736e-22)
(1.01657 -0.0535061 -5.88375e-22)
(0.997667 -0.00137894 1.08288e-23)
(0.99953 -0.0013817 3.31336e-23)
(0.809121 0.0271275 1.19956e-20)
(0.988661 -0.00662637 -7.40962e-22)
(0.999358 -0.000920399 -9.74455e-23)
(0.999977 -8.54656e-07 -5.26133e-25)
(1.02575 0.00882059 1.08339e-20)
(0.967175 -0.0329567 -4.4408e-22)
(0.999613 -0.000696513 2.91069e-23)
(0.996696 -0.00107723 2.02739e-22)
(1.03761 0.0287672 4.43683e-21)
(1.09646 -0.00319048 6.99623e-22)
(0.954118 -0.02923 -2.51221e-21)
(1 -1.93051e-05 1.25867e-25)
(1.00257 0.0210614 2.96861e-20)
(0.983421 -0.0220461 -1.46198e-21)
(1.13591 0.0701863 -1.30736e-20)
(1.01626 -0.00174398 -2.55141e-21)
(1.01884 -0.00169658 5.8382e-21)
(0.962434 -0.0148298 3.99164e-21)
(0.999884 -8.2082e-05 -2.6518e-24)
(1.0332 3.45891e-05 -9.87854e-22)
(1.10102 -0.00891921 -8.66409e-22)
(1.23443 -0.0351492 -5.08337e-22)
(1.03656 -0.128806 8.52639e-22)
(1.114 0.130899 8.80679e-21)
(1.00723 -0.00215017 -4.14672e-23)
(1.16931 0.0631081 -9.69319e-21)
(0.999951 -0.018781 -1.28048e-22)
(1.0181 -0.0739624 -2.57376e-21)
(0.999533 -0.000209188 -3.15625e-23)
(1.00382 -0.0249164 1.69828e-22)
(0.999877 -0.000541417 4.12381e-24)
(1.07857 0.0385544 -9.85365e-21)
(1.21691 0.125078 -1.83743e-20)
(0.998239 -0.00151159 5.99049e-23)
(1.02342 -0.0176245 4.00966e-23)
(0.979164 -0.0058328 6.94147e-22)
(1.043 -0.115083 3.70517e-22)
(1.03598 -0.120163 -1.97052e-21)
(0.997785 -0.00108941 1.18973e-22)
(1.05521 -0.0422956 -8.57148e-22)
(0.826324 0.00785716 -2.02362e-20)
(1.22014 -0.0459163 -6.62088e-22)
(0.999936 -0.000209016 9.2968e-24)
(1.08915 -0.00459621 -2.4925e-21)
(0.996524 -0.0115612 -3.16096e-22)
(0.988243 0.00558392 4.19681e-20)
(0.985594 -0.00681158 1.2238e-21)
(0.994604 -0.0341068 -3.90566e-22)
(1.02017 -0.0480191 -4.27739e-23)
(0.992825 -0.0351834 -5.80228e-23)
(0.998005 -0.0273947 -8.71798e-22)
(0.991067 -0.00427614 2.14137e-22)
(0.998871 -0.0185793 4.70053e-22)
(1.00242 -0.00813618 -6.36644e-23)
(1.07099 -0.0391629 6.03001e-22)
(1.00013 -3.42606e-05 -1.74891e-23)
(1.18692 -0.165432 -1.82617e-21)
(1.18524 -0.0714081 -5.90027e-22)
(1.0945 0.190863 2.16287e-20)
(0.956397 -0.027696 3.81535e-21)
(1.22599 0.066342 -3.09317e-21)
(1.00237 -0.000847747 2.11516e-22)
(1.07281 -0.106415 -2.89092e-23)
(1.0043 -0.0496682 -9.26951e-22)
(1.0372 0.0547439 1.31059e-20)
(0.991682 -0.00517527 5.31517e-22)
(1.00013 -0.000231575 1.15018e-23)
(0.984245 -0.0229628 1.90875e-21)
(0.994789 -0.0123198 -2.46758e-22)
(1.05221 -0.0385516 1.94622e-21)
(0.966367 -0.0091427 -2.47911e-21)
(0.972261 -0.011712 7.02016e-22)
(1.14409 -0.0827103 -1.62782e-22)
(0.982413 -0.00379415 -1.20531e-21)
(1.01687 -0.0497472 3.75419e-22)
(0.982883 -0.0999786 2.3504e-21)
(1.00001 -1.01371e-05 1.52514e-25)
(1.07528 -0.0303318 3.47714e-21)
(0.985536 -0.0903452 -6.29713e-21)
(1.21532 0.0473985 2.93105e-21)
(1.10021 -0.108708 -2.17135e-21)
(1.04891 -0.000827724 6.00507e-22)
(1.02134 -0.128421 -5.06072e-21)
(1.15042 0.183578 5.09872e-21)
(1.04119 -0.0506283 5.35433e-22)
(0.960811 -0.0136873 -2.36214e-21)
(1.0155 -0.0617306 -1.24585e-21)
(0.919608 0.010833 1.8944e-20)
(1.15092 -0.157406 1.04447e-21)
(0.984795 -0.00632653 -3.71939e-22)
(1.01952 -0.157014 -3.85384e-22)
(1.02664 -0.0871857 1.75695e-21)
(1.03721 -0.148213 -6.73926e-22)
(1.04163 -0.107051 -2.04789e-21)
(1.15045 0.0578729 9.56876e-21)
(0.996716 -0.00213662 1.04191e-23)
(1.01688 0.0693592 5.00103e-21)
(1.00962 -0.0020192 3.00519e-22)
(0.999536 -0.000704301 -4.15799e-23)
(0.998582 -0.00301758 2.9109e-22)
(1.08023 -0.0111591 -8.49684e-22)
(0.725983 0.00949021 5.89855e-22)
(1.00198 -0.00868417 3.32038e-23)
(1.01881 -0.0691003 3.69366e-22)
(1.03875 0.0331984 -7.35622e-21)
(1.00003 -9.7554e-06 -3.555e-25)
(0.974955 -0.0118288 1.69764e-21)
(1.02851 -0.0139857 2.06623e-21)
(1.08655 -0.0682993 2.71784e-22)
(1.00976 -0.00111972 1.68328e-21)
(0.998117 -0.00266133 5.3557e-23)
(0.97956 -0.0498226 4.22092e-23)
(0.997356 -0.0111387 -9.15191e-23)
(1.00004 -7.19803e-06 3.85016e-24)
(0.972037 -0.0580459 -5.22358e-21)
(1.12244 0.110671 -3.15079e-21)
(1.02307 -0.0426395 1.93021e-22)
(0.980087 -0.00660297 -1.30067e-21)
(1.00218 -0.000530559 -7.61264e-23)
(1.04376 0.035323 9.67771e-21)
(0.999545 -0.000841373 -1.91049e-23)
(0.998521 -0.00086288 -6.00497e-24)
(0.999573 -0.000229031 -2.8877e-23)
(0.999119 -0.00282971 -7.34466e-23)
(1.22596 -0.0257347 6.02683e-22)
(1.03315 -0.0495993 4.41396e-22)
(1.00962 -0.0247754 1.27996e-22)
(0.978717 -0.00970492 -5.94047e-22)
(1.00005 -6.78726e-05 3.70882e-24)
(1.06883 -0.161693 5.21005e-21)
(1.22115 -0.101696 6.31023e-23)
(1.07278 -0.172938 -2.48757e-21)
(0.995426 -0.0432616 -7.32368e-22)
(1.01715 -0.0126201 1.91124e-21)
(0.999747 -0.0001322 1.32963e-23)
(0.986346 -0.0150517 -7.61758e-22)
(0.949651 -0.0583861 -3.03786e-21)
(1.21309 -0.0375419 4.87552e-22)
(1.01769 0.104662 -3.78699e-22)
(0.998632 -0.00426192 5.9464e-23)
(0.933774 -0.0408272 1.70789e-21)
(0.994387 -0.00367064 -5.08599e-22)
(1.03929 -0.0468044 -3.49469e-23)
(1.163 0.042992 7.06211e-22)
(1.00053 -0.000179765 -6.22016e-23)
(0.999814 -0.00028418 -4.89218e-24)
(1.24684 0.0261036 3.22514e-22)
(1.19785 -0.0505904 3.75718e-22)
(1.0225 -0.0214425 6.88271e-22)
(0.996492 -0.00233018 2.68228e-22)
(0.997506 -0.000615934 -2.65503e-23)
(0.957861 -0.0596475 7.43103e-22)
(0.999794 -0.000471508 -1.64477e-23)
(1.0201 -0.0444698 6.20885e-23)
(0.98402 -0.00188041 2.4951e-21)
(1.00134 0.0292868 -6.28006e-21)
(1.13507 0.115554 -1.65845e-21)
(1.06863 -0.0987883 8.58863e-22)
(0.990199 -0.0912917 2.32665e-21)
(1.00787 -0.00200187 8.42208e-22)
(1.01715 -0.0333521 -5.3851e-22)
(1.18107 -0.0600886 -3.98445e-22)
(0.988863 -0.100965 -1.44525e-21)
(1.01936 -0.0600574 7.03924e-22)
(0.999998 -9.47309e-06 6.20508e-26)
(1.16094 -0.0675666 -8.07532e-22)
(0.969035 -0.00373579 2.33659e-22)
(0.986865 -0.111457 2.86976e-21)
(1.02277 -0.0393648 -7.29652e-22)
(0.947227 -0.0194037 -5.27914e-22)
(0.999522 -0.00040368 -1.40917e-23)
(0.996435 -0.00174438 -1.19608e-22)
(1.07191 0.0525396 1.15792e-20)
(0.964343 -0.0139117 -8.98009e-22)
(0.999981 -2.44807e-06 5.9117e-25)
(0.996577 -0.000718038 -2.7994e-22)
(1.15287 -0.142636 -6.3714e-21)
(0.9998 -6.60688e-05 3.37055e-23)
(1.02278 -0.0672093 -2.34002e-22)
(0.999941 -0.000166979 -7.08705e-25)
(1.00804 -0.0184395 -2.58492e-24)