/*--------------------------------*- C++ -*----------------------------------*\
  =========                 |
  \\      /  F ield         | OpenFOAM: The Open Source CFD Toolbox
   \\    /   O peration     | Website:  https://openfoam.org
    \\  /    A nd           | Version:  7
     \\/     M anipulation  |
\*---------------------------------------------------------------------------*/
FoamFile
{
    version     2.0;
    format      ascii;
    class       volScalarField;
    location    "39.5";
    object      p;
}
// * * * * * * * * * * * * * * * * * * * * * * * * * * * * * * * * * * * * * //

dimensions      [0 2 -2 0 0 0 0];

internalField   nonuniform List<scalar> 
19930
(
0.00257748
0.00652928
-0.005618
-8.93042e-05
-0.00316551
-0.00332422
-0.0929074
0.245662
-0.0393948
0.227431
-0.0939404
-0.065604
-0.0206579
0.00236324
0.000505363
-9.25274e-05
-0.178116
0.127421
-0.0503181
0.00690446
-0.0375621
-0.0590402
0.216882
-0.133702
-0.00702478
0.677206
-0.00407735
-0.0207764
-0.178266
-0.0532167
0.000183337
0.874035
0.0893527
-0.00925112
-0.000557416
1.3434e-05
0.280362
0.000139469
-0.00894595
0.0866334
-0.00773339
0.157303
0.494252
-0.00375618
0.682276
0.0157303
0.239191
-0.125014
0.00020918
-0.0136375
-0.00054793
-0.00210195
-0.147052
-0.00133231
-0.174587
0.00266104
-0.00864602
-8.95834e-05
-0.0200215
-0.176639
0.769648
0.00999321
0.00244796
0.187406
0.00053974
-0.00139582
0.666358
-0.00130863
-0.0558202
0.671817
-0.0206849
-0.191058
0.000483074
-0.0118754
0.681648
-0.0465966
0.655718
0.00527711
0.0875453
0.609184
-0.00122293
-0.00221032
-0.171611
-0.0371412
0.0111301
0.503569
-0.016991
0.994066
0.192037
0.737299
0.195639
-0.00018519
-0.000103858
0.93667
-0.133458
0.0027569
0.947745
-0.000997101
-0.0832301
0.350589
0.747943
0.00102281
0.773228
-0.112109
0.0247683
-0.0525608
0.561856
-0.0866529
0.0119928
0.474827
-0.18888
-0.0916073
-0.00478342
-0.0124131
-0.0421524
-2.27781e-05
0.450651
-0.00135577
-0.125016
0.595277
-0.000178027
-0.0469323
0.0844596
-0.0248987
-0.009364
0.12677
-0.00052623
-0.0200203
0.890186
0.470246
-0.0248548
-0.0117362
-0.00758322
-0.00760396
0.579773
0.0178963
-0.0966605
-0.0425285
0.000845923
-0.0447013
-0.0484314
-0.0132162
-0.201585
0.789404
-0.066797
0.591087
0.0500605
0.00360503
-0.00817269
-0.00468659
0.00484549
0.656712
-9.89532e-05
-0.0313362
-0.00214178
0.046297
0.520211
-0.139207
0.00357892
-0.0219416
-0.184916
-0.0857617
0.000121368
-0.0592883
0.0617968
0.98025
0.00172288
-0.155789
-0.0435136
0.278084
-0.101438
0.702867
0.393321
-0.00735606
1.02678
0.0713855
0.00186932
0.741414
-0.0415145
0.513109
0.603894
0.000126174
0.794935
0.423852
0.00661244
0.00292125
-0.0196139
0.324778
-0.110769
0.901727
0.0108893
-0.130368
0.364799
-0.048517
0.00172982
-0.0451526
0.785402
-0.12752
0.00580975
0.916549
-0.06862
-0.1713
-0.136319
0.875771
0.821239
-0.00462156
-0.0140626
-0.000514257
0.00208373
0.00137052
0.654822
0.736198
0.00151539
-0.00821087
0.501955
0.681016
0.00417372
0.595753
-0.0811022
-0.00685801
-0.02251
0.527002
0.827011
0.20201
0.478877
5.46638e-05
-0.0136556
-2.76132e-05
0.00335644
-0.00239174
0.0841956
-0.0930281
0.550363
-0.0432863
0.532321
-0.0163285
-0.0443563
0.696423
0.959133
0.516034
0.647931
-0.00666868
0.208472
-0.0239319
0.0299617
-0.000864703
-0.208461
-0.0624229
-0.00341841
0.000191805
0.0117884
0.836722
0.0438266
-0.00969195
-0.0186938
-0.0909361
-0.120174
0.181484
-0.0418486
0.0166897
-0.0249044
-0.00794055
0.000669921
-0.0152948
-0.0821414
0.784744
-0.147367
-0.00433225
0.541504
0.813484
-0.0166003
-0.000524237
-0.0322922
0.669293
-0.205139
0.762233
-3.06529e-05
-0.0110027
0.435267
0.655238
-0.0332188
-0.00752384
0.889978
-0.152536
-0.130856
0.765947
0.892391
-0.0185221
0.442915
0.0214951
0.59942
0.393556
-0.000525424
-0.160606
0.300302
0.00199542
-0.0547965
-0.104763
-0.186073
-0.0712925
-0.051115
-7.87097e-05
-0.000655891
0.725395
-0.00416349
-0.0709986
-0.0268748
-0.043579
0.00814087
0.497572
-0.0326142
-0.0262213
0.00365216
0.249966
-0.0206727
-6.92452e-05
0.742218
0.470935
0.731049
-0.167029
0.00057128
0.877376
-0.00018876
-0.0161645
-0.0336814
-0.114519
-0.0147547
-0.158879
0.526665
0.93674
0.615612
0.018467
1.04361
-6.18111e-05
-0.00739129
0.655575
-0.167372
0.300632
-0.0110424
0.673154
-0.0206302
-0.000911502
-0.0192497
0.449481
-0.14959
0.783848
0.370211
0.000364949
-0.0102851
0.140163
0.141984
0.00471634
0.394223
-0.0182637
1.02753
-0.0464553
0.00277255
0.0103506
0.599576
0.414927
0.00790771
0.26064
0.735928
-0.00433749
0.43588
0.507948
1.02976
2.85028e-05
0.0223541
-0.062191
-0.000391468
0.000284127
0.692637
0.149444
-0.120672
0.678017
0.0329274
-0.00740532
0.205435
0.0659547
0.0561668
1.03357
-0.0402975
-0.0483889
0.730895
-0.0185522
0.0088066
-0.0867783
0.136905
0.0141301
0.219101
-0.124162
-0.0467038
-0.00189925
0.247092
0.721347
0.439243
-0.171601
-0.00759858
0.862243
0.864686
-0.000994905
-0.00993474
0.578493
-0.0653146
-0.0482535
0.198052
0.00999202
1.07987
-0.0287703
0.0346785
6.14463e-05
0.729744
0.366159
0.000879283
-0.061287
-0.132197
-0.069199
-0.00114469
0.585694
-0.196416
0.212067
1.01141
-0.176034
-0.0374867
-0.00240439
-0.124787
-0.136335
-0.00371737
0.265697
-0.000438017
-0.0114464
-0.00654868
-0.139661
-0.0145616
0.000186575
-0.0240516
-0.0563481
-0.160372
-0.0341445
-0.00516741
-0.0904258
-0.0385252
-0.0160328
0.00937553
-0.00186544
-0.0568718
-0.075457
-0.00493461
-0.0304813
-0.00717106
0.42887
-0.0581318
0.000415399
0.92134
-0.00484921
-0.000415316
-0.00746054
-0.00959766
-0.0302514
0.812465
-0.0221944
0.0302859
-0.0639747
-0.0685872
0.191737
-0.0168968
-0.0265995
-0.0518296
0.000243848
-0.107038
0.942331
-0.118149
-0.0161699
0.278136
-0.0185757
0.395181
-0.0189524
-0.000137147
0.00131844
0.488401
0.995317
-0.119231
0.0293483
-0.0781849
-0.0113514
-0.0123778
0.573117
0.0144333
-0.170507
-0.0856148
0.0131954
-0.00392269
0.857501
0.065483
-0.000115002
0.780197
-0.0281609
-0.0352066
0.413908
-0.00821043
0.00038387
0.000297754
-0.0712257
-0.00129549
-4.224e-05
0.0165389
-0.207795
0.59359
0.000650619
-0.00130934
-0.01877
-7.6029e-06
-0.122064
-0.173074
-0.00112473
-0.0299683
0.000457695
0.418054
0.694224
7.68517e-05
-0.00179757
-0.04058
0.719853
-0.0111745
0.740606
0.00091706
1.00815
0.458815
0.133762
0.967967
-0.190811
0.00287292
-0.060026
-0.0115467
0.692979
0.574457
0.00358797
-0.198666
0.00851643
-0.0456536
0.00426618
-0.208013
-5.25768e-05
0.442212
0.00554852
-0.0241526
-0.00894546
-0.0237488
0.0540556
-0.0501576
0.00333694
-0.0208231
7.3563e-06
1.00539
0.845547
0.00233109
0.00098686
-0.0137852
0.567877
-0.00151485
-0.0844006
-0.0137021
0.631382
0.120469
-0.00216859
1.06669
-0.00604301
0.593483
-0.00216576
-0.079121
0.779295
-0.0159068
1.01724
0.526672
1.03182
0.00256937
0.00549249
-0.0443987
-0.0579757
-0.00699564
-0.0398622
0.608654
0.641932
0.45062
0.709884
1.0064
0.109531
0.72295
0.446446
-0.00634309
0.50085
-0.0240341
-0.0143099
0.000347805
-0.0438757
-0.117542
0.304429
0.00326004
0.608078
-0.021765
0.0272634
0.574159
-0.0113998
-0.0566994
-6.61124e-06
-0.000345867
0.308263
-0.0275173
-0.0133749
-0.000404453
-0.000737072
0.00286758
0.00043094
-0.131698
1.00401
0.0475162
0.193059
0.0049757
0.525928
-0.117591
-0.0107347
0.000543794
0.000329758
0.00034088
-0.00222827
-0.00899744
-0.0850292
0.24
-0.089991
0.0114726
1.00384e-05
0.642418
-0.160723
-0.19308
-0.0167154
-0.083966
-0.0480201
0.014024
0.574474
0.891787
0.299638
0.0127672
0.326425
0.00721814
-0.0150321
0.110333
-0.000120564
-0.00794176
0.0266417
0.120468
-0.00225466
0.552803
0.81076
0.551302
-0.00951142
0.00563964
-0.0283566
0.0687603
0.510108
0.00192697
0.777462
-0.0170809
-0.0826835
-0.0484765
0.939834
0.224984
0.585581
-0.181658
0.968869
-0.00137195
-0.0150031
1.03933
-0.00497416
-0.073016
0.584125
0.633925
-0.0111785
0.497995
0.716477
0.63002
0.471719
0.604992
0.410821
0.00263213
-0.0020743
-0.00295005
-0.0698931
0.720001
-0.0636179
-0.0187535
0.0626324
-0.0150347
-0.118589
-0.005777
0.739467
-0.104426
-0.000806983
-0.00208642
-0.0182425
-0.158948
-0.179097
-0.0733343
0.464746
0.752505
-0.0543498
0.731461
1.00257
0.00344268
-0.00201143
-0.000423342
0.00431775
0.30598
1.01076
0.0686316
0.511832
-0.00464861
0.305447
0.308626
-0.189939
0.0024178
-0.0041313
-0.0322136
-0.0172983
-0.0824882
-0.0110141
-0.00900864
0.562182
0.00255082
-0.0270485
0.626303
-0.118678
0.886802
-0.0431281
0.442312
-0.173288
-0.029894
0.77243
0.884564
0.719135
-0.00997603
0.899959
-0.00832472
0.755818
-0.041819
0.710935
-0.0158723
-6.13004e-05
0.716129
0.772738
0.754796
0.717216
0.324503
0.0172541
0.353837
-0.0724459
0.717354
0.551199
-0.140839
0.00510666
0.00208993
-0.192957
0.528398
-0.0048939
0.00772997
0.739832
0.728804
-0.0239719
0.695316
-0.0841701
-0.0743764
0.0085756
0.74955
0.768508
1.00348
0.727687
0.00229484
-0.00569518
0.000439873
-0.0311504
0.882705
0.141827
0.491006
-0.00738099
0.448393
-0.0133571
0.885359
-0.0655057
0.73717
0.00766386
0.851687
0.913495
-0.00535521
-0.0111977
0.843485
0.00262991
0.938156
-0.0358132
0.00323468
0.00278425
0.604839
0.0702553
-0.0490472
0.680438
0.946849
0.317891
-0.00637181
-0.0263981
-0.0620126
0.724294
0.909572
1.06199
0.146709
-0.00280278
0.014057
0.519178
-0.00292147
0.00355216
-0.00381023
-0.00928386
-0.096452
-0.158443
0.786366
-0.019681
0.000317058
0.52412
0.071222
-0.00426302
-0.0360257
-0.0014162
0.0954406
0.559132
0.705545
-0.135864
0.0269052
-0.00242108
-0.0752755
0.00184142
0.729002
0.79894
-0.189642
-0.168441
-0.143299
-0.0429359
0.692134
-0.0359509
-0.102281
-0.10322
-0.0612033
0.967755
-0.132598
-0.115612
0.744388
0.00422809
-0.0265734
-0.032121
-0.0978746
0.00219849
-0.00078132
0.963204
0.414799
-0.183313
-0.174474
0.415455
0.680552
0.542883
-0.151749
-0.01516
-0.0165659
-0.0165995
0.494463
0.00669541
-0.0282514
0.000222594
-0.00210837
0.00127795
-0.114388
0.609818
-0.08044
0.725258
0.697167
-0.0131323
-0.00774078
0.993762
0.432727
-0.0587129
-0.00888733
0.313688
-0.0237747
0.320131
0.963614
0.158196
0.00538033
-0.0103857
0.618341
-0.0181379
-0.0655767
-0.0293536
0.825593
-0.0118978
-0.14852
0.300177
0.0890887
0.541562
-0.0279158
0.149037
-0.0375789
0.742731
-0.105496
-0.0318135
-0.0366582
-0.0356819
0.000391602
0.00137315
-0.000891578
0.817378
-0.0443058
0.377077
-0.0814315
-0.080492
-0.0870751
0.14771
1.00043
0.859442
-0.0863241
0.111036
-0.0289139
-0.110399
0.00826897
0.0735809
-0.00839056
-0.00238123
0.510624
-0.0284567
-0.00621427
0.816183
0.545377
0.745098
-0.00498377
-0.171655
-0.00645936
0.152395
-0.0504132
-0.000165056
0.8347
-0.0800672
0.0804089
-0.159397
0.000210438
-0.00746445
-0.00148174
0.0506687
-0.000550321
-0.0144415
-0.015852
-0.0196087
0.873489
2.16037e-05
-0.0307364
0.00292013
0.911437
-0.0063153
-5.71109e-06
-0.126683
0.113451
0.45801
-0.00603634
-0.00633068
-0.0241501
0.501334
-0.0102158
0.153675
-0.162088
-0.147751
0.053398
0.352423
0.0312678
0.0831455
0.00256398
0.527094
0.928477
-0.000316047
0.267328
-0.0384038
0.957518
0.902946
-0.0937891
-0.112367
-0.146779
0.378035
-0.000262471
0.714694
1.02335
0.00264042
-0.0450853
0.0905001
-0.00130668
-0.000720149
-0.000418617
1.00485
-0.0109366
-0.034653
0.709237
-0.00498414
0.358577
0.744241
-0.0105328
0.846895
-0.0139456
-0.00854966
0.757223
0.160789
0.540284
0.00281325
0.738725
0.018799
0.706969
-0.0576717
-0.00793749
-0.0312097
0.837971
0.758593
0.863052
0.729974
-0.179763
-0.000217614
-0.122591
0.431614
0.710113
0.922754
-0.0116643
0.307747
0.936598
0.62596
-0.00132886
-0.00469715
0.000996898
-0.00664138
-0.08386
0.800603
0.230165
0.706444
0.0548939
-0.0674342
0.713284
-0.136739
0.483576
-0.108777
-0.0880118
-0.0130126
-0.0971396
-0.0553832
0.906995
-0.0501607
-0.0140515
-0.131953
0.125278
-0.0801947
-0.0118106
-0.0347771
-0.0338125
-0.0680344
0.482649
0.195973
0.575545
-0.175112
0.749846
-0.0799084
-0.000854513
-0.00884004
-0.0251438
-0.134493
-0.158843
-0.00675334
0.117502
0.871203
0.00784448
-0.0314789
-0.0397135
-0.0597095
0.252361
-0.0330343
0.952776
0.14037
-0.00737929
-0.00663733
-0.0490613
-0.0959529
-0.0150833
-0.0307475
-0.0550693
-0.101039
0.116015
0.892583
0.789172
0.040799
0.0038356
-0.012136
0.00181866
-0.00642851
0.522508
0.00840263
0.464016
-0.0721259
-0.00729383
0.877813
0.90505
-0.00110153
0.723393
0.777251
-0.0197265
-0.0224088
0.104516
0.52397
0.903662
0.342764
-0.0855353
0.874257
0.0384674
-0.0374876
-0.0396562
-0.0990187
0.935228
-0.0312303
0.743385
0.174304
0.857622
-0.0663377
0.422562
0.327661
-0.093439
0.764609
-0.0747469
0.833013
-0.000635633
0.230531
0.489728
0.389222
-0.0027927
-0.126258
-0.000632334
-0.0143831
0.282646
-0.0131427
0.355023
0.216469
1.01688
-0.03689
0.840265
-0.0299172
-0.0271543
-0.0973127
0.719515
-0.0580378
-0.131621
-0.0279882
0.510849
-0.0062927
0.986434
-0.00489084
-0.130538
-0.117043
0.000796254
0.73343
-0.0440969
0.794857
0.566094
0.0525937
-0.0380675
0.00682628
-0.00094359
-0.0424254
0.799852
-0.0287244
-0.101696
0.180119
-0.0798343
-0.0411995
-0.0430074
7.5324e-05
0.870185
-0.0103402
-0.0939122
-0.138912
-0.00717146
0.701641
1.01712
-0.00371673
-0.0638473
-0.00507381
0.00754396
-0.00118026
-0.0190102
0.911136
0.853973
-0.0344496
0.101697
-0.000305709
-0.0119083
0.541064
-0.0195197
0.183784
-0.00249781
0.997198
0.463608
-0.0787691
-0.0231063
-0.0289004
0.988875
-0.0115261
-0.000217082
0.00847029
0.0148113
-0.0793988
0.00140909
-0.0495596
0.868053
-0.0940353
0.944402
1.06396
-0.0130166
-0.0975175
-0.000806769
0.00286649
-0.0732472
-0.0275085
0.975477
-0.00358761
0.00446994
0.480939
-0.0515648
0.545521
0.00599814
-0.171543
0.452406
0.506897
-0.0719634
-0.0195092
-0.0577721
0.656645
-0.0104109
0.258612
-0.0124713
-0.00624433
-0.0113263
-0.00945179
-0.00189517
-0.0994075
-0.0982073
-0.178992
-0.00605324
-0.00215508
0.000744053
-0.0100801
-0.0645771
-0.0055199
-0.034533
0.878276
-0.00952686
-0.0201802
-0.0207053
0.631529
0.00167754
0.516713
-0.122848
-0.127261
0.00776442
0.528173
0.279966
-0.0118873
-0.0350655
-0.0340971
0.335078
-0.000339706
0.500083
0.60351
-0.0142449
-0.0771302
0.0370307
0.0908506
-0.0677151
-0.0435744
0.536839
-0.00188752
0.465695
-0.0136478
-0.0172905
0.427331
0.910086
-0.0429494
-0.00692734
0.696958
0.28687
-0.00352103
-0.0309882
-0.111022
-0.00651918
-0.00111543
0.00248292
0.626893
-0.142087
-0.0778138
0.601893
-0.085918
-0.0151492
0.0690886
0.0025221
0.0767208
0.486019
-0.0857583
0.3617
-0.0062822
0.855038
-0.0838919
-0.000312147
0.000169474
-0.147497
-0.000753128
-0.00603134
0.0654034
-0.0711147
-0.00533938
-0.0260243
-0.00744704
0.122422
0.73419
0.000850367
-0.0025062
-0.0261348
0.376844
-0.0531544
-0.00781645
-0.000335904
0.0187322
0.0975643
-0.0108817
0.0018796
-0.136528
0.533487
0.554438
-0.0634417
0.507483
0.763267
-0.0118525
0.415674
0.0939107
-0.0484774
-0.00236029
-0.043977
1.02536
-0.0183905
-0.097451
-0.00704222
0.489757
0.00233617
-0.00199487
-0.0101528
-0.0114769
0.00223787
0.736949
0.153112
0.34114
0.621814
0.517113
0.00792132
0.111714
0.363344
-0.107976
0.712621
0.0928002
0.133769
2.56253e-05
0.323651
-0.0380398
0.0631024
0.20939
-0.0906225
0.0402488
-0.00826655
-0.00998117
0.00258614
-0.139099
0.0332214
0.886477
0.00854955
-7.73665e-05
0.292627
-0.00256106
0.172787
0.11529
0.00333189
-0.0100541
0.308447
0.702
-0.0361477
-0.00154677
0.000362915
0.201585
0.459081
-0.00428062
0.607522
-0.00341888
0.0842671
-0.0670502
0.804826
-3.12715e-05
-0.00176363
0.00031923
0.00154356
-0.151187
0.0085094
0.368785
0.568053
-0.00516654
0.173484
-0.00608003
0.00434011
3.29913e-05
0.162763
-0.00914475
0.0792887
6.94816e-05
0.476323
0.00391792
0.596318
-0.193397
0.669331
-0.00661173
0.00154298
0.00113837
0.708945
-0.013584
-0.0967239
0.0281705
-0.00582691
0.585092
0.0023191
-0.0171517
0.00224232
0.0022306
0.743565
0.000422195
-0.000307645
-0.00221521
-1.29174e-05
0.00543693
0.60843
-0.000990591
-0.0030872
-0.00413523
-0.000453426
0.536572
-0.218838
-0.0495296
-0.0496257
-0.00142965
-0.0110126
-0.172742
0.00421763
-0.00199887
0.0030709
0.236912
-0.000400906
0.00549046
-0.156925
0.048055
0.675002
0.00942379
-0.00418038
0.00573049
-0.0268871
0.423624
0.567634
0.748778
8.75639e-05
0.1023
-0.00651693
-0.0037745
0.116678
-0.0117263
0.00403608
0.00672088
-0.004285
-0.000668906
-0.00126105
0.00427505
-0.00345508
-0.00706622
0.476822
-0.00618903
0.302586
0.0383271
0.0131051
0.217329
0.109682
0.383056
-0.00296542
0.277274
-0.00107352
-0.0107409
0.245866
-0.0183243
0.526052
0.488171
-0.00839558
-0.00083356
-0.000436467
0.00509174
-0.147199
0.00679881
0.0078168
0.004334
0.00709782
0.00601076
-0.0100986
0.00520244
0.00222755
-0.00651321
0.383339
0.00616205
0.00259664
0.00229256
-0.00576009
0.0058626
0.579931
0.567385
0.117806
0.803396
-0.013638
-0.093372
0.00395453
-0.00411923
-0.00168505
0.00013111
4.81677e-05
0.10185
-0.0699885
0.000178439
-0.120007
0.0642001
0.199555
-0.033945
0.0101511
-0.0149814
-0.00101667
-0.00191572
-0.00193702
0.0053221
-0.0328713
0.842351
-0.00477619
-0.0327149
0.000375142
-0.00998972
0.00785266
0.0136489
-0.00117384
0.00632947
-0.00872507
0.00583974
-0.0324542
-0.100822
0.00349408
0.15942
0.00690582
0.002431
-0.0981941
0.521895
0.544489
0.356751
-0.00713758
-0.130134
-0.0410366
-0.156378
-0.0161677
-0.150562
-0.0026842
-0.140309
0.00643993
-0.00827474
2.62443e-05
0.0161333
0.00532209
0.00117564
-0.0181844
0.896113
-0.00483456
-0.113824
0.827346
0.857548
0.0096484
0.833048
0.771901
0.446221
-0.0038396
-0.189523
0.858491
0.00134925
0.000176234
-0.0117064
0.00246699
0.00281126
-0.0391055
0.00167432
0.00634199
0.0104139
-0.0205812
0.00068551
-0.0336553
0.00222264
0.986011
0.0104878
0.00838319
0.977949
0.00243391
0.913058
0.851709
0.460161
0.00809729
0.988901
-0.0324277
0.643079
-0.0193569
-0.000468843
-0.00923381
-0.0249292
-0.00317673
0.726897
0.00206894
-0.000806833
0.00334926
0.000203592
-0.185845
0.192357
0.000227584
0.509902
-0.0366879
0.000365591
-0.00846763
0.00873642
-0.0558167
0.00200915
0.863593
-0.00187299
0.776693
-0.00562119
-0.000308354
0.000164825
0.0102335
-0.00749666
0.00811529
0.644019
0.712135
9.68447e-05
0.864287
-0.00997616
-0.00241601
-0.0217737
0.787673
-0.153116
0.00112728
6.34181e-05
-0.00171947
-0.000906452
0.000369251
-0.00012247
0.87006
0.000739919
0.00214972
-0.0239131
0.958063
1.06275
0.00601578
-0.0104849
0.520164
0.96172
-0.0154873
0.00541752
3.31021e-05
-0.014679
0.74574
0.520442
-0.00142155
0.0065472
-0.00465102
0.807024
-0.0823903
-0.00483952
-0.000546136
0.00166797
-0.0246726
0.566844
0.000310025
0.828096
0.00200445
0.931286
-0.00028963
0.851504
0.00685576
0.00222239
-0.0165236
9.07138e-05
-0.00118301
0.00174846
0.00217653
-0.00630916
-0.00096465
-0.003969
0.00295624
-0.00581379
-0.000968918
0.00415443
0.00396127
-0.00291029
0.0463652
-0.000620112
0.513619
0.00620757
-0.0133061
-0.00544957
-0.124222
0.975871
0.00409348
0.00128273
0.000416052
-0.00446334
0.00941246
0.435117
0.5673
-0.00546324
0.0065751
-0.0884064
0.0808477
0.826222
0.00222653
0.451071
0.607625
0.000106982
-0.0127765
0.0109844
-0.00196313
0.00138046
0.00115532
-0.00155425
0.0053729
0.00239987
-0.00885183
-0.0115056
-0.0145107
0.0244664
-0.090692
0.492645
-0.0951917
-0.0841953
9.99135e-05
-0.00108071
0.721611
-0.000567444
-0.00484174
0.00103068
0.00406679
-0.000270409
0.344502
0.00860963
0.881339
-0.000659418
-0.00160414
0.00729175
0.047392
-0.0033944
0.827235
-0.0948337
0.00921623
0.0103279
-0.0577599
-0.00587819
0.407725
0.00121037
0.749743
-0.000858215
0.00010457
0.000565427
0.00209865
-0.00031113
0.000240221
0.00270881
-0.00327893
-0.00846321
-0.00064461
0.000204228
-0.0019415
-0.0763467
-1.07124e-05
0.000345428
-0.0036349
-0.000957964
0.000167288
-0.00359979
-0.00913628
-0.00139799
0.000735263
0.00719004
0.533035
-0.000140996
-0.0519662
6.23359e-05
-0.0482446
-0.0173932
-0.021942
0.0018577
5.9305e-05
0.0020672
0.000289706
-0.0628865
-0.135638
0.0105013
-0.107555
-0.000654476
0.0120035
-0.124657
0.557681
0.311446
0.397974
0.00236139
0.00204698
0.000840757
0.00514351
0.758227
0.463174
-0.000291864
-0.00189966
0.270526
0.484669
0.900138
-0.000496729
0.00204842
-0.000631745
5.92423e-05
-0.000472185
0.000239756
-0.00380905
-0.00072456
0.528446
-0.0254063
-0.000758335
-0.00572008
-0.00146494
-0.15819
-0.00441967
0.0588036
-0.00173543
0.0925483
-0.0127504
0.00699179
-0.00703377
-0.0572054
-0.000538621
0.0559348
0.819247
-0.00572855
0.558868
0.00950986
0.00489655
0.629016
-0.000747974
0.343878
0.00192651
-0.0574599
-0.0760817
0.0049709
0.00558352
-0.00121336
9.57741e-05
-0.0136661
5.9564e-05
0.00339786
0.00790473
0.843072
-0.0439708
-0.00357408
0.514097
3.91426e-05
-0.000847714
-0.0233485
-0.000438143
0.811512
0.00170656
-0.00101697
0.00530307
-0.00182917
-0.0181394
-0.00154999
0.000751156
-0.0961907
-0.00803083
-0.000699872
0.69662
0.950749
-0.00246728
-0.0755922
-0.00156444
0.576015
0.000237821
0.00264144
0.000153953
4.25803e-05
-0.0688159
-0.00412239
-0.00139086
-0.132081
-0.000287773
-0.0803236
0.000632638
8.50725e-05
-0.00616477
0.640346
0.686307
-0.0210538
0.256763
-0.0442484
0.000141427
0.497977
-0.00521856
-0.00198969
-0.00431992
-0.152086
-1.76483e-05
-0.0404692
0.00150297
-0.0311691
-0.0200212
0.00362343
0.00302633
-0.0664945
0.318341
0.0156288
-6.62592e-05
8.16239e-06
0.00973113
0.0502934
-0.000394479
-0.0592998
0.000659588
0.488681
-0.197182
0.641188
0.168339
0.00995041
0.107357
0.000995835
0.523917
-0.107904
-0.00816797
0.000260084
-0.00142508
0.0107268
0.0119834
0.00910441
0.0122576
0.0727161
0.00809574
0.167223
-0.000771582
-0.00378318
0.000928246
-0.103238
-0.0376669
-0.00642258
4.07203e-06
-0.0344968
0.106195
0.0149554
-0.0313618
-0.0277711
-0.0173747
-0.0250553
-5.64381e-05
-0.000989866
0.596948
0.667758
0.724821
-0.000538698
0.67858
0.586177
0.680099
0.00288712
0.000672019
-0.000575737
0.128809
0.380234
-0.0825797
-0.00454866
0.0153094
-0.000982652
-0.0424583
0.0114352
0.00730385
0.431941
-0.0018946
0.00908135
0.000278157
0.0130098
0.691077
-0.021605
-0.000716007
5.04555e-05
0.786373
0.528647
-0.118173
0.0344163
0.010553
-0.119473
0.0114633
-0.120601
-0.12063
-0.116626
0.0204906
0.011735
-0.0425664
-0.000240398
0.655535
-0.0183376
-0.00377535
0.420854
-0.0125555
-0.00119159
0.0177189
-0.173404
0.0639071
-0.0183901
0.00056793
0.469598
-0.00080521
-0.00191481
-0.0249696
1.5796e-05
0.00475015
-0.0017276
0.00714218
0.0150785
-0.0294424
0.000745322
-0.0337476
-0.0130142
-0.0349913
-0.0356594
0.00331036
0.00597386
-0.0345937
0.00741189
0.0112965
0.0103937
0.288679
0.0130928
0.00710852
0.000192129
-0.000743759
-0.0130127
0.000144779
0.183624
0.606169
0.00448399
0.00775986
0.00513799
0.00800877
0.000567361
-0.00817925
0.00326956
0.00461302
3.47047e-05
-0.0121471
0.00479464
0.01583
-0.00129296
4.8271e-05
0.228538
0.00325115
-0.0588087
0.34625
-0.0243099
-0.00610175
0.0156766
0.000360017
-0.0667574
0.00846836
0.0152989
-0.0760791
0.0191416
-2.44498e-05
-0.08262
0.136566
0.000169487
0.0461901
0.00316959
-0.0332832
0.458893
0.00223415
-0.000336057
-0.000382992
0.276295
-0.178399
-0.0149757
0.0160111
0.0062899
0.00786633
-0.00501232
0.00850192
0.0261593
0.743916
0.873174
0.510216
0.000104696
0.231852
0.017185
0.00305383
0.0165179
0.254478
0.00295792
-0.202299
0.000232812
0.0133921
0.343353
0.000162119
-0.0648857
0.00102413
-0.0812873
-0.000956051
0.500382
-0.00104323
0.458373
0.00314306
0.0152326
-0.0165351
0.001117
0.429702
-0.00159354
0.00707381
1.81489e-05
-0.110236
-0.0181885
0.00478464
-0.0020994
-0.00083966
0.112783
4.43809e-05
0.222976
-0.00891963
-0.000832859
0.265944
-0.0447558
5.3734e-05
0.000795395
0.000930976
-0.00139939
-0.0104198
0.244043
-0.01176
-0.00180684
-0.0442095
0.00678969
0.400573
0.671892
-0.000687144
-0.00492726
0.00541074
0.00328069
0.333589
-0.0173695
-0.000993187
0.193132
-0.0710193
0.537328
-0.00508935
-0.0011618
0.199744
-0.00595858
0.0116044
-0.0132216
0.757137
-0.0311192
0.000578977
-0.00120205
-1.54252e-05
0.748904
-0.00142257
0.914218
0.119862
7.05245e-05
0.00123244
-0.0190711
-0.0424971
-0.000347972
-0.00231004
0.734262
-2.98069e-05
-0.0193485
0.750616
0.000824714
-0.00358444
-0.000403124
0.00151787
-0.00040394
-0.00930542
-0.0134539
0.00170585
-0.101694
0.000199233
-0.000288216
-0.000265253
0.000114162
-0.024016
-0.000307952
0.00165029
-0.0405522
-0.0141651
0.909056
0.00671076
-0.0072099
0.00469888
-5.26303e-05
-0.0010416
-0.000212511
0.0790668
0.426272
0.00162415
-0.0248198
-0.0062658
0.00855977
-0.00352313
0.971744
-0.00245731
0.00200883
0.264649
-0.008223
-0.000308103
-0.00645333
0.501081
0.00107434
0.393463
0.52212
-0.000299963
-0.00820172
0.655746
-0.000799352
0.00251094
-0.00271073
0.109689
0.0775372
-0.0188756
0.000220402
0.705466
0.00142661
-0.0136185
0.00532796
0.00309874
0.837327
-0.00208916
-0.000156438
0.00250477
0.127431
0.917036
0.494915
0.98213
0.00205233
0.833574
0.000299414
0.32109
0.00385444
0.000957181
0.117627
-0.0100523
0.059862
-0.000316701
-0.00809584
0.9278
-0.00842652
-0.0894957
-0.0029089
0.00182099
-0.0201439
-0.00284876
-0.000498758
-0.00029309
-0.019535
0.00032346
0.93648
0.00531487
0.00580005
0.0264799
-0.120486
0.120383
0.332806
-0.00046043
-0.148248
0.199159
0.550913
0.970372
5.5791e-05
-0.147904
-0.128383
0.00225025
0.240282
0.283149
-0.140164
0.757643
0.0691629
0.0998465
0.00312295
0.467054
0.00837794
-0.000599334
-0.000164936
-0.000299518
0.000890335
-0.00219283
0.00790742
-0.000152031
-0.00129185
-0.00619111
0.000193355
0.176133
-0.0453789
3.11796e-05
0.939904
-0.000708637
9.83221e-05
0.659648
0.97294
0.00402313
-0.0104546
0.650262
0.00365906
0.81604
0.0164439
0.000280906
-0.0511384
-0.0277187
-0.00396796
-0.00107847
0.353601
-3.86159e-05
-0.00051939
0.771807
0.000998673
-0.00342494
-0.035802
0.00689458
0.0074351
-0.00043623
-0.0369079
0.00996688
-0.000311737
0.00334714
0.00203849
0.298535
0.00016748
0.000131634
0.00188353
0.737815
0.0034495
0.00345072
0.000674445
-0.00279303
0.702984
-0.00754181
0.025658
0.642297
0.00103276
0.858821
0.5853
0.00701399
-0.0518599
-0.000677202
0.00599306
0.817009
-0.00466255
0.00118429
-0.000207466
0.00733786
0.00554174
0.00133082
-0.000562238
0.848885
-0.000172011
0.527998
-0.0149935
-0.0563288
-0.000217839
-0.0552794
-0.00196505
0.678454
0.698701
-0.0631175
-0.00045391
-0.0151597
-0.0602132
0.113056
0.0458671
0.168645
-0.0706699
-0.0447492
0.0110727
0.00023362
-0.000312454
0.00156037
-0.000898276
-0.00057146
-0.000737258
0.000450683
0.00484556
0.0151847
-0.00231835
0.000245414
0.00901701
-6.19209e-05
-0.00116442
-0.000187065
1.06474
0.0567893
-0.00203086
-0.0053563
-0.00153051
-0.000143373
-9.99651e-05
0.000140248
0.000225975
-0.0107614
-0.000144709
0.0108778
-0.000232527
0.00173322
-0.000350544
0.00513808
-0.0199086
-7.13379e-05
0.734719
-0.0119468
0.502835
-0.0187561
0.792252
0.00293916
-0.000135815
-0.00162448
-0.00384108
-0.00465293
-0.00695751
-0.00781335
-3.43345e-05
-0.00956481
-0.00955877
0.688451
-0.0136436
-0.0680676
-0.0159134
-0.000106156
-0.0660967
0.00337013
-0.000208803
-0.00267993
1.70283e-05
0.000511563
-0.0151982
0.0019562
-0.0170649
0.565345
-0.000691656
-0.00218136
0.0105553
-0.00625851
-0.00054675
-0.0028182
0.00667059
0.000417618
0.959216
0.00609464
-0.00297233
-0.00365195
0.00215132
-0.000468793
0.00167828
0.00436687
-0.000901434
0.00147381
0.00817342
-0.078773
-0.00021696
-1.23565e-05
-0.00423051
-0.00701768
0.00158111
0.00174009
0.0016065
-0.000235567
-0.00059093
-0.00194104
-0.000564873
0.00134233
0.00179089
0.0031838
0.6709
0.000814825
0.00234338
0.00248052
-0.00248287
-0.000468716
-0.000566965
0.139914
-0.00512933
0.522256
0.00179929
0.000887475
-0.000232877
0.474489
-0.077539
-0.000552951
3.73952e-06
9.10051e-05
0.0027226
0.00180662
-0.173285
0.000234356
-0.0329559
0.000741091
0.00177704
0.000963735
0.00176901
-0.0026213
-0.0350116
0.650249
-0.01402
0.0049883
0.000368935
8.12265e-05
0.00260848
-0.000192085
-0.0240582
0.00366217
0.00436048
-0.000869623
-0.00530464
0.00129735
-0.0983736
0.000662495
-0.000220411
0.00434437
0.000585134
0.00171474
0.00439827
0.00404904
9.33867e-05
0.824479
0.000510359
0.993298
-0.00225728
0.00444289
-0.00543467
-0.000213234
-0.000240486
-0.0618259
-0.000589536
-0.082322
-0.000159776
-0.202675
0.0014668
0.000341754
-0.000107568
-0.00570334
0.831984
-0.000118224
-0.00882103
-0.00537642
0.632046
-0.0193479
-0.0546774
-0.000249032
-0.152684
0.00674184
-0.117856
-0.024204
-0.000463964
-0.00965499
0.901027
-0.0500925
-0.00353936
0.00591911
5.57664e-05
0.530732
0.632756
-1.4345e-05
0.0021317
0.212385
-8.27367e-05
-0.00147059
5.36324e-05
-0.000244235
-0.02031
-0.00524643
-0.133398
-0.0383285
-0.000492779
-0.000186529
-5.59357e-05
-0.0530804
-0.0194168
0.27369
0.000181373
-1.91243e-05
0.563141
-0.00715529
0.000496677
-0.0139964
0.00503966
-0.000673596
-0.000137215
-0.0144444
0.000204763
-0.00869722
-0.000204959
-0.000396136
0.287786
-0.00111842
0.192764
0.770352
-0.00749332
-0.00696325
-0.0597723
-0.000965318
0.91773
-0.00895548
0.00196889
-0.000154337
0.407874
0.839659
0.0656877
-0.103125
-0.00359849
-0.000139647
0.00912861
-0.00023484
-0.00144102
0.00658445
0.471561
-0.00873101
-0.000220872
-0.00333209
-0.000841154
-0.00551748
0.454107
-0.018964
0.0119751
-0.000983855
0.000273223
0.000885482
0.80182
-0.00371411
0.00105588
0.000442479
0.00443921
-0.000149423
0.0113132
-0.0037977
-0.00887214
-0.0180779
0.0002648
-0.00797861
0.268215
0.00957488
0.00110383
-0.0119443
0.501517
-0.00127465
0.00923282
0.64893
-0.00123466
-0.000145585
-0.0343656
0.24289
0.0804989
0.148666
-0.0192419
0.00136871
-0.000687619
0.446278
0.0132984
-0.00287354
-0.0190263
-0.0015808
-0.070343
-0.00156291
-0.00163296
-0.000721207
0.397636
-0.00386565
0.0042226
0.695013
-0.00559351
0.635537
7.34228e-05
0.00535171
0.589368
0.92512
-0.0223081
-0.0035157
-0.00102927
0.000704014
-0.00259293
0.535776
-0.0102686
-0.00847972
-0.00198194
0.000768365
0.000454763
-0.00449538
0.000572062
0.307368
0.00050122
-0.0190795
0.000129902
0.00318391
0.000609853
0.0900554
0.366048
0.0035099
0.000339454
-0.00308142
0.000638729
-0.00407121
0.000447436
-0.00249469
-0.0045153
0.223162
0.51701
-0.00644509
0.155657
0.00598278
-0.0564981
0.00482851
-0.00699962
0.0616803
0.0340387
-0.00952555
0.00725407
0.569778
0.20506
-0.00254537
-0.000350544
0.00152967
0.822707
-0.000555773
-0.000275422
3.54769e-05
0.00127305
0.000828563
-0.00260659
0.00144398
-0.00782552
0.0770118
-0.0282598
-0.00027915
-0.00145977
-0.00517629
0.00530267
-0.00558144
0.00345039
0.00119101
0.00318816
-3.14878e-05
-0.012287