/*--------------------------------*- C++ -*----------------------------------*\
  =========                 |
  \\      /  F ield         | OpenFOAM: The Open Source CFD Toolbox
   \\    /   O peration     | Website:  https://openfoam.org
    \\  /    A nd           | Version:  7
     \\/     M anipulation  |
\*---------------------------------------------------------------------------*/
FoamFile
{
    version     2.0;
    format      ascii;
    class       volVectorField;
    location    "39.5";
    object      U;
}
// * * * * * * * * * * * * * * * * * * * * * * * * * * * * * * * * * * * * * //

dimensions      [0 1 -1 0 0 0 0];

internalField   nonuniform List<vector> 
19930
(
(0.997645 -0.000228841 3.64183e-23)
(0.990307 -0.000751235 -4.64411e-22)
(1.03545 -0.0049302 5.29276e-23)
(1.0003 -6.82412e-05 -2.77621e-24)
(1.00056 -0.0116616 7.07961e-23)
(1.00008 -0.0123859 -6.96699e-23)
(1.04171 -0.223448 -8.87802e-22)
(1.23431 0.0941822 -9.3806e-21)
(1.00376 -0.110811 -2.10959e-21)
(1.24374 0.0892241 6.77625e-21)
(1.05778 -0.203045 -2.74502e-21)
(1.3583 0.0059764 1.8498e-22)
(0.978658 -0.0699243 -2.63873e-22)
(0.997446 -0.000274404 -3.00104e-23)
(0.994577 -0.00393209 -2.41117e-23)
(1.00029 -8.26625e-05 -2.52737e-24)
(1.32839 -0.12678 -2.67175e-21)
(1.19515 -0.00138416 -4.64923e-21)
(0.998423 -0.166826 -1.31896e-21)
(0.992559 -0.000355772 4.08625e-22)
(1.01917 -0.128652 2.94658e-21)
(1.36078 0.0112133 2.47975e-22)
(1.2546 0.0960838 -4.74572e-21)
(1.15295 -0.258734 -2.17965e-21)
(1.03293 -0.00231446 1.37343e-24)
(0.995923 0.21833 -2.60906e-20)
(1.01186 -0.00353401 6.06509e-23)
(0.989721 -0.0761862 9.38869e-22)
(1.20759 -0.250672 -2.01557e-21)
(1.00169 -0.168888 4.80986e-21)
(0.998301 -0.00265224 8.43147e-26)
(0.879192 0.0336352 4.52086e-20)
(1.34959 0.0981638 1.80336e-21)
(0.988118 -0.0435285 9.87215e-23)
(0.999996 -0.00202837 6.65267e-24)
(0.998364 -0.00287809 9.87292e-25)
(1.24432 0.133553 -1.03541e-20)
(0.999947 -4.41569e-06 -5.14703e-24)
(1.0193 -0.0262845 1.53489e-22)
(1.2045 -0.0124961 -1.28976e-21)
(1.05634 -0.0115499 2.74825e-23)
(1.34574 0.195453 4.04733e-21)
(1.08078 0.0961241 -6.75898e-21)
(1.01053 -0.00408556 -5.05539e-23)
(0.993956 0.208758 1.06295e-20)
(0.978223 -0.00162264 -2.58762e-22)
(1.18378 0.0123542 -1.66082e-20)
(1.34726 -0.0606957 2.73869e-21)
(0.999593 -0.000111084 -5.30146e-24)
(0.962725 -0.0603331 7.48574e-23)
(0.999867 -0.00215614 -1.6122e-23)
(1.10834 -0.0138204 -6.21284e-23)
(1.2297 -0.183469 7.62179e-21)
(1.00029 -0.00490785 -2.60899e-23)
(1.2657 -0.194924 -1.79146e-21)
(0.939638 -0.020736 3.83863e-23)
(0.970476 -0.039647 2.82696e-23)
(0.9981 -0.00348282 -1.53751e-24)
(1.01138 -0.0646685 -1.46641e-21)
(1.32858 -0.121411 2.07265e-21)
(0.941081 0.0709177 2.35725e-20)
(0.967634 -0.00466705 -2.79237e-22)
(0.987432 -0.00359764 7.47294e-23)
(1.26143 0.0728225 -3.62619e-22)
(0.999451 -7.89737e-05 3.42122e-23)
(0.993891 -0.0101547 3.59787e-24)
(0.993545 0.146211 6.98721e-22)
(0.993175 -0.0105805 1.34401e-23)
(1.16044 -0.121522 -3.23456e-21)
(1.0133 0.21948 9.72113e-21)
(1.05411 -0.0597378 -1.03286e-21)
(1.3205 -0.153718 -3.89775e-21)
(0.995062 -0.00396668 1.12947e-25)
(0.977051 -0.0505478 6.5277e-22)
(0.99959 0.0168589 -1.00289e-20)
(1.09761 -0.123563 2.04351e-21)
(1.01114 0.203519 4.42442e-21)
(0.958307 -0.00560714 -4.17662e-23)
(1.20032 -0.0114837 8.52224e-22)
(1.00702 0.068603 1.39993e-20)
(0.995032 -0.0106401 7.0879e-23)
(1.0027 -0.00587859 -3.62823e-23)
(1.18842 -0.250844 1.60881e-21)
(1.00524 -0.107374 1.76074e-21)
(0.971355 -0.00369328 3.09432e-22)
(1.0748 0.0914819 3.24443e-20)
(0.982599 -0.0652787 -4.69304e-22)
(0.754937 0.125724 4.39545e-21)
(1.25114 0.0704838 -3.79974e-21)
(0.955663 0.226097 1.73058e-20)
(1.20801 0.0248864 -5.67667e-21)
(1.00038 -9.81326e-05 2.84482e-24)
(1.00003 -0.000402295 8.04305e-24)
(0.902317 0.0102829 -1.28754e-20)
(1.34654 -0.0673211 -1.34828e-21)
(0.987757 -0.00381835 6.21549e-23)
(0.921712 0.00660747 1.97109e-20)
(0.999093 -0.00581999 1.59818e-23)
(1.06373 -0.196891 -1.25569e-21)
(1.14486 0.0255777 -7.7277e-21)
(0.947023 0.233876 -5.14225e-20)
(0.970082 -0.0120815 -7.61386e-24)
(0.919969 0.213281 -5.7238e-20)
(1.21807 -0.168342 9.06864e-21)
(1.15154 -0.00594836 -1.28959e-21)
(1.13323 -0.124601 2.80319e-21)
(1.08768 0.232024 1.64559e-20)
(1.20875 -0.144052 3.43686e-21)
(0.990184 -0.000428818 6.72018e-22)
(1.1458 0.251219 3.30047e-21)
(1.2143 -0.254912 -6.95627e-21)
(1.03529 -0.222518 -1.96512e-21)
(0.969942 -0.0305545 1.48559e-22)
(1.0455 -0.0306496 4.84528e-22)
(1.10121 -0.114999 8.92637e-22)
(1.00007 -0.000154165 -2.51694e-24)
(1.13181 0.147194 1.47401e-20)
(0.995788 -0.00996969 -2.94327e-23)
(1.20691 -0.180255 1.75685e-21)
(1.00554 0.0483852 -3.27143e-20)
(1.00037 -7.40854e-05 5.42213e-25)
(1.03493 -0.134889 2.09843e-21)
(1.24027 -0.00839422 -1.51845e-21)
(1.01213 -0.0741016 -2.03319e-21)
(0.988047 -0.0412068 -5.7743e-23)
(1.19728 -0.00150369 2.25193e-21)
(1.36942 0.0543529 5.07416e-22)
(0.989475 -0.0732717 7.44676e-22)
(0.863585 0.0401818 -1.33368e-20)
(1.12425 0.155026 7.97441e-21)
(0.983926 -0.0844759 -7.63046e-22)
(0.962342 -0.0578742 -2.81226e-22)
(1.05658 -0.00596867 -8.74614e-23)
(1.01816 -0.0241834 -1.55558e-22)
(1.06914 0.219463 -2.30343e-20)
(1.14497 -0.00998367 -1.50191e-22)
(1.35006 -0.0372723 2.08486e-21)
(1.02337 -0.129665 -1.21832e-21)
(0.975622 -0.0125556 -1.90651e-23)
(0.98533 -0.112615 3.5101e-21)
(1.02949 -0.138712 3.30618e-22)
(0.974885 -0.0522153 -6.50926e-22)
(1.31721 -0.163368 -3.38562e-21)
(0.911146 0.23638 -1.82359e-20)
(1.28782 -0.0803311 -1.09792e-21)
(1.06856 0.227792 2.09755e-20)
(1.37416 0.108215 -3.55445e-22)
(0.962774 -0.0125758 1.19573e-22)
(1.36529 0.0385537 1.04208e-22)
(1.01344 -0.00473078 -1.3118e-22)
(0.963164 -0.0113789 -2.56978e-22)
(1.01652 0.214109 1.03264e-21)
(1.00005 -0.000352445 -5.18265e-24)
(1.00339 -0.099212 6.58516e-22)
(1.00264 -0.00528465 6.50311e-23)
(1.37388 0.117909 1.16308e-21)
(1.06613 0.0970784 -3.37325e-21)
(1.14808 -0.25409 9.82369e-21)
(0.933491 -0.0244816 -8.43779e-24)
(0.977421 -0.0716059 5.48136e-22)
(1.26748 -0.205012 2.54135e-21)
(1.04767 -0.216565 1.38481e-21)
(0.998051 -0.00319991 -3.16265e-25)
(1.28874 -0.0729996 1.3852e-21)
(1.18374 -0.0102066 -2.88928e-22)
(0.75917 0.131979 1.0572e-20)
(0.971298 -0.0123497 -7.62148e-23)
(1.17984 -0.257906 6.35728e-22)
(1.09135 -0.125518 -2.34309e-21)
(1.24012 0.126863 -6.40907e-21)
(1.34984 -0.041055 -6.06909e-22)
(0.976252 0.164452 1.05269e-20)
(1.22411 0.270459 1.89532e-20)
(0.984628 -0.0375642 1.22953e-23)
(0.823908 0.0318637 -1.59002e-20)
(1.35314 0.0910823 1.68984e-21)
(0.996614 -0.000642211 -4.01058e-23)
(0.98274 0.0132085 -2.72566e-20)
(1.10993 -0.113811 -9.0684e-23)
(1.13198 0.269856 6.84688e-21)
(1.0606 0.246422 -1.06749e-20)
(0.999917 -2.79375e-06 6.33277e-24)
(0.904446 0.157905 6.94293e-22)
(1.19685 0.233063 1.791e-20)
(0.991935 -0.00060483 -2.53333e-23)
(0.93633 -0.0167364 -2.71617e-22)
(1.05367 -0.0557931 7.47534e-22)
(1.15446 0.0187257 -2.02742e-21)
(1.20991 -0.172703 -3.00462e-21)
(0.831385 0.114066 1.36112e-20)
(1.36744 0.0552462 -1.91564e-22)
(1.30436 -0.128074 -2.04534e-21)
(1.1366 0.020052 1.52371e-20)
(1.16097 -0.112821 -1.71659e-21)
(0.93341 -0.0258169 2.49827e-23)
(1.35331 -0.00620343 1.0996e-21)
(0.906647 0.167287 -8.42513e-22)
(1.33397 -0.0852692 5.22894e-21)
(0.993882 -0.000230823 -1.3046e-23)
(0.822475 0.112134 -1.33904e-20)
(1.33627 -0.0477106 3.7907e-21)
(1.28546 -0.174027 2.78295e-21)
(1.23081 -0.175193 -7.35863e-21)
(0.845219 0.133958 -1.62803e-20)
(0.885822 0.143515 3.72649e-20)
(0.953387 -0.030548 -6.53095e-23)
(0.998662 -0.0540889 -1.00022e-22)
(1.10847 -0.00815537 1.38395e-23)
(0.938851 -0.0226426 1.82702e-23)
(0.998863 -0.00010625 6.42288e-23)
(0.997729 0.149778 -4.88612e-21)
(0.975885 0.0481081 -9.78667e-21)
(0.960322 -0.0164243 -4.10782e-23)
(0.940949 -0.0427389 1.42967e-22)
(1.13325 0.259146 1.0057e-20)
(0.998529 0.0314683 1.52634e-20)
(0.998921 -5.34948e-05 -1.8703e-22)
(1.00311 0.0357267 -2.23178e-20)
(1.21516 -0.139427 1.60857e-21)
(1.01964 -0.0213083 4.11741e-22)
(1.00364 -0.079558 1.08657e-22)
(1.08797 0.152094 -1.73251e-21)
(0.884882 0.266604 1.72334e-20)
(1.20265 0.0234986 7.50864e-21)
(1.14421 0.237761 -1.62507e-20)
(0.974301 -0.0124229 2.64395e-23)
(1.00158 -0.0535031 -5.04985e-22)
(1.00011 -0.00016093 1.42347e-25)
(0.999269 -3.72462e-05 5.26326e-23)
(1.00042 -0.00971518 1.36673e-22)
(1.23493 -0.00973578 6.04526e-22)
(1.16684 -0.176322 -1.66539e-21)
(1.0902 0.223164 -2.09185e-20)
(0.99584 -0.132725 9.05318e-22)
(1.05048 0.0803304 1.2894e-20)
(0.984612 -0.0629823 -8.06395e-23)
(1.12556 -0.11866 -2.03558e-21)
(0.982028 0.160575 1.86237e-20)
(0.908049 0.0081601 6.70996e-20)
(1.08786 0.143096 2.92954e-20)
(1.01658 0.195936 -2.73918e-20)
(0.93908 -0.0416434 -1.17821e-22)
(1.31736 0.187183 -3.26552e-21)
(1.01359 -0.0718234 2.22946e-21)
(1.15866 -0.00976742 3.02348e-21)
(0.995605 -0.00893938 -4.26856e-23)
(1.2974 -0.193128 -7.50373e-21)
(1.23143 -0.111374 -3.5089e-21)
(1.1187 -0.041005 -2.07599e-22)
(0.999638 -8.49491e-05 6.40972e-24)
(0.988401 -0.00059496 -7.57715e-22)
(0.873016 0.273018 -2.65648e-20)
(1.28993 -0.00289405 5.00352e-21)
(1.01844 -0.0282504 -3.6059e-22)
(0.958311 -0.065448 -6.42833e-22)
(1.1607 -0.169905 6.64377e-22)
(1.0867 -0.237906 3.74586e-21)
(1.33866 0.205948 -6.08922e-22)
(0.987006 -0.11138 -1.01634e-21)
(0.974013 -0.00202409 4.21067e-22)
(0.992434 -0.0869765 1.14814e-21)
(0.989385 -0.0364026 -8.99191e-23)
(0.999427 -5.7925e-05 -2.59547e-24)
(0.983452 -0.0599473 4.26387e-22)
(1.05265 -0.216798 -6.07675e-22)
(0.908553 0.225636 3.42087e-20)
(1.34094 -0.0899285 -3.09338e-21)
(0.972238 -0.0291824 -2.241e-22)
(1.04541 0.0847329 -1.99807e-20)
(0.889693 0.155577 -4.4999e-21)
(0.983367 -0.0679951 8.05229e-23)
(1.00077 -0.000340709 -1.91441e-23)
(1.00212 -0.103111 -1.17618e-21)
(0.993855 0.137357 5.71698e-21)
(1.27151 -0.22486 -3.99746e-21)
(0.946719 0.0650779 -3.53003e-20)
(1.00003 -0.000170903 1.14413e-24)
(0.942757 -0.0475559 3.40103e-22)
(1.19206 0.288676 1.54795e-21)
(0.998993 0.0290954 3.05038e-20)
(1.03803 -0.101166 -4.3749e-22)
(0.972411 -0.037855 2.03905e-22)
(0.834256 0.240808 2.92421e-20)
(1.28555 -0.156747 8.55217e-22)
(1.29718 -0.128743 1.71586e-21)
(0.931368 0.216274 2.34065e-20)
(0.833552 0.131293 -2.79572e-21)
(0.981491 -0.0702661 -2.80664e-22)
(1.19171 0.297596 -1.10685e-20)
(1.2236 -0.0441733 -6.3049e-22)
(1.01024 0.072589 -3.82022e-20)
(1.17025 0.149188 8.17099e-21)
(1.00079 -0.000249364 2.47254e-23)
(1.34275 -0.0913698 3.02394e-21)
(1.22472 0.128229 3.98203e-21)
(0.996595 -0.00054512 -1.18261e-22)
(0.993608 -0.139879 -3.81871e-22)
(1.32956 -0.0742396 1.41481e-21)
(1.16684 -0.248088 -1.80004e-21)
(1.33148 -0.0500831 -1.95812e-21)
(1.24692 -0.0915498 1.57182e-21)
(1.0001 -0.000243626 -2.13605e-24)
(0.999289 -0.00406729 4.05832e-23)
(0.963301 0.261188 -3.99625e-20)
(1.00107 -0.0177473 -2.48871e-23)
(1.00734 -0.167888 -1.19362e-21)
(0.984686 -0.0913622 1.04805e-22)
(1.36264 0.0135747 7.64835e-22)
(0.970111 -0.00446611 5.64167e-23)
(1.13826 0.27693 1.15687e-20)
(1.29129 -0.0547418 -1.6617e-21)
(0.989158 -0.0875077 6.44952e-22)
(0.955161 -0.00684272 1.28058e-22)
(1.24418 0.115328 6.64575e-22)
(1.34899 0.00413261 -4.30646e-22)
(1.00006 -0.000248576 -1.74759e-24)
(0.945232 0.154482 3.43531e-20)
(1.12617 0.164258 3.79162e-21)
(0.986265 0.0287061 -8.49015e-21)
(1.27104 -0.185853 -2.6225e-21)
(0.99951 -5.48818e-05 -2.71448e-23)
(0.838488 0.230031 -1.95616e-21)
(0.995978 -0.00605528 -5.78389e-24)
(0.988829 -0.0668129 1.93845e-22)
(1.34964 -0.00409647 1.67608e-22)
(1.32946 -0.0824798 -6.13929e-22)
(0.972943 -0.070135 -5.51027e-22)
(1.28123 -0.166163 4.17223e-21)
(1.05984 0.0931961 5.20898e-21)
(0.905934 0.0100066 2.41571e-20)
(1.04676 0.222046 -2.81267e-20)
(1.27106 -0.0295376 -1.07183e-21)
(0.799996 0.0430042 3.43989e-21)
(1.00032 -1.28982e-05 -1.81875e-24)
(0.9866 -0.0356309 -8.37376e-23)
(0.999819 0.0158972 4.03316e-20)
(1.22216 -0.223914 8.19442e-22)
(1.21846 0.122195 -9.74727e-21)
(0.979802 -0.0513267 -2.82052e-22)
(1.00031 0.201996 2.78372e-20)
(1.26545 -0.0622568 -6.51526e-22)
(0.999996 -0.00447061 3.33482e-23)
(1.25739 -0.0638804 5.81308e-22)
(1.12824 0.13604 -1.89845e-20)
(1.18252 -0.227275 -5.65967e-23)
(0.94557 0.0150149 -6.45632e-21)
(1.2172 0.235912 2.44044e-21)
(0.999227 -0.000330374 1.88189e-24)
(1.04831 -0.0277933 6.03744e-22)
(1.31424 0.0930192 2.76212e-21)
(1.19536 5.38474e-06 9.20708e-21)
(0.998379 -8.23447e-05 1.96333e-22)
(1.2205 0.260628 -1.70498e-20)
(1.01454 -0.0637841 -1.95183e-22)
(0.73551 0.125916 -1.54076e-21)
(1.02443 -0.136391 -2.48856e-21)
(0.960438 -0.0147139 -4.85804e-23)
(0.989058 -0.000705672 6.00422e-22)
(1.05194 0.230606 3.09744e-20)
(1.1915 0.225505 -2.80862e-20)
(0.975097 -0.00280883 -1.67691e-22)
(1.23327 0.106525 2.31525e-21)
(0.95363 0.214037 -9.92109e-21)
(1.00113 -0.0190596 -4.86801e-23)
(1.09664 0.0126169 4.81738e-21)
(1.04997 0.0393278 -1.44112e-20)
(0.767748 0.0667625 2.27369e-20)
(0.996538 -0.00504084 -5.58154e-26)
(1.34658 0.0315885 -8.92829e-22)
(1.22334 -0.114872 1.29439e-21)
(0.938549 -0.0201756 9.62426e-24)
(0.999672 -5.83011e-05 -5.80137e-24)
(0.999646 0.00887466 2.48858e-20)
(1.35134 0.196077 2.14913e-21)
(1.32025 -0.101693 1.33444e-20)
(0.989441 0.257604 -9.97173e-21)
(1.26925 -0.0218411 3.71277e-22)
(0.96821 -0.0389859 1.5357e-22)
(1.31594 0.173894 -2.53106e-21)
(1.18309 -0.00579827 -1.0521e-21)
(1.2805 -0.000228835 2.07357e-21)
(0.773883 0.0730159 -5.93639e-20)
(1.02831 -0.119798 9.44532e-22)
(1.34623 -0.0175521 -4.35028e-22)
(0.982663 0.0400647 -2.21067e-20)
(0.956456 -0.0664991 5.70297e-22)
(1.20835 -0.0544007 1.08965e-22)
(1.07259 -0.197783 2.96407e-21)
(1.31038 0.0849534 -1.2644e-21)
(0.995008 -0.000181538 9.27351e-22)
(1.18894 0.0123223 -1.63985e-21)
(1.32388 -0.0961705 -5.46258e-21)
(1.34405 -0.0230425 -1.74077e-21)
(1.00138 -0.00577362 1.2824e-22)
(1.17993 0.00925938 1.7733e-20)
(0.995514 0.0201951 -2.10416e-20)
(1.11948 0.0930115 3.42144e-20)
(1.16868 -0.243074 -7.1809e-21)
(0.991125 -0.0343548 2.01659e-22)
(0.855598 0.12256 -1.88355e-20)
(0.878881 0.0391436 -4.85654e-20)
(0.996293 -0.00837372 -7.35686e-24)
(0.945054 -0.046524 1.36533e-22)
(1.05302 0.161449 4.14883e-21)
(1.01279 -0.176323 -9.81496e-22)
(1.11672 -0.121501 1.80043e-21)
(1.32973 0.202873 9.50447e-21)
(0.990832 -0.000460742 -7.48354e-22)
(0.763294 0.0589737 3.94508e-20)
(1.04092 -0.0906368 -1.39089e-22)
(1.34992 0.0502748 7.73773e-22)
(0.987592 -0.0117822 -7.12604e-24)
(0.992671 0.0206909 -9.02441e-21)
(1.22211 0.223916 -4.75692e-21)
(1.11984 -0.0323872 -1.17109e-22)
(1.13303 -0.132822 -1.01413e-21)
(1.30778 -0.12278 3.62881e-21)
(1.33782 -0.0426465 -4.60243e-22)
(0.999275 -0.0063401 2.13973e-24)
(1.03967 0.133609 -7.65353e-21)
(1.32522 -0.150891 8.3597e-21)
(1.2436 0.0768854 9.46289e-21)
(0.737582 0.133899 5.94298e-20)
(1.28088 -0.18432 2.15303e-21)
(1.08834 -0.108388 -2.91802e-21)
(0.999971 -0.0105593 -1.37274e-22)
(1.34812 -0.0572873 -5.08645e-21)
(1.33405 -0.0929285 -3.40113e-21)
(0.968122 -0.0296353 3.29247e-22)
(1.28537 0.218618 -1.6384e-21)
(0.99999 -0.0016407 -2.57996e-23)
(0.964722 -0.0532879 -9.88433e-23)
(1.01846 -0.0193559 -5.77429e-22)
(1.28078 -0.14927 3.29625e-22)
(0.98518 -0.0575618 3.48053e-22)
(0.999576 -0.000146826 1.7701e-24)
(0.982999 -0.0749708 1.1653e-21)
(1.35337 -0.013072 7.60039e-22)
(1.18143 -0.23681 -2.78211e-21)
(1.05972 -0.0971615 -2.3737e-22)
(0.951447 -0.0312769 -1.63897e-22)
(1.32435 -0.07067 3.98249e-21)
(1.24151 -0.0845348 -1.2488e-21)
(0.965918 -0.0694286 -2.92247e-22)
(0.947513 -0.00966831 -4.5084e-22)
(1.00096 -0.0060255 -2.04725e-23)
(1.16715 -0.127291 3.54177e-21)
(1.02684 -0.190347 -1.67535e-22)
(1.01522 -0.00397569 1.00256e-22)
(1.0427 -0.0969651 1.6214e-21)
(1.34358 0.00681938 3.38896e-22)
(1.12033 0.0854422 -2.07549e-20)
(1.29746 -0.0683472 -4.39324e-22)
(0.99921 -0.00027248 1.76065e-23)
(0.814813 0.256133 -4.35919e-20)
(1.01543 -0.00202132 3.51854e-22)
(0.999894 -0.00177508 3.08441e-23)
(1.0528 -0.0137658 -3.25797e-22)
(0.949946 -0.0471805 -2.3263e-22)
(1.0085 -0.122625 1.33712e-22)
(0.894247 0.132675 -2.18677e-20)
(1.02922 -0.0738395 1.4211e-22)
(1.21855 -0.0402259 -5.19681e-22)
(1.02201 -0.165119 2.43115e-21)
(1.01786 -0.167643 -3.06363e-21)
(1.32874 0.189869 -6.60535e-21)
(0.991449 -0.0677085 -3.46205e-22)
(0.986436 -0.106179 4.95779e-22)
(0.996188 -0.137761 9.36327e-22)
(0.999728 -4.19266e-05 1.24193e-23)
(1.21895 -0.15857 -5.20537e-21)
(0.788292 0.240605 -4.02219e-21)
(1.09047 -0.23082 1.00525e-21)
(0.946485 -0.0603351 -3.75261e-23)
(1.27594 0.209161 -1.42291e-22)
(0.974473 -0.0660815 -5.84485e-23)
(1.16514 0.139786 -6.87548e-21)
(1.36657 0.0372225 2.7429e-22)
(0.995381 -0.00647227 1.81152e-23)
(0.998703 -0.000154534 -5.22982e-23)
(1.11065 0.151701 2.3939e-21)
(0.739778 0.170601 1.92594e-20)
(1.07045 -0.228332 2.46648e-22)
(1.37248 0.092707 9.36412e-23)
(1.35479 -0.0205691 3.2887e-21)
(0.954482 -0.0535001 -1.22997e-22)
(0.954328 -0.0563585 -3.07008e-22)
(1.05829 0.168255 -1.11676e-21)
(1.14484 -0.0185323 2.74876e-22)
(1.19037 -0.241732 5.72637e-21)
(1.07816 -0.189933 -2.54995e-21)
(0.979623 -0.00165112 2.4731e-23)
(1.08416 -0.0213848 -2.79664e-22)
(0.868938 0.0619978 -8.38657e-21)
(1.2287 -0.0204237 -4.9415e-21)
(1.00031 -0.000117518 2.74064e-24)
(0.91589 0.204143 3.6902e-20)
(1.04509 -0.0866336 -1.77867e-21)
(1.01022 -0.125001 1.76177e-21)
(1.20032 0.280102 -9.42885e-21)
(1.02172 -0.0314788 -5.48501e-22)
(0.986668 -0.0111724 6.12449e-24)
(0.999218 -0.000504329 6.53212e-24)
(1.20714 -0.125062 -1.89287e-21)
(0.954983 -0.0233827 -4.60544e-23)
(1.00029 -2.18478e-05 3.14098e-24)
(1.37305 0.0884985 -3.0572e-22)
(1.27605 -0.217145 -2.7983e-21)
(1.03426 0.131244 -1.33985e-20)
(0.999354 -8.38526e-05 -9.17975e-24)
(1.0001 -0.00536828 -1.60356e-23)
(0.97295 -0.067791 -3.09364e-22)
(0.999991 -0.000152973 2.73022e-25)
(1.07121 -0.234586 -1.25756e-21)
(1.20948 -0.239812 -2.76144e-21)
(0.999384 -0.00535431 7.89199e-24)
(1.00776 -0.0980646 -5.35786e-22)
(0.937737 -0.0165562 -3.38035e-23)
(1.18206 0.251226 -1.31027e-21)
(0.982935 0.254947 8.04296e-21)
(0.995958 -0.00548693 2.10735e-24)
(1.00389 -0.00141493 3.84032e-23)
(0.99181 -0.130324 -2.31821e-21)
(0.967904 0.230052 2.67939e-20)
(1.0047 -0.0441895 5.30909e-22)
(0.949098 0.144113 -8.09443e-22)
(0.976351 -0.0139751 -2.25051e-24)
(0.741892 0.100436 -1.61174e-20)
(1.08542 0.0293097 -2.64864e-21)
(1.27148 0.0439279 -7.17853e-21)
(0.777984 0.13392 -1.73819e-20)
(1.32779 -0.141024 3.38476e-22)
(0.988955 -0.00305899 3.92008e-23)
(1.21493 -0.110603 -1.09884e-21)
(1.01041 -0.0459692 -5.50432e-23)
(0.98695 0.226481 6.5309e-21)
(1.05065 0.145174 1.79354e-20)
(0.967156 -0.00862282 -9.37283e-23)
(1.29471 -0.187038 8.50493e-21)
(1.18409 -0.0525343 -1.23779e-23)
(1.08386 -0.113904 -1.53289e-21)
(0.996115 -0.000274854 1.26385e-22)
(1.29373 -0.20255 7.41083e-21)
(1.00028 -5.77165e-05 4.22396e-24)
(1.17102 0.245713 6.2189e-21)
(0.93733 -0.0154617 2.79234e-22)
(0.986772 -0.0843863 -2.17245e-22)
(0.993479 -0.0399358 2.404e-22)
(1.00666 -0.0783626 1.98901e-21)
(1.34268 0.0512028 2.98483e-22)
(1.29831 -0.0610856 1.91046e-21)
(0.998635 -4.74574e-05 -2.05674e-22)
(1.03329 -0.0711649 -1.22742e-21)
(0.999861 -0.000194159 -1.63483e-25)
(0.749374 0.092537 1.18826e-20)
(0.880961 0.0556701 1.70933e-20)
(0.994851 -0.00104603 6.86335e-23)
(0.9655 -0.0147314 2.18273e-23)
(1.04554 -0.0528541 -6.21837e-22)
(1.05674 0.151957 7.69614e-21)
(0.929683 -0.0259794 -6.07303e-23)
(1.35501 -0.0209678 7.92584e-22)
(0.949189 -0.0619323 8.73295e-23)
(1.03443 0.223204 -5.60574e-22)
(1.28116 0.0450541 -7.14714e-22)
(0.95342 -0.0256681 -6.71597e-23)
(0.785064 0.0472325 -2.50366e-20)
(1.07385 -0.00365238 3.52198e-22)
(1.06138 0.232471 -1.6393e-20)
(0.989827 -0.0175073 3.96583e-25)
(1.02901 -0.201815 4.94318e-21)
(0.957382 0.00896299 -5.40474e-20)
(1.01819 -0.0582038 7.9929e-22)
(0.731518 0.183671 -8.79929e-21)
(1.08526 0.17288 9.44759e-22)
(0.788261 0.0537547 -5.90903e-21)
(0.989345 -0.00319576 -1.90387e-23)
(0.992858 -0.000515986 -2.90242e-22)
(1.03451 -0.128677 -5.77883e-22)
(1.23363 -0.102254 4.51579e-21)
(1.01995 -0.0311553 5.94291e-22)
(1.03396 -0.116354 -2.02148e-22)
(1.0433 0.204803 1.52504e-21)
(1.03577 0.244603 5.25829e-21)
(1.088 0.00563862 7.07488e-24)
(0.975886 0.222901 -1.92051e-20)
(0.747526 0.200892 4.76769e-21)
(1.34131 0.0978713 4.28434e-21)
(0.998491 0.00973972 -3.61857e-20)
(1.10695 0.0735015 -6.73676e-21)
(1.00637 -0.0232099 -4.65584e-22)
(1.10459 0.158397 -7.74784e-22)
(0.984348 -0.10531 -4.25656e-22)
(0.951522 -0.060484 2.29503e-22)
(0.998367 -0.00143689 -2.25627e-24)
(1.07493 -0.113202 3.64115e-21)
(1.13954 -0.214535 -7.75535e-22)
(1.1821 0.0644946 4.76528e-21)
(1.12554 -0.0159267 2.34717e-22)
(1.00504 0.0571251 2.79486e-21)
(1.01039 -0.0674375 1.3528e-21)
(1.1945 -0.0409988 3.84525e-22)
(1.00653 0.0429653 -3.17656e-21)
(1.01199 -0.0482596 9.19914e-22)
(1.12745 -0.137694 2.30244e-21)
(0.999895 -0.000225868 1.75361e-25)
(1.00053 -0.000283721 3.9091e-24)
(1.17682 0.0582394 -4.13296e-23)
(0.987686 -0.0909291 -6.24909e-22)
(0.959615 -0.0566167 3.84324e-22)
(1.0006 -0.000270857 -5.97009e-24)
(0.999962 -0.00369517 2.09494e-23)
(1.18053 -0.0582744 -9.04709e-24)
(0.999517 -5.77594e-05 1.61158e-23)
(1.3444 -0.0713253 1.14517e-22)
(0.760221 0.072976 3.1358e-20)
(1.37291 0.105085 1.11878e-22)
(1.26592 0.0813947 -4.1589e-22)
(0.963747 -0.00832019 1.76039e-22)
(1.11112 0.235301 5.52311e-21)
(1.3491 -0.0506955 2.22907e-21)
(1.0055 -0.041192 -3.2333e-23)
(0.965586 -0.0166969 5.76419e-24)
(0.996549 -0.00464422 -1.40357e-25)
(0.999165 -0.000438091 -4.97e-24)
(1.00218 -0.00617354 -4.95084e-23)
(0.994259 -0.042517 1.98857e-22)
(1.04988 -0.201574 2.95631e-21)
(1.26553 0.129309 1.106e-20)
(1.26232 -0.113932 -1.39733e-21)
(0.964275 -0.00394406 -1.40202e-23)
(0.999874 -0.000157247 5.42459e-25)
(1.00751 0.135338 1.87218e-20)
(1.32508 -0.119062 7.21661e-21)
(1.31028 -0.165868 2.38097e-21)
(1.02144 -0.0600133 -8.99455e-22)
(1.34833 -0.0359619 -1.75838e-21)
(1.07185 -0.117076 -9.28997e-22)
(0.984365 -0.000883103 1.46763e-23)
(1.00367 0.0318163 1.58332e-20)
(0.959079 0.00159651 -7.27738e-20)
(1.26642 0.275033 -9.63928e-21)
(0.990841 -0.000395594 5.07986e-22)
(1.25811 0.280237 8.10477e-21)
(0.966662 -0.00582512 -8.83558e-23)
(0.978465 -0.0618135 -4.02461e-22)
(1.3579 0.133428 -4.1125e-21)
(1.00029 -0.000143803 4.93824e-24)
(0.985026 -0.039937 -3.30112e-23)
(1.35067 0.0352709 3.98098e-22)
(1.32416 0.0947977 4.52363e-21)
(0.954459 -0.0280734 -1.23219e-24)
(1.06677 0.150051 1.22553e-21)
(0.896631 0.274556 -1.7961e-21)
(1.03396 0.0722085 -3.57479e-20)
(0.947415 -0.0483394 3.77091e-22)
(0.948615 -0.00957196 1.74189e-22)
(1.06514 -0.0925049 -5.48198e-22)
(1.18918 -0.0120827 2.04105e-22)
(1.0463 0.0324172 -8.43364e-21)
(0.994653 -0.00149097 1.88788e-23)
(0.949343 0.0215554 -2.02262e-20)
(0.988032 -0.0636637 1.0683e-21)
(1.03549 -0.201634 -3.39506e-21)
(1.21312 -0.101795 -7.75386e-22)
(0.804277 0.261192 6.19249e-20)
(1.27676 0.135824 -8.26967e-21)
(1.04278 0.147294 -1.88594e-20)
(1.22031 -0.234407 1.45472e-21)
(0.924978 0.00489577 -3.30716e-20)
(0.957177 -0.0231499 4.01841e-23)
(0.980444 -0.0594905 2.93889e-22)
(0.83936 0.0245959 1.1853e-20)
(1.11329 -0.0444086 9.96955e-23)
(1.05113 -0.187685 -5.08399e-22)
(1.06075 0.211728 -3.80274e-21)
(1.02805 0.214121 -1.21704e-20)
(0.967145 -0.0515078 -3.46046e-22)
(1.05822 0.0421152 -1.89532e-20)
(0.970429 0.241074 -3.52388e-21)
(1.02737 0.196462 1.59345e-20)
(1.15989 0.270618 4.28843e-21)
(1.05024 0.214088 2.49739e-20)
(1.16394 0.158846 -1.08145e-20)
(0.984862 -0.00387371 -1.19375e-22)
(0.958098 -0.025401 9.11864e-23)
(1.00337 -0.0100474 -2.85484e-23)
(1.01043 -0.165001 3.41817e-21)
(0.987706 0.0416489 -5.05831e-21)
(1.01743 -0.174705 1.98518e-21)
(1.3534 0.00966444 -1.38949e-24)
(1.29287 0.0125849 -2.4193e-21)
(0.960306 -0.0661252 2.92401e-22)
(1.34242 -0.0685724 -1.38825e-23)
(1.36309 0.0329855 2.47691e-22)
(0.986954 0.0154732 -1.55122e-21)
(1.33492 -0.0698069 -1.62826e-21)
(0.999437 -0.00446174 -4.75457e-24)
(1.08942 -0.020962 2.54729e-23)
(0.977494 -0.0668114 1.93339e-22)
(1.29461 -0.155077 1.18665e-22)
(1.30702 -0.159442 -5.30661e-21)
(1.02192 -0.185676 6.43551e-22)
(1.15745 0.256713 2.42603e-21)
(0.943706 0.265892 2.87635e-20)
(1.2571 -0.0902237 -1.36712e-21)
(0.995157 0.0120795 1.60626e-20)
(0.739837 0.158092 -2.16227e-20)
(0.998734 -9.54363e-05 5.01468e-23)
(1.00432 -0.00144477 -3.07661e-24)
(0.99539 -0.00718387 -7.57024e-24)
(0.967667 -0.00917477 -4.92482e-23)
(1.22824 0.146379 -7.17112e-21)
(0.837727 0.0279115 -2.56001e-20)
(1.2342 -0.0180101 4.2799e-21)
(1.12242 0.252522 3.34872e-21)
(0.974536 -0.0305234 -1.4267e-22)
(1.26753 0.237434 1.31411e-20)
(1.2703 0.260188 4.10016e-21)
(1.27501 -0.207344 1.1222e-21)
(0.95107 -0.0136001 -8.36734e-23)
(0.931656 -0.0244103 6.00184e-23)
(1.357 0.00675733 -8.41223e-23)
(1.01528 -0.0594896 3.05295e-22)
(1.26345 -0.107537 -1.64735e-21)
(0.957069 -0.0520715 6.87442e-23)
(0.932351 -0.0495912 -4.36643e-22)
(1.08003 0.215301 2.65007e-20)
(0.990652 -0.00270125 -8.21271e-23)
(1.03402 -0.0814748 -2.80642e-22)
(1.039 0.239653 1.29177e-20)
(1.33874 -0.072942 -9.66926e-21)
(0.831828 0.216445 6.88504e-21)
(1.0182 -0.118726 -9.88462e-22)
(1.09465 0.0253747 8.62777e-21)
(1.29884 -0.162103 5.4084e-21)
(0.996486 -0.0967205 2.74545e-22)
(0.95734 0.0157841 -7.31566e-21)
(0.979754 0.00100694 4.68482e-20)
(0.979799 0.0626115 -7.8658e-21)
(0.990008 -0.0450483 -4.14168e-22)
(0.863583 0.0359171 2.68896e-20)
(0.950366 -0.04427 1.82876e-22)
(0.933452 0.189758 1.07306e-21)
(1.16914 -0.107405 8.28753e-22)
(0.970064 0.115065 -4.38009e-21)
(0.973643 -0.0633832 2.41848e-22)
(1.00003 -0.00030526 -4.31829e-25)
(0.970288 0.0992248 1.47387e-20)
(0.927299 0.168582 1.75045e-20)
(0.941281 0.208485 -2.80057e-20)
(0.973731 0.0822999 -1.71553e-20)
(1.15377 0.00947831 -2.67276e-20)
(1.20606 -0.0481751 8.88716e-23)
(1.18983 0.138834 -1.94009e-20)
(1.04732 -0.181989 1.33734e-21)
(0.993588 0.0304093 5.19411e-20)
(1.06188 0.133984 -2.30523e-20)
(1.31895 -0.120214 -8.68852e-21)
(1.13017 -0.0209971 -2.76283e-22)
(0.985355 -0.00365265 -7.03371e-23)
(1.33111 -0.138532 -1.31653e-21)
(1.10028 0.218172 -4.19568e-21)
(0.935345 -0.0374862 3.49225e-24)
(0.967379 -0.00495168 3.22365e-22)
(0.986002 0.00826325 -1.04393e-20)
(0.956995 0.124679 -3.19939e-20)
(0.983375 -0.0730513 -4.89368e-22)
(0.978096 0.136109 2.29993e-20)
(1.02506 -0.196763 1.15903e-21)
(1.34498 -0.0380217 3.14789e-21)
(0.994268 -0.000284326 3.12245e-22)
(0.942448 0.134997 -1.8109e-20)
(0.925176 0.147579 4.66319e-20)
(0.773085 0.0829758 4.8273e-20)
(0.960824 0.249678 3.72306e-20)
(0.997074 -0.000348883 4.25474e-23)
(0.974618 -0.033291 9.42262e-23)
(0.998156 -0.0014731 2.03049e-23)
(0.9912 -0.101171 -2.08422e-21)
(0.838639 0.162026 -9.95887e-21)
(1.29463 0.0746691 -8.92892e-21)
(1.13271 0.232992 -2.90504e-22)
(0.933254 -0.047328 2.53641e-22)
(1.10945 0.080232 2.11321e-20)
(1.04881 -0.0517061 6.5805e-22)
(0.833907 0.189812 1.42921e-20)
(1.1134 -0.145863 -1.0533e-21)
(0.992398 0.0107028 1.78145e-20)
(0.994418 -0.000284503 1.78507e-22)
(0.862293 0.15246 -3.23708e-20)
(0.810172 0.201754 -4.01708e-20)
(0.972137 -0.0348192 -2.66622e-22)
(1.30575 -0.0266927 -2.4882e-23)
(0.868703 0.126498 -3.23264e-20)
(0.99636 -0.000543872 -2.16432e-22)
(0.808605 0.0849948 -5.33534e-21)
(1.06041 -0.102953 3.99642e-22)
(0.996628 -0.000350724 7.77746e-23)
(0.948575 -0.0151461 5.28143e-23)
(1.0646 0.242398 -1.61992e-20)
(1.30947 0.0322476 -3.17584e-21)
(1.00528 -0.138385 1.5262e-21)
(1.00165 0.246214 1.45904e-21)
(0.793793 0.229718 2.70723e-21)
(1.26258 0.251381 -1.44083e-20)
(1.07927 -0.0160254 6.38795e-23)
(0.995074 -0.0898332 4.2231e-22)
(1.20632 -0.116954 1.70437e-21)
(0.959454 0.142044 2.62744e-20)
(0.827733 0.086326 -3.05613e-21)
(0.764784 0.0788754 3.12203e-21)
(1.27962 0.0633264 1.53491e-21)
(1.00025 -0.0134431 3.34172e-23)
(0.977291 -0.00183092 -1.21116e-22)
(1.10992 0.223592 -1.48459e-20)
(1.00224 -0.0104315 2.81937e-23)
(0.9812 -0.00581232 1.93216e-24)
(1.00359 -0.0165716 -2.30237e-23)
(0.99018 -0.0391988 -2.02777e-22)
(1.10588 -0.206332 2.86213e-21)
(1.21256 -0.219112 -2.0118e-21)
(0.901191 0.206511 -4.14813e-20)
(1.02506 -0.0667261 2.66595e-23)
(0.998613 -0.00118467 -1.56627e-23)
(1.07888 0.136867 -3.96594e-22)
(1.33917 0.0619301 2.54436e-21)
(1.00202 -0.0167242 -3.91281e-23)
(1.34508 -0.0104839 1.1267e-21)
(1.0023 -0.00172363 5.60387e-24)
(1.28084 0.0253639 6.01741e-22)
(1.03513 0.0764687 2.51428e-20)
(0.971983 0.130116 -4.46241e-20)
(1.17421 -0.221079 2.24278e-21)
(1.29165 -0.0117523 -1.08248e-21)
(0.990986 -0.018011 -2.47459e-23)
(1.15494 -0.152491 4.34607e-22)
(0.994093 -0.0018989 9.10102e-24)
(0.950015 0.161898 -4.65373e-20)
(0.896637 0.200171 1.26622e-20)
(1.24105 -0.229167 2.07452e-21)
(1.20156 -0.23511 1.84643e-21)
(1.16007 -0.236364 5.80236e-21)
(1.03974 -0.119519 9.91965e-22)
(0.989424 0.236375 3.04501e-21)
(1.0443 -0.109464 6.8569e-22)
(1.13424 -0.197334 1.07596e-21)
(1.08599 -0.222678 -1.22341e-21)
(1.14868 -0.13529 -2.02458e-21)
(0.790591 0.0842171 2.61014e-20)
(1.15855 -0.255832 -1.05704e-20)
(1.32331 -0.0881344 7.10196e-22)
(0.970021 0.0359083 9.14819e-21)
(0.995306 -0.000416728 -1.7576e-22)
(1.29281 -0.0482738 -4.44924e-22)
(1.04846 -0.0988269 -1.13694e-21)
(1.08756 -0.206284 2.13605e-21)
(0.995028 -0.00109085 -1.12441e-23)
(0.999481 -0.00376196 -1.2525e-23)
(0.783621 0.109475 -4.42835e-20)
(1.12615 0.0813611 1.57047e-20)
(1.23494 -0.237262 7.08012e-21)
(1.3379 -0.116146 -2.09093e-21)
(1.15194 0.139535 -8.16353e-21)
(0.986617 0.132703 -3.50052e-21)
(1.06968 0.140877 6.87719e-21)
(1.271 -0.167721 -4.9458e-21)
(0.974383 -0.0715217 5.91469e-22)
(0.989877 -0.0609947 -2.88862e-22)
(0.979341 -0.0646454 -7.64731e-23)
(1.09792 0.136831 -2.2067e-20)
(0.96635 -0.00629797 -2.5856e-22)
(1.00146 -0.0919723 6.73325e-22)
(0.999716 -4.54447e-05 -3.99299e-24)
(0.96035 -0.025021 -1.28537e-22)
(0.997428 -0.000645442 -3.26354e-24)
(1.13096 -0.217238 2.27278e-21)
(1.04722 0.238953 -1.53195e-20)
(1.05961 -0.187576 7.88439e-22)
(0.962939 0.207269 1.78827e-21)
(0.982368 0.205024 -4.11009e-20)
(0.951704 -0.0576914 -4.86868e-23)
(0.97977 -0.0382778 3.49522e-23)