/*--------------------------------*- C++ -*----------------------------------*\
  =========                 |
  \\      /  F ield         | OpenFOAM: The Open Source CFD Toolbox
   \\    /   O peration     | Website:  https://openfoam.org
    \\  /    A nd           | Version:  7
     \\/     M anipulation  |
\*---------------------------------------------------------------------------*/
FoamFile
{
    version     2.0;
    format      ascii;
    class       volVectorField;
    location    "8";
    object      U;
}
// * * * * * * * * * * * * * * * * * * * * * * * * * * * * * * * * * * * * * //

dimensions      [0 1 -1 0 0 0 0];

internalField   nonuniform List<vector> 
7807
(
(1.05616 0.105031 1.38932e-20)
(1.0432 -0.032925 5.4833e-21)
(0.99424 0.0819769 -2.62555e-20)
(1.02747 0.05282 3.8407e-20)
(0.999313 -0.000782886 -7.93004e-23)
(0.999969 -9.60396e-06 -8.94868e-24)
(0.990382 0.0678641 -5.12777e-20)
(0.995866 -0.00151157 -1.72122e-23)
(0.999896 -0.000149154 -1.46219e-23)
(1.01937 -0.000584503 -1.87142e-21)
(0.999971 -1.09333e-05 9.86756e-24)
(1.00179 -0.00109767 -3.22366e-22)
(0.993613 -0.00198904 8.27024e-22)
(1.01409 -0.00156419 -1.2415e-20)
(1.01859 0.000424065 7.90104e-21)
(0.99308 -0.0121444 -1.59697e-21)
(1.05763 0.110251 -2.927e-20)
(0.991391 -0.00253219 -2.90417e-22)
(1.00196 -0.00746638 -1.21352e-22)
(0.987111 -0.079497 -1.22614e-21)
(1.02726 -0.00265359 -4.31306e-21)
(1.00117 -0.000529588 6.06519e-22)
(1.01408 -0.00289602 1.08784e-21)
(1.0091 0.0231024 -1.97123e-20)
(0.988508 -0.00317256 -1.33128e-21)
(1.05257 0.103446 -1.37902e-20)
(0.999314 -0.000736189 -5.72879e-23)
(1.01901 -0.000870282 4.86348e-21)
(1.00492 0.0121117 -2.55425e-21)
(1.00282 -0.00802155 1.023e-22)
(0.989616 -0.0130442 -2.96555e-21)
(0.902021 0.0292679 7.33362e-21)
(1.01325 -0.00325418 6.69445e-21)
(0.999627 -0.000320058 9.95952e-23)
(0.999917 -2.81257e-06 1.90692e-25)
(1.01802 0.000547175 2.78856e-21)
(1.00364 -0.00882385 1.18033e-22)
(0.993521 0.065502 -8.22962e-21)
(0.997371 -0.00649931 1.31878e-21)
(0.999733 -4.37141e-05 9.49931e-23)
(0.997573 -0.00665442 -1.53132e-22)
(0.99326 -0.0112168 -6.04518e-22)
(1.00896 -0.0865755 4.82187e-21)
(1.12142 -0.0364931 -6.17583e-22)
(0.99984 -6.37408e-06 3.09515e-23)
(0.999938 -1.43294e-05 -8.91907e-24)
(1.00103 -0.000459543 -3.70753e-22)
(0.996883 -0.00570736 -7.78374e-22)
(0.999948 -2.45971e-05 -7.23265e-24)
(0.990578 -0.0799208 1.76118e-21)
(1.00258 -0.000965009 3.47225e-22)
(1.01903 0.000233933 -5.06215e-21)
(0.984962 -0.00383087 -4.49036e-21)
(1.00953 -0.0247834 2.85611e-22)
(1.01751 -0.000985815 -1.6763e-21)
(0.996336 -0.00210899 -1.51348e-22)
(1.0016 -0.00719196 2.5047e-22)
(0.995854 -0.00129232 1.12663e-21)
(0.981754 -0.0157961 -5.31221e-21)
(0.999621 -0.000283862 -1.2793e-22)
(1.00003 -1.94332e-05 -1.31864e-23)
(1.00341 -0.000833523 3.88982e-22)
(1.01477 -0.000990372 -2.91067e-21)
(1.0019 -0.000963996 3.26293e-22)
(0.999261 -0.000173439 1.8279e-22)
(0.990025 -0.0135646 5.35165e-22)
(0.999927 -0.000153632 1.13331e-23)
(1.00001 -1.82038e-06 9.08211e-25)
(1.12022 0.0591463 8.05591e-21)
(0.996901 -0.00543711 -2.25899e-22)
(0.999943 -1.66321e-05 7.92234e-24)
(0.976782 -0.04759 -9.42502e-21)
(0.988992 -0.00350727 6.46131e-22)
(0.979093 -0.0046677 8.9082e-22)
(0.991753 -0.00278874 9.088e-22)
(0.971631 -0.0229858 -1.16977e-21)
(0.997064 0.0832112 4.21535e-20)
(1.02558 -0.00253837 5.47068e-21)
(1.0676 0.000605444 -1.20247e-20)
(0.963297 -0.0393301 -1.2324e-20)
(0.993899 -0.0021894 -1.26984e-21)
(0.998804 0.0403695 5.12487e-20)
(1.03056 0.00505258 1.26752e-20)
(0.978612 -0.00839389 4.08097e-21)
(0.998959 -0.00203132 -1.25851e-22)
(0.99822 -0.000255176 1.34225e-22)
(0.995594 -0.00199716 1.55522e-21)
(0.985554 -0.00427575 2.8901e-21)
(0.999483 -0.000946462 8.53429e-23)
(0.996498 -0.000555207 4.81618e-22)
(1.00503 0.0138002 1.88316e-20)
(1.14844 -0.0232536 1.21827e-21)
(0.999897 -4.61497e-05 -1.87301e-23)
(1.00151 -0.00609539 1.00013e-22)
(0.997234 -0.00083786 4.36478e-22)
(0.978686 -0.00265735 -7.11418e-21)
(0.978803 -0.047168 6.52661e-22)
(1.01071 -0.0237982 -2.83931e-23)
(0.998902 -0.00196479 4.27563e-23)
(0.999126 -0.000141518 6.13947e-23)
(0.958922 -0.0141431 3.1159e-21)
(1.06844 0.00484644 9.67826e-21)
(0.997399 -0.000951216 -1.08869e-21)
(0.999979 -5.17954e-07 -7.55571e-25)
(1.15147 -0.0132101 7.58633e-22)
(1.02373 0.0225925 -1.82423e-20)
(0.947929 0.0210113 8.48927e-21)
(0.996077 -0.00200251 -6.27194e-22)
(0.999993 -1.58414e-06 1.76183e-25)
(1.02014 -0.0101157 -2.4249e-21)
(1.03096 0.0501209 -4.46086e-20)
(1.02218 -0.0639961 -4.75505e-21)
(0.999991 -1.73662e-06 -2.68708e-25)
(1.02175 -0.0106083 -5.30726e-22)
(1.02076 0.0220783 1.917e-20)
(1.00031 -0.000446166 -2.87692e-23)
(1.05909 -0.0747396 -9.13272e-24)
(1.02412 0.0129735 -4.45189e-21)
(0.986652 -0.0373332 3.97173e-21)
(0.978804 -0.00568776 -9.25745e-22)
(0.956082 -0.0093107 -7.54514e-21)
(1.00068 0.0328497 -3.33769e-20)
(1.01403 -0.0851363 -6.65027e-21)
(1.00735 -0.00598919 2.02632e-22)
(0.957628 -0.0106266 2.97587e-21)
(0.999276 -0.00107992 1.90542e-22)
(0.990203 -0.00975977 9.74793e-22)
(1.00238 -0.00697407 -1.7325e-22)
(0.999215 -0.000131362 -4.0762e-22)
(0.989429 -0.0119162 4.80038e-23)
(1.18108 -0.0383688 -7.14328e-25)
(1.06281 -0.00122316 2.02221e-21)
(0.999539 -0.000416675 1.07867e-23)
(0.999411 -0.00097669 -1.65915e-22)
(0.977581 -0.00768913 1.21552e-21)
(1.02914 0.0431564 1.66064e-20)
(0.994618 0.0259854 5.83402e-20)
(0.999981 -2.66331e-06 -8.89305e-25)
(1.00627 -0.00232133 1.63072e-22)
(0.939728 -0.0115407 -9.53545e-21)
(0.980379 -0.00334888 -3.63794e-21)
(0.991149 -0.0517209 -5.60325e-21)
(0.97206 -0.0247417 1.58463e-21)
(0.980253 -0.00421023 -8.02048e-23)
(0.943463 0.0165617 3.28515e-20)
(1.01067 -0.0376917 -1.70438e-22)
(1.01007 0.0135812 -9.65896e-21)
(0.983679 -0.0189478 -2.71381e-21)
(0.970569 -0.00464605 1.01543e-21)
(1.00013 0.037163 -1.66254e-20)
(1.01905 0.00194226 7.06021e-21)
(1.137 -0.025468 1.16981e-21)
(0.99879 -0.00157778 -4.41729e-22)
(1.12496 0.0521697 1.6003e-21)
(1.02935 0.00461668 -1.31209e-20)
(1.00319 0.0683771 -4.2129e-20)
(0.967174 -0.0270535 4.88862e-21)
(0.993609 -0.00147362 2.78682e-22)
(0.956278 0.0543555 7.45897e-20)
(0.999951 -1.95989e-05 -6.80902e-24)
(1.0011 -0.00633808 -7.75316e-23)
(1.00998 0.0259004 1.41257e-20)
(0.999983 -1.57075e-05 4.3262e-24)
(0.998672 -0.004153 -6.09795e-22)
(0.996895 -0.00080485 -2.08911e-22)
(1.00359 0.0298012 -4.58072e-21)
(1.00212 0.0294087 1.68829e-20)
(0.949862 0.060495 2.46993e-20)
(0.998532 -0.00402373 -3.87335e-22)
(0.997556 -0.000282433 -2.34636e-22)
(1.00001 -1.13989e-06 -8.32942e-25)
(0.953334 -0.00576259 -1.30397e-20)
(1.00029 -0.000396338 3.96412e-23)
(1.04511 -0.0299461 -6.40303e-21)
(1.00637 -0.0026345 1.08244e-21)
(0.971252 -0.00547733 2.09951e-21)
(1.14304 -0.00415397 2.78598e-21)
(1.08232 0.0585456 6.52203e-22)
(0.999896 -5.04723e-05 1.02491e-23)
(0.999591 -0.000508776 -1.12606e-22)
(1.02775 0.0554145 -6.75149e-21)
(0.999952 -1.58757e-05 -3.29857e-24)
(0.999912 -9.08156e-06 4.90786e-24)
(0.990561 0.0718215 -4.25096e-20)
(1.04469 -0.0356034 2.10773e-21)
(1.01069 -0.0539206 -2.94411e-21)
(0.988293 -0.0361674 -5.62909e-21)
(0.980945 -0.00611104 2.65914e-21)
(1.00824 -0.0389668 2.74204e-22)
(0.941214 -0.00972156 5.00478e-21)
(0.999983 -1.45548e-05 -1.54184e-24)
(0.979209 -0.0441482 -2.24288e-21)
(1.08463 0.0648318 -1.50027e-20)
(0.997378 -0.00115756 1.56411e-22)
(1.00006 -4.38633e-06 -9.69755e-24)
(1.05929 0.0613343 1.44459e-21)
(0.99904 -0.00030471 4.33637e-22)
(0.99006 -0.0114972 1.56063e-21)
(1.00604 -0.0369141 9.3956e-22)
(1.00001 -2.2006e-06 -3.71691e-25)
(1.00064 -0.00160576 -1.65052e-22)
(1.02627 0.0429602 2.02701e-20)
(1.07271 0.0694234 -1.87168e-20)
(0.999593 0.0600656 -5.64022e-21)
(1.05565 -0.0695175 1.25176e-21)
(1.02501 -0.0609331 1.15968e-21)
(1.09783 -0.100934 -4.24712e-22)
(1.0185 -0.00292064 1.43625e-20)
(1.02393 0.0418089 -6.60988e-21)
(0.999831 -1.61804e-05 -3.61392e-23)
(1.00003 -1.57301e-05 3.48894e-24)
(0.960811 0.00841404 -3.28853e-20)
(0.994313 -0.0107742 -5.65665e-22)
(0.999524 -0.000377705 -1.07917e-22)
(0.981115 -0.043364 4.61855e-21)
(0.989729 -0.0102902 -1.13411e-21)
(1.0107 0.0630047 -4.78092e-20)
(1.00759 0.061085 -1.01294e-20)
(0.988759 -0.0531321 1.56824e-21)
(0.920422 0.0409059 -2.7867e-20)
(0.999109 -0.000355051 -3.18283e-22)
(0.99144 -0.00214052 1.03657e-21)
(0.957277 -0.0129219 4.11241e-21)
(1.02661 0.00105147 -3.05266e-21)
(1.01308 -0.107749 -6.75277e-22)
(1.07371 0.104211 -3.04909e-20)
(0.956332 0.0478105 -6.39094e-20)
(1.00005 -8.75538e-05 1.08259e-23)
(1.00726 -0.00587481 5.38585e-22)
(1.02229 0.0152014 2.39972e-20)
(0.997007 -0.00480677 -1.01294e-21)
(1.02598 0.013517 -3.05764e-21)
(0.999581 -0.00101695 -2.75468e-23)
(0.932769 0.0682798 4.97409e-20)
(1.00362 0.062975 9.13261e-21)
(0.995604 -0.00170256 9.88944e-22)
(1.00314 -0.00669593 -2.39276e-23)
(0.999748 -6.16971e-05 -1.76958e-22)
(1.10281 0.083075 7.93401e-21)
(0.999922 -1.20405e-05 1.45904e-23)
(0.995818 -0.00895697 4.57209e-22)
(0.948055 -0.0257133 5.60446e-21)
(0.999942 -2.04933e-05 -3.28557e-24)
(0.999068 -0.0023395 -1.09213e-22)
(0.999676 -0.000997711 5.01507e-23)
(1.05293 0.0362474 1.82751e-20)
(0.999984 -1.99138e-05 5.21955e-24)
(0.996354 -0.000432005 5.37214e-25)
(0.965258 -0.0389956 1.42828e-20)
(0.902873 0.0217475 -1.61486e-20)
(1.06221 -0.00499175 -2.71409e-21)
(0.941225 0.0458623 3.79584e-20)
(0.999964 -8.20162e-06 -8.20646e-24)
(1.00419 -0.0375497 -9.76903e-23)
(0.999854 -0.00025027 -4.05493e-23)
(0.99909 0.0701074 -4.19838e-20)
(1.0029 -0.000537162 -5.01237e-22)
(0.992622 0.0267127 1.91362e-20)
(1.00248 -0.00834566 -4.86196e-22)
(1.00056 -0.00160528 1.7781e-22)
(1.02448 -0.0278606 -1.5513e-21)
(1.01835 -0.00159493 -1.33044e-20)
(1.00044 -0.000268238 8.21421e-23)
(0.999819 -4.58931e-05 9.51269e-25)
(1.00038 -0.00036499 1.85547e-22)
(0.996832 -0.00508394 -8.93663e-22)
(1.01634 -0.0560341 2.99647e-21)
(0.999965 -1.10644e-05 5.54916e-24)
(0.968526 -0.0259138 3.41272e-21)
(0.997047 -0.000949979 -3.92906e-23)
(0.999882 -4.08121e-05 1.98795e-23)
(0.999526 -0.000467085 3.51851e-23)
(0.988536 0.0424546 4.61613e-20)
(0.993553 -0.00069602 4.06446e-22)
(0.999404 -0.000105877 -3.66125e-23)
(0.924849 0.00980398 6.18763e-20)
(0.998962 -0.00227448 -2.46938e-22)
(1.04686 0.0790503 -1.63122e-20)
(0.999838 -0.000235997 7.3235e-23)
(1.00687 -0.0189142 2.9072e-22)
(1.00002 -7.43757e-07 -3.06511e-25)
(0.985993 -0.030206 -2.32081e-21)
(1.02643 0.00145847 4.69341e-21)
(1.14507 0.00398181 -7.26119e-21)
(0.981964 -0.0169756 4.48903e-21)
(0.999685 -0.000522372 1.3066e-22)
(0.985582 -0.06777 2.87785e-21)
(0.986444 -0.000385281 1.89314e-21)
(0.999851 -2.12581e-05 2.02321e-24)
(1.00035 -0.000311255 -1.64252e-22)
(0.998344 -0.00289834 3.37146e-22)
(0.993823 -0.00121831 -1.21206e-21)
(1.00257 -0.000726406 -5.95016e-22)
(0.999018 -0.00164667 1.58628e-22)
(0.979733 -0.00781212 6.39139e-22)
(1.02017 -0.0537602 -2.27571e-21)
(0.979863 -0.00654359 2.85071e-21)
(1.11551 -0.0296966 2.41462e-22)
(0.973033 -0.00732963 -3.65877e-21)
(1.01189 0.0818585 4.76956e-21)
(1.00863 0.0840137 -3.52572e-20)
(0.998823 -0.000645201 -2.76167e-22)
(1.16502 0.00170866 7.25946e-21)
(0.999986 -3.12038e-06 -5.10061e-25)
(0.998323 -0.00355832 -4.04927e-22)
(0.97817 -0.0018527 7.31195e-21)
(1.00696 0.0200458 1.17608e-20)
(1.03285 0.00794129 -1.21974e-20)
(1.00008 -3.28969e-05 2.21011e-23)
(0.99835 -0.00339519 -2.65942e-23)
(0.974037 -0.00810295 2.75731e-21)
(1.04141 0.0316409 -7.1634e-21)
(0.999224 -0.00101095 1.42823e-22)
(1.00268 -0.000743322 3.34421e-22)
(1.001 -0.00079465 -3.00673e-23)
(1.10231 0.0188071 1.20024e-20)
(1.1803 -0.0495669 -7.62392e-22)
(1.02649 0.0990721 2.31153e-20)
(0.998737 -0.000173723 -2.71665e-22)
(1.05281 -0.0342143 -5.41575e-21)
(0.999909 -5.80488e-05 -1.62816e-23)
(1.00401 -0.00599102 -1.17379e-21)
(0.999956 -1.06603e-05 -2.3429e-24)
(0.988142 -0.0181566 7.61449e-22)
(0.999725 -6.19388e-05 -3.38805e-23)
(1.01036 -0.0180392 2.87367e-22)
(1.18629 0.00313004 -5.3819e-21)
(0.978031 -0.0242099 5.32825e-21)
(1.00773 -0.0183911 -1.77182e-22)
(1.00676 -0.00515059 -7.03693e-22)
(0.999414 -0.000134975 1.64087e-22)
(1.0222 -0.0148418 1.72702e-21)
(0.997385 -0.0158692 6.61535e-22)
(1.06365 0.00900972 -5.45816e-21)
(1.04874 0.0348287 8.28079e-21)
(1.14122 -0.112943 -9.55502e-23)
(1.11894 -0.0442228 7.6101e-22)
(0.985877 -0.000812821 -2.02869e-21)
(1.0041 -0.00297551 1.07598e-21)
(0.95006 -0.0243487 -2.16856e-21)
(0.943631 0.0599957 -7.67173e-20)
(1.10145 -0.0447708 -2.60498e-21)
(1.0216 -0.00870749 -6.49703e-21)
(0.926716 0.0440099 -3.7985e-20)
(0.998764 -0.000113986 1.3402e-22)
(0.998606 -0.000806796 -8.52717e-23)
(1.13396 -0.034145 1.18773e-21)
(0.999133 -0.00172472 -8.56322e-23)
(1.01082 -0.0350765 1.6297e-22)
(1.00476 -0.00165346 3.77248e-22)
(0.997683 -0.000369961 -2.08642e-22)
(0.998287 -0.000327841 -3.3184e-22)
(1.0254 0.0202987 1.4059e-20)
(0.999945 -0.00012869 -1.17256e-24)
(1.00041 -0.000203149 -7.3132e-23)
(1.00007 -1.44837e-05 1.65641e-23)
(0.997187 -0.000606321 1.12598e-21)
(0.994866 -0.00768757 1.25222e-21)
(0.999986 -2.92284e-06 3.93651e-25)
(0.999132 -0.000214468 3.49003e-23)
(0.982617 -0.0149563 1.58449e-21)
(0.960236 0.0123486 2.046e-20)
(1.00939 -0.0191497 -2.23795e-22)
(0.994337 -0.00999951 2.00167e-21)
(0.969772 0.0472716 8.88388e-21)
(1.0009 0.0322216 3.00245e-20)
(1.05452 -0.000795831 -4.42401e-21)
(1.15716 0.00696594 -2.96957e-21)
(0.95218 -0.00426732 7.11562e-21)
(1.00412 -0.00334302 -5.31788e-22)
(1.00687 0.03331 -1.6536e-21)
(0.990649 -0.00196922 -2.47752e-21)
(1.03098 0.0778479 7.52386e-22)
(1.00806 -0.041987 1.37911e-23)
(1.0316 -0.0963325 -2.1041e-21)
(1.06896 0.0668353 1.14687e-20)
(1.03281 0.0824702 -2.05689e-20)
(0.969735 -0.022343 7.65974e-21)
(1.03454 0.0065377 -8.00773e-21)
(1.07758 0.108199 2.86863e-20)
(1.04207 0.0793208 3.03217e-20)
(1.01891 -0.0018762 4.55923e-21)
(0.997556 -0.00124912 2.46313e-22)
(0.996577 -0.00191632 2.15288e-22)
(0.999927 -1.72718e-05 -7.79776e-24)
(1.01428 -0.0233244 4.04701e-22)
(0.990401 -0.00165342 5.83715e-22)
(1.00083 -0.00205451 -1.45889e-22)
(0.999912 -2.06225e-05 -1.44611e-23)
(0.998669 -0.000605252 1.07503e-22)
(0.983296 -0.0668568 -4.71923e-21)
(1.08883 0.0287372 5.11643e-21)
(0.985428 -0.00521735 -3.23759e-21)
(0.999532 -0.0106154 6.91021e-22)
(0.99691 -0.00057517 -5.99934e-22)
(1.0508 -0.0360628 1.97428e-22)
(0.994122 -0.0013061 -1.95301e-21)
(1.002 -0.00609499 4.60408e-22)
(1.08892 0.103857 4.58262e-21)
(0.998479 -0.000294375 -7.76015e-22)
(0.999983 -3.7809e-05 -3.61297e-24)
(0.999956 -0.00015396 -1.98345e-24)
(1.00004 -9.09385e-05 1.41783e-23)
(0.98182 -0.00682423 1.48782e-21)
(1.02399 0.0177807 -1.67102e-20)
(0.996703 -0.000443317 2.31421e-23)
(1.01853 -0.00755973 4.18873e-21)
(1.01946 -0.112334 4.45139e-21)
(0.994953 0.0610421 -8.46948e-22)
(1.0034 -0.00635529 3.91757e-22)
(1.00565 -0.00371047 -1.74426e-22)
(0.995862 -0.00218474 -7.857e-22)
(0.993361 0.0429331 -4.5247e-20)
(0.999151 -8.17573e-05 1.11043e-22)
(1.02941 0.102397 -1.18086e-20)
(1.00852 0.0139897 -1.85334e-20)
(0.999905 -2.56432e-05 1.69265e-23)
(1.00646 -0.0428086 -1.88801e-21)
(0.997315 -0.000698796 -5.54152e-22)
(0.9941 -0.052316 6.83926e-21)
(1.00044 -9.9375e-05 7.31382e-23)
(1.05026 0.00178334 6.15503e-21)
(1.00616 -0.0134897 -1.81593e-23)
(1.00518 -0.00318086 8.98443e-23)
(0.999309 -0.000132489 -2.19753e-22)
(1.05821 0.0340056 9.06565e-21)
(1.03754 0.0305547 2.8297e-21)
(1.00874 -0.0563076 3.03791e-21)
(0.98336 -0.017469 -3.05789e-22)
(0.998243 -0.00309339 -2.9125e-22)
(1.00108 -0.0338927 -3.50349e-21)
(1.1205 0.0439416 -1.07475e-20)
(0.907556 0.0341793 -3.5466e-20)
(1.07126 -0.0650582 -8.60512e-22)
(1.00426 -0.00653999 -1.88966e-22)
(0.999994 -1.52503e-06 -1.37039e-25)
(0.988919 -0.0042373 -2.5831e-21)
(0.998148 -0.000313727 7.15897e-22)
(1.02162 -0.0141147 2.5178e-21)
(1.00601 -0.0907598 -2.0728e-21)
(1.16332 -0.00978325 -2.16275e-21)
(0.987189 0.0578964 -5.59215e-20)
(1.04485 0.0289479 1.1977e-20)
(1.09985 -0.091096 2.11955e-21)
(1.05921 0.0667607 4.79855e-21)
(0.998942 0.0320001 5.38167e-20)
(1.01646 -0.00243827 3.39892e-21)
(1.00097 -0.00193789 3.33076e-22)
(1.0192 0.0455945 1.00981e-20)
(0.999302 -0.00171144 1.9113e-22)
(0.999853 -0.000136417 1.5959e-23)
(0.984691 -0.00182035 9.1196e-22)
(1.00008 -2.96276e-05 4.15063e-24)
(1.10557 -0.108273 1.59476e-21)
(1.00352 -0.0150342 -4.27541e-23)
(0.987928 -0.0296645 3.86218e-21)
(1.00152 -0.00136595 1.66964e-22)
(1.05455 0.0584765 2.51161e-20)
(0.998535 -0.000267242 -6.41717e-23)
(0.99998 -3.00756e-05 -3.57325e-25)
(1.02587 -0.100363 2.38081e-21)
(1.00135 -0.00108561 -9.71238e-23)
(1.08785 -0.00482023 -1.3321e-21)
(0.961051 -0.0132432 1.44464e-21)
(0.942751 -0.0161012 7.47572e-22)
(1.17037 0.0446091 -9.11517e-22)
(1.0205 0.0138508 -6.26783e-21)
(1.01757 0.00374487 3.86506e-21)
(1.01644 0.00349579 -1.57695e-21)
(0.999833 -3.78766e-05 5.64994e-24)
(1.09549 0.0281644 4.08357e-21)
(1.06396 0.0120582 6.36035e-21)
(0.999595 -0.000539031 5.13806e-23)
(0.986103 -0.00565226 3.76175e-21)
(1.00051 -0.000167586 -8.13932e-23)
(1.01022 -0.0165231 -2.05476e-21)
(1.00818 -0.0235803 1.88004e-27)
(1.00377 -0.00118943 4.24162e-24)
(0.999394 -0.0010839 -2.31088e-22)
(1.10187 0.0763676 -2.42241e-20)
(0.999982 -1.87874e-05 -6.05784e-24)
(1.00017 -8.42653e-05 -2.15531e-23)
(1.00173 -0.000832477 -6.65844e-24)
(0.980959 -0.00292332 2.53525e-21)
(1.01564 -0.00903826 3.00521e-21)
(0.986981 -0.0249788 -5.57979e-21)
(0.976492 -0.00451624 -1.47366e-21)
(1.01345 -0.0531871 1.64528e-21)
(1.0354 -0.120333 -4.63075e-21)
(1.02292 -0.0250762 9.63215e-22)
(1.02335 0.0461787 -5.80883e-20)
(1.17787 0.0089994 2.99361e-21)
(0.994608 -0.00218057 -1.03487e-22)
(0.929371 0.0638782 5.89641e-20)
(0.98096 -0.0487738 8.12261e-21)
(0.994693 -0.00818831 3.94292e-22)
(0.977039 -0.00372579 2.43759e-21)
(0.998508 -0.0154124 -1.95904e-22)
(0.982171 -0.00217859 3.86903e-21)
(0.9917 -0.00338241 -7.48451e-22)
(1.02235 -0.0111819 -4.57708e-21)
(1.10843 -0.0479592 6.69331e-22)
(0.999979 -3.63318e-05 -5.00092e-25)
(1.01886 -0.0103885 -4.89146e-22)
(0.999919 -2.5434e-05 -8.21808e-24)
(1.00681 0.0705897 1.13177e-20)
(1.12155 0.0647723 1.85962e-20)
(0.99605 -0.00166167 2.45887e-22)
(0.988182 -0.00155486 -3.43794e-21)
(0.999844 -4.60075e-05 -4.13045e-23)
(0.996926 0.0392128 3.40522e-20)
(1.02271 0.0809528 2.7008e-20)
(1.09754 0.0206144 -6.50988e-21)
(1.10736 0.099127 -2.04732e-20)
(0.980992 -0.051856 -3.41234e-21)
(0.998941 0.0129364 -5.00722e-20)
(0.999949 -0.000109929 7.5964e-24)
(1.04036 -0.0216578 6.66346e-21)
(0.984403 -0.00138766 -1.43661e-22)
(1.07592 0.0564198 -5.48619e-21)
(0.948894 0.0439077 -4.63356e-20)
(1.12383 0.0377971 1.43315e-20)
(1.0408 0.0242587 2.0268e-21)
(1.00014 -0.0104911 -9.79743e-23)
(0.999839 -6.99509e-05 -3.80601e-23)
(1.10928 0.0857982 8.52454e-21)
(1.16959 -0.0304947 -4.85851e-22)
(0.996005 0.0436901 -1.13042e-21)
(1.08139 -0.00603336 1.19566e-20)
(1.02598 0.0380625 1.71034e-20)
(0.994248 -0.00195602 -3.47337e-22)
(0.992634 0.0580885 1.52937e-20)
(1.02617 0.0770979 9.61904e-21)
(0.992685 -0.00282076 -2.09756e-21)
(0.993869 -0.00265373 -7.77457e-22)
(1.1193 0.0776752 4.49173e-22)
(0.940512 -0.0149378 -1.00335e-20)
(0.99993 -0.000129034 -1.17809e-23)
(0.989469 -0.00457067 3.32252e-21)
(0.945402 -0.0209087 7.31669e-21)
(0.992243 -0.0651567 -1.00669e-21)
(1.00778 -0.00232484 -2.993e-21)
(1.0064 -0.00467296 2.00266e-22)
(0.999897 -0.000158919 -2.2126e-23)
(1.02409 0.0856112 -4.06249e-20)
(1.0005 -0.00918313 1.63476e-23)
(0.999915 -4.87517e-05 7.26199e-24)
(1.01974 -0.0495034 1.26743e-21)
(0.999598 -0.000354091 4.53152e-23)
(0.999819 -6.56355e-05 2.88975e-24)
(1.00449 -0.0100388 -2.28091e-22)
(1.04576 0.0576254 3.36745e-20)
(1.01878 -0.0894704 3.34641e-21)
(0.962577 0.044244 2.7419e-20)
(1.00006 -1.13815e-05 -1.15532e-23)
(1.04955 0.0611458 -3.52972e-20)
(1.01334 -0.0425619 1.22039e-21)
(0.99994 -0.000153538 -3.35445e-24)
(1.00002 -4.52736e-06 -3.5901e-24)
(1.0031 0.00923898 -3.08385e-21)
(1.04188 0.049773 1.24859e-20)
(0.996834 -0.00202417 2.14153e-22)
(1.03892 0.0385046 -1.61054e-20)
(1.00002 -1.59027e-05 2.5926e-24)
(1.0393 0.0427315 -2.24895e-20)
(1.12772 -0.113733 3.09099e-21)
(0.992269 -0.00252026 2.30799e-21)
(0.999407 0.019957 -6.8972e-20)
(0.981301 -0.0407543 5.40159e-21)
(1.11103 0.0940506 2.03078e-20)
(0.978129 -0.00379733 1.46174e-21)
(1.04257 0.0451875 2.92549e-20)
(1.04606 0.0524611 -9.01571e-21)
(0.986803 -0.00694179 5.39956e-21)
(0.982645 -0.00854142 -3.99705e-21)
(0.996055 -0.00817036 1.15164e-21)
(0.997733 -0.000597973 -1.81519e-22)
(0.999844 -0.000155636 4.39323e-23)
(1.00039 -0.00867305 -2.87893e-23)
(1.03428 0.0733534 -4.85526e-21)
(0.999977 -2.84452e-05 1.53662e-24)
(1.0349 0.0368836 2.13178e-20)
(1.03064 -0.0892152 4.78242e-21)
(1.00413 0.0432055 1.35026e-20)
(1.03493 0.03334 -2.41818e-20)
(0.943092 -0.0196113 -8.98351e-22)
(0.967216 0.0564505 -5.77646e-20)
(0.998745 -0.00093906 1.54312e-23)
(1.01389 -0.0214654 9.367e-22)
(1.04609 -0.0640173 8.4899e-22)
(0.982974 -0.00201803 -2.26817e-22)
(0.99494 -0.00276242 1.03443e-21)
(1.01119 -0.0439496 -1.15325e-21)
(1.04507 -0.0147795 -6.95228e-22)
(0.934542 0.0393457 7.23378e-20)
(1.00004 -1.73291e-05 1.2588e-23)
(0.998526 -0.00100624 2.07207e-22)
(1.01831 -0.0632641 4.53097e-23)
(1.00001 -3.86738e-06 4.40287e-25)
(1.00686 0.0756555 5.56133e-21)
(1.00131 -0.00094313 0)
(1.00001 -4.48151e-06 3.32348e-25)
(1.00014 -6.94927e-05 5.04673e-23)
(1.00034 -8.35368e-05 1.02509e-24)
(0.98842 -0.0168771 3.85606e-21)
(1.0181 -0.0137099 -1.82283e-21)
(0.998807 -0.000711462 3.25276e-22)
(0.999935 -1.24369e-05 1.54124e-23)
(0.994575 -0.00259365 5.74908e-22)
(1.00376 -0.010508 -1.77674e-22)
(0.996792 -0.0964323 -5.67858e-21)
(0.947929 -0.00660087 7.22458e-22)
(1.01496 -0.00803234 5.1748e-21)
(0.999978 -2.18016e-06 4.76634e-24)
(1.0871 -0.129047 5.43391e-21)
(0.989659 -0.00315331 -1.33154e-21)
(1.10779 0.0700023 -1.5141e-21)
(1.00039 0.0194684 -9.8683e-21)
(1.00098 -0.00293552 7.92094e-23)
(1.09755 0.060846 -2.29382e-20)
(1.00012 -7.8164e-05 -1.05197e-26)
(0.990172 -0.00355274 3.88271e-23)
(1.01876 0.000743434 -8.08083e-21)
(0.994948 -0.00312583 -4.2379e-22)
(1.04673 0.0685465 -1.99603e-21)
(0.990078 -0.00555685 -2.50332e-21)
(1.04135 -0.0201974 -5.57008e-21)
(1.01992 0.00221076 -8.66991e-21)
(1.04894 0.0313206 -5.1785e-21)
(1.00631 -0.0124455 -8.83622e-22)
(0.992143 -0.0036274 6.21793e-23)
(1.06461 0.0582518 1.61427e-20)
(0.986523 -0.0717245 -5.29659e-21)
(0.998127 0.0740708 4.62403e-20)
(0.993066 -0.00405225 -2.42307e-21)
(1.04854 0.0892489 -1.63904e-22)
(0.993064 -0.00357072 6.47226e-22)
(0.999108 -0.000423538 -2.12084e-23)
(1.03996 0.0223784 5.61139e-21)
(1.01288 -0.0246312 -3.01676e-22)
(1.02834 0.00264168 1.24026e-20)
(1.00131 -0.000715727 1.07983e-22)
(1.00001 -3.11489e-06 1.53476e-25)
(1.00774 -0.109995 2.01598e-21)
(1.08743 0.0982679 -2.61632e-20)
(1.00121 -0.00284418 -1.0405e-22)
(1.1051 0.0623976 2.32914e-21)
(0.99062 -0.00516928 -1.63425e-21)
(1.07945 -0.134493 -1.64092e-21)
(1.03876 -0.0331758 2.42515e-22)
(0.986763 -0.0265706 3.12668e-21)
(0.998706 -0.000828846 -1.37065e-22)
(0.993238 -0.000888279 -4.87593e-22)
(0.981152 -0.0614112 -3.32662e-21)
(0.976412 -0.0082316 5.5753e-21)
(0.992615 -0.00333444 1.71625e-21)
(0.999888 -0.000359577 1.92254e-23)
(0.992612 0.0781561 -5.60213e-21)
(1.09484 0.0539707 1.41503e-20)
(1.02016 -0.00833276 -1.57899e-21)
(0.999847 -0.000120163 2.91203e-23)
(1.02457 0.0727436 -1.83237e-20)
(1 -1.93341e-05 6.75468e-25)
(0.999857 -0.000105242 5.75581e-23)
(1.08752 0.0527527 1.19248e-20)
(1.00941 -0.0204221 6.5499e-22)
(1.09573 0.0888875 2.21055e-20)
(1.01883 -0.00296487 3.45611e-21)
(1.01407 -0.0102932 -3.80683e-22)
(1.07935 -0.0535099 -2.23945e-22)
(1.04901 -0.110524 4.45139e-21)
(1.17015 0.037722 -3.98133e-21)
(1.00098 -0.000702682 -2.35524e-22)
(0.962661 -0.0144175 -5.75207e-22)
(0.999986 -4.65847e-05 -1.05494e-24)
(1.00426 -0.00935679 1.58097e-22)
(1.04981 0.0662633 1.26601e-20)
(0.987494 -0.00649015 3.76512e-21)
(0.997877 -0.00120886 2.88189e-22)
(1.01334 -0.0337179 -4.22036e-22)
(0.99851 -0.000890378 1.97232e-23)
(0.9997 -0.000882238 5.9621e-23)
(0.929262 0.00902067 1.27935e-20)
(0.992653 -0.00437508 -1.37331e-21)
(0.999613 -0.000602207 -1.78104e-22)
(0.999985 -7.61973e-07 -1.00962e-24)
(1.01421 0.00476437 1.67613e-20)
(0.978709 -0.022544 -8.41327e-22)
(0.999751 -0.000456029 5.22377e-23)
(0.997878 -0.000696271 3.70524e-22)
(1.01914 0.015945 6.79455e-21)
(1.05479 0.0083747 1.34681e-21)
(0.969528 -0.02039 -4.74494e-21)
(1 -1.20944e-05 2.47997e-25)
(1.00185 0.0133358 4.41811e-20)
(0.989588 -0.0147136 -2.65135e-21)
(1.05466 0.0532861 -2.52874e-20)
(1.01012 -0.001269 -4.50617e-21)
(1.01158 -0.00099586 1.02489e-20)
(0.975029 -0.0102405 7.602e-21)
(0.999926 -5.38274e-05 -4.75016e-24)
(1.01896 -7.16989e-05 -1.53848e-21)
(1.05838 0.00614664 -2.06487e-21)
(1.14984 0.0427781 1.05513e-20)
(1.0359 -0.0847452 8.17165e-22)
(1.03184 0.0691511 1.47192e-20)
(1.00483 -0.00129364 -7.1466e-23)
(1.06991 0.0615263 -2.21977e-20)
(1.0004 -0.0121535 -1.8219e-22)
(1.01644 -0.047693 -2.95418e-21)
(0.999702 -0.000135141 -5.73117e-23)
(1.00299 -0.0158809 7.40527e-23)
(0.999921 -0.000351839 7.10142e-24)
(1.03648 0.025996 -1.63204e-20)
(1.06263 0.0968675 -4.51062e-20)
(0.998867 -0.000981535 1.0937e-22)
(1.01471 -0.0101248 1.31737e-22)
(0.986329 -0.00393816 1.29515e-21)
(1.03901 -0.0737534 2.12222e-22)
(1.03441 -0.0784176 -2.39581e-21)
(0.9986 -0.000702184 2.17406e-22)
(1.03711 -0.0218391 -2.36949e-21)
(0.936577 0.00232589 -2.16699e-20)
(1.14593 0.0266052 8.10844e-21)
(0.999958 -0.00013285 1.61626e-23)
(1.05083 0.00607361 -4.96123e-21)
(0.997857 -0.00745498 -5.47297e-22)
(0.993196 0.00255685 4.71384e-20)
(0.990626 -0.00453387 2.27823e-21)
(0.997447 -0.022404 -6.2382e-22)
(1.0152 -0.0297095 -1.00046e-22)
(0.996176 -0.0232151 -1.07862e-22)
(0.999277 -0.0179593 -1.33574e-21)
(0.994218 -0.00283252 3.95878e-22)
(0.999738 -0.0120325 7.43057e-22)
(1.0016 -0.00523922 -1.21967e-22)
(1.04644 -0.0180808 1.5207e-21)
(1.00008 -2.67936e-05 -3.22107e-23)
(1.16348 -0.0840938 -1.51228e-22)
(1.13146 -0.00752342 2.17923e-21)
(1.01515 0.0831744 3.28274e-20)
(0.971069 -0.0192558 7.22966e-21)
(1.08859 0.0848938 -1.1181e-20)
(1.00151 -0.000576338 3.79915e-22)
(1.05929 -0.0626887 -1.10477e-22)
(1.00484 -0.0321767 -1.26617e-21)
(1.01684 0.0278577 1.90885e-20)
(0.994629 -0.00339005 9.80539e-22)
(1.00009 -0.000148415 2.12771e-23)
(0.990133 -0.0152638 3.4572e-21)
(0.996753 -0.00796046 -4.36327e-22)
(1.0346 -0.0203582 4.57129e-21)
(0.97764 -0.00626203 -4.70802e-21)
(0.981699 -0.00798066 1.31629e-21)
(1.10537 -0.0296715 1.53675e-21)
(0.988509 -0.00251548 -2.2391e-21)
(1.01317 -0.031229 1.52644e-22)
(0.993618 -0.0690205 3.66245e-21)
(1.00001 -6.63899e-06 2.71309e-25)
(1.04695 -0.0115226 8.05337e-21)
(0.994953 -0.0619565 -9.92053e-21)
(1.09397 0.0733748 1.0887e-20)
(1.07968 -0.0596771 -3.53341e-23)
(1.02703 0.00216899 1.05918e-21)
(1.02453 -0.0863096 -6.55552e-21)
(1.03134 0.0914979 9.09003e-21)
(1.02931 -0.0293519 1.99663e-21)
(0.973878 -0.0094785 -4.49837e-21)
(1.01332 -0.0395026 -1.23559e-21)
(0.967499 0.00377296 2.08865e-20)
(1.13072 -0.0857285 -2.41135e-23)
(0.99008 -0.00421311 -6.91714e-22)
(1.02636 -0.108162 -5.13908e-22)
(1.02361 -0.0557086 1.70544e-21)
(1.0387 -0.0993526 -1.04397e-21)
(1.03695 -0.0681684 -1.9782e-21)
(1.06429 0.0528325 2.03864e-20)
(0.99789 -0.00137619 1.91785e-23)
(1.00588 0.0324726 7.04343e-21)
(1.0062 -0.00118733 5.37906e-22)
(0.999699 -0.000456313 -7.48869e-23)
(0.999054 -0.00196647 5.24764e-22)
(1.04703 0.00107756 -1.9435e-21)
(0.90155 0.00317625 6.14431e-22)
(1.00133 -0.00553625 7.12396e-23)
(1.01637 -0.04429 4.39896e-22)
(1.01903 0.0177689 -1.12992e-20)
(1.00002 -6.60959e-06 -6.40534e-25)
(0.983527 -0.00801849 3.18535e-21)
(1.0178 -0.00768945 3.72373e-21)
(1.06209 -0.0336504 3.92907e-21)
(1.00621 -0.000820294 3.01207e-21)
(0.998775 -0.0016537 9.74033e-23)
(0.987976 -0.0338652 1.25385e-22)
(0.998373 -0.00720052 -1.45457e-22)
(1.00002 -4.07905e-06 6.90445e-24)
(0.983116 -0.0399074 -9.07315e-21)
(1.03941 0.0644558 -5.26509e-21)
(1.0166 -0.0261222 2.15228e-22)
(0.986958 -0.00444193 -2.43751e-21)
(1.00141 -0.000291532 -1.36936e-22)
(1.02158 0.020046 1.49162e-20)
(0.99971 -0.000527159 -3.45475e-23)
(0.999044 -0.000551627 -1.09018e-23)
(0.999727 -0.000150324 -5.23956e-23)
(0.999429 -0.00181499 -1.3135e-22)
(1.13837 0.0438393 8.11618e-21)
(1.02402 -0.030094 3.0183e-21)
(1.00682 -0.0155367 3.45655e-22)
(0.98605 -0.00652882 -1.11087e-21)
(1.00003 -4.35687e-05 6.69461e-24)
(1.06493 -0.105447 5.33699e-21)
(1.17207 -0.0169649 2.29123e-22)
(1.07001 -0.113978 -2.59584e-21)
(0.998447 -0.02847 -1.15157e-21)
(1.01083 -0.00748189 3.45502e-21)
(0.999839 -8.35639e-05 2.40583e-23)
(0.991162 -0.00998837 -1.38243e-21)
(0.967331 -0.0411611 -5.58252e-21)
(1.13641 0.0287013 4.11628e-22)
(1.00265 0.0425063 -4.85965e-22)
(0.999134 -0.00274446 1.05487e-22)
(0.955347 -0.0292119 3.27659e-21)
(0.996378 -0.00240489 -9.33525e-22)
(1.02757 -0.0272354 -5.21772e-22)
(1.07443 0.050276 2.28501e-21)
(1.00036 -0.000115605 -1.13436e-22)
(0.999884 -0.000175489 -8.86028e-24)
(1.11755 0.0831768 2.47823e-21)
(1.13146 0.012677 -1.45861e-21)
(1.01547 -0.0128838 1.30469e-21)
(0.997755 -0.00151065 4.91741e-22)
(0.998407 -0.000372899 -4.87475e-23)
(0.97317 -0.0416877 1.35595e-21)
(0.99987 -0.000301382 -2.95254e-23)
(1.01483 -0.0275517 9.97204e-22)
(0.989566 -0.00126286 4.66486e-21)
(1.00063 0.0212069 -8.16864e-21)
(1.04254 0.0683685 -2.68299e-21)
(1.05499 -0.0579196 2.09043e-23)
(0.998304 -0.062227 3.72779e-21)
(1.00488 -0.00133868 1.50771e-21)
(1.01205 -0.0205682 -1.41565e-21)
(1.1241 -0.00128783 7.30605e-21)
(0.998029 -0.0693222 -2.27099e-21)
(1.01578 -0.0379017 6.55321e-22)
(0.999999 -5.92796e-06 1.16809e-25)
(1.11257 -0.0138892 4.85555e-21)
(0.979352 -0.00256824 4.38466e-22)
(0.997505 -0.0771387 4.56243e-21)
(1.01612 -0.0241039 -2.42223e-21)
(0.964443 -0.0136288 -1.02069e-21)
(0.999699 -0.000268985 -2.55969e-23)
(0.997701 -0.00113754 -2.19109e-22)
(1.0316 0.0316522 1.86472e-20)
(0.976324 -0.00958789 -1.71164e-21)
(0.999987 -1.41297e-06 1.06204e-24)
(0.99781 -0.000452188 -5.11238e-22)
(1.12869 -0.0731366 -2.54218e-21)