/*--------------------------------*- C++ -*----------------------------------*\
  =========                 |
  \\      /  F ield         | OpenFOAM: The Open Source CFD Toolbox
   \\    /   O peration     | Website:  https://openfoam.org
    \\  /    A nd           | Version:  7
     \\/     M anipulation  |
\*---------------------------------------------------------------------------*/
FoamFile
{
    version     2.0;
    format      ascii;
    class       volVectorField;
    location    "18";
    object      U;
}
// * * * * * * * * * * * * * * * * * * * * * * * * * * * * * * * * * * * * * //

dimensions      [0 1 -1 0 0 0 0];

internalField   nonuniform List<vector> 
30084
(
(1.00983 -0.011892 5.28748e-23)
(1.00812 0.00339426 2.00534e-22)
(0.991454 -0.0031726 -3.18359e-22)
(0.973451 -0.0506838 1.055e-22)
(0.997769 -4.79121e-05 4.44883e-23)
(0.958359 -0.031773 -1.60379e-22)
(1.06469 -0.0626459 7.41786e-23)
(1.01328 -0.0178447 -5.59076e-24)
(1.00183 -0.00175335 7.12779e-24)
(1.00017 -4.47956e-05 1.86087e-24)
(1.01551 -0.0238849 1.68535e-24)
(0.998541 -0.0152798 -1.04222e-22)
(0.999564 -0.000178261 6.05625e-24)
(0.999972 -9.71193e-06 1.68086e-25)
(1.09667 0.0871413 6.9952e-22)
(0.994427 -0.00182409 4.83584e-23)
(0.999856 -0.000775024 -2.68176e-24)
(1.10802 0.0194819 -6.33076e-23)
(0.998059 -0.00165393 -1.5153e-23)
(0.989829 -0.000770306 -7.11658e-23)
(0.999217 -0.000250199 -2.07127e-23)
(1.00172 -0.00175166 2.49757e-23)
(0.991371 -0.00335761 3.51797e-22)
(0.998046 -0.000156808 1.95951e-23)
(0.917309 0.0834601 7.79061e-23)
(1.00885 0.00268643 1.0775e-21)
(0.999529 -5.34833e-05 1.38052e-23)
(0.957121 0.069747 -5.35105e-21)
(1.09976 0.0882092 -1.82944e-21)
(0.999422 -0.00830629 -2.01177e-23)
(1.01378 -0.00933549 3.60779e-23)
(1.0317 -0.00410485 -2.62165e-22)
(0.993961 -0.119467 1.03839e-21)
(0.999167 -0.0212113 5.08793e-23)
(0.955575 0.0664841 4.29601e-21)
(1.00505 -0.0298173 1.26221e-22)
(1.04957 0.0410707 -3.62636e-22)
(0.973959 -0.0280926 4.24221e-22)
(1.00478 -0.000729662 -9.627e-23)
(1.00461 -0.000509791 1.82723e-22)
(1.00039 -0.000150217 -5.7459e-24)
(0.990871 -0.0291282 -3.84609e-22)
(0.999873 -0.000752986 -3.6293e-26)
(1.03272 -0.0632914 -4.50875e-22)
(1.00003 -5.00189e-06 -3.64071e-25)
(0.999604 -0.0084191 1.5391e-23)
(0.997988 -0.0113476 -2.994e-23)
(1.00007 -7.70795e-05 9.44421e-25)
(1.00302 -0.00326888 -1.01766e-22)
(1.04982 0.0390459 -1.49297e-22)
(1.12184 -0.0529082 3.82151e-23)
(0.976337 -0.0441756 -4.83786e-22)
(1.03144 -0.00338368 9.17272e-23)
(0.959783 -0.0314202 -2.62293e-22)
(0.994566 -0.00187199 -4.24947e-23)
(1.10442 0.0829962 -1.13984e-21)
(0.996924 -0.0020738 1.5003e-23)
(0.999195 -0.000276044 2.6236e-23)
(1.0008 -0.0198594 -6.77836e-23)
(1.01521 -0.0532819 -2.2878e-22)
(0.99994 -6.6091e-06 3.93135e-25)
(0.998127 -0.00169326 -3.12031e-24)
(1.16956 0.0711786 3.85127e-22)
(1.00531 -0.0290705 -6.75799e-23)
(1.039 0.0836558 2.79543e-21)
(0.934636 0.0230764 1.05243e-20)
(1.00035 -0.0251779 -1.3419e-22)
(0.993608 -0.0129564 1.42123e-22)
(0.950746 0.0147123 4.2362e-21)
(1.00041 -0.000142235 3.71767e-24)
(1.0101 0.00326931 -1.46925e-21)
(0.988852 0.0585331 3.01775e-21)
(1.00306 -0.00812534 -4.19607e-23)
(0.932458 0.0959989 2.92499e-21)
(0.992583 -0.000596851 2.24397e-22)
(1.10669 -0.0191656 1.09811e-22)
(1.12032 0.127207 2.56754e-21)
(0.974453 -0.0158653 1.02111e-22)
(0.999955 -2.03117e-05 -1.11787e-24)
(1.00713 -0.0445555 -2.34918e-22)
(0.959039 -0.00073736 -1.75455e-22)
(1.01639 0.0321586 8.43879e-22)
(1.01006 -0.0124066 -1.59109e-22)
(1 -5.65974e-05 8.94563e-26)
(1.06644 -0.060159 -1.00075e-22)
(1.23879 -0.0520383 -4.95806e-22)
(1.02256 0.0722402 -5.11058e-21)
(0.999546 -0.000175688 -5.48248e-24)
(0.999577 -0.000158811 -1.60645e-24)
(0.93663 -0.042188 -7.08585e-22)
(0.99799 -0.0502931 4.95337e-22)
(0.97438 -0.0166246 1.14653e-22)
(1.00284 -0.00338255 1.74783e-23)
(1.04999 -0.00374076 -1.6196e-22)
(0.929199 -0.0181342 -5.90867e-22)
(1.02755 0.0862949 2.57887e-21)
(1.0024 -0.0654365 8.00098e-22)
(1.00043 -0.000349053 9.31214e-24)
(0.975761 -0.0638388 -9.35562e-22)
(1.08863 0.0998128 3.00904e-21)
(0.999953 -1.99338e-05 1.63563e-24)
(0.975561 -0.0102988 -6.11441e-22)
(0.999942 -8.12367e-06 -2.02906e-25)
(1.04112 -0.0131154 -8.25669e-22)
(0.974931 -0.0441429 3.24207e-22)
(1.0292 0.0118612 1.56072e-21)
(1.00106 0.0563199 4.67413e-21)
(0.999594 -0.000160753 -1.35964e-23)
(0.999996 -6.28842e-05 -2.29039e-26)
(1.01002 -0.111021 -4.68332e-23)
(0.991302 -0.118469 -9.34554e-22)
(1.04142 -0.0321622 9.39695e-23)
(1.00001 -1.71214e-06 6.43558e-26)
(0.999036 -0.00561731 -5.43096e-23)
(0.999907 -0.00199631 2.11154e-24)
(0.990908 0.0599675 1.22307e-23)
(1.02984 0.0467824 -1.82752e-21)
(0.989202 -0.0068719 -2.41936e-22)
(1.00002 -6.19658e-05 8.74398e-26)
(1.00335 -0.00802921 -3.16811e-23)
(1.21992 0.0450676 -5.67154e-22)
(1.00549 0.0103898 2.34344e-21)
(1.15512 -0.0102927 4.43329e-22)
(0.933333 0.0282239 -9.98472e-21)
(1.00099 -0.000322745 -2.35692e-23)
(1.13971 0.00275589 -2.17121e-22)
(1.1056 0.0217149 -3.46038e-22)
(1.0191 -0.0505771 1.55643e-22)
(1.00361 -0.00309613 -9.0388e-23)
(1.00002 -0.000398529 1.67715e-25)
(1.03193 -0.0614161 1.58997e-22)
(1.12301 0.125271 1.44119e-21)
(0.998811 0.103153 5.80667e-21)
(1.16644 -0.0216551 4.52976e-23)
(1.03976 -0.0130766 6.97653e-22)
(1.01339 -0.00898171 6.82212e-22)
(1.04085 0.13111 4.31687e-22)
(0.97429 -0.000759556 9.02528e-22)
(1.17158 -0.157335 2.24811e-21)
(1.09045 0.0969444 -2.27222e-21)
(1.13703 0.00580405 2.49164e-22)
(0.942426 -0.00525451 -7.57211e-22)
(0.954508 -0.0446994 2.15357e-22)
(1.00001 -1.51759e-06 -2.73335e-26)
(0.99999 -2.97853e-06 8.86834e-26)
(0.997711 -7.91549e-05 -3.52196e-23)
(0.99815 -0.0111101 6.12378e-23)
(0.992373 -0.0890407 -6.99985e-22)
(1.15491 -0.108468 8.04446e-22)
(1.16163 0.106732 1.74652e-21)
(1.0276 -0.0149843 3.61887e-22)
(1.0166 -0.016807 1.21951e-22)
(1.00039 -0.000564918 1.43682e-23)
(0.999881 -0.000201177 1.55929e-24)
(1.00149 0.0235872 -4.9904e-21)
(1.00049 -0.00138842 1.67566e-24)
(0.994066 -0.0105171 1.504e-25)
(1.0491 0.13312 -1.29792e-21)
(1.00379 0.0392072 -5.26783e-21)
(1.12338 -0.0486589 -3.5612e-24)
(0.961034 -0.0027863 3.04314e-22)
(0.974355 -0.049539 7.42099e-22)
(1.10346 0.0862877 2.98303e-22)
(0.999955 -4.16434e-05 3.53281e-25)
(0.999989 -2.86181e-06 -3.33469e-26)
(0.98916 -0.00722539 8.57641e-23)
(0.955688 -0.0436951 -1.16076e-21)
(1.00005 -0.00020455 -9.21468e-25)
(1 -6.00718e-05 2.87192e-26)
(0.993843 -0.00475011 -2.81445e-23)
(1.00003 -0.000386666 -1.37222e-25)
(1.00519 -0.00527264 -5.09053e-23)
(1.04653 0.13497 1.53397e-21)
(0.974677 -0.00039592 -7.43453e-22)
(1.05688 -0.101755 -2.23107e-22)
(0.995393 -9.06517e-05 1.43849e-22)
(1.00191 -0.00242633 5.32037e-24)
(0.974869 -0.010139 1.03433e-21)
(0.999306 -0.00559986 -4.8622e-24)
(1.1548 -0.000374785 -4.72015e-22)
(0.99998 -9.04037e-06 5.48623e-25)
(1.01414 -0.0343476 -5.00886e-23)
(1.024 0.0737992 1.83096e-21)
(0.993857 -0.0120196 -8.4746e-24)
(1.16361 -0.155671 -2.08248e-21)
(1.02354 0.0397734 -1.60239e-21)
(0.994264 -0.00261551 -2.08355e-22)
(0.983476 -0.0146836 2.64373e-22)
(1.00342 -0.0031133 1.37792e-22)
(0.999455 -0.00773693 -2.92665e-23)
(0.999749 -6.77245e-06 1.57019e-24)
(1.00596 -0.0159976 3.09037e-23)
(0.929661 0.0141221 4.15969e-21)
(1.00106 0.020011 3.84072e-21)
(0.986822 -0.00585179 6.8962e-24)
(0.994338 -0.01035 -8.8894e-23)
(0.982694 0.0322247 -4.01101e-21)
(1.01089 0.0253437 7.24151e-22)
(0.930765 -0.0179053 7.19376e-22)
(1.00103 -0.000436417 -1.84523e-23)
(1.08207 -0.0779906 2.32268e-22)
(0.97726 -0.0853872 9.54808e-22)
(0.998809 -0.015582 5.00257e-23)
(1.00076 -0.000953503 -2.93961e-23)
(1.04244 0.133728 6.33156e-22)
(0.994044 -0.00475874 -1.8963e-23)
(1.00603 -0.00471104 -5.66911e-23)
(0.990469 -0.0887545 9.28256e-22)
(1.01076 -0.113945 1.19436e-22)
(0.999967 -4.66128e-06 1.33288e-25)
(0.980496 0.0834394 -5.02432e-21)
(0.999072 -2.12536e-05 -3.4111e-25)
(1 -4.8382e-05 2.62949e-26)
(0.999511 -0.000186973 2.33731e-24)
(1.00084 -0.0502214 -1.79687e-22)
(1.15591 0.0786743 -1.42869e-21)
(1.01494 -0.0335385 1.37916e-23)
(1.00584 -0.00440255 -3.89123e-23)
(0.998067 -0.000216632 4.85965e-23)
(0.932166 -0.0199456 -1.3081e-22)
(1.00003 -0.00042401 -2.19056e-25)
(1.00044 -0.00141686 1.76152e-25)
(0.997917 -0.000183461 -3.20878e-23)
(1.02286 0.00116291 1.44313e-21)
(0.99765 -0.00357634 -1.00198e-23)
(0.99905 -0.00522054 1.61518e-23)
(1.02308 -0.000967689 7.28446e-22)
(1.00011 -0.000346861 1.43971e-24)
(1.00003 -4.246e-06 9.47786e-26)
(1.0044 -0.000524825 1.97902e-23)
(0.978184 -0.0318059 -3.79659e-22)
(0.977538 -0.00039059 -3.57165e-22)
(0.995678 -0.000344397 -1.53229e-22)
(1.0109 0.00256496 1.21736e-21)
(0.985542 -0.00107458 1.68635e-22)
(1.01675 -0.016224 -1.16128e-22)
(0.999971 -1.08421e-05 4.74267e-25)
(0.997362 -0.00236156 -5.78304e-23)
(1.00071 -0.000945727 3.17898e-23)
(1.08048 -0.0746174 2.21959e-22)
(1.0858 -0.176228 1.825e-21)
(0.998762 -0.000111867 2.52662e-23)
(1.00041 -0.000502743 -1.1069e-23)
(0.998961 -0.00509565 -5.54451e-24)
(1.00323 -0.00716386 -7.75654e-23)
(0.990038 -0.000568052 -3.01666e-22)
(0.999957 -3.95765e-05 -2.2705e-26)
(1.23129 -0.0515058 -9.45718e-22)
(1.00004 -0.000433851 2.53395e-25)
(1.02254 0.001055 -1.01616e-21)
(0.997022 -0.0020773 -3.02351e-23)
(1.00013 -0.000335876 6.07372e-25)
(1.02833 0.0120813 -9.92464e-22)
(0.971534 -0.082199 -1.0123e-21)
(1.00023 -3.80719e-05 6.1149e-24)
(1 -1.10594e-05 1.65391e-26)
(0.942249 -0.00376252 -8.63334e-22)
(1.06435 -0.16469 -2.72321e-22)
(0.992258 -0.00760911 -2.24975e-23)
(1.01841 -0.0518908 -4.26095e-23)
(1.0284 -0.0154876 -5.94134e-23)
(1.02815 0.0723719 2.23188e-22)
(1.00007 -7.27786e-05 2.61123e-25)
(0.978608 -0.03109 3.59543e-22)
(1.19238 0.0178737 -4.25134e-22)
(0.969256 0.0451102 9.96654e-23)
(0.99377 -0.0117533 6.67233e-23)
(1.02284 0.0384867 1.94412e-21)
(1.10574 -0.0161089 8.44699e-23)
(0.9999 -0.00219673 -2.12481e-24)
(0.866445 0.0409125 6.13283e-21)
(0.999514 -0.000393173 -1.57635e-23)
(1.05692 -0.105362 -3.10252e-22)
(0.933365 -0.0198978 8.76695e-22)
(1.00203 -0.00229226 -2.91903e-23)
(1.15258 0.0422887 9.40298e-22)
(0.992198 -0.000866132 -1.79022e-22)
(1.00023 0.110825 4.01229e-21)
(0.996868 -0.000240625 1.39246e-23)
(0.984017 -0.0158164 -1.37985e-23)
(0.999824 -0.00199638 -1.31275e-23)
(1.07316 0.115217 6.69588e-22)
(1.00055 -0.0156944 1.19648e-23)
(1.02528 0.0865184 1.55724e-22)
(0.999542 -4.09743e-05 -6.05031e-24)
(0.994711 -0.00173254 -6.69054e-23)
(0.96838 0.101056 -2.55296e-21)
(1.027 0.0011102 -1.22093e-21)
(1.02291 -0.000649642 8.45008e-22)
(0.974027 -0.0408708 9.0727e-22)
(0.999863 -2.95598e-05 1.59204e-24)
(1.00313 -0.00691189 -8.94819e-24)
(0.999854 -0.000847314 -4.79146e-24)
(1 -4.58229e-05 2.21098e-26)
(1.04713 0.00861589 3.61755e-22)
(1.00004 -4.77503e-06 9.72424e-27)
(0.981681 -0.0141028 6.27568e-22)
(1.19102 0.013634 3.57405e-22)
(0.915654 0.0872748 -6.10341e-21)
(1.00101 0.10354 -8.93702e-21)
(0.974018 -0.0703891 3.10656e-22)
(0.98826 -0.0285254 2.16288e-22)
(0.978667 -0.00149523 1.7003e-22)
(1.03337 -0.0306962 2.82208e-22)
(1.00647 -0.0157474 -5.02324e-23)
(0.983387 -0.0153901 -3.65118e-22)
(0.975522 -0.0773269 1.3604e-22)
(1.02672 0.073939 -3.46685e-21)
(0.999506 0.017029 6.56528e-21)
(0.998844 -0.000136319 1.3936e-23)
(1.00213 0.0569773 -6.45186e-21)
(1.0466 0.00729023 1.29689e-22)
(1.15765 -0.00563384 -1.21085e-22)
(1.01265 -0.0136676 5.46674e-23)
(1.00142 -0.0143899 -5.08508e-23)
(1.02518 -0.0461581 -7.64106e-23)
(0.995098 -0.00167255 -1.57805e-22)
(0.997586 -0.000600164 -1.02685e-23)
(0.999946 -6.4529e-06 2.07783e-24)
(0.999311 -0.00793212 4.33284e-23)
(1.0894 -0.0238429 5.21279e-23)
(1.07291 0.118269 -1.09653e-21)
(1.00146 -0.00124057 1.37523e-23)
(0.974927 -0.026247 -5.04853e-22)
(1.01434 -0.0138433 -1.73761e-22)
(0.999965 -1.50016e-05 -1.81419e-25)
(0.974707 -0.0737144 -4.92398e-22)
(0.896154 0.0688503 -2.73002e-21)
(0.994356 -0.0044656 2.3383e-22)
(0.999039 -0.00417033 1.46223e-23)
(1.01315 -0.0134686 -3.38201e-23)
(1.00668 -0.0432284 2.98061e-22)
(1.06687 0.0345169 4.69697e-22)
(0.999715 -0.00898709 -7.32769e-24)
(0.999971 -4.81388e-05 1.17054e-24)
(1.00001 -2.39402e-06 3.20231e-26)
(0.997554 -0.000546585 -1.14146e-23)
(0.966911 0.100339 3.69167e-21)
(1.04631 -0.0211823 1.92431e-22)
(1.09103 -0.172794 -4.77651e-22)
(1 -1.10907e-05 9.92221e-28)
(1.06239 -0.169893 1.86916e-22)
(1.06846 0.00678445 -5.86414e-22)
(0.995281 -0.000151491 -7.24038e-23)
(0.935785 -0.00721349 -1.06446e-21)
(0.999115 -0.00409635 -1.45791e-23)
(0.999604 -0.000179892 -9.92541e-25)
(0.979111 -0.0280439 -1.08106e-22)
(1.00084 -0.00104492 -1.42184e-23)
(1.15686 0.00395243 4.6453e-22)
(1.00825 -0.000967482 -4.02419e-22)
(1.12478 0.107505 -1.21935e-21)
(0.99993 -0.00216755 2.75927e-24)
(1.00429 -0.0126017 1.61064e-23)
(1.00533 0.00920062 -3.17748e-21)
(1.21457 0.0426736 3.06839e-22)
(1.00038 -0.000531481 -8.4501e-24)
(1.0004 -0.000471324 8.30334e-25)
(0.992286 0.071013 3.15723e-22)
(0.999226 -0.0511133 -9.98333e-23)
(0.999553 -0.00885759 8.89192e-24)
(1.00991 0.0280737 3.79433e-22)
(0.976596 0.0162206 7.82313e-21)
(1.12384 -0.0565789 -1.13352e-22)
(1.00028 -0.024278 -4.20704e-23)
(1.15222 0.0777272 1.42083e-21)
(0.999301 -6.68233e-05 -1.04513e-23)
(0.99196 -0.00397897 6.34718e-23)
(0.996933 -0.000252125 -3.92992e-23)
(1.01208 0.0241847 4.93049e-24)
(0.99999 -0.000695967 2.6595e-25)
(1.00798 -0.00117409 4.11243e-22)
(1.17404 -0.0880896 2.77139e-23)
(0.997394 0.0976939 8.94815e-21)
(0.934959 0.098966 -1.35678e-21)
(0.994441 -0.00260656 8.14441e-24)
(0.992018 -0.00743862 6.76541e-23)
(1.03686 0.0854475 -2.23511e-21)
(1.0159 -0.0549821 3.28373e-22)
(0.999947 -7.62913e-06 -2.02685e-24)
(1.14451 0.116849 2.779e-21)
(1.02223 0.00158624 -4.30975e-22)
(1.02179 0.00155474 -2.90162e-22)
(0.994965 -0.0127448 -9.50003e-23)
(1.0165 -0.0016962 -6.20636e-22)
(0.960565 0.0900815 1.24286e-21)
(1.15323 -0.120421 -2.63471e-22)
(0.982034 0.089397 1.34572e-21)
(0.992234 0.0888948 -2.31819e-21)
(0.999997 -6.018e-05 7.20993e-26)
(1.08646 -0.0237099 -1.58788e-22)
(1.15164 -0.114831 1.67465e-22)
(0.997538 -0.0036095 2.63821e-23)
(1.0015 -0.00133449 -2.26787e-23)
(0.972715 0.0187235 1.86946e-21)
(1.04797 -0.0216135 -2.52074e-22)
(1.00026 -6.96393e-05 1.38905e-24)
(0.986238 -0.0605338 -1.06153e-21)
(0.976698 -0.0878298 -4.4998e-22)
(0.994828 -0.00178044 9.40349e-23)
(0.999889 -0.000195321 -1.95931e-24)
(1.03092 0.101043 -3.88898e-22)
(1.02988 0.0452055 3.08771e-21)
(1.00005 -0.000474376 -7.828e-26)
(1.00376 -0.00333565 1.77678e-23)
(1.00481 -0.00331832 9.60528e-23)
(1.19406 -0.0364341 4.61032e-22)
(0.973999 -0.039754 -8.04864e-22)
(1.00006 -0.000562448 -6.41907e-25)
(0.999986 -1.85637e-06 -5.06757e-26)
(1.00046 -0.000155484 2.19155e-24)
(1.06538 0.0351052 -4.65705e-23)
(0.973889 -0.0270949 -4.06363e-22)
(1.0017 0.0419969 1.49149e-21)
(0.947463 -0.0498723 5.38339e-22)
(0.989033 -0.0283361 -2.26156e-22)
(0.976871 -0.0011707 -7.16088e-22)
(1.01115 0.0270998 -1.86664e-21)
(1.16543 0.0679499 7.395e-23)
(0.99888 -0.000144962 2.55249e-23)
(1.00724 -0.00534252 -1.02743e-22)
(1.00078 -0.0010351 1.61191e-23)
(0.981031 0.0977759 -3.48859e-21)
(0.975836 -0.0244524 2.16862e-22)
(1.001 -0.000262528 -7.70877e-24)
(0.992936 -0.00353094 -8.51631e-23)
(1.1386 0.0114723 4.95845e-22)
(0.999824 -0.00965282 -1.85704e-23)
(0.989265 -0.0123859 -4.67468e-23)
(1.00022 -0.000133384 -4.24057e-24)
(1.00022 -5.02847e-05 -1.8752e-25)
(0.893493 0.0737521 4.28745e-21)
(0.992254 -0.00128962 -1.11508e-22)
(0.995541 -0.0045884 9.50781e-23)
(0.999655 -0.001768 -1.15544e-23)
(0.999318 -5.08152e-05 -1.43182e-24)
(1.03307 0.071413 -1.17901e-21)
(1.17987 -0.0863135 4.61066e-23)
(0.988037 -0.0430923 1.3366e-22)
(1.00002 -1.94198e-06 -3.25527e-26)
(1 -3.67769e-05 2.0204e-26)
(0.974856 -0.0253812 5.71992e-22)
(0.993617 -0.00187737 2.26111e-23)
(0.99514 -0.00212994 -1.28934e-23)
(1.01314 -0.00467414 1.95524e-22)
(1.00536 -0.00223236 3.44394e-23)
(1.00083 -0.0160584 -2.0806e-23)
(1.11083 0.00676512 8.1759e-22)
(0.982122 -0.0044875 -1.42827e-22)
(0.983457 0.0877516 -1.09477e-21)
(1.01472 -0.0239908 -5.64369e-23)
(1.00023 -0.000133902 4.71488e-24)
(0.972959 -0.069172 4.68007e-23)
(0.985822 -0.0382354 -4.72759e-22)
(1.14381 0.0417134 6.01155e-22)
(0.997358 -0.00595799 -2.79158e-23)
(0.992655 -0.0503564 -1.6016e-22)
(0.99998 -5.32257e-06 3.02303e-25)
(0.94398 0.0722407 -4.24497e-21)
(1.01392 -0.00193017 3.51472e-22)
(1.00008 -0.000227968 -1.4709e-24)
(0.929613 0.0193351 -5.36003e-21)
(0.987002 -0.0434023 3.12771e-22)
(0.999979 -6.19794e-06 4.80573e-26)
(1.00136 -0.0012149 6.69206e-24)
(0.973484 -0.0723372 -2.75373e-22)
(1.03976 -0.0312147 9.34453e-23)
(1.04416 -0.00723856 4.62478e-22)
(0.999991 -3.15115e-06 7.13881e-26)
(0.992216 -0.000656713 8.89506e-23)
(1.02581 -0.0449699 1.03889e-22)
(0.994972 -0.00163249 1.30252e-22)
(0.999561 -4.71962e-05 -3.27656e-23)
(0.992122 -0.00410731 1.89184e-24)
(0.980006 0.0331864 4.66778e-22)
(0.993466 -0.012586 -1.192e-22)
(0.989728 -0.0121137 3.43988e-23)
(1.00184 0.0266615 -1.53531e-21)
(0.997413 -0.00222997 3.03079e-23)
(0.977021 0.0990346 -4.4809e-22)
(0.999978 -6.22804e-06 -1.53873e-25)
(0.991143 -0.0283715 8.96223e-23)
(0.989408 -0.0842409 1.04684e-21)
(0.993748 -0.0505768 2.68848e-22)
(1.19372 0.00156384 -3.40897e-23)
(0.998942 -0.00545967 3.64277e-23)
(1.01004 -0.0228698 2.9636e-23)
(0.999933 -0.00233385 6.03381e-25)
(0.984086 -0.0224035 -2.73536e-22)
(1.04169 -0.0340111 3.82455e-23)
(0.999966 -1.4346e-05 9.18916e-25)
(1.00002 -1.10346e-06 -5.64153e-26)
(0.993935 -0.000418728 6.01941e-23)
(0.983033 0.0621843 3.09889e-21)
(1.01288 -0.0185273 2.18315e-22)
(1.00246 -0.00341578 -2.8363e-23)
(0.931833 -0.0374604 7.63512e-22)
(1 -9.92615e-06 2.34697e-27)
(1.00093 -0.00113987 -2.58162e-23)
(0.999967 -0.000663741 -3.69055e-25)
(1.01412 -0.0176216 2.36597e-22)
(0.98397 -0.0165206 4.84335e-23)
(0.999637 -0.000279574 4.1275e-24)
(0.993857 -0.0112153 4.42766e-23)
(0.988088 -0.00719128 -5.0793e-23)
(1.00096 -0.000157104 -2.1218e-24)
(0.999978 -7.22314e-06 -9.61447e-26)
(1.1825 0.0366069 5.86091e-22)
(0.999691 -0.00173897 1.23697e-23)
(1.06736 0.00220869 4.51603e-22)
(1.00808 0.0960918 8.76666e-21)
(1.03369 0.0840793 -2.03675e-21)
(1.00138 -0.0203219 -7.89512e-23)
(1.00524 -0.00201732 -1.14075e-23)
(1.01677 -0.00134316 3.79889e-22)
(0.99998 -0.00238607 -6.8252e-25)
(0.998097 -0.010339 4.37823e-23)
(1 -1.66995e-05 3.04737e-26)
(0.990263 0.0890943 -1.74973e-22)
(0.988529 -0.0163608 6.61477e-23)
(1.01286 -0.00430092 -1.39473e-22)
(0.982542 -0.00465388 2.92184e-22)
(1.00383 -0.0124134 1.48831e-24)
(0.997521 -0.0058584 6.05436e-23)
(0.9999 -0.000200089 4.57154e-25)
(1.00002 -1.01145e-06 -3.00855e-25)
(0.995696 -0.0045674 -6.91685e-23)
(1.05044 -0.00509375 -2.6112e-22)
(1.00402 0.0407101 2.38073e-22)
(1.00116 -0.000466668 -3.13435e-23)
(0.977582 -0.0637456 -2.41334e-22)
(0.97573 -0.0237241 -9.8167e-23)
(0.992408 -0.000516992 -3.33307e-22)
(1.1592 0.103626 -1.10655e-21)
(0.998764 -0.000954829 -1.51763e-23)
(1.00397 -0.0140573 -4.72924e-23)
(0.994759 -0.00280571 6.53218e-23)
(0.999909 -0.000192858 3.86948e-25)
(0.974114 -0.075773 3.09869e-22)
(1.00187 0.037881 -2.33806e-21)
(1.02376 0.0353328 -2.0156e-21)
(0.977898 -0.0157536 -4.72803e-23)
(1.00135 0.0364462 -1.06695e-22)
(1.00008 -0.000213992 2.84172e-24)
(1.00002 -1.43944e-06 9.35042e-26)
(1.14337 0.114118 -1.044e-21)
(1.14878 0.0441683 -6.08564e-22)
(0.932288 0.0737739 -2.11046e-22)
(1.00893 -0.085569 7.30334e-22)
(0.977128 -0.00161427 -2.21239e-22)
(1.13517 0.0150084 -6.90099e-22)
(1.00111 -0.000488388 3.54934e-23)
(0.994576 -0.00378296 3.74643e-23)
(1.00044 -0.000165656 -2.09272e-24)
(0.989611 -0.00073052 -7.34898e-23)
(0.988799 -0.013353 -9.72865e-23)
(0.999996 -3.29252e-05 -1.99565e-25)
(0.999154 -3.29171e-05 5.97059e-24)
(0.997177 0.0956009 -8.14328e-21)
(0.999878 -0.000689516 4.37189e-24)
(0.949976 0.0665838 5.11615e-21)
(1 -1.58588e-05 -2.29806e-26)
(1.19408 0.0724927 8.83247e-22)
(1.06779 0.000620293 -9.6125e-22)
(1.10962 0.00898727 -9.06078e-22)
(1.00099 -0.000465455 2.12822e-24)
(1.00018 -4.11297e-05 3.76e-24)
(0.986375 0.0588591 -4.62894e-21)
(1.0692 0.00488563 1.91155e-21)
(0.989035 -0.086121 -9.65976e-22)
(1.01689 0.033705 9.08518e-22)
(0.998669 -0.0208345 3.60979e-23)
(0.986949 -0.0055091 -7.49066e-23)
(0.996106 -0.000218139 -3.96655e-23)
(1.07463 0.135218 -5.08438e-21)
(0.977101 -0.0283335 3.49444e-22)
(1.03355 -0.0291703 -1.83871e-22)
(0.99411 -0.0111055 -2.52673e-23)
(1 -9.86978e-06 -7.18524e-28)
(0.998776 -0.000900948 -1.28946e-23)
(1.00571 -0.00568188 6.07883e-23)
(0.98195 -0.00830457 3.76484e-22)
(0.978504 -0.0158631 7.01713e-23)
(0.957431 -0.0444328 -1.12764e-22)
(0.981766 -0.0088124 -2.84853e-22)
(1.01603 0.00241469 1.66356e-22)
(0.997968 -0.000138123 8.04647e-25)
(0.938265 -0.0426318 3.95923e-22)
(0.98621 -0.000939879 -1.04276e-22)
(1.00004 -0.000206848 4.01913e-25)
(0.988005 -0.000747924 -7.2433e-23)
(1.03464 -0.0317304 -3.14526e-22)
(1.01537 0.00258196 -9.19677e-22)
(0.974981 -0.02862 -8.79512e-23)
(0.999983 -7.1057e-07 -1.40088e-27)
(0.983196 -0.0169206 7.28336e-23)
(1.00252 -0.0144507 2.79501e-24)
(1.00132 -0.00112976 8.58293e-24)
(1.1765 -0.110411 -7.20964e-22)
(1.00134 0.0362038 -5.40538e-21)
(1.00086 -0.00112673 2.39647e-23)
(0.988213 -0.000562506 1.03036e-24)
(1.11578 -0.0596942 -1.53148e-23)
(1.02357 0.000542464 1.45897e-21)
(0.991006 0.0256127 -4.98131e-22)
(1.00177 -0.00239129 7.66965e-24)
(1.00127 -0.0211917 2.48453e-23)
(1.06192 0.104449 -7.35714e-22)
(1.01296 0.0216497 -4.67628e-21)
(0.992204 -0.0281925 2.36038e-22)
(1.00454 -0.00333071 -1.07549e-23)
(0.952851 -0.0532017 5.38212e-22)
(0.999997 -4.83031e-06 3.64816e-26)
(0.949853 -0.00225148 -3.96428e-22)
(1.00008 -6.78942e-05 5.28733e-25)
(1.11347 -0.0620721 -3.40363e-22)
(0.999968 -3.36914e-06 -1.021e-25)
(1.00003 -6.06181e-05 3.03707e-25)
(1.00111 -0.0237653 -2.97546e-23)
(1.16879 0.0761432 -8.58668e-22)
(1.017 0.119917 3.87906e-21)
(1.03799 -0.0321318 -4.96848e-22)
(1.01373 -0.0140424 1.15599e-22)
(0.999999 -3.63858e-06 -9.37229e-27)
(0.994146 -0.00450071 -1.26556e-22)
(1.00009 -2.05164e-05 -3.92869e-25)
(0.996999 -0.00237987 4.33389e-23)
(1.00003 -5.64446e-05 -2.35881e-25)
(1.04393 -0.00562547 -1.44315e-21)
(0.999551 -0.000462776 -1.6186e-23)
(1.04138 0.0489534 2.08424e-21)
(0.99988 -0.000213733 -3.04297e-24)
(0.987439 -0.00537451 -1.26206e-22)
(0.958105 -0.00119294 8.72961e-22)
(0.995904 -0.000295125 -5.09592e-23)
(0.985795 0.0343428 4.79627e-21)
(0.982978 -0.000748728 2.04994e-22)
(1.04251 -0.104065 5.42084e-23)
(0.994723 -0.00396521 1.93663e-22)
(1.02279 -0.00197518 -3.12451e-22)
(0.974914 -0.0650305 1.12e-21)
(1.01781 -0.00122024 -1.05655e-21)
(1.04942 -0.0646654 -1.54556e-23)
(0.999986 -1.42527e-06 1.34033e-26)
(1.0001 -0.0200929 2.81794e-23)
(0.996171 -0.000287649 6.21656e-24)
(1.00024 -9.03195e-05 2.83379e-24)
(1.00008 -1.72014e-05 6.58833e-25)
(1.07729 0.137139 5.57038e-21)
(0.995303 -0.00213557 1.08658e-22)
(1.02328 0.00127301 1.65836e-21)
(1.00193 -0.0216516 2.97283e-23)
(1.00082 -0.000296245 8.21243e-24)
(1.02179 -0.00687226 -1.17665e-21)
(1.00016 -3.82411e-05 -8.33534e-24)
(0.999977 -3.34673e-06 -1.37929e-26)
(0.950496 -0.00299623 3.04873e-22)
(0.99665 -0.00120926 4.91442e-23)
(1.00003 -5.49795e-05 3.54598e-25)
(1.04168 0.0842858 1.54002e-21)
(0.905219 0.0597589 -7.57803e-21)
(0.999799 -0.000226518 7.58346e-24)
(0.960059 -0.00240005 -2.35276e-22)
(1.00002 -1.41182e-06 6.68291e-26)
(0.957973 0.0881731 -4.9711e-21)
(1.19782 0.0761995 1.02758e-21)
(0.973666 -0.0518782 -9.11349e-22)
(1.00005 -0.00054427 -7.34814e-25)
(1.03226 -0.0282388 4.20208e-22)
(1.02717 -0.00129625 -4.3029e-22)
(1.02762 0.00118678 1.2478e-22)
(1.0453 -0.00764471 -1.8301e-22)
(0.999665 -0.00186455 -1.97316e-24)
(0.999876 -0.000826221 3.76646e-24)
(0.98668 -0.0163497 -2.12992e-22)
(1 -8.67508e-06 -1.35571e-26)
(1.00002 -1.10566e-06 -1.70645e-26)
(0.97617 -0.0278791 -2.07088e-22)
(1.00379 -0.0643678 -3.85666e-22)
(0.958741 -0.0435017 -2.91048e-23)
(0.9219 0.0836913 -1.52268e-22)
(1.00019 -2.48108e-05 -3.47416e-24)
(1.02729 -0.0776674 -7.27279e-22)
(1.00701 -0.00502127 -1.05657e-22)
(0.999978 -3.5378e-06 1.57474e-25)
(0.99906 -0.00388086 -3.18704e-23)
(1.00004 -0.000461888 -4.44288e-25)
(0.996019 -0.012875 7.13952e-23)
(1.00004 -1.01899e-05 3.91814e-25)
(1.05103 -0.0629371 -3.19635e-23)
(1.0175 -0.00150027 1.02642e-21)
(0.978201 0.0972888 1.18825e-21)
(1.02233 -0.00188788 1.17054e-21)
(0.999735 -0.000221426 6.00708e-24)
(1.00044 -0.000381703 -8.10714e-24)
(1.19635 -0.0418059 -4.93787e-22)
(1.02324 0.00103707 -1.33301e-21)
(0.997035 -0.000390817 4.44254e-23)
(1.00002 -1.41635e-06 1.41481e-25)
(1.05413 0.077096 -2.58e-21)
(1.14894 -0.162469 -3.80587e-22)
(1.00867 -0.0834895 -3.14615e-22)
(0.985822 -0.000800866 -5.51262e-23)
(0.99998 -2.17764e-05 3.03489e-25)
(0.999737 -0.000208864 -3.52115e-24)
(1.15751 -0.16363 1.08298e-21)
(1.00218 -0.0509594 -1.03748e-22)
(1.03021 0.0266095 2.8846e-22)
(0.983099 0.0847747 4.55917e-21)
(1.04043 -0.10137 4.1677e-22)
(0.998792 -8.29172e-05 -7.9431e-24)
(0.99998 -1.01517e-05 -3.57717e-25)
(0.965278 -0.0563018 9.0914e-22)
(0.987562 -0.113003 -1.13817e-21)
(0.999807 -0.000234287 4.05935e-24)
(1.01058 -0.0221794 1.1566e-22)
(0.992464 -0.0274 -4.09696e-23)
(0.99555 -0.002287 4.27633e-23)
(0.998213 0.0292967 -3.83242e-21)
(0.998772 -0.000541146 2.84297e-23)
(1.05736 -0.0426343 7.26236e-23)
(1.1197 0.130253 -2.69533e-21)
(0.992537 -0.00333641 -1.25224e-22)
(0.930564 0.0696453 -7.56125e-22)
(0.936194 0.0329562 2.28794e-21)
(0.999971 -5.1075e-05 -1.17624e-24)
(0.999977 -0.000725244 -2.93587e-25)
(0.98319 -0.000993516 -1.30556e-22)
(1.01226 -0.00433723 -2.52378e-22)
(0.961812 -0.00220546 4.94324e-22)
(1.00495 -0.00412332 -1.10746e-22)
(0.99281 -0.00334424 1.16772e-22)
(0.999459 -0.000493778 -1.23346e-23)
(0.964723 0.0884847 -8.93323e-22)
(1.0421 0.0471479 -3.2347e-21)
(1.00217 -0.0023136 1.96453e-23)
(0.872111 0.0385101 -1.53008e-21)
(1.00002 -1.23982e-06 -9.60605e-26)
(1.0213 0.00586473 -2.29862e-21)
(1.00558 -0.106065 7.41588e-22)
(1.02986 -0.0771212 2.81424e-22)
(1.00009 -0.000207756 -1.45971e-25)
(0.959884 -0.00121593 4.03185e-22)
(1.01914 0.00510976 1.28554e-21)
(1.01197 -0.0046701 2.09297e-22)
(1.02657 -0.000521945 5.924e-22)
(0.999573 -3.68303e-05 2.3123e-23)
(0.999545 -0.000493287 1.46586e-23)
(1.02873 -0.0431212 8.73375e-24)
(0.996706 -0.00130369 -1.39968e-22)
(0.987879 -0.0121773 -2.30825e-22)
(0.999174 -0.0035155 1.88609e-24)
(1.06305 0.0399733 1.73999e-21)
(0.99991 -0.0209673 -1.96701e-23)
(0.995281 -0.00485992 2.21754e-24)
(0.927702 -0.031862 -1.15087e-21)
(0.994077 0.0710417 5.19547e-22)
(1.10756 -0.011677 -6.9045e-22)
(1.02128 -0.0066023 9.4276e-22)
(0.999621 -0.000180582 4.38961e-24)
(0.999515 -0.000322481 1.98297e-24)
(0.983301 -0.0221784 5.54759e-22)
(1.00095 -0.0012267 -1.92371e-23)
(0.997523 -0.000687185 -7.94762e-24)
(0.99998 -2.08668e-05 -1.14001e-25)
(0.999701 -0.00189923 4.18623e-25)
(1.01866 0.00470537 -4.99116e-22)
(0.985627 0.061381 -4.45175e-21)
(0.999878 -1.54472e-05 9.45056e-25)
(1.09212 0.130072 -4.98527e-21)
(0.999996 -4.11891e-05 8.5782e-26)
(0.99691 -0.00281904 5.90515e-23)
(0.999992 -9.43712e-05 1.24137e-25)
(1.00497 -0.00356605 -4.89529e-23)
(1.18639 0.0349211 -4.37035e-22)
(0.999962 -4.26652e-05 9.93026e-26)
(0.999961 -4.58761e-05 6.99689e-25)
(0.94632 -0.0505406 -5.32245e-22)
(1 -8.59172e-06 -2.87034e-27)
(1.04814 -0.00695887 1.5529e-21)
(0.990592 -0.0439056 4.21618e-22)
(0.999979 -0.000637763 3.6099e-25)
(1.05607 0.0622941 -2.01544e-21)
(1 -2.93806e-05 -5.02273e-26)
(0.999621 -3.82732e-05 2.02272e-23)
(0.999915 -3.53251e-05 3.35422e-26)
(0.995455 -0.00486921 -3.56038e-23)
(0.999685 -0.00151394 -5.98724e-24)
(0.994052 -0.000316086 -4.0566e-23)
(1.02266 -0.127233 -8.60329e-23)
(0.999721 -0.0014743 3.97254e-24)
(1.00399 -0.00334466 -3.81359e-23)
(0.999976 -2.4353e-06 -5.90048e-26)
(1.01849 0.117919 -7.36899e-21)
(1.05597 -0.0441356 1.77703e-22)
(1.11033 -0.0113718 -7.78068e-23)
(0.964669 -0.00655962 5.36033e-22)
(0.97761 -0.00453461 -9.63274e-23)
(0.999145 -0.00379382 5.25337e-23)
(1.00278 -0.00256579 5.33119e-23)
(1.03242 0.0563334 8.52895e-22)
(0.98524 -0.0394344 6.43746e-23)
(1.07703 0.0956093 1.047e-21)
(0.955668 -0.0151575 -9.86444e-22)
(0.996797 -0.0027231 -5.58093e-23)
(0.999991 -3.93878e-06 -1.2843e-25)
(0.994577 -0.00281757 -7.87083e-23)
(1.00253 0.112165 1.8674e-21)
(1.04892 0.0675675 -4.61276e-22)
(0.987844 -0.0598785 3.55338e-22)
(0.938633 -0.00669474 2.33976e-22)
(1.02203 0.112866 1.97384e-21)
(0.991816 -0.000590109 1.05279e-22)
(0.998186 -0.0974755 5.88139e-23)
(0.999992 -9.00181e-05 2.17031e-25)
(0.989443 -0.0442478 5.31502e-22)
(0.99921 -0.000223175 -2.9491e-23)
(0.882376 0.0650059 -4.44063e-21)
(0.987569 -0.0800357 -8.10438e-22)
(0.999917 -3.16288e-05 1.74587e-24)
(0.934812 -0.0219157 -6.22234e-23)
(0.985359 -0.0418944 2.99738e-23)
(1.02196 0.0597867 3.00674e-21)
(0.997558 -0.000749859 -7.50989e-23)
(0.983185 -0.0405954 -1.9451e-22)
(0.997929 -0.0106095 -6.09916e-23)
(1.00111 -0.0229402 -6.21796e-23)
(0.998805 -0.000550188 -1.93395e-23)
(1.02119 0.0585699 -3.63852e-21)
(1.0777 -0.17293 8.06464e-22)
(0.983164 -0.0176188 -1.62322e-22)
(0.98718 -0.0151716 3.36706e-24)
(0.987542 -0.00507363 -5.12457e-23)
(1.00493 -0.00195647 -4.46846e-23)
(1.02336 0.110286 7.74694e-21)
(0.982964 -0.0142917 7.3914e-23)
(1.01172 0.0317772 1.96834e-21)
(1.00256 -0.0020659 4.05226e-23)
(1.19589 0.00682238 -2.94081e-23)
(0.947839 0.0713152 7.56106e-22)
(0.991652 -0.000461422 -3.64535e-22)
(0.999784 -4.05461e-05 3.94247e-24)
(1.03144 0.073062 9.19707e-22)
(0.995288 0.0917652 -6.78386e-21)
(1.02765 -0.0415917 5.90308e-24)
(1.08172 -0.0272853 7.89662e-23)
(0.99582 -0.0133749 -7.91825e-23)
(0.965227 -0.0059221 -3.17566e-22)
(1.06041 0.102358 2.97034e-21)
(0.96381 -0.0566738 1.56821e-22)
(0.999977 -2.09119e-05 3.98085e-25)
(0.992919 -0.000112815 -1.85921e-22)
(1.00004 -5.62289e-06 3.96636e-25)
(0.995761 -0.000265122 1.38839e-22)
(0.999977 -2.2063e-05 -6.22443e-25)
(0.998531 -0.0148092 1.01997e-22)
(0.999097 -3.66238e-05 1.05215e-23)
(0.997475 -0.00555349 7.06927e-24)
(1.19496 -0.022797 -5.96879e-23)
(0.999442 -0.000376647 1.05602e-23)
(0.999531 -0.000193939 7.17476e-24)