/*--------------------------------*- C++ -*----------------------------------*\
  =========                 |
  \\      /  F ield         | OpenFOAM: The Open Source CFD Toolbox
   \\    /   O peration     | Website:  https://openfoam.org
    \\  /    A nd           | Version:  7
     \\/     M anipulation  |
\*---------------------------------------------------------------------------*/
FoamFile
{
    version     2.0;
    format      ascii;
    class       surfaceScalarField;
    location    "22";
    object      phi;
}
// * * * * * * * * * * * * * * * * * * * * * * * * * * * * * * * * * * * * * //

dimensions      [0 3 -1 0 0 0 0];

internalField   nonuniform List<scalar> 
44078
(
-595.013
670.752
-75.7389
1069.36
-1076.06
6.70224
-334.222
380.835
-46.6131
221.146
-257.736
36.5898
-497.991
497.991
214.839
-260.267
45.428
-385.891
372.608
13.2832
32.2144
-569.858
537.643
664.597
-834.017
169.419
-1009.38
1102.34
-92.954
562.063
-152.472
-409.591
-533.74
535.426
-1.68577
-687.673
582.578
105.096
-859.805
868.862
-9.05701
280.354
60.333
-340.687
384.59
-10.077
-374.513
814.375
-666.915
-147.459
-420.116
416.939
3.17674
160.559
314.818
-475.377
289.39
-355.548
66.1579
-593.888
81.7098
512.178
724.869
-60.2716
49.2035
-383.426
136.373
-489.035
352.662
208.159
-83.0054
-125.154
1072.54
-3.182
659.725
-680.846
21.1207
-297.801
31.6346
266.166
316.999
-36.6453
-443.898
543.827
-99.9296
956.846
-246.821
-710.025
-683.143
770.936
-87.7931
251.008
-221.018
-29.9896
481.922
-75.434
-406.488
98.2509
-396.052
261.397
-430.975
169.579
454.257
-602.142
147.885
290.676
-41.8507
-248.825
825.973
-981.169
155.196
1063.97
-237.995
-1018.38
1035.85
-17.4721
398.672
-86.9018
-311.77
704.08
110.295
183.857
-312.162
128.305
1228.49
-777.719
-450.773
-591.019
147.121
536.075
-538.68
2.60528
230.475
645.572
-876.047
226.169
537.152
-763.321
-105.519
559.776
-390.192
180.822
209.37
-8.7363
-225.986
234.722
-674.979
-8.16359
237.122
-22.2832
423.259
-38.6689
-284.315
-61.2334
345.548
523.7
-499.296
-24.4035
-34.3445
-559.544
-466.03
46.6663
419.363
-294.538
-36.2514
330.79
799.483
17.5792
-817.062
-409.142
569.701
-15.879
-243.128
259.007
-222.436
483.833
-352.014
458.922
-106.907
255.224
211.673
-466.896
494.457
-120.832
-373.624
429.303
-50.6816
-378.622
-431.193
-16.832
448.025
-986.842
-31.5376
1067.74
4.79614
329.652
250.023
-579.675
-245.998
548.36
-302.362
188.885
47.671
-236.556
-430.511
380.572
49.9392
-389.164
391.228
-2.06423
304.318
-159.228
-145.091
-250.072
-58.3768
308.449
-699.277
16.5322
682.745
404.837
-85.8653
-318.972
-249.886
249.886
69.4177
-762.342
692.924
-666.414
71.4018
-947.211
848.238
98.9727
-319.648
-66.2425
-41.3798
229.455
-188.075
532.291
-120.986
-411.305
-644.431
-43.2421
652.33
-69.7522
93.6667
82.3291
-175.996
-358.85
98.106
260.744
-306.195
56.1232
847.399
-621.23
579.467
-606.126
26.6583
218.994
-91.4927
-127.501
-387.904
157.284
230.62
-30.3792
257.693
-227.314
-846.785
847.634
-0.849112
-36.5439
-154.596
191.14
285.124
9.26806
-294.392
-711.437
12.1601
-262.629
281.116
-18.4864
778.719
20.764
431.538
-642.871
211.333
203.792
-212.528
-765.317
830.978
-65.6606
668.697
-714.234
45.5369
74.6187
577.711
943.828
-846.981
-96.8473
-209.399
243.192
-33.7928
195.3
55.7082
352.353
129.488
-481.841
1009.1
-256.887
-752.213
17.2018
564.364
-581.565
-12.2079
-587.767
599.975
541.692
-212.04
125.746
427.369
-553.115
-302.7
406.067
-103.367
76.7189
-814.821
738.102
-700.486
454.488
-13.4285
-203.464
216.893
25.983
-861.678
835.695
-319.295
334.871
-15.576
-19.5465
274.77
23.9632
-891.086
867.123
-370.921
351.308
19.6139
-91.4068
-328.709
19.917
-294.262
274.345
705.624
-787.344
81.7202
726.043
-860.295
134.252
-159.652
343.51
179.017
125.301
217.896
-209.259
-8.6366
297.213
-321.915
24.7017
-134.391
565.929
630.623
326.223
157.877
95.6366
-253.514
273.939
-312.848
38.9089
208.996
-253.389
44.3923
-30.3018
315.426
-358.199
-12.7221
1.96118
-183.375
181.413
217.75
-56.891
-160.859
181.125
827.975
-198.072
-739.273
937.346
-101.079
-396.912
522.995
13.0803
234.928
-222.857
-12.0705
276.366
-213.648
-62.7178
8.6397
-225.808
217.168
-396.672
640.097
-243.424
46.7163
513.942
-560.658
984.139
-886.716
-97.4234
790.84
-787.077
-3.7629
-563.14
-246.795
809.935
-145.457
722.034
-576.578
452.723
-443.006
-9.71697
-252.198
9.47749
242.721
5.80247
-750.018
744.215
-181.353
-208.839
-243.423
230.141
13.2824
241.177
-20.0308
32.6844
1020.85
-572.447
-448.408
735.192
-933.264
-397.461
94.7608
10.5521
207.198
16.5667
-778.316
761.75
-90.3599
-856.851
415.776
-451.147
35.3709
-106.811
832.854
52.4571
-736.797
684.34
-236.2
-15.9986
273.939
15.5847
242.809
-258.394
-431.852
431.852
82.1327
680.485
-762.617
-311.735
49.106
-580.127
597.328
339.166
-308.399
-30.7678
-777.828
-63.2659
841.094
-154.397
453.026
-298.63
459.331
72.9602
430.051
-441.424
11.3729
266.33
-57.334
-195.419
-346.671
542.09
499.861
-380.741
-119.12
-327.571
20.1502
307.42
786.328
-80.7043
-518.929
-81.6424
600.572
-661.011
661.011
-132.317
505.398
-373.081
96.6231
-320.96
224.337
-920.058
356.918
305.73
-356.18
50.4507
436.417
16.3061
793.073
-461.509
-331.563
930.086
-80.6334
-849.453
73.446
145.548
-847.567
614.675
232.892
-33.0774
276.967
-243.889
-204.42
222.907
-18.4868
-46.1797
-487.56
875.556
-890.368
14.8125
-78.3224
428.947
-13.1702
789.321
-794.699
5.37818
244.218
-9.29013
30.3513
-239.75
822.12
-963.803
141.683
273.526
-338.721
65.1953
570.445
-570.445
899.935
-93.2206
-806.714
594.098
73.1056
-667.204
63.5615
-331.052
267.491
-209.119
280.803
-71.6843
-478.493
324.097
52.1917
737.129
-392.746
529.119
247.9
-174.454
-684.147
-176.148
484.992
-630.449
453.211
-500.709
47.4977
-906.235
1042.68
-136.443
-579.161
555.395
23.766
506.79
-581.683
74.8932
129.841
740.718
-870.559
211.18
530.835
-742.014
723.355
505.136
322.543
741.425
320.796
-231.068
-89.7281
-292.771
292.771
370.468
-401.336
30.868
-27.3681
1095.11
268.406
-321.634
53.228
531.193
-484.477
-297.429
-562.376
551.37
-564.736
13.3656
-29.0168
904.573
258.217
-291.295
-233.133
199.269
33.8642
498.754
-587.445
88.6909
-197.528
959.126
-761.598
588.519
-81.7286
772.372
-382.407
-389.965
337.671
-48.2812
471.978
548.877
-216.85
175.471
-743.836
59.6888
-943.415
37.1801
477.209
46.4912
-679.987
891.167
-704.771
-60.5464
183.243
-202.663
19.4202
-73.9947
915.282
-841.287
-38.0586
-817.79
855.848
179.799
-177.838
56.8556
164.82
-221.676
-7.35325
-365.792
373.145
328.31
-308.393
-613.195
216.523
-270.511
462.639
-192.128
908.568
-678.093
303.607
17.1888
293.815
10.3323
-304.147
-563.01
188.652
374.358
459.662
-29.6105
541.204
-736.623
-375.355
-13.8085
646.228
-746.158
99.9297
-185.773
137.27
48.5033
-656.045
638.897
17.1474
230.954
-215.369
70.5031
177.397
-744.175
826.308
-335.982
331.008
4.9748
67.9424
-362.182
294.24
254.608
-204.597
-50.0113
525.833
-328.254
-197.579
10.719
-345.991
335.272
-496.82
484.612
-81.3339
307.764
-226.431
-662.939
161.452
501.487
-357.153
-30.7515
653.677
6.04761
444.325
-21.0659
-186.829
39.1281
147.7
-22.1645
733.454
-711.289
-862.402
992.243
319.107
-152.499
-166.609
677.293
-775.066
97.7739
425.668
346.704
706.142
59.8352
-765.977
818.11
81.8254
562.027
-537.871
-24.1564
1093.74
-1012.33
-81.4086
2.34339
-292.459
290.116
298.547
-4.73254
68.7782
139.381
213.819
4.0763
197.009
-196.098
-0.9112
139.223
151.263
-290.486
-301.969
282.063
19.9062
-170.692
-295.094
465.787
418.492
-550.809
-316.852
198.004
-189.008
-8.99599
188.82
1010.85
-571.792
-439.057
525.634
-109.054
-416.58
161.267
507.43
80.042
481.985
19.8716
-699.014
715.671
-16.6569
42.331
-545.556
503.225
-98.6989
-244.719
343.418
-447.738
38.7245
409.013
-140.207
-335.801
476.009
779.982
-1.26331
24.8982
186.129
-383.84
197.71
176.911
-258.245
-920.961
849.946
71.0155
-292.299
305.238
-12.9398
676.105
-89.0857
-587.02
1047
-603.801
-443.196
196.325
-188.159
-8.16557
229.104
-120.221
-108.884
-420.16
417.611
2.54894
662.143
-30.5882
-631.554
-696.607
-2.40667
378.436
26.4013
-583.869
462.64
121.229
585.123
-577.842
-7.28035
-855.761
44.4125
811.348
856.377
33.1973
-889.574
-424.132
283.925
-206.019
19.1901
-324.076
540.069
-215.993
-175.852
-57.2805
754.992
-793.051
-138.004
194.86
553.855
-179.765
-374.09
-123.363
-308.488
215.154
-215.409
0.254781
619.577
42.5658
683.311
-608.693
24.8299
-301.424
276.594
838.065
-876.599
38.5332
-320.056
11.657
958.909
-961.846
2.93695
44.833
226.448
-271.281
680.156
-33.9277
571.639
-592.105
20.4664
-827.866
853.849
195.421
-208.849
786.612
211.997
747.129
187.059
170.297
-357.356
-295.288
-5.89678
836.463
-85.8449
-750.618
586.297
-138.589
-447.707
253.203
-72.3811
79.082
415.375
72.0478
-281.167
473.71
-503.74
30.0306
141.163
-347.428
206.265
137.461
388.371
69.6452
860.441
653.175
-773.151
119.976
-22.1974
981.106
-267.16
-36.0166
303.176
-213.446
219.099
-5.65378
32.129
156.756
47.852
452.009
334.639
-341.993
-373.819
21.8047
-342.984
48.4456
838.327
-58.3454
62.1527
-242.766
180.613
-965.452
22.0371
-929.153
-36.2991
-486.033
59.2639
426.769
-738.252
907.517
-169.265
-229.398
-28.5623
257.96
-130.144
-75.7421
205.886
-133.076
-70.1801
203.256
-165.728
236.609
-70.8807
853.468
422.895
-236.766
146.222
-11.7293
-567.431
-879.957
-41.0041
426.045
160.252
199.528
-523.604
200.808
-1107.18
906.368
19.4241
206.406
-225.83
-1.17851
-203.241
417.906
26.418
89.0796
701.76
289.928
31.3992
-321.328
-474.833
600.579
728.882
72.7044
-801.587
-780.464
-6.88015
803.152
-856.395
53.2435
314.295
-276.735
-37.5607
86.2562
232.851
850.919
-864.909
13.9907
978.823
-862.143
-116.681
939.354
-943.854
4.49938
-410.293
-173.576
-1.62291
-872.2
564.932
307.269
-177.952
160.4
17.5522
-245.714
384.936
139.171
90.9786
-230.15
755.83
265.44
-281.319
431.488
94.1459
784.263
-699.558
-84.7048
-52.303
-128.708
-70.1307
198.839
-304.404
260.82
43.5847
862.827
-838.864
-20.9589
378.258
-357.299
-348.526
-9.67341
572.358
-582.828
10.47
365.682
-327.131
-38.5511
-828.612
731.255
97.3571
-905.867
831.872
143.158
85.9461
-404.992
275.837
129.155
466.6
-453.291
-13.3088
620.797
-622.607
1.80998
517.96
-44.2502
-346.989
-124.532
471.521
25.2749
-292.434
-65.5547
-248.955
314.509
544.29
563.934
-1108.22
-900.86
849.224
51.6364
0.833899
-404.076
417.676
-13.6005
430.923
-399.179
-31.7443
673.931
-850.12
176.19
711.962
-883.734
171.772
-501.38
-161.56
-456.954
79.934
377.02
302.612
-5.86974
-296.742
-327.062
193.986
476.222
85.8413
-719.746
-108.866
12.7193
184.29
-298.072
301.869
-3.79689
52.8869
-362.085
309.198
488.796
40.4956
-529.292
-236.387
300.606
-64.219
-896.188
-19.637
915.825
-159.714
-66.7095
226.424
5.82646
-850.582
844.756
804.702
-118.343
-686.359
308.296
144.721
-210.276
-874.868
-21.3204
808.8
41.1455
0.226588
551.274
-198.921
-519.796
-10.815
530.611
-801.988
913.792
-111.804
312.851
-244.908
-404.211
305.512
-29.8311
590.609
63.0687
382.345
-241.182
278.624
514.449
-12.121
24.1202
341.562
-769.311
70.9441
698.367
455.971
95.3988
-108.775
-57.1469
165.922
-851.8
-23.0678
66.0184
332.653
-189.272
229.08
-39.8081
42.569
-278.956
-274.19
288.393
-14.2035
-17.3197
22.8835
-511.951
489.068
-611.793
-134.365
-19.4154
299.204
-279.789
-332.158
461.647
599.382
447.615
-1102.79
430.492
672.294
328.652
0.244702
-328.897
-200.406
-196.727
397.133
-524.084
556.299
-661.273
-19.6006
680.874
99.4794
82.8111
-182.29
-44.2563
799.248
839.526
-862.765
23.2392
807.381
-154.207
34.5234
-604.381
-322.098
-23.8932
556.774
57.7029
-614.477
436.674
22.9881
-348.395
390.654
-42.2583
-854.029
-3.69633
857.725
-27.8213
-823.979
305.95
-285.614
-20.3351
625.216
-4.41893
586.653
-419.248
-167.405
-210.334
289.063
-78.729
-79.1235
-294.696
-418.682
-47.3481
896.596
-184.633
-827.444
89.1921
-629.153
17.3594
-537.672
47.8916
489.781
820.545
-39.6219
-780.923
-275.121
109.393
3.27804
-356.243
352.965
863.831
-189.9
305.77
-3.15847
636.773
-65.1341
494.256
-5.46013
801.324
-712.244
-1045.14
-57.6425
444.376
22.2234
540.177
39.2909
722.429
-716.627
796.597
-38.7208
-757.876
189.556
-226.1
272.578
-11.7581
-117.66
209.627
-200.987
474.875
15.2878
-490.163
575.503
-94.3903
-481.112
-458.122
421.282
36.8399
128.816
672.507
9.84472
-71.8779
-777.135
849.013
66.3329
-673.736
607.403
223.027
-301.132
78.1058
-729.916
658.038
91.6787
713.023
-504.413
1048.7
238.805
-176.653
-283.096
-189.618
229.586
-39.9673
201.822
-263.125
61.3035
-178.497
317.668
-8.56687
-339.959
-50.9703
4.7396
-409.515
404.776
-47.4871
-161.198
-194.35
-27.5311
364.98
-337.448
-870.859
944.459
-73.5999
45.4709
-527.921
482.45
54.8266
-268.272
-755.675
105.952
649.723
343.673
-245.422
819.408
1.13723
-8.88128
223.057
-214.175
445.492
141.161
-122.361
-334.593
816.295
-201.62
-95.2319
-914.152
605.322
-355.299
134.607
54.9456
656.676
-587.258
494.493
-12.5711
340.472
-34.7427
338.446
-420.753
82.307
226.159
-272.98
46.8211
51.4896
245.254
-296.743
335.748
-506.44
-6.33265
761.956
-806.212
537.376
-62.5004
-108.055
739.55
-631.495
-268.227
301.567
-33.34
-70.0589
293.085
199.498
-188.946
-279.056
10.8298
-1067.63
592.801
474.829
-35.8239
-77.8062
171.473
-307.823
293.487
14.3359
-675.982
692.549
267.173
-271.888
4.71532
-483.518
188.423
-507.89
-559.74
235.693
-277.543
847.157
-946.587
99.4304
-342.908
20.8098
488.706
-626.073
137.367
-2.84636
811.647
248.26
-283.306
35.0458
-303.93
-568.271
-37.0723
292.277
-25.1039
358.035
-116.785
-241.25
-20.362
-850.367
870.729
-870.987
464.224
406.763
-55.3649
735.85
-460.596
41.9146
-152.315
-139.54
291.856
879.605
-833.753
-45.852
389.922
-323.904
797.87
5.28201
108.198
79.5565
-187.754
-580.551
1024.4
-443.845
142.503
-190.246
47.7429
-759.023
-144.964
903.987
132.544
225.491
853.499
-31.3792
813.468
-736.75
501.142
-422.06
7.47211
-250.6
70.2086
150.485
-220.694
306.117
245.157
-20.502
-1098.2
619.196
479.004
8.78688
891.724
-60.5378
-831.186
-430.465
621.999
-191.534
57.1236
756.345
21.5386
-541.335
-590.492
-18.1627
608.655
434.539
142.413
-576.952
-264.786
-522.291
278.219
62.2536
-175.094
-74.7918
-405.639
352.23
53.4085
-781.729
320.219
199.542
-260.348
60.8055
218.335
-258.676
40.3408
428.794
-424.055
733.385
53.4659
-786.851
-201.383
46.7868
827.657
20.5764
-848.233
-372.005
26.7325
345.272
118.639
860.184
-407.178
453.844
410.822
-72.3764
-954.609
99.7506
854.858
789.134
102.59
-34.421
260.58
50.0287
380.895
907.94
134.738
22.7601
-483.356
28.8429
-827.235
798.392
701.567
-772.965
71.3974
636.366
465.972
769.003
-56.0305
-712.972
191.55
-49.0474
75.995
339.142
-415.137
-735.268
792.392
286.391
172.53
-242.137
167.664
74.4724
-111.255
-426.741
537.996
-31.3667
-212.057
1004.42
-573.93
50.6203
-280.018
205.737
-214.618
-105.85
-151.886
30.8307
820.088
-172.549
508.296
-607.208
764.368
-157.16
692.169
-714.334
-398.822
388.007
-443.109
-179.498
39.2262
348.609
-15.126
-333.483
-46.2937
808.249
-505.252
-623.371
1128.62
287.182
-241.738
211.358
3.56907
195.929
-225.359
142.354
-885.371
909.042
-23.671
-280.679
254.968
25.7112
72.5853
711.678
3.36214
765.641
634.823
-15.2457
-14.9541
-510.633
472.121
38.5127
933.101
17.1497
-950.251
-317.67
-54.3346
0.213126
-237.483
804.295
-70.9106
529.006
-623.039
94.0322
-762.197
-84.5885
34.0957
280.2
897.169
10.7705
-490.149
440.357
49.792
-950.464
-94.6796
40.6127
-400.612
360
-204.531
239.801
-35.27
250.382
-48.56
-39.4171
1050.29
-313.21
-737.076
579.522
-50.5158
61.7995
-260.937
-70.1157
-699.16
791.571
-92.4119
-53.536
-21.279
239.614
504.522
-5.76788
92.7851
-870.613
-86.1081
208.548
-122.439
-201.303
213.602
-12.2988
-681.773
570.518
-455.928
478.811
343.72
46.2016
-459.518
424.29
35.2279
561.016
449.833
498.105
-459.726
-38.379
492.844
-312.793
-180.051
-207.936
48.7079
349.158
-20.8029
-328.355
-233.073
43.4546
-291.752
272.206
-219.055
-636.706
-691.667
-81.4833
258.02
-58.4776
667.149
196.682
7.02955
223.111
817.237
-83.5244
-733.713
328.199
-141.936
646.816
-504.879
259.292
-287.854
-92.0685
526.608
-751.152
6.97629
-88.6463
-97.1269
500.01
-98.2174
792.361
-694.143
-193.701
225.664
-31.9624
-39.7534
-240.926
829.585
-737.906
218.519
-429.955
-412.55
842.505
866.594
-199.444
-45.0027
798.172
-753.17
597.275
-6.66669
17.5758
-608.068
278.556
146.901
-425.457
-403.727
479.722
-24.5936
-314.521
339.115
-616.246
64.8487
551.397
-144.86
530.075
-385.215
-482.612
407.941
-482.191
74.2505
104.545
-172.618
68.0734
-164.085
351.144
-180.25
-195.106
736.404
-34.8365
102.218
581.093
-610.966
648.715
-37.7491
269.223
-288.638
-811.056
-51.7093
96.818
-432.619
590.118
460.169
-615.733
172.625
422.755
-852.71
404.916
-681.848
28.645
653.203
-223.54
267.191
-43.6511
-816.304
886.695
-70.3907
-47.6671
-432.027
479.694
1005.36
-405.643
-599.717
-67.6925
-788.703
5.10131
300.848
-950.455
207.434
743.021
-857.685
-92.7708
-170.206
-7.7459
-777.772
731.478
-136.725
-299.61
436.335
-8.38425
-269.65
278.034
160.151
647.23
251.486
155.758
-407.244
-902.863
154.565
748.299
541.1
-580.853
39.7532
604.525
58.5814
-663.107
-45.3502
673.481
-639.907
-33.5737
352.281
-23.6288
-36.7709
235.91
-199.139
608.483
64.9984
12.8515
-793.315
721.531
-777.562
-179.532
249.741
327.791
165.053
147.82
-328.07
201.113
-204.261
3.1481
338.465
-198.018
-140.447
592.218
42.6046
-748.922
801.54
-52.6181
-428.571
-90.048
518.619
-7.64141
-290.431
267.345
59.9708
-327.316
244.766
-96.6493
-148.117
418.138
-465.805
-61.7134
-740.275
-410.27
115.259
139.35
529.168
-455.077
-74.0903
-232.073
251.497
-197.382
190.487
6.89493
39.3043
-249.009
209.705
-321.395
378.1
-56.7054
217.823
-19.5404
-198.282
450.467
554.893
-257.339
555.371
-473.661
137.162
-196.706
59.5439
-195.643
-20.0609
215.704
701.252
-96.727
235.888
-165.385
-357.141
271.813
85.3281
-423.027
-33.7665
456.794
-351.804
448.622
306.685
-323.465
16.7801
-14.6778
28.0172
473.125
462.594
35.5106
51.982
-475.01
209.359
-10.0905
-335.122
-7.78536
-367.57
298.017
69.5526
340.496
-62.2771
675.666
220.93
-239.241
278.545
-285.685
305.835
116.887
654.504
-771.391
-737.786
-25.0162
762.802
24.3575
183.958
16.7719
-338.167
-690.619
621.058
69.5612
115.65
-193.917
166.686
27.2306
434.142
-155.585
-243.439
-185.364
428.803
-162.461
-348.172
217.442
-16.3287
-279.735
127.42
95.8341
-181.942
-1009.53
696.316
-346.855
346.855
851.478
242.259
-35.171
-509.084
-500.442
208.153
327.272
527.921
42.5244
544.338
-50.0818
281.703
-260.238
-21.4657
-629.312
662.101
-32.7884
-50.3326
-531.782
-48.3446
-636.354
731.421
-95.0668
83.7195
-492.862
-352.688
539.329
5.00894
536.378
30.2079
-566.586
749.545
-646.866
6.9588
-102.867
-85.924
188.791
-393.397
101.644
309.172
-31.4566
-277.715
-142.442
-63.5763
-299.728
287.682
12.0462
-303.51
93.1757
871.019
-195.353
-337.892
43.6299
769.268
-2.27687
-766.991
584.132
-658.863
74.7308
-922.865
830.385
92.4807
-22.4985
-638.775
110.325
295.741
-21.7316
-260.261
281.993
-800.554
38.2117
-201.792
-287.919
266.188
-465.971
511.441
-254.588
276.765
-22.1763
-299.309
301.028
-1.71898
-813.669
705.615
995.971
-148.814
-177.4
309.916
-265.083
359.997
-189.699
430.194
-318.773
-111.421
285.475
55.0207
817.143
-85.0863
-732.057
184.645
-681.466
-761.062
679.309
81.7522
6.04238
-616.959
624.923
-7.96429
60.8749
175.013
-103.093
521.585
-266.257
306.984
-40.7271
378.847
-457.95
79.1028
-608.536
649.074
-40.5376
586.114
43.6764
-629.79
250.374
-218.435
-31.9394
557.183
-25.8686
-531.315
198.417
-89.6854
-108.731
-101.462
-43.7573
145.219
959.186
-949.798
-9.38754
-575.489
-388.314
-45.6189
-759.069
804.688
-897.629
834.363
-602.085
370.922
231.164
605.038
-623.201
-11.7587
676.57
-664.811
51.7307
117.356
-169.087
-72.3424
-289.743
-855.987
-66.8781
15.4688
365.103
334.041
-739.684
208.649
0.70989
-225.549
225.549
395.043
-109.682
-285.362
-911.35
25.9786
-2.6604
-22.2611
-481.488
503.749
-753.801
-80.5124
486.639
-406.127
-252.378
-408.634
431.264
-9.98167
-50.0249
256.431
153.759
184.706
-548.7
396.228
-168.323
419.809
338.047
-52.572
763.45
-710.993
-283.341
-5.48433
270.084
-946.903
-3.56139
5.61636
927.485
532.393
-448.673
-846.113
576.771
269.342
11.4314
256.076
-267.507
350.35
-10.1731
-340.177
-461.228
30.7622
-835.697
749.421
86.276
-124.709
-192.961
220.098
42.6862
-262.785
212.759
125.288
-800.987
17.7722
-582.87
335.363
247.507
42.0479
255.166
360.236
-324.143
-36.0927
-397.804
409.415
-11.6103
847.405
-513.364
-454.868
312.932
-319.055
189.573
129.482
423.37
-720.799
568.315
-27.2155
811.238
-807.876
81.9134
116.503
-830.46
814.59
15.8703
-795.18
46.2582
-472.164
-527.85
1042.66
-186.28
931.087
-835.189
-95.898
-521.121
-463.312
984.433
-48.0646
-253.904
42.6919
224.074
-228.961
4.88664
-21.65
-56.0584
733.351
470.584
-37.4596
-433.124
-350.525
-212.485
27.517
-64.5641
-274.157
-162.82
435.637
-272.817
-926.581
926.581
92.3886
-795.829
464.266
-510.447
69.0606
441.387
-210.869
-194.122
179.456
-171.582
-377.118
-559.488
387.906
607.537
55.3254
189.44
431.652
-928.466
496.814
-40.0016
329.93
-225.083
-260.95
-212.42
429.735
-101.945
-179.373
-139.683
-65.4727
-835.388
452.376
-517.938
65.5622
18.1163
-703.305
785.366
-82.0616
415.686
-419.585
3.89939
244.706
-566.647
529.693
36.9549
69.2644
134.293
-203.558
192.381
-229.152
378.944
-708.78
329.836
110.534
758.328
149.21
245.833
-68.5225
-491.961
469.7
291.68
-305.716
14.0363
416.235
-37.388
353.642
-381.173
-20.943
-367.404
388.347
-37.8008
-284.114
330.939
12.0359
-342.975
-437.597
274.777
-386.735
37.8484
631.177
-749.52
-409.489
531.037
-312.271
-91.8045
976.638
-866.103
-492.783
-312.28
805.063
292.059
35.5289
290.584
-326.113
-439.334
152.337
-277.047
-51.5952
450.475
-563.657
113.183
47.4148
613.596
-199.214
96.3468
340.751
-298.703
708.739
-329.795
271.785
-173.679
23.5551
364.539
-388.094
-27.3181
-292.331
-9.09292
-252.146
249.118
3.02863
2.75269
562.886
-541.348
49.4905
-891.585
113.269
801.028
-3.15844
328.314
-115.555
525.493
328.699
-854.193
598.387
239.94
676.422
-774.639
-758.627
106.273
652.353
288.819
61.9323
-350.751
183.124
-175.697
-7.42708
33.4371
274.688
572.947
-207.613
57.9729
149.64
-156.629
-607.086
763.715
-336.945
364.48
-27.5354
-273.091
288.415
-15.3241
-147.483
-174.152
-254.595
207.863
46.7322
920.1
-920.1
-87.1114
727.003
-639.891
293.297
-207.041
344.003
-68.1659
-658.194
188.207
26.7717
-214.979
26.6758
-588.577
561.901
41.0277
-265.915
224.887
908.512
-914.155
5.64258
301.341
-674.65
373.309
360.513
-319.9
50.8728
309.363
-350.739
876.233
556.855
-106.381
-72.1781
-240.67
-399.491
318.704
80.7877
224.168
-345.001
329.909
-500.117
170.208
-265.548
42.008
-873.304
-73.5989
33.2939
-736.598
334.34
-177.056
796.375
-773.26
-23.1144
431.087
57.7754
-488.863
-685.468
610.608
74.8599
-266.026
215.662
50.3646
319.277
-27.5971
-426.042
-254.803
883.142
-838.403
-44.7387
-357.467
658.808
122.467
-551.037
-865.067
11.0382
-53.2777
-606.375
659.653
46.3544
-141.113
-101.024
-920.809
389.972
530.838
187.368
3.11876
448.929
-33.2436
543.45
277.47
-271.187
-6.28384
-333.452
-5.77771
339.229
-562.038
456.519
9.65644
-229.326
219.67
228.843
-40.6364
-103.177
371.102
-267.925
-353.494
5.09861
433.957
-9.66713
55.4295
-813.552
758.122
-664.254
664.254
77.234
182.058
-94.0016
-506.256
600.257
-854.495
938.12
-83.6245
741.144
55.2302
-14.1125
-834.577
848.689
323.177
-340.296
17.1189
324.268
13.098
-337.366
584.895
-636.749
51.8541
47.1468
319.275
-366.422
-219.8
-122.606
342.406
191.849
-8.72549
108.105
-711.254
603.149
-760.037
267.254
347.306
-311.777
793.727
59.7719
-77.2679
-433.18
340.346
-391.027
-682.059
103.135
578.925
326.353
-287.721
-38.6323
-530.281
616.458
-86.1764
-81.6394
-362.704
444.344
406.097
-381.977
-613.172
-307.637
618.849
-721.324
102.476
-408.912
-437.201
837.866
-39.6979
-645.77
108.254
477.107
-585.361
563.546
-644.698
81.1516
43.77
-257.418
11.1119
-692.96
-318.206
321.484
-6.00328
570.434
-692.685
122.251
-344.476
-430.591
2.55981
-685.71
697.849
-12.139
763.056
-164.669
645.268
-102.657
-542.611
227.664
301.504
285.842
-295.573
9.73132
807.725
-935.861
128.135
-659.579
-99.0477
-311.116
44.8591
-329.625
67.6978
261.927
-55.6777
640.573
100.352
-270.924
170.572
356.864
-335.017
-21.8473
-360.563
-222.307
-21.5515
204.795
-34.4571
-168.206
228.189
146.309
-374.498
-270.609
318.561
-47.9527
591.03
-685.032
22.0039
287.168
-286.106
-43.5186
-298.942
-303.143
-711.304
540.745
170.559
-112.124
-148.143
-157.256
65.7636
-577.32
536.204
41.1158
576.953
-1098.07
-24.0282
-1016.11
-140.87
372.585
57.1508
-21.9251
-51.3643
-760.481
128.986
856.282
-850.455
617.352
-76.6076
1.8587
589.222
-591.081
-288.217
-161.612
449.829
-56.3791
-209.647
11.276
189.734
-211.05
21.3156
-999.237
249.219
448.991
-119.082
19.6008
-627.895
608.294
299.044
-364.776
29.9262
334.85
63.9951
573.567
-637.562
-101.484
772.952
-671.468
-669.596
-195.313
-734.957
37.8106
697.147
-29.0022
576.934
-547.932
927.397
-918.613
-8.78381
568.334
-621.612
-611.181
-23.4985
634.68
-394.463
123.855
276.581
-275.116
-1.46531
801.636
-772.793
-95.7728
730.747
-634.974
457.557
14.5632
-433.443
-669.671
604.13
65.5404
399.61
-92.0906
-563.954
-52.8819
-10.5148
-399.001
-39.1654
233.643
-194.478
19.8998
327.406
-359.345
363.443
-4.09894
748.555
-794.174
99.2229
158.737
210.97
-222.355
11.3843
684.165
-775.234
91.0692
-331.606
-693.109
-6.05045
795.841
75.1786
290.631
120.191
813.041
-17.2004
-31.2364
-1030.73
169.056
3.93217
22.9004
-568.456
151.934
-100.203
-1081.06
-255.995
265.651
74.1972
219.1
-107.428
-467.092
574.521
-2.39209
-477.408
479.8
838.911
-31.186
570.002
75.2666
-49.6538
-220.719
270.372
750.132
-795.135
-159.902
388.09
-411.456
445.945
-34.489
-679.348
723.026
-43.6781
297.07
-333.648
12.688
390.443
-120.044
-270.399
178.158
-511.18
465.834
45.346
3.99332
-459.921
464.575
-4.65439
613.594
-596.018
41.4908
-169.357
600.444
-291.718
57.412
440.579
40.5214
608.144
-648.665
-69.6546
-151.364
213.189
2.47295
32.5593
-387.984
23.2078
-414.987
3.53069
249.234
-251.094
1.85973
711.21
-682.565
-483.658
82.9878
400.67
-42.1864
626.319
-37.878
-211.131
914.258
-141.742
-772.516
518.883
537.49
-1056.37
-301.897
-10.2654
289.254
4.23338
10.2823
271.78
-694.941
-5.33985
700.281
592.282
-748.911
-217.266
189.056
28.2106
-535.547
-13.2571
-660.479
26.1862
110.976
-136.669
-428.066
-107.687
208.039
20.6374
-641.607
620.969
-38.1951
-497.909
536.104
-265.417
312.564
-69.2273
626.001
-731.578
754.904
-23.3258
217.657
-482.443
265.714
-276.562
10.8488
4.96884
-839.628
25.9589
249.674
-469.474
918.058
-928.782
10.7239
637.651
12.7125
-650.363
-50.23
-541.875
-807.257
840.454
137.804
-207.934
897.669
-78.2609
237.153
-13.0783
-60.456
-716.02
776.476
-89.0986
-596.612
-28.4036
564.782
-681.893
22.314
203.196
-238.413
35.2169
-233.204
0.758458
232.445
-557.476
533.493
23.9831
-179.261
77.7994
51.5279
94.049
-145.577
-880.258
314.366
18.362
-332.728
54.9127
637.908
-692.82
-337.95
372.017
-34.0674
-659.161
-22.7318
-662.982
779.869
-896.926
127.75
769.177
-143.604
-168.131
-444.009
63.2683
-457.916
-618.142
267.933
-2.49313
-286.676
288.659
-1.98299
162.86
-93.5955
-421.385
393.034
28.3507
-954.903
972.052
-314.033
108.173
205.86
104.234
47.7006
525.273
865.88
-886.242
276.423
-43.5719
379.928
-524.788
-789.834
811.646
-21.8118
-349.334
-192.497
541.831
129.658
-168.437
38.7787
425.205
-528.298
754.957
-688.396
-66.5605
-261.489
-40.4074
349.048
-81.7026
312.801
-290.797
329.048
-652.023
-17.6479
5.62695
633.27
-354.467
109.045
20.638
-891.497
549.553
-388.101
608.139
368.498
423.03
8.23398
744.682
-805.138
-39.2814
-14.0219
827.285
70.3839
421.028
-499.707
78.6785
236.332
-187.146
-49.1859
-194.841
229.084
-34.2436
-4.76975
340.009
-335.239
-618.267
658.788
428.208
253.501
-213.401
-40.1001
359.905
519.7
312.365
-333.168
719.624
97.5192
82.1846
-605.134
522.95
639.605
-35.4752
33.8049
-930.716
114.155
816.562
197.523
-264.232
-248.228
-793.245
732.275
60.9701
5.14189
814.839
-819.981
933.89
-933.89
-377.007
17.6625
602.818
36.7876
-109.08
-36.555
-189.769
226.324
437.391
27.6447
-465.036
-433.212
19.3889
413.823
188.556
972.173
-453.29
-222.212
36.4707
185.742
-627.554
630.668
-3.11478
450.088
-472.402
22.3145
-430.482
-2.72986
40.8846
-770.045
729.16
-636.055
-64.4308
-548.539
518.373
30.1662
-388.449
309.325
35.2444
-247.337
212.093
-171.233
-142.8
-27.7831
232.552
-19.3636
39.6444
319.519
-288.12
-71.2861
791.601
365.058
-50.692
-769.848
32.0624
-890.02
814.442
75.5781
125.158
291.782
360.844
180.848
-757.875
859.131
327.57
195.937
-523.507
-161.338
594.433
-644.003
49.5698
492.488
55.4814
-547.969
647.666
-351.062
-296.604
-489.018
-117.108
-783.347
681.862
24.4971
-688.693
664.196
-711.243
108.49
602.753
-764.108
16.5268
44.9603
508.466
-87.4378
-527.072
354.524
566.42
-595.422
-35.3417
-64.9914
223.82
-158.828
65.7212
-702.075
-230.306
-227.22
162.228
-27.5984
283.368
-109.836
-173.532
175.681
-6.10499
-644.68
715.624
-43.4088
212.861
-169.453
869.862
-630.187
13.2284
143.042
197.709
0.994721
397.383
-398.378
-220.692
-205.924
426.617
180.922
763.537
378.896
-355.34
-843.424
7.72704
626.389
-609.857
-1.50418
-818.461
819.965
589.523
15.9997
-605.523
852.609
47.1363
-899.746
307.035
-6.007
120.307
-408.524
425.422
8.5351
-254.642
334.307
-79.6647
188.45
381.006
-90.3748
610.712
-54.2677
-556.444
-758.546
786.069
-27.5235
12.0489
657.554
-669.603
-646.882
116.601
-5.56051
-442.12
611.668
34.2288
322.635
-29.2262
184.61
-85.1308
-334.967
1.51501
95.9437
742.967
2.65742
-276.169
273.512
-426.583
-501.883
-57.429
-757.77
815.199
269.086
-42.6379
189.252
-270.26
81.0079
181.964
-93.6554
-218.519
-516.875
-581.324
-792.18
-18.8757
-161.558
-815.749
776.439
39.3099
-34.2864
469.367
-435.081
59.7806
821.333
-881.113
192.701
-141.173
776.126
25.4138
-233.179
196.624
19.639
-304.528
284.889
575.703
-573.845
-649.416
116.316
533.1
-583.235
589.218
-5.98342
28.9374
256.905
-665.273
-441.903
608.531
45.7828
-654.314
-721.941
606.746
-679.2
72.4542
-137.047
-70.5665
449.861
-484.206
-847.069
852.211
108.048
-308.033
-588.893
-642.294
593.218
49.0751
176.771
-72.2262
-43.0387
463.003
184.663
-575.122
63.1711
514.363
-526.707
12.3442
73.3575
-717.641
644.283
265.505
-16.2715
-309.024
164.907
144.117
-576.392
606.6
-135.611
487.702
-352.092
681.388
-86.955
-0.359537
-316.195
316.554
-447.081
-442.732
889.813
-146.365
258.682
-112.318
-103.335
-578.725
-584.89
431.194
153.695
407.732
-43.7463
-363.985
15.2041
122.066