/*--------------------------------*- C++ -*----------------------------------*\
  =========                 |
  \\      /  F ield         | OpenFOAM: The Open Source CFD Toolbox
   \\    /   O peration     | Website:  https://openfoam.org
    \\  /    A nd           | Version:  7
     \\/     M anipulation  |
\*---------------------------------------------------------------------------*/
FoamFile
{
    version     2.0;
    format      ascii;
    class       volVectorField;
    location    "22";
    object      U;
}
// * * * * * * * * * * * * * * * * * * * * * * * * * * * * * * * * * * * * * //

dimensions      [0 1 -1 0 0 0 0];

internalField   nonuniform List<vector> 
29659
(
(1.01271 -0.0164114 2.06624e-22)
(1.01244 0.00544861 9.71659e-22)
(0.988839 -0.00407472 -1.21584e-21)
(0.963575 -0.0611788 3.81467e-22)
(0.997055 -6.32635e-05 1.7304e-22)
(0.947178 -0.0377879 -5.59992e-22)
(1.06925 -0.0929748 8.81361e-22)
(1.01668 -0.0247959 -2.03852e-23)
(1.00242 -0.00234136 3.01779e-23)
(1.00022 -5.94234e-05 9.21844e-24)
(1.01868 -0.0331148 -4.17659e-24)
(0.997503 -0.0199747 -4.54371e-22)
(0.999422 -0.000235217 2.23915e-23)
(0.999963 -1.29794e-05 3.38445e-25)
(1.20833 0.0684125 1.31012e-21)
(0.992688 -0.00236184 1.86393e-22)
(0.999809 -0.00102728 -8.42955e-24)
(1.15672 -0.0183691 -1.18482e-22)
(0.997431 -0.00217355 -5.90074e-23)
(0.98678 -0.000980815 -2.67677e-22)
(0.998963 -0.000331499 -7.90285e-23)
(1.00228 -0.00233648 1.05773e-22)
(0.988732 -0.00431051 1.33666e-21)
(0.997418 -0.000207479 7.58562e-23)
(0.810365 0.207828 4.25226e-22)
(1.0136 0.00430032 5.22823e-21)
(0.999377 -7.09229e-05 5.13457e-23)
(0.914336 0.166657 -3.10334e-20)
(1.21245 0.0655899 -3.58966e-21)
(0.999047 -0.0109333 -8.43131e-23)
(1.01837 -0.0133005 1.47703e-22)
(1.04534 -0.00915645 -1.09909e-21)
(0.9784 -0.14207 3.92505e-21)
(0.997813 -0.0276534 2.31285e-22)
(0.909521 0.158904 2.54881e-20)
(1.00438 -0.039269 6.60917e-22)
(1.0942 0.0517192 -1.49176e-21)
(0.966015 -0.0342963 1.58764e-21)
(1.00638 -0.000989162 -4.05565e-22)
(1.00615 -0.000703428 7.71202e-22)
(1.00052 -0.000197393 -2.63123e-23)
(0.986657 -0.0368515 -1.59181e-21)
(0.999832 -0.000998316 -2.04281e-25)
(1.032 -0.0853317 -2.69507e-21)
(1.00004 -6.76965e-06 -2.3517e-24)
(0.999288 -0.0110884 6.34415e-23)
(0.99704 -0.0148462 -1.28776e-22)
(1.00009 -0.000101968 5.59083e-24)
(1.004 -0.00437949 -4.24392e-22)
(1.09321 0.0483641 -6.15098e-22)
(1.13457 -0.102378 5.87948e-22)
(0.9676 -0.0537715 -1.80534e-21)
(1.04524 -0.00806841 3.88015e-22)
(0.948877 -0.0374474 -9.3578e-22)
(0.992869 -0.00242316 -1.6426e-22)
(1.21047 0.0545861 -2.31269e-21)
(0.995943 -0.00271425 5.89813e-23)
(0.998934 -0.000365284 1.0003e-22)
(1.00005 -0.0260626 -3.23833e-22)
(1.01315 -0.0699347 -1.18957e-21)
(0.999921 -8.52533e-06 1.0498e-24)
(0.997522 -0.00222679 -1.21704e-23)
(1.2501 -0.0193903 -3.99817e-22)
(1.00482 -0.0383721 -3.68369e-22)
(1.11498 0.137594 1.18718e-20)
(0.853231 0.0550925 6.65064e-20)
(0.998953 -0.0328122 -6.23937e-22)
(0.991289 -0.0166835 5.75739e-22)
(0.891267 0.0345127 2.67563e-20)
(1.00054 -0.000186466 1.70653e-23)
(1.01563 0.00515365 -7.12343e-21)
(0.985805 0.127215 1.77522e-20)
(1.00388 -0.0108511 -1.61379e-22)
(0.85274 0.242748 1.61541e-20)
(0.990305 -0.000766133 8.64585e-22)
(1.13314 -0.0604696 -7.22088e-23)
(1.28171 0.066775 1.88819e-21)
(0.967243 -0.019461 3.77292e-22)
(0.99994 -2.6901e-05 -2.72396e-24)
(1.00484 -0.0579003 -1.15817e-21)
(0.948892 -0.000878708 -6.1782e-22)
(1.03124 0.0539787 4.17026e-21)
(1.01296 -0.0171228 -6.20572e-22)
(1 -7.50138e-05 -2.32531e-24)
(1.07191 -0.0905938 -1.35355e-21)
(1.23814 -0.146615 -3.52816e-21)
(1.07005 0.131546 -2.46243e-20)
(0.9994 -0.000231759 -2.04091e-23)
(0.99944 -0.000209669 -6.01288e-24)
(0.921338 -0.0487277 -2.26259e-21)
(0.992871 -0.0635254 2.14499e-21)
(0.967126 -0.0203873 4.22624e-22)
(1.00375 -0.0045273 7.23531e-23)
(1.07119 -0.0150585 -6.09547e-22)
(0.913742 -0.0208629 -1.89793e-21)
(1.0944 0.155521 1.13037e-20)
(0.995812 -0.0822134 3.39004e-21)
(1.00057 -0.000463419 4.22793e-23)
(0.964895 -0.0767772 -3.36731e-21)
(1.21585 0.0947515 6.74491e-21)
(0.999937 -2.63351e-05 3.94964e-24)
(0.968778 -0.0126709 -2.2695e-21)
(0.999923 -1.04915e-05 -5.50646e-25)
(1.05562 -0.0247727 -3.02829e-21)
(0.965932 -0.0536066 1.17973e-21)
(1.04671 0.015298 7.12406e-21)
(1.01027 0.114936 2.60919e-20)
(0.999463 -0.000212194 -5.00723e-23)
(0.999994 -8.33676e-05 1.39888e-25)
(0.997186 -0.135239 -1.9561e-22)
(0.975666 -0.140568 -3.53823e-21)
(1.05035 -0.0496844 1.77732e-22)
(1.00002 -2.36764e-06 5.03241e-25)
(0.998646 -0.00739784 -2.20204e-22)
(0.999865 -0.00264185 4.90156e-24)
(0.991118 0.129322 1.5571e-22)
(1.06405 0.0748214 -8.74364e-21)
(0.985901 -0.00875174 -9.19138e-22)
(1.00003 -8.20261e-05 8.86952e-25)
(1.00426 -0.0107437 -1.24289e-22)
(1.26487 -0.0675762 8.23636e-21)
(1.00844 0.0168324 1.14903e-20)
(1.18637 -0.0755726 -3.62182e-21)
(0.850213 0.0675331 -6.14936e-20)
(1.00131 -0.000429803 -1.02326e-22)
(1.17884 -0.0552994 3.76089e-22)
(1.15574 -0.0140246 -6.8837e-22)
(1.01842 -0.0673766 8.91846e-22)
(1.00479 -0.00415565 -3.79053e-22)
(1.00003 -0.00052831 2.57394e-24)
(1.0315 -0.0830142 9.60875e-22)
(1.28076 0.0610967 7.00577e-22)
(1.0442 0.227799 2.46289e-20)
(1.19124 -0.0918751 -1.14858e-21)
(1.0538 -0.0243032 2.5514e-21)
(1.01784 -0.0127998 2.80513e-21)
(1.19353 0.232794 1.43656e-21)
(0.967348 -0.000938603 3.16283e-21)
(1.14875 -0.217312 1.1047e-20)
(1.21403 0.0887769 -5.22275e-21)
(1.17818 -0.0505254 -3.13021e-22)
(0.929246 -0.00614401 -2.49165e-21)
(0.941932 -0.0526559 7.31207e-22)
(1.00002 -2.11925e-06 -2.13035e-25)
(0.999987 -4.15236e-06 4.33626e-26)
(0.996978 -0.00010497 -1.35276e-22)
(0.997268 -0.0145458 2.64096e-22)
(0.98077 -0.107825 -2.72229e-21)
(1.14727 -0.167749 5.0468e-21)
(1.27506 0.0072641 -1.05855e-21)
(1.03668 -0.0235131 1.39092e-21)
(1.02131 -0.0238951 4.52096e-22)
(1.00052 -0.000751184 6.61482e-23)
(0.999842 -0.000266471 4.65914e-24)
(1.00263 0.0362398 -2.55371e-20)
(1.00064 -0.00184116 7.2415e-24)
(0.99201 -0.0135732 2.90241e-25)
(1.21563 0.220922 -3.9414e-21)
(1.00795 0.068669 -2.79653e-20)
(1.13752 -0.0985914 -1.22331e-21)
(0.951269 -0.00333922 1.05576e-21)
(0.964751 -0.0599277 2.75928e-21)
(1.21346 0.0585504 5.912e-22)
(0.99994 -5.50569e-05 8.18055e-25)
(0.999986 -3.99335e-06 -1.73782e-26)
(0.985838 -0.00919813 3.31458e-22)
(0.943362 -0.0515801 -4.03954e-21)
(1.00006 -0.00027095 -6.75707e-24)
(1 -7.96743e-05 -1.31495e-24)
(0.991902 -0.00613847 -1.09792e-22)
(1.00004 -0.000512645 -2.11416e-24)
(1.00686 -0.00714298 -2.09467e-22)
(1.21318 0.229875 4.44948e-21)
(0.967821 -0.000495548 -2.67773e-21)
(1.05024 -0.134202 -1.20275e-21)
(0.993942 -0.000118365 5.58182e-22)
(1.00252 -0.00323764 2.24354e-23)
(0.967936 -0.0124597 3.74859e-21)
(0.999002 -0.00738154 -1.99355e-23)
(1.1912 -0.0665347 2.08059e-21)
(0.999974 -1.21136e-05 8.56648e-25)
(1.01517 -0.0463582 -4.97932e-22)
(1.0742 0.133389 8.66967e-21)
(0.991651 -0.0154988 -3.32821e-23)
(1.14179 -0.21388 -1.05976e-20)
(1.04811 0.0653265 -7.81365e-21)
(0.992474 -0.00338448 -8.16276e-22)
(0.978416 -0.0183699 1.02091e-21)
(1.00453 -0.00417554 5.75764e-22)
(0.999133 -0.0101933 -1.28319e-22)
(0.999668 -8.86172e-06 5.5219e-24)
(1.00716 -0.0215103 8.12501e-23)
(0.84112 0.033757 2.58585e-20)
(1.00172 0.0299231 1.96981e-20)
(0.982906 -0.00740666 2.57043e-23)
(0.992367 -0.0133709 -3.6146e-22)
(0.965857 0.0714711 -2.49205e-20)
(1.01923 0.0425763 3.60184e-21)
(0.915547 -0.0206355 2.34877e-21)
(1.00137 -0.000576866 -7.97981e-23)
(1.08375 -0.115133 1.75252e-21)
(0.964166 -0.101792 3.53633e-21)
(0.997828 -0.020388 2.17306e-22)
(1.001 -0.00126609 -1.3015e-22)
(1.20213 0.236227 1.84615e-21)
(0.992161 -0.00615184 -7.42923e-23)
(1.008 -0.00640343 -2.35945e-22)
(0.978723 -0.107216 3.54473e-21)
(0.997571 -0.138455 4.8331e-22)
(0.999956 -6.26452e-06 3.07022e-25)
(0.980333 0.191346 -2.72429e-20)
(0.998773 -2.77529e-05 -1.33211e-24)
(1 -6.39956e-05 -5.60711e-25)
(0.999353 -0.000246968 8.716e-24)
(0.996311 -0.0638638 -7.90419e-22)
(1.24726 -0.00309915 7.43622e-22)
(1.01634 -0.0454419 4.88825e-23)
(1.00776 -0.00598166 -1.61902e-22)
(0.997446 -0.000285582 1.88785e-22)
(0.917113 -0.0230048 -4.41388e-22)
(1.00004 -0.000561669 -1.76543e-24)
(1.00057 -0.00187746 5.8321e-25)
(0.997248 -0.000242375 -1.24586e-22)
(1.03448 0.00134267 6.66986e-21)
(0.996875 -0.00468903 -4.0529e-23)
(0.998674 -0.00687437 6.51619e-23)
(1.03341 -0.00180745 3.24546e-21)
(1.00015 -0.000458818 8.12821e-24)
(1.00004 -5.83121e-06 6.20668e-25)
(1.00587 -0.000709748 8.25118e-23)
(0.970883 -0.039065 -1.36242e-21)
(0.97135 -0.000480387 -1.30856e-21)
(0.994312 -0.000450439 -5.90903e-22)
(1.01689 0.00404719 5.8888e-21)
(0.981341 -0.00135598 6.29128e-22)
(1.02161 -0.0231017 -4.42648e-22)
(0.999962 -1.44874e-05 9.40105e-25)
(0.996514 -0.0030969 -2.28774e-22)
(1.00094 -0.00125622 1.40752e-22)
(1.08309 -0.111011 1.74689e-21)
(1.06398 -0.216622 7.63958e-21)
(0.998364 -0.000147873 9.71077e-23)
(1.00055 -0.000667949 -5.04016e-23)
(0.998558 -0.00671063 -2.20798e-23)
(1.00414 -0.00959684 -3.07152e-22)
(0.987044 -0.000723908 -1.14361e-21)
(0.999943 -5.25002e-05 -9.23752e-26)
(1.23283 -0.143794 -7.64978e-21)
(1.00005 -0.000574287 2.95212e-24)
(1.03408 0.00126411 -4.69917e-21)
(0.996072 -0.00271789 -1.19113e-22)
(1.00017 -0.000444916 3.20721e-24)
(1.04548 0.0159256 -4.52768e-21)
(0.957991 -0.0974893 -3.5728e-21)
(1.0003 -5.03202e-05 2.92069e-23)
(1 -1.49674e-05 -2.25162e-25)
(0.92905 -0.00439718 -2.83513e-21)
(1.04511 -0.2012 -1.18753e-21)
(0.989782 -0.00977061 -8.8777e-23)
(1.0173 -0.0688521 -2.3625e-22)
(1.03767 -0.0243918 -2.27641e-22)
(1.08098 0.126348 1.06844e-21)
(1.0001 -9.62635e-05 1.51006e-24)
(0.971436 -0.0382514 1.38474e-21)
(1.23231 -0.0729491 4.10112e-21)
(0.937551 0.103732 5.82635e-22)
(0.991548 -0.01515 2.66817e-22)
(1.04614 0.0631892 9.60245e-21)
(1.13354 -0.0562935 -8.7294e-24)
(0.999862 -0.00290752 -7.45276e-24)
(0.688837 0.0938982 3.46942e-20)
(0.999357 -0.000520062 -5.86347e-23)
(1.04938 -0.138079 -1.54339e-21)
(0.918496 -0.0229841 2.90378e-21)
(1.00268 -0.0030599 -1.23326e-22)
(1.21595 -0.0278768 -5.64846e-22)
(0.989808 -0.0011108 -6.83289e-22)
(1.05617 0.246704 1.73899e-20)
(0.995871 -0.000314321 5.40066e-23)
(0.979039 -0.0198117 -5.35525e-23)
(0.999758 -0.00264104 -4.52624e-23)
(1.2215 0.140335 1.5664e-21)
(1.00007 -0.0206673 5.6806e-23)
(1.08979 0.158747 7.285e-22)
(0.999394 -5.47673e-05 -2.26486e-23)
(0.993057 -0.00224307 -2.59991e-22)
(0.957966 0.245683 -1.15805e-20)
(1.04014 -0.000149223 -5.46137e-21)
(1.03316 -0.00127869 3.77745e-21)
(0.965159 -0.0496592 3.31359e-21)
(0.999819 -3.90611e-05 5.111e-24)
(1.00402 -0.00926659 -3.51176e-23)
(0.999805 -0.0011226 -1.4548e-23)
(1 -6.06438e-05 -3.61338e-25)
(1.07224 0.00334946 1.42753e-21)
(1.00005 -6.31364e-06 4.25693e-26)
(0.976212 -0.0175716 2.38992e-21)
(1.22902 -0.074831 -3.89926e-21)
(0.80561 0.218121 -3.12315e-20)
(1.05049 0.226473 -3.92414e-20)
(0.962098 -0.0841785 1.10088e-21)
(0.983461 -0.0358668 8.60354e-22)
(0.972741 -0.00185279 6.24781e-22)
(1.0405 -0.0456778 6.49008e-22)
(1.00784 -0.0212186 -1.6023e-22)
(0.978276 -0.0192488 -1.40918e-21)
(0.963065 -0.0923853 4.90029e-22)
(1.07958 0.13076 -1.61173e-20)
(0.999302 0.0300963 3.99195e-20)
(0.998472 -0.000180242 5.33518e-23)
(1.01302 0.115485 -3.56423e-20)
(1.0709 0.0016874 4.78708e-22)
(1.19109 -0.0728436 1.035e-21)
(1.01632 -0.0190912 2.14964e-22)
(1.00132 -0.0190305 -2.7485e-22)
(1.02663 -0.0631337 -6.12118e-22)
(0.993559 -0.00216961 -6.15683e-22)
(0.996812 -0.000788805 -3.98655e-23)
(0.999928 -8.28102e-06 5.39605e-24)
(0.99894 -0.0104442 1.88071e-22)
(1.1119 -0.057465 9.90417e-23)
(1.22754 0.144987 -2.51415e-21)
(1.00194 -0.00166012 5.86062e-23)
(0.967297 -0.032126 -1.89633e-21)
(1.01862 -0.0195382 -6.78266e-22)
(0.999953 -1.99183e-05 -4.08212e-25)
(0.962533 -0.0881285 -1.75657e-21)
(0.756364 0.167107 -1.60652e-20)
(0.992568 -0.00578111 9.18941e-22)
(0.998693 -0.00549794 5.90146e-23)
(1.01703 -0.0188749 -1.33972e-22)
(1.00446 -0.0562287 1.4711e-21)
(1.11603 0.0294088 1.63696e-21)
(0.999401 -0.0118477 -3.09698e-23)
(0.999961 -6.37263e-05 1.62147e-24)
(1.00002 -3.33708e-06 2.69108e-25)
(0.996769 -0.000718566 -4.4145e-23)
(0.953126 0.244614 1.67397e-20)
(1.05989 -0.0371554 5.85191e-22)
(1.06969 -0.214181 -1.98433e-21)
(1 -1.50034e-05 -6.11262e-26)
(1.04213 -0.206135 7.66846e-22)
(1.1008 -0.00943674 -1.82485e-21)
(0.993795 -0.000197891 -2.76981e-22)
(0.921506 -0.00836857 -3.51237e-21)
(0.998794 -0.00540174 -5.91754e-23)
(0.999476 -0.000237684 -3.63658e-24)
(0.972254 -0.0345698 -4.14385e-22)
(1.00111 -0.00138895 -6.25057e-23)
(1.19551 -0.0639703 -1.81467e-21)
(1.01113 -0.0013089 -1.70431e-21)
(1.25819 0.0489104 -1.04857e-21)
(0.999905 -0.00286922 9.62076e-24)
(1.00522 -0.0168953 5.3888e-23)
(1.00816 0.0148737 -1.55335e-20)
(1.2604 -0.0666173 -3.31233e-21)
(1.00051 -0.000706965 -3.88656e-23)
(1.00054 -0.000626415 3.82546e-24)
(1.00069 0.1533 1.69607e-21)
(0.994234 -0.0647097 -4.27201e-22)
(0.999194 -0.0116678 3.78238e-23)
(1.01787 0.0477586 1.89979e-21)
(0.95106 0.0366574 4.90515e-20)
(1.13516 -0.107098 -1.97495e-21)
(0.998956 -0.0316718 -1.88694e-22)
(1.24469 -0.000778311 -7.48128e-22)
(0.999075 -8.88599e-05 -3.93888e-23)
(0.989478 -0.00510904 2.42264e-22)
(0.995957 -0.000330367 -1.51488e-22)
(1.02128 0.040313 3.69521e-24)
(0.999985 -0.000922471 -1.09322e-24)
(1.01075 -0.00158982 1.74129e-21)
(1.17136 -0.155201 1.44089e-22)
(1.03542 0.214904 3.90822e-20)
(0.860262 0.250999 -7.11124e-21)
(0.992704 -0.00337691 3.29982e-23)
(0.989479 -0.00954146 2.65845e-22)
(1.11257 0.143228 -9.4024e-21)
(1.01367 -0.0720915 1.71217e-21)
(0.99993 -9.89202e-06 -5.27465e-24)
(1.27897 0.028871 -2.22391e-22)
(1.03374 0.00201297 -2.00329e-21)
(1.03316 0.00201568 -1.36117e-21)
(0.993047 -0.0164789 -3.9268e-22)
(1.02286 -0.00242959 -2.66692e-21)
(0.930453 0.219402 6.7828e-21)
(1.14222 -0.178649 -1.43428e-21)
(0.988188 0.205625 6.65115e-21)
(1.01414 0.196956 -1.14079e-20)
(0.999996 -7.98058e-05 -4.51111e-25)
(1.10846 -0.0561332 -9.74731e-23)
(1.14247 -0.172755 9.47334e-22)
(0.996729 -0.00473127 1.05442e-22)
(1.00199 -0.00178252 -9.6665e-23)
(0.942419 0.0427146 1.17358e-20)
(1.0619 -0.0382299 -7.43802e-22)
(1.00035 -9.25431e-05 6.57279e-24)
(0.977538 -0.0741509 -4.15717e-21)
(0.963237 -0.104481 -1.67134e-21)
(0.993209 -0.00230524 3.65575e-22)
(0.999854 -0.000258683 -5.86933e-24)
(1.12078 0.183006 -1.3121e-21)
(1.06287 0.0719331 1.46854e-20)
(1.00006 -0.000628788 -1.14631e-25)
(1.00497 -0.00448478 7.42787e-23)
(1.00641 -0.00449287 4.01681e-22)
(1.20882 -0.116673 5.70742e-21)
(0.965207 -0.0483227 -3.00256e-21)
(1.00008 -0.000746269 -5.24084e-24)
(0.999982 -2.6423e-06 -5.83668e-26)
(1.00061 -0.000204638 9.98455e-24)
(1.11454 0.0315812 -1.61242e-22)
(0.965997 -0.0330866 -1.51835e-21)
(1.00472 0.075585 8.21869e-21)
(0.933496 -0.0582179 1.74764e-21)
(0.984448 -0.0357038 -9.08463e-22)
(0.970519 -0.00144018 -2.50364e-21)
(1.02003 0.0457682 -9.35863e-21)
(1.24492 -0.018091 -1.32185e-22)
(0.998519 -0.00019158 9.7454e-23)
(1.00963 -0.00731076 -4.2695e-22)
(1.00103 -0.00137479 7.08906e-23)
(0.99142 0.228952 -1.65912e-20)
(0.968497 -0.0299918 8.15123e-22)
(1.00133 -0.000349326 -3.35484e-23)
(0.990741 -0.00455056 -3.31153e-22)
(1.18284 -0.0461348 -2.18474e-22)
(0.999519 -0.0127298 -8.27697e-23)
(0.985794 -0.0157383 -1.84986e-22)
(1.00029 -0.000176755 -2.03929e-23)
(1.0003 -6.71988e-05 -9.12394e-25)
(0.748965 0.178959 2.419e-20)
(0.989884 -0.0016543 -4.24622e-22)
(0.994105 -0.00596096 3.77405e-22)
(0.999538 -0.00234025 -4.25109e-23)
(0.999098 -6.77978e-05 -5.39187e-24)
(1.09009 0.119993 -5.38344e-21)
(1.17749 -0.155807 3.56407e-22)
(0.981775 -0.0536361 5.4345e-22)
(1.00002 -2.6551e-06 -2.45881e-25)
(1 -4.87566e-05 -3.23094e-25)
(0.967261 -0.0310637 2.14426e-21)
(0.99164 -0.00242459 8.72475e-23)
(0.993613 -0.00276728 -5.02112e-23)
(1.01789 -0.0067155 8.23082e-22)
(1.00718 -0.00304829 1.44149e-22)
(1.00041 -0.0211665 -1.01597e-22)
(1.15192 -0.0342064 8.6632e-22)
(0.977022 -0.00560323 -5.27313e-22)
(0.990676 0.200366 -5.65147e-21)
(1.01762 -0.0331261 -1.54142e-22)
(1.00031 -0.000177452 2.26111e-23)
(0.961019 -0.0826165 1.62384e-22)
(0.97958 -0.0475466 -1.89185e-21)
(1.20842 -0.021993 -1.23066e-23)
(0.996444 -0.00779173 -1.1273e-22)
(0.986458 -0.0629094 -6.41844e-22)
(0.999973 -7.07563e-06 5.10192e-25)
(0.88108 0.176155 -2.44876e-20)
(1.01909 -0.00280161 1.50234e-21)
(1.0001 -0.000302053 -8.83956e-24)
(0.841038 0.0461983 -3.35408e-20)
(0.98047 -0.0539001 1.21153e-21)
(0.999973 -8.26166e-06 8.98609e-26)
(1.0018 -0.00162267 2.85751e-23)
(0.961261 -0.0863934 -9.65166e-22)
(1.04849 -0.0480484 2.08943e-22)
(1.06189 -0.0178757 1.75824e-21)
(0.999989 -4.46289e-06 -7.21701e-27)
(0.98983 -0.00084503 3.37457e-22)
(1.02772 -0.0617846 1.09092e-21)
(0.993397 -0.00211539 5.05257e-22)
(0.999419 -6.28848e-05 -1.2134e-22)
(0.989685 -0.00527555 6.78089e-24)
(0.960075 0.0745502 2.89184e-21)
(0.991128 -0.0162067 -4.79367e-22)
(0.986395 -0.0154146 1.35481e-22)
(1.00319 0.0420882 -7.93662e-21)
(0.996577 -0.00292565 1.18965e-22)
(0.981273 0.235182 -2.06816e-21)
(0.999971 -8.33062e-06 -2.68147e-25)
(0.987067 -0.0359459 3.69917e-22)
(0.978148 -0.101993 4.12422e-21)
(0.987711 -0.0633171 1.09513e-21)
(1.22518 -0.0854415 1.15929e-21)
(0.998525 -0.00718822 1.47533e-22)
(1.01171 -0.0310243 3.90437e-23)
(0.999892 -0.00308994 1.48114e-24)
(0.978755 -0.0279865 -1.05973e-21)
(1.05013 -0.0520665 3.80346e-23)
(0.999955 -1.90799e-05 1.94487e-24)
(1.00002 -1.53858e-06 -4.27081e-25)
(0.992049 -0.00054302 2.29825e-22)
(0.974702 0.138365 1.78271e-20)
(1.01606 -0.0256725 7.5575e-22)
(1.00324 -0.00456862 -1.18036e-22)
(0.916069 -0.0431027 2.43175e-21)
(1 -1.34443e-05 -1.88483e-25)
(1.00123 -0.00151624 -1.1276e-22)
(0.999956 -0.000879661 -1.35345e-24)
(1.01781 -0.0246233 8.60144e-22)
(0.978946 -0.0206875 1.87907e-22)
(0.999519 -0.000369805 1.49962e-23)
(0.991711 -0.0144597 1.80463e-22)
(0.98448 -0.00912815 -1.95201e-22)
(1.00128 -0.00020942 -9.19408e-24)
(0.99997 -9.67661e-06 -1.7536e-25)
(1.23584 -0.0521878 -3.42605e-21)
(0.999586 -0.00230111 4.5662e-23)
(1.09722 -0.0148055 1.3961e-21)
(1.06038 0.199893 3.94705e-20)
(1.10461 0.144307 -8.79411e-21)
(1.00075 -0.0267126 -3.84149e-22)
(1.00703 -0.00276117 -4.77385e-23)
(1.0233 -0.00193838 1.63487e-21)
(0.999955 -0.00315853 -1.65455e-24)
(0.997233 -0.013543 1.87199e-22)
(1 -2.24305e-05 -4.86305e-25)
(1.00906 0.198824 -8.13874e-22)
(0.984662 -0.0207203 2.6277e-22)
(1.01753 -0.00619021 -5.88532e-22)
(0.977541 -0.00581562 1.09825e-21)
(1.00462 -0.0166145 6.07057e-24)
(0.996657 -0.00766385 2.463e-22)
(0.999868 -0.000265105 1.2891e-24)
(1.00002 -1.42923e-06 -2.18982e-24)
(0.994305 -0.00593735 -2.74863e-22)
(1.07127 -0.0171657 -9.48205e-22)
(1.00846 0.0719628 1.2784e-21)
(1.00154 -0.000620198 -1.35202e-22)
(0.967019 -0.0768696 -8.91974e-22)
(0.968411 -0.0290916 -3.59435e-22)
(0.99008 -0.000662709 -1.26608e-21)
(1.27112 0.00799014 6.39651e-22)
(0.998363 -0.00126018 -5.85979e-23)
(1.00471 -0.0187875 -1.32773e-22)
(0.993114 -0.00363932 2.56092e-22)
(0.999879 -0.000255542 1.09914e-24)
(0.961614 -0.0904324 1.10415e-21)
(1.00418 0.0654055 -1.28593e-20)
(1.04627 0.0569745 -9.81735e-21)
(0.971474 -0.019455 -1.73136e-22)
(1.00319 0.0620275 -5.38398e-22)
(1.00011 -0.000283638 1.75981e-23)
(1.00002 -1.97006e-06 7.0215e-25)
(1.27471 0.0289271 -4.20166e-23)
(1.21438 -0.0233011 6.12837e-22)
(0.850388 0.181693 -1.15153e-21)
(1.00012 -0.10646 3.10584e-21)
(0.970838 -0.00198817 -8.04936e-22)
(1.1818 -0.0406624 3.73379e-22)
(1.00147 -0.000646703 1.53232e-22)
(0.992864 -0.00490117 1.46786e-22)
(1.00058 -0.000217365 -9.44374e-24)
(0.986502 -0.00092783 -2.71586e-22)
(0.98516 -0.0169429 -3.8479e-22)
(0.999995 -4.37105e-05 1.10068e-24)
(0.998881 -4.3165e-05 2.26859e-23)
(1.03306 0.209397 -3.8306e-20)
(0.999837 -0.000913355 1.26154e-23)
(0.895312 0.16044 3.07169e-20)
(1 -2.13483e-05 3.67969e-25)
(1.26547 -0.0361199 -3.06703e-21)
(1.09707 -0.0173229 -2.98892e-21)
(1.15195 -0.0305114 -9.64833e-22)
(1.00131 -0.000613487 9.20963e-24)
(1.00024 -5.44775e-05 1.84125e-23)
(0.980746 0.129181 -2.71502e-20)
(1.10076 -0.0122908 6.02959e-21)
(0.977463 -0.104026 -3.74619e-21)
(1.03264 0.0566879 4.52461e-21)
(0.997208 -0.0271299 1.60985e-22)
(0.983072 -0.00697777 -2.8393e-22)
(0.994872 -0.000283224 -1.51967e-22)
(1.26339 0.164762 -9.39581e-21)
(0.969788 -0.034781 1.33435e-21)
(1.04111 -0.0437727 -4.58778e-22)
(0.992044 -0.0143273 -1.03718e-22)
(1 -1.3374e-05 -5.58302e-27)
(0.998379 -0.00118991 -4.96663e-23)
(1.00755 -0.00771671 2.49259e-22)
(0.976732 -0.0103662 1.40645e-21)
(0.972219 -0.0196123 2.59701e-22)
(0.945339 -0.0525453 -3.92171e-22)
(0.976489 -0.0109921 -1.06688e-21)
(1.0248 0.00365272 7.9406e-22)
(0.997315 -0.000183011 3.12376e-24)
(0.923212 -0.0493337 1.25473e-21)
(0.982183 -0.00118895 -3.89752e-22)
(1.00005 -0.000273918 3.90511e-24)
(0.984456 -0.000951306 -2.69224e-22)
(1.04185 -0.0473071 -6.62154e-22)
(1.02383 0.00392965 -4.39187e-21)
(0.96721 -0.034992 -3.30955e-22)
(0.999978 -9.39272e-07 -2.15366e-27)
(0.977964 -0.0211466 2.82388e-22)
(1.00276 -0.0192007 3.0165e-23)
(1.00176 -0.00150672 3.68167e-23)
(1.16643 -0.176387 -4.34717e-21)
(1.00339 0.0624798 -3.0084e-20)
(1.00114 -0.00149778 1.0477e-22)
(0.984722 -0.000717447 3.63355e-24)
(1.1255 -0.107309 6.93298e-23)
(1.03507 0.000305132 6.66903e-21)
(0.982907 0.0537503 -3.10939e-21)
(1.00234 -0.00318875 3.23848e-23)
(1.00053 -0.0278222 1.19694e-22)
(1.18597 0.143592 -2.21338e-21)
(1.02229 0.0356134 -2.30995e-20)
(0.988404 -0.035823 9.8282e-22)
(1.00603 -0.00449715 -4.49177e-23)
(0.939486 -0.0623124 1.79515e-21)
(0.999997 -6.78764e-06 -1.95792e-25)
(0.937981 -0.0026499 -1.28159e-21)
(1.00011 -8.9859e-05 2.95693e-24)
(1.12229 -0.108649 -4.70217e-21)
(0.999958 -4.57972e-06 -2.10554e-25)
(1.00003 -8.02019e-05 2.61313e-24)
(1.00007 -0.0311115 -1.45002e-22)
(1.25336 -0.0157033 1.0264e-21)
(1.1145 0.249289 1.50573e-20)
(1.04602 -0.0486905 -9.89653e-22)
(1.01775 -0.0197277 4.5131e-22)
(0.999999 -5.27358e-06 7.5822e-26)
(0.992297 -0.00582256 -4.96023e-22)
(1.00011 -2.73365e-05 -2.11438e-24)
(0.996037 -0.00311387 1.70979e-22)
(1.00004 -7.46821e-05 -2.04565e-24)
(1.06214 -0.0154757 -5.48151e-21)
(0.999405 -0.000612092 -5.97157e-23)
(1.08611 0.0708721 9.19493e-21)
(0.999841 -0.000282725 -9.1642e-24)
(0.983691 -0.00681583 -4.80999e-22)
(0.947773 -0.0014236 2.98156e-21)
(0.994607 -0.000388185 -1.96329e-22)
(0.972617 0.0751868 2.98189e-20)
(0.978114 -0.000934166 7.34513e-22)
(1.03404 -0.133638 2.66532e-22)
(0.993051 -0.00514062 7.60506e-22)
(1.03256 -0.00346735 -1.36907e-21)
(0.963764 -0.0780565 3.86033e-21)
(1.02482 -0.00181149 -4.56865e-21)
(1.05109 -0.0910728 -1.12756e-22)
(0.999982 -2.10174e-06 1.33371e-26)
(0.999118 -0.0262977 1.32526e-22)
(0.994955 -0.000373776 2.39138e-23)
(1.00032 -0.000119445 1.34858e-23)
(1.00011 -2.2946e-05 3.63772e-24)
(1.27008 0.161143 1.01753e-20)
(0.993826 -0.00277617 4.23918e-22)
(1.03492 0.00128701 7.63051e-21)
(1.00134 -0.0284894 1.46956e-22)
(1.00109 -0.000392781 3.59929e-23)
(1.03018 -0.0108436 -4.96899e-21)
(1.00021 -5.12508e-05 -4.14775e-23)
(0.999969 -4.40806e-06 -2.4732e-26)
(0.938736 -0.00352948 9.89412e-22)
(0.995585 -0.00158325 1.90538e-22)
(1.00004 -7.27252e-05 2.77875e-24)
(1.12085 0.135329 6.22755e-21)
(0.780469 0.145109 -4.47995e-20)
(0.999734 -0.000299308 2.56402e-23)
(0.950103 -0.00287247 -8.226e-22)
(1.00002 -1.96883e-06 4.93115e-25)
(0.922556 0.215144 -2.78157e-20)
(1.26963 -0.0364001 -3.97608e-21)
(0.963722 -0.0626154 -3.1175e-21)
(1.00006 -0.000721701 -6.4062e-24)
(1.03969 -0.0422554 1.12967e-21)
(1.03961 -0.0038529 -1.88928e-21)
(1.04107 -0.000229979 5.61702e-22)
(1.06331 -0.0187974 -6.73103e-22)
(0.999544 -0.00246692 -6.85192e-24)
(0.999835 -0.00109426 1.139e-23)
(0.982339 -0.0206127 -8.36272e-22)
(1 -1.17755e-05 -7.57357e-25)
(1.00002 -1.61882e-06 -1.25896e-25)
(0.968695 -0.0341701 -7.84691e-22)
(0.997636 -0.0811423 -1.67655e-21)
(0.946928 -0.0515529 -1.00319e-22)
(0.822846 0.208633 -1.02813e-21)
(1.00026 -3.31141e-05 -1.68833e-23)
(1.02252 -0.100872 -3.60012e-21)
(1.00932 -0.00686425 -4.39195e-22)
(0.999971 -4.66724e-06 2.86703e-25)
(0.998723 -0.00511838 -1.27842e-22)
(1.00004 -0.000611838 -4.62767e-24)
(0.994402 -0.016709 2.96905e-22)
(1.00006 -1.34575e-05 2.40309e-24)
(1.05329 -0.0894086 -2.63659e-22)
(1.02433 -0.00221025 4.42966e-21)
(0.983381 0.229497 5.80325e-21)
(1.03187 -0.0032606 5.14671e-21)
(0.999649 -0.000293123 2.10771e-23)
(1.00058 -0.000505948 -3.68752e-23)
(1.20848 -0.122597 -5.76486e-21)
(1.03482 0.00100849 -6.13884e-21)
(0.996091 -0.000512352 1.71146e-22)
(1.00002 -1.9575e-06 1.02646e-24)
(1.13463 0.107474 -9.90056e-21)
(1.1269 -0.216604 -1.85243e-21)
(1.00019 -0.104115 -1.38302e-21)
(0.981692 -0.00101249 -2.06118e-22)
(0.999973 -2.91984e-05 4.05528e-25)
(0.999652 -0.000276522 -1.23062e-23)
(1.13437 -0.219623 5.18098e-21)
(0.997813 -0.0649531 -4.62435e-22)
(1.0538 0.0389283 1.39114e-21)
(0.987913 0.193075 2.45631e-20)
(1.03231 -0.130267 1.98514e-21)
(0.998403 -0.000109911 -3.05699e-23)
(0.999973 -1.36318e-05 -5.63476e-25)
(0.953473 -0.0669172 3.04927e-21)
(0.972246 -0.134056 -4.15825e-21)
(0.999744 -0.000309891 1.35084e-23)
(1.01251 -0.0301699 2.99126e-22)
(0.988799 -0.0348627 -1.73355e-22)
(0.994147 -0.00297656 1.67189e-22)
(0.99738 0.0551065 -2.31128e-20)
(0.998376 -0.000711717 1.08586e-22)
(1.06668 -0.067354 -1.27498e-22)
(1.28568 0.0681941 -1.99102e-21)
(0.99023 -0.00429342 -4.83227e-22)
(0.845493 0.170968 -4.34022e-21)
(0.857445 0.0786844 1.40171e-20)
(0.999961 -6.75071e-05 -1.56614e-24)
(0.999968 -0.000961351 3.23563e-25)
(0.978379 -0.00124109 -4.70646e-22)
(1.01664 -0.00610232 -1.06602e-21)
(0.952205 -0.00264743 1.71464e-21)
(1.00656 -0.00557857 -4.60989e-22)
(0.990582 -0.00430679 4.52126e-22)
(0.999284 -0.000651737 -4.59629e-23)
(0.941319 0.213367 -4.88557e-21)
(1.08606 0.0672944 -1.42988e-20)
(1.00288 -0.0030909 8.281e-23)
(0.702367 0.0892923 -8.85232e-21)
(1.00002 -1.71895e-06 -7.19475e-25)
(1.03311 0.00820686 -1.0756e-20)
(0.993009 -0.129031 2.99088e-21)
(1.02558 -0.100784 1.40688e-21)
(1.00012 -0.000275469 -9.36624e-25)
(0.949899 -0.00145153 1.41023e-21)
(1.02989 0.00746589 6.0739e-21)
(1.01621 -0.0065357 8.81765e-22)
(1.03898 -0.00244977 2.63668e-21)
(0.999435 -4.92734e-05 8.53228e-23)
(0.999398 -0.000652081 5.41444e-23)
(1.03168 -0.0601695 3.03197e-22)
(0.995658 -0.00170596 -5.46835e-22)
(0.98405 -0.0154123 -9.06612e-22)
(0.998879 -0.00463859 7.56914e-24)
(1.11439 0.0404206 6.54964e-21)
(0.99879 -0.0274008 -9.07712e-23)
(0.99376 -0.00630874 9.18472e-24)
(0.911651 -0.0365345 -3.57931e-21)
(1.00498 0.15233 2.79079e-21)
(1.13768 -0.0527481 -2.26354e-22)
(1.02949 -0.0103846 3.99576e-21)
(0.999498 -0.000238567 1.60944e-23)
(0.999358 -0.000426485 7.33101e-24)
(0.977797 -0.0276568 2.13146e-21)
(1.00126 -0.00163134 -8.34942e-23)
(0.996729 -0.000903358 -3.08983e-23)
(0.999974 -2.80185e-05 -1.479e-25)
(0.999592 -0.00251333 1.42384e-24)
(1.0291 0.00688975 -2.36421e-21)
(0.980254 0.135423 -2.60194e-20)
(0.999839 -2.03674e-05 2.98715e-24)
(1.27107 0.12055 -6.9433e-21)
(0.999994 -5.4542e-05 -4.4901e-25)
(0.995914 -0.00368704 2.32752e-22)
(0.999989 -0.000125116 -1.89628e-25)
(1.00661 -0.00482867 -2.0462e-22)
(1.23711 -0.0562678 2.61132e-21)
(0.99995 -5.6684e-05 2.40285e-25)
(0.999949 -6.07537e-05 1.47162e-24)
(0.932133 -0.0589181 -1.6692e-21)
(1.00001 -1.16546e-05 -3.4622e-26)
(1.06737 -0.0188982 5.58581e-21)
(0.984763 -0.0548902 1.745e-21)
(0.999971 -0.000845485 8.03463e-25)
(1.1228 0.0806583 -7.81379e-21)
(1 -3.89506e-05 6.09524e-25)
(0.999498 -5.09765e-05 7.38674e-23)
(0.999888 -4.67449e-05 1.25528e-25)
(0.993986 -0.00632145 -1.4166e-22)
(0.999578 -0.00200404 -2.13311e-23)
(0.992201 -0.000411643 -1.54519e-22)
(1.00817 -0.154938 -3.47339e-22)
(0.999626 -0.00195164 1.42353e-23)
(1.00529 -0.00450357 -1.59393e-22)
(0.999969 -3.19851e-06 -1.1269e-25)
(1.11514 0.241854 -2.93454e-20)
(1.0646 -0.0687171 -3.73296e-22)
(1.14132 -0.0537603 1.62482e-22)
(0.955597 -0.00790904 1.85005e-21)
(0.971421 -0.00560303 -3.40714e-22)
(0.998836 -0.00500536 2.11026e-22)
(1.00368 -0.00343871 2.23722e-22)
(1.07541 0.0913038 3.98906e-21)
(0.978752 -0.048941 2.57112e-22)
(1.19481 0.106658 2.97484e-21)
(0.944666 -0.0179989 -3.33231e-21)
(0.995768 -0.00356018 -2.19304e-22)
(0.999988 -5.48073e-06 4.88559e-28)
(0.992878 -0.00365202 -3.08693e-22)
(1.0638 0.247644 7.89533e-21)
(1.11576 0.0972946 -1.86031e-21)
(0.979523 -0.0735749 1.41926e-21)
(0.924816 -0.00779411 7.69705e-22)
(1.11602 0.223846 8.03231e-21)
(0.989319 -0.000756372 4.00488e-22)
(0.986093 -0.11828 2.36435e-22)
(0.99999 -0.000119586 -1.21288e-24)
(0.983328 -0.0551745 2.1707e-21)
(0.998955 -0.000294654 -1.12405e-22)
(0.722588 0.154946 -2.5368e-20)
(0.976576 -0.096974 -3.11645e-21)
(0.99989 -4.19206e-05 5.02953e-24)
(0.920111 -0.025342 -2.00482e-22)
(0.978637 -0.0519249 1.187e-22)
(1.05784 0.106027 1.4639e-20)
(0.996775 -0.000985883 -2.91303e-22)
(0.97615 -0.0501296 -7.6725e-22)
(0.997 -0.0138859 -2.61222e-22)
(1.00015 -0.0300633 -3.00569e-22)
(0.998419 -0.000724196 -7.42123e-23)
(1.05548 0.103918 -1.78066e-20)
(1.05676 -0.21172 3.37083e-21)
(0.977893 -0.022015 -6.26149e-22)
(0.983027 -0.0191602 1.3357e-23)
(0.983825 -0.00643737 -1.93592e-22)
(1.00659 -0.00263131 -1.87901e-22)
(1.11545 0.215566 3.13622e-20)
(0.977797 -0.0178571 2.8368e-22)
(1.02211 0.0545351 9.95364e-21)
(1.00339 -0.00276334 1.70572e-22)
(1.22954 -0.0825693 -1.00967e-22)
(0.890953 0.17301 4.64683e-21)
(0.989107 -0.000589944 -1.38419e-21)
(0.999714 -5.37207e-05 1.36854e-23)
(1.08843 0.124603 4.16032e-21)
(1.02461 0.201563 -3.15483e-20)
(1.0307 -0.0580506 -3.64267e-22)
(1.10127 -0.0582007 2.6018e-23)
(0.994123 -0.0173307 -3.31146e-22)
(0.956279 -0.00714889 -1.09657e-21)
(1.18022 0.141696 9.01257e-21)
(0.951718 -0.0671981 5.13223e-22)
(0.99997 -2.8037e-05 6.01727e-25)
(0.990737 -0.000145868 -7.12575e-22)
(1.00005 -7.33803e-06 2.50836e-24)
(0.994422 -0.000348664 5.33176e-22)
(0.999969 -2.94351e-05 -9.45691e-25)
(0.997532 -0.0193696 4.37611e-22)
(0.998807 -4.78299e-05 4.0133e-23)
(0.996605 -0.00726744 2.84925e-23)
(1.21507 -0.105717 -9.73364e-22)
(0.999262 -0.00049857 3.95972e-23)
(0.999379 -0.000255797 2.66923e-23)