/*--------------------------------*- C++ -*----------------------------------*\
  =========                 |
  \\      /  F ield         | OpenFOAM: The Open Source CFD Toolbox
   \\    /   O peration     | Website:  https://openfoam.org
    \\  /    A nd           | Version:  7
     \\/     M anipulation  |
\*---------------------------------------------------------------------------*/
FoamFile
{
    version     2.0;
    format      ascii;
    class       volVectorField;
    location    "19";
    object      U;
}
// * * * * * * * * * * * * * * * * * * * * * * * * * * * * * * * * * * * * * //

dimensions      [0 1 -1 0 0 0 0];

internalField   nonuniform List<vector> 
115546
(
(1.02101 -0.0336894 2.27264e-23)
(0.999989 -3.42673e-07 -9.30693e-25)
(0.990485 -0.00782288 3.44373e-22)
(0.997623 -0.00254808 -6.01121e-23)
(1.00117 -0.00286651 1.08485e-23)
(0.999367 -0.000945389 1.85083e-23)
(1.00898 0.0820432 -1.17522e-20)
(1.0316 -0.0655698 3.00124e-22)
(0.999791 -0.000303132 -9.29663e-25)
(0.999989 -2.74352e-07 1.95777e-25)
(0.999837 -1.50201e-05 6.66742e-24)
(1.00011 -8.14876e-05 3.88271e-24)
(0.999053 -0.00309954 -2.05135e-23)
(0.945946 -0.0035556 -1.27177e-21)
(0.999789 -0.000311013 8.54233e-24)
(0.952416 -0.0161352 -2.88973e-21)
(0.999909 -0.000232249 3.27144e-24)
(0.999748 -0.000162067 -1.0682e-23)
(0.989015 0.0788492 1.4217e-20)
(1.0012 -0.00290264 5.03939e-23)
(1.03555 -0.0667486 2.66157e-21)
(0.996223 -0.000113624 -2.80113e-23)
(0.999704 -0.000219066 -1.03801e-23)
(0.996332 -0.00368981 -4.02685e-23)
(0.93584 0.0221176 1.31782e-20)
(1.08987 0.0194232 4.20036e-21)
(1.24349 0.0254607 5.61509e-22)
(1.01245 -0.00303654 1.26587e-21)
(0.999986 -3.5567e-05 4.77733e-25)
(1.00916 0.137856 -1.3657e-20)
(0.999908 -3.16767e-05 4.41024e-24)
(1.03596 0.00728394 1.1136e-21)
(1.00494 -0.00766427 -3.58511e-23)
(0.990282 -0.00412761 -3.19554e-22)
(0.926946 0.0604175 6.01005e-21)
(0.998686 -0.000793874 1.18447e-22)
(1.01237 0.0908771 2.02433e-21)
(0.999908 -0.000237966 -1.4066e-24)
(1.1947 -0.144443 4.71853e-22)
(1.01784 0.0476587 1.86474e-20)
(1.03636 0.00768565 -2.16961e-21)
(0.999745 -0.000168183 -2.08693e-24)
(0.987989 -0.0142687 -6.49733e-22)
(0.998691 -0.000769317 -8.42273e-23)
(0.975344 -0.0381033 -1.05648e-22)
(0.946259 -0.00319845 1.32515e-21)
(1.00404 -0.00935514 2.06885e-22)
(1.00381 -0.000471059 1.14307e-22)
(1.00005 -0.00460444 -2.50232e-24)
(1.0001 -9.03801e-06 -1.84889e-23)
(1.00001 -5.79549e-07 -1.11373e-25)
(0.997651 -0.000105917 9.19637e-23)
(1.02653 0.00845693 3.61233e-21)
(0.999991 -3.0233e-07 -1.52228e-25)
(0.998678 -0.00544557 8.46632e-23)
(1.02625 0.00868888 -9.37185e-22)
(1.02111 0.000441451 2.5786e-21)
(0.972482 -0.0265937 -3.57488e-22)
(1.18105 0.0272883 6.78361e-22)
(0.992694 -0.00966761 7.37934e-22)
(0.999948 -0.000130163 -1.34088e-24)
(0.996271 -0.00390844 3.4842e-23)
(0.999503 -2.8735e-05 -1.9178e-23)
(0.987534 -0.00679606 9.44213e-23)
(0.999953 -3.37906e-05 -3.63278e-24)
(1.00064 -5.39273e-05 -5.72937e-24)
(0.999207 -0.00283555 8.44535e-23)
(1.02743 -0.00298526 2.18542e-21)
(1.26534 0.060735 -1.32467e-21)
(1.02145 0.000175883 1.06161e-21)
(1.04846 0.0901397 5.30624e-21)
(1.17518 0.0807292 -2.64766e-21)
(1.01793 0.0469521 8.26378e-21)
(0.970355 -0.00248172 -2.47431e-22)
(1.01287 -0.0417204 -2.33071e-22)
(0.980381 -0.00642181 -1.33941e-22)
(1.11948 -0.0249005 -2.23568e-22)
(0.999497 -0.00164457 -3.05844e-23)
(0.998079 0.0534763 -4.57083e-21)
(1.08678 -0.00611499 6.31719e-23)
(1.08738 -0.00474289 6.08373e-22)
(0.999963 -2.00957e-06 1.25706e-25)
(0.975987 -0.0831897 1.59264e-21)
(1.01192 -0.000703439 -5.68165e-22)
(0.997653 -0.000672152 5.65623e-23)
(1.0001 -7.90004e-05 3.8634e-24)
(0.987344 -0.0106588 -4.36612e-22)
(0.999991 -1.27821e-05 -5.86576e-26)
(0.978442 -0.00677826 -5.1069e-24)
(0.999993 -2.11469e-05 9.07132e-26)
(1.20654 -0.0850698 3.38096e-22)
(0.992306 -0.00412199 1.96876e-22)
(0.999985 -3.56768e-05 -6.702e-25)
(0.999012 -0.000707019 8.79413e-23)
(0.999687 -0.00020664 -1.77239e-23)
(1.00022 -3.32219e-05 6.73348e-24)
(0.999756 -1.06004e-05 -3.46852e-24)
(0.976584 -0.0827581 1.0161e-22)
(1.12269 -0.0847444 3.25579e-22)
(0.978551 -0.0065838 -2.13291e-22)
(0.999947 -0.000133183 1.42611e-24)
(1.01534 -0.00528468 -1.30394e-21)
(1.00169 -0.00847498 -3.57726e-23)
(1.00174 -0.000116929 -5.05925e-25)
(1.04762 0.0887485 3.53136e-21)
(1.00335 -0.0599607 1.19533e-21)
(1.00969 0.049289 -5.47356e-21)
(0.981721 -0.052843 1.15933e-21)
(0.995802 -0.0195518 1.14145e-22)
(0.999988 -4.12548e-05 -2.18322e-27)
(1.10266 0.00111149 -1.30976e-21)
(0.999759 -1.38846e-05 1.37564e-24)
(1.12066 -0.0233503 1.48212e-22)
(0.997 -0.0139183 -5.00144e-22)
(0.84801 0.0529552 -2.71933e-21)
(0.999725 -0.00829057 -1.90287e-22)
(0.999836 -1.27088e-05 -1.23343e-23)
(1.06053 0.0904745 -6.54154e-21)
(1.00002 -1.12752e-05 3.8483e-25)
(1.17591 0.0778573 1.89234e-21)
(1.06008 0.0923787 9.3727e-21)
(0.951948 -0.0164601 1.18185e-21)
(0.990783 -0.00824058 2.97232e-22)
(1.15123 0.00690553 4.69194e-22)
(0.999991 -6.64082e-07 -1.76387e-25)
(1.00932 0.136484 1.57444e-20)
(0.996291 -0.00401509 -3.69486e-23)
(0.919592 0.126903 -8.05673e-21)
(0.998807 -7.33775e-05 1.72185e-24)
(1.01887 -0.000462282 -1.6515e-21)
(1.03087 -0.0412307 2.20826e-23)
(1.00015 -2.12152e-05 5.74494e-24)
(1.08297 0.101884 -4.00349e-21)
(1.0001 -7.48626e-05 -1.17305e-23)
(1.00002 -9.61814e-06 1.91277e-25)
(0.98819 0.0912327 2.28404e-20)
(0.943302 0.0584614 -3.62811e-21)
(1.00493 -0.00780585 -4.1937e-23)
(0.998759 -0.00548736 -1.19978e-22)
(0.996312 -0.00385959 3.43953e-22)
(1.11452 0.176116 4.27262e-21)
(0.999949 -0.00791256 -6.45786e-23)
(1.00004 -2.78977e-06 -7.06546e-24)
(1.03242 0.0120403 4.68418e-22)
(1.03134 -0.0402666 -1.05461e-22)
(1.00001 -6.27668e-07 1.10868e-25)
(1.00796 -0.010933 -4.89348e-25)
(0.996238 -0.0040697 -1.11462e-22)
(1.0272 -0.00273305 -3.37644e-21)
(1.00057 -0.00140383 -4.14888e-23)
(1.00266 -0.059343 -9.0571e-22)
(0.974937 -0.0381063 7.6922e-22)
(0.992356 -0.00401899 1.2599e-22)
(0.999991 -6.94146e-07 8.31144e-26)
(0.997684 -9.98154e-05 5.37051e-23)
(1.00562 -0.00614864 2.75907e-22)
(0.999989 -4.2122e-05 -4.30838e-26)
(1.08268 -0.024376 1.08039e-21)
(0.981418 -0.000464309 -1.35886e-23)
(1.00151 -0.0815064 -6.99763e-22)
(0.980601 -0.00659612 7.28675e-22)
(1.00786 -0.0107544 2.90982e-22)
(0.999512 -2.66396e-05 -1.40998e-23)
(0.997553 -0.0433324 1.054e-22)
(0.995433 -0.0118548 -2.42069e-22)
(0.999379 -0.000366694 -5.69409e-23)
(1.02012 -0.00971155 6.55458e-22)
(0.991989 -0.0233232 -5.98967e-23)
(1.0841 -0.0247965 -1.45041e-21)
(0.994819 -0.0118459 2.95338e-22)
(0.993394 -0.0103352 5.32029e-22)
(1.00407 -0.00919624 -1.16205e-22)
(1.21691 -0.0958056 2.37352e-21)
(0.948064 -0.0129291 -2.06721e-21)
(0.99718 -0.0372022 6.74561e-23)
(1.02317 -0.00261448 -7.78811e-23)
(0.948149 -0.0121749 4.57422e-22)
(0.998501 -0.0018455 6.78714e-23)
(1.00578 -0.0110736 5.2649e-22)
(1.00002 -0.00452786 -7.72076e-24)
(1.00966 -0.00747593 8.82635e-23)
(1.01337 -0.041403 -2.85567e-22)
(0.982528 0.0822533 -6.33106e-21)
(1.02912 0.011692 2.08753e-21)
(1.00899 0.0490287 1.29136e-20)
(0.99974 -0.000573063 -1.10961e-24)
(0.997329 -0.00213665 7.3786e-23)
(1.00003 0.000615877 -2.41651e-21)
(1.02045 -0.0171437 1.27818e-21)
(1.20383 -0.0857333 -1.80961e-21)
(0.998549 -0.00184624 2.09139e-23)
(1.00002 -0.00751908 4.50978e-23)
(0.9934 0.0430153 -9.31872e-21)
(0.98411 -0.0138751 1.30434e-21)
(1.08841 0.0194665 -5.60187e-21)
(0.992239 -0.0702418 -8.1357e-22)
(0.947742 -0.0118555 -1.3747e-22)
(0.993021 -0.000183467 -3.30469e-22)
(0.981996 -0.0112769 -9.54416e-22)
(1.00358 -0.027403 -2.4059e-22)
(1.02193 0.011929 2.80908e-21)
(1.00204 0.0620863 7.6298e-21)
(1.01112 -0.00736362 2.56127e-22)
(0.99999 -1.83807e-05 -4.0866e-25)
(0.997428 -0.00182712 6.148e-24)
(0.977377 -0.0125094 -5.06458e-22)
(0.999536 -0.000637587 -2.75013e-23)
(0.999955 -3.40422e-05 2.80177e-24)
(1.02098 -0.00524182 -4.07427e-22)
(1.0102 -0.0484214 1.96544e-21)
(0.947806 -0.0111278 1.14486e-21)
(1.01069 0.0487919 -3.35865e-21)
(0.938263 0.0233542 -9.76277e-21)
(0.999993 -2.13414e-05 8.59583e-27)
(0.999405 -0.0204273 -5.50565e-22)
(0.98396 -0.0140598 -6.46538e-22)
(1.0572 -0.0210036 8.65858e-22)
(1.00434 -0.00896867 2.78109e-22)
(0.946025 -0.00246459 7.69415e-22)
(0.999899 -0.000151022 9.49328e-25)
(0.984561 -0.0278262 -3.20114e-23)
(0.986279 -0.0133102 4.23521e-23)
(0.999939 -0.00581646 8.15171e-24)
(0.980671 -0.000596871 4.246e-22)
(0.999991 -3.76521e-07 2.17826e-25)
(0.961871 0.0781867 9.54523e-21)
(1.00345 -0.0135404 -3.87794e-23)
(0.981141 -0.00984839 -9.80902e-22)
(0.992659 -0.069418 -4.56918e-22)
(0.970266 0.0360739 5.23741e-21)
(1.01395 -0.00367494 -1.29252e-22)
(0.977929 -0.0296735 1.34692e-22)
(1.10679 0.168936 -3.50574e-21)
(0.988406 -0.0222436 -5.77921e-22)
(1.03292 -0.0429529 1.07064e-22)
(1.02169 0.0120969 4.24938e-21)
(1.00026 -2.46958e-05 7.22418e-24)
(1.00052 -0.00683454 -4.59782e-25)
(0.989726 -0.0242737 2.09857e-22)
(0.997599 -0.000156107 -1.19653e-22)
(1.17904 -0.0704049 3.12516e-21)
(1.01275 -0.0298482 1.11029e-23)
(1.00199 -0.0824724 9.14629e-22)
(1.1229 -0.0870883 -1.64779e-21)
(0.998764 -6.36371e-05 -8.45826e-23)
(1.00056 -0.0016284 -4.62683e-24)
(1.03248 0.00156099 2.82651e-21)
(0.979239 -0.00156376 -8.65489e-22)
(0.992286 -0.0233836 -1.87897e-23)
(0.957656 -0.0275922 -6.24291e-22)
(0.999036 0.0154301 -5.06076e-21)
(0.999102 -0.000971148 -6.4426e-24)
(1.01843 0.00124025 -1.28585e-20)
(1.00002 -0.00191099 -8.19353e-25)
(0.916756 0.119295 -1.45474e-20)
(1.00985 -0.00738713 -5.31478e-22)
(1.13836 -0.0249847 1.29517e-22)
(1.01248 -0.000708002 5.34292e-22)
(1.00018 -3.6485e-06 3.82276e-23)
(1.03187 -0.0668496 5.29932e-23)
(1.00994 -0.00714624 -1.28015e-21)
(0.94635 -0.00209446 -4.72004e-22)
(1.02951 0.0122287 -2.95187e-21)
(1.18044 -0.156382 -1.00008e-21)
(0.995613 -0.019731 9.09886e-23)
(0.997676 -0.00256896 2.07951e-22)
(1.14871 0.00662088 1.05343e-21)
(0.998814 -0.000169403 9.18728e-23)
(1.11714 -0.0108039 -4.86188e-22)
(1.12043 -0.0358651 -2.86217e-23)
(0.999955 -1.77428e-05 -6.08192e-26)
(1.0206 -0.0167701 -3.17583e-22)
(1.00009 -0.00443564 -6.6878e-24)
(1.01305 -0.0301893 8.01677e-23)
(0.999164 -0.00236398 -7.74565e-23)
(0.986717 -0.0107497 -2.15515e-22)
(0.976018 -0.0358474 7.83633e-22)
(0.997696 -0.0371605 4.58805e-23)
(0.998605 -0.00726504 1.44777e-22)
(0.982331 -0.0528536 -9.70144e-22)
(0.997887 -0.043681 -2.48648e-22)
(0.998784 -5.57311e-05 -6.36556e-23)
(1.00002 -0.00107627 2.2843e-24)
(0.977588 -0.0122849 2.77336e-22)
(1.00001 -0.000498469 4.04098e-24)
(1.00774 -0.00551622 7.99892e-22)
(0.96348 0.0771334 5.47402e-21)
(1.01954 0.00050161 -6.37636e-21)
(0.977559 -0.0861576 -9.49606e-22)
(1.1908 -0.137072 4.24815e-22)
(0.975642 -0.0356506 1.75884e-22)
(0.999991 -1.62411e-05 -2.68536e-25)
(1.18265 0.0139314 3.24469e-22)
(1.01072 0.0480808 -3.23574e-21)
(0.999926 -0.000302417 8.32656e-25)
(1.0121 -0.00713742 -7.30715e-22)
(0.999073 -0.00109436 -5.40264e-23)
(1.03802 0.00646453 1.69326e-21)
(1.00009 -0.00297599 -4.57653e-24)
(1.12319 -0.0360173 -1.13828e-22)
(0.947182 -0.00905403 -6.11271e-22)
(0.993544 -0.0336506 2.25278e-22)
(1.26646 -0.0551147 -9.61594e-22)
(0.995846 -0.00540184 -2.12058e-22)
(0.983954 -0.0345509 -1.31319e-22)
(1.07397 -0.00515266 6.41106e-22)
(1.01602 -0.0366556 3.1527e-23)
(0.981243 -0.00969692 6.65449e-22)
(1.10446 -0.174004 -3.50955e-21)
(1.00586 -0.0109448 -4.45138e-24)
(0.998151 -0.00123211 -6.5124e-23)
(1.07003 0.121834 7.63719e-21)
(1.08913 0.143866 5.45969e-21)
(0.990021 -0.0243204 -5.89278e-22)
(0.998983 -0.00312203 1.03925e-22)
(1.00171 -0.00817543 1.43762e-23)
(0.992328 0.0457878 -1.47142e-20)
(1.00054 -0.00164903 2.99645e-23)
(0.996423 -0.00370802 1.7774e-22)
(1.18221 0.00232936 -6.95033e-23)
(1.05711 -0.0343047 1.08739e-22)
(0.999901 -0.000154962 -7.3068e-24)
(1.01094 -0.00748358 -1.99625e-22)
(0.850636 0.0502432 4.82543e-21)
(1.07847 0.00219017 -2.92475e-21)
(0.981173 -0.00385709 -1.06107e-21)
(1.00575 -0.00610756 -4.02462e-22)
(1.03487 0.00450832 2.08313e-21)
(0.946763 -0.00869124 1.18736e-21)
(1.18341 0.0164828 -5.41892e-22)
(0.998159 -0.00128105 4.62173e-23)
(0.999991 -1.67449e-05 4.93828e-25)
(0.999755 -0.000608353 1.61226e-23)
(0.999087 -0.00107844 8.45695e-23)
(0.874708 0.0150088 3.14868e-21)
(0.997813 -0.00302808 -1.48654e-22)
(1.08805 -0.0191056 7.34331e-22)
(0.999958 -1.71731e-05 2.47761e-25)
(0.999356 -0.000927924 -2.50482e-24)
(0.997313 -0.00209144 -9.19193e-23)
(0.991574 -0.00855208 -2.80199e-22)
(1.05262 -0.00146838 -5.67248e-21)
(1.24744 0.0244196 -2.4999e-22)
(0.987846 -0.00637252 9.18352e-22)
(0.994264 -0.00668574 1.11368e-22)
(1.00115 -0.00214519 -1.65467e-23)
(0.998544 -0.00735281 -8.86143e-23)
(0.908472 0.124219 -2.46769e-22)
(0.978919 -0.0176336 1.70087e-21)
(0.998956 -0.00705704 3.81247e-23)
(1.08113 0.100687 2.09638e-21)
(1.01591 0.0188387 -3.86069e-21)
(1.00982 -0.00697013 1.159e-21)
(0.998194 -0.00201012 1.22246e-22)
(1.0032 -0.0275206 -3.12767e-23)
(1.00372 -0.0156143 1.08786e-24)
(1.02061 -0.0330515 -4.47759e-23)
(1 -1.34868e-06 3.77761e-27)
(0.999561 -0.0010375 5.42803e-23)
(1.02452 -0.0252102 -3.50354e-22)
(1.06872 0.0426629 5.04812e-21)
(0.983431 -0.0393416 2.69573e-22)
(1.0109 0.0898556 3.77292e-21)
(0.870102 0.0299614 -3.61416e-21)
(1.10476 -0.0309417 -3.15028e-22)
(1 -1.31022e-06 2.92951e-26)
(0.9907 -0.000241889 -5.43807e-22)
(0.989425 -0.0151008 3.52841e-22)
(1.00003 -0.00578005 2.56167e-23)
(1 -2.2515e-06 -5.02034e-26)
(1.05949 -0.0877307 -9.32546e-22)
(1.18349 0.149557 -2.34293e-21)
(0.979503 -0.00154102 -8.58801e-22)
(0.999648 -1.81326e-05 -1.96987e-23)
(1.11862 -0.00286674 -8.08727e-22)
(1.00278 -0.00392474 3.21198e-23)
(1.00162 -0.008304 -2.18694e-23)
(1.0001 -6.59243e-06 1.64165e-23)
(0.999141 -0.00105067 -4.73575e-23)
(1.0267 -0.0254299 -7.24821e-23)
(0.977657 -0.029428 9.94389e-22)
(0.996822 -0.0199238 -1.90392e-22)
(0.996525 -0.0135038 -7.49331e-22)
(1.02474 -0.0256683 -3.95621e-22)
(1.00774 -0.00538209 -4.18834e-22)
(0.999923 -4.0899e-06 -6.13966e-24)
(1.10734 0.165823 7.20213e-21)
(0.955593 -0.0253217 1.36602e-22)
(1.00119 -0.00276756 -5.44135e-23)
(1.02456 -0.0562631 -2.8756e-22)
(1.03413 0.00624122 -7.63607e-21)
(1.01831 0.0379035 -9.74949e-21)
(0.987133 -0.0106209 3.25644e-22)
(1.01253 -0.00323908 6.77019e-22)
(0.986463 -0.0132895 4.49541e-23)
(0.998777 -0.00138578 -1.19459e-22)
(1.10216 -0.172118 2.17605e-21)
(1.00038 -0.000764957 4.16923e-23)
(1.00008 -0.00436491 1.4635e-23)
(0.987372 -0.00778615 1.00217e-21)
(0.980511 -0.0137728 4.43232e-22)
(0.998746 -0.00149273 1.33275e-22)
(1.02932 0.155275 -3.89815e-21)
(1.01951 0.0456016 7.43185e-22)
(1.14128 -0.163637 1.02908e-21)
(1.06901 -0.0484198 2.26761e-22)
(1.00002 -1.02111e-05 -3.7481e-25)
(0.996667 -0.00777093 7.06163e-23)
(1.05445 -0.0233224 3.28125e-22)
(0.995431 -0.000178869 7.74395e-23)
(0.997613 -0.0156827 -3.58034e-22)
(0.998117 -0.00121913 1.63208e-23)
(1.00121 -0.00213903 -4.87491e-23)
(0.997767 -0.00263495 -1.44308e-22)
(0.997627 -0.000647396 -4.43784e-23)
(0.998589 -0.00713822 -4.76084e-23)
(1.00014 -0.00427527 -3.21984e-24)
(1.03686 -0.120347 3.47345e-22)
(1.00003 -1.51326e-05 3.68912e-24)
(1.00751 -0.0050776 -7.12469e-23)
(0.999994 -6.73163e-07 -1.42253e-26)
(0.947411 -0.0108068 -1.56735e-21)
(1.00015 -0.000130647 9.81468e-24)
(1.00818 0.109815 8.96318e-21)
(1.08747 0.141855 -2.86491e-21)
(1.0293 0.0287457 -3.42925e-21)
(1.06796 -0.0475696 -1.63162e-22)
(1.02512 0.0327182 -3.43784e-22)
(1.0212 0.000410868 3.63702e-21)
(0.998854 -0.00244076 1.58872e-23)
(1.00112 -0.00111034 -5.97761e-23)
(0.999855 -0.000427172 1.41125e-25)
(0.996955 -0.00155308 1.02778e-22)
(0.981567 -0.0097857 3.93817e-22)
(0.995903 -0.00530734 -8.54915e-23)
(0.996537 -0.00780543 1.89457e-22)
(1.02216 -0.0325265 2.29233e-23)
(1.00015 -0.000126631 -1.19881e-23)
(0.999895 -5.38842e-05 -1.76453e-24)
(1.00009 -7.30742e-05 -8.68574e-24)
(0.999472 -0.00161699 3.27833e-23)
(1.01904 -0.00054539 1.56277e-21)
(1.01978 -0.031924 2.25272e-24)
(0.987208 -0.00770104 -1.06909e-21)
(1.00001 -0.000485366 -8.36326e-24)
(1.06833 -0.0853738 1.94934e-21)
(1.00055 -0.00157346 9.32625e-23)
(0.999906 -5.36521e-05 -6.93939e-24)
(1.01861 0.03716 1.38979e-20)
(1.02328 -0.00281233 2.85814e-22)
(1.00141 0.0312896 2.30763e-20)
(1.00003 -2.07716e-05 -3.49101e-24)
(1.00003 -0.00036412 0)
(1.00117 -0.00120781 8.94733e-23)
(0.992404 -0.0238388 2.84017e-22)
(0.996649 -0.00447251 -9.0823e-23)
(1.02414 -0.0805503 -6.73232e-22)
(0.979419 -0.000681861 5.74309e-22)
(1.05695 0.0264406 6.22991e-21)
(0.994583 -0.000137045 6.97615e-22)
(1.03133 0.155135 -2.04561e-21)
(1.00057 -0.00155022 -6.79355e-23)
(1.00116 -0.00272737 6.38763e-23)
(1.00145 0.045283 -6.05384e-21)
(1.07128 0.120171 -3.17613e-21)
(1.03584 -0.0679273 -1.61832e-21)
(1.00173 -0.00152571 1.5826e-23)
(0.948476 -0.0132426 2.26202e-21)
(0.994531 -0.000172567 -4.00261e-22)
(1.00003 -2.2071e-05 1.4958e-24)
(1.00751 -0.00522754 8.4197e-23)
(0.956247 -0.0260863 -3.45592e-22)
(0.989542 -0.0239083 -4.82308e-23)
(0.970081 -0.00248571 4.3609e-22)
(1.02237 -0.0332121 4.93597e-23)
(1.07727 0.00166173 4.80148e-21)
(0.999995 -7.59282e-07 -2.14993e-26)
(1.00177 -0.00149689 -3.17012e-23)
(1.01524 -0.00550649 9.31553e-22)
(1.03015 -0.01533 -1.1535e-21)
(1.00014 0.120071 -4.54562e-21)
(0.999999 -1.26791e-06 1.62418e-27)
(0.999958 -1.78849e-05 8.54218e-26)
(1.00116 -0.000105584 -1.5491e-22)
(0.989603 -0.0235897 -5.79545e-22)
(0.999584 -0.000628358 2.34422e-23)
(0.999923 -0.000329074 1.86738e-24)
(1.08821 -0.0255342 -7.29351e-22)
(0.913538 0.0148523 -1.30269e-20)
(1.1245 -0.0339919 2.93723e-23)
(1.00278 0.0375941 -5.84979e-21)
(0.986686 -0.00245978 2.42498e-22)
(0.998564 0.0142901 3.25037e-21)
(1.01972 0.00792459 4.37491e-21)
(0.997802 -0.00266619 5.71227e-23)
(1.05754 -0.0878095 1.29121e-21)
(0.955964 -0.0155778 1.97195e-21)
(0.997202 -0.0137752 3.56024e-22)
(1.00048 -0.00674017 3.72308e-24)
(0.997811 -0.00495515 1.11637e-22)
(0.999052 -0.000695631 2.65204e-23)
(0.998991 0.0418491 -2.63398e-20)
(0.988769 -0.0220989 -8.5214e-22)
(1.02079 0.108174 4.50727e-21)
(1.01651 -0.0370401 1.99095e-22)
(1.02945 0.0280538 1.90852e-21)
(0.987162 -0.0064548 4.04304e-22)
(0.991738 -0.00860091 -7.29593e-22)
(1.18237 -0.0714993 2.36339e-22)
(1.0201 0.0121751 4.59305e-21)
(0.998242 -0.00202031 -1.37718e-22)
(1.00002 -0.0018544 7.745e-24)
(0.999988 -0.00192655 -9.97964e-25)
(0.999984 -9.93278e-07 -1.44843e-24)
(1.01839 -0.0321757 9.48923e-23)
(0.977509 -0.0432243 -1.0173e-21)
(1.00014 -0.000312848 -1.50866e-23)
(1.04965 -0.0244211 -6.96225e-23)
(0.999791 -0.000502844 2.74779e-24)
(0.999789 -0.000513982 -1.69215e-23)
(1.00136 -0.000175657 -1.21746e-23)
(1.01723 -0.0366497 -1.13303e-22)
(1.00044 -3.73453e-05 -2.79863e-23)
(1.00083 -0.00544151 -1.03267e-25)
(0.984763 -0.00282586 5.31153e-22)
(0.99734 -0.00385805 7.42392e-23)
(0.996959 -0.00160425 -3.57436e-22)
(0.991551 0.0601654 -3.54908e-20)
(1.08885 -0.0592788 -1.67382e-21)
(1.00662 -0.00986428 3.52714e-22)
(0.993348 -0.0105278 4.02012e-22)
(0.980719 -0.0269309 -1.31204e-22)
(1.00012 -0.00420965 2.5008e-25)
(1.00002 -2.05549e-05 -1.12182e-24)
(1 -1.78308e-06 -1.09478e-26)
(0.973313 -0.00520127 8.58132e-23)
(0.956175 -0.0152237 -2.01197e-21)
(0.980818 -0.0187266 -3.04708e-23)
(1.00001 -2.00227e-05 -3.12479e-24)
(0.990265 -0.00426111 6.02767e-22)
(1.05191 -0.00106364 5.27225e-21)
(1.26966 0.0600165 1.62149e-21)
(1.10412 -0.0327099 -2.16869e-22)
(0.999964 -2.42488e-06 -1.21925e-24)
(0.981679 -0.00963792 1.31026e-21)
(1.00327 -0.0261192 3.98373e-22)
(1.00007 -6.58285e-06 -9.15457e-25)
(0.999948 -0.000157562 6.53701e-25)
(0.979533 -0.000508489 -1.0552e-22)
(1.00113 -0.000103698 -5.10582e-23)
(1.00038 -0.00351686 -5.91042e-24)
(1.01161 -0.0712302 -2.99649e-22)
(1.00027 -2.54263e-05 -2.15949e-23)
(0.967269 -0.0347381 1.43295e-21)
(0.984674 -0.00294907 -5.37495e-22)
(0.986733 -0.00256421 4.31941e-22)
(0.988013 -0.00646304 1.49859e-22)
(1.00096 -0.00546559 -2.48338e-23)
(0.974769 -0.0193684 1.55932e-21)
(1.00017 -0.000292579 1.88685e-23)
(1.00002 -8.75978e-06 -1.5633e-25)
(1.00332 -0.00342114 1.06809e-22)
(1.05209 0.121138 -3.38994e-21)
(0.972149 0.0341631 2.60137e-20)
(1.00915 0.0336085 4.9391e-21)
(1.01948 -0.0323332 6.77736e-24)
(0.992903 -0.00897823 -1.44703e-22)
(1.00785 0.0395454 2.64593e-20)
(1.00929 -0.00627896 -1.6142e-21)
(1.00015 -0.000261298 -1.30898e-23)
(1.01693 -0.000909769 -1.21208e-21)
(0.990665 -0.00837275 1.66123e-22)
(1.11877 -0.0118752 -7.02102e-22)
(0.997837 -0.00487955 1.4021e-22)
(1.02066 -0.000504807 -3.8952e-21)
(1.00064 -6.94727e-05 5.16253e-23)
(1.00946 0.0329362 3.34557e-21)
(1.00034 -3.18675e-05 -3.38538e-23)
(0.996592 -0.00482046 5.06337e-23)
(0.987323 -0.00651108 -1.10783e-22)
(1.01218 0.0469445 3.36863e-21)
(1.00017 -6.48755e-06 -3.40484e-23)
(0.990113 -0.0248168 7.81483e-22)
(1.02414 -0.0794539 1.27969e-21)
(1.05839 0.0265686 -4.91851e-21)
(0.996479 -0.0300133 -5.25516e-22)
(0.996546 -0.00442878 1.30339e-22)
(1.12454 -0.0742257 6.47887e-22)
(1.00005 -1.10167e-06 -2.79686e-24)
(1.14289 -0.161018 -4.28544e-22)
(0.997215 -0.00393867 7.95813e-23)
(1.01231 -0.00720768 -1.15264e-21)
(0.992677 -0.0238848 2.64006e-22)
(1.00178 -0.000144417 -1.8784e-22)
(1.18285 0.145078 -5.97758e-21)
(1.01934 0.046412 -7.57328e-21)
(0.965069 0.0620074 1.21316e-20)
(1.02449 0.0324052 1.02475e-21)
(1.0667 0.0679953 3.69013e-21)
(1.11891 -0.0381932 2.5941e-22)
(1.1169 0.178537 -7.44696e-23)
(1.00944 -0.00622047 1.79256e-21)
(1.03882 0.067574 4.19173e-21)
(1.00157 0.0281905 -1.78982e-20)
(1.00033 -0.0035505 -2.79599e-24)
(0.999103 -0.00224388 -4.12174e-23)
(0.977249 0.0307651 -2.80792e-20)
(1.00002 -1.38951e-05 -6.71649e-25)
(1.18237 -0.15324 1.21417e-21)
(1.26358 0.0772541 3.09064e-22)
(0.988065 -0.010776 6.80824e-22)
(1.00067 -0.00143964 -6.0984e-24)
(1.02975 -0.0149853 -3.96379e-22)
(0.999081 -0.00104298 -4.37565e-23)
(1.00114 -0.00112643 -1.76375e-24)
(0.990556 0.0778214 -6.35832e-21)
(0.929657 0.0615228 1.05896e-20)
(0.999905 -5.28761e-06 -3.95547e-25)
(1.00018 -0.000292738 -1.87889e-23)
(1.05863 -0.0311186 -1.6232e-22)
(1.00007 -0.00176469 1.65266e-24)
(1.27041 -0.054861 2.28721e-21)
(1.06992 0.117715 -5.2385e-21)
(1.04275 0.0249009 1.02056e-21)
(0.99995 -0.000158601 -2.09803e-24)
(0.99336 -0.041518 2.19251e-22)
(0.994892 -0.034926 1.1955e-21)
(1.00037 -3.15979e-05 2.18579e-23)
(1.01082 -0.0231358 7.00022e-23)
(1.03249 0.0010909 1.5026e-21)
(0.935084 0.0596514 -6.78387e-21)
(1.00005 -0.00183388 -1.60013e-24)
(0.999999 -1.40192e-06 -4.66864e-27)
(1.03899 0.0664844 3.09262e-21)
(1.01055 -0.0228786 1.08676e-22)
(0.999903 -6.21288e-06 -8.95234e-24)
(1.02388 -0.0108977 -2.75645e-22)
(1.00454 -0.00834397 -6.23366e-23)
(0.997808 -0.00289534 -1.30348e-23)
(0.998501 -5.44327e-05 3.68984e-23)
(1.2075 -0.136424 8.79688e-22)
(0.989123 -0.00393024 2.45508e-22)
(0.999095 -0.00102542 2.81863e-24)
(0.980756 -0.0137988 9.47688e-24)
(1.00018 -0.00028251 2.7011e-23)
(0.999913 -5.62344e-05 4.72255e-24)
(0.999831 -0.00821029 1.07102e-22)
(1.13471 -0.0138107 -2.30822e-23)
(0.999849 -4.13161e-05 4.07563e-24)
(0.984778 -0.00315621 -6.43575e-22)
(1.00049 -0.000676536 5.77003e-24)
(0.996744 -0.0296288 -2.28616e-22)
(1.01204 0.0476205 -4.40542e-21)
(0.999918 -0.000305794 -1.27337e-24)
(0.854793 0.024029 -7.99808e-21)
(1.05075 -0.0541096 4.14807e-22)
(0.997311 0.0191397 3.63279e-21)
(1.13177 -0.0144905 2.42958e-22)
(0.999645 -0.000193363 8.34829e-24)
(0.99998 -5.19121e-05 -4.05454e-25)
(0.999709 -0.000212391 -1.63862e-23)
(0.996698 -0.00443621 7.18009e-24)
(1.01681 0.00181281 0)
(0.999568 -0.00680906 7.13758e-23)
(0.990607 -0.000304814 1.29338e-22)
(0.989242 0.0901406 -2.18152e-20)
(0.957187 -0.0171459 -1.77472e-21)
(0.956816 -0.0169759 1.53183e-21)
(1.02696 -0.0247175 3.05302e-22)
(1.04868 -0.0271876 1.09949e-21)
(0.989449 0.0671939 2.20705e-20)
(0.999658 -0.000228123 8.1979e-24)
(0.99039 -0.0248795 1.60744e-22)
(0.987835 -0.0107459 -6.51116e-22)
(1.00014 -0.000128649 1.39767e-23)
(1.01368 -0.0301587 -5.26608e-23)
(1.0005 -0.000650379 -2.81139e-24)
(1.01881 -0.0324808 2.59593e-23)
(0.98201 -0.0492635 2.02893e-22)
(0.899851 0.0768993 -1.35326e-20)
(0.965913 -0.0343095 -1.36185e-21)
(0.998577 -0.00164924 1.97133e-23)
(0.986808 -0.0103082 -1.15557e-21)
(1.00382 -0.0153564 3.02782e-24)
(1.08269 -0.0111799 -2.25067e-21)
(1.02144 0.000245827 -6.1578e-22)
(1.00618 -0.0289282 5.10668e-23)
(1.00001 -2.02934e-07 -3.79758e-25)
(1.00284 0.0376494 7.3376e-21)
(0.991149 -0.00473041 -6.63282e-23)
(0.946894 -0.00790268 1.09999e-21)
(0.999265 -0.00641877 5.17484e-23)
(1.02258 -0.0250797 -1.20852e-21)
(0.986062 -0.0322596 1.2678e-21)
(1.00336 -0.00335434 4.68968e-23)
(1.23853 -0.0147281 2.46298e-21)
(0.999442 -2.29079e-05 5.57661e-23)
(1.00932 0.0806527 1.18723e-20)
(0.999594 -0.0119729 -1.226e-22)
(1.03424 0.00228078 -7.48534e-22)
(0.970982 -0.00510697 1.01576e-21)
(1.01431 -0.00243008 1.89181e-22)
(0.99999 -1.28358e-05 -2.11014e-25)
(0.984822 -0.0276426 -7.78358e-23)
(0.984697 -0.00327337 6.07301e-22)
(0.989321 -0.0229509 7.84041e-22)
(1.02383 -0.0112921 -1.98915e-22)
(1.01059 -0.0718475 -3.07345e-22)
(1.00019 -0.000282477 -3.06906e-23)
(1.0059 -0.124355 -6.05829e-22)
(0.999032 -0.000712906 -1.08735e-22)
(0.99999 -4.66868e-05 1.41747e-25)
(0.999585 -0.00669522 -7.86436e-23)
(1.00016 -0.00030279 7.75117e-24)
(0.93268 0.0588975 9.21699e-21)
(1.00014 -0.000126264 -1.23578e-23)
(1.00878 0.108914 -2.74595e-21)
(0.986543 -0.0108922 -1.82543e-22)
(1.01379 -0.00196743 -3.55732e-22)
(1.00195 -0.0015365 -1.69789e-22)
(1.06396 0.0161286 6.22447e-21)
(1.0027 -0.00397173 -1.99183e-22)
(1.01527 0.0192444 -3.32264e-21)
(1 -2.30104e-06 -2.49253e-26)
(1.01475 -0.0413919 -3.29287e-22)
(0.999142 -0.00327282 3.76869e-23)
(1.00115 -0.00264353 9.42668e-24)
(0.982707 -0.0113158 -2.7987e-22)
(1.00002 -1.15221e-05 1.58489e-24)
(1.18441 -0.00424184 3.49611e-22)
(0.943582 0.127661 3.18888e-21)
(1.2597 0.0775252 -6.04875e-22)
(1.00015 -0.000254427 2.5453e-23)
(1.09664 -0.091291 -8.01927e-22)
(1.01705 0.00203339 -1.05203e-21)
(0.98414 0.0826863 1.55712e-20)
(1.00004 -0.00300002 -8.46421e-25)
(0.999824 -1.88301e-06 -3.33881e-24)
(1.05731 -0.0305403 -2.30004e-22)
(1.00011 -9.28461e-05 -8.50964e-24)
(0.969201 0.029649 -5.81508e-21)
(1.00352 -0.0259087 2.31233e-23)
(1.18518 0.159445 -6.03504e-23)
(1.06736 0.0423664 -6.70299e-21)
(1.00011 -8.52999e-05 6.80157e-24)
(0.977396 -0.0850663 -8.78184e-22)
(1.00704 0.0256471 -7.36767e-21)
(0.999913 -5.37363e-05 2.15046e-25)
(1.05817 -0.0213768 2.16669e-21)
(0.998112 0.00701304 1.73369e-20)
(0.998482 -6.89495e-05 2.98856e-23)
(1.00159 -0.00860296 3.16966e-23)
(1.00025 -3.39097e-05 1.63346e-23)
(1.00429 -0.00914227 -1.58302e-22)
(0.987368 -0.0067188 5.06641e-23)
(0.995822 -7.08607e-05 4.70985e-23)
(1.02731 0.111254 -6.08182e-21)
(0.997177 -0.0135006 2.38913e-22)
(0.893451 0.107911 2.39841e-20)
(0.827567 0.011293 2.20082e-20)
(0.9981 -6.31728e-05 -8.78027e-23)
(1.00003 -0.000276448 -1.20984e-24)
(1.02072 0.106652 -2.55699e-21)
(0.997773 -0.00274435 5.13298e-23)
(0.98893 -0.00268869 1.32229e-22)
(1.00016 -0.000302878 -4.38716e-24)
(1.04461 0.0281544 2.37238e-22)
(0.971217 -0.0051081 -1.45393e-21)
(0.910747 0.060725 1.68147e-20)
(0.99919 -0.00290005 -5.40055e-23)
(0.999965 -0.000819632 -3.44023e-24)
(0.991167 -0.00484615 2.2749e-22)
(1.27244 0.0357641 2.47443e-21)
(0.993795 -0.0415924 4.71687e-23)
(1.09188 -0.0227085 -2.37888e-22)
(1.03476 -0.0251138 -7.64794e-22)
(1.02093 0.0078596 -3.64795e-21)
(0.99987 -7.79404e-05 -2.69457e-24)
(1.19508 -0.0484679 -9.72628e-22)
(1.00001 -1.9581e-05 -2.02028e-24)
(1.00105 -0.000923774 1.12678e-22)
(0.999994 -9.35182e-07 4.52192e-26)
(1.14066 -0.157129 -2.48457e-21)
(1.0372 -0.0684385 1.3496e-21)
(1.01783 0.0362512 6.1712e-22)
(0.999984 -1.09028e-06 1.46736e-25)
(0.966154 0.0602258 -3.23375e-20)
(0.999729 -8.14769e-05 1.00479e-23)
(1.01401 -0.0298752 -5.38746e-23)
(0.999586 -0.000220725 2.84214e-23)
(0.955671 -0.0258567 6.8495e-23)
(0.99349 -0.0106946 -6.33803e-22)
(1.079 0.0127616 2.69446e-21)
(0.999908 -6.68147e-06 1.1872e-23)
(1.01034 -0.0475975 -6.27073e-22)
(1.01137 -0.0230019 2.54082e-23)
(0.992875 -0.00966661 -5.44857e-22)
(0.999987 -5.04573e-05 5.3324e-26)
(0.999949 -0.000812806 -2.45382e-24)
(0.999852 -6.61809e-06 1.44549e-24)
(0.981359 -0.0325677 -8.87132e-22)
(1.00112 -0.00220055 4.87209e-23)
(0.999234 -0.000449756 -2.62258e-24)
(0.979227 -0.000163811 8.76406e-22)
(1.00006 -0.000138112 -9.22275e-26)
(1.00019 -0.000274151 2.45967e-23)
(1.00367 -0.0135383 2.90989e-23)
(0.999651 -0.000194877 4.92366e-24)
(1.00845 0.0394263 -1.1689e-20)
(1.04129 -0.00415347 4.53161e-21)
(1.27642 -0.00988561 1.70897e-22)
(0.983233 -0.00049747 -1.13028e-22)
(1.00569 -0.058563 8.40992e-22)
(0.999991 -7.16371e-07 -8.55673e-26)
(1.12719 -0.0753597 -7.7849e-22)
(0.981478 -0.0491234 -8.45239e-22)
(1.00023 -3.35467e-05 2.45511e-23)
(0.981016 -0.0190529 -3.86931e-22)
(0.999064 -0.00303067 -4.19756e-23)
(0.976854 -0.0134713 4.50243e-22)
(1.09569 -0.130622 -6.92557e-22)
(1.00033 -3.21119e-05 -2.52779e-23)
(1.01769 -0.0369637 3.35063e-22)
(0.99999 -4.82433e-05 -5.24054e-25)
(0.996517 -0.00416177 -8.3605e-23)
(0.999744 -8.35655e-05 9.54702e-25)
(1.03655 0.0596109 -5.59443e-22)
(0.994882 -0.00125237 -2.37351e-22)
(1.00009 -0.000165332 -2.18504e-25)
(0.999884 -5.38637e-05 4.31191e-24)
(1.01638 -0.00779001 1.13901e-21)
(0.972309 -0.0269507 1.33426e-22)
(0.997805 -0.0027745 -8.18394e-23)
(0.999985 -0.000850028 -7.66461e-24)
(1.0262 0.112505 -7.44253e-22)
(1.00241 0.0615263 4.71528e-21)
(1.00118 -0.00261449 2.82863e-23)
(1.17454 0.108785 -8.72173e-23)
(1.07808 -0.0979875 2.07503e-21)
(0.957752 -0.0280816 5.72373e-22)
(1.00003 -0.000272416 4.79084e-24)
(0.999991 -3.18876e-07 3.00874e-25)
(1.05301 0.119391 4.341e-21)
(0.977242 -0.0115031 1.37409e-22)
(1.00007 -0.000137798 -4.02223e-24)
(1.17621 0.053403 1.59458e-21)
(0.99938 -0.000352745 3.45754e-23)
(0.999992 -4.21841e-06 5.61756e-25)
(1.06002 -0.0049624 4.19549e-22)
(0.986326 -0.0630434 -3.14967e-22)
(0.966357 -0.0342344 1.81471e-21)
(0.953837 -0.0252551 2.47713e-22)
(0.991838 -0.0222322 -5.73594e-22)
(0.9956 -0.000149904 8.28072e-23)
(0.989046 -0.00280181 -1.06214e-21)
(1.00057 -0.00657684 -3.73764e-24)
(1.05633 0.0448938 -3.37429e-21)