/*--------------------------------*- C++ -*----------------------------------*\
  =========                 |
  \\      /  F ield         | OpenFOAM: The Open Source CFD Toolbox
   \\    /   O peration     | Website:  https://openfoam.org
    \\  /    A nd           | Version:  7
     \\/     M anipulation  |
\*---------------------------------------------------------------------------*/
FoamFile
{
    version     2.0;
    format      ascii;
    class       volVectorField;
    location    "36";
    object      U;
}
// * * * * * * * * * * * * * * * * * * * * * * * * * * * * * * * * * * * * * //

dimensions      [0 1 -1 0 0 0 0];

internalField   nonuniform List<vector> 
29540
(
(1.00946 -0.0124811 2.43736e-23)
(1.00843 0.00423146 1.24407e-22)
(0.991706 -0.00300856 -1.54988e-22)
(0.971889 -0.0437409 5.31563e-23)
(0.997807 -4.69386e-05 2.21025e-23)
(0.96118 -0.0266301 -7.5247e-23)
(1.04867 -0.0770235 1.54268e-22)
(1.01234 -0.018947 -2.36237e-24)
(1.0018 -0.00175525 3.53884e-24)
(1.00017 -4.42866e-05 9.1243e-25)
(1.01361 -0.0253782 -1.09325e-24)
(0.997951 -0.0149017 -5.8849e-23)
(0.999569 -0.000175399 3.04283e-24)
(0.999973 -9.74445e-06 8.5452e-26)
(1.17292 0.0943391 1.77156e-22)
(0.994563 -0.00174994 2.38617e-23)
(0.999858 -0.00076762 -1.40014e-24)
(1.13836 -0.0153202 -7.68396e-24)
(0.998083 -0.00161525 -7.52545e-24)
(0.99021 -0.000721974 -3.46083e-23)
(0.999226 -0.00024767 -1.03224e-23)
(1.0017 -0.00175106 1.24111e-23)
(0.991627 -0.00318209 1.71309e-22)
(0.998076 -0.000154277 9.69724e-24)
(0.881715 0.121294 6.33182e-23)
(1.00933 0.00336364 6.67546e-22)
(0.999535 -5.28594e-05 6.93393e-24)
(0.941593 0.103639 -4.15816e-21)
(1.17887 0.0939406 -5.31355e-22)
(0.999226 -0.00816801 -1.10103e-23)
(1.01382 -0.0101901 1.77369e-23)
(1.03495 -0.00701604 -1.36503e-22)
(0.975556 -0.100972 5.5904e-22)
(0.998008 -0.0206309 3.02513e-23)
(0.939472 0.0987748 3.33688e-21)
(1.00254 -0.0295345 9.32031e-23)
(1.07191 0.0463239 -1.99001e-22)
(0.974632 -0.0246374 2.05032e-22)
(1.00477 -0.00074597 -4.85539e-23)
(1.00461 -0.000537322 9.24968e-23)
(1.00039 -0.000146442 -2.86566e-24)
(0.989501 -0.0271035 -2.0688e-22)
(0.999874 -0.000746208 -1.80252e-26)
(1.02036 -0.066388 -4.19131e-22)
(1.00003 -5.06022e-06 -1.73938e-25)
(0.999406 -0.00828616 8.0649e-24)
(0.997695 -0.0110673 -1.67794e-23)
(1.00007 -7.60994e-05 4.51482e-25)
(1.00299 -0.00329106 -5.0272e-23)
(1.07157 0.0433391 -8.14216e-23)
(1.10302 -0.0980925 1.20603e-22)
(0.975072 -0.0386429 -2.43309e-22)
(1.03489 -0.00614262 4.80782e-23)
(0.962383 -0.0264351 -1.22961e-22)
(0.994697 -0.00179509 -2.09464e-23)
(1.18285 0.0810021 -3.16711e-22)
(0.996975 -0.00201722 7.52855e-24)
(0.999205 -0.00027285 1.3078e-23)
(0.999717 -0.0194951 -4.34637e-23)
(1.00744 -0.053117 -1.71666e-22)
(0.999941 -6.31489e-06 2.00067e-25)
(0.99815 -0.00165533 -1.54853e-24)
(1.26866 -0.0132417 -2.44943e-22)
(1.00292 -0.0288844 -5.21271e-23)
(1.07005 0.116773 1.74185e-21)
(0.910513 0.0338799 8.40807e-21)
(0.99872 -0.0245063 -8.3377e-23)
(0.993391 -0.0123487 7.24278e-23)
(0.934484 0.0217395 3.37059e-21)
(1.00041 -0.000138177 1.85388e-24)
(1.01092 0.00404047 -9.09708e-22)
(0.988183 0.0870101 2.27594e-21)
(1.00285 -0.00815182 -1.84171e-23)
(0.903107 0.14119 2.31273e-21)
(0.992806 -0.000564728 1.10011e-22)
(1.1103 -0.0577551 -4.58146e-23)
(1.24909 0.154347 2.48595e-22)
(0.975826 -0.0140103 4.85921e-23)
(0.999956 -2.00149e-05 -5.67627e-25)
(1.00201 -0.0435228 -1.64642e-22)
(0.962896 -0.000620361 -8.09021e-23)
(1.02175 0.042527 5.38855e-22)
(1.00963 -0.0130228 -7.37615e-23)
(1 -5.62448e-05 6.21362e-26)
(1.05111 -0.0754539 -2.42082e-22)
(1.17587 -0.190522 -8.00724e-22)
(1.04059 0.102428 -3.40533e-21)
(0.999552 -0.000172827 -2.75722e-24)
(0.999582 -0.000156365 -8.08152e-25)
(0.943 -0.0335554 -3.17821e-22)
(0.992827 -0.0469815 2.89317e-22)
(0.975729 -0.0146752 5.50644e-23)
(1.0028 -0.00340049 8.53714e-24)
(1.05635 -0.0119568 -7.40403e-23)
(0.938334 -0.0142912 -2.65318e-22)
(1.05155 0.123888 1.68617e-21)
(0.993652 -0.0608581 4.73107e-22)
(1.00042 -0.000346558 4.59664e-24)
(0.972005 -0.0548348 -4.8471e-22)
(1.16603 0.123729 1.1382e-21)
(0.999954 -1.96202e-05 8.29936e-25)
(0.977017 -0.00914349 -2.91993e-22)
(0.999943 -7.73754e-06 -1.03483e-25)
(1.04317 -0.0198871 -3.5875e-22)
(0.973893 -0.0384568 1.60782e-22)
(1.03557 0.0127802 9.11125e-22)
(1.00434 0.082001 3.37511e-21)
(0.999599 -0.000158231 -6.83417e-24)
(0.999996 -6.24235e-05 -1.31282e-26)
(0.989251 -0.0986369 -2.83975e-23)
(0.97394 -0.0995773 -5.03346e-22)
(1.03779 -0.0399535 9.64897e-24)
(1.00001 -1.98596e-06 3.00034e-26)
(0.99896 -0.00552464 -2.83997e-23)
(0.999896 -0.00197166 1.08119e-24)
(0.991059 0.0891272 1.71774e-23)
(1.04502 0.0609891 -1.16184e-21)
(0.989517 -0.00644213 -1.1816e-22)
(1.00002 -6.13237e-05 3.90621e-26)
(1.00314 -0.0080773 -1.43538e-23)
(1.27318 -0.114537 3.01821e-21)
(1.00531 0.012273 1.47308e-21)
(1.16397 -0.0854655 -1.01373e-21)
(0.908389 0.0414085 -7.96912e-21)
(1.00098 -0.000321893 -1.17203e-23)
(1.16042 -0.0597877 1.57188e-22)
(1.13722 -0.0105436 -5.60817e-23)
(1.01162 -0.0515659 1.33642e-22)
(1.00358 -0.00312245 -4.5074e-23)
(1.00002 -0.000394455 3.56416e-26)
(1.02022 -0.0646025 1.47997e-22)
(1.25366 0.146585 9.33834e-23)
(1.00621 0.155202 4.14706e-21)
(1.16379 -0.106075 -3.00205e-22)
(1.04169 -0.0194512 3.01039e-22)
(1.01342 -0.00981607 3.39044e-22)
(1.08312 0.202481 2.77721e-22)
(0.97606 -0.000678208 4.26021e-22)
(1.07232 -0.193937 1.92021e-21)
(1.16782 0.117142 -8.78404e-22)
(1.16056 -0.05388 -1.51653e-22)
(0.949114 -0.0042745 -3.3959e-22)
(0.95705 -0.0368738 1.03374e-22)
(1.00001 -1.81181e-06 -1.30738e-26)
(0.99999 -3.50341e-06 4.62698e-26)
(0.99775 -7.79806e-05 -1.74536e-23)
(0.997868 -0.0108491 3.41376e-23)
(0.980783 -0.0777563 -3.79426e-22)
(1.09123 -0.157847 9.11921e-22)
(1.30423 0.0541193 -7.87169e-22)
(1.02791 -0.0184266 1.66641e-22)
(1.01593 -0.018366 5.22073e-23)
(1.00039 -0.000562172 7.07203e-24)
(0.999882 -0.000199112 8.00976e-25)
(1.00148 0.0204183 -3.29429e-21)
(1.00048 -0.00137473 8.18584e-25)
(0.993971 -0.0100589 1.3235e-26)
(1.09955 0.205453 -7.76275e-22)
(1.00443 0.0436181 -3.59553e-21)
(1.10652 -0.0953981 -2.70195e-22)
(0.964573 -0.00236505 1.39856e-22)
(0.972779 -0.0429099 3.74022e-22)
(1.18371 0.0871747 8.65189e-23)
(0.999956 -4.12566e-05 1.80924e-25)
(0.99999 -3.38585e-06 -1.72355e-26)
(0.989466 -0.00676947 4.18208e-23)
(0.958085 -0.036179 -5.48001e-22)
(1.00005 -0.00020224 -4.32285e-25)
(1 -5.96905e-05 2.42176e-26)
(0.993963 -0.00454714 -1.40952e-23)
(1.00003 -0.000382874 -2.67188e-26)
(1.00513 -0.00539344 -2.49645e-23)
(1.09446 0.209444 9.09428e-22)
(0.976401 -0.000359953 -3.50828e-22)
(1.02718 -0.105672 -1.87117e-22)
(0.995502 -8.78195e-05 7.0926e-23)
(1.00188 -0.00242587 2.63082e-24)
(0.976413 -0.00898349 4.93681e-22)
(0.999226 -0.00551444 -2.61947e-24)
(1.17246 -0.0763239 6.5763e-22)
(0.999981 -9.14281e-06 2.7753e-25)
(1.01038 -0.0353786 -8.03221e-23)
(1.04316 0.104608 1.21529e-21)
(0.993673 -0.0114796 -4.11598e-24)
(1.06877 -0.188839 -1.77164e-21)
(1.0339 0.0522569 -1.02657e-21)
(0.994399 -0.00250728 -1.02944e-22)
(0.98392 -0.0133918 1.28849e-22)
(1.00338 -0.00313765 6.86896e-23)
(0.999304 -0.00761743 -1.70193e-23)
(0.999753 -6.57035e-06 7.93141e-25)
(1.00516 -0.0162342 6.74281e-24)
(0.903426 0.0206736 3.33221e-21)
(1.00089 0.0164867 2.53436e-21)
(0.987332 -0.00543254 3.25091e-24)
(0.994238 -0.00991425 -4.55949e-23)
(0.98039 0.0446729 -3.10014e-21)
(1.01297 0.0330484 4.62594e-22)
(0.93957 -0.0141612 3.21002e-22)
(1.00103 -0.000429855 -9.17249e-24)
(1.05644 -0.0973882 3.03872e-22)
(0.969868 -0.0722363 5.01401e-22)
(0.998185 -0.0152161 2.79317e-23)
(1.00075 -0.000946044 -1.46832e-23)
(1.08643 0.207497 3.91153e-22)
(0.994154 -0.00455788 -9.35217e-24)
(1.00599 -0.00483815 -2.82758e-23)
(0.979464 -0.0771294 5.03865e-22)
(0.98912 -0.100784 7.23837e-23)
(0.999968 -4.61463e-06 6.83552e-26)
(0.976608 0.124671 -3.75869e-21)
(0.999085 -2.06224e-05 -1.7171e-25)
(1 -4.7955e-05 1.73968e-26)
(0.999518 -0.000184279 1.17721e-24)
(0.995328 -0.0474502 -1.07795e-22)
(1.26043 0.0171341 6.89854e-22)
(1.01132 -0.0347257 5.7126e-24)
(1.00581 -0.00451687 -1.93606e-23)
(0.998097 -0.000212054 2.40831e-23)
(0.940616 -0.0158006 -6.21835e-23)
(1.00003 -0.000419253 -1.12845e-25)
(1.00042 -0.00140136 7.89751e-26)
(0.99795 -0.000179974 -1.59244e-23)
(1.02608 0.00123645 8.4273e-22)
(0.99766 -0.00349145 -5.14407e-24)
(0.998984 -0.00513209 8.41769e-24)
(1.02544 -0.00134232 4.04539e-22)
(1.00011 -0.000342307 6.92795e-25)
(1.00003 -4.39288e-06 4.58285e-26)
(1.0044 -0.000538623 9.76745e-24)
(0.97798 -0.0282004 -1.92515e-22)
(0.97895 -0.000346804 -1.70017e-22)
(0.995774 -0.000333997 -7.54924e-23)
(1.01192 0.00317771 7.51459e-22)
(0.986211 -0.000993188 8.15679e-23)
(1.01617 -0.0177548 -5.21167e-23)
(0.999972 -1.08519e-05 2.39984e-25)
(0.997397 -0.002304 -2.8858e-23)
(1.0007 -0.000938948 1.58663e-23)
(1.05674 -0.093941 3.016e-22)
(1.01813 -0.165188 1.17899e-21)
(0.99878 -0.000110012 1.26076e-23)
(1.00041 -0.000499955 -5.44278e-24)
(0.998898 -0.00500946 -2.85785e-24)
(1.00306 -0.00721329 -3.59078e-23)
(0.990404 -0.000532743 -1.46479e-22)
(0.999957 -3.93319e-05 -1.12202e-26)
(1.17432 -0.184251 -1.81422e-21)
(1.00004 -0.000428648 1.2047e-25)
(1.02575 0.00117014 -5.93321e-22)
(0.997071 -0.00201965 -1.51328e-23)
(1.00013 -0.000332138 2.95284e-25)
(1.03455 0.0132437 -5.78908e-22)
(0.965952 -0.0688002 -5.20214e-22)
(1.00022 -3.76173e-05 3.0059e-24)
(1 -1.13863e-05 1.08953e-26)
(0.948982 -0.00305855 -3.86157e-22)
(1.01005 -0.150885 -1.81754e-22)
(0.992363 -0.00721989 -1.11456e-23)
(1.01065 -0.0526056 -3.45949e-23)
(1.02868 -0.0191443 -2.73148e-23)
(1.0493 0.10113 1.51496e-22)
(1.00007 -7.18428e-05 1.25056e-25)
(0.978399 -0.0276416 1.81e-22)
(1.22378 -0.102036 1.2693e-21)
(0.960555 0.0672565 7.51549e-23)
(0.993601 -0.0112196 3.35019e-23)
(1.03257 0.0505337 1.25009e-21)
(1.11123 -0.0535918 -2.63995e-23)
(0.999894 -0.00216917 -1.38076e-24)
(0.812219 0.0569542 5.01663e-21)
(0.99952 -0.000387993 -7.91403e-24)
(1.02579 -0.10836 -2.36597e-22)
(0.941565 -0.0158093 3.97815e-22)
(1.002 -0.00229277 -1.45072e-23)
(1.21329 -0.0281485 -4.61972e-22)
(0.992438 -0.000817968 -8.75634e-23)
(1.00868 0.167819 2.87886e-21)
(0.99693 -0.000232362 7.02106e-24)
(0.984351 -0.0144538 -6.76524e-24)
(0.999816 -0.00197066 -7.05197e-24)
(1.14365 0.162384 2.96308e-22)
(0.99985 -0.0154683 7.5302e-24)
(1.04784 0.124794 1.06755e-22)
(0.999548 -4.09343e-05 -3.03425e-24)
(0.994837 -0.0016616 -3.31123e-23)
(0.957406 0.151716 -1.92996e-21)
(1.03067 0.000121506 -6.87506e-22)
(1.02524 -0.000963524 4.70549e-22)
(0.973514 -0.0356159 4.50821e-22)
(0.999865 -2.90483e-05 8.02513e-25)
(1.00297 -0.00696737 -4.03373e-24)
(0.999854 -0.000838051 -2.5223e-24)
(1 -4.54361e-05 1.38039e-26)
(1.05706 0.00365645 1.78043e-22)
(1.00004 -4.74578e-06 4.20371e-27)
(0.982331 -0.0127787 3.04887e-22)
(1.21791 -0.10251 -1.15448e-21)
(0.878983 0.12665 -4.89584e-21)
(1.00981 0.155738 -6.38544e-21)
(0.969612 -0.0598599 1.59488e-22)
(0.987188 -0.026278 1.14513e-22)
(0.979953 -0.00134135 8.0854e-23)
(1.03012 -0.0361429 5.09065e-23)
(1.00568 -0.0160255 -1.63464e-23)
(0.983805 -0.0140303 -1.77979e-22)
(0.969759 -0.0656411 7.05209e-23)
(1.04737 0.103963 -2.27352e-21)
(0.999476 0.0151517 4.96863e-21)
(0.99886 -0.000134358 6.9498e-24)
(1.00588 0.0830736 -4.64674e-21)
(1.05597 0.00222392 5.74978e-23)
(1.17043 -0.0838822 2.88441e-22)
(1.01215 -0.0145709 2.56416e-23)
(1.00082 -0.0142684 -3.88641e-23)
(1.01814 -0.0488979 -9.75204e-23)
(0.995208 -0.0016077 -7.80527e-23)
(0.997626 -0.0005847 -5.06812e-24)
(0.999946 -6.08131e-06 1.05633e-24)
(0.999158 -0.00780261 2.51176e-23)
(1.09041 -0.0520307 5.64138e-24)
(1.14458 0.168614 -5.21705e-22)
(1.00145 -0.00124649 6.79963e-24)
(0.975605 -0.0231126 -2.43207e-22)
(1.01392 -0.0149484 -8.03609e-23)
(0.999966 -1.48693e-05 -9.16657e-26)
(0.969676 -0.0626488 -2.52913e-22)
(0.852303 0.0983671 -2.22614e-21)
(0.994457 -0.00428534 1.16156e-22)
(0.999011 -0.00410181 7.76157e-24)
(1.0127 -0.0144124 -1.59443e-23)
(1.0018 -0.0422642 2.0497e-22)
(1.0938 0.0296611 2.11965e-22)
(0.999482 -0.00885836 -4.01534e-24)
(0.999971 -4.78103e-05 5.96589e-25)
(1.00001 -2.79706e-06 1.47702e-26)
(0.997594 -0.000532675 -5.64604e-24)
(0.955198 0.150519 2.79434e-21)
(1.04629 -0.0302519 6.17562e-23)
(1.02229 -0.165007 -2.93327e-22)
(1 -1.13973e-05 9.73631e-28)
(1.00694 -0.153461 1.17617e-22)
(1.08242 -0.00694462 -2.07484e-22)
(0.995392 -0.000146951 -3.55668e-23)
(0.943746 -0.00578626 -4.76403e-22)
(0.999087 -0.0040306 -7.78973e-24)
(0.999609 -0.000177319 -4.997e-25)
(0.979095 -0.025 -5.34807e-23)
(1.00083 -0.00103837 -7.09209e-24)
(1.17859 -0.0744661 -5.9264e-22)
(1.00838 -0.000969906 -2.057e-22)
(1.24195 0.107311 -1.01179e-22)
(0.999928 -0.00214104 1.78656e-24)
(1.00378 -0.0127317 5.62124e-24)
(1.00513 0.0108467 -1.99302e-21)
(1.26761 -0.109383 -1.23766e-21)
(1.00038 -0.000529274 -4.15614e-24)
(1.0004 -0.000468931 4.066e-25)
(0.993812 0.105283 2.31319e-22)
(0.993751 -0.0479458 -5.71421e-23)
(0.999328 -0.00872184 4.92592e-24)
(1.0118 0.0366006 2.44494e-22)
(0.972172 0.0228929 6.1063e-21)
(1.10232 -0.102687 -4.18082e-22)
(0.998756 -0.0236588 -2.45033e-23)
(1.2551 0.020255 -6.84977e-22)
(0.99931 -6.65885e-05 -5.20711e-24)
(0.992173 -0.00377259 3.07652e-23)
(0.996994 -0.00024447 -1.94955e-23)
(1.01464 0.0315473 3.25743e-25)
(0.999989 -0.000689127 1.7169e-25)
(1.00809 -0.00118618 2.1017e-22)
(1.11577 -0.158465 2.20672e-23)
(1.00375 0.146426 6.48547e-21)
(0.906536 0.145807 -1.06596e-21)
(0.994569 -0.00250266 4.17878e-24)
(0.992141 -0.00704678 3.33785e-23)
(1.06687 0.120234 -1.39581e-21)
(1.00766 -0.0547676 2.487e-22)
(0.999948 -7.29319e-06 -1.03047e-24)
(1.28846 0.0998523 -5.53009e-22)
(1.02544 0.00175144 -2.53567e-22)
(1.02498 0.00171901 -1.72552e-22)
(0.994697 -0.0122207 -4.96791e-23)
(1.01733 -0.00183084 -3.27767e-22)
(0.945941 0.134419 9.56702e-22)
(1.0833 -0.164286 -2.6387e-22)
(0.979094 0.133829 1.00948e-21)
(0.995011 0.132702 -1.69608e-21)
(0.999997 -5.98305e-05 4.15992e-26)
(1.08734 -0.0504575 2.39233e-23)
(1.08582 -0.159719 1.70184e-22)
(0.997551 -0.00352231 1.3455e-23)
(1.00148 -0.00133621 -1.12258e-23)
(0.966602 0.0270945 1.46658e-21)
(1.0479 -0.0312372 -7.80708e-23)
(1.00026 -6.92383e-05 6.87256e-25)
(0.981086 -0.0537322 -5.70192e-22)
(0.96903 -0.0740086 -2.35356e-22)
(0.994949 -0.00170755 4.65344e-23)
(0.999891 -0.000193341 -1.00382e-24)
(1.06039 0.148273 -2.28158e-22)
(1.0445 0.0586511 1.93991e-21)
(1.00004 -0.000469793 -3.45771e-26)
(1.00372 -0.0033718 8.8523e-24)
(1.0048 -0.00338813 4.80126e-23)
(1.17035 -0.141367 1.28031e-21)
(0.973595 -0.0346622 -3.99201e-22)
(1.00006 -0.000557747 -2.8752e-25)
(0.999987 -2.29899e-06 -2.50293e-26)
(1.00045 -0.000151971 1.09202e-24)
(1.09219 0.0313529 -1.9707e-23)
(0.974653 -0.0237689 -1.96358e-22)
(1.00246 0.0438163 1.05731e-21)
(0.951013 -0.040424 2.53335e-22)
(0.98792 -0.0261902 -1.18342e-22)
(0.978346 -0.00103945 -3.37292e-22)
(1.01349 0.0355214 -1.20404e-21)
(1.25952 -0.0113224 -6.47817e-23)
(0.998895 -0.000142919 1.2726e-23)
(1.00722 -0.00554055 -5.13439e-23)
(1.00077 -0.00102746 8.04122e-24)
(0.977525 0.146976 -2.61253e-21)
(0.976516 -0.0216039 1.04237e-22)
(1.001 -0.000261709 -3.84012e-24)
(0.993109 -0.00336738 -4.17311e-23)
(1.16682 -0.049419 -2.01947e-22)
(0.999564 -0.00952072 -1.09343e-23)
(0.989358 -0.0115713 -2.33757e-23)
(1.00022 -0.000131907 -2.08654e-24)
(1.00022 -5.05327e-05 -9.2266e-26)
(0.848192 0.105056 3.49434e-21)
(0.992495 -0.00121914 -5.46068e-23)
(0.995594 -0.00442294 4.78259e-23)
(0.999653 -0.00174682 -6.18572e-24)
(0.999327 -5.09379e-05 -7.15229e-25)
(1.05695 0.0984183 -7.51858e-22)
(1.12104 -0.162088 6.99676e-23)
(0.985274 -0.039172 7.25264e-23)
(1.00002 -2.11671e-06 -1.50227e-26)
(1 -3.65539e-05 1.25465e-26)
(0.975606 -0.0223466 2.75923e-22)
(0.993789 -0.00179454 1.10743e-23)
(0.995246 -0.00205219 -6.36376e-24)
(1.01351 -0.00514798 1.00127e-22)
(1.00539 -0.00230566 1.72689e-23)
(1.00009 -0.0158486 -1.36851e-23)
(1.13263 -0.0324847 -5.07126e-23)
(0.983047 -0.00407342 -6.87384e-23)
(0.981273 0.131299 -8.19698e-22)
(1.01279 -0.025352 -1.4571e-23)
(1.00023 -0.000132395 2.32093e-24)
(0.968961 -0.0586899 2.36827e-23)
(0.983943 -0.0346592 -2.47773e-22)
(1.20259 -0.019428 -1.88839e-22)
(0.997322 -0.00580252 -1.44553e-23)
(0.988191 -0.0461634 -8.88071e-23)
(0.99998 -5.45254e-06 1.52204e-25)
(0.922033 0.106708 -3.35112e-21)
(1.01443 -0.00216471 1.83301e-22)
(1.00008 -0.000225365 -7.03066e-25)
(0.903218 0.0282587 -4.29047e-21)
(0.984307 -0.0393076 1.66893e-22)
(0.99998 -6.32266e-06 2.4265e-26)
(1.00134 -0.00121767 3.31681e-24)
(0.968904 -0.0613584 -1.40587e-22)
(1.03639 -0.038527 1.56746e-23)
(1.04851 -0.0142743 2.12093e-22)
(0.999992 -3.78163e-06 3.65673e-26)
(0.992454 -0.000622943 4.3653e-23)
(1.01911 -0.0479194 1.8051e-22)
(0.995089 -0.00156707 6.44095e-23)
(0.999567 -4.70245e-05 -1.64663e-23)
(0.992326 -0.00389619 8.00366e-25)
(0.976681 0.047497 3.61135e-22)
(0.99328 -0.011996 -6.03766e-23)
(0.989806 -0.0113416 1.7051e-23)
(1.00162 0.0240392 -1.02207e-21)
(0.997444 -0.00217636 1.50389e-23)
(0.971137 0.14887 -3.38207e-22)
(0.999979 -6.34574e-06 -7.75299e-26)
(0.989833 -0.0264551 4.80328e-23)
(0.979516 -0.073471 5.86478e-22)
(0.989063 -0.0465357 1.51203e-22)
(1.20691 -0.114615 3.26726e-22)
(0.998871 -0.00536707 1.90505e-23)
(1.00837 -0.023573 -3.91936e-25)
(0.999912 -0.00230626 3.09473e-25)
(0.983978 -0.0203948 -1.36631e-22)
(1.03744 -0.041861 -2.52192e-24)
(0.999967 -1.42274e-05 4.66027e-25)
(1.00002 -1.1786e-06 -2.46176e-26)
(0.994096 -0.000403407 2.94659e-23)
(0.980003 0.0927415 2.33731e-21)
(1.01184 -0.0196083 8.34554e-23)
(1.00241 -0.00343121 -1.39264e-23)
(0.939541 -0.0295639 3.39418e-22)
(1 -1.02798e-05 2.69822e-27)
(1.00092 -0.00113413 -1.28657e-23)
(0.999967 -0.000656919 -1.85702e-25)
(1.0132 -0.0188447 9.86678e-23)
(0.984269 -0.0150904 2.37132e-23)
(0.999641 -0.000275957 2.06998e-24)
(0.993739 -0.0107097 2.30166e-23)
(0.988471 -0.0067073 -2.46167e-23)
(1.00096 -0.000157105 -1.05733e-24)
(0.999978 -7.30553e-06 -4.85545e-26)
(1.23859 -0.0702844 -1.21382e-21)
(0.999689 -0.00171793 6.63866e-24)
(1.07918 -0.0118225 1.54007e-22)
(1.021 0.143071 6.19723e-21)
(1.06124 0.118814 -1.29854e-21)
(1.00023 -0.019999 -5.17342e-23)
(1.00528 -0.00209216 -5.70236e-24)
(1.01768 -0.00145618 2.0046e-22)
(0.999959 -0.00235783 -3.50185e-25)
(0.997853 -0.0101057 2.40604e-23)
(1 -1.68569e-05 2.0013e-26)
(0.991882 0.133114 -1.2354e-22)
(0.988447 -0.0152134 3.31597e-23)
(1.01326 -0.00475261 -7.14925e-23)
(0.983423 -0.00423014 1.40387e-22)
(1.00333 -0.0125127 7.25881e-25)
(0.997481 -0.00570805 3.12071e-23)
(0.999902 -0.000198147 2.37018e-25)
(1.00002 -1.14035e-06 -1.38409e-25)
(0.995742 -0.00440643 -3.47926e-23)
(1.0564 -0.0137378 -1.12907e-22)
(1.00464 0.0457664 1.62267e-22)
(1.00115 -0.000463264 -1.56122e-23)
(0.973485 -0.0550205 -1.25231e-22)
(0.976476 -0.0209515 -4.7087e-23)
(0.99264 -0.000487904 -1.6312e-22)
(1.29649 0.0524234 4.95738e-22)
(0.998778 -0.000937797 -7.54062e-24)
(1.00337 -0.0141435 -1.17159e-23)
(0.994872 -0.00269822 3.22897e-23)
(0.99991 -0.000191052 1.98504e-25)
(0.968892 -0.0641834 1.59391e-22)
(1.00204 0.0371255 -1.64337e-21)
(1.03312 0.0457617 -1.27717e-21)
(0.978874 -0.0140719 -2.27456e-23)
(1.00149 0.0350748 -7.02275e-23)
(1.00008 -0.000211705 1.3532e-24)
(1.00002 -1.52656e-06 4.2421e-26)
(1.28261 0.0958911 1.5488e-22)
(1.21114 -0.0212365 3.67457e-22)
(0.904555 0.108294 -1.62874e-22)
(0.994586 -0.0786757 4.56084e-22)
(0.978577 -0.00143576 -1.06161e-22)
(1.16635 -0.0425702 2.9857e-22)
(1.00109 -0.000482346 1.76822e-23)
(0.994681 -0.00363333 1.85072e-23)
(1.00043 -0.000161263 -1.04102e-24)
(0.990005 -0.000682569 -3.57067e-23)
(0.988875 -0.0124494 -4.84762e-23)
(0.999996 -3.27881e-05 -1.10423e-25)
(0.999165 -3.20196e-05 2.9779e-24)
(1.00327 0.143053 -5.89764e-21)
(0.999878 -0.000682232 2.27607e-24)
(0.931157 0.0986814 4.01251e-21)
(1 -1.60364e-05 -1.53911e-26)
(1.29494 -0.0496427 -1.37968e-21)
(1.07903 -0.0141105 -3.39876e-22)
(1.13286 -0.0284235 5.14591e-23)
(1.00098 -0.000456758 1.05746e-24)
(1.00018 -4.05519e-05 1.84792e-24)
(0.984773 0.0877613 -3.48325e-21)
(1.0824 -0.00954193 6.95832e-22)
(0.978859 -0.0747895 -5.42001e-22)
(1.02266 0.0446188 5.87084e-22)
(0.997571 -0.0202274 2.10213e-23)
(0.987456 -0.00512021 -3.62652e-23)
(0.996189 -0.000209264 -1.95237e-23)
(1.15347 0.203882 -2.32442e-21)
(0.977315 -0.0250832 1.71332e-22)
(1.03071 -0.034663 -3.9671e-23)
(0.993987 -0.0106162 -1.31671e-23)
(1 -1.02321e-05 -3.53002e-28)
(0.99879 -0.00088569 -6.40951e-24)
(1.00564 -0.00583318 2.96885e-23)
(0.982796 -0.00754169 1.80151e-22)
(0.979411 -0.0141959 3.39462e-23)
(0.959428 -0.0369217 -5.38471e-23)
(0.982612 -0.00799489 -1.3634e-22)
(1.01815 0.00291236 1.0153e-22)
(0.998 -0.000136097 3.99543e-25)
(0.94427 -0.0340061 1.78633e-22)
(0.986828 -0.000872441 -5.03072e-23)
(1.00004 -0.000204414 1.71506e-25)
(0.988498 -0.000700721 -3.4924e-23)
(1.0311 -0.0375157 -4.52828e-23)
(1.01739 0.00311484 -5.61639e-22)
(0.975466 -0.0251663 -4.27135e-23)
(0.999984 -7.55707e-07 -6.90287e-28)
(0.983546 -0.0154068 3.58597e-23)
(1.00189 -0.0144231 5.10619e-24)
(1.00131 -0.00113002 4.26938e-24)
(1.10237 -0.173148 -7.82663e-22)
(1.00175 0.0342612 -3.84391e-21)
(1.00085 -0.00111997 1.1946e-23)
(0.988694 -0.000529077 4.70078e-25)
(1.09343 -0.100431 1.79908e-23)
(1.02662 0.000286597 8.39578e-22)
(0.990837 0.030318 -3.85363e-22)
(1.00174 -0.00238876 3.79313e-24)
(1.00003 -0.0208251 1.6056e-23)
(1.11773 0.146117 -4.062e-22)
(1.01554 0.0280018 -2.96772e-21)
(0.990819 -0.0264095 1.27999e-22)
(1.00451 -0.00338758 -5.37531e-24)
(0.954947 -0.043505 2.5633e-22)
(0.999998 -5.44866e-06 1.93552e-26)
(0.955217 -0.00185385 -1.78624e-22)
(1.00008 -6.70733e-05 2.54613e-25)
(1.09025 -0.100598 -9.39143e-22)
(0.999969 -3.37949e-06 -5.13356e-26)
(1.00003 -5.99515e-05 1.39375e-25)
(0.999603 -0.0232763 -1.95335e-23)
(1.2741 -0.00548788 5.98087e-22)
(1.03753 0.183076 2.65749e-21)
(1.03436 -0.0388766 -5.93596e-23)
(1.01325 -0.0150778 5.34721e-23)
(0.999999 -4.38264e-06 -4.87923e-27)
(0.994257 -0.00431503 -6.28552e-23)
(1.00009 -2.05681e-05 -1.91741e-25)
(0.997043 -0.002315 2.15172e-23)
(1.00003 -5.58578e-05 -1.08275e-25)
(1.04873 -0.0122651 -6.60207e-22)
(0.999556 -0.000456562 -8.11541e-24)
(1.06264 0.0608447 1.24107e-21)
(0.999881 -0.000211063 -1.53151e-24)
(0.98791 -0.00500608 -6.09358e-23)
(0.962105 -0.00100544 4.00045e-22)
(0.995993 -0.000288265 -2.50847e-23)
(0.98442 0.0462951 3.70884e-21)
(0.983855 -0.000679064 9.76843e-23)
(1.01544 -0.102642 4.13069e-23)
(0.994818 -0.00381169 9.59761e-23)
(1.02476 -0.00265735 -1.70436e-22)
(0.971135 -0.0556636 5.80113e-22)
(1.01882 -0.00137003 -5.62244e-22)
(1.03444 -0.0730841 -1.82001e-23)
(0.999987 -1.90619e-06 6.26772e-27)
(0.999018 -0.0196483 1.76405e-23)
(0.996251 -0.000276239 3.0645e-24)
(1.00024 -8.90444e-05 1.40105e-24)
(1.00008 -1.7327e-05 3.18244e-25)
(1.15968 0.207159 2.53379e-21)
(0.995403 -0.002059 5.36245e-23)
(1.02642 0.00110749 9.62805e-22)
(1.00063 -0.0213502 1.99041e-23)
(1.00081 -0.000294168 4.08959e-24)
(1.02295 -0.00839798 -6.12037e-22)
(1.00016 -3.84291e-05 -4.06377e-24)
(0.999977 -3.3895e-06 -6.85032e-27)
(0.955744 -0.00247079 1.37213e-22)
(0.996712 -0.00117526 2.42159e-23)
(1.00003 -5.44039e-05 1.65201e-25)
(1.07475 0.117009 9.21598e-22)
(0.866044 0.0859614 -6.11827e-21)
(0.999801 -0.000223293 3.84228e-24)
(0.963749 -0.00203222 -1.0813e-22)
(1.00002 -1.52572e-06 3.01542e-26)
(0.942131 0.131374 -3.85198e-21)
(1.30267 -0.0515875 -1.81436e-21)
(0.971933 -0.0447761 -4.58541e-22)
(1.00005 -0.000539316 -3.42176e-25)
(1.02965 -0.0333822 1.05633e-22)
(1.03034 -0.00287384 -2.36151e-22)
(1.03142 7.74356e-05 7.10145e-23)
(1.0497 -0.015054 -8.0831e-23)
(0.999655 -0.00184102 -9.67546e-25)
(0.999876 -0.000817034 1.99462e-24)
(0.986746 -0.015096 -1.05468e-22)
(1 -9.09312e-06 -1.50818e-27)
(1.00001 -1.3887e-06 -7.73974e-27)
(0.976551 -0.0246144 -1.00786e-22)
(0.995073 -0.0602008 -2.36616e-22)
(0.960576 -0.0362826 -1.37579e-23)
(0.888502 0.122039 -1.34601e-22)
(1.00019 -2.47459e-05 -1.70722e-24)
(1.01146 -0.0770726 -5.31904e-22)
(1.00699 -0.00519908 -5.27481e-23)
(0.999979 -3.61048e-06 7.89379e-26)
(0.999034 -0.00381945 -1.6791e-23)
(1.00003 -0.000456948 -2.08208e-25)
(0.995702 -0.0124127 3.74783e-23)
(1.00004 -1.00792e-05 1.88257e-25)
(1.0363 -0.0720157 -4.38062e-23)
(1.01845 -0.00167136 5.45827e-22)
(0.973059 0.146184 8.93952e-22)
(1.02425 -0.0025107 6.39732e-22)
(0.999738 -0.000218891 3.01785e-24)
(1.00043 -0.000378136 -4.00417e-24)
(1.16669 -0.147838 -1.30436e-21)
(1.02638 0.000836792 -7.73699e-22)
(0.997093 -0.000379314 2.20399e-23)
(1.00002 -1.57275e-06 6.52196e-26)
(1.09316 0.100504 -1.46033e-21)
(1.05825 -0.184664 -3.06259e-22)
(0.994883 -0.0770515 -1.99626e-22)
(0.986468 -0.000742383 -2.6416e-23)
(0.99998 -2.17454e-05 1.5724e-25)
(0.99974 -0.000206459 -1.76873e-24)
(1.06189 -0.18949 8.52626e-22)
(0.996366 -0.0483496 -6.402e-23)
(1.04017 0.0321083 1.8096e-22)
(0.980618 0.126698 3.41625e-21)
(1.01471 -0.0999615 2.98978e-22)
(0.998808 -8.19053e-05 -3.967e-24)
(0.999981 -1.02365e-05 -1.81198e-25)
(0.964541 -0.0473423 4.46607e-22)
(0.972417 -0.0948017 -6.15894e-22)
(0.999809 -0.000231271 2.04822e-24)
(1.009 -0.0229406 2.61889e-23)
(0.991138 -0.0257164 -2.27692e-23)
(0.995639 -0.00220864 2.11436e-23)
(0.99845 0.0289432 -2.89143e-21)
(0.998789 -0.000528361 1.42302e-23)
(1.04964 -0.0557506 -4.395e-23)
(1.24987 0.16126 -3.90105e-22)
(0.992733 -0.00317469 -6.13341e-23)
(0.902287 0.102075 -5.94471e-22)
(0.91253 0.0483193 1.82759e-21)
(0.999971 -5.0546e-05 -5.99712e-25)
(0.999975 -0.000718405 -1.75153e-25)
(0.984047 -0.000902799 -6.2163e-23)
(1.01257 -0.00464547 -1.2951e-22)
(0.965238 -0.00187715 2.28433e-22)
(1.00491 -0.00420532 -5.50927e-23)
(0.992993 -0.00318593 5.71448e-23)
(0.999465 -0.000485793 -6.19828e-24)
(0.952378 0.132189 -6.86475e-22)
(1.06315 0.0579429 -1.92282e-21)
(1.00215 -0.00231662 9.7469e-24)
(0.820263 0.0538747 -1.24453e-21)
(1.00002 -1.31314e-06 -4.34348e-26)
(1.02479 0.00667265 -1.37316e-21)
(0.987065 -0.0938479 4.35378e-22)
(1.01375 -0.0773634 2.08065e-22)
(1.00009 -0.000205686 -6.88834e-26)
(0.963607 -0.00102567 1.8573e-22)
(1.02227 0.00605774 7.75734e-22)
(1.01223 -0.00496591 1.07152e-22)
(1.02982 -0.00174892 3.29835e-22)
(0.999578 -3.69283e-05 1.16213e-23)
(0.99955 -0.000486248 7.34909e-24)
(1.02227 -0.0469676 5.53945e-23)
(0.996766 -0.00126621 -6.92669e-23)
(0.988083 -0.0113075 -1.14571e-22)
(0.999152 -0.00346212 9.94792e-25)
(1.09095 0.0392865 8.6991e-22)
(0.998744 -0.020464 -1.19434e-23)
(0.995336 -0.00468047 1.20503e-24)
(0.936628 -0.0249878 -5.05653e-22)
(0.996477 0.105193 3.79595e-22)
(1.11593 -0.0506588 1.47212e-22)
(1.02243 -0.00804741 4.90437e-22)
(0.999626 -0.000177989 2.20868e-24)
(0.999521 -0.000318103 9.98769e-25)
(0.98329 -0.0201322 2.75207e-22)
(1.00094 -0.00122039 -9.58238e-24)
(0.997564 -0.000669784 -3.93718e-24)
(0.999981 -2.08706e-05 -5.98976e-26)
(0.999691 -0.00187579 1.84852e-25)
(1.02164 0.00557555 -3.02128e-22)
(0.983729 0.0916093 -3.35588e-21)
(0.99988 -1.52032e-05 4.77498e-25)
(1.18994 0.18437 -1.74904e-21)
(0.999996 -4.08721e-05 4.74079e-26)
(0.996948 -0.00274211 2.93684e-23)
(0.999992 -9.35938e-05 6.71995e-26)
(1.00495 -0.00364158 -2.44568e-23)
(1.23872 -0.0780321 9.55058e-22)
(0.999963 -4.25153e-05 5.10085e-26)
(0.999962 -4.55208e-05 3.59018e-25)
(0.950047 -0.0408461 -2.50606e-22)
(1 -9.00919e-06 -1.2996e-27)
(1.0531 -0.0152018 6.72444e-22)
(0.987378 -0.0402213 2.31884e-22)
(0.999978 -0.000631368 1.92834e-25)
(1.0905 0.0755987 -1.12205e-21)
(1 -2.92783e-05 -3.00776e-26)
(0.999626 -3.82385e-05 1.01538e-23)
(0.999917 -3.49987e-05 1.66745e-26)
(0.995503 -0.00468996 -1.79081e-23)
(0.999684 -0.00149563 -3.13624e-24)
(0.994209 -0.000306321 -1.98674e-23)
(0.994017 -0.113524 -4.97691e-23)
(0.99972 -0.00145641 2.09737e-24)
(1.00396 -0.00338787 -1.89986e-23)
(0.999977 -2.47078e-06 -2.96276e-26)
(1.04016 0.179492 -5.02098e-21)
(1.04782 -0.0566568 -1.16811e-22)
(1.11961 -0.0520529 5.99298e-23)
(0.96762 -0.00562549 2.47654e-22)
(0.978986 -0.00405269 -4.54373e-23)
(0.999119 -0.00373586 2.77233e-23)
(1.00275 -0.00258462 2.64937e-23)
(1.05141 0.0748533 5.39233e-22)
(0.983285 -0.0356354 3.37239e-23)
(1.1419 0.122633 4.95808e-22)
(0.9598 -0.0126652 -4.51662e-22)
(0.99684 -0.00264717 -2.771e-23)
(0.999991 -4.47729e-06 -6.64144e-26)
(0.994696 -0.00270708 -3.88963e-23)
(1.01249 0.16996 1.32957e-21)
(1.08109 0.0872362 -2.64262e-22)
(0.982544 -0.0534385 1.9402e-22)
(0.946035 -0.00540352 1.04796e-22)
(1.04618 0.170314 1.33309e-21)
(0.992078 -0.000556453 5.12041e-23)
(0.983472 -0.0856167 3.44299e-23)
(0.999992 -8.95768e-05 1.27638e-25)
(0.986319 -0.04036 2.89142e-22)
(0.99922 -0.000219867 -1.47316e-23)
(0.833073 0.0917801 -3.60214e-21)
(0.978806 -0.0698526 -4.45319e-22)
(0.999919 -3.1409e-05 8.82146e-25)
(0.942645 -0.017449 -2.70055e-23)
(0.98307 -0.0377932 1.58631e-23)
(1.03647 0.083023 1.99956e-21)
(0.997598 -0.000731096 -3.70573e-23)
(0.981355 -0.0363795 -1.01369e-22)
(0.997674 -0.0103572 -3.37153e-23)
(0.999697 -0.0224968 -4.03723e-23)
(0.998821 -0.000537795 -9.67977e-24)
(1.035 0.0812692 -2.42231e-21)
(1.01492 -0.160122 5.11217e-22)
(0.98348 -0.0160375 -7.97679e-23)
(0.987274 -0.0140449 1.70277e-24)
(0.98801 -0.0047296 -2.48351e-23)
(1.00495 -0.00197841 -2.24959e-23)
(1.04829 0.165644 5.1584e-21)
(0.983479 -0.0130084 3.59027e-23)
(1.0148 0.0422004 1.28415e-21)
(1.00253 -0.0020725 2.01633e-23)
(1.21431 -0.113386 -1.85303e-23)
(0.927842 0.105603 6.08809e-22)
(0.991922 -0.000433491 -1.77958e-22)
(0.999787 -4.01958e-05 1.98924e-24)
(1.05477 0.101412 5.89415e-22)
(1.00002 0.137037 -4.94093e-21)
(1.02166 -0.0452543 -7.04856e-23)
(1.08051 -0.0515695 -1.6275e-23)
(0.995487 -0.0128666 -4.22523e-23)
(0.968111 -0.00508894 -1.47117e-22)
(1.11414 0.142542 1.60256e-21)
(0.963301 -0.0474733 7.2863e-23)
(0.999978 -2.08818e-05 2.03089e-25)
(0.993124 -0.000107943 -9.0903e-23)
(1.00004 -5.43766e-06 1.90683e-25)
(0.995856 -0.000258937 6.83987e-23)
(0.999977 -2.19335e-05 -3.18718e-25)
(0.997987 -0.0144525 5.83744e-23)
(0.99911 -3.54935e-05 5.2551e-24)
(0.997446 -0.00541195 3.62202e-24)
(1.18315 -0.13333 -2.31708e-22)
(0.999449 -0.000372168 5.29769e-24)