/*--------------------------------*- C++ -*----------------------------------*\
  =========                 |
  \\      /  F ield         | OpenFOAM: The Open Source CFD Toolbox
   \\    /   O peration     | Website:  https://openfoam.org
    \\  /    A nd           | Version:  7
     \\/     M anipulation  |
\*---------------------------------------------------------------------------*/
FoamFile
{
    version     2.0;
    format      ascii;
    class       volVectorField;
    location    "25";
    object      U;
}
// * * * * * * * * * * * * * * * * * * * * * * * * * * * * * * * * * * * * * //

dimensions      [0 1 -1 0 0 0 0];

internalField   nonuniform List<vector> 
115545
(
(1.03882 -0.0534586 2.15533e-22)
(0.999994 4.05749e-07 -4.7206e-25)
(0.983583 -0.0137836 3.28334e-22)
(0.995901 -0.0044598 -5.69488e-23)
(1.00206 -0.00489899 6.93098e-24)
(0.998901 -0.00164172 1.58005e-23)
(1.02729 0.14356 -1.24567e-20)
(1.06606 -0.0999961 4.16557e-22)
(0.999636 -0.000551322 -5.54984e-25)
(0.999994 3.62055e-07 9.75802e-26)
(0.999721 -3.05143e-05 4.70934e-24)
(1.00017 -0.000149191 3.6713e-24)
(0.998424 -0.00536136 -2.13776e-23)
(0.898267 -0.0071965 -1.18384e-21)
(0.999634 -0.000564913 5.53633e-24)
(0.911883 -0.0322616 -2.74575e-21)
(0.999846 -0.000427494 9.18253e-25)
(0.999557 -0.000304394 -7.52375e-24)
(0.989895 0.14529 1.59429e-20)
(1.00212 -0.00495896 3.77697e-23)
(1.0725 -0.100036 3.80261e-21)
(0.993288 -0.000202348 -2.63678e-23)
(0.999482 -0.000404433 -7.34567e-24)
(0.993705 -0.00642015 -3.89871e-23)
(0.880848 0.043724 1.62359e-20)
(1.1334 0.0263528 2.91099e-21)
(1.2633 0.00799482 1.15579e-21)
(1.02088 -0.00493835 1.11283e-21)
(0.99998 -5.94243e-05 -2.76125e-25)
(1.0591 0.247001 -1.32997e-20)
(0.999854 -5.94959e-05 2.96408e-24)
(1.05738 0.012335 1.0336e-21)
(1.00861 -0.012883 -2.69443e-23)
(0.982995 -0.0072303 -3.01485e-22)
(0.865254 0.120985 7.39344e-21)
(0.997687 -0.00138694 9.76943e-23)
(1.03705 0.157661 2.12145e-21)
(0.999845 -0.000437343 -3.48748e-25)
(1.26176 -0.0915903 4.60634e-22)
(1.03129 0.0797014 1.92287e-20)
(1.05799 0.012961 -2.0084e-21)
(0.999551 -0.000315101 -1.52547e-24)
(0.979523 -0.0256488 -6.23382e-22)
(0.997694 -0.00134397 -6.94436e-23)
(0.959952 -0.07164 -1.1498e-22)
(0.898903 -0.00646639 1.23329e-21)
(1.00719 -0.0157956 1.26131e-22)
(1.00654 -0.000789619 9.53276e-23)
(1.00019 -0.00787461 -6.5743e-24)
(1.00016 -1.62329e-05 -1.75469e-23)
(1 -1.42496e-07 -1.29043e-25)
(0.995826 -0.000188997 7.90007e-23)
(1.04255 0.0141196 3.45439e-21)
(0.999994 -2.40014e-07 -7.49118e-26)
(0.997863 -0.00933834 9.22736e-23)
(1.04211 0.014482 -9.02155e-22)
(1.03412 0.000822575 2.46172e-21)
(0.952385 -0.0503491 -3.36334e-22)
(1.22571 0.0199734 -7.31244e-22)
(0.987599 -0.0169442 7.24027e-22)
(0.999916 -0.000243575 -1.82908e-25)
(0.993608 -0.00679438 3.35984e-23)
(0.999073 -5.37679e-05 -1.42142e-23)
(0.978242 -0.0121173 8.9596e-23)
(0.999933 -6.40475e-05 -2.07402e-24)
(1.00113 -9.45265e-05 -4.73022e-24)
(0.998686 -0.00490655 8.92192e-23)
(1.04454 -0.00399285 1.993e-21)
(1.27784 0.0196572 -3.05621e-21)
(1.03478 0.000377641 1.00639e-21)
(1.09746 0.1386 4.79226e-21)
(1.23742 0.0628232 -4.57343e-22)
(1.03131 0.0784525 8.51279e-21)
(0.946281 -0.00472825 -2.26294e-22)
(1.02758 -0.0685648 -3.18827e-22)
(0.965204 -0.0118276 -1.22013e-22)
(1.16733 -0.0245332 1.68241e-22)
(0.999147 -0.00285716 -3.14103e-23)
(0.99858 0.0897628 -5.17175e-21)
(1.12851 -0.00533329 -1.28901e-23)
(1.12922 -0.00359904 3.76321e-22)
(0.999966 -1.93693e-06 7.92758e-26)
(0.978213 -0.158178 1.94411e-21)
(1.01998 -0.00113983 -5.01537e-22)
(0.995849 -0.00119403 4.92509e-23)
(1.00017 -0.00014453 3.67194e-24)
(0.978123 -0.0191256 -4.16553e-22)
(0.999992 -1.70285e-05 6.35128e-27)
(0.961629 -0.01258 -2.50144e-24)
(0.999991 -3.19918e-05 -2.40122e-25)
(1.24783 -0.0556133 3.96673e-22)
(0.986602 -0.00717891 1.87597e-22)
(0.999978 -5.93657e-05 2.76551e-25)
(0.998263 -0.00122693 7.15375e-23)
(0.999449 -0.000382163 -1.27101e-23)
(1.00038 -6.05048e-05 5.95562e-24)
(0.999556 -2.09088e-05 -2.51878e-24)
(0.979037 -0.157008 7.74047e-23)
(1.18622 -0.0835654 4.25238e-22)
(0.961823 -0.0122163 -1.91466e-22)
(0.999914 -0.00024889 9.09174e-26)
(1.02564 -0.00846337 -1.15112e-21)
(1.00314 -0.0144172 1.31476e-23)
(1.00302 -0.000202243 -3.7212e-25)
(1.09542 0.13672 3.24067e-21)
(1.01759 -0.102629 1.45779e-21)
(1.01707 0.0834441 -5.74969e-21)
(0.976059 -0.0976497 1.27445e-21)
(0.993961 -0.0342245 1.24108e-22)
(0.99998 -7.12725e-05 5.61187e-25)
(1.14761 0.00345835 -6.33558e-22)
(0.999562 -2.74901e-05 9.94665e-25)
(1.16841 -0.0227599 -9.71626e-23)
(0.995422 -0.0241947 -5.39989e-22)
(0.702837 0.106053 -3.46647e-21)
(0.999777 -0.0141845 -2.54955e-22)
(0.999717 -2.58267e-05 -8.76156e-24)
(1.116 0.132736 -5.69716e-21)
(1.00002 -1.57455e-05 4.05937e-25)
(1.23716 0.0605749 4.24772e-22)
(1.11638 0.135722 8.06418e-21)
(0.910969 -0.0329563 1.13889e-21)
(0.984139 -0.0145132 2.84279e-22)
(1.19811 0.00691168 -3.29811e-22)
(0.999994 -1.07358e-06 -9.02513e-26)
(1.05837 0.244036 1.53031e-20)
(0.993649 -0.00697525 -3.60489e-23)
(0.85881 0.265118 -9.48026e-21)
(0.997854 -0.000125119 1.41326e-24)
(1.03105 -0.000712714 -1.51656e-21)
(1.05624 -0.0628282 5.44262e-23)
(1.00026 -3.80385e-05 5.27062e-24)
(1.1545 0.135602 -2.9459e-21)
(1.00016 -0.000136688 -1.11628e-23)
(1.00002 -1.31623e-05 2.02635e-25)
(0.992884 0.168683 2.52564e-20)
(0.89806 0.115453 -4.39247e-21)
(1.0086 -0.0131237 -3.14768e-23)
(0.998003 -0.00940614 -1.3029e-22)
(0.993678 -0.00671023 3.32916e-22)
(1.25631 0.1932 1.4787e-21)
(1.00014 -0.0135227 -9.48197e-23)
(1.00005 -4.8966e-06 -7.0571e-24)
(1.05188 0.0197601 4.47365e-22)
(1.05673 -0.0612219 -5.35797e-22)
(1 -2.34693e-07 1.28241e-25)
(1.01389 -0.0181844 -3.32888e-25)
(0.993559 -0.00706914 -1.0725e-22)
(1.04417 -0.00361726 -3.08347e-21)
(1.001 -0.00241852 -3.07998e-23)
(1.01616 -0.101853 -1.10251e-21)
(0.959206 -0.0717247 8.03804e-22)
(0.986683 -0.0070007 1.20074e-22)
(0.999994 -8.26257e-07 4.18929e-26)
(0.995885 -0.000178472 4.54911e-23)
(1.00968 -0.0102924 2.2454e-22)
(0.99998 -7.30633e-05 -7.75555e-25)
(1.12499 -0.0284693 2.64778e-22)
(0.966954 -0.00085026 -1.24096e-23)
(1.02456 -0.140928 -8.60455e-22)
(0.965616 -0.0121381 6.63753e-22)
(1.01372 -0.0178964 2.19787e-22)
(0.99909 -4.99989e-05 -1.04745e-23)
(1.00186 -0.0756062 1.22617e-22)
(0.992529 -0.0206693 -2.48028e-22)
(0.998902 -0.000647886 -4.29633e-23)
(1.0336 -0.0151978 5.66094e-22)
(0.987741 -0.0414012 -6.36958e-23)
(1.12682 -0.0288272 -2.41087e-22)
(0.991459 -0.0206983 3.02822e-22)
(0.988867 -0.0180945 5.27571e-22)
(1.00722 -0.0155241 -7.01651e-23)
(1.25602 -0.058481 2.42829e-21)
(0.902905 -0.0261302 -1.95088e-21)
(0.99963 -0.0648988 7.59844e-23)
(1.03783 -0.00376288 -6.71874e-23)
(0.903016 -0.0245945 4.32052e-22)
(0.997408 -0.00323304 6.27392e-23)
(1.01025 -0.0185819 3.38617e-22)
(1.00015 -0.00774667 -1.41471e-23)
(1.01648 -0.0123285 7.57948e-23)
(1.02831 -0.0679448 -4.16583e-22)
(0.978788 0.153714 -7.1006e-21)
(1.04667 0.0192523 2.00098e-21)
(1.01575 0.08271 1.35875e-20)
(0.999559 -0.00101382 -8.6785e-25)
(0.995348 -0.0037609 6.77456e-23)
(1.00004 0.000748605 -2.3964e-21)
(1.03494 -0.0270364 9.56024e-22)
(1.24666 -0.0568531 -2.02133e-21)
(0.997492 -0.00323277 1.95609e-23)
(1.00024 -0.0128418 6.53391e-23)
(0.990421 0.0732694 -1.09046e-20)
(0.972493 -0.0252848 1.23393e-21)
(1.13161 0.0265498 -3.91206e-21)
(1.00232 -0.125575 -9.70604e-22)
(0.902175 -0.0239708 -1.31452e-22)
(0.987597 -0.000323452 -3.2382e-22)
(0.968447 -0.0206775 -8.98701e-22)
(1.00864 -0.0465979 -3.17719e-22)
(1.03512 0.0196819 2.73654e-21)
(1.00696 0.109421 8.45091e-21)
(1.01888 -0.0120566 2.16634e-22)
(0.99999 -2.72236e-05 6.78342e-26)
(0.995506 -0.00322307 5.80291e-24)
(0.959983 -0.0233319 -4.72158e-22)
(0.99919 -0.00112066 -2.20253e-23)
(0.999935 -6.41106e-05 1.60052e-24)
(1.03459 -0.00806393 -3.66795e-22)
(1.02513 -0.0805622 2.54033e-21)
(0.902256 -0.0224798 1.07905e-21)
(1.01878 0.0825603 -3.51368e-21)
(0.885662 0.0461147 -1.20349e-20)
(0.999991 -3.22131e-05 -3.51049e-26)
(1.00035 -0.0352542 -6.5427e-22)
(0.972234 -0.0256416 -6.14073e-22)
(1.09073 -0.0276633 5.50682e-22)
(1.00768 -0.0151203 1.8706e-22)
(0.898428 -0.00497135 7.20925e-22)
(0.999828 -0.00028253 4.72669e-25)
(0.975075 -0.0507036 -3.25557e-23)
(0.976378 -0.0240547 3.73963e-23)
(1.00004 -0.00992855 8.59453e-24)
(0.965584 -0.00109573 3.82721e-22)
(0.999994 -2.71473e-07 1.07205e-25)
(0.938085 0.151481 1.11781e-20)
(1.0065 -0.0229599 3.7915e-23)
(0.966782 -0.018113 -9.19205e-22)
(1.00268 -0.123862 -5.42412e-22)
(0.94846 0.0690178 6.31903e-21)
(1.02332 -0.0059303 -1.14963e-22)
(0.963136 -0.0552499 1.32027e-22)
(1.24115 0.195843 -1.62736e-21)
(0.981159 -0.0400059 -5.80425e-22)
(1.05988 -0.0649247 3.22062e-22)
(1.03473 0.019954 4.13632e-21)
(1.00045 -4.46851e-05 6.32075e-24)
(1.00106 -0.0116453 -3.98319e-23)
(0.983818 -0.0434337 2.14403e-22)
(0.995735 -0.000278315 -1.02749e-22)
(1.22739 -0.0532628 3.90453e-21)
(1.02453 -0.0489606 6.98626e-24)
(1.0258 -0.14236 1.13789e-21)
(1.18746 -0.0855661 -2.2133e-21)
(0.997781 -0.00010817 -6.62263e-23)
(1.001 -0.00280363 -2.06412e-24)
(1.05214 0.00341937 2.59746e-21)
(0.962952 -0.00289061 -7.74751e-22)
(0.988282 -0.0414707 -1.95428e-23)
(0.92373 -0.0544958 -6.00466e-22)
(0.998623 0.0237648 -5.99841e-21)
(0.998432 -0.00169138 -5.48277e-24)
(1.02956 0.00207063 -1.2474e-20)
(1.00006 -0.00330156 -1.74505e-24)
(0.851124 0.248295 -1.73303e-20)
(1.01679 -0.0121675 -4.45755e-22)
(1.18622 -0.0228073 1.20778e-21)
(1.02088 -0.00115626 4.71583e-22)
(1.0003 -6.58583e-06 3.46756e-23)
(1.06702 -0.101856 7.24223e-23)
(1.01692 -0.011777 -1.07394e-21)
(0.89909 -0.00422243 -4.42011e-22)
(1.0473 0.020102 -2.82807e-21)
(1.26036 -0.104822 -1.10822e-21)
(0.993656 -0.0345642 9.7766e-23)
(0.995996 -0.00449455 1.97382e-22)
(1.19576 0.00679863 -1.99497e-22)
(0.997877 -0.000288623 7.16577e-23)
(1.16388 -0.00976011 -6.1116e-23)
(1.1698 -0.0357776 -1.24744e-22)
(0.999941 -3.41377e-05 -5.04949e-26)
(1.03512 -0.0264269 -2.36234e-22)
(1.00026 -0.00758879 -2.27707e-23)
(1.02508 -0.0494545 2.16595e-22)
(0.99859 -0.00410452 -7.95138e-23)
(0.977001 -0.0193412 -2.04915e-22)
(0.960755 -0.067204 7.8741e-22)
(1.00053 -0.0647099 5.41505e-23)
(0.9978 -0.0124661 1.60542e-22)
(0.977224 -0.0974923 -1.07413e-21)
(1.00255 -0.0760974 -2.89133e-22)
(0.997816 -9.49885e-05 -4.94638e-23)
(1.00004 -0.00187108 1.15496e-24)
(0.96036 -0.0228969 2.56287e-22)
(1.00003 -0.000884827 4.06909e-24)
(1.01321 -0.009165 6.64251e-22)
(0.940973 0.148997 6.40396e-21)
(1.03142 0.000854652 -6.15393e-21)
(0.98286 -0.163009 -1.13629e-21)
(1.257 -0.0900321 4.52748e-22)
(0.959989 -0.0669083 1.74092e-22)
(0.999992 -2.29086e-05 8.70894e-26)
(1.22485 0.00954287 -6.03767e-22)
(1.0187 0.081261 -3.38742e-21)
(0.999879 -0.00054869 9.99789e-26)
(1.02048 -0.0116467 -6.24124e-22)
(0.998385 -0.00190686 -4.7547e-23)
(1.06055 0.011115 1.55506e-21)
(1.00021 -0.00512248 7.18485e-24)
(1.17264 -0.0354717 -3.65749e-22)
(0.900913 -0.0182965 -5.78938e-22)
(0.992393 -0.0594695 2.45851e-22)
(1.26965 -0.0304402 -9.90615e-22)
(0.992937 -0.0093461 -2.01774e-22)
(0.975248 -0.0631288 -1.33788e-22)
(1.11207 -0.0045728 4.36926e-22)
(1.03142 -0.059474 5.46727e-23)
(0.966966 -0.0178262 6.15943e-22)
(1.22822 -0.172353 -4.33388e-21)
(1.01038 -0.018356 -5.10531e-24)
(0.99676 -0.00217305 -5.8019e-23)
(1.15032 0.171962 5.9049e-21)
(1.19556 0.185991 3.29731e-21)
(0.984365 -0.0434799 -6.03513e-22)
(0.998304 -0.00540159 1.0862e-22)
(1.00317 -0.0139017 1.00281e-24)
(0.988753 0.0794806 -1.72285e-20)
(1.00096 -0.00283972 2.07101e-23)
(0.993866 -0.00644975 1.71007e-22)
(1.22344 0.00075138 1.63516e-22)
(1.09298 -0.0462145 -2.07188e-23)
(0.999833 -0.000289691 -3.74718e-24)
(1.01859 -0.0122602 -1.68933e-22)
(0.708324 0.100748 6.1215e-21)
(1.11784 0.00510275 -2.12975e-21)
(0.966565 -0.00707291 -9.60465e-22)
(1.00991 -0.0102173 -3.26299e-22)
(1.05574 0.00806116 1.91901e-21)
(0.900054 -0.0175771 1.12033e-21)
(1.22574 0.011306 9.07185e-22)
(0.996777 -0.00225845 4.11882e-23)
(0.999992 -2.39417e-05 -1.75244e-25)
(0.999585 -0.00107446 1.20202e-23)
(0.99841 -0.00187859 7.44524e-23)
(0.758104 0.0302139 3.98996e-21)
(0.996271 -0.0052713 -1.42238e-22)
(1.13099 -0.0213044 2.37247e-22)
(0.999946 -3.27401e-05 1.31526e-25)
(0.99888 -0.00161205 -2.07926e-24)
(0.995317 -0.00368308 -8.45805e-23)
(0.985559 -0.0150177 -2.7001e-22)
(1.08245 -0.000305437 -4.67534e-21)
(1.26483 0.00690688 -4.7771e-22)
(0.978778 -0.0113366 8.67902e-22)
(0.990222 -0.0116001 1.08322e-22)
(1.00201 -0.00367205 -1.25107e-23)
(0.997698 -0.0126182 -9.90277e-23)
(0.832776 0.260625 -3.11962e-22)
(0.963302 -0.0327369 1.60608e-21)
(0.998395 -0.0120936 4.34904e-23)
(1.15155 0.135078 1.49124e-21)
(1.02538 0.0310745 -3.83527e-21)
(1.01673 -0.0114903 9.71326e-22)
(0.996876 -0.00352759 1.14754e-22)
(1.00802 -0.046864 -4.28555e-23)
(1.00717 -0.0264556 -1.12884e-23)
(1.03806 -0.0525039 -3.54273e-22)
(1 -1.35224e-06 4.44786e-27)
(0.999248 -0.00180137 4.87542e-23)
(1.04267 -0.0392465 -1.73482e-22)
(1.10955 0.0606971 4.29425e-21)
(0.975339 -0.0720737 2.82076e-22)
(1.03398 0.156515 3.95862e-21)
(0.748608 0.060379 -4.53427e-21)
(1.1522 -0.0329546 5.02589e-22)
(1 -1.24204e-06 3.35125e-26)
(0.983534 -0.000422438 -5.21353e-22)
(0.98217 -0.0270192 3.45998e-22)
(1.00019 -0.00986273 4.50093e-23)
(1 -2.26414e-06 -6.16954e-26)
(1.11682 -0.117812 -1.28937e-21)
(1.28235 0.104497 2.76588e-22)
(0.96344 -0.00284578 -7.71116e-22)
(0.999345 -3.44738e-05 -1.42441e-23)
(1.16539 -0.00124155 -1.1368e-22)
(1.00483 -0.00663679 2.356e-23)
(1.00301 -0.0141267 4.94899e-24)
(1.00016 -1.18871e-05 1.55875e-23)
(0.998504 -0.00182927 -4.11361e-23)
(1.04614 -0.0391952 -4.70695e-23)
(0.962575 -0.0548455 9.79684e-22)
(0.995793 -0.0347414 -2.12178e-22)
(0.994557 -0.0235012 -7.90401e-22)
(1.04311 -0.0399454 -1.82052e-22)
(1.01321 -0.00893888 -3.45071e-22)
(0.999888 -7.95497e-06 -4.15573e-24)
(1.23847 0.19204 3.34457e-21)
(0.91929 -0.0503255 1.31608e-22)
(1.0021 -0.00473115 -4.1386e-23)
(1.05129 -0.088371 -4.11806e-22)
(1.05455 0.0107109 -7.1132e-21)
(1.03062 0.062832 -9.90451e-21)
(0.977741 -0.0190728 3.10178e-22)
(1.02101 -0.00527079 5.96184e-22)
(0.976709 -0.0240001 4.47847e-23)
(0.997872 -0.00242612 -1.08056e-22)
(1.22524 -0.173175 2.67082e-21)
(1.00067 -0.00133232 3.26887e-23)
(1.00023 -0.00747043 4.36011e-23)
(0.978004 -0.013913 9.43198e-22)
(0.965898 -0.0254227 4.16749e-22)
(0.997822 -0.00261427 1.22147e-22)
(1.11246 0.262979 -3.25349e-21)
(1.0338 0.0758584 7.57291e-22)
(1.2447 -0.134113 1.22779e-21)
(1.11276 -0.0622282 8.15691e-22)
(1.00002 -1.40956e-05 -3.92525e-25)
(0.994473 -0.0134086 7.18762e-23)
(1.08723 -0.0313319 1.92355e-22)
(0.991875 -0.000318811 7.43439e-23)
(0.996653 -0.0272373 -3.95415e-22)
(0.996699 -0.00215094 1.4505e-23)
(1.00211 -0.00366099 -3.70896e-23)
(0.996162 -0.00460544 -1.36165e-22)
(0.995802 -0.0011501 -3.82952e-23)
(0.997767 -0.0122482 -5.29408e-23)
(1.00034 -0.0073145 -2.05015e-23)
(1.10817 -0.178074 4.77361e-22)
(1.00004 -2.47236e-05 3.75691e-24)
(1.01281 -0.0084391 -5.96353e-23)
(0.999993 3.42307e-09 -2.37031e-26)
(0.901442 -0.0218409 -1.47734e-21)
(1.00025 -0.000238391 9.02007e-24)
(1.03932 0.194271 9.13113e-21)
(1.19171 0.184528 -1.7443e-21)
(1.04783 0.0464555 -3.36614e-21)
(1.1111 -0.0613453 -5.69836e-22)
(1.04149 0.0533992 -3.39973e-22)
(1.03427 0.000762184 3.46561e-21)
(0.998053 -0.00424395 1.57719e-23)
(1.00194 -0.00190737 -4.8392e-23)
(0.999758 -0.000765881 1.29254e-25)
(0.99465 -0.0027502 9.39975e-23)
(0.967564 -0.017964 3.652e-22)
(0.993034 -0.0091836 -8.20792e-23)
(0.994249 -0.0134741 1.91949e-22)
(1.04039 -0.0513379 1.48033e-22)
(1.00025 -0.000231296 -1.1073e-23)
(0.999825 -0.000103495 -1.16725e-24)
(1.00015 -0.000133568 -8.34792e-24)
(0.999103 -0.00280936 3.32962e-23)
(1.03131 -0.000843163 1.43534e-21)
(1.03643 -0.0508826 -2.32776e-22)
(0.977707 -0.0137664 -1.00763e-21)
(1.00002 -0.000862042 -8.41276e-24)
(1.12689 -0.109814 2.74629e-21)
(1.00097 -0.00270982 6.5594e-23)
(0.999845 -0.000102023 -4.49417e-24)
(1.03103 0.0615273 1.41153e-20)
(1.03801 -0.00405663 2.64189e-22)
(1.00223 0.0445244 2.45917e-20)
(1.00004 -3.43195e-05 -3.55516e-24)
(1.00006 -0.000650944 0)
(1.00205 -0.00207365 7.18947e-23)
(0.988566 -0.0422526 2.94387e-22)
(0.994304 -0.00774916 -8.96939e-23)
(1.06173 -0.127017 -8.839e-22)
(0.963276 -0.00126054 5.13074e-22)
(1.0899 0.0397829 5.50895e-21)
(0.990365 -0.000244143 6.8143e-22)
(1.11627 0.260842 -1.69499e-21)
(1.001 -0.00266974 -4.77776e-23)
(1.00204 -0.00466571 4.82102e-23)
(1.00296 0.0695699 -6.63736e-21)
(1.15098 0.168854 -2.47804e-21)
(1.07348 -0.101695 -2.28927e-21)
(1.003 -0.00260234 1.31001e-23)
(0.903756 -0.0267321 2.1345e-21)
(0.990271 -0.000307485 -3.91488e-22)
(1.00004 -3.66184e-05 1.52363e-24)
(1.01282 -0.00869027 6.98743e-23)
(0.920717 -0.051746 -3.32463e-22)
(0.983438 -0.0428215 -4.93901e-23)
(0.945759 -0.00474113 3.97205e-22)
(1.04087 -0.0523964 1.01434e-22)
(1.11627 0.00442088 3.4737e-21)
(0.999993 4.11759e-07 -4.85066e-27)
(1.00307 -0.00255276 -2.5636e-23)
(1.02548 -0.00881937 8.2266e-22)
(1.04999 -0.0229544 -9.20182e-22)
(1.02975 0.218266 -4.67214e-21)
(1 -6.30068e-07 6.23024e-28)
(0.999946 -3.41232e-05 4.70907e-26)
(1.00202 -0.000180977 -1.27323e-22)
(0.98351 -0.0422381 -5.97035e-22)
(0.999278 -0.00110624 1.82619e-23)
(0.999875 -0.000595753 -1.18504e-24)
(1.13192 -0.0291407 -1.05432e-22)
(0.836244 0.0297423 -1.62428e-20)
(1.17368 -0.0331782 1.39512e-22)
(1.00446 0.0555386 -6.16003e-21)
(0.97651 -0.00438291 2.22163e-22)
(0.997874 0.0222856 3.87494e-21)
(1.03155 0.0131409 4.25917e-21)
(0.996226 -0.00465775 5.35864e-23)
(1.11427 -0.119065 1.7931e-21)
(0.918925 -0.0308572 1.8248e-21)
(0.995761 -0.0239254 3.85829e-22)
(1.001 -0.0114866 2.35141e-23)
(0.996356 -0.00854027 1.14609e-22)
(0.998335 -0.00120765 2.17676e-23)
(0.999325 0.0659926 -3.00072e-20)
(0.981796 -0.0396942 -8.58992e-22)
(1.06129 0.184128 4.42401e-21)
(1.0323 -0.0599695 3.61797e-22)
(1.04802 0.045335 1.87532e-21)
(0.977554 -0.0115222 3.811e-22)
(0.98585 -0.0150964 -7.05105e-22)
(1.22989 -0.0532687 2.9333e-22)
(1.03215 0.0200861 4.48824e-21)
(0.996961 -0.00354398 -1.29209e-22)
(1.00006 -0.00320453 -7.31319e-24)
(1.00001 -0.00332945 1.07007e-23)
(0.999994 -4.42388e-08 -7.99315e-25)
(1.03428 -0.0515848 4.86961e-22)
(0.965251 -0.080802 -1.05762e-21)
(1.00025 -0.000561263 -1.36735e-23)
(1.08053 -0.0336728 -3.22403e-23)
(0.999647 -0.000894495 1.95793e-24)
(0.999644 -0.000913271 -1.15308e-23)
(1.00236 -0.000303347 -9.96384e-24)
(1.03339 -0.0591471 -2.12682e-22)
(1.00076 -6.60888e-05 -2.35546e-23)
(1.00156 -0.00926212 -5.34094e-25)
(0.973069 -0.00509408 4.80214e-22)
(0.995484 -0.00669179 7.24276e-23)
(0.994661 -0.00283953 -3.2861e-22)
(0.989015 0.109891 -4.07929e-20)
(1.14075 -0.0694471 -3.1266e-21)
(1.01158 -0.0164908 2.63495e-22)
(0.988795 -0.0184438 3.96916e-22)
(0.967848 -0.0496974 -1.27566e-22)
(1.00031 -0.00720549 1.01836e-23)
(1.00002 -3.22844e-05 -1.24594e-24)
(0.999999 -2.02266e-06 -2.26185e-26)
(0.951955 -0.00981483 7.64677e-23)
(0.919319 -0.0301482 -1.86124e-21)
(0.966921 -0.0345569 -2.92771e-23)
(1.00002 -3.11164e-05 -3.458e-24)
(0.982976 -0.00746545 5.69045e-22)
(1.08141 0.000252988 4.36841e-21)
(1.27869 0.0182864 3.71163e-21)
(1.15168 -0.0350544 3.49063e-22)
(0.999967 -2.36423e-06 -7.48433e-25)
(0.967764 -0.0176841 1.22017e-21)
(1.00789 -0.0444462 5.3043e-22)
(1.0001 -1.22402e-05 -8.89822e-25)
(0.999914 -0.000293121 -4.92047e-25)
(0.963486 -0.000940927 -9.4107e-23)
(1.00197 -0.000178364 -4.1856e-23)
(1.00074 -0.00602208 -4.82831e-24)
(1.03653 -0.118204 -3.78647e-22)
(1.00046 -4.57676e-05 -1.88262e-23)
(0.943829 -0.0669249 1.46733e-21)
(0.972913 -0.00531722 -4.8604e-22)
(0.976598 -0.00456884 3.95884e-22)
(0.979084 -0.0114894 1.41647e-22)
(1.00178 -0.00929933 -7.32344e-24)
(0.955733 -0.0364231 1.47877e-21)
(1.0003 -0.000525752 1.69891e-23)
(1.00001 -1.19037e-05 -1.65449e-25)
(1.00573 -0.00577657 8.46374e-23)
(1.12286 0.185063 -2.88191e-21)
(0.951924 0.0651026 3.12426e-20)
(1.01451 0.055565 5.06273e-21)
(1.03606 -0.0515837 8.55912e-23)
(0.987928 -0.0157003 -1.40805e-22)
(1.01264 0.0650846 2.73403e-20)
(1.01581 -0.010359 -1.36854e-21)
(1.00026 -0.000470346 -1.18768e-23)
(1.02802 -0.00144669 -1.10105e-21)
(0.983934 -0.0147585 1.57415e-22)
(1.16568 -0.0108436 1.49819e-22)
(0.996396 -0.0084115 1.42327e-22)
(1.03377 -0.000759203 -3.62216e-21)
(1.00113 -0.000122271 4.23838e-23)
(1.01502 0.0545312 3.42095e-21)
(1.0006 -5.67999e-05 -2.88345e-23)
(0.99422 -0.00834168 4.91758e-23)
(0.977847 -0.0116154 -1.04115e-22)
(1.0211 0.0792314 3.52697e-21)
(1.00029 -1.16075e-05 -3.09098e-23)
(0.984618 -0.0443463 7.97541e-22)
(1.06111 -0.125249 1.68407e-21)
(1.09197 0.0398059 -4.34041e-21)
(0.996839 -0.0524417 -5.91439e-22)
(0.994118 -0.00767652 1.27088e-22)
(1.18386 -0.0729486 9.17614e-22)
(1.00006 -2.01483e-06 -2.7711e-24)
(1.24415 -0.13165 -5.09036e-22)
(0.99527 -0.00683156 7.78215e-23)
(1.02081 -0.0117404 -9.88029e-22)
(0.989064 -0.0422994 2.78544e-22)
(1.00309 -0.000249766 -1.54854e-22)
(1.2789 0.102411 -6.60296e-23)
(1.03368 0.0772765 -7.78694e-21)
(0.941164 0.11943 1.43564e-20)
(1.04044 0.052949 1.01872e-21)
(1.1147 0.0970121 3.17022e-21)
(1.16862 -0.0384388 9.83962e-22)
(1.26068 0.192778 -3.42551e-23)
(1.01606 -0.0102538 1.52012e-21)
(1.0722 0.106847 4.07363e-21)
(1.00249 0.0396798 -1.90605e-20)
(1.00064 -0.00608075 -1.65628e-24)
(0.998478 -0.00390041 -4.1314e-23)
(0.961313 0.0577041 -3.37375e-20)
(1.00002 -2.15994e-05 -7.01751e-25)
(1.26 -0.10226 1.34766e-21)
(1.28092 0.0268298 1.18705e-21)
(0.979424 -0.019283 6.5059e-22)
(1.00118 -0.00247852 -4.69892e-24)
(1.04934 -0.0224489 -3.19045e-22)
(0.998398 -0.00181737 -3.86328e-23)
(1.00199 -0.00193413 -1.22592e-24)
(0.992311 0.142864 -7.08311e-21)
(0.870839 0.123036 1.29372e-20)
(0.999853 -9.87548e-06 -2.64523e-25)
(1.00031 -0.000525965 -1.69051e-23)
(1.09443 -0.0415005 -1.0389e-23)
(1.00015 -0.00304856 5.72049e-25)
(1.27075 -0.029974 2.29218e-21)
(1.14696 0.166317 -4.16417e-21)
(1.06858 0.0390891 9.53801e-22)
(0.999918 -0.000294972 1.09363e-24)
(0.993917 -0.0735378 2.40365e-22)
(0.995065 -0.0614219 1.33047e-21)
(1.00065 -5.66095e-05 1.8563e-23)
(1.0201 -0.0381855 -6.10411e-23)
(1.05216 0.00268043 1.38506e-21)
(0.881623 0.11874 -8.30569e-21)
(1.00011 -0.00316842 2.36221e-24)
(1 -8.79704e-07 -9.82626e-27)
(1.07201 0.105061 3.00788e-21)
(1.01963 -0.0377946 -1.216e-22)
(0.99985 -1.1578e-05 -6.16266e-24)
(1.03967 -0.0167211 -2.36874e-22)
(1.00796 -0.0140523 -4.63686e-23)
(0.996255 -0.00504651 -1.27742e-23)
(0.997331 -9.43211e-05 2.95704e-23)
(1.26378 -0.0819018 9.35025e-22)
(0.980922 -0.00692036 2.31449e-22)
(0.998421 -0.00178649 2.3812e-24)
(0.966349 -0.0254486 8.0889e-24)
(1.00032 -0.000507508 2.42316e-23)
(0.999857 -0.000106866 2.98916e-24)
(0.999953 -0.014039 1.44799e-22)
(1.18201 -0.0122611 1.30465e-22)
(0.999741 -8.27767e-05 2.82578e-24)
(0.973107 -0.00568863 -5.82659e-22)
(1.00087 -0.00118012 4.63128e-24)
(0.997228 -0.0517156 -2.58453e-22)
(1.02101 0.0804418 -4.58497e-21)
(0.999866 -0.000554879 5.34868e-25)
(0.717912 0.0480823 -1.02132e-20)
(1.08967 -0.0757419 8.06845e-22)
(0.995969 0.0303947 4.30352e-21)
(1.17914 -0.0130318 -1.45973e-22)
(0.999367 -0.000355432 6.07304e-24)
(0.999967 -9.11328e-05 1.89049e-25)
(0.999491 -0.000392794 -1.15845e-23)
(0.994389 -0.00768657 8.37197e-24)
(1.02686 0.00302523 0)
(0.999439 -0.0116421 9.15946e-23)
(0.983372 -0.000532688 1.23845e-22)
(0.99437 0.166161 -2.40874e-20)
(0.921488 -0.0338724 -1.69755e-21)
(0.920741 -0.0335674 1.46619e-21)
(1.04644 -0.0380365 1.63229e-22)
(1.07964 -0.037798 5.09459e-22)
(0.987049 0.12396 2.51326e-20)
(0.999397 -0.000418738 5.85712e-24)
(0.985129 -0.0444224 1.62711e-22)
(0.97901 -0.0192463 -6.21919e-22)
(1.00023 -0.000234885 1.28789e-23)
(1.02612 -0.049257 -1.29255e-22)
(1.00088 -0.00113495 -2.25561e-24)
(1.035 -0.0519769 2.23948e-22)
(0.975448 -0.0908981 2.17713e-22)
(0.810116 0.157256 -1.66663e-20)
(0.941128 -0.0663735 -1.38062e-21)
(0.997531 -0.00289098 1.83196e-23)
(0.977139 -0.0185291 -1.09819e-21)
(1.00731 -0.0260076 9.48721e-24)
(1.12365 -0.011893 -1.26862e-21)
(1.03474 0.000490695 -5.83291e-22)
(1.01335 -0.0487077 6.95212e-23)
(1.00001 -2.93962e-07 -4.25006e-25)
(1.00455 0.0557793 7.73187e-21)
(0.984584 -0.00826513 -6.27208e-23)
(0.900296 -0.0159754 1.04e-21)
(0.9989 -0.010983 5.96181e-23)
(1.03957 -0.0393814 -5.5897e-22)
(0.978618 -0.0585068 1.30466e-21)
(1.0058 -0.00566214 3.72204e-23)
(1.25749 -0.0126413 3.37829e-21)
(0.99896 -4.24841e-05 4.18544e-23)
(1.02726 0.140868 1.25927e-20)
(0.999755 -0.0205788 -1.54847e-22)
(1.05483 0.00460776 -6.81608e-22)
(0.947536 -0.00971136 9.3498e-22)
(1.02387 -0.00391492 1.6805e-22)
(0.999992 -1.71582e-05 -2.71898e-26)
(0.975514 -0.0503183 -7.95523e-23)
(0.972962 -0.00590238 5.49702e-22)
(0.982912 -0.0411388 7.94332e-22)
(1.03962 -0.0173452 -1.68821e-22)
(1.03513 -0.119682 -3.91431e-22)
(1.00033 -0.00050722 -2.74478e-23)
(1.06251 -0.211536 -8.02101e-22)
(0.9983 -0.00123746 -8.90185e-23)
(0.999981 -8.14178e-05 4.59846e-25)
(0.999465 -0.0114455 -1.01249e-22)
(1.00028 -0.000543877 7.01368e-24)
(0.876703 0.117406 1.12319e-20)
(1.00024 -0.000230456 -1.13823e-23)
(1.03969 0.192239 -2.77881e-21)
(0.976695 -0.0196179 -1.72978e-22)
(1.02304 -0.00317561 -3.15727e-22)
(1.00338 -0.00261591 -1.37411e-22)
(1.09884 0.0244405 5.18223e-21)
(1.00469 -0.00671816 -1.53339e-22)
(1.02433 0.0317515 -3.30638e-21)
(1 -2.31883e-06 -2.99757e-26)
(1.0306 -0.0675433 -4.94323e-22)
(0.998585 -0.00565429 4.05371e-23)
(1.00202 -0.00452121 7.24286e-24)
(0.969749 -0.0206962 -2.61293e-22)
(1.00002 -1.65728e-05 1.65971e-24)
(1.22471 -0.00432207 1.04204e-21)
(0.914004 0.26092 3.66447e-21)
(1.28012 0.0281608 -2.56277e-21)
(1.00026 -0.000458243 2.31041e-23)
(1.16281 -0.102312 -1.09006e-21)
(1.02724 0.00339433 -1.02448e-21)
(0.98205 0.153985 1.75082e-20)
(1.00013 -0.00516468 -4.01739e-24)
(0.999695 -3.85729e-06 -2.37223e-24)
(1.09248 -0.0409611 -5.71105e-23)
(1.00018 -0.000170538 -8.04066e-24)
(0.946165 0.0567821 -7.01792e-21)
(1.00826 -0.0440449 2.75688e-23)
(1.28884 0.108612 3.22693e-23)
(1.10762 0.0605895 -5.70064e-21)
(1.00018 -0.000156419 6.42946e-24)
(0.982015 -0.16103 -1.03677e-21)
(1.01073 0.0417657 -7.44871e-21)
(0.999857 -0.000102055 1.23114e-25)
(1.09213 -0.0280542 1.27308e-21)
(0.997078 0.0110716 2.08523e-20)
(0.997298 -0.000119649 2.37951e-23)
(1.00298 -0.014642 -3.21238e-24)
(1.00043 -6.13821e-05 1.43212e-23)
(1.0076 -0.0154168 -1.04159e-22)
(0.977939 -0.0119877 4.7953e-23)
(0.992572 -0.000125926 4.37727e-23)
(1.07436 0.185481 -5.84707e-21)
(0.995694 -0.0234436 2.59573e-22)
(0.79747 0.224831 2.93914e-20)
(0.664351 0.0220142 2.80248e-20)
(0.996626 -0.00011206 -7.28722e-23)
(1.00005 -0.00050157 -1.28239e-24)
(1.06027 0.181328 -2.50836e-21)
(0.996182 -0.00479067 4.8206e-23)
(0.980515 -0.00473067 1.23367e-22)
(1.00029 -0.000544017 -3.98305e-24)
(1.07178 0.0438548 2.127e-22)
(0.947985 -0.00970519 -1.34255e-21)
(0.832048 0.122792 2.07522e-20)
(0.998658 -0.00501682 -5.77838e-23)
(0.999953 -0.00143134 -2.33937e-24)
(0.984626 -0.00846728 2.16067e-22)
(1.27557 0.00795521 3.53919e-21)
(0.994728 -0.0735531 4.9763e-23)
(1.13604 -0.0251929 -2.95197e-23)
(1.05857 -0.037282 -4.47667e-22)
(1.03354 0.0130453 -3.54528e-21)
(0.999776 -0.000151483 -1.80174e-24)
(1.23412 -0.0352772 -1.29475e-21)
(1.00002 -2.9873e-05 -2.25298e-24)
(1.00184 -0.00158888 9.05254e-23)
(0.999993 1.07166e-07 9.51326e-27)
(1.24015 -0.131171 -2.9592e-21)
(1.07571 -0.101871 1.91808e-21)
(1.0296 0.0600758 6.23285e-22)
(0.999994 -3.26534e-08 8.10543e-26)
(0.943013 0.115821 -3.82888e-20)
(0.999514 -0.000157236 7.1694e-24)
(1.02659 -0.0487398 -1.51631e-22)
(0.99926 -0.000401789 2.09234e-23)
(0.919531 -0.051376 6.58543e-23)
(0.989055 -0.0187318 -6.29452e-22)
(1.11891 0.0188382 1.99213e-21)
(0.999859 -1.25849e-05 8.16136e-24)
(1.0251 -0.0791177 -8.08496e-22)
(1.021 -0.0378693 -1.74073e-24)
(0.987917 -0.0169299 -5.34819e-22)
(0.999975 -8.80925e-05 -1.32938e-24)
(0.999925 -0.00142016 -1.53683e-24)
(0.999751 -1.35904e-05 1.03461e-24)
(0.970051 -0.0599988 -9.07726e-22)
(1.00197 -0.00376696 3.66112e-23)
(0.99865 -0.000785063 -2.09837e-24)
(0.962921 -0.000303531 7.93874e-22)
(1.0001 -0.000254329 -9.29892e-26)
(1.00034 -0.00049277 2.16873e-23)
(1.00687 -0.0229359 -2.8523e-23)
(0.999378 -0.000358562 3.56516e-24)
(1.01364 0.0652893 -1.20577e-20)
(1.06588 -0.00484117 3.90678e-21)
(1.27249 -0.0114373 2.55531e-22)
(0.970262 -0.000901419 -1.01042e-22)
(1.0211 -0.09932 1.03898e-21)
(0.999994 -7.19536e-07 -4.22231e-26)
(1.18677 -0.073102 -1.08808e-21)
(0.97438 -0.0907931 -9.12625e-22)
(1.0004 -6.07902e-05 2.1701e-23)
(0.967323 -0.0351364 -3.71812e-22)
(0.998442 -0.00524357 -4.46071e-23)
(0.959084 -0.0251723 4.19204e-22)
(1.18629 -0.142861 -8.58834e-22)
(1.00058 -5.75652e-05 -2.16307e-23)
(1.03421 -0.059525 6.53059e-22)
(0.999981 -8.41621e-05 -1.83502e-24)
(0.994054 -0.00722276 -8.05338e-23)
(0.999543 -0.000161927 6.89224e-25)
(1.06581 0.0949421 -5.39258e-22)
(0.990941 -0.00222123 -2.27901e-22)
(1.00016 -0.000303451 -1.71323e-25)
(0.999805 -0.00010434 2.89648e-24)
(1.02745 -0.0124285 9.89854e-22)
(0.952108 -0.051056 1.33519e-22)
(0.99624 -0.00484143 -7.64675e-23)
(0.999989 -0.00148244 -5.03764e-24)
(1.07319 0.188286 -7.01876e-22)
(1.0073 0.107937 5.20904e-21)
(1.00208 -0.00447012 1.97215e-23)
(1.25121 0.08431 -7.41609e-24)
(1.14558 -0.119852 2.80058e-21)
(0.923993 -0.0554336 5.50151e-22)
(1.00006 -0.000494463 5.09086e-24)
(0.999995 -4.45933e-07 1.43114e-25)
(1.12297 0.18164 3.65101e-21)
(0.959661 -0.0214631 1.2488e-22)
(1.00011 -0.000253567 -4.02495e-24)
(1.22845 0.0412737 -5.24499e-23)
(0.998903 -0.000623978 2.60317e-23)
(0.999995 -4.16047e-06 2.03552e-25)
(1.0931 -0.00495499 3.12421e-22)
(0.988437 -0.115035 -3.58323e-22)
(0.941966 -0.0661306 1.83952e-21)
(0.915733 -0.0504359 2.36826e-22)
(0.987307 -0.0394995 -5.91255e-22)
(0.992176 -0.000268078 7.88319e-23)
(0.980724 -0.00492756 -9.99561e-22)
(1.00115 -0.0112027 2.54004e-23)
(1.09233 0.0667855 -3.04785e-21)
(0.999747 -0.00077492 -3.15428e-24)
(0.98989 -0.0600835 2.6046e-22)
(1.10278 -0.0104217 2.38169e-22)
(0.999853 -0.000732751 -1.08385e-25)
(1.14269 -0.118841 -3.68347e-21)
(1.02293 -0.049101 -4.37912e-22)
(1.06454 0.0405525 -7.67288e-21)