/*--------------------------------*- C++ -*----------------------------------*\
  =========                 |
  \\      /  F ield         | OpenFOAM: The Open Source CFD Toolbox
   \\    /   O peration     | Website:  https://openfoam.org
    \\  /    A nd           | Version:  7
     \\/     M anipulation  |
\*---------------------------------------------------------------------------*/
FoamFile
{
    version     2.0;
    format      ascii;
    class       surfaceScalarField;
    location    "24";
    object      phi;
}
// * * * * * * * * * * * * * * * * * * * * * * * * * * * * * * * * * * * * * //

dimensions      [0 3 -1 0 0 0 0];

internalField   nonuniform List<scalar> 
11265
(
142.554
-528.5
385.946
-759.76
5.84804
753.912
428.114
-372.521
-55.5929
659.993
260.717
-920.71
1510.83
-1069.44
-441.393
1216.28
-1527.12
310.842
-29.9229
468.771
-438.848
168.866
-842.08
673.215
962.071
-1610.8
648.731
-1766.32
1672.59
93.7322
-542.947
1759.23
-1140.83
1934.64
-793.81
607.714
181.232
-788.946
-25.5307
-1315.61
1341.14
221.248
-1987.57
1023.42
-382.591
-640.83
-207.309
349.863
485.23
190.638
-675.868
1155.25
-1313.52
158.275
-306.253
374.845
-68.5921
1001.19
-1317.41
316.213
1221.57
799.408
-2020.98
73.8221
-1641.81
1567.99
-492.428
-1161.17
1653.6
476.166
182.012
-658.179
-187.307
-341.193
498.01
1012.82
1649.23
-1808.14
158.914
-96.3868
-1689.23
1785.61
-1559.01
652.379
906.631
-307.735
653.389
-345.654
-190.679
-121.988
312.667
1285.94
-1212.12
355.233
-1407.38
1052.15
-1754.3
1754.3
101.428
1534.5
-1635.92
-1079.57
-479.437
653.128
-683.051
-384.905
941.677
-556.772
1331.88
-1317.27
-14.6104
-1100.4
715.496
626.472
396.949
-382.687
-39.2951
421.982
-472.159
763.845
-291.686
-1618.45
1618.45
1253.57
-1437.88
184.308
-488.69
1710.26
1255.1
-313.428
1660.74
-1161.24
-499.497
79.0594
-385.312
2065.65
-1135.29
-930.36
1815.51
-166.279
455.085
156.136
-611.221
-459.514
970.543
-511.029
-1172.57
1273.99
-568.066
970.716
-402.65
400.512
754.735
661.262
-492.397
-437.805
594.469
-156.664
1190.66
-835.425
2308.2
-1080.67
-1227.53
1163.83
-2009.15
845.317
-1604.34
1578.81
440.665
-1581.5
-759.024
1250.64
-491.615
-672.44
364.705
1661.46
-699.386
-1106.93
-870.896
1977.82
717.902
-364.367
-353.536
689.901
565.204
-258.211
1511.78
114.107
-318.128
204.02
-284.834
761
-334.624
564.846
-230.222
-324.529
809.759
-318.393
-148.31
466.703
318.038
110.077
1460.91
-459.718
-986.998
474.3
512.698
277.934
90.4006
-368.335
949.145
-341.431
-1705.7
627.758
1077.94
12.5786
-857.77
845.191
-280.409
595.227
-314.817
157.371
-1093.89
936.524
1051.37
-1066.95
15.5789
373.061
518.483
-891.544
-245.42
700.505
-1103.58
-482.249
1585.83
-677.899
950.743
-272.844
1354.64
-1451.02
-620.189
234.469
385.72
-470.198
-1011.54
1481.74
-538.574
-794.027
1332.6
576.056
-996.171
420.115
-265.091
-316.63
581.72
406.483
-292.375
-1037.13
577.612
955.468
-798.097
-110.35
943.917
-833.567
-209.565
418.061
-208.496
-644.734
-342.264
-386.739
962.795
1856.37
-1856.37
-500.111
-120.078
-953.993
1572.14
-618.146
457.646
-891.72
434.074
-923.516
355.45
-941.908
-1058.08
-1489.45
341.992
1147.46
-274.482
934.475
-310.53
609.173
-298.644
-1941.9
999.994
-1141.54
-347.911
561.913
-1515.91
1728.53
-1725.71
-2.82321
193.514
-583.935
390.421
-1469.07
980.449
488.622
286.861
213.689
-500.55
309.663
-644.288
241.655
-417.67
176.015
2019.48
-862.877
-1156.6
-537.097
154.41
616.362
835.893
-1452.25
-184.121
425.777
431.365
876.665
-1308.03
-907.427
392.882
514.546
-1046.83
1447.34
-1068.64
309.614
751.382
-97.9934
532.883
-327.591
-205.292
1011.16
-536.858
593.361
-1403.84
810.48
-1342.26
238.683
-546.359
265.95
-1201.91
927.424
1941.23
-994.015
-947.216
276.801
1579.57
-2095.22
895.526
1199.7
364.562
-31.3876
-333.175
-223.773
482.012
-258.239
-110.345
-377.628
487.973
-466.308
147.915
341.073
-131.852
589.498
415.182
381.884
-797.067
-2043.78
1123.78
920.007
461.147
-531.583
70.4362
221.655
-363.209
141.555
996.419
1023.06
1787.7
-253.206
706.768
-472.299
796.57
-1389.66
593.088
338.085
379.817
1056.14
-1043.56
-487.038
-263.638
750.675
477.485
-135.953
-341.531
797.065
-615.833
539.791
-733.656
193.865
503.331
1157.41
-1240
701.423
1037.29
-1529.71
-3.12787
-1439.43
1442.56
325.834
824.37
-1150.2
622.981
269.953
-892.934
-2271.98
1157.79
1114.18
-1108.98
-1163
169.402
370.389
958.756
-632.923
878.924
-898.671
19.7468
-2099.38
992.455
-224.903
-189.448
414.351
-41.804
1770.33
-823.942
64.1821
-1028.63
-1066.59
-229.459
451.114
-657.974
157.863
-274.131
-455.173
729.304
1104.01
-1574.21
782.916
-1374.42
591.506
708.075
-447.358
1947.86
-1444.52
-378.285
-1376.02
57.4468
411.324
-522.693
528.541
12.7314
-565.538
552.806
569.369
-282.509
-604.181
279.252
324.93
778.54
-363.357
33.9794
330.583
1188.47
-1191.6
177.249
229.233
427.041
-701.172
619.4
-1006.14
-2026.73
2026.73
-269.85
-464.484
734.335
699.126
405.867
-1104.99
579.594
171.788
401.002
377.538
-2199.75
1328.86
-926.464
-679.233
1605.7
-483.466
-718.44
-275.567
583.659
-308.092
843.699
-224.81
-618.889
-438.245
631.758
364.288
-674.818
-354.46
-113.141
467.601
-1332.98
-475.158
649.265
-1132.73
-374.145
-1244.3
844.337
1463.87
304.208
-909.558
605.35
966.452
-339.98
1391.38
-798.014
444.211
-266.962
-327.833
-888.111
591.972
296.139
-356.661
-531.45
307.022
-417.367
-182.112
-159.697
341.81
-392.776
1091.9
434.883
-244.245
-393.687
1353.57
-166.516
-1187.05
-458.132
267.862
190.27
237.748
283.884
-521.632
-8.67451
-724.981
592.12
-1729.03
1136.91
1482.59
-866.226
-1053.46
-415.613
-1057.01
573.633
483.376
1388.88
-408.434
929.138
-1411.39
-177.085
-176.586
353.671
-469.019
580.406
-1627.23
427.926
903.949
288.835
342.182
-631.017
568.058
1186.24
1103.82
-714.003
-389.815
405.315
-218.074
-187.241
-1419.45
445.563
737.955
-1183.52
1473.34
-544.206
-506.258
954.578
-448.32
426.151
1186.15
-1612.3
47.3798
-725.279
-145.431
423.365
190.716
-381.395
545.628
465.53
-585.457
34.6834
550.774
1024.53
-1307.66
283.132
662.386
-261.384
468.3
-1447.24
978.941
389.491
1686.96
-523.127
885.944
1055.29
-661.143
-1684.64
758.175
559.902
400.019
-959.921
454.718
78.8374
1750.02
-1828.85
1443.71
-379.49
-1064.22
1699.16
-1740.96
-367.109
-516.535
714.676
-198.141
-502.592
183.647
293.838
-373.19
-1225.98
214.439
-764.634
-639.207
-622.582
994.352
-371.77
-652.861
642.817
10.044
654.974
-923.611
268.638
-698.916
344.864
354.052
-648.331
-719.751
357.311
362.44
-932.271
1400.57
-416.137
885.81
-469.673
-2205.31
5.5575
179.908
-535.841
355.933
139.521
1214.05
-62.2687
-595.705
158.96
-596.765
1487.14
-704.22
373.949
-462.394
88.4447
-564.519
564.519
1223.02
395.427
1778
-1228.67
589.401
639.27
849.097
-52.0319
1291.76
773.894
-540.327
1336.9
294.518
300.709
272.515
-789.05
207.587
-679.746
230.609
-443.76
213.151
-263.765
598.443
-334.678
109.296
-373.061
-591.759
-564.619
1156.38
-407.804
528.854
-121.05
-1192.15
2032.04
-839.885
1289.5
-330.744
-401.237
136.147
-1984.55
823.375
1542.58
-856.274
-686.303
1986.98
-877.444
-1109.53
713.771
575.73
-240.65
471.259
-687.502
1163.69
-476.189
-769.888
1201.25
551.671
924.638
-1725.2
800.567
-584.321
-45.9894
630.31
266.238
266.645
417.805
-83.8974
-333.907
896.693
-83.5004
-813.192
911.901
-568.048
-343.853
1576.19
-472.179
890.072
-1627.01
736.939
1068.47
879.388
749.019
-442.768
-306.251
-1058.97
-258.294
562.368
577.143
-1139.51
-511.613
491.944
19.6688
577.021
-344.558
-232.463
-983.241
567.103
595.271
887.316
-441.814
1096.79
1413.17
-780.63
-632.544
395.593
-924.494
528.902
-1031.33
386.593
561.889
-1068.15
413.619
-498.713
85.0939
444.729
319.117
-515.793
-48.7262
-794.233
-878.805
1673.04
193.85
211.466
-240.145
409.546
1.18908
-565.447
564.258
497.02
865.525
-1362.54
-494.148
312.036
985.623
-88.9304
836.119
-1064.76
228.644
415.081
846.042
-1386.37
-447.612
829.496
1978.63
-1284.94
-693.684
269.909
609.014
255.785
795.585
87.7297
-977.289
889.559
1673.74
-1089.02
-584.714
-137.881
1887.9
-1866.07
-160.654
483.215
-621.39
138.175
-1013.82
526.827
486.991
-1730.47
538.318
-955.755
845.406
392.273
202.196
574.084
-269.875
-420.873
710.542
255.91
41.7192
722.627
-764.346
-1137.12
-891.024
2028.15
-554.225
1111.14
-556.915
-470.073
-332.964
108.061
-1655.18
860.95
-847.713
-619.995
1467.71
-331.089
-295.029
626.118
356.575
-672.112
315.537
240.436
-603.793
306.264
202.11
-508.374
362.251
-637.818
644.823
-288.248
314.995
-463.305
684.807
446.623
-208.875
-419.167
-300.584
1221.77
-0.950338
-1220.82
1039.56
-420.156
559.95
410.766
-1782.35
869.82
912.531
489.941
549.521
-1039.46
-534.611
203.522
-263.257
1181.09
-917.835
-1590.87
1212.58
504.659
-1096.42
385.527
-11.5778
461.846
294.052
-755.898
371.945
-617.364
-32.6917
756.511
-723.82
-525.706
795.659
389.208
322.072
527.025
653.311
102.82
-446.215
343.395
1058.7
-645.029
-413.667
494.025
-1664.27
1170.25
-1140.39
1753.24
-612.845
1715.84
-1123.72
-334.709
613.961
-1189.52
1277.25
425.037
-796.22
1604.58
-808.362
-245.181
-212.951
-907.861
1470.48
1813.19
-611.098
-1202.09
-405.033
682.424
-1305.01
-124.721
-69.7187
487.523
-689.144
-354.178
-1236.69
-220.634
461.07
903.33
-558.339
180.711
-1674.65
-71.2251
1745.88
-1073.75
519.53
568.115
-1182.26
614.146
901.036
912.15
630.675
619.963
700.452
254.126
-1155.55
468.045
-398.288
411.019
620.107
-514.901
245.499
-731.189
485.69
723.429
-385.344
-303.929
181.941
-587.997
243.655
344.342
-887.418
-739.593
1087.67
-2145.75
398.803
-683.638
-342.89
-724.059
832.288
580.887
-342.527
303.232
408.776
247.846
627.982
-875.828
541.048
622.643
-508.286
153.826
375.158
-645.008
-1052.78
-843.396
1896.18
-1798.92
157.108
1107.04
-1370.29
1176.52
-718.725
-457.795
-503.821
1349.86
-1495.51
627.895
867.614
-286.505
-210.199
496.703
1428.41
558.569
329.466
-442.607
-483.571
-567.665
1051.24
-418.551
598.459
1582.54
-1129.61
-452.922
-807.302
342.818
654.771
403.925
-1623.42
416.17
1207.25
-191.924
498.188
797.768
784.767
174.871
-682.392
507.521
206.586
211.475
-291.016
-109.519
400.535
476.091
52.0605
-528.151
-1647.26
593.802
-1610.84
1677.84
-67.0008
11.726
-1622.56
1069.56
785.658
-323.813
-826.869
-204.459
-1134.57
-239.852
-312.161
684.105
-1812.54
-630.071
1207.21
213.047
757.496
-1330.54
-678.607
-465.6
654.571
-365.736
-1013.28
1350.77
-1932.89
582.118
646.479
1288.16
484.847
-2.83525
716.211
706.561
-1422.77
-638.758
336.09
302.668
439.458
-100.252
-339.206
149.138
283.037
159.724
-442.761
-586.333
1146.24
458.08
-632.663
-461.454
-401.919
863.373
-323.687
146.602
-457.663
165.288
-304.573
-709.245
546.852
-107.393
-571.651
967.244
577.504
-269.234
-308.269
455.3
-779.829
-644.521
445.918
-1129.4
-840.093
1182.09
-569.77
445.947
304.729
-483.464
119.097
1028.66
-315.779
592.282
-276.503
-509.041
1578.6
-709.281
265.357
369.194
-634.551
201.338
529.989
-21.9108
-508.078
-254.398
-203.265
1005.98
1108.91
564.825
-876.055
937.042
-60.9868
-454.979
168.474
-767.533
312.36
-594.132
366.768
356.661
836.226
-1254.48
418.257
777.24
-809.931
-948.925
-550.384
1499.31
-168.606
510.788
-528.917
201.326
1310.18
774.951
-600.08
1335.83
-686.563
487.691
-660.015
-406.756
-423.037
-378.654
801.691
502.372
-843.804
-481.109
75.8141
405.294
-322.403
572.434
728.838
-330.035
-243.92
-175.471
419.391
-488.342
143.388
344.953
1458.68
81.3946
-1540.07
-751.989
1347.26
-1144.76
-466.038
561.882
-192.688
1150.95
-373.709
1083.48
492.71
690.876
-418.361
-885.005
-522.378
-1328.41
-25.4332
985.052
-959.618
611.945
348.208
-960.154
-320.273
-216.824
-683.262
405.526
1621.2
-195.357
368.255
345.724
-713.978
-1839.78
-2106.69
1519.14
587.544
-2038.74
349.517
379.202
546.608
-925.809
-460.335
1020.29
-409.552
-681.903
1091.45
-2030.54
1391.21
639.329
608.77
-1018.32
22.7544
390.864
386.722
197.823
246.389
361.383
987.972
894.816
679.875
-325.356
-354.519
-293.394
621.474
-328.08
573.06
530.758
565.175
514.822
-1080
-796.184
-699.324
752.263
398.686
-415.366
730.903
-1193.41
1609.58
432.882
-1114.78
-324.35
526.461
-1388.63
894.995
493.638
-722.664
-353.439
-771.676
332.341
439.335
447.145
718.155
-1165.3
1070.13
-580.185
-404.546
649.345
-244.799
253.41
324.094
-467.887
-432.2
900.087
-235.538
569.635
-953.645
384.01
-459.465
600.598
-1681.27
423.822
670.863
-1094.68
516.6
92.573
113.409
-2212.79
557.842
-111.895
1444.25
1777.09
-217.551
-1559.54
-438.461
1789.24
-1987.04
1194.5
792.537
402.636
346.383
-40.441
872.729
-1283.26
718.645
-869.807
-822.583
797.15
306.068
54.6253
-360.694
227.721
182.49
-410.212
1554.79
-838.58
-1530.94
-325.432
458.873
-203.36
-255.513
394.344
366.657
246.922
407.65
-9.44291
1002.01
-992.569
417.257
279.885
-697.142
-734.086
1817.33
-1083.25
-342.931
737.275
-1221.4
-414.527
-915.43
483.23
603.731
-811.138
207.407
761.498
-380.184
-381.315
-435.358
-440.697
451.195
1102.94
1237.67
-669.56
801.017
-345.717
405.282
329.053
-249.401
-212.992
-234.129
623.619
408.129
-847.597
439.468
244.616
362.098
-606.714
-422.363
830.492
754.465
-1147.24
899.762
-63.5356
-487.605
273.249
782.889
-95.9861
1384.15
1890.5
-67.9692
335.831
-345.526
448.347
-1086.51
1077.07
664.179
376.502
384.996
67.9472
390.926
255.867
498.044
-371.619
-267.139
-563.254
-89.6073
-356.477
366.048
-9.57042
-258.074
-288.285
1010.98
-1540.71
529.729
-177.195
-195.326
-420.837
700.722
-1636.31
1591.02
-963.123
286.432
-693.187
584.319
1224.42
-1808.74
607.42
983.598
308.467
-1120.06
699.19
-315.743
-315.274
1380.68
-1446.79
829.049
617.743
429.409
-615.032
185.623
-357.592
461.786
-104.193
404.701
71.39
1724.05
459.435
-252.849
557.637
-1704.79
1147.16
-94.5213
408.374
343.204
336.671
-448.604
-615.47
1064.07
414.844
-862.455
-640.941
902.806
570.538
-473.497
-225.419
-438.478
-409.118
-307.353
-827.217
1821.1
-1821.1
-103.076
-1596.66
1699.73
293.523
283.498
-917.175
-555.411
1472.59
-408.229
973.404
-605.142
-1042.12
707.18
384.736
-1091.92
476.959
-161.964
573.065
1220.35
-1793.41
-1043.32
2114.57
-1071.26
-375.374
-297.066
-504.767
847.585
-1753.43
1602.3
151.125
1753.43
-1607.29
-146.141
-245.318
524.209
-278.892
-537.292
1620.77
1569.1
-1983.63
1093.77
-337.708
-226.815
564.523
230.638
-554.989
-725.582
310.216
1341.88
636.751
580.909
482.967
-1063.88
275.682
415.194
875.375
500.11
-1375.49
534.218
-1017.79
1574.96
-563.975
-786.439
-377.648
-148.186
525.834
-490.089
1208.24
-740.23
332.779
367.726
360.747
245.102
-605.849
591.385
831.876
-603.232
255.888
681.154
-473.497
-372.192
-203.08
575.272
1168.52
-689.018
609.596
466.313
-1075.91
-1286.45
1286.45
-385.907
762.409
-283.342
-476.957
760.299
489.734
442.569
-932.304
390.148
-673.49
610.024
-868.718
258.693
-367.434
-493.542
1074.45
-661.16
-710.723
1371.88
-366.742
936.377
-1552.72
675.275
-7.19158
-364.214
371.405
-547.935
705.798
280.965
317.478
169.935
307.025
-562.825
247.082
1869.73
-1965.71
252.273
-690.517
449.264
-820.136
370.872
-912.01
1428.44
-516.431
-429.984
-485.447
600.76
1124.19
-1724.95
-715.331
339.957
-461.263
1034.32
-786.417
1042.31
-378.338
-628.103
-508.991
716.579
539.872
-357.86
904.578
-300.968
-187.373
1599.02
-1816.58
-334.94
-618.705
-332.955
476.343
270.101
-635.837
-158.588
1066.86
-793.613
206.188
-319.006
-273.634
592.641
388.095
-876.638
488.543
-485.968
-451.343
-909.558
-353.779
543.429
-189.65
-437.105
-424.762
-323.969
-184.405
-387.148
632.249
-466.55
795.603
-1072.62
624.014
-1408.12
560.405
-28.1741
-1836.41
1864.59
569.962
-449.845
1224.38
-704.846
288.895
-288.895
671.441
-438.297
1043.22
-1648.36
-1158.73
-947.953
292.098
329.375
890.096
714.487
-504.924
-287.391
792.316
1658.38
-1686.56
-434.19
346.718
222.651
1135.04
-525.447
-943.335
1550.48
-607.145
444.025
-246.202
380.819
410.344
-791.163
532.994
468.628
-1001.62
-331.799
664.578
-37.9273
1907.65
1605.13
992.746
-1696.97
726.989
-1177.02
450.034
-492.48
1367.86
837.472
-1341.29
-583.04
245.332
797.945
-397.926
550.927
-1188.61
637.68
-637.517
-1215.53
-695.664
1911.2
-184.252
528.381
-344.128
-120.142
291.306
-475.559
328.586
369.63
-698.216
-1484.7
756.353
728.348
884.06
-1434.44
824.85
-431.968
218.102
-363.533
-612.1
239.908
-668.1
-720.533
698.469
506.444
-1204.91
392.319
-204.558
-187.761
555.697
-958.347
-571.827
-451.21
763.57
-831.307
-1155.73
-1437.97
499.669
938.298
29.6791
-652.64
310.93
341.71
-1315.65
1045.65
270.004
-616.371
-456.247
-665.803
921.588
401.002
-202.271
-198.731
508.258
980.608
-1488.87
975.563
-562.34
166.475
395.865
-430.319
662.629
-410.356
-504.36
171.405
234.294
-1519.24
527.675
542.45
-761.046
213.111
153.358
-454.327
365.413
-816.757
1954.16
-1195.39
-758.772
446.247
-674.919
228.672
323.481
321.306
120.813
-442.12
-570.833
194.005
265.43
-691.747
1374.32
-682.575
424.086
476.947
-1199.61
266.135
1866.78
-1013.59
-853.185
784.731
-504.297
150.518
1402.36
-975.168
-427.19
329.701
-767.998
-616.529
1725.44
610.464
627.211
318.171
-12.1026
258.083
-1138.41
1725.72
-587.309
-1763.53
820.195
1762.38
-1692.43
-69.9497
-654.242
255.954
601.927
-710.166
201.175
1402.7
-565.228
386.898
442.598
-1858.61
1420.15
521.467
-450.542
-70.9254
199.928
-523.898
-321.277
-148.796
-352.306
695.51
-618.162
240.514
611.836
548.993
-1160.83
1113.61
-1947.51
833.898
143.751
323.85
-1699.26
1661.33
310.3
-728.66
-165.015
383.117
756.772
678.605
-1435.38
1080.42
-1081.37
523.78
-1103.96
-630.188
252.705
377.482
515.471
-271.815
-617.111
-1031.25
289.287
-714.049
-912.321
170.788
164.449
227.87
388.068
286.256
-674.323
-631.334
-834.074
-978.462
487.595
-1058.43
-281.363
471.633
532.677
649.409
-279.275
-121.963
-441.104
749.571
262.197
-1199.19
567.855
1309.49
-552.715
438.144
-1009.97
-386.668
117.58
403.887
1023.32
551.639
-1719.88
1616.8
1642.4
-580.427
-1061.97
1904.01
-1892.68
-11.331
229.069
-574.596
-339.605
545.793
-770.789
-318.46
-335.782
1025.29
701.117
-1511.08
809.966
310.629
-26.1882
1625.21
-1096.53
407.514
-1257.86
471.425
-60.746
1519.42
1197.35
-470.364
-488.188
-74.1524
-233.499
736.034
-1951.57
-710.218
348.927
-531.122
182.195
191.191
-506.97
1139.92
671.571
-1811.49
-587.046
136.504
941.943
-1497.35
-210.513
678.868
-468.355
878.522
1121.48
-739.242
1349.71
636.889
-539.489
-97.3995
-344.094
1173.14
1050.72
-1980.75
930.036
-1172.23
542.162
1488.79
-585.979
-384.709
-123.576
-1241.81
572.25
1166.81
-88.8724
946.119
775.646
-1721.77
-209.412
578.573
-1541.75
963.174
487.004
916.6
-1403.6
621.503
585.711
386.959
-1106.63
590.785
1107.02
1215.71
-452.287
-763.426
-1186.2
-1754.94
-6.10876
-1713.77
-177.913
-437.119
1608.02
-629.717
-978.303
-490.854
1121.53
-1318.31
635.578
682.736
-1362.27
1443.66
-1330.82
591.577
1520.52
-402.904
-546.943
162.234
-1492.44
225.656
176.38
203.223
433.665
458.116
394.631
-852.746
506.37
-938.983
900.644
-1444.85
-692.725
212.011
480.714
-1041.79
455.459
-475.037
861.935
694.762
29.0493
-505.048
160.919
-886.566
-1318.74
-715.262
349.421
365.841
403.167
-723.042
319.875
-478.59
-189.383
-709.288
720.601
1539.73
-593.612
817.634
737.157
1344.76
-844.649
-971.227
-570.521
-796.937
428.185
368.752
-1036.53
-642.473
303.793
338.68
-1433.69
-296.78
-790.508
397.757
392.751
-641.702
411.53
230.172
-667.341
256.985
412.8
487.287
389.927
440.565
478.744
384.629
596.439
-969.629
681.857
464.379
453.339
356.424
-809.763
1630.76
-1079.88
-550.877
-504.609
-287.402
-1028.25
453.876
347.815
409.7
593.909
-1003.61
-1381.35
751.63
-532.141
1146.29
345.432
-62.3949
412.317
-865.346
453.029
-1898.97
302.315
441.131
-726.057
284.926
-186.804
404.646
-217.842
-661.568
306.838
354.73
-674.146
319.627
370.965
391.445
612.602
-1020.83
752.941
662.361
-1415.3
438.816
625.258
339.335
392.782
-732.117
408.864
328.411
615.266
693.442
409.494
604.754
-1024.34
419.586
-1678.73
1180.86
497.869
1696.58
-539.177
620.613
-1147.31
526.696
-642.487
347.458
437.437
-935.05
497.612
772.985
-478.933
351.133
344.377
581.109
-916.049
651.773
-1253.13
601.353
390.048
734.606
-1224.7
769.404
509.664
-1279.07
488.605
399.392
-887.997
-501.692
-936.275
-300.872
629.459
352.607
541.668
-894.275
332.505
332.073
-502.183
1944.74
436.855
-846.957
410.102
-917.789
-807.416
-748.544
367.23
-1218.49
432.071
-1735.92
1607.29
128.626
1747.3
-1602.3
-145
-784.196
-592.948
265.554
327.394
-1762.38
1983.63
538.627
791.406
-1330.03
440.13
716.248
690.22
385.635
-1075.85
-49.0493
1617.15
-593.83
378.708
845.669
-649.157
326.106
323.051
-378.59
-297.529
550.939
-221.328
435.017
280.381
-666.002
385.621
264.473
-579.291
-282.392
442.618
-1033.4
590.786
538.052
1092.7
366.049
596.745
311.312
352.111
-663.423
1629.45
-928.332
1692.02
-1520.67
-171.347
-328.475
-823.173
414.055
857.457
-1067.97
-607.083
279.003
-1090.58
1628.63
-1592.18
-77.1682
1669.35
-341.528
-350.374
-370.353
537.63
597.413
-502.98
-28.603
-549.888
506.663
-283.83
-222.833
1754.05
-1302.86
-625.025
298.837
326.188
400.366
357.301
734.601
-295.65
-399.124
-1747.3
1686.56
459.622
-1100.89
641.265
-42.8464
1659.65
571.195
476.397
-1047.59
104.095
1144.76
-1452.12
-12.3968
-1886.57
227.772
-598.692
307.516
291.176
-955.309
612.419
-898.203
468.219
-1128.52
673.35
455.17
381.035
256.202
-761.126
-333.756
1216.98
886.677
699.154
-1182.92
456.162
726.755
494.438
700.671
-1195.11
-388.755
-248.059
412.508
-960.594
438.655
521.939
21.2438
-1879.86
1079.91
-469.887
-497.042
558.289
-1378.22
819.93
-426.031
796.903
-405.512
499.9
-713.551
1719.54
412.777
-184.907
215.613
-170.583
-246.252
416.835
1895.33
-504.117
-1695.98
1051.42
-601.234
303.705
-1013.72
553.381
-313.156
544.333
905.236
-1449.57
-1103.69
437.888
-20.846
-1944.87
1714.27
-663.549
-540.327
460.775
-1190.48
729.704
191.198
209.804
-281.43
770.374
700.104
837.968
818.019
-461.595
1084.88
-490.62
478.784
-193.416
-285.368
-1923.42
-713.948
-318.311
-642.886
-6.60804
649.494
467.136
-273.13
564.833
1064.61
-806.096
924.725
1244.27
-425.416
-168.612
-248.08
416.692
956.682
-888.482
-319.765
-1067.82
611.572
1558.08
-801.723
537.701
934.885
-392.165
734.655
-342.49
1130.35
-275.83
371.803
1349.69
-705.198
-219.296
448.316
-1198.61
750.293
-983.574
-139.855
1123.43
441.571
-955.642
514.071
151.131
732.459
483.254
743.759
-115.777
852.881
-425.878
1182.46
-796.822
552.203
-1465.48
913.276
-1216.65
1800.97
-431.71
-1510.19
879.607
-1401.99
-306.967
-448.931
1457.21
-1524.11
784.515
1491.48
201.863
276.921
-351.002
-1735.92
-286.75
-1015.14
1579.97
-1770.62
1770.62
1569.1
-1004.49
-634.087
-333.513
368.419
604.986
-412.732
-359.717
-1389.82
897.339
1125.13
600.589
1202.71
1789.48
-1216.42
-613.479
273.719
1659.04
-1916.53
257.486
814.725
-1267.65
1545.23
-561.634
780.292
330.847
-346.175
554.96
794.903
655.665
1372.48
-256.064
-445.174
-355.06
496.876
-340.74
471.834
736.41
-292.423
-149.697
-328.794
565.589
-236.795
27.8734
-372.431
1107.43
-1720.28
-452.88
-487.056
-564.333
863.531
694.545
-1596.48
904.737
-451.819
-623.24
-514.125
1252.08
344.393
1723.73
-1702.48
-1658.38
1892.68
-1560.79
840.245
720.547
-386.717
-1796.56
917.758
583.317
819.383
-388.033
1794.35
-680.738
-450.115
697.286
427.403
-1124.69
-1099.81
444.144
753.209
-1617.17
473.219
901.103
176.921
-402.703
225.781
-1601.42
-386.15
-461.809
990.268
-673.954
1442.94
-975.929
1854.45
242.193
-549.81
497.38
-295.516
474.327
893.529
543.166
977.351
-462.981
-427.961
574.032
883.183
-1392.7
-40.9902
1574.33
-837.17
519.958
971.522
-1475.84
-1115.9
1777.29
-1243.06
-534.227
1206.13
-319.08
-887.054
-191.988
455.097
-263.108
-457.42
-250.797
431.754
-180.957
146.424
-394.483
1735.28
-1741.39
-457.698
-530.859
-903.586
444.837
-206.68
-238.157
634.363
-481.493
-397.842
-310.643
708.485
-947.683
416.234
-1167.25
676.4
419.115
-637.049
-439.15
1577.34
-862.856
530.189
-458.02
-570.726
-462.677
363.763
-353.417
-10.3465
-1111.76
406.914
-664.804
-1033.64
1698.44
-603.648
-1423.69
712.963
562.224
-1596.26
1034.04
-396.424
-480.946
147.095
553.357
-1258.47
744.349
539.237
1005.99
-2133.18
999.987
1133.19
-353.11
411.67
-386.514
-25.1559
1478.05
-368.753
449.559
1186.9
582.295
906.49
567.572
527.597
-1095.17
166.255
-439.373
-1692.43
251.781
1127.56
-616.369
518.523
1013.72
-1532.25
1092.84
-1643.72
198.754
701.008
547.52
-867.285
-1086.47
-171.394
428.53
-257.136
-586.89
-427.794
-636.831
-627.733
346.303
-1618.93
939.702
-476.873
215.736
-400.642
535.243
-307.472
-610.579
1197.16
-1292.67
936.751
355.922
-1024.07
-361.297
-758.569
-826.001
1689.53
-477.033
1795.29
-1585.57
-209.724
-1556.63
1018.71
537.92
-726.737
-259.776
442.47
-182.694
-594.05
383.886
274.1
-657.986
-524.025
988.764
630.408
-351.405
-1620.27
1050.5
571.779
1103.53
-1675.31
-412.126
-292.425
-369.143
-745.769
-491.55
-331.015
500.949
1558
-995.772
-775.072
1497.46
660.246
-313.528
725.882
1152.36
-1878.24
277.381
302.88
-487.256
-1932.55
1720.11
212.446
738.637
-474.755
-263.883
531.841
1060.82
-1592.66
363.763
-1726.16
-233.211
1752.35
-1580.69
1073.77
506.92
-1727.81
1.64731
-521.758
411.67
1699.26
-1720.11
939.64
624.672
-1564.31
382.428
-219.143
-163.285
-416.363
-250.978
67.4816
94.9473
-354.723
-430.137
-438.581
-407.452
220.647
1510.23
378.917
-194.727
-446.975
462.852
-197.422
322.466
1510.76
988.727
-171.293
-817.435
-1104.09
1704.85
-1728.82
1064.01
-707.228
-1021.59
-1265.08
1844.99
-579.906
1155.07
-1771.17
616.105
271.076
-878.084
1675.75
43.4408
-1719.19
-491.172
-1083.04
-1735.28
-982.011
554.05
1019.59
590.238
1133.02
-1723.26
275.787
-468.475
703.974
-384.348
386.345
924.812
680.885
-372.936
-651.404
582.904
1072.54
-1655.45
-400.802
-368.484
769.287
396.695
-1661.33
1520.67
140.663
582.908
-1044.17
544.751
1083.88
-1555.67
994.037
-237.915
229.132
316.661
1904.01
419.853
-68.4639
995.857
722.752
-1718.61
-697.207
1085.33
-1557.51
166.039
-571.245
197.365
265.486
-665.082
-553.406
582.541
1034.61
-711.092
-253.995
-1368.61
675.437
693.176
-415.176
746.209
93.3641
-839.573
561.825
-137.164
1557.32
-216.254
266.931
-772.478
-1932.55
1664.62
1025.12
344.864
290.418
482.568
-930.049
-993.376
-1767.26
636.591
1693.77
508.26
-474.382
1210.79
1087.12
-424.955
1029.94
-978.444
492.387
486.057
700.329
1047.94
-1748.27
484.478
482.766
-1493.98
-746.745
32.7426
780.272
-413.043
-881.826
384.784
-539.058
-802.235
605.35
-577.437
1397.37
1055.15
194.133
234.397
-550.633
1618.52
-773.048
1525.99
-1727.84
575.264
1152.57
543.228
-883.208
-1732.84
1916.53
-183.691
1721.74
181.966
-544.243
367.18
-272.233
-481.465
1211.17
568.272
1128.31
-491.271
429.541
858.164
-461.215
-772.014
426.07
345.943
1418.96
1089.6
-518.231
1422.97
-510.605
-533.337
1043.94
-602.768
501.193
-1219.92
1692.02
1839.58
-687.214
1585.75
-646.114
-1241.27
717.243
-562.56
202.166
-391.614
454.558
-243.083
-519.692
-1246.71
1870.94
-624.237
1173.44
-552.831
1120.27
-1659.45
1696.62
-573.95
-545.956
-549.824
1720.07
-316.986
-688.057
-473.341
1223.63
-1685.07
-1860.11
613.399
332.35
-951.239
168.646
213.55
-1719.03
1204.15
514.878
1162.85
558.889
-511.899
-465.4
1192.15
178.777
225.869
588.446
1251.13
-539.179
-1238.58
1777.76
-1025.38
999.989
866.787
-204.105
-1659.04
1702.48
-510.103
1411.21
-1732.84
-341.718
-4.01854
345.737
-263.228
584.815
-321.587
101.272
490.7
781.342
-378.174
1257.52
1270.82
-413.363
852.107
-438.053
1817.47
-662.406
1586.56
-1723.73
-412.797
-760.787
334.681
426.105
-560.005
-563.36
79.737
-1138.71
-985.448
-669.845
1655.29
-943.704
-1189.47
207.367
-434.181
-648.179
705.656
1167.45
650.028
1410.33
-590.946
1636.74
1318.1
-573.75
-492.747
197.23
-503.292
1396.82
1240.14
-564.701
-999.986
892.965
55.4018
-948.367
603.435
-506.152
1403.49
1495.08
-588.585
-366.037
366.037
-589.461
1623.5
1239.47
-486.261
1134.15
-65.9095
1851.52
-393.545
1489.48
-588.84
-507.684
1347.93
-652.285
1218.65
-566.366
1554.81
-591.639
755.914
570.767
-1326.68
-669.129
261.741
513.211
600.306
-1957.3
-991.641
1586.56
368.856
-368.856
-68.803
387.838
437.012
348.626
56.0745
-317.637
925.14
-535.091
-426.372
814.209
-243.239
620.721
-427.94
1551.72
-444.344
-884.071
186.967
226.43
-413.397
601.17
1250.77
-1851.94
927.026
-458.807
-353.417
126.151
-1943.02
1816.87
-450.577
183.615
1181.22
-440.47
-740.752
-299.645
-582.181
-493.001
-386.514
-480.489
257.655
1158.32
-560.905
230.544
-381.591
151.047
-22.7506
-107.68
1376.02
-1268.34
34.584
-597.838
-586.418
-451.643
451.643
-1262.35
1985.1
-1344.37
-206.842
-1824.58
239.01
-1025.75
-974.243
-185.722
-1638.05
708
1229.32
-1924.98
368.918
312.695
-681.613
-1850.02
1234.27
615.745
-561.232
561.232
-959.137
-39.9728
-1866.07
-558.152
1650.86
-677.074
1636.18
-601.576
-180.519
-1706.05
-584.767
-470.369
-594.814
-465.827
465.827
-1537.81
194.527
1343.28
173.103
225.748
-398.851
502.419
486.308
997.012
-475.073
1751.3
768.231
-422.355
397.199
521.16
1702.06
-594.626
-552.97
1636.85
471.085
1812.76
-645.314
-1804.06
-1938.07
-646.984
-478.204
478.204
-573.95
218.889
-704.246
1019.4
-466.021
-1072.82
-285.289
1579.57
1852.3
1635.35
-1635.35
-290.712
738.763
1761.5
595.791
1275.15
173.304
209.123
591.631
594.85
1603.51
-1603.51
222.088
-354.124
-435.216
459.62
951.443
-459.056
-639.515
-1131
1706.26
280.034
-1660.93
618.808
-289.123
471.09
1744.65
-592.075
-215.504
-443.371
378.224
728.795
1738.57
-613.442
-511.772
-780.916
1960.54
-870.455
-1090.08
1642.77
-705.44
1223.97
-1824.95
600.978
357.657
-907.467
-185.695
-105.243
1098.22
-486.651
125.444
627.719
-1658.97
435.904
597.153
-1804.06
-583.281
1787.43
884.095
-1162.91
1760.49
-597.578
1783.83
-575.534
-1208.3
431.726
928.745
-1741.39
924.705
-1486.06
250.323
1235.73
-830.939
-1254.23
-379.009
75.458
303.551
581.734
269.316
1027.63
-443.654
846.487
-402.834
820.969
739.158
-1560.13
643.938
1066.32
-24.1663
-662.965
687.132
-1744.35
722.763
701.551
150.556
-1122.67
1936.76
-674.553
-1262.21
-537.179
1665.49
831.769
964.477
-1796.25
1227.86
683.334
-403.674
710.513
836.999
1028.29
-586.719
1761.5
626.463
1773.56
-1185.61
-587.948
-421.672
-323.141
744.813
121.449
-1185.67
1660.55
-540.272
-1437.81
1437.81
1250.57
594.418
1351.53
206.466
-568.152
282.109
-191.708
699.093
1113.67
482.078
-303.301
-870.074
-574.776
1739.74
-1739.74
993.657
-993.657
987.333
1025.17
-2012.5
1837.95
-613.978
-581.112
840.537
-947.851
-1052.16
998.331
690.725
-1689.06
-515.793
-366.323
-651.999
-808.427
2042.7
-1246.42
-613.687
1002.97
974.854
1289.77
646.99
325.384
1012.69
237.76
337.688
1186.24
1756.88
-1756.88
671.851
79.7983
-388.068
-997.054
-539.992
1674.14
990.105
1009.9
-1833.29
-223.059
-361.709