/*--------------------------------*- C++ -*----------------------------------*\
  =========                 |
  \\      /  F ield         | OpenFOAM: The Open Source CFD Toolbox
   \\    /   O peration     | Website:  https://openfoam.org
    \\  /    A nd           | Version:  7
     \\/     M anipulation  |
\*---------------------------------------------------------------------------*/
FoamFile
{
    version     2.0;
    format      ascii;
    class       volScalarField;
    location    "7";
    object      p;
}
// * * * * * * * * * * * * * * * * * * * * * * * * * * * * * * * * * * * * * //

dimensions      [0 2 -2 0 0 0 0];

internalField   nonuniform List<scalar> 
7639
(
0.597724
0.0318642
0.892691
0.5749
-0.00316481
-0.000149167
0.889179
-0.0194649
-0.000454585
0.252048
-0.000141003
0.00864926
-0.0290011
0.129019
0.260832
-0.0366024
0.615913
-0.0380976
0.00450567
-0.15525
0.174518
0.0056502
0.0965252
0.463213
-0.0494249
0.618723
-0.00291128
0.157557
0.391336
0.00983893
-0.0516923
1.31303
0.0951943
-0.00180361
-0.000402567
0.206368
0.010887
0.861419
-0.0162176
-0.00126085
-0.0147213
-0.0356344
-0.141997
-0.0321933
-0.000762081
-0.000316905
0.00558693
-0.0163539
-0.000265193
-0.151603
0.0129225
0.15058
-0.0623173
-0.002405
0.20525
-0.0173345
0.00502451
-0.019577
-0.0792358
-0.00189125
0.000130758
0.0165864
0.129274
0.00950997
-0.00362734
-0.0503607
-0.00037584
1.32888e-05
0.194987
-0.0151719
-0.00029218
-0.128194
-0.0477285
-0.0815381
-0.0367226
-0.112951
0.879367
0.170756
0.161941
-0.146702
-0.0278456
0.792256
0.245205
-0.0842698
-0.00530935
-0.00835063
-0.0208467
-0.0604197
-0.00243512
-0.0162943
0.400604
-0.0497913
-0.000512879
0.00459612
-0.0130008
-0.0828744
-0.123137
0.00466222
-0.00583486
-0.00433717
-0.139421
0.177691
-0.012376
-8.28782e-05
-0.0375679
0.41276
1.13741
-0.0183593
-3.48589e-06
0.0905901
0.545149
-0.0830785
-7.02333e-06
0.0960157
0.412645
0.00163882
-0.0877786
0.335173
-0.0920085
-0.0827082
-0.144613
0.760871
-0.134657
0.0371855
-0.141312
-0.00357986
-0.0457281
0.00760428
-0.00382125
-0.0508972
-0.126919
0.162195
-0.00225006
-0.00286683
-0.0872006
0.528769
0.929
-7.20386e-05
0.0288376
-0.180514
-0.0772939
-0.105461
-0.113336
-0.0779431
1.15109
-0.0358118
0.395288
-0.0757428
-0.10678
0.757913
0.197598
-0.0338533
-0.00540893
0.156334
0.244334
0.803988
-0.127454
-0.0288704
1.08777
-0.000240799
0.00238227
0.480238
-8.08425e-05
-0.00743529
-0.0146668
0.590245
0.592234
1.12472
-0.00851764
-0.011257
1.46819e-05
-0.150372
0.00161677
0.0448934
0.0310864
-0.105086
-0.00189312
0.338646
-0.000508811
-0.00185781
0.585442
-0.000239676
-0.000433088
0.895253
0.0219445
-0.0748237
-0.0863594
-0.0761247
-0.0438024
-0.176936
-8.68244e-05
-0.118442
0.350172
-0.0124927
0.000249074
0.45057
-0.00467987
-0.0477441
-0.0437764
1.74508e-05
0.00348384
0.540594
0.41483
0.805296
-0.0757044
-0.0721234
-0.144089
0.171886
0.531718
-0.000815715
0.00011406
1.08685
-0.0315521
-0.00235043
-0.113282
-0.0478183
0.736002
0.749911
-0.113406
1.24845
-0.00434022
-0.0377356
-0.142877
0.206519
-0.173119
0.511469
1.08812
0.000210408
0.0389755
0.355488
-0.0153368
0.328142
-0.00207462
1.20237
0.786845
-0.0207659
0.0107197
-0.00117166
0.311486
-0.00036967
-0.0225532
-0.168757
-0.000292084
-0.00506306
-0.00165333
0.372331
-8.17698e-05
-0.0169361
-0.142205
1.30968
0.145767
1.16169
-0.000181941
-0.049774
-0.000738992
0.837652
0.01603
0.933208
0.0058513
0.00297009
0.028355
0.178022
0.00224499
-0.000886643
0.00199534
-0.0161123
-0.0713368
-0.000170559
-0.123131
-0.0139659
-0.000558903
-0.00245591
0.893168
-0.0288294
-0.00296581
1.23631
-0.00558262
0.576566
-0.000819742
0.0051649
2.43459e-05
-0.0831422
0.199238
0.0104377
-0.0794634
-0.00159531
-0.139998
-0.0563724
-0.000707394
0.00192495
-0.00823722
-0.0277141
0.0115917
-0.0046758
-0.080564
-0.0611143
-0.0796744
-0.00922821
-0.100363
0.785052
0.81321
-0.00578675
-0.0454875
-3.33329e-05
-0.00879534
-0.0842788
0.451738
0.272566
0.00034964
-0.00803439
-0.0977397
0.39246
-0.00386288
0.014121
0.00480757
0.14001
-0.128943
0.753537
-0.00622283
0.0302289
-0.00045756
0.0162606
-0.000214926
-0.0608379
-0.00135
0.0196633
-0.102947
-0.0971834
0.00994545
0.0345421
-0.00286671
0.0802833
-0.0255092
0.203804
0.378933
-0.180958
-0.0425046
-0.0582749
0.020306
-0.163963
1.15027
-0.0307849
0.117144
1.22375
-0.00599103
-0.00675296
-0.0443204
-0.00415463
-0.0282797
0.0249764
-0.0106812
-0.00798184
0.374441
-0.000281719
0.00214317
0.000282158
-0.0130517
-0.026183
-3.93552e-05
-0.00429723
-0.0758721
1.08066
0.0128622
-0.031069
1.01948
0.670625
0.178907
-0.0225706
-0.152658
0.0195025
0.569933
-0.0408863
0.659144
-0.0515514
-0.142209
0.422628
0.664149
-0.117403
0.258148
0.502269
0.603597
0.168562
-0.0117803
-0.016232
-0.000357512
0.0168432
-0.0417755
0.00394395
-0.000431908
-0.00621062
-0.141694
0.215338
-0.0610747
-0.0089144
-0.014573
0.0231917
-0.0265258
0.00725047
0.435139
-0.00728981
-9.98433e-05
-0.000234587
0.000164662
-0.0734864
0.364506
-0.0153283
0.107229
-0.178105
0.844914
0.0131103
0.0264552
-0.0196521
0.865119
-0.00415062
0.746968
0.402924
-0.000470538
-0.0567763
-0.0126859
-0.100974
0.00221994
0.196069
0.0140206
0.0246541
-0.00334352
0.343116
0.399501
-0.0854473
-0.0753839
-0.00870995
-0.0491414
0.157444
1.29265
-0.0612443
0.0180946
-5.19672e-06
-0.0481782
-0.00873783
0.0734856
-0.153826
-0.0580358
0.90068
0.365034
-0.126103
0.471152
0.849457
0.104713
0.00481494
0.594929
-0.00347767
-0.000736271
-0.062522
0.000314775
-0.158736
0.000362377
-0.0769353
0.00755477
0.461679
-0.00690776
-0.000106787
-0.153484
0.00678988
0.104184
-0.134103
-0.175384
-0.00440225
0.358884
0.297686
0.305615
-0.000818884
0.195805
0.219896
-0.00207829
-0.0589279
0.00237773
0.0240589
-0.00570235
0.0186017
-0.00305422
0.305708
-8.79214e-05
0.00074765
0.00772662
-0.0755533
0.0796037
-0.0730963
-0.0895074
-0.0688654
-0.178718
0.0342088
0.577281
-0.0634961
-0.0250265
1.21537
-0.120748
-0.0275556
-0.0880232
-0.0209452
-0.0713352
-0.0371751
0.10757
-0.0452477
-0.00011457
0.0946361
-0.000390816
0.785566
0.201487
-0.0183266
-0.0499936
-0.000753312
0.794937
0.718081
0.16336
0.323876
-0.125615
0.958247
-0.000263692
0.0761041
-0.0636331
0.355834
1.12654
0.131893
0.350723
-0.0062976
-0.000816727
0.282252
-0.101521
0.83161
0.109644
0.506194
-0.026233
0.860805
0.684626
-0.0332107
-0.028163
0.235886
-0.179594
-0.00034812
-0.0462721
-0.171984
-0.126518
0.0431694
0.0356085
-0.000506745
0.724417
-0.00347795
-0.000418238
-0.0507724
-0.00192793
-0.000891127
0.0137856
0.503831
-0.139399
1.05642
0.000222314
0.496623
-0.0430163
-0.000315704
5.98166e-05
0.38728
0.485343
-0.0152286
0.443187
8.49487e-05
0.466601
-0.179224
-0.0346332
0.886004
-0.109074
0.298712
-0.0844783
0.461758
0.479066
-0.0569182
-0.0716981
-0.0215776
-0.0106314
-0.000804251
-0.00406835
0.624302
-0.000118259
0.44863
-0.129708
0.72533
0.427739
-0.176029
1.02951
-0.00604015
0.0221726
-0.064362
-0.0683919
-0.0238794
-0.050506
0.111409
1.18762
0.000148796
-0.00712555
-0.0852241
1.90394e-05
0.799158
0.00692455
1.76287e-05
0.00072131
0.00143058
-0.0586503
0.0717313
-0.00574494
-0.00034926
-0.0252365
0.010502
-0.171932
-0.162344
0.0805261
-9.35447e-05
-0.184256
-0.0450836
0.259448
0.713021
0.00452489
0.282721
0.000560473
-0.0433486
0.229037
-0.0238888
0.540592
-0.0443674
0.0858833
0.237194
0.357944
0.0175507
-0.0355967
0.412915
-0.146011
0.853664
-0.0320357
0.601469
-0.0319379
-0.00432538
0.334964
0.00868229
0.225376
0.00723007
1.56296e-05
-0.180721
0.422576
0.00544499
0.255727
-0.0420968
-0.190286
0.0288018
-0.0758046
-0.00617626
-0.030098
-0.138241
-0.0909652
-0.0335676
-0.000588014
0.897519
0.274878
0.10675
-0.000766342
0.679293
4.51409e-06
-0.000704636
0.298315
0.00769439
0.367546
0.155332
0.0629848
-0.0347503
-0.160669
-0.00240478
0.00489407
-0.13064
-8.59682e-05
0.0143666
0.517902
-0.0542053
-0.01028
-0.018689
-0.00723138
-0.00155051
1.21233
-0.0338678
-0.00209419
-2.62632e-05
0.326647
-0.0936567
-0.00124268
-0.0101269
0.376092
0.221216
-0.116517
-2.46904e-06
0.411746
-0.0531746
0.440225
0.060202
0.0735185
-0.0959104
-0.000372691
0.231519
0.202609
0.0574695
-0.117248
0.622695
0.0225187
0.401038
-0.00875021
-0.0509826
-0.00148669
-0.0038333
-0.000426841
0.377904
0.550777
-0.00546956
0.0701087
-0.057405
-0.0913992
-0.105277
-0.00687221
0.0707198
1.17484
0.0420971
-0.000223274
0.217927
-0.0132721
1.00851
-0.0418785
-0.0367136
-0.00158299
-0.041962
-0.0217335
-0.0268624
-0.0115923
0.00577658
0.0964159
0.00037462
-0.165632
0.0102819
0.769659
-0.111852
0.383975
0.00758262
-0.0553
-0.0356166
0.475932
-0.0253465
0.000370263
-0.0517886
-0.018694
0.077264
-0.0865209
-0.0744649
0.00541471
-0.0490604
-0.0115748
-0.131292
1.53757e-05
0.128995
-0.116944
0.329533
-0.0513654
0.224284
-0.128048
0.701707
0.0293135
-0.0988826
-0.0348118
1.06476
-0.138548
-0.0437889
-0.166279
-0.061015
-0.144217
-0.0797698
0.394599
-0.010216
0.557244
0.0320723
-0.00146795
-0.00442008
0.193797
1.31741
0.00412118
-0.0422201
0.39371
7.22999e-05
-0.0685185
0.0978876
0.0311002
0.0325891
-0.00592283
-0.0835533
-0.0106074
9.55268e-05
-0.103765
0.563634
0.0147277
-0.0553949
0.00694381
0.39328
-0.00143336
-0.00461435
-0.00136165
-0.00287549
0.0947598
0.0182416
0.0122552
-0.0593715
0.000148867
-0.146818
-0.0873383
-0.161353
-0.0449335
0.0536368
-0.000811789
-0.0423657
-0.139815
0.0724472
0.729256
-0.00461989
-0.155409
-0.017304
0.0352368
0.342962
0.00158458
-0.000608403
0.254369
0.0519811
0.055139
-0.010935
-0.00770754
-0.127807
-0.00068605
0.00509065
-0.0447763
0.63411
0.563588
-0.0448614
-0.111855
0.0266752
0.0183226
0.0428121
-0.125558
-0.0251861
-5.98916e-06
0.0347845
-0.0803843
-0.138663
0.0205832
-0.125905
-0.00151326
-0.0109922
0.432717
-0.0918704
-1.81948e-05
-0.010364
-0.1137
-0.00063894
-0.0323846
-0.000206205
0.0152949
-0.166365
-0.0480496
-0.000101096
9.96945e-05
0.285635
-0.090449
0.80111
0.577244
0.0297841
-0.00218231
-0.02859
0.000777396
-0.126474
-0.130451
-0.00499925
-0.0538439
0.556661
0.0315692
0.000966283
0.0230271
-0.145575
0.00717563
-0.040102
-0.135092
0.0100906
0.0586151
0.167471
0.0312563
-0.0727477
-0.0770066
0.410278
-0.0484851
-1.97169e-06
-0.144999
-0.150516
-0.0572551
0.0161268
0.00274677
0.0306202
-0.160245
0.0860709
-0.0878011
0.288616
-0.0660199
0.0220594
0.0516629
0.0477009
-0.0890988
-0.126369
-0.000413035
0.323269
0.447708
0.0211334
0.439287
-0.116099
0.116902
-0.0897136
0.431469
0.231953
1.16871
1.11806e-05
0.23495
0.385207
0.0393354
-0.00423123
-0.0466868
0.00859872
0.000137827
-0.0465375
-0.099323
-0.0510884
-0.0560642
0.000451168
-0.0953216
-0.00108642
-0.00254564
0.509525
0.0185898
0.134481
0.0553028
0.442471
0.03197
-0.00116422
-0.124045
0.0227974
0.763241
0.00354675
-0.104963
-0.000668769
-0.00158783
0.0210867
-0.0754904
-0.000105071
-0.0278879
0.0774419
-0.00552791
9.79026e-05
-0.000154602
0.33173
-0.0252914
0.0188519
-0.00317071
0.0238172
0.0417292
0.0237345
-0.000857625
0.741745
-0.10296
0.469766
0.640175
-0.000619902
0.11543
0.250651
-0.00220329
-0.000785645
-0.00125588
0.0265508
0.0465563
-0.0215218
-0.0421317
-0.136506
0.370881
-0.130463
3.00074e-05
-0.0492197
-0.0454332
-0.089459
-0.0117388
0.0164618
0.00345114
0.0729934
-0.00147739
-0.000692479
-0.0437777
-0.0117718
-0.0627508
-5.09356e-05
-0.0378396
0.0875731
-0.00548122
-0.0276632
-0.0224134
-0.030152
-0.0236036
-0.0141367
0.0290698
-0.0243525
-0.000313084
-0.00115191
0.0615673
-0.0312902
-0.0134473
0.0230181
0.00895597
-0.189678
-0.0284957
0.339879
-0.032133
-0.123933
-0.0583845
-0.0571729
-0.0396984
-0.0102255
0.00609167
-0.00960555
-0.0353315
-0.0409786
0.415546
0.327193
0.129102
0.71081
-0.000216652
-0.00868366
-0.0417225
-0.0210173
0.210315
-0.0512662
0.126355
-0.0112541
0.448731
-0.00528357
-0.00443181
0.0497848
-0.0362684
-0.000640507
-0.0493295
-0.0159107
-0.0527556
-6.63879e-05
-0.0178415
0.00539946
-0.0444333
0.092501
0.0896447
0.0491904
-0.0357462
-0.078609
0.258811
-0.00349027
-0.00537383
-0.00577753
1.01137
-0.000277024
0.175725
-0.0536894
-0.0517323
-0.0665686
-0.0949058
-0.0720061
-0.0852093
-0.0459962
-0.0124857
-0.000287989
-0.0115498
-0.0545248
0.226841
0.00456587
0.321424
-0.0820964
-0.0338095
-0.00255596
-0.072208
-0.000302322
0.323536
-0.0755222
-0.0657459
-0.0599764
-0.0102077
-0.0799069
-0.00465454
-0.100938
0.230954
-0.0648866
-0.143171
-0.00401746
-0.0678496
-0.0467548
0.0399295
-0.00878429
0.310734
-0.00656462
-0.0483048
-0.00186982
0.346731
-0.0967901
-0.0664352
-0.00878964
-0.0252055
-0.0074751
0.406662
0.0471732
0.425011
-0.0127056
-0.00226423
-0.00346507
-0.00630601
0.369786
-0.145738
-0.0183601
0.000891261
-0.0174695
-0.0170969
-0.00247787
-0.0292613
-0.0399202
0.138614
-0.0134061
0.0141351
0.987473
-0.149802
-0.0725199
-0.140121
8.25177e-05
0.17818
-0.00961198
-0.0675663
-0.0151407
-0.0888557
0.0120621
-0.00147883
-0.00786628
0.00869693
0.426162
-0.0157472
-0.00486504
-0.0125838
-0.124217
-0.0223253
-0.0562292
0.0118323
-0.0233494
-0.0239594
-0.00889865
0.434398
-0.113917
0.00861285
-0.0113698
-0.0694138
-0.0366591
-0.122164
-0.00382968
0.211746
0.0597013
-0.0210831
-0.00470288
-0.0357065
1.04319
0.42958
-0.0299164
-0.00160244
-0.00647729
0.0179256
-0.0107829
0.0543136
-0.00115441
-0.0353818
-0.00539371
-0.0442278
-0.105453
-0.00290687
-0.0271075
-0.00371572
0.663884
-0.0173038
-0.0308854
-0.00532991
-0.00527746
-0.0752473
0.119338
0.922559
-0.028526
-0.0301644
-0.00576264
-0.00129427
-5.87855e-06
-1.38453e-05
-0.0269188
-0.00182575
0.246566
-0.00185753
-0.00494969
0.0219697
-0.000723919
-0.109553
-0.11599
0.0445991
0.0983992
0.0667926
0.0989023
-0.0694494
0.208257
0.16361
0.218849
0.272343
-0.0340998
-0.00240077
-0.0152205
-0.129143
-0.00949406
-0.0393264
0.0774986
0.698108
-0.10251
-0.00134084
-0.000100857
-0.0040102
-8.23346e-06
0.0249816
-0.00153596
-0.0120108
-0.117589
0.00143954
0.00714999
-0.000615017
0.161464
-0.0403913
-0.0505022
-0.00328782
0.673188
0.593522
-0.0267054
-0.117926
-0.0703071
-0.0617616
-0.0377663
-0.00508421
-0.144425
-0.0641562
-0.101919
-0.0850026
-0.00016069
0.409847
-0.0237057
-0.0256543
-0.0581242
0.0488019
-0.00146922
-0.0223319
-0.00373332
0.0358286
-0.00409189
0.359016
0.000920627
0.0264362
-0.00114779
-0.109928
0.0234456
-0.00208586
0.0357114
0.00108212
0.0638199
0.264485
0.00514201
-0.00394523
-0.000358436
-0.00157996
-0.00139852
-0.147703
0.276948
0.0524954
-0.000750526
0.0254081
-0.00127016
0.482266
-0.144577
0.534662
-0.105968
-0.00125101
-0.000808689
-0.0195382
-0.0150988
-0.00174212
-5.71917e-05
0.0648055
0.0737873
-0.000661927
-0.000936554
-0.0507638
-6.86457e-05
0.363102
-0.00258293
-0.128137
-0.0490227
-0.0170116
-0.134145
-0.145944
0.329936
-0.0311835
-0.0520058
-0.000885188
-0.137129
-0.0528486
0.0448076
0.215341
0.733164
-0.00320781
-0.143463
0.0359623
0.649012
0.0982662
-0.00034122
-0.0161541
-0.0109318
-0.0133066
-0.116984
0.210749
0.000451922
0.0531883
0.00814681
0.183287
-0.00144277
-0.00035929
-0.0992668
0.592611
-0.132133
0.321611
-0.00337921
-0.000567685
-8.15356e-06
-0.131717
-0.102395
-0.00095432
0.240876
0.0293283
-0.0142959
0.848108
-0.00110239
-0.00992342
-0.140816
-0.0388069
-0.00616066
0.297416
-0.104474
-0.000468219
0.0356756
-0.000504031
-0.000291388
0.308451
0.0107367
-0.00125196
-0.125584
-0.0623512
-0.0093641
-0.0468409
0.00634692
-0.0577883
0.00444491
-0.00940245
-0.154303
-0.0935529
0.0552612
-0.00249111
0.343612
0.443561
-0.131031
0.0260316
0.0494506
-0.0115178
0.360634
0.244497
-0.0706988
-0.000459299
0.0264458
-0.134067
0.0351286
-0.0688629
-0.00566303
0.113626
-0.0691882
-0.000389149
-0.000217283
-0.0552086
-0.0607364
-0.0655056
0.0257777
0.0396658
-0.107554
-0.000442473
-0.00374512
-0.000594513
-0.0778105
-7.33406e-05
-0.00521914
-0.0834145
-0.15693
0.240115
-0.00800978
0.0110948
-0.0536197
-0.0641752
-0.000367621
-0.113146
0.221156
0.342264
5.4364e-05
-0.000318477
0.348384
-0.00675113
-0.15141
-0.0990988
0.00891633
0.00124334
-0.166216
-0.022007
0.35652
-0.137214
-0.00399968
-0.0216591
-0.122437
-0.00157997
-0.000673113
-0.00249329
0.00421129
-0.124264
0.30788
-0.000589957
1.02994
-0.00240704
0.000284173
-0.00262985
0.000635839
0.000731842
-4.827e-05
0.000340708
-0.128581
-0.0019749
0.00112156
-0.000555899
0.309253
-0.0152164
-0.000542431
-0.000139012
0.757812
-0.0544359
-0.0353757
0.00303298
-0.00195493
0.144483
-0.000284596
-0.0303445
-0.151965
0.00577236
-0.0165955
-0.000277152
-0.000576276
-0.0758308
-0.114371
0.0190828
-0.13978
-0.0862501
-8.51608e-05
0.0545904
0.0816391
0.245953
-0.00465532
-0.000441924
-0.135089
-0.0162046
-0.00137892
-0.119688
-0.000390151
0.102999
-0.000270626
-0.0034599
0.0241247
-0.00555383
-0.140972
0.951125
-0.00438017
0.00070826
-0.126172
-0.113429
0.0244371
0.0124377
-0.000425596
-0.0778234
-0.000245582
0.420602
1.24605
0.182698
0.00804
0.00955349
-6.0443e-05
-0.0690721
-0.000173183
-0.0170425
-0.00457285
0.000951451
-0.00897383
-0.0242405
-0.000349038
0.00227886
-0.0200042
-0.000867421
-0.0248128
-0.0420274
-0.0065462
-0.00304581
1.11756
-0.00189227
0.00646353
0.00062049
0.0360774
-0.120902
0.0254861
-0.000496866
-0.000285366
0.00705123
-0.00031463
-9.60611e-05
-0.0290445
0.00181622
-7.4138e-05
-0.123387
-0.00587432
-0.136791
-0.00442247
-0.000196689
-0.0083355
-0.0130852
-0.0378419
-0.0523991
0.00609842
0.00135097
-0.00127463
-0.00532392
-0.00023251
0.585429
0.0041097
-6.2004e-05
0.00151884
-0.00540304
-0.000990584
-0.153275
-0.132542
-0.000379784
-0.0185038
2.57757e-05
-0.00679746
-0.000211848
0.0884589
-0.000397315
-0.000533041
-0.00907996
-7.68657e-05
0.0351441
-0.000627733
-0.00341581
0.0483955
2.163e-05
0.787983
-0.129198
-0.101785
-8.00538e-05
-6.46223e-05
0.00507392
-0.00320488
-0.12025
-5.32249e-05
-1.20761e-05
0.00193721
-9.49367e-06
0.000977069
0.00115978
-0.00125205
0.00205995
-0.12757
0.983484
-0.0762418
0.713256
0.0237719
-0.0414552
-5.89485e-05
-0.00237522
-0.0317426
0.000356412
0.000727994
0.000430966
0.154331
-0.00356388
-0.000614957
0.998688
-0.00145842
0.00151824
0.00130449
-1.53768e-05
0.0490896
-0.00576543
0.0029797
0.000306046
-0.00144041
-0.000196636
-0.00245906
-0.106787
-0.00113914
-0.0041376
-4.96435e-06
5.07824e-05
-0.000706524
0.412015
-0.00120597
-0.000766422
-0.16676
0.00991166
-0.000254418
-0.00359723
-0.000176312
0.378972
-0.173424
-0.000830614
-0.00105798
-0.00485489
-0.000451405
0.141058
0.259349
0.0935284
0.00130749
-2.16082e-05
-3.6441e-06
0.143932
0.000649158
-0.147144
-0.0518111
-0.0402508
-0.0566179
1.11783
0.00517387
0.42724
-0.0372876
-0.0725698
0.385429
-0.000971915
-0.157502
-4.12193e-05
-0.0234771
-0.120677
0.000131241
-0.110534
-0.00255526
-0.00466776
-0.0137743
-0.105712
-0.104222
-0.00793552
-0.142511
-0.109127
-0.000516689
-0.0312716
-0.000159166
-0.0926905
-8.36833e-05
-0.000513556
0.0563553
0.366094
-7.9986e-07
-0.111047
0.00940887
0.000182637
-0.0518237
8.10209e-06
-0.0353459
-0.000721315
-0.0954782
0.000315854
-0.000248498
-0.00534928
-0.000156541
0.357417
-0.0758999
0.180145
-9.84965e-05
0.00163428
-0.0809678
6.07359e-07
-0.138286
-0.159892
-0.135783
1.04102
-0.0169621
-5.43803e-05
0.0668353
-0.102535
-0.00654094
-8.95368e-05
-0.000243078
-0.116284
0.000314458
0.00229867
-2.82372e-06
0.000396339
-0.0702792
0.228065
-0.103329
0.230716
-0.0140001
-4.25971e-06
0.0174661
-0.114375
-6.28785e-05
-4.36503e-05
0.000824556
0.000154903
0.00104344
0.489379
0.0897392
0.000134829
1.99517e-05
-0.160929
0.442822
0.395907
-0.000129586
-0.0896635
-0.0474701
-0.0257306
-0.11799
-0.0212032
-0.00763502
0.31967
-0.000126502
-0.0660672
0.376873
-0.119499
-6.31643e-05
-0.150014
-0.000481616
0.626297
0.0736063
-5.71694e-05
-8.59178e-05
0.413622
7.17865e-06
-0.000496504
-0.0301827
2.0021e-05
0.541751
0.00913436
-0.018998
-0.15873
-0.00985078
-0.154018
0.408236
-0.0220076
-0.0244969
0.00259012
-6.347e-05
-0.00270533
-3.73248e-05
-5.529e-05
0.0692964
0.403238
0.338362
-0.00118236
0.533283
-0.0265487
1.15816e-05
-0.112795
-6.37691e-05
-0.0694028
0.0763365
-0.0357014
0.0116099
0.00484619
-0.0240395
0.000616688
-0.00438217
0.0527838
-0.00755581
-0.00014551
6.68838e-05
-0.000175457
0.0796676
0.000128492
-0.0531769
0.56393
-0.0155919
0.000120559
-0.00901374
-4.07005e-05
0.176017
-0.000953795
-0.000186666
-0.00023708
-4.31485e-05
0.464862
-0.00042169
0.519654
-0.147554
0.000272435
-0.1222
-0.00130561
0.352506
1.02353
-0.003698
5.05111e-06
2.89759e-05
-6.65179e-05
0.313697
1.2485e-06
0.00271582
-0.0608506
0.493472
1.09529e-05
2.81297e-05
6.32814e-06
5.53971e-05
-0.0518329
3.4931e-06
0.574218
-0.0395186
-0.000340312
6.79877e-05
-0.00539313
-0.0727317
3.0767e-06
-0.000160834
0.371834
7.6693e-05
-0.0793043
-0.0932247
0.000327991
1.77652e-06
-0.173059
2.71675e-06
0.369471
3.30291e-05
-0.00118856
2.22685e-05
-0.000475435
0.218904
3.21697e-06
-0.00427445
1.10816e-05
0.0354768
-0.00881102
-0.0164958
0.00253762
0.346376
-0.000737388
-0.000227952
-0.0227902
-0.0220405
-0.000656742
-0.000162681
-0.00236662
9.0424e-05
0.38285
-0.0257264
1.02014
-8.08929e-06
-0.0197088
-0.00044301
0.304936
0.0001334
-0.0649895
5.25068e-05
-0.00413593
-0.0826742
-0.00062115
-0.0398822
-0.120509
0.0132712
-3.9337e-05
-0.12527
-0.000885468
-0.000810117
-0.0143104
-0.0292308
0.0033618
-0.000158618
-0.00116222
-0.00234135
-0.00336042
2.18995e-05
-0.00317604
0.991407
0.000236501
-0.00843039
-0.0863481
-0.177319
-0.153041
-0.11705
-0.0544112
-0.00139191
-0.0344633
0.000184452
-0.000229186
0.996767
-0.000260858
0.397033
-0.00119006
0.00101389
-0.00297767
-0.103821
-0.00111466
0.00187569
-5.22428e-05
-0.00104795
-5.99869e-05
-0.000223068
-0.0379558
-0.000305501
-9.37661e-05
-0.000231942
0.000345495
-4.0261e-05
-0.103705
0.503271
-3.26163e-05
-0.00157523
4.33592e-05
6.90811e-05
-0.00219187
1.70174e-05
-0.00237286
0.000710243
-0.000975842
-0.155652
-0.00181101
-0.00472474
7.42896e-06
-0.00394453
0.000849547
-4.61575e-05
-3.35716e-05
2.88624e-05
-0.00208179
0.00138339
-0.108023
-0.0651322
-0.157519
0.001606
-0.00464989
-0.00526055
-0.158719
-0.000260484
0.041019
0.017774
-0.00270757
-0.0300174
-0.137266
0.915414
-0.00111999
-4.76036e-05
0.002295
0.000113428
3.79926e-05
0.175737
0.00953655
0.203865
-0.0823923
0.886218
-0.00136955
1.72801e-06
0.000371097
-5.87104e-05
-0.00353461
0.346123
0.4808
-2.37923e-05
-0.00046168
-5.96754e-05
0.458158
0.0516815
-0.0127452
2.54408e-05
4.25721e-05
0.0187252
-0.00181863
-0.169353
-0.0418626
4.70719e-05
0.00901394
-0.0745879
-0.000170347
0.00472432
-0.000194547
-0.111908
-0.00459805
0.330848
3.61171e-05
0.00431717
2.59647e-05
3.04194e-05
0.000424348
-0.0571526
3.06413e-05
-0.00237628
4.54767e-05
-0.0487723
-0.111676
-0.0075174
-0.0163409
-0.0218434
0.0234374
-0.0221288
-0.00641978
0.000159486
0.000250612
4.14084e-05
3.62188e-05
-0.000159287
0.0232099
-0.132898
0.00125648
-0.0929525
-0.00793127
-0.111388
0.000210416
-2.15099e-05
0.00337077
-0.0782717
3.77791e-05
-0.0941962
-0.0362314
0.0327964
-0.0909105
5.75606e-05
-0.00877903
0.000479221
-0.165831
0.301225
1.48593e-05
-0.141424
-0.0539752
-0.0107825
8.34522e-05
-2.93645e-05
0.0739109
-0.0414574
4.77537e-05
-0.0171738
-2.99236e-05
0.000533354
0.281082
-2.7558e-05
-8.84623e-06
-0.00024633
7.56921e-05
0.00231508
0.000212521
-0.0131684
0.000578959
-0.0315027
0.00284371
-0.000567036
-0.0745238
-0.103351
-0.0159332
-4.63933e-05
4.47096e-05
-0.129869
0.0148043
-0.114952
5.86934e-05
-0.0131381
-0.000104591
5.09787e-05
0.175826
-0.0176419
-0.00714454
-1.85694e-05
-0.0436261
0.000114863
-0.159377
5.60188e-05
-0.179489
3.10589e-05
-2.05976e-05
0.000204833
0.00262342
-0.111528
-0.0449822
-0.162848
2.72942e-05
0.000223713
-0.183467
-0.0540357
-0.0212354
-2.01819e-05
-0.0377999
-0.117232
-0.186211
-5.39986e-06
-2.82978e-05
-9.29466e-06
-0.116862
-0.156392
0.00184124
-0.0275731
-0.000163113
0.483127
0.000226507
2.21526e-05
0.000369081
-4.47352e-05
-3.11923e-05
-0.00921246
0.000270704
-0.00648915
-0.149334
-0.0325284
-0.141823
8.56844e-05
-0.000144814
0.131007
-0.0931404
-0.0119176
0.256206
-1.33012e-05
-4.53471e-05
-4.15186e-05
0.254005
0.000427484
-3.58071e-05
-2.50953e-05
-0.132883
-0.0383513
-2.4731e-06
0.000170608
-0.0231736
-0.0160692
0.0010705
0.486846
-0.134481
0.000509606
1.25697
-7.43663e-05
-0.00180045
-0.020256
-0.189263
3.39545e-06
-2.5082e-05
4.67125e-05
0.0123187
-0.0737078
-0.000897648
-0.11798
-0.0194078
5.32768e-05
-1.58107e-05
-0.0253459
0.000825186
0.00404951
-0.0879221
-0.110567
-0.0942667
0.0360206
-0.0644546
-0.000177778
0.00088587
0.0362227
0.00137014
-0.000239138
0.00194694
5.79799e-05
-0.000269994
-0.0300099
-3.72672e-05
-8.96196e-05
0.0966541
-0.0175706
-0.000455615
-0.000137461
-2.48604e-05
0.530049
-0.0166236
0.0020067
-0.0675541
0.00057128
0.00049083
0.000420744
-0.00014016
0.00122029
-0.0909785
0.0455465
-2.92068e-05
-0.000455116
-0.0982459
-0.0736215
0.115447
-0.00127531
0.00471532
0.0449067
-8.96917e-06
0.000136431
-0.104554
4.75639e-05
0.361307
9.11077e-07
0.0107027
0.000409813
0.000553491
-0.169135
-0.0184193
-0.0440534
-0.00615082
5.77163e-05
0.0172595
0.144997
-0.0305285
-0.000364861
0.218049
0.353971
2.09075e-06
-0.125285
-0.000189222
-3.81038e-05
-0.000127131
-0.00146452
0.0494913
-3.70057e-05
0.000613221
-0.0599995
-0.0630759
-0.054241
0.656014
2.60192e-05
-0.000193591
0.370384
-0.00640942
-0.00958459
-0.00168621
0.364971
9.34499e-05
-0.000839226
9.16632e-05
4.54712e-05
6.92299e-05
7.97671e-05
0.000174388
-0.044101
5.61669e-06
-0.00836046
-0.108511
0.519019
-0.000403768
-0.000140697
0.0120067
0.196403
-0.10119
-0.00194308
-0.168484
0.652661
9.75105e-05
0.839887
-1.81379e-05
0.00850474
0.060697
0.00109666
0.900245
-6.495e-05
-2.19546e-05
0.00298047
6.71477e-05
-0.00222631
0.000650822
1.27056e-05
-0.00502042
8.48283e-07
-0.000392392
-0.00838368
0.518037
0.127042
0.0549876
-0.107032
-1.85109e-05
-6.15726e-05
0.00866727
-0.121812
-3.61631e-05
-0.113617
-0.000152562
0.237261
0.146028
-0.0792143
-0.00347342
-0.028459
-0.00253224
-0.0367775
0.0110579
-0.0179791
0.152739
2.6122e-06
0.532615
0.0996393
-0.00150125
0.457542
-0.0333146
-3.80706e-05
4.18169e-05
0.000157081
-0.00056078
-0.000332301
0.522691
-0.00253342
0.535561
-0.00268387
0.361492
0.480369
0.265071
-0.0176933
-2.55764e-05
0.000130123
-0.0264776
-0.17422
-0.115268
0.00381436
2.81219e-05
-0.0937038
-0.000823134
-1.60026e-05
0.00258429
-0.00276596
-0.0016149
0.0818649
0.000178233
-0.118925
0.141343
0.000134968
0.000665876
-0.034136
-0.1333
-0.00189609
-0.00135135
1.37571e-05
0.000614562
0.198684
-0.0413069
-0.113681
0.00333805
0.229056
-0.0946165
7.06864e-05
4.19513e-05
0.0705772
-0.000265247
0.199696
0.00638106
-0.0338579
-0.00100943
0.00419679
-0.087023
-0.000124211
0.00124201
0.0123666
-0.178538
0.341001
-0.152216
-0.0661001
-0.000458883
-0.000129584
0.0170231
0.000103152
-0.181895
-0.157191
0.00142685
0.00870069
0.00961675
-0.167277
0.00161829
0.000463528
7.54599e-05
-0.0995313
5.90161e-05
0.00141544
0.275356
0.391765
-0.175993
0.11762
0.117713
0.0664599
-0.000446617
0.0315903
0.000297015
1.94048e-05
-0.000221883
-4.64516e-06
3.01529e-05
-0.000942118
-0.0192682
-0.0908068
-0.0245823
-0.068303
0.128981
0.107401
0.0103755
-0.15051
0.000384383
0.0119427
0.0285145
-0.00102463
0.18093
-0.00305361
-0.0272123
0.0312306
0.013919
0.00268912
-0.0102443
0.108854
0.00209806
-0.0491004
-0.0408947
1.05844
-0.0604172
0.193329
0.0771025
-0.0866897
0.00563347
0.000232363
-0.00664845
0.00011837
-0.00676198
-0.0621934
-0.00019536
-0.000156156
0.598941
-0.00836127
-0.102906
-0.047009
0.000487438
-0.00349131
-7.27144e-05
8.5751e-06
0.0984245
8.76196e-05
-0.00752268
0.183543
0.0160148
0.00285147
0.0467666
-0.0146141
0.0107856
-0.16233
0.00221097
-0.0112941
-0.13622
-0.00221741
-0.0204807
0.00193789
0.00337894
0.00251747
0.0960588
-0.000841271
0.0144093
-0.133201
-0.0511008
0.000772754
-0.133183
-0.0375682
-0.0431952
0.000237379
0.016866
-0.152448
-0.002175
-0.0122367
-0.124479
0.00125197
-0.00304434
0.481206
-0.0500317
-0.00011712
0.0209931
-0.118777
-0.00272461
0.423754
-0.00535559
0.00258982
0.141177
-0.00369557
0.021055
0.287435
0.000130943
0.00298134
0.000432232
6.31954e-05
-0.0113214
-0.0173545
-0.000372126
-0.0601323
0.230174
-0.0930527
-0.158437
0.00296837
-0.00832028
-0.00154242
-0.0804073
3.93869e-05
0.0452018
7.87248e-05
-0.0398217
-0.00502449
-0.0125174
-0.0400687
0.272352
-0.166407
-0.000151522
0.434337
-0.00487056
-0.00603008
-0.146318
-0.172392
-0.0388637
-8.92899e-05
-0.00279297
0.0184498
-0.00785958
-0.0120457
0.0010977
0.204049
-0.100357
-0.0280604
-0.0168534
0.065857
-0.00502798
-0.00162486
0.00433651
-6.24656e-05
-0.00788291
0.265583
0.00201866
-0.176692
-0.000185312
-0.018557
-0.00852735
-0.180407
-0.0288844
-0.198865
-0.00018052
-0.000176383
-0.00856655
0.0268615
0.00470261
-0.209702
0.208048
-0.117727
0.000455071
-0.21712
-1.22958e-05
-0.21977
-0.063132
-0.221054
-0.219603
-0.213629
-0.186705
-0.118175
-0.0805678
-0.0387526
0.0172453
0.0737446
0.287837
0.360106
0.435206
0.561353
-0.0203185
-0.0184917
0.158929
-0.0393075
0.00229222
0.0458968
-0.0992579
0.00139264
-0.00164726
-1.03409e-05
-0.0353251
0.0447964
9.91081e-05
-0.00080362
-0.0264285
-0.00829074
-0.224856
-0.0285403
-0.136436
-4.65388e-05
0.00145086
-0.00014456
-0.109898
-0.0219009
-0.0886845
-0.0227432
0.00443147
0.000550861
0.0120017
-9.38772e-05
-0.0133605
-7.63102e-05
0.000925834
-0.0127418
-0.0288128
-0.000616855
0.000808669
0.117011
-0.0258183
0.159894
-0.223088
-0.0173213
0.210062
-0.0467163
0.00942008
-0.0534225
-0.00823017
-0.0312648
-0.0304489
0.717511
-0.00320644
0.000152203
-0.0146106
-0.0221357
5.02707e-06
0.18893
-0.0100299
0.672227
-0.151092
-0.111461
-0.0661998
0.118588
-0.0116232
-0.000139941
-2.33056e-05
-0.0105868
-0.128093
0.000120886
0.73797
-0.00696645
-0.0123323
-0.000232804
-0.000996104
-0.0151512
0.141319
-0.0850612
0.272976
0.00161093
-0.0355762
-1.93758e-05
0.0671093
-0.0190739
0.0485672
-0.0269093
-0.0137253
-0.00196324
0.00336083
0.0296565
-3.68753e-05
-0.0234588
0.00144286
-0.0010292
0.0011668
-0.0411473
0.000586571
0.323405
-0.026486
0.00961933
-0.113471
0.0698746
-0.116786
-0.0282854
0.0998407
-0.0453649
0.39143
-0.00384465
-0.00860191
-0.12218
-0.00180383
-0.000135572
0.00109144
0.000210243
-0.00557909
0.0111075
0.000188858
-0.0334482
0.0545413
-0.00778408
6.81586e-05
-0.00833137
-0.104086
0.334451
-0.0814003
-0.115341
0.0206971
0.190651
-0.00316653
0.0928998
-0.0293243
0.0133401
0.0896873
-0.14214
0.249642
-0.000148708
-0.0718792
0.00290925
-0.00379191
-7.13637e-05