/*--------------------------------*- C++ -*----------------------------------*\
  =========                 |
  \\      /  F ield         | OpenFOAM: The Open Source CFD Toolbox
   \\    /   O peration     | Website:  https://openfoam.org
    \\  /    A nd           | Version:  7
     \\/     M anipulation  |
\*---------------------------------------------------------------------------*/
FoamFile
{
    version     2.0;
    format      ascii;
    class       volScalarField;
    location    "35.5";
    object      p;
}
// * * * * * * * * * * * * * * * * * * * * * * * * * * * * * * * * * * * * * //

dimensions      [0 2 -2 0 0 0 0];

internalField   nonuniform List<scalar> 
7807
(
0.259474
0.00351057
0.403944
0.26303
-0.00142495
-6.14186e-05
0.408663
-0.00853676
-0.000199657
0.114281
-5.73722e-05
0.00386718
-0.012776
0.0580401
0.118839
-0.0168886
0.269783
-0.0165762
0.00170406
-0.0822272
0.0786805
0.002544
0.0431095
0.214207
-0.0215502
0.269466
-0.00131883
0.0714631
0.181364
0.00394698
-0.0227131
0.622401
0.0423707
-0.000795687
-0.000172218
0.0943659
0.00454594
0.395996
-0.00721678
-0.000557551
-0.00659565
-0.0161302
-0.0856346
-0.0423537
-0.000331954
-0.000134293
0.00248451
-0.00751767
-0.000110914
-0.0801926
0.00582791
0.0677758
-0.0271241
-0.0042645
0.0934847
-0.00762827
0.00179518
-0.00850225
-0.0350554
-0.000826196
6.60979e-05
0.00746878
0.0584196
0.00427029
-0.00158794
-0.0222923
-0.000158541
6.63612e-06
0.0919961
-0.0070881
-0.000123298
-0.0640896
-0.0208687
-0.0348232
-0.0160822
-0.0497145
0.397763
0.0770054
0.0684702
-0.0684961
-0.0122602
0.366984
0.11075
-0.0367314
-0.00235853
-0.00373539
-0.00912938
-0.0263337
-0.0010786
-0.00723334
0.185137
-0.0499932
-0.000219189
0.0019149
-0.00575453
-0.0363453
-0.0602307
-0.000768657
-0.00260001
-0.00189049
-0.0599948
0.0768911
-0.00545449
-3.28313e-05
-0.0400214
0.189418
0.540772
-0.00811906
-8.6127e-07
0.0397403
0.248625
-0.0529073
-2.53076e-06
0.0422579
0.189808
0.000744092
-0.0648175
0.153585
-0.0446876
-0.0359181
-0.0624065
0.350885
-0.0787864
0.0163945
-0.0606874
-0.00158618
-0.0206826
0.00317152
-0.00168071
-0.0231059
-0.102083
0.0690727
-0.000997263
-0.00127077
-0.0380287
0.241287
0.43455
-2.81793e-05
0.0130511
-0.0783137
-0.0329929
-0.0547123
-0.0503707
-0.0335934
0.545866
-0.0216378
0.182348
-0.0345283
-0.0457113
0.349984
0.0901753
-0.0394067
-0.00249308
0.0719907
0.110123
0.36709
-0.0574483
-0.0127123
0.506764
-0.000100587
0.000908746
0.22137
-3.08033e-05
-0.00339389
-0.00647215
0.273331
0.274125
0.525829
-0.00383414
-0.00506205
7.72095e-06
-0.0643611
0.000736253
0.0109611
0.0141992
-0.0451999
-0.0179557
0.15468
-0.000218046
-0.00083786
0.267728
-0.000100452
-0.000185349
0.410055
-0.00144439
-0.0442293
-0.0421298
-0.0332732
-0.0255578
-0.0764113
-3.36526e-05
-0.0579795
0.160205
-0.00550984
0.000122322
0.203165
-0.00204978
-0.0217829
-0.0243424
9.25587e-06
0.00150129
0.2478
0.189593
0.369746
-0.0590319
-0.0471694
-0.11561
0.0776422
0.24529
-0.000356061
5.86281e-05
0.511135
-0.0143262
-0.00103378
-0.0553847
-0.0216515
0.335144
0.342852
-0.0603198
0.590704
-0.00190099
-0.0161721
-0.0615748
0.0936844
-0.106117
0.227752
0.508315
0.000107757
0.0171589
0.163256
-0.00683268
0.150438
-0.00091315
0.560065
0.360176
-0.00905025
0.00468065
-0.000517262
0.148315
-0.000157582
-0.0105678
-0.0747174
-0.000122746
-0.00223677
-0.000722024
0.168936
-3.0826e-05
-0.00750425
-0.0667434
0.621858
0.0604762
0.547736
-7.57115e-05
-0.0274802
-0.000314437
0.383375
0.00714574
0.435593
0.00227994
0.00126463
0.00759998
0.0810124
0.00101395
-0.000387374
0.000895323
-0.00720814
-0.0439076
-7.07092e-05
-0.0557641
-0.00616918
-0.000241426
-0.00106789
0.417167
-0.0127538
-0.00130656
0.594002
-0.00245867
0.257563
-0.000350699
0.000304626
1.31384e-05
-0.0401364
0.0899593
-0.00930543
-0.0354863
-0.000702644
-0.0699308
-0.0247222
-0.000305916
0.000871173
-0.00370631
-0.012337
0.00523848
-0.00211905
-0.0351432
-0.037236
-0.0346045
-0.0291857
-0.0434132
0.352608
0.366417
-0.00254077
-0.0412088
-1.22294e-05
-0.00405094
-0.0362886
0.208838
0.12326
0.000169202
-0.00375066
-0.0421582
0.178989
-0.0017062
0.00637101
0.00215698
0.0585662
-0.117137
0.332001
-0.00271877
0.0021425
-0.000195452
0.00727097
-8.98167e-05
-0.0279954
-0.000593256
0.00716106
-0.0705837
-0.044389
0.00272004
0.0155536
-0.00126392
0.0344919
-0.0126622
0.090461
0.172572
-0.151026
-0.0498104
-0.0252321
0.00907367
-0.0728156
0.535845
-0.0405166
0.0517326
0.579605
-0.00262492
-0.00298177
-0.0495639
-0.00187465
-0.0180592
0.0112132
-0.00478028
-0.00356427
0.172123
-0.000116557
0.0009724
0.000136237
-0.00578505
-0.011849
-1.48005e-05
-0.00187973
-0.033703
0.505776
0.00386923
-0.0140064
0.475397
0.311355
0.0777005
-0.0288063
-0.0648201
0.00878445
0.2647
-0.0179543
0.295874
-0.0303465
-0.0922807
0.193036
0.297169
-0.0520608
0.115826
0.224352
0.269876
0.0757139
-0.00517968
-0.00714584
-0.000151232
0.00472885
-0.0183004
0.00167813
-0.000184551
-0.00276777
-0.0698553
0.0950366
-0.026636
-0.00482918
-0.00642384
-0.000215205
-0.0117422
0.0030442
0.197977
-0.00322548
-3.70097e-05
-9.48239e-05
8.59503e-05
-0.032025
0.167291
-0.00680585
0.0475425
-0.115648
0.388391
0.00576374
0.0119987
-0.00862705
0.403013
-0.00182135
0.32729
0.18623
-0.000201479
-0.0333436
-0.00558169
-0.0517061
0.00100036
0.086438
0.00554304
0.0111203
-0.00147187
0.154705
0.182499
-0.0513533
-0.0340047
-0.00393664
-0.0267887
0.0700615
0.611604
-0.0554823
0.00798942
-1.40584e-06
-0.0210443
-0.00389275
0.0315801
-0.0934265
-0.052901
0.416399
0.166417
-0.103011
0.212333
0.393694
0.0473021
0.00207171
0.273531
-0.00156099
-0.000318406
-0.0269908
0.000154242
-0.129235
-0.000861744
-0.0361594
0.00333156
0.208805
-0.00305654
-4.07733e-05
-0.0991034
0.00302226
0.0396861
-0.0580266
-0.0773151
-0.0038256
0.164828
0.136252
0.139915
-0.000356992
0.0860473
0.0980621
-0.000914951
-0.0256547
0.00107412
0.00931143
-0.0046649
0.00835519
-0.00134871
0.142669
-3.34768e-05
0.000352287
0.0034676
-0.0332854
0.0351221
-0.0340515
-0.0383241
-0.0399675
-0.117975
0.0115248
0.264718
-0.0562726
-0.0109431
0.56715
-0.0583275
-0.012371
-0.038699
-0.0102947
-0.0313569
-0.0163052
0.0470446
-0.0466861
-4.38879e-05
0.0411737
-0.000166373
0.357234
0.101348
-0.00812451
-0.0218385
-0.000327732
0.368802
0.322098
0.0678999
0.149576
-0.0632405
0.448132
-0.000107974
0.0296809
-0.027508
0.161483
0.530529
0.0568784
0.160465
-0.0033937
-0.000353087
0.13654
-0.0808323
0.384871
0.0417019
0.232464
-0.0115587
0.396253
0.307732
-0.0145066
-0.0123653
0.114292
-0.0783916
-0.000146322
-0.0201581
-0.0755214
-0.0658733
0.0193668
0.0159774
-0.000219469
0.324115
-0.00189622
-0.000178591
-0.0331001
-0.000851419
-0.000387912
0.00557193
0.227599
-0.0873941
0.494846
0.000109415
0.224729
-0.0265072
-0.000130271
3.16974e-05
0.178852
0.22099
-0.0066897
0.20226
4.47419e-05
0.212605
-0.144078
-0.0151878
0.412899
-0.0527201
0.141972
-0.0371101
0.210004
0.217287
-0.0248589
-0.0313163
-0.00982174
-0.0047276
-0.000345494
-0.00207123
0.280721
-4.61548e-05
0.205547
-0.0844711
0.334362
0.195772
-0.0771593
0.480659
-0.0026746
0.00738614
-0.0481083
-0.0299762
-0.0104212
-0.030584
0.0451911
0.560887
7.41911e-05
-0.00314765
-0.0501136
1.06699e-05
0.363462
0.00306789
1.00836e-05
0.00033488
0.000666291
-0.0264658
0.0302216
-0.00254037
-0.000145743
-0.0110483
0.00381461
-0.101626
-0.0705978
0.0357023
-3.73967e-05
-0.144544
-0.0197297
0.121496
0.330097
0.00188232
0.129725
0.000266145
-0.0188963
0.10365
-0.0104628
0.241953
-0.0193953
0.0333618
0.107379
0.1632
0.00718822
-0.015537
0.187317
-0.0792055
0.389174
-0.0140406
0.266966
-0.0139413
-0.00189928
0.153076
0.000920486
0.101781
0.00316734
8.74855e-06
-0.114465
0.192579
0.0023959
0.117731
-0.0184498
-0.14468
0.00442717
-0.035246
-0.00274068
-0.0132781
-0.0683715
-0.0394666
-0.0146897
-0.000246189
0.410432
0.125327
0.0471792
-0.000331659
0.306622
7.2011e-06
-0.000305722
0.135967
0.00163428
0.168798
0.0702686
0.0277127
-0.0408756
-0.116929
-0.00580758
0.00219588
-0.0565303
-3.04786e-05
0.00602643
0.234426
-0.0237667
-0.00452141
-0.0132932
-0.00318476
-0.000673025
0.582691
-0.0148075
-0.000905732
-9.76908e-06
0.150132
-0.0417141
-0.000543743
-0.00447196
0.173031
0.0978848
-0.051138
2.43606e-06
0.190664
-0.0235827
0.19927
0.0270623
0.0331534
-0.0416131
-0.000157711
0.104792
0.0893575
0.0283933
-0.0769757
0.281375
0.0101283
0.1819
-0.00434514
-0.0317233
-0.000648614
-0.0027879
-0.00017452
0.172831
0.245534
-0.0024209
0.0308437
-0.025143
-0.0615752
-0.0695983
-0.00300818
0.0271082
0.554379
0.0111537
-9.02462e-05
0.0969753
-0.00613546
0.474753
-0.0182763
-0.0181865
-0.0049201
-0.0210171
-0.0110779
-0.0117353
-0.00564582
0.00250035
0.0376465
0.000180284
-0.13211
-0.012019
0.345142
-0.0492944
0.175533
0.00338819
-0.0465699
-0.0195834
0.21958
-0.0110808
0.000182093
-0.023093
-0.0085303
0.0299656
-0.0378702
-0.0326812
-0.0162177
-0.0212237
-0.00972779
-0.071889
9.5836e-06
0.0532227
-0.062052
0.152405
-0.0514069
0.101172
-0.0801362
0.310177
0.00738144
-0.0430268
-0.0221277
0.502161
-0.107959
-0.0191341
-0.107953
-0.0391993
-0.0977338
-0.0547892
0.178726
-0.00450151
0.258462
0.0145334
-0.000648223
-0.00202247
0.0858908
0.628473
0.00174107
-0.0272421
0.180981
3.78562e-05
-0.0300422
0.0434498
0.00174799
0.0147334
-0.00268903
-0.0403577
-0.00500353
4.82196e-05
-0.0502421
0.255532
0.00288986
-0.0241294
0.00312511
0.18068
-0.000630086
-0.00203106
-0.000591134
-0.00129366
0.0451623
0.00225996
0.00447002
-0.0259313
7.49215e-05
-0.107478
-0.0694583
-0.125328
-0.0228883
0.0240508
-0.000350693
-0.0189832
-0.0650287
0.0281145
0.33677
-0.00208058
-0.0692708
-0.00761683
0.0106027
0.155312
0.000736431
-0.000259261
0.12202
0.0152695
0.023793
-0.00480148
-0.00336356
-0.0601844
-0.000288628
-0.00166432
-0.0195721
0.292928
0.253389
-0.0393837
-0.0597647
0.011926
0.00594637
0.00285338
-0.0692428
-0.0174412
-8.80245e-07
-0.0008398
-0.0358461
-0.0757616
0.00589716
-0.054888
-0.00065727
-0.00485364
0.198118
-0.0400655
-6.63748e-06
-0.00455746
-0.0967576
-0.000273805
-0.02218
-8.20743e-05
0.00630488
-0.0985872
-0.0392654
-3.50502e-05
5.07998e-05
0.130766
-0.0477882
0.371438
0.25801
-0.00418377
-0.000978904
-0.017205
0.000364002
-0.100705
-0.0886125
-0.00993
-0.0235147
0.246945
0.0123896
0.000452703
0.00833483
-0.114993
0.00321113
-0.027656
-0.0631908
0.00205311
0.0260622
0.0753454
0.0117401
-0.0322847
-0.0666681
0.188995
-0.0333986
-4.35509e-07
-0.102208
-0.0665966
-0.0403366
0.00624752
0.00124668
0.0107691
-0.0994597
0.0376919
-0.0371176
0.130608
-0.047349
0.00903524
0.0228368
0.0167895
-0.03795
-0.111868
-0.000167841
0.148724
0.206754
0.00944004
0.198207
-0.0732921
0.051961
-0.0473498
0.198687
0.105006
0.547287
7.35962e-06
0.105092
0.176174
0.0177367
-0.00185532
-0.0203209
-0.0149847
7.10442e-05
-0.0203491
-0.0528383
-0.0222155
-0.0245444
0.000217103
-0.0843577
-0.000472887
-0.00109805
0.23546
0.00778498
0.0654807
0.0238227
0.204916
0.0129888
-0.000501533
-0.102406
0.00965304
0.35236
0.00159768
-0.0555638
-0.00028165
-0.000698024
0.00828873
-0.0547945
-3.91134e-05
-0.0123526
0.0332064
-0.00244207
5.06741e-05
-5.87265e-05
0.152734
-0.034048
0.00816573
-0.00138742
0.01033
0.0186312
0.0102023
-0.00036759
0.329052
-0.0895283
0.216996
0.2866
-0.000265933
0.0565019
0.112509
-0.000969513
-0.000333788
-0.00054153
-0.00564121
0.0171887
-0.0138338
-0.0234077
-0.067106
0.169781
-0.0982952
1.61107e-05
-0.0215807
-0.0207547
-0.0385543
-0.00526613
0.00723783
0.00154108
0.0324571
-0.00064656
-0.000294155
-0.019425
-0.00518074
-0.0275075
-1.94693e-05
-0.0165831
0.0386691
-0.0214789
-0.030336
-0.00981796
-0.0132099
-0.0103678
-0.00624491
0.00946321
-0.0107107
-0.000130868
-0.000504072
0.0270577
-0.0137348
-0.00591771
0.010101
0.00312846
-0.131111
-0.0124922
0.156228
-0.0141328
-0.0567055
-0.0274359
-0.0251243
-0.0173793
-0.00452017
0.00273605
-0.00424073
-0.0156831
-0.0179455
0.189365
0.148327
0.0547299
0.328632
-8.96319e-05
-0.00397864
-0.018289
-0.00922079
0.0927062
-0.0224495
0.0521225
-0.00516051
0.203337
-0.00234738
-0.0019697
0.0167673
-0.0208845
-0.000271271
-0.0246208
-0.00701804
-0.0230779
-2.51288e-05
-0.00790426
0.00240986
-0.0195067
0.0377676
0.0403281
0.0222188
-0.0156361
-0.0344852
0.117983
-0.00154961
-0.00236898
-0.00255115
0.470722
-0.000107774
0.076313
-0.0234851
-0.0226244
-0.0289652
-0.0452967
-0.0314546
-0.0373655
-0.02035
-0.00549192
-0.000120146
-0.00511454
-0.0241024
0.102742
0.00204678
0.146884
-0.0358893
-0.0148372
-0.00111115
-0.0316872
-0.000126601
0.148062
-0.0330279
-0.0287554
-0.0262801
-0.00473788
-0.0363755
-0.00202287
-0.0438626
0.104831
-0.0283957
-0.077607
-0.00176303
-0.0295922
-0.0204828
0.0180708
-0.00387948
0.142695
-0.00288337
-0.0212478
-0.000820142
0.159503
-0.0422141
-0.0290385
-0.0038936
-0.0110599
-0.00331122
0.184259
0.00951017
0.191916
-0.00580414
-0.000989029
-0.00151953
-0.00280079
0.168046
-0.0645711
-0.00805804
0.000416886
-0.0090259
-0.0134215
-0.00109187
-0.0168644
-0.0174572
0.0619697
-0.00589249
0.00499138
0.464002
-0.0657668
-0.0314545
-0.0615508
4.31169e-05
0.0801216
-0.00423624
-0.0294595
-0.00666266
-0.0387861
0.00502014
-0.000649649
-0.00348086
0.00394038
0.196741
-0.00693244
-0.00215232
-0.00552285
-0.0580218
-0.00975797
-0.0243376
0.0052168
-0.0102204
-0.0105555
-0.0039189
0.199846
-0.0494962
0.00386573
-0.00505574
-0.0301839
-0.0161758
-0.0529664
-0.00169323
0.0953935
0.0266448
-0.00922662
-0.00208331
-0.0156298
0.482272
0.198177
-0.0130974
-0.0006992
-0.00286413
0.00356047
-0.00474698
0.0243657
-0.000503297
-0.0193012
-0.00236801
-0.0191466
-0.0801327
-0.00128512
-0.0132729
-0.00162966
0.306451
-0.00761448
-0.0135502
-0.0262565
-0.00232651
-0.0328677
0.0586406
0.426613
-0.0124552
-0.0131938
-0.00254458
-0.000563558
2.23861e-06
-4.81788e-06
-0.0117824
-0.000809842
0.110234
-0.000810264
-0.00218097
0.00981657
-0.000312329
-0.0478546
-0.0643153
0.0201682
0.0441766
0.0301038
0.044062
-0.046496
0.0939575
0.0742692
0.0991798
0.124358
-0.0148961
-0.00102804
-0.00691704
-0.0721221
-0.0042093
-0.0171942
0.0286633
0.311258
-0.0556837
-0.000583838
-3.49073e-05
-0.00176388
-4.06583e-07
0.0100696
-0.00067845
-0.00554602
-0.0512225
0.000661496
0.00310309
-0.000265724
0.0686945
-0.0175567
-0.0431999
-0.00146387
0.312186
0.262058
-0.011689
-0.0801536
-0.0307502
-0.0266303
-0.0164759
-0.00225259
-0.0841228
-0.037481
-0.0463009
-0.068277
-6.00796e-05
0.186031
-0.0177204
-0.011176
-0.034292
0.0218986
-0.000643737
-0.00976766
-0.00163427
0.0144859
-0.00185472
0.162523
0.000427941
0.0119033
-0.000502335
-0.0924344
0.0104722
-0.000924379
0.00989316
0.000497893
0.0186143
0.119682
0.00131051
-0.00173055
-0.0001515
-0.000696561
-0.000610835
-0.0643958
0.126582
0.0108181
-0.000326128
0.010652
-0.00055448
0.223145
-0.0635682
0.241857
-0.0462209
-0.000544823
-0.000345952
-0.00855444
-0.00666241
-0.000763034
-2.19159e-05
0.0287051
0.0328761
-0.00028679
-0.000403807
-0.0221293
-2.63785e-05
0.167271
-0.00111446
-0.0557532
-0.0213868
-0.00745447
-0.0585326
-0.0647667
0.151845
-0.0228119
-0.0226391
-0.000382473
-0.0596001
-0.0231737
0.00652188
0.0978117
0.336385
-0.00140662
-0.0624077
0.0140874
0.29341
0.0436985
-0.000144172
-0.00709084
-0.00481892
-0.0058429
-0.0504911
0.0935336
0.000219816
0.0199349
0.00357301
0.0793674
-0.000629654
-0.000147403
-0.085258
0.268135
-0.0577392
0.146975
-0.00152208
-0.000244919
-2.84206e-06
-0.0932406
-0.0444201
-0.000411142
0.107046
0.0132159
-0.00630312
0.393208
-0.000474455
-0.00438015
-0.0624449
-0.0283411
-0.00272057
0.136375
-0.0661218
-0.000200523
0.0133509
-0.000210107
-0.000121105
0.140881
9.19337e-05
-0.000548134
-0.053918
-0.02718
-0.00414749
-0.0339108
0.00285927
-0.0253895
0.00196496
-0.00414026
-0.0680502
-0.040795
0.0198406
-0.00106975
0.156368
0.204797
-0.100425
0.0111358
0.0221798
-0.00505556
0.166356
0.109995
-0.0303933
-0.000196223
0.0113967
-0.0574931
0.012414
-0.0308533
-0.00251376
0.0473311
-0.0303378
-0.000165628
-8.7682e-05
-0.0409077
-0.0287299
-0.0284969
0.0112931
0.00340136
-0.0471098
-0.000184786
-0.0016683
-0.000250258
-0.0377948
-2.89229e-05
-0.00230574
-0.0506365
-0.107423
0.109321
-0.00353631
0.00496903
-0.0236929
-0.027947
-0.000155022
-0.0485434
0.102718
0.157706
2.84885e-05
-0.000134108
0.160619
-0.0029957
-0.0953475
-0.0429057
0.00402532
0.000576037
-0.069413
-0.0276201
0.164507
-0.058565
-0.00175147
-0.0111537
-0.0564763
-0.000696811
-0.000291002
-0.00107853
-0.0156905
-0.0537656
0.139192
-0.000254228
0.485227
-0.0225876
0.000141741
-0.00116261
0.000304689
0.000346859
-1.71907e-05
0.000168401
-0.0551844
-0.000865459
0.000521979
-0.000239538
0.142033
-0.00672955
-0.000233448
-5.25903e-05
0.339169
-0.0238925
-0.0409877
0.00134129
-0.000871995
0.0621206
-0.000117628
-0.0150188
-0.129232
0.00258888
-0.00765528
-0.000115812
-0.000250016
-0.0335602
-0.0687898
0.00856623
-0.118208
-0.0638147
-3.35582e-05
0.0246371
0.036785
0.111604
-0.0020421
-0.000188579
-0.0594866
-0.00713044
-0.000599532
-0.052028
-0.000165192
0.0431849
-0.000105269
-0.00151327
-0.00356734
-0.00251775
-0.0613839
0.442196
-0.00196461
0.000331455
-0.0585834
-0.0596201
0.0108498
0.00561724
-0.000181683
-0.0339798
-0.000100547
0.1946
0.589683
0.0782698
0.00360944
0.00428147
-2.23118e-05
-0.0306389
-6.8072e-05
-0.00839667
-0.00201996
0.000446774
-0.00396447
-0.0111277
-0.000147339
0.00103715
-0.00968162
-0.000375851
-0.0117512
-0.0184296
-0.00836549
-0.001382
0.527601
-0.000829802
0.00289231
0.000294706
0.0163087
-0.0523151
0.0113356
-0.000213051
-0.000119481
0.0031553
-0.000131076
-3.38474e-05
-0.0134174
0.000833785
-2.86938e-05
-0.0539289
-0.00271332
-0.0584388
-0.00195156
-8.122e-05
-0.0036903
-0.0096325
-0.0171371
-0.026492
0.00275347
0.00062829
-0.00055607
-0.00231086
-9.41631e-05
0.270036
0.00185387
-2.35605e-05
0.000696339
-0.0024074
-0.000427237
-0.0663433
-0.0570854
-0.000155523
-0.00810495
1.61794e-05
-0.00311876
-8.75575e-05
0.0397654
-0.000168011
-0.000221862
-0.00419527
-2.73537e-05
0.0158959
-0.000270216
-0.00149249
0.021965
1.47822e-05
0.362614
-0.0566056
-0.0445631
-2.96135e-05
-2.49124e-05
0.0022084
-0.00139955
-0.054989
-2.02698e-05
-2.79464e-06
0.000881971
-3.39694e-06
0.000454486
0.00053764
-0.000544823
0.000940815
-0.0553754
0.454871
-0.0375969
0.325567
0.0106886
-0.0190957
-2.20235e-05
-0.00104165
-0.0139046
0.000174291
0.000341366
0.000204673
0.0651411
-0.00161287
-0.000258617
0.468889
-0.00064593
0.000698652
0.000601504
-5.43716e-06
0.0317629
-0.00258012
0.00135237
0.000152023
-0.000636836
-8.13238e-05
-0.00111469
-0.0469793
-0.000493142
-0.00190113
-1.61216e-06
-0.000652918
-0.000308959
0.190895
-0.000522725
-0.000325155
-0.0724626
0.00446871
-0.00010078
-0.00157173
-7.30775e-05
0.174745
-0.0770637
-0.000353454
-0.000458249
-0.00223773
-0.000185054
0.0629804
0.117162
0.0323215
0.000608236
-8.01851e-06
-1.02598e-06
0.0602651
0.000304888
-0.0640892
-0.0274619
-0.0180156
-0.0254217
0.532766
0.00231499
0.193395
-0.016652
-0.031909
0.177602
-0.000422511
-0.0691008
-1.51948e-05
-0.0102885
-0.0517833
6.59312e-05
-0.053878
-0.00111713
-0.00824281
-0.00643912
-0.0454412
-0.0453381
-0.00374365
-0.0660649
-0.0465566
-0.000221563
-0.0138451
-6.09778e-05
-0.0404609
-3.30457e-05
-0.000220485
0.0193906
0.169006
-1.54711e-08
-0.0485506
0.00421261
9.09095e-05
-0.0235665
6.95342e-06
-0.0154757
-0.000305272
-0.041177
0.000154105
-0.000102374
-0.0023865
-5.49347e-05
0.164894
-0.0333381
0.0774699
-3.47175e-05
0.000749852
-0.0354452
8.20633e-07
-0.0604782
-0.0698287
-0.0586716
0.489677
-0.00744228
-2.06876e-05
0.0298618
-0.0447624
-0.00296783
-2.85927e-05
-0.000100469
-0.0502568
0.000154366
0.00104284
-5.17691e-07
0.000192582
-0.0307883
0.109923
-0.0713171
0.103515
-0.00614326
-1.22603e-06
0.00729441
-0.0561286
-2.44657e-05
-1.63607e-05
0.000384371
7.70709e-05
0.00048434
0.218107
0.0398801
6.71707e-05
1.31508e-05
-0.0691109
0.204795
0.180966
-5.32352e-05
-0.0392747
-0.0218047
-0.0120261
-0.050845
-0.00984893
-0.00336494
0.146982
-4.7771e-05
-0.0290389
0.173531
-0.0521609
-1.94774e-05
-0.064374
-0.000206045
0.276655
0.0320192
-1.56283e-05
-3.19491e-05
0.189046
4.13479e-06
-0.000215027
-0.013349
1.56672e-05
0.246455
0.00391591
-0.00843323
-0.0665942
-0.00433794
-0.084231
0.188289
-0.0133571
-0.0314627
0.00118729
-2.25914e-05
-0.00119754
-8.54515e-06
-1.83729e-05
0.026744
0.18596
0.155818
-0.000515458
0.248986
-0.0133169
9.01687e-06
-0.0485296
-1.98899e-05
-0.0306054
0.0331005
-0.0164833
0.00523563
0.00218654
-0.0105566
0.000300304
-0.00194231
0.0223664
-0.00330519
-5.5351e-05
3.53095e-05
-7.17234e-05
0.0358203
6.58558e-05
-0.0251483
0.261383
-0.0068666
6.04002e-05
-0.00398692
-1.12556e-05
0.0756455
-0.000417781
-7.62887e-05
-9.94427e-05
-1.53221e-05
0.214645
-0.00017882
0.236915
-0.0654971
0.000135999
-0.0564726
-0.00056606
0.162634
0.481476
-0.00162394
2.88065e-06
1.9214e-05
-2.45098e-05
0.142807
6.69956e-07
0.00123387
-0.0267902
0.224829
7.86456e-06
1.80454e-05
3.38787e-06
2.98117e-05
-0.0228012
2.07956e-06
0.255722
-0.0181166
-0.00014317
3.5694e-05
-0.00236994
-0.0311484
1.49832e-06
-6.57707e-05
0.171649
4.03327e-05
-0.0346975
-0.0596642
0.000159463
8.22226e-07
-0.144461
1.36366e-06
0.16898
1.76679e-05
-0.000518223
1.37486e-05
-0.000203716
0.0985484
3.58555e-06
-0.00189298
9.72498e-06
0.0146349
-0.00389323
-0.00728839
0.000930419
0.159653
-0.000312505
-9.30609e-05
-0.0100366
-0.0096882
-0.000282021
-6.11519e-05
-0.00103302
4.77099e-05
0.172072
-0.0116838
0.472881
-8.45442e-07
-0.00865254
-0.000180647
0.138876
6.73843e-05
-0.0290935
2.79751e-05
-0.00181911
-0.0362437
-0.000267835
-0.0175147
-0.0529815
0.00589208
-9.63155e-06
-0.0618311
-0.00038729
-0.000341576
-0.00629804
-0.0161472
0.00149351
-5.62497e-05
-0.000504077
-0.00105901
-0.0014677
1.5747e-05
-0.00138957
0.464981
0.000115596
-0.00373424
-0.0376758
-0.0758002
-0.066726
-0.0509713
-0.0239847
-0.000609086
-0.0181102
9.07771e-05
-9.4178e-05
0.465789
-0.00010908
0.179916
-0.000522042
0.000472765
-0.00130272
-0.075073
-0.000483474
0.000715262
-1.73703e-05
-0.000454044
-1.69716e-05
-9.20118e-05
-0.0165067
-0.00012685
-3.04436e-05
-9.60322e-05
0.000174766
-1.13334e-05
-0.0459598
0.225279
-1.1557e-05
-0.000697174
3.8173e-05
3.67663e-05
-0.000961012
1.08936e-05
-0.00104114
0.000336269
-0.000423978
-0.0672934
-0.000797993
-0.00209848
5.67178e-06
-0.00180561
0.000398995
-1.75699e-05
-1.14001e-05
1.60604e-05
-0.000916784
0.000638852
-0.0476274
-0.0299646
-0.0676762
0.000671118
-0.00213862
-0.0239217
-0.0681267
-0.000109355
0.017741
0.00793389
-0.00120799
-0.0131777
-0.058524
0.42112
-0.000483843
-1.74947e-05
0.00103078
5.84854e-05
2.11974e-05
0.0801783
0.00421909
0.0921163
-0.0403775
0.410346
-0.00060593
2.48036e-06
0.000180988
-2.08431e-05
-0.00157282
0.157904
0.222993
-6.10543e-06
-0.000198185
-1.945e-05
0.211553
0.0198997
-0.00660061
1.41007e-05
2.31674e-05
0.00834465
-0.000803775
-0.0757827
-0.0184554
2.90298e-05
0.00405034
-0.0341251
-6.94304e-05
0.00208982
-7.70382e-05
-0.0486919
-0.00199091
0.150527
1.98428e-05
0.00194358
-0.00012685
1.78581e-05
0.000205685
-0.0251121
1.75216e-05
-0.00105188
2.69829e-05
-0.0216176
-0.0479532
-0.00351864
-0.00809559
-0.00957547
0.0104235
-0.00971495
-0.00280411
7.97469e-05
0.000125611
2.43911e-05
2.12921e-05
-6.49686e-05
0.0104034
-0.062316
0.000582696
-0.0488314
-0.00349793
-0.0552774
0.000103212
-2.27706e-06
0.00151995
-0.0686456
2.15104e-05
-0.0483141
-0.0163264
0.0088676
-0.0492803
3.16367e-05
-0.00391245
0.000230951
-0.135662
0.138162
1.40103e-05
-0.0633973
-0.0243923
-0.00479471
4.5197e-05
-1.00008e-05
0.0295864
-0.0181214
2.87119e-05
-0.0075877
-4.27073e-06
0.000256588
0.127935
-9.73428e-06
4.54534e-06
-9.84017e-05
4.11054e-05
0.00104747
0.000103676
-0.00590699
0.000278062
-0.0138483
0.00128511
-0.000238217
-0.035227
-0.0457514
-0.00700591
-1.75506e-05
2.54276e-05
-0.0665587
0.00662511
-0.0503715
3.42634e-05
-0.00577889
-4.22541e-05
2.89337e-05
0.0772488
-0.00779537
-0.00314769
-7.41259e-07
-0.0192845
5.85191e-05
-0.070471
3.18855e-05
-0.0791888
2.31522e-05
-6.92965e-06
0.000100197
0.00119184
-0.0891843
-0.0196295
-0.0736485
1.91475e-05
0.000112817
-0.0810407
-0.0278227
-0.009326
-5.56157e-06
-0.0329935
-0.0540733
-0.0801664
4.57551e-06
-8.86344e-06
6.49457e-06
-0.0875718
-0.0716146
0.000843433
-0.0121461
-6.39036e-05
0.216516
0.000111829
1.74326e-05
0.000178951
-9.04444e-06
-9.70316e-06
-0.00407012
0.000135212
-0.00289643
-0.0690724
-0.0143058
-0.0600366
4.77774e-05
-5.89415e-05
0.0562683
-0.0573389
-0.00530217
0.116244
6.94249e-06
-1.52071e-05
-1.3979e-05
0.114109
0.000205614
7.64513e-07
-4.87559e-06
-0.0657358
-0.016868
7.50105e-06
9.41923e-05
-0.0101801
-0.00714378
0.000502895
0.225068
-0.0637989
0.000186558
0.596908
-1.97377e-05
-0.000786067
-0.00944735
-0.0786235
7.85387e-06
-1.87242e-06
2.54906e-05
0.00552792
-0.0357596
-0.000385701
-0.0522915
-0.00853804
3.25364e-05
-5.39224e-06
-0.011146
-0.00453628
-0.0144031
-0.0741109
-0.047761
-0.0413399
0.00193346
-0.0293678
-7.22815e-05
0.000417634
0.00854144
0.000623815
-8.90525e-05
0.000891741
3.74037e-05
-0.000103277
-0.0132568
-1.38383e-05
-3.18007e-05
0.0403251
-0.0232912
-0.00018393
-4.39909e-05
-6.14014e-06
0.24457
-0.007328
0.000915347
-0.0302848
0.000269684
0.000234779
0.000203587
-5.54731e-05
0.000567806
-0.0405211
0.0186459
-1.05186e-05
-0.000186515
-0.0447764
-0.0344743
0.0526172
-0.000562125
0.00211351
0.0201351
2.73162e-06
7.2294e-05
-0.0521535
2.6316e-05
0.166526
1.09063e-05
0.00482051
0.000197485
0.000263744
-0.0730734
-0.00808289
-0.0194091
-0.00269845
3.11855e-05
0.0073816
0.0654677
-0.0134458
-0.000153933
0.0983964
0.162658
4.02693e-06
-0.0549821
-7.58546e-05
-1.13491e-05
-5.10544e-05
-0.000648462
0.0222355
-5.49768e-06
0.000291718
-0.0267478
-0.0277007
-0.0238113
0.302606
2.16929e-05
-7.88847e-05
0.171204
-0.00649189
-0.00423623
-0.000746072
0.168669
5.27079e-05
-0.00035771
5.53601e-05
3.24303e-05
3.70699e-05
4.24113e-05
8.65037e-05
-0.0191769
1.04637e-05
-0.0037158
-0.0470269
0.236733
-0.000160795
-5.66661e-05
0.00540115
0.0887168
-0.0514493
-0.000857842
-0.073722
0.301298
5.07908e-05
0.387629
-5.12527e-06
0.00384271
0.0272075
0.000512366
0.418309
-1.50599e-05
-6.99815e-06
0.00133911
3.65627e-05
-0.000982323
0.000309225
1.37341e-05
-0.00220571
1.32264e-05
-0.00016614
-0.00369536
0.239668
0.0560054
0.0246894
-0.0462199
-5.88521e-06
-1.99912e-05
0.00391685
-0.0610396
-1.08454e-05
-0.0493522
-6.11037e-05
0.107312
0.0658904
-0.0357489
-0.00152618
-0.0132629
-0.00111557
-0.0161479
0.00432892
-0.00818377
0.0685324
2.47454e-06
0.237531
0.0370037
-0.000673875
0.209993
-0.0146023
-1.41937e-05
2.83531e-05
7.81385e-05
-0.000240438
-0.000139428
0.24259
-0.00111059
0.248446
-0.00122588
0.166839
0.220443
0.118881
-0.00777498
-5.43173e-06
7.68058e-05
-0.0116366
-0.138188
-0.0525943
0.00172143
2.48142e-05
-0.0406204
-0.000363177
9.33601e-06
0.00117131
-0.00120894
-0.000743206
0.0364783
8.84817e-05
-0.0510954
0.062984
6.81186e-05
0.000315761
-0.0157989
-0.0637441
-0.000830801
-0.0005925
1.63e-05
0.000294734
0.0883048
-0.0187139
-0.0521054
0.00151288
0.101611
-0.0419442
4.29479e-05
2.7325e-05
0.0231316
-0.00010167
0.0868896
0.00147374
-0.0148289
-0.00043613
0.00187246
-0.0393484
-3.87408e-05
0.000575281
0.000854551
-0.0786824
0.154862
-0.0658128
-0.0293549
-0.000188716
-5.21053e-05
0.00766567
5.48286e-05
-0.0785246
-0.0710662
0.00066004
0.00391949
0.00433521
-0.112472
0.000747809
0.000224759
4.54916e-05
-0.0448775
3.3849e-05
0.000654183
0.125362
0.180638
-0.126774
0.0531624
0.0523261
0.0222016
-0.00018204
0.013164
0.000145215
1.02358e-05
-8.33173e-05
-6.92142e-07
3.21729e-05
-0.000406799
-0.00846685
-0.0631521
-0.0107712
-0.032064
0.0572554
0.0478804
0.00467401
-0.0692693
0.000190947
0.00534988
0.0128851
-0.00044172
0.0812278
-0.00141132
-0.0121307
0.0136412
0.0062899
0.00117645
-0.00450916
0.0477816
0.000953662
-0.0215622
-0.0181078
0.491719
-0.0272847
0.0869898
0.0253149
-0.0415527
0.00252058
0.000121073
-0.00288318
6.74241e-05
-0.00296102
-0.0277914
-7.91607e-05
-5.1855e-05
0.268984
-0.00371136
-0.0451455
-0.0206033
0.00023887
-0.00162814
-2.58522e-05
9.38742e-06
0.0427121
4.77456e-05
-0.00330307
0.0819861
0.00718888
0.00129777
0.0208115
-0.00641852
0.00477178
-0.125298
0.00100265
-0.0049691
-0.0606201
-0.000977757
-0.00897695
0.000870191
0.00102475
0.00114449
0.0413742
-0.000363137
0.00647582
-0.0579643
-0.0227565
0.000362245
-0.0573173
-0.0164759
-0.0188181
0.000123454
0.00754678
-0.0770127
-0.000954431
-0.00543492
-0.0528664
0.000122553
-0.00132096
0.220675
-0.0240204
-4.7383e-05
0.00938438
-0.0555427
-0.00118963
0.195752
-0.00249391
0.00117062
0.0637951
-0.00161301
0.00951832
0.131547
7.42049e-05
0.00135217
0.000209262
4.39234e-05
-0.00504754
-0.00810656
-0.000151286
-0.026442
0.103704
-0.0401169
-0.0803092
0.00134074
-0.00367553
-0.000702147
-0.0525893
3.32589e-05
0.0190027
5.33088e-05
-0.0174983
-0.00219827
-0.00556651
-0.0355106
0.122723
-0.0886479
-6.00756e-05
0.19713
-0.00221613
-0.00289837
-0.0632187
-0.0924534
-0.0172334
-3.37978e-05
-0.00128722
0.00825525
-0.00347795
-0.00528777
0.000504087
0.0921347
-0.048089
-0.0123025
-0.00744687
0.0260721
-0.00290943
-0.00128163
0.0019599
-3.85668e-05
-0.00347176
0.120178
0.000915441
-0.139595
-6.29422e-05
-0.00816903
-0.00412882
-0.102113
-0.0127372
-0.121828
-7.29335e-05
-7.0495e-05
-0.00475539
0.0121341
0.00209262
-0.143954
0.092807
-0.0526471
0.000220326
-0.162026
1.1424e-05
-0.171586
-0.0278766
-0.189343
-0.189257
-0.181433
-0.144521
-0.0655834
-0.0344999
-0.00502399
0.0243405
0.0542753
0.140958
0.169618
0.196059
0.242548
-0.00895713
-0.00820716
0.0675033
-0.0201902
0.00103551
0.0175443
-0.0439949
0.000595933
-0.000772067
-3.32403e-06
-0.0157479
0.0200904
5.22171e-05
-0.00036513
-0.0116121
-0.00705102
-0.190892
-0.0149622
-0.0607246
-3.68688e-06
0.00066029
-5.96887e-05
-0.0610786
-0.00976219
-0.0399424
-0.0118569
0.00197645
0.000258507
0.0053874
-3.74474e-05
-0.0126806
-1.53703e-05
0.00043283
-0.006925
-0.0127093
-0.000322839
0.000381769
0.0528962
-0.0114746
0.0695224
-0.181391
-0.00924002
0.113017
-0.0205815
0.00423201
-0.0235231
-0.00365867
-0.0138178
-0.0141114
0.330927
-0.00149196
8.1479e-05
-0.00647425
-0.00992584
3.60576e-06
0.0852895
-0.00456681
0.310201
-0.0987504
-0.0472215
-0.0291687
0.0502704
-0.00554867
-5.58862e-05
-8.64673e-06
-0.0046624
-0.0648859
6.78707e-05
0.331065
-0.0030898