/*--------------------------------*- C++ -*----------------------------------*\
  =========                 |
  \\      /  F ield         | OpenFOAM: The Open Source CFD Toolbox
   \\    /   O peration     | Website:  https://openfoam.org
    \\  /    A nd           | Version:  7
     \\/     M anipulation  |
\*---------------------------------------------------------------------------*/
FoamFile
{
    version     2.0;
    format      ascii;
    class       volVectorField;
    location    "35";
    object      U;
}
// * * * * * * * * * * * * * * * * * * * * * * * * * * * * * * * * * * * * * //

dimensions      [0 1 -1 0 0 0 0];

internalField   nonuniform List<vector> 
30084
(
(1.0122 -0.0144989 1.69927e-22)
(1.00837 0.00418203 7.38194e-22)
(0.989452 -0.00395532 -1.01216e-21)
(0.968178 -0.0646907 3.14451e-22)
(0.997286 -5.91527e-05 1.4807e-22)
(0.947947 -0.0410143 -4.6756e-22)
(1.08225 -0.0722603 6.26532e-22)
(1.01662 -0.0216434 -1.75551e-23)
(1.00223 -0.00215752 2.34902e-23)
(1.0002 -5.35431e-05 5.63227e-24)
(1.01959 -0.0289321 -2.72804e-25)
(0.998367 -0.0189498 -3.71662e-22)
(0.99948 -0.000215193 2.12481e-23)
(0.999971 -1.05861e-05 7.48862e-25)
(1.11256 0.103782 2.06289e-21)
(0.993153 -0.00225591 1.56589e-22)
(0.999824 -0.000951907 -1.04035e-23)
(1.12687 0.0273009 -1.70289e-22)
(0.997625 -0.00203502 -5.06457e-23)
(0.987461 -0.000957697 -2.22911e-22)
(0.999057 -0.00030699 -7.082e-23)
(1.0021 -0.00215425 8.20146e-23)
(0.98935 -0.00418512 1.11285e-21)
(0.997624 -0.000193899 6.51405e-23)
(0.904127 0.0995235 2.71857e-22)
(1.00927 0.00332982 3.97629e-21)
(0.999443 -6.50666e-05 4.82738e-23)
(0.951486 0.0841514 -1.94249e-20)
(1.11604 0.104971 -5.28086e-21)
(0.999315 -0.01026 -7.19257e-23)
(1.01693 -0.0113094 1.19771e-22)
(1.03821 -0.00413711 -8.94781e-22)
(1.00081 -0.151303 3.39252e-21)
(0.999309 -0.0262876 1.88841e-22)
(0.949771 0.080292 1.59549e-20)
(1.00698 -0.0367618 5.31706e-22)
(1.05837 0.0505589 -1.25701e-21)
(0.967828 -0.0357682 1.3149e-21)
(1.00583 -0.000897179 -3.24114e-22)
(1.00563 -0.000644569 6.1712e-22)
(1.00047 -0.000180295 -1.85166e-23)
(0.989248 -0.0364941 -1.31736e-21)
(0.999845 -0.000925096 -1.00578e-25)
(1.04355 -0.0762458 -2.12602e-21)
(1.00003 -5.52005e-06 -8.28747e-25)
(0.999552 -0.010395 5.34868e-23)
(0.997622 -0.0140667 -1.07973e-22)
(1.00008 -9.27792e-05 2.41242e-24)
(1.00372 -0.00401273 -3.36149e-22)
(1.05874 0.0481436 -5.1866e-22)
(1.14845 -0.0547419 3.8469e-22)
(0.97151 -0.0561968 -1.50485e-21)
(1.03792 -0.00330586 3.15223e-22)
(0.949764 -0.0405007 -7.78404e-22)
(0.993324 -0.00231226 -1.37927e-22)
(1.12124 0.099026 -3.37854e-21)
(0.996231 -0.00256141 5.0143e-23)
(0.999029 -0.000338533 8.97089e-23)
(1.00131 -0.0245551 -2.64132e-22)
(1.02103 -0.0653093 -9.5953e-22)
(0.999935 -7.41321e-06 1.58208e-24)
(0.997708 -0.00208455 -1.04962e-23)
(1.19227 0.0867283 7.13717e-22)
(1.00727 -0.0358218 -2.96546e-22)
(1.04631 0.100471 9.70571e-21)
(0.925879 0.0278623 4.0197e-20)
(1.00094 -0.0311844 -5.09301e-22)
(0.992186 -0.0161371 4.75689e-22)
(0.945529 0.0178158 1.62636e-20)
(1.00049 -0.000170244 1.19628e-23)
(1.01084 0.00402029 -5.41875e-21)
(0.988799 0.0718636 1.15073e-20)
(1.00382 -0.00997238 -1.27159e-22)
(0.921908 0.114583 9.94535e-21)
(0.990874 -0.000736581 7.23872e-22)
(1.12784 -0.0171787 1.3367e-22)
(1.139 0.147705 6.43644e-21)
(0.968178 -0.0201923 3.12295e-22)
(0.999952 -2.34194e-05 -4.64191e-24)
(1.01038 -0.0550126 -9.28553e-22)
(0.948371 -0.000946538 -5.13608e-22)
(1.01849 0.0399573 3.11716e-21)
(1.01247 -0.0151201 -5.08353e-22)
(1 -6.69452e-05 1.52099e-24)
(1.08414 -0.0690828 -9.47382e-22)
(1.27063 -0.0394627 -2.7016e-21)
(1.02714 0.0875492 -1.84717e-20)
(0.99946 -0.000212414 -1.91677e-23)
(0.999497 -0.000191477 -5.61182e-24)
(0.91997 -0.0553335 -1.8881e-21)
(0.999245 -0.0627618 1.77728e-21)
(0.968102 -0.0211558 3.50819e-22)
(1.00349 -0.00415128 5.73844e-23)
(1.06023 -0.00275748 -5.34777e-22)
(0.909616 -0.0238698 -1.59936e-21)
(1.03306 0.103703 8.82895e-21)
(1.00591 -0.0815113 2.82813e-21)
(1.00051 -0.000427568 2.9675e-23)
(0.971947 -0.0814471 -2.86049e-21)
(1.10357 0.118209 8.8827e-21)
(0.999949 -2.30189e-05 6.80378e-24)
(0.969514 -0.0130866 -1.8876e-21)
(0.999937 -9.06678e-06 -8.15826e-25)
(1.05009 -0.0145784 -2.62988e-21)
(0.969713 -0.0562234 9.7581e-22)
(1.0344 0.0151928 5.57638e-21)
(1.00202 0.0691837 1.7656e-20)
(0.999517 -0.00019342 -4.77465e-23)
(0.999995 -7.54287e-05 -1.84351e-25)
(1.02036 -0.138425 -1.69259e-22)
(0.997206 -0.150397 -3.06133e-21)
(1.05168 -0.0375282 2.01285e-22)
(1.00001 -2.16832e-06 1.03568e-25)
(0.998825 -0.00693863 -1.90821e-22)
(0.999884 -0.00245467 8.82704e-24)
(0.990995 0.0736899 5.87565e-23)
(1.03511 0.0573885 -6.64271e-21)
(0.986651 -0.00860216 -7.62048e-22)
(1.00003 -7.3429e-05 5.29605e-26)
(1.00416 -0.00986129 -9.88139e-23)
(1.24357 0.0609776 2.16523e-21)
(1.00521 0.0120393 8.6762e-21)
(1.18185 -0.00314838 -9.19264e-22)
(0.924202 0.0340597 -3.7193e-20)
(1.0012 -0.000397818 -7.7563e-23)
(1.1637 0.0103434 -2.05893e-22)
(1.12401 0.0297309 -9.48719e-22)
(1.02563 -0.0616185 7.09049e-22)
(1.00443 -0.00379076 -3.01646e-22)
(1.00003 -0.000486095 -4.37181e-25)
(1.04241 -0.0739825 7.59133e-22)
(1.14189 0.145454 3.62035e-21)
(0.999857 0.123515 1.78015e-20)
(1.19525 -0.0146384 -4.81899e-22)
(1.04849 -0.0145903 2.22363e-21)
(1.01644 -0.0109332 2.27895e-21)
(1.04932 0.155511 1.34184e-21)
(0.967884 -0.00097434 2.62493e-21)
(1.21491 -0.164749 9.79225e-21)
(1.10559 0.11493 -6.78106e-21)
(1.1605 0.0135096 3.18055e-22)
(0.926832 -0.00686187 -2.07134e-21)
(0.943441 -0.0578987 6.16434e-22)
(1.00001 -1.93113e-06 -4.62192e-26)
(0.99999 -4.10008e-06 4.69704e-25)
(0.997214 -9.82753e-05 -1.15587e-22)
(0.99782 -0.0137654 2.21229e-22)
(0.995322 -0.112466 -2.31061e-21)
(1.19317 -0.113669 4.11462e-21)
(1.18238 0.1244 3.71622e-21)
(1.03388 -0.0175555 1.16662e-21)
(1.02067 -0.0202586 3.77567e-22)
(1.00047 -0.000694576 4.52173e-23)
(0.999859 -0.000243584 6.04639e-24)
(1.00127 0.0195902 -1.86433e-20)
(1.00059 -0.00170389 5.3561e-24)
(0.992738 -0.0130912 1.43269e-25)
(1.05897 0.157604 -3.99942e-21)
(1.00356 0.0398047 -1.98628e-20)
(1.14986 -0.049702 -6.77551e-22)
(0.950935 -0.00358196 8.75708e-22)
(0.969266 -0.0631588 2.30966e-21)
(1.12015 0.102733 8.58933e-22)
(0.999951 -4.94495e-05 1.48622e-24)
(0.999989 -4.08981e-06 -1.76429e-25)
(0.986597 -0.00904264 2.74665e-22)
(0.944925 -0.0565476 -3.38714e-21)
(1.00006 -0.000248111 -1.82537e-24)
(1 -7.15406e-05 7.47883e-25)
(0.992424 -0.00589646 -9.21221e-23)
(1.00004 -0.000471673 3.77799e-25)
(1.0064 -0.00646971 -1.68177e-22)
(1.05598 0.159834 4.51857e-21)
(0.968374 -0.000515967 -2.22209e-21)
(1.07753 -0.120604 -1.01782e-21)
(0.994358 -0.000112346 4.70506e-22)
(1.00234 -0.00298065 1.74828e-23)
(0.968643 -0.0128953 3.11675e-21)
(0.999158 -0.00691315 -1.75554e-23)
(1.18067 0.00790046 7.88075e-23)
(0.99998 -1.02163e-05 2.59187e-24)
(1.01843 -0.041888 -3.71173e-22)
(1.02884 0.0893605 6.53508e-21)
(0.992477 -0.0149765 -2.72723e-23)
(1.207 -0.164751 -9.41355e-21)
(1.02746 0.0491293 -5.85918e-21)
(0.992946 -0.00323707 -6.84916e-22)
(0.979544 -0.0185084 8.44209e-22)
(1.00419 -0.00381494 4.58167e-22)
(0.999373 -0.00955629 -1.11158e-22)
(0.999709 -7.93041e-06 5.66064e-24)
(1.00757 -0.0196018 6.69211e-23)
(0.920005 0.0170372 1.55977e-20)
(1.00078 0.0159459 1.43813e-20)
(0.983683 -0.00734532 2.1064e-23)
(0.993071 -0.0128795 -3.01015e-22)
(0.983265 0.0371426 -1.55908e-20)
(1.01156 0.0312944 2.68532e-21)
(0.91168 -0.0235487 1.97162e-21)
(1.00126 -0.000531859 -6.06279e-23)
(1.10478 -0.088634 1.3405e-21)
(0.97555 -0.109141 3.03396e-21)
(0.998707 -0.019312 1.77321e-22)
(1.00092 -0.00116991 -9.58243e-23)
(1.05123 0.158541 1.88325e-21)
(0.992671 -0.00590308 -6.21246e-23)
(1.0074 -0.0057636 -1.89729e-22)
(0.992798 -0.112308 3.01219e-21)
(1.02165 -0.142146 4.15656e-22)
(0.999965 -4.99392e-06 5.76842e-25)
(0.978596 0.100613 -1.80766e-20)
(0.998887 -2.56307e-05 -1.16172e-24)
(0.999999 -5.6457e-05 3.91483e-25)
(0.999417 -0.000227172 8.14402e-24)
(1.00284 -0.062485 -6.49996e-22)
(1.17766 0.094551 -2.90679e-21)
(1.01938 -0.0408529 4.47381e-23)
(1.00717 -0.00538769 -1.2998e-22)
(0.99765 -0.000266551 1.62102e-22)
(0.913548 -0.0262088 -3.84006e-22)
(1.00003 -0.000517035 -4.53593e-25)
(1.00053 -0.00173755 5.82623e-25)
(0.997466 -0.000226448 -1.06732e-22)
(1.02702 0.00174476 5.19608e-21)
(0.99712 -0.00441689 -3.45837e-23)
(0.998838 -0.00644379 5.68142e-23)
(1.02774 -0.00098936 2.57331e-21)
(1.00014 -0.000422271 3.8774e-24)
(1.00003 -4.67851e-06 2.16526e-25)
(1.00538 -0.00064909 6.5481e-23)
(0.973353 -0.0403632 -1.13934e-21)
(0.972008 -0.00049121 -1.08708e-21)
(0.994706 -0.000426496 -4.98475e-22)
(1.01184 0.00317429 4.4842e-21)
(0.982092 -0.00135047 5.22758e-22)
(1.0208 -0.0195255 -3.67074e-22)
(0.99997 -1.18131e-05 2.10024e-24)
(0.996766 -0.00291781 -1.94579e-22)
(1.00086 -0.00116118 1.03434e-22)
(1.10247 -0.0847978 1.3269e-21)
(1.12302 -0.205028 7.16894e-21)
(0.998506 -0.000137267 8.4986e-23)
(1.0005 -0.000617647 -3.50272e-23)
(0.998725 -0.00629302 -1.91668e-23)
(1.004 -0.00880335 -2.43994e-22)
(0.987718 -0.000705772 -9.52114e-22)
(0.999953 -4.7001e-05 -7.79636e-26)
(1.26394 -0.0396856 -5.50353e-21)
(1.00005 -0.000528923 1.31644e-25)
(1.02664 0.00159194 -3.66103e-21)
(0.996352 -0.00256306 -1.01203e-22)
(1.00015 -0.000409632 1.74195e-24)
(1.03334 0.0154243 -3.54527e-21)
(0.967902 -0.105522 -3.03456e-21)
(1.00027 -4.60862e-05 1.89652e-23)
(1 -1.15655e-05 2.01574e-25)
(0.926597 -0.00491218 -2.35457e-21)
(1.09581 -0.196019 -1.08822e-21)
(0.99045 -0.00948146 -7.39433e-23)
(1.02491 -0.0633172 -1.89997e-22)
(1.03487 -0.0181179 -1.90805e-22)
(1.03361 0.0875234 8.05361e-22)
(1.00008 -8.7494e-05 6.83399e-25)
(0.973857 -0.0394267 1.15365e-21)
(1.21936 0.0308709 1.02587e-21)
(0.966819 0.0551081 3.75843e-22)
(0.992356 -0.0146515 2.19874e-22)
(1.02658 0.0476199 7.16471e-21)
(1.12651 -0.0137292 1.30963e-22)
(0.999885 -0.00270117 -1.00505e-23)
(0.844443 0.0483472 2.05309e-20)
(0.999414 -0.000479926 -5.5127e-23)
(1.07812 -0.124998 -1.3291e-21)
(0.915122 -0.0261214 2.45689e-21)
(1.00248 -0.00281476 -9.64235e-23)
(1.17547 0.0548929 1.74334e-21)
(0.990395 -0.00106966 -5.71441e-22)
(1.00156 0.132469 1.27032e-20)
(0.996176 -0.000294819 4.6052e-23)
(0.980245 -0.0199307 -4.42884e-23)
(0.999785 -0.0024545 -5.09211e-23)
(1.08628 0.13614 2.02716e-21)
(1.00086 -0.0194188 4.58923e-23)
(1.03044 0.104011 5.45014e-22)
(0.999459 -5.02512e-05 -2.10855e-23)
(0.993504 -0.00213819 -2.18668e-22)
(0.964236 0.121016 -7.61888e-21)
(1.03222 0.001846 -4.32142e-21)
(1.02753 -0.000699922 2.99229e-21)
(0.968395 -0.052103 2.75238e-21)
(0.999843 -3.47346e-05 5.94488e-24)
(1.00388 -0.00850786 -2.74037e-23)
(0.99982 -0.00103993 -1.89035e-23)
(1 -5.32721e-05 2.78337e-25)
(1.05624 0.0118679 1.21253e-21)
(1.00004 -5.41235e-06 2.8028e-26)
(0.97728 -0.0178008 1.98247e-21)
(1.21835 0.0261098 -1.03355e-21)
(0.902116 0.103989 -1.88797e-20)
(1.00242 0.123953 -2.83633e-20)
(0.970175 -0.0900409 9.28786e-22)
(0.985953 -0.0358048 7.16303e-22)
(0.97343 -0.0018898 5.18276e-22)
(1.0418 -0.036266 6.58901e-22)
(1.00817 -0.0192877 -1.31155e-22)
(0.979447 -0.019404 -1.1654e-21)
(0.972653 -0.0988773 4.16032e-22)
(1.03194 0.0893797 -1.23034e-20)
(0.999554 0.0132794 2.5546e-20)
(0.998606 -0.000167463 4.67738e-23)
(1.00315 0.0701686 -2.41919e-20)
(1.05567 0.0102644 4.21814e-22)
(1.18422 0.00230217 2.72316e-22)
(1.01564 -0.0165613 1.76409e-22)
(1.00193 -0.0177689 -2.28592e-22)
(1.03286 -0.0557026 -4.6877e-22)
(0.993979 -0.00206342 -5.18196e-22)
(0.997054 -0.000738403 -3.40088e-23)
(0.99994 -7.04272e-06 8.45591e-24)
(0.999203 -0.0098018 1.62749e-22)
(1.10814 -0.0240571 1.39534e-22)
(1.08611 0.139641 -3.25891e-21)
(1.00179 -0.00153496 4.5233e-23)
(0.96901 -0.0333905 -1.56461e-21)
(1.01775 -0.0166996 -5.59149e-22)
(0.999963 -1.68112e-05 -7.75136e-25)
(0.971314 -0.0942751 -1.48767e-21)
(0.879235 0.0818549 -9.53517e-21)
(0.993054 -0.00553719 7.69566e-22)
(0.998834 -0.00514532 5.21542e-23)
(1.01626 -0.0162868 -1.09903e-22)
(1.00974 -0.05339 1.18802e-21)
(1.07883 0.043184 1.52704e-21)
(0.999692 -0.0111044 -2.62474e-23)
(0.999967 -5.73111e-05 5.35213e-24)
(1.00001 -3.09809e-06 4.11045e-26)
(0.997014 -0.000672858 -3.76098e-23)
(0.96252 0.120174 1.10017e-20)
(1.05689 -0.0239398 5.54662e-22)
(1.12884 -0.19996 -1.86802e-21)
(1 -1.15491e-05 3.39908e-26)
(1.09415 -0.202617 7.0895e-22)
(1.08167 0.0106994 -1.78562e-21)
(0.994217 -0.000188106 -2.33279e-22)
(0.918158 -0.00946401 -2.93244e-21)
(0.998925 -0.00505242 -5.27022e-23)
(0.999529 -0.00021664 -3.50057e-24)
(0.974376 -0.0355321 -3.43372e-22)
(1.00102 -0.00128374 -4.63872e-23)
(1.18257 0.0129072 4.05917e-23)
(1.01009 -0.00114002 -1.37091e-21)
(1.14384 0.126033 -3.24613e-21)
(0.999925 -0.00266501 1.2966e-23)
(1.0054 -0.0154989 4.37237e-23)
(1.00506 0.0106596 -1.1759e-20)
(1.23899 0.0582895 -6.89654e-22)
(1.00046 -0.000653882 -2.66123e-23)
(1.00049 -0.000579183 2.59998e-24)
(0.992344 0.0863906 1.14236e-21)
(1.00087 -0.063717 -3.5286e-22)
(0.999485 -0.0109456 3.19865e-23)
(1.01037 0.0343638 1.40825e-21)
(0.976531 0.0189632 3.03239e-20)
(1.15123 -0.0587023 -1.26156e-21)
(1.00083 -0.0300756 -1.54315e-22)
(1.17374 0.0934923 2.90753e-21)
(0.999165 -8.20229e-05 -3.55841e-23)
(0.990077 -0.00494748 2.01452e-22)
(0.996257 -0.000309941 -1.28652e-22)
(1.0131 0.030059 1.3264e-23)
(0.999986 -0.000853539 1.98364e-24)
(1.00976 -0.00139209 1.4006e-21)
(1.21128 -0.0876615 1.34408e-22)
(0.998223 0.117176 2.76219e-20)
(0.924807 0.118096 -4.40846e-21)
(0.993165 -0.00322688 2.77919e-23)
(0.990149 -0.00926552 2.20967e-22)
(1.04384 0.102557 -7.70533e-21)
(1.02202 -0.067383 1.37866e-21)
(0.999942 -8.42727e-06 -8.24338e-24)
(1.16459 0.135568 6.64529e-21)
(1.02616 0.00220019 -1.55572e-21)
(1.02563 0.00210835 -1.05254e-21)
(0.993884 -0.0158481 -3.26245e-22)
(1.02006 -0.00193548 -2.13911e-21)
(0.95518 0.108112 4.3381e-21)
(1.19283 -0.127366 -1.2162e-21)
(0.980351 0.107537 4.43087e-21)
(0.9922 0.106978 -7.84191e-21)
(0.999997 -7.20191e-05 5.88945e-25)
(1.10471 -0.0240998 -2.98792e-22)
(1.19033 -0.121404 8.08348e-22)
(0.996984 -0.00445975 8.99834e-23)
(1.00183 -0.00164565 -7.44716e-23)
(0.971917 0.0223607 7.23212e-21)
(1.05889 -0.0243784 -7.11835e-22)
(1.00031 -8.51118e-05 4.36194e-24)
(0.985068 -0.0765055 -3.48864e-21)
(0.975043 -0.112352 -1.4311e-21)
(0.993648 -0.00219582 3.07513e-22)
(0.999869 -0.000236415 -7.58972e-24)
(1.0372 0.120756 -1.28729e-21)
(1.03509 0.0554995 1.1225e-20)
(1.00005 -0.000580241 -3.03485e-25)
(1.00461 -0.00408876 5.92552e-23)
(1.00591 -0.00407236 3.21702e-22)
(1.2262 -0.0279521 3.81724e-21)
(0.968319 -0.0506765 -2.49097e-21)
(1.00007 -0.000689748 -9.85375e-25)
(0.999986 -2.81624e-06 -2.48466e-25)
(1.00055 -0.000187347 7.06902e-24)
(1.07709 0.0438177 -1.50479e-22)
(0.967715 -0.0345025 -1.25579e-21)
(1.00182 0.0389113 5.65536e-21)
(0.934484 -0.0649641 1.48385e-21)
(0.986923 -0.0355475 -7.53481e-22)
(0.971154 -0.00147705 -2.07229e-21)
(1.0119 0.033476 -6.93161e-21)
(1.1881 0.0831625 1.05661e-22)
(0.998649 -0.000178068 8.56762e-23)
(1.0089 -0.00653226 -3.44214e-22)
(1.00095 -0.00127062 5.25551e-23)
(0.979119 0.117272 -1.11388e-20)
(0.970115 -0.0310746 6.72136e-22)
(1.00122 -0.000323338 -2.53895e-23)
(0.991291 -0.00438825 -2.76399e-22)
(1.16186 0.0199892 8.55509e-22)
(0.999847 -0.0119295 -7.01785e-23)
(0.986776 -0.0155017 -1.53245e-22)
(1.00026 -0.000161926 -1.30587e-23)
(1.00026 -6.19489e-05 -5.75888e-25)
(0.876017 0.0875615 1.43591e-20)
(0.990469 -0.0015937 -3.55193e-22)
(0.994517 -0.00567467 3.17497e-22)
(0.999579 -0.00217771 -4.33233e-23)
(0.999186 -6.27074e-05 -4.88636e-24)
(1.03932 0.0863553 -4.19953e-21)
(1.21709 -0.0846339 2.62367e-22)
(0.986299 -0.0542163 4.53445e-22)
(1.00002 -2.27642e-06 -5.72366e-26)
(0.999999 -4.26732e-05 2.50345e-25)
(0.968893 -0.0322891 1.77033e-21)
(0.992155 -0.00232579 7.30316e-23)
(0.994029 -0.00263343 -4.22561e-23)
(1.01609 -0.00569373 6.64064e-22)
(1.00659 -0.00275584 1.15469e-22)
(1.00122 -0.0198561 -8.23279e-23)
(1.13075 0.0129349 1.79021e-21)
(0.977792 -0.00564574 -4.37928e-22)
(0.982018 0.105662 -3.77186e-21)
(1.01859 -0.0291187 -1.3875e-22)
(1.00028 -0.000162593 1.45491e-23)
(0.968722 -0.0885566 1.36446e-22)
(0.983266 -0.0482005 -1.56936e-21)
(1.16591 0.0538684 1.25758e-21)
(0.996774 -0.00737151 -9.54767e-23)
(0.992505 -0.0631617 -5.30972e-22)
(0.999978 -7.07914e-06 1.40978e-24)
(0.935974 0.0867972 -1.51159e-20)
(1.01697 -0.00235788 1.20845e-21)
(1.00009 -0.000276958 -3.72285e-24)
(0.919867 0.0232913 -2.02351e-20)
(0.985003 -0.0546417 1.01151e-21)
(0.999978 -7.77852e-06 2.18981e-25)
(1.00166 -0.00150089 2.19898e-23)
(0.969634 -0.0925958 -8.12671e-22)
(1.04961 -0.0365103 2.19632e-22)
(1.05347 -0.00730724 1.51417e-21)
(0.999991 -4.12541e-06 3.9164e-25)
(0.990416 -0.000814176 2.82531e-22)
(1.03354 -0.0542252 8.03204e-22)
(0.993827 -0.00201295 4.2522e-22)
(0.999481 -5.75768e-05 -1.14521e-22)
(0.99028 -0.00510621 5.43662e-24)
(0.980165 0.0393082 1.79632e-21)
(0.992004 -0.0156861 -3.95494e-22)
(0.987352 -0.0151527 1.12223e-22)
(1.00139 0.0228505 -5.74413e-21)
(0.996825 -0.00275517 1.01249e-22)
(0.974424 0.118707 -1.37534e-21)
(0.999977 -7.64936e-06 -7.11822e-25)
(0.989564 -0.0355306 3.05539e-22)
(0.991055 -0.106574 3.54855e-21)
(0.993917 -0.0633737 9.04471e-22)
(1.22217 0.0132984 4.695e-22)
(0.998707 -0.00674444 1.27864e-22)
(1.01283 -0.0279671 4.28531e-23)
(0.999911 -0.0028718 2.49945e-24)
(0.980496 -0.0282245 -8.76732e-22)
(1.05212 -0.0397347 6.15339e-23)
(0.999965 -1.59337e-05 4.01753e-24)
(1.00002 -1.20086e-06 -9.33981e-26)
(0.992549 -0.000521315 1.92785e-22)
(0.982027 0.0760452 1.15679e-20)
(1.01617 -0.0225055 6.38765e-22)
(1.00302 -0.00420046 -9.30402e-23)
(0.91349 -0.049273 2.02587e-21)
(1 -1.02923e-05 1.00159e-25)
(1.00113 -0.00140173 -8.43588e-23)
(0.999959 -0.000813442 -1.31092e-24)
(1.01762 -0.0213511 7.22477e-22)
(0.980199 -0.0208175 1.55359e-22)
(0.999563 -0.000338421 1.45396e-23)
(0.992492 -0.0139705 1.5066e-22)
(0.985265 -0.00901567 -1.6151e-22)
(1.00117 -0.000193909 -7.00143e-24)
(0.999977 -8.41401e-06 -4.40007e-25)
(1.20774 0.0502284 -2.76743e-22)
(0.999623 -0.00214082 4.6665e-23)
(1.08058 0.00527137 1.3445e-21)
(1.01064 0.115261 2.89104e-20)
(1.04016 0.101029 -7.02079e-21)
(1.00204 -0.0251094 -3.1185e-22)
(1.00645 -0.00250069 -3.82134e-23)
(1.02041 -0.00153176 1.31133e-21)
(0.999969 -0.00293521 -2.83817e-24)
(0.997736 -0.012816 1.56908e-22)
(1 -1.8761e-05 3.97399e-25)
(0.989894 0.107216 -5.80899e-22)
(0.985923 -0.0205101 2.17465e-22)
(1.01578 -0.00526032 -4.74612e-22)
(0.978314 -0.00585084 9.11276e-22)
(1.00483 -0.0152828 4.89201e-24)
(0.996971 -0.00724299 2.08625e-22)
(0.999882 -0.000242213 1.82226e-24)
(1.00002 -1.32402e-06 -5.75607e-25)
(0.994707 -0.00564797 -2.31225e-22)
(1.06083 -0.00433256 -8.32979e-22)
(1.00372 0.0415432 8.91138e-22)
(1.00141 -0.000572391 -1.03229e-22)
(0.974262 -0.0812185 -7.48788e-22)
(0.969957 -0.0301551 -2.96129e-22)
(0.990658 -0.000637294 -1.0593e-21)
(1.18014 0.121175 -2.33805e-21)
(0.998491 -0.00117427 -5.12042e-23)
(1.00506 -0.0172958 -1.0795e-22)
(0.993555 -0.00347238 2.14912e-22)
(0.999892 -0.000233312 1.5228e-24)
(0.970714 -0.0969846 9.3703e-22)
(1.00155 0.0335749 -8.89955e-21)
(1.02759 0.0437807 -7.39482e-21)
(0.972549 -0.0199598 -1.43478e-22)
(1.0011 0.0318934 -3.96989e-22)
(1.00009 -0.000259949 6.96826e-24)
(1.00001 -1.37476e-06 1.63018e-25)
(1.16354 0.132686 -2.5349e-21)
(1.17124 0.0567691 -1.00173e-21)
(0.922056 0.0883856 -7.39731e-22)
(1.01601 -0.106365 2.64347e-21)
(0.971484 -0.00203832 -6.70572e-22)
(1.1578 0.0237231 -1.15458e-21)
(1.00134 -0.000596438 1.16862e-22)
(0.993326 -0.0046855 1.2287e-22)
(1.00052 -0.000198849 -6.76316e-24)
(0.98719 -0.000906852 -2.2603e-22)
(0.986207 -0.0167265 -3.18547e-22)
(0.999994 -3.81327e-05 -1.53758e-24)
(0.998986 -3.96595e-05 2.02748e-23)
(0.997949 0.114744 -2.69992e-20)
(0.99985 -0.000845241 1.7325e-23)
(0.943154 0.0802742 1.9023e-20)
(1 -1.75903e-05 -3.03227e-25)
(1.21669 0.0886555 7.58412e-22)
(1.08114 0.00343004 -2.86727e-21)
(1.12926 0.0153695 -1.9949e-21)
(1.0012 -0.000565445 6.95911e-24)
(1.00021 -4.91873e-05 1.14926e-23)
(0.986006 0.0722809 -1.76288e-20)
(1.08261 0.00851198 5.82783e-21)
(0.990767 -0.109075 -3.22536e-21)
(1.01908 0.0417847 3.35573e-21)
(0.998673 -0.0258426 1.31134e-22)
(0.983841 -0.00691697 -2.35328e-22)
(0.995236 -0.000266816 -1.28371e-22)
(1.0885 0.158994 -1.46593e-20)
(0.971833 -0.0359661 1.1066e-21)
(1.04192 -0.0343985 -4.49813e-22)
(0.992803 -0.0138223 -8.6615e-23)
(1 -1.02873e-05 -9.87333e-28)
(0.998507 -0.00110878 -4.35427e-23)
(1.00704 -0.00696994 2.00389e-22)
(0.977566 -0.0104708 1.16305e-21)
(0.973312 -0.0200867 2.1538e-22)
(0.947215 -0.057427 -3.2911e-22)
(0.977334 -0.0111114 -8.82277e-22)
(1.01817 0.00302968 6.06943e-22)
(0.997529 -0.000171113 2.67609e-24)
(0.922135 -0.0558556 1.04806e-21)
(0.982929 -0.0011816 -3.2342e-22)
(1.00004 -0.000250782 3.15345e-25)
(0.985179 -0.000939013 -2.23347e-22)
(1.04341 -0.0374493 -6.97464e-22)
(1.01737 0.0032158 -3.35886e-21)
(0.969146 -0.0364014 -2.74138e-22)
(0.999986 -7.35562e-07 -6.70323e-27)
(0.979235 -0.0213401 2.3374e-22)
(1.00328 -0.0178257 2.46033e-23)
(1.00162 -0.00139298 2.82534e-23)
(1.21636 -0.111938 -3.65943e-21)
(1.00134 0.0306859 -2.05958e-20)
(1.00105 -0.00138471 7.8259e-23)
(0.985441 -0.000708002 2.97636e-24)
(1.14228 -0.0632023 2.18342e-24)
(1.02806 0.000770568 5.22648e-21)
(0.99211 0.0256117 -1.94408e-21)
(1.00217 -0.00293808 2.5152e-23)
(1.00194 -0.0261927 9.73956e-23)
(1.07319 0.124093 -2.33156e-21)
(1.01413 0.0269261 -1.72911e-20)
(0.990883 -0.0352657 8.10393e-22)
(1.00557 -0.00408191 -3.60186e-23)
(0.941684 -0.0690559 1.5164e-21)
(0.999997 -5.14807e-06 2.98022e-25)
(0.936489 -0.00291163 -1.06114e-21)
(1.00009 -8.14447e-05 1.43144e-24)
(1.13983 -0.0663098 -3.11031e-21)
(0.999966 -3.53869e-06 -4.50772e-25)
(1.00003 -7.17087e-05 4.00232e-25)
(1.00183 -0.0294116 -1.17491e-22)
(1.19123 0.0920169 -1.49706e-21)
(1.02124 0.14293 1.20571e-20)
(1.04751 -0.0377294 -1.07814e-21)
(1.017 -0.0169592 3.71882e-22)
(0.999999 -3.85373e-06 -8.99912e-26)
(0.992797 -0.0055831 -4.15402e-22)
(1.0001 -2.50412e-05 -1.10613e-24)
(0.996319 -0.00293916 1.4489e-22)
(1.00003 -6.65409e-05 -3.04947e-25)
(1.05307 -0.00537172 -4.71854e-21)
(0.999456 -0.000564862 -5.6771e-23)
(1.04867 0.0598834 7.35064e-21)
(0.999857 -0.000258414 -1.14926e-23)
(0.984451 -0.00674414 -3.983e-22)
(0.947163 -0.00153892 2.47442e-21)
(0.994985 -0.000367369 -1.65721e-22)
(0.986623 0.0386346 1.86791e-20)
(0.978865 -0.000936617 6.07921e-22)
(1.06024 -0.125401 2.26355e-22)
(0.993506 -0.00491152 6.37503e-22)
(1.02739 -0.0022276 -1.09141e-21)
(0.970959 -0.0830572 3.27891e-21)
(1.0216 -0.00140872 -3.66142e-21)
(1.06404 -0.0762481 -8.4368e-23)
(0.999986 -2.28673e-06 6.50324e-26)
(1.00044 -0.0248639 1.08237e-22)
(0.995314 -0.000352009 2.01935e-23)
(1.00028 -0.000109637 8.84323e-24)
(1.00009 -2.1289e-05 1.80077e-24)
(1.09157 0.161057 1.5938e-20)
(0.99423 -0.00263953 3.56489e-22)
(1.02752 0.00168048 5.96214e-21)
(1.00278 -0.0267495 1.18982e-22)
(1.00099 -0.00036338 2.68856e-23)
(1.02649 -0.00809631 -4.01998e-21)
(1.00019 -4.62213e-05 -2.49477e-23)
(0.999976 -4.49832e-06 -6.27822e-26)
(0.937323 -0.00387525 8.18503e-22)
(0.995895 -0.00149345 1.6125e-22)
(1.00003 -6.47361e-05 5.95716e-25)
(1.04945 0.101169 5.26546e-21)
(0.890145 0.071251 -2.67857e-20)
(0.99976 -0.000273741 2.76294e-23)
(0.94968 -0.003089 -6.80854e-22)
(1.00002 -1.55324e-06 1.21203e-25)
(0.952175 0.105827 -1.76307e-20)
(1.21984 0.0925586 7.51182e-22)
(0.968506 -0.0662064 -2.59691e-21)
(1.00005 -0.000666881 -1.08137e-24)
(1.0403 -0.0333385 1.07712e-21)
(1.03266 -0.00114052 -1.51009e-21)
(1.03297 0.00198453 4.43287e-22)
(1.05489 -0.00772793 -5.87058e-22)
(0.999584 -0.00229532 -6.93096e-24)
(0.999847 -0.00101367 1.50194e-23)
(0.983599 -0.020539 -6.90907e-22)
(1 -9.13638e-06 2.69208e-25)
(1.00001 -1.23451e-06 -3.06934e-26)
(0.970633 -0.035416 -6.50422e-22)
(1.00758 -0.0800602 -1.40455e-21)
(0.948871 -0.0561629 -8.36609e-23)
(0.909579 0.0998768 -5.63815e-22)
(1.00023 -3.00406e-05 -1.06506e-23)
(1.03817 -0.094504 -2.99195e-21)
(1.00861 -0.00614033 -3.53694e-22)
(0.999977 -4.9708e-06 7.19398e-25)
(0.998854 -0.0047886 -1.13868e-22)
(1.00004 -0.000564199 -3.93343e-25)
(0.995204 -0.0159902 2.45781e-22)
(1.00005 -1.1922e-05 9.58838e-25)
(1.06588 -0.0740272 -1.99746e-22)
(1.02122 -0.00173184 3.55034e-21)
(0.97582 0.116697 3.87427e-21)
(1.0269 -0.00215927 4.10032e-21)
(0.999684 -0.00026782 2.14875e-23)
(1.00053 -0.000466694 -2.58607e-23)
(1.22914 -0.0334271 -3.90226e-21)
(1.02757 0.00134721 -4.79751e-21)
(0.996382 -0.000480689 1.455e-22)
(1.00002 -1.94845e-06 2.72153e-25)
(1.06384 0.0926258 -8.7477e-21)
(1.19227 -0.175501 -1.67622e-21)
(1.01546 -0.103708 -1.17904e-21)
(0.982441 -0.00100774 -1.70666e-22)
(0.99998 -2.40178e-05 1.44864e-24)
(0.999687 -0.000252426 -1.25712e-23)
(1.20117 -0.174885 4.71111e-21)
(1.00457 -0.0633225 -3.79622e-22)
(1.03535 0.0332179 1.05433e-21)
(0.981599 0.102202 1.62666e-20)
(1.05732 -0.122324 1.68694e-21)
(0.998542 -0.000102105 -2.67127e-23)
(0.999979 -1.12253e-05 -1.68414e-24)
(0.957987 -0.0723929 2.56883e-21)
(0.991733 -0.143828 -3.60105e-21)
(0.999769 -0.000283622 1.49015e-23)
(1.01345 -0.0270759 2.67931e-22)
(0.991179 -0.0342601 -1.43303e-22)
(0.994533 -0.00282725 1.40793e-22)
(0.998622 0.0250261 -1.48573e-20)
(0.99851 -0.000661202 9.51824e-23)
(1.07171 -0.0489013 1.00046e-23)
(1.13832 0.15103 -6.58118e-21)
(0.990797 -0.00414635 -4.03409e-22)
(0.920084 0.0834541 -2.68431e-21)
(0.927631 0.0397215 8.49577e-21)
(0.999967 -6.06302e-05 -5.39205e-24)
(0.999969 -0.000890107 -1.75451e-24)
(0.97913 -0.00124405 -3.89417e-22)
(1.01501 -0.00520338 -8.5936e-22)
(0.951934 -0.00283488 1.42394e-21)
(1.00608 -0.00505262 -3.69491e-22)
(0.991136 -0.00415435 3.77468e-22)
(0.999346 -0.000602964 -4.29886e-23)
(0.960099 0.106311 -3.13576e-21)
(1.04954 0.0577356 -1.14602e-20)
(1.00266 -0.00284081 6.4931e-23)
(0.851167 0.04558 -5.25967e-21)
(1.00001 -1.10877e-06 -1.68101e-25)
(1.02481 0.00746023 -8.30776e-21)
(1.01412 -0.132678 2.58109e-21)
(1.04131 -0.0935556 1.16642e-21)
(1.00011 -0.000252463 -3.39596e-25)
(0.949456 -0.00156019 1.1711e-21)
(1.02225 0.00654533 4.67243e-21)
(1.01465 -0.00558405 7.10974e-22)
(1.03185 -0.000203581 2.09439e-21)
(0.999496 -4.51056e-05 8.07256e-23)
(0.999449 -0.000602221 5.14251e-23)
(1.03698 -0.0517557 2.02312e-22)
(0.995963 -0.00160881 -4.63341e-22)
(0.985038 -0.0152566 -7.53073e-22)
(0.998991 -0.00433576 6.75433e-24)
(1.07426 0.0494445 5.85128e-21)
(1.00023 -0.0259564 -7.42235e-23)
(0.994197 -0.00601679 7.88862e-24)
(0.907888 -0.0420112 -2.97457e-21)
(0.994385 0.0864343 1.87643e-21)
(1.12834 -0.00853295 -1.32138e-21)
(1.02591 -0.00780684 3.2325e-21)
(0.999548 -0.000217201 1.54721e-23)
(0.999418 -0.000393188 6.9603e-24)
(0.979498 -0.0279606 1.76391e-21)
(1.00116 -0.00150845 -6.29459e-23)
(0.996974 -0.000846113 -2.63297e-23)
(0.999981 -2.27176e-05 -5.48186e-25)
(0.999629 -0.002338 1.32792e-24)
(1.02163 0.00600131 -1.81701e-21)
(0.98503 0.0752491 -1.68865e-20)
(0.999861 -1.79512e-05 3.55332e-24)
(1.10816 0.15229 -1.34374e-20)
(0.999994 -4.78592e-05 6.51468e-25)
(0.996205 -0.00348402 1.96936e-22)
(0.999991 -0.000113316 7.25631e-25)
(1.0061 -0.00437246 -1.63883e-22)
(1.21195 0.0486891 2.51565e-22)
(0.999958 -5.07017e-05 4.14516e-25)
(0.999957 -5.43481e-05 3.01172e-24)
(0.933032 -0.0659064 -1.41718e-21)
(1 -9.14214e-06 1.77404e-27)
(1.05824 -0.00677857 4.93587e-21)
(0.989567 -0.055124 1.45161e-21)
(0.999972 -0.000781549 1.54874e-24)
(1.06601 0.0753999 -6.79319e-21)
(0.999999 -3.43161e-05 -5.34591e-25)
(0.999553 -4.6506e-05 7.08615e-23)
(0.999904 -4.21631e-05 1.16318e-25)
(0.99441 -0.006023 -1.19088e-22)
(0.999614 -0.00186324 -2.23615e-23)
(0.992696 -0.000395417 -1.29618e-22)
(1.03858 -0.1572 -3.0092e-22)
(0.999658 -0.00181378 1.49645e-23)
(1.0049 -0.00410035 -1.2723e-22)
(0.999976 -3.3492e-06 -2.66402e-25)
(1.02296 0.140576 -2.35008e-20)
(1.07013 -0.0508282 -4.45819e-23)
(1.13143 -0.0079982 -2.14943e-23)
(0.955602 -0.00840951 1.53162e-21)
(0.972105 -0.00574328 -2.82049e-22)
(0.998957 -0.00468065 1.88027e-22)
(1.0034 -0.00315512 1.76803e-22)
(1.03822 0.0686614 3.07028e-21)
(0.982588 -0.0497451 2.13042e-22)
(1.09034 0.113641 3.3109e-21)
(0.944105 -0.0195801 -2.76888e-21)
(0.996067 -0.00336551 -1.8561e-22)
(0.999991 -4.9836e-06 -7.01996e-25)
(0.99333 -0.00348799 -2.59086e-22)
(1.00424 0.13401 5.83676e-21)
(1.0577 0.081675 -1.57333e-21)
(0.987065 -0.0755698 1.19405e-21)
(0.921884 -0.00876624 6.4099e-22)
(1.02703 0.13463 6.4419e-21)
(0.989924 -0.000729254 3.34137e-22)
(1.00366 -0.122584 2.05816e-22)
(0.999991 -0.000108427 1.68258e-24)
(0.988135 -0.0556116 1.80746e-21)
(0.99905 -0.000272533 -1.00737e-22)
(0.862989 0.0770239 -1.50778e-20)
(0.988327 -0.101335 -2.65463e-21)
(0.999907 -3.79025e-05 6.76728e-24)
(0.91705 -0.0287507 -1.65132e-22)
(0.982854 -0.0528636 9.01533e-23)
(1.02609 0.0730208 1.08337e-20)
(0.997016 -0.000923301 -2.48328e-22)
(0.980038 -0.0513283 -6.38458e-22)
(0.997533 -0.0131548 -2.1896e-22)
(1.00181 -0.0283878 -2.43545e-22)
(0.998549 -0.000672757 -6.50429e-23)
(1.02514 0.0716052 -1.31561e-20)
(1.11297 -0.203098 3.16885e-21)
(0.979213 -0.0222241 -5.18001e-22)
(0.984205 -0.0190495 1.11066e-23)
(0.984579 -0.00636828 -1.60617e-22)
(1.00605 -0.00237714 -1.50447e-22)
(1.02853 0.131609 2.5417e-20)
(0.978894 -0.0180179 2.3451e-22)
(1.01266 0.0392586 7.32061e-21)
(1.00313 -0.00253429 1.3448e-22)
(1.22392 0.0191701 -1.15943e-22)
(0.940576 0.085815 2.79837e-21)
(0.989719 -0.000568825 -1.15628e-21)
(0.999748 -4.81433e-05 1.42575e-23)
(1.03744 0.0882816 3.26918e-21)
(0.995749 0.110289 -2.18491e-20)
(1.03554 -0.0499549 -2.2754e-22)
(1.09945 -0.0286785 1.31889e-22)
(0.994971 -0.0166045 -2.74535e-22)
(0.956317 -0.00759099 -9.08226e-22)
(1.0714 0.121696 9.37696e-21)
(0.956108 -0.0729565 4.22144e-22)
(0.999978 -2.31525e-05 1.85098e-24)
(0.991289 -0.000140391 -5.96504e-22)
(1.00004 -6.17335e-06 9.33462e-25)
(0.99481 -0.000330267 4.49792e-22)
(0.999977 -2.46711e-05 -2.8812e-24)
(0.998369 -0.0183623 3.60658e-22)
(0.998917 -4.40862e-05 3.57599e-23)
(0.996914 -0.00686736 2.42749e-23)
(1.22577 -0.0129913 -6.0077e-22)
(0.999329 -0.000461395 3.66858e-23)
(0.999441 -0.000234836 2.51145e-23)