/*--------------------------------*- C++ -*----------------------------------*\
  =========                 |
  \\      /  F ield         | OpenFOAM: The Open Source CFD Toolbox
   \\    /   O peration     | Website:  https://openfoam.org
    \\  /    A nd           | Version:  7
     \\/     M anipulation  |
\*---------------------------------------------------------------------------*/
FoamFile
{
    version     2.0;
    format      ascii;
    class       volScalarField;
    location    "18";
    object      p;
}
// * * * * * * * * * * * * * * * * * * * * * * * * * * * * * * * * * * * * * //

dimensions      [0 2 -2 0 0 0 0];

internalField   nonuniform List<scalar> 
7639
(
0.280284
0.00421668
0.501327
0.308245
-0.00155615
-6.8251e-05
0.50664
-0.00949372
-0.00021721
0.130424
-6.43657e-05
0.00431135
-0.0141521
0.0654697
0.135698
-0.0184073
0.294973
-0.0184583
0.00194651
-0.0793796
0.087109
0.00283009
0.0485164
0.251595
-0.0238991
0.296444
-0.00143568
0.080569
0.210038
0.00449376
-0.0252171
0.787217
0.0476502
-0.000879356
-0.00019199
0.106689
0.00507366
0.489183
-0.00801348
-0.000613954
-0.00731906
-0.0177518
-0.0779848
-0.0576646
-0.000367499
-0.000150647
0.00278956
-0.00820993
-0.000124717
-0.0783326
0.0064578
0.0765544
-0.0300503
-0.00376764
0.105821
-0.00846003
0.00216121
-0.00950393
-0.0384756
-0.000917926
7.17355e-05
0.0082688
0.0658052
0.00475302
-0.00176384
-0.0246761
-0.000176364
7.53636e-06
0.0415541
-0.00767621
-0.000138296
-0.0645117
-0.0231072
-0.0389045
-0.0178362
-0.0542856
0.492963
0.0853667
0.0649802
-0.0713725
-0.0135754
0.451349
0.123365
-0.040514
-0.00260568
-0.00411364
-0.0101454
-0.0291605
-0.00118832
-0.0079989
0.215046
-0.0800685
-0.000244668
0.00215805
-0.00637918
-0.0399112
-0.0616606
-0.00012361
-0.00287136
-0.00210229
-0.0658953
0.073554
-0.00605553
-3.68333e-05
-0.077573
0.218819
0.677481
-0.00898498
-1.11008e-06
0.0438881
0.289712
-0.0500687
-2.72895e-06
0.0465319
0.219594
0.000830743
-0.0632251
0.175542
-0.046746
-0.0397034
-0.0682801
0.430641
-0.0746512
0.0183113
-0.0666928
-0.0017513
-0.022566
0.00357458
-0.00185966
-0.0251965
-0.129129
0.0670479
-0.00109994
-0.00140017
-0.041894
0.281118
0.541443
-3.17728e-05
0.0144188
-0.0846713
-0.0368872
-0.0549573
-0.0546746
-0.0373303
0.68544
-0.021888
0.211646
-0.0372757
-0.050711
0.429128
0.102001
-0.0660333
-0.00270087
0.0154919
0.122985
0.449988
-0.0616693
-0.0140976
0.63796
-0.000112967
0.00104476
0.261441
-3.47466e-05
-0.00373448
-0.00718451
0.327658
0.328307
0.663281
-0.00424195
-0.00557371
8.54277e-06
-0.0707266
0.000817823
0.0116665
0.0156471
-0.0500249
-0.0552812
0.141739
-0.000242847
-0.000915433
0.313155
-0.000112467
-0.000206429
0.508659
-0.00212341
-0.0425969
-0.0440261
-0.0366856
-0.0257211
-0.0829532
-3.78629e-05
-0.0595655
0.144963
-0.00610815
0.000131064
0.2163
-0.00227728
-0.0236912
-0.0249215
1.01141e-05
0.00171337
0.290072
0.184359
0.453692
-0.0566272
-0.04501
-0.10299
0.0878628
0.287516
-0.000393765
6.33508e-05
0.642467
-0.015754
-0.00114553
-0.0570458
-0.0236261
0.40628
0.416899
-0.0596116
0.746001
-0.00211206
-0.0181836
-0.0674783
0.104806
-0.0947231
0.224005
0.639135
0.000113675
0.0192237
0.187367
-0.00755212
0.171233
-0.00100913
0.71076
0.440625
-0.0100894
0.00516281
-0.000570148
0.0986405
-0.000176254
-0.0114355
-0.0799645
-0.000137945
-0.00248145
-0.000801171
0.181172
-3.49979e-05
-0.0083073
-0.0694942
0.786
0.0587427
0.690131
-8.45335e-05
-0.0278625
-0.00035222
0.472231
0.00796386
0.542941
0.00259792
0.00145386
0.00884929
0.0915293
0.00112086
-0.000428466
0.000997746
-0.00795616
-0.0424999
-7.9006e-05
-0.0596345
-0.00684366
-0.00026796
-0.00118955
0.51678
-0.0141055
-0.00144771
0.745831
-0.0027329
0.289663
-0.000392098
0.000945438
1.41622e-05
-0.0421132
0.100864
-0.0507834
-0.0387514
-0.000778041
-0.0711934
-0.0273041
-0.000340396
0.00096182
-0.00407709
-0.0135907
0.00579399
-0.00231501
-0.0387632
-0.0372772
-0.0382836
-0.0458202
-0.0479257
0.429527
0.449062
-0.00282507
-0.0946624
-1.386e-05
-0.00442333
-0.040293
0.244434
0.138191
0.000182079
-0.00406663
-0.0466664
0.199902
-0.00188725
0.00707656
0.00239852
0.0284565
-0.119767
0.397387
-0.00301866
0.00104484
-0.000218214
0.00799752
-0.000100545
-0.0302653
-0.000655816
0.00823535
-0.140635
-0.0476598
0.00346963
0.0172398
-0.0013996
0.0379651
-0.0134773
0.0901305
0.187482
-0.128977
-0.0583084
-0.028085
0.0100866
-0.0778839
0.677424
-0.0512367
0.057479
0.731122
-0.00291085
-0.0033063
-0.0677878
-0.00205001
-0.0180736
0.0124741
-0.00527365
-0.00392399
0.196751
-0.000131095
0.00106999
0.000146196
-0.00642267
-0.012998
-1.66737e-05
-0.00208845
-0.0369149
0.634605
0.0047531
-0.0154585
0.595284
0.377127
0.0795867
-0.0834379
-0.0715406
0.00971135
0.315393
-0.0198872
0.347565
-0.0300327
-0.0834092
0.19299
0.348116
-0.0564814
0.129675
0.213072
0.30869
0.0855461
-0.00574888
-0.00792473
-0.000169528
0.00564347
-0.020296
0.00192992
-0.000205704
-0.0030531
-0.0710969
0.0766295
-0.029471
-0.00498653
-0.00713881
-0.000683413
-0.0129679
0.00343428
0.172349
-0.00355806
-4.29365e-05
-0.000107092
9.07517e-05
-0.0353993
0.191311
-0.00752922
0.0530357
-0.100841
0.479052
0.0063761
0.0132119
-0.00957959
0.498669
-0.00201707
0.390439
0.21626
-0.00022439
-0.0325778
-0.00621805
-0.0529236
0.00110171
0.0900832
0.00626631
0.0122644
-0.00163025
0.163035
0.20542
-0.049235
-0.0369687
-0.00432499
-0.0275429
0.0240309
0.773675
-0.0539315
0.00883677
-1.67416e-06
-0.0233038
-0.00430233
0.0347584
-0.0850928
-0.0963588
0.516739
0.183372
-0.0939436
0.226246
0.487571
0.0528391
0.00236446
0.32443
-0.00171487
-0.000352975
-0.0300635
0.000165264
-0.111535
-0.000669466
-0.0386173
0.00375239
0.226066
-0.00337136
-4.67548e-05
-0.0883079
0.00339635
0.0256642
-0.063562
-0.082718
-0.0893335
0.189586
0.15604
0.160508
-0.000395118
0.0640498
0.0982727
-0.0010106
-0.028429
0.00118358
0.0105708
-0.00476029
0.00928245
-0.00148978
0.103418
-3.79835e-05
0.000381939
0.00386267
-0.0365024
0.0391325
-0.0365672
-0.0426827
-0.039732
-0.101703
0.0126408
0.312292
-0.111879
-0.0121552
0.719447
-0.0606585
-0.0136576
-0.0424011
-0.0110275
-0.0344667
-0.018049
0.0522244
-0.0601275
-5.0436e-05
0.045803
-0.000185775
0.436354
0.0417737
-0.00898543
-0.0242008
-0.000362976
0.45318
0.385368
0.0443634
0.0914824
-0.0639171
0.559052
-0.000122005
0.0304715
-0.0306016
0.153699
0.667334
0.00986069
0.178388
-0.00355835
-0.000392897
0.0731985
-0.116393
0.475091
0.0299672
0.271571
-0.0127917
0.489877
0.365096
-0.0161128
-0.0136975
0.0560052
-0.0843103
-0.000163455
-0.0223635
-0.0812007
-0.0660255
0.0215811
0.0177571
-0.000240297
0.38722
-0.00211683
-0.000199449
-0.0324164
-0.000940352
-0.000430208
0.00637795
0.254948
-0.0796813
0.621036
0.000117932
0.248728
-0.0265236
-0.000145921
3.42672e-05
0.206781
0.249248
-0.00742478
0.228987
4.87418e-05
0.241298
-0.128071
-0.0168374
0.512002
-0.0548297
0.0811112
-0.0406831
0.236521
0.242883
-0.0275136
-0.0345796
-0.0107885
-0.00522844
-0.000385175
-0.00235504
0.326574
-5.26202e-05
0.234191
-0.0769956
0.406949
0.222895
-0.0828956
0.60224
-0.00295969
0.00855708
-0.0469523
-0.0330239
-0.0115813
-0.0301488
0.0467361
0.707045
8.08327e-05
-0.00348796
-0.0493602
1.13665e-05
0.444335
0.00345589
1.08839e-05
0.000366145
0.000721816
-0.0289503
0.0335957
-0.00281387
-0.000164865
-0.0122563
0.0045606
-0.0927938
-0.0765187
0.0397956
-4.18621e-05
-0.11672
-0.0218459
0.0726778
0.402525
0.002173
0.0977735
0.0002884
-0.0209736
0.118072
-0.0116021
0.271177
-0.0214831
0.0348794
0.122384
0.177876
0.00810873
-0.0172426
0.192867
-0.0765003
0.480208
-0.0155493
0.300284
-0.0154773
-0.0021071
0.170134
0.00155972
0.113539
0.00356754
9.53048e-06
-0.0980402
0.166034
0.00268298
0.0778976
-0.0204094
-0.116736
0.0044223
-0.0378658
-0.00303086
-0.0147116
-0.0694563
-0.0435901
-0.0162844
-0.000277858
0.509084
0.0989991
0.0525879
-0.000367994
0.364503
7.27296e-06
-0.000338538
0.116344
0.00214259
0.137847
0.0791924
0.0308512
-0.0425199
-0.0989526
-0.0785782
0.0024456
-0.0620056
-3.5846e-05
0.00676092
0.26039
-0.0262506
-0.0050172
-0.0133473
-0.00353572
-0.000750014
0.730847
-0.0164182
-0.00100907
-1.0781e-05
0.172551
-0.0455331
-0.000604382
-0.00496083
0.199722
0.101721
-0.0558485
2.43022e-06
0.221115
-0.0260248
0.215842
0.0301989
0.0370303
-0.0459178
-0.000176639
0.119464
0.0903382
-0.045833
-0.0713545
0.328785
0.0112375
0.183385
-0.00471789
-0.0313898
-0.000720463
-0.0028219
-0.000198428
0.19422
0.260582
-0.00267912
0.0342621
-0.0277776
-0.0583699
-0.0650728
-0.00335158
0.0280963
0.698242
-0.0468382
-0.000102093
0.101754
-0.00673792
0.594762
-0.0202681
-0.019297
-0.00466189
-0.0221559
-0.0117507
-0.0130301
-0.00612217
0.0027844
0.0383738
0.000193929
-0.13494
-0.04649
0.418759
-0.0537408
0.149481
0.00378424
-0.0451992
-0.0203891
0.257512
-0.0122977
0.000194893
-0.0254563
-0.00936831
0.0319738
-0.0416311
-0.0359549
-0.0325928
-0.0236599
-0.00957838
-0.0696478
1.00592e-05
0.0546036
-0.0615549
0.12076
-0.0514766
0.113193
-0.0740717
0.36594
0.00823948
-0.0473416
-0.0221241
0.629526
-0.11133
-0.0211987
-0.0951516
-0.0387265
-0.0868385
-0.0521991
0.185024
-0.00498843
0.307387
0.0161072
-0.000716911
-0.00219587
0.0905591
0.793446
0.00194621
-0.0268914
0.209356
4.11111e-05
-0.033108
0.0484617
-0.00162191
0.0163616
-0.0029366
-0.0424217
-0.00545837
5.29757e-05
-0.0522556
0.292643
0.00375232
-0.0267506
0.00348656
0.208735
-0.000697309
-0.00225095
-0.000658372
-0.00141826
-0.0208274
0.00347658
0.00511487
-0.0286812
8.18668e-05
-0.0947015
-0.113918
-0.103439
-0.0240925
0.0267184
-0.000390373
-0.0208472
-0.0682913
-0.0270093
0.410207
-0.00229185
-0.0741703
-0.00844002
0.0117943
0.150744
0.000799511
-0.000288457
0.0628364
-0.0313244
0.0264863
-0.0053298
-0.00374861
-0.0630094
-0.000325661
-0.00106569
-0.0217013
0.353672
0.287818
-0.0393961
-0.0595857
0.0133043
0.0069799
-0.026318
-0.0673707
-0.0174887
-9.96559e-07
-0.0228651
-0.0389664
-0.0734639
0.00698584
-0.0599649
-0.000733352
-0.00537567
0.226915
-0.0440959
-7.67074e-06
-0.00507426
-0.0982072
-0.0003057
-0.0220982
-9.36865e-05
0.00709907
-0.0904399
-0.0387029
-4.14075e-05
5.55687e-05
0.149711
-0.0499051
0.457541
0.288239
-0.018705
-0.00107271
-0.0175739
0.0003962
-0.12237
-0.080339
-0.074205
-0.0260311
0.26536
0.0139253
0.00049451
0.00958144
-0.0998694
0.00359111
-0.0272658
-0.0661533
0.00281468
0.0289705
0.0848747
0.0131921
-0.0353674
-0.0624478
0.219403
-0.0328545
-5.63968e-07
-0.0903239
-0.0717239
-0.0390881
0.00712711
0.00137445
0.0121328
-0.088495
0.0419726
-0.0416838
0.115467
-0.0457157
0.0101385
0.0254195
0.0183082
-0.0424007
-0.113125
-0.000191514
0.170818
0.241394
0.010534
0.178701
-0.0681164
0.057751
-0.0498972
0.231355
0.11848
0.691319
7.66725e-06
0.112181
0.199316
0.0197221
-0.00205942
-0.0225802
-0.0384366
7.65646e-05
-0.022525
-0.0531887
-0.0246795
-0.0271202
0.000232384
-0.102219
-0.00052709
-0.00122931
0.278756
0.00875966
-0.00904374
0.0267137
0.239524
0.0145801
-0.000559182
-0.0973215
0.0107692
0.432255
0.00176917
-0.0556327
-0.00031702
-0.000771771
0.00934668
-0.0530869
-4.54012e-05
-0.013647
0.0370007
-0.00269078
5.52099e-05
-6.77878e-05
0.17562
-0.0413308
0.00911045
-0.001542
0.0115349
0.0207794
0.0113752
-0.000411407
0.394069
-0.0860983
0.254363
0.332139
-0.000296721
-0.0168433
0.115346
-0.00107376
-0.000374919
-0.000602987
-0.0150138
0.0189029
-0.0139269
-0.0237885
-0.0688012
0.195131
-0.0869635
1.74199e-05
-0.0238529
-0.0226582
-0.0427613
-0.0058119
0.00801588
0.00171644
0.0361578
-0.000716983
-0.000328785
-0.0213866
-0.0057437
-0.0303542
-2.20855e-05
-0.0183564
0.0430658
-0.0250334
-0.0306388
-0.0108928
-0.0146385
-0.0114853
-0.00691841
0.0106463
-0.0118629
-0.000147327
-0.000559182
0.0298887
-0.0152181
-0.00656187
0.0112364
0.00369352
-0.107369
-0.0138397
0.179911
-0.01566
-0.0603701
-0.0295146
-0.0277162
-0.0192428
-0.00500767
0.00301569
-0.0046972
-0.0172731
-0.019874
0.211637
0.15891
0.0579288
0.400199
-0.000101088
-0.00438242
-0.0202556
-0.0102225
0.0785298
-0.0248153
0.0525921
-0.00567706
0.223273
-0.0025921
-0.00217452
0.0178287
-0.0212881
-0.00030343
-0.025995
-0.00778261
-0.0255244
-2.80364e-05
-0.00874172
0.00269266
-0.0215594
0.0405384
0.0451937
0.0247041
-0.0173268
-0.0379288
0.134711
-0.00171109
-0.00262623
-0.00282288
0.589486
-0.000124679
0.0808805
-0.0259862
-0.0250423
-0.0320784
-0.0476741
-0.034712
-0.041049
-0.0224465
-0.00608902
-0.000135313
-0.00566286
-0.0265024
0.116072
0.00228503
0.122294
-0.0395394
-0.0164208
-0.00123785
-0.0348925
-0.000142407
0.170291
-0.0364311
-0.0317642
-0.0290327
-0.00520453
-0.03932
-0.00225671
-0.0483122
0.119249
-0.0313401
-0.0749027
-0.00195601
-0.0327206
-0.0226669
0.0200661
-0.00429595
0.163711
-0.00320005
-0.0234528
-0.000907565
0.183837
-0.0464211
-0.0320625
-0.00431516
-0.0122534
-0.003663
0.194657
0.00701764
0.176061
-0.00637351
-0.00109902
-0.00168656
-0.00309455
0.145806
-0.0696181
-0.00893791
0.00045415
-0.00957117
-0.0132583
-0.00120855
-0.0172554
-0.0193447
0.0701816
-0.00654238
0.00581664
0.581184
-0.0711858
-0.0348343
-0.0667808
4.72073e-05
0.0908036
-0.00469876
-0.0325705
-0.00738507
-0.0427073
0.00567562
-0.000718969
-0.0038533
0.00436369
0.22969
-0.00769931
-0.00238129
-0.00613139
-0.0611486
-0.0108447
-0.0270956
0.00577271
-0.0113499
-0.0116819
-0.0043468
0.2326
-0.0543773
0.00430502
-0.00559366
-0.0334247
-0.0178853
-0.0581503
-0.00187326
0.107772
0.0296397
-0.0102454
-0.00230325
-0.0173209
0.606828
0.231185
-0.0145301
-0.00077666
-0.00317254
0.00468577
-0.00526176
0.0270921
-0.000559164
-0.0198516
-0.00262966
-0.0213473
-0.13034
-0.00142041
-0.0142698
-0.00180853
0.369712
-0.00844386
-0.0150363
-0.0351668
-0.00256394
-0.0362569
-0.00966021
0.530411
-0.0138292
-0.014634
-0.00281477
-0.00062533
1.93491e-06
-5.38348e-06
-0.0130649
-0.000891386
0.0949234
-0.000901856
-0.00241805
0.0108454
-0.000347357
-0.0524313
-0.0626387
0.0224074
0.0496329
0.0335905
-0.0127087
-0.0447851
0.106223
0.0839344
0.112858
0.142235
-0.0165631
-0.00115385
-0.00762706
-0.0692775
-0.00465811
-0.0190626
-0.0183713
0.368583
-0.0551756
-0.000649081
-4.14817e-05
-0.00195484
-5.72098e-07
0.011374
-0.000748322
-0.00607613
-0.056107
0.000724474
0.00352289
-0.000294073
0.0702395
-0.0195457
-0.045495
-0.00161749
0.379068
0.290812
-0.0129665
-0.073687
-0.0339247
-0.0296909
-0.018283
-0.00249121
-0.0782866
-0.0370824
-0.0497558
-0.101312
-6.93202e-05
0.206179
-0.0175341
-0.0124535
-0.0340793
0.0243557
-0.000714168
-0.0108446
-0.00181545
0.0162392
-0.00202755
0.162656
0.00046801
0.0132429
-0.000556159
-0.10161
0.0116677
-0.00101988
0.0105245
0.000546578
-0.0156861
0.12768
0.00168787
-0.00192025
-0.000169712
-0.00077001
-0.000678826
-0.0700036
0.144723
-0.0162495
-0.000361507
0.0119301
-0.000615429
0.262301
-0.0688146
0.275719
-0.0507536
-0.000605242
-0.000387447
-0.00949887
-0.00738669
-0.000846689
-2.492e-05
0.0319321
0.0366661
-0.000317873
-0.00044936
-0.0245337
-3.00142e-05
0.193212
-0.00124578
-0.061002
-0.0237037
-0.0082981
-0.0638571
-0.0698045
0.174599
-0.0225016
-0.0251253
-0.000426023
-0.0650991
-0.0256167
-0.0129592
0.060731
0.408554
-0.00156125
-0.0680557
0.0157985
0.346451
0.04883
-0.00016149
-0.00786867
-0.00534579
-0.00648475
-0.0556033
0.100371
0.00023711
0.0216746
0.00396373
0.0800579
-0.000699354
-0.000165969
-0.0887281
0.311137
-0.0629055
0.153329
-0.0016718
-0.000271352
-3.29025e-06
-0.0837231
-0.0489215
-0.000459314
0.108103
0.014693
-0.00698155
0.486312
-0.000528976
-0.00485203
-0.0673511
-0.0277763
-0.00301261
0.156334
-0.0627061
-0.000223539
0.014978
-0.000236703
-0.000136564
0.15391
0.000599741
-0.000606965
-0.0594983
-0.0300882
-0.0045972
-0.0333512
0.00318349
-0.0280021
0.00220868
-0.004591
-0.0733086
-0.0449145
0.0212916
-0.00119835
0.175974
0.239093
-0.0909843
0.0124377
0.0246966
-0.00561225
0.191865
0.114958
-0.0338782
-0.000218467
0.0127559
-0.0633463
0.0139103
-0.0336855
-0.00277819
0.0492878
-0.0334561
-0.000184952
-9.98292e-05
-0.039736
-0.0307567
-0.0315664
0.0125912
-0.010338
-0.05165
-0.00020656
-0.00184265
-0.000280811
-0.0397139
-3.20598e-05
-0.00255448
-0.0494121
-0.0936504
0.0784872
-0.00391782
0.00552403
-0.0261708
-0.0309424
-0.000173715
-0.0537151
0.0580598
0.181539
3.10001e-05
-0.000150497
0.18498
-0.00331175
-0.0854016
-0.0473434
0.00447289
0.000632948
-0.0772891
-0.0300107
0.189592
-0.0646543
-0.0019459
-0.0118155
-0.0599365
-0.000770276
-0.000323107
-0.00120448
-0.0227071
-0.0590557
0.129091
-0.000282227
0.606502
-0.0485383
0.000151638
-0.00128536
0.000329334
0.00037786
-1.93189e-05
0.000179603
-0.0608491
-0.000959629
0.000569946
-0.000266111
0.162976
-0.00744804
-0.000259301
-6.10009e-05
0.408942
-0.0263988
-0.048367
0.00150873
-0.00095656
0.0653543
-0.000132755
-0.0160268
-0.12849
0.00289548
-0.00840141
-0.000130324
-0.000275128
-0.0368138
-0.0655066
0.00953293
-0.106302
-0.0629207
-3.76902e-05
0.0274209
0.0411358
0.12746
-0.00226716
-0.000210418
-0.0645109
-0.00791449
-0.000665871
-0.0570095
-0.000184893
0.0455942
-0.000121575
-0.00168179
-0.050206
-0.00278262
-0.0668638
0.55122
-0.0021617
0.000360852
-0.0618339
-0.0594757
0.0120192
0.00620823
-0.000203019
-0.0374856
-0.000113989
0.226517
0.744292
0.0627863
0.00402778
0.00476547
-2.50424e-05
-0.0336161
-7.81075e-05
-0.00910777
-0.00223597
0.000486871
-0.0043939
-0.0122257
-0.000165173
0.0011491
-0.0104541
-0.000417692
-0.0126447
-0.020396
-0.00814671
-0.00150707
0.662651
-0.000918782
0.00323473
0.000319243
0.0181193
-0.0574622
0.0126146
-0.00023656
-0.00013436
0.00349161
-0.000147665
-4.00479e-05
-0.0146553
0.000914609
-3.23132e-05
-0.058886
-0.00297071
-0.0645127
-0.00216029
-9.1559e-05
-0.00408687
-0.00972846
-0.0187544
-0.0279794
0.00306901
0.000685234
-0.000618276
-0.00257781
-0.000107068
0.320396
0.00205976
-2.63943e-05
0.000767867
-0.00265501
-0.000475249
-0.0722807
-0.0627473
-0.000175905
-0.00900129
1.73458e-05
-0.00343384
-9.87142e-05
0.0445405
-0.000187902
-0.000250771
-0.00460533
-3.18072e-05
0.0176421
-0.000298984
-0.00165919
0.0243608
1.56578e-05
0.444207
-0.0616463
-0.0488474
-3.39011e-05
-2.81224e-05
0.00250618
-0.00155637
-0.0586284
-2.26659e-05
-3.11714e-06
0.000979775
-4.06736e-06
0.000495692
0.000589146
-0.000606628
0.00103306
-0.0606212
0.569336
-0.0393234
0.392908
0.0118931
-0.020779
-2.46607e-05
-0.00115555
-0.015413
0.000186558
0.000371137
0.000220787
0.0517406
-0.00177027
-0.000291189
0.58673
-0.000711945
0.000768849
0.000660056
-6.2492e-06
-0.057877
-0.00283816
0.001493
0.000161612
-0.000700525
-9.15961e-05
-0.00121829
-0.0513086
-0.000549454
-0.0020891
-2.15475e-06
-0.000478103
-0.000341599
0.22198
-0.00058203
-0.000363068
-0.0785066
0.00496111
-0.000114444
-0.00174595
-8.19899e-05
0.202109
-0.0821704
-0.000393983
-0.000510575
-0.00246064
-0.000209601
0.0692023
0.1257
0.0232204
0.00066593
-9.09673e-06
-1.2904e-06
0.0631173
0.000330981
-0.0696619
-0.0286674
-0.0197848
-0.120464
0.668348
0.00258906
0.212389
-0.0183256
-0.0351307
0.206021
-0.000469984
-0.0746141
-1.68996e-05
-0.0114129
-0.0571958
7.16436e-05
-0.0559086
-0.00124163
-0.00779403
-0.00703855
-0.0503058
-0.0498457
-0.0040879
-0.0692398
-0.0517542
-0.00024659
-0.0153057
-6.98098e-05
-0.0444727
-3.70751e-05
-0.00024523
0.020304
0.194974
-5.44956e-08
-0.0531983
0.00468837
9.91951e-05
-0.0257371
7.39995e-06
-0.0171927
-0.000343468
-0.0455817
0.000163278
-0.000115844
-0.00263827
-6.55342e-05
0.190118
-0.036685
0.0655457
-4.10299e-05
0.000821732
-0.038983
9.18088e-07
-0.0657794
-0.0755452
-0.0642784
0.613065
-0.00826026
-2.32582e-05
0.0332658
-0.0491021
-0.00328513
-3.42883e-05
-0.000113526
-0.0553457
0.000164754
0.00114472
-6.54878e-07
0.000206884
-0.0339197
0.0496319
-0.066626
0.11136
-0.00682073
-1.65114e-06
0.00824928
-0.0578972
-2.76991e-05
-1.82216e-05
0.000419407
8.39238e-05
0.000530511
0.214246
0.0445849
7.33801e-05
1.40159e-05
-0.0755662
0.23906
0.208199
-5.8653e-05
-0.0431467
-0.023715
-0.0130683
-0.0560609
-0.0107578
-0.00373263
0.16884
-5.54011e-05
-0.0319908
0.200492
-0.0570848
-2.38963e-05
-0.0706391
-0.000229519
0.311052
0.0355372
-1.99229e-05
-3.66171e-05
0.216318
4.53132e-06
-0.000235822
-0.014766
1.61581e-05
0.283486
0.00439691
-0.00931423
-0.0740458
-0.00480972
-0.0803952
0.218624
-0.0137166
-0.0355151
0.00129427
-2.59123e-05
-0.00132092
-1.14995e-05
-2.15063e-05
0.0287732
0.216023
0.179303
-0.000572695
0.294551
-0.0142323
9.61884e-06
-0.0536
-2.44e-05
-0.0336474
0.03693
-0.0179696
0.00576705
0.00244317
-0.0117117
0.000323773
-0.00214608
0.0250811
-0.00367456
-6.40185e-05
3.83826e-05
-8.10865e-05
0.0399301
7.16336e-05
-0.0270209
0.312185
-0.00762197
6.60893e-05
-0.00441397
-1.39046e-05
0.0423554
-0.000461733
-8.63116e-05
-0.000111
-1.71711e-05
0.251981
-0.000197719
0.271532
-0.0704946
0.000144002
-0.0597064
-0.000628058
0.187274
0.602545
-0.00180064
3.13275e-06
2.03267e-05
-2.77237e-05
0.149824
8.35468e-07
0.00136465
-0.0295033
0.258131
8.41766e-06
1.92576e-05
3.78519e-06
3.22332e-05
-0.0251634
2.2762e-06
0.275192
-0.0197911
-0.000161574
3.84897e-05
-0.00262755
-0.0347777
1.85645e-06
-7.42027e-05
0.197896
4.37265e-05
-0.0382562
-0.0569102
0.000171487
1.02823e-06
-0.11769
1.61384e-06
0.19138
1.91906e-05
-0.00057638
1.47672e-05
-0.0002268
0.112201
3.90615e-06
-0.00209128
1.02025e-05
0.0164557
-0.00431382
-0.00807684
0.00107961
0.183811
-0.000349178
-0.000105582
-0.011113
-0.0107387
-0.000315728
-7.01545e-05
-0.00114711
5.18149e-05
0.162678
-0.0128698
0.593202
-1.00421e-06
-0.00959779
-0.000205423
0.150606
7.37111e-05
-0.0318202
3.03755e-05
-0.00201602
-0.0398629
-0.000297977
-0.0193681
-0.0577053
0.00652259
-1.26632e-05
-0.0634186
-0.000428087
-0.0003829
-0.00698524
-0.0168102
0.00167164
-6.65954e-05
-0.000561044
-0.00115661
-0.0016306
1.65097e-05
-0.00154359
0.582053
0.000125922
-0.00413294
-0.0415371
-0.0828262
-0.0724645
-0.0558183
-0.026453
-0.00067352
-0.0189639
9.96913e-05
-0.000106612
0.582193
-0.000122623
0.193623
-0.000577741
0.000515208
-0.00144729
-0.069814
-0.000537991
0.000828272
-2.02305e-05
-0.000505652
-2.15041e-05
-0.000103947
-0.0184101
-0.0001427
-3.65894e-05
-0.000108344
0.000185643
-1.38729e-05
-0.0501552
0.227745
-1.28709e-05
-0.000769557
3.55448e-05
3.99129e-05
-0.00106613
1.16419e-05
-0.00115446
0.00036462
-0.000471486
-0.0734151
-0.000883099
-0.00232024
6.10319e-06
-0.00198386
0.000433485
-1.96856e-05
-1.27526e-05
1.72481e-05
-0.00101652
0.000695153
-0.0520215
-0.032333
-0.0740859
0.000767898
-0.00235306
-0.0299831
-0.0745919
-0.000122288
0.019722
0.00877498
-0.00133128
-0.0145899
-0.0646651
0.523508
-0.00053942
-1.95409e-05
0.00114698
6.35969e-05
2.27404e-05
0.0905391
0.00467177
0.104706
-0.0422962
0.509263
-0.00066799
2.68777e-06
0.000193501
-2.37942e-05
-0.00173056
0.174033
0.262531
-7.1716e-06
-0.000219075
-2.31618e-05
0.24827
0.0219019
-0.0070134
1.50771e-05
2.49502e-05
0.00929624
-0.000888521
-0.0806258
-0.0203745
3.05359e-05
0.00449242
-0.0368745
-7.84925e-05
0.00234299
-8.8165e-05
-0.0534279
-0.00221169
0.167672
2.13731e-05
0.00216768
-0.00010576
1.9108e-05
0.000220749
-0.0277419
1.88037e-05
-0.00116434
2.88024e-05
-0.0237645
-0.0530611
-0.00385315
-0.00865597
-0.010631
0.0116487
-0.0107675
-0.0031144
8.71812e-05
0.000133651
2.61342e-05
2.28363e-05
-7.337e-05
0.0115079
-0.0652714
0.000631899
-0.049337
-0.003879
-0.0569202
0.000112679
-4.14375e-06
0.0016898
-0.0894436
2.32048e-05
-0.049226
-0.0179027
-0.0594288
-0.049325
3.42059e-05
-0.00432367
0.000248636
-0.1356
0.158322
1.40284e-05
-0.0679468
-0.0266684
-0.00530922
4.86842e-05
-1.11369e-05
0.0318647
-0.0201267
3.04714e-05
-0.00840745
-7.0943e-06
0.000276412
0.144738
-1.08306e-05
2.92154e-06
-0.000111103
4.43493e-05
0.001163
0.000112961
-0.00651719
0.000299466
-0.0153258
0.00142637
-0.000267101
-0.037691
-0.049853
-0.00776804
-1.96915e-05
2.74565e-05
-0.0668419
0.00735345
-0.0550322
3.64038e-05
-0.00640764
-4.70451e-05
3.12085e-05
0.082327
-0.00864552
-0.00348429
-2.52353e-06
-0.0214323
6.38839e-05
-0.0757317
3.4287e-05
-0.0852037
2.32732e-05
-7.72486e-06
0.000109474
0.00131767
-0.0849153
-0.0217923
-0.0780916
2.00054e-05
0.000119375
-0.0868287
-0.0291289
-0.0103551
-6.27049e-06
-0.0328727
-0.0574822
-0.0872001
3.69322e-06
-9.97975e-06
4.38681e-06
-0.079497
-0.075614
0.000932703
-0.0134634
-7.33957e-05
0.21868
0.000120891
1.78193e-05
0.000191872
-1.28358e-05
-1.10067e-05
-0.00450552
0.000144303
-0.00319318
-0.0725247
-0.015869
-0.0665833
5.04136e-05
-6.64415e-05
0.0599707
-0.0554418
-0.00587291
0.131337
4.21946e-06
-1.73959e-05
-1.58394e-05
0.094378
0.000221398
-5.06105e-06
-6.52588e-06
-0.0671817
-0.0186782
6.25279e-06
9.78284e-05
-0.0112836
-0.00789661
0.000550267
0.265003
-0.0663949
0.000224516
0.753267
-2.54987e-05
-0.000871717
-0.0102925
-0.08749
7.64554e-06
-4.43455e-06
2.75696e-05
0.00611569
-0.0377878
-0.000431285
-0.0567807
-0.00947929
3.4009e-05
-5.95423e-06
-0.0123582
-0.00416936
-0.0182694
-0.0758779
-0.0526715
-0.0453529
-0.00721089
-0.0318186
-8.18818e-05
0.00045222
0.00880235
0.00068558
-0.000103575
0.000982835
3.84963e-05
-0.000120121
-0.0146723
-1.54391e-05
-3.74695e-05
0.0433774
-0.0243794
-0.000208142
-5.49119e-05
-7.34584e-06
0.290141
-0.00811684
0.00101058
-0.0331618
0.000291842
0.00025365
0.00021789
-6.32458e-05
0.000616886
-0.0441782
0.0207233
-1.17573e-05
-0.000210232
-0.0481634
-0.0369777
0.0586825
-0.000620447
0.00236939
0.022408
1.73155e-06
7.6108e-05
-0.0536302
2.83843e-05
0.191909
9.58127e-06
0.00534849
0.000211941
0.000285481
-0.0794291
-0.00897596
-0.0214384
-0.00299173
3.38889e-05
0.00821331
0.073596
-0.0148841
-0.000171967
0.111588
0.187735
4.28071e-06
-0.0599025
-8.65208e-05
-1.34073e-05
-5.76201e-05
-0.000714997
0.0247593
-8.73723e-06
0.000315563
-0.0292391
-0.0305628
-0.02629
0.366043
2.15452e-05
-8.94404e-05
0.197533
-0.00629649
-0.0046888
-0.000823879
0.194608
5.56819e-05
-0.000397899
5.68946e-05
3.27823e-05
4.03661e-05
4.6054e-05
9.41691e-05
-0.0213381
9.77674e-06
-0.00410749
-0.0517943
0.272308
-0.000181855
-6.41038e-05
0.00598695
0.100447
-0.0525824
-0.000949056
-0.0794729
0.363345
5.51363e-05
0.478229
-5.73488e-06
0.00424347
0.0303127
0.000554371
0.518701
-2.06475e-05
-7.78408e-06
0.00148807
3.95596e-05
-0.00108834
0.000334183
1.34257e-05
-0.00244727
1.12672e-05
-0.000185053
-0.00409882
0.283133
0.0613916
0.0275038
-0.0509835
-6.56299e-06
-2.3944e-05
0.00431037
-0.0620918
-1.26947e-05
-0.0541721
-6.94618e-05
0.121752
0.0739716
-0.038869
-0.00168998
-0.0143639
-0.00123805
-0.017903
0.00494567
-0.00899522
0.076264
2.68338e-06
0.25447
0.0292855
-0.000736163
0.242508
-0.0161841
-1.59463e-05
2.87991e-05
8.54929e-05
-0.000268284
-0.00015437
0.286852
-0.00123316
0.294168
-0.00134233
0.19245
0.25403
0.107669
-0.0086257
-7.00504e-06
7.79569e-05
-0.0129102
-0.109109
-0.0562419
0.0019131
2.41531e-05
-0.0448474
-0.000396914
4.64018e-06
0.00129421
-0.00134325
-0.000806585
0.0408018
9.65214e-05
-0.0564171
0.0694882
7.42028e-05
0.000341758
-0.017221
-0.0663406
-0.000921804
-0.000655694
1.53051e-05
0.000317678
0.0592491
-0.0204728
-0.0556824
0.00167697
0.0911142
-0.0458014
4.43225e-05
2.83003e-05
0.0216913
-0.000117683
0.0783748
0.00203042
-0.0164792
-0.000486432
0.00208966
-0.0426671
-4.84401e-05
0.000625929
0.00124385
-0.0845322
0.160798
-0.0717973
-0.0321935
-0.000211941
-5.8909e-05
0.00851325
5.88773e-05
-0.0854109
-0.0756118
0.000716921
0.00430873
0.00481515
-0.09702
0.000811629
0.000241895
4.72814e-05
-0.0484259
3.62379e-05
0.000711046
0.143029
0.209302
-0.109006
0.0596532
0.0585965
0.0219407
-0.000204425
0.0147351
0.000156622
1.12236e-05
-9.52832e-05
-7.79952e-07
3.12726e-05
-0.000453355
-0.00938632
-0.0597888
-0.0119528
-0.0343005
0.0640285
0.0536311
0.00517345
-0.0727274
0.000203846
0.00589172
0.0141883
-0.000492953
0.0895179
-0.00155074
-0.013375
0.0151977
0.00697254
0.00129444
-0.0050013
0.0527768
0.00105662
-0.0238415
-0.0199814
0.618413
-0.0297304
0.0964014
0.0219057
-0.0438566
0.00281884
0.000127734
-0.00321535
7.01079e-05
-0.00328528
-0.0304372
-8.99862e-05
-6.0965e-05
0.309234
-0.004106
-0.0494588
-0.0228033
0.000258694
-0.00179011
-2.99502e-05
9.63887e-06
0.0470283
5.11121e-05
-0.00366748
0.090099
0.00792357
0.0014305
0.0230919
-0.00712509
0.00533555
-0.108515
0.00111031
-0.00551029
-0.0653354
-0.00107946
-0.00996426
0.000969748
0.00127145
0.00126681
0.0454791
-0.000401098
0.0071651
-0.0632837
-0.0250257
0.000398279
-0.0629865
-0.0182423
-0.0209279
0.000133213
0.00838631
-0.0770588
-0.00105831
-0.00601793
-0.0587369
0.000232016
-0.00147404
0.25546
-0.0257466
-5.26387e-05
0.0104389
-0.0585932
-0.00132373
0.227984
-0.00273893
0.00130028
0.0720378
-0.00179388
0.0104848
0.150597
8.03322e-05
0.0014979
0.000225424
4.33456e-05
-0.00558231
-0.00884114
-0.000168297
-0.0291629
0.115047
-0.0444586
-0.0801728
0.00148726
-0.00407099
-0.00076168
-0.0507276
3.16361e-05
0.021058
5.30432e-05
-0.0193847
-0.0024438
-0.00617069
-0.0974739
0.133666
-0.0849577
-6.86236e-05
0.218929
-0.00243383
-0.0031583
-0.0691573
-0.088902
-0.0189946
-3.85208e-05
-0.00140545
0.00916774
-0.00385078
-0.00587076
0.000557884
0.102823
-0.0504507
-0.0136377
-0.00826121
0.0283638
-0.00305534
-0.00128517
0.00217979
-2.75261e-05
-0.00385395
0.131466
0.0010143
-0.11781
-7.47115e-05
-0.00907142
-0.00448416
-0.0943444
-0.0140898
-0.107135
-8.29192e-05
-8.04676e-05
-0.00500255
0.0133741
0.00231636
-0.118062
0.10016
-0.0569601
0.000237199
-0.126949
1.0427e-05
-0.13219
-0.0306724
-0.150652
-0.15873
-0.164832
-0.167597
-0.1601
-0.147987
-0.130508
-0.10133
-0.0732035
0.0586941
0.106023
0.156899
0.243881
-0.00992836
-0.00910777
0.0703351
-0.0211998
0.00114927
0.0194721
-0.0479692
0.000686211
-0.000832182
-3.65684e-06
-0.0173519
0.0223697
5.65775e-05
-0.00039202
-0.0128883
-0.00692864
-0.146884
-0.0157363
-0.0654551
-8.4722e-06
0.00073202
-6.57923e-05
-0.0602566
-0.0107828
-0.043341
-0.0125692
0.00220787
0.000286847
0.00598299
-4.20539e-05
-0.0124715
-2.30162e-05
0.000470024
-0.00729532
-0.014079
-0.000330489
0.000412915
0.0591989
-0.0126673
0.0742374
-0.139203
-0.00976403
0.00721369
-0.0227136
0.00468013
-0.0260644
-0.00404204
-0.0152892
-0.0153843
0.404273
-0.00163495
8.6261e-05
-0.00716622
-0.0109462
3.97667e-06
0.0963174
-0.00502828
0.375549
-0.170681
-0.0527253
-0.0321171
0.053939
-0.00604167
-6.34281e-05
-9.75594e-06
-0.00517177
-0.0653627
7.08315e-05
0.398703
-0.00341679
-0.00610593
-0.000105392
-0.000479534
-0.00780872
-0.0335512
-0.0878411
0.14075
0.000804614
-0.0172878