/*--------------------------------*- C++ -*----------------------------------*\
  =========                 |
  \\      /  F ield         | OpenFOAM: The Open Source CFD Toolbox
   \\    /   O peration     | Website:  https://openfoam.org
    \\  /    A nd           | Version:  7
     \\/     M anipulation  |
\*---------------------------------------------------------------------------*/
FoamFile
{
    version     2.0;
    format      ascii;
    class       volScalarField;
    location    "23.5";
    object      p;
}
// * * * * * * * * * * * * * * * * * * * * * * * * * * * * * * * * * * * * * //

dimensions      [0 2 -2 0 0 0 0];

internalField   nonuniform List<scalar> 
7807
(
0.325255
0.0151834
0.47481
0.3155
-0.00175934
-6.80058e-05
0.477396
-0.0108965
-0.000229374
0.140066
-6.36249e-05
0.0049671
-0.0163221
0.072646
0.145307
-0.0210628
0.335821
-0.0213179
0.00247016
-0.0956555
0.0990191
0.00327886
0.0540988
0.255772
-0.0277288
0.335354
-0.00162108
0.0886867
0.217372
0.00541249
-0.0290074
0.711167
0.0533196
-0.000982464
-0.000203112
0.116326
0.00613792
0.463163
-0.00909123
-0.000682407
-0.00826502
-0.0202614
-0.0932299
-0.0190732
-0.000401106
-0.000156988
0.00322206
-0.0093665
-0.000128009
-0.0929961
0.0074384
0.0841681
-0.0350101
-0.00241174
0.115378
-0.00969916
0.00266139
-0.0108957
-0.0448527
-0.00102547
9.46911e-05
0.00950417
0.0729832
0.00547767
-0.00199376
-0.0283491
-0.000180994
1.04618e-05
0.138625
-0.00877608
-0.000143385
-0.0774723
-0.0268004
-0.0454399
-0.0206081
-0.0639743
0.467916
0.0967673
0.0961179
-0.0860216
-0.015647
0.429583
0.137857
-0.0474926
-0.00295412
-0.00470316
-0.0116469
-0.0339495
-0.00133014
-0.00918646
0.222192
-0.0219481
-0.000261575
0.00263905
-0.00730732
-0.0469104
-0.0732933
0.00190377
-0.00326462
-0.00238019
-0.0785231
0.105991
-0.00692897
-3.5583e-05
-0.00952452
0.229059
0.618683
-0.0103165
-6.82492e-07
0.0512574
0.299451
-0.0544354
-2.23785e-06
0.054497
0.229056
0.000983172
-0.0596478
0.187063
-0.054242
-0.0465354
-0.0816956
0.411199
-0.0858467
0.0210769
-0.0795663
-0.00197546
-0.0261049
0.00429115
-0.00210596
-0.0291457
-0.0736916
0.0956135
-0.00123551
-0.00157407
-0.0491964
0.290852
0.503588
-3.04733e-05
0.01649
-0.102709
-0.0430347
-0.0641449
-0.0645036
-0.0436396
0.625102
-0.022274
0.219093
-0.0435151
-0.0598067
0.410006
0.111149
-0.0127149
-0.0030837
0.116943
0.137004
0.43222
-0.0732953
-0.0162573
0.584303
-0.000115337
0.00138483
0.264539
-3.1413e-05
-0.00421544
-0.0082354
0.323325
0.32418
0.604865
-0.00480419
-0.00639258
1.2083e-05
-0.0846468
0.000970977
0.0238234
0.0179159
-0.0589939
0.0134902
0.202791
-0.000259426
-0.00102591
0.321414
-0.000115174
-0.000219283
0.479573
0.00977965
-0.0475958
-0.0509589
-0.042946
-0.0272283
-0.100388
-3.50829e-05
-0.0705889
0.210114
-0.00698927
0.000167553
0.25429
-0.00257969
-0.0274151
-0.0266157
1.38514e-05
0.00199101
0.297681
0.242162
0.434101
-0.0531913
-0.0473482
-0.106377
0.0961482
0.293765
-0.000431141
8.42723e-05
0.587715
-0.0179547
-0.00128573
-0.067343
-0.0273445
0.396951
0.40486
-0.070341
0.675646
-0.00239079
-0.0209465
-0.0805928
0.116498
-0.114787
0.290613
0.585625
0.000151772
0.0220279
0.198141
-0.00859454
0.183589
-0.0011213
0.643915
0.423972
-0.0115755
0.00615829
-0.000631974
0.202755
-0.000185441
-0.0130529
-0.0967678
-0.000142676
-0.0027994
-0.000881012
0.211661
-3.06888e-05
-0.00954145
-0.0835421
0.710088
0.0855062
0.627897
-8.53151e-05
-0.0305434
-0.00037718
0.449977
0.00913613
0.505003
0.00323926
0.0016945
0.0150572
0.10019
0.00131952
-0.000470361
0.0011728
-0.00906161
-0.0458174
-7.93203e-05
-0.0709678
-0.00784173
-0.000288177
-0.00133284
0.484183
-0.0162811
-0.00163342
0.675992
-0.0030911
0.316292
-0.000423321
0.00218754
1.94766e-05
-0.0490355
0.111915
0.0244352
-0.0452024
-0.000863471
-0.0833121
-0.0318013
-0.000369699
0.0011397
-0.00463363
-0.0156945
0.00667037
-0.00263049
-0.0454038
-0.0381143
-0.0448048
-0.00504162
-0.0564684
0.418981
0.433757
-0.00320797
-0.00688461
-1.28065e-05
-0.00503375
-0.047225
0.249358
0.152919
0.00022923
-0.00463401
-0.0548724
0.220418
-0.00213202
0.00813829
0.00278809
0.0942861
-0.0910313
0.400114
-0.00343089
0.0154965
-0.000231389
0.00936615
-0.000102302
-0.034985
-0.000729339
0.0109501
-0.0360477
-0.0560009
0.00519255
0.0198693
-0.00157811
0.045577
-0.0150553
0.120548
0.214788
-0.137191
-0.0286469
-0.0326492
0.0116089
-0.0941423
0.616929
-0.0215698
0.0661432
0.662802
-0.0033079
-0.00376351
-0.0249528
-0.00232286
-0.0179707
0.0142776
-0.0060421
-0.00448344
0.20891
-0.00012949
0.00126641
0.000186082
-0.00735932
-0.0148676
-1.56399e-05
-0.00236489
-0.0430342
0.582927
0.00687616
-0.0176053
0.549196
0.366288
0.103917
0.00598865
-0.08558
0.0112133
0.313583
-0.0230307
0.35682
-0.0325116
-0.095771
0.244832
0.3591
-0.0668626
0.144428
0.288057
0.329297
0.0941357
-0.00657119
-0.00908101
-0.000177666
0.00904166
-0.0235065
0.00223312
-0.00021834
-0.00347801
-0.0836543
0.133644
-0.0343126
-0.00552462
-0.00818142
0.0116604
-0.014958
0.00410209
0.258808
-0.00405766
-3.60263e-05
-0.000100877
0.000124637
-0.0413561
0.203221
-0.00864237
0.0604289
-0.122858
0.454566
0.0074986
0.015208
-0.0109926
0.468923
-0.00228537
0.395801
0.223441
-0.000239253
-0.0361291
-0.00711488
-0.0606015
0.00130012
0.113344
0.00797218
0.0141225
-0.00184176
0.19624
0.223705
-0.0554525
-0.0430822
-0.00492058
-0.0302037
0.112977
0.699326
-0.0451856
0.010338
-9.25347e-07
-0.0270215
-0.00491742
0.0417525
-0.102054
-0.0211734
0.484835
0.206327
-0.0920531
0.265306
0.45866
0.0590134
0.00273071
0.326103
-0.001931
-0.000382487
-0.0349874
0.000208997
-0.119325
-2.35213e-05
-0.0445247
0.00432091
0.259466
-0.00384274
-4.15305e-05
-0.104181
0.00391922
0.0669303
-0.0757241
-0.100594
0.0395491
0.199735
0.165793
0.170007
-0.000432437
0.124416
0.129738
-0.00113076
-0.0330497
0.00139246
0.0134606
-0.00360121
0.01065
-0.00167486
0.195068
-3.4253e-05
0.000465394
0.0044529
-0.0428277
0.0450314
-0.0422402
-0.0500202
-0.0426975
-0.122511
0.0190331
0.31668
-0.0207146
-0.0139777
0.651696
-0.0711415
-0.0155956
-0.04993
-0.0121972
-0.0403683
-0.0208611
0.060668
-0.0279368
-4.4862e-05
0.0530567
-0.000195884
0.421891
0.149366
-0.0103226
-0.0281027
-0.000395729
0.431093
0.385657
0.104305
0.20852
-0.0758678
0.518585
-0.000119606
0.0438694
-0.0356422
0.209546
0.608889
0.0981316
0.198103
-0.00379493
-0.000428615
0.191591
-0.0528476
0.449346
0.0683611
0.279305
-0.0147372
0.463063
0.369449
-0.0185827
-0.0157801
0.165724
-0.102497
-0.000166557
-0.0258926
-0.0982907
-0.0768434
0.0244919
0.0203985
-0.000254939
0.388583
-0.00210925
-0.000210512
-0.0329221
-0.00105236
-0.000471561
0.00766833
0.279466
-0.0929969
0.570092
0.000151092
0.276836
-0.0271361
-0.000145301
4.63784e-05
0.214456
0.270101
-0.00849841
0.247143
6.60426e-05
0.259431
-0.132136
-0.0194448
0.479686
-0.064436
0.198685
-0.0478663
0.257274
0.266958
-0.0319464
-0.0403507
-0.0122617
-0.00598435
-0.000417782
-0.00240041
0.339726
-4.84565e-05
0.250058
-0.0873771
0.393366
0.238557
-0.100569
0.554777
-0.00336559
0.0121087
-0.043665
-0.0386222
-0.0133
-0.0321126
0.0638432
0.642432
0.000105484
-0.00397131
-0.0532128
1.62328e-05
0.428963
0.00398304
1.61516e-05
0.000445656
0.000863202
-0.0333362
0.0401289
-0.00319805
-0.000172123
-0.0140947
0.00558371
-0.113004
-0.0923252
0.0455865
-4.06608e-05
-0.138802
-0.0253189
0.172021
0.387451
0.00252636
0.17813
0.000355946
-0.0242704
0.1274
-0.0133256
0.297728
-0.0248465
0.048946
0.131944
0.203338
0.00996705
-0.0198962
0.236729
-0.0915652
0.457117
-0.0179169
0.328388
-0.01783
-0.00238547
0.189101
0.00426982
0.126946
0.0041064
1.39725e-05
-0.123411
0.252286
0.00313847
0.166272
-0.0236003
-0.141536
0.0147048
-0.0437308
-0.00344898
-0.0169806
-0.0822665
-0.0511892
-0.0187857
-0.000288807
0.480316
0.1717
0.060187
-0.000399788
0.367291
1.66643e-05
-0.000366913
0.182193
0.00411379
0.224977
0.0874537
0.035802
-0.0269048
-0.117245
0.0356685
0.00283999
-0.073715
-2.68141e-05
0.00805768
0.288202
-0.03048
-0.00572786
-0.0120547
-0.00402524
-0.000822469
0.663198
-0.0189207
-0.00112487
-1.00523e-05
0.18174
-0.0531775
-0.000663557
-0.00566872
0.209042
0.127942
-0.0660067
8.44445e-06
0.22823
-0.0299162
0.247966
0.0340711
0.0416706
-0.0539746
-0.000184649
0.128816
0.118494
0.0708326
-0.0782377
0.33935
0.0128639
0.231713
-0.00496314
-0.0323456
-0.000800384
-0.00241192
-0.000197978
0.212149
0.306914
-0.00304248
0.0398032
-0.0323357
-0.0605802
-0.0703406
-0.00381205
0.0403525
0.635475
0.0501176
-9.58278e-05
0.125834
-0.00757979
0.547485
-0.0234305
-0.0215359
-0.00192587
-0.0249201
-0.0128652
-0.0149885
-0.0066373
0.00333436
0.055284
0.000243414
-0.11295
0.0181576
0.410994
-0.0634881
0.231419
0.00436018
-0.0387229
-0.0214505
0.262723
-0.0141272
0.000249196
-0.0291941
-0.0106178
0.0435232
-0.0489239
-0.0420612
0.00639154
-0.027412
-0.00789116
-0.082247
1.53736e-05
0.0738252
-0.0716456
0.204553
-0.0386599
0.125964
-0.0842735
0.375461
0.0157607
-0.0557792
-0.0221083
0.577161
-0.0926691
-0.0245379
-0.113491
-0.0391269
-0.099776
-0.0532742
0.226216
-0.00569451
0.305995
0.0183677
-0.00079398
-0.00249668
0.111766
0.716476
0.00238532
-0.0271525
0.218431
5.51734e-05
-0.0386288
0.0553024
0.0170354
0.0186276
-0.00334764
-0.0490692
-0.00612365
7.01518e-05
-0.0612584
0.310432
0.00755047
-0.0310771
0.00402035
0.218336
-0.000769819
-0.00255072
-0.000728718
-0.00158775
0.0877114
0.00875916
0.00687185
-0.0333498
0.000109016
-0.104856
-0.0383527
-0.121395
-0.0266504
0.0307353
-0.000425348
-0.0240226
-0.0815554
0.0671176
0.395868
-0.00257778
-0.0891843
-0.00967226
0.0191638
0.201356
0.000953461
-0.000307398
0.17538
0.0502016
0.0312053
-0.0060839
-0.00426699
-0.0748035
-0.000344705
0.00186732
-0.0251586
0.345538
0.309618
-0.0315907
-0.0684689
0.0151862
0.00997222
0.0342034
-0.0785726
-0.0162259
1.60923e-06
0.0265338
-0.0459183
-0.0862169
0.0109615
-0.0713101
-0.000813222
-0.0061454
0.240651
-0.0518334
-7.02087e-06
-0.00579737
-0.0792864
-0.000329976
-0.020901
-8.73603e-05
0.00871869
-0.109612
-0.0329925
-2.75449e-05
7.35401e-05
0.159115
-0.05358
0.433813
0.317386
0.0198788
-0.00118914
-0.0176495
0.000481087
-0.0777811
-0.0889207
0.0267724
-0.0302167
0.308122
0.0177418
0.000599369
0.0127455
-0.107776
0.00413271
-0.0261647
-0.078981
0.00514943
0.0334516
0.0936965
0.0174531
-0.0412465
-0.0571836
0.227443
-0.0316408
-1.76603e-07
-0.101159
-0.0859813
-0.0379529
0.00905282
0.00161446
0.0169116
-0.107119
0.0485905
-0.04871
0.174912
-0.0441528
0.0125266
0.0295361
0.0265506
-0.0496488
-0.0910466
-0.000190738
0.179984
0.24773
0.0120195
0.257697
-0.0766648
0.0660937
-0.0528131
0.238773
0.129972
0.628777
1.20631e-05
0.134706
0.215429
0.022437
-0.00232932
-0.026174
0.0114338
0.000103838
-0.0260858
-0.0606005
-0.0286513
-0.0315335
0.000289878
-0.0598642
-0.000573597
-0.00137935
0.279993
0.0105325
0.114059
0.0311822
0.244806
0.0180277
-0.000603977
-0.0895318
0.0130305
0.413466
0.00206449
-0.0642299
-0.000331332
-0.00085988
0.0119073
-0.0506965
-3.80214e-05
-0.0157512
0.0435922
-0.00305987
7.43371e-05
-5.73239e-05
0.184596
-0.0180084
0.0107053
-0.00173824
0.0135488
0.0236147
0.013527
-0.000440495
0.395555
-0.0747944
0.259559
0.347748
-0.000319855
0.102809
0.145776
-0.0012039
-0.000401945
-0.000651829
0.0153979
0.0260051
-0.0135885
-0.0260082
-0.0807724
0.206034
-0.0933552
2.39433e-05
-0.0276386
-0.0259236
-0.0501711
-0.00666479
0.00943281
0.00200055
0.0414555
-0.000797528
-0.000344799
-0.0246943
-0.00656411
-0.0353281
-2.08852e-05
-0.0211864
0.0495572
-0.00657913
-0.0207719
-0.01251
-0.0168641
-0.0132108
-0.00792788
0.0160459
-0.0136573
-0.000151018
-0.000610785
0.0352137
-0.0175542
-0.00750853
0.0131196
0.00496813
-0.136136
-0.0159208
0.188789
-0.0180799
-0.0715788
-0.0337301
-0.0321965
-0.022243
-0.00572314
0.00355249
-0.00536285
-0.0200007
-0.0229997
0.232827
0.18688
0.0739819
0.385545
-0.000102111
-0.00492548
-0.0234595
-0.0117255
0.129429
-0.0287999
0.0730132
-0.00641383
0.251633
-0.00294291
-0.0024613
0.0276063
-0.0223621
-0.000323138
-0.029074
-0.00892518
-0.0296546
-2.456e-05
-0.0100442
0.00312013
-0.0249356
0.0525725
0.0505435
0.0280101
-0.0199923
-0.0443915
0.144206
-0.00192614
-0.00298142
-0.00320993
0.544202
-0.000114524
0.100618
-0.0302129
-0.0290207
-0.0374265
-0.0554966
-0.0405906
-0.0481711
-0.025914
-0.0069584
-0.000137967
-0.00648108
-0.0308892
0.127023
0.00264828
0.19709
-0.0462869
-0.0189221
-0.00139024
-0.0407308
-0.00014639
0.179612
-0.0425332
-0.0369822
-0.0337314
-0.00583699
-0.0458933
-0.00255348
-0.0568583
0.129033
-0.0365343
-0.0889783
-0.00221318
-0.0381485
-0.0262207
0.0228134
-0.00489881
0.172992
-0.00364101
-0.0272513
-0.00101001
0.192525
-0.0546137
-0.0374188
-0.0049282
-0.0140746
-0.00417281
0.231435
0.0261534
0.249353
-0.00723746
-0.00122504
-0.00190378
-0.00352065
0.22204
-0.0832258
-0.0102365
0.000548819
-0.0103426
-0.0115445
-0.00134538
-0.0179803
-0.0223313
0.0773627
-0.00748656
0.00781024
0.535838
-0.0852433
-0.0407211
-0.0796468
6.36882e-05
0.0993014
-0.00536426
-0.0380284
-0.00845081
-0.0501206
0.00673616
-0.000797553
-0.0043955
0.00503605
0.235574
-0.00882705
-0.00270121
-0.00700762
-0.0723858
-0.0124536
-0.0314646
0.00677833
-0.0130483
-0.0134518
-0.00495676
0.240378
-0.0642553
0.00496296
-0.00640501
-0.0390002
-0.0206986
-0.0689161
-0.0021133
0.118343
0.0340682
-0.0117535
-0.00260956
-0.0199605
0.558363
0.237025
-0.0167407
-0.000864557
-0.003609
0.00904696
-0.00600558
0.0310453
-0.000612456
-0.0214986
-0.00298444
-0.0246913
-0.0483655
-0.00159127
-0.015868
-0.0020427
0.361841
-0.00964584
-0.0173409
-0.00548588
-0.00291341
-0.0424359
0.103392
0.496317
-0.0159075
-0.0168365
-0.00320105
-0.000684472
1.02164e-05
-4.39268e-06
-0.0150268
-0.000996973
0.150757
-0.000998125
-0.00274223
0.0126195
-0.000376761
-0.0619548
-0.0725847
0.0254396
0.0552688
0.0378337
0.0851234
-0.0456506
0.116443
0.0919393
0.122149
0.151641
-0.0191136
-0.00128853
-0.00861401
-0.0812198
-0.00532344
-0.0220343
0.0659946
0.375102
-0.063211
-0.000718076
-2.83368e-05
-0.00221328
4.6965e-06
0.0140531
-0.000828164
-0.00686704
-0.0664811
0.000862916
0.00405277
-0.000316549
0.0933965
-0.0225875
-0.0340101
-0.00181514
0.367618
0.32428
-0.0148946
-0.0801555
-0.0396281
-0.0345262
-0.0210975
-0.00282746
-0.0935465
-0.0405182
-0.0586024
-0.0413179
-5.68342e-05
0.229885
-0.015793
-0.0143202
-0.0365504
0.0279164
-0.000792136
-0.0124389
-0.00205086
0.0201525
-0.00228991
0.208387
0.000563997
0.015115
-0.000614541
-0.0728681
0.0133878
-0.00112688
0.0193766
0.000657489
0.0519964
0.152128
0.00275516
-0.00216985
-0.000176452
-0.000856842
-0.000751814
-0.0837974
0.154322
0.040496
-0.000393788
0.014452
-0.000677951
0.265817
-0.0823065
0.294921
-0.0598235
-0.000669083
-0.000413838
-0.0108796
-0.0084661
-0.000936549
-2.35682e-05
0.0368654
0.0418573
-0.000344047
-0.000483532
-0.0284544
-2.85223e-05
0.201749
-0.00139055
-0.0724433
-0.0274563
-0.00951195
-0.0759662
-0.0833644
0.183545
-0.0207408
-0.0291611
-0.000465354
-0.0775864
-0.0297876
0.0325863
0.142401
0.396889
-0.0017606
-0.0812158
0.020137
0.35231
0.0554598
-0.000167972
-0.00900493
-0.00611068
-0.00741196
-0.0659217
0.120401
0.000302149
0.0298144
0.00469222
0.106832
-0.000775692
-0.000165274
-0.068663
0.324268
-0.0749536
0.186261
-0.00187134
-0.000290887
-2.86851e-06
-0.09204
-0.0577699
-0.000497078
0.140332
0.0167486
-0.00799189
0.457839
-0.000570631
-0.00552616
-0.0804287
-0.0259496
-0.00342807
0.165631
-0.0680742
-0.000238029
0.0198195
-0.000244635
-0.000138371
0.175601
0.00495834
-0.000672327
-0.0705825
-0.034999
-0.00525237
-0.0311355
0.00368252
-0.0326381
0.00256366
-0.0052356
-0.0881175
-0.0527378
0.0307903
-0.00133612
0.192418
0.244667
-0.0940449
0.0148175
0.0282053
-0.00640535
0.200226
0.141808
-0.0394838
-0.000230745
0.0149935
-0.0753908
0.0193727
-0.0391988
-0.00315598
0.0654614
-0.0389762
-0.000194754
-9.62581e-05
-0.0373181
-0.0352035
-0.036801
0.0146917
0.0263716
-0.0607674
-0.00021272
-0.00207616
-0.000295859
-0.0457639
-2.98455e-05
-0.00289939
-0.0535658
-0.109642
0.153781
-0.00446329
0.00635003
-0.0302513
-0.0360408
-0.000180078
-0.0635141
0.149284
0.190325
4.19336e-05
-0.000156224
0.193655
-0.00376966
-0.101477
-0.0558222
0.00515168
0.000767473
-0.0924203
-0.0165586
0.198094
-0.0769939
-0.00219924
-0.0128301
-0.0709509
-0.000856562
-0.000350121
-0.00134472
0.00112837
-0.070092
0.183461
-0.000303419
0.558505
0.00530472
0.000198666
-0.0014328
0.000408866
0.000464854
-1.4855e-05
0.000230437
-0.0722956
-0.00106757
0.000683995
-0.000285704
0.1722
-0.00853854
-0.000277649
-5.18498e-05
0.405098
-0.0306074
-0.0245388
0.00176658
-0.00107315
0.083031
-0.00013298
-0.0177803
-0.110385
0.00334227
-0.00947667
-0.000133248
-0.000295302
-0.0429415
-0.0733273
0.0109024
-0.104228
-0.0575519
-3.59404e-05
0.0310338
0.0461592
0.136779
-0.00256855
-0.000222281
-0.0768624
-0.00907091
-0.000729437
-0.0676539
-0.000193218
0.0592571
-0.000112014
-0.001898
0.0316791
-0.00312385
-0.0799083
0.512611
-0.00244681
0.000439585
-0.0733793
-0.0692703
0.0139822
0.00714489
-0.000214777
-0.0438473
-0.000112837
0.232848
0.67469
0.113123
0.00463379
0.00549696
-2.08508e-05
-0.0391091
-7.17933e-05
-0.00981911
-0.00253327
0.000590472
-0.00501608
-0.013851
-0.000172378
0.00135129
-0.0115539
-0.000455928
-0.0144904
-0.0235497
-0.00525901
-0.00169206
0.605365
-0.00101278
0.00372847
0.000391845
0.0206007
-0.0682119
0.0144552
-0.000251119
-0.000138134
0.00408742
-0.000150411
-2.91252e-05
-0.0166749
0.00108435
-3.02753e-05
-0.0699056
-0.0033421
-0.0768061
-0.00244677
-9.19756e-05
-0.00466461
-0.00837897
-0.0215456
-0.0309609
0.00354347
0.000819088
-0.000681714
-0.00292182
-0.000103813
0.321496
0.00239326
-2.37493e-05
0.000921037
-0.00301503
-0.000512159
-0.0868343
-0.0746611
-0.000175359
-0.0103128
2.73905e-05
-0.00383673
-9.91799e-05
0.049884
-0.000195793
-0.000259455
-0.00518049
-2.39387e-05
0.020115
-0.000321543
-0.00187007
0.0276728
2.60325e-05
0.425629
-0.0733022
-0.0575611
-2.8303e-05
-2.62528e-05
0.00289597
-0.00175328
-0.0694423
-2.03778e-05
6.19593e-07
0.00115623
-3.7326e-06
0.000597604
0.000704883
-0.000668687
0.00122161
-0.0721433
0.527413
-0.0450182
0.385966
0.0135667
-0.0237399
-2.15035e-05
-0.00129788
-0.0177308
0.000237855
0.000451695
0.000275395
0.0961297
-0.0019802
-0.00030347
0.541262
-0.000794307
0.000920553
0.000787497
-5.46592e-06
0.0752863
-0.00322883
0.00175013
0.000208432
-0.000761027
-9.23221e-05
-0.00135114
-0.060559
-0.000604812
-0.00233086
-1.94638e-06
-0.000370835
-0.00037162
0.228675
-0.000641309
-0.000380908
-0.0948566
0.00571221
-0.000106522
-0.00196889
-8.22233e-05
0.210085
-0.0997404
-0.000412593
-0.000561211
-0.00273081
-0.000208572
0.0804044
0.148545
0.0569857
0.000804292
-8.272e-06
-9.99579e-07
0.0819083
0.000404714
-0.0836414
-0.0311907
-0.0227885
0.0145089
0.608821
0.00299322
0.239766
-0.0210546
-0.0409425
0.213454
-0.000515935
-0.0898028
-1.40751e-05
-0.0130899
-0.0678108
9.38211e-05
-0.0654072
-0.00139473
-0.00447145
-0.0079182
-0.0593572
-0.0587904
-0.0045588
-0.0833277
-0.0610347
-0.000264245
-0.0176852
-5.90491e-05
-0.0524071
-3.55621e-05
-0.000262704
0.0313713
0.203287
3.10024e-07
-0.0627758
0.00541253
0.000129373
-0.029497
1.38539e-05
-0.0198645
-0.000364555
-0.053634
0.000207551
-0.000115999
-0.00297737
-4.82432e-05
0.198644
-0.0428359
0.110615
-2.94677e-05
0.000976031
-0.0457846
2.09249e-06
-0.0784868
-0.0910296
-0.0766768
0.563808
-0.00944908
-2.12814e-05
0.0380179
-0.0580548
-0.00367065
-1.70326e-05
-0.000114367
-0.0654635
0.000211445
0.00135078
1.23824e-07
0.000262472
-0.0396951
0.160457
-0.0695039
0.132061
-0.00779355
-1.38875e-06
0.00974328
-0.0678963
-2.64943e-05
-1.5858e-05
0.000507563
0.000108815
0.000636623
0.278935
0.0506845
9.55991e-05
2.2706e-05
-0.0908257
0.245294
0.219673
-5.81681e-05
-0.0506555
-0.0271494
-0.0148473
-0.0663715
-0.0121711
-0.00425071
0.177922
-4.70427e-05
-0.0372557
0.209409
-0.0675877
-1.11662e-05
-0.0845282
-0.000243645
0.340633
0.0417313
-4.12469e-06
-3.05812e-05
0.229963
7.03363e-06
-0.000250615
-0.0170496
2.94798e-05
0.298756
0.00518302
-0.0107108
-0.0884518
-0.0054843
-0.0972783
0.226391
-0.0135466
-0.0181926
0.00152655
-1.97673e-05
-0.00147942
1.67515e-06
-1.3551e-05
0.0390051
0.222918
0.188112
-0.000629266
0.294595
-0.0155601
1.73157e-05
-0.0634079
-1.25138e-05
-0.0392079
0.0430262
-0.0204759
0.00670693
0.00283113
-0.0134802
0.000404433
-0.00242993
0.0295004
-0.00418417
-5.45547e-05
5.21881e-05
-8.04431e-05
0.0450678
9.65405e-05
-0.0307816
0.309511
-0.0086918
8.63388e-05
-0.00503912
-3.65984e-06
0.116376
-0.000508386
-8.54246e-05
-0.000113922
-1.32388e-05
0.256014
-0.000204308
0.28742
-0.0840993
0.000186898
-0.0711103
-0.000680123
0.195891
0.554666
-0.00203619
4.52423e-06
3.36678e-05
-2.30209e-05
0.180998
1.39692e-06
0.00160415
-0.0344393
0.272994
1.44242e-05
3.10136e-05
5.23319e-06
4.42924e-05
-0.029169
3.53483e-06
0.318421
-0.0225973
-0.00016881
5.16149e-05
-0.0029838
-0.0405581
2.51352e-06
-7.36178e-05
0.206155
5.8709e-05
-0.0446733
-0.0609883
0.000217118
1.57919e-06
-0.135666
2.28815e-06
0.206672
2.60212e-05
-0.000633872
2.29963e-05
-0.000242103
0.1216
8.03845e-06
-0.00236867
1.94483e-05
0.019977
-0.00490628
-0.00927011
0.001438
0.192504
-0.000366217
-0.000103937
-0.0127898
-0.0123473
-0.000341208
-5.70618e-05
-0.00128029
7.20764e-05
0.224208
-0.0146462
0.547517
3.30381e-06
-0.0110099
-0.000204386
0.173993
9.8311e-05
-0.0369287
4.1557e-05
-0.00228
-0.0466683
-0.000321628
-0.0223565
-0.0684089
0.00762337
-4.73573e-07
-0.0744272
-0.000470282
-0.000400457
-0.00799669
-0.017588
0.00195519
-5.05528e-05
-0.000617029
-0.00128328
-0.00183654
2.84499e-05
-0.00173845
0.537109
0.000161008
-0.00471751
-0.0486292
-0.100038
-0.0868715
-0.0662895
-0.0306634
-0.000730176
-0.0205388
0.000129225
-0.000106164
0.538123
-0.000125411
0.224757
-0.000640221
0.000623158
-0.00162916
-0.0717639
-0.000591558
0.00108798
-1.29461e-05
-0.000555334
-6.71753e-06
-0.00010415
-0.0212605
-0.000143782
-2.03913e-05
-0.000109445
0.000244081
-4.46859e-06
-0.0588788
0.285376
-9.98655e-06
-0.000859895
7.14863e-05
5.452e-05
-0.00119602
1.84874e-05
-0.00129642
0.000449025
-0.000517201
-0.0880407
-0.000987082
-0.00262774
1.08212e-05
-0.00221449
0.000525376
-1.82639e-05
-8.73008e-06
2.44958e-05
-0.00113993
0.000831439
-0.0612233
-0.0374986
-0.0888661
0.00093941
-0.00261656
-0.0062978
-0.0895552
-0.000126003
0.023427
0.0102119
-0.00150392
-0.0167826
-0.0769997
0.491084
-0.000594676
-1.62439e-05
0.00135624
8.5959e-05
3.22636e-05
0.0991106
0.00549261
0.11374
-0.0485783
0.47796
-0.000744127
5.74638e-06
0.000245028
-1.8201e-05
-0.00196136
0.195975
0.265611
-8.38452e-07
-0.00023111
-1.37278e-05
0.252695
0.0289172
-0.00748038
2.13435e-05
3.4494e-05
0.0106816
-0.000994953
-0.0974984
-0.0235212
4.85501e-05
0.00520529
-0.0428176
-7.72546e-05
0.00271969
-8.17649e-05
-0.0632118
-0.00250286
0.186055
3.00899e-05
0.0025196
2.92949e-05
2.83497e-05
0.000277641
-0.0321585
2.7419e-05
-0.00130978
4.37227e-05
-0.0276571
-0.062664
-0.00429929
-0.00950834
-0.0122189
0.0133562
-0.012348
-0.00354002
0.000114163
0.000175535
3.92353e-05
3.40311e-05
-7.2399e-05
0.0133346
-0.0776946
0.000759251
-0.0565343
-0.00442429
-0.0663899
0.000144796
7.87308e-06
0.00197222
-0.0454784
3.38672e-05
-0.0568055
-0.0205456
0.0492362
-0.055968
4.82333e-05
-0.00494269
0.000311014
-0.114416
0.167773
2.84592e-05
-0.0811626
-0.0306537
-0.0060771
6.90981e-05
-7.7208e-06
0.0418221
-0.0233009
4.70572e-05
-0.00964836
8.41348e-06
0.000344376
0.15732
-8.44488e-06
1.85313e-05
-0.000103827
6.27271e-05
0.00136574
0.000144703
-0.0074801
0.000372408
-0.0176234
0.00167233
-0.000281135
-0.043147
-0.0587306
-0.00888526
-1.79949e-05
4.01633e-05
-0.0784036
0.00847935
-0.0651314
5.6072e-05
-0.00732124
-4.6022e-05
4.58826e-05
0.100741
-0.00992924
-0.0039705
1.0564e-05
-0.0245555
8.5715e-05
-0.0911912
5.08317e-05
-0.102741
4.30972e-05
-5.45637e-06
0.000140599
0.00154624
-0.0791108
-0.0252571
-0.0940434
3.47143e-05
0.000157878
-0.105246
-0.0322459
-0.0119046
-1.54694e-06
-0.0265217
-0.0678425
-0.105402
1.62774e-05
-5.24597e-06
2.41554e-05
-0.0828324
-0.0907129
0.00110446
-0.0155245
-6.71615e-05
0.274767
0.000154691
3.362e-05
0.000242476
5.63383e-06
-5.56385e-06
-0.00513788
0.000189029
-0.00363573
-0.0869806
-0.0183269
-0.0792777
7.41528e-05
-6.55206e-05
0.0750523
-0.0597087
-0.00672744
0.143455
2.78529e-05
-1.14513e-05
-1.0551e-05
0.156586
0.000277712
2.20138e-05
3.38746e-06
-0.0792167
-0.0216226
2.31432e-05
0.000142469
-0.0129333
-0.00907025
0.000663928
0.268514
-0.0790375
0.000323086
0.681754
-4.93007e-06
-0.000959634
-0.0116638
-0.10516
1.93844e-05
1.22867e-05
3.86177e-05
0.00708648
-0.0431447
-0.000465532
-0.0670583
-0.0108904
5.48155e-05
-4.33227e-06
-0.0142357
-0.000884926
2.54061e-05
-0.060498
-0.0622063
-0.0532897
0.0220635
-0.0369693
-8.01099e-05
0.000550736
0.0190827
0.000817457
-8.64005e-05
0.00116603
6.44929e-05
-0.000107502
-0.016941
-1.34084e-05
-2.78148e-05
0.0549671
-0.0138471
-0.000201793
-3.37475e-05
-1.63388e-07
0.290483
-0.00928243
0.00119954
-0.0383948
0.000359094
0.000316099
0.000273141
-5.90145e-05
0.000741163
-0.0517075
0.0256932
-9.75309e-06
-0.000207945
-0.056443
-0.0425454
0.0656835
-0.000689543
0.00274327
0.0255717
1.31948e-05
0.000105431
-0.062358
4.01381e-05
0.20029
3.08211e-05
0.00616702
0.000265462
0.000354038
-0.095845
-0.010252
-0.0247578
-0.00340201
4.72706e-05
0.00985466
0.0816121
-0.0170753
-0.000177298
0.121555
0.196428
9.9697e-06
-0.0710795
-8.25281e-05
-5.68622e-06
-5.57139e-05
-0.000797739
0.0281597
1.10976e-05
0.000390181
-0.0341905
-0.0355224
-0.0306057
0.357056
4.331e-05
-8.79792e-05
0.205792
-0.004649
-0.00534518
-0.000921781
0.203075
8.37481e-05
-0.000414691
8.99281e-05
6.01539e-05
5.60938e-05
6.40798e-05
0.000121496
-0.0247024
2.50008e-05
-0.00466764
-0.0611063
0.286658
-0.000167911
-6.23115e-05
0.00690637
0.11001
-0.0608554
-0.0010636
-0.0962161
0.355853
7.48952e-05
0.452966
-1.80785e-06
0.004933
0.0345581
0.00066927
0.486414
1.66743e-06
-4.42311e-06
0.00174747
5.57882e-05
-0.00122225
0.000410882
2.99854e-05
-0.00277583
3.67894e-05
-0.000191904
-0.0046734
0.285228
0.0723749
0.0313008
-0.0602171
-3.86639e-06
-1.37512e-05
0.00503262
-0.0731375
-5.73102e-06
-0.0641684
-6.63863e-05
0.132365
0.0822852
-0.0451662
-0.00190595
-0.0164653
-0.00139385
-0.0207076
0.00622465
-0.0101943
0.0864228
5.14797e-06
0.296541
0.0607196
-0.000800449
0.253854
-0.0186094
-1.42376e-05
5.03823e-05
0.000111744
-0.000288293
-0.000154785
0.287684
-0.00138482
0.295303
-0.00148385
0.20087
0.266466
0.159496
-0.00986281
1.98319e-06
0.000119003
-0.0148745
-0.135065
-0.066395
0.00222771
4.94467e-05
-0.0527373
-0.00041159
3.39898e-05
0.00152
-0.001511
-0.000875211
0.0462809
0.000124906
-0.0668275
0.0802267
9.79848e-05
0.000421725
-0.0196364
-0.0783927
-0.0010309
-0.000728339
3.53924e-05
0.000394627
0.128741
-0.0235659
-0.0655629
0.00195981
0.138597
-0.0536364
7.00512e-05
4.74142e-05
0.040437
-0.000104123
0.120493
0.0032174
-0.0190288
-0.000529642
0.00243305
-0.0497237
-2.569e-05
0.000751832
0.00618045
-0.102237
0.196739
-0.0861277
-0.0374397
-0.00020911
-5.73629e-05
0.00975334
8.31055e-05
-0.103037
-0.0906031
0.000857735
0.00505146
0.0055507
-0.116466
0.000968466
0.000306695
7.5508e-05
-0.0570591
5.44684e-05
0.000851154
0.153408
0.217481
-0.12803
0.0665825
0.0662041
0.0376206
-0.000196801
0.0178869
0.000198819
1.52524e-05
-7.66907e-05
1.11864e-06
6.94195e-05
-0.000495721
-0.0107474
-0.0610084
-0.0137005
-0.0395908
0.0724947
0.0605148
0.00598647
-0.0875294
0.000263589
0.00689869
0.0164823
-0.000538916
0.102885
-0.00170365
-0.0153109
0.0177652
0.00801798
0.00160426
-0.0056997
0.0617147
0.00124782
-0.0275795
-0.0230179
0.568101
-0.0344106
0.109495
0.0448316
-0.0509116
0.00326568
0.000175485
-0.00365281
0.000106057
-0.0037386
-0.035289
-8.75551e-05
-3.36289e-05
0.327209
-0.00468977
-0.0582053
-0.0264698
0.000330728
-0.00194743
-2.2678e-05
2.02378e-05
0.05576
7.33389e-05
-0.00417806
0.104321
0.00923104
0.00167825
0.0268359
-0.0081387
0.00612745
-0.120266
0.00131205
-0.00628677
-0.0778794
-0.0012014
-0.011409
0.00115335
0.00173394
0.00148911
0.054524
-0.000417914
0.00828027
-0.0755465
-0.0289561
0.000497092
-0.0750659
-0.0210218
-0.0242284
0.000185562
0.0096462
-0.0922793
-0.00118657
-0.00685671
-0.0695678
0.000629482
-0.00165462
0.266349
-0.0291504
-5.17223e-05
0.0119817
-0.0691614
-0.00148713
0.234807
-0.00302574
0.00152534
0.0794904
-0.00202288
0.0121663
0.160074
0.000134567
0.0017532
0.000284992
7.69437e-05
-0.00639456
-0.00998208
-0.000152057
-0.033877
0.129944
-0.0522166
-0.0958741
0.00174024
-0.00464196
-0.000830056
-0.0523175
6.25329e-05
0.0255894
9.21739e-05
-0.0224477
-0.00277027
-0.00707048
0.00330759
0.154688
-0.103545
-6.43426e-05
0.243084
-0.0027391
-0.00346919
-0.0826182
-0.107419
-0.0218791
-3.38195e-05
-0.00155313
0.0105527
-0.0043908
-0.00669827
0.000681631
0.115152
-0.058922
-0.0156628
-0.0094841
0.0371573
-0.00294841
-0.00102063
0.00253532
1.11529e-05
-0.00439231
0.150983
0.00120451
-0.133853
-5.02107e-05
-0.0104178
-0.00498328
-0.115988
-0.0161624
-0.132687
-8.0227e-05
-7.6347e-05
-0.00508753
0.0154465
0.00274063
-0.149792
0.11878
-0.0671957
0.000299961
-0.164201
5.16619e-05
-0.170687
-0.0356502
-0.178064
-0.174411
-0.162682
-0.117247
-0.0271403
0.00835813
0.0410193
0.0740534
0.107087
0.201324
0.231993
0.260564
0.310112
-0.0114154
-0.0103666
0.0908313
-0.0233313
0.00135796
0.0256337
-0.0563826
0.000825601
-0.000902826
-2.29992e-06
-0.0199226
0.0255477
7.89357e-05
-0.00040702
-0.0148497
-0.00570043
-0.18341
-0.0169556
-0.0779517
2.21546e-05
0.000880334
-6.56498e-05
-0.0684065
-0.0123103
-0.0506234
-0.0134237
0.0025673
0.000369947
0.00689394
-4.07121e-05
-0.00951681
5.19704e-06
0.000570741
-0.00762294
-0.0162449
-0.000325884
0.000504503
0.0659424
-0.0144908
0.0914458
-0.177453
-0.0103384
0.171086
-0.0262772
0.00543979
-0.0300657
-0.00460046
-0.0176624
-0.0174929
0.388632
-0.00179381
0.000123111
-0.00817779
-0.0124702
6.77046e-06
0.105927
-0.00568273
0.365774
-0.0641771
-0.0620977
-0.0373452
0.0676515
-0.00674845
-6.03065e-05
-9.04804e-06
-0.00589001
-0.0771187
0.000104641
0.395365
-0.00388864
-0.00695476
-7.80621e-05
-0.000524665
-0.00875519
0.139021
-0.0556913
0.152821
0.000960214
-0.019916
-7.33292e-06
0.0381362
-0.0109458
0.0276542
-0.0183973
-0.007649
-0.00106984
0.00191211
0.0171315
-1.43031e-05
-0.0134534