/*--------------------------------*- C++ -*----------------------------------*\
  =========                 |
  \\      /  F ield         | OpenFOAM: The Open Source CFD Toolbox
   \\    /   O peration     | Website:  https://openfoam.org
    \\  /    A nd           | Version:  7
     \\/     M anipulation  |
\*---------------------------------------------------------------------------*/
FoamFile
{
    version     2.0;
    format      ascii;
    class       volVectorField;
    location    "32.5";
    object      U;
}
// * * * * * * * * * * * * * * * * * * * * * * * * * * * * * * * * * * * * * //

dimensions      [0 1 -1 0 0 0 0];

internalField   nonuniform List<vector> 
20933
(
(0.997693 -0.000228903 1.31583e-23)
(0.99056 -0.000728801 1.325e-23)
(1.02943 -0.00396825 -1.10753e-23)
(1.00028 -5.23016e-05 -2.04215e-24)
(1.00066 -0.00990774 6.29302e-23)
(1.00027 -0.0105275 -6.17294e-23)
(1.05329 -0.189163 -8.35768e-22)
(1.10948 0.0756736 -1.29834e-20)
(1.00832 -0.0935717 -2.0152e-21)
(1.11534 0.0767418 9.32008e-21)
(1.0652 -0.168617 -2.47986e-21)
(1.21682 0.133144 -3.73071e-22)
(0.984234 -0.0600377 -2.98419e-22)
(0.997524 -0.000273642 -1.19816e-23)
(0.995425 -0.00348033 3.22068e-23)
(1.00027 -6.40849e-05 -1.80833e-24)
(1.29659 -0.00898479 -8.34275e-22)
(1.12472 0.00205863 -6.73743e-21)
(1.00851 -0.142769 -1.39587e-21)
(0.992694 -0.000348048 -1.09629e-23)
(1.02299 -0.107531 2.7013e-21)
(1.21244 0.132493 -7.02236e-22)
(1.11781 0.0832758 -7.00521e-21)
(1.1658 -0.205734 -1.69512e-21)
(1.02735 -0.00183354 4.00429e-24)
(0.991075 0.0903751 -2.17591e-20)
(1.01004 -0.00295397 1.79545e-23)
(0.994002 -0.0648504 1.00122e-21)
(1.22058 -0.184734 -1.60233e-21)
(1.0117 -0.144187 4.93159e-21)
(0.998593 -0.00231407 -6.24827e-25)
(0.945673 0.0147138 3.37018e-20)
(1.15184 0.12708 5.50458e-21)
(0.991147 -0.0371205 1.05105e-22)
(1.00003 -0.00175131 6.40821e-24)
(0.99865 -0.00250578 -1.70734e-24)
(1.10136 0.0955767 -1.41994e-20)
(0.999936 -3.83049e-06 -3.34489e-24)
(1.01658 -0.0216897 8.25617e-23)
(1.13606 0.00421343 -2.25253e-21)
(1.04612 -0.00911017 3.43519e-23)
(1.11657 0.154416 9.9733e-21)
(1.03544 0.0470865 -6.15668e-21)
(1.00894 -0.0034263 -1.49288e-23)
(0.990853 0.0867742 8.61982e-21)
(0.979352 -0.00149878 -4.96432e-24)
(1.10454 0.0114934 -1.98086e-20)
(1.26875 0.0720607 -1.08507e-21)
(0.99962 -0.000100486 -2.79743e-24)
(0.970107 -0.0524353 1.28407e-22)
(0.999919 -0.00186252 -1.57622e-23)
(1.0849 -0.00962315 1.17465e-21)
(1.21843 -0.113608 4.4707e-21)
(1.00032 -0.004201 -2.31902e-23)
(1.25988 -0.111099 -1.1326e-21)
(0.946248 -0.0190262 -6.89635e-23)
(0.976025 -0.0344917 3.83606e-23)
(0.998436 -0.00302472 3.68457e-25)
(1.01165 -0.0539065 -1.23226e-21)
(1.29215 -0.00478715 7.07019e-22)
(0.973543 0.0306123 1.8235e-20)
(0.969582 -0.00433315 9.8518e-23)
(0.988782 -0.00333209 -2.91466e-23)
(1.12955 0.0760884 -5.95026e-22)
(0.999466 -7.95254e-05 1.80981e-23)
(0.995001 -0.00877616 3.30039e-24)
(0.994242 0.0623824 5.54186e-22)
(0.994409 -0.00915731 3.5298e-23)
(1.13932 -0.0805461 -5.80025e-22)
(0.997306 0.0919991 8.12618e-21)
(1.04638 -0.0473549 -3.2315e-22)
(1.30492 -0.0410142 -1.68124e-21)
(0.995846 -0.00349991 -9.71854e-24)
(0.982044 -0.0435302 8.73289e-22)
(0.999759 0.00879328 -8.13763e-21)
(1.08858 -0.0941398 1.07993e-21)
(0.997716 0.0859582 3.76252e-21)
(0.960878 -0.00500366 5.09206e-23)
(1.13375 0.00278015 1.44051e-21)
(1.00298 0.0331367 1.18721e-20)
(0.995975 -0.00916128 1.14707e-22)
(1.00237 -0.00499311 -2.41455e-23)
(1.20062 -0.189808 1.28453e-21)
(1.0093 -0.0904716 1.67896e-21)
(0.972885 -0.00342349 -1.07716e-22)
(1.03295 0.044385 2.96688e-20)
(0.987395 -0.0558723 -5.40592e-22)
(0.897269 0.052795 3.18335e-21)
(1.12551 0.071166 -5.62792e-21)
(0.976012 0.0911733 1.38463e-20)
(1.11911 0.0292111 -7.55591e-21)
(1.00035 -8.05964e-05 1.93133e-24)
(1.00003 -0.000342511 7.30788e-24)
(0.955229 0.00464434 -9.40626e-21)
(1.27439 0.0663946 5.4725e-22)
(0.989144 -0.00352416 -6.88521e-24)
(0.963919 0.00299291 1.44217e-20)
(0.99932 -0.00499581 1.72903e-23)
(1.06962 -0.162358 -1.08447e-21)
(1.07559 0.0163632 -7.80804e-21)
(0.972591 0.0936005 -4.10106e-20)
(0.974005 -0.0109858 2.06866e-23)
(0.963444 0.0853749 -4.48537e-20)
(1.20189 -0.10439 4.55242e-21)
(1.11265 -0.00321521 -3.63366e-21)
(1.11777 -0.0890567 8.96351e-22)
(1.02323 0.103106 1.52624e-20)
(1.18561 -0.0866375 1.09201e-21)
(0.990382 -0.000417505 1.20948e-22)
(1.04091 0.117594 3.43392e-21)
(1.22928 -0.187152 -5.39643e-21)
(1.04726 -0.18908 -1.88096e-21)
(0.975224 -0.0267712 2.86137e-22)
(1.03801 -0.0244875 3.47069e-23)
(1.09015 -0.0866574 3.66409e-22)
(1.00007 -0.000119014 -2.02911e-24)
(1.0517 0.0763013 1.45034e-20)
(0.996599 -0.00857404 -4.48324e-23)
(1.19524 -0.118267 1.01742e-21)
(1.00255 0.0246407 -2.79866e-20)
(1.00034 -6.0156e-05 3.68544e-25)
(1.03711 -0.111371 1.76329e-21)
(1.15384 0.0238353 -3.0309e-21)
(1.01286 -0.0618263 -1.70739e-21)
(0.991014 -0.0351711 -8.31462e-23)
(1.12584 0.0042504 3.45893e-21)
(1.18332 0.139998 -1.23941e-20)
(0.993665 -0.0623659 8.07124e-22)
(0.939157 0.0175109 -9.83307e-21)
(1.04721 0.0785969 7.77627e-21)
(0.989504 -0.0722594 -8.09308e-22)
(0.969693 -0.0503425 -4.28533e-22)
(1.04624 -0.00472393 9.98167e-23)
(1.0156 -0.019968 -4.18136e-23)
(1.0181 0.0966679 -2.07758e-20)
(1.1089 -0.00601119 -9.00173e-22)
(1.24567 0.0870947 -2.05257e-21)
(1.02674 -0.108007 -1.13552e-21)
(0.979181 -0.0112746 2.1555e-22)
(0.992728 -0.0963903 3.66431e-21)
(1.0328 -0.115183 2.97438e-22)
(0.980259 -0.0450376 -8.63083e-22)
(1.30625 -0.0530504 -1.64167e-21)
(0.959694 0.0933769 -1.41767e-20)
(1.2234 0.000928142 7.82536e-22)
(1.017 0.0995331 1.87923e-20)
(1.15704 0.155642 -1.404e-21)
(0.96715 -0.0115195 -1.34911e-22)
(1.19092 0.13086 -8.67545e-21)
(1.01136 -0.00394971 -3.65761e-23)
(0.967237 -0.010452 2.60277e-22)
(0.999015 0.0902884 9.47438e-22)
(1.00005 -0.000297801 -4.68549e-24)
(1.00714 -0.0836301 6.34548e-22)
(1.00231 -0.00448844 4.20592e-23)
(1.15329 0.158854 7.58846e-21)
(1.02868 0.0462727 -3.16061e-21)
(1.16011 -0.202346 7.86587e-21)
(0.940985 -0.0224256 1.72394e-22)
(0.98326 -0.0615618 6.24642e-22)
(1.26713 -0.119976 1.62395e-21)
(1.05779 -0.18218 1.28888e-21)
(0.99839 -0.00278493 -2.32715e-24)
(1.22024 0.0063677 -1.41393e-21)
(1.12769 -0.00270591 -6.09256e-22)
(0.899465 0.0551289 7.58599e-21)
(0.975163 -0.0111938 1.24782e-22)
(1.19358 -0.198686 4.91578e-22)
(1.08358 -0.0966306 -1.24109e-21)
(1.10229 0.0915282 -8.38148e-21)
(1.25047 0.0869254 6.87425e-22)
(0.986455 0.0689419 8.5061e-21)
(1.06304 0.137797 2.31709e-20)
(0.987995 -0.0322308 1.67269e-23)
(0.920783 0.0142303 -1.12798e-20)
(1.15665 0.128378 6.56465e-21)
(0.996853 -0.000613641 -1.4134e-23)
(0.991323 0.0065244 -2.14275e-20)
(1.097 -0.0843287 -7.44829e-23)
(1.03359 0.122035 6.61659e-21)
(1.01213 0.105502 -9.52735e-21)
(0.999902 -2.66785e-06 4.09054e-24)
(0.95856 0.0644562 6.02224e-22)
(1.06091 0.119975 1.98013e-20)
(0.992113 -0.00058569 1.63836e-24)
(0.942049 -0.0154992 8.14514e-22)
(1.04575 -0.044173 2.54596e-22)
(1.08218 0.0126279 -2.00566e-21)
(1.19575 -0.111059 -1.63524e-21)
(0.928689 0.0473706 1.00293e-20)
(1.18131 0.13581 -4.28702e-21)
(1.26642 -0.0298428 -2.58037e-22)
(1.07084 0.0122918 1.56622e-20)
(1.13737 -0.0735536 1.05501e-22)
(0.941235 -0.0236322 4.58702e-22)
(1.21736 0.101632 -4.99818e-21)
(0.959323 0.068052 -6.66316e-22)
(1.2694 0.0316217 -8.34682e-22)
(0.993969 -0.000225554 -7.51314e-24)
(0.924934 0.0466663 -9.80522e-21)
(1.23974 0.060021 -4.92275e-21)
(1.27156 -0.0823992 1.37667e-21)
(1.21599 -0.106279 -3.92192e-21)
(0.934922 0.0549966 -1.21009e-20)
(0.951296 0.058776 2.83028e-20)
(0.960591 -0.0272429 -2.24458e-22)
(1.00048 -0.0456425 -9.55451e-23)
(1.08479 -0.00569308 -1.57827e-22)
(0.945914 -0.0207354 -4.32856e-22)
(0.998875 -0.000105926 2.98596e-23)
(0.995754 0.0640762 -4.04625e-21)
(0.98856 0.0222887 -7.71986e-21)
(0.965524 -0.0149095 2.96869e-22)
(0.950302 -0.0381007 3.39558e-22)
(1.03565 0.118611 1.01707e-20)
(0.999189 0.0159713 1.23248e-20)
(0.998902 -5.30741e-05 -8.36372e-23)
(1.00143 0.0187997 -1.8982e-20)
(1.18993 -0.0804102 4.85717e-22)
(1.01676 -0.0175574 1.4036e-22)
(1.00606 -0.0669176 1.0595e-22)
(1.03248 0.0724804 -1.58273e-21)
(0.949873 0.103306 1.32558e-20)
(1.11583 0.0262663 9.98989e-21)
(1.0423 0.11278 -1.66069e-20)
(0.97796 -0.0111902 -3.68391e-22)
(1.00291 -0.0450183 -4.62863e-22)
(1.0001 -0.000125627 9.73166e-26)
(0.999246 -3.67831e-05 1.97225e-23)
(1.00051 -0.00826586 1.22226e-22)
(1.15174 0.0207438 1.41635e-21)
(1.15769 -0.125664 -9.79681e-22)
(1.02538 0.100225 -1.94482e-20)
(1.00317 -0.112984 9.63829e-22)
(1.02275 0.0377136 1.14549e-20)
(0.98901 -0.0538203 -9.48222e-23)
(1.1105 -0.0856117 -6.77412e-22)
(0.988945 0.067665 1.5194e-20)
(0.957773 0.00367198 4.87002e-20)
(1.03363 0.0687356 2.71287e-20)
(1.00033 0.0834452 -2.31857e-20)
(0.948532 -0.0372086 -2.9702e-22)
(1.11039 0.138552 -6.07654e-21)
(1.01391 -0.0598199 1.86804e-21)
(1.11649 -0.00505969 7.60998e-21)
(0.996425 -0.00770388 -7.55866e-23)
(1.29797 -0.0938933 -4.70489e-21)
(1.19303 -0.0506374 8.07549e-22)
(1.09401 -0.0281391 1.76209e-21)
(0.999655 -7.67837e-05 3.36891e-24)
(0.98869 -0.000580201 -1.23515e-22)
(0.945658 0.105309 -2.03839e-20)
(1.17961 0.0522155 2.03679e-20)
(1.01593 -0.0233571 -1.72486e-22)
(0.966471 -0.0570109 -8.62721e-22)
(1.15094 -0.121222 3.42528e-22)
(1.0971 -0.197093 3.40966e-21)
(1.1117 0.153491 -1.26745e-21)
(0.994017 -0.0951889 -1.04348e-21)
(0.975407 -0.00182574 -2.50694e-23)
(0.996964 -0.0739301 1.18632e-21)
(0.991975 -0.0310707 -1.08068e-22)
(0.999431 -5.91873e-05 -1.0355e-24)
(0.987886 -0.0512826 4.91768e-22)
(1.06242 -0.181767 -5.96949e-22)
(0.958999 0.0895023 2.67527e-20)
(1.28486 0.0375423 1.28534e-22)
(0.977146 -0.0255288 -5.131e-22)
(1.02023 0.0395103 -1.7684e-20)
(0.952822 0.0633983 -3.36755e-21)
(0.988176 -0.0581533 1.01511e-22)
(1.00067 -0.000291306 -1.23385e-23)
(1.00634 -0.0870514 -1.14146e-21)
(0.994695 0.0588686 4.67959e-21)
(1.28181 -0.137527 -2.80445e-21)
(0.975892 0.0283244 -2.74964e-20)
(1.00003 -0.000133859 9.57516e-25)
(0.952232 -0.0421656 6.35038e-22)
(1.05037 0.13783 1.86042e-21)
(0.99942 0.0150704 2.50464e-20)
(1.03651 -0.0825393 -3.25451e-22)
(0.977616 -0.0328957 3.63353e-22)
(0.931937 0.0939396 2.1762e-20)
(1.2626 -0.066535 3.02304e-22)
(1.25975 -0.0346747 3.19569e-22)
(0.967519 0.0867747 1.84937e-20)
(0.930114 0.0540143 -2.04916e-21)
(0.986684 -0.0601908 -3.25143e-22)
(1.04864 0.140747 -1.21186e-20)
(1.16048 -0.00588356 -3.47648e-21)
(1.00447 0.0346359 -3.24295e-20)
(1.06736 0.0838688 8.79435e-21)
(1.0007 -0.000213438 1.5615e-23)
(1.2913 0.0403537 6.92236e-23)
(1.09528 0.0881365 5.08567e-21)
(0.996802 -0.000524928 -3.73818e-23)
(1.00183 -0.119434 -4.00231e-22)
(1.25507 0.0351961 -6.99112e-22)
(1.17779 -0.192162 -1.41179e-21)
(1.23797 0.0537031 2.86496e-21)
(1.19644 -0.0287716 -7.61583e-22)
(1.0001 -0.000200802 -1.68682e-24)
(0.999458 -0.00350236 4.51265e-23)
(0.977163 0.103847 -3.274e-20)
(1.00122 -0.0150167 -2.50259e-23)
(1.01659 -0.142832 -1.19105e-21)
(0.99061 -0.0781676 1.15709e-22)
(1.20947 0.127301 -4.42742e-21)
(0.971961 -0.00419041 -1.89243e-23)
(1.03492 0.125177 1.16948e-20)
(1.21133 0.0211963 3.76546e-21)
(0.994191 -0.0745924 6.87226e-22)
(0.957989 -0.00610984 -1.30764e-22)
(1.10732 0.0875883 9.14813e-22)
(1.20635 0.0989213 3.71709e-21)
(1.00006 -0.000205097 -1.53968e-24)
(0.974603 0.0639819 2.7296e-20)
(1.0464 0.0825714 3.90367e-21)
(0.993264 0.0140849 -6.66099e-21)
(1.26186 -0.100272 -1.55314e-21)
(0.999514 -5.63792e-05 -1.44284e-23)
(0.933449 0.0901985 -1.43022e-21)
(0.996681 -0.00525248 -5.28864e-23)
(0.992771 -0.0568821 2.14124e-22)
(1.21316 0.0969945 -1.57323e-21)
(1.2617 0.028901 1.08487e-22)
(0.979321 -0.0604932 -7.34766e-22)
(1.26295 -0.0773586 1.97448e-21)
(1.02609 0.0440546 4.57317e-21)
(0.956844 0.00450557 1.77059e-20)
(1.00957 0.0954992 -2.46913e-20)
(1.1835 0.0266959 -5.74467e-21)
(0.910735 0.0192389 2.434e-21)
(1.00029 -1.03409e-05 -1.27856e-24)
(0.989596 -0.0305261 -1.13182e-22)
(0.999892 0.00837648 3.30935e-20)
(1.22564 -0.154437 5.6741e-22)
(1.09452 0.0840647 -1.20097e-20)
(0.984423 -0.0440883 -3.59261e-22)
(0.993704 0.0846864 2.3133e-20)
(1.19659 0.00151658 2.483e-21)
(1.00007 -0.00383406 2.98995e-23)
(1.19179 -0.00367272 -2.15363e-21)
(1.05189 0.0709513 -1.86894e-20)
(1.18621 -0.168729 -2.15566e-23)
(0.974279 0.00672608 -4.98686e-21)
(1.06741 0.125342 2.76301e-21)
(0.99932 -0.000303075 4.43448e-26)
(1.04017 -0.0221259 -1.25954e-22)
(1.14171 0.107146 5.92753e-21)
(1.12287 0.00121757 1.29938e-20)
(0.998364 -8.40251e-05 8.92832e-23)
(1.06391 0.134008 -2.06745e-20)
(1.01423 -0.0530232 -1.53759e-22)
(0.888923 0.053335 -1.2709e-21)
(1.02824 -0.113667 -2.21989e-21)
(0.965348 -0.0134162 1.08723e-22)
(0.989318 -0.000682737 5.30241e-23)
(1.01073 0.0990002 2.75174e-20)
(1.06081 0.116921 -3.14027e-20)
(0.976279 -0.00261053 3.12102e-23)
(1.10532 0.0808465 3.19845e-21)
(0.975765 0.086745 -7.98803e-21)
(1.0013 -0.0161207 -3.99634e-23)
(1.0486 0.00671605 4.59476e-21)
(1.02451 0.0188408 -1.28887e-20)
(0.898296 0.0294607 1.60891e-20)
(0.997138 -0.00437967 1.51932e-23)
(1.18681 0.106573 -9.29034e-21)
(1.1878 -0.0565928 -9.16458e-23)
(0.945051 -0.018525 -1.51847e-22)
(0.999674 -5.585e-05 -2.8931e-24)
(0.999805 0.00462896 1.99712e-20)
(1.11852 0.158103 5.83133e-21)
(1.26604 0.00509211 -2.2893e-22)
(0.986371 0.104068 -8.37826e-21)
(1.17812 0.0300563 2.78885e-21)
(0.974066 -0.033998 2.62625e-22)
(1.11373 0.133853 -4.53117e-21)
(1.1265 -0.00152269 -2.04772e-21)
(1.17325 0.0483853 5.96152e-21)
(0.901849 0.031783 -4.21184e-20)
(1.03002 -0.0991147 7.93545e-22)
(1.22226 0.0883297 1.95602e-21)
(0.991639 0.0191392 -1.74583e-20)
(0.964901 -0.0579891 7.76869e-22)
(1.15488 -0.0176716 2.97131e-22)
(1.07768 -0.162 2.53824e-21)
(1.14442 0.102306 -2.63764e-21)
(0.995071 -0.000171982 1.11238e-22)
(1.10896 0.0126651 -2.18755e-21)
(1.26631 0.0132082 2.45101e-22)
(1.22501 0.0827511 4.57692e-21)
(1.00125 -0.00492587 9.48198e-23)
(1.10197 0.00852088 2.10044e-20)
(0.997753 0.0103212 -1.67062e-20)
(1.05397 0.050019 3.3442e-20)
(1.17723 -0.187057 -5.75532e-21)
(0.993364 -0.0292824 2.40653e-22)
(0.938893 0.0505964 -1.40768e-20)
(0.945767 0.0170396 -3.61625e-20)
(0.996994 -0.0072098 -1.57195e-23)
(0.9542 -0.0411969 2.81449e-22)
(1.01733 0.0727065 3.62744e-21)
(1.02231 -0.149664 -9.8048e-22)
(1.10373 -0.0894629 6.6695e-22)
(1.10996 0.148351 1.89408e-20)
(0.991005 -0.000449575 -6.58387e-23)
(0.89508 0.0266065 2.74595e-20)
(1.03805 -0.0735427 -8.99271e-23)
(1.17622 0.114568 3.17128e-21)
(0.989707 -0.0103253 1.68637e-23)
(0.996327 0.0105195 -7.12591e-21)
(1.07122 0.122226 -5.7443e-21)
(1.09404 -0.0220613 -1.96008e-21)
(1.1193 -0.0959634 -4.70902e-22)
(1.26694 -0.0226634 6.70234e-22)
(1.23702 0.0649428 4.87632e-22)
(0.999484 -0.00543454 8.99133e-25)
(1.01413 0.0601172 -6.68128e-21)
(1.31064 -0.0339008 3.59092e-21)
(1.11956 0.0709415 1.38166e-20)
(0.890464 0.0563274 4.21779e-20)
(1.27178 -0.0941588 1.15016e-21)
(1.07874 -0.0832071 -1.25261e-21)
(1.00014 -0.00898585 -1.22952e-22)
(1.26881 0.0793889 2.62125e-21)
(1.27619 0.0258212 2.8007e-22)
(0.973614 -0.0260379 8.53438e-22)
(1.09221 0.136816 -1.8754e-21)
(1.00002 -0.00141678 -2.4848e-23)
(0.971578 -0.0463278 -1.49648e-22)
(1.01575 -0.0159538 -1.92536e-22)
(1.25386 -0.0620429 6.51812e-23)
(0.989248 -0.0491698 4.08303e-22)
(0.999615 -0.000131652 7.99978e-25)
(0.988179 -0.0641659 1.28526e-21)
(1.22382 0.100644 -2.53794e-21)
(1.18815 -0.178274 -2.12892e-21)
(1.0541 -0.0771734 -1.38975e-22)
(0.958892 -0.0279335 -4.75312e-22)
(1.24729 0.0332666 -2.563e-21)
(1.18944 -0.0258516 1.84499e-21)
(0.973224 -0.0601813 -3.91428e-22)
(0.951106 -0.00881451 3.93101e-22)
(1.00091 -0.00514612 -1.5366e-23)
(1.14603 -0.083827 6.67665e-22)
(1.03601 -0.160645 -1.60244e-22)
(1.01284 -0.00331069 2.57636e-23)
(1.04006 -0.0786228 1.08994e-21)
(1.20155 0.0947406 -5.91747e-21)
(1.05552 0.0463076 -2.03798e-20)
(1.22419 0.0156965 8.11479e-22)
(0.999293 -0.000253014 7.6053e-24)
(0.924972 0.0992808 -3.18384e-20)
(1.013 -0.00169063 7.54582e-23)
(0.999936 -0.00153401 2.97353e-23)
(1.04339 -0.0109424 2.5203e-22)
(0.958531 -0.0415997 -4.62111e-22)
(1.01334 -0.103301 1.25709e-22)
(0.954619 0.0546876 -1.66824e-20)
(1.02707 -0.0604993 9.47004e-23)
(1.15542 -0.00525181 -1.68101e-21)
(1.02906 -0.138992 2.28853e-21)
(1.02571 -0.141613 -2.9514e-21)
(1.11309 0.144111 -1.31722e-20)
(0.995057 -0.057526 -3.61572e-22)
(0.993185 -0.0907574 5.73569e-22)
(1.00385 -0.117353 9.38313e-22)
(0.999724 -3.97845e-05 6.43661e-24)
(1.19947 -0.0956513 -2.43259e-21)
(0.915041 0.0941455 -3.02159e-21)
(1.09928 -0.189911 8.78582e-22)
(0.956068 -0.0529944 -1.00108e-22)
(1.09151 0.131116 -2.45195e-22)
(0.980468 -0.0569259 -7.76465e-23)
(1.06716 0.0789397 -7.31438e-21)
(1.19342 0.134276 -8.90716e-22)
(0.996183 -0.00561959 8.79101e-23)
(0.998738 -0.000154211 -2.44975e-23)
(1.04206 0.0751232 2.30303e-21)
(0.893692 0.0700298 1.37481e-20)
(1.08032 -0.190088 2.23988e-22)
(1.16283 0.147794 1.67343e-21)
(1.23449 0.104649 -6.60045e-21)
(0.962746 -0.0468581 -2.10564e-22)
(0.962719 -0.049316 -5.04119e-22)
(1.01886 0.0759131 -9.92907e-22)
(1.10935 -0.0111384 1.38601e-21)
(1.19931 -0.180704 4.4483e-21)
(1.08151 -0.154225 -2.07846e-21)
(0.980443 -0.00152633 3.50822e-23)
(1.06779 -0.0159381 7.33255e-22)
(0.942483 0.0265456 -6.27071e-21)
(1.1533 0.0110388 -1.11879e-20)
(1.00028 -9.51167e-05 1.89777e-24)
(0.962147 0.0819318 2.89089e-20)
(1.04112 -0.0698817 -1.05507e-21)
(1.01498 -0.105137 1.65409e-21)
(1.05412 0.136346 -1.09032e-20)
(1.01877 -0.0259017 -2.0362e-22)
(0.988891 -0.00982778 -6.14449e-23)
(0.999327 -0.000453437 2.17805e-24)
(1.17842 -0.0708438 -2.09409e-22)
(0.961403 -0.0210306 -3.24385e-22)
(1.00028 -1.72221e-05 2.18587e-24)
(1.16588 0.150028 -4.11354e-21)
(1.28382 -0.128302 -1.91381e-21)
(1.01203 0.0586926 -1.1554e-20)
(0.999371 -8.53031e-05 -4.78868e-24)
(1.00016 -0.00459681 -1.36963e-23)
(0.97923 -0.0584748 -3.83807e-22)
(0.999998 -0.000117465 2.01262e-25)
(1.08204 -0.195989 -1.13806e-21)
(1.21862 -0.173529 -2.07867e-21)
(0.999557 -0.0045961 9.1223e-24)
(1.01076 -0.0823336 -4.93826e-22)
(0.943378 -0.015307 2.14242e-22)
(1.05334 0.123537 -1.22205e-21)
(0.984308 0.102696 6.80004e-21)
(0.996652 -0.00476986 1.68814e-23)
(1.00334 -0.00120032 1.73812e-23)
(0.999517 -0.111207 -2.39169e-21)
(0.980253 0.0931221 2.17983e-20)
(1.00509 -0.0370679 4.47869e-22)
(0.976341 0.0600253 -7.51e-22)
(0.979974 -0.012474 -2.72937e-23)
(0.889964 0.0433193 -1.1449e-20)
(1.0423 0.0150738 -2.5082e-21)
(1.14654 0.0670097 -1.36444e-20)
(0.90749 0.0554894 -1.25154e-20)
(1.30715 -0.0220231 9.84354e-23)
(0.990106 -0.00283686 -1.46372e-24)
(1.17955 -0.056203 1.18923e-22)
(1.00992 -0.0383253 -4.84482e-23)
(0.987353 0.0928119 5.50178e-21)
(1.01774 0.0658453 1.5686e-20)
(0.970429 -0.00799256 1.06891e-22)
(1.2904 -0.089991 4.97801e-21)
(1.13896 -0.0245153 -2.2906e-22)
(1.07583 -0.0882488 -8.87017e-22)
(0.996181 -0.000267685 3.04909e-23)
(1.29849 -0.104665 4.64966e-21)
(1.00026 -4.32047e-05 3.10034e-24)
(1.0503 0.119725 6.82136e-21)
(0.942652 -0.014349 -7.25412e-22)
(0.991947 -0.0720535 -2.31233e-22)
(0.995535 -0.0339083 2.52951e-22)
(1.00852 -0.0657392 1.79469e-21)
(1.17295 0.109467 9.67725e-22)
(1.22044 0.0214323 -2.99135e-21)
(0.998615 -4.8146e-05 -8.44138e-23)
(1.03025 -0.0580155 -7.48217e-22)
(0.999881 -0.000158028 3.52784e-25)
(0.892379 0.040154 8.5434e-21)
(0.947403 0.0239294 1.28835e-20)
(0.995262 -0.000985167 1.65407e-23)
(0.970105 -0.0133624 -1.55342e-22)
(1.03909 -0.0423353 -1.36466e-22)
(1.01964 0.0691594 6.74484e-21)
(0.937483 -0.0238288 -4.98883e-22)
(1.23688 0.108669 -1.45154e-21)
(0.958472 -0.0542822 1.39688e-22)
(1.00497 0.0949052 -4.92805e-22)
(1.15045 0.0717251 -1.53869e-21)
(0.96019 -0.0230432 -2.41578e-22)
(0.904073 0.0212709 -1.76073e-20)
(1.05959 -0.00276402 -6.35748e-22)
(1.01399 0.100563 -1.4686e-20)
(0.991763 -0.0151102 1.00659e-23)
(1.0391 -0.170755 4.70391e-21)
(0.979557 0.00403976 -4.17646e-20)
(1.01697 -0.0481891 5.63446e-22)
(0.890974 0.0750511 -6.24101e-21)
(1.02929 0.0806461 8.62054e-22)
(0.906419 0.0238583 -4.20557e-21)
(0.990515 -0.00295181 3.96789e-24)
(0.993061 -0.000503823 -5.7151e-23)
(1.03614 -0.106105 -5.02113e-22)
(1.19103 -0.0424841 -1.29967e-21)
(1.0173 -0.0257005 2.1845e-22)
(1.03448 -0.0956433 -1.69751e-22)
(1.00985 0.0888335 1.33107e-21)
(1.00365 0.102711 4.57374e-21)
(1.04414 0.00287719 4.13106e-24)
(0.983505 0.0909377 -1.55826e-20)
(0.8982 0.0809314 3.41684e-21)
(1.14889 0.122532 1.08299e-20)
(0.999228 0.00508918 -2.86168e-20)
(1.05005 0.0389896 -6.45376e-21)
(1.00579 -0.0194789 -3.23668e-22)
(1.03865 0.0771813 -7.59897e-22)
(0.991306 -0.0901761 -4.94506e-22)
(0.96044 -0.0529549 3.663e-22)
(0.99862 -0.00127575 3.48213e-25)
(1.06835 -0.0887165 2.09988e-21)
(1.14173 -0.1661 -6.218e-22)
(1.09118 0.0458644 5.29365e-21)
(1.09664 -0.0103669 2.48195e-21)
(1.00221 0.0284811 2.33528e-21)
(1.011 -0.0562928 1.13447e-21)
(1.14155 -0.0144594 1.49595e-21)
(1.00326 0.0220707 -2.71761e-21)
(1.01133 -0.0401717 6.70883e-22)
(1.11556 -0.101001 1.09665e-21)
(0.999912 -0.000185734 2.97297e-26)
(1.00047 -0.000242388 2.61494e-24)
(1.08988 0.0413586 -3.68599e-23)
(0.993157 -0.0776261 -6.69473e-22)
(0.967292 -0.0493577 5.87896e-22)
(1.00053 -0.000231288 -3.91837e-24)
(1.00002 -0.00317457 1.86709e-23)
(1.13827 -0.0291532 -3.85845e-22)
(0.999525 -5.77885e-05 8.42235e-24)
(1.27283 0.0577825 -1.79263e-22)
(0.895762 0.0321348 2.21598e-20)
(1.15718 0.150602 6.38128e-22)
(1.12804 0.0817764 -4.442e-22)
(0.966962 -0.0077355 -1.52258e-22)
(1.03113 0.107146 5.32594e-21)
(1.26202 0.0844541 -1.54643e-21)
(1.00564 -0.0345191 -2.69677e-23)
(0.970436 -0.0150524 -1.59256e-22)
(0.997141 -0.00404245 -2.71073e-27)
(0.999275 -0.000397785 -2.13344e-24)
(1.00194 -0.00525366 -3.62983e-23)
(0.996285 -0.0360609 2.15366e-22)
(1.05789 -0.168277 2.65887e-21)
(1.11101 0.10091 1.6308e-20)
(1.21985 -0.039758 -1.987e-23)
(0.966381 -0.00349527 4.36776e-23)
(0.999891 -0.000123411 2.5381e-25)
(1.00053 0.0587787 1.56005e-20)
(1.28463 -0.00561247 1.32053e-21)
(1.29753 -0.0604401 1.15848e-21)
(1.01977 -0.0495277 -6.30822e-22)
(1.24121 0.0841016 2.68901e-21)
(1.06634 -0.0922626 -5.867e-22)
(0.985074 -0.000832801 -3.45039e-23)
(1.00188 0.0169282 1.36423e-20)
(0.980914 0.000737591 -5.39206e-20)
(1.07485 0.149438 -1.41168e-20)
(0.991032 -0.000372548 5.13844e-23)
(1.07174 0.148602 1.09802e-20)
(0.969011 -0.00544494 4.74489e-23)
(0.983714 -0.0530899 -4.91392e-22)
(1.14073 0.142947 -1.22961e-20)
(1.00026 -0.000116817 3.46953e-24)
(0.988416 -0.0342249 -5.65381e-23)
(1.18593 0.1117 3.2141e-21)
(1.14432 0.111866 1.24079e-20)
(0.961372 -0.0250876 -5.18145e-23)
(1.02388 0.0693508 1.03206e-21)
(0.953795 0.106217 -1.37829e-21)
(1.01568 0.0337258 -3.13874e-20)
(0.956366 -0.0426754 7.29831e-22)
(0.95221 -0.00873571 -2.11491e-22)
(1.05804 -0.0728579 -2.45948e-22)
(1.13037 -0.0019723 3.34592e-22)
(1.02295 0.0155803 -7.63026e-21)
(0.995217 -0.00138371 2.90843e-24)
(0.976038 0.00967134 -1.5647e-20)
(0.991945 -0.0542404 1.16203e-21)
(1.04489 -0.170015 -3.20873e-21)
(1.17484 -0.0501205 3.53706e-22)
(0.921248 0.101121 4.5258e-20)
(1.11277 0.106847 -1.34665e-20)
(1.01437 0.0660637 -1.64899e-20)
(1.22782 -0.16501 1.03571e-21)
(0.965416 0.0021958 -2.4035e-20)
(0.963415 -0.0207837 3.23163e-22)
(0.985305 -0.051028 3.56809e-22)
(0.92721 0.0109388 8.42302e-21)
(1.09047 -0.0310519 -5.45253e-22)
(1.0571 -0.155639 -4.55149e-22)
(1.01576 0.0929637 -3.37719e-21)
(1.00336 0.091106 -1.04009e-20)
(0.973599 -0.0447197 -5.31706e-22)
(1.02838 0.0203905 -1.7251e-20)
(0.980624 0.0971385 -2.89367e-21)
(1.00443 0.0844166 1.35831e-20)
(1.04283 0.126277 4.39583e-21)
(1.01166 0.0929047 2.18697e-20)
(1.06287 0.0865851 -1.14621e-20)
(0.986352 -0.00360212 2.89706e-23)
(0.964466 -0.0226964 4.10197e-22)
(1.003 -0.00849961 -1.98375e-23)
(1.01891 -0.139951 3.28955e-21)
(0.994002 0.0201156 -4.0318e-21)
(1.02621 -0.147818 1.92577e-21)
(1.20473 0.105725 -2.94819e-22)
(1.17263 0.0620994 -7.71893e-21)
(0.968227 -0.05754 4.24532e-22)
(1.26591 0.0553219 2.63672e-23)
(1.19371 0.125662 -3.0274e-21)
(0.993424 0.00775954 -1.23415e-21)
(1.25698 0.0439962 9.72345e-22)
(0.999591 -0.00383605 -5.05856e-24)
(1.07169 -0.015464 5.63232e-23)
(0.98309 -0.0574145 2.38297e-22)
(1.27129 -0.0601798 1.12711e-22)
(1.28882 -0.0565534 -2.42701e-21)
(1.03124 -0.156958 6.2216e-22)
(1.0441 0.121209 2.49004e-21)
(0.970206 0.104586 2.31184e-20)
(1.20346 -0.0233071 1.14008e-21)
(0.997539 0.00629224 1.2671e-20)
(0.89291 0.0654061 -1.53424e-20)
(0.998713 -9.40759e-05 2.21011e-23)
(1.0037 -0.00122576 -5.87091e-25)
(0.996206 -0.00622248 -3.89736e-23)
(0.97107 -0.00848706 2.90509e-23)
(1.09133 0.0958307 -8.83058e-21)
(0.926908 0.0124587 -1.82793e-20)
(1.15543 0.0150576 9.65241e-21)
(1.03283 0.11483 3.20777e-21)
(0.97917 -0.0265985 -2.72134e-22)
(1.08253 0.137737 1.86065e-20)
(1.07862 0.145754 5.94864e-21)
(1.27708 -0.119337 7.06847e-22)
(0.95584 -0.0125088 2.5639e-22)
(0.939172 -0.0223985 3.19168e-22)
(1.20914 0.110015 7.48958e-22)
(1.01462 -0.0494039 2.37627e-22)
(1.21784 -0.0342964 2.28181e-22)
(0.964932 -0.0455473 1.13741e-22)
(0.94306 -0.0442403 -9.77131e-22)
(1.02259 0.0962594 2.41108e-20)
(0.991654 -0.00249531 2.03377e-24)
(1.03158 -0.0664875 -1.81554e-22)
(1.00528 0.101159 1.13273e-20)
(1.26455 0.0465285 3.16634e-21)
(0.930904 0.0854037 5.13558e-21)
(1.02128 -0.099123 -8.77305e-22)
(1.04719 0.0133327 8.21435e-21)
(1.28031 -0.0642391 2.67724e-21)
(1.00109 -0.0819969 2.7518e-22)
(0.979529 0.00718582 -5.73834e-21)
(0.990481 0.000461084 3.49246e-20)
(0.990337 0.0287408 -6.26465e-21)
(0.992819 -0.0383504 -4.85523e-22)
(0.938963 0.0157255 1.98387e-20)
(0.958758 -0.0390904 3.64877e-22)
(0.969111 0.0770858 7.36135e-22)
(1.1425 -0.0673558 6.75169e-23)
(0.98556 0.0490761 -3.55289e-21)
(0.979641 -0.0546389 3.01008e-22)
(1.00003 -0.000255624 -2.86296e-25)
(0.985928 0.0428215 1.17985e-20)
(0.967263 0.068976 1.37786e-20)
(0.971412 0.0842583 -2.21388e-20)
(0.987578 0.0363418 -1.37284e-20)
(1.08239 0.00657952 -2.84932e-20)
(1.15095 -0.0148096 -7.38534e-23)
(1.07773 0.0836467 -2.20382e-20)
(1.05308 -0.151023 1.17198e-21)
(0.996797 0.0152275 4.13144e-20)
(1.02352 0.0621186 -2.04231e-20)
(1.27839 -0.0113269 -1.56564e-21)
(1.10007 -0.0134493 -2.63865e-21)
(0.98679 -0.00340331 1.46512e-23)
(1.31224 -0.0155895 -4.3034e-22)
(1.02953 0.0995576 -4.06045e-21)
(0.94471 -0.0337508 2.11825e-23)
(0.969433 -0.00461179 -1.11534e-22)
(0.992811 0.00412744 -8.20705e-21)
(0.979963 0.0525402 -2.53436e-20)
(0.988423 -0.0624764 -5.28024e-22)
(0.988287 0.0577458 1.85066e-20)
(1.03509 -0.166553 1.11077e-21)
(1.24029 0.0777346 -4.44758e-21)
(0.994341 -0.000283051 9.3701e-23)
(0.973879 0.0562912 -1.42646e-20)
(0.966836 0.0608612 3.63338e-20)
(0.902241 0.0357501 3.42509e-20)
(0.97685 0.0997206 3.00983e-20)
(0.997171 -0.000336526 1.42286e-23)
(0.97934 -0.0289502 1.79336e-22)
(0.998439 -0.00131074 -2.38094e-24)
(0.996888 -0.0861683 -2.18296e-21)
(0.932841 0.0656074 -7.31534e-21)
(1.14311 0.0908704 -1.80516e-20)
(1.03903 0.109369 -2.40483e-22)
(0.943717 -0.0422927 6.17474e-22)
(1.05047 0.0425157 2.02517e-20)
(1.0417 -0.0412307 1.12985e-22)
(0.93141 0.0758481 1.0589e-20)
(1.10513 -0.110178 -5.84776e-22)
(0.996091 0.00556272 1.40196e-20)
(0.994498 -0.000281948 5.00675e-23)
(0.942041 0.0620402 -2.44404e-20)
(0.922546 0.0802194 -2.95534e-20)
(0.97728 -0.030329 -4.77877e-22)
(1.20357 0.0486095 3.4307e-21)
(0.944297 0.052145 -2.43728e-20)
(0.996546 -0.00052115 -7.90055e-23)
(0.917749 0.0360685 -3.84473e-21)
(1.05528 -0.0818761 2.28323e-22)
(0.996724 -0.000342422 3.26398e-23)
(0.953724 -0.0139072 -1.82726e-22)
(1.01404 0.104395 -1.43694e-20)
(1.16992 0.080813 -1.02007e-20)
(1.01181 -0.117203 1.47534e-21)
(0.991357 0.100851 1.18507e-21)
(0.916879 0.0902517 1.96646e-21)
(1.07816 0.140728 -2.01944e-20)
(1.0639 -0.0120307 -4.1141e-22)
(0.999412 -0.0762094 4.30382e-22)
(1.17495 -0.0643755 -8.18179e-24)
(0.980543 0.0594959 2.08841e-20)
(0.925977 0.0364795 -2.22054e-21)
(0.898107 0.0344205 2.21366e-21)
(1.14148 0.0792025 2.79039e-21)
(1.00044 -0.0114169 2.79072e-23)
(0.978279 -0.00169835 -4.96734e-23)
(1.03229 0.10282 -1.44285e-20)
(1.00206 -0.00883884 2.14171e-23)
(0.983355 -0.00536966 2.35575e-25)
(1.00331 -0.0139817 -1.5709e-23)
(0.992738 -0.0334026 -2.3789e-22)
(1.10913 -0.164875 2.26971e-21)
(1.21393 -0.15276 -1.44085e-21)
(0.956708 0.0824795 -3.22493e-20)
(1.02317 -0.0548808 2.07091e-23)
(0.998826 -0.00105374 2.06043e-25)
(1.03045 0.0650113 -3.22798e-22)
(1.16585 0.110487 8.59321e-21)
(1.00199 -0.0141469 -3.21346e-23)
(1.21541 0.0893675 -4.06759e-21)
(1.00199 -0.00146787 3.39877e-24)
(1.16021 0.0623177 9.45165e-22)
(1.01587 0.035551 2.20123e-20)
(0.985975 0.055143 -3.58893e-20)
(1.17632 -0.164699 1.65194e-21)
(1.18544 0.0487293 -4.98269e-21)
(0.992755 -0.0155053 -3.58955e-23)
(1.14179 -0.10753 1.81821e-22)
(0.994777 -0.00174605 1.7435e-24)
(0.976283 0.0670343 -3.69854e-20)
(0.955114 0.0800927 9.95584e-21)
(1.24847 -0.153382 1.31778e-21)
(1.20849 -0.171326 1.35481e-21)
(1.16666 -0.182392 4.71314e-21)
(1.03964 -0.0977664 7.79079e-22)
(0.987647 0.0965261 2.48989e-21)
(1.04249 -0.088909 4.97164e-22)
(1.13328 -0.15149 7.66781e-22)
(1.09371 -0.182887 -1.05958e-21)
(1.13296 -0.0946548 -8.0944e-22)
(0.909939 0.0359681 1.8731e-20)
(1.17122 -0.201228 -8.61257e-21)
(1.25955 0.0189537 -1.3738e-22)
(0.985721 0.016634 7.18135e-21)
(0.995418 -0.000401122 -4.85725e-23)
(1.20891 0.026774 1.72289e-21)
(1.04501 -0.0796683 -7.56922e-22)
(1.09245 -0.167705 1.82166e-21)
(0.995461 -0.00102671 -5.64409e-24)
(0.999614 -0.00323902 -1.41873e-23)
(0.908487 0.0460093 -3.19236e-20)
(1.0588 0.04495 1.54428e-20)
(1.24479 -0.163459 5.20822e-21)
(1.306 0.0129165 -3.10452e-22)
(1.06161 0.0763402 -8.34411e-21)
(0.991926 0.0567005 -2.89849e-21)
(1.02616 0.0658313 6.20639e-21)
(1.25308 -0.0837211 -2.43104e-21)
(0.980644 -0.0616202 7.92385e-22)
(0.993387 -0.0518822 -3.09134e-22)
(0.984579 -0.0554737 -8.34789e-23)
(1.03864 0.0671385 -2.06081e-20)
(0.968876 -0.00589045 1.27221e-22)
(1.00499 -0.0775969 6.5593e-22)
(0.999715 -4.2153e-05 -2.19962e-24)
(0.966475 -0.0223107 -6.72066e-22)
(0.997659 -0.000608399 -1.05358e-24)
(1.13428 -0.170269 1.73765e-21)
(1.00831 0.101569 -1.34597e-20)
(1.06468 -0.154554 6.86068e-22)
(0.979484 0.0846458 1.36095e-21)