/*--------------------------------*- C++ -*----------------------------------*\
  =========                 |
  \\      /  F ield         | OpenFOAM: The Open Source CFD Toolbox
   \\    /   O peration     | Website:  https://openfoam.org
    \\  /    A nd           | Version:  7
     \\/     M anipulation  |
\*---------------------------------------------------------------------------*/
FoamFile
{
    version     2.0;
    format      ascii;
    class       volVectorField;
    location    "22.5";
    object      U;
}
// * * * * * * * * * * * * * * * * * * * * * * * * * * * * * * * * * * * * * //

dimensions      [0 1 -1 0 0 0 0];

internalField   nonuniform List<vector> 
20933
(
(0.997496 -0.000254446 -2.114e-24)
(0.989946 -0.000765795 3.74017e-22)
(1.02624 -0.00349073 -5.41074e-23)
(1.00028 -4.01843e-05 -1.63873e-24)
(1.00074 -0.00888977 6.31861e-23)
(1.00041 -0.00944278 -6.16782e-23)
(1.04262 -0.164833 -7.94853e-22)
(1.09988 0.0678414 -1.59343e-20)
(1.00733 -0.081464 -1.99924e-21)
(1.10517 0.0687845 1.14214e-20)
(1.05365 -0.14774 -2.29287e-21)
(1.19984 0.121824 -5.67708e-22)
(0.986967 -0.0525833 -3.32389e-22)
(0.997348 -0.0003032 -2.16161e-25)
(0.995944 -0.00327615 7.56642e-23)
(1.00027 -5.04751e-05 -1.46791e-24)
(1.27391 -0.0152034 -3.64547e-23)
(1.11269 0.00159297 -8.62129e-21)
(1.00637 -0.123331 -1.46586e-21)
(0.992142 -0.000369354 -3.27777e-22)
(1.01967 -0.0937182 2.58016e-21)
(1.19545 0.121063 -1.0118e-21)
(1.1074 0.0746618 -8.61626e-21)
(1.14064 -0.187659 -1.50234e-21)
(1.02436 -0.00157364 5.89956e-24)
(0.993294 0.0821296 -2.53326e-20)
(1.00905 -0.00263191 -8.92845e-24)
(0.995335 -0.0567153 1.08521e-21)
(1.1923 -0.173762 -1.31736e-21)
(1.00901 -0.124651 5.086e-21)
(0.998773 -0.00215124 -1.15987e-24)
(0.945117 0.014744 3.89472e-20)
(1.13819 0.114725 6.92854e-21)
(0.992805 -0.0328188 1.16568e-22)
(1.00006 -0.00160883 6.99366e-24)
(0.998831 -0.00232252 -3.95714e-24)
(1.09257 0.0858354 -1.72598e-20)
(0.999913 -3.40431e-06 -2.3215e-24)
(1.0149 -0.0191625 3.87448e-23)
(1.12286 0.00319366 -2.96755e-21)
(1.04097 -0.00813928 4.01057e-23)
(1.10593 0.138853 1.22298e-20)
(1.03313 0.0421855 -7.26036e-21)
(1.00807 -0.00305969 7.49856e-24)
(0.993001 0.0788855 1.00122e-20)
(0.978519 -0.00150492 2.11004e-22)
(1.09497 0.0099719 -2.43532e-20)
(1.2495 0.0634013 -2.41906e-21)
(0.999614 -9.94437e-05 -1.29105e-24)
(0.974845 -0.0461618 1.75945e-22)
(0.999965 -0.00171253 -1.74613e-23)
(1.07542 -0.00859792 2.02656e-21)
(1.19291 -0.108292 2.75999e-21)
(1.00037 -0.00381063 -2.40394e-23)
(1.23257 -0.108971 -7.91554e-22)
(0.950875 -0.017935 -1.58746e-22)
(0.979682 -0.0307623 4.78955e-23)
(0.998648 -0.00279294 1.89132e-24)
(1.01061 -0.0473508 -1.11842e-21)
(1.2695 -0.0109408 1.09623e-22)
(0.974702 0.0288579 2.11376e-20)
(0.969374 -0.00432292 4.01886e-22)
(0.989398 -0.00330652 -1.0711e-22)
(1.11798 0.0681598 -7.42114e-22)
(0.999424 -8.8789e-05 8.38363e-24)
(0.995714 -0.00798629 3.18582e-24)
(0.995408 0.0565852 6.42671e-22)
(0.995202 -0.0083414 5.44655e-23)
(1.12259 -0.0738256 9.12223e-22)
(0.998951 0.08345 9.45538e-21)
(1.04097 -0.041852 1.30709e-22)
(1.28113 -0.0460482 -7.13026e-22)
(0.996325 -0.00328272 -1.74026e-23)
(0.984999 -0.0384474 1.07705e-21)
(0.999734 0.0104592 -9.4825e-21)
(1.07705 -0.083975 4.61364e-22)
(0.999173 0.0779786 4.38948e-21)
(0.960745 -0.00493639 1.29964e-22)
(1.12079 0.00193984 1.87732e-21)
(1.00321 0.0322199 1.38935e-20)
(0.996584 -0.00830583 1.57225e-22)
(1.00222 -0.00449549 -1.83514e-23)
(1.17313 -0.17651 1.06023e-21)
(1.00822 -0.0788368 1.66379e-21)
(0.972368 -0.00342528 -4.43175e-22)
(1.03086 0.0397327 3.50099e-20)
(0.989673 -0.0490051 -6.16332e-22)
(0.902152 0.0512991 3.66693e-21)
(1.11432 0.0636639 -6.9708e-21)
(0.979755 0.0832914 1.60546e-20)
(1.10813 0.0258961 -9.41542e-21)
(1.00034 -7.00355e-05 1.52964e-24)
(1.00004 -0.000310531 7.87117e-24)
(0.95347 0.00476019 -1.0854e-20)
(1.25503 0.0578591 1.22245e-21)
(0.989834 -0.00347992 -5.83899e-23)
(0.962332 0.00307424 1.66413e-20)
(0.999487 -0.00454337 2.03393e-23)
(1.05777 -0.142546 -9.71912e-22)
(1.06918 0.0146842 -9.34652e-21)
(0.97676 0.0855831 -4.75395e-20)
(0.976587 -0.0104439 4.31911e-23)
(0.968257 0.078497 -5.19609e-20)
(1.1782 -0.0986638 2.03964e-21)
(1.10079 -0.00291245 -5.31358e-21)
(1.10306 -0.080525 -2.49136e-22)
(1.02247 0.092976 1.79056e-20)
(1.16426 -0.0814629 -1.99092e-22)
(0.989725 -0.000439921 -2.96179e-22)
(1.03846 0.105723 4.06431e-21)
(1.20077 -0.176936 -4.38981e-21)
(1.03751 -0.164428 -1.81735e-21)
(0.978826 -0.0241277 4.04323e-22)
(1.03375 -0.0216761 -2.62125e-22)
(1.07868 -0.0773976 3.85129e-23)
(1.00008 -9.30329e-05 -1.91223e-24)
(1.04785 0.0685855 1.71915e-20)
(0.997123 -0.00776968 -6.01853e-23)
(1.17139 -0.110931 5.81826e-22)
(1.00274 0.0256916 -3.28005e-20)
(1.00033 -5.14506e-05 2.87232e-25)
(1.03171 -0.0973675 1.57526e-21)
(1.13944 0.0204767 -3.98694e-21)
(1.0116 -0.0542089 -1.54136e-21)
(0.992669 -0.0311307 -1.07369e-22)
(1.11369 0.00344709 4.47199e-21)
(1.16737 0.127366 -1.63774e-20)
(0.995052 -0.0545819 8.86822e-22)
(0.938956 0.0175204 -1.13518e-20)
(1.04381 0.0706886 9.19035e-21)
(0.991455 -0.0630575 -8.59543e-22)
(0.974471 -0.0443873 -5.5925e-22)
(1.04108 -0.00423129 2.28695e-22)
(1.01404 -0.0176322 3.01567e-23)
(1.01775 0.0872508 -2.43312e-20)
(1.09733 -0.00554445 -1.42896e-21)
(1.22685 0.0779598 -3.49133e-21)
(1.02286 -0.094219 -1.09603e-21)
(0.981578 -0.0105755 4.02753e-22)
(0.993979 -0.083672 3.82137e-21)
(1.02789 -0.100535 2.85583e-22)
(0.983474 -0.0397548 -1.06055e-21)
(1.28207 -0.0576118 -8.05575e-22)
(0.96513 0.0857865 -1.63901e-20)
(1.20305 -0.00280636 1.66131e-21)
(1.0168 0.0898583 2.19874e-20)
(1.14277 0.141062 -1.75659e-21)
(0.969921 -0.0110189 -3.40068e-22)
(1.17455 0.119011 -1.14969e-20)
(1.01022 -0.00352361 2.36499e-23)
(0.969656 -0.0100468 6.7541e-22)
(1.00044 0.0818597 1.11516e-21)
(1.00006 -0.000267524 -5.02329e-24)
(1.00646 -0.0729414 6.37507e-22)
(1.00216 -0.00404147 3.07389e-23)
(1.1393 0.143869 9.61352e-21)
(1.02702 0.041455 -3.74027e-21)
(1.13547 -0.183933 6.75607e-21)
(0.946536 -0.0209327 3.24263e-22)
(0.986135 -0.0538887 6.9974e-22)
(1.23941 -0.117769 1.11211e-21)
(1.04676 -0.15903 1.2197e-21)
(0.998602 -0.0025788 -4.13166e-24)
(1.20026 0.00241574 -2.71201e-21)
(1.11478 -0.0027154 -8.42944e-22)
(0.904823 0.0534376 8.71746e-21)
(0.977731 -0.0106004 2.84353e-22)
(1.16643 -0.184046 4.06264e-22)
(1.07263 -0.0859975 -5.29365e-22)
(1.09344 0.0821862 -1.01745e-20)
(1.23162 0.0777793 1.14509e-21)
(0.988477 0.0628606 9.90016e-21)
(1.05827 0.123599 2.75414e-20)
(0.990012 -0.0286272 2.09975e-23)
(0.9192 0.0143164 -1.29574e-20)
(1.14261 0.11599 8.38643e-21)
(0.996827 -0.000644262 3.2076e-24)
(0.990138 0.0071143 -2.48972e-20)
(1.08482 -0.0755701 -6.47452e-23)
(1.03196 0.109767 7.77624e-21)
(1.01256 0.0952895 -1.11439e-20)
(0.999869 -2.76035e-06 2.81404e-24)
(0.962912 0.059865 7.05261e-22)
(1.05631 0.107735 2.34289e-20)
(0.991549 -0.000615302 2.20697e-23)
(0.945515 -0.0147943 1.73613e-21)
(1.04045 -0.0390587 -5.85095e-23)
(1.07506 0.0112043 -2.391e-21)
(1.17226 -0.104313 -8.34214e-22)
(0.933294 0.0455458 1.15603e-20)
(1.16548 0.123412 -5.62033e-21)
(1.24264 -0.0333737 5.16266e-22)
(1.06496 0.0110045 1.88036e-20)
(1.1212 -0.0675198 1.205e-21)
(0.947145 -0.0220131 8.23701e-22)
(1.19959 0.0918008 -7.05208e-21)
(0.963787 0.0630556 -7.75502e-22)
(1.24825 0.0245838 -3.18982e-21)
(0.993476 -0.000238792 -3.9829e-24)
(0.929497 0.0449955 -1.1296e-20)
(1.22032 0.0522751 -8.25639e-21)
(1.24522 -0.083044 6.79036e-22)
(1.19112 -0.101355 -2.00558e-21)
(0.940164 0.0522667 -1.39571e-20)
(0.955914 0.0550365 3.27194e-20)
(0.965889 -0.0248157 -3.57441e-22)
(1.00094 -0.0401664 -9.65462e-23)
(1.07535 -0.00508666 -2.7591e-22)
(0.951043 -0.0194513 -8.10158e-22)
(0.998762 -0.000116941 8.23678e-24)
(0.996865 0.0580815 -4.71531e-21)
(0.98831 0.0221513 -8.96862e-21)
(0.969126 -0.01404 5.7193e-22)
(0.957363 -0.0342706 5.05347e-22)
(1.03378 0.106695 1.19931e-20)
(0.999108 0.0180461 1.43554e-20)
(0.998761 -5.68108e-05 -1.57832e-23)
(1.00158 0.0207334 -2.22221e-20)
(1.16849 -0.0760415 -1.32942e-22)
(1.01505 -0.0155028 -3.01113e-23)
(1.0057 -0.0585725 1.08207e-22)
(1.03045 0.0652665 -1.85972e-21)
(0.956598 0.0950174 1.53087e-20)
(1.10522 0.0232343 1.24479e-20)
(1.03967 0.101416 -1.96036e-20)
(0.980416 -0.0105303 -6.83789e-22)
(1.00304 -0.0396205 -4.57367e-22)
(1.00011 -0.000100346 6.69696e-26)
(0.999136 -4.03453e-05 -2.20554e-24)
(1.00059 -0.00743459 1.24989e-22)
(1.13742 0.0177247 1.88469e-21)
(1.13702 -0.115123 -6.03144e-22)
(1.02436 0.0903609 -2.28316e-20)
(1.0026 -0.0979549 1.03071e-21)
(1.02169 0.0336624 1.34765e-20)
(0.991057 -0.0472415 -1.095e-22)
(1.09673 -0.077182 1.43705e-22)
(0.990683 0.061607 1.76762e-20)
(0.956045 0.00375313 5.61504e-20)
(1.03149 0.0618496 3.19624e-20)
(1.00148 0.0756443 -2.70426e-20)
(0.955734 -0.0335327 -4.47943e-22)
(1.10055 0.124525 -7.42564e-21)
(1.01253 -0.0524884 1.68358e-21)
(1.10427 -0.00464226 1.08978e-20)
(0.996953 -0.00700073 -1.06935e-22)
(1.27191 -0.0957623 -3.2095e-21)
(1.17275 -0.0490977 3.07938e-21)
(1.0836 -0.025416 3.11128e-21)
(0.99964 -7.60529e-05 1.53405e-24)
(0.98798 -0.000611037 3.57604e-22)
(0.95286 0.0969618 -2.3543e-20)
(1.16367 0.0459211 2.76919e-20)
(1.01432 -0.0206433 -5.60619e-23)
(0.971787 -0.0500877 -1.05146e-21)
(1.13112 -0.110801 1.69272e-22)
(1.07986 -0.17439 3.09999e-21)
(1.10158 0.13793 -1.53923e-21)
(0.995098 -0.0826684 -1.06713e-21)
(0.974578 -0.00182958 -4.0749e-22)
(0.997826 -0.0645239 1.25295e-21)
(0.993452 -0.0275602 -1.28016e-22)
(0.999371 -6.71518e-05 -8.35351e-26)
(0.990082 -0.0450647 5.61084e-22)
(1.05071 -0.158937 -5.76075e-22)
(0.964378 0.0823512 3.0982e-20)
(1.26424 0.0298489 1.36313e-21)
(0.980468 -0.0230111 -7.58725e-22)
(1.01939 0.0352951 -2.07979e-20)
(0.957575 0.0591483 -3.88798e-21)
(0.990348 -0.0509597 1.21032e-22)
(1.00063 -0.000265031 -9.21736e-24)
(1.00573 -0.0758629 -1.15202e-21)
(0.9957 0.0533592 5.45111e-21)
(1.2543 -0.135707 -2.10586e-21)
(0.976748 0.0267665 -3.18989e-20)
(1.00004 -0.000107381 9.27413e-25)
(0.959257 -0.0376838 8.84864e-22)
(1.04704 0.123675 2.21634e-21)
(0.999419 0.0172548 2.92141e-20)
(1.03187 -0.0724252 -2.59372e-22)
(0.98103 -0.0293598 5.02756e-22)
(0.939823 0.087301 2.50491e-20)
(1.23716 -0.0675564 4.50587e-23)
(1.23589 -0.0375515 -2.95116e-22)
(0.97198 0.0796244 2.14299e-20)
(0.935401 0.0515586 -2.3606e-21)
(0.989069 -0.0527118 -3.70933e-22)
(1.0455 0.126268 -1.42915e-20)
(1.14461 -0.00690066 -5.13726e-21)
(1.00471 0.0328725 -3.79552e-20)
(1.06198 0.0753345 1.04923e-20)
(1.00066 -0.000194339 1.13536e-23)
(1.27119 0.0324204 -1.04437e-21)
(1.08708 0.0791437 6.15676e-21)
(0.996726 -0.00055813 1.71384e-23)
(1.00131 -0.103406 -4.19463e-22)
(1.23433 0.0283882 -1.51748e-21)
(1.15182 -0.176492 -1.18395e-21)
(1.21843 0.0463355 4.72093e-21)
(1.17683 -0.0291872 -1.93989e-21)
(1.00011 -0.000174703 -1.61809e-24)
(0.999582 -0.00319993 5.40195e-23)
(0.98117 0.0946311 -3.80285e-20)
(1.00132 -0.0133934 -2.74205e-23)
(1.01317 -0.123653 -1.19714e-21)
(0.992364 -0.0681121 1.27399e-22)
(1.19238 0.11604 -6.06121e-21)
(0.971816 -0.00421033 -7.88452e-23)
(1.03317 0.112545 1.37508e-20)
(1.19243 0.0165194 6.24467e-21)
(0.995445 -0.0650735 7.37621e-22)
(0.958072 -0.00598055 -3.56452e-22)
(1.09797 0.0785927 1.10926e-21)
(1.18907 0.0892016 5.20555e-21)
(1.00007 -0.000178629 -1.60939e-24)
(0.977505 0.0587682 3.17056e-20)
(1.0431 0.0742437 4.62856e-21)
(0.992693 0.0152151 -7.73888e-21)
(1.23489 -0.0990074 -9.64501e-22)
(0.999462 -6.42839e-05 -6.78199e-24)
(0.941067 0.0839145 -1.6459e-21)
(0.997124 -0.00482374 -9.29091e-23)
(0.994298 -0.0498719 2.36781e-22)
(1.19553 0.0874043 -2.19159e-21)
(1.24055 0.0222225 3.99984e-22)
(0.982772 -0.052978 -9.05375e-22)
(1.23697 -0.0776934 8.70823e-22)
(1.02467 0.0394222 5.37002e-21)
(0.955116 0.00461131 2.04324e-20)
(1.01006 0.0863498 -2.88578e-20)
(1.16674 0.0223184 -8.11082e-21)
(0.909627 0.0192577 2.79449e-21)
(1.0003 -8.87658e-06 -9.6105e-25)
(0.991376 -0.0271251 -1.41657e-22)
(0.999945 0.00992781 3.86023e-20)
(1.19789 -0.146254 4.18503e-22)
(1.08639 0.0754722 -1.4531e-20)
(0.987057 -0.0389037 -4.3436e-22)
(0.995514 0.076931 2.69303e-20)
(1.17814 -0.00124807 4.03784e-21)
(1.00014 -0.0034852 3.11877e-23)
(1.17348 -0.005868 -3.51828e-21)
(1.04799 0.0637478 -2.21535e-20)
(1.16057 -0.155911 -5.16682e-24)
(0.972874 0.00672209 -5.78727e-21)
(1.06217 0.112493 3.30733e-21)
(0.99936 -0.000300954 -1.33352e-24)
(1.03568 -0.0195897 -6.18832e-22)
(1.12911 0.0964556 7.43381e-21)
(1.1113 0.000931245 1.65429e-20)
(0.998165 -9.34902e-05 1.92826e-23)
(1.05905 0.12023 -2.46074e-20)
(1.01286 -0.0465969 -1.30776e-22)
(0.893485 0.0519 -1.49641e-21)
(1.02401 -0.0991138 -2.08301e-21)
(0.968638 -0.0127239 2.36124e-22)
(0.988626 -0.000712705 -3.6397e-22)
(1.01117 0.0894747 3.21888e-20)
(1.05622 0.105001 -3.72646e-20)
(0.975582 -0.00262884 1.90009e-22)
(1.09615 0.0725473 3.91656e-21)
(0.979394 0.0793111 -9.27297e-21)
(1.0014 -0.0143719 -3.71749e-23)
(1.04512 0.00597251 5.45993e-21)
(1.0235 0.0167401 -1.51753e-20)
(0.898586 0.0292251 1.84745e-20)
(0.997514 -0.00403429 2.80917e-23)
(1.17072 0.0962668 -1.23348e-20)
(1.16766 -0.0542579 -8.14844e-22)
(0.949528 -0.0174776 -2.87091e-22)
(0.999639 -5.966e-05 -1.12436e-24)
(0.999768 0.00553767 2.32465e-20)
(1.10765 0.142202 7.15612e-21)
(1.24384 -0.000473627 -5.92129e-21)
(0.989455 0.0945612 -9.76356e-21)
(1.16183 0.0255366 4.01954e-21)
(0.977987 -0.0303674 3.5705e-22)
(1.10357 0.120346 -5.53791e-21)
(1.11372 -0.00153087 -2.78953e-21)
(1.15772 0.0425006 7.96499e-21)
(0.903037 0.0314961 -4.83378e-20)
(1.0259 -0.0866305 7.10779e-22)
(1.20411 0.0792141 2.8045e-21)
(0.991227 0.0198089 -2.02907e-20)
(0.970458 -0.0509305 9.5419e-22)
(1.13908 -0.0174445 4.10644e-22)
(1.06473 -0.142643 2.26102e-21)
(1.13162 0.0920488 -3.29764e-21)
(0.99469 -0.00017886 -5.22138e-22)
(1.09912 0.0109768 -2.73991e-21)
(1.24442 0.00717157 2.64202e-21)
(1.20666 0.0739435 6.88629e-21)
(1.00121 -0.00445498 8.18639e-23)
(1.09252 0.00748696 2.57882e-20)
(0.997476 0.0120071 -1.94265e-20)
(1.04983 0.0448884 3.97334e-20)
(1.15158 -0.171807 -4.77751e-21)
(0.994634 -0.0259858 2.84099e-22)
(0.943619 0.0481188 -1.62516e-20)
(0.945683 0.0169843 -4.17849e-20)
(0.997448 -0.00655173 -2.34296e-23)
(0.960936 -0.0368285 4.04152e-22)
(1.01675 0.0655929 4.24738e-21)
(1.01778 -0.129663 -9.78077e-22)
(1.0906 -0.0803674 -3.63693e-23)
(1.10006 0.133299 2.31261e-20)
(0.990371 -0.000473317 4.54021e-22)
(0.8947 0.0264173 3.14742e-20)
(1.03336 -0.0646457 -6.00406e-23)
(1.16082 0.103574 4.05387e-21)
(0.991086 -0.00949662 3.58996e-23)
(0.995859 0.0120987 -8.2825e-21)
(1.06555 0.109709 -6.86587e-21)
(1.08375 -0.0198861 -3.24415e-21)
(1.10414 -0.0867405 -1.40293e-22)
(1.2435 -0.0266895 -6.64587e-22)
(1.21784 0.0569575 8.58396e-22)
(0.999642 -0.00493417 1.59735e-25)
(1.01368 0.0541371 -7.8335e-21)
(1.2877 -0.0396435 1.49031e-21)
(1.109 0.063496 1.70936e-20)
(0.895698 0.054651 4.84015e-20)
(1.24495 -0.0941081 6.48826e-22)
(1.06875 -0.0739968 -1.95903e-22)
(1.00028 -0.00807684 -1.25626e-22)
(1.25002 0.0704767 5.31012e-21)
(1.25476 0.0188409 1.73006e-21)
(0.977405 -0.0235242 1.29509e-21)
(1.08426 0.122793 -2.20609e-21)
(1.00004 -0.00130311 -2.74099e-23)
(0.976036 -0.0409468 -1.94744e-22)
(1.01416 -0.0140734 5.05097e-23)
(1.22894 -0.0628289 -5.9716e-23)
(0.991247 -0.0432433 4.71428e-22)
(0.999624 -0.000128313 1.64687e-25)
(0.990341 -0.0561149 1.42049e-21)
(1.20581 0.0908911 -3.65744e-21)
(1.16194 -0.164714 -1.71081e-21)
(1.04727 -0.06811 -8.07436e-23)
(0.964403 -0.025448 -7.35725e-22)
(1.22675 0.0267756 -5.18545e-21)
(1.17049 -0.0261944 3.4471e-21)
(0.977568 -0.0527408 -4.78898e-22)
(0.952198 -0.00858517 1.11391e-21)
(1.00091 -0.00465868 -1.34783e-23)
(1.12855 -0.0769968 -9.30111e-22)
(1.02906 -0.139535 -1.52481e-22)
(1.01153 -0.00295386 -2.18495e-23)
(1.03503 -0.069086 7.61724e-22)
(1.18451 0.0852748 -8.2e-21)
(1.05128 0.0415544 -2.42616e-20)
(1.20428 0.0109677 1.3841e-21)
(0.999322 -0.000255144 1.0439e-24)
(0.933561 0.0923461 -3.65615e-20)
(1.01168 -0.00151714 -1.02166e-22)
(0.999973 -0.00141159 3.28102e-23)
(1.03857 -0.00978847 6.50055e-22)
(0.964714 -0.0371031 -6.56993e-22)
(1.01147 -0.0898722 1.32042e-22)
(0.958766 0.051209 -1.92982e-20)
(1.02396 -0.0531676 6.62672e-23)
(1.14001 -0.00616638 -2.39182e-21)
(1.02393 -0.120773 2.20126e-21)
(1.02097 -0.122908 -2.87105e-21)
(1.10291 0.129542 -1.60669e-20)
(0.996265 -0.0504312 -3.87831e-22)
(0.994451 -0.0788788 6.47162e-22)
(1.00308 -0.101687 9.55112e-22)
(0.999686 -4.22582e-05 2.85007e-24)
(1.17645 -0.0905109 -8.99836e-22)
(0.923929 0.0881583 -3.48653e-21)
(1.0821 -0.168223 7.88824e-22)
(0.96285 -0.0467919 -1.53822e-22)
(1.08367 0.117703 -2.9514e-22)
(0.983735 -0.0499292 -9.50904e-23)
(1.06178 0.070905 -8.73029e-21)
(1.17697 0.122274 -1.25205e-21)
(0.996688 -0.00516123 1.47742e-22)
(0.998641 -0.000170324 -7.01021e-24)
(1.03914 0.0675847 2.72379e-21)
(0.901051 0.0671182 1.57835e-20)
(1.06566 -0.167221 2.07534e-22)
(1.14814 0.134004 2.14128e-21)
(1.21636 0.0947683 -9.85835e-21)
(0.968467 -0.0415074 -2.8658e-22)
(0.968487 -0.0435943 -6.75671e-22)
(1.01818 0.0684902 -1.16634e-21)
(1.09773 -0.0102554 2.16728e-21)
(1.17215 -0.16795 3.61099e-21)
(1.06842 -0.136088 -1.77813e-21)
(0.979609 -0.00155504 4.55323e-23)
(1.06029 -0.0142019 1.43412e-21)
(0.944107 0.0260092 -7.24303e-21)
(1.13858 0.00880602 -1.5094e-20)
(1.00028 -8.03233e-05 1.52621e-24)
(0.966945 0.0754501 3.34915e-20)
(1.03608 -0.0614939 -6.06829e-22)
(1.01284 -0.091487 1.62042e-21)
(1.05036 0.122334 -1.29332e-20)
(1.01686 -0.0228702 1.43933e-23)
(0.990346 -0.00907636 -1.16284e-22)
(0.999384 -0.00043904 -8.16001e-25)
(1.1584 -0.0667867 6.9433e-22)
(0.966082 -0.0194392 -5.54196e-22)
(1.00029 -1.42842e-05 1.65447e-24)
(1.15098 0.136152 -5.26205e-21)
(1.25642 -0.127125 -1.40953e-21)
(1.01173 0.0528254 -1.35317e-20)
(0.999322 -9.63262e-05 -2.11767e-24)
(1.00024 -0.00417175 -1.37498e-23)
(0.982683 -0.0512553 -4.53668e-22)
(1.00001 -9.07623e-05 1.62393e-25)
(1.0669 -0.172411 -1.06014e-21)
(1.19058 -0.163193 -1.65147e-21)
(0.999691 -0.00418062 1.11058e-23)
(1.0096 -0.0718713 -4.79605e-22)
(0.946781 -0.0146135 4.21953e-22)
(1.0496 0.110924 -1.40987e-21)
(0.987554 0.0933984 7.9267e-21)
(0.997087 -0.00439374 2.93884e-23)
(1.00306 -0.00108109 5.38798e-24)
(0.999526 -0.0963682 -2.49914e-21)
(0.98363 0.0849214 2.5317e-20)
(1.0049 -0.0326765 4.17507e-22)
(0.978916 0.0551223 -8.83324e-22)
(0.982433 -0.0116101 -4.78697e-23)
(0.892914 0.0424964 -1.31572e-20)
(1.03943 0.0134722 -2.97414e-21)
(1.13343 0.0598268 -1.74081e-20)
(0.913159 0.0535484 -1.4384e-20)
(1.28448 -0.0280979 6.776e-24)
(0.990591 -0.00282333 -3.11653e-23)
(1.1601 -0.0535532 7.71916e-22)
(1.00912 -0.0337615 -4.71569e-23)
(0.990005 0.0844407 6.41071e-21)
(1.01704 0.059331 1.83902e-20)
(0.972061 -0.00780723 2.66384e-22)
(1.26404 -0.0914759 3.20182e-21)
(1.12439 -0.0232155 -3.60068e-22)
(1.06602 -0.0783835 -4.84666e-22)
(0.99585 -0.000285135 -3.69587e-23)
(1.27234 -0.106128 3.17456e-21)
(1.00027 -3.19631e-05 2.48499e-24)
(1.04685 0.10755 8.08562e-21)
(0.945661 -0.0137236 -1.5792e-21)
(0.993543 -0.0628885 -2.48531e-22)
(0.996576 -0.0299904 2.77893e-22)
(1.00783 -0.057572 1.72078e-21)
(1.15782 0.0988379 1.24163e-21)
(1.20094 0.0164435 -5.20965e-21)
(0.998438 -5.41445e-05 -4.3568e-24)
(1.02676 -0.0510327 -4.53039e-22)
(0.999891 -0.000134435 8.2719e-25)
(0.894539 0.0395171 9.84186e-21)
(0.948648 0.0234443 1.49001e-20)
(0.995292 -0.00101389 -1.96168e-23)
(0.973242 -0.0126136 -2.98496e-22)
(1.03466 -0.0374177 1.9215e-22)
(1.0188 0.0623346 7.90611e-21)
(0.943351 -0.0221876 -8.63572e-22)
(1.21892 0.0986435 -2.1667e-21)
(0.964932 -0.0478529 1.8513e-22)
(1.00591 0.0858975 -5.77003e-22)
(1.13704 0.0640886 -1.96868e-21)
(0.965166 -0.0212068 -3.86119e-22)
(0.903077 0.0212285 -2.01808e-20)
(1.05297 -0.00245529 -1.3203e-21)
(1.01413 0.0908352 -1.71936e-20)
(0.993009 -0.0136527 1.83239e-23)
(1.03132 -0.148276 4.55497e-21)
(0.978018 0.00405907 -4.84727e-20)
(1.01525 -0.042395 4.26534e-22)
(0.898866 0.0716969 -7.16009e-21)
(1.02768 0.0726409 1.01125e-21)
(0.905951 0.0237998 -4.83486e-21)
(0.991057 -0.00292201 2.16013e-23)
(0.992594 -0.000535004 1.11063e-22)
(1.03102 -0.0928058 -4.60992e-22)
(1.17125 -0.0415555 -4.33104e-21)
(1.01558 -0.0226962 -1.89989e-23)
(1.02984 -0.0837419 -1.51963e-22)
(1.01019 0.0803307 1.55941e-21)
(1.00489 0.0929463 5.33592e-21)
(1.0411 0.00251311 4.43515e-24)
(0.98649 0.0828593 -1.80928e-20)
(0.906639 0.0768514 3.91889e-21)
(1.13555 0.110567 1.35961e-20)
(0.999092 0.00622585 -3.32724e-20)
(1.04625 0.0349116 -7.6481e-21)
(1.00538 -0.0172896 -2.50954e-22)
(1.0361 0.0694769 -8.96383e-22)
(0.992865 -0.0783599 -5.59781e-22)
(0.966593 -0.0467054 4.8552e-22)
(0.998765 -0.00121299 2.30457e-24)
(1.05946 -0.0785656 1.11252e-21)
(1.12064 -0.150196 -5.26554e-22)
(1.08324 0.0410319 6.39411e-21)
(1.08596 -0.00925628 4.02108e-21)
(1.00243 0.0290271 2.72841e-21)
(1.01003 -0.0494142 1.02725e-21)
(1.12714 -0.0140631 2.20778e-21)
(1.00366 0.0227588 -3.18231e-21)
(1.01035 -0.0353811 5.3751e-22)
(1.10066 -0.0910373 3.52048e-22)
(0.999922 -0.00016064 -7.92786e-26)
(1.00045 -0.000220515 2.0629e-24)
(1.08206 0.0370488 -3.24252e-23)
(0.994541 -0.0676635 -7.19793e-22)
(0.972401 -0.0435761 7.66156e-22)
(1.0005 -0.000210227 -3.00678e-24)
(1.00009 -0.00289454 1.95937e-23)
(1.12369 -0.0274279 -6.24034e-22)
(0.999481 -6.42475e-05 3.79272e-24)
(1.25295 0.0495619 -2.93943e-22)
(0.896697 0.0318391 2.5431e-20)
(1.14289 0.136432 8.07962e-22)
(1.11667 0.0733447 -5.26047e-22)
(0.968282 -0.00759199 -4.13269e-22)
(1.02961 0.0964992 6.2654e-21)
(1.24325 0.0754223 -2.84738e-21)
(1.00536 -0.0304454 -2.46129e-23)
(0.973814 -0.0140817 -2.93007e-22)
(0.997509 -0.00373301 1.09724e-25)
(0.99933 -0.000389782 -2.14422e-25)
(1.00183 -0.00473867 -3.0921e-23)
(0.99725 -0.0318628 2.40792e-22)
(1.0474 -0.147052 2.45558e-21)
(1.10131 0.0906401 1.99871e-20)
(1.198 -0.0403615 6.60284e-22)
(0.965855 -0.00348314 1.00321e-22)
(0.999899 -9.89803e-05 2.03478e-26)
(1.00112 0.053104 1.82052e-20)
(1.26178 -0.0114677 -1.17181e-21)
(1.27255 -0.0641093 5.83262e-22)
(1.01769 -0.0435737 -4.74175e-22)
(1.22234 0.0751172 4.32527e-21)
(1.05759 -0.0816198 -3.74388e-22)
(0.984334 -0.000836702 -7.72135e-23)
(1.00221 0.018578 1.59936e-20)
(0.979899 0.000763364 -6.23423e-20)
(1.06879 0.133931 -1.69375e-20)
(0.990421 -0.000385148 -3.04858e-22)
(1.06604 0.133184 1.31445e-20)
(0.969318 -0.0054218 1.56238e-22)
(0.986506 -0.0466305 -5.78536e-22)
(1.12789 0.128999 -1.53176e-20)
(1.00026 -9.90574e-05 2.87021e-24)
(0.990405 -0.0303515 -7.66286e-23)
(1.16991 0.101045 4.24124e-21)
(1.13146 0.100746 1.5683e-20)
(0.966445 -0.0229474 -9.38544e-23)
(1.02264 0.062467 1.2082e-21)
(0.960259 0.0974886 -1.59187e-21)
(1.01529 0.0302002 -3.68623e-20)
(0.962868 -0.0380497 1.02676e-21)
(0.953279 -0.00849757 -5.37178e-22)
(1.05083 -0.0644006 -5.32841e-23)
(1.11749 -0.00204239 4.38973e-22)
(1.02212 0.0138819 -9.00081e-21)
(0.995445 -0.00139341 -8.36781e-24)
(0.974912 0.00957383 -1.81493e-20)
(0.993582 -0.0475968 1.28073e-21)
(1.03626 -0.147895 -3.09152e-21)
(1.15614 -0.0478193 9.89067e-22)
(0.930177 0.0941376 5.19768e-20)
(1.10286 0.0959721 -1.6515e-20)
(1.01397 0.0595653 -1.93299e-20)
(1.19964 -0.156227 8.16123e-22)
(0.963897 0.00224525 -2.77187e-20)
(0.967942 -0.0191923 5.56544e-22)
(0.987861 -0.0448587 4.18207e-22)
(0.925369 0.0110268 9.67915e-21)
(1.08041 -0.0280034 -9.89163e-22)
(1.04732 -0.136151 -4.28424e-22)
(1.0156 0.0839549 -3.95663e-21)
(1.00437 0.0825046 -1.21342e-20)
(0.97775 -0.0395516 -6.95868e-22)
(1.02697 0.0181384 -2.03613e-20)
(0.984088 0.0885227 -3.36162e-21)
(1.00521 0.0764387 1.5852e-20)
(1.04025 0.113461 5.18887e-21)
(1.01189 0.0839733 2.55625e-20)
(1.05797 0.0778059 -1.36486e-20)
(0.986936 -0.00358562 1.40572e-22)
(0.969086 -0.0208247 6.75035e-22)
(1.00283 -0.00761168 -1.60417e-23)
(1.01524 -0.121286 3.22139e-21)
(0.993659 0.0211544 -4.69017e-21)
(1.02116 -0.128211 1.88027e-21)
(1.18758 0.0955916 -3.86206e-22)
(1.15735 0.0551267 -1.02476e-20)
(0.973291 -0.0505259 5.39695e-22)
(1.24582 0.0473165 2.32708e-23)
(1.1772 0.114176 -4.11646e-21)
(0.992508 0.00868049 -1.43438e-21)
(1.23652 0.0366993 1.98523e-21)
(0.999709 -0.00349668 -5.95057e-24)
(1.06377 -0.0138376 7.90864e-23)
(0.985983 -0.0503381 2.82636e-22)
(1.24598 -0.0621552 1.08498e-22)
(1.26369 -0.0598704 -1.06411e-21)
(1.02513 -0.136205 6.1782e-22)
(1.04133 0.10892 2.93613e-21)
(0.974957 0.0955024 2.67989e-20)
(1.18357 -0.0244409 2.36583e-21)
(0.997144 0.0075586 1.47263e-20)
(0.899573 0.0629454 -1.76023e-20)
(0.998544 -0.000102877 3.98089e-24)
(1.00338 -0.00110396 6.43993e-25)
(0.996725 -0.00569501 -6.5808e-23)
(0.972903 -0.00826352 9.03802e-23)
(1.08354 0.0860472 -1.06314e-20)
(0.925265 0.0125755 -2.1015e-20)
(1.14067 0.0124747 1.30125e-20)
(1.03121 0.103343 3.76087e-21)
(0.982254 -0.023898 -3.8427e-22)
(1.07562 0.123565 2.23275e-20)
(1.07213 0.130683 7.1362e-21)
(1.24961 -0.118008 4.96455e-22)
(0.958541 -0.011999 5.34791e-22)
(0.944732 -0.0209288 5.34313e-22)
(1.19181 0.0996641 1.03605e-21)
(1.0132 -0.0434493 2.01855e-22)
(1.19637 -0.0351683 1.13266e-21)
(0.970322 -0.0403647 1.53045e-22)
(0.951274 -0.0395479 -1.44631e-21)
(1.02178 0.0868236 2.82672e-20)
(0.992092 -0.00247458 6.34743e-23)
(1.02782 -0.058427 -1.19482e-22)
(1.00633 0.0915216 1.32342e-20)
(1.24409 0.0389331 8.03441e-21)
(0.938449 0.079751 5.91803e-21)
(1.01837 -0.0864728 -8.15634e-22)
(1.04384 0.0118842 9.753e-21)
(1.25474 -0.0665619 1.35666e-21)
(1.00129 -0.0714727 2.83884e-22)
(0.978164 0.00719565 -6.66879e-21)
(0.989919 0.000475849 4.04068e-20)
(0.990291 0.0280558 -7.28491e-21)
(0.994272 -0.0338865 -5.64118e-22)
(0.938406 0.0157924 2.29048e-20)
(0.964836 -0.0349647 5.19633e-22)
(0.973061 0.070849 8.40392e-22)
(1.12609 -0.0621224 -3.98529e-22)
(0.986856 0.0448608 -4.1356e-21)
(0.983019 -0.0479763 3.55595e-22)
(1.00004 -0.000227003 -2.28103e-25)
(0.986848 0.0393819 1.372e-20)
(0.971025 0.0635798 1.59734e-20)
(0.975385 0.0772129 -2.56553e-20)
(0.988012 0.0340074 -1.59705e-20)
(1.07528 0.00591376 -3.4424e-20)
(1.13567 -0.0147431 -1.58883e-22)
(1.07132 0.0751002 -2.64327e-20)
(1.04404 -0.13199 1.07604e-21)
(0.996474 0.0170397 4.80489e-20)
(1.02227 0.0558985 -2.39761e-20)
(1.2552 -0.0165831 1.45992e-21)
(1.08916 -0.0120285 -4.25424e-21)
(0.987343 -0.00340034 7.78825e-23)
(1.29042 -0.0221616 -6.56292e-23)
(1.02808 0.089697 -4.78541e-21)
(0.951989 -0.0306555 3.669e-23)
(0.969364 -0.004601 -4.59993e-22)
(0.991546 0.00455939 -9.53671e-21)
(0.981898 0.0482015 -2.94317e-20)
(0.990552 -0.0546664 -5.76688e-22)
(0.989756 0.0525709 2.1522e-20)
(1.02807 -0.144527 1.08251e-21)
(1.22128 0.0690657 -7.1522e-21)
(0.993866 -0.000305029 -6.28553e-23)
(0.976513 0.0518535 -1.655e-20)
(0.970303 0.0562912 4.21161e-20)
(0.90424 0.0352761 3.93072e-20)
(0.98077 0.0909493 3.49231e-20)
(0.996978 -0.000358725 -5.22189e-24)
(0.982451 -0.0259309 2.53055e-22)
(0.9986 -0.00124947 -1.92877e-23)
(0.99765 -0.0749978 -2.31539e-21)
(0.939006 0.061927 -8.42493e-21)
(1.13042 0.081579 -2.27384e-20)
(1.03671 0.0983954 -2.80984e-22)
(0.951753 -0.0379068 9.32261e-22)
(1.04663 0.0380912 2.40177e-20)
(1.03695 -0.0364609 -2.56044e-22)
(0.938345 0.0711852 1.22014e-20)
(1.09103 -0.0987075 -3.1291e-22)
(0.995379 0.00662003 1.62891e-20)
(0.994038 -0.000301773 -4.20312e-23)
(0.947457 0.0583493 -2.82322e-20)
(0.930272 0.075427 -3.4022e-20)
(0.980697 -0.0271578 -6.61786e-22)
(1.18583 0.0422128 4.88698e-21)
(0.948922 0.0493182 -2.81585e-20)
(0.996407 -0.000548828 1.3374e-23)
(0.920469 0.0353723 -4.42271e-21)
(1.04821 -0.0722236 1.24003e-22)
(0.996479 -0.000368685 2.90719e-24)
(0.956814 -0.0132705 -3.7559e-22)
(1.01425 0.0942781 -1.68017e-20)
(1.15503 0.0723701 -1.33083e-20)
(1.00987 -0.101725 1.46013e-21)
(0.993823 0.0915429 1.37282e-21)
(0.925478 0.0846043 2.2586e-21)
(1.07173 0.126215 -2.42164e-20)
(1.05678 -0.010683 -7.43234e-22)
(0.999906 -0.0664977 4.48667e-22)
(1.15555 -0.0607586 -9.34178e-22)
(0.982732 0.0544754 2.42502e-20)
(0.929005 0.0356206 -2.55638e-21)
(0.899455 0.0340433 2.54136e-21)
(1.12889 0.070944 3.51536e-21)
(1.00058 -0.0102292 2.66908e-23)
(0.977483 -0.00173556 5.98252e-24)
(1.0306 0.0925935 -1.69971e-20)
(1.00199 -0.00792172 1.8979e-23)
(0.984514 -0.00526654 -1.02883e-24)
(1.00316 -0.0124629 -1.2054e-23)
(0.994142 -0.0295794 -2.77759e-22)
(1.09196 -0.146893 1.89042e-21)
(1.18691 -0.143702 -1.09572e-21)
(0.96202 0.0761501 -3.73557e-20)
(1.02061 -0.048253 1.74677e-23)
(0.998945 -0.00100414 1.18783e-23)
(1.0286 0.0584863 -3.75212e-22)
(1.15124 0.09971 1.10323e-20)
(1.00199 -0.0126261 -3.02554e-23)
(1.19758 0.0802133 -5.94249e-21)
(1.00184 -0.00132691 2.34315e-24)
(1.14589 0.0554522 1.19324e-21)
(1.01538 0.0318054 2.58373e-20)
(0.987522 0.0503038 -4.17364e-20)
(1.15174 -0.151512 1.29063e-21)
(1.16899 0.0425976 -6.8273e-21)
(0.99389 -0.0139811 -4.66719e-23)
(1.12365 -0.0980989 3.44285e-23)
(0.995109 -0.00173348 -3.4497e-24)
(0.979172 0.0614652 -4.29609e-20)
(0.960449 0.0740824 1.15491e-20)
(1.22006 -0.147361 9.56792e-22)
(1.18106 -0.160208 1.06231e-21)
(1.14216 -0.166714 3.94301e-21)
(1.03426 -0.0856984 6.53566e-22)
(0.99038 0.0877709 2.89295e-21)
(1.03694 -0.0780712 3.82036e-22)
(1.11389 -0.136642 5.80277e-22)
(1.07761 -0.161735 -9.45639e-22)
(1.11633 -0.086164 -8.50009e-23)
(0.912329 0.0354081 2.1535e-20)
(1.14562 -0.184277 -7.25974e-21)
(1.23806 0.0128581 -4.77485e-22)
(0.98517 0.0166208 8.3432e-21)
(0.995064 -0.000421463 3.97847e-23)
(1.19032 0.021763 2.69694e-21)
(1.0393 -0.0700842 -5.22375e-22)
(1.07727 -0.148379 1.61361e-21)
(0.995544 -0.00105528 -1.95911e-24)
(0.999715 -0.00296059 -1.7085e-23)
(0.912671 0.0448178 -3.67124e-20)
(1.05425 0.0403374 1.83923e-20)
(1.21632 -0.156395 4.03617e-21)
(1.28534 0.00547371 3.64934e-22)
(1.05677 0.0685721 -9.92562e-21)
(0.993073 0.0514836 -3.38069e-21)
(1.0247 0.0592713 7.30167e-21)
(1.22712 -0.0829483 -1.15764e-21)
(0.983907 -0.0539404 9.7909e-22)
(0.994822 -0.0455694 -3.36805e-22)
(0.987256 -0.0486696 -9.01588e-23)
(1.03603 0.0603665 -2.43133e-20)
(0.96941 -0.0058566 4.33929e-22)
(1.00469 -0.0677387 6.6464e-22)
(0.999681 -4.31348e-05 -1.13741e-24)
(0.970887 -0.0204504 -1.12194e-21)
(0.997711 -0.000625183 3.80578e-25)
(1.11383 -0.153369 1.38717e-21)
(1.00905 0.0918349 -1.57289e-20)