/*--------------------------------*- C++ -*----------------------------------*\
  =========                 |
  \\      /  F ield         | OpenFOAM: The Open Source CFD Toolbox
   \\    /   O peration     | Website:  https://openfoam.org
    \\  /    A nd           | Version:  7
     \\/     M anipulation  |
\*---------------------------------------------------------------------------*/
FoamFile
{
    version     2.0;
    format      ascii;
    class       volScalarField;
    location    "39.5";
    object      p;
}
// * * * * * * * * * * * * * * * * * * * * * * * * * * * * * * * * * * * * * //

dimensions      [0 2 -2 0 0 0 0];

internalField   nonuniform List<scalar> 
7807
(
0.244726
0.000603579
0.388407
0.251446
-0.00133526
-5.60289e-05
0.393634
-0.00797425
-0.000185079
0.108537
-5.22281e-05
0.00362794
-0.0119394
0.0547459
0.112944
-0.0159208
0.254979
-0.0154601
0.00153896
-0.0796631
0.074072
0.0023872
0.0406262
0.205025
-0.0201026
0.254721
-0.00123726
0.0675869
0.173351
0.00361809
-0.0212461
0.603275
0.0398963
-0.000742191
-0.000159136
0.0894453
0.00419113
0.381321
-0.00676778
-0.000519742
-0.00619537
-0.0151673
-0.0845801
-0.0483276
-0.000308562
-0.000123541
0.00232676
-0.00707673
-0.000101761
-0.077738
0.0054694
0.0640874
-0.0252804
-0.00475321
0.0885862
-0.00713407
0.00160359
-0.00793075
-0.0327877
-0.000769794
6.3916e-05
0.00701424
0.0551299
0.00400592
-0.00148221
-0.0208833
-0.000145816
6.37905e-06
0.0811337
-0.00668581
-0.000113254
-0.0612357
-0.0194795
-0.0323362
-0.0150184
-0.0464306
0.382385
0.0725296
0.0620459
-0.0645928
-0.0114611
0.353337
0.104677
-0.0342266
-0.00220409
-0.00349801
-0.0085311
-0.0245535
-0.00100808
-0.00676614
0.176932
-0.0570229
-0.000202757
0.00175989
-0.00537992
-0.0338876
-0.0574149
-0.0014426
-0.00242951
-0.0017649
-0.0557001
0.0701498
-0.00509807
-2.97927e-05
-0.0476142
0.180631
0.524081
-0.00759556
-6.66461e-07
0.0371029
0.237379
-0.0529923
-2.21434e-06
0.039454
0.181116
0.000699609
-0.0666294
0.146133
-0.0425925
-0.0334425
-0.0579406
0.337801
-0.0777793
0.0153213
-0.0563073
-0.00148285
-0.0194244
0.00292222
-0.00157043
-0.0217078
-0.109364
0.0629188
-0.000930879
-0.00118781
-0.0354301
0.230308
0.419599
-2.5517e-05
0.0122749
-0.0727067
-0.0306389
-0.0527816
-0.0471285
-0.0312449
0.528859
-0.0216384
0.17419
-0.0324707
-0.0424221
0.336967
0.0854697
-0.0461614
-0.0023413
0.0615018
0.104101
0.352814
-0.0538304
-0.0118751
0.489987
-9.21991e-05
0.000809854
0.211747
-2.75841e-05
-0.00318896
-0.00604833
0.262337
0.263126
0.508751
-0.0035938
-0.00473954
7.4939e-06
-0.0596531
0.000692278
0.00780149
0.0133563
-0.0419842
-0.0256483
0.143742
-0.000201802
-0.000783251
0.255869
-9.21052e-05
-0.00017137
0.394851
-0.00424896
-0.0437721
-0.0401994
-0.0310199
-0.0253271
-0.0708839
-3.02642e-05
-0.0552393
0.148857
-0.00515285
0.000117263
0.191693
-0.00191491
-0.0204796
-0.0239482
8.91953e-06
0.0014032
0.236757
0.177731
0.355673
-0.0609408
-0.0475387
-0.118801
0.0734836
0.234575
-0.000331033
5.68493e-05
0.494671
-0.0134788
-0.000964509
-0.052789
-0.0203306
0.321572
0.329253
-0.0582825
0.572426
-0.00177538
-0.0150435
-0.057171
0.0885534
-0.105109
0.213556
0.491636
0.000103846
0.0160438
0.155506
-0.00641241
0.14305
-0.000852817
0.541979
0.346205
-0.00844915
0.0043481
-0.000482062
0.135845
-0.000145357
-0.00998686
-0.0696899
-0.000112751
-0.00209123
-0.000673378
0.159337
-2.74598e-05
-0.00701723
-0.0630086
0.602884
0.0546447
0.530512
-6.91594e-05
-0.0269123
-0.00029129
0.368799
0.00669992
0.420585
0.00206932
0.00118072
0.00577086
0.0767016
0.000953928
-0.000360206
0.000841977
-0.00676618
-0.0437955
-6.45171e-05
-0.0523018
-0.00576671
-0.000223945
-0.000995248
0.402656
-0.0119216
-0.00121982
0.576479
-0.00229651
0.244469
-0.000325328
-0.000154419
1.26824e-05
-0.0381598
0.0850241
-0.0175696
-0.0332444
-0.00065455
-0.0671493
-0.0230671
-0.000284019
0.000819377
-0.00347739
-0.0115457
0.00492296
-0.0019856
-0.0327542
-0.0373269
-0.0322253
-0.0352305
-0.0403738
0.337997
0.351619
-0.00237278
-0.0496284
-1.09544e-05
-0.00380882
-0.033733
0.199917
0.116611
0.000161285
-0.00353239
-0.0391949
0.169731
-0.00159434
0.00597666
0.00202414
0.0501886
-0.123732
0.31693
-0.00254102
-0.0011923
-0.000180674
0.0067947
-8.22372e-05
-0.0263953
-0.000552587
0.00625858
-0.0788788
-0.0417436
0.0021235
0.0145617
-0.00118034
0.0319256
-0.0121211
0.0835471
0.163107
-0.155398
-0.0553167
-0.0234931
0.00850346
-0.0679514
0.518315
-0.0453989
0.0484449
0.561735
-0.00245416
-0.00278681
-0.0558239
-0.00175561
-0.0182108
0.0105271
-0.00447365
-0.00333851
0.163971
-0.000106592
0.000914645
0.000130368
-0.00540461
-0.011141
-1.33299e-05
-0.00175519
-0.0315444
0.489172
0.00314292
-0.0131639
0.459402
0.299328
0.0716647
-0.0372014
-0.0599951
0.00823571
0.253958
-0.0167626
0.282385
-0.0300381
-0.0923159
0.181369
0.283445
-0.0486601
0.109402
0.20995
0.256654
0.0715796
-0.00484298
-0.00668316
-0.00013935
0.00367715
-0.0170777
0.00156667
-0.000170581
-0.00259019
-0.0669654
0.086121
-0.024843
-0.00466261
-0.006001
-0.0032156
-0.0109833
0.00281094
0.184133
-0.00302016
-3.28607e-05
-8.60422e-05
8.31958e-05
-0.029849
0.159308
-0.00636562
0.0446162
-0.114993
0.373944
0.00537087
0.0112681
-0.00806411
0.388703
-0.00170196
0.312091
0.177976
-0.000186395
-0.0329098
-0.00521048
-0.0498693
0.000941291
0.0802802
0.00497693
0.0104374
-0.00137502
0.145323
0.173314
-0.050752
-0.0319159
-0.0036942
-0.0261043
0.060017
0.592709
-0.0584444
0.00745369
-1.10166e-06
-0.0196449
-0.00364146
0.0292249
-0.0921611
-0.0607052
0.401495
0.15747
-0.106496
0.200451
0.379622
0.0446577
0.00193617
0.26194
-0.0014613
-0.000295485
-0.0251161
0.000147455
-0.132619
-0.0010629
-0.0342865
0.00311762
0.197465
-0.002862
-3.64856e-05
-0.0988008
0.00282907
0.0332238
-0.0539287
-0.071996
-0.0142185
0.157072
0.129684
0.133227
-0.000331827
0.0771445
0.0907957
-0.000853616
-0.0239264
0.00101112
0.00833351
-0.00495179
0.00784386
-0.00126016
0.130649
-2.99526e-05
0.00033374
0.00325518
-0.0310659
0.0328567
-0.0321976
-0.0355883
-0.0396213
-0.118214
0.00971341
0.253243
-0.0647374
-0.0102253
0.548908
-0.0555369
-0.0116129
-0.0360896
-0.00986313
-0.0292579
-0.0152358
0.0439203
-0.0515688
-3.93235e-05
0.0384568
-0.000153589
0.343051
0.0901781
-0.00760072
-0.0203706
-0.000304515
0.355254
0.308074
0.0593985
0.136025
-0.0605635
0.432938
-9.86324e-05
0.0263194
-0.0256024
0.150579
0.513636
0.0471909
0.152035
-0.00329389
-0.000327807
0.123907
-0.087908
0.37086
0.0353903
0.222101
-0.0108081
0.381685
0.294093
-0.0135468
-0.0115602
0.102428
-0.0728702
-0.000134467
-0.0188144
-0.0703123
-0.0636766
0.0182001
0.0149614
-0.000203281
0.309878
-0.00183079
-0.000165007
-0.0334129
-0.000794332
-0.000360584
0.00509252
0.216035
-0.0868031
0.478526
0.000105001
0.213103
-0.0265536
-0.000119184
3.07062e-05
0.170972
0.210061
-0.00625648
0.192264
4.34706e-05
0.202185
-0.148073
-0.0141864
0.39844
-0.050149
0.128934
-0.0346108
0.199471
0.206209
-0.0232038
-0.0292119
-0.00924648
-0.00442195
-0.000320551
-0.00197648
0.267637
-4.15498e-05
0.195657
-0.084523
0.321472
0.186261
-0.0718067
0.464602
-0.00250081
0.00625002
-0.0496075
-0.02796
-0.00974001
-0.0304393
0.0408257
0.54338
7.15593e-05
-0.00294284
-0.0497758
1.04457e-05
0.349093
0.00287025
9.98857e-06
0.000316656
0.000629829
-0.0248815
0.0279261
-0.00237463
-0.000133896
-0.0103285
0.00340862
-0.099762
-0.0655917
0.0334468
-3.396e-05
-0.147309
-0.0184199
0.109865
0.317602
0.00174724
0.11862
0.000252353
-0.0176355
0.0983605
-0.00978615
0.229505
-0.0181191
0.0296736
0.101908
0.154189
0.00654327
-0.0145125
0.176194
-0.0767892
0.374295
-0.0131294
0.253256
-0.013026
-0.00177454
0.145013
8.86543e-05
0.0961333
0.00296435
8.61243e-06
-0.11347
0.179021
0.00223817
0.106547
-0.0172439
-0.146797
0.00187647
-0.0333287
-0.00256302
-0.0124045
-0.0654474
-0.0367368
-0.0137265
-0.000227118
0.395155
0.114685
0.0442166
-0.000307885
0.293233
8.10359e-06
-0.000283755
0.125404
0.00102872
0.15596
0.0663986
0.0258516
-0.0446298
-0.117885
-0.0158311
0.00205987
-0.052549
-2.66937e-05
0.0055699
0.222437
-0.0221995
-0.00422764
-0.0137006
-0.00297599
-0.000626829
0.56549
-0.0138411
-0.000843575
-8.8116e-06
0.143105
-0.039078
-0.00050583
-0.00418027
0.165041
0.0910159
-0.047708
3.35352e-06
0.182337
-0.0221142
0.188362
0.0254696
0.0312195
-0.0387377
-0.000145469
0.0994405
0.0826717
0.0182602
-0.077378
0.268543
0.0095179
0.170662
-0.00419775
-0.0318272
-0.000604357
-0.00288275
-0.000160081
0.164055
0.23177
-0.00226329
0.0287863
-0.0234622
-0.0623795
-0.0700233
-0.00280769
0.0239679
0.53695
0.00182977
-8.18661e-05
0.0903941
-0.00578863
0.45906
-0.0170678
-0.0174481
-0.00570533
-0.0201577
-0.0106814
-0.0109673
-0.00541152
0.00231856
0.0334843
0.000171719
-0.137544
-0.0194144
0.330644
-0.0460215
0.162814
0.00317812
-0.0489256
-0.0192425
0.210047
-0.0103614
0.000173957
-0.0216797
-0.0080369
0.026763
-0.0352996
-0.0304994
-0.0218765
-0.01977
-0.0102572
-0.0699208
9.64992e-06
0.0484361
-0.0601736
0.140493
-0.0549366
0.0956146
-0.0798748
0.295685
0.00531993
-0.0400638
-0.0222982
0.486049
-0.112575
-0.0178679
-0.107687
-0.0395351
-0.0981338
-0.0556361
0.168028
-0.00421105
0.248059
0.0136651
-0.000604041
-0.00189712
0.0799775
0.609561
0.0016042
-0.0274788
0.172678
3.66236e-05
-0.0280432
0.040754
-0.00205327
0.0138494
-0.0025207
-0.0384375
-0.00473142
4.65034e-05
-0.0478318
0.243345
0.00173812
-0.0225037
0.00293197
0.172334
-0.000586875
-0.00189818
-0.000550357
-0.00121167
0.035123
0.00063396
0.00390482
-0.0241995
7.22691e-05
-0.109082
-0.0772414
-0.127372
-0.0220835
0.0225153
-0.00032557
-0.0178099
-0.061341
0.0188651
0.323875
-0.00195081
-0.0647347
-0.0071269
0.00851925
0.144868
0.000695561
-0.0002399
0.109756
0.00692485
0.0220859
-0.00449021
-0.00314032
-0.0569411
-0.000266777
-0.00256178
-0.0182614
0.281416
0.240873
-0.0416371
-0.0580809
0.0111913
0.00497581
-0.00471763
-0.0675007
-0.0178798
-2.54537e-07
-0.00751688
-0.0335135
-0.0738363
0.00466544
-0.0510895
-0.000611549
-0.00454023
0.188681
-0.0373306
-5.89431e-06
-0.00425474
-0.101646
-0.000253762
-0.0226784
-7.43959e-05
0.00574729
-0.0967319
-0.0411657
-3.03735e-05
4.90609e-05
0.124458
-0.0467109
0.357902
0.244768
-0.0101087
-0.000916612
-0.0172119
0.00034442
-0.106855
-0.0893848
-0.0188576
-0.0219481
0.233225
0.0111278
0.000428649
0.0072823
-0.117707
0.00301211
-0.0282577
-0.0596779
0.00129317
0.0243658
0.0712223
0.0103825
-0.030209
-0.0695371
0.180477
-0.0341209
-2.94949e-07
-0.10347
-0.0621647
-0.0412826
0.00558933
0.00117231
0.00929715
-0.098567
0.035201
-0.0343961
0.120481
-0.0485584
0.00822135
0.0212938
0.0144454
-0.0352097
-0.117438
-0.000153794
0.141775
0.1977
0.00886114
0.184721
-0.0731144
0.0487463
-0.0463436
0.189817
0.0994164
0.529719
7.49865e-06
0.0983694
0.167437
0.0166661
-0.00173318
-0.0189471
-0.0215311
6.88078e-05
-0.0190066
-0.0513118
-0.0207063
-0.0229119
0.000206686
-0.0906589
-0.000439376
-0.001022
0.225617
0.00715259
0.0540309
0.0221241
0.196094
0.0118118
-0.000466368
-0.106311
0.00887134
0.338995
0.00150143
-0.0538351
-0.000260067
-0.000651185
0.00743817
-0.0562853
-3.4783e-05
-0.0115507
0.0308096
-0.00228718
4.91643e-05
-5.24706e-05
0.145654
-0.0382323
0.00758826
-0.00129521
0.00959437
0.0174973
0.00943951
-0.00034073
0.314342
-0.0937531
0.207588
0.273037
-0.000246612
0.0456512
0.104938
-0.000904582
-0.000309199
-0.000503991
-0.0108594
0.0150842
-0.013989
-0.0229125
-0.064227
0.16173
-0.100393
1.55717e-05
-0.0201652
-0.0195634
-0.0358425
-0.00492726
0.00674023
0.00144626
0.0303996
-0.000602377
-0.000272041
-0.0181962
-0.00484627
-0.0256852
-1.7537e-05
-0.015504
0.0361835
-0.0253323
-0.0329683
-0.00918034
-0.0123496
-0.00969516
-0.00584056
0.00786728
-0.0100136
-0.000120353
-0.00046879
0.0251788
-0.0128354
-0.0055351
0.00941115
0.00269785
-0.131242
-0.0116849
0.148997
-0.013203
-0.0533481
-0.0260133
-0.0234758
-0.016239
-0.00422726
0.00255948
-0.00396666
-0.01467
-0.0167601
0.179664
0.139632
0.0502668
0.316271
-8.19589e-05
-0.003746
-0.0170759
-0.00862719
0.0842233
-0.0209652
0.0472586
-0.00485501
0.19254
-0.00219587
-0.00184232
0.0141607
-0.0206572
-0.000250967
-0.0236545
-0.00656149
-0.0215397
-2.23982e-05
-0.00739409
0.00225941
-0.0182373
0.0342982
0.0380146
0.0209016
-0.0146134
-0.0321832
0.112143
-0.00144922
-0.00221429
-0.00238572
0.454784
-9.76289e-05
0.0707326
-0.0219108
-0.0211299
-0.0269873
-0.043044
-0.0293241
-0.034856
-0.0190526
-0.00513829
-0.000110399
-0.00478356
-0.0225183
0.0973092
0.00192032
0.13541
-0.0334721
-0.0138783
-0.00103587
-0.0295842
-0.000116414
0.14105
-0.0308167
-0.0268383
-0.024543
-0.00447009
-0.0341949
-0.0018877
-0.0408446
0.0994312
-0.0264982
-0.0754839
-0.00164688
-0.0275964
-0.0191412
0.0169909
-0.00362915
0.13596
-0.00269453
-0.0198429
-0.000764852
0.15217
-0.0393357
-0.0270834
-0.00363968
-0.0103486
-0.00309736
0.173657
0.00542446
0.178889
-0.00545803
-0.000922362
-0.0014192
-0.00261996
0.155748
-0.0603061
-0.00753986
0.000394135
-0.00873408
-0.0139915
-0.00102019
-0.0166932
-0.0163149
0.0585035
-0.00550873
0.00432232
0.448491
-0.0612993
-0.0292903
-0.0573944
4.17875e-05
0.0758183
-0.00396066
-0.0274586
-0.00623466
-0.0361518
0.00463092
-0.000605289
-0.00325542
0.00370095
0.188142
-0.00647835
-0.00201232
-0.00516475
-0.0548129
-0.00911874
-0.0226664
0.0048662
-0.00955036
-0.00987018
-0.00366421
0.190882
-0.0460749
0.00362752
-0.00472854
-0.028125
-0.0151132
-0.0492698
-0.00158257
0.0902487
0.0249424
-0.00862723
-0.00194788
-0.0146136
0.465785
0.189594
-0.0122387
-0.000651536
-0.00267756
0.00220178
-0.00444135
0.0228341
-0.000468133
-0.0188716
-0.00221237
-0.0178431
-0.0878872
-0.00120128
-0.0126837
-0.00152238
0.294319
-0.00713063
-0.0126564
-0.0315321
-0.00217901
-0.0306374
0.0481027
0.411424
-0.0116414
-0.0123364
-0.0023798
-0.000524506
3.42143e-06
-4.19338e-06
-0.0110172
-0.000755785
0.100922
-0.000755168
-0.00203816
0.00917468
-0.000289685
-0.0445892
-0.062793
0.0189697
0.0416729
0.0283495
0.0343407
-0.0471045
0.0889248
0.0702905
0.0940514
0.118284
-0.0139022
-0.000956236
-0.00651203
-0.0704987
-0.00393716
-0.0160581
0.0197756
0.297128
-0.0542603
-0.000543857
-3.02971e-05
-0.00164788
6.49845e-07
0.00913867
-0.000632772
-0.00522679
-0.0476891
0.000623943
0.00289846
-0.000246269
0.0629802
-0.0163737
-0.0458149
-0.00136925
0.300058
0.248129
-0.0109331
-0.0808681
-0.0286811
-0.0247787
-0.015391
-0.00210608
-0.08255
-0.0370132
-0.0434971
-0.0752417
-5.33742e-05
0.176225
-0.0183405
-0.010431
-0.0339987
0.0205187
-0.000599734
-0.00913521
-0.0015261
0.0131605
-0.0017392
0.152149
0.000404308
0.0111766
-0.000467783
-0.0977879
0.00981687
-0.000864233
0.00757905
0.000470669
0.01059
0.112334
0.000969541
-0.00161685
-0.000139695
-0.000649469
-0.000568977
-0.059928
0.120408
0.00364108
-0.000302887
0.00976939
-0.000516035
0.213704
-0.0592669
0.230053
-0.0430687
-0.000507287
-0.000320524
-0.00800211
-0.0062301
-0.000711574
-1.97476e-05
0.0268324
0.0308278
-0.000266049
-0.000374695
-0.0206485
-2.37876e-05
0.15962
-0.00103949
-0.0518945
-0.0199665
-0.00696212
-0.054512
-0.060519
0.144803
-0.0235119
-0.0211112
-0.000355253
-0.055445
-0.0216261
0.000167174
0.0874822
0.323125
-0.00131367
-0.0580712
0.0126624
0.280394
0.0410284
-0.000132878
-0.00663358
-0.00450514
-0.00546537
-0.0469012
0.0874182
0.000209584
0.0175852
0.00332517
0.0730405
-0.000586682
-0.00013509
-0.0899212
0.255692
-0.0537662
0.138108
-0.00142664
-0.000226885
-2.48617e-06
-0.0943727
-0.0413125
-0.000381603
0.099445
0.0124149
-0.00589802
0.379216
-0.000440949
-0.00410073
-0.0583297
-0.0291697
-0.00254346
0.129867
-0.066238
-0.000185498
0.0118149
-0.000193631
-0.000111217
0.133083
-0.00113034
-0.000510565
-0.0500413
-0.0253547
-0.00387721
-0.0348824
0.0026831
-0.0236966
0.00184234
-0.00387217
-0.0634561
-0.0380219
0.0172264
-0.000996118
0.14831
0.195996
-0.102823
0.0102869
0.020804
-0.00472875
0.15883
0.102754
-0.0282641
-0.000181359
0.0105724
-0.0533329
0.0107469
-0.0289253
-0.00235105
0.0431047
-0.028328
-0.000152918
-7.99048e-05
-0.0421425
-0.0272745
-0.0265562
0.0105156
-0.0022301
-0.0439541
-0.000170129
-0.00156054
-0.000231242
-0.0360415
-2.61196e-05
-0.00215494
-0.0503118
-0.10792
0.0990712
-0.00330706
0.0046646
-0.0221647
-0.0260565
-0.000142858
-0.045053
0.0919448
0.150462
2.75217e-05
-0.000123388
0.153281
-0.00280199
-0.0947854
-0.0398963
0.00377881
0.000543821
-0.0640509
-0.0305771
0.15705
-0.0542788
-0.00163584
-0.0107867
-0.0532184
-0.00064933
-0.000269892
-0.00100594
-0.0199574
-0.0499778
0.129107
-0.000235528
0.469467
-0.0294767
0.000135895
-0.00108689
0.000289547
0.000328767
-1.4932e-05
0.000161046
-0.0512047
-0.000807307
0.00049271
-0.000221906
0.135325
-0.00629642
-0.00021621
-4.70355e-05
0.324642
-0.0223262
-0.0453055
0.00125721
-0.00081426
0.0573003
-0.000107834
-0.0144039
-0.134388
0.00242804
-0.00722212
-0.000106368
-0.000231706
-0.0313869
-0.0682921
0.00804209
-0.122418
-0.0659028
-3.03795e-05
0.0231792
0.0346587
0.105998
-0.00190767
-0.000174271
-0.0554941
-0.00666614
-0.000558252
-0.0484062
-0.00015241
0.0394375
-9.53257e-05
-0.00141284
-0.0120656
-0.00236219
-0.0571097
0.426917
-0.00183916
0.000313677
-0.0552708
-0.0576958
0.0101318
0.00527978
-0.000167857
-0.0316826
-9.19887e-05
0.186154
0.5714
0.0701739
0.00338694
0.00401481
-1.96855e-05
-0.0286762
-6.15927e-05
-0.0080722
-0.00188772
0.00042286
-0.00370675
-0.0104882
-0.000135752
0.000975937
-0.00925183
-0.000349219
-0.0111134
-0.0172313
-0.009209
-0.00129594
0.510907
-0.000774675
0.00271281
0.000279317
0.0153329
-0.0486246
0.0106301
-0.000197058
-0.000109751
0.00295167
-0.000120452
-2.96169e-05
-0.0126585
0.000785275
-2.58757e-05
-0.0502376
-0.00255349
-0.0541651
-0.00182402
-7.41767e-05
-0.00345071
-0.0100119
-0.0161126
-0.0255359
0.00258451
0.000594145
-0.000517574
-0.00215651
-8.58825e-05
0.258693
0.00174162
-2.10665e-05
0.000656165
-0.0022525
-0.00039672
-0.0616095
-0.0530069
-0.000142609
-0.00757938
1.637e-05
-0.00293904
-8.00547e-05
0.0374751
-0.000154922
-0.000204484
-0.00395347
-2.39415e-05
0.0149362
-0.000250269
-0.00139365
0.0206641
1.51656e-05
0.348842
-0.0527568
-0.0415526
-2.62108e-05
-2.24199e-05
0.00206567
-0.00130648
-0.051718
-1.81084e-05
-1.78726e-06
0.000829726
-2.99098e-06
0.00042933
0.000507288
-0.000507135
0.00088557
-0.0514904
0.438937
-0.0359876
0.312299
0.0100409
-0.0180266
-1.95698e-05
-0.000971914
-0.0130054
0.000166387
0.000323119
0.000194581
0.0579119
-0.00151349
-0.000238732
0.453289
-0.000602192
0.000658661
0.000567051
-4.78e-06
0.0214328
-0.002415
0.00127129
0.000145559
-0.000594943
-7.42652e-05
-0.00104557
-0.0438421
-0.000458688
-0.00178724
-1.35871e-06
-0.000705721
-0.000287259
0.182498
-0.000486486
-0.000301142
-0.0673035
0.00419426
-9.14207e-05
-0.00146799
-6.67284e-05
0.166898
-0.0719031
-0.000327926
-0.000426026
-0.00211023
-0.00016971
0.0590008
0.110063
0.026439
0.000574413
-7.14028e-06
-8.45825e-07
0.0552602
0.000288835
-0.0595721
-0.0267066
-0.0169035
-0.0352312
0.51651
0.00217125
0.183019
-0.0156251
-0.0298108
0.169649
-0.000392752
-0.0643498
-1.33544e-05
-0.00962627
-0.0480503
6.36819e-05
-0.0513699
-0.00104229
-0.00925572
-0.00608506
-0.0421952
-0.0422158
-0.00354236
-0.0621934
-0.0431744
-0.000205213
-0.0129403
-5.45518e-05
-0.0376816
-2.99547e-05
-0.000204244
0.0165187
0.161391
7.44319e-08
-0.0452603
0.00394954
8.74137e-05
-0.0222021
7.50462e-06
-0.0144419
-0.000282413
-0.0382705
0.000147576
-9.37648e-05
-0.00223482
-4.82378e-05
0.157404
-0.0311322
0.0697719
-3.0371e-05
0.000706945
-0.0330377
9.72327e-07
-0.0563296
-0.064954
-0.0544996
0.473685
-0.00696367
-1.85314e-05
0.0279983
-0.041674
-0.00279112
-2.40055e-05
-9.20183e-05
-0.0467251
0.000147559
0.000981967
-2.86364e-07
0.000183605
-0.0287112
0.0982334
-0.0724244
0.0970421
-0.00574703
-1.0149e-06
0.00673748
-0.0535914
-2.21162e-05
-1.45089e-05
0.000363443
7.42101e-05
0.000457212
0.204355
0.0374249
6.4789e-05
1.34517e-05
-0.0640896
0.195828
0.172374
-4.85545e-05
-0.0366338
-0.0205777
-0.0113689
-0.0472346
-0.00930343
-0.00314555
0.140105
-4.27073e-05
-0.0271272
0.165569
-0.0485942
-1.6239e-05
-0.0597018
-0.000190544
0.262367
0.0297875
-1.23248e-05
-2.83305e-05
0.179964
4.1399e-06
-0.000199167
-0.0124765
1.62461e-05
0.234852
0.00363334
-0.00789133
-0.0614967
-0.00405802
-0.0817161
0.179842
-0.0133946
-0.034973
0.0011196
-1.97057e-05
-0.00111949
-6.12782e-06
-1.56597e-05
0.0238446
0.177777
0.148647
-0.00047958
0.238869
-0.0128204
9.55215e-06
-0.0450642
-1.66715e-05
-0.0286077
0.0308227
-0.0155603
0.00490708
0.00204992
-0.00986388
0.000285502
-0.00181612
0.0207223
-0.00308812
-4.95411e-05
3.42898e-05
-6.53474e-05
0.0337203
6.37493e-05
-0.0238769
0.250766
-0.00643027
5.82637e-05
-0.00372925
-8.90368e-06
0.06615
-0.000388663
-6.95487e-05
-9.1198e-05
-1.32772e-05
0.205506
-0.000164878
0.225709
-0.0612731
0.000130423
-0.0531712
-0.000527352
0.155248
0.465721
-0.00151686
2.80209e-06
1.9501e-05
-2.16322e-05
0.134182
6.70508e-07
0.00116039
-0.0250047
0.214132
8.24074e-06
1.82846e-05
3.23206e-06
2.90021e-05
-0.0213156
2.07471e-06
0.241683
-0.0170808
-0.000131574
3.45286e-05
-0.00221517
-0.0289426
1.3782e-06
-5.9914e-05
0.163994
3.90857e-05
-0.0323793
-0.0598484
0.00015217
7.92015e-07
-0.147636
1.28111e-06
0.160587
1.69998e-05
-0.00048239
1.38911e-05
-0.000188524
0.0933973
4.04388e-06
-0.00176976
1.03934e-05
0.0133919
-0.00364431
-0.00681439
0.000825349
0.152359
-0.000289132
-8.50455e-05
-0.0093842
-0.00905766
-0.000261409
-5.44284e-05
-0.000964585
4.64997e-05
0.160233
-0.010987
0.456743
1.004e-07
-0.00809242
-0.000165532
0.13097
6.5094e-05
-0.0272825
2.71299e-05
-0.00169992
-0.0338234
-0.000248235
-0.0163813
-0.0494255
0.00550011
-7.20302e-06
-0.0591643
-0.000360166
-0.000316348
-0.00589026
-0.0158846
0.00140041
-4.94931e-05
-0.000469121
-0.000992763
-0.00137092
1.62085e-05
-0.00129767
0.449442
0.000110668
-0.00349263
-0.0351308
-0.0702013
-0.062091
-0.0474163
-0.0224287
-0.000568129
-0.0176095
8.7157e-05
-8.61521e-05
0.450139
-0.000100085
0.169857
-0.000485954
0.000447069
-0.00121625
-0.0765329
-0.000449857
0.000640806
-1.47811e-05
-0.000422188
-1.36503e-05
-8.41668e-05
-0.0153864
-0.000116398
-2.57726e-05
-8.79014e-05
0.000167699
-9.02813e-06
-0.042985
0.211744
-1.00003e-05
-0.000649904
3.95073e-05
3.57667e-05
-0.000896319
1.11005e-05
-0.000971646
0.000318912
-0.00039426
-0.062504
-0.000744182
-0.0019619
6.03674e-06
-0.00169663
0.000377679
-1.57997e-05
-9.65553e-06
1.57185e-05
-0.000854991
0.000604019
-0.0444939
-0.0282421
-0.0627729
0.000624874
-0.00201399
-0.0284344
-0.0631644
-0.000100366
0.0164282
0.0074142
-0.00112842
-0.0123299
-0.0542228
0.405833
-0.000449566
-1.53779e-05
0.000968548
5.67254e-05
2.07899e-05
0.0759213
0.00393434
0.0872811
-0.0385913
0.395596
-0.000564758
2.86331e-06
0.000172666
-1.81468e-05
-0.00147146
0.149362
0.213535
-4.45812e-06
-0.000183293
-1.65204e-05
0.202462
0.017765
-0.00640343
1.37602e-05
2.25161e-05
0.00782131
-0.000749668
-0.0708618
-0.0172715
2.90302e-05
0.00379651
-0.0321399
-6.32227e-05
0.00195907
-6.97769e-05
-0.0453245
-0.0018609
0.142571
1.93709e-05
0.00182257
-0.000151494
1.77751e-05
0.000195922
-0.0234701
1.73204e-05
-0.000981696
2.68523e-05
-0.0202065
-0.0445255
-0.00332477
-0.00777254
-0.008948
0.00976415
-0.00909181
-0.00262098
7.68117e-05
0.000120562
2.42805e-05
2.12041e-05
-5.91473e-05
0.00973174
-0.0588966
0.000550559
-0.0472774
-0.00326964
-0.0528966
9.89895e-05
-4.42049e-07
0.00142751
-0.0746857
2.12823e-05
-0.0465462
-0.0153443
-0.000713563
-0.0479919
3.10253e-05
-0.00365993
0.000219695
-0.141546
0.131577
1.48079e-05
-0.0593553
-0.0229497
-0.00448298
4.42223e-05
-8.46777e-06
0.026712
-0.0169042
2.85991e-05
-0.0070955
-1.92817e-06
0.000243946
0.121371
-8.41759e-06
6.19564e-06
-8.93027e-05
4.02515e-05
0.000985073
9.93605e-05
-0.00552786
0.000264289
-0.0129617
0.00120755
-0.00021995
-0.0334569
-0.0427598
-0.00655701
-1.57289e-05
2.51519e-05
-0.0641681
0.00621085
-0.0469607
3.39855e-05
-0.00540778
-3.84068e-05
2.85995e-05
0.0718741
-0.00728537
-0.00294404
1.04887e-06
-0.0180522
5.66775e-05
-0.065736
3.14987e-05
-0.0738296
2.38099e-05
-5.86013e-06
9.61128e-05
0.00112123
-0.0923696
-0.0183086
-0.0690495
1.95433e-05
0.00010849
-0.0755351
-0.0268918
-0.00871297
-4.16195e-06
-0.0348756
-0.0509758
-0.0743735
5.90413e-06
-7.1983e-06
8.50894e-06
-0.089491
-0.0673315
0.000794395
-0.0113476
-5.77533e-05
0.203387
0.000107277
1.80616e-05
0.000170585
-5.8949e-06
-7.88982e-06
-0.00380842
0.000129685
-0.00271025
-0.0650648
-0.0133579
-0.055552
4.69673e-05
-5.36465e-05
0.0519276
-0.0572513
-0.00495706
0.110159
9.45672e-06
-1.29182e-05
-1.18585e-05
0.104351
0.00019565
4.17536e-06
-3.03341e-06
-0.0628694
-0.0157508
9.01333e-06
9.18811e-05
-0.00952943
-0.00668263
0.000475972
0.215468
-0.0604313
0.000170181
0.57869
-1.54252e-05
-0.000733336
-0.00892618
-0.0724619
8.87028e-06
3.91401e-07
2.49084e-05
0.00517997
-0.0341377
-0.000357877
-0.0489067
-0.00797735
3.25259e-05
-4.5864e-06
-0.0104147
-0.00548408
-0.0180947
-0.0780237
-0.0444019
-0.0385712
-0.00302981
-0.0276208
-6.58156e-05
0.000395721
0.00596198
0.000587851
-7.96325e-05
0.000839908
3.76362e-05
-9.31848e-05
-0.0123878
-1.22614e-05
-2.787e-05
0.0369148
-0.02583
-0.000168559
-3.76797e-05
-4.40842e-06
0.234447
-0.00686198
0.000861664
-0.0284121
0.000255786
0.000223054
0.000193937
-5.01433e-05
0.000537114
-0.037946
0.0169978
-9.20931e-06
-0.000171053
-0.042124
-0.0326573
0.0496634
-0.000523682
0.00198016
0.0188957
4.13983e-06
7.02759e-05
-0.049981
2.58194e-05
0.159041
1.26765e-05
0.00452347
0.000188065
0.000250331
-0.0678258
-0.00756722
-0.0181598
-0.00252257
3.04744e-05
0.00681831
0.0618247
-0.0125936
-0.000141776
0.0932184
0.155159
4.74335e-06
-0.0512722
-6.89696e-05
-9.18911e-06
-4.63151e-05
-0.000604504
0.0208859
-2.52177e-06
0.000276801
-0.0250161
-0.02588
-0.0222226
0.29067
2.26311e-05
-7.19187e-05
0.163534
-0.00699492
-0.0039651
-0.000695636
0.161038
5.18493e-05
-0.000332037
5.50052e-05
3.31865e-05
3.61969e-05
4.13935e-05
8.31562e-05
-0.0178785
1.1618e-05
-0.00348148
-0.043757
0.225663
-0.000147097
-5.1447e-05
0.0050674
0.0839497
-0.049473
-0.000800244
-0.0685537
0.289336
4.93644e-05
0.373385
-3.87654e-06
0.00360362
0.0255285
0.000484634
0.403481
-1.10063e-05
-5.71564e-06
0.00125805
3.58293e-05
-0.000916513
0.000293287
1.47316e-05
-0.0020611
1.535e-05
-0.000153087
-0.00345471
0.229631
0.0522532
0.0231822
-0.0429628
-4.81685e-06
-1.69658e-05
0.00367066
-0.0584788
-8.77304e-06
-0.0459133
-5.54082e-05
0.101716
0.0621886
-0.0335906
-0.00142638
-0.0125176
-0.0010402
-0.0150754
0.00389186
-0.00770764
0.0644771
2.72047e-06
0.224299
0.031371
-0.000630685
0.200274
-0.0136617
-1.26403e-05
2.87756e-05
7.52464e-05
-0.000222758
-0.000128052
0.232609
-0.00103659
0.238083
-0.00115163
0.159279
0.210244
0.109585
-0.00727789
-3.60326e-06
7.56684e-05
-0.0108708
-0.140144
-0.0494699
0.00161686
2.60422e-05
-0.037799
-0.000338486
1.21557e-05
0.00110177
-0.0011283
-0.000697974
0.0342514
8.50734e-05
-0.0474333
0.0590497
6.58353e-05
0.000299502
-0.0149091
-0.0605364
-0.000774568
-0.000551994
1.75542e-05
0.000280108
0.0789303
-0.0175869
-0.0490629
0.00142186
0.0931059
-0.0392535
4.27284e-05
2.7574e-05
0.0189653
-9.17038e-05
0.0791255
0.00105693
-0.0138389
-0.000405197
0.00175721
-0.0369751
-3.28344e-05
0.000543521
-0.000481124
-0.0733126
0.145408
-0.0611193
-0.027481
-0.000173256
-4.72971e-05
0.0071985
5.34636e-05
-0.0728997
-0.066662
0.000623648
0.0036686
0.00406854
-0.112615
0.000706639
0.000214169
4.52963e-05
-0.0420875
3.34612e-05
0.000617637
0.119121
0.172468
-0.127583
0.050125
0.0491795
0.0184933
-0.000167166
0.012065
0.000138717
9.80644e-06
-7.45365e-05
-2.1847e-07
3.40052e-05
-0.000377939
-0.00792528
-0.0642332
-0.0100794
-0.0303659
0.0537992
0.0450174
0.00438402
-0.065181
0.000182709
0.00500132
0.0120593
-0.000410546
0.076302
-0.00132949
-0.0113835
0.012697
0.00590531
0.00108939
-0.00421917
0.0445847
0.000897118
-0.0201573
-0.0169613
0.47514
-0.0256437
0.0818899
0.0206303
-0.0394671
0.00236346
0.000116932
-0.00269166
6.63205e-05
-0.00276797
-0.0260562
-7.21291e-05
-4.50331e-05
0.25605
-0.00347098
-0.0421254
-0.0192285
0.000228009
-0.00154135
-2.26036e-05
1.02054e-05
0.0397077
4.67547e-05
-0.0030869
0.0769038
0.00672482
0.00122088
0.0194227
-0.00600617
0.00447301
-0.127559
0.000942935
-0.0046499
-0.0566747
-0.000913469
-0.00840015
0.000818082
0.000871332
0.00107659
0.0383337
-0.000337723
0.00607254
-0.0538922
-0.0213139
0.000342876
-0.0531943
-0.0154106
-0.0175468
0.000119338
0.00707816
-0.0738246
-0.000890408
-0.00509131
-0.0489679
1.42097e-05
-0.00123259
0.210555
-0.0228684
-4.31082e-05
0.00880262
-0.0525043
-0.00111001
0.187094
-0.00235807
0.00110019
0.0602532
-0.00150566
0.00891327
0.1252
7.27363e-05
0.00127128
0.000199322
4.44519e-05
-0.00472082
-0.0076629
-0.0001388
-0.0247107
0.0977997
-0.037294
-0.0770969
0.00125986
-0.0034376
-0.000658326
-0.0531235
3.44769e-05
0.0174741
5.36128e-05
-0.0163357
-0.00205331
-0.00520277
-0.0450238
0.115503
-0.0857739
-5.43696e-05
0.186869
-0.00208054
-0.00275293
-0.0587347
-0.0895807
-0.0161482
-3.01449e-05
-0.00121123
0.00774029
-0.00325263
-0.00494706
0.000475683
0.08694
-0.0456953
-0.0115112
-0.00695921
0.0234576
-0.00290022
-0.00133669
0.00183943
-3.571e-05
-0.00324447
0.113232
0.000861269
-0.142052
-5.50437e-05
-0.00763229
-0.00391784
-0.0996843
-0.0119323
-0.120508
-6.63619e-05
-6.40092e-05
-0.00468409
0.0113738
0.00195616
-0.144077
0.0869052
-0.0493195
0.000209866
-0.163045
1.39784e-05
-0.173295
-0.02607
-0.193229
-0.193825
-0.186696
-0.151555
-0.0748442
-0.0448309
-0.016003
0.0125615
0.0418341
0.126995
0.155287
0.181308
0.227267
-0.00837235
-0.00769256
0.0621228
-0.0195237
0.000973301
0.0156254
-0.0411404
0.000557648
-0.000727211
-2.74817e-06
-0.0147722
0.0188463
5.08521e-05
-0.0003416
-0.010846
-0.00743107
-0.193944
-0.0145457
-0.056791
1.43574e-07
0.000621782
-5.44667e-05
-0.0597471
-0.00915992
-0.0374955
-0.0115239
0.00185368
0.000245057
0.00505335
-3.39762e-05
-0.0135777
-1.06021e-05
0.000409554
-0.00677595
-0.0118744
-0.00030691
0.000361746
0.0499492
-0.010765
0.06449
-0.183772
-0.00900598
0.09949
-0.0192516
0.00396472
-0.0219975
-0.00342606
-0.0129116
-0.0133268
0.318368
-0.00140855
7.93139e-05
-0.00606621
-0.00932595
3.78325e-06
0.0806634
-0.00429505
0.29804
-0.107135
-0.0437409
-0.0272691
0.0462388
-0.00525864
-5.06166e-05
-7.75083e-06
-0.00436415
-0.0623827