/*--------------------------------*- C++ -*----------------------------------*\
  =========                 |
  \\      /  F ield         | OpenFOAM: The Open Source CFD Toolbox
   \\    /   O peration     | Website:  https://openfoam.org
    \\  /    A nd           | Version:  7
     \\/     M anipulation  |
\*---------------------------------------------------------------------------*/
FoamFile
{
    version     2.0;
    format      ascii;
    class       surfaceScalarField;
    location    "20";
    object      phi;
}
// * * * * * * * * * * * * * * * * * * * * * * * * * * * * * * * * * * * * * //

dimensions      [0 3 -1 0 0 0 0];

internalField   nonuniform List<scalar> 
11512
(
155.33
-510.913
355.583
-761.792
-16.285
778.077
427.77
-391.963
-35.8077
653.64
268.179
-921.819
1551.54
-1099.64
-451.899
1201.96
-1505.66
303.694
-54.1847
498.785
-444.6
172.896
-863.661
690.765
982.439
-1650.22
667.778
-1779.27
1690.08
89.1886
-568.004
1769.97
-1170.37
1985.15
-814.781
617.248
181.129
-798.377
-23.0274
-1340.7
1363.72
226.438
-2005.71
1053.47
-390.984
-662.485
-176.301
331.631
491.155
184.181
-675.335
1188.26
-1348.31
160.051
-315.217
389.682
-74.4654
1029.86
-1336.04
306.184
1252.93
820.391
-2073.32
70.5373
-1671.87
1601.34
-506.407
-1153.93
1660.33
476.287
169.489
-645.776
-198.816
-312.098
509.983
1041.56
1678.28
-1834.33
156.058
-106.493
-1686.54
1793.03
-1600.51
666.106
934.4
-313.695
672.495
-358.8
-112.893
-106.611
219.505
1309.16
-1238.62
368.323
-1444.82
1076.49
-1161.89
1161.89
96.374
1557.45
-1653.82
-1104.64
-495.867
670.183
-724.367
-393.605
967.832
-574.226
1268.02
-1260.95
-7.07038
-1131.19
737.58
647.312
406.158
-394.165
-46.9944
441.159
-438.57
779.88
-341.31
-1019.89
1019.89
1226.24
-1371.49
145.25
-501.449
1754.38
1291.41
-323.578
1701.18
-1187.29
-513.895
86.5501
-401.767
2118.35
-1163.78
-954.568
1844.72
-166.443
441.557
137.638
-579.195
-460.438
994.081
-533.644
-1190.39
1286.76
-583.752
998.674
-414.922
415.005
773.256
667.282
-494.386
-449.838
614.108
-164.27
1223.25
-854.929
2360.85
-1105.93
-1254.92
1193.73
-2060.36
866.634
-1631.25
1608.22
452.467
-1622.84
-674.446
1178.71
-504.265
-692.696
379.001
1702.01
-719.573
-1131.24
-890.314
2021.55
680.796
-370.954
-309.842
708.833
582.577
-266.986
1493.22
122.148
-331.018
208.869
-289.417
765.704
-304.221
492.107
-187.886
-331.519
822.674
-327.078
-155.494
482.571
339.804
87.9667
1482.14
-452.283
-993.313
499.569
493.744
290.256
91.3944
-381.651
969.201
-351.953
-1741.43
621.514
1119.92
29.2737
-872.449
843.175
-284.192
603.542
-319.35
162.339
-1124.14
961.796
909.598
-924.571
14.9722
384.189
532.827
-917.015
-245.057
686.614
-1131.55
-496.675
1628.22
-521.58
777.703
-256.123
1352.17
-1458.67
-638.397
289.945
348.452
-484.921
-1027.94
1512.86
-555.668
-812.83
1368.5
587.598
-1010.35
422.756
-134.396
-218.119
352.515
421.868
-299.72
-1062.96
602.524
982.045
-819.706
-102.952
805.663
-702.711
-194.956
396.994
-202.038
-628.916
-364.397
-397.216
984.814
1300.44
-1300.44
-462.802
-175.595
-947.593
1574.4
-626.806
365.262
-799.64
434.378
-950.274
366.522
-958.992
-1080.87
-1524.94
362.081
1162.86
-276.752
930.391
-309.76
628.937
-319.178
-1982.03
1023.04
-1158.6
-366.334
573.596
-1521.19
1771.08
-1769.81
-1.26684
225.952
-619.914
393.962
-1477.38
976.245
501.136
300.445
217.125
-517.569
304.323
-608.543
192.348
-313.752
121.404
2037.08
-840.173
-1196.91
-562.134
167.969
636.519
852.757
-1489.28
-161.239
353.587
444.433
899.307
-1343.74
-936.199
407.504
528.695
-1070.91
1485.91
-877.724
203.278
776.042
-103.547
550.87
-277.819
-273.051
1019.44
-519.866
612.445
-1441.89
829.443
-1378.72
247.172
-542.463
258.271
-1202.04
925.284
2002.04
-1131.59
-870.453
268.747
1031.69
-2146.58
915.989
1230.59
225.363
-17.0281
-208.334
-180.724
356.183
-175.459
-119.66
-386.582
506.242
-482.352
155.274
311.383
-61.6834
426.945
418.616
402.946
-821.562
-2050.11
1133.83
916.28
473.949
-550.095
76.1459
159.829
-240.912
81.0828
974.78
1062.3
1811.66
-254.217
730.432
-440.487
817.477
-1427.54
610.062
351.951
328.845
1070.96
-1041.69
-514.081
-247.764
761.845
494.409
-142.3
-352.11
749.847
-568.718
613.048
-803
189.952
519.3
1181.88
-1274.11
718.437
1033.3
-1539.7
2.20131
-1474.13
1471.93
334.041
847.879
-1181.92
628.263
259.984
-888.247
-2276.39
1173.68
1102.71
-1127.97
-1148.42
218.27
394.778
985.143
-651.102
715.504
-728.256
12.7518
-2146.26
1015.02
-96.8109
-110.714
207.525
-44.4205
1815.5
-845.225
83.4335
-1052.58
-1094
-187.851
347.68
-675.649
212.848
-273.498
-427.61
701.108
1126.63
-1611.55
801.018
-1411.02
610.002
707.711
-439.532
1955.23
-1435.93
-352.745
-809.15
78.0781
420.707
-546.202
529.917
3.32751
-577.264
573.936
588.29
-287.845
-598.282
282.513
315.769
801.739
-383.123
18.889
206.474
1217.69
-1215.49
187.146
234.722
396.084
-669.582
635.651
-1032.87
-2074.8
2074.8
-259.521
-452.964
712.485
719.926
409.934
-1129.86
595.853
180.189
404.529
397.211
-2249.04
1358.72
-950.269
-697.197
1647.47
-484.33
-717.705
-261.73
554.621
-292.891
863.769
-216.715
-647.054
-437.063
663.016
388.995
-698.754
-353.392
-146.79
500.182
-1347.76
-486.576
651.608
-1135.94
-344.358
-675.535
863.446
1497.4
241.443
-444.178
202.735
994.168
-346.856
1429.04
-816.598
460.333
-273.187
-340.346
-902.711
589.631
313.08
-349.688
-553.023
314.939
-434.599
-204.703
-133.155
337.858
-404.331
1124.26
412.316
-228.135
-356.195
1379.19
-182.294
-1196.89
-482.068
277.912
204.155
234.406
250.961
-485.367
8.72126
-811.721
608.166
-1771.1
1162.93
1519.71
-883.19
-1049.61
-427.773
-1087.48
589.339
498.146
1397.63
-421.386
952.692
-1449.37
-170.895
-221.054
391.949
-479.472
598.885
-1669.79
422.912
845.11
282.009
300.603
-582.612
510.928
650.966
1135.83
-737.156
-398.675
406.322
-217.92
-188.403
-1454.27
457.86
758.126
-1215.99
1512.73
-560.037
-489.327
938.62
-449.292
439.927
1210.65
-1650.58
20.5838
-542.164
-148.326
438.582
85.5823
-198.476
529.841
489.594
-659.719
57.5721
602.147
985.238
-1224.06
238.822
680.429
-275.9
483.332
-1484.77
1001.44
422.418
1729.74
-536.011
843.559
1158.49
-682.207
-1728.7
778.43
586.913
395.982
-982.895
463.904
82.6509
1792.63
-1875.28
1399.51
-390.126
-1009.38
1740.82
-1785.24
-378.652
-524.921
739.911
-214.99
-520.42
192.179
302.231
-382.091
-1248.17
220.231
-787.804
-654.083
-618.63
1046.73
-428.103
-459.179
452.667
6.5119
569.067
-748.709
179.641
-275.464
81.689
193.775
-666.275
-701.49
359.577
341.913
-953.36
1436.69
-418.858
906.249
-487.391
-2254.91
5.86967
189.973
-554.967
364.994
152.87
1226.32
-104.632
-571.018
166.774
-616.611
1526.1
-725.084
385.071
-480.315
95.2442
-135.412
135.412
670.618
349.274
1823.47
-1262.75
605.565
657.183
787.735
-37.8883
1325.29
793.059
-555.764
1373.24
293.959
309.583
292.215
-817.136
252.824
-691.394
220.456
-409.765
189.308
-244.993
598.509
-353.516
130.447
-375.44
-607.714
-581.082
1188.8
-364.81
538.781
-173.971
-1192.66
2059.19
-866.53
1325.48
-340.341
-176.75
42.3534
-1988.24
834.313
1550.79
-848.915
-701.875
2034.86
-899.346
-1135.51
733.249
592.236
-234.909
455.365
-676.762
1156.93
-480.163
-789.987
1234.42
565.957
948.348
-1769.73
821.385
-542.673
-82.1525
624.826
302.673
248.197
425.662
-106.418
-319.244
753.493
-72.25
-681.243
929.477
-558.1
-371.377
1613.43
-486.797
909.956
-1668.57
758.613
1095.65
859.582
772.091
-459.486
-312.605
-995.644
-265.308
568.233
600.315
-1168.55
-451.715
509.058
-57.3432
595.711
-358.114
-237.596
-1008.29
589.431
613.657
906.052
-443.577
1012.64
1441.02
-785.058
-655.965
411.968
-952.962
540.994
-1040.34
411.423
567.611
-1056.94
468.613
-527.92
59.307
484.29
295.59
-114.182
-21.23
-816.073
-899.345
1715.42
197.312
209.011
-238.662
456.932
-43.3417
-550.003
593.344
493.278
893.074
-1386.35
-523.714
319.012
796.071
-42.5778
858.566
-1094.48
235.918
389.122
868.373
-1424.14
-452.002
854.948
2028.42
-1316.22
-712.199
241.652
473.852
237.542
672.056
101.085
-985.881
884.797
1714.39
-1112.51
-601.886
-142.909
1935.54
-1910.79
-164.014
455.909
-573.559
117.651
-1044.19
540.939
503.249
-1698.16
505.496
-957.992
855.04
402.786
211.322
490.374
-248.931
-440.055
732.983
261.185
55.0893
783.391
-838.481
-1159.83
-872.032
2031.86
-535.993
1116.34
-580.349
-469.442
-123.27
26.4595
-1697.2
881.132
-838.809
-634.624
1473.43
-283.534
-279.111
562.645
369.146
-664.214
295.068
238.932
-622.055
314.433
221.134
-535.566
351.772
-613.502
633.621
-264.476
323.601
-479.094
678.342
411.993
-177.587
-393.225
-308.266
1242.81
-8.71249
-1234.1
1067.82
-432.165
575.014
423.66
-1797.27
860.559
936.707
512.267
553.947
-1066.21
-430.958
147.423
-269.923
1211.99
-942.071
-1565.45
1212.71
518.23
-1125.94
400.208
-15.1376
426.11
311.688
-737.798
381.057
-626.114
-28.8613
775.015
-746.153
-465.088
725.073
383.275
311.507
476.228
673.085
88.5669
-402.514
313.948
966.353
-565.965
-400.388
508.896
-1704.34
1195.45
-1165.57
1796.05
-630.471
1757.53
-1149.36
-340.109
622.621
-1184.39
1285.47
312.615
-820.969
1636.13
-815.166
-252.965
-229.103
-941.082
1508.84
1858.73
-627.983
-1230.75
-417.447
738.957
-1357.59
-72.0611
-41.0614
466.723
-697.933
-363.498
-1201.96
-233.704
472.635
878.665
-579.007
192.424
-1716.39
-73.7876
1790.17
-1080.81
544.819
588.55
-1212.72
624.172
925.286
933.447
621.77
556.941
698.058
240.561
-1152.64
475.876
-418.186
421.513
640.723
-529.5
261.012
-757.263
496.251
693.816
-341.865
-257.178
150.567
-608.775
227.02
381.755
-913.349
-755.22
1110.13
-2191
411.33
-700.746
-328.264
-596.307
857.376
583.647
-361.163
314.169
363.185
247.584
676.645
-924.23
527.12
629.805
-543.145
189.753
364.758
-624.279
-1129.55
-803.09
1932.64
-1833.7
161.827
1136.04
-1405.97
1181.09
-724.143
-456.947
-518.146
1386.52
-1532.57
647.034
885.538
-160.06
-149.441
309.501
1462.68
572.179
335.414
-482.204
-502.224
-577.441
1079.67
-428.302
618.275
1623.74
-1158.05
-465.691
-788.107
335.143
572.716
393.637
-1662.69
429.824
1232.87
-208.672
523.105
818.909
804.826
210.321
-696.059
485.738
200.597
196.397
-235.283
-94.0632
329.347
488.341
-4.08137
-484.26
-1654.94
605.329
-1617.88
1691.54
-73.6633
16.2378
-1634.12
1055.15
769.132
-343.021
-816.362
-223.977
-1166.35
-244.668
-319.348
700.405
-1859.3
-637.726
1238.04
211.944
782.138
-1364.25
-696.11
-479.414
613.474
-331.465
-1034.2
1383.24
-1980.86
597.623
663.038
1322.12
357.439
-1.25662
739.348
713.54
-1452.89
-659.59
350.332
309.258
335.376
-80.7896
-254.587
162.647
295.185
175.857
-471.042
-587.797
1174.71
463.386
-625.686
-472.532
-414.685
887.217
-353.497
182.602
-474.389
174.669
-315.474
-728.714
406.005
-70.6289
-583.319
995.287
354.518
-184.224
-170.295
469.457
-800.976
-665.325
440.948
-1153.8
-846.843
1208.92
-584.557
469.521
292.325
-454.388
83.4338
1057.29
-194.339
407.525
-213.186
-524.492
1579.64
-766.649
243.701
386.804
-630.505
226.458
483.391
-24.795
-458.596
-260.469
-213.92
868.409
1133.05
581.341
-885.859
963.32
-77.4612
-215.143
55.0831
-739.918
312.308
-650.998
320.058
373.757
845.699
-1251.33
405.633
800.343
-829.205
-964.14
-568.972
1533.11
-164.417
465.02
-545.665
267.846
1360.47
786.115
-575.794
1336.5
-684.894
496.669
-693.498
-420.512
-434.454
-388.642
823.096
517.169
-869.122
-455.21
92.7571
362.453
-252.312
589.507
750.416
-339.086
-226.863
-168.748
395.611
-507.605
153.222
354.383
1494.25
81.4302
-1575.68
-767.77
1381.43
-1175.06
-475.152
554.677
-167.874
1181.11
-380.77
1106.19
507.237
713.942
-421.728
-905.67
-539.147
-1354.27
-31.7851
1012.04
-980.258
604.133
339.453
-943.586
-327.546
-234.588
-756.632
415.147
1659.66
-183.974
370.742
366.094
-736.836
-1885.15
-2154.76
1553.2
601.561
-2042.07
355.533
374.936
540.701
-915.637
-474.047
1049.06
-409.573
-675.113
1084.69
-2076.65
1421.85
654.801
602.54
-1012.11
60.1781
408.435
388.22
208.183
252.15
318.973
977.475
880.154
701.186
-337.201
-363.985
-303.99
640.228
-336.238
591.655
544.175
575.287
504.993
-1080.28
-813.053
-719.518
774.438
406.676
-423.934
719.002
-1218.62
1648.44
436.75
-1111.86
-330.334
551.468
-1413.9
911.557
502.345
-715.888
-320.926
-846.782
382.396
464.386
460.317
737.366
-1197.68
1097.39
-585.122
-404.701
676.5
-271.799
180.654
173.865
-481.432
-445.53
926.963
-251.313
558.834
-969.366
410.532
-466.142
614.544
-1720.47
436.135
688.959
-1125.09
539.908
89.0291
116.176
-2262.43
559.438
-89.9175
1481.95
1816.64
-221.607
-1595.04
-449.419
1832.66
-2037.19
1224.19
813.004
417.946
354.145
-27.6088
884.985
-1318.88
737.802
-896.117
-846.839
815.054
322.128
54.4436
-376.572
96.8519
106.376
-203.228
1587.88
-848.536
-981.716
-318.72
486.923
-201.043
-285.879
401.131
364.572
251.843
361.631
-8.0211
1027.59
-1019.57
377.572
284.585
-662.156
-751.52
1860.83
-1109.31
-351.992
753.123
-1238.24
-415.578
-943.077
497.547
584.904
-795.595
210.69
785.693
-393.652
-392.041
-425.208
-460.651
451.839
1094.73
1269.21
-680.662
824.907
-355.45
388.145
324.34
-262.301
-218.014
-218.545
640.964
419.91
-873.728
453.818
218.441
362.352
-580.793
-436.266
856.176
775.257
-1179.59
896.044
-50.3452
-509.015
291.44
779.524
-98.0196
1420.13
1932.82
-74.1398
352.052
-323.031
411.598
-1113.91
1105.89
629.414
387.426
398.266
60.6366
426.286
279.122
498.954
-380.286
-279.304
-383.13
-76.0493
-366.746
380.23
-13.484
-257.969
-284.494
1034.43
-1580.49
546.061
-202.162
-189.801
-387.281
671.865
-1667.81
1629.84
-982.81
268.918
-689.431
599.298
1250.98
-1850.28
626.137
1003.71
313.827
-1149.43
709.376
-290.106
-292.506
1398.87
-1478.8
839.733
639.072
416.822
-638.364
221.542
-367.964
490.222
-122.258
373.704
114.638
1768.74
452.159
-251.562
573.421
-1745.48
1172.06
-92.5957
400.93
351.932
349.254
-461.282
-632
1093.28
436.356
-888.358
-658.349
925.324
587.405
-141.051
-134.413
-452.927
-420.801
-317.934
-848.417
1262.55
-1262.55
-99.287
-1607.09
1706.38
300.377
295.333
-938.551
-572.618
1511.17
-417.91
993.197
-616.236
-1038.7
688.792
406.24
-1095.03
492.565
-168.965
587.371
1246.84
-1834.21
-1050.64
2114.94
-1064.3
-383.53
-309.166
-494.006
829.149
-1791.75
1638.81
152.937
1791.75
-1640.91
-150.837
-249.445
531.881
-282.436
-552.595
1658.79
1588
-2003.58
1100.21
-287.267
-261.95
549.218
252.586
-582.921
-717.891
293.957
1376.37
652.051
592.062
500.728
-1092.79
294.543
419.399
894.664
515.67
-1410.33
543.946
-1046.17
1615.17
-580.747
-775.456
-372.707
-120.694
493.401
-504.415
1241.78
-765.265
335.39
351.224
365.536
268.351
-633.886
618.122
855.468
-619.55
280.58
682.74
-141.051
-322.146
-238.027
560.173
1194.16
-674.572
628.769
477.436
-1106.21
-1005.5
1005.5
-398.424
785.85
-297.276
-485.857
783.134
494.185
464.75
-958.935
397.997
-695.273
632.329
-893.062
260.733
-378.948
-511.359
1103.42
-680.879
-727.567
1408.45
-392.258
951.092
-1590.36
691.011
47.5274
-426.342
378.815
-506.418
719.265
260.889
337.62
177.672
314.893
-524.613
234.507
1917.8
-2015.82
282.852
-719.916
455.77
-845.196
389.426
-908.333
1434.18
-525.85
-442.826
-500.251
617.132
1150.45
-1767.58
-736.939
353.409
-472.281
1063.94
-785.675
1066.25
-350.272
-644.099
-485.366
738.19
483.194
-313.705
930.541
-308.602
-199.003
1635.93
-1857.54
-363.031
-606.335
-340.95
494.172
266.072
-597.538
-191.953
1081.72
-790.28
223.922
-293.923
-290.202
584.125
411.269
-899.223
487.954
-484.354
-455.468
-444.178
-342.516
586.271
-243.755
-461.637
-428.141
-331.125
-204.442
-389.728
658.079
-450.355
774.695
-1102.12
640.842
-1411.03
572.223
-28.111
-1881.34
1909.45
587.551
-462.341
1237.68
-692.864
52.7729
-52.7729
687.619
-442.292
1038.56
-1654.8
-1184.54
-970.224
303.285
336.944
899.586
736.549
-494.725
-317.5
812.224
1699.16
-1727.27
-445.494
362.423
225.868
1166.82
-538.052
-965.052
1586.23
-621.177
459.506
-251.323
384.859
394.952
-779.811
537.142
491.421
-1028.56
-336.249
671.639
-39.1219
1956.92
1612.16
1016.43
-1741.52
746.066
-1210.15
464.085
-508.708
1403.37
859.571
-1377.72
-562.43
275.163
813.411
-417.429
571.793
-1219.58
647.787
-656.549
-1242.77
-712.977
1955.75
-212.398
562.093
-349.695
-182.479
296.419
-508.817
333.786
386.103
-719.889
-1517.96
778.835
739.121
901.39
-1470.36
850.551
-443.047
228.287
-376.613
-595.221
273.075
-690.133
-723.769
717.755
520.172
-1237.93
404.43
-209.902
-194.528
571.156
-986.077
-571.626
-428.837
741.145
-851.383
-1185.81
-1474.82
514.803
960.021
9.81056
-640.527
350.045
290.482
-1341.69
1073.8
267.892
-632.878
-469.245
-670.781
908.323
415.176
-211.865
-203.311
524.37
1003.15
-1527.52
1001.89
-353.424
119.657
233.767
-410.736
689.564
-406.712
-524.276
183.326
240.546
-1556.77
550.482
546.907
-761.231
254.814
164.532
-473.134
386.577
-842.045
1996.26
-1220.79
-775.467
412.615
-682.64
270.025
177.056
330.467
130.602
-461.069
-574.793
195.339
256.82
-712.759
1409.78
-697.019
435.816
483.923
-1199.81
273.912
1914.64
-1040.21
-874.431
746.644
-538.641
196.125
1428.06
-988.552
-439.506
350.565
-792.857
-633.877
1766.93
631.754
637.458
331.253
-9.12527
284.863
-1163.51
1767.36
-603.849
-1804.31
839.255
1777.14
-1703.98
-73.1605
-677.858
259.672
578.019
-724.455
239.09
1440.43
-580.864
406.963
447.985
-1904.2
1454.78
557.191
-425.58
-131.611
222.216
-553.341
-279.637
-189.805
-364.155
716.088
-588.342
215.635
618.066
571.565
-1189.63
1140.14
-1996.53
856.395
174.21
325.972
-1743.71
1704.59
331.719
-753.447
-168.482
396.769
767.525
700.021
-1467.55
1092.48
-1101.2
546.364
-1131.49
-650.826
263.313
387.513
529.601
-302.58
-627.598
-1027.2
311.376
-739.518
-932.08
194.129
171.262
233.168
389.896
309.729
-699.626
-640.929
-856.083
-1003.21
510.344
-1085.14
-288.516
492.672
553.302
655.621
-142.356
-34.3937
-412.265
726.093
286.772
-1229.49
588.563
1339.93
-572.409
462.885
-1034.51
-212.985
170.039
387.151
1046.93
568.24
-1726.91
1627.62
1648.45
-590.86
-1057.59
1951.83
-1939.71
-12.1214
209.333
-532.364
-345.636
569.558
-774.738
-324.919
-352.939
1020.85
719.902
-1526.11
806.21
363.485
-25.9197
1661.85
-1102.15
427.574
-1258.21
482.756
-60.9034
1555.15
1231.23
-485.166
-323.235
-30.189
-278.779
754.356
-1997.13
-732.737
356.788
-551.229
194.441
72.7773
-267.116
1167.32
688.414
-1855.73
-616.298
190.718
964.209
-1536.83
-216.697
667.356
-450.658
888.519
1111.48
-752.765
1384.52
611.655
-485.699
-125.956
-361.38
1201.11
1061.28
-1982.12
920.847
-1201.13
563.401
1528.2
-602.877
-378.9
-164.245
-1272.98
592.316
1193.26
-73.342
970.805
795.724
-1766.53
-222.219
595.913
-1581.98
986.066
503.045
937.237
-1440.28
630.15
607.892
391.216
-1130.92
414.779
1135.25
601.346
-322.45
-278.896
-1213.21
-1797.38
-3.92054
-1722.99
-219.143
-419.221
1648.74
-641.665
-1007.08
-505.611
1127.38
-1351.21
655.797
695.413
-1395.59
1477.02
-1364.08
611.315
1560.12
-400.34
-580.287
201.387
-1499.19
240.397
179.89
233.585
378.07
434.499
413.423
-847.922
523.373
-960.397
923.438
-1483.48
-708.77
246.973
461.797
-1066.84
479.045
-480.334
887.296
716.782
33.4624
-537.7
188.005
-905.923
-1348.98
-738.086
362.345
375.74
418.7
-744.914
326.215
-431.062
-171.669
-556.587
735.394
1579.17
-608.368
828.474
759.41
1372.68
-857.013
-994.564
-587.415
-822.06
439.801
382.259
-1065.04
-662.858
315.559
347.299
-1423.52
-274.633
-815.265
411.195
404.07
-662.423
399.759
262.664
-691.992
285.28
425.856
501.107
401.497
454.679
491.159
396.057
611.21
-993.301
686.878
487.832
456.334
351.842
-808.176
1669.58
-1103.02
-566.562
-520.395
-285.775
-1055.92
467.625
355.471
421.657
609.588
-1031.24
-1416
774.335
-551.989
1176.16
365.596
-70.4107
424.521
-891.909
467.388
-1904.46
297.367
442.906
-717.821
274.916
-191.071
418.727
-227.656
-682.629
320.156
362.473
-695.812
331.827
381.544
404.306
629.436
-1047.35
774.223
678.485
-1452.71
451.001
642.281
329.602
348.394
-677.995
419.433
333.691
604.522
675.502
419.229
596.266
-1040.37
444.107
-1701.07
1184.16
516.911
1737.24
-555.358
639.107
-1179.41
540.302
-620.755
341.645
450.698
-962.749
512.051
760.842
-449.155
359.091
356.997
571.489
-934.52
668.605
-1288.31
619.709
386.148
754.077
-1258.49
789.659
524.441
-1314.1
486.638
424.649
-911.287
-517.306
-957.518
-314.74
648.526
361.777
551.901
-913.678
341.656
329.984
-516.469
1988.4
442.298
-850.808
408.51
-940.974
-828.759
-772.418
380.376
-1242.16
456.485
-1770.05
1640.91
129.131
1788.17
-1638.81
-149.36
-808.377
-610.72
276.205
334.516
-1777.14
2003.58
554.081
812.098
-1366.18
453.5
735.296
708.281
394.912
-1103.19
-63.3904
1657.95
-611.019
401.423
836.26
-599.75
315.793
283.958
-388.832
-245.374
426.027
-232.072
449.197
274.231
-627.152
352.92
274.275
-593.625
-293.365
455.456
-1062.17
606.711
553.049
1116.53
373.284
611.53
242.934
211.036
-453.969
1649.59
-929.69
1735.43
-1559.88
-175.55
-336.445
-848.62
427.819
871.666
-1088.36
-626.498
290.259
-1114.13
1667.18
-1604.32
-72.2653
1676.58
-350.293
-359.573
-380.254
550.734
616.087
-518.186
-31.9091
-548.058
518.761
-289.398
-229.362
1772.34
-1320.5
-640.755
309.25
331.506
417.017
369.913
754.344
-303.812
-410.073
-1788.17
1727.27
472.651
-1131.16
658.508
-40.7224
1668.35
584.963
476.57
-1061.53
84.2895
1172.95
-1490.89
-8.28035
-1896.18
236.325
-593.041
298.433
294.609
-943.303
615.039
-925.408
482.582
-1159.64
691.348
468.291
378.794
282.355
-777.08
-315.28
1251.18
908.604
719.621
-1218.54
475.44
743.102
508.724
719.346
-1228.07
-363.03
-255.082
426.344
-988.575
451.721
536.854
21.2856
-1925.49
1110.51
-478.177
-501.781
574.125
-1415.44
841.314
-431.326
820.752
-416.999
504.022
-994.503
1862.91
423.579
-190.411
173.216
-176.887
-252.813
429.699
1938.23
-516.375
-1720.67
1080.44
-526.136
280.762
-1042.63
568.587
-319.714
561.566
926.281
-1487.85
-1118.14
447.359
-20.7789
-1995.04
1717.56
-656.277
-526.47
474.855
-1223.76
748.902
195.559
219.617
-248.526
788.134
720.707
852.392
769.974
-418.132
1114.93
-500.334
489.359
-198.571
-290.788
-1972.83
-706.995
-318.81
-431.773
-2.0164
433.789
471.217
-275.878
580.643
1068.95
-817.935
951.804
1278.52
-437.425
-205.003
-249.028
454.031
949.359
-907.289
-341.684
-1097.36
628.115
1593.47
-814.635
554.49
956.679
-397.446
756.924
-359.478
1161.78
-256.183
326.579
1386.22
-723.553
-229.41
464.198
-1233.64
769.445
-992.229
-143.404
1135.63
454.748
-983.387
528.639
188.187
262.342
339.004
785.329
-108.683
879.2
-438.092
1192.87
-797.956
568.564
-1504.38
935.817
-1242.81
1842.1
-438.484
-1543.54
900.297
-1439.44
-318.609
-419.189
1496.01
-1562.64
807.424
1527.53
209.237
280.122
-359.744
-1770.05
-308.858
-1019.34
1599.99
-1797.69
1797.69
1588
-1032.47
-653.749
-342.532
374.048
619.148
-367.452
-367.903
-1425.91
917.203
1150.04
617.314
1224.95
1829.76
-1242.39
-621.6
272.646
1699.9
-1964.05
264.153
835.618
-1301.31
1582.83
-579.119
801.048
315.293
-338.161
570.692
815.827
638.763
1393.09
-225.99
-458.019
-360.705
414.225
-276.587
485.955
755.826
-300.619
-160.45
-330.733
583.416
-252.683
26.1845
-384.299
1132.39
-1762.86
-452.417
-491.48
-582.046
888.083
705.387
-1638.06
925.302
-465.201
-629.562
-528.126
1286.25
345.857
1765.74
-1744.45
-1699.16
1939.71
-1597.78
857.442
740.337
-368.602
-1841.28
941.93
599.612
840.823
-412.585
1839.57
-699.431
-411.186
681.609
447.705
-1129.31
-1129.43
458.386
772.846
-1655.61
488.674
921.104
180.206
-404.341
224.135
-1611.42
-394.284
-427.827
1008.62
-684.415
1480.77
-967.235
1855.75
246.693
-548.634
511.64
-302.403
490.403
912.968
559.904
1000.22
-476.524
-441.4
590.873
905.136
-1384.23
-39.2889
1608.28
-848.873
536.438
991.089
-1514.96
-1115.49
1784.87
-1243.2
-541.673
1239.77
-329.591
-910.183
-195.625
463.831
-268.206
-471.381
-256.878
443.135
-186.257
153.217
-408.299
1744.7
-1748.62
-461.138
-548.687
-921.675
447.187
-206.546
-240.642
526.891
-454.431
-358.688
-319.573
678.261
-964.706
411.683
-1196.13
690.517
426.899
-643.267
-448.972
1609.02
-872.469
544.654
-471.478
-585.983
-476.184
59.8445
-56.8633
-2.98123
-1120.53
427.667
-683.116
-1058.11
1741.23
-603.957
-1461.22
733.651
578.511
-1636.35
1057.84
-384.162
-485.854
160.609
537.449
-1292.72
764.597
555.874
1026.95
-2176.11
1014.44
1161.67
-359.211
75.3751
-67.3791
-7.99607
1516.58
-381.863
463.078
1165.99
599.245
928.957
583.273
542.348
-1125.62
173.532
-442.07
-1703.98
272.486
1149.36
-621.142
534.508
1036.88
-1571.39
1116.54
-1683.11
182.803
713.242
552.67
-894.355
-1107.38
-136.488
358.162
-221.674
-569.255
-429.788
-653.188
-509.033
260.507
-1661.04
963.84
-490.317
217.207
-407.619
551.021
-314.695
-609.862
1229.6
-1296.79
928.538
368.253
-1032.77
-363.49
-771.764
-840.797
1728.88
-490.648
1798.69
-1590.87
-207.819
-1594.36
1040.39
553.974
-739.894
-174.69
317.525
-142.835
-597.305
394.004
285.47
-679.474
-539.146
1006.8
650.86
-360.601
-1656.6
1072.04
587.907
1127.65
-1715.56
-412.854
-305.5
-377.129
-760.204
-469.68
-339.938
517.61
1597.15
-1018.64
-795.487
1535.94
682.044
-319.621
744.872
1173.71
-1918.58
285.78
313.177
-501.132
-1981.77
1764.49
217.286
762.154
-487.647
-274.508
547.473
1083.62
-1631.1
59.8445
-1731.27
-238.867
1792.07
-1616.69
1099.13
517.564
-1735.01
3.74187
-536.721
75.3751
1743.71
-1764.49
963.305
641.886
-1605.19
283.404
-171.504
-111.9
-408.852
-283.14
63.6808
49.0412
-223.731
-447.323
-445.739
-421.765
230.694
1545.06
391.356
-230.763
-431.66
442.296
-185.475
328.88
1546.96
1098.87
-216.828
-882.039
-1129.77
1746.9
-1772.47
1089.36
-726.436
-1046.04
-1291.21
1886.5
-595.285
1181.82
-1814.43
632.611
181.037
-900.013
1716.84
44.5543
-1761.39
-506.002
-1105.55
-1744.7
-1009.57
568.166
1040.96
606.697
1157.88
-1764.57
295.852
-463.726
726.519
-394.692
374.201
948.325
699.141
-397.892
-642.48
599.482
1095.89
-1695.37
-407.461
-383.947
791.407
434.679
-1704.59
1559.88
144.702
601.661
-1073.94
559.019
1108.16
-1593.98
1014.86
-248.04
246.036
323.522
1951.83
422.026
-90.3134
1012.56
741.852
-1754.41
-715.504
1108.14
-1594.94
172.821
-585.906
194.847
247.448
-660.569
-581.59
599.464
1058.49
-720.688
-280.536
-1406.08
694.633
711.444
-408.583
807.809
95.0049
-902.814
577.754
-140.711
1595.49
-226.206
271.954
-788.309
-1981.77
1704.45
1019.62
81.689
311.235
449.608
-955.22
-1017.61
-1807.68
657.317
1734.35
527.188
-488.531
1244.36
1113.13
-436.931
1056.08
-1007.1
509.477
497.626
718.791
1074.04
-1792.83
502.321
492.966
-1531.5
-768.81
31.6548
804.83
-424.453
-908.045
406.264
-553.805
-823.911
202.735
-593.662
1434.98
1081.14
172.23
185.932
-567.413
1658.15
-791.947
1566.17
-1769.15
591.257
1177.89
562.309
-909.165
-1776.37
1964.05
-187.683
1757.43
187.953
-558.197
164.156
-115.115
-496.004
1244.91
582.925
1154.31
-503.101
450.207
884.121
-477.963
-797.015
434.431
362.584
1455.48
1116.07
-534.77
1460.07
-509.286
-473.621
982.908
-619.669
503.484
-1227.63
1735.43
1879.52
-705.814
1626.98
-663.675
-1275.49
736.347
-579.142
140.847
-251.561
407.149
-210.752
-534.357
-1273.88
1913.42
-639.546
1205.88
-566.772
1144.68
-1700.04
1730.47
-590.707
-559.701
-565.219
1760.67
-326.19
-708.446
-489.116
1258.56
-1725.04
-1902.59
628.716
331.602
-978.656
174.929
222.241
-1759.55
1229.49
530.054
1186.58
570.85
-524.993
-482.452
1225.55
182.786
235.941
603.63
1275.89
-552.705
-1264.64
1817.34
-1051.02
1046.87
867.771
-208.651
-1699.9
1744.45
-526.526
1447.63
-1776.37
-379.594
15.2251
364.369
-276.392
604.124
-327.731
87.2975
502.334
804.892
-386.192
1282.58
1298.97
-427.305
878.187
-450.368
1861.39
-679.564
1625.03
-1765.74
-423.04
-754.569
301.431
453.138
-574.967
-580.269
67.4483
-1063.09
-1010.06
-687.756
1697.82
-959.082
-1217.03
155.743
-417.694
-665.431
723.089
1194.25
667.141
1448.14
-607.321
1678.58
1353.71
-589.111
-508.05
205.646
-519.904
1432.87
1274.1
-579.464
-964.83
919.778
53.7656
-973.544
591.091
-522.495
1439.7
1534.48
-605.521
-60.3031
60.3031
-606.327
1664.16
1274.42
-501.572
1158.16
-60.317
1853.35
-386.668
1528.98
-605.542
-525.024
1382.47
-671.462
1252.17
-580.704
1595.03
-608.966
757.329
594.409
-1351.74
-654.441
292.897
493.217
616.917
-1999.29
-1004.23
1625.03
60.3441
-60.3441
-76.8344
402.018
448.533
389.662
-15.9589
-309.266
911.207
-525.059
-437.038
839.055
-253.508
641.021
-422.916
1556.74
-460.791
-893.475
187.133
217.963
-405.097
616.908
1275.97
-1892.88
954.635
-472.053
-56.8633
129.038
-1988.51
1859.48
-466.899
193.712
1211.87
-456.506
-755.367
-319.446
-588.599
-504.544
-67.3791
-486.893
257.531
1190.72
-574.633
237.221
-396.032
158.811
-7.53452
-103.538
809.15
-705.612
17.1856
-400.315
-603.226
-86.9119
86.9119
-1261.09
2002.94
-1305.49
-228.547
-1826.9
236.026
-1047.4
-995.589
-193.156
-1680.61
725.387
1257.05
-1970.03
383.468
318.993
-702.461
-1891.96
1261.33
630.63
-138.151
138.151
-981.461
-11.5367
-1910.79
-573.795
1690.32
-695.814
1677.22
-618.731
-187.233
-1708.95
-603.801
-443.334
-611.273
-94.8715
94.8715
-1573.02
199.77
1373.25
161.616
195.752
-357.367
569.33
529.537
1025.64
-488.786
1790.21
790.349
-210.306
202.31
534.417
1743.86
-611.479
-568.271
1676.43
467.494
1856.15
-661.91
-1850.15
-1979.48
-663.985
-100.377
100.377
-603.375
242.67
-692.957
1048.14
-479.549
-1099.67
-292.229
1031.69
1892.8
1673.9
-1673.9
-281.403
760.482
1802.93
610.566
1302.86
138.219
145.185
602.742
588.518
1031.54
-1031.54
231.307
-361.446
-444.794
419.678
979.009
-469.531
-656.803
-1155.8
1747.05
291.287
-1668.12
629.423
-295.992
483.945
1786.2
-608.306
-172.905
-424.806
395.419
739.828
1780.28
-630.242
-526.678
-774.289
2003.59
-890.149
-1113.44
1682.64
-644.768
1250.72
-1867.27
616.552
348.089
-896.722
-183.526
-26.4185
1128.46
-500.347
127.381
638.133
-1665.33
455.97
621.301
-1850.15
-599.101
1828.6
906.808
-1188.4
1802.13
-613.73
1825.14
-591.156
-1233.99
456.393
935.696
-1748.62
946.001
-1478.88
237.355
1241.53
-854.784
-1281.4
-178.249
41.4909
136.758
597.799
280.42
1051.04
-460.209
871.733
-411.524
843.429
757.068
-1600.5
660.407
1093.97
-5.66336
-481.226
486.889
-1788.58
742.549
712.421
106.092
-1147.26
1980.87
-690.913
-1289.96
-553.151
1707.46
845.588
988.369
-1833.96
1255.3
700.451
-412.508
732.664
851.578
1057.66
-602.911
1802.93
643.506
1814.94
-1211.18
-603.764
-377.639
-336.397
714.036
113.042
-1122.42
1700.74
-556.059
-853.507
853.507
1276.2
610.297
1382.11
215.044
-567.548
291.36
-199.966
716.748
1139.41
498.577
-315.79
-892.417
-591.058
1744.88
-1744.88
576.815
-576.815
1009.7
1047.99
-2057.69
1880.28
-629.567
-597.031
836.112
-968.653
-1075.68
1023.41
709.119
-1732.53
-114.182
-362.843
-649.269
-827.109
2088.44
-1273.57
-629.025
1025.05
996.499
1318.56
662.312
337.687
1034.94
234.889
344.683
650.966
1797.76
-1797.76
683.582
27.4843
-197.779
-1019.23
-559.001
1717.16
988.098
1011.9