/*--------------------------------*- C++ -*----------------------------------*\
  =========                 |
  \\      /  F ield         | OpenFOAM: The Open Source CFD Toolbox
   \\    /   O peration     | Website:  https://openfoam.org
    \\  /    A nd           | Version:  7
     \\/     M anipulation  |
\*---------------------------------------------------------------------------*/
FoamFile
{
    version     2.0;
    format      ascii;
    class       surfaceScalarField;
    location    "19.5";
    object      phi;
}
// * * * * * * * * * * * * * * * * * * * * * * * * * * * * * * * * * * * * * //

dimensions      [0 3 -1 0 0 0 0];

internalField   nonuniform List<scalar> 
11512
(
146.331
-499.996
353.666
-757.755
-2.41302
760.168
407.254
-371.499
-35.7552
632.763
269.469
-902.232
1510.92
-1069.38
-441.537
1216.29
-1527.13
310.84
-60.2588
473.817
-413.559
168.491
-842.1
673.609
962.115
-1610.82
648.702
-1759.76
1666.94
92.8232
-542.945
1759.24
-1140.53
1934.32
-793.796
608.296
180.786
-789.082
-24.7212
-1313.7
1338.42
220.659
-1980.42
1022.92
-382.24
-640.677
-180.002
326.332
485.841
190.193
-676.034
1155.26
-1313.18
157.916
-314.295
375.875
-61.5792
1002.76
-1313.27
310.513
1221.51
799.233
-2020.74
72.6802
-1639.16
1566.48
-472.349
-1170.73
1643.08
476.923
181.484
-658.407
-189.297
-310.699
498.143
1012.77
1646.28
-1803.5
157.223
-88.3414
-1691.58
1779.92
-1558.78
651.785
906.998
-307.231
652.796
-345.565
-193.291
-153.741
347.032
1283.81
-1211.13
355.159
-1407.4
1052.24
-1754.36
1754.36
100.05
1530.57
-1630.62
-1078.99
-479.79
636.801
-697.06
-384.356
941.334
-556.978
1331.95
-1317.31
-14.6371
-1100.11
715.751
626.427
396.49
-394.375
-31.5449
425.92
-447.505
777.367
-329.862
-1618.57
1618.57
1253.59
-1437.9
184.306
-488.564
1710.07
1255.07
-313.737
1660.75
-1161.26
-499.49
72.2581
-386.554
2065.2
-1134.95
-930.252
1811.69
-165.413
456.113
155.544
-611.657
-459.405
971.548
-512.143
-1169.41
1269.46
-568.44
970.784
-402.344
400.931
754.332
661.223
-492.732
-436.87
593.506
-156.636
1190.66
-835.501
2308.19
-1080.66
-1227.53
1163.62
-2008.6
844.987
-1601.06
1576.34
440.68
-1581.21
-759.221
1250.79
-491.566
-671.888
364.658
1661.46
-699.345
-1106.93
-870.893
1977.82
679.817
-369.327
-310.49
689.549
565.521
-258.203
1511.79
110.279
-315.567
205.288
-284.159
761.082
-333.887
565.849
-231.962
-324.015
809.855
-317.203
-147.688
464.892
321.82
85.4348
1456.96
-454.204
-979.88
484.775
495.105
274.442
90.9961
-365.438
949.304
-341.008
-1699.99
652.347
1047.64
17.1058
-854.155
837.05
-280.988
594.627
-313.64
157.029
-1093.75
936.725
1051.82
-1067.3
15.4757
372.692
518.903
-891.594
-244.608
700.721
-1103.74
-482.087
1585.83
-678.766
951.479
-272.713
1356.89
-1445.23
-636.559
279.767
356.793
-470.182
-1011.57
1481.75
-538.836
-793.538
1332.37
576.376
-996.338
419.962
-268.457
-317.726
586.183
404.505
-294.226
-1038.44
579.032
955.31
-798.282
-110.262
944.06
-833.797
-210.585
417.158
-206.574
-626.987
-352.894
-386.54
962.916
1856.39
-1856.39
-469.001
-167.558
-951.151
1556.43
-605.276
497.395
-929.39
431.995
-923.59
355.15
-941.91
-1058.08
-1489.97
345.139
1144.83
-279.332
912.095
-316.318
616.938
-300.62
-1941.9
999.994
-1139.19
-350.783
550.826
-1501.98
1728.5
-1725.6
-2.90857
204.456
-603.434
398.978
-1458.03
973.995
484.033
284.907
215.106
-500.013
310.549
-644.437
244.28
-420.51
176.23
2015.13
-871.857
-1143.27
-545.643
151.268
616.975
834.986
-1451.96
-182.764
427.044
431.191
876.826
-1308.02
-907
393.068
513.932
-1046.19
1447.13
-1068.88
309.661
751.023
-98.2266
553.88
-288.649
-265.232
1005.64
-520.869
593.281
-1403.86
810.581
-1342.24
238.503
-545.9
264.912
-1181.95
902.614
1945.14
-981.809
-963.334
276.805
1579.58
-2094.34
894.933
1199.41
368.69
-29.9838
-338.706
-223.51
483.846
-260.336
-106.337
-381.331
487.668
-464.238
147.035
342.339
-129.096
626.491
417.547
382.658
-800.205
-2037.25
1114.37
922.885
460.386
-530.611
70.225
224.29
-366.43
142.141
1018.41
996.713
1782.64
-252.063
726.783
-447.017
796.828
-1389.72
592.891
348.865
330.952
1051.72
-1034.61
-498.722
-231.122
729.844
474.874
-134.998
-339.876
797.407
-616.621
560.734
-724.745
164.011
503.326
1157.42
-1239.82
700.981
1043.06
-1515.41
-3.13498
-1439.43
1442.56
325.425
824.592
-1150.02
623.359
269.763
-893.122
-2269.75
1140.8
1128.95
-1099.85
-1169.9
201.681
359.053
958.506
-633.081
879.514
-899.149
19.6348
-2099.38
992.452
-231.467
-191.003
422.469
-41.7416
1770.25
-829.129
71.3734
-1027.99
-1066.35
-229.2
453.489
-672.374
203.372
-270.813
-424.349
695.162
1104.04
-1574.22
783.035
-1374.46
591.421
694.017
-424.547
1947.87
-1444.54
-378.28
-1376.08
75.9406
397.877
-530.637
528.224
16.2241
-571.669
555.445
568.868
-283.96
-603.974
279.93
324.045
780.989
-363.442
32.8823
335.808
1188.47
-1191.61
174.167
230.338
393.133
-663.946
619.71
-1006.25
-2026.71
2026.71
-255.755
-446.888
702.643
699.267
405.798
-1105.07
578.997
172.025
403.438
377.551
-2199.75
1328.85
-926.571
-678.965
1605.54
-487.195
-694.75
-257.648
548.711
-291.063
826.121
-192.659
-633.462
-442.635
647.091
367.409
-683.727
-362.939
-130.418
493.357
-1328.45
-475.05
625.937
-1113.13
-374.138
-1244.43
844.328
1463.86
298.164
-941.853
643.689
966.001
-339.573
1391.4
-798.115
442.743
-268.576
-328.003
-870.785
565.456
305.329
-327.399
-543.387
309.555
-415.892
-214.477
-148.419
362.895
-392.688
1091.96
434.953
-244.759
-393.348
1350.93
-169.762
-1181.17
-469.377
283.251
186.127
226.2
254.621
-480.821
24.4735
-749.219
592.091
-1729
1136.91
1482.17
-865.191
-1048.94
-409.09
-1056.91
573.274
483.64
1378.19
-404.192
929.278
-1411.37
-158.95
-200.712
359.662
-469.408
580.682
-1626.88
427.97
903.98
282.604
298.324
-580.928
568.077
1186.29
1103.55
-714.135
-389.418
401.87
-216.936
-184.934
-1419.46
445.208
738.197
-1183.4
1473.32
-544.039
-489.423
927.596
-438.173
426.144
1186.16
-1612.3
47.284
-726.05
-146.024
420.466
225.835
-419.126
530.904
474.741
-615.989
62.0991
553.89
1024.54
-1307.67
283.132
664.254
-260.816
468.246
-1447.23
978.988
405.679
1686.54
-522.926
908.168
1036.97
-661.393
-1684.5
757.934
564.148
398.458
-962.606
454.188
78.7874
1749.95
-1828.74
1443.75
-379.474
-1064.27
1699.12
-1740.86
-367.365
-522.692
720.286
-197.594
-502.59
182.439
292.436
-372.979
-1226
214.43
-764.55
-639.312
-653.579
998.744
-345.165
-654.129
644.328
9.8009
655.12
-923.785
268.665
-766.133
389.195
376.938
-648.546
-687.113
349.775
337.338
-932.326
1400.57
-415.725
885.942
-470.217
-2205.3
5.55791
178.513
-534.612
356.1
142.06
1208.87
-99.0444
-573.329
158.78
-595.65
1487.15
-704.117
378.785
-462.961
84.1753
-570.388
570.388
1223.11
395.458
1777.9
-1228.64
589.128
639.508
849.87
-52.4635
1291.55
773.646
-540.074
1336.9
293.425
301.202
274.013
-796.705
240.079
-687.584
231.563
-444.052
212.49
-237.45
576.994
-339.543
122.769
-360.219
-591.963
-564.483
1156.45
-370.6
538.815
-168.216
-1192.16
2032.04
-839.886
1289.53
-331.026
-406.082
137.624
-1980.85
810.114
1530.46
-847.106
-683.358
1986.95
-877.426
-1109.52
713.498
576.033
-239.459
471.021
-675.31
1140.52
-465.208
-770.059
1201.25
551.595
924.632
-1725.02
800.386
-544.726
-75.6149
620.341
298.819
255.061
409.784
-97.653
-312.131
896.896
-83.4063
-813.49
916.931
-561.49
-355.442
1576.2
-472.161
889.404
-1626.54
737.132
1068.48
879.389
748.28
-442.197
-306.083
-1059.05
-258.262
561.807
578.388
-1140.2
-460.22
510.096
-49.8757
575.475
-343.224
-232.251
-983.653
567.928
595.625
886.541
-441.791
1096.91
1412.57
-777.305
-635.269
395.627
-924.362
528.735
-1023.76
396.775
552.371
-1041.79
457.815
-531.263
73.4482
473.388
303.98
-521.866
-48.5224
-794.274
-878.29
1672.56
192.793
209.077
-215.449
417.13
-28.4991
-555.377
583.876
492.832
867.613
-1360.45
-521.58
307.104
985.953
-89.0575
836.329
-1064.8
228.469
396.921
846.243
-1386.32
-449.143
831.801
1977.92
-1284.32
-693.597
270.182
609.332
255.976
795.845
83.2346
-964.894
881.659
1673.74
-1089.06
-584.681
-137.844
1887.79
-1866.05
-160.657
483.622
-621.722
138.1
-1013.61
526.38
487.235
-1730.48
538.319
-955.823
845.56
391.389
202.117
586.685
-288.521
-421.845
710.469
255.532
73.7345
708.208
-781.942
-1128.14
-900.149
2028.29
-538.417
1102.34
-563.927
-469.644
-342.247
110.78
-1654.7
860.429
-865.045
-596.48
1461.52
-332.16
-294.735
626.895
357.186
-646.269
289.083
243.109
-606.55
319.829
202.432
-522.261
347.837
-605.485
618.035
-260.849
313.457
-461.145
676.308
408.461
-182.262
-387.474
-299.639
1219.42
-2.831
-1216.59
1039.65
-419.943
560.3
410.484
-1782.37
869.82
912.549
491.773
549.282
-1041.06
-535.776
203.616
-262.994
1180.84
-917.844
-1590.89
1212.61
504.575
-1096.54
385.2
-6.41441
427.484
304.22
-731.704
372.563
-617.171
-32.2756
756.141
-723.866
-526.194
795.957
386.294
322.657
527.213
653.588
93.1033
-403.829
310.726
1058.97
-645.321
-413.651
494.012
-1664.27
1170.26
-1140.43
1753.23
-612.806
1715.82
-1123.73
-333.699
613.628
-1182.21
1265.44
425.285
-797.798
1602.91
-805.111
-260.287
-209.09
-889.719
1470.09
1812.62
-611.174
-1201.45
-404.687
647.367
-1300.95
-124.822
-47.3711
457.156
-680.36
-354.167
-1236.72
-220.177
463.286
903.584
-559.272
177.941
-1674.58
-71.2018
1745.78
-1065.04
526.62
568.685
-1182.29
613.606
901.034
911.586
630.793
619.994
686.078
241.518
-1134.32
459.009
-399.146
415.37
619.166
-515.138
244.721
-731.898
487.176
692.376
-343.511
-334.311
180.569
-601.804
239.528
362.276
-887.618
-738.918
1087.67
-2145.75
399.355
-683.515
-342.81
-724.486
833.939
578.635
-342.842
311.297
371.257
213.932
649.456
-863.388
527.108
613.41
-536.374
173.435
358.853
-614.608
-1036.67
-856.73
1893.4
-1796.4
157.243
1107.06
-1370.05
1156.85
-723.45
-433.404
-503.583
1349.83
-1495.52
627.867
867.657
-288.983
-210.589
499.572
1428.39
558.556
344.284
-474.702
-483.92
-567.329
1051.25
-419.197
597.71
1582.33
-1129.29
-453.038
-775.066
328.178
654.88
404.092
-1623.42
416.159
1207.26
-189.961
509.79
797.78
784.548
198.343
-686.363
488.02
207.253
209.905
-293.339
-107.765
401.104
488.338
-0.553437
-487.785
-1636.05
587.116
-1605.34
1671.29
-65.9514
10.8672
-1616.21
1069.61
763.826
-336.342
-809.359
-214.403
-1134.52
-239.939
-311.326
683.888
-1812.42
-629.216
1207.6
213.155
758.394
-1330.08
-678.525
-465.416
611.636
-329.032
-1013.28
1350.76
-1932.84
582.084
646.279
1288.05
487.294
-3.44811
717.446
704.376
-1421.82
-637.888
335.126
302.762
440.809
-99.4242
-341.385
148.618
302.129
157.852
-459.981
-584.646
1148.79
462.103
-628.435
-461.925
-401.536
863.461
-328.242
169.292
-456.379
162.153
-304.819
-708.795
549.687
-108.878
-571.481
967.108
581.213
-270.085
-311.127
455.82
-779.835
-646.354
444.889
-1129.41
-836.74
1181.88
-569.762
451.974
277.869
-453.829
84.5028
1028.76
-317.656
594.522
-276.866
-509.027
1578.63
-681.575
238.439
372.274
-610.712
219.1
484.482
-27.7733
-456.709
-256.949
-199.431
1018.19
1108.94
564.798
-874.461
941.609
-67.148
-458.801
169.818
-731.782
307.433
-591.516
322.956
369.421
825.621
-1234.4
408.783
777.258
-809.534
-948.968
-550.363
1499.33
-166.262
464.586
-546.294
257.646
1299.71
776.05
-577.707
1312.54
-686.598
487.379
-675.787
-407.83
-423.581
-378.17
801.752
502.848
-843.856
-455.605
92.8201
362.785
-323.323
572.405
728.719
-329.364
-244.112
-173.136
417.249
-489.528
139.56
349.968
1458.03
80.9873
-1539.02
-751.235
1346.86
-1144.75
-466.072
538.98
-166.706
1150.57
-373.314
1083.51
492.697
695.899
-421.886
-885.094
-522.306
-1328.44
-26.0133
985.021
-959.008
594.616
330.636
-925.252
-331.857
-213.786
-675.484
405.519
1621.19
-180.45
371.13
346.69
-717.82
-1839.77
-2106.68
1519.14
587.54
-2037.23
345.646
363.393
534.523
-897.916
-460.057
1020.36
-395.313
-671.672
1066.98
-2030.53
1391.21
639.321
597.554
-992.867
42.9132
414.901
386.274
195.353
247.39
318.22
960.947
865.16
679.546
-325.803
-353.743
-293.818
620.926
-327.107
573.248
530.306
565.441
514.762
-1080.2
-796.232
-699.291
752.299
398.273
-413.314
702.397
-1193.42
1609.58
420.099
-1091.77
-335.263
537.695
-1381.72
870.505
511.218
-714.219
-351.877
-782.695
359.676
423.019
446.985
718.35
-1165.33
1071.18
-579.407
-408.483
661.353
-252.869
255.249
325.964
-468.318
-431.805
900.123
-235.421
560.292
-953.25
392.958
-459.481
600.598
-1681.26
423.657
671.068
-1094.73
520.789
96.1491
113.407
-2212.79
537.774
-85.7992
1444.06
1777.09
-217.553
-1559.54
-438.434
1789.19
-1986.95
1194.47
792.488
402.277
346.003
-37.2074
871.146
-1283.31
718.831
-869.854
-822.729
796.716
302.954
64.0776
-367.032
232.208
186.984
-419.192
1553.65
-836.199
-1530.96
-325.43
489.417
-214.31
-275.106
394.987
366.096
250.626
361.009
-9.12209
1001.68
-992.563
376.44
281.749
-658.19
-734.054
1817.3
-1083.24
-342.307
737.293
-1217.9
-412.719
-915.423
483.618
574.32
-779.917
205.597
761.318
-380.632
-380.686
-428.227
-446.234
449.037
1079.48
1237.53
-668.84
801.004
-345.184
383.945
318.698
-244.373
-218.587
-205.789
611.468
407.641
-847.523
439.882
218.895
351.815
-570.711
-422.833
830.474
754.611
-1147.3
885.828
-60.2067
-489.155
276.255
775.461
-95.8566
1383.9
1890.5
-59.2466
342.497
-317.523
410.626
-1086.12
1077
627.067
375.897
385.421
75.8037
413.613
262.796
497.372
-371.899
-265.989
-564.794
-89.3347
-360.162
364.613
-4.4506
-256.841
-289.059
1011.04
-1540.69
529.654
-192.088
-179.412
-385.965
667.714
-1634.54
1591.04
-963.169
260.924
-668.754
584.312
1224.42
-1808.73
607.397
983.639
309.197
-1121.01
699.163
-286.314
-294.614
1376.65
-1446.1
827.181
618.921
425.037
-629.626
204.589
-374.493
477.706
-103.213
377.111
111.228
1723.86
458.136
-250.883
557.623
-1704.79
1147.17
-93.9732
393.87
342.467
337.079
-448.406
-615.744
1064.15
416.337
-865.48
-641.141
902.923
570.394
-514.593
-251.54
-438.916
-408.607
-307.227
-827.291
1821.12
-1821.12
-104.264
-1590.35
1694.61
292.92
282.555
-917.268
-555.319
1472.59
-408.082
973.523
-595.957
-1040.1
688.022
391.455
-1079.48
475.077
-161.62
573.06
1220.35
-1793.41
-1041.1
2114.64
-1073.54
-374.964
-296.924
-488.743
816.921
-1751.92
1601.19
150.729
1751.92
-1605.57
-146.352
-245.83
523.366
-277.536
-537.277
1620.78
1564.35
-1977.07
1084.8
-290.571
-259.252
549.823
233.444
-568.707
-699.334
286.02
1341.51
636.405
580.486
483.217
-1063.7
276.685
419.214
875.442
500.082
-1375.52
534.033
-1017.95
1574.94
-563.899
-775.395
-362.597
-125.803
488.401
-489.93
1208.28
-741.726
333.493
367.228
369.27
249.776
-619.047
602.714
831.852
-603.383
263.398
678.211
-514.593
-326.464
-234.301
560.766
1168.55
-673.582
609.805
465.865
-1075.67
-1293.02
1293.02
-386.412
762.309
-282.921
-477.365
760.286
490.531
444.564
-935.095
390.46
-673.381
610.071
-868.772
258.702
-367.005
-493.695
1074.18
-661.38
-710.239
1371.62
-376.154
936.446
-1552.7
675.269
32.456
-417.88
385.424
-512.212
715.584
254.028
322.965
169.568
305.509
-521.501
235.186
1869.5
-1965.36
264.171
-706.806
450.847
-821.803
370.956
-915.035
1413.83
-498.796
-429.568
-485.856
600.717
1124.2
-1724.91
-714.755
339.791
-460.84
1034.09
-781.203
1044.6
-379.524
-627.517
-490.648
730.727
540.304
-358.821
906.867
-306.974
-182.553
1599.02
-1816.57
-346.066
-607.183
-338.155
477.715
265.056
-594.088
-176.767
1062.98
-786.724
205.838
-290.213
-278.13
568.343
392.846
-880.236
487.39
-485.288
-453.515
-941.853
-351.907
580.596
-228.688
-450.248
-429.295
-336.951
-185.31
-393.155
642.931
-446.292
764.99
-1072.68
624.273
-1407.29
542.248
-28.0278
-1835.64
1863.67
569.884
-449.592
1218.22
-691.601
335.929
-335.929
670.993
-441.135
1040.47
-1636.43
-1158.73
-947.947
292.47
328.455
887.281
715.627
-497.617
-302.059
799.676
1657.71
-1685.74
-434.408
345.005
223.863
1134.82
-525.015
-943.332
1550.47
-607.141
443.029
-247.676
377.159
385.274
-762.433
533.003
470.951
-1003.95
-331.068
664.561
-37.8878
1907.39
1591.3
992.841
-1696.96
727.141
-1177.08
449.936
-492.444
1367.89
837.647
-1341.23
-562.124
271.553
799.663
-401.205
551.628
-1188.86
637.234
-637.129
-1215.54
-695.649
1911.19
-192.82
550.128
-357.308
-175.037
308.056
-500.875
329.446
369.228
-698.675
-1483.79
756.858
726.935
884.102
-1434.47
824.516
-431.448
215.087
-361.111
-594.509
268.045
-643.107
-738.616
698.675
506.133
-1204.81
388.976
-202.862
-186.114
556.052
-958.396
-569.76
-425.999
733.432
-831.29
-1155.67
-1437.96
499.632
938.328
8.98121
-639.247
342.659
296.588
-1314.65
1046.22
268.432
-616.658
-456.022
-665.764
921.74
399.15
-199.488
-199.662
508.189
980.664
-1488.85
977.567
-564.797
167.482
397.315
-402.758
675.302
-411.131
-506.41
168.255
234.324
-1518.64
529.204
541.976
-757.831
245.619
149.403
-456.377
367.129
-820.644
1954.16
-1195.39
-758.769
419.016
-677.916
258.9
325.847
328.883
115.783
-444.666
-570.104
194.359
263.777
-691.69
1374.35
-682.66
423.909
465.071
-1179.29
266.524
1866.78
-1013.59
-853.188
784.944
-534.189
182.281
1402.37
-975.196
-427.173
331.753
-772.888
-616.5
1725.44
610.991
626.535
322.581
-19.6268
266.819
-1138.43
1725.71
-587.279
-1763.52
820.189
1756.41
-1686.91
-69.4966
-660.1
260.954
568.67
-717.57
226.922
1402.63
-564.986
387.549
444.252
-1858.56
1420.13
554.84
-435.005
-119.835
203.609
-540.56
-284.024
-185.62
-352.82
695.287
-579.564
216.967
610.991
550.606
-1161.6
1113.64
-1947.44
833.806
156.785
336.572
-1699.01
1661.12
312.901
-734.787
-165.838
380.925
755.245
679.377
-1434.62
1076.64
-1079.47
525.746
-1105.15
-629.298
252.707
376.59
527.398
-287.87
-605.15
-1031.28
292.616
-721.911
-912.32
175.634
163.122
225.854
393.141
290.802
-683.943
-630.664
-833.994
-978.426
490.06
-1060.16
-296.004
482.131
534.541
647.338
-281.545
-124.537
-410.862
720.059
268.198
-1199.28
568.616
1308.97
-553.725
443.044
-1012.8
-390.423
156.969
397.871
1023.37
551.573
-1715.51
1611.25
1630.12
-565.256
-1064.86
1903.47
-1892.03
-11.4332
211.551
-529.074
-348.836
554.674
-766.925
-323.195
-336.905
1024.97
700.637
-1504.04
803.403
338.441
-26.1903
1625.21
-1085.59
412.006
-1238.94
463.55
-60.5309
1518.57
1197.4
-470.255
-489.72
-75.0775
-268.568
736.017
-1951.55
-709.995
353.279
-532.972
179.693
192.282
-509.938
1139.91
671.553
-1811.46
-614.438
179.433
942.025
-1497.34
-210.462
678.891
-468.429
874.732
1125.27
-738.499
1349.49
611.971
-486.975
-124.996
-345.733
1172.91
1041.87
-1979.94
938.068
-1172.61
543.393
1488.75
-585.83
-387.567
-148.807
-1241.7
572.859
1160.46
-112.813
946.072
775.55
-1721.62
-205.993
578.479
-1541.72
963.244
486.967
916.671
-1403.64
620.934
586.671
394.221
-1106.65
591.864
1107.62
1216.46
-452.404
-764.054
-1186.2
-1754.93
-7.12928
-1708.39
-202.961
-426.665
1607.5
-629.002
-978.495
-490.811
1121.6
-1317.95
635.964
681.986
-1361.79
1442.77
-1330.57
592.069
1520.5
-387.866
-574.353
186.786
-1480.29
230.562
176.369
231.173
380.798
437.854
399.72
-837.574
506.301
-939.045
900.76
-1444.8
-700.733
233.624
467.109
-1043.93
459.282
-476.116
863.665
695.568
25.038
-527.723
170.415
-886.565
-1318.74
-714.962
349.81
365.152
402.996
-722.6
319.604
-478.949
-189.27
-709.879
719.879
1539.62
-593.543
815.701
737.945
1344.8
-844.715
-971.308
-570.414
-796.598
427.594
369.005
-1036.6
-641.966
304.144
337.822
-1433.69
-296.783
-790.355
398.162
392.194
-652.75
405.803
246.947
-679.324
268.193
412.433
487.69
389.48
440.994
479.162
384.299
596.777
-969.756
681.286
467.509
453.803
356.233
-810.036
1630.76
-1079.9
-550.86
-504.503
-285.687
-1028.97
454.376
347.376
409.473
594.218
-1003.69
-1380.91
751.903
-532.628
1146.23
356.577
-54.4477
411.867
-865.29
453.422
-1894.66
304.314
441.706
-726.323
284.617
-187
402.703
-215.703
-661.091
306.225
354.866
-673.707
319.964
370.402
391.906
612.854
-1020.94
753.079
661.932
-1415.01
438.648
625.502
340.049
392.768
-732.817
409.432
327.861
601.776
672.609
406.871
596.133
-1022.75
426.612
-1669.39
1193.37
476.017
1696.59
-539.17
620.831
-1147.13
526.303
-642.908
348.173
437.078
-935.052
497.973
754.29
-450.07
350.444
344.843
571.367
-917.433
651.31
-1252.92
601.605
376.417
734.792
-1224.72
769.577
509.495
-1279.07
486.193
405.494
-891.687
-501.641
-936.319
-300.219
629.665
352.384
542.017
-894.401
333.071
331.49
-502.178
1944.74
437.27
-847.213
409.943
-917.801
-807.218
-748.291
367.605
-1219.23
438.027
-1733.58
1605.57
128.015
1746.27
-1601.19
-145.078
-784.1
-592.153
265.838
326.314
-1756.41
1977.07
538.44
791.575
-1330.02
440.026
716.42
690.394
385.546
-1075.94
-74.487
1617.13
-593.764
385.573
832.648
-649.882
326.917
322.965
-377.883
-297.542
552.791
-219.414
434.52
281.24
-666.383
385.143
264.794
-578.433
-282.666
442.383
-1033.46
591.074
538.038
1092.72
365.889
597.027
312.721
353.42
-666.141
1623.5
-922.86
1691.87
-1520.51
-171.36
-327.359
-823.049
414.442
857.553
-1068.02
-606.371
279.263
-1090.6
1628.64
-1584.6
-78.4051
1663
-340.532
-349.496
-369.563
537.164
597.656
-502.099
-28.5117
-550.024
505.538
-282.42
-223.118
1747.75
-1298.71
-624.644
299.307
325.337
401.141
357.222
734.733
-296.189
-398.481
-1746.27
1685.74
459.437
-1100.94
641.502
-43.2828
1654.53
571.365
476.331
-1047.7
104.802
1144.87
-1452.1
-14.7527
-1879.91
228.002
-598.68
306.846
291.833
-955.466
612.655
-898.159
468.591
-1128.56
673.57
454.988
370.629
268.115
-765.732
-309.949
1216.83
886.808
699.019
-1182.97
456.099
726.872
494.267
700.875
-1195.14
-358.902
-246.35
409.472
-960.593
438.315
522.279
21.2521
-1879.81
1079.87
-469.803
-498.351
558.098
-1378.17
820.076
-427.106
798.062
-404.934
497.987
-706.981
1725.17
409.784
-183.93
217.209
-169.743
-244.454
414.197
1895.32
-504.111
-1691.64
1051.5
-602.352
304.811
-1013.76
553.7
-311.909
544.262
905.318
-1449.58
-1103.83
438.061
-20.7908
-1944.57
1711.28
-669.405
-540.738
460.657
-1190.52
729.867
191.749
207.401
-282.654
769.793
700.294
838.102
818.461
-462.228
1084.94
-477.009
477.308
-193.606
-283.702
-1923.09
-714.314
-317.44
-644.563
-6.9675
651.53
465.643
-271.284
564.897
1058.6
-804.416
924.768
1244.29
-424.887
-192.459
-226.322
418.781
958.899
-888.557
-322.669
-1067.86
611.837
1557.15
-800.296
537.625
934.962
-393.141
735.32
-342.18
1130.42
-276.812
335.058
1349.67
-705.127
-219.236
448.238
-1198.66
750.421
-993.191
-110.462
1103.65
441.876
-955.594
513.718
175.351
732.97
483.488
739.174
-89.7182
852.861
-425.407
1182.56
-797.017
552.089
-1465.46
913.37
-1216.65
1800.97
-431.712
-1510.19
879.696
-1402
-312.551
-419.153
1457.2
-1523.61
784.696
1491.5
201.946
275.362
-357.007
-1733.58
-290.586
-1009.86
1574.76
-1766.47
1766.47
1564.35
-1004.49
-634.242
-340.594
368.3
605.223
-371.203
-364.717
-1389.85
897.403
1125.15
600.564
1202.78
1789.48
-1216.42
-612.608
272.037
1658.98
-1916.45
257.463
814.483
-1267.52
1545.24
-561.606
783.515
318.829
-344.53
554.752
795.074
672.675
1355.62
-227.749
-444.737
-365.098
497.745
-342.202
471.693
736.587
-300.788
-143.878
-332.411
568.343
-235.932
28.0964
-371.32
1107.46
-1720.27
-440.018
-488.89
-567.832
863.795
693.36
-1596.5
904.813
-451.433
-622.004
-513.829
1252.03
338.991
1723.68
-1702.43
-1657.71
1892.03
-1560.83
840.297
720.536
-377.22
-1795.97
917.677
583.1
819.533
-394.043
1794.28
-680.645
-415.172
679.757
431.255
-1111.01
-1099.96
444.049
753.347
-1617.18
473.176
901.174
176.591
-400.152
223.561
-1595.9
-384.519
-432.297
990.305
-673.084
1442.94
-978.958
1853.69
240.041
-539.978
496
-294.055
474.299
893.587
543.083
977.42
-462.62
-427.739
573.91
883.292
-1392.71
-40.988
1573.13
-835.185
519.939
971.559
-1475.81
-1115.9
1771
-1242.25
-528.753
1206.11
-318.977
-887.134
-191.977
453.174
-261.197
-457.131
-248.925
429.478
-180.553
144.889
-391.239
1730.19
-1737.32
-459.987
-530.834
-903.631
442.859
-206.78
-236.079
635.686
-458.67
-359.002
-316.576
675.579
-927.699
384.312
-1167.32
676.506
416.632
-635.851
-438.41
1575.71
-860.085
530.178
-457.705
-571.04
-462.417
373.347
-363.568
-9.77955
-1103.45
411.846
-664.732
-1033.67
1698.4
-600.885
-1423.38
713.142
562.175
-1596.26
1034.08
-392.072
-476.412
151.76
534.318
-1258.37
744.542
539.215
1006.03
-2133.18
999.989
1133.19
-364.925
420.649
-395.75
-24.8991
1478.05
-371.505
449.318
1211.82
582.167
906.587
567.823
527.347
-1095.17
165.018
-442.171
-1686.91
253.878
1127.59
-615.092
518.464
1013.77
-1532.24
1092.87
-1643.72
190.047
695.781
548.01
-870.679
-1086.53
-173.519
429.868
-256.35
-587.165
-431.109
-636.841
-629.643
346.99
-1618.71
939.747
-476.665
213.503
-397.433
534.204
-306.202
-607.31
1197.16
-1275.88
923.365
352.519
-1021.04
-370.938
-757.709
-824.797
1688.59
-476.785
1793.57
-1582.4
-211.169
-1556.64
1018.74
537.899
-725.88
-263.725
445.817
-182.092
-592.656
383.144
273.968
-657.112
-523.847
989.091
629.786
-350.523
-1620.28
1050.52
571.759
1103.55
-1675.31
-415.745
-291.593
-369.498
-744.942
-473.811
-329.712
499.28
1557.99
-995.812
-775.264
1497.45
659.671
-314.666
725.88
1152.37
-1878.25
292.396
308.712
-487.056
-1932.13
1719.8
212.333
738.161
-474.098
-264.063
531.821
1060.84
-1592.66
373.347
-1723.14
-233.209
1752.35
-1580.7
1073.79
506.912
-1723.46
0.318193
-521.572
420.649
1699.01
-1719.8
939.693
624.505
-1564.2
385.232
-218.344
-166.888
-413.462
-265.861
70.1086
95.0929
-358.818
-430.11
-438.663
-405.492
218.492
1510.24
378.82
-215.795
-436.955
462.284
-198.507
322.57
1510.77
996.279
-153.448
-842.83
-1104.11
1704.82
-1728.76
1064.03
-707.147
-1021.62
-1265.09
1844.99
-579.9
1155.07
-1771.14
616.069
272.299
-878.186
1675.69
43.449
-1719.14
-491.153
-1083.07
-1730.19
-982.112
554.373
1019.62
590.217
1133.04
-1723.26
282.097
-448.803
703.597
-383.634
380.914
924.871
680.665
-381.275
-641.47
582.883
1072.57
-1655.45
-400.975
-368.284
769.259
430.327
-1661.12
1520.51
140.613
583.101
-1043.94
544.741
1083.9
-1555.68
994.076
-237.909
229.11
325.564
1903.47
431.789
-76.0354
995.863
722.751
-1718.61
-697.364
1085.36
-1557.52
165.273
-571.628
198.056
264.227
-658.366
-560.864
582.483
1034.65
-711.217
-276.741
-1368.45
675.664
692.786
-413.354
763.393
64.1425
-827.535
561.638
-137.154
1557.28
-213.743
271.722
-771.711
-1932.13
1664.62
1030.92
389.195
302.567
451.723
-930.046
-993.039
-1767.27
635.851
1693.77
508.393
-474.228
1210.81
1087.14
-424.813
1030.04
-978.173
492.55
485.623
700.206
1047.94
-1748.14
484.575
482.533
-1494
-746.565
32.4291
780.06
-412.455
-885.436
387.085
-538.796
-802.434
643.689
-577.239
1397.32
1055.14
195.653
234.215
-550.607
1618.53
-772.642
1525.72
-1727.83
575.246
1152.59
543.315
-882.888
-1732.75
1916.45
-183.699
1721.74
181.89
-543.859
373.775
-278.682
-481.341
1211.21
568.267
1128.33
-491.17
430.752
857.818
-461.327
-772.606
427.319
345.286
1418.83
1089.6
-518.168
1422.98
-510.554
-533.55
1044.1
-602.745
476.781
-1200.23
1691.87
1839.58
-687.21
1585.64
-645.95
-1241.28
717.435
-562.441
205.617
-396.62
454.857
-244.952
-520.081
-1246.71
1870.94
-624.231
1173.25
-552.423
1120.29
-1659.46
1694.49
-573.926
-545.529
-549.812
1720.07
-317.077
-688.025
-473.256
1223.68
-1684.1
-1860.1
613.393
300.659
-934.121
168.28
213.58
-1719.03
1204.16
514.87
1162.86
558.887
-511.652
-465.329
1192.2
178.693
224.009
588.444
1251.14
-539.175
-1238.58
1777.76
-1025.39
999.991
866.79
-204.118
-1658.98
1702.43
-510.052
1411.23
-1732.75
-356.586
16.5946
339.991
-261.573
584.673
-323.1
77.3624
488.094
780.952
-377.956
1257.53
1270.87
-413.317
852.007
-437.564
1817.44
-662.373
1586.53
-1723.68
-412.787
-747.597
306.825
440.772
-559.695
-563.274
79.7158
-1138.77
-985.484
-669.705
1655.19
-943.707
-1189.47
159.196
-418.448
-648.39
705.622
1167.45
649.997
1410.26
-590.726
1636.75
1318.01
-573.465
-491.099
197.044
-503.259
1396.85
1240.01
-564.346
-999.989
893.082
54.9963
-948.079
603.438
-506.11
1403.51
1495.04
-588.452
-381.723
381.723
-589.41
1623.49
1239.51
-486.161
1134.16
-70.4179
1850.34
-390.072
1489.43
-588.673
-507.658
1347.96
-652.504
1218.48
-565.978
1554.79
-591.543
750.894
574.238
-1325.13
-654.333
279.912
496.138
600.159
-1957.3
-988.458
1586.53
382.465
-382.465
-67.6436
388.039
436.477
387.306
-10.1951
-342.705
897.345
-520.929
-425.892
813.932
-243.39
619.98
-432.188
1546.55
-444.324
-884.119
186.649
224.206
-410.854
601.167
1250.78
-1851.94
926.993
-458.401
-363.568
126.152
-1943.01
1816.86
-449.521
180.945
1181.26
-440.412
-740.849
-302.117
-583.318
-492.57
-395.75
-479.355
256.237
1158.13
-560.475
229.377
-378.323
148.946
-22.4029
-107.67
1376.08
-1268.41
34.4485
-599.243
-586.383
-460.526
460.526
-1262.36
1985.11
-1344.39
-213.475
-1823.65
241.249
-1025.75
-974.242
-185.59
-1637.72
707.67
1229.32
-1924.97
368.629
312.477
-681.106
-1850.01
1234.27
615.74
-564.747
564.747
-959.199
-39.8766
-1866.05
-558.137
1650.86
-677.272
1636.16
-601.517
-175.908
-1704
-583.922
-445.03
-594.791
-473.613
473.613
-1537.81
194.525
1343.28
173.873
224.358
-398.231
487.162
509.117
997.015
-474.736
1751.3
768.714
-427.59
402.691
520.751
1702.05
-594.586
-552.958
1636.86
470.093
1812.73
-645.287
-1803.95
-1938.08
-646.945
-484.885
484.885
-589.924
224.826
-691.44
1019.43
-465.731
-1072.47
-287.368
1579.58
1852.3
1635.34
-1635.34
-274.453
739.513
1761.49
595.785
1275.15
175.597
209.636
578.221
591.534
1603.53
-1603.53
222.295
-353.971
-434.858
459.88
951.224
-458.673
-639.737
-1131.02
1706.26
280.29
-1651.18
611.086
-287.401
469.292
1744.64
-592.056
-214.893
-417.046
380.075
727.548
1738.57
-613.417
-511.761
-773.874
1960.53
-870.452
-1090.08
1642.78
-705.955
1223.97
-1824.94
600.968
335.599
-875.577
-185.99
-110.039
1098.26
-486.419
131.501
617.694
-1648.97
436.558
610.392
-1803.95
-583.273
1787.43
884.257
-1162.92
1760.49
-597.562
1783.83
-575.524
-1208.31
437.291
926.463
-1737.32
924.776
-1494.98
266.497
1228.48
-831.085
-1254.23
-385.456
77.6038
307.853
581.717
269.458
1027.41
-443.577
846.137
-402.559
821.029
738.734
-1559.76
643.809
1066.27
-24.5047
-663.859
688.363
-1744.3
722.68
700.488
150.524
-1122.69
1936.75
-674.547
-1262.21
-537.173
1665.5
830.197
964.193
-1794.39
1227.87
683.32
-403.905
710.13
830.103
1028.24
-586.364
1761.49
626.689
1773.56
-1185.62
-587.936
-379.878
-332.067
711.946
121.435
-1185.71
1660.55
-540.263
-1437.84
1437.84
1250.57
594.414
1351.57
206.417
-562.317
280.338
-189.342
699.069
1113.67
479.816
-301.123
-870.207
-574.592
1737
-1737
1011.16
-1011.16
987.33
1025.17
-2012.5
1837.94
-613.968
-581.105
824.368
-947.849
-1052.16
998.342
690.569
-1688.91
-521.866
-349.778
-643.089
-808.422
2042.69
-1246.42
-613.679
1002.97
974.851
1289.77
646.985
325.714
1012.68
227.862
337.374
1186.29
1756.87
-1756.87
672.009
80.1731
-391.3
-997.052
-539.988
1674.15
990.485
1009.52
-1833.28
-223.241
-360.681
606.223
-352.345
1849.49
-1077.86
-771.633