/*--------------------------------*- C++ -*----------------------------------*\
  =========                 |
  \\      /  F ield         | OpenFOAM: The Open Source CFD Toolbox
   \\    /   O peration     | Website:  https://openfoam.org
    \\  /    A nd           | Version:  7
     \\/     M anipulation  |
\*---------------------------------------------------------------------------*/
FoamFile
{
    version     2.0;
    format      ascii;
    class       surfaceScalarField;
    location    "25";
    object      phi;
}
// * * * * * * * * * * * * * * * * * * * * * * * * * * * * * * * * * * * * * //

dimensions      [0 3 -1 0 0 0 0];

internalField   nonuniform List<scalar> 
44078
(
-595.031
671.177
-76.1453
1069.54
-1076
6.46103
-334.144
380.684
-46.5397
220.509
-257.617
37.1072
-497.94
497.94
214.146
-259.865
45.7187
-387.529
373.362
14.1664
32.8121
-570.538
537.726
664.694
-834.067
169.374
-1009.39
1102.35
-92.9524
562.821
-153.29
-409.531
-533.985
535.322
-1.33665
-687.656
582.569
105.087
-859.804
868.861
-9.0566
281.377
61.3954
-342.772
384.466
-10.0394
-374.427
814.353
-666.921
-147.432
-421.767
418.666
3.10076
160.495
314.822
-475.316
289.261
-355.373
66.1125
-593.871
81.7146
512.157
724.911
-60.2175
49.123
-383.267
136.355
-488.989
352.633
206.81
-81.0141
-125.795
1072.6
-3.05994
659.712
-680.83
21.1183
-298.916
33.5609
265.355
318.733
-37.3562
-444.114
543.827
-99.7136
957.327
-246.642
-710.685
-684.13
771.979
-87.8498
251.952
-220.753
-31.1986
482.265
-76.0119
-406.253
96.4263
-395.342
260.81
-430.971
170.161
456.308
-603.652
147.344
290.591
-42.2797
-248.311
826.126
-981.391
155.266
1064.19
-238.06
-1018.4
1035.87
-17.4648
398.228
-86.2944
-311.934
704.085
110.267
183.221
-312.574
129.353
1228.49
-777.72
-450.773
-591
146.886
535.809
-538.684
2.87413
230.472
645.577
-876.049
226.339
537.141
-763.479
-104.767
561.075
-391.99
182.012
209.978
-8.12405
-226.126
234.25
-675.898
-8.23148
236.854
-22.7078
423.16
-38.694
-286.325
-60.945
347.27
523.594
-499.24
-24.3541
-34.3525
-559.519
-466.319
47.1593
419.159
-294.213
-37.1847
331.398
799.48
17.5793
-817.06
-409.141
569.635
-15.9801
-244.312
260.292
-223.111
483.921
-354.553
460.242
-105.689
255.142
210.486
-465.628
494.258
-120.29
-373.969
429.386
-51.0038
-378.382
-430.805
-16.1572
446.962
-986.86
-31.5438
1068.04
4.56114
332.057
247.55
-579.608
-246.325
548.529
-302.204
189.568
46.0397
-235.607
-430.355
380.447
49.9081
-390.842
392.65
-1.80816
306.122
-160.365
-145.757
-249.977
-58.07
308.047
-699.275
16.5313
682.744
404.615
-85.166
-319.449
-249.369
249.369
67.6089
-761.803
694.194
-666.796
71.7649
-947.21
848.24
98.9703
-320.335
-67.1938
-41.6565
230.561
-188.904
532.446
-119.106
-413.34
-644.419
-43.2366
652.315
-69.7464
92.8715
82.5412
-175.413
-359.302
98.9843
260.318
-305.788
55.8109
847.55
-621.211
580.773
-607.433
26.6598
218.114
-90.9449
-127.169
-389.817
159.464
230.353
-31.4055
258.414
-227.008
-846.793
847.656
-0.863218
-37.2975
-153.924
191.221
287.23
8.57696
-295.807
-711.436
12.1608
-262.206
280.85
-18.6435
778.717
20.7636
432.038
-644.014
211.976
203.915
-212.039
-765.941
832.157
-66.2159
670.636
-713.807
43.171
74.6121
577.703
943.826
-846.982
-96.8448
-208.626
243.758
-35.1326
194.957
56.9942
352.473
130.394
-482.868
1009.1
-256.887
-752.214
17.0456
564.444
-581.49
-12.1315
-587.816
599.947
541.907
-209.85
127.844
426.936
-554.78
-302.645
405.869
-103.224
76.7161
-814.82
738.104
-700.703
454.378
-13.5394
-204.174
217.713
26.4257
-861.821
835.395
-320.717
336.529
-15.8121
-18.6986
273.841
23.9493
-891.12
867.17
-372.665
352.868
19.7967
-91.6324
-330.135
20.8863
-295.226
274.34
705.822
-787.427
81.6043
726.031
-860.297
134.266
-160.834
344.055
180.244
125.879
219.043
-209.08
-9.96312
298.559
-323.553
24.994
-134.913
566.951
631.163
326.164
156.954
98.0179
-254.972
273.606
-312.453
38.847
209.806
-254.986
45.1802
-29.7647
316.995
-359.798
-12.8665
2.01252
-182.864
180.851
217.047
-56.2514
-160.796
181.125
827.976
-198.072
-739.273
937.345
-101.071
-396.869
523.02
12.7894
235.861
-222.672
-13.1897
278.092
-214.467
-63.6248
8.60151
-226.746
218.145
-396.868
640.888
-244.02
46.1897
514.594
-560.783
984.146
-886.744
-97.4021
790.832
-787.076
-3.75603
-564.406
-245.598
810.004
-145.401
722.026
-576.625
452.427
-442.934
-9.49253
-254.776
11.4436
243.332
5.80928
-750.207
744.398
-182.534
-209.456
-242.927
229.714
13.2137
241.186
-20.677
32.408
1020.85
-572.448
-448.405
735.192
-933.264
-397.217
94.5718
9.97896
207.068
16.5768
-778.325
761.748
-90.357
-856.853
415.585
-451.024
35.4396
-106.827
832.858
52.2621
-736.848
684.586
-237.156
-17.6203
273.606
16.8342
242.906
-259.74
-431.759
431.759
82.0571
680.594
-762.651
-311.374
49.1681
-580.209
597.255
340.814
-309.792
-31.0221
-777.828
-63.2654
841.093
-155.368
453.713
-298.346
461.013
71.4332
430.192
-441.259
11.0672
268.138
-58.3318
-193.678
-348.542
542.22
499.703
-380.669
-119.034
-327.483
20.4293
307.054
786.434
-80.6112
-518.743
-81.8841
600.627
-661.004
661.004
-132.903
505.748
-372.844
96.8067
-320.166
223.36
-919.936
355.53
305.613
-355.929
50.3153
436.379
16.0472
793.049
-460.597
-332.452
931.06
-82.1244
-848.936
72.968
145.146
-847.605
614.722
232.884
-33.984
278.358
-244.374
-203.715
223.118
-19.4031
-46.5529
-487.432
875.617
-890.391
14.7743
-80.2012
428.862
-13.2773
789.444
-795.016
5.5712
244.204
-8.34314
31.5368
-240.162
822.119
-963.802
141.683
275.1
-338.29
63.1901
570.421
-570.421
899.934
-93.2185
-806.716
594.081
73.1088
-667.19
64.38
-331.507
267.127
-210.189
282.25
-72.0607
-479.186
323.819
52.0408
737.404
-392.715
529.07
246.914
-173.946
-684.164
-176.134
485.043
-630.444
453.17
-500.658
47.4878
-906.96
1043.63
-136.671
-579.019
555.362
23.6575
506.885
-581.617
74.7318
129.952
741.458
-871.41
211.167
530.848
-742.015
723.356
505.137
322.593
741.593
320.291
-230.959
-89.3317
-292.451
292.451
370.399
-401.252
30.8533
-27.2674
1095.31
268.234
-321.406
53.1716
531.324
-485.134
-297.429
-562.375
551.336
-564.637
13.301
-28.9784
904.596
258.712
-292.696
-235.1
200.04
35.06
498.727
-587.41
88.6826
-197.51
959.135
-761.625
588.493
-81.6074
772.45
-382.274
-390.176
337.511
-48.2506
471.976
548.877
-217.946
176.289
-743.835
59.6712
-944.257
37.2963
477.159
46.4353
-680
891.167
-705.786
-60.1551
182.638
-202.864
20.2264
-73.9932
915.29
-841.297
-38.0594
-817.789
855.849
179.288
-177.275
58.5318
164.769
-223.301
-7.15925
-365.776
372.935
329.043
-308.157
-614.008
217.14
-273.129
463.866
-190.737
908.569
-678.098
303.624
16.6667
295.178
10.4376
-305.615
-563.366
190.345
373.021
459.544
-29.3517
542.981
-736.659
-376.755
-14.0872
646.151
-746.159
100.007
-184.164
136.528
47.6359
-656.024
638.89
17.1344
232.445
-215.611
70.0201
176.893
-744.299
826.356
-337.608
332.623
4.98516
67.9313
-362.05
294.119
255.371
-203.83
-51.5405
525.756
-328.209
-197.547
11.0066
-345.911
334.904
-496.764
484.632
-83.0818
310.076
-226.994
-663.177
161.858
501.319
-357.29
-32.5271
653.663
6.0484
444.187
-21.0269
-187.869
40.5845
147.284
-22.29
734.319
-712.029
-863.248
993.199
318.918
-152.829
-166.089
677.289
-775.061
97.7722
425.862
346.588
706.116
59.8614
-765.977
818.111
81.8234
563.343
-538.886
-24.4578
1093.74
-1012.33
-81.4089
2.06629
-292.047
289.981
300.011
-4.83379
67.6114
139.198
213.528
5.51521
197.274
-195.656
-1.61882
138.653
151.564
-290.218
-301.645
281.786
19.8591
-171.556
-295.034
466.59
418.301
-551.204
-316.477
198.256
-188.447
-9.80811
187.884
1010.67
-570.591
-440.083
525.605
-109.046
-416.559
163.608
507.028
80.4584
482.885
20.0971
-699.734
716.011
-16.2766
41.8995
-545.331
503.431
-99.838
-244.474
344.312
-447.608
38.6752
408.933
-140.175
-335.775
475.95
779.98
-1.26315
25.0841
186.393
-385.054
198.662
177.097
-260.179
-920.986
850.021
70.9647
-291.823
305.182
-13.3595
676.795
-89.5769
-587.218
1047
-603.801
-443.195
196.582
-187.641
-8.94126
227.709
-120.52
-107.19
-419.995
417.542
2.45234
662.019
-30.4734
-631.546
-696.917
-2.81678
378.968
25.6466
-585.284
464.212
121.072
585.335
-577.8
-7.53535
-855.761
44.4143
811.347
856.377
33.1971
-889.574
-424.078
283.902
-205.963
18.0939
-324.339
541.174
-216.835
-176.335
-58.7651
754.992
-793.051
-137.584
196.116
555.424
-180.153
-375.271
-123.341
-308.419
214.483
-214.637
0.153752
619.581
42.438
683.296
-608.684
25.2811
-301.399
276.117
838.126
-876.621
38.4952
-321.594
11.8027
959.299
-962.208
2.90916
45.3733
227.651
-273.025
680.147
-33.9958
571.972
-592.046
20.074
-827.545
853.971
196.207
-209.746
786.636
211.982
747.152
189.311
168.611
-357.922
-294.922
-5.66514
837.4
-87.4791
-749.921
586.624
-139.146
-447.478
254.324
-72.3114
78.5241
415.734
72.4661
-282.655
473.696
-503.723
30.0274
141.013
-347.265
206.253
137.437
388.319
71.2021
859.858
653.187
-773.138
119.95
-22.1418
981.441
-268.316
-36.6483
304.964
-212.639
219.499
-6.85982
33.6819
155.886
47.7813
451.922
334.589
-341.748
-374.703
20.1499
-343.545
49.3316
838.325
-58.3456
62.4838
-243.97
181.487
-966.192
21.9354
-929.958
-36.2339
-486.033
59.5614
426.472
-738.839
908.166
-169.328
-230.744
-26.8537
257.597
-131.386
-75.6721
207.058
-131.575
-71.6394
203.214
-167.714
236.818
-69.1038
853.469
424.261
-237.868
146.705
-11.639
-567.38
-880.033
-40.9525
425.592
161.031
200.289
-524.628
200.814
-1107.19
906.377
18.5101
206.915
-225.425
-0.100851
-203.614
417.814
26.3737
89.0712
701.76
289.526
33.4656
-322.992
-474.561
602.405
728.895
72.6886
-801.583
-780.675
-6.75156
803.39
-856.522
53.1314
316.023
-278.08
-37.9427
86.6593
232.259
850.934
-864.903
13.9695
978.823
-862.142
-116.681
939.379
-943.872
4.49322
-411.931
-173.353
-1.23191
-872.351
564.424
307.927
-177.194
160.247
16.9476
-245.911
384.565
138.997
90.8876
-229.885
755.276
266.764
-282.744
431.468
94.1371
784.426
-699.902
-84.5246
-52.2653
-130
-68.741
198.741
-303.969
260.848
43.1207
862.86
-838.911
-20.874
378.099
-357.225
-350.129
-9.66922
572.563
-582.742
10.1792
365.377
-327.113
-38.2635
-828.624
731.26
97.364
-905.875
831.882
143.087
84.6223
-404.841
275.715
129.126
466.421
-453.214
-13.2074
620.743
-622.602
1.85921
517.944
-44.2477
-349.62
-123.029
472.649
25.7677
-294.083
-64.7851
-249.258
314.043
544.29
563.935
-1108.22
-900.86
849.225
51.6349
1.2135
-403.97
417.533
-13.563
430.805
-399.113
-31.6924
674.14
-850.615
176.475
712.042
-883.949
171.907
-501.195
-161.982
-458.812
80.2928
378.519
302.305
-5.80212
-296.503
-326.82
195.245
476.396
86.4251
-719.752
-108.872
13.424
183.85
-297.579
302.007
-4.4278
53.0944
-363.808
310.714
488.633
40.6109
-529.244
-236.979
300.593
-63.6143
-896.188
-19.6367
915.824
-157.865
-68.1418
226.007
5.75327
-851.058
845.305
804.702
-118.334
-686.368
307.293
145.107
-209.892
-874.867
-21.3208
808.826
41.1951
0.926324
552.311
-199.837
-520.864
-10.6575
531.522
-801.988
913.792
-111.804
312.743
-244.812
-405.048
305.21
-29.7942
590.598
63.0658
382.169
-241.156
277.668
515.381
-11.8734
23.8557
341.521
-770.216
72.3716
697.845
455.889
95.4469
-107.357
-58.6607
166.017
-851.799
-23.0675
65.4831
332.745
-188.369
229.24
-40.8708
41.8781
-278.857
-275.474
289.834
-14.3606
-17.1726
22.2836
-511.845
489.561
-611.863
-134.296
-19.0156
298.842
-279.826
-332.374
462.769
599.382
447.614
-1102.79
430.492
672.295
328.565
0.234174
-328.799
-198.081
-198.84
396.922
-524.045
556.857
-661.28
-19.7243
681.004
99.5301
82.0957
-181.626
-44.2571
799.249
839.591
-862.789
23.1979
807.37
-154.182
34.0836
-604.621
-321.714
-24.1965
556.77
57.6926
-614.463
436.333
23.2106
-348.288
390.398
-42.1094
-854.071
-3.68704
857.758
-27.8216
-823.978
307.461
-286.98
-20.4812
625.217
-4.47404
588.298
-420.483
-167.815
-209.239
289.515
-80.2753
-77.7084
-296.994
-418.463
-47.856
896.805
-184.763
-828.058
89.2196
-629.136
17.2735
-537.442
47.5973
489.844
820.545
-39.6212
-780.924
-275.903
108.188
3.63708
-356.265
352.628
864.32
-190.18
305.546
-3.24146
636.792
-64.8199
494.264
-5.63179
801.317
-712.246
-1045.14
-57.6426
444.313
22.1077
541.312
39.4612
722
-716.19
796.654
-38.7446
-757.909
189.02
-226.318
272.262
-11.4142
-117.612
210.604
-202.002
474.867
15.2574
-490.124
575.417
-94.0018
-481.415
-457.979
421.21
36.7685
128.809
672.508
10.6149
-73.7194
-775.616
849.335
64.6815
-673.704
609.023
222.573
-300.792
78.2188
-731.126
657.406
91.6704
713.031
-504.413
1048.7
240.056
-177.572
-284.513
-190.196
228.535
-38.3389
201.03
-263.296
62.2654
-178.317
317.314
-8.62995
-341.499
-50.9513
4.65588
-409.369
404.713
-47.4805
-161.111
-194.263
-27.2342
364.662
-337.427
-870.86
944.458
-73.5984
45.4678
-527.899
482.431
56.5724
-269.211
-755.657
105.927
649.73
343.032
-246.606
819.408
1.13635
-8.83501
223.963
-215.128
446.735
141.563
-122.848
-335.965
816.333
-201.611
-95.2344
-914.159
604.807
-357.256
134.941
55.8355
656.458
-588.85
494.403
-12.1384
340.25
-34.6365
338.38
-420.675
82.2952
226.612
-274.83
48.2175
51.9476
244.731
-296.679
335.773
-507.329
-6.60102
761.955
-806.212
537.34
-62.4732
-108.297
739.787
-631.49
-268.097
301.278
-33.1817
-70.2278
292.801
198.822
-188.843
-278.751
10.654
-1068.14
593.186
474.957
-35.8181
-77.9772
170.849
-307.614
293.306
14.3085
-675.977
692.554
267.031
-271.728
4.69719
-484.38
189.346
-508.247
-559.896
235.164
-277.443
847.156
-946.587
99.4304
-342.814
21.0993
489.011
-625.992
136.981
-2.89086
811.717
249.439
-285.092
35.6534
-305.78
-566.57
-37.0307
292.115
-25.0835
359.436
-116.86
-242.576
-20.3451
-851.219
871.564
-871.445
464.511
406.934
-55.2816
735.876
-460.918
42.4552
-151.649
-141.463
293.112
879.538
-834.833
-44.7058
389.562
-324.079
797.976
5.41413
108.505
78.8092
-187.314
-580.551
1024.4
-443.846
142.106
-189.746
47.6396
-759.028
-144.961
903.989
132.683
226.754
853.498
-31.3791
813.468
-736.752
500.913
-422.389
7.55106
-251.863
72.3591
149.664
-222.023
306.073
246.238
-20.1225
-1098.2
619.195
479.004
8.86716
891.727
-60.537
-831.19
-430.452
621.9
-191.449
57.1209
756.347
21.475
-542.339
-590.488
-18.1475
608.636
436.705
141.588
-578.293
-264.792
-522.283
278.141
62.1084
-174.713
-74.6562
-405.559
352.169
53.3905
-782.081
321.484
199.368
-260.132
60.7637
218.059
-259.53
41.4716
428.648
-423.992
734.046
53.5803
-787.626
-201.215
47.2915
828.324
20.5631
-848.887
-373.613
27.7079
345.905
118.64
860.184
-406.905
454.064
410.751
-72.3706
-954.621
99.7558
854.866
789.137
102.59
-35.7866
262.399
49.969
380.836
908.854
134.777
22.2531
-483.171
28.8584
-827.274
798.415
702.028
-773.702
71.6742
636.372
465.973
769.002
-56.0303
-712.972
191.071
-48.9648
75.9515
339.11
-415.061
-735.271
792.391
288.531
171.711
-240.712
167.613
73.0989
-111.262
-426.731
537.993
-31.2785
-211.649
1004.42
-573.931
48.6652
-279.409
206.544
-215.379
-106.178
-151.438
30.8513
820.083
-173.391
509.165
-607.917
765.265
-157.347
692.93
-715.22
-399.554
388.897
-443.157
-179.445
39.1951
348.597
-15.4684
-333.128
-46.2944
808.25
-505.252
-623.371
1128.62
287.111
-242.367
210.962
3.01606
195.806
-224.14
143.126
-885.379
909.051
-23.6721
-281.735
254.986
26.7482
72.4284
711.998
3.3619
765.64
634.72
-15.1383
-14.9401
-510.444
472.241
38.2029
933.103
17.1494
-950.252
-318.277
-55.3355
0.265778
-237.357
805.086
-71.04
529.005
-623.029
94.0236
-762.221
-84.5716
34.4239
281.599
898.012
10.8417
-490.078
440.301
49.7768
-950.465
-94.6796
39.3761
-401.395
362.019
-205.37
241.552
-36.1812
250.81
-49.7795
-39.3798
1050.29
-313.209
-737.076
579.514
-50.5088
62.7676
-260.596
-70.9108
-699.443
793.001
-93.5579
-51.7205
-22.5364
240.595
504.493
-5.76607
92.7845
-870.612
-85.3964
208.04
-122.644
-202.142
213.407
-11.2652
-681.771
570.509
-456.514
478.798
343.857
45.7052
-459.397
424.228
35.1686
562.305
448.368
498.066
-459.701
-38.3657
494.299
-313.194
-181.105
-209.129
48.7641
349
-20.7277
-328.272
-232.111
41.9151
-290.289
271.59
-219.056
-636.704
-691.679
-81.4584
257.816
-58.4478
667.687
196.633
7.03669
222.677
817.343
-83.3809
-733.963
328.126
-141.917
646.792
-504.875
260.288
-287.141
-90.9663
527.672
-751.187
6.88821
-87.3877
-96.7763
500.01
-98.5999
793.12
-694.52
-193.191
226.332
-33.1419
-40.8562
-240.878
829.584
-737.914
218.091
-429.95
-413.098
843.048
867.063
-199.376
-45.0269
799.074
-754.047
597.264
-6.6658
17.5583
-608.047
278.365
147.872
-426.237
-403.683
479.635
-24.8691
-314.161
339.03
-616.158
64.7359
551.422
-144.54
531.456
-386.916
-482.917
407.754
-482.082
74.3284
104.476
-171.936
67.4594
-162.589
351.9
-180.74
-196.015
737.142
-35.1138
102.21
581.086
-610.958
648.697
-37.739
269.231
-288.246
-811.124
-51.6649
96.7872
-432.562
590.118
460.167
-615.727
172.57
423.234
-853.183
406.725
-681.844
28.6442
653.2
-224.281
268.866
-44.5857
-816.305
886.694
-70.389
-47.5903
-432.008
479.598
1005.36
-405.646
-599.714
-67.5648
-788.957
5.17272
302.288
-950.455
207.435
743.019
-857.682
-92.7726
-169.901
-7.29317
-777.772
731.478
-137.127
-300.121
437.247
-7.55474
-270.036
277.591
160.129
647.241
253.572
155.404
-408.976
-902.863
154.563
748.3
541.091
-580.842
39.7511
604.524
58.5797
-663.103
-45.4597
673.439
-639.911
-33.5283
352.183
-23.618
-38.206
237.268
-199.062
608.494
64.9455
12.7309
-793.406
721.531
-777.561
-178.877
251.236
328.245
166.054
148.596
-329.336
200.815
-203.864
3.04877
338.094
-197.846
-140.248
592.229
42.4904
-749.07
801.597
-52.5274
-431.064
-88.4825
519.547
-6.99053
-290.588
268.076
61.3779
-329.454
244.156
-96.2418
-147.914
418.117
-465.707
-61.713
-740.275
-410.198
116.964
138.407
531.152
-455.684
-75.4683
-232.438
250.948
-196.71
189.929
6.78155
41.3463
-250.574
209.228
-321.264
377.96
-56.6961
218.489
-20.6161
-197.873
450.469
554.891
-256.813
555.354
-473.639
136.912
-195.155
58.2431
-194.998
-21.0092
216.008
701.249
-96.7256
234.978
-164.957
-357.11
271.275
85.8353
-422.079
-35.5976
457.676
-351.777
448.564
306.119
-323.487
17.3684
-14.4217
27.4955
473.417
462.572
35.4938
53.8504
-475.929
211.406
-11.366
-334.735
-8.07844
-367.271
298.083
69.188
340.303
-62.162
675.899
220.905
-238.947
280.294
-285.302
305.731
118.709
653.727
-772.436
-737.919
-24.9339
762.852
24.5378
185.167
16.7713
-338.035
-690.611
621.053
69.559
114.247
-195.142
166.181
28.9615
434.871
-156.506
-243.856
-186.314
430.171
-162.118
-348.326
217.045
-16.2295
-280.962
129.313
96.2563
-181.653
-1009.53
696.316
-346.74
346.74
851.479
242.26
-35.1605
-509.083
-500.442
207.941
327.381
527.899
42.5213
544.187
-49.9225
283.186
-261.477
-21.7085
-629.302
662.079
-32.7768
-50.3378
-531.698
-48.5116
-635.703
732.668
-96.965
83.6596
-492.8
-352.641
539.318
4.86861
536.729
31.5412
-568.27
749.779
-646.814
6.90304
-101.559
-87.3372
188.896
-392.708
102.419
308.81
-31.2283
-277.582
-141.537
-64.4252
-299.451
287.486
11.9648
-303.927
94.6878
871.209
-195.309
-338.296
43.0696
769.404
-2.37342
-767.031
584.127
-658.846
74.7187
-922.866
830.385
92.4807
-22.3804
-638.899
110.354
295.515
-21.5371
-260.144
281.681
-801.766
39.9628
-201.564
-287.581
266.044
-465.953
511.421
-255.789
278.181
-22.3923
-298.854
301.166
-2.31172
-814.003
705.706
995.97
-148.814
-178.307
311.88
-266.507
359.687
-191.076
431.825
-319.739
-112.087
285.233
55.07
817.214
-84.2386
-732.975
184.687
-681.451
-761.779
680.15
81.6294
6.09544
-616.916
625.005
-8.08885
60.4162
174.561
-103.612
521.912
-265.489
307.743
-42.2549
378.813
-457.91
79.0975
-608.525
649.057
-40.5328
586.165
43.6002
-629.766
251.158
-218.122
-33.0364
557.277
-26.0567
-531.22
196.916
-88.3114
-108.605
-100.405
-43.5322
143.937
959.603
-950.183
-9.41957
-575.488
-388.314
-45.5395
-759.353
804.893
-897.628
834.363
-603.969
372.183
231.786
605.032
-623.18
-11.454
676.944
-665.49
52.9657
116.107
-169.073
-72.6137
-291.194
-855.988
-66.878
15.4696
364.977
334.036
-739.682
209.616
1.79003
-225.128
225.128
394.243
-107.672
-286.571
-911.359
25.9806
-2.60518
-21.7667
-481.983
503.749
-753.808
-80.4967
486.591
-406.094
-252.375
-408.629
431.135
-9.92514
-49.2644
256.18
153.543
184.551
-549.373
396.082
-167.621
421.193
337.871
-52.6377
763.539
-711.277
-283.236
-5.23636
270.013
-946.903
-3.56145
5.61695
927.486
532.326
-448.666
-847.058
577.13
269.928
12.4384
255.647
-268.086
350.369
-10.544
-339.825
-461.139
30.6876
-835.776
749.501
86.2758
-124.201
-194.076
220.533
44.1522
-264.686
212.732
125.139
-800.986
17.7731
-582.597
336.248
246.349
42.0518
256.507
360.013
-324.009
-36.004
-399.289
411.214
-11.9248
847.403
-513.367
-454.853
312.935
-318.611
189.318
129.293
423.369
-720.798
568.305
-27.2143
811.237
-807.875
81.9621
114.954
-830.643
814.923
15.7196
-795.241
46.1713
-472.164
-527.85
1042.66
-186.28
931.086
-835.19
-95.8958
-521.121
-463.311
984.433
-47.9984
-253.647
41.6756
223.85
-228.453
4.60329
-21.5974
-56.0573
733.346
470.812
-37.8942
-432.917
-349.694
-213.672
28.4863
-62.7254
-275.565
-163.597
437.263
-273.667
-926.452
926.452
92.3314
-796.278
463.826
-510.4
69.0462
441.354
-210.776
-194.066
180.404
-172.351
-377.022
-560.17
387.819
607.662
55.006
189.15
430.998
-928.631
497.633
-41.7329
331.259
-225.319
-260.714
-212.004
431.093
-102.848
-179.115
-139.495
-65.4711
-835.388
452.362
-517.92
65.5579
18.2172
-704.099
786.291
-82.1921
415.678
-419.433
3.75566
244.453
-566.503
529.69
36.813
67.5877
134.993
-202.58
192.082
-230.288
378.945
-708.779
329.834
110.534
758.327
148.002
246.241
-68.5068
-491.93
470.163
291.551
-305.533
13.9813
416.202
-37.3892
353.607
-380.841
-20.752
-367.385
388.137
-38.1505
-285.403
332.332
12.4568
-344.789
-439.168
275.571
-386.528
37.5485
631.184
-749.519
-409.428
530.91
-312.151
-91.8186
976.636
-866.103
-492.788
-312.277
805.065
291.859
35.1238
290.623
-325.747
-440.447
153.456
-277.657
-51.5714
450.404
-563.628
113.224
47.4136
613.59
-199.691
98.1321
342.301
-300.249
708.738
-329.794
272.087
-173.103
23.5012
364.505
-388.006
-27.1844
-291.854
-9.54413
-251.628
248.86
2.76819
2.9393
563.856
-542.381
50.5678
-891.584
113.26
801.25
-3.27408
328.152
-115.419
525.494
328.698
-854.192
598.386
239.939
676.799
-775.399
-759.8
106.595
653.205
290.132
62.2879
-352.42
182.633
-175.17
-7.46288
34.2414
274.706
572.95
-207.963
59.1908
148.772
-156.602
-607.104
763.707
-336.638
364.907
-28.2693
-274.393
287.759
-13.3663
-147.367
-174.039
-254.494
207.357
47.1372
920.1
-920.1
-87.0863
726.997
-639.911
293.191
-206.532
343.884
-68.1682
-658.236
187.969
26.6382
-214.607
24.5922
-588.251
563.659
42.8064
-268.072
225.265
908.538
-914.174
5.6358
301.379
-674.665
373.287
361.42
-322.044
50.7662
309.247
-350.739
876.233
556.831
-106.427
-72.0973
-240.356
-399.416
318.211
81.2046
224.635
-344.925
329.565
-500.123
170.558
-267.401
43.1205
-873.304
-73.5988
33.3911
-737.49
335.411
-175.947
796.374
-773.262
-23.1114
431.13
58.5101
-489.64
-685.455
610.602
74.8536
-267.907
216.306
51.6013
319.099
-27.5472
-426.034
-254.797
883.736
-838.888
-44.8485
-357.442
658.821
121.206
-552.27
-865.105
11.034
-52.9909
-607.004
659.995
46.771
-141.314
-99.398
-920.764
390.582
530.182
186.761
3.16772
448.797
-33.1193
543.451
278.837
-272.492
-6.34516
-333.315
-5.74461
339.059
-562.959
458.192
11.5353
-231.361
219.826
228.492
-40.5227
-104.164
372.728
-268.564
-353.24
4.95199
433.848
-9.6201
54.6621
-813.599
758.937
-664.25
664.25
78.7994
181.488
-94.4951
-506.364
600.859
-854.497
938.121
-83.6239
741.146
55.2271
-14.1094
-834.581
848.691
323.05
-340.139
17.0899
324.166
12.938
-337.104
584.964
-636.732
51.7676
47.2229
320.79
-368.013
-220.024
-123.603
343.628
191.31
-8.67702
108.291
-711.338
603.046
-760.04
267.251
346.91
-311.787
793.726
59.7716
-77.2548
-433.146
340.103
-391.107
-682.156
103.317
578.839
327.876
-289.057
-38.8194
-530.171
616.651
-86.4802
-81.6065
-362.678
444.285
405.791
-381.935
-611.488
-309.276
619.541
-721.584
102.043
-409.127
-437.931
837.867
-39.6929
-645.762
106.311
478.943
-585.254
563.544
-644.687
81.143
44.5579
-259.025
11.1122
-692.956
-317.855
321.492
-7.18485
570.421
-692.681
122.26
-344.473
-430.589
3.15276
-685.812
697.818
-12.006
763.055
-164.669
645.233
-102.629
-542.604
229.323
301.829
285.356
-295.354
9.99792
807.725
-935.859
128.133
-660.418
-99.3824
-312.392
46.9039
-329.164
66.1368
263.027
-55.5947
640.559
101.709
-272.628
170.918
356.755
-334.929
-21.8258
-362.403
-220.194
-22.3498
204.988
-35.2757
-167.589
228.038
147.281
-375.319
-270.476
318.435
-47.959
591.324
-685.819
21.7856
287.025
-287.326
-41.8382
-299.735
-304.234
-711.301
540.75
170.551
-112.226
-147.639
-156.618
65.673
-577.201
536.183
41.0182
576.952
-1098.07
-23.9285
-1015.81
-140.879
373.214
57.8794
-21.839
-51.3611
-760.689
129.199
856.771
-851.017
617.348
-76.5981
1.85852
589.22
-591.079
-288.853
-161.21
450.063
-57.722
-210.185
11.77
188.885
-211.086
22.202
-998.794
248.587
449.046
-119.481
19.5925
-627.886
608.293
299.128
-364.764
30.2922
334.472
64.377
573.586
-637.963
-101.303
773.126
-671.823
-669.611
-195.292
-735.779
37.8056
697.974
-28.1672
577.497
-549.329
927.833
-919.013
-8.82029
568.929
-621.92
-611.181
-23.4811
634.662
-394.293
123.817
277.95
-276.459
-1.49106
801.672
-772.814
-95.7425
730.733
-634.99
457.331
14.9097
-433.384
-669.648
604.129
65.5188
399.664
-92.077
-563.947
-54.2965
-10.4328
-398.936
-40.3677
235.56
-195.192
19.5007
327.41
-359.212
363.335
-4.12285
748.833
-794.372
97.6746
159.923
210.615
-221.942
11.3275
684.166
-775.228
91.0619
-331.767
-694.514
-4.92881
795.938
75.2708
290.586
120.165
813.222
-17.2837
-31.4626
-1030.53
168.705
3.93124
23.2577
-568.589
151.525
-98.5594
-1081.4
-255.958
267.493
74.5807
218.61
-107.4
-467.089
574.489
-2.38201
-477.397
479.779
838.91
-31.1841
569.993
75.2396
-51.6286
-220.813
272.442
750.956
-795.983
-160.858
388.896
-412.27
446.152
-33.8816
-679.356
723.007
-43.6515
298.378
-332.644
12.4782
390.01
-118.05
-271.96
178.374
-511.134
465.803
45.3317
3.89717
-459.764
464.932
-5.168
613.574
-596.016
42.3303
-170.148
601.278
-291.372
57.4033
440.536
40.425
608.226
-648.651
-68.5066
-152.246
215.022
1.28426
32.6782
-387.584
22.8202
-415.19
2.92009
249.023
-250.859
1.8363
711.206
-682.561
-483.5
82.8639
400.636
-42.1763
626.303
-39.8701
-210.704
914.257
-141.738
-772.518
518.882
537.49
-1056.37
-303.075
-9.49838
289.066
4.23943
10.2839
271.502
-695.392
-5.5822
700.974
592.299
-748.901
-217.955
188.582
29.3722
-536.681
-11.6729
-662.031
27.0685
109.843
-136.591
-428.046
-107.67
209.379
21.0305
-642.326
621.296
-38.1281
-497.923
536.051
-266.75
313.973
-69.2186
625.989
-731.943
755.039
-23.0963
217.651
-482.443
268.174
-277.465
9.2908
5.10569
-839.77
25.7668
251.008
-471.032
918.709
-929.546
10.837
637.745
12.5982
-650.344
-49.8615
-542.185
-807.257
840.454
138.998
-207.739
897.669
-78.2601
236.671
-12.8217
-60.4635
-716.024
776.487
-89.2437
-596.568
-29.6946
566.424
-682.994
22.576
202.707
-239.027
36.3198
-232.77
0.567372
232.202
-557.347
533.491
23.8563
-177.814
77.4083
50.4864
94.7579
-145.244
-880.258
314.339
18.1642
-332.503
54.9069
637.91
-692.817
-337.632
372.577
-34.9455
-660.012
-22.9811
-662.148
780.858
-896.957
127.773
769.184
-143.322
-168.052
-443.857
63.1881
-457.826
-618.175
269.273
-2.50924
-286.266
288.402
-2.13622
162.079
-94.4916
-421.229
392.95
28.2789
-954.905
972.054
-315.679
108.573
207.106
102.757
48.768
525.556
866.724
-887.069
276.388
-44.1297
381.535
-526.075
-789.883
811.68
-21.7969
-349.634
-193.27
542.905
129.313
-167.748
38.4348
425.076
-528.688
755.848
-689.043
-66.8049
-261.641
-41.4348
350.952
-82.8762
312.45
-290.664
328.738
-652.021
-17.6272
5.63759
633.252
-353.651
107.045
20.6366
-891.496
549.732
-387.874
608.139
368.497
422.962
8.17383
744.686
-805.15
-39.1864
-12.7881
827.285
70.3833
421.018
-499.692
78.6744
237.417
-187.936
-49.4806
-195.573
230.822
-35.2485
-4.10643
339.698
-335.592
-618.353
658.777
429.409
253.933
-212.844
-41.0892
359.004
520.534
312.29
-333.018
720.605
96.6086
82.6638
-605.579
522.915
639.585
-35.4555
34.0457
-930.747
114.178
816.569
196.517
-264.658
-247.851
-793.239
732.276
60.9635
5.13027
814.896
-820.026
934.121
-934.121
-376.884
17.6721
602.817
36.7678
-109.073
-37.8352
-189.655
227.49
437.37
27.6249
-464.995
-432.986
19.169
413.817
188.784
972.173
-453.291
-221.378
36.0756
185.302
-627.592
630.653
-3.06055
451.835
-472.349
20.5133
-430.452
-2.53432
40.0745
-770.231
730.157
-635.989
-64.7136
-548.438
518.361
30.0776
-389.318
311.61
36.3974
-248.297
211.9
-172.269
-143.409
-27.6574
233.464
-18.4423
38.4167
321.489
-288.024
-71.2433
791.601
364.847
-50.508
-769.906
31.9871
-890.019
814.443
75.5759
125.716
292.95
359.361
182.546
-758.214
859.173
327.307
196.741
-524.048
-160.962
594.432
-643.999
49.5679
493.583
55.666
-549.249
648.722
-351.839
-296.884
-490.071
-117.361
-783.549
682.246
24.2061
-689.036
664.83
-711.235
108.488
602.747
-763.631
16.7038
45.9784
508.453
-87.4348
-527.99
354.599
567.751
-595.918
-35.3343
-64.7214
223.002
-158.281
67.8748
-703.578
-229.929
-226.374
161.653
-27.3049
284.778
-109.937
-174.841
177.108
-5.93102
-643.521
715.893
-44.6208
214.401
-169.78
869.861
-630.28
13.3635
143.513
198.788
0.993459
397.364
-398.358
-220.519
-206.832
427.35
180.921
763.537
378.815
-355.314
-843.521
7.74434
626.387
-609.856
-1.57733
-819.18
820.757
589.52
15.9914
-605.512
853.161
47.2803
-900.441
306.631
-5.46506
119.843
-408.696
425.364
8.48465
-254.572
334.224
-79.6524
187.842
380.943
-90.3566
610.653
-54.1545
-556.498
-758.798
786.507
-27.7093
12.0673
658.475
-670.542
-647.006
116.835
-5.41616
-442.088
612.354
34.1999
322.555
-29.0741
184.056
-84.5258
-334.791
1.47579
95.9417
742.968
2.54119
-275.99
273.449
-426.159
-502.473
-57.4272
-757.772
815.199
270.666
-43.0146
189.061
-271.058
81.9968
181.032
-93.5527
-218.091
-516.875
-581.325
-792.201
-18.9225
-160.96
-815.748
776.438
39.3097
-34.2656
469.325
-435.06
59.7804
821.332
-881.113
192.137
-141.651
776.268
25.3286
-234.358
196.523
19.5534
-304.26
284.707
575.701
-573.843
-649.192
114.337
534.855
-585.324
588.908
-3.58468
28.6105
256.745
-665.28
-441.911
608.53
45.7794
-654.31
-721.942
606.745
-679.199
72.4542
-136.004
-71.9587
449.84
-484.193
-847.128
852.258
108.265
-308.059
-588.898
-642.28
593.212
49.068
176.175
-71.699
-42.9709
463.479
185.243
-575.629
63.7841
514.374
-526.653
12.2782
73.3784
-717.638
644.259
265.271
-16.2478
-308.54
164.741
143.8
-576.703
608.244
-135.837
489.6
-353.764
681.385
-86.9533
-0.509259
-315.991
316.5
-447.1
-442.728
889.829
-146.399
259.815
-113.416
-103.511
-578.645
-586.263
432.775
153.488
408.261
-44.47
-363.791
15.6655