/*--------------------------------*- C++ -*----------------------------------*\
  =========                 |
  \\      /  F ield         | OpenFOAM: The Open Source CFD Toolbox
   \\    /   O peration     | Website:  https://openfoam.org
    \\  /    A nd           | Version:  7
     \\/     M anipulation  |
\*---------------------------------------------------------------------------*/
FoamFile
{
    version     2.0;
    format      ascii;
    class       volVectorField;
    location    "20";
    object      U;
}
// * * * * * * * * * * * * * * * * * * * * * * * * * * * * * * * * * * * * * //

dimensions      [0 1 -1 0 0 0 0];

internalField   nonuniform List<vector> 
7807
(
(1.07639 0.108065 3.8514e-20)
(1.06693 -0.0224284 1.19849e-19)
(1.03948 0.0907626 -6.18139e-20)
(1.05052 0.0690766 1.23432e-19)
(1.02739 -0.00202515 1.91471e-20)
(0.981496 -0.0152795 1.49889e-20)
(1.0392 0.0870344 -1.22561e-19)
(1.02053 -0.0022341 4.75054e-22)
(1.02481 -0.00155832 1.68195e-20)
(1.03355 0.00223836 -1.06219e-20)
(1.01022 -0.00720868 -1.65716e-20)
(1.02794 -0.00233431 -3.03961e-20)
(1.00292 -0.00311035 -2.95299e-20)
(1.0341 -0.000831887 -1.26079e-19)
(1.03238 0.00258921 4.43343e-20)
(1.02283 -0.00900047 4.71227e-20)
(1.07711 0.112068 -8.17498e-20)
(0.989934 -0.000523683 8.23423e-21)
(1.02953 -0.00569036 -2.39047e-20)
(1.01508 -0.0681668 1.01417e-20)
(1.04683 0.00402466 -3.3988e-20)
(1.02754 0.000327573 8.64084e-20)
(1.0359 -0.00157186 1.63201e-20)
(1.01507 0.0394879 -7.50867e-20)
(0.969397 0.00130092 2.92504e-20)
(1.07367 0.106414 -3.86343e-20)
(1.02772 -0.00168392 1.59957e-20)
(1.03808 0.000663432 4.15384e-20)
(1.00719 0.0201497 -1.09318e-20)
(1.02948 -0.00570772 2.13323e-20)
(1.01913 -0.00942377 6.7218e-20)
(0.588934 0.0112241 1.27247e-20)
(1.03512 -0.0016673 8.79727e-20)
(1.02536 -0.00288637 -3.64341e-20)
(0.555653 -0.00126192 -5.67512e-24)
(1.03471 0.00278171 1.6937e-20)
(1.03035 -0.00707292 1.57103e-20)
(1.0392 0.0861201 -2.08145e-20)
(1.02469 -0.00550681 -8.52304e-20)
(0.928217 -0.00422888 -4.46757e-20)
(1.02507 -0.00550936 8.57658e-21)
(1.02287 -0.00862403 1.75873e-20)
(1.03651 -0.0756018 -4.83872e-20)
(1.1444 -0.0186373 -1.72418e-20)
(0.525535 -0.00313514 -2.12293e-20)
(0.951689 0.00572361 9.58497e-21)
(1.02629 0.000473308 -5.25619e-20)
(1.0257 -0.00498824 5.01725e-20)
(1.02459 -0.00128242 9.19335e-21)
(1.01844 -0.0687201 -1.49399e-20)
(1.02841 -0.00182817 2.42435e-20)
(1.03889 0.00156385 -4.48637e-20)
(0.931351 0.00167453 8.01543e-20)
(1.03511 -0.0185335 1.71192e-20)
(1.0348 0.00169936 -1.30402e-20)
(1.02484 -0.00300686 8.71559e-21)
(1.02839 -0.00478031 3.77082e-20)
(1.01071 -0.00209929 -5.61238e-20)
(1.01274 -0.0109889 7.6699e-20)
(1.02523 -0.00351326 4.42545e-20)
(1.02336 -0.00134115 -2.22405e-20)
(1.02973 -0.000127417 2.30391e-20)
(1.03476 -0.000263886 -2.84977e-20)
(1.02716 -0.00172037 3.1036e-20)
(0.94778 -0.00783421 -3.34598e-20)
(1.01953 -0.00977596 -1.07271e-20)
(1.02386 -0.00202235 -1.56513e-20)
(1.02122 0.000242858 2.27129e-21)
(1.13501 0.0728582 3.90999e-20)
(1.02591 -0.00442594 2.02128e-20)
(1.00299 -0.00149819 -8.66453e-21)
(1.0075 -0.0380739 8.98875e-20)
(0.996933 -0.00134635 -1.44826e-20)
(0.858422 -0.00318152 -1.2245e-20)
(1.00873 -0.000577457 -2.57995e-20)
(1.00325 -0.0173501 1.22405e-20)
(1.04023 0.091646 9.90379e-20)
(1.04538 0.0036296 4.27097e-20)
(1.0878 0.0132366 -8.78931e-20)
(0.996537 -0.0303678 1.01475e-19)
(1.01618 -0.0033703 4.54516e-20)
(1.0229 0.0901147 1.40286e-19)
(1.04864 0.0139776 7.47826e-20)
(0.992414 -0.00377181 -5.47187e-20)
(1.02525 -0.00275532 2.58952e-20)
(0.830268 -0.00508269 -1.39921e-20)
(1.02337 -0.00298362 -7.4916e-20)
(0.968469 -0.00138866 -5.12579e-20)
(1.02641 -0.00174447 -2.19051e-20)
(0.831277 -0.0056999 -2.68882e-20)
(1.00753 0.0228898 7.75809e-20)
(1.16945 -0.00292436 2.67941e-20)
(1.02165 -0.00207967 1.56937e-20)
(1.02832 -0.00466673 1.76194e-20)
(1.01315 -0.00320465 -3.20762e-20)
(0.593338 -0.00387861 9.45512e-20)
(1.00924 -0.0378865 -5.40838e-21)
(1.03621 -0.0175132 -2.94953e-20)
(1.02489 -0.00271308 -5.18425e-21)
(0.91124 0.00494518 -9.46825e-21)
(0.912283 -0.0119574 -2.57824e-20)
(1.08814 0.0173706 6.60896e-20)
(1.02099 -0.00160555 7.94386e-20)
(0.576497 -0.00146071 8.85611e-22)
(1.17112 0.0071512 1.69642e-20)
(1.03758 0.0373055 -7.46669e-20)
(0.823337 0.0453958 1.72864e-20)
(1.02465 -0.00291275 3.32965e-20)
(1.01993 -0.000896719 -7.8257e-22)
(1.04275 -0.00531824 -3.60815e-20)
(1.05216 0.0662924 -1.43259e-19)
(1.04877 -0.0532991 9.16205e-20)
(1.02051 -0.000715624 9.78107e-22)
(1.04418 -0.00544168 -7.82882e-21)
(1.03387 0.0363367 7.79392e-20)
(1.02579 -0.000332175 -1.17429e-20)
(1.08638 -0.062335 6.72617e-21)
(1.0377 0.0234661 -2.0666e-20)
(1.01642 -0.0296939 -5.51762e-20)
(0.926086 -0.00118466 1.30745e-20)
(0.722167 -0.00637876 6.08266e-20)
(1.00818 0.0607082 -9.33848e-20)
(1.04161 -0.0744006 6.6473e-20)
(1.0323 -0.00334877 1.00784e-20)
(0.79911 -0.00816983 -2.38977e-20)
(1.02619 -0.00209062 -4.65595e-20)
(1.02066 -0.00685921 -2.46746e-20)
(1.02847 -0.00507993 -2.89418e-20)
(0.831603 0.00395078 7.64774e-20)
(1.01973 -0.00847719 -1.62044e-21)
(1.20248 -0.0137177 7.82666e-21)
(1.08331 0.0110011 1.47414e-20)
(1.02605 -0.00329228 -3.42742e-21)
(1.02594 -0.00189482 4.86355e-20)
(0.971329 -0.00419342 -1.5662e-20)
(1.0494 0.0611285 5.70202e-20)
(1.0257 0.110246 1.57577e-19)
(0.820352 0.00728087 2.19502e-21)
(1.0326 -0.00176613 5.5284e-21)
(0.61374 0.00478014 6.52195e-20)
(0.746767 -0.00434994 5.37762e-20)
(1.02003 -0.0424115 6.91758e-20)
(1.00382 -0.0188531 -1.64056e-20)
(0.851134 -0.00112387 9.64973e-22)
(0.673721 0.00542797 6.81261e-20)
(1.03738 -0.0296019 4.52378e-21)
(1.01516 0.0238138 -4.14169e-20)
(1.01424 -0.0136494 4.12154e-20)
(0.649296 0.00384491 -1.15414e-20)
(1.01066 0.0776496 -4.66171e-20)
(1.03657 0.00335818 4.94951e-20)
(1.15867 -0.00646123 1.16762e-20)
(1.02646 -0.001858 7.30211e-20)
(1.1398 0.0669771 9.33195e-21)
(1.04689 0.0132663 -7.92217e-20)
(1.04159 0.0861423 -1.0758e-19)
(0.999788 -0.0209687 -4.41393e-20)
(0.952912 -0.00593957 -1.11451e-20)
(1.03858 0.0710153 1.56254e-19)
(1.02413 -0.00416651 9.75844e-21)
(1.02835 -0.0047135 -4.397e-20)
(1.01603 0.0437983 5.15972e-20)
(1.02123 -0.00239256 -1.18503e-20)
(1.02594 -0.0036737 8.81884e-20)
(0.990232 0.000391565 1.42113e-20)
(1.00702 0.0528626 -1.55567e-20)
(1.00407 0.0431094 5.59322e-20)
(1.03064 0.0666736 4.85972e-20)
(1.02568 -0.00396677 3.81503e-20)
(0.767428 -0.000357169 1.79796e-20)
(1.02233 0.00121991 -2.27197e-21)
(0.473306 -0.00366948 9.70246e-20)
(1.02611 -0.000708326 1.56974e-20)
(1.0682 -0.0193885 -1.40223e-19)
(1.03232 -0.00212091 3.60256e-20)
(0.743529 -0.00239073 -2.28137e-20)
(1.16229 0.0149744 3.16072e-20)
(1.10033 0.0701595 3.17839e-21)
(1.02289 -0.00242621 -9.09145e-21)
(1.02627 -0.00205516 4.48639e-20)
(1.05213 0.071161 -2.05385e-20)
(1.00664 -0.00059632 4.10982e-21)
(0.764636 -0.0119254 -5.00453e-21)
(1.03918 0.0874202 -1.00722e-19)
(1.06897 -0.0247799 6.07467e-20)
(1.03753 -0.0443829 5.83845e-20)
(1.01781 -0.0286692 7.91962e-20)
(0.97336 -0.00386002 -3.96232e-20)
(1.03525 -0.0307455 -1.11645e-20)
(0.566139 -0.00401046 -3.46717e-20)
(1.02045 -0.00282005 3.72781e-21)
(1.0098 -0.0353007 2.2136e-20)
(1.10193 0.075786 -5.89076e-20)
(1.02368 -0.00153045 -1.14296e-20)
(1.02465 -0.000465253 -1.11092e-20)
(1.07954 0.0722406 4.62432e-21)
(1.02275 0.00141952 -7.29467e-20)
(1.02029 -0.00805599 -3.6788e-20)
(1.03298 -0.0290402 -3.99963e-20)
(1.02284 -0.000948057 -9.55798e-22)
(1.02651 -0.00170489 -3.794e-20)
(1.04643 0.0617034 6.45786e-20)
(1.09189 0.0795884 -6.65411e-20)
(1.03892 0.0847208 -1.4115e-20)
(1.08256 -0.0572217 -3.79282e-20)
(1.05163 -0.0502262 -1.8848e-20)
(1.12739 -0.0852938 9.75245e-21)
(1.03696 -0.00131876 1.12075e-19)
(1.04292 0.0600454 -2.38771e-20)
(0.72503 -0.0181065 2.10575e-20)
(1.02427 -0.00064173 6.43566e-21)
(0.525019 0.0481141 -7.3287e-20)
(1.02341 -0.00847107 1.91012e-20)
(1.02598 -0.00359074 3.04552e-20)
(1.01148 -0.0347416 -5.12566e-20)
(1.02033 -0.00724531 2.73671e-20)
(1.04393 0.0822219 -1.29078e-19)
(1.04173 0.0822681 -2.8743e-20)
(1.01803 -0.0434898 -1.78476e-20)
(0.855079 0.0274294 -5.16196e-20)
(1.02802 0.000441586 5.53112e-20)
(0.952859 -0.00207138 -2.88271e-20)
(0.868608 -0.0107473 -3.34013e-20)
(1.04465 0.00722878 -2.21786e-20)
(1.04041 -0.0971231 4.46453e-21)
(1.09037 0.108958 -9.25585e-20)
(1.03987 0.0684611 -1.36413e-19)
(1.02362 -0.00150535 1.615e-20)
(1.03168 -0.00346952 1.32938e-20)
(1.03525 0.0260673 1.08034e-19)
(1.02565 -0.00415994 6.69219e-20)
(1.04045 0.0240234 -1.42483e-20)
(1.02626 -0.0017342 1.5881e-20)
(1.00037 0.0595698 9.50624e-20)
(1.04107 0.0844003 2.21735e-20)
(1.02117 -0.00235199 -4.56901e-20)
(1.0295 -0.00516186 -2.63755e-21)
(0.977983 -0.00369466 8.52443e-20)
(1.11726 0.0934156 3.16144e-20)
(0.754416 0.0110075 -1.60158e-20)
(1.02474 -0.00648677 -1.87147e-20)
(0.952361 -0.0190993 -3.83755e-20)
(1.02339 -0.00255633 3.60697e-21)
(1.02546 -0.00282568 1.92172e-20)
(1.02624 -0.00182021 -1.76192e-20)
(1.07297 0.0497751 7.26558e-20)
(1.02213 -0.00230556 -1.5545e-20)
(0.703761 0.00487845 -1.12288e-22)
(0.998256 -0.0302747 -1.18395e-19)
(0.464643 0.0160456 -2.78079e-20)
(1.08291 0.00702356 -2.17215e-20)
(1.00615 0.051807 7.59916e-20)
(0.937761 -0.00495426 1.17334e-20)
(1.03119 -0.0297345 -3.40784e-21)
(1.02502 -0.0027143 3.48901e-20)
(1.04069 0.0870165 -1.02618e-19)
(1.02827 0.0004841 -2.84495e-20)
(1.03386 0.118191 5.01241e-20)
(1.02917 -0.00640797 -7.08123e-20)
(1.02733 -0.00135105 4.83014e-20)
(1.04891 -0.0193177 -5.43839e-20)
(1.03638 -0.000180335 -1.04488e-19)
(1.02601 -0.000621672 2.42554e-20)
(0.983107 -0.00618671 -1.45998e-21)
(1.02606 -0.000901068 6.12498e-20)
(1.02576 -0.00435957 5.65199e-20)
(1.04327 -0.0460818 -7.27103e-20)
(0.997615 -0.00796653 -7.7487e-21)
(1.00084 -0.0199345 -3.23205e-20)
(1.01244 -0.000230791 3.01864e-21)
(1.01857 -0.00326917 -1.65266e-20)
(1.02621 -0.0034374 -9.15557e-21)
(1.03888 0.101913 1.19069e-19)
(0.65071 -0.00310153 -1.34826e-20)
(0.815927 0.000651209 8.36466e-21)
(0.348672 0.0275837 1.17999e-19)
(1.02533 -0.00313593 3.64718e-20)
(1.06977 0.0876288 -4.98195e-20)
(1.02491 -0.00276325 -5.08578e-20)
(1.03247 -0.0137984 5.21699e-20)
(1.02371 0.000796221 -7.11096e-22)
(1.01606 -0.0234212 3.39864e-20)
(1.04463 0.00689233 3.20174e-20)
(1.16326 0.0231357 -7.30647e-20)
(1.01288 -0.0120983 -6.5736e-20)
(1.02563 -0.00224133 -5.59954e-20)
(1.01437 -0.0570852 -2.55662e-20)
(0.173221 0.000573167 -3.63304e-20)
(0.723429 0.0130999 -2.84535e-21)
(1.02608 -0.000812255 -5.43469e-20)
(1.02618 -0.0028697 -4.23252e-20)
(0.913004 -0.0102192 4.32205e-20)
(1.0296 -0.000849713 -4.69188e-20)
(1.02598 -0.00200345 -2.43304e-20)
(0.994158 -0.00348732 -9.25344e-21)
(1.04676 -0.044155 4.88641e-20)
(0.971204 -0.00160848 -4.01673e-20)
(1.13812 -0.0121949 4.93546e-21)
(0.900607 -0.00297572 4.25703e-20)
(1.04686 0.091215 1.16201e-20)
(1.04524 0.0923122 -8.73369e-20)
(1.02622 -0.00133122 3.84876e-20)
(1.18217 0.0231905 9.24908e-20)
(1.01659 -0.00324283 1.45608e-21)
(1.02641 -0.00343263 4.50322e-20)
(0.430819 0.00474959 -9.74832e-20)
(1.01145 0.0355129 4.41943e-20)
(1.04959 0.0180754 -6.59485e-20)
(1.02379 -0.00178999 2.20508e-20)
(1.02641 -0.00281664 6.55823e-21)
(0.94315 -0.00295097 -3.21375e-20)
(1.06014 0.0455748 -2.93518e-20)
(1.02624 -0.00211074 -2.63811e-20)
(1.02736 -0.00121947 2.15685e-20)
(1.02698 -0.000539495 -5.04483e-21)
(1.12141 0.0339552 7.59045e-20)
(1.20249 -0.0249022 4.81246e-20)
(1.05544 0.101454 5.77903e-20)
(0.883332 0.0019057 3.59497e-20)
(1.07629 -0.0226948 -1.18895e-19)
(1.023 -0.00221258 1.59461e-20)
(1.03002 -0.0048215 -7.4121e-20)
(1.01309 -0.00363926 3.43692e-21)
(1.01828 -0.0133295 -1.13169e-20)
(0.98452 -0.00390155 1.46084e-20)
(1.0356 -0.0128697 7.29779e-21)
(1.20225 0.027122 -7.83291e-20)
(1.00935 -0.0183014 -6.41647e-20)
(1.03333 -0.0130616 -1.52266e-20)
(1.03105 -0.00289492 -2.19013e-20)
(0.924488 -0.00884826 -3.86906e-20)
(1.04488 -0.0088782 2.3949e-20)
(1.02582 -0.0116917 -3.3313e-20)
(1.08305 0.0211291 -3.28939e-20)
(1.06881 0.0483461 3.52417e-20)
(1.17241 -0.09299 -6.98075e-22)
(1.1424 -0.0268871 4.31924e-20)
(0.308423 -0.00212557 3.88115e-20)
(1.02997 -0.00201965 5.18947e-20)
(0.955086 -0.0180217 1.5702e-20)
(1.02018 0.0618848 -1.52245e-19)
(1.1258 -0.0286586 -7.59547e-20)
(1.04297 -0.00300561 -7.09028e-20)
(0.926817 0.0371978 -7.21596e-20)
(0.793403 -0.0119587 -1.76287e-20)
(1.02592 -0.00145495 1.05222e-20)
(1.15637 -0.0153597 4.28644e-20)
(1.02638 -0.00236451 2.15558e-20)
(1.03751 -0.0272005 -1.54961e-20)
(1.03036 -0.00218519 1.65499e-20)
(0.847986 -0.00162948 1.71597e-20)
(0.888418 -0.00168352 3.55369e-20)
(1.04058 0.0326046 5.9301e-20)
(1.02395 -0.00184939 6.82995e-21)
(1.02605 -0.000261808 -2.13571e-20)
(1.02369 -0.000418134 1.91603e-20)
(0.927968 0.00330428 -7.8884e-20)
(1.02427 -0.00607639 -5.05424e-20)
(0.995316 -0.0115853 -1.36436e-21)
(0.99675 0.000300277 -5.24522e-21)
(1.0136 -0.0103198 -2.38347e-20)
(0.748209 0.0194318 4.15915e-20)
(1.03473 -0.01379 -3.27824e-20)
(1.02362 -0.00795744 -7.06704e-20)
(1.04859 0.0780786 1.99641e-20)
(1.00454 0.050009 8.98883e-20)
(1.07452 0.0111639 -3.1516e-20)
(1.17432 0.0275117 -3.52018e-20)
(0.352542 0.00618683 -5.28747e-20)
(1.02997 -0.00234975 -2.71281e-20)
(1.01629 0.0593423 -4.4742e-21)
(0.886296 -0.00323939 6.27841e-20)
(1.05826 0.0875127 2.40958e-21)
(1.03505 -0.0332579 -1.92558e-21)
(1.05956 -0.085159 2.1493e-20)
(1.08858 0.0770996 4.10057e-20)
(1.05973 0.0905039 -5.65985e-20)
(1.00127 -0.0168528 -7.62761e-20)
(1.05103 0.016212 -4.65678e-20)
(1.09323 0.112643 8.69459e-20)
(1.06607 0.08792 8.86891e-20)
(1.03824 0.00116504 3.60851e-20)
(1.02448 -0.00166564 -1.8842e-20)
(1.02481 -0.00306334 -1.29138e-20)
(1.01535 -0.00166439 7.84657e-21)
(1.0394 -0.0168081 2.25804e-20)
(0.803138 0.00236621 -1.43161e-20)
(1.02638 -0.00247298 -2.75425e-20)
(0.979124 -0.00829118 1.37511e-20)
(1.02608 -0.000926157 -1.45686e-20)
(1.01225 -0.0560674 4.22248e-20)
(1.10752 0.0424931 2.80246e-20)
(0.999281 -0.00340824 5.99109e-20)
(1.02646 -0.00769159 -8.05313e-20)
(0.929963 0.00276908 3.99414e-20)
(1.07435 -0.0251195 4.21158e-21)
(0.941687 -0.00743129 7.63101e-20)
(1.02826 -0.0044407 5.26229e-20)
(1.10305 0.110024 1.37386e-20)
(0.916596 0.0022709 8.76675e-20)
(1.02281 -0.00218332 1.31854e-20)
(1.02437 -0.0018539 4.75191e-21)
(1.02364 -0.0017152 3.05053e-20)
(0.995639 -0.00363529 -2.27699e-20)
(1.03864 0.0300779 -7.45858e-20)
(0.814782 -0.00577395 -1.05845e-21)
(1.04053 -0.00350835 4.84599e-20)
(1.04728 -0.101774 -3.18719e-20)
(1.03946 0.086008 -2.30855e-21)
(1.02954 -0.00509839 2.81285e-20)
(1.03171 -0.0029715 -4.88371e-21)
(1.02431 -0.00291267 3.73405e-20)
(1.03187 0.101851 -1.17451e-19)
(0.810927 -0.00358808 -1.93144e-20)
(1.05712 0.103863 -2.99987e-20)
(1.01216 0.0248363 -7.61931e-20)
(0.996263 -0.00327416 -1.55078e-20)
(1.03345 -0.0340546 4.38161e-20)
(0.977802 -0.00128161 3.84347e-20)
(1.02274 -0.0431287 -8.69207e-20)
(1.02566 0.00033582 2.05221e-20)
(1.07024 0.0133613 4.26344e-20)
(1.03193 -0.00980961 -1.57578e-21)
(1.03122 -0.002155 8.14431e-21)
(0.953028 -0.00733394 4.90422e-20)
(1.07719 0.0475098 3.80233e-20)
(1.05602 0.0446009 1.10436e-20)
(1.03604 -0.0464418 -4.93577e-20)
(1.01411 -0.0125216 4.26814e-21)
(1.02638 -0.00304528 2.97778e-20)
(1.02909 -0.0265857 1.01139e-19)
(1.13644 0.0589463 -5.71783e-20)
(0.694736 0.0213082 -6.32243e-20)
(1.0976 -0.0512031 3.52425e-20)
(1.03055 -0.00504101 -1.54226e-20)
(1.02082 -0.00100748 7.69857e-22)
(1.01377 -0.00269636 5.86741e-20)
(0.897955 -0.00321034 -7.01842e-20)
(1.0444 -0.00895815 3.9619e-20)
(1.03375 -0.0796452 1.73312e-20)
(1.18191 0.0120447 -3.49833e-20)
(1.04063 0.0870898 -1.34957e-19)
(1.06352 0.0426192 5.2843e-20)
(1.12843 -0.0752427 -3.59213e-20)
(1.07959 0.0769172 1.57828e-20)
(1.01365 0.0802076 1.45941e-19)
(1.03854 -0.00189925 4.14174e-20)
(1.02663 -0.00155841 6.0707e-20)
(1.0413 0.0669105 3.22292e-20)
(1.02637 -0.00228794 -4.58691e-20)
(1.02418 -0.00298519 -1.36199e-20)
(0.600082 -0.00147304 -1.55373e-20)
(1.02558 -0.00146917 4.64578e-21)
(1.13598 -0.092058 -1.28687e-20)
(1.03022 -0.0110107 3.72041e-20)
(1.01749 -0.0231274 -6.15901e-20)
(1.02701 -0.00106223 1.9457e-20)
(1.07539 0.0700609 8.72746e-20)
(0.924507 -0.000947473 7.28404e-21)
(1.02272 -0.00236719 9.2282e-23)
(1.05376 -0.0893809 -2.22216e-20)
(1.02698 -0.000360838 -1.20176e-20)
(1.10847 0.0093695 -8.25902e-21)
(0.914869 -0.0115313 -1.28905e-20)
(0.784012 -0.00433127 -3.89536e-21)
(1.18247 0.0643882 -6.60244e-21)
(1.03249 0.0248648 -2.76269e-20)
(1.02934 0.00819281 1.90279e-20)
(1.02754 0.0074633 -8.95926e-21)
(0.962466 -0.0117981 -4.41206e-21)
(1.11399 0.0421961 2.21594e-20)
(1.08329 0.0245471 3.97288e-20)
(1.02679 -0.0026782 -1.81978e-20)
(1.00958 -0.00319856 -6.92587e-20)
(1.02654 -0.000365883 -2.27485e-20)
(1.03547 -0.0116597 -8.60072e-20)
(1.03443 -0.0180915 1.60127e-20)
(1.03036 -0.0012539 -5.12189e-22)
(1.02615 -0.00215275 5.75e-20)
(1.11695 0.0872582 -9.36372e-20)
(1.02191 -0.00303011 1.5953e-20)
(1.02554 9.16905e-05 -1.33756e-20)
(1.02902 -0.00106481 -2.86492e-22)
(0.704414 -0.00339663 -3.7256e-20)
(1.03851 -0.00508433 4.83974e-20)
(1.0169 -0.0191333 9.14322e-20)
(0.777942 0.000723688 1.85751e-20)
(1.04023 -0.0437132 -3.27624e-20)
(1.0639 -0.109916 3.5071e-20)
(1.04743 -0.0174825 2.90394e-20)
(1.04503 0.0659878 -1.85638e-19)
(1.19341 0.0315352 4.70304e-20)
(1.02232 -0.00363901 4.64899e-21)
(0.988533 0.0546841 1.09809e-19)
(1.0112 -0.039562 -8.22055e-20)
(1.02413 -0.00662465 -1.51144e-20)
(0.716862 0.00504285 -3.21553e-20)
(1.02627 -0.0114438 6.94214e-21)
(0.604693 0.00578183 -6.0352e-20)
(1.0185 -0.00255296 2.13964e-20)
(1.04365 -0.00497349 -5.38526e-20)
(1.1331 -0.0313822 1.65234e-20)
(1.02279 -0.00225104 1.27275e-21)
(1.04128 -0.00494958 -3.86102e-21)
(1.01352 0.000719351 8.20971e-21)
(1.04358 0.0864303 2.90372e-20)
(1.13576 0.0781959 8.69442e-20)
(1.02392 -0.00260738 -1.28775e-20)
(0.673652 -0.000234171 7.22752e-20)
(1.00655 -0.00165851 2.79404e-20)
(1.01649 0.0917906 9.27526e-20)
(1.05308 0.0901251 7.18481e-20)
(1.11634 0.0353602 -4.13609e-20)
(1.11929 0.107942 -7.40241e-20)
(1.01115 -0.0421675 3.51529e-20)
(1.01495 0.0710578 -1.38804e-19)
(1.02391 -0.00178926 -1.42522e-20)
(1.06286 -0.012011 9.41298e-20)
(0.466524 0.0110834 1.91027e-21)
(1.09451 0.0681224 -2.21702e-20)
(1.02617 0.0611845 -9.57596e-20)
(1.14004 0.053451 8.71273e-20)
(1.05832 0.0371582 8.60905e-21)
(1.02692 -0.00766009 2.43207e-20)
(1.02244 -0.00396639 2.40519e-20)
(1.12269 0.0965235 3.28916e-20)
(1.19067 -0.00742994 -1.46554e-20)
(1.03017 0.0975669 -3.55384e-21)
(1.10238 0.00786189 1.02269e-19)
(1.04351 0.0560486 5.79974e-20)
(1.01645 -0.00455624 1.39335e-20)
(1.039 0.0872988 3.70875e-20)
(1.05493 0.0873868 2.71401e-20)
(1.01899 -0.00121109 6.50776e-20)
(1.02328 -0.00353876 2.89612e-20)
(1.13229 0.0897358 2.38593e-21)
(0.728704 0.00371941 6.45819e-20)
(1.0239 -0.00188294 1.88477e-20)
(1.01864 -0.00302547 -7.65992e-20)
(0.894534 -0.0146737 -4.88635e-20)
(1.02071 -0.0548684 8.87114e-21)
(1.03203 -0.00176953 -7.55605e-20)
(1.03091 -0.00241443 6.77049e-21)
(1.02543 -0.00249112 2.42162e-20)
(1.05413 0.0928662 -1.06625e-19)
(1.02791 -0.00751186 -6.23513e-21)
(1.02295 -0.00203818 -7.3575e-21)
(1.04628 -0.0399104 -5.84411e-20)
(1.0259 -0.00324063 -1.43605e-20)
(1.01756 -0.0048926 -2.34456e-21)
(1.02993 -0.00722328 -1.6625e-20)
(1.06745 0.070557 1.11935e-19)
(1.04657 -0.0785255 -3.33328e-20)
(1.04748 0.0725894 5.89023e-20)
(1.02396 -0.00100908 -1.49911e-20)
(1.0712 0.0727695 -1.18613e-19)
(1.04 -0.0337614 -4.56202e-20)
(1.02445 -0.002247 4.9523e-21)
(1.02326 0.000180703 -7.54164e-21)
(1.00424 0.0155238 -1.30213e-20)
(1.06323 0.0637884 4.25428e-20)
(1.02486 -0.00300656 -1.38285e-20)
(1.05815 0.0532318 -6.05254e-20)
(1.02294 -0.000182476 5.5833e-21)
(1.05917 0.0576699 -8.16381e-20)
(1.15923 -0.0955171 -3.5237e-20)
(1.00916 -0.00117243 -7.04623e-20)
(1.00365 0.0506729 -1.85454e-19)
(1.01175 -0.0325072 -6.21066e-20)
(1.12311 0.10376 7.59364e-20)
(0.740185 -0.00300182 -1.89918e-20)
(1.06296 0.0593826 1.0472e-19)
(1.06719 0.0656812 -3.07168e-20)
(1.01721 -0.00410584 -1.04194e-19)
(1.0117 -0.00462518 6.1863e-20)
(1.02487 -0.00629574 -5.80695e-20)
(1.00202 -0.000745256 1.57102e-20)
(1.02441 -0.00283263 -3.07375e-20)
(1.0278 -0.00743489 1.0272e-20)
(1.06018 0.0840796 -1.38539e-20)
(1.02269 -0.00236231 -3.5387e-21)
(1.05385 0.0519376 7.95574e-20)
(1.05844 -0.0779802 -5.73435e-20)
(1.03027 0.0779411 3.64273e-20)
(1.05299 0.0478988 -9.30624e-20)
(0.857556 -0.0120776 6.60713e-21)
(1.04248 0.07798 -1.26871e-19)
(1.02619 -0.00175502 1.8951e-23)
(1.03901 -0.0152827 3.3771e-20)
(1.07238 -0.0522962 -2.09195e-20)
(0.611108 0.00138585 3.6127e-21)
(1.02445 -0.00353565 -4.32127e-20)
(1.03799 -0.0349944 3.62659e-20)
(1.06692 -0.00438505 -8.31332e-21)
(0.949624 0.0424589 1.40507e-19)
(1.02231 -0.000925085 2.08079e-20)
(1.02595 -0.00168414 -2.41059e-20)
(1.0452 -0.0529488 1.48072e-22)
(1.02401 -0.000865394 1.21741e-21)
(1.04398 0.0883586 1.40503e-20)
(1.02697 -6.47583e-05 0)
(1.02289 0.000733043 1.0603e-21)
(1.0238 -0.000197001 3.30121e-20)
(1.02691 4.01538e-05 3.99917e-22)
(1.01849 -0.0124911 -7.71558e-20)
(1.04142 -0.00802279 -2.73042e-20)
(1.02632 -0.00182914 -4.73957e-20)
(0.963786 0.0107915 -1.63798e-20)
(1.02412 -0.0035532 -2.26256e-20)
(1.02957 -0.00733728 -1.82968e-20)
(1.02441 -0.0853059 4.32277e-20)
(0.474479 -0.000255587 -5.31987e-21)
(1.03794 -0.00453354 7.47446e-20)
(0.824259 -0.00801571 -9.59023e-21)
(1.11851 -0.115425 -4.428e-20)
(0.99681 -0.00447623 3.21509e-20)
(1.12264 0.0821116 -6.57726e-21)
(1.0015 0.0244557 -2.98537e-20)
(1.02647 -0.00221173 1.7656e-20)
(1.11389 0.0730198 -9.72654e-20)
(1.02365 -0.000562898 -6.38849e-22)
(1.01207 -0.00354147 -6.45859e-22)
(1.03487 0.0024523 -5.32216e-20)
(1.02452 -0.003601 1.7463e-20)
(1.06928 0.0795466 -7.01023e-21)
(1.02114 -0.00377518 5.93302e-20)
(1.06337 -0.00988071 -7.29721e-20)
(1.0352 0.0040208 -5.37937e-20)
(1.06798 0.0442066 -2.05908e-20)
(1.03203 -0.00901472 -4.76552e-20)
(1.02137 -0.00246916 -1.72077e-21)
(1.08429 0.0694551 5.92999e-20)
(1.0154 -0.060709 4.45502e-20)
(1.04081 0.0881508 1.1375e-19)
(1.02334 -0.00317448 8.00483e-20)
(1.07104 0.095301 3.71477e-22)
(1.02334 -0.00259475 -2.13606e-20)
(1.02737 -0.00111448 4.13751e-21)
(1.05763 0.0344067 2.53369e-20)
(1.03841 -0.0181217 -2.51677e-20)
(1.04645 0.0106029 7.70317e-20)
(1.02558 -0.000738717 1.34006e-20)
(1.02333 0.00108936 4.91256e-22)
(1.03482 -0.0992544 -1.59246e-20)
(1.10255 0.105253 -8.57501e-20)
(1.02669 -0.0021619 -1.58185e-20)
(1.12077 0.0749966 1.08037e-20)
(1.02151 -0.00379984 4.2298e-20)
(1.11078 -0.121968 1.4921e-20)
(1.06305 -0.0230682 1.11247e-20)
(1.01664 -0.0204854 -4.94841e-20)
(1.02635 -0.00161882 1.89267e-20)
(0.74024 -0.00392466 1.69926e-20)
(1.01054 -0.0509164 3.05626e-20)
(0.971037 -0.00428142 -6.9564e-20)
(1.02206 -0.00216878 -5.38239e-20)
(1.02523 -0.00214999 -2.24261e-20)
(1.03923 0.08917 -1.23809e-20)
(1.11192 0.0665196 6.17391e-20)
(1.04175 -0.00370197 -1.74332e-20)
(1.02416 -0.00322762 -2.09044e-20)
(1.05342 0.0847451 -5.11402e-20)
(1.0226 -0.000969134 6.04004e-21)
(1.02387 -0.00306458 -4.33495e-20)
(1.10535 0.0650932 5.26518e-20)
(1.03487 -0.0151226 4.67522e-20)
(1.11047 0.0976571 7.87354e-20)
(1.03823 -0.000447458 3.03221e-20)
(1.03739 -0.00653153 -9.30697e-21)
(1.10453 -0.0393067 -3.1485e-20)
(1.078 -0.0988756 -4.27096e-20)
(1.18308 0.0576248 -3.16535e-20)
(1.02699 -0.000607676 -3.60473e-20)
(0.947753 -0.0116022 4.54384e-21)
(1.02311 -0.00163764 4.31633e-21)
(1.02993 -0.00727288 1.19535e-20)
(1.07161 0.0770302 4.03817e-20)
(1.01797 -0.00365238 -7.77003e-20)
(1.02503 -0.00160974 -2.42085e-20)
(1.03961 -0.0260097 4.98955e-20)
(1.02599 -0.00168638 -1.33419e-21)
(1.02626 -0.00193186 -3.21812e-20)
(0.365283 0.00718635 2.50758e-20)
(1.02291 -0.00335836 4.17028e-20)
(1.02576 -0.00288359 6.0408e-20)
(0.560738 -0.00356467 2.50509e-21)
(1.02328 0.00901313 8.02958e-20)
(1.0098 -0.0169957 9.36957e-21)
(1.02555 -0.00234633 -2.81875e-20)
(1.01925 0.00053972 -3.23978e-20)
(1.03012 0.027331 2.925e-20)
(1.07404 0.0203927 7.38012e-21)
(1.00026 -0.0151413 4.826e-20)
(1.02218 -0.000962056 6.80328e-21)
(1.00201 0.0177728 1.7959e-19)
(1.01918 -0.0108047 5.58237e-20)
(1.07509 0.0653509 -9.06704e-20)
(1.03366 -0.000879163 -8.1568e-20)
(1.03446 -0.000365148 1.65121e-19)
(0.989221 -0.00506591 -8.99493e-20)
(1.02317 -0.00174258 5.18842e-21)
(1.03452 0.00110133 -6.56471e-21)
(1.07836 0.0183851 -1.36968e-20)
(1.16395 0.0602736 6.60329e-20)
(1.06352 -0.0733994 -1.82445e-20)
(1.05802 0.081282 4.37838e-20)
(1.03172 -0.00130541 -1.97788e-21)
(1.08911 0.072249 -8.13642e-20)
(1.02722 -0.00923189 3.10562e-20)
(1.04299 -0.0383627 8.923e-20)
(1.02468 -0.00279517 2.34003e-20)
(1.03 -0.0116943 -7.54664e-20)
(1.02522 -0.00202855 -1.98444e-20)
(1.05439 0.0398059 -6.88844e-20)
(1.08203 0.101958 -1.33705e-19)
(1.0264 -0.00177006 -1.45561e-20)
(1.03835 -0.00592487 5.9989e-21)
(0.969203 -0.00170114 -2.57569e-20)
(1.06598 -0.0622916 -1.07474e-20)
(1.06172 -0.0671388 2.87274e-20)
(1.02575 -0.00179909 -2.55752e-20)
(1.06013 -0.0127075 -3.75256e-20)
(0.157039 -0.00484454 -4.20304e-20)
(1.16188 0.0448513 5.91062e-20)
(1.02415 -0.00177704 -3.60129e-20)
(1.07017 0.0177263 -2.93849e-20)
(1.0259 -0.00600318 4.44294e-20)
(0.603326 0.0174899 1.66227e-19)
(1.02091 -0.00355622 -5.72681e-20)
(1.02543 -0.0170318 2.02044e-20)
(1.04107 -0.0223633 -2.1037e-21)
(1.02469 -0.0175442 7.73239e-22)
(1.02689 -0.0132579 7.81146e-20)
(1.02417 -0.00343207 -1.40149e-20)
(1.02674 -0.00932773 -6.72519e-20)
(1.02827 -0.00415127 -1.59911e-20)
(1.06863 -0.00738127 1.67415e-20)
(1.02284 -0.00134575 -3.18667e-20)
(1.1915 -0.0613026 2.09473e-20)
(1.15176 0.0107456 2.498e-20)
(1.04874 0.0917905 8.32014e-20)
(1.00181 -0.0140241 -7.58152e-20)
(1.10459 0.0937599 -3.9438e-20)
(1.02678 -0.000449673 4.01893e-20)
(1.08531 -0.0502785 -1.47123e-21)
(1.03204 -0.0251117 4.52893e-20)
(1.02798 0.0457695 6.96755e-20)
(1.02447 -0.00359662 -3.95854e-20)
(1.02449 -0.00129198 2.37637e-20)
(1.01967 -0.0113042 -7.73944e-20)
(1.02522 -0.00631885 2.27116e-20)
(1.05728 -0.0113146 6.19981e-20)
(0.928294 -0.00155679 6.10711e-20)
(1.00668 -0.00420383 -2.0591e-20)
(1.12821 -0.0135046 1.96313e-20)
(0.906514 -4.46817e-05 4.8921e-20)
(1.03935 -0.0238131 -4.18611e-20)
(1.02207 -0.0584655 -3.69634e-20)
(1.02276 -0.00162756 1.06253e-21)
(1.06883 -0.000868248 7.19021e-20)
(1.0233 -0.0518267 1.12292e-19)
(1.10993 0.0840994 4.36833e-20)
(1.10532 -0.0453134 5.14683e-20)
(1.04521 0.00971953 7.91264e-21)
(1.05217 -0.0752818 7.68683e-20)
(1.05877 0.0966807 2.48288e-20)
(1.05352 -0.0205304 5.63779e-20)
(0.971673 -0.00435337 5.34636e-20)
(1.03988 -0.0310759 6.46651e-20)
(0.343173 0.0250708 4.59154e-20)
(1.15934 -0.066649 -2.04452e-20)
(1.01892 -0.00352699 1.77371e-20)
(1.05437 -0.0973353 4.51203e-21)
(1.0503 -0.0456823 -5.42858e-20)
(1.06694 -0.0880024 2.836e-21)
(1.06361 -0.0568174 4.37085e-20)
(1.08382 0.0644982 7.77509e-20)
(1.02514 -0.00185258 -1.20663e-21)
(1.01371 0.0567902 2.44129e-20)
(1.03152 -0.000917067 1.79504e-20)
(1.02566 -0.00215062 3.49707e-20)
(1.02653 -0.00209508 -1.02582e-19)
(1.06698 0.011746 -1.49795e-20)
(0.0929652 0.00613966 9.86823e-22)
(1.02817 -0.00427315 2.30089e-20)
(1.04282 -0.0351996 -1.16727e-20)
(1.03034 0.0307737 -4.77177e-20)
(1.02293 -0.00088023 -1.07955e-21)
(1.01272 -0.00450674 -5.27464e-20)
(1.0398 -0.00391904 4.81963e-20)
(1.08547 -0.0213227 7.15695e-20)
(1.0314 -0.000723443 9.39398e-20)
(1.02653 -0.00259662 -1.42685e-20)
(1.01752 -0.0265702 2.28682e-22)
(1.02635 -0.00579757 2.29913e-20)
(1.02235 0.000858041 1.25857e-20)
(1.01332 -0.0318284 1.0623e-19)
(1.06304 0.0766724 -1.7462e-20)
(1.04175 -0.0188968 -8.30479e-21)
(0.997321 -0.00048506 4.75581e-20)
(1.02775 8.68836e-05 -1.51889e-20)
(1.03379 0.0329205 6.34477e-20)
(1.02614 -0.00246279 1.36638e-20)
(1.02693 -0.00189425 3.05234e-21)
(1.0252 -0.00287506 2.34306e-20)
(1.02643 -0.00215204 4.13495e-20)
(1.15327 0.0602912 4.55546e-20)
(1.04839 -0.0214229 1.35116e-19)
(1.03269 -0.0113283 3.29172e-20)
(1.01503 -0.00387431 2.12514e-20)
(1.0237 -0.000684772 1.25017e-20)
(1.09415 -0.0928745 -6.02917e-20)
(1.19112 0.00612879 1.22517e-21)
(1.09986 -0.10105 2.73785e-20)
(1.02651 -0.0219908 3.0909e-20)
(1.03461 -0.00503994 7.45151e-20)
(1.02352 -0.00395967 -1.54304e-20)
(1.02127 -0.00709462 3.4825e-20)
(0.999824 -0.0322182 4.78708e-20)
(1.15288 0.0458711 1.08577e-22)
(1.02739 0.079666 -1.75826e-21)
(1.02623 -0.00290465 -2.39046e-20)
(0.985424 -0.0223105 -2.43081e-20)
(1.02484 -0.00307956 5.43397e-20)
(1.05157 -0.0187094 -2.21567e-20)
(1.09324 0.0624093 9.13554e-21)
(1.02671 -0.000783237 -4.14786e-20)
(1.02485 -0.00294742 9.58253e-21)
(1.13009 0.0946302 1.0421e-20)
(1.14981 0.0303432 -1.37971e-20)
(1.039 -0.00873714 2.49843e-20)
(1.02502 -0.00207263 -4.01529e-20)
(0.983399 -0.00517871 5.407e-21)
(1.00477 -0.0330634 -1.20628e-20)
(1.02486 -0.0025292 2.86333e-20)
(1.04046 -0.0203969 7.76268e-20)
(0.659407 -0.00372451 -1.10579e-19)
(1.00133 0.0247373 -2.41624e-20)
(1.06597 0.0796614 -8.47598e-21)
(1.0807 -0.045848 -3.12882e-20)
(1.02648 -0.0521546 -3.96316e-20)
(1.02944 -0.00178225 5.83487e-20)
(1.03729 -0.0147411 -6.8919e-20)
(1.14389 0.0160854 6.83692e-20)
(1.02621 -0.0588069 2.24735e-20)
(1.04202 -0.0295776 -3.9441e-20)
(1.02201 -0.000695968 -1.35157e-21)
(1.1338 0.00300569 5.88863e-20)
(0.599754 -0.00679832 -5.91729e-21)
(1.02544 -0.0662601 -4.0841e-20)
(1.04114 -0.0172295 -1.0731e-19)
(0.951872 -0.00939026 9.08122e-21)
(1.02496 -0.00267024 1.13975e-20)
(1.02467 -0.00142438 1.89832e-20)
(1.0491 0.0466667 7.11471e-20)
(0.99086 -0.00502869 2.12179e-20)
(1.02632 -0.000190093 -2.46669e-21)
(0.952414 -0.00274514 4.35664e-20)
(1.15557 -0.0541966 7.56036e-20)
(1.02136 -0.00196039 -4.62448e-20)
(1.04505 -0.0334717 1.58989e-20)
(1.0239 -0.00169796 1.77634e-21)
(1.03103 -0.00847305 4.92629e-21)
(1.02444 -0.0811583 -2.0044e-20)
(1.07488 -0.0468764 2.35155e-20)
(1.02392 -0.00154679 1.4616e-20)
(1.02266 0.000612876 -7.53863e-21)
(1.02881 0.00236752 2.28182e-21)
(1.03724 -0.0503033 -8.52786e-21)
(1.00306 0.034706 -2.00478e-21)
(1.07231 0.0912016 1.0156e-21)
(1.12334 -0.00670709 -2.55171e-20)
(1.02645 -0.00221865 -3.12687e-21)