/*--------------------------------*- C++ -*----------------------------------*\
  =========                 |
  \\      /  F ield         | OpenFOAM: The Open Source CFD Toolbox
   \\    /   O peration     | Website:  https://openfoam.org
    \\  /    A nd           | Version:  7
     \\/     M anipulation  |
\*---------------------------------------------------------------------------*/
FoamFile
{
    version     2.0;
    format      ascii;
    class       volScalarField;
    location    "11";
    object      p;
}
// * * * * * * * * * * * * * * * * * * * * * * * * * * * * * * * * * * * * * //

dimensions      [0 2 -2 0 0 0 0];

internalField   nonuniform List<scalar> 
115546
(
0.0061074
-2.12217e-05
-0.0272565
-0.00678716
0.00362963
-0.00169353
0.50248
-0.0409761
-0.000526914
-2.23815e-05
-0.000545538
0.000482497
-0.00281685
-0.111673
-0.000527036
-0.104554
-0.00015963
-0.000728423
0.577415
0.00375152
-0.040108
-0.0104648
-0.000830295
-0.0106205
0.74426
0.164968
0.0330147
0.0454263
-1.47443e-05
0.575132
-0.000287721
0.168874
0.0129778
-0.0268032
0.754947
-0.00366153
0.504152
-0.000155437
-0.158761
0.355815
0.170374
-0.000736415
-0.0362126
-0.00366166
-0.0791071
-0.111475
0.00861169
0.0125522
-0.000316803
0.000457238
3.52356e-06
-0.00658382
0.183022
-1.14752e-05
-0.00460546
0.184975
0.149474
-0.0747203
0.098837
-0.0226811
-8.13637e-05
-0.0108881
-0.00159572
-0.0344014
-0.000129211
0.002294
-0.00231042
0.117015
0.0485868
0.138053
0.402967
0.18909
0.35169
-0.070609
-0.0212689
-0.0508276
0.0572903
-0.00131804
0.544166
0.110032
0.112591
-0.000121891
-0.124533
0.0442198
-0.00653246
0.000466895
-0.0361427
-1.59892e-05
-0.0543649
2.39098e-08
-0.0687682
-0.0214553
-1.78086e-05
-0.00276134
-0.000896504
0.000912249
-0.000818676
-0.123871
-0.0529538
-0.0541367
-8.52572e-05
0.0561422
0.00234162
0.0058237
0.402439
-0.0615175
0.380361
-0.0816207
-0.0228202
3.21528e-06
0.115271
-0.000809421
0.0605925
-0.0147205
0.917141
-0.00330077
-0.000551253
0.376408
9.72579e-05
0.185147
0.380633
-0.106435
-0.0267294
0.0958554
-3.86898e-06
0.572148
-0.0107916
0.774838
-0.00347274
0.0873832
0.00417431
0.000663071
0.353815
0.000466021
9.80315e-05
0.58704
0.719641
0.0127229
-0.00437439
-0.0107517
0.396834
-0.00229651
0.000198201
0.1921
0.00671556
4.34887e-06
0.0195072
-0.0109723
0.118391
0.00195152
-0.0615511
-0.0805467
-0.0213042
-3.9207e-06
-0.00647897
0.0164372
6.09918e-06
0.0669409
-0.0478293
-0.0918362
-0.0502315
0.0193195
-0.00156609
-0.0463113
-0.0170993
-0.00175412
0.0643067
-0.0343498
0.0663971
-0.0187366
-0.0213112
0.00893777
-0.109194
-0.110367
-0.039892
0.109597
-0.110202
-0.00420556
0.012083
-0.000355852
0.0293833
-0.0202797
0.598682
0.194511
0.381155
-0.0005895
-0.00752134
0.22951
0.0432078
-0.0679622
-0.00409477
-0.00190184
0.609134
-0.0452169
0.167033
-0.0888893
-0.110696
-0.0194604
-0.0487287
-0.0149524
0.206739
0.498136
0.0349712
-1.48535e-05
-0.00726003
-0.0591041
-0.00124489
-0.000123721
0.0844002
-0.0357096
-0.110229
0.376154
0.740356
2.08825e-06
-0.0151228
-0.0457439
0.0740191
0.00998253
-0.112069
-0.000239481
-0.0541823
-0.0402647
-0.00124525
-0.0491995
-1.22876e-05
0.668865
0.00285859
-0.0505081
-0.0873153
0.676088
0.0519099
-0.066361
0.407015
-0.0412365
0.00293652
0.208175
0.00104332
8.01727e-05
-0.0396279
-0.00670175
-0.0494317
-0.000314885
-0.0923436
-0.0573447
-0.0036009
0.00188573
0.144033
-0.0521366
-0.0337386
-0.0997936
0.622275
-0.002502
0.179081
0.000194342
0.780987
0.0302057
0.0427643
0.046715
0.000742631
-0.0431381
0.0307372
-0.111439
0.196243
-0.163163
-0.0236199
-0.00662613
0.097552
-0.00343382
0.0816817
0.0344239
-0.000135463
0.04461
-0.000114318
-4.46671e-05
-0.00238711
-0.0377334
-0.0743565
-0.0389883
-0.00573828
-0.0812608
-0.0465167
-0.00354715
0.000257223
-0.0581399
0.00023221
0.0240135
0.662591
0.169347
-0.122036
-0.145816
-0.0749585
-1.12298e-05
0.0845296
0.37135
-6.23539e-05
0.039064
-0.00259599
0.163906
0.000234535
0.0339589
-0.110991
-0.0420429
-0.0760436
-0.0123868
-0.0604097
0.116195
-0.00662435
-0.0501007
-0.174736
0.0124975
-0.00518658
0.413614
0.406046
-0.0391791
-0.00304
0.00266545
0.608768
0.00180611
-0.010326
0.0627
0.0393701
-0.00022802
0.0340965
0.911885
0.134665
-0.0485105
0.016993
0.156945
-0.111845
0.0862722
-0.00517418
-1.08009e-05
-0.000537033
-0.00254089
0.861567
-0.00629993
0.0782936
-0.000126333
-0.00172992
-0.00754702
-0.0248935
0.130403
0.0199192
-0.0335373
-0.0171864
0.00365019
-0.00600864
0.797806
-0.0577994
-0.00463325
0.353799
0.242474
0.0305126
-0.00514075
-0.0160241
0.00101353
0.00673951
3.24421e-06
-0.00109928
0.0311204
0.248874
-0.0655662
0.5075
0.868379
0.0493945
3.54734e-06
-0.0257814
-0.0337146
-0.000965616
5.35631e-06
-0.0603334
0.261366
-0.0516889
-0.00115654
0.097664
0.00832113
0.00227192
0.000449664
-0.0023577
0.0345531
-0.0667801
-0.020772
-0.0154062
0.0303642
0.024226
-0.000255895
0.401357
-0.102268
0.00373432
-0.0322353
0.165165
0.312483
-0.0366318
0.0455736
-0.0397076
-0.00341582
-0.175066
0.00140467
-0.00014167
-0.0348184
-0.0529724
-0.00351945
0.534862
0.342898
-0.170519
0.0128423
9.90213e-05
-0.0113378
0.0667215
-0.0126553
-0.0145784
-0.00527443
0.00384009
-0.00630561
-0.00661717
-0.00567593
9.05293e-05
-0.121009
0.000156452
0.0237137
-3.65982e-07
-0.110975
0.000649217
0.546028
0.40744
0.261112
0.0136112
0.28129
0.147415
-0.00329056
0.0037192
-0.000260878
-0.00847318
-0.0493563
-0.0122129
-0.0117418
0.0107456
0.000638099
-0.00031812
0.000427738
-0.00139198
0.0889979
0.00758161
-0.0353928
0.00021689
-0.0542509
0.00183885
-0.000278435
0.309231
0.108502
0.40237
0.000166022
0.000296559
0.00389805
-0.0337837
-0.0100821
-0.0725641
-0.0515485
0.218305
-0.0150614
0.533578
0.00190303
0.00360929
0.462564
0.407347
-0.0419277
0.00562939
-0.1097
-0.0151602
0.000167288
0.0235857
-0.101516
-0.0403047
-0.0712697
0.00927584
0.133501
-5.78543e-07
0.00575771
0.0553345
0.0692692
0.57505
7.35627e-07
-0.00012429
0.00394859
-0.0401456
-0.0010795
-6.37269e-05
0.0666268
0.786702
0.0366972
0.377744
-0.0354418
0.641068
0.196751
-0.00622301
-0.0625101
-0.0977587
-0.0140832
2.97631e-05
-0.00693106
-0.00265629
0.552632
-0.0403138
0.504716
-0.00698898
0.258153
-0.0351824
-0.024453
-0.0476592
0.211895
-0.00497706
0.000197651
8.37318e-05
-4.55493e-05
0.0052646
-0.0784059
0.000636976
0.0613888
-0.000442499
-0.00044436
0.00456103
-0.00492233
0.0016252
0.00158671
-0.0402838
-0.00785408
-0.00846111
0.578093
-0.00521441
0.0162795
-0.0214253
-0.0597411
3.70185e-05
8.99766e-05
1.08136e-06
-0.0644974
-0.0972952
-0.0546586
8.80398e-05
-0.0268914
0.13234
0.036946
0.0486635
-0.000118063
-0.0490629
-0.0144363
0.000321206
-6.54076e-05
-0.0510884
0.00384144
0.00101084
-0.0688305
0.00106929
-0.0894104
-0.0405468
-0.0353423
-0.0330833
0.00196811
-0.0671953
0.000727745
9.34424e-05
0.0101618
0.449809
0.672648
0.305798
0.00602677
-0.0216329
0.334286
0.0293679
0.000640698
0.0719443
-0.0270171
0.0765028
-0.00682072
0.107661
0.00228791
0.30269
0.00131796
-0.0101097
-0.0348286
0.362726
0.000722608
-0.0393051
-0.0710501
0.216252
-0.0328823
-0.0101216
-0.0344678
0.000226745
-0.167525
-0.00824535
0.039917
-0.0332906
0.0059492
0.260518
0.346958
0.663874
0.281373
0.31652
0.0305361
0.398999
0.0301015
0.374209
0.407404
0.000764451
-0.00254292
0.668901
0.000117061
-0.163088
0.0658875
-0.034469
0.0022707
0.0697305
-0.0025636
0.00380989
0.570576
0.748094
-0.000316674
0.000748775
0.0484758
0.000387076
-0.0794817
0.407973
0.22904
-5.53959e-05
-0.05124
-0.0412043
0.00140236
0.00777545
0.142055
0.736283
0.000289798
8.7846e-07
0.370347
0.0074069
-0.000323418
0.0716457
0.0111749
-0.0062576
-0.0042998
-0.150792
-0.0298363
-0.00251821
-0.0524697
0.000769932
-0.000252337
-0.00289376
0.0661599
-0.000481324
-0.0402557
0.00177645
-0.0317253
0.36689
-8.64988e-05
0.905081
-0.00713615
0.640848
0.0679874
-0.00104837
-1.84118e-05
-0.000816965
-0.00993919
0.189703
-0.00285679
-0.0259344
0.582981
-0.0974669
-0.0980094
0.0366353
0.0528549
0.577816
-0.000968868
-0.0388524
-0.0350156
0.000596819
0.000341918
0.00180346
0.00597014
-0.0774169
0.811258
-0.0915004
-0.00398521
-0.0372818
0.00169125
0.0983842
0.139965
-0.0118823
1.35252e-05
0.373701
-0.0246185
-0.1118
-0.0033434
0.0280334
-0.0543228
0.0103751
-0.0123872
-0.00177905
0.498632
-0.00650554
0.147211
-0.0699038
0.0550601
-1.74758e-05
-0.05349
-0.0404113
-0.0398645
0.0700511
-0.0701112
0.000793009
-0.14343
-0.00271528
1.69093e-05
-0.00269468
0.000683222
0.742822
0.000610434
0.542394
-0.0381501
0.0528363
0.00632089
0.178839
0.00800362
0.24492
5.81326e-06
-0.0179318
-0.00257524
0.00350338
-0.0469873
0.000107348
0.0461366
0.720128
0.0686876
0.000644219
-0.0605121
0.188924
0.594537
4.43206e-05
-0.000591097
0.0491951
0.000499251
0.681876
-0.0134086
0.261034
0.250148
0.000483767
-0.121208
0.276425
-0.00025449
0.0734286
0.665033
-0.00433118
0.00196829
0.000994824
0.00967138
-0.034728
-0.0115269
0.492021
-0.0139107
0.828476
0.947787
-0.00536856
0.000249823
0.50383
-0.00628908
-0.0303834
0.000706115
0.238145
-0.0696653
0.787253
-0.0023945
0.000124723
-0.0246314
0.00629649
-0.0506448
0.0691571
0.0466668
0.193047
-0.000383003
-0.0192201
8.18176e-05
0.00352813
-8.06912e-07
-0.162748
-0.0420907
0.306377
-4.74303e-05
0.66291
-0.000849284
0.00141946
-0.00121443
-0.102369
-0.0211939
0.160141
-0.000305022
-0.0345389
0.00909682
-0.02215
5.07768e-06
7.27823e-05
-0.0004971
-0.0635598
0.00356757
-0.00215322
-0.0524881
0.000332534
0.000808615
0.0034796
-0.00102777
0.332093
0.121258
-0.0344424
-0.0436646
-0.0564731
-4.50692e-06
-0.0378214
-0.0783282
0.000937573
-0.0544344
-0.00278554
-0.0603091
-0.121848
0.00128255
-0.00462084
1.81522e-05
-0.0101237
-0.000796416
0.354885
-0.0141351
0.000450026
-0.000355687
0.0552787
-0.0759116
-0.00622146
0.000188997
0.496459
0.493013
0.00364526
0.221697
-0.075454
-0.0997191
0.000264157
-6.51451e-06
0.444612
-0.0587381
0.00034819
0.144832
-0.00175335
-1.23748e-05
0.120807
-0.0896924
-0.090867
-0.104786
-0.0337449
-0.012151
-0.0299479
0.000415426
0.274363
-0.000287035
-0.0448817
0.106533
-8.96495e-05
-0.0697868
-0.00207833
0.235032
0.00146883
-0.014575
0.627742
0.0860047
-0.0327334
-0.035389
0.387061
0.097102
-0.0224081
-0.0467954
0.403615
-0.00237089
-0.000700707
-0.132259
-0.0169504
-0.0218077
0.855526
-0.0117207
-1.15436e-05
-0.168285
0.0055298
0.0123776
0.244363
-0.154938
0.0664927
-0.00396273
0.23966
-0.0362652
0.12023
-0.00602356
0.191344
0.149076
-0.0474903
0.178417
0.352435
-0.000794685
0.127255
0.742492
-0.129866
0.0010066
-0.0423097
0.222477
0.00303532
0.0561314
0.381745
-0.00659751
-0.00336492
-0.00993267
-0.00737693
0.139067
0.0986991
0.000802193
0.578251
0.809411
-0.0598238
-0.00364943
0.0931076
-0.0699327
-0.0483215
0.351847
0.504949
-0.00400938
-0.0560255
-0.0694617
-0.00148346
0.161705
-0.103674
-0.00540615
0.132125
0.000663117
0.246494
-0.0576423
0.208864
0.129496
-0.159778
0.538169
-0.00260375
-0.0340639
-0.0632997
-0.000347499
-0.0390297
-0.0624912
-0.139249
-0.0439984
-0.00809023
-0.0237097
0.0659027
-0.160998
-0.000709106
-0.0206081
-0.111958
0.310003
-0.0848233
-0.0906374
-0.0168099
0.00353762
0.303121
-0.0100076
-3.0647e-05
-0.004748
0.00424269
-0.0221249
-0.0341
-0.00338613
0.135325
-0.170552
0.04332
-0.0640838
0.187857
0.0758501
0.00342656
0.00650815
-0.00707564
0.887688
-0.044026
4.38192e-06
-0.0053265
-0.000746337
0.507442
-0.0237156
-1.27382e-06
-0.0133659
-0.00102518
-0.0350493
0.198963
0.164717
-0.0443175
-0.033321
0.00232667
0.619824
-0.0455495
0.158232
-0.0102681
-0.1229
0.0198869
0.0067147
-0.00030025
-0.0213404
-0.00038546
-0.037775
-0.0021305
-0.122692
0.000135977
0.227474
9.44737e-05
-0.00488944
0.000251322
0.204293
-0.0385532
0.551409
0.0380019
0.18136
-0.100386
0.0019292
0.546876
-0.065425
-0.0352677
0.959457
-0.00107616
-0.0159044
-0.144737
0.0614669
9.63695e-05
0.00157496
0.0123231
-0.0536207
-0.0468159
0.664576
0.00555694
-0.151803
0.198223
-0.134616
0.00833622
0.00368758
-3.01594e-06
-0.000281121
-0.00338316
0.0620013
-0.000893669
-0.00557032
-0.00189821
0.586998
0.572068
-0.00934207
0.000179944
-0.059404
0.0871959
0.000804669
0.00017014
-0.0488397
-0.0661605
0.000142802
-0.00894617
0.0753372
-0.0520793
0.000291532
-0.0965098
0.86403
-0.0587362
0.000645729
-0.104767
0.0626817
0.0010645
0.000185166
-0.144583
-0.00351792
-0.140758
1.47679e-06
-0.016338
-0.0664472
0.793626
-0.0144967
0.0125123
-0.0365338
-0.000415944
0.206854
-0.000778312
0.047954
0.219242
-0.000100927
0.0646055
0.00408162
0.78375
0.959713
0.0263498
0.715079
0.63189
-0.0174807
0.0965048
0.000469311
-0.0238485
-0.079421
-0.00346557
-0.000310711
0.0128684
-0.00139766
-8.42001e-05
-0.0213695
-0.00122593
-0.0416562
-0.0881419
0.000240917
-0.000434861
-0.105081
0.000248847
-5.03288e-05
0.198256
0.0603638
-0.0300055
-0.00203596
-0.10389
0.0270046
0.220104
-0.00426675
0.00843495
0.242759
0.116586
-0.0658638
0.005747
0.00137864
-8.76401e-05
-0.0465542
0.493437
0.0443045
-1.26881e-05
-0.141393
0.000194723
-8.8475e-05
0.199717
0.00137981
0.780884
-0.00340382
0.379092
-0.00399166
0.00822615
-0.00393253
-0.000398505
0.23639
-0.00163334
0.00341819
0.729633
0.665422
0.896116
-0.00423565
-0.152498
0.191118
4.18138e-05
-0.0674849
-0.00879147
0.37663
0.480361
0.00689177
-0.0031852
0.00015463
0.124032
0.00238099
-0.0150964
0.0119298
-0.0010249
-0.00749661
-0.0028828
-0.00623516
0.262746
0.201675
0.00479223
0.235495
-0.0494818
-0.155057
-0.0120609
0.0735921
-0.0383022
0.893161
0.558375
0.0660729
-0.0348404
8.3985e-05
7.2433e-05
-0.0463353
-0.07582
-0.0317106
0.112625
0.359687
-0.0590681
0.216343
-0.000558392
0.0201694
-0.0100727
0.319012
-0.108922
-9.83257e-05
0.250318
-0.000172395
0.00029023
-4.92865e-05
1.04724e-06
8.44759e-07
0.319604
0.00690222
-0.0367659
0.000978496
-0.170444
-0.0742726
0.575397
0.00498299
-0.00138819
-0.00547119
-4.93068e-05
-0.00114791
-0.116229
0.0491423
0.228582
-0.0103174
0.19913
-0.0346468
0.0178652
0.0501705
0.00135846
0.722096
0.000122654
-0.00586393
-0.00106554
-0.0353261
-0.0164513
0.349041
-0.0063333
7.18445e-05
-0.0648525
-0.0084525
0.351845
-5.24531e-05
0.000387074
0.0003235
-0.0540632
0.00924481
-0.0427622
-0.104521
0.158974
0.558322
-0.00351291
0.000491075
0.00623286
-0.00249312
0.180239
-0.0765525
-0.00626206
0.0646885
-0.173492
0.00143274
-0.0641727
-0.00507761
0.00588908
-0.0736602
0.000191699
0.0644554
0.363578
0.526489
0.289545
-0.000404328
-0.149984
0.000117716
-0.0565648
-0.0572249
0.213543
-0.0150412
-0.135456
-0.0523848
-0.0488222
0.00312235
-0.0148911
-0.0513557
-0.125966
9.44127e-05
0.144681
-0.00122238
0.462853
0.0917355
0.0456751
0.000187109
0.00160952
0.00807628
5.70288e-05
0.183031
-0.0156995
-0.126188
-0.10555
0.0962698
0.575587
-0.0143563
-0.0523757
0.213662
0.0402468
-0.00220448
0.0449072
0.903966
0.00366324
0.0675115
-0.0972838
0.000496525
-0.0497306
-0.00518413
0.476076
0.000282936
0.198369
0.60022
-1.53916e-05
-0.0235767
0.00017698
0.159268
-0.0209987
0.017527
-0.0107757
0.000530926
-0.0492002
0.000527622
0.00368415
-0.0240792
0.0189695
-0.00460742
1.49344e-05
-0.00402659
-0.0545151
-0.101623
-0.00543543
-4.26943e-05
0.0336017
-0.00219649
0.00186202
0.054266
0.277585
-0.0326658
-0.0192752
0.213957
-4.02589e-05
0.000774449
-0.0559532
0.00010734
0.000251665
-0.0126281
0.258584
0.00480332
-0.0120892
-0.00417614
0.04012
0.000212178
-0.000814403
0.000174261
0.155719
-0.00225969
-0.00612524
0.0387535
-5.61423e-06
0.00083568
-0.000220406
0.316003
-0.00229543
-0.0100752
-0.000130884
0.0136671
0.272564
-0.00421498
-0.128115
-7.85361e-05
-2.34325e-05
0.0202183
0.000643569
-0.000310837
0.552486
0.0113854
-0.00411859
-0.106486
0.000523043
0.00140259
-0.0156672
-0.000898615
-0.00185009
0.704325
-0.000460219
-0.0302495
0.404764
-0.000315301
-0.0525908
-0.000987969
-0.0363205
-0.0707269
0.0515152
-0.0127188
-0.000888842
-0.0102057
-0.0419687
-0.00380939
-0.00284959
0.00197411
-0.00153121
-0.000130008
-0.000448116
-0.0220737
-0.0427462
0.167503
0.00592312
-0.0235954
0.879203
0.190597
-0.0851036
-0.000427823
-0.0402219
-0.0564953
0.0813377
-0.0783281
-0.058885
0.16018
0.167136
-0.0267719
-0.0773503
0.560925
-0.0436905
0.000426139
-0.105687
-0.111054
0.0130145
0.0133837
-0.0380002
-0.00247281
0.0651285
-0.0507079
0.490522
-0.0528854
0.499902
-0.0675927
-0.00127282
0.00703092
0.000386206
0.000108127
-6.83269e-05
0.310839
-7.26843e-05
-0.0496778
0.00201232
0.020845
-0.0700254
-0.000762378
-0.00747162
-0.0520221
-0.000280134
0.285195
0.012923
-0.00186022
-0.0499177
0.168526
-2.04716e-06
0.0860407
0.00146983
0.393685
0.0471215
-0.0693218
-0.0514425
-0.00184321
-0.00136785
0.206028
0.314383
0.312226
-0.00888194
-0.0538247
0.486904
0.145913
0.0166137
-4.15961e-06
0.189042
0.0367991
0.00120456
-0.0371977
0.594855
-0.034598
0.00149257
0.818996
-0.000260525
-0.00510947
0.151657
0.334073
0.180897
0.177113
0.63402
0.480552
-0.000458697
-0.00119334
-0.00204529
-0.00184277
0.175172
-0.0491537
0.533609
0.00391664
-0.0121468
-0.0264901
-0.0550882
0.00115858
0.0019291
-0.00117004
-0.062764
-0.00064358
0.045923
4.46815e-05
9.62895e-05
0.000424834
-8.79104e-05
0.00141156
-0.0214672
0.013766
-0.0344783
-0.0794011
0.848991
-0.0678371
-0.000114353
-0.00370043
-0.123368
-0.00182212
-0.000294043
-0.0235972
-0.00187638
-0.0010502
-0.0117235
0.0632576
-3.78256e-05
0.045617
0.0149304
0.000947703
-0.000599238
0.00634628
0.0439345
-0.0608017
0.127911
0.0544643
-0.0211348
0.0147425
-0.06571
-0.00226335
4.69185e-05
0.000283595
-0.0068651
0.239014
-0.0310914
-0.00983538
-0.0165026
-0.066411
-0.000911649
0.582581
-0.0195975
0.173744
0.00143738
-0.00115051
0.000204265
-0.0256013
-0.108362
0.581142
0.620051
0.191803
-0.0236823
-0.051768
-7.25182e-05
6.21978e-05
-0.0140291
-0.07663
0.296517
-0.130124
-0.0585251
-0.0510123
0.279005
0.146935
-0.146735
3.63807e-06
0.222868
0.251676
0.0271535
-2.83625e-05
-0.014196
-0.00744364
0.309282
0.204019
0.0139662
0.0150036
0.872722
-0.0207386
-2.63807e-05
1.38227e-05
0.0473185
-0.0232457
0.141708
4.19837e-05
-0.105124
0.00512627
0.000192901
0.66907
-0.00548148
0.143611
-0.0153798
0.00146985
0.0590986
-0.102878
0.436972
-0.0347975
-0.0214102
0.700808
0.00140417
0.0460006
0.21506
0.529834
-0.00222746
0.172471
1.0441e-06
0.00102147
0.215468
-0.0170472
0.0432085
0.0846334
0.000614667
0.299315
-0.095111
2.99986e-06
-0.0963637
-0.00290728
-0.0115913
-0.000482793
-0.000116524
-0.0625477
0.00183026
0.00156756
-0.00499725
0.00391911
0.182431
0.546897
0.000356411
-0.00385744
-0.000874071
-0.0597533
-0.000536005
0.000151518
-5.20406e-05
0.562217
-0.00187807
0.00188416
-0.0305763
-0.0494121
-0.0967462
0.554405
0.460563
0.325841
4.98785e-06
-0.14085
-0.0645821
-0.0125267
-0.0761708
-0.00229741
0.248762
-0.0286798
0.0170368
-0.00135226
0.0574981
-0.0961184
0.0485603
5.45693e-06
0.106196
-0.00010641
-0.000568764
0.191902
-0.0028004
-0.053433
0.855147
-0.0151513
0.00270085
-0.00471938
0.217308
0.338311
0.570016
0.363601
-0.0990865
-0.00391339
-0.00149631
0.00885701
-0.046057
0.00516647
-0.000156942
0.00401368
0.00359497
-0.0408055
-0.0163666
-1.75566e-05
0.0371503
0.033229
0.631332
0.196181
-2.09657e-05
0.119921
0.00152419
-0.0933344
-0.0985145
-0.0189492
0.550715
-0.00101062
-0.0625451
0.0559309
-0.000869497
0.000281821
-0.0499918
0.182958
-0.0534185
-0.0591541
0.0942158
-0.0656236
-6.16294e-06
5.86624e-05
0.083456
0.0167614
-0.048151
-0.0014944
0.411892
-0.000274739
-2.47956e-06
-0.00157667
0.0059436
-0.0168846
-3.15681e-05
-0.0424006
0.132449
0.214689
-0.00417501
0.504963
-0.0296578
0.217482
-0.0163038
0.017854
0.000181884
0.0549662
0.0821312
0.0971411
0.767196
0.270448
-0.0147994
0.00665663
0.324861
-0.0152633
0.409929
4.56371e-06
0.204631
0.332361
0.629328
0.000439426
-3.71779e-06
0.461204
0.612697
0.176859
0.000100623
-0.144697
0.123949
-0.00575483
-0.00240991
0.0519505
0.0448033
0.0177658
0.498914
-0.00377784
-0.0647171
-0.00376876
0.0651475
-0.00254144
0.572495
0.165348
0.0936767
-0.00157958
0.175654
-0.0658483
0.0252492
-0.0574948
0.000512153
-0.0520662
0.0339537
-0.00612553
-0.00472327
-0.0787483
-0.0124353
-1.96127e-05
-0.104189
-0.00581127
0.000740435
0.0192652
-0.00318644
-0.00603617
0.0535901
-0.000114521
0.0980825
-0.0790988
0.457278
-0.000438423
0.822698
-2.31458e-05
-0.0125825
0.0134752
-8.82017e-05
-0.0100273
-0.00264209
-0.0987583
0.271889
-0.0330467
-0.00123328
-0.0664599
0.418472
-2.15076e-05
-0.13195
0.0688261
0.0513349
-1.15946e-06
0.86617
0.0126953
0.0338002
-0.00701418
-0.00230787
-0.000111648
0.461141
-0.0101775
0.201197
0.000453813
-0.0796258
-0.00222518
-1.02721e-05
0.458094
-0.000133185
0.245862
0.722544
0.437394
-0.0140808
0.224475
0.273417
0.389448
0.492982
0.311791
0.654974
-1.43015e-05
-0.0451699
0.246655
-0.000924039
0.427436
-0.0660174
-1.9294e-05
-0.000493476
-0.0513828
0.829565
0.0739743
0.0117428
0.154482
-0.000491353
0.000201796
0.0166349
-0.0448005
0.0170057
0.365955
0.788358
-0.033477
0.505225
-0.0628118
0.0619032
0.56365
0.000422843
0.358716
-0.00966507
0.0591103
0.00343858
-0.107046
-0.017649
-0.0288313
-1.21789e-05
-0.0243925
-8.50367e-06
0.243343
0.82272
-0.127753
0.00176054
-0.0293189
-0.0573194
-0.00012465
0.0121923
-0.0479283
0.0127436
-0.034673
-0.0419518
-0.00124962
0.00221585
0.0777579
0.00039822
-0.0540226
-4.29495e-05
0.174414
-0.002433
-0.05664
0.000389572
-0.0100688
-0.0543454
-0.021508
0.0467359
0.00162672
0.106997
-0.0525285
-0.105896
-0.000316314
0.0731172
0.077769
-0.0405581
0.493774
-0.0119978
-0.107479
0.0188931
-0.00661561
0.0154242
0.000175115
-0.137054
-0.0343502
-0.00660723
-0.000307192
-0.00165772
0.155191
-4.83334e-07
-0.000944371
0.000220541
-5.2562e-05
-0.0038373
0.558153
0.908793
-0.000810751
0.00389221
-5.2823e-05
-0.0789681
0.00748577
-0.0169055
0.0515769
-0.0031585
0.197321
0.00688387
-0.00207489
-0.000698228
-0.0101621
0.0119709
-0.00060125
0.421735
-0.00309805
0.812205
-0.035365
-6.98965e-06
0.160121
-0.00160524
-0.0434908
0.238042
-0.00614295
-0.0335572
0.774802
-0.0622269
0.00693283
-0.0390058
0.0858989
-0.0119496
0.10205
-9.55313e-05
-0.0441653
0.001639
0.595113
-0.0016222
-0.0480019
0.0527589
-0.0120784
0.089537
0.0101767
0.00382977
0.2194
0.00268043
-0.133499
-0.0119707
-0.00362268
-0.00100688
0.0150648
-0.0658793
-0.00239778
-0.0388598
0.0130038
0.00182983
-0.0529538
-0.000681143
-0.00087143
-0.00320201
-0.00013249
-0.100984
0.00253938
0.198951
6.40254e-05
-0.00111035
0.000179706
0.737532
-0.000134685
-0.0849605
0.168571
0.222147
0.00079537
-0.00562232
0.00658579
0.00421527
-0.0252846
-0.0652658
-0.05473
-0.0347449
-0.010117
-0.000865011
0.175436
0.0555713
-0.0343379
-0.00215147
-0.1705
-0.0642369
-0.000336083
-0.0114623
0.0828133
0.77451
0.559698
-0.00628937
-0.0464677
-0.0180823
-0.00104739
-0.000457282
-0.0387491
-1.88894e-06
-0.0734708
-0.0394206
-2.00073e-05
0.000102025
-0.0670412
0.0240774
-0.0427884
0.0775086
0.000137332
-0.0651494
0.0339619
-0.037392
0.000386208
-0.0623805
-0.000973535
0.301985
-0.00123121
-0.0735094
-1.09095e-05
-0.00232099
-0.0507369
-0.120494
-0.00565894
-0.045461
0.000315448
0.150371
-0.0203889
-0.0436522
-0.088659
0.0104169
0.132077
0.833958
0.0156627
0.112144
0.000879375
0.0001411
-0.000401758
-0.0480274
-4.6508e-05
-0.00238909
0.265797
0.721491
0.776047
-0.00149621
0.463659
-0.0105685
0.00167759
0.0133251
0.103194
-0.0138246
9.95546e-05
0.0976736
0.00651532
-0.129976
-0.107969
-0.110592
-0.0405935
2.05267e-05
0.00207966
-0.0131574
0.315566
-0.0594008
0.0275106
-0.0541101
0.770426
0.00267871
0.214682
-0.000107674
-0.0538354
-0.00642695
7.39489e-05
0.00225277
0.0726803
-0.00636049
-0.10823
0.0121604
0.0588321
0.542499
-0.0123489
3.81033e-06
-6.11672e-05
-0.0416458
0.0677387
-0.0392081
-0.0164613
0.00277406
0.00119219
0.180496
-9.48169e-05
0.00705489
-0.00152881
-0.0111092
-0.0049515
-0.00650434
0.237024
0.0191236
0.0120541
0.0514267
0.954998
-0.0884781
0.325475
0.229163
-0.074278
-0.0691347
0.0106041
-0.0743317
0.00408506
0.200626
-0.0230052
0.000178201
-0.0105486
-1.81132e-06
-0.0964563
-0.00462762
-0.00344752
-0.0112646
0.433231
-0.000477229
-4.48141e-05
0.192766
-0.13931
2.08767e-05
4.04171e-05
0.00260902
-0.147842
-0.000112843
-0.0653061
-0.000559328
-0.0479771
-0.0477599
0.0828984
-0.0117786
0.33683
-0.0566662
0.000454579
-0.00146528
0.390678
-0.0123691
0.0286011
0.000169964
-0.0353237
-0.0356491
0.000194632
0.0118495
-0.0407306
0.00759822
0.56285
-0.000104595
-0.13708
-0.00163173
-0.000330866
-0.000830161
-0.00696708
0.2863
0.0086027
-2.8706e-06
0.244186
-0.0199044
-0.000958816
-0.0741917
-0.00220575
0.0663744
-0.0686573
-0.000385085
-0.00306386
0.0556278
-0.0464024
0.000144156
-0.155143
-0.0452079
0.0380629
-0.0354903
0.0224458
0.560295
-0.0110347
0.0971198
0.193082
-0.000994247
0.00133154
0.368612
1.42454e-05
0.943361
-0.00893486
-1.53918e-06
0.219709
0.27731
-0.169503
0.0687831
-0.0585525
0.0672501
-0.00967697
0.0206786
-1.14876e-06
-0.0126006
0.114701
-0.041517
-0.0222866
-0.00455196
-0.0747915
-0.00750325
-0.00488115
-0.000329693
0.0824138
0.75802
-0.0555354
-8.62487e-07
-0.000117095
0.00302348
-0.00281716
-0.15628
0.219762
-0.0795978
-0.0410295
-0.0708801
-0.0405788
0.735526
0.000112866
0.0523463
0.01239
-0.07626
0.00366081
0.112879
-0.00450175
-0.00162762
-0.0131381
-0.000153426
-5.69318e-05
0.102596
-0.00310824
0.410298
-9.6739e-05
0.0835928
-0.0161273
-0.0351506
-0.038912
0.00616949
-0.108577
0.0232827
-1.66208e-05
0.145943
-0.0982179
0.00488174
0.155203
-0.0794077
-0.0214157
-0.047065
-0.161957
0.16499
-0.162659
0.147458
0.00327307
-0.0332602
0.00034122
0.214388
0.0291182
-0.0004664
-2.17381e-05
0.179363
-0.00175123
0.0881519
0.388879
-0.148561
-8.33218e-05
-0.0372486
0.582019
0.15641
-0.0101643
0.217016
0.232625
0.0769544
0.000668498
-0.00325465
0.0355762
0.277176
-0.0485556
0.0023726
-0.00165
0.000163876
-0.0654127
0.051468
0.083756
0.170612
-0.0339827
-0.0765737
-0.0481856
-0.0653813
-0.0180076
0.516916
0.0547408
-0.104381
-0.00228516
-4.32342e-06
0.00619669
-0.0964351
0.00379348
-0.000469776
0.189222
0.22018
-0.0518314
0.167792
0.0116474
0.596493
-0.00242562
0.245976
-0.02928
-0.000731323
-2.47375e-05
0.0594747
-0.0498957
-0.00165131
-0.0210393
0.330221
0.370727
-0.0292074
0.55779
0.26541
-0.0491072
-0.0435051
-0.0566424
-0.00630463
0.211125
-0.0661622
-0.000602673
-5.74529e-06
-0.00142356
-0.0424837
-0.00884699
-0.0371749
-0.0280512
-0.0182053
-0.00193659
0.616142
-0.00739723
0.346652
0.830592
0.234084
-0.00266676
-1.71706e-05
-0.0473011
0.00331166
-0.013083
0.580209
0.176817
0.169029
0.742436
0.0126559
0.0665701
-0.0468328
7.26004e-05
0.485699
-0.00782271
-0.0407902
-0.037697
0.0166723
4.05642e-05
-0.0375976
0.137051
3.65282e-06
0.822588
0.118942
-0.000728855
-0.00047265
-0.00211066
0.399047
0.151709
-3.42749e-06
-0.00218349
0.000160781
-0.00038699
0.00309407
-0.0021451
-0.0123685
-0.00617598
-0.00348455
-0.0131441
-0.000853968
-0.00071735
0.0532394
-1.81531e-05
-1.12026e-05
0.00106084
-0.0290681
0.0127529
0.46643
-0.00451396
-0.000833854
-0.012822
-5.16983e-07
0.0074004
-0.064529
-0.0575094
-0.112588
-0.00064096
0.356886
0.0940997
0.217053
0.0269774
0.00752093
-0.0320535
-0.00488596
9.43938e-05
0.0175568
-0.0951737
0.00047963
-0.0342042
-0.0195673
-1.49106e-05
0.863299
0.184493
-0.0019698
-0.0756712
0.300131
-0.0374519
-0.0146352
-1.89661e-05
-0.0480802
-0.0248662
-3.32743e-06
0.114944
-1.7426e-05
-0.00190905
-0.0580402
-0.108095
-0.00875054
-0.0095144
-1.05708e-05
-0.0724533
0.00357759
0.231892
-0.0499829
-0.000114735
-0.009193
-0.0015247
-0.0913688
-0.106282
-0.0347957
-0.0136727
-0.0949443
0.175566
0.00215204
-5.14886e-05
-0.00472307
-0.0340155
0.0922086
0.676426
-0.0152735
0.915815
0.000701524
-0.059053
-0.106288
0.46947
0.547832
-0.017092
-0.00255653
-0.0512936
-1.44907e-05
0.718434
0.401818
0.137141
-0.0604452
0.136041
0.166581
0.692746
0.295415
0.339106
-0.0756214
-0.0478585
0.358906
-0.101376
-0.00236547
0.0414264
0.0411712
0.00139789
-0.0328037
-0.000411774
0.010841
0.000371528
0.00402511
-0.0231133
0.000139412
-0.0476477
-0.0682534
-0.076018
-4.88652e-06
-0.00714383
-0.000116274
5.74299e-05
0.203059
-0.0850216
-0.0215923
-0.000752425
0.0217584
-1.22718e-05
-0.000148779
-0.000810953
-0.000555851
-0.0608879
-0.0736074
0.000266286
0.170852
-0.00310519
-0.0707767
0.0759278
-0.00981818
-0.00244655
0.000201781
0.0251113
-0.0615494
-0.00326331
6.11789e-05
0.00743015
-0.051074
-0.0399878
0.0685357
0.000940311
-0.0478147
0.821293
0.00173196
0.00222427
0.105771
-0.000794679
-0.00171861
-4.58458e-05
-3.1058e-06
-0.000213526
0.0378789
-0.0842406
0.616916
0.866658
-0.000630034
-8.41962e-05
-0.00061295
-0.0587688
0.961725
0.144782
-0.102828
-0.0628612
-0.000110117
0.00156461
-0.0343108
-0.00191113
-0.0327153
0.0208592
0.0260438
0.00752602
0.00310013
0.76478
-0.0708275
0.00089492
-0.00226081
0.0576486
-0.0339043
-0.145227
-0.104249
-0.0131846
0.432547
0.583138
0.194589
0.388027
0.171576
-0.0908508
-0.0134759
0.00854042
0.201075
-0.0507946
0.000724746
-2.03553e-05
-0.0933168
-0.147387
-0.00128981
-0.0230122
-0.0796254
-0.0870015
0.568422
-0.00319005
-0.0464977
-0.0087937
-0.0381692
0.225549
0.0430939
0.00882904
0.0111495
-0.0241642
-0.00148009
-0.0185846
-0.0514423
-0.00774433
-0.0867445
0.336022
-0.0548299
-0.0253354
-0.00724534
0.288596
-0.00416539
-0.0584893
-0.0565564
-1.07389e-05
0.379903
0.120009
-0.00610324
0.00356655
-0.0375685
-0.0211657
-0.00331632
-0.0797251
-0.013703
-0.109795
-0.00918375
0.00388559
0.000162067
-0.000410907
0.0601315
-2.84402e-05
-0.020906
-0.0585108
-0.0512227
-0.000411738
0.000260846
0.000385736
0.00368736
0.0884165
0.0294383
-0.0749092
-0.0606858
0.0161704
-0.0178647
-0.00402487
0.703198
-0.0183644
-0.00675069
0.506102
-0.0255989
0.46401
0.671875
-0.0162972
0.191545
-0.0219476
0.0174912
-0.00465524
-0.00350304
0.00242733
-0.0606207
-0.124808
-0.0580401
0.00469722
0.212014
0.0670209
-0.140721
-0.000602525
-0.000752225
0.356132
0.266968
-0.0163501
0.383312
-0.0150129
0.577327
-0.0092626
-0.00680738
0.0862691
0.0880073
-0.000294654
-0.00217266
0.297211
-0.0447766
-6.27402e-05
0.772547
0.179067
-0.00720847
-0.095639
0.339488
0.752033
-0.00866169
-0.0480322
0.000678648
0.00970725
0.000624347
-0.0710662
-0.0783328
0.000382468
-0.0242799
-0.140876
0.0535272
0.203409
0.00299069
0.290873
-0.0612739
-0.00401803
-0.146024
0.0552996
0.000337849
0.71491
-0.00879084
-0.0189933
0.698172
-0.0522567
-0.0699347
-0.00115601
0.0860134
0.0166188
-2.83591e-05
-0.0169635
-0.000288053
-0.0284222
0.31497
0.191053
0.562117
-0.158168