/*--------------------------------*- C++ -*----------------------------------*\
  =========                 |
  \\      /  F ield         | OpenFOAM: The Open Source CFD Toolbox
   \\    /   O peration     | Website:  https://openfoam.org
    \\  /    A nd           | Version:  7
     \\/     M anipulation  |
\*---------------------------------------------------------------------------*/
FoamFile
{
    version     2.0;
    format      ascii;
    class       volScalarField;
    location    "14.5";
    object      p;
}
// * * * * * * * * * * * * * * * * * * * * * * * * * * * * * * * * * * * * * //

dimensions      [0 2 -2 0 0 0 0];

internalField   nonuniform List<scalar> 
19930
(
-0.000576597
-0.0113812
0.0146358
-4.57988e-05
-0.00304256
-0.00353572
-0.0933254
0.573309
-0.0425774
0.550332
-0.0823058
0.228634
-0.0333656
-0.00064288
-0.00262603
-5.14083e-05
-0.0162208
0.347624
-0.0655606
-0.0103605
-0.037568
0.24058
0.544157
-0.0987501
0.0122179
1.13119
0.00249106
-0.029198
-0.114515
-0.0662835
-0.000902752
1.38961
0.430978
-0.0168196
-0.000635044
-0.00101874
0.629271
5.18329e-05
0.00188819
0.289243
0.0269442
0.549501
0.880737
0.00203346
1.13458
-0.029362
0.523006
0.0995358
1.80754e-05
-0.0345059
-0.000703918
0.0742833
-0.0498694
-0.00127888
-0.0692094
-0.0349327
-0.024951
-0.00125689
-0.0154224
-0.0108017
1.23982
-0.0229209
-0.00608267
0.495236
6.83267e-05
-0.00492112
1.10973
-0.00529622
0.0296855
1.11662
0.00962807
-0.0452662
-0.00239524
-0.0252414
1.1247
-0.000604862
1.10051
-0.037949
0.287009
1.02562
-0.00426711
-0.000855573
-0.114236
-0.039123
-0.0222919
0.890716
-0.0282279
1.54865
0.500516
1.20617
0.469002
-8.78709e-05
-0.00011913
1.47965
0.0800946
-0.0054563
1.49663
-0.00169113
-0.0697654
0.678959
1.22151
-0.0166605
1.25603
-0.0158901
0.145937
0.0152118
0.988378
0.0156264
-0.0137197
0.896598
-0.123301
-0.0941449
-0.0214976
0.0146975
0.0080715
-1.7662e-05
0.834515
-0.00395445
-0.037257
1.00749
-8.74719e-05
-0.0381163
0.312028
-0.0205454
-0.016739
0.349215
0.327399
-0.0282729
1.41161
0.859149
-0.0361767
-0.0331812
0.0271171
0.00236132
1.00788
0.130251
0.147116
-0.039235
-0.0132336
-0.0548208
-0.0428733
-0.0275286
-0.0653365
1.27475
0.114666
1.0208
0.412018
-0.0200727
0.3067
0.00285428
-0.0193918
1.10019
-0.000100509
-0.0342891
-0.000790315
0.414688
0.912415
-0.104399
-0.0376009
-0.0353461
-0.0831356
-0.0837426
-0.00110337
0.128224
0.23264
1.53269
-0.0154998
-0.106259
-0.00256303
0.623056
0.137847
1.15635
0.807704
-0.0167528
1.59883
0.410013
-0.00089381
1.20652
0.014245
0.940675
1.04261
5.52165e-05
1.27831
0.823223
-0.00979274
-0.0405308
0.0112811
0.644487
-0.0197243
1.41772
0.33714
0.022493
0.698937
0.041757
-0.0382527
0.227681
1.26891
0.0680182
-0.0101437
1.4381
0.15789
-0.0489828
-0.0351627
1.3839
1.31185
-0.0296793
-0.0164038
0.0766635
-0.0345187
-0.000135216
1.0968
1.19763
-0.021905
-0.0396812
0.927513
1.12345
-0.00134726
1.00692
0.0258712
0.00391942
-0.0239948
0.927014
1.32545
0.478105
0.894588
-0.0146136
-0.0145064
-1.61731e-05
-0.000942342
-0.00237156
0.307819
-0.0263272
0.974526
-0.0532151
0.924858
-0.026395
0.0196194
1.14549
1.5128
0.913619
1.08875
-0.039433
0.590071
-0.0184301
0.160612
-0.00359741
-0.090753
0.0696123
0.0775939
2.83615e-05
-0.0133549
1.34218
0.291764
0.000490728
-0.0408583
-0.023978
-0.101701
0.577576
-0.0514774
-0.027211
-0.0327639
-0.0145118
4.9569e-05
-0.0258182
-0.0793633
1.27164
0.0466471
-0.0197476
0.937833
1.3027
-0.0279222
-0.000199328
-0.0364265
1.11032
-0.109458
1.23052
-3.11082e-05
-0.0409132
0.862895
1.08785
-0.0178659
-0.0228882
1.40137
-0.0217733
0.0199604
1.2435
1.40577
-0.0304906
0.87085
0.201202
1.01328
0.766633
-0.000193497
0.0333846
0.648448
-0.000948275
-0.0637574
0.0980455
-0.131714
0.151999
0.103366
-6.45959e-05
-0.00120499
1.19933
-0.00399367
-0.0760484
-0.0385588
0.256585
-0.0213318
0.927932
0.169458
-0.0353244
-0.0402112
0.590522
0.256505
-6.51465e-05
1.20846
0.863422
1.19302
-0.055034
6.73768e-05
1.38875
-0.0026434
-0.0247339
0.237365
0.080871
-0.0321646
-0.0353142
0.920244
1.47866
1.05164
0.235965
1.61948
-2.91571e-05
-0.0155283
1.08901
-0.0891689
0.646836
-0.0234152
1.12167
0.164391
-0.00106794
0.160926
0.82995
-0.0884637
1.2686
0.775789
-7.6731e-05
0.0183294
0.467864
0.371563
-0.00045924
0.805238
-0.012442
1.59107
-0.043238
-0.0213218
-0.0131035
1.03812
0.813975
-0.0242817
0.596242
1.20444
-0.0041675
0.794238
0.889065
1.60291
-0.00210213
0.318359
0.0628218
-0.0385204
3.97349e-05
1.13955
0.543736
0.0559303
1.14573
0.257094
-0.0251682
0.578793
0.238833
0.303917
1.59328
-0.0327022
0.209321
1.19035
-0.0418594
0.167262
-0.0694756
0.45744
-0.0172136
0.495458
0.0586428
0.203749
-0.00124524
0.532749
1.17934
0.805978
-0.116605
-0.0131581
1.36526
1.37524
-0.00330082
-0.0388238
0.996743
-0.0715181
0.0103067
0.589381
-0.014194
1.66388
-0.010537
0.346068
-0.00725761
1.18977
0.763855
0.0838116
0.00420657
0.0259702
0.16232
-0.00173772
1.00211
-0.0480804
0.526229
1.57074
-0.0606185
0.00604472
-0.0026753
0.104606
0.0526767
-0.0215953
0.661512
-0.000513023
-0.0313221
0.00348928
-0.00722588
-0.0240393
5.42022e-08
-0.0345989
0.211331
-0.101567
-0.00522606
-0.0314955
0.112745
0.117791
-0.0363018
-0.0358566
-0.00145088
0.0288771
-0.0771738
0.00359284
-0.0122709
0.268965
0.793398
0.135918
-4.6241e-05
1.43938
0.00376777
-0.000547928
0.0245163
-0.0363509
-0.0362659
1.29906
-0.0088919
0.210739
-0.0642205
-0.0697726
0.577234
-0.0241222
-0.0402913
-0.0599833
1.69794e-05
-0.0059083
1.47252
-0.0969615
-0.0439768
0.667917
-0.0333814
0.76506
0.298399
-0.00295774
-9.73762e-05
0.880698
1.54874
-0.104471
0.383154
0.188403
-0.0361122
-0.0372187
0.991385
0.125107
-0.109747
-0.063478
-0.0220286
0.0494298
1.3642
0.273519
-5.86762e-05
1.26216
-0.00668574
-0.039184
0.838364
0.00322503
-0.00742256
-0.000142969
0.0402192
-0.0263685
-1.86642e-05
0.367814
-0.105737
1.01185
6.1975e-05
-0.00139533
-0.0346646
-1.12049e-05
-0.1088
-0.105776
-0.00160255
-0.030842
-0.0409869
0.835446
1.16165
-0.00240383
0.000147158
-0.0526259
1.18578
-0.00995141
1.20369
-0.0127275
1.57626
0.823811
0.419615
1.5084
-0.0351238
-0.00478408
0.0639355
-0.00737432
1.15168
0.988936
-0.0189786
-0.0812076
0.14779
-0.00474876
-0.00333095
-0.0943206
-2.75878e-05
0.856786
-0.0392044
-0.0344179
-0.0135356
-0.0230311
0.361828
0.150311
-0.00128382
-0.00503603
-2.86009e-05
1.57377
1.34682
-0.00163882
-0.0192141
0.0106667
0.981932
-0.0419801
0.182575
-0.0412268
1.07154
0.409149
-0.0279651
1.64778
0.0416668
1.0288
-0.00818621
-0.0819727
1.26179
-0.00800478
1.57109
0.93697
1.60127
-0.00460437
-0.00626575
-0.0348292
0.0821727
0.00298185
-0.0284978
1.04243
1.08539
0.812295
1.1715
1.55224
0.446465
1.18148
0.811682
-0.00328167
0.898349
-0.039372
-0.0403473
-0.000620271
-0.00784291
-0.0724764
0.62833
0.0961414
1.0246
-0.0177295
0.185174
0.976455
-0.0065821
0.00269876
-4.13185e-05
-0.000150404
0.630221
-0.0375867
-0.0354555
-0.000173518
-0.000895437
0.134438
8.47037e-07
0.0801732
1.57919
0.406679
0.507485
-0.0214267
0.948177
0.118226
-0.00875023
-0.0191622
-0.00184525
-0.000127108
-0.00115169
-0.0134409
-0.0784048
0.586426
0.0566583
-0.0325049
-1.11746e-05
1.07506
0.00534093
-0.0581912
-0.00708486
0.1605
-0.013992
-0.0302437
0.978209
1.42433
0.723612
-0.0187707
0.752217
-0.0219222
-0.0283346
0.473921
-6.4932e-05
-0.0171927
0.32699
0.45335
-0.027256
0.961908
1.30765
0.946375
-0.0377235
-0.0374148
0.00361014
0.246583
0.890569
-0.00165998
1.25563
-0.0253746
-0.0822629
0.0798047
1.46421
0.57697
1.0045
-0.107743
1.52713
-0.0252733
-0.0270481
1.61683
0.0704713
-0.0649405
1.01436
1.07497
-0.0297271
0.876702
1.18364
1.0674
0.896321
1.03833
0.789834
-0.00802187
-0.0251775
-0.00131356
-0.0731467
1.17716
-0.0683743
0.264795
0.325094
-0.037614
0.093725
0.301627
1.20438
0.103592
-0.00127339
0.0557436
-0.0317519
-0.0245946
-0.0425455
-0.0767742
0.885075
1.23292
0.106101
1.19338
1.56009
-0.000545341
0.000212186
-0.00322751
-0.0174388
0.666014
1.57767
0.281795
0.937594
-0.0190526
0.708067
0.722053
-0.0873817
-0.029769
-0.042907
0.252792
-0.0107156
0.0688407
-0.0344693
-0.0441659
0.986296
-0.00378528
-0.0112189
1.07003
0.0892343
1.40122
-0.03944
0.802387
-0.0400603
-0.0362257
1.24807
1.41269
1.1752
-0.0166882
1.42658
-0.0349629
1.23028
0.0555226
1.16395
-0.0314983
-6.89441e-05
1.17022
1.24532
1.22609
1.1724
0.642575
0.179692
0.717665
-0.0650971
1.17244
0.957308
0.0250548
0.100869
-0.00799817
-0.0351341
0.949154
-0.0397708
-0.0238969
1.20554
1.18836
-0.0338558
1.14438
-0.0858511
0.166299
-0.00632337
1.2158
1.24354
1.55901
1.20006
-0.00107831
-0.0200627
-0.000653081
-0.0404356
1.39287
0.453933
0.908015
-0.042518
0.814929
0.0134921
1.39811
-0.0151557
1.20014
-0.00599982
1.35208
1.43615
-0.0212272
0.221932
1.34166
-0.00101607
1.47201
-0.00798223
-0.00121963
-0.0302531
1.03986
0.353086
-0.0543591
1.13596
1.47212
0.726605
0.0444187
-0.0330856
0.053459
1.18279
1.43061
1.6248
0.44942
-0.00309781
-0.0202023
0.937957
-0.00189433
-0.0087082
-0.00231817
-0.0153378
-0.0662966
-0.0822951
1.27629
-0.00823119
-0.00049649
0.924259
0.384329
-0.00353537
0.227331
-0.000264459
0.365605
0.955724
1.15757
-0.0775625
0.268231
-0.00784714
-0.00471776
-0.00197771
1.19489
1.28935
-0.105086
-0.101485
-0.0940179
-0.0284842
1.15181
-0.0184939
-0.0554679
-0.0850486
0.0116636
1.51219
-0.0924046
0.0735706
1.21125
-0.00363723
0.182224
-0.0107142
-0.0748515
-0.00150276
-0.00116916
1.50264
0.774907
-0.10541
0.00346275
0.789223
1.12503
0.947765
-0.0321007
-0.031919
-0.0236157
-0.0293876
0.887069
-0.0213478
-0.0316064
3.41863e-05
-0.0240185
-0.000539187
-0.0742556
1.05189
-0.0666642
1.18898
1.15355
-0.0391225
-0.0195436
1.54719
0.812268
0.0874977
-0.0216974
0.711439
-0.0306893
0.671506
1.50408
0.542971
-0.0201845
-0.0241096
1.0434
-0.0387023
-0.0636721
-0.033745
1.31893
-0.0290852
0.0119152
0.691748
0.442973
0.93204
-0.0133664
0.519848
-0.0255384
1.20589
-0.0878466
0.272256
-0.0300788
-0.0341676
-0.000523416
-0.000590157
-0.000219525
1.31728
-0.042592
0.746544
0.152822
-0.0208311
-0.0608232
0.46715
1.56158
1.36511
-0.0376811
0.419199
-0.00386157
0.109191
-0.0221019
0.328622
-0.0399909
-0.00181066
0.89038
-0.0399618
0.00524102
1.30514
0.975128
1.21964
0.0472661
-0.0278264
-0.0149145
0.463318
0.0241105
-7.91119e-05
1.33712
0.177215
0.384703
0.0193758
4.65832e-05
-0.0116445
-0.000270428
0.351022
-0.00050381
-0.0225057
-0.00427536
-0.031139
1.38633
3.84305e-06
-0.038249
-0.0368726
1.44588
0.0106391
-1.68127e-05
-0.0752893
0.328641
0.86869
-0.0193048
-0.0171658
-0.0181227
0.915295
-0.022687
0.4466
-0.0782304
-0.0806244
0.23777
0.779796
0.203342
0.394981
-0.00151545
0.95784
1.45371
-0.0136097
0.649756
-0.047407
1.49209
1.42092
-0.0631905
0.11148
0.065845
0.741816
-0.000330331
1.16897
1.59665
-0.00405891
0.247707
0.450825
-0.000970924
-0.000219557
-0.0169317
1.56321
-0.0124929
-0.0391337
1.17004
-0.00261418
0.718371
1.21577
-0.026656
1.34822
-0.0326043
-0.0201869
1.2281
0.461784
0.92941
-0.00156523
1.21636
0.326833
1.15836
-0.0635712
-0.0100792
0.259069
1.33947
1.23077
1.36823
1.18866
-0.0331356
-0.0314655
0.0520278
0.805998
1.16256
1.44947
-0.0339349
0.62197
1.48211
1.06327
-0.000898524
-0.0388464
-0.0173596
0.262464
-0.010746
1.294
0.522899
1.15807
0.246865
0.00781807
1.16635
0.00690922
0.856223
-0.0602605
0.109719
-0.0131133
-0.0561441
-0.0572874
1.43665
-0.0538024
-0.0289613
-0.00362959
0.403
0.135689
-0.0277015
0.115738
0.00851293
-0.0601236
0.872383
0.455152
0.987035
-0.0890626
1.22156
-0.0583497
-0.000686598
-0.0122507
-0.00393347
-0.0815923
-0.0891114
-0.00136303
0.47881
1.3768
0.29673
0.139519
-0.0223383
-0.0598709
0.631221
-0.012465
1.49111
0.504826
0.00329093
-0.0243256
0.0532928
-0.0453803
-0.0210071
-0.0182991
0.0220976
-0.0783309
0.469435
1.40966
1.2685
0.382615
-0.00208157
-0.0319932
-0.00070677
-0.0125551
0.91286
-0.00592452
0.847696
-0.0552814
-0.0179407
1.38827
1.42543
-0.000771317
1.18098
1.25565
0.242418
-0.00381298
0.375931
0.909401
1.42175
0.695756
-0.0508845
1.38243
0.205755
-0.0322915
-0.0383604
-0.0604257
1.46241
-0.00620392
1.20741
0.537767
1.35932
-0.00660517
0.776226
0.717503
-0.0664715
1.23563
0.0377462
1.32663
-0.000198049
0.604753
0.864917
0.784708
-0.00206237
0.0374423
-0.00301521
-0.035672
0.622566
-0.0233052
0.727829
0.604846
1.57184
0.0113201
1.33618
0.00632686
0.00480195
0.0920557
1.17627
0.17841
0.00838243
0.137264
0.932277
-0.00421662
1.53559
-0.00151998
-0.0135671
0.123242
-0.0212602
1.19667
-0.0367793
1.27661
0.965424
0.292418
0.0975617
0.289497
-0.00095582
0.0804206
1.29908
-0.0393125
0.00429598
0.550611
0.130984
0.0447453
0.0982726
-0.0138367
1.38476
-0.0289415
0.0905682
-0.0177953
-0.0405038
1.15201
1.58237
-0.0300759
-0.0638758
0.0024065
0.198355
-0.000648089
0.236651
1.43156
1.3572
0.00305627
0.364042
-0.000306038
-0.0387051
0.973181
-0.00353247
0.482551
-0.0237389
1.538
0.900897
-0.0731132
-0.00506927
-0.0287382
1.53737
-0.0324311
-0.00152838
-0.0139457
0.270206
-0.0615158
-0.0198418
0.198794
1.3881
-0.0851312
1.48027
1.62945
-0.0246605
0.00117059
-0.000503039
-0.00189668
-0.0170206
-0.0352567
1.52016
-0.0208073
-0.00268343
0.863419
-0.0560313
0.955344
-0.00508769
0.00467174
0.875889
0.88634
-0.0731739
-0.0221326
-0.0604333
1.09306
-0.031366
0.558894
-0.0367099
-0.0136547
-0.0369976
-0.00871255
-0.00520373
-0.0846714
-0.0788041
-0.0529652
0.00720303
0.231476
-0.00196444
-0.0334587
-0.0596277
-0.0222723
-0.0197745
1.38825
0.0987477
-0.0287185
-0.00974484
1.06001
-0.00100247
0.902528
-0.016568
0.0736862
-0.00545526
0.939915
0.578821
-0.0414846
-0.0257308
-0.0298414
0.694831
-0.000413191
0.878878
1.04682
-0.0042562
-0.0118477
0.269673
0.286744
-0.0543139
0.235805
0.964772
-0.0214244
0.832165
-0.0417657
0.031987
0.787163
1.42641
0.0669358
-0.00269051
1.14776
0.687431
-0.0250413
-0.0423239
-0.0979966
0.0365415
-0.0226143
-0.0064596
1.0518
-0.0965126
-0.0242012
1.03159
-0.0414945
-0.0321699
0.418777
-0.0030758
0.339046
0.864197
0.0342204
0.77184
-0.0159535
1.36038
-0.0535424
-0.00043994
5.22959e-05
0.0416509
-0.000594304
-0.0180425
0.334782
-0.0203598
-0.00320722
-0.0308784
-0.0204477
0.429417
1.19777
-0.000200202
-0.0180911
0.00197069
0.749657
-0.062226
-0.0219614
-0.0237747
0.174179
0.448087
-0.0139521
-0.0103225
-0.0264374
0.940812
0.994976
0.212012
0.890934
1.24068
-0.00965967
0.786328
0.290538
0.0664105
-0.0224215
0.0347015
1.60284
-0.00482928
-0.0570982
-0.0370642
0.902176
-0.0124878
-0.00199312
-0.0357979
-0.040795
-0.00319563
1.20166
0.513395
0.736739
1.05539
0.900665
-0.0137459
0.347843
0.69607
0.0686875
1.16699
0.395632
0.508195
-4.4348e-06
0.672309
-0.0399438
0.36228
0.580562
-0.0806718
0.215166
0.174401
-0.0249631
-0.00758826
0.0615776
0.328451
1.41133
0.326798
-0.000115788
0.607851
-0.0188758
0.554355
0.430575
-0.0127528
-0.0274239
0.695316
1.16643
0.212331
-0.0426975
-0.0248207
0.466264
0.828485
-0.0345641
1.02842
-0.0262048
0.339451
0.0343089
1.29964
-0.00099108
-7.9562e-05
-0.00544148
-0.0254563
-0.0420033
-0.015715
0.762023
1.00441
0.00454846
0.504733
0.00513651
-0.0130688
9.01534e-06
0.455134
-0.0102839
0.442038
4.03976e-06
0.850896
-0.0346908
1.00755
-0.0690699
1.10796
-0.0382516
-0.0119691
-5.29906e-05
1.18163
-0.0370332
0.122523
0.286668
0.0078671
0.991906
-0.0116735
-0.00342656
-0.0262601
-0.00391688
1.20969
-0.00579161
-0.0261188
-0.0204102
-6.06418e-05
-0.0147655
1.0249
-0.000218398
-0.0400653
-0.00224333
-0.00251496
0.92843
-0.0851803
0.125175
-0.0326253
-0.000730482
-0.0116719
-0.0150514
-0.0264383
-0.000236788
-0.0121622
0.529287
-0.000351302
-0.0221627
-0.011892
0.303483
1.13297
-0.0140329
0.00250006
-0.0368753
-0.0283962
0.827479
1.00019
1.21915
7.32133e-06
0.386552
-0.033889
-0.0307557
0.485385
-0.0267892
-0.0124848
-0.0146437
-0.0100264
-0.022834
-0.0215027
-0.0147148
-0.0012295
0.0235777
0.846727
0.00942955
0.61249
0.179716
0.116806
0.48897
0.317339
0.722867
0.0546549
0.683055
-0.000838027
-0.0161979
0.62944
-0.0465868
0.911875
0.861943
-0.024795
-0.0376757
-0.000315758
-0.0268822
0.0311578
-0.0181894
-0.0184275
-0.0217764
-0.0160901
-0.0320505
-0.0298223
-0.0142117
-0.00765828
-0.0448182
0.723862
-0.0296133
-0.00202671
-0.0372284
-0.0026202
-0.0346379
1.00545
0.97788
0.416185
1.29377
-0.00336472
-0.0106854
-0.0279031
-0.00144428
-0.00552521
-0.000155952
9.39422e-06
0.395045
0.186503
-0.000161709
-0.0642889
0.251612
0.467967
-0.044603
-0.0171962
-0.00313267
-0.00522915
-1.77249e-05
-0.00222262
-0.0339807
-0.0333396
1.35447
-0.00126206
-0.0316612
-0.0237261
-0.0320658
-0.0127932
-0.0184235
-0.000599016
-0.0142346
-0.0239822
-0.0311602
-0.0403638
0.135492
-0.0176127
0.493142
-0.0266612
-0.00248892
-0.0056787
0.906372
0.946803
0.686919
0.0312949
-0.0671102
-0.0219498
-0.0687202
-0.0353014
-0.0710018
-0.0370266
-0.0693076
-0.00621367
-0.00933925
-4.6774e-05
0.157314
-0.00506893
-0.000100035
-0.00889212
1.42211
-0.0278597
-0.0855504
1.32622
1.37242
-0.0198088
1.34052
1.25352
0.854919
-0.00336117
-0.0939953
1.37609
-0.000346518
-0.00074087
-0.00649162
-0.0250921
-0.00910361
-0.00444888
-0.0242202
-0.0283959
-0.0261776
-0.0173546
0.000165907
-0.0435251
-0.0103305
1.5423
-0.0211805
-0.0151
1.53603
-0.00544233
1.45153
1.35129
0.837526
-0.0172126
1.54187
0.164362
1.08515
0.0167263
-0.000641133
-0.00774348
-0.0104337
0.109282
1.18737
-0.00207851
-0.000471795
-0.025872
-0.000220969
-0.112767
0.459032
-0.000143031
0.895866
-0.0444191
-0.0062563
-0.0358662
-0.0178109
0.2255
-0.00618992
1.36917
2.37528e-05
1.25157
0.00609337
-0.0296936
4.69714e-05
-0.035952
-0.0106755
-0.0337632
1.07591
1.16741
-8.52955e-06
1.37467
-0.0343237
-0.00163033
-0.0230885
1.26579
-0.110866
-0.000409689
-0.000740016
-0.000736027
-0.000658727
-1.76194e-05
-0.00163723
1.39276
-0.000124751
-0.0026122
-0.0109371
1.49243
1.6322
-0.00455794
-0.0389002
0.915826
1.52142
-0.040207
-0.0257423
-5.86599e-05
0.038256
1.21463
0.903885
-0.000675265
-0.0193498
-0.0355318
1.29187
-0.0786624
-0.0179709
-0.0158398
-0.0136469
-0.019487
0.975187
-2.64503e-05
1.32462
-0.00301389
1.45914
-0.00206889
1.35417
-0.0173816
0.150655
-0.0213448
1.88781e-05
-0.000175608
-0.00971109
-0.0195731
-0.0114607
-0.000521826
-0.00118134
-0.00245125
-0.0340695
-0.000564949
-0.01647
-0.0158415
-0.00114645
0.216421
-0.000832704
0.897501
-0.0262328
-0.0116958
-0.00108833
-0.0956097
1.51605
-0.0140343
-0.011343
-0.012129
-0.039222
-0.0191517
0.81653
0.967745
0.00431994
-0.0157334
-0.0273649
0.26546
1.32018
-0.0362545
0.824424
1.02334
-1.36486e-05
-0.0425006
-0.0196738
-7.67396e-05
-0.000226598
-0.000604865
-0.00010636
-0.00687156
-0.00872167
0.00699223
-0.022387
0.0223253
0.354152
-0.0555702
0.880827
0.162169
-0.0816171
6.87231e-06
-0.00019928
1.18456
-0.00228727
-0.0375276
-0.000453148
-0.0335976
-0.0170993
0.670271
0.134068
1.40119
-0.000405346
-0.000981379
-0.0289069
0.397886
0.00177481
1.32361
0.165854
-0.0222748
-0.0112493
-0.0554763
0.0166486
0.790619
0.0820883
1.21484
-0.0393974
-0.00036887
-0.00276949
-0.0141378
-0.000147673
-0.000803116
-0.00328331
-0.0173648
0.00531269
-0.0353763
-6.48912e-05
-0.0369613
-0.064602
-3.10798e-05
-8.73198e-06
0.00161214
-0.000256114
-0.000475951
-0.00736466
0.0523315
-0.000215407
0.122186
-0.012748
0.92264
-0.0309682
-0.0518233
-1.30378e-05
-0.0497014
-0.0419012
-0.0132253
-0.0083649
1.7299e-05
-0.00717737
-7.90213e-05
-0.0523392
0.0480878
0.236487
-0.0977669
-0.00042885
0.115891
-0.0780061
0.977873
0.668474
0.820537
-0.0011489
-0.00526598
-0.000299892
-0.00586378
1.23683
0.843224
-0.00352454
-0.00470679
0.57828
0.860688
1.41549
-0.000418754
-0.00366994
-0.0128488
-5.36658e-05
-0.000439793
-4.5751e-05
-0.002608
-0.00392353
0.918295
-0.018627
-0.00082626
0.0066289
-0.000501906
0.0255999
0.00313848
0.414868
-0.000476345
0.319889
-0.0397754
-0.0339048
0.282799
0.203224
-0.000348999
0.33366
1.31403
-0.0384162
0.955433
-0.0335681
-0.00508529
1.05399
-0.0027483
0.75363
-0.0024674
-0.00291312
-0.0506332
-0.00658567
-0.0164008
-0.000466729
-0.000470519
0.0442738
3.87602e-05
-0.0142702
-0.0294058
1.34186
-0.00527613
0.00116692
0.895757
2.55237e-06
-0.000395495
0.00107994
-0.00190577
1.30072
-0.00159906
-0.000437004
-0.0176432
0.209234
-0.0281094
-7.0247e-05
0.000171312
0.119079
0.00497901
-0.000351626
1.15198
1.48292
-0.00118496
0.0430465
-0.00183871
0.979282
-0.000643198
-0.00262439
-0.000115719
1.51602e-05
-0.0477799
0.00118926
-0.00015188
-0.102185
-0.00156597
-0.0416542
0.00016705
-0.000590933
0.00808165
1.06952
1.13478
0.000190458
0.663764
0.124501
2.46999e-05
0.874415
-0.00991658
0.000161638
0.00116676
-0.0101811
-0.000692727
0.0283944
-0.000969161
-0.0278356
0.280672
-0.0195481
-0.0153249
0.203217
0.652416
0.256789
-4.93428e-05
-2.99565e-06
-0.0147349
0.388904
-0.00680892
-0.0708183
-0.000125748
0.862567
-0.0862732
1.06947
0.542654
-0.0123721
0.352525
-0.000592191
0.908836
0.0566289
-0.0370573
-0.000204318
-0.00011682
-0.0104818
-0.0126286
-0.0090592
-0.0162487
0.282759
-0.00580685
0.492041
-0.000662367
0.00212658
-0.000426404
0.128608
0.0229159
-0.000966439
-6.41709e-05
0.0186444
0.421729
-0.0196315
0.0150787
0.0126683
0.150422
0.0102862
-0.000871345
-0.000283952
1.01407
1.1097
1.18335
-0.00037062
1.12187
0.993829
1.12591
-0.00186125
-5.27928e-05
-0.000311003
0.478456
0.74102
-0.0759356
-0.0407151
-0.0238912
-0.0155743
0.146195
-0.0105642
-0.00475969
0.802989
-4.60515e-05
-0.00984449
7.7632e-05
-0.0124213
1.13546
-0.0355898
-0.000744313
2.07344e-05
1.2648
0.944011
0.035109
0.361713
-0.00984257
0.0224599
-0.0123212
0.00963938
-0.00114039
-0.00659299
0.336115
-0.0159236
0.193461
-0.000353216
1.09116
-0.01871
-0.00895211
0.839475
0.021712
-0.01465
-0.0261229
-0.0193853
0.303837
9.0376e-06
0.000147409
0.837465
-0.000219643
-0.0166696
0.128229
-0.00055191
-0.00347789
-3.15944e-05
-0.0323618
-0.0207271
0.109686
-0.000205309
0.092125
-0.0219773
0.0781882
0.0655363
-0.0112781
-0.0189352
0.0552851
-0.0280347
-0.0115166
-0.00916208
0.625642
-0.0133414
-0.00455173
-0.000102035
-0.0274348
-0.0468976
-0.000213697
0.543757
1.03637
-0.0283578
-0.0195705
-0.0126832
-0.00536834
-8.29908e-05
-0.00776274
-0.00173872
0.0952463
-0.000441344
0.0150271
-0.0317649
-0.0221151
-0.000150482
-0.00034734
0.567791
-0.00251228
0.164881
0.69638
-0.0159217
-0.0427631
-0.0211418
3.69856e-05
0.144471
-0.0316339
-0.0251456
0.122429
0.300892
-4.00353e-05
0.103201
0.413714
-0.000366605
0.269856
-0.014084
-0.00456082
0.826469
-0.00470249
-0.000137784
-0.000370682
0.653993
-0.0849582
-0.0272798
-0.025548
-0.0133529
-0.00482759
-0.013896
-0.025442
0.234874
1.20746
1.38384
0.911639
-0.000286264
0.568433
0.20984
-0.0171188
-0.026252
0.579326
-0.0343347
-0.109847
-0.000507816
-0.0226115
0.750431
-6.47087e-05
-0.0628858
-0.0111737
-0.0020872
-0.000218692
0.909878
-0.0382531
0.864358
-0.0213046
-0.0171959
-0.000527522
-0.00026423
0.788365
-0.0176202
-0.00524796
-3.41014e-05
-0.0566458
0.0557475
0.27349
-0.0130478
-0.000922937
0.374782
-2.01217e-05
0.53431
0.247063
-0.00037618
0.572375
-0.0500771
-0.000271139
-0.0144347
0.000145926
-0.000446778
-0.00664771
0.612527
-0.0291983
-0.000547217
-0.0512342
-0.0122678
0.749157
1.12032
-0.000335339
-0.0170947
-0.00323604
-0.00954118
0.71893
0.0211985
-0.000410372
0.490653
0.205541
0.925469
-0.0129115
-0.000202796
0.535214
-0.00460416
-0.0300941
0.0264508
1.23023
-0.0378775
-0.0167268
-0.000451528
-0.00703315
1.21916
-0.0336399
1.44072
0.357063
-0.0119305
0.000116542
-0.0284345
-0.0217501
-0.000143312
-0.0162747
1.19508
-1.85697e-05
-0.0228831
1.21858
0.000174924
-0.0167852
-0.00016051
-0.000772928
-0.000169139
0.0784031
-0.00484278
-0.000653095
-0.0756605
-0.000887078
-0.000173083
-0.000115689
-0.000111268
-0.029015
-0.000131036
6.25973e-05
-0.0097969
-0.0211009
1.43129
0.101943
-0.00916621
-0.00230723
-2.95383e-05
-0.017833
-9.0187e-05
0.265807
0.825141
-0.00125378
-0.0225277
-0.0102016
0.170428
-0.00142229
1.51949
-1.52884e-05
-0.000137676
0.565128
0.00880892
-0.000163235
-0.032505
0.884419
0.000133275
0.784414
0.908123
-0.0201225
-0.0335121
1.09155
-0.0166952
-0.00034796
-0.0357236
0.48522
0.267196
-0.0370844
-0.000297146
1.1576
9.43944e-05
0.0192557
-0.00243968
-0.000693349
1.34798
-0.0011106
-0.000100253
-0.0225811
0.424767
1.44793
0.873924
1.54878
-0.00443445
1.32931
-0.000382629
0.653153
-0.00106544
-0.000299715
0.36215
-0.0214161
0.240053
-0.000287048
-0.0452916
1.46263
-0.0224546
-7.1762e-05
-0.000646234
-2.69203e-05
0.275582
0.000101902
-0.0318055
-0.000154704
-0.0245084
1.24826e-05
1.48505
-0.0157403
-0.0241019
0.177039
-0.0595431
0.349894
0.732958
-0.000178722
-0.0518883
0.46143
0.954609
1.52314
-4.31377e-06
-0.062354
-0.0600286
-0.000225137
0.52179
0.584684
-0.063334
1.23247
0.271142
0.375246
-0.0136202
0.833657
-0.0303692
-0.000490296
-9.4551e-05
-0.000187577
0.000180809
-0.000566
-0.0203728
-8.14151e-05
-0.000176056
0.00565895
-2.25037e-05
0.500036
-0.0316916
-1.72073e-05
1.46942
-0.000246515
-0.000219883
1.1133
1.52293
-0.0369095
-0.0143031
1.08077
-0.0077267
1.31109
0.150467
-0.000284132
-0.0598385
-0.0253977
-0.000474296
-0.000219973
0.775679
-4.39313e-05
-0.000189461
1.24544
0.000140991
-0.000602281
-0.0420757
-0.0201259
-0.0275049
-0.000296819
0.14574
-0.0292878
-0.000151096
-0.0276679
-0.000546943
0.613554
-3.67751e-05
-7.74969e-05
-0.000493653
1.20177
-0.00776804
-0.00325468
-0.00119042
-0.000169922
1.15269
0.00966169
0.258546
1.07848
-0.000138376
1.36424
1.01139
-0.00559146
-0.0596313
-0.000241746
-0.0180115
1.31198
-0.00033769
0.000161525
-0.000105954
-0.0311669
-0.00261744
0.000114883
-0.000294209
1.35024
-0.000114894
0.92547
-0.0196886
-0.0651934
-0.000107722
-0.0349506
-0.00137646
1.12037
1.14723
0.229134
-0.00148428
-0.0467253
-0.0553386
0.341769
0.236363
0.485474
-0.0789702
-0.0472902
-0.0365456
-0.000390395
-0.00121223
0.000109811
-0.0025052
-0.0017548
-0.00210904
-0.00226808
-0.00255122
-0.0277003
-0.0048046
-0.0028702
-0.0322644
-0.000533735
-0.00300345
-0.000198935
1.6458
0.219414
-0.00429088
-4.28624e-05
-0.00359266
-0.000156716
-0.000659428
-0.0039652
-0.00333937
-0.0419781
-8.1381e-05
-0.0365724
-0.00102898
2.44065e-05
-0.000264504
-0.030544
-0.037208
-0.00473703
1.20048
-0.0132487
0.89338
-0.0419573
1.27288
-0.0430503
-0.044721
-0.0459608
-0.0465751
-0.0466693
-0.0479246
-0.0477588
-0.000431846
-0.0481326
-0.0471713
1.1347
-0.0477606
-0.00495156
-0.045107
-0.000782214
-0.0519725
-0.0160043
-0.000113719
-0.00557837
-0.000159138
-0.00191905
0.0703354
-2.5845e-05
0.306434
0.969899
-0.0102629
4.64624e-05
-0.0297083
0.000242655
-0.00650662
-0.0110467
-0.0245586
-1.57023e-05
1.49548
-0.012868
-0.0210169
-0.00674839
-0.000147378
-0.00566919
-0.00255861
-0.0423125
-0.00760087
-0.0013177
-0.00854707
0.0856963
-0.000173915
-0.00034459
-0.00765259
0.0315925
-0.00164092
-0.00309842
-0.00208023
-0.000132205
-0.000262636
-0.00154651
-0.000201712
-0.00105206
-0.00372587
-0.00245534
1.11049
-0.000483121
-0.00193302
-0.00015396
-0.00108669
-0.00026927
-0.000250319
0.521643
-0.00881687
0.961054
-0.00526399
-0.000641809
-0.000150672
0.857417
-0.0481637
-0.000216969
-0.000270668
-0.000164226
-0.0107533
-0.00445077
0.00934771
-2.00667e-05
-0.0276904
-0.000352708
-0.00133521
-0.00083229
-0.00616035
0.000169078
-0.0428168
1.0827
-0.0466964
-0.010569
-0.000403073
-0.000119235
-0.0336013
-0.000183571
0.00369838
-0.00339926
-0.00357002
-0.000323546
-0.0109547
-0.00971731
-0.0889965
-0.0002526
-0.00013742
-0.0211252
-0.00017166
-0.00719063
-0.00539195
-0.0047457
-7.84065e-05
1.32457
-0.000112185
1.56136
-0.0122054
-0.00635182
0.00553752
-0.000159702
-0.000248945
0.042318
-0.000227913
-0.0387234
-0.000610759
-0.0456647
-0.0084088
7.03896e-05
-0.000314942
-0.0014525
1.32991
-0.000501464
-0.0263695
0.00380065
1.06549
-0.0405863
-0.0519351
-0.000232439
-0.0493024
-0.00926179
-0.0931732
-0.0149527
-0.000179965
0.00535316
1.43078
-0.0494111
-0.00217412
-0.00793229
-0.000207561
0.917114
1.06099
-0.000153981
-0.000605499
0.608242
-0.000405394
-0.00889999
-0.000155424
-0.000768728
-0.0304709
-0.033048
-0.0899983
0.0370789
-0.00133381
-0.000284993
-0.000324013
-0.0371811
-0.0128674
0.585431
-0.0150499
-0.000195494
0.984763
-0.0043791
-0.00123327
-0.0465729
-0.00697558
-0.00162894
-0.000386918
-0.000571929
-0.00218227
-0.0191748
-0.000265551
-0.00113474
0.592038
-0.00921054
0.593692
1.25259
0.000390048
-0.00298246
-0.0718697
-0.00991288
1.4509
0.00738786
-0.00125305
-0.000118899
0.833339
1.3473
0.406779
0.0693692
-0.0358387
-0.000296032
-0.0286817
-0.000884375
-0.000323175
-0.0109658
0.84283
-0.0286168
-0.000560793
-0.000498526
-0.00192733
0.170519
0.847195
-0.0179002
-0.0253381
-0.00225829
-0.00143821
-0.00121271
1.29732
0.000644938
-0.000238669
-0.000203791
-0.00176372
-0.0205165
0.182832
-0.00884074
-0.00586284
-0.0199937
-2.55207e-06
0.0082095
0.685
-0.0365396
-0.00076972
0.00810996
0.881402
-0.00274549
0.227428
1.08975
-0.000242368
-0.000143877
0.208674
0.637329
0.327517
0.501725
-0.0443054
-0.000749089
-0.000279552
0.820718
-0.0171153
-0.00058109
-0.038522
-0.0143191
-0.0456568
-0.0340472
-0.00329398
-0.000296135
0.762429
-0.000367586
-0.0310943
1.14206
-0.0240806
1.06373
4.39156e-05
-0.0290666
1.00041
1.45703
0.00208756
-0.00802478
-0.0125765
-0.000461226
-0.00454861
0.976753
0.0051125
-0.0328474
-0.00383935
-0.000607602
-0.00186513
-0.000186358
-0.000246745
0.64918
-0.000172635
0.00191519
-0.00263775
-0.00331474
-0.000496403
0.384983
0.791193
-0.0417159
-0.0438209
-0.0456544
-0.00034233
0.00153245
-0.000106759
-0.0447951
-0.046084
0.507572
0.923555
-0.046654
0.439627
-0.0121079
-0.0329486
-0.0113417
-0.0463815
0.432543
0.321517
-0.0469322
-0.00374167
0.973903
0.568083
-0.00485757
-0.00024847
-0.000497489
1.31366
-0.00105935
-0.000201372
-0.00312886
-0.00126042
-0.000788705
0.000236357
-0.00151874
0.00623125
0.281234
-0.037445
-0.000218182
-0.0288913
-0.0318061
-0.0132895
-0.0313682
-0.0417428
-0.000995922
-0.00086544
-0.00365728
-0.0148929
0.91571
-0.00198825
-0.00435285
0.0304058
-0.000135302
1.25332
0.85297
-0.0319534
-0.0024003
-0.00143433
-0.00291222
-0.000363273
0.929842
0.0643305
-0.00117663
0.0251097
7.30801e-05
0.0206615
-0.00115141
0.017302
0.0141094
1.16894
-0.0118727
-9.84666e-05
-0.00608902
8.23358e-05
0.496592
0.676875
-0.0330642
0.806157
1.3384
-0.0127983
-0.0212316
0.771225
-0.00350876
0.0547835
1.26238
0.71896
-0.0103349
0.769804
-0.00527985
-0.00450478
-0.0010398
-0.00106806
-0.0467305
2.89345e-05
0.0376735
0.0237885
0.0142879
0.00368655
-0.0191896
0.146526
-0.000311975