/*--------------------------------*- C++ -*----------------------------------*\
  =========                 |
  \\      /  F ield         | OpenFOAM: The Open Source CFD Toolbox
   \\    /   O peration     | Website:  https://openfoam.org
    \\  /    A nd           | Version:  7
     \\/     M anipulation  |
\*---------------------------------------------------------------------------*/
FoamFile
{
    version     2.0;
    format      ascii;
    class       surfaceScalarField;
    location    "24";
    object      phi;
}
// * * * * * * * * * * * * * * * * * * * * * * * * * * * * * * * * * * * * * //

dimensions      [0 3 -1 0 0 0 0];

internalField   nonuniform List<scalar> 
11512
(
143.966
-500.463
356.497
-761.216
-0.654888
761.87
408.348
-370.521
-37.827
636.644
266.467
-903.111
1510.85
-1069.36
-441.489
1216.29
-1527.13
310.84
-56.9466
472.194
-415.247
168.472
-841.911
673.439
962.103
-1610.81
648.705
-1761.31
1668.64
92.6737
-542.944
1759.23
-1140.71
1934.48
-793.773
608.097
180.748
-788.845
-24.8888
-1314.84
1339.73
221.073
-1982.39
1022.5
-382.553
-639.947
-183.198
327.164
485.641
190.144
-675.785
1155.02
-1313.37
158.356
-316.707
375.34
-58.6333
1004.27
-1315.46
311.197
1221.52
799.325
-2020.84
73.1034
-1640.67
1567.56
-476.13
-1168.19
1644.32
476.694
181.443
-658.137
-187.008
-313.455
498.092
1012.76
1647.86
-1805.41
157.553
-89.7391
-1690.95
1780.68
-1558.88
652.466
906.416
-307.551
652.454
-344.903
-193.458
-153.764
347.223
1285.06
-1211.95
355.164
-1407.38
1052.21
-1754.37
1754.37
100.022
1532.28
-1632.3
-1079.66
-479.223
637.261
-694.207
-384.7
941.287
-556.587
1331.95
-1317.31
-14.6381
-1099.98
715.283
625.768
396.731
-397.896
-27.8288
425.725
-450.895
783.19
-332.295
-1618.57
1618.57
1253.59
-1437.9
184.306
-488.634
1710.15
1254.7
-313.411
1660.75
-1161.26
-499.489
69.1208
-385.828
2065.46
-1135.17
-930.291
1813.52
-165.659
455.898
155.507
-611.405
-461.575
972.545
-510.97
-1170.78
1270.8
-568.268
970.584
-402.316
400.35
754.667
661.115
-492.643
-436.569
592.611
-156.043
1190.64
-835.479
2308.19
-1080.66
-1227.53
1163.74
-2008.96
845.222
-1602.62
1577.73
440.651
-1581.36
-759.221
1250.77
-491.552
-671.444
363.892
1661.45
-699.351
-1106.93
-870.893
1977.82
684.407
-373.696
-310.711
689.58
565.118
-258.203
1511.79
108.163
-314.031
205.868
-284.029
760.723
-333.749
565.718
-231.968
-323.898
809.539
-316.896
-146.819
463.715
320.283
88.0645
1459.28
-455.018
-983.949
487.054
496.895
272.496
91.5239
-364.02
949.018
-340.92
-1700.19
649.776
1050.41
17.7932
-856.161
838.367
-280.628
593.947
-313.319
157.156
-1093.73
936.575
1051.82
-1067.29
15.4745
372.63
518.728
-891.359
-244.467
700.365
-1103.65
-482.128
1585.78
-678.792
951.487
-272.696
1355.99
-1445.73
-641.73
282.325
359.405
-470.182
-1011.57
1481.75
-538.439
-793.954
1332.39
576.293
-996.211
419.918
-268.561
-317.78
586.341
403.141
-294.978
-1039.49
577.912
955.298
-798.142
-110.26
944.062
-833.802
-210.288
416.549
-206.261
-628.978
-354.971
-386.503
962.796
1856.39
-1856.39
-472.123
-169.607
-950.043
1558.23
-608.182
497.633
-929.489
431.855
-923.372
355.104
-941.909
-1058.08
-1491.41
344.527
1146.89
-277.007
913.651
-320.009
618.869
-298.86
-1941.9
999.994
-1140.97
-350.446
553.705
-1503.75
1728.5
-1725.63
-2.87249
202.29
-605.545
403.256
-1460.07
974.143
485.922
283.229
216.059
-499.288
310.296
-644.045
244.246
-420.503
176.257
2015.18
-873.842
-1141.34
-546.374
148.478
616.501
835.821
-1452.32
-182.628
426.875
431.227
876.74
-1307.97
-906.257
392.444
513.813
-1046.79
1447.14
-1068.89
309.666
750.239
-97.7854
558.918
-290.661
-268.257
1009.52
-522.462
593.283
-1403.83
810.547
-1342.2
238.548
-545.336
264.708
-1182.78
905.769
1945.64
-980.494
-965.141
276.805
1579.58
-2095.01
895.412
1199.59
368.835
-29.9974
-338.838
-223.495
483.894
-260.399
-103.9
-382.804
486.703
-462.978
146.082
342.223
-129.193
626.826
419.862
380.984
-800.846
-2037.96
1116.26
921.699
460.131
-529.601
69.4706
224.352
-366.537
142.184
1017.43
997.748
1784.56
-252.274
732.457
-450.131
796.679
-1389.6
592.919
352.642
331.765
1053.72
-1035.93
-496.194
-234.472
730.665
473.323
-134.111
-339.212
797.305
-616.557
558.262
-723.514
165.252
503.325
1157.42
-1239.77
701.334
1041.07
-1517.2
-3.13419
-1439.43
1442.56
325.627
824.316
-1149.94
623.277
269.742
-893.019
-2269.57
1141.93
1127.64
-1097.75
-1171.82
199.722
358.54
958.497
-632.87
879.524
-899.157
19.6336
-2099.38
992.453
-231.632
-191.086
422.717
-41.7693
1770.27
-831.603
70.3873
-1028.48
-1066.52
-229.154
453.506
-677.756
205.633
-274.895
-423.982
698.876
1104.04
-1574.22
782.993
-1374.42
591.43
694.047
-427.58
1947.87
-1444.54
-378.279
-1376.09
73.8613
398.332
-531.64
530.986
19.1937
-574.402
555.208
568.147
-284.918
-603.477
279.635
323.842
781.546
-361.684
32.8826
335.952
1188.47
-1191.61
172.261
230.881
393.219
-668.113
619.598
-1006.1
-2026.71
2026.71
-259.358
-445.99
705.348
699.233
405.784
-1105.02
578.818
171.421
405.679
375.866
-2199.75
1328.85
-926.461
-679.117
1605.58
-484.921
-697.856
-255.452
549.992
-294.54
826.693
-195.992
-630.701
-446.932
649.222
365.584
-685.592
-367.739
-129.415
497.153
-1329.96
-475.457
629.911
-1114.83
-374.137
-1244.43
844.33
1463.86
298.392
-942.506
644.114
965.748
-339.98
1391.37
-798.084
441.599
-269.338
-327.439
-871.181
567.883
303.298
-330.499
-540.682
310.484
-414.384
-213.928
-148.418
362.347
-392.679
1091.91
434.867
-244.723
-392.916
1353.01
-170.172
-1182.84
-470.703
287.56
183.143
224.121
259.029
-483.15
23.3744
-746.889
592.099
-1729.01
1136.91
1482.57
-866.068
-1048.69
-411.379
-1056.68
573.328
483.352
1380.45
-406.302
929.199
-1411.33
-159.014
-199.022
358.037
-469.28
580.287
-1627.07
427.968
903.978
287
297.63
-584.63
568.077
1186.29
1103.22
-713.508
-389.714
400.508
-216.023
-184.485
-1419.46
445.34
738.015
-1183.35
1473.29
-544.089
-488.258
930.024
-441.766
426.145
1186.16
-1612.3
47.2846
-726.076
-146.473
418.969
226.077
-419.536
532.97
476.546
-614.007
61.5223
552.485
1024.54
-1307.67
283.132
664.962
-259.282
468.255
-1447.23
978.972
402.789
1686.8
-523.068
908.011
1037.62
-660.907
-1684.51
758.054
563.573
400.801
-964.374
454.598
78.8086
1749.97
-1828.78
1443.74
-379.472
-1064.27
1699.12
-1740.89
-367.101
-525.839
721.086
-195.247
-502.589
181.321
292.001
-372.934
-1226
214.429
-764.55
-639.279
-650.84
997.837
-346.996
-654.178
644.38
9.79799
655.123
-923.791
268.668
-766.693
389.446
377.247
-648.392
-688.875
348.088
340.787
-932.309
1400.56
-417.179
886.743
-469.563
-2205.31
5.5578
177.115
-533.446
356.331
142.301
1210.71
-100.565
-577.191
158.1
-594.668
1487.13
-704.133
380.143
-462.176
82.033
-570.483
570.483
1223.11
395.458
1777.93
-1228.49
589.177
639.313
849.777
-52.4725
1291.65
773.812
-540.142
1336.82
293.181
300.766
272.173
-798.012
241.489
-692.385
231.372
-443.761
212.389
-240.101
577.847
-337.746
120.562
-360.663
-591.908
-564.469
1156.38
-372.798
543.278
-170.481
-1192.16
2032.04
-839.886
1289.31
-330.817
-406.222
137.662
-1980.71
812.521
1533.33
-847.76
-685.572
1986.96
-877.43
-1109.53
713.539
575.775
-239.228
470.6
-674.717
1143.27
-468.55
-769.979
1201.21
551.631
924.612
-1725.09
800.478
-546.667
-77.3816
624.049
301.684
257.234
408.738
-95.0129
-313.725
896.898
-83.4054
-813.492
920.554
-564.867
-355.687
1576.2
-472.162
890.04
-1626.9
736.855
1068.48
879.388
747.637
-441.21
-306.427
-1059.05
-258.26
563.402
577.531
-1140.93
-463.003
514.554
-51.5516
574.482
-342.025
-232.457
-984.234
567.054
595.329
887.24
-441.783
1096.91
1414.57
-779.201
-635.37
394.625
-923.813
529.188
-1028.05
399.075
556.231
-1044.49
461.669
-537.08
75.4104
476.417
306.773
-521.956
-48.5269
-794.173
-878.701
1672.87
191.904
208.604
-215.707
415.429
-27.7798
-559.603
587.383
494.21
868.094
-1362.3
-520.498
306.57
985.96
-89.0621
836.246
-1064.72
228.473
400.162
846.107
-1386.25
-451.183
832.167
1978.4
-1284.77
-693.633
270.181
609.343
255.97
795.845
85.7666
-967.543
881.777
1673.73
-1089.05
-584.686
-137.858
1887.83
-1866.06
-160.656
483.602
-621.701
138.098
-1013.18
526.445
486.736
-1730.48
538.319
-955.795
845.535
391.15
201.461
586.936
-288.544
-420.832
709.943
255.805
72.0324
707.95
-779.982
-1126.16
-902.25
2028.41
-539.725
1106.01
-566.286
-473.363
-342.464
110.832
-1655.03
860.856
-861.758
-599.712
1461.47
-332.158
-294.669
626.827
355.076
-647.606
292.53
245.522
-607.205
324.16
199.887
-524.046
352.155
-607.607
619.22
-264.144
312.997
-459.817
677.172
410.023
-185.901
-391.265
-297.61
1220.69
-2.65224
-1218.04
1039.52
-419.919
560.14
410.444
-1782.37
869.818
912.547
490.861
551.196
-1042.06
-535.788
203.629
-263.163
1180.95
-917.788
-1590.88
1212.6
504.551
-1096.46
384.358
-4.2154
428.317
307.033
-735.35
372.218
-616.685
-33.0418
756.477
-723.435
-526.19
795.932
388.913
322.603
527.174
653.182
96.6402
-407.773
311.133
1058.96
-645.319
-413.636
494.014
-1664.27
1170.26
-1140.42
1753.23
-612.813
1715.82
-1123.72
-333.411
613.046
-1182.06
1267.83
425.297
-798.082
1604.58
-806.502
-264.818
-205.885
-890.199
1470.33
1813.03
-611.07
-1201.96
-404.643
650.237
-1301.08
-124.825
-50.4424
459.18
-681.974
-354.166
-1236.72
-218.743
464.265
903.52
-558.612
175.808
-1674.6
-71.2114
1745.81
-1068.38
528.651
568.021
-1182.72
614.696
900.979
912.055
630.782
619.991
689.361
240.664
-1136.95
462.23
-397.742
416.936
618.23
-514.95
242.84
-731.077
488.237
696.863
-344.222
-334.294
180.53
-605.413
243.259
362.153
-887.315
-739.581
1087.67
-2145.75
399.047
-683.076
-342.797
-724.493
834.311
580.26
-341.169
313.341
373.671
216.941
646.401
-863.342
526.525
616.742
-540.538
172.799
357.814
-617.172
-1034.86
-858.663
1893.52
-1797.94
157.269
1106.99
-1370.15
1157.84
-721.05
-436.791
-503.661
1349.77
-1495.51
627.867
867.646
-289.064
-210.609
499.673
1428.4
558.559
349.193
-478.608
-483.089
-568.316
1051.4
-419.775
596.89
1582.41
-1129.49
-452.926
-777.957
331.967
654.875
404.08
-1623.42
416.161
1207.26
-187.108
511.268
797.74
784.674
199.694
-690.159
490.465
206.867
209.682
-293.158
-107.669
400.827
492.821
-1.79948
-491.021
-1637.86
589.178
-1606.28
1672.94
-66.6646
11.3835
-1617.66
1069.6
768.009
-339.692
-811.911
-216.143
-1134.51
-239.916
-311.132
683.349
-1812.46
-630.692
1208.22
214.502
758.043
-1330.4
-678.556
-465.462
615.754
-328.754
-1013.28
1350.76
-1932.85
582.094
646.401
1288.08
487.352
-3.45829
717.382
705.75
-1423.13
-637.041
333.892
303.149
440.827
-99.4026
-341.424
146.685
307.209
154.986
-462.195
-586.881
1150.45
459.985
-633.484
-461.758
-401.45
863.208
-327.126
168.111
-455.254
160.276
-304.393
-708.787
549.749
-108.922
-572.221
966.846
581.35
-270.126
-311.223
455.548
-779.446
-646.758
448.637
-1129.41
-838.389
1182.92
-569.761
449.944
280.721
-457.035
83.3386
1028.54
-317.72
594.595
-276.876
-509.024
1578.63
-682.759
241.756
370.083
-611.839
221.342
488.639
-30.1741
-458.465
-257.951
-197.303
1019.51
1108.93
564.802
-877.127
943.579
-66.452
-458.921
169.857
-735.081
311.099
-590.633
323.91
372.953
829.117
-1237.03
407.915
776.955
-809.996
-948.961
-550.361
1499.32
-169.535
467.165
-551.011
260.349
1300.01
779.875
-580.181
1314.81
-684.895
487.26
-673.259
-405.85
-423.382
-378.052
801.434
502.622
-843.542
-459.981
95.5742
364.407
-323.156
572.408
728.271
-329.224
-243.558
-172.791
416.348
-488.822
137.26
351.562
1458.53
81.287
-1539.82
-751.854
1347.18
-1144.74
-466.065
539.98
-169.897
1150.79
-373.837
1083.5
492.697
696.837
-424.664
-885.066
-522.311
-1328.43
-25.1836
985.005
-959.821
593.846
334.374
-928.22
-335.842
-210.531
-674.856
405.521
1621.19
-184.111
373.547
345.001
-718.549
-1839.77
-2106.68
1519.14
587.54
-2036.93
345.986
366.97
533.558
-900.528
-460.033
1020.17
-398.749
-670.898
1069.65
-2030.53
1391.21
639.322
596.677
-995.425
41.4527
420.217
386.157
193.658
247.941
319.105
963.647
867.932
678.963
-325.404
-353.558
-293.367
620.221
-326.855
572.741
530.481
565.381
514.729
-1080.11
-796.221
-699.292
752.019
398.772
-411.423
703.953
-1193.42
1609.58
423.47
-1094.37
-339.33
539.217
-1381.36
872.937
508.426
-713.477
-351.226
-780.538
357.248
423.29
446.986
718.271
-1165.26
1072.05
-581.189
-412.087
663.408
-251.321
255.306
326.044
-468.113
-431.744
899.857
-233.658
562.623
-956.051
393.428
-458.976
600.598
-1681.26
423.653
670.984
-1094.64
520.403
98.4661
113.408
-2212.79
538.784
-88.8403
1444.14
1777.09
-217.552
-1559.54
-438.443
1789.2
-1986.98
1194.48
792.504
401.405
346.232
-38.4763
872.787
-1283.23
718.763
-869.563
-822.485
797.301
300.509
67.363
-367.872
232.355
187.109
-419.464
1554.95
-837.572
-1530.96
-325.43
495.404
-219.016
-276.388
394.76
365.963
254.293
361.46
-9.37656
1001.86
-992.483
376.68
285.425
-662.105
-734.064
1817.31
-1083.24
-342.156
736.917
-1219.24
-413.062
-915.129
483.385
577.592
-781.451
203.859
760.837
-380.276
-380.561
-430.164
-446.963
449.395
1082.76
1237.96
-669.934
800.636
-345.088
382.925
322.423
-241.674
-220.502
-208.409
611.198
407.547
-847.139
439.592
222.842
350.49
-573.331
-422.584
830.13
754.568
-1147.25
887.655
-58.5371
-488.291
277.099
776.623
-95.9462
1384.03
1890.5
-55.6752
343.235
-316.864
413.505
-1086.36
1076.98
630.973
375.76
385.077
79.7212
415.683
262.018
499.853
-372.314
-264.728
-564.85
-89.3277
-361.24
363.425
-2.18532
-256.582
-288.754
1011.02
-1540.69
529.67
-189.924
-180.597
-386.066
671.492
-1636.47
1591.03
-963.158
264.276
-670.126
584.313
1224.42
-1808.73
607.396
983.63
312.81
-1121.69
700.857
-285.668
-298.963
1378.24
-1447.32
828.687
618.631
429.143
-633.193
204.05
-379.642
479.584
-99.942
379.653
113.167
1723.94
457.324
-250.457
557.625
-1704.79
1147.17
-94.6538
393.481
342.283
336.68
-448.39
-615.641
1064.03
414.992
-866.175
-641.066
902.859
570.43
-514.921
-251.772
-438.612
-408.526
-307.252
-827.255
1821.12
-1821.12
-103.729
-1591.7
1695.43
292.993
281.489
-917.233
-555.337
1472.57
-408.051
973.432
-598.323
-1039.54
689.673
393.453
-1083.13
473.867
-160.87
573.061
1220.35
-1793.41
-1040.01
2114.39
-1074.39
-375.261
-296.183
-487.932
819.899
-1753
1602.01
150.99
1753
-1606.71
-146.285
-245.427
522.635
-277.208
-537.277
1620.78
1565.96
-1979.02
1088.75
-291.504
-262.57
554.074
231.235
-570.565
-701.001
289.578
1341.73
636.674
581.286
482.476
-1063.76
274.894
421.943
875.428
500.076
-1375.5
534.932
-1018.02
1574.93
-563.918
-774.802
-361.178
-129.756
490.933
-489.94
1208.21
-741.568
333.28
367.085
373.052
247.975
-621.027
604.287
831.8
-603.326
262.781
680.798
-514.921
-327.731
-237.122
564.854
1168.54
-674.923
609.353
466.162
-1075.52
-1293.56
1293.56
-386.114
761.874
-281.663
-478.311
759.975
492.548
443.434
-935.982
391.139
-672.802
609.084
-868.757
259.673
-366.941
-492.966
1074.25
-661.047
-710.641
1371.69
-376.679
939.302
-1552.7
675.271
32.2862
-421.9
389.614
-515.248
720.881
256.952
320.895
168.791
305.076
-524.587
238.919
1869.6
-1965.55
263.084
-710.016
452.52
-821.977
369.457
-913.369
1415.56
-502.188
-429.521
-485.608
600.729
1124.19
-1724.92
-714.272
339.011
-461.119
1033.86
-783.943
1046.72
-379.337
-626.778
-493.931
735.42
540.233
-358.79
907.54
-308.996
-179.826
1599.02
-1816.57
-346.738
-609.313
-340.028
477.288
268.887
-597.64
-176.269
1064.75
-787.653
203.375
-293.183
-275.836
569.019
392.191
-881.999
489.809
-484.655
-455.845
-942.506
-355.846
585.717
-229.87
-451.926
-432.428
-341.403
-182.643
-396.753
644.728
-445.739
768.161
-1072.55
624.158
-1406.67
544.909
-28.1453
-1836.2
1864.35
569.893
-449.674
1221.81
-693.162
336.136
-336.136
671.347
-443.655
1039.74
-1638.06
-1158.73
-947.948
292.021
328.2
888.814
715.77
-500.598
-302.334
802.932
1658.2
-1686.35
-434.3
343.319
224.828
1134.69
-525.337
-943.333
1550.47
-607.142
442.154
-248.497
375.107
389.365
-764.472
535.017
469.99
-1005.01
-330.873
664.154
-37.9148
1907.52
1593.44
992.799
-1696.93
727.091
-1177.02
449.927
-492.443
1367.87
837.517
-1341.18
-566.367
274.863
801.581
-400.78
550.84
-1189.34
638.495
-636.536
-1215.54
-695.652
1911.19
-190.871
553.056
-362.184
-177.34
313.692
-504.563
330.47
367.959
-698.429
-1484.79
756.714
728.079
884.094
-1434.46
823.957
-431.513
213.372
-359.845
-598.773
271.041
-645.626
-735.738
698.496
506.248
-1204.74
387.474
-202.442
-185.031
555.862
-958.178
-572.183
-425.77
736.869
-831.294
-1155.69
-1437.95
499.637
938.318
7.18333
-643.687
345.955
297.732
-1316.2
1046.58
269.618
-616.534
-456.015
-665.725
921.695
398.039
-197.872
-200.166
508.203
980.643
-1488.85
978.451
-564.884
167.507
397.377
-406.343
677.718
-414.634
-505.943
165.915
234.29
-1519.06
528.272
543.777
-763.112
247.864
146.852
-455.848
365.648
-821.492
1954.16
-1195.39
-758.77
421.635
-682.411
260.776
325.942
331.207
112.981
-444.188
-572.067
193.9
263.424
-691.691
1374.33
-682.64
423.877
468.297
-1181.77
266.053
1866.78
-1013.59
-853.188
784.91
-538.723
182.877
1402.36
-975.192
-427.172
330.223
-773.877
-616.505
1725.44
610.344
627.611
323.131
-22.6219
265.631
-1138.43
1725.71
-587.285
-1763.52
820.19
1757.95
-1688.16
-69.7824
-660.933
263.191
570.93
-722.031
228.1
1402.59
-565.077
386.057
446.111
-1858.57
1420.13
559.9
-438.835
-121.065
201.41
-542.813
-285.395
-187.968
-352.476
694.759
-581.958
220.78
612.66
549.863
-1162.52
1113.62
-1947.46
833.837
155.383
341.77
-1699.14
1661.22
311.299
-735.963
-166.347
379.718
756.479
679.179
-1435.66
1078.04
-1080.69
525.011
-1106.2
-628.436
252.08
376.356
531.292
-288.032
-607.791
-1030.27
290.968
-723.396
-912.321
173.414
162.102
225.372
396.558
289.213
-685.771
-631.877
-834.025
-978.434
489.279
-1061.35
-300.736
483.879
534.317
648.599
-281.635
-124.587
-410.949
723.759
266.655
-1199.85
567.972
1309.78
-553.298
442.502
-1014.69
-390.557
157.895
402.005
1023.35
551.587
-1716.19
1612.46
1631.56
-568.26
-1063.3
1903.82
-1892.49
-11.3278
215.367
-532.231
-352.444
555.819
-768.377
-325.156
-335.778
1023.76
701.975
-1506.22
804.242
336.778
-26.1898
1625.21
-1088.82
413.897
-1241.55
466.744
-60.687
1519.22
1197.35
-470.255
-489.787
-75.0972
-270.75
736.02
-1951.56
-709.5
355.004
-532.56
177.556
192.317
-510.037
1139.91
671.557
-1811.47
-619.754
180.92
941.99
-1497.33
-210.458
678.884
-468.425
873.172
1126.83
-739.478
1349.82
617.088
-489.497
-127.591
-344.95
1173.64
1042.6
-1979.68
937.077
-1173.44
542.743
1488.73
-585.874
-391.976
-148.561
-1242.24
572.302
1160.52
-110.102
946.083
775.593
-1721.68
-203.608
578.501
-1541.71
963.212
486.963
916.653
-1403.62
622.281
585.943
397.901
-1106.64
591.907
1108.41
1216.48
-452.411
-764.073
-1186.2
-1754.93
-6.77111
-1709.42
-202.964
-430.229
1607.97
-629.769
-978.202
-490.799
1121.58
-1318.42
635.563
682.856
-1362.18
1443.46
-1331.07
591.595
1520.49
-388.196
-578.836
186.86
-1481.63
227.956
176.368
234.602
382.486
438.095
402.158
-840.252
506.301
-939.024
900.689
-1444.78
-704.719
234.36
470.358
-1045.58
458.695
-477.97
864.026
695.36
23.1185
-530.931
168.746
-886.565
-1318.74
-714.41
349.414
364.996
402.139
-722.154
320.015
-478.74
-189.264
-709.894
720.657
1539.66
-593.576
817.027
737.926
1344.78
-844.705
-971.269
-570.443
-796.025
427.521
368.504
-1036.45
-641.293
303.69
337.603
-1433.69
-296.783
-789.912
397.826
392.086
-656.036
409.177
246.859
-682.09
267.457
412.366
487.491
389.382
440.748
478.993
384.214
596.663
-969.597
683.763
466.69
453.691
356.172
-809.863
1630.76
-1079.9
-550.861
-504.528
-286.707
-1029.49
454.16
347.274
409.438
594.088
-1003.53
-1381.36
751.589
-531.857
1146.55
357.99
-50.7807
411.801
-864.944
453.143
-1895.15
303.452
441.572
-726.133
284.561
-187.286
401.587
-214.301
-660.451
305.139
355.313
-673.066
319.508
370.26
391.615
612.769
-1020.82
752.887
662.24
-1415.13
438.626
625.405
339.976
392.733
-732.709
409.186
327.731
601.097
673.154
409.602
598.219
-1025.44
427.218
-1669.73
1191.51
478.225
1696.59
-539.17
620.523
-1147.01
526.485
-642.723
348.054
437.036
-934.789
497.753
757.971
-450.938
350.255
344.504
573.651
-920.389
651.506
-1252.74
601.231
380
734.706
-1224.65
769.487
509.518
-1279
488.501
405.008
-893.509
-501.649
-936.305
-298.997
629.467
352.334
541.913
-894.248
332.821
331.333
-502.179
1944.74
437.187
-847.08
409.892
-917.767
-807.324
-747.775
367.214
-1222.02
438.081
-1735
1606.71
128.289
1747.03
-1602.01
-145.026
-783.7
-591.345
265.333
326.012
-1757.95
1979.02
538.479
791.478
-1329.96
440.013
716.365
690.348
385.529
-1075.88
-72.5884
1617.13
-593.779
386.737
835.076
-649.719
326.804
322.915
-377.731
-297.514
552.82
-217.944
434.003
281.054
-666.065
385.011
264.297
-577.616
-282.211
442.365
-1033.3
590.933
538.039
1092.72
365.853
596.943
312.751
353.479
-666.229
1625.77
-923.797
1691.93
-1520.58
-171.35
-327.048
-822.642
414.116
857.534
-1067.99
-605.601
278.747
-1090.6
1628.64
-1586.3
-77.7665
1664.06
-340.269
-349.271
-369.376
537.453
597.236
-501.585
-28.0166
-550.011
504.679
-282.055
-222.624
1749.66
-1300.26
-624.035
298.934
325.101
400.328
357.212
734.701
-295.835
-398.361
-1747.03
1686.35
459.429
-1100.82
641.393
-43.0308
1655.49
571.326
476.309
-1047.64
104.808
1144.82
-1452.07
-14.0087
-1881.14
227.471
-598.265
306.682
291.583
-955.41
612.613
-897.845
468.325
-1128.46
673.469
454.99
374.16
268.304
-768.902
-309.22
1216.62
886.741
699.041
-1182.93
456.088
726.842
494.273
700.781
-1195.05
-358.721
-245.878
407.98
-960.362
438.294
522.068
21.2492
-1879.82
1079.75
-470.666
-500.527
558.149
-1378.13
819.983
-428.699
798.156
-404.835
498.682
-706.442
1725.95
408.388
-183.016
217.226
-168.857
-243.991
412.848
1895.32
-504.113
-1693.5
1051.39
-602.237
304.723
-1013.56
553.526
-311.563
544.268
905.29
-1449.56
-1103.75
438.023
-20.8309
-1944.72
1711.27
-668.668
-540.684
460.653
-1190.46
729.807
192.144
205.895
-282.634
770.322
700.005
837.906
818.375
-462.203
1084.83
-479.984
476.337
-193.082
-283.254
-1923.26
-714.257
-317.211
-644.632
-6.97409
651.606
464.722
-270.823
565.754
1060.02
-805.614
924.527
1244.22
-424.816
-190.237
-227.182
417.42
959.993
-888.54
-321.244
-1067.72
611.704
1558.06
-801.346
537.636
934.933
-394.512
735.209
-340.697
1130.36
-276.76
337.215
1349.63
-705.348
-218.464
448.23
-1198.61
750.383
-990.612
-114.623
1105.24
441.638
-955.368
513.73
175.817
732.985
483.499
738.219
-91.8176
852.549
-425.352
1182.51
-796.984
552.113
-1465.44
913.325
-1216.65
1800.97
-431.712
-1510.19
879.666
-1401.98
-315.757
-419.593
1457.17
-1524.04
784.463
1491.49
201.368
274.969
-359.091
-1735
-289.034
-1011.08
1576.83
-1768.28
1768.28
1565.96
-1004.47
-633.82
-342.867
368.273
605.158
-372.646
-366.645
-1389.83
897.387
1125.14
600.568
1202.75
1789.48
-1216.42
-613.907
271.64
1659
-1916.47
257.472
814.625
-1267.55
1545.24
-561.607
786.139
319.873
-347.863
554.804
794.964
671.984
1356.42
-231.468
-444.702
-369.156
497.717
-342.211
471.697
736.514
-303.4
-140.788
-334.969
568.864
-233.895
28.6698
-370.695
1107.45
-1720.26
-443.391
-491.269
-568.627
863.74
694.319
-1596.48
904.79
-451.404
-623.572
-513.943
1251.96
342.392
1723.7
-1702.45
-1658.2
1892.49
-1560.82
840.287
720.53
-380.828
-1796.39
917.69
583.168
819.426
-393.498
1794.3
-680.678
-417.157
680.968
433.783
-1114.75
-1100.17
444.045
753.301
-1617.17
473.176
901.155
175.899
-399.03
223.131
-1597.09
-385.292
-434.547
990.298
-674.263
1442.93
-980.313
1853.48
239.532
-538.856
495.017
-293.649
474.296
893.574
543.1
977.391
-462.609
-427.684
573.932
883.239
-1392.71
-40.9881
1574.33
-836.402
519.938
971.552
-1475.8
-1115.9
1771.93
-1241.89
-530.034
1206.09
-318.995
-887.093
-191.369
452.081
-260.713
-457.06
-248.449
428.256
-179.807
143.826
-389.704
1731.19
-1737.96
-462.578
-530.833
-903.622
441.826
-206.203
-235.623
635.666
-461.254
-359.38
-320.262
679.642
-928.781
388.1
-1167.28
676.483
415.43
-637.513
-436.725
1577.21
-861.441
530.177
-457.697
-570.89
-462.407
373.448
-363.671
-9.77696
-1106.5
413.34
-664.754
-1033.65
1698.41
-603.074
-1423.5
712.863
562.184
-1596.25
1034.07
-395.959
-474.894
154.233
535.128
-1258.32
744.38
539.215
1006.02
-2133.18
999.989
1133.19
-369.399
420.756
-395.853
-24.9031
1478.03
-373.816
449.283
1210.76
582.199
906.535
567.666
527.363
-1095.03
163.989
-444.995
-1688.16
251.843
1127.58
-616.921
518.476
1013.75
-1532.23
1092.86
-1643.72
188.954
698.7
550.124
-871.369
-1086.52
-173.523
429.733
-256.209
-587.136
-434.183
-636.817
-629.643
347.009
-1618.8
939.681
-476.665
213.031
-396.047
533.324
-305.853
-609.677
1197.13
-1278.98
924.08
354.902
-1019.69
-375.548
-758.771
-825.712
1689.45
-476.786
1793.52
-1582.74
-210.779
-1556.63
1018.73
537.9
-726.824
-263.825
445.886
-182.06
-594.656
382.995
273.25
-656.245
-523.866
991.647
629.058
-350.311
-1620.28
1050.52
571.761
1103.55
-1675.31
-419.116
-290.4
-370.052
-745.795
-476.619
-329.355
498.146
1557.98
-995.799
-775.154
1497.45
658.862
-315.543
725.88
1152.37
-1878.25
296.94
312.112
-487.065
-1932.38
1719.97
212.414
737.511
-473.971
-263.54
531.823
1060.84
-1592.66
373.448
-1723.43
-233.209
1752.35
-1580.69
1073.78
506.912
-1724.13
0.706532
-521.584
420.756
1699.14
-1719.97
939.648
624.575
-1564.22
385.216
-218.267
-166.948
-416.726
-265.364
69.3812
95.1305
-358.956
-429.124
-439.632
-404.35
217.064
1510.24
378.833
-215.946
-440.089
461.711
-198.287
325.919
1510.77
995.685
-153.741
-841.944
-1104.1
1704.83
-1728.77
1064.02
-707.173
-1021.6
-1265.09
1844.99
-579.901
1155.07
-1771.15
616.079
272.362
-878.138
1675.71
43.4456
-1719.16
-491.153
-1083.06
-1731.19
-981.927
554.243
1019.61
590.22
1133.04
-1723.26
279.819
-449.716
703.001
-383.493
384.419
924.805
680.773
-382.093
-643.344
582.885
1072.56
-1655.44
-401.879
-367.247
769.126
434.291
-1661.22
1520.58
140.641
582.596
-1043.72
544.74
1083.9
-1555.67
994.066
-237.286
227.056
328.763
1903.82
437.155
-74.2537
995.862
722.751
-1718.61
-697.32
1085.35
-1557.51
164.399
-571.483
197.73
263.981
-660.54
-561.484
582.495
1034.63
-711.194
-279.459
-1368.37
675.429
692.936
-412.463
761.016
66.4908
-827.506
561.668
-137.157
1557.29
-212.207
273.68
-772.455
-1932.38
1664.62
1029.3
389.446
304.968
453.003
-929.995
-993.265
-1767.27
635.075
1693.77
507.529
-474.245
1210.76
1087.12
-424.786
1029.94
-977.816
491.91
485.906
700.258
1047.93
-1748.19
483.778
483.068
-1493.99
-746.267
32.7588
779.584
-412.37
-886.385
385.857
-538.895
-802.284
644.114
-577.303
1397.29
1055.14
195.555
234.177
-550.609
1618.52
-772.932
1525.82
-1727.83
575.248
1152.58
542.578
-882.558
-1732.78
1916.47
-183.695
1721.74
181.259
-544.049
373.979
-278.849
-481.346
1211.15
568.267
1128.32
-491.135
429.57
857.338
-460.607
-772.166
428.401
343.766
1418.88
1089.59
-518.175
1422.97
-510.536
-533.548
1044.08
-602.748
480.647
-1201.7
1691.93
1839.58
-687.211
1585.67
-646.023
-1241.2
717.337
-562.473
205.684
-396.77
454.496
-244.814
-519.884
-1246.71
1870.94
-624.232
1173.18
-552.656
1120.29
-1659.46
1695.85
-573.928
-545.777
-549.814
1720.07
-316.984
-688.028
-473.254
1223.64
-1684.84
-1860.1
613.394
304.152
-934.852
167.543
212.962
-1719.03
1204.15
514.871
1162.86
558.887
-511.806
-465.323
1192.17
178.904
222.684
588.444
1251.13
-539.176
-1238.58
1777.76
-1025.37
999.99
866.79
-204.113
-1659
1702.45
-510.055
1411.21
-1732.78
-354.458
14.835
339.623
-259.95
584.084
-324.134
80.7801
487.103
780.503
-378.365
1257.53
1270.84
-413.31
851.639
-437.523
1817.45
-662.382
1586.54
-1723.7
-412.789
-751.137
307.575
443.562
-559.826
-563.295
79.7153
-1138.76
-985.451
-669.765
1655.22
-943.707
-1189.47
159.203
-421.773
-648.283
705.634
1167.45
650.005
1410.23
-590.808
1636.75
1317.97
-573.587
-489.995
196.346
-503.258
1396.83
1239.95
-564.518
-999.989
892.701
55.542
-948.243
603.436
-506.111
1403.5
1495.03
-588.492
-381.879
381.879
-589.421
1623.49
1239.46
-486.164
1134.16
-69.284
1849.97
-388.814
1489.42
-588.729
-507.656
1347.94
-652.222
1218.42
-566.194
1554.78
-591.569
752.595
574.725
-1327.32
-655.038
281.176
498.698
600.22
-1957.3
-991.406
1586.54
382.603
-382.603
-66.1154
387.479
436.478
391.332
-11.6788
-342.553
900.256
-520.255
-425.995
813.475
-242.84
619.196
-430.924
1547.19
-444.321
-884.112
185.999
223.8
-409.799
601.168
1250.78
-1851.94
926.712
-458.387
-363.671
126.152
-1943.02
1816.86
-448.506
179.168
1181.23
-440.407
-740.827
-300.789
-585.596
-492.919
-395.853
-478.548
255.925
1158.01
-560.773
229.05
-376.622
147.572
-22.4055
-107.67
1376.09
-1268.42
34.4493
-599.299
-586.39
-460.641
460.641
-1262.36
1985.11
-1344.39
-212.711
-1823.47
240.736
-1025.75
-974.242
-184.919
-1637.89
707.896
1229.32
-1924.97
367.747
312.867
-680.613
-1850.01
1234.27
615.741
-564.808
564.808
-959.176
-39.8843
-1866.06
-558.138
1650.86
-677.106
1636.16
-601.531
-177.152
-1703.99
-583.108
-446.169
-594.795
-473.716
473.716
-1537.81
194.526
1343.28
173.552
224.16
-397.712
487.366
508.319
996.808
-474.741
1751.3
768.715
-427.768
402.865
520.956
1702.05
-594.595
-552.958
1636.86
469.37
1812.74
-645.294
-1803.99
-1938.07
-646.956
-484.976
484.976
-592.282
223.127
-692.605
1019.26
-465.735
-1072.86
-288.231
1579.58
1852.3
1635.34
-1635.34
-273.202
739.639
1761.49
595.786
1275.15
175.555
209.661
581.027
590.682
1603.53
-1603.53
221.761
-354.408
-435.238
459.536
950.939
-459.029
-639.647
-1131.01
1706.26
279.786
-1652.66
613.121
-286.915
468.174
1744.64
-592.059
-214.819
-418.476
379.676
728.735
1738.57
-613.422
-511.763
-773.25
1960.53
-870.453
-1090.08
1642.77
-705.885
1223.97
-1824.94
600.97
339.901
-878.757
-185.965
-110.108
1098.13
-486.429
133.667
619.999
-1650.27
435.327
613.227
-1803.99
-583.274
1787.43
884.165
-1162.92
1760.49
-597.565
1783.83
-575.525
-1208.31
437.046
925.614
-1737.96
924.752
-1493.76
264.737
1229.02
-831.003
-1254.23
-385.649
77.6601
307.989
581.72
268.885
1028.27
-442.777
845.73
-402.954
820.903
739.057
-1559.96
643.875
1066.28
-24.5148
-663.893
688.407
-1744.31
722.706
701.628
150.526
-1122.69
1936.76
-674.548
-1262.21
-537.173
1665.5
831.158
964.576
-1795.73
1227.86
683.323
-404.433
709.572
828.181
1028.04
-586.399
1761.49
626.609
1773.56
-1185.62
-587.938
-380.422
-335.421
715.843
121.434
-1185.7
1660.55
-540.264
-1437.84
1437.84
1250.57
594.414
1351.56
206.426
-560.627
279.594
-188.07
699.075
1113.67
478.539
-299.636
-870.124
-574.654
1737.26
-1737.26
1011.82
-1011.82
987.331
1025.17
-2012.5
1837.94
-613.97
-581.106
827.387
-947.849
-1052.16
998.319
690.64
-1688.96
-521.956
-353.024
-642.401
-808.423
2042.69
-1246.42
-613.68
1002.97
974.851
1289.77
646.986
325.27
1012.68
226.741
337.727
1186.29
1756.87
-1756.87
671.976
80.1889
-391.412
-997.052
-539.988
1674.15
990.807
1009.19
-1833.28