/*--------------------------------*- C++ -*----------------------------------*\
  =========                 |
  \\      /  F ield         | OpenFOAM: The Open Source CFD Toolbox
   \\    /   O peration     | Website:  https://openfoam.org
    \\  /    A nd           | Version:  7
     \\/     M anipulation  |
\*---------------------------------------------------------------------------*/
FoamFile
{
    version     2.0;
    format      ascii;
    class       volVectorField;
    location    "6";
    object      U;
}
// * * * * * * * * * * * * * * * * * * * * * * * * * * * * * * * * * * * * * //

dimensions      [0 1 -1 0 0 0 0];

internalField   nonuniform List<vector> 
7807
(
(1.04366 0.0933428 1.19442e-20)
(1.0362 -0.0288322 2.17407e-21)
(0.990384 0.067563 -2.15968e-20)
(1.02167 0.0451114 3.09059e-20)
(0.999433 -0.000600486 -5.33249e-23)
(0.999976 -6.76168e-06 -5.22219e-24)
(0.988391 0.0550498 -4.13013e-20)
(0.996663 -0.0010623 -1.1711e-23)
(0.999916 -0.000114195 -9.94298e-24)
(1.01628 -0.000746528 -1.42141e-21)
(0.999978 -7.95966e-06 5.77268e-24)
(1.00142 -0.000897409 -1.76106e-22)
(0.994821 -0.00136973 5.41378e-22)
(1.01145 -0.00133011 -8.89382e-21)
(1.01555 0.000244633 6.00656e-21)
(0.993885 -0.00965967 -1.31381e-21)
(1.04473 0.0982435 -2.51589e-20)
(0.992995 -0.00169703 -1.92672e-22)
(1.00144 -0.00607021 -3.86134e-24)
(0.985232 -0.0670764 -1.24616e-21)
(1.02276 -0.00215944 -3.11298e-21)
(1.00093 -0.000417746 3.13639e-22)
(1.01161 -0.00250029 7.4206e-22)
(1.00752 0.0192044 -1.5408e-20)
(0.990622 -0.00208278 -8.86049e-22)
(1.04048 0.0915949 -1.1748e-20)
(0.99943 -0.000566262 -3.91345e-23)
(1.01591 -0.000639042 3.54272e-21)
(1.00417 0.010114 -1.97861e-21)
(1.00208 -0.0065893 -5.9533e-24)
(0.991086 -0.0102119 -2.37286e-21)
(0.926936 0.0127322 5.54216e-21)
(1.01077 -0.00278177 4.63531e-21)
(0.999701 -0.000241863 6.0568e-23)
(0.999949 -1.55495e-06 7.14294e-26)
(1.01494 0.000450438 2.10977e-21)
(1.00282 -0.0072354 1.8809e-23)
(0.991211 0.0533996 -6.58906e-21)
(0.997764 -0.00516963 1.08896e-21)
(0.999793 -2.70087e-05 4.91809e-23)
(0.997888 -0.00530635 -1.23946e-22)
(0.994085 -0.00884468 -4.78177e-22)
(1.00407 -0.0745308 5.39433e-21)
(1.10603 -0.0333498 9.43606e-24)
(0.999905 -3.72345e-06 1.5711e-23)
(0.999953 -1.0106e-05 -4.93773e-24)
(1.0008 -0.00036768 -1.92012e-22)
(0.997296 -0.00447956 -6.3807e-22)
(0.99996 -1.80364e-05 -4.31886e-24)
(0.988191 -0.067695 1.80262e-21)
(1.00206 -0.000792629 1.96277e-22)
(1.0159 0.000301133 -3.67545e-21)
(0.987733 -0.00243464 -3.05427e-21)
(1.00737 -0.0209426 3.77095e-23)
(1.01434 -0.000973677 -1.23218e-21)
(0.997009 -0.00157394 -1.02974e-22)
(1.0011 -0.00591862 5.16521e-23)
(0.996657 -0.00087663 7.08763e-22)
(0.984351 -0.0120967 -4.14838e-21)
(0.999699 -0.000212211 -7.64797e-23)
(1.00003 -1.50195e-05 -2.70723e-24)
(1.00274 -0.000667433 2.24484e-22)
(1.01213 -0.000867541 -2.09397e-21)
(1.00151 -0.000793414 1.78262e-22)
(0.999421 -0.000117981 9.88023e-23)
(0.991393 -0.0106775 4.01257e-22)
(0.999941 -0.000118489 8.4082e-24)
(1.00001 -1.38448e-06 1.03136e-25)
(1.10466 0.0540493 6.37567e-21)
(0.997292 -0.00429125 -1.94477e-22)
(0.999956 -1.17852e-05 4.46774e-24)
(0.978216 -0.0387057 -8.56053e-21)
(0.990995 -0.00238914 4.41914e-22)
(0.98299 -0.00274064 5.98548e-22)
(0.993268 -0.00193953 6.08739e-22)
(0.97547 -0.0174475 -9.3164e-22)
(0.992773 0.0689183 3.46867e-20)
(1.02129 -0.00207476 3.96613e-21)
(1.05803 0.000413168 -8.49187e-21)
(0.96723 -0.0306971 -1.04008e-20)
(0.995039 -0.00155082 -8.31974e-22)
(0.998058 0.0319449 4.0329e-20)
(1.02542 0.00429894 9.55045e-21)
(0.982203 -0.00580186 2.92188e-21)
(0.99913 -0.00159012 -9.57043e-23)
(0.998618 -0.000143092 7.74222e-23)
(0.996423 -0.00144873 1.0276e-21)
(0.988178 -0.00283832 1.95773e-21)
(0.999571 -0.000738327 5.96419e-23)
(0.997253 -0.000337317 2.91328e-22)
(1.00423 0.0115344 1.46116e-20)
(1.13086 -0.0215773 2.01929e-22)
(0.999921 -3.35147e-05 -1.03968e-23)
(1.00111 -0.00498291 1.87555e-23)
(0.997774 -0.000580186 2.72375e-22)
(0.984682 -0.0011964 -4.70239e-21)
(0.979984 -0.0384465 5.11528e-22)
(1.00835 -0.020129 3.02985e-22)
(0.999101 -0.00153593 3.15126e-23)
(0.999316 -8.49969e-05 3.49027e-23)
(0.965576 -0.00906626 2.27355e-21)
(1.05885 0.00423633 6.94716e-21)
(0.997906 -0.000675763 -6.75606e-22)
(0.999987 -2.93553e-07 -4.07962e-25)
(1.13379 -0.0124054 1.06978e-22)
(1.01968 0.0188981 -1.42558e-20)
(0.958304 0.0118636 6.46813e-21)
(0.996799 -0.00148184 -4.10189e-22)
(0.999995 -1.17631e-06 1.58485e-25)
(1.01667 -0.00852078 -1.56683e-21)
(1.02508 0.0427629 -3.59006e-20)
(1.01681 -0.0553513 -6.13745e-21)
(0.999993 -1.26186e-06 -2.20047e-25)
(1.01811 -0.00889246 -3.40814e-22)
(1.0171 0.0185278 1.49922e-20)
(1.00024 -0.000351848 -1.14278e-23)
(1.04891 -0.0661836 -2.0066e-22)
(1.02018 0.0108487 -3.43944e-21)
(0.987265 -0.0305237 3.69892e-21)
(0.982564 -0.00358601 -6.52372e-22)
(0.964987 -0.00485277 -5.31972e-21)
(1.00023 0.0268585 -2.6123e-20)
(1.00854 -0.0735054 -7.4073e-21)
(1.00587 -0.00496051 1.05074e-22)
(0.965304 -0.00606443 2.06336e-21)
(0.999404 -0.000834836 1.36533e-22)
(0.991641 -0.0075731 7.62335e-22)
(1.00184 -0.00575352 -2.89487e-23)
(0.999394 -8.16226e-05 -2.21617e-22)
(0.990932 -0.00929347 4.73054e-23)
(1.1608 -0.0360965 -3.11178e-22)
(1.05375 -0.00119714 1.43219e-21)
(0.999629 -0.000313651 6.67368e-24)
(0.999514 -0.000759921 -1.20184e-22)
(0.981411 -0.00515696 8.42591e-22)
(1.02359 0.0363597 1.3279e-20)
(0.994997 0.0200648 4.49848e-20)
(0.999986 -1.91521e-06 -4.96593e-25)
(1.00515 -0.00189391 1.01143e-22)
(0.954251 -0.00577947 -6.83096e-21)
(0.984548 -0.00175304 -2.43508e-21)
(0.990356 -0.0430965 -5.61524e-21)
(0.975706 -0.0189585 1.26438e-21)
(0.983975 -0.00242368 -5.75767e-23)
(0.958255 0.00855937 2.45005e-20)
(1.0078 -0.0319717 -2.0606e-22)
(1.00849 0.0112594 -7.48716e-21)
(0.985802 -0.0148665 -2.1963e-21)
(0.977768 -0.00226794 6.78486e-22)
(0.999624 0.0297364 -1.30476e-20)
(1.01585 0.00182671 5.258e-21)
(1.12035 -0.0234366 7.28727e-22)
(0.998987 -0.00122617 -3.14788e-22)
(1.10915 0.0476466 1.22728e-21)
(1.02449 0.00385389 -9.87073e-21)
(0.999536 0.056556 -3.41855e-20)
(0.971405 -0.0205572 3.90926e-21)
(0.994838 -0.000935232 1.77763e-22)
(0.960386 0.0398764 5.8722e-20)
(0.999962 -1.40885e-05 -4.17988e-24)
(1.00075 -0.00515549 7.0165e-23)
(1.00828 0.0215776 1.10589e-20)
(0.999987 -1.167e-05 3.23315e-24)
(0.998838 -0.00331157 -5.38297e-22)
(0.997514 -0.000542552 -1.29344e-22)
(1.00286 0.0242386 -3.59257e-21)
(1.0017 0.0245961 1.32351e-20)
(0.954599 0.0444178 1.97059e-20)
(0.998749 -0.00319586 -3.13433e-22)
(0.998128 -0.000138857 -1.36881e-22)
(1.00001 -7.51216e-07 -5.30495e-26)
(0.969866 -0.00207493 -8.77958e-21)
(1.00022 -0.0003129 1.59355e-23)
(1.03804 -0.0262487 -2.54067e-21)
(1.00524 -0.00216147 6.59327e-22)
(0.977215 -0.00292529 1.41957e-21)
(1.12609 -0.00403491 1.54697e-21)
(1.07001 0.0524015 5.1957e-22)
(0.999919 -3.63345e-05 5.75476e-24)
(0.999665 -0.000392775 -7.47e-23)
(1.02155 0.0473064 -5.47587e-21)
(0.999963 -1.1541e-05 -1.92565e-24)
(0.999935 -5.58332e-06 2.64591e-24)
(0.988144 0.0585332 -3.44854e-20)
(1.03737 -0.0312121 4.57206e-22)
(1.00727 -0.0459635 -3.52542e-21)
(0.988735 -0.0296321 -5.25694e-21)
(0.984263 -0.00405716 1.84548e-21)
(1.00567 -0.0330155 3.86761e-22)
(0.957236 -0.00411404 3.62839e-21)
(0.999987 -1.08286e-05 -1.06388e-24)
(0.980518 -0.0359075 -2.06487e-21)
(1.07195 0.0581606 -1.22771e-20)
(0.997882 -0.000844413 9.6386e-23)
(1.00005 -3.20217e-06 -2.54038e-24)
(1.04919 0.0541114 1.20834e-21)
(0.99924 -0.000213691 2.52023e-22)
(0.991448 -0.00899498 1.2158e-21)
(1.00392 -0.0311345 1.284e-21)
(1.00001 -1.73523e-06 -3.93546e-26)
(1.00048 -0.00129623 -7.05839e-23)
(1.02113 0.0361518 1.62379e-20)
(1.06067 0.0619279 -1.54605e-20)
(0.996967 0.0491389 -4.57781e-21)
(1.04602 -0.0614603 2.21415e-21)
(1.01938 -0.0527964 1.41206e-21)
(1.08289 -0.0911822 -7.31131e-22)
(1.01534 -0.00267638 1.05538e-20)
(1.01924 0.0355047 -5.20772e-21)
(0.999878 -9.2232e-06 -1.77094e-23)
(1.00003 -1.20031e-05 6.46685e-25)
(0.974015 0.00354802 -2.44476e-20)
(0.995016 -0.00852004 -4.57883e-22)
(0.99962 -0.000283367 -6.58453e-23)
(0.982192 -0.0353456 4.27074e-21)
(0.991214 -0.00798486 -8.87402e-22)
(1.00623 0.05249 -3.88286e-20)
(1.0037 0.0506229 -8.14828e-21)
(0.988183 -0.0442304 1.51611e-21)
(0.933262 0.0243418 -2.14702e-20)
(0.999293 -0.00025605 -1.87071e-22)
(0.993039 -0.00137368 6.73166e-22)
(0.964426 -0.00791005 2.92672e-21)
(1.02236 0.00103562 -2.24246e-21)
(1.00655 -0.0935575 -7.17105e-22)
(1.0599 0.0937381 -2.61478e-20)
(0.961262 0.0343247 -5.00658e-20)
(1.00004 -6.78831e-05 1.91803e-24)
(1.00582 -0.00493035 3.38076e-22)
(1.01859 0.0128182 1.85876e-20)
(0.997447 -0.00378387 -7.92235e-22)
(1.02174 0.0114124 -2.36137e-21)
(0.999648 -0.000793706 -2.57839e-23)
(0.938978 0.0488432 3.96141e-20)
(1.00021 0.051939 7.3883e-21)
(0.996444 -0.00120103 6.3698e-22)
(1.00246 -0.00547151 -9.3941e-24)
(0.999803 -4.40386e-05 -9.19026e-23)
(1.08774 0.0756064 6.54008e-21)
(0.999944 -8.93501e-06 7.86686e-24)
(0.9963 -0.00717345 3.73889e-22)
(0.95541 -0.0178598 4.30153e-21)
(0.999955 -1.45801e-05 -1.84746e-24)
(0.999213 -0.00183772 -8.61571e-23)
(0.999726 -0.000783068 3.8672e-23)
(1.04426 0.0314499 1.45619e-20)
(0.999988 -1.48689e-05 4.19925e-24)
(0.997276 -0.000237621 7.13389e-26)
(0.968951 -0.0305711 1.20789e-20)
(0.936093 0.00736306 -1.21564e-20)
(1.05322 -0.00448857 -1.88733e-21)
(0.9489 0.0314038 2.95247e-20)
(0.999973 -5.58917e-06 -4.64813e-24)
(1.00234 -0.0315496 -4.79829e-23)
(0.999882 -0.000191031 -2.91489e-23)
(0.995826 0.0578322 -3.41342e-20)
(1.0023 -0.000427781 -2.92303e-22)
(0.993185 0.0199398 1.486e-20)
(1.00189 -0.00688717 -8.0249e-23)
(1.00041 -0.00127661 6.87854e-23)
(1.02001 -0.0240673 -4.23926e-22)
(1.01522 -0.00149076 -9.7699e-21)
(1.00034 -0.000212338 3.69322e-23)
(0.999859 -3.13549e-05 5.94437e-25)
(1.00029 -0.00028892 8.03364e-23)
(0.997286 -0.0040029 -7.06207e-22)
(1.01199 -0.0481176 3.99958e-21)
(0.999973 -7.93432e-06 3.11272e-24)
(0.972647 -0.0197057 2.71911e-21)
(0.997627 -0.000669785 -2.8988e-23)
(0.999909 -2.98758e-05 1.09404e-23)
(0.999621 -0.000352861 2.1893e-23)
(0.988981 0.0332144 3.60728e-20)
(0.995289 -0.000328792 2.51579e-22)
(0.999545 -6.55519e-05 -1.94689e-23)
(0.96117 0.00231012 4.57197e-20)
(0.999134 -0.00178538 -1.85452e-22)
(1.03713 0.0691816 -1.3548e-20)
(0.99987 -0.00018062 4.89155e-23)
(1.00531 -0.0159105 -1.86323e-22)
(1.00001 -5.4591e-07 -3.87419e-26)
(0.987094 -0.0244524 -2.04585e-21)
(1.02226 0.00146879 3.47897e-21)
(1.12801 0.00340128 -4.38603e-21)
(0.984454 -0.0130962 3.52482e-21)
(0.999746 -0.000405955 8.9164e-23)
(0.984495 -0.0567481 2.83167e-21)
(0.996086 -0.000155565 1.19615e-21)
(0.999893 -1.52645e-05 1.23874e-24)
(1.00027 -0.000245694 -7.10785e-23)
(0.998596 -0.0022723 2.65221e-22)
(0.995033 -0.000744019 -7.65419e-22)
(1.00208 -0.000580674 -3.31421e-22)
(0.999187 -0.00129272 1.11066e-22)
(0.983164 -0.00538933 4.62982e-22)
(1.01539 -0.0461967 -2.91922e-21)
(0.983355 -0.00434455 1.99226e-21)
(1.1007 -0.0271945 5.94906e-23)
(0.977756 -0.00455653 -2.57161e-21)
(1.00589 0.0690563 3.94504e-21)
(1.0029 0.0707326 -2.91405e-20)
(0.999061 -0.000474868 -1.69752e-22)
(1.14651 0.00116819 3.65895e-21)
(0.99999 -2.22343e-06 -2.92373e-25)
(0.998556 -0.00279428 -3.25489e-22)
(0.987049 -0.00070156 4.80092e-21)
(1.00572 0.016484 9.19938e-21)
(1.02769 0.00658226 -9.2853e-21)
(1.00006 -2.59776e-05 6.39321e-24)
(0.998568 -0.00268451 -2.51314e-23)
(0.978468 -0.0052612 1.93825e-21)
(1.03453 0.027177 -5.62831e-21)
(0.999368 -0.000781411 9.65971e-23)
(1.00215 -0.00061928 1.92167e-22)
(1.00079 -0.00063282 -1.47359e-23)
(1.08877 0.0168593 8.83213e-21)
(1.15993 -0.0464224 -2.6434e-21)
(1.01728 0.0856742 1.9569e-20)
(0.999012 -9.22296e-05 -1.551e-22)
(1.04464 -0.0301824 -1.90762e-21)
(0.999929 -4.30989e-05 -9.61241e-24)
(1.00318 -0.0049197 -5.82481e-22)
(0.999966 -7.35577e-06 -1.37165e-24)
(0.989533 -0.0144441 6.18183e-22)
(0.999786 -4.09096e-05 -1.74904e-23)
(1.00822 -0.0151768 1.61311e-22)
(1.16626 0.00231237 -2.34589e-21)
(0.980735 -0.0189227 4.37312e-21)
(1.00601 -0.0155143 -5.77927e-24)
(1.00547 -0.00427658 -4.22034e-22)
(0.999541 -9.19764e-05 8.85985e-23)
(1.01841 -0.01276 1.1158e-21)
(0.997303 -0.0129455 6.81801e-22)
(1.05462 0.00795477 -4.02943e-21)
(1.0406 0.0301929 6.49879e-21)
(1.12203 -0.1036 -4.76394e-23)
(1.10368 -0.0402694 -8.10726e-22)
(0.993373 -0.000186116 -1.30122e-21)
(1.00328 -0.00244446 6.23867e-22)
(0.957211 -0.0169027 -1.63081e-21)
(0.949364 0.0431412 -6.04793e-20)
(1.08769 -0.0404963 4.01822e-23)
(1.01788 -0.00746247 -4.49548e-21)
(0.937475 0.0277567 -2.96201e-20)
(0.999052 -4.34726e-05 7.63605e-23)
(0.998879 -0.000599797 -5.34453e-23)
(1.11753 -0.0313266 -4.15695e-22)
(0.999269 -0.00134526 -7.04084e-23)
(1.00802 -0.0297674 3.50624e-22)
(1.00386 -0.00138402 2.28861e-22)
(0.998177 -0.000223039 -1.1832e-22)
(0.998649 -0.000214824 -1.91737e-22)
(1.02096 0.017318 1.09708e-20)
(0.999956 -9.89174e-05 -1.93566e-24)
(1.00032 -0.000159541 -3.30037e-23)
(1.00005 -1.16098e-05 4.33639e-24)
(0.99776 -0.000394266 6.70738e-22)
(0.995562 -0.0060411 9.9326e-22)
(0.999989 -2.09734e-06 2.70165e-25)
(0.999316 -0.000145905 2.0255e-23)
(0.98512 -0.0114545 1.21964e-21)
(0.969153 0.00542098 1.53109e-20)
(1.00741 -0.0161834 1.47232e-22)
(0.995041 -0.00787856 1.65715e-21)
(0.972659 0.0352888 6.94346e-21)
(1.00049 0.0268201 2.3551e-20)
(1.04653 -0.000955025 -3.17544e-21)
(1.13925 0.00607246 -1.59505e-21)
(0.974921 -0.00151522 4.72931e-21)
(1.00331 -0.00272629 -3.0253e-22)
(1.00525 0.0273148 -1.30657e-21)
(0.992477 -0.00121645 -1.59904e-21)
(1.02301 0.0670692 6.52363e-22)
(1.00544 -0.0356057 4.82843e-23)
(1.0236 -0.084374 -2.48804e-21)
(1.05741 0.0594903 9.43897e-21)
(1.02432 0.0713424 -1.71306e-20)
(0.973914 -0.0167928 5.96305e-21)
(1.02938 0.00541947 -6.04542e-21)
(1.06324 0.0976436 2.4663e-20)
(1.03287 0.0690956 2.51787e-20)
(1.01559 -0.00169292 3.34905e-21)
(0.998025 -0.000922406 1.58332e-22)
(0.997208 -0.0014259 1.43524e-22)
(0.999943 -1.16406e-05 -4.25847e-24)
(1.01141 -0.0198006 5.67214e-23)
(0.99241 -0.000944099 3.88108e-22)
(1.00064 -0.00166517 -6.47536e-23)
(0.999932 -1.34379e-05 -7.67154e-24)
(0.998929 -0.00044546 6.62159e-23)
(0.982593 -0.0557672 -4.65289e-21)
(1.0766 0.0256763 3.88508e-21)
(0.987999 -0.00359369 -2.26661e-21)
(0.999361 -0.00867595 8.1265e-22)
(0.997527 -0.000349209 -3.60277e-22)
(1.04286 -0.0316585 4.26391e-23)
(0.99526 -0.000827465 -1.2297e-21)
(1.0015 -0.00496407 1.66818e-22)
(1.07408 0.0942254 3.93248e-21)
(0.9988 -0.000188154 -4.50951e-22)
(0.999986 -2.85024e-05 -3.52816e-24)
(0.999964 -0.000118978 -1.90182e-24)
(1.00003 -7.07053e-05 8.92446e-25)
(0.984935 -0.00469725 1.06225e-21)
(1.01983 0.0149394 -1.29647e-20)
(0.997413 -0.000239429 1.47396e-23)
(1.01527 -0.00644756 2.89434e-21)
(1.012 -0.0980655 4.97239e-21)
(0.992791 0.0495663 -5.85367e-22)
(1.00267 -0.00526069 1.82172e-22)
(1.00461 -0.00302338 -1.06976e-22)
(0.996631 -0.00161867 -5.13712e-22)
(0.993496 0.0337838 -3.53812e-20)
(0.99935 -3.75445e-05 6.09331e-23)
(1.01966 0.0888551 -1.00094e-20)
(1.00727 0.0115147 -1.43942e-20)
(0.999927 -1.7803e-05 9.11783e-24)
(1.00404 -0.036199 -2.17567e-21)
(0.997856 -0.00048005 -3.2682e-22)
(0.992837 -0.0437669 6.89405e-21)
(1.00034 -7.67607e-05 3.33563e-23)
(1.04265 0.0013862 4.44997e-21)
(1.00481 -0.0112337 -2.89784e-24)
(1.00419 -0.00257807 3.74458e-23)
(0.999455 -8.43751e-05 -1.19269e-22)
(1.04927 0.0295328 7.1764e-21)
(1.03112 0.0261996 2.24447e-21)
(1.00541 -0.0480074 3.47134e-21)
(0.985599 -0.0136086 -2.35682e-22)
(0.998506 -0.00242805 -2.23508e-22)
(0.999682 -0.0283393 -3.98061e-21)
(1.10519 0.0399767 -8.33953e-21)
(0.926662 0.0168516 -2.71519e-20)
(1.06014 -0.0580865 -1.88417e-21)
(1.00335 -0.00541354 -7.62875e-23)
(0.999995 -1.05273e-06 -1.42764e-25)
(0.990889 -0.00297786 -1.77973e-21)
(0.998535 -0.000186635 4.13964e-22)
(1.01802 -0.0119172 1.58898e-21)
(1.00119 -0.0781335 -2.21788e-21)
(1.14482 -0.00945297 -8.02788e-22)
(0.986558 0.046297 -4.46228e-20)
(1.0376 0.0248559 9.32796e-21)
(1.08507 -0.0823002 3.26625e-21)
(1.04886 0.0589718 3.98949e-21)
(0.998634 0.0255538 4.1887e-20)
(1.01371 -0.00210562 2.37445e-21)
(1.00074 -0.0015632 1.5289e-22)
(1.0148 0.0380849 8.04304e-21)
(0.999408 -0.00134868 1.52341e-22)
(0.999883 -0.000102036 1.02447e-23)
(0.989013 -0.000805012 5.86633e-22)
(1.00006 -2.31328e-05 1.14845e-24)
(1.08964 -0.0981045 2.00294e-21)
(1.00253 -0.0124879 -2.80032e-22)
(0.988778 -0.0240589 3.51797e-21)
(1.0012 -0.00111587 8.74451e-23)
(1.04502 0.0513276 2.04909e-20)
(0.998839 -0.000169288 -3.55792e-23)
(0.999984 -2.2533e-05 -1.88803e-25)
(1.0183 -0.0876873 2.75432e-21)
(1.00107 -0.000868481 -5.06009e-23)
(1.07606 -0.00436549 -9.88937e-22)
(0.967424 -0.00849357 1.07068e-21)
(0.952719 -0.00946899 4.8967e-22)
(1.15159 0.0411538 -6.56596e-22)
(1.0171 0.0114986 -4.86634e-21)
(1.01474 0.00302883 2.96937e-21)
(1.01375 0.00284367 -1.19869e-21)
(0.99987 -2.40878e-05 3.17759e-24)
(1.08259 0.025265 3.1208e-21)
(1.05478 0.0105171 4.66183e-21)
(0.999671 -0.000412503 3.51438e-23)
(0.988523 -0.00398315 2.62146e-21)
(1.0004 -0.000132182 -3.71578e-23)
(1.00812 -0.0138943 -8.18954e-22)
(1.00623 -0.0197318 -1.74085e-22)
(1.00306 -0.000982114 3.6635e-24)
(0.999501 -0.000844348 -1.66769e-22)
(1.08719 0.0693798 -2.01068e-20)
(0.999986 -1.40634e-05 -4.51727e-24)
(1.00013 -6.51421e-05 -7.87982e-24)
(1.00139 -0.000661485 -3.83474e-24)
(0.985323 -0.00144988 1.69594e-21)
(1.01286 -0.00765528 1.95014e-21)
(0.988211 -0.020084 -4.8569e-21)
(0.981204 -0.00249589 -9.93e-22)
(1.00963 -0.0454635 1.98495e-21)
(1.02584 -0.105901 -5.31486e-21)
(1.0187 -0.0214874 3.45188e-22)
(1.01849 0.0387835 -4.64645e-20)
(1.15849 0.00784738 1.17445e-21)
(0.995608 -0.0015539 -7.79652e-23)
(0.93671 0.0446253 4.65936e-20)
(0.981687 -0.0399709 7.51237e-21)
(0.995421 -0.00642023 3.16574e-22)
(0.982103 -0.00205507 1.65961e-21)
(0.998341 -0.012624 -1.82398e-22)
(0.987087 -0.00108019 2.54772e-21)
(0.993195 -0.00242247 -5.05549e-22)
(1.01858 -0.0097969 -3.08614e-21)
(1.09396 -0.043485 7.03515e-23)
(0.999983 -2.74986e-05 -4.28879e-25)
(1.01551 -0.0090028 -3.54661e-22)
(0.999938 -1.7923e-05 -4.56493e-24)
(1.0024 0.0588151 9.18277e-21)
(1.10576 0.0593019 1.49617e-20)
(0.996788 -0.00120429 1.63007e-22)
(0.991117 -0.000772504 -2.21068e-21)
(0.999879 -3.19784e-05 -2.18862e-23)
(0.996489 0.0309649 2.66649e-20)
(1.01544 0.069203 2.24255e-20)
(1.08451 0.0183975 -4.78636e-21)
(1.09147 0.0906781 -1.73552e-20)
(0.981558 -0.0426554 -3.24724e-21)
(0.999196 0.0100707 -3.82225e-20)
(0.999959 -8.36841e-05 6.15738e-24)
(1.03401 -0.0189225 3.85781e-21)
(0.990244 -0.000578898 -9.10173e-23)
(1.06426 0.0502482 -4.41686e-21)
(0.955627 0.0306341 -3.58891e-20)
(1.10833 0.034393 1.07601e-20)
(1.03436 0.0208797 1.58741e-21)
(0.999884 -0.00857722 -1.72055e-22)
(0.999875 -5.02854e-05 -2.095e-23)
(1.09369 0.078372 7.12366e-21)
(1.15026 -0.0286179 7.81274e-23)
(0.995439 0.0344266 -9.05634e-22)
(1.07018 -0.00550292 7.96239e-21)
(1.0213 0.0321315 1.35625e-20)
(0.995317 -0.00136749 -2.32655e-22)
(0.991273 0.0467208 1.22996e-20)
(1.01881 0.0660379 7.94554e-21)
(0.994024 -0.00199422 -1.41083e-21)
(0.994989 -0.00192213 -5.27724e-22)
(1.10337 0.0711493 3.56253e-22)
(0.951856 -0.00849341 -7.23189e-21)
(0.999943 -9.8247e-05 -9.11752e-24)
(0.991322 -0.0032727 2.31169e-21)
(0.953721 -0.0135807 5.45493e-21)
(0.990481 -0.0548654 -9.87234e-22)
(1.00635 -0.00198953 -1.90946e-21)
(1.00509 -0.00389009 1.14954e-22)
(0.999917 -0.000120598 -1.53968e-23)
(1.01632 0.0734865 -3.38708e-20)
(1.00019 -0.00743188 3.15502e-23)
(0.999934 -3.56915e-05 4.29144e-24)
(1.0152 -0.0425706 2.1926e-21)
(0.999677 -0.000267662 2.77351e-23)
(0.999859 -4.67475e-05 1.63998e-24)
(1.00351 -0.00833113 -8.54058e-23)
(1.03734 0.0499551 2.74772e-20)
(1.01255 -0.0776626 3.83166e-21)
(0.966859 0.0322861 2.13829e-20)
(1.00004 -9.18562e-06 -2.91431e-24)
(1.04048 0.0534913 -2.88111e-20)
(1.00992 -0.0363003 1.74893e-21)
(0.999951 -0.000117113 -2.5507e-24)
(1.00002 -3.41017e-06 -5.38394e-25)
(1.00263 0.00759805 -2.38924e-21)
(1.03423 0.0430214 1.0105e-20)
(0.997416 -0.00152126 1.47183e-22)
(1.03223 0.03302 -1.27773e-20)
(1.00002 -1.21595e-05 3.88395e-25)
(1.0324 0.0366536 -1.8001e-20)
(1.10961 -0.103819 4.35548e-21)
(0.993697 -0.00173634 1.52536e-21)
(0.999527 0.0164103 -5.33934e-20)
(0.982498 -0.0331426 4.91685e-21)
(1.09511 0.0860828 1.71556e-20)
(0.982726 -0.00199958 9.50714e-22)
(1.0351 0.0389781 2.34572e-20)
(1.03786 0.0455261 -7.29066e-21)
(0.989019 -0.00507279 3.89181e-21)
(0.985519 -0.0061569 -2.88103e-21)
(0.996546 -0.00648376 9.62475e-22)
(0.998181 -0.000402482 -1.10132e-22)
(0.999877 -0.000117337 2.76414e-23)
(1.00013 -0.00696874 -5.56528e-23)
(1.02624 0.063278 -3.99501e-21)
(0.999982 -2.14092e-05 1.15155e-24)
(1.02876 0.0315589 1.69356e-20)
(1.02306 -0.0780098 5.8402e-21)
(1.00204 0.0347265 1.07636e-20)
(1.02897 0.0285463 -1.91041e-20)
(0.952063 -0.0122702 -7.2239e-22)
(0.969404 0.0430695 -4.57771e-20)
(0.998983 -0.000707162 8.205e-24)
(1.01111 -0.0182267 3.65661e-22)
(1.03782 -0.0563124 1.34444e-21)
(0.987548 -0.00092076 -1.6354e-22)
(0.995859 -0.00204369 7.05858e-22)
(1.00804 -0.0374125 -1.53538e-21)
(1.03804 -0.0130532 -4.24758e-22)
(0.944222 0.0250904 5.55868e-20)
(1.00003 -1.35554e-05 2.64393e-24)
(0.998806 -0.000754629 1.31545e-22)
(1.01339 -0.0545336 7.46831e-23)
(1.00001 -2.93247e-06 2.45684e-26)
(1.00208 0.0632953 4.5373e-21)
(1.00102 -0.000761341 0)
(1.00001 -3.33972e-06 -5.3983e-27)
(1.00011 -5.42527e-05 1.79759e-23)
(1.00027 -6.39188e-05 4.37495e-25)
(0.989814 -0.0133582 3.20423e-21)
(1.0147 -0.0117194 -1.14743e-21)
(0.999038 -0.000523836 2.03454e-22)
(0.999951 -8.20959e-06 8.54873e-24)
(0.995564 -0.0018973 3.79913e-22)
(1.00283 -0.00872589 -3.18404e-23)
(0.992688 -0.0826624 -6.00271e-21)
(0.965955 -0.00249841 4.977e-22)
(1.01226 -0.00679867 3.47163e-21)
(0.999984 -1.40616e-06 2.72079e-24)
(1.07212 -0.116185 6.73753e-21)
(0.991546 -0.00212068 -8.97131e-22)
(1.09283 0.0636586 -1.24255e-21)
(1.00033 0.017131 -7.74221e-21)
(1.00074 -0.00238191 2.6989e-23)
(1.08379 0.0549528 -1.8577e-20)
(1.00009 -6.11264e-05 1.46259e-25)
(0.991945 -0.00246743 1.74178e-23)
(1.01555 0.000606096 -6.06089e-21)
(0.995844 -0.00233864 -2.89702e-22)
(1.03753 0.0597126 -1.59436e-21)
(0.991769 -0.00410636 -1.77152e-21)
(1.03492 -0.0178383 -3.34748e-21)
(1.0167 0.00206467 -6.54081e-21)
(1.04119 0.0272363 -4.12641e-21)
(1.00495 -0.0103838 -3.59068e-22)
(0.993548 -0.0026338 4.13709e-23)
(1.05406 0.0515477 1.31806e-20)
(0.985137 -0.0602987 -5.29257e-21)
(0.994534 0.0610892 3.76267e-20)
(0.994274 -0.00301549 -1.69694e-21)
(1.03803 0.078456 -1.12743e-22)
(0.994298 -0.0026229 4.55154e-22)
(0.999289 -0.000309851 -1.36887e-23)
(1.03361 0.0194434 4.35727e-21)
(1.01018 -0.0209034 5.66549e-23)
(1.02364 0.00224439 9.28873e-21)
(1.00102 -0.000583608 5.70403e-23)
(1.00001 -2.30341e-06 -1.16751e-27)
(1.00172 -0.0952822 2.2007e-21)
(1.07293 0.0890148 -2.22579e-20)
(1.00093 -0.00230791 -4.44555e-23)
(1.09062 0.0565924 1.86049e-21)
(0.992227 -0.00381755 -1.15819e-21)
(1.06498 -0.120765 -2.16985e-21)
(1.03222 -0.0289508 -2.97834e-23)
(0.987952 -0.0214096 2.76133e-21)
(0.998955 -0.000620506 -8.74409e-23)
(0.994789 -0.000459099 -3.00353e-22)
(0.981105 -0.0509078 -3.22633e-21)
(0.980419 -0.00552031 3.96664e-21)
(0.993939 -0.00241586 1.16595e-21)
(0.999906 -0.000277835 1.70201e-23)
(0.989346 0.0642007 -4.60448e-21)
(1.08149 0.0486577 1.14043e-20)
(1.0168 -0.00714285 -1.10612e-21)
(0.99988 -8.97373e-05 1.75323e-23)
(1.01773 0.0620796 -1.50741e-20)
(1 -1.46811e-05 -5.48032e-25)
(0.999888 -7.80316e-05 3.39435e-23)
(1.07482 0.0473284 9.52889e-21)
(1.00742 -0.0171496 6.21402e-23)
(1.08105 0.0807071 1.85879e-20)
(1.01566 -0.00268582 2.50855e-21)
(1.01159 -0.00871935 -2.17475e-22)
(1.06771 -0.0479031 7.59238e-22)
(1.03853 -0.0978611 5.45353e-21)
(1.15138 0.0347174 -2.74676e-21)
(1.00077 -0.000567546 -1.19498e-22)
(0.968628 -0.0096124 -3.98475e-22)
(0.999989 -3.53268e-05 -1.11587e-24)
(1.00335 -0.00777242 6.33571e-23)
(1.04051 0.0580034 1.04472e-20)
(0.989605 -0.00474357 2.69854e-21)
(0.998283 -0.000898183 1.83427e-22)
(1.01024 -0.0286376 -1.05384e-21)
(0.9988 -0.000660672 1.01899e-23)
(0.999747 -0.000687822 5.07395e-23)
(0.963467 0.00366032 9.54384e-21)
(0.993927 -0.00325911 -9.65527e-22)
(0.99969 -0.000465085 -1.20706e-22)
(0.999991 -5.6733e-07 -5.57477e-25)
(1.01193 0.00393079 1.28947e-20)
(0.981389 -0.0175465 -6.58527e-22)
(0.999797 -0.000353318 3.69247e-23)
(0.998298 -0.0004851 2.25181e-22)
(1.01601 0.0133439 5.27746e-21)
(1.04673 0.00716257 1.017e-21)
(0.973875 -0.0151342 -3.71469e-21)
(1 -9.14471e-06 -7.95772e-25)
(1.00163 0.0113661 3.43019e-20)
(0.990964 -0.0115991 -2.18238e-21)
(1.04541 0.0467081 -2.05144e-20)
(1.00831 -0.00110887 -3.00454e-21)
(1.00953 -0.000846358 6.93415e-21)
(0.979137 -0.00708498 5.48518e-21)
(0.999942 -4.01646e-05 -2.87811e-24)
(1.01583 -0.000118931 -1.1908e-21)
(1.04974 0.00522225 -1.4958e-21)
(1.13236 0.0393673 7.91878e-21)
(1.02794 -0.074251 1.18854e-21)
(1.02433 0.0594376 1.20889e-20)
(1.00394 -0.00104726 -4.53764e-23)
(1.05868 0.054742 -1.81401e-20)
(1.00005 -0.00994443 -2.79368e-22)
(1.01242 -0.0408674 -4.07138e-21)
(0.999766 -9.80247e-05 -3.16622e-23)
(1.00204 -0.0131511 5.56328e-22)
(0.999933 -0.0002739 1.0001e-23)
(1.03036 0.0221897 -1.27694e-20)
(1.05029 0.0863273 -3.82919e-20)
(0.999082 -0.000748021 6.93367e-23)
(1.01201 -0.00856635 3.51741e-23)
(0.988803 -0.00260699 9.08772e-22)
(1.03118 -0.0646493 4.65756e-22)
(1.02691 -0.0685917 -2.92487e-21)
(0.998881 -0.000509303 1.32932e-22)
(1.03105 -0.0189307 -1.30572e-21)
(0.982736 0.00121989 -1.58475e-20)
(1.1288 0.024279 5.74857e-21)
(0.999966 -0.000101578 1.46405e-23)
(1.04323 0.00517135 -3.69649e-21)
(0.998058 -0.00596455 -4.95841e-22)
(0.996424 0.00186395 3.52411e-20)
(0.992265 -0.00329679 1.5875e-21)
(0.997183 -0.01842 -6.33072e-22)
(1.01196 -0.0252694 -5.47025e-23)
(0.996029 -0.0190769 -6.83039e-23)
(0.998874 -0.0148072 -1.50383e-21)
(0.995269 -0.00207606 2.59666e-22)
(0.999522 -0.00981381 8.59042e-22)
(1.0012 -0.00427972 -4.26151e-23)
(1.03922 -0.0160128 9.65976e-22)
(1.00006 -2.15683e-05 -9.32962e-24)
(1.14335 -0.0778256 -9.8193e-22)
(1.11537 -0.00706291 1.208e-21)
(1.00861 0.0705382 2.72794e-20)
(0.975242 -0.0142952 5.5666e-21)
(1.07462 0.0767172 -9.39821e-21)
(1.0012 -0.000471761 2.05558e-22)
(1.04954 -0.0554652 -6.48861e-23)
(1.00301 -0.0270113 -1.54185e-21)
(1.01392 0.023241 1.49852e-20)
(0.995577 -0.00253954 6.88303e-22)
(1.00007 -0.000115476 5.03941e-24)
(0.99137 -0.0120829 2.85545e-21)
(0.997137 -0.00634003 -3.66165e-22)
(1.02891 -0.0177984 2.77124e-21)
(0.981586 -0.00399763 -3.27907e-21)
(0.984769 -0.00565053 9.64226e-22)
(1.09148 -0.0269243 7.98979e-22)
(0.990656 -0.00153285 -1.46556e-21)
(1.01017 -0.0265215 7.11461e-22)
(0.991496 -0.0583233 3.80063e-21)
(1.00001 -5.07365e-06 -2.99593e-26)
(1.03956 -0.0102324 5.51117e-21)
(0.993051 -0.0522176 -1.02821e-20)
(1.08009 0.0663251 8.93421e-21)
(1.06787 -0.0534427 -1.64709e-21)
(1.02243 0.00182494 7.6938e-22)
(1.01778 -0.0751166 -7.75898e-21)
(1.0223 0.079189 7.60568e-21)
(1.02417 -0.0253917 7.02493e-22)
(0.978244 -0.00638503 -3.23576e-21)
(1.01002 -0.0336553 -2.05074e-21)
(0.985556 0.00234348 1.53941e-20)
(1.11316 -0.0784374 6.66588e-22)
(0.991833 -0.00301032 -4.89089e-22)
(1.01838 -0.0946521 -5.92319e-22)
(1.01829 -0.048112 2.62447e-21)
(1.02979 -0.0873983 -1.07838e-21)
(1.02958 -0.0596425 -2.87637e-21)
(1.05399 0.0466774 1.64795e-20)
(0.998285 -0.00103204 1.14996e-23)
(1.0044 0.0267131 5.51971e-21)
(1.00506 -0.000970691 3.323e-22)
(0.999755 -0.000351329 -5.04913e-23)
(0.999196 -0.00154861 4.07162e-22)
(1.03986 0.000898231 -1.37029e-21)
(0.98299 0.000302666 4.38448e-22)
(1.00097 -0.00449839 -9.85516e-24)
(1.0125 -0.0379248 5.82165e-22)
(1.0158 0.0147621 -8.79925e-21)
(1.00002 -5.11285e-06 -1.31244e-25)
(0.986272 -0.00578237 2.28146e-21)
(1.01474 -0.00652167 2.53296e-21)
(1.05281 -0.0298292 1.65149e-21)
(1.00506 -0.00070624 1.87339e-21)
(0.998978 -0.00126939 7.00912e-23)
(0.988595 -0.0276498 8.12886e-23)
(0.998489 -0.00578402 -1.64642e-22)
(1.00002 -3.07342e-06 1.29737e-24)
(0.984103 -0.0325167 -8.30116e-21)
(1.03137 0.0558056 -4.26001e-21)
(1.0133 -0.0222877 2.98688e-22)
(0.989277 -0.0030372 -1.65443e-21)
(1.00112 -0.00022628 -7.37041e-23)
(1.01804 0.0168791 1.16105e-20)
(0.999762 -0.00040488 -2.33636e-23)
(0.999233 -0.000408346 -8.35239e-24)
(0.999786 -0.000110986 -3.01938e-23)
(0.999505 -0.0014287 -1.14795e-22)
(1.12163 0.0401993 6.25438e-21)
(1.01965 -0.0259962 3.29942e-22)
(1.00531 -0.0129633 2.06316e-23)
(0.988426 -0.00469505 -7.96138e-22)
(1.00003 -3.36445e-05 1.16294e-24)
(1.05301 -0.0939406 6.94179e-21)
(1.15282 -0.0161945 1.8191e-22)
(1.05727 -0.101816 -3.32804e-21)
(0.997736 -0.0236127 -1.19283e-21)
(1.00884 -0.00625034 2.16379e-21)
(0.999874 -6.06826e-05 1.34514e-23)
(0.992431 -0.00780794 -1.07099e-21)
(0.970551 -0.0325537 -4.77656e-21)
(1.11995 0.0261722 3.88751e-22)
(1.00087 0.0341131 -3.69986e-22)
(0.999247 -0.00216933 9.48624e-23)
(0.961253 -0.0214563 2.56863e-21)
(0.997031 -0.00181526 -6.41629e-22)
(1.02272 -0.0235414 -4.06189e-23)
(1.06312 0.044657 1.86491e-21)
(1.00028 -9.12408e-05 -4.82134e-23)
(0.999907 -0.000132284 -6.5801e-24)
(1.10159 0.0762163 2.05092e-21)
(1.1154 0.0113797 -9.1505e-22)
(1.01287 -0.0109268 7.94598e-22)
(0.998176 -0.00113637 3.25418e-22)
(0.998734 -0.000236641 -2.89442e-23)
(0.975486 -0.0333962 1.17691e-21)
(0.999894 -0.000231623 -2.28356e-23)
(1.01172 -0.0234527 -2.26663e-22)
(0.992227 -0.000592455 2.98358e-21)
(1.00052 0.0187513 -6.40959e-21)
(1.03385 0.0593287 -2.17745e-21)
(1.04592 -0.051147 8.53004e-22)
(0.995951 -0.0526458 3.81156e-21)
(1.00393 -0.00110979 9.20698e-22)
(1.00958 -0.0173852 -3.97628e-22)
(1.10871 -0.0013606 4.6149e-21)
(0.995334 -0.0588123 -2.33932e-21)
(1.01219 -0.0323283 1.16633e-21)
(0.999999 -4.48288e-06 2.16692e-25)
(1.09818 -0.0128197 2.60591e-21)
(0.985017 -0.00112133 2.90953e-22)
(0.99445 -0.0656704 4.7356e-21)
(1.01293 -0.0205534 -5.74874e-22)
(0.970164 -0.00912276 -7.34668e-22)
(0.999761 -0.000203943 -1.59324e-23)
(0.998141 -0.000837704 -1.42025e-22)
(1.02608 0.0269827 1.47413e-20)
(0.980251 -0.00663319 -1.20293e-21)