/*--------------------------------*- C++ -*----------------------------------*\
  =========                 |
  \\      /  F ield         | OpenFOAM: The Open Source CFD Toolbox
   \\    /   O peration     | Website:  https://openfoam.org
    \\  /    A nd           | Version:  7
     \\/     M anipulation  |
\*---------------------------------------------------------------------------*/
FoamFile
{
    version     2.0;
    format      ascii;
    class       surfaceScalarField;
    location    "27";
    object      phi;
}
// * * * * * * * * * * * * * * * * * * * * * * * * * * * * * * * * * * * * * //

dimensions      [0 3 -1 0 0 0 0];

internalField   nonuniform List<scalar> 
29574
(
588.007
-435.401
-152.606
270.85
43.1347
-313.985
946.979
-1138.03
191.047
-395.197
994.354
-599.156
-632.115
671.082
-38.9672
-687.287
55.1721
218.041
-42.0108
-176.03
642.253
-496.284
-145.969
207.029
-288.557
81.5275
89.5561
552.697
-88.2107
258.517
-170.307
-291.902
293.179
-1.27686
-232.189
-20.7418
252.93
34.6527
553.355
620.879
-649.888
29.0086
-965.138
569.94
-316.187
356.126
-39.9389
-91.4382
-1031.62
1123.06
-258.918
229.937
28.9811
305.353
-34.5026
-305.587
293.849
11.7374
-31.2344
-260.668
-499.35
588.906
263.188
-322.744
59.556
946.979
-353.624
62.8298
290.794
892.403
-976.355
83.9521
339.192
-146.303
-192.889
-159.634
-109.472
269.105
-113.957
-144.961
-592.313
740.789
-148.476
334.969
-280.138
-54.8303
408.541
-88.692
-319.849
555.559
-293.83
-261.729
-717.052
780.48
-63.4275
-731.033
138.72
162.398
-393.869
231.471
932.341
-932.341
784.697
-344.519
-440.178
277.538
450.877
-728.415
1.72639
802.668
-804.395
-322.4
100.717
221.683
-885.293
728.065
157.228
973.774
-81.3711
-101.628
-251.996
116.378
72.4862
-188.864
1147.71
-490.593
-657.112
341.54
-245.531
-96.0091
842.858
-30.4369
-812.421
238.892
-228.478
-10.4142
-787.797
70.7453
45.8227
-758.377
712.555
-300.343
-128.291
428.634
763.092
-835.476
72.3837
176.407
-395.886
219.479
15.0782
-209.031
193.953
379.477
-109.25
-270.226
694.73
-751.264
56.5339
-60.4534
-293.316
353.77
-86.3811
-229.806
-645.499
402.772
242.727
-50.2649
244.265
-194
479.614
-482.197
2.58312
-207.012
-372.513
579.525
-697.603
828.059
-130.456
-714.7
107.009
607.691
541.394
-568.691
27.2971
-650.528
-64.1727
-178.298
-356.347
534.645
-111.48
-100.809
212.289
359.968
-553.979
194.011
333.651
-228.24
-105.411
675.115
-54.2355
-270.791
-37.1807
307.972
1063.25
-563.175
-500.08
-82.6038
477.495
-394.891
335.205
-110.243
-224.962
-226.563
15.4018
211.161
934.774
-657.236
591.878
-832.667
240.789
632.524
-525.515
816.817
-194.234
-622.583
302.352
-107.378
-194.975
296.981
-89.9518
133.857
-184.122
-628.82
-256.473
237.289
-282.028
44.7388
-32.4925
135.314
-102.821
-680.556
473.544
116.14
-302.566
186.426
-437.381
724.354
-286.973
739.008
148.793
-887.801
904.478
-130.149
-774.329
173.411
-283.733
110.322
202.375
139.165
424.013
55.601
249.776
-76.3654
-779.389
789.605
-10.2163
-324.927
236.717
1033.47
-928.261
-105.213
277.204
-161.064
405.174
-416.318
11.1439
157.676
140.154
-297.83
464.882
-183.621
-281.261
1240.36
-1240.36
473.598
40.5046
-514.102
-12.1777
256.29
-244.113
-484.126
247.949
236.177
265.2
8.93445
-274.135
-294.357
-61.0162
355.374
48.6077
-208.241
178.949
39.0914
394.816
-109.392
-285.424
-266.451
-401.268
667.719
-573.386
490.782
-568.684
-431.399
-415.932
-157.843
573.774
576.74
55.7838
-320.486
3.93067
316.556
-1028.49
237.873
790.616
-170.792
909.8
54.7213
256.324
-311.045
381.511
-631.414
249.904
232.497
-361.9
129.404
131.421
424.138
794.919
-886.358
14.6158
227.196
-241.812
183.437
155.755
241.83
93.1389
115.281
-531.213
-30.6
-150.006
180.606
21.8719
217.02
858.51
-856.783
290.564
494.133
116.007
-361.782
245.774
269.165
971.197
303.954
-75.4447
-228.509
-276.908
-28.6787
-405.761
35.3723
370.389
100.719
65.2362
-165.955
292.249
-237.527
31.4191
-302.211
182.8
150.851
-300.005
188.024
111.982
-581.471
95.5415
485.929
-130.675
246.682
-309.225
89.3946
219.83
-94.2813
-222.915
317.196
8.40306
313.508
-321.911
-765.112
-211.244
127.382
-221.663
223.725
971.751
-67.273
-229.107
-52.4728
281.58
151.009
665.808
-288.991
-20.2344
-753.583
124.762
73.6255
189.563
68.4639
-159.283
90.8195
-10.287
-221.902
-172.233
348.639
-239.309
197.298
-36.3031
-409.382
-172.088
-202.902
-678.295
881.198
-143.177
110.684
345.597
59.5771
273.912
28.4406
440.37
37.1245
-358.357
520.755
358.05
-54.0961
-164.942
-152.347
317.29
15.0494
-227.628
212.579
398.684
-442.689
44.0053
97.5256
95.6488
-193.174
45.6481
362.893
-571.61
509.108
62.5024
-535.482
-32.2804
567.762
-439.591
-133.795
-2.13494
219.773
-217.638
62.9335
-231.102
168.169
735.56
196.781
342.194
36.229
-378.423
-67.3384
216.352
-149.014
267.109
38.244
227.017
-123.807
-103.21
586.627
-226.659
30.7377
1002.74
144.395
207.744
117.511
-325.255
298.155
-283.539
248.3
-396.916
148.616
72.6737
-1000.93
-602.553
424.255
216.98
-148.516
-45.5674
313.074
-267.507
95.1118
247.082
-55.4665
323.981
-268.515
325.222
-58.113
-6.51633
214.26
261.698
-400.644
138.946
-95.6214
333.857
-238.236
-483.964
145.587
-332.713
187.126
268.222
-376.87
108.649
-312.29
284.822
27.4677
-9.47855
-327.333
336.811
777.006
-731.183
197.234
-182.156
619.57
-634.853
15.2828
413.266
128.128
-851.898
510.274
341.623
-38.8808
303.454
-264.573
-85.7086
-150.389
236.098
-296.492
559.97
503.284
513.768
-513.768
-531.308
-497.181
-266.66
-217.466
899.374
-608.811
-1.5942
265.768
-264.174
-159.805
-279.542
439.347
63.5502
164.263
-227.813
529.801
-967.182
-348.364
287.348
-12.6043
-393.157
351.974
-361.453
-1068.66
499.973
-485.138
485.138
-641.372
-6.61866
647.99
661.034
-279.523
291.642
135.47
-427.112
-330.075
317.898
-216.826
206.622
10.2034
-558.904
842.811
-283.907
306.69
-69.4006
572.809
-99.2108
-412.022
247.08
181.978
67.798
-659.543
499.738
246.833
-357.076
87.9283
-173.637
275.881
111.41
-387.291
352.26
-119.763
-995.007
-245.355
622.059
-45.3189
-82.9078
285.781
-202.873
551.886
-476.036
-75.85
-80.1255
776.836
-696.711
-53.2141
896.072
263.483
1.71772
-117.917
181.468
-92.019
572.403
-480.384
-542.589
198.07
-165.438
10.9271
154.511
-135.073
426.715
-51.8407
230.404
-178.563
-71.4867
-250.913
192.564
-91.845
-77.3589
193.737
20.8544
-249.169
228.314
34.9195
455.832
-490.752
710.37
49.3838
-759.754
285.803
20.8862
-80.2173
-159.092
-142.33
44.717
243.365
-288.082
34.0363
360.78
205.587
-764.491
304.451
-193.793
-88.2349
122.532
-820.683
698.151
67.8738
-402.228
-166.463
-297.263
214.288
82.9746
-330.324
-315.175
567.773
-999.172
236.67
-49.6432
-187.026
-61.735
263.417
-201.682
-1039.54
345.302
694.239
-48.3087
379.436
-331.127
324.571
54.9062
-235.106
84.7118
150.394
362.652
-108.37
-254.281
390.255
-141.955
-157.009
297.163
263.098
-214.535
140.177
-201.912
-111.016
622.4
-511.384
753.457
-161.579
-115.215
-375.029
490.244
854.058
-731.526
263.897
-219.18
-27.37
-330.987
-536.957
73.0611
88.1642
-161.225
369.483
-90.3963
-279.087
-93.3663
189.273
-95.907
399.139
-137.441
-120.956
-355.147
476.103
7.65901
843.948
-851.607
-776.66
803.906
-27.2461
-241.522
47.2363
194.286
-754.058
439.936
314.122
49.1576
-163.115
-1.12188
175.684
-174.563
-300.351
269.117
6.18625
-230.573
224.386
248.164
-28.391
180.71
-552.405
371.694
230.73
-209.876
-40.2655
-186.297
-62.6747
583.43
365.636
-80.2783
-285.358
-733.869
741.528
-461.178
363.664
97.5136
460.87
-345.588
482.892
-855.366
372.474
-294.591
-101.295
-726.528
28.9251
-178.947
-56.1593
-645.627
631.586
14.0414
-181.944
351.356
-169.412
320.069
314.016
262.632
-169.541
-93.0905
267.03
-259.116
-494.466
-198.765
-84.9679
271.644
-210.962
-60.6817
-567.354
17.6953
549.659
174.384
-76.8587
1006.26
-1006.26
433.603
-499.92
-539.62
160.1
192.16
-352.26
-492.93
465.56
-331.876
294.695
-326.59
420.654
170.493
-591.147
50.7356
712.357
566.591
-145.938
443.034
-600.876
106.22
209.789
-316.009
-208.323
-214.361
422.684
319.592
73.1415
-392.733
-297.325
-544.654
841.979
491.649
-758.1
385.625
27.6836
-413.309
-1031.62
417.664
96.1041
293.42
-278.371
300.567
-361.02
-11.3727
121.431
-110.058
15.3405
-261.795
-254.37
11.8189
242.551
252.024
19.6197
323.31
-390.648
226.9
-93.0433
-558.959
-200.003
-102.563
-391.482
-362.576
-976.829
-184.544
1161.37
-496.391
963.869
-467.478
-130.771
-4.20387
134.975
-668.465
636.797
31.6673
-250.002
382.261
-132.259
245.162
306.725
2.36084
-211.392
873.942
-912.484
38.5425
436.825
-123.238
223.955
-381.259
166.827
214.432
-256.899
71.57
185.329
-501.387
-65.9667
135.183
-244.433
360.279
-84.3979
-1122.58
919.681
-563.89
471.871
-98.0622
211.144
-113.082
-73.7096
384.183
-310.473
385.728
-361.815
-23.9129
-369.005
46.0737
-211.512
-316.999
696.564
-379.564
-71.343
-253.584
-90.681
476.306
4.42538
192.196
-196.622
943.985
203.72
-365.787
-15.4724
172.048
213.679
-372.677
-456.376
829.053
-871.001
380.408
436.093
-949.845
513.752
104.278
-441.902
337.624
-281.667
188.301
-12.5577
468.39
-133.361
-199.352
-428.258
148.12
616.096
5.96333
24.1817
212.488
437.513
-76.2196
-361.294
-109.434
-86.8413
196.275
133.218
236.857
-308.343
9.1126
-108.167
-41.502
149.669
-384.236
-20.4938
404.729
-27.0725
331.919
-304.846
-102.953
493.6
-390.648
-419.273
390.856
-71.2645
-907.206
827.081
362.015
-321.51
-70.3802
-326.536
-73.9056
-326.738
-655.37
-124.019
-536.435
299.755
236.681
-293.836
65.5954
-127.86
123.941
39.2662
195.354
411.101
-606.454
29.7103
-293.532
48.0011
27.784
296.197
150.932
-260.324
-51.5305
-291.435
342.965
-810.682
796.29
14.392
231.417
-252.426
21.0089
362.234
537.14
275.893
-384.264
-20.3792
306.183
-724.581
694.144
288.745
-211.053
-77.6918
300.03
13.0438
-175.447
-167.886
-311.745
479.631
-214.333
-97.9569
304.465
-394.861
443.245
-564.2
119.218
76.3688
-195.587
206.035
-128.352
-77.6833
278.164
-650.841
159.79
-516.137
243.407
-92.0262
-151.381
47.5896
-812.701
-432.544
312.775
-393.053
-592.931
697.209
-507.771
98.3889
368.302
-665.627
116.474
-231.939
115.465
-850.433
898.023
-30.2022
-6.43531
809.103
-218.308
216.446
1.86265
-312.117
196.727
115.39
-241.94
-134.93
-58.3725
426.681
-368.309
556.086
-667.102
46.9241
-228.923
181.999
174.173
-127.249
348.267
82.0705
-264.015
173.893
18.6711
-143.765
766.824
107.117
-453.408
172.147
-212.102
177.652
34.4506
190.802
-242.643
-3.00035
191.525
-188.525
-353.338
301.807
-222.287
-15.3102
237.597
-547.863
432.647
210.636
-202.233
-580.899
-64.7283
614.85
4.72012
-318.756
-212.457
174.133
-88.5033
-85.6294
-113.821
-100.65
214.471
177.117
-241.996
64.8794
-44.1403
294.284
-250.144
-225.603
213.156
12.4467
-195.218
-30.3852
355.348
82.1656
991.487
-722.322
-282.824
-311.541
240.198
191.052
33.013
-224.065
-984.725
805.558
179.166
-366.897
170.109
196.788
-508.438
-148.454
656.892
-158.927
-806.211
-14.1236
-283.706
-470.036
449.542
-98.518
-213.599
258.23
5.18652
659.831
-102.663
-557.168
347.335
-450.288
-159.206
756.255
-597.049
-232.57
-208.586
441.156
-285.713
269.592
16.1216
5.94577
-70.0283
247.145
-115.56
-181.702
-526.97
-9.46495
-16.158
-90.549
-744.927
40.3442
-432.229
-214.028
100.207
-281.909
172.437
699.056
255.09
-307.563
163.498
63.5187
-332.335
-5.43729
337.772
-264.529
7.6294
-36.8791
-997.062
778.657
218.405
-19.8803
226.503
-85.4584
271.885
493.073
-523.857
30.7835
-302.968
-158.209
-361.095
396.467
-45.1583
136.598
-91.4394
1002.15
-823.168
-178.98
43.0576
-581.515
538.457
-27.2135
-124.319
151.533
-157.624
-136.211
487.377
-63.3643
-260.234
505.396
-559.36
122.007
437.353
-209.962
272.791
520.053
-391.294
-128.759
294.409
8.38643
-302.796
-281.58
198.672
677.296
-104.005
-573.292
435.149
-239.795
-433.272
389.569
43.703
271.377
14.4038
-292.984
-39.3508
-180.065
56.2579
200.13
-500.576
66.6138
433.962
-262.342
260.748
-396.728
369.655
-327.061
-67.4739
-417.664
-458.029
399.657
-530.613
1001.79
-471.18
-118.812
73.6536
-175.604
-191.293
488.185
-50.2114
-437.973
-17.4335
-298.773
316.206
-506.377
562.904
-56.527
443.833
203.048
-100.09
-102.958
199.793
-243.934
198.188
-201.188
-310.996
100.034
469.382
-426.325
-11.2847
-274.429
66.2174
-906.065
906.065
121.349
3.09016
420.506
-423.596
-165.447
181.675
-16.2281
-512.884
304.561
-425.454
69.732
355.722
56.3001
117.833
-510.662
407.822
102.841
-207.63
436.451
50.9259
308.196
41.9962
-350.192
339.152
-82.8283
-426.38
-49.6567
117.242
-358.827
285.117
337.944
-253.749
-84.1949
-29.9515
144.364
-114.412
-976.829
-295.42
-184.939
81.735
103.204
-341.885
253.193
-427.216
-522.629
245.288
563.466
-808.754
-144.52
-531.895
676.415
-484.062
165.306
-19.0453
192.938
214.368
-16.1801
-657.298
640.533
16.7651
83.3237
351.825
292.311
-74.184
-218.127
-100.379
-564.176
664.555
-578.491
818.505
-240.014
-594.795
58.9434
-811.912
207.92
603.992
-985.009
433.126
551.883
-288.406
-270.953
-116.661
478.676
-968.578
437.965
-675.56
814.399
-138.839
657.067
-757.446
-210.998
251.064
-229.192
124.311
-799.871
-164.148
-694.425
858.573
678.158
-0.86197
501.249
326.81
-92.6058
294.981
-92.3319
88.128
-152.602
219.853
-592.366
254.023
-226.82
-27.2029
-120.354
344.154
-223.8
-172.077
-121.455
523.356
-30.2822
-291.037
273.604
13.3058
623.492
-703.86
-650.61
-255.264
-245.311
40.802
217.715
24.0999
486.419
-510.519
-387.787
349.124
38.6632
-141.101
156.503
561.628
440.165
-380.758
-167.744
548.502
173.914
-260.295
-106.835
289.635
-72.468
-352.986
183.576
-259.021
-232.854
316.177
202.518
-130.032
-448.253
-536.756
-290.731
-11.279
302.01
-335.231
198.617
136.614
-173.859
178.284
-246.932
-88.2982
225.27
-219.084
249.803
-282.359
32.5561
319.311
-86.6743
-232.637
-805.222
646.296
-311.268
-331.479
81.477
-325.106
352.789
273.537
-74.4843
518.317
180.24
-15.9772
263.849
561.053
-824.902
-194.127
165.819
40.2166
-575.22
407.334
-983.299
305.004
319.812
-816.202
-473.021
-73.0171
546.038
-528.885
451.263
77.6218
281.956
-207.112
41.6652
-651.002
390.768
-40.4859
156.96
-359.425
383.525
135.068
-526.361
-121.809
-36.8197
218.798
-7.62342
277.215
270.689
-80.9855
176.634
774.382
2.4542
295.818
-282.8
-13.0182
-277.263
-84.519
-87.2711
-34.1868
265.604
716.338
247.53
51.7793
220.105
341.02
-94.1871
-62.3893
316.188
-253.799
-457.294
82.265
494.606
-230.4
-264.206
287.883
-295.507
-16.3801
-674.347
690.727
223.331
-828.583
459.577
-236.683
76.1222
-361.48
-124.469
-397.94
522.409
-124.959
135.886
248.351
-340.957
330.612
-17.1046
-870.247
334.766
89.166
-368.252
-725.924
-523.334
-461.39
237.62
104.718
-359
231.208
-338.043
158.446
84.9612
153.21
-221.029
67.8191
-516.887
161.74
503.81
-923.083
-147.105
58.6016
458.32
26.818
-574.847
-422.215
17.9035
-598.802
-3.60895
298.018
-100.201
413.437
-313.237
-107.935
-85.2395
152.596
-230.453
-66.0393
-343.546
377.583
-265.877
-52.7835
318.66
-64.4044
263.021
-287.793
-259.817
241.803
18.0136
43.7646
-252.685
328.807
370.299
-65.4693
-322.317
-22.0106
235.167
204.455
-28.6098
-175.845
-84.3012
-466.591
53.8062
412.784
-290.394
-135.965
426.359
185.149
-215.1
337.517
-238.748
59.8005
-195.331
-123.367
318.699
817.605
335.926
-40.5338
-209.862
250.396
-22.6454
-506.239
-290.731
-733.049
342.236
390.813
2.64411
-296.474
-9.32423
251.154
-12.3009
228.747
282.835
-329.952
47.1166
-465.689
-136.864
-542.596
178.361
364.235
210.491
27.1063
237.882
346.054
-612.059
266.005
242.492
-409.639
167.146
-357.013
408.646
-664.326
255.68
991.65
-960.912
-776.757
459.758
-453.212
-112.296
565.508
173.957
121.861
-314.831
578.412
-414.98
-163.432
389.556
-215.643
-832.413
253.922
250.479
244.128
-239.919
82.2946
401.574
-83.6766
179.081
-180.982
1.90153
232.731
11.5339
579.754
-612.034
-502.118
170.883
331.235
74.2103
-363.636
-124.087
487.723
89.6487
395.23
-211.654
265.262
59.9595
-455.162
152.194
312.125
106.352
-418.477
118.221
-216.283
-189.743
-229.235
-206.166
-360.782
17.2358
-28.4851
-628.813
-36.5927
231.505
-194.913
-297.975
185.287
112.688
-391.915
-120.088
512.002
-278.114
-70.2496
188.062
16.3922
-347.643
80.25
183.07
73.9621
-257.032
-265.579
-143.958
409.537
-366.437
-291.618
271.813
19.805
110.85
-340.181
229.331
163.024
-229.054
66.0303
-36.2117
-122.771
-287.283
410.054
-364.893
231.532
211.566
-440.802
-249.586
107.277
142.309
-464.631
152.886
35.1005
-440.249
405.149
-196.716
-63.1008
184.283
429.004
-355.207
-73.7971
-210.209
202.169
8.04035
-263.317
120.772
142.545
-75.5976
-136.505
-330.281
-117.666
923.224
-215.315
-33.8533
272.825
-477.578
319.369
108.216
-307.543
199.327
-404.491
-143.103
547.593
-472.012
-215.275
220.153
-29.1008
281.221
690.172
-706.552
-49.0898
-272.183
321.273
82.8344
-711.707
628.873
208.016
99.6863
-307.702
308.994
-116.834
-238.61
224.486
-362.679
-49.327
412.006
-710.483
39.242
671.241
-503.928
-155.616
-96.5524
-300.176
522.771
-41.7462
-774.535
-19.7858
794.321
-205.992
565.234
-359.241
-214.252
478.101
146.343
-509.98
325.876
-116.087
123.911
448.491
-426.046
429.136
-322.051
-149.442
471.493
-523.537
50.5165
315.678
47.9856
18.388
-256.998
266.442
-74.5858
-191.856
-110.387
-113.656
301.956
-86.1515
-272.675
44.4234
228.368
-298.85
-101.556
400.406
-278.786
349.825
-71.0391
-86.5927
277.395
-334.943
-141.708
476.651
-232.93
103.387
129.543
-133.471
-51.7706
55.7751
-651.607
595.832
-181.129
-252.143
-305.101
-247.304
-334.092
-98.4527
-209.554
-82.2919
291.846
415.168
639.757
170.39
-226.946
56.5555
167.122
530.087
226.892
39.5499
178.159
-256.453
78.294
-407.097
-140.765
-526.315
-100.245
367.275
-179.828
316.28
-34.3237
656.023
-156.285
-4.59528
229.865
-241.046
278.419
-37.3725
713.61
0.392386
287.491
-601.87
492.289
109.58
220.83
71.4807
204.769
-46.083
221.165
-323.728
74.255
-326.251
19.1503
-354.911
357.909
-2.99762
83.2772
-186.098
166.677
49.7232
-320.389
318.976
1.41224
296.21
-348.993
248.264
-19.9496
-374.101
-118.829
-62.3311
284.014
11.9661
242.057
301.715
6.25754
-391.231
-114.475
505.706
-77.7797
-150.698
-195.515
-33.4075
54.4602
249.99
259.08
-293.267
319.176
-57.1276
-261.751
289.372
-27.6211
-1061.4
715.781
345.617
-422.017
131.623
334.031
7.02244
-341.053
-69.2787
354.396
566.049
-176.745
-38.2612
215.006
-71.9408
-228.41
-260.815
-64.0245
324.84
-284.216
-61.7881
346.004
-69.9507
-510.028
-91.8418
-797.978
785.6
12.3784
31.4578
249.148
-280.606
37.0321
321.325
-192.401
479.141
-286.741
-231.416
-80.1252
-482.596
103.897
-211.832
185.892
-242.051
-315.783
-116.03
431.813
-119.092
470.553
-351.461
-381.179
-88.8571
-237.488
-103.469
2.1582
-440.765
-123.126
-200.033
683.553
16.1287
647.849
-663.978
-197.423
47.4171
230.356
-815.793
585.438
145.334
-387.274
306.211
-49.9206
87.4614
-1023.73
-225.113
-112.93
438.283
-4.67985
-524.578
-392.937
-121.165
-657.418
205.905
-399.413
193.509
-7.21381
301.498
-344.516
-92.9889
437.505
-16.7784
-283.13
299.909
830.034
-116.424
-491.919
479.361
-59.2576
-715.278
-92.4935
462.149
-846.798
783.37
295.9
-474.35
401.882
-94.7322
-116.321
162.154
175.914
-338.067
-438.226
-246.455
183.569
19.1118
-202.681
-210.044
915.785
31.1946
-991.992
559.763
-212.22
-104.42
316.64
756.579
38.3406
358.571
-71.2228
372.326
-355.091
-401.914
406.58
-4.66612
330.335
-324.748
-5.58768
363.34
-82.1189
-18.6741
-436.422
-145.093
-223.502
-128.758
-198.607
-117.402
-614.594
823.017
-208.422
-240.976
-5.95648
-220.671
-441.068
-462.296
412.085
75.0613
-305.514
-91.978
-125.157
217.135
-42.9065
388.505
-345.598
355.861
-54.054
218.163
-70.4971
-147.666
98.397
-222.716
134.382
128.716
313.708
-105.692
-333.497
-91.3553
230.52
568.908
-136.261
26.2131
-773.541
747.328
-273.472
111.199
-192.185
-30.1392
-77.515
346.632
57.5595
771.753
-699.369
856.453
-110.867
-745.586
376.521
-74.6712
-301.85
103.732
-216.814
-90.736
507.307
-416.571
-231.21
-57.3461
22.3957
-734.103
456.612
-74.1772
-290.499
284.958
5.54122
-212.047
-40.361
252.408
202.411
26.7657
-229.176
-35.9347
-87.4599
-449.836
-611.562
-427.196
200.446
0.440072
-196.543
-22.0218
245.353
57.9567
-538.27
480.313
-330.2
222.354
-397.958
149.341
-348.693
683.86
-330.524
67.8047
-268.143
200.339
-143.962
310.789
595.602
-152.568
-203.413
-141.37
229.053
913.658
89.0782
-302.01
225.645
46.2853
725.468
-11.5147
190.596
-323.017
-93.3016
401.375
-88.6007
-457.124
-519.876
153.121
366.755
-164.703
-539.119
703.822
-572.784
1009.61
-755.045
140.451
-484.385
-273.513
275.508
114.747
-934.807
55.0634
879.744
-352.97
401.176
-96.7111
-10.639
362.613
332.305
17.5199
229.243
-195.622
-33.6209
-308.276
98.2326
-192.573
-17.6365
243.047
377.563
-101.669
673.681
-135.224
290.786
108.353
571.873
-128.629
518.79
-107.689
255.747
-40.1367
-215.61
443.566
-498.227
-339.425
837.652
543.739
-243.984
-298.088
-553.159
80.8487
472.31
313.516
-73.3181
-711.383
677.405
33.9784
525.802
-76.2597
-28.6453
634.952
-606.307
-381.507
294.833
296.391
85.87
429.387
137.205
-385.002
217.644
-35.6449
366.414
-10.5526
-435.648
-125.653
-47.4764
592.589
321.635
-315.668
-5.96772
-531.206
65.5165
-386.822
-332.863
298.54
53.1827
326.253
-296.146
347.47
-52.6366
-145.389
-272.071
-270.236
-16.0266
286.262
-401.403
-112.365
-35.4058
547.214
-38.1066
-4.87068
473.26
583.694
-26.3559
-157.31
-267.433
328.741
-61.3075
-55.6775
222.825
32.016
-743.399
-323.757
-236.59
359.629
-389.836
-68.1931
467.689
644.071
211.48
-855.551
-155.092
584.855
-128.243
328.178
-244.294
-83.8841
-71.7447
-602.345
-209.567
34.483
199.862
132.443
-139.162
205.192
-284.279
-305.161
352.049
-46.8879
217.35
317.572
-434.232
730.773
430.599
-309.768
375.035
-65.2674
-266.283
-475.246
-219.559
837.484
18.9691
417.245
-50.8311
-967.661
32.8541
393.23
-69.9199
-745.519
-13.3052
-313.231
633.999
206.156
-86.9376
-93.3992
11.8108
294.372
-388.271
-6.6256
394.896
-241.36
-145.931
201.498
-115.672
-474.515
-100.705
499.568
-92.234
349.405
-5.43229
-321.306
-108.756
-134.814
-518.538
374.019
-112.896
652.82
-630.424
-277.318
378.253
-100.935
-239.062
66.9853
281.249
22.2049
-445.712
-477.371
-407.002
973.056
-465.964
-507.092
581.726
-109.855
-522.217
-128.785
-96.6621
17.9316
526.1
-135.332
21.3351
55.5876
175.918
-227.958
-225.45
55.1178
-104.075
561.067
-136.812
-404.002
-341.971
287.141
263.611
1.99316
442.184
-92.7788
-51.7788
-148.254
-145.745
-305.962
31.533
78.2368
-273.752
441.108
-652.351
615.303
-114.203
-501.1
758.818
-726.802
433.567
-73.9377
-247.07
-283.791
44.2748
594.235
-126.546
-758.316
784.529
215.441
-1.49966
-213.941
-148.614
223.675
464.021
-64.3637
620.075
-146.531
-280.353
280.745
-109.151
-75.7879
-209.277
269.271
-59.9948
-94.9811
268.938
299.925
-44.8351
-36.4207
250.062
-473.525
-277.739
271.392
-235.638
-35.7542
-430.919
419.35
11.5694
-17.5237
-137.35
309.398
294.678
-300.13
5.45171
-250.524
-84.6365
-14.0607
135.492
-320.065
420.096
-42.9207
787.12
-744.199
-507.723
348.574
-31.0022
35.0802
344.439
13.7143
-358.154
7.13076
382.438
229.351
498.714
36.6699
503.527
14.7907
356.158
-47.962
-70.1029
248.262
266.244
49.944
-871.27
887.399
-302.81
282.697
20.1125
-547.221
247.957
2.10536
806.56
-597.015
-209.546
259.577
-182.845
-76.7317
433.412
227.887
30.963
492.393
-197.626
617.322
-419.696
97.6907
-51.6088
846.4
-794.791
-429.159
306.388
476.142
198.972
233.446
1.72098
222.339
-189.418
-485.369
674.787
40.9048
207.359
64.0023
-558.975
571.028
-508.526
814.676
-262.123
-552.553
-289.245
-194.719
69.0022
271.03
0.783381
-223.985
-286.677
-359.352
-511.649
3.26576
185.041
-188.307
290.371
263.052
191.407
-792.433
768.523
23.9093
-26.3336
407.78
-456.517
48.7366
279.092
80.3391
-0.478248
787.621
-787.143
98.5631
230.178
61.3002
82.4112
-291.377
304.45
-13.0728
-920.253
-56.5755
194.791
-131.715
-488.274
619.989
-292.942
856.408
-147.227
-398.049
-133.156
-560.54
102.998
384.725
27.2256
-253.715
-26.638
199.144
-143.556
16.3764
856.783
49.2814
-14.4415
301.932
472.22
-356.57
-115.649
-630.104
234.83
395.274
137.527
164.429
363.112
-356.114
271.92
150.124
281.689
229.517
257.052
32.3202
69.6154
-483.459
413.844
836.827
-238.079
-598.749
168.522
218.374
-386.895
366.562
401.9
248.053
3.85709
-626.33
-306.011
271.149
-889.719
367.66
81.3415
-479.282
82.9947
-636.287
-97.8156
244.565
-358.088
392.91
554.288
-568.179
645.005
-76.8258
-10.6869
371.467
410.711
-351.238
-40.3456
172.009
-131.664
-303.182
294.618
-17.4033
667.678
-346
-22.5039
376.151
-353.647
89.0074
-178.318
254.71
-76.3916
-291.832
237.1
54.7314
271.527
543.149
136.099
-401.85
454.837
-1123.06
1122.58
128.051
-10.6324
439.902
167.219
-56.0195
414.694
349.986
214.4
21.6976
293.09
364.07
-25.7648
-338.305
-649.644
648.947
0.697367
229.75
195.626
-10.5856
501.49
-431.875
-211.211
765.499
304.573
81.0887
272.755
-366.942
-172.132
26.8228
244.569
785.26
-173.493
-611.767
-888.238
960.912
298.222
377.564
254.167
-247.144
554.136
-992.363
466.027
345.011
332.847
-35.5175
469.365
291.215
59.4021
-416.561
357.159
-219.08
329.89
-13.5983
-23.7564
-824.32
694.171
858.971
-201.904
333.752
285.936
124.846
339.237
-19.9772
-319.26
269.152
317.907
296.217
-187.833
87.7437
-272.484
281.976
-9.492
445.757
-561.42
-247.335
-2.81567
217.216
463.533
-578.008
-275.684
21.9692
471.109
-131.322
-235.904
367.227
-331.592
-188.284
634.503
106.286
426.369
-943.756
517.388
-459.631
417.973
41.6578
-2.92703
252.3
-249.373
354.987
-265.98
259.281
-236.486
-22.7954
321.965
42.6197
-220.938
-850.433
81.8746
360.006
-441.881
-32.8108
723.916
-691.105
322.26
-295.278
-26.9816
-445.654
474.982
325.638
-268.078
-399.982
978.644
-578.662
275.407
-13.8045
197.373
541.029
458.971
-183.889
207.134
12.7346
-219.868
-27.7655
398.155
-593.465
33.5833
559.882
201.915
259.9
-363.369
-42.0259
-388.894
-915.785
864.176
-492.908
1033.94
336.305
-59.6569
238.093
-1.78643
-236.306
488.628
-434.822
55.6328
-707.239
-459.568
-0.063266
-256.363
318.164
-469.465
-499.113
298.21
-18.8013
-279.409
-959.616
428.308
-797.978
156.117
32.4314
-188.549
29.6948
599.178
647.994
-633.953
-275.407
836.46
-73.3181
224.169
379.682
-550.733
171.051
-134.391
355.503
-221.113
-704.174
750.46
-385.788
219.915
-223.342
232.419
-9.07643
-275.71
702.079
313.472
641.857
27.6731
-785.989
-231.416
244.253
-357.183
-34.9492
-228.684
240.503
-898.023
981.975
175.44
39.1824
-214.623
262.553
-319.22
-71.4283
2.56944
391.852
210.56
-602.411
502.747
-902.729
524.405
-55.0221
-221.885
-2.6102
224.495
-114.158
-191.803
-306.567
73.9307
-166.345
-135.866
302.282
291.294
-264.471
-117.665
-316.25
433.914
280.177
288.859
-17.5499
-292.92
310.47
-690.891
16.5442
858.51
-920.253
991.65
-995.007
971.197
1012.71
-1012.71
-888.238
-1023.73
278.365
-251.139
-242.667
-251.913
-186.641
-1.88404
753.363
-965.157
211.794
-887.399
10.5546
-280.781
190.942
-34.8243
-763.494
791.167
227.567
-6.83738
-220.729
-280.725
263.946
-11.8719
-249.468
261.34
248.357
-14.2272
-234.13
201.352
-228.555
-23.6432
-253.186
276.829
-187.624
200.377
-12.7533
249.95
280.66
-347.093
406.496
104.179
-181.045
76.866
-392.721
-608.213
-193.871
207.151
-13.28
-419.549
-84.0794
503.629
193.709
-174.597
40.1273
201.429
-25.9884
-360.137
275.618
514.178
-121.268
209.359
462.085
-54.3047
311.982
-399.189
87.2067
18.4611
-637.042
666.737
263.319
-460.946
-783.682
730.281
53.4007
480.777
497.867
71.2405
442.938
-276.117
268.904
-73.0774
-710.604
236.84
-341.26
730.362
-938.784
343.999
-764.921
420.921
126.318
263.989
-205.849
-58.1392
-54.6344
-387.208
-868.288
592.578
-1.65395
256.052
3.77351
-308.103
304.33
15.7777
-51.5106
235.551
281.671
-37.1022
185.392
-58.2821
-127.109
738.765
20.0528
272.493
301.77
6.50644
178.581
-228.504
49.9233
236.595
-299.672
296.063
-331.434
-202.863
217.121
-14.2571
74.6207
-494.17
241.336
178.76
-82.7462
836.11
-609.358
445.926
576.158
-681.371
220.268
-336.355
309.918
-444.308
186.72
-315.478
218.109
-191.343
-332.666
215.833
-189.546
-7.38406
196.93
217.462
-334.865
368.234
-266.198
-102.036
-6.08148
486.395
-442.473
-560.376
1002.85
-759.23
655.225
-50.5797
-320.382
370.962
21.3843
59.0193
-292.592
283.268
-268.167
-7.51652
196.46
64.8631
-261.323
-183.92
-215.493
-296.356
223.23
-208.776
-14.4535
-308.103
-409.481
409.481
185.843
-657.855
167.391
181.248
304.33
727.268
-234.978
-41.9372
-645.592
687.529
526.126
-88.7732
235.166
-364.336
315.246
396.1
242.808
4.28766
232.114
-172.129
-59.9855
-31.5652
-686.805
686.805
-176.241
-386.84
-92.7298
-119.103
206.618
20.2818
-142.101
209.899
-422.895
478.496
-146.503
-202.19
742.864
-504.759
-238.105
-110.961
-105.853
552.329
-180.634
-115.066
-43.3058
-488.797
532.103
-500.643
-287.154
511.838
-19.4455
-17.2878
-744.241
554.823
-457.882
-65.6554
767.873
19.2474
230.632
-112.929
773.684
-660.755
105.083
873.801
683.178
855.221
146.977
-217.474
-386.166
-73.4021
-234.186
249.761
-230.531
49.3248
-167.958
-897.934
41.431
856.504
11.0709
391.701
813.59
-261.318
246.287
15.0311
1066.41
-542.386
-524.023
-168.617
3.30543
476.055
202.624
-36.8051
266.52
281.982
422.367
-772.038
956.297
-184.259
-347.798
5.82647
231.471
17.3887
666.164
-86.9655
-215.845
-164.479
-242.523
211.152
92.3152
634.953
689.852
-731.789
91.3171
-795.491
22.7327
654.672
752.261
-849.587
97.3262
-627.594
535.75
91.8448
627.241
-563.546
-63.6946
-446.363
520.984
58.0508
-77.9729
-122.007
199.98
122.537
305.578
-603.312
447.697
188.825
-188.825
-199.026
218.49
-879.209
436.735
-670.43
538.715
-553.159
871.27
-954.016
23.6581
-237.502
204.318
-164.331
-222.943
-246.362
20.504
357.079
35.0297
341.491
-350.91
-363.818
39.0702
436.907
-680.891
-55.3102
-726.75
782.061
225.383
-265.744
55.127
103.278
-228.434
-623.599
655.266
-196.73
-45.3209
8.15383
548.371
148.192
-308.207
-24.6566
-455.109
957.856
864.3
-864.3
332.914
43.2363
9.9994
463.261
-761.497
17.2981
651.389
15.348
80.3264
417.398
-497.725
214.606
301.904
-3.88577
8.9834
673.376
17.3507
-858.095
648.528
195.47
303.246
-498.716
-826.39
564.267
210.283
-412.489
19.0379
-649.462
-184.591
-56.465
241.056
-79.6677
194.78
-115.112
15.1923
44.5079
355.887
40.5804
-201.061
17.3807
-290.617
524.803
659.987
63.9283
12.3581
139.974
-82.1564
-198.45
196.07
395.221
-500.646
-707.829
-64.2089
-197.612
-466.94
-476.816
-274.071
-360.781
624.56
-514.979
6.69176
798.628
-805.32
318.178
50.056
392.15
-59.2357
621.15
-56.7267
-564.424
313.783
-19.088
-572.085
-103.976
676.061
-28.2223
-255.316
-608.525
452.24
-170.974
-72.9887
243.962
238.1
611.299
66.3213
-239.615
-84.1133
24.3953
203.33
-546.08
638.396
193.755
3.61865
-199.784
396.091
-196.307
314.09
-873.766
559.676
-778.378
19.2961
759.082
129.683