/*--------------------------------*- C++ -*----------------------------------*\
  =========                 |
  \\      /  F ield         | OpenFOAM: The Open Source CFD Toolbox
   \\    /   O peration     | Website:  https://openfoam.org
    \\  /    A nd           | Version:  7
     \\/     M anipulation  |
\*---------------------------------------------------------------------------*/
FoamFile
{
    version     2.0;
    format      ascii;
    class       surfaceScalarField;
    location    "20";
    object      phi;
}
// * * * * * * * * * * * * * * * * * * * * * * * * * * * * * * * * * * * * * //

dimensions      [0 3 -1 0 0 0 0];

internalField   nonuniform List<scalar> 
176195
(
197.168
58.9577
-256.126
-473.236
101.903
371.333
-85.0505
-70.985
156.036
84.4682
-246.249
161.781
-473.881
339.079
134.801
159.252
-324.455
165.203
-128.216
217.695
-89.4791
-90.5595
209.886
-119.327
-361.61
339.262
22.3483
-464.548
-8.68826
-224.112
346.459
-122.348
502.357
-360.051
-142.306
-150.811
341.493
-190.682
39.7473
-37.2586
-2.48873
-56.2777
-305.333
-61.0319
24.1106
36.9213
-456.865
96.6804
360.185
-402.36
81.3307
321.03
-194.758
292.87
-98.1123
-349.395
-124.486
-84.3483
196.589
-112.241
134.617
-134.055
-0.562169
380.536
-273.005
-107.531
131.035
-273.671
142.636
-352.099
290.202
61.8973
-26.9389
160.809
-133.87
-21.8133
37.2285
-15.4152
-243.259
536.172
-292.913
-260.597
-177.449
438.047
-52.1083
102.292
-50.1837
422.883
-336.407
-86.4754
-290.812
-32.2129
323.025
-290.787
446.719
-155.933
-72.0027
-56.1661
128.169
-158.868
-109.074
267.942
178.897
64.1993
-243.096
-175.308
79.9709
95.3366
-109.217
-347.648
-128.119
-51.0079
179.127
99.4451
167.912
-267.357
125.745
-416.557
-63.2792
-339.081
-102.063
-39.2521
141.315
-83.8034
262.7
-25.8326
99.213
-73.3804
1.32838
38.4189
282.852
68.1212
-350.974
628.733
-353.471
-275.262
418.523
-167.692
-250.831
419.341
-541.77
122.429
-390.979
478.461
-87.4827
214.61
-79.7667
-134.843
-474.279
353.744
120.535
-503.986
450.614
53.3717
-129.522
-158.66
288.181
-340.506
-133.772
606.01
-394.04
-211.97
-118.333
86.9784
31.3549
-20.8457
48.8998
-28.0542
117.457
-200.968
83.5108
-510.711
330.027
180.685
-170.035
289.21
-119.175
323.446
-121.987
-201.459
-88.5585
142.593
-54.0349
292.485
88.8059
-381.291
11.119
-433.101
421.982
-351.347
213.733
137.614
-208.301
424.512
-216.211
-0.419629
-35.6668
36.0864
-592.168
285.546
306.622
-42.5858
134.712
-92.1263
51.5939
-28.2678
-23.3261
314.582
-215.136
-91.3235
48.2026
43.1209
-101.631
-87.6448
189.276
61.8858
-121.489
59.6029
-148.266
82.7989
65.4667
223.935
-402.493
178.558
-352.286
4.40729
347.879
-275.809
165.987
109.822
-108.774
-167.035
427.783
-430.794
3.01129
21.8222
-93.3428
71.5206
-359.68
656.096
-296.416
-95.6872
187.076
-91.3885
342.461
159.896
-98.9808
144.736
-45.7552
-323.368
472.445
-149.077
80.9012
-86.8004
5.89917
-88.486
441.799
-353.313
87.2156
-97.1819
9.9663
155.757
-16.5774
-139.179
208.239
-468.837
178.85
67.4024
-246.252
-404.909
295.965
108.944
-593.815
428.318
165.498
252.454
-310.588
58.1336
98.7038
-76.8816
-32.0938
-99.1991
131.293
3.06195
77.8393
-317.958
-192.753
216.339
-491.186
274.848
346.301
-184.048
-162.253
-542.288
559.869
-17.5812
110.139
-152.725
191.397
-114.759
-76.6379
-451.705
256.464
195.242
-61.2414
117.315
-56.0738
-146.558
209.621
-63.0633
-313.299
-68.3793
381.678
-47.6804
169.369
-121.689
-53.5076
305.962
-82.2384
-66.0272
142.201
90.1652
-232.366
-184.907
70.2501
114.657
208.338
-352.131
143.792
-300.43
76.3183
-96.8268
161.612
-64.7857
364.029
-542.653
178.624
28.1742
23.4197
-160.294
63.4671
-28.9879
-32.044
-185.294
88.817
96.4774
79.5706
-80.1241
0.553545
-230.538
532.102
-301.563
-114.097
61.9887
-231.568
61.5327
-161.319
91.5126
69.8068
-155.197
-38.1097
193.306
-583.462
585.557
-2.09513
-114.349
235.967
-121.618
579.688
-295.53
-284.158
-89.0501
121.344
-32.2935
546.411
-203.95
-329.512
481.852
-152.34
-153.417
235.209
-81.7917
-350.707
287.554
63.1532
71.5411
-362.328
141.941
-271.463
166.983
122.227
72.574
7.6927
-80.2667
-200.682
353.231
-152.55
505.624
-507.085
1.46073
386.886
-172.296
-214.59
-266.129
151.779
141.938
-532.917
477.455
-353.286
-124.17
-95.2233
-136.344
-485.048
276.747
-219.861
-200.491
420.353
112.827
78.5698
63.4752
-89.3078
6.96535
148.791
-567.213
272.983
294.23
103.584
111.025
-403.858
476.142
-72.2843
-411.372
98.0729
-111.311
214.274
-102.963
95.3677
-94.8317
-0.535936
-186.618
144.115
42.503
111.129
-49.2435
158.636
318.819
148.784
174.662
-197.677
146.264
51.4139
251.769
-144.312
-107.457
142.145
150.62
-292.765
484.732
-276.398
-208.334
-44.421
-106.322
150.743
-188.845
77.5342
-227.916
125.461
102.456
-214.722
143.385
71.3366
-108.888
391.741
91.5221
-113.205
21.6824
22.0489
21.8707
-43.9196
-80.0376
-73.5233
153.561
223.386
-481.394
258.008
-26.2189
48.2678
159.344
105.398
-264.741
131.655
-357.022
225.367
278.864
139.659
-316.548
-153.645
470.193
-193.182
91.5511
89.7561
-252.221
162.464
-242.252
428.36
-186.108
-207.565
-244.141
-182.82
380.97
-198.15
97.2669
-230.18
132.913
313.657
186.343
-139.106
340.118
-201.012
-15.879
103.095
-121.597
280.94
-352.079
193.563
158.516
433.648
-35.4798
-398.168
-166.799
92.2793
74.5199
-169.668
142.729
68.9587
-153.694
84.7356
19.3122
-45.5311
-104.827
99.1433
5.68381
44.673
-113.118
68.4449
76.7259
135.307
-212.033
-570.571
412.178
158.393
-286.353
330.825
-44.4716
397.447
74.7849
-472.232
481.471
-478.418
-3.05364
-287.536
155.556
131.981
104.46
-62.3201
-42.1397
357.875
-244.221
-113.654
-89.0021
381.487
-230.77
-227.937
458.707
96.6222
-218.107
121.484
-24.8578
44.17
5.42647
251.037
-3.85371
-348.245
-384.594
296.108
-141.513
-73.7256
215.239
-72.2406
-94.5585
-137.349
256.962
-119.613
-196.039
-147.983
344.022
34.3387
-33.0103
-130.206
-250.335
380.541
120.862
18.2615
-139.123
116.745
-7.39655
-109.348
128.061
-340.185
212.125
-55.2303
100.826
-45.5956
-73.5337
-430.452
-274.467
80.2873
194.18
-192.756
-95.6413
288.397
137.004
-50.3202
-86.6836
159.394
-90.4355
-406.461
59.159
347.302
-7.94525
-467.567
475.512
84.8261
-120.384
35.5575
9.34899
-71.602
62.253
83.1899
-163.315
80.1252
-236.904
116.457
120.447
-207.667
-362.904
-665.858
297.591
368.267
415.81
-211.517
-204.293
-44.3946
146.611
-102.216
183.245
-124.526
-58.7191
-112.695
58.1025
54.5928
-288.181
164.023
124.158
-150.458
-36.1602
86.8654
-118.959
239.792
-185.594
-54.1982
-224.352
427.327
-202.974
467.087
-256.349
-210.738
99.2016
-63.7105
-35.4911
-147.069
102.648
-58.5613
-11.0134
69.5747
307.63
180.152
-487.782
-339.464
198.859
140.604
245.17
-563.728
318.559
396.877
-216.912
-179.965
166.086
-118.285
-47.8006
-0.358838
-316.189
30.0115
60.1785
-90.1899
-659.916
352.911
307.005
516.447
-516.447
-203.308
112.748
419.307
-419.666
-0.310012
34.6487
-495.213
252.961
47.8348
140.463
-188.298
22.6348
-169.193
228.303
-143.835
1.51421
78.0564
151.425
-241.647
90.2219
9.27972
114.154
-123.434
-119.443
136.055
-16.6113
413.381
-132.141
-281.239
-343.446
204.34
450.835
-171.971
-219.9
-68.2814
164.337
152.758
-317.096
-154.018
75.6874
78.3301
57.4487
-103.196
45.7472
-169.133
89.0959
-246.746
299.045
-52.2985
68.7976
-130.039
-117.919
-79.7585
84.5955
160.156
-404.636
244.48
59.8333
44.6265
461.284
-236.181
-225.103
197.3
229.568
-426.867
19.8373
-294.304
532.64
-545.753
13.1132
130.013
-94.1091
-35.904
-119.13
-48.1833
167.313
112.288
-54.8397
-500.539
67.0568
433.483
-47.9618
44.1346
3.82719
308.54
-303.114
-243.609
407.131
-163.523
-537.304
346.708
190.596
330.019
-237.228
-92.7907
-188.427
-181.222
369.648
-147.198
356.69
-209.493
-148.765
29.3219
-25.4139
-17.8907
43.3046
116.088
-188.094
72.0062
-47.6451
15.1409
32.5042
272.701
-174.027
-98.6742
99.7159
27.4382
-127.154
-158.84
275.377
-116.537
-245.059
164.748
80.3108
84.4918
52.5119
252.346
-141.018
-111.328
-176.966
308.62
-99.4513
-141.008
240.459
94.2666
3.80177
-98.0684
-69.0472
104.399
-35.3516
-140.506
96.1117
-326.026
175.215
-186.189
366.955
-180.766
438.598
-4.9507
207.404
-431.756
241.005
-109.97
-43.6249
-13.7265
57.3514
-32.4599
-157.488
189.948
252.519
-382.725
-74.2155
471.663
-48.8011
-136.106
214.296
23.3883
-237.684
-103.374
46.4383
56.9352
-410.212
6.35393
235.726
-433.403
197.677
19.3661
-44.78
-9.48096
-38.4808
147.745
-247.196
-432.109
-68.4307
162.368
203.136
-365.503
219.767
110.252
208.458
-92.0428
-116.415
146.502
112.411
-258.913
-227.892
112.752
115.139
78.4486
-355.044
276.596
342.936
-183.684
215.002
-117.735
78.1595
84.6703
-162.83
-90.0776
252.585
-162.507
5.40361
-27.2169
77.7167
-138.682
60.9654
231.788
-79.5377
-152.25
-202.813
-214.43
417.242
-176.029
-70.718
-112.593
-29.9887
142.582
57.2663
51.9212
-109.188
325.424
-171.18
-154.244
-140.232
51.1817
-507.083
325.119
181.963
406.82
12.4867
135.642
-261.738
126.096
176.904
-100.178
197.722
75.4754
-273.198
-53.144
250.312
-105.511
-299.604
405.116
-195.395
384.336
-188.941
-118.13
269.354
-151.224
-75.3167
212.44
-137.124
151.432
-113.459
-37.9722
-110.146
-65.1616
-231.997
130.174
101.823
203.045
-77.9635
-125.081
-438.233
332.721
-99.3839
101.3
-1.91647
-160.057
86.3232
73.7336
315.076
-187.015
-169.193
473.215
-304.022
224.698
-129.479
-95.2191
-2.366
50.2754
-47.9094
54.4383
44.7633
23.5247
219.196
-242.721
103.671
20.5109
-124.182
83.1926
328.389
-411.581
160.112
517.364
-98.0228
181.082
120.519
-301.601
-144.308
305.767
-161.459
139.142
-54.3159
198.809
-122.988
-75.8209
-62.8371
188.249
-125.412
140.9
-259.029
451.05
-253.75
-367.757
365.617
2.14013
80.0016
-70.6526
-52.3967
-12.91
65.3067
532.903
-193.824
-64.1129
192.752
-128.639
-270.185
442.833
-172.648
261.283
147.089
-408.372
45.4343
-144.415
-524.453
281.194
-10.8523
127.597
-298.997
147.818
151.179
149.93
102.416
-314.073
-158.303
472.376
269.701
181.134
-69.3421
-55.2078
124.55
74.0105
6.39821
-80.4087
-206.245
332.032
-125.788
109.25
-112.017
2.76736
-146.541
336.443
-189.901
47.3678
156.762
-204.13
88.5118
95.8728
-184.385
143.008
-472.52
-163.993
254.671
-90.6779
-124.966
250.672
-125.706
-84.6717
127.607
-42.9356
242.103
-142.185
-99.9186
-236.105
95.097
241.529
-444.342
-54.2966
203.662
-149.365
-171.68
75.9926
193.308
105.737
404.457
-134.756
94.4381
-192.744
98.3064
353.741
71.3235
-425.064
-225.39
465.911
-240.521
-232.661
-266.826
18.3499
-43.2077
611.013
-392.019
-218.994
-15.1077
113.961
-98.853
-105.133
36.0858
319.813
-366.622
46.8092
-103.644
192.156
-333.83
353.582
-19.7523
365.355
240.655
162.543
131.845
-294.388
-552.38
407.564
144.816
-335.17
423.356
-88.1864
-95.5583
208.371
-112.812
133.385
-48.8936
109.474
163.227
122.481
-286.475
-120.313
268.317
-148.004
395.067
215.945
333.971
-324.884
-9.08658
325.149
-536.616
211.467
336.285
-112.35
-119.021
-464.442
65.8047
-214.791
148.986
54.226
-123.568
342.009
119.275
198.611
-127.197
-71.4141
229.32
198.007
135.895
228.11
-364.005
-81.3946
342.678
449.118
-225.732
-340.616
-42.436
383.052
-291.04
-183.166
474.205
431.911
-282.507
-149.404
535.448
-285.485
-249.964
-54.4855
-92.5839
-44.6133
243.46
-198.847
74.3366
97.4139
-171.75
61.1817
-104.347
43.1652
86.5939
205.249
-291.842
-114.221
19.778
94.443
21.7587
87.4909
432.312
-202.992
395.298
137.605
-360.06
-4.45144
364.512
-11.1892
105.456
-190.139
105.791
-191.676
-232.328
424.004
-21.6771
43.5478
-24.5532
-89.6678
168.734
-459.774
225.66
-9.73434
-52.0361
61.7704
204.573
-57.9622
-63.264
-28.0595
-259.281
138.968
-58.2028
272.499
-324.363
499.385
-175.022
278.275
-469.951
445.134
-228.795
124.638
197.585
-322.222
-148.609
58.9726
89.636
-367.341
488.589
-121.248
305.181
-226.732
610.419
-249.858
-360.561
103.283
101.29
350.753
-135.214
-215.54
-255.375
431.217
-175.842
159.982
-221.012
61.0301
-239.152
38.2308
200.921
-49.1406
-99.6247
89.2565
-350.928
261.671
12.4334
-83.476
71.0427
466.216
-267.879
-198.338
296.832
-495.289
198.456
-217.143
162.847
132.5
92.1988
71.0039
-16.262
-54.7419
246.308
-104.107
260.109
155.701
312.306
-182.736
-129.57
-292.458
176.216
116.242
-514.326
299.111
215.214
169.708
-86.5179
-72.3377
155.31
-82.9726
-181.754
-63.3049
328.756
-8.9435
97.5273
-2.2787
-95.2486
-93.769
171.929
-66.0785
-46.6168
-541.126
345.393
195.732
286.463
-150.821
209.946
186.931
186.856
-403.768
-473.957
237.871
236.085
-244.519
164.474
80.0452
120.043
-57.0274
-63.016
-239.052
-191.114
430.166
123.754
126.72
-250.474
-404.294
265.246
139.049
-252.732
-151.562
-621.785
410.468
211.317
-276.546
94.7915
620.237
-319.681
-300.557
-168.708
-178.514
347.222
-87.8941
96.3076
-8.41347
-138.79
255.122
-116.332
-210.566
115.008
-408.389
433.18
-24.791
44.9995
127.336
-172.336
-401.514
215.69
185.825
-94.8417
-119.88
138.543
-113.375
-25.1688
282.007
122.45
575.08
-318.018
-257.063
253.184
-519.724
266.54
33.7436
-81.7845
48.0409
55.8184
15.1855
-60.4731
126.858
-66.3848
274.509
300.571
54.5951
-126.598
-282.672
192.595
28.5447
-28.9643
50.9905
152.054
345.752
82.0309
82.3472
51.0382
45.3801
-183.115
137.735
368.273
-519.151
150.878
-71.8277
328.06
-256.232
-25.4784
86.6601
193.258
417.161
-139.915
379.771
-239.855
81.7245
-193.156
111.431
-355.272
-310.586
-46.2653
-41.536
87.8014
11.4848
-99.3789
-70.4745
82.9079
135.762
-58.045
183.015
-351.723
-114.645
52.1799
62.4654
-376.755
-73.4791
450.234
-338.392
522.859
-184.468
105.509
-403.848
298.339
52.356
-112.785
60.4293
-61.0523
-345.408
275.418
107.199
-382.617
176.247
-110.442
217.468
-118.647
-98.8215
512.03
-158.118
-353.912
-410.253
51.2859
358.967
325.373
106.315
-431.687
-553.628
575.519
-21.8905
-114.457
-70.837
-95.3858
104.665
147.77
164.536
284.518
-606.946
322.427
405.831
-394.712
439.048
-163.63
579.864
-315.174
-264.69
-211.711
222.66
-10.949
-30.05
127.577
-56.9278
-239.546
296.474
58.9597
457.487
-56.5759
-83.9305
171.583
-97.2469
285.741
-199.147
120.173
57.0827
-177.255
160.182
-204.795
-128.756
7.21928
121.536
555.858
-555.858
172.762
-125.395
258.461
-141.4
-117.061
-336.821
-200.483
-147.223
92.7378
-411.862
-130.426
-40.2744
37.9084
168.04
-369.872
170.743
199.129
39.91
-373.74
42.2119
124.849
-167.061
108.339
27.716
74.2141
-1.64011
-68.1489
-342.104
104.874
-203.289
98.4157
55.2581
-395.874
-308.941
169.026
-155.232
-156.641
311.873
62.6818
340.828
-403.51
-328.245
502.087
-173.842
-99.2009
147.036
-5.11244
27.5863
-22.4739
-91.3216
148.381
-57.0596
225.326
202.437
-427.763
341.067
-216.43
370.134
-150.367
-320.109
-232.27
64.4699
-259.228
-249.602
90.7337
-407.657
303.982
103.676
70.2866
-447.042
112.141
125.945
-238.086
-205.699
-182.566
388.265
-33.8357
-13.8094
104.067
-115.256
-160.181
-175.516
335.698
-304.761
232.933
-112.855
-45.1791
158.034
-183.408
116.049
67.3598
374.639
-544.151
169.512
318.069
-210.229
-107.84
140.659
326.428
162.234
76.4599
-238.694
397.571
-187.625
146.732
-514.073
204.622
-99.7479
154.221
163.848
-64.1635
-343.494
230.455
-409.559
179.104
443.734
-262.047
-181.686
89.1225
-248.441
159.318
-191.936
-7.66197
199.598
151.667
-19.4776
-132.189
62.0692
-113.132
51.0627
197.536
172.597
-42.6184
116.629
-358.058
428.344
137.234
228.615
-365.848
-109.895
318.233
92.0337
-2.27329
-89.7604
43.2284
-308.972
265.743
-92.1719
103.657
280.848
-490.434
209.586
-88.1448
208.317
251.613
-451.52
207.911
-161.475
-5.92579
167.401
21.759
133.273
-155.032
302.435
163.781
-10.9423
102.976
318.727
-20.0499
-298.677
-126.894
444.379
-317.485
106.494
274.042
32.8073
210.653
326.074
146.418
-472.491
334.677
-279.843
-54.8342
-19.689
-79.6949
-210.36
56.9425
-34.836
-30.9452
65.7811
20.0613
-54.8972
-323.231
178.923
-98.486
-158.259
256.745
300.155
9.18621
-309.341
-221.161
-36.7207
257.882
-142.158
85.5817
56.6013
-147.923
-96.1293
-316.962
413.091
-80.2828
-139.617
552.503
-271.656
-68.2723
96.406
43.421
-139.827
-258.865
108.407
150.457
54.0404
-80.0534
26.013
119.341
143.364
-262.705
-150.824
95.2769
55.5476
-125.117
322.839
-128.131
-83.0394
211.17
-357.478
-234.69
-235.998
123.255
112.743
-229.581
527.632
-298.051
406.14
-316.884
-53.4082
-72.7014
126.11
-28.6053
47.9714
-182.326
333.615
-151.289
-122.171
276.474
-154.303
168.749
-81.0947
-87.6539
-289.052
394.561
9.75473
33.6616
-43.4164
-254.278
259.226
-4.94827
-205.585
77.3689
200.907
2.45213
-203.359
-181.778
408.222
-226.444
85.1982
-37.2529
-47.9453
267.825
-542.816
274.991
-497.246
173.878
161.022
-40.1603
-98.91
6.73808
-177.343
88.1156
89.2269
-166.547
397.002
172.774
-91.0498
67.9878
-426.046
-54.3303
-102.754
157.084
-113.608
-509.12
354.182
154.938
260.675
74.0021
-328.939
-148.185
477.124
-87.3675
298.938
107.648
-122.756
-53.2809
-100.737
-274.723
-282.386
557.108
-233.769
-258.824
492.593
-236.656
272.636
-35.9797
349.646
-266.454
-278.37
-228.712
340.679
-509.871
105.337
90.2555
-195.592
-390.343
232.728
157.615
147.682
247.616
-62.8009
111.104
-48.3028
-330.335
527.316
-196.981
-34.6007
-20.9757
55.5764
-173.426
65.3779
108.048
25.9734
-31.0859
-79.1486
404.521
15.0139
134.676
-149.69
527.189
-201.115
-182.121
271.877
-322.071
174.873
-279.899
279.899
-124.65
236.791
-555.952
290.895
265.057
-361.192
-57.441
418.633
183.208
-137.828
-52.5772
30.4641
22.1131
-192.444
117.128
130.644
-490.695
24.7175
105.295
-137.766
-302.787
440.554
-227.165
364.399
-259.627
122.277
517.087
-284.138
-232.949
-158.775
-33.1609
160.63
-344.679
-588.944
410.582
178.362
-304.928
-118.609
-133.694
23.9382
109.756
-64.2554
-79.4015
143.657
142.302
104.006
-115.609
165.444
-49.8357
-4.84563
116.019
-111.174
178.15
-178.264
0.113646
200.947
-338.562
137.615
78.5529
-150.891
-86.2944
-130.849
72.9113
-134.097
61.1862
-402.418
-208.781
332.903
-124.122
60.5865
24.6117
0.53709
-203.32
202.783
-170.841
-180.506
187.97
-396.188
208.218
-133.066
79.6579
-1.39415
33.9269
-32.5328
29.5564
-142.411
-101.658
208.983
-107.325
156.457
120.539
-276.996
-184.326
-280.269
464.596
172.509
-415.597
243.088
91.666
-24.377
-67.289
-541.749
308.473
233.276
504.962
-339.535
-165.427
-500.952
176.589
34.9763
137.786
-81.277
-108.862
296.344
-377.738
-343.877
-130.08
-262.879
-106.993
-366.934
153.239
213.696
-211.495
131.213
-35.4131
287.145
-251.732
-62.1311
-215.363
120.522
118.542
138.816
-257.358
255.93
-448.905
192.975
204.105
-107.483
-317.354
107.125
197.104
-79.6466
-324.489
-114.975
439.465
391.561
-203.592
-325.156
329.428
-4.27194
-84.4341
126.004
-41.5704
-413.992
199.562
-288.167
131.032
157.135
98.0936
-98.0936
-206.1
-249.591
455.691
474.009
-406.021
78.3255
-271.082
-3.97187
322.698
316.994
195.035
-220.823
-88.1397
308.963
37.3002
-23.7302
-13.57
-50.9252
95.9574
-45.0322
-201.703
134.042
67.6603
-322.502
-244.71
-105.564
-23.1913
126.019
-29.6127
-279.736
-314.08
-127.484
67.0105
152.586
188.907
48.2006
35.5813
-83.7819
-176.169
188.393
-12.2242
396.183
183.681
-170.322
-106.224
-333.385
-175.735
-152.866
-78.5802
231.446
-70.8146
-260.127
330.941
-270.853
181.453
89.4002
-70.1353
-67.3053
137.441
331.719
-510.148
178.429
202.638
-348.162
145.523
252.14
-459.796
207.656
-58.3685
-59.9647
-227.204
140.91
201.14
-406.227
205.086
-138.505
74.2495
-338.729
52.3762
-239.255
386.938
-20.0939
36.8507
-16.7568
154.859
-145.295
-9.56473
8.39662
-66.958
-167.621
368.568
483.178
-465.242
-17.9367
-62.9956
115.352
-65.4556
102.144
-36.6882
254.885
-460.985
-40.5722
38.0874
2.48479
-126.912
269.058
390.353
-506.801
116.449
262.802
36.9258
-299.727
36.5451
-109.748
73.2029
-39.8624
93.9028
51.8954
8.63988
-60.5353
-27.4582
126.289
-98.8308
-8.43705
105.345
-96.9076
119.401
-46.4894
412.129
-152.02
-129.556
243.908
-114.352
-303.05
-32.1203
179.855
-110.908
-68.9468
160.324
-301.856
141.532
-220.856
-161.756
382.612
-38.812
193.671
-269.514
158.826
110.688
178.519
-343.689
165.171
-337.042
213.732
123.309
243.568
-134.235
-109.333
-156.803
82.5348
74.2682
214.009
-444.779
-116.587
-74.2794
190.866
-47.6687
-104.666
152.334
111.858
-190.007
78.149
-28.9639
132.635
127.151
-67.5413
-59.6095
-45.3314
-120.392
165.723
-14.4793
118.546
-141.99
-113.519
255.51
-296.093
-8.10097
304.194
58.4484
-148.184
89.7352
145.09
86.6976
107.979
89.1248
-150.191
154.711
-4.52019
-133.694
-55.8146
446.167
-199.322
71.2025
399.056
27.5622
-426.618
426.671
-355.13
-473.385
195.015
90.5424
65.8565
-156.399
-3.59247
-40.0324
99.4062
-243.331
143.925
163.059
-371.84
-149.732
-0.0886077
262.89
-62.3377
263.245
238.929
189.431
-431.545
249.768
-111.52
48.719
415.324
-170.154
166.773
-98.8581
-67.9152
246.887
-317.701
298.421
-147.007
-151.414
265.73
-237.678
-28.0518
156.185
-97.7365
-244.387
-223.508
467.895
-211.608
36.4469
175.161
496.211
-490.403
-5.80792
240.441
-71.5739
-168.867
287.957
286.318
-574.275
201.014
-89.1558
-148.314
292.65
-144.337
-135.162
297.705
-88.6917
161.358
-72.6663
-172.393
-115.144
-2.70246
-21.7879
24.4904
62.6706
-190.802
365.143
108.866
-363.51
-44.8787
-76.7351
-182.13
90.661
-42.4604
-141.27
237.599
-96.3285
-42.3184
21.4727
79.3347
-28.4065
-50.9282
-133.39
88.0581
-577.122
342.392
234.73
55.5262
-116.847
61.3212
-144.023
243.429
-45.099
97.8033
-52.7042
50.0311
29.3036
-165.181
364.637
-199.456
-21.1909
-119.861
141.052
-50.8018
-11.2441
62.046
278.76
-106.467
-172.293
207.573
-110.564
-97.0089
-387.237
-292.939
-180.446
-115.38
56.6744
58.7056
164.719
-328.498
163.779
17.294
-19.9965
-125.523
160.499
17.2687
-369.555
280.728
-104.512
-170.603
106.49
-190.892
133.17
57.7217
333.553
-130.914
108.155
-89.5279
-18.6268
-134.208
-56.6836
64.1228
-193.658
129.535
103.403
-184.68
119.671
-39.4775
-64.8459
104.323
-124.584
217.463
-92.8791
181.377
-55.2739
-126.103
-260.95
-35.1435
127.394
71.4144
-37.9658
9.36056
-12.7585
122.403
-109.645
-105.43
96.6005
8.82932
-86.1278
-48.0534
-57.9989
106.052
528.107
-410.848
-117.259
387.797
-91.4533
133.011
-111.252
-425.274
463.405
-38.1316
-146.627
283.035
-136.408
-232.989
311.314
67.8135
59.3374
-70.0875
-89.9694
-85.6037
237.029
-179.455
290.412
-110.957
-160.503
222.2
-61.697
-300.039
170.141
129.898
82.2262
-48.4826
0.679739
-28.9475
-237.504
-216.165
453.668
165.936
362.17
-511.666
277.897
180.151
-180.151
-125.545
129.086
-3.54124
182.055
-114.588
-67.4667
246.179
-540.47
294.29
135.564
143.195
-241.235
345.604
-104.37
105.741
-50.2151
-155.153
98.5081
56.6446
156.856
329.855
-486.711
249.072
-106.77
-331.236
171.716
159.521
83.6564
-189.913
106.256
272.299
184.605
-456.905
-150.398
129.207
-27.5413
-95.1542
122.695
135.195
-162.654
-202.298
427.624
-207.641
125.2
82.4408
139.719
-82.9324
-56.787
-133.874
399.41
-265.537
301.216
-141.034
-26.3488
129.814
-103.465
205.396
194.382
-399.778
-244.154
-267.512
-89.4563
345.386
66.4693
-124.669
58.1999
-179.724
386.659
-206.935
163.956
-80.2995
296.696
-192.12
-104.577
197.781
-103.343
-195.048
-45.5433
25.4494
-621.323
303.305
139.836
497.228
-504.859
7.6306
237.174
161.321
-398.495
80.9663
27.1883
-273.928
-240.397
133.499
-165.959
57.0141
-293.671
-101.176
81.0095
20.166
166.73
-305.977
139.247
-46.8022
345.914
-118.208
92.627
25.5813
50.2855
-154.951
71.942
-129.146
57.2037
244.686
106.068
230.088
-149.166
-80.9222
32.3257
119.341
-428.983
304.302
124.68
-259.463
-361.86
183.244
57.1972
175.376
-524.388
349.012
-80.3013
-76.6177
156.919
30.0851
-95.5257
65.4406
335.269
181.818
-16.4935
415.55
126.427
-177.435
448.846
-176.546
85.8552
-195.697
109.841
-515.178
301.73
213.447
-208.915
-277.994
486.908
-366.25
566.159
-199.91
276.231
146.652
-173.668
221.656
-47.9876
-145.16
268.913
338.963
-266.1
-72.8629
-154.781
275.912
-121.131
-189.181
-162.899
-0.177107
-278.438
278.615
91.2023
30.3874
-121.59
155.748
-110.748
445.614
-366.503
-79.1109
-205.347
95.6008
109.746
81.0919
307.843
-388.935
29.7476
-31.1417
333.818
111.796
-125.83
98.2892
-103.049
-15.1597
-226.955
516.064
-289.11
-10.937
182.017
-171.08
238.083
-427.058
188.975
-59.6209
-30.47
90.0909
302.333
109.796
-56.5632
-2.41545
58.9786
-211.977
193.836
18.1409
-214.721
122.059
92.6626
188.332
391.356
64.955
-13.0596
-298.507
-130.476
216.09
-460.477
415.167
-512.52
97.3535
158.753
193.469
-30.787
-162.683
188.162
-124.039
83.5956
-408.085
-48.742
-54.7679
103.51
75.6099
8.13492
-83.7448
-158.694
46.1007
126.875
115.229
165.193
-357.408
192.215
-67.4708
111.354
-43.8837
165.891
-345.616
364.513
-199.793
331.114
-84.2275
-422.858
-237.058
-271.495
479.628
-208.134
427.344
-321.478
-105.866
-10.1937
-398.478
408.671
-377.488
-180.534
558.022
-232.988
-6.16349
121.511
-49.569
-595.242
311.245
283.997
-272.063
-78.644
-79.7445
-77.0585
63.7513
27.9147
20.6246
28.2752
-562.734
382.676
180.058
61.9625
-101.44
-16.9381
57.118
-40.1799
155.36
-144.924
195.31
-317.912
122.602
303.974
-239.92
-64.0541
86.7559
-396.169
309.414
190.471
-82.492
129.754
228.121
-78.9861
-104.422
119.471
-82.9259
472.431
-316.133
-156.298
-262.151
357.637
-95.4858
-9.65343
174.709
297.722
-417.145
31.8263
385.318
-280.009
-215.204
70.7764
-173.791
103.015
-130.765
-87.4744
218.24
113.955
179.986
-293.941
14.1531
-314.56
-280.682
-32.9194
4.48247
28.4369
-201.904
332.502
-130.598
535.199
-206.81
411.899
-86.779
-294.466
135.627
84.7953
-9.18535
-271.792
-45.7224
317.515
78.1991
-392.272
-405.835
150.461
91.6434
-10.9199
-80.7235
126.77
-209.081
82.3108
-119.298
275.754
-458.273
331.379
111.338
-130.816
501.535
-167.717
-223.484
402.862
-179.378
164.547
-336.325
171.777
493.961
-119.321
65.6746
100.411
-274.032
100.364
246.856
-167.435
-79.4209
-180.425
290.74
-110.315
158.69
376.508
158.189
-261.839
103.65
391.201
-125.956
367.751
123.03
-490.781
307.337
-209.687
-97.6496
520.343
-550.994
30.6515
164.469
-110.644
-53.8256
394.475
-331.794
-13.6177
-147.858
-99.3849
-149.593
248.978
196.983
-217.104
20.1211
-32.5665
33.2462
-305.943
474.679
-168.735
-85.1923
-29.453
-185.378
174.441
43.5663
23.4217
-94.0889
70.6672
304.86
14.5626
-319.422
-34.3039
-0.0414948
34.3454
-102.155
455.896
145.75
152.671
-148.835
315.566
-226.111
163.274
364.706
61.9645
-162.642
-168.594
27.3243
187.678
-244.96
74.6377
-101.073
188.835
-87.7621
1.09667
-41.3711
416.209
-179.035
-414.602
407.182
7.4203
-127.733
495.484
51.2139
-101.53
50.3162
59.9974
-47.4376
-91.2353
138.673
-171.476
125.878
-44.9116
130.727
19.2392
-149.966
56.2431
-127.842
71.5985
-259.687
134.721
-86.9742
-44.5954
131.57
-267.239
-299.676
113.032
186.644
89.8562
-59.7711
72.513
-124.346
51.8331
62.8471
-193.612
108.518
166.859
-137.213
213.998
-76.7846
-14.73
-16.682
31.412
-106.7
122.517
-15.817
-371.972
189.152
-198.761
404.158
123.381
-238.674
115.293
235.831
138.688
-374.519
-17.8698
-27.0136
44.8834
328.695
98.6492
305.516
-90.1571
-215.359
-169.607
404.594
-234.987
191.872
-71.0527
325.252
-254.199
327.809
121.552
-449.361
474.541
308.251
133.911
-442.162
269.223
-513.377
178.703
-21.6106
-157.093
-352.433
189.432
163.001
-136.139
-89.0629
225.202
55.4902
26.4817
-81.9719
-52.798
-95.8106
-0.237262
-414.365
-357.756
192.576
74.1165
145.503
-219.619
-377.344
306.292
192.291
149.245
-341.536
-42.1662
119.974
-77.808
-116.313
-147.484
263.797
569.091
-255.434
41.5185
93.0987
-171.842
-267.155
438.997
-95.1878
145.473
-248.913
424.335
-175.422
-380.265
39.9831
340.282
-200.936
-277.664
478.6
-81.6311
-91.7951
-565.786
366.73
199.056
283.199
-157.064
-126.135
-151.716
344.007
-131.035
44.0605
69.7489
-118.491
133.348
33.4257
-138.082
-491.281
250.365
240.916
-189.727
55.5191
-243.569
102.169
-271.066
-306.056
-68.6171
-236.144
126.809
-348.512
221.703
-189.324
-167.724
55.8248
111.899
-244.516
-72.8375
-94.4194
-37.2739
131.693
-21.5484
-21.2516
42.8
-349.375
215.501
38.8996
-94.4679
55.5684
134.351
-165.138
185.687
-383.502
197.815
16.21
-288.002
-155.922
287.277
-131.356
-194.253
251.267
115.934
-101.522
-70.696
172.218
469.754
-479.948
-21.6944
-138.809
282.432
210.903
-493.335
-142.077
-47.6505
-89.6987
237.444
386.449
-402.942
72.6634
-17.1733
435.696
-145.754
-289.942
125.28
157.83
-283.11
67.4081
-65.2158
-90.0491
155.265
211.618
-43.1313
-168.487
333.83
57.3715
213.873
-16.8901
-502.989
174.744
54.0052
-99.1042
-99.3459
47.118
52.2279
35.0307
55.2943
-90.325
-129.754
-75.6231
205.377
27.3842
-130.634
103.25
-91.366
31.7451
186.14
-186.274
0.133652
221.68
-278.58
56.8998
-206.477
76.7236
-63.1356
-58.3532
-62.3772
-98.2249
160.602
143.46
222.585
185.636
-210.112
174.699
137.899
-113.771
-24.1278
-417.852
281.205
136.647
236.368
-110.423
323.242
178.293
336.198
127.512
-463.71
-124.265
-141.864
-538.388
252.288
286.101
181.897
-304.307
122.411
121.245
108.843
-111.959
85.6097
-68.8715
116.027
-47.1558
-308.676
-252.646
561.322
-491.031
425.345
65.6859
-252.143
110.629
-94.1805
-468.777
-19.6057
488.382
246.753
279.358
-526.111
-127.437
-160.73
-160.913
-139.126
161.108
-30.3817
-363.453
154.539
3.55135
156.431
-16.1723
-267.985
172.532
95.4533
58.4923
52.6371
-140.502
-136.069
276.571
103.402
-79.98
421.461
-281.71
-139.751
-178.366
342.914
-247.212
-5.00874
456.361
25.1103
-83.991
-55.1612
139.152
456.404
0.17059
-456.575
-137.086
344.138
-207.052
92.9744
66.705
-159.679
-408.756
236.064
172.691
-106.688
-101.835
-166.15
103.415
-52.2009
-138.603
312.219
-173.617
153.92
131.174
-285.095
-114.14
-41.0131
-278.151
-205.633
483.784
123.52
476.228
-329.591
-146.636
-123.99
114.92
-76.0182
-38.9023
11.658
-63.6941
209.099
-271.437
284.689
-353.306
-454.605
380.39
164.587
-292.024
221.483
210.829
484.609
-232.469
-224.135
94.5789
80.3627
55.3989
-87.8455
95.4702
-60.4395
-280.157
309.929
-29.7717
-297.428
-11.5128
76.3726
-125.006
48.633
136.021
294.833
-181.801
240.395
-136.471
-103.923
-39.4687
40.5654
-278.711
77.0893
-124.527
275.352
-70.8648
-204.487
-299.973
546.726
489.493
-166.252
-358.38
251.6
106.78
-22.6266
479.031
-203.707
439.434
-85.5391
-178.494
264.033
111.34
-240.222
128.882
21.1198
325.588
-334.343
-247.033
581.375
176.633
-371.123
194.49
-290.116
389.637
-99.5217
-113.575
421.827
323.693
-142.611
148.349
-91.0214
368.035
-277.014
-40.971
6.66716
-167.258
48.6733
118.585
174.047
158.455
93.8078
-69.655
-271.095
340.75
-385.732
-78.8157
-130.679
-222.607
-360.149
221.546
-407.614
407.614
53.2944
-311.823
258.529
195.811
-362.793
166.982
188.615
86.7378
45.8221
11.7445
-57.5666
205.143
-387.709
287.775
-488.711
235.26
-47.0104
138.308
176.768
68.9233
181.191
-250.114
158.756
-98.1295
-60.6262
-72.9936
-285.42
358.414
106.471
-190.857
84.3861
-71.6735
136.722
-65.049
326.836
7.13484
-60.2433
66.6415
-258.829
309.911
-51.082
36.8824
141.821
60.506