/*--------------------------------*- C++ -*----------------------------------*\
  =========                 |
  \\      /  F ield         | OpenFOAM: The Open Source CFD Toolbox
   \\    /   O peration     | Website:  https://openfoam.org
    \\  /    A nd           | Version:  7
     \\/     M anipulation  |
\*---------------------------------------------------------------------------*/
FoamFile
{
    version     2.0;
    format      ascii;
    class       volVectorField;
    location    "26";
    object      U;
}
// * * * * * * * * * * * * * * * * * * * * * * * * * * * * * * * * * * * * * //

dimensions      [0 1 -1 0 0 0 0];

internalField   nonuniform List<vector> 
7639
(
(1.13557 0.169067 4.71579e-21)
(1.04254 -0.0471466 1.18536e-22)
(1 0.141113 -1.29962e-20)
(1.05272 0.0781082 1.6499e-20)
(0.999291 -0.000868527 -2.73209e-23)
(0.999967 -7.69939e-06 -3.10361e-24)
(0.992137 0.115152 -2.6258e-20)
(0.995468 -0.00162158 -5.48918e-24)
(0.999898 -0.000160048 -5.15298e-24)
(1.02441 0.000606622 -7.42209e-22)
(0.999969 -9.21243e-06 3.42399e-24)
(1.00194 -0.00110892 -1.10151e-22)
(0.993095 -0.0020363 2.74352e-22)
(1.01878 -0.00196959 -4.55201e-21)
(1.02378 0.00113735 3.14828e-21)
(0.992261 -0.0128905 -5.57943e-22)
(1.14215 0.179575 -9.87099e-21)
(0.990743 -0.00259095 -9.52448e-23)
(1.00189 -0.00846836 -3.08082e-23)
(0.975356 -0.0753509 -4.54781e-22)
(1.03425 -0.00738519 -1.51131e-21)
(1.00128 -0.000658121 2.06943e-22)
(1.0169 -0.00335392 3.85406e-22)
(1.01301 0.0341487 -8.68707e-21)
(0.987726 -0.00321661 -4.31448e-22)
(1.12669 0.167904 -4.88535e-21)
(0.999325 -0.000825059 -1.92974e-23)
(1.02273 -0.00226592 1.81593e-21)
(1.00564 0.0162676 -1.09031e-21)
(1.0031 -0.00907719 2.44743e-23)
(0.988274 -0.0134128 -9.91629e-22)
(0.839224 0.0488014 4.18798e-21)
(1.01663 -0.00407693 2.37983e-21)
(0.999594 -0.000347485 3.41566e-23)
(0.999913 -5.58245e-06 6.43786e-26)
(1.02357 -9.43297e-05 1.09138e-21)
(1.00356 -0.00996306 3.0923e-23)
(0.998258 0.111382 -4.15163e-21)
(0.996736 -0.00692504 4.59442e-22)
(0.999719 -5.10038e-05 3.28069e-23)
(0.997077 -0.00713771 -5.1962e-23)
(0.992401 -0.0120879 -2.0387e-22)
(0.992379 -0.0864887 2.13772e-21)
(1.11803 -0.0982712 7.05083e-22)
(0.999832 -1.0352e-05 1.06476e-23)
(0.999934 -1.3671e-05 -3.08776e-24)
(1.00121 -0.000535675 -1.26377e-22)
(0.99658 -0.00632735 -2.72129e-22)
(0.999944 -2.56421e-05 -2.49914e-24)
(0.978136 -0.0764846 6.63559e-22)
(1.00284 -0.000978453 1.19499e-22)
(1.02239 -0.00131968 -1.88233e-21)
(0.984075 -0.00381272 -1.44738e-21)
(1.00794 -0.0279497 3.67633e-23)
(1.02403 -0.000978621 -6.30547e-22)
(0.996014 -0.00223923 -5.06104e-23)
(1.00182 -0.00788478 6.93374e-23)
(0.99544 -0.00140365 3.75611e-22)
(0.98038 -0.0157472 -1.73819e-21)
(0.999579 -0.000309167 -4.3732e-23)
(1.00004 -1.99035e-05 -4.46832e-24)
(1.00372 -0.00106111 1.33633e-22)
(1.01903 -0.00125915 -1.07695e-21)
(1.00209 -0.000964895 1.11511e-22)
(0.999188 -0.000167522 6.18681e-23)
(0.988734 -0.013943 1.70037e-22)
(0.999919 -0.000159793 3.98233e-24)
(1.00001 -2.09903e-06 2.90831e-25)
(1.21349 0.0151315 4.98978e-22)
(0.996742 -0.00600318 -8.29445e-23)
(0.999938 -1.68257e-05 2.73926e-24)
(0.972229 -0.045335 -3.2548e-21)
(0.988239 -0.00357449 2.10663e-22)
(0.978157 -0.00466462 2.82665e-22)
(0.991145 -0.0028641 2.98638e-22)
(0.970081 -0.0220013 -3.73778e-22)
(1.0055 0.1429 2.09281e-20)
(1.03234 -0.00699674 1.93282e-21)
(1.08695 -0.019703 -2.37503e-21)
(0.960899 -0.0362575 -3.99034e-21)
(0.993416 -0.00225493 -4.21163e-22)
(1.0006 0.0685461 2.57101e-20)
(1.04189 0.00241747 4.57334e-21)
(0.977692 -0.00824475 1.30178e-21)
(0.998827 -0.00218951 -4.45222e-23)
(0.998092 -0.000277025 4.56561e-23)
(0.995162 -0.00213556 5.1745e-22)
(0.984676 -0.00427079 9.3093e-22)
(0.999453 -0.00102523 2.93128e-23)
(0.996202 -0.000578566 1.61588e-22)
(1.00601 0.0185446 8.13216e-21)
(1.15392 -0.112453 -1.34663e-21)
(0.999888 -4.66092e-05 -6.44443e-24)
(1.00151 -0.00667912 2.93065e-23)
(0.996988 -0.000890206 1.46812e-22)
(0.977916 -0.00259266 -2.26171e-21)
(0.974115 -0.0452345 2.1649e-22)
(1.0096 -0.0271725 1.00188e-22)
(0.998706 -0.0021107 1.47172e-23)
(0.999032 -0.000166957 2.05779e-23)
(0.958774 -0.0130065 9.51644e-22)
(1.09002 -0.0149308 2.06223e-21)
(0.997156 -0.00101288 -3.6594e-22)
(0.999978 -1.10244e-06 -2.6221e-25)
(1.16683 -0.106491 -1.13193e-21)
(1.03616 0.0317159 -7.59604e-21)
(0.919253 0.0356292 4.71588e-21)
(0.99575 -0.00211338 -2.10481e-22)
(0.999993 -1.85343e-06 5.45678e-26)
(1.02265 -0.0145914 -7.71008e-22)
(1.05602 0.0728686 -1.91635e-20)
(1.01023 -0.0703532 -2.7103e-21)
(0.999991 -2.4291e-06 -9.00773e-26)
(1.02428 -0.015336 -1.66423e-22)
(1.03198 0.0304917 7.99674e-21)
(1.00037 -0.000500054 -9.67708e-24)
(1.03959 -0.0948397 -1.96303e-22)
(1.0337 0.0164512 -1.80684e-21)
(0.982907 -0.0372723 1.44439e-21)
(0.977887 -0.00566833 -2.96291e-22)
(0.956301 -0.00847236 -2.28883e-21)
(1.0015 0.0349608 -1.67402e-20)
(0.996856 -0.0868279 -2.93986e-21)
(1.00853 -0.00737815 6.62951e-23)
(0.957677 -0.00971831 9.01592e-22)
(0.999202 -0.00119029 6.52442e-23)
(0.989407 -0.0102184 3.32263e-22)
(1.00237 -0.00753282 -4.73422e-23)
(0.999144 -0.000123699 -1.37987e-22)
(0.988386 -0.0123705 1.77889e-23)
(1.15951 -0.154917 -8.38127e-22)
(1.07999 -0.0193363 4.2066e-22)
(0.999496 -0.00047244 3.71232e-24)
(0.999361 -0.00104934 -5.70109e-23)
(0.976693 -0.0075192 3.8649e-22)
(1.05136 0.0647102 6.94422e-21)
(0.995583 0.0303234 3.08406e-20)
(0.99998 -2.24551e-06 -3.10513e-25)
(1.00647 -0.00286426 5.629e-23)
(0.941647 -0.0102788 -2.82406e-21)
(0.979521 -0.00338654 -1.15754e-21)
(0.984674 -0.0515363 -2.16802e-21)
(0.970358 -0.0236947 5.06441e-22)
(0.979358 -0.00421793 -2.51399e-23)
(0.910773 0.0278465 1.85246e-20)
(1.00659 -0.0419514 -8.34e-23)
(1.0124 0.0198879 -4.11045e-21)
(0.982084 -0.0189055 -9.08584e-22)
(0.969907 -0.00437655 3.16009e-22)
(1.00148 0.0531517 -8.29092e-21)
(1.02386 0.000522792 2.71896e-21)
(1.14121 -0.103126 -8.59941e-23)
(0.998753 -0.00174417 -1.54108e-22)
(1.21259 -0.000611258 -3.18608e-22)
(1.03965 0.00240509 -4.79037e-21)
(1.01448 0.114645 -2.05604e-20)
(0.965672 -0.0254636 1.54806e-21)
(0.993096 -0.00157019 9.33818e-23)
(0.931265 0.0950719 4.08149e-20)
(0.999948 -2.17607e-05 -2.35513e-24)
(1.00108 -0.00703701 -1.45254e-23)
(1.01339 0.0379076 6.30174e-21)
(0.999982 -1.69056e-05 1.50105e-24)
(0.99848 -0.00444513 -2.17959e-22)
(0.996598 -0.000860121 -7.02618e-23)
(1.00442 0.0424833 -2.09782e-21)
(1.00225 0.0307017 7.86451e-21)
(0.920667 0.104395 1.3591e-20)
(0.99824 -0.00429822 -1.34937e-22)
(0.997374 -0.00032698 -7.99746e-23)
(1.00001 -2.76311e-06 -2.70327e-25)
(0.953867 -0.00512682 -3.91672e-21)
(1.00035 -0.000445199 1.33576e-23)
(1.04524 -0.0441314 -1.50705e-22)
(1.00674 -0.00311921 3.75643e-22)
(0.970588 -0.00519304 6.54468e-22)
(1.16808 -0.0891251 -1.47137e-21)
(1.15248 0.0554437 4.19838e-23)
(0.999889 -5.73285e-05 3.52268e-24)
(0.999577 -0.000543899 -3.92123e-23)
(1.05581 0.0830525 -2.91108e-21)
(0.999949 -1.55425e-05 -1.14092e-24)
(0.999907 -1.07697e-05 1.6878e-24)
(0.992757 0.122868 -2.15929e-20)
(1.04313 -0.0507953 -2.9265e-22)
(1.00233 -0.0578128 -1.45661e-21)
(0.984617 -0.0363558 -2.05149e-21)
(0.980033 -0.00609224 8.51928e-22)
(1.00389 -0.0425544 1.57369e-22)
(0.942979 -0.00870129 1.48613e-21)
(0.999981 -1.54399e-05 -5.35725e-25)
(0.974975 -0.0425764 -7.84872e-22)
(1.1615 0.0644215 -3.10294e-21)
(0.997141 -0.00123401 5.2578e-23)
(1.00006 -5.89307e-06 -3.29065e-24)
(1.11368 0.0774138 4.50236e-22)
(0.998949 -0.000339454 1.45957e-22)
(0.989115 -0.0119301 5.30443e-22)
(1.00193 -0.039995 5.10886e-22)
(1.00001 -1.6165e-06 -1.16593e-25)
(1.00076 -0.00172913 -5.42285e-23)
(1.04643 0.0648348 8.85369e-21)
(1.14612 0.0827753 -5.11441e-21)
(1.00747 0.100958 -2.77529e-21)
(1.0392 -0.0889726 1.36161e-21)
(1.01405 -0.0684132 6.03492e-22)
(1.05731 -0.134304 -5.39368e-22)
(1.02332 -0.0024491 5.41667e-21)
(1.04195 0.0604552 -2.87542e-21)
(0.999821 -1.89975e-05 -1.24573e-23)
(1.00003 -1.76662e-05 1.17885e-24)
(0.939699 0.0146721 -1.80709e-20)
(0.993436 -0.0116306 -1.93895e-22)
(0.999476 -0.000421084 -3.68053e-23)
(0.976838 -0.0421361 1.6386e-21)
(0.988902 -0.0107563 -3.88317e-22)
(1.02699 0.104338 -2.25078e-20)
(1.02165 0.101329 -4.74664e-21)
(0.982288 -0.0523875 5.85959e-22)
(0.870396 0.0688041 -1.58023e-20)
(0.999024 -0.000384299 -1.07408e-22)
(0.990784 -0.00223735 3.40893e-22)
(0.957306 -0.0118276 1.24854e-21)
(1.03339 -0.00234753 -1.11154e-21)
(0.989335 -0.104975 -2.57992e-22)
(1.17547 0.153768 -8.20576e-21)
(0.931641 0.0833413 -3.49047e-20)
(1.00005 -9.4184e-05 3.68892e-24)
(1.00854 -0.00680558 1.85824e-22)
(1.03185 0.0195654 9.82121e-21)
(0.996701 -0.00520849 -3.46119e-22)
(1.03667 0.0162329 -1.22602e-21)
(0.999547 -0.00111555 -9.50106e-24)
(0.890367 0.116916 2.76939e-20)
(1.01452 0.105512 4.60951e-21)
(0.995162 -0.00184378 3.28419e-22)
(1.00308 -0.00760128 -8.08633e-24)
(0.999737 -5.81239e-05 -6.09822e-23)
(1.21713 0.0785995 1.07406e-21)
(0.999919 -9.22492e-06 5.02903e-24)
(0.995375 -0.00951701 1.6457e-22)
(0.948484 -0.0229438 1.7015e-21)
(0.999938 -2.26125e-05 -1.13535e-24)
(0.998916 -0.00255626 -3.74518e-23)
(0.999645 -0.00108359 1.72616e-23)
(1.08951 0.0401565 6.29487e-21)
(0.999982 -2.18567e-05 1.81826e-24)
(0.996042 -0.00044478 1.93901e-25)
(0.962757 -0.0361662 4.63182e-21)
(0.841118 0.0365758 -9.25207e-21)
(1.07705 -0.0236496 -5.97162e-22)
(0.90695 0.0790862 2.11882e-20)
(0.999961 -7.02255e-06 -2.85847e-24)
(0.999828 -0.040335 -3.38418e-23)
(0.99984 -0.000276653 -1.39065e-23)
(1.00761 0.118084 -2.09336e-20)
(1.00346 -0.000718176 -1.72336e-22)
(0.993402 0.0418925 9.98425e-21)
(1.00231 -0.00909722 -1.29472e-22)
(1.00067 -0.00185196 5.76936e-23)
(1.02389 -0.0348204 -1.43043e-22)
(1.02333 -0.00133842 -5.01677e-21)
(1.0005 -0.000298568 2.78803e-23)
(0.999805 -4.77863e-05 3.23803e-25)
(1.00044 -0.000402243 6.25184e-23)
(0.996526 -0.00552238 -3.09737e-22)
(1.00729 -0.0614619 1.73509e-21)
(0.999963 -9.4549e-06 1.93173e-24)
(0.96701 -0.0245073 1.09187e-21)
(0.99677 -0.000988446 -1.32799e-23)
(0.999879 -4.02476e-05 6.84032e-24)
(0.99946 -0.000523314 1.19416e-23)
(0.987391 0.0716173 2.40813e-20)
(0.993069 -0.000733393 1.34693e-22)
(0.99934 -9.38044e-05 -1.24654e-23)
(0.87948 0.0165204 3.52681e-20)
(0.998784 -0.00245633 -8.4823e-23)
(1.1004 0.119282 -6.12602e-21)
(0.999822 -0.000255407 2.50845e-23)
(1.00611 -0.020922 -7.26774e-24)
(1.00001 -1.4873e-06 -1.02713e-25)
(0.983275 -0.0303072 -8.13593e-22)
(1.03252 -0.00245719 1.73438e-21)
(1.1781 -0.0841677 2.9925e-21)
(0.980529 -0.0169528 1.47516e-21)
(0.999645 -0.0005498 4.53534e-23)
(0.976447 -0.0650976 1.02652e-21)
(0.985665 -0.000415203 6.12602e-22)
(0.999844 -1.7147e-05 6.79332e-25)
(1.00042 -0.000351608 -5.5321e-23)
(0.998191 -0.00318681 1.16884e-22)
(0.993389 -0.00131452 -4.03576e-22)
(1.00267 -0.000868473 -2.03825e-22)
(0.998932 -0.0017594 5.57317e-23)
(0.978801 -0.00772761 2.05175e-22)
(1.01138 -0.0605507 -1.25353e-21)
(0.978929 -0.00649583 9.07649e-22)
(1.11912 -0.0869565 -1.88594e-22)
(0.97229 -0.00707111 -1.14619e-21)
(1.03351 0.137551 2.29859e-21)
(1.02758 0.141832 -1.6791e-20)
(0.998691 -0.000699855 -9.35532e-23)
(1.19446 -0.107877 -6.58198e-21)
(0.999986 -2.9767e-06 -1.74349e-25)
(0.998143 -0.00394602 -1.42943e-22)
(0.977365 -0.00180716 2.31369e-21)
(1.00966 0.0304659 5.20853e-21)
(1.04439 0.00738332 -4.55314e-21)
(1.00009 -3.03861e-05 7.54438e-24)
(0.998259 -0.00372411 -9.50162e-24)
(0.973219 -0.00784697 8.64038e-22)
(1.06738 0.0384001 -2.74607e-21)
(0.999137 -0.00109631 4.8655e-23)
(1.00301 -0.000716702 1.15312e-22)
(1.00109 -0.000911815 -1.0192e-23)
(1.14684 -0.0228759 4.78397e-22)
(1.1509 -0.160372 -4.49254e-21)
(1.06792 0.168271 1.01591e-20)
(0.998612 -0.00022583 -9.09461e-23)
(1.05168 -0.0523013 3.55613e-22)
(0.999901 -6.14144e-05 -5.62494e-24)
(1.0042 -0.00677698 -3.88366e-22)
(0.999953 -1.24299e-05 -8.1195e-25)
(0.986685 -0.0185498 2.59305e-22)
(0.999701 -6.86556e-05 -1.16771e-23)
(1.01018 -0.02106 8.68032e-23)
(1.21144 -0.13403 7.04568e-21)
(0.976213 -0.0236972 1.76471e-21)
(1.00725 -0.0204918 -2.76605e-23)
(1.00765 -0.00607445 -2.41233e-22)
(0.999365 -0.000122291 5.59476e-23)
(1.0242 -0.0191955 5.36138e-22)
(0.996497 -0.0171261 2.64337e-22)
(1.08585 -0.00679393 -1.38394e-21)
(1.08199 0.0392558 2.96371e-21)
(1.07801 -0.16763 6.44896e-23)
(1.11008 -0.103042 -2.22224e-21)
(0.985054 -0.0008401 -6.54543e-22)
(1.00454 -0.00339487 3.67673e-22)
(0.950348 -0.0218356 -6.60205e-22)
(0.909422 0.103078 -4.24484e-20)
(1.09532 -0.0917247 2.54523e-21)
(1.02572 -0.0124784 -2.1983e-21)
(0.881653 0.0747037 -2.13851e-20)
(0.99866 -0.000171243 4.49571e-23)
(0.998467 -0.000863336 -2.88413e-23)
(1.13082 -0.107475 -2.40137e-21)
(0.999061 -0.00190684 -2.9934e-23)
(1.0074 -0.0393464 1.43706e-22)
(1.00525 -0.00167411 1.2949e-22)
(0.997503 -0.000382609 -7.12207e-23)
(0.998171 -0.000321154 -1.12482e-22)
(1.03908 0.0251539 5.73492e-21)
(0.999941 -0.000136539 -4.45342e-25)
(1.00048 -0.00024222 -2.48138e-23)
(1.00007 -1.23641e-05 5.63227e-24)
(0.996935 -0.000602019 3.77962e-22)
(0.994355 -0.00831797 4.30139e-22)
(0.999985 -2.41081e-06 1.339e-25)
(0.99904 -0.000227873 1.15986e-23)
(0.981314 -0.0149743 5.18014e-22)
(0.938072 0.0218678 1.1326e-20)
(1.0088 -0.0216856 1.20208e-23)
(0.993513 -0.0109008 6.96799e-22)
(0.954322 0.0815159 4.80459e-21)
(1.00134 0.0330905 1.4591e-20)
(1.06983 -0.0135242 -1.19312e-21)
(1.19365 -0.0941704 2.2248e-21)
(0.952796 -0.00377464 2.1362e-21)
(1.00449 -0.00391921 -1.81487e-22)
(1.01246 0.0525664 -8.15166e-22)
(0.990001 -0.00197691 -8.13228e-22)
(1.06976 0.124043 2.08473e-22)
(1.00298 -0.0453555 2.20916e-23)
(1.00806 -0.101782 -1.06815e-21)
(1.13656 0.0795053 3.30016e-21)
(1.07515 0.132206 -8.7173e-21)
(0.968372 -0.0212461 2.42604e-21)
(1.045 0.00498405 -2.88921e-21)
(1.1879 0.160717 7.44948e-21)
(1.09099 0.122262 1.21039e-20)
(1.02418 -0.00291534 1.69885e-21)
(0.99732 -0.00133302 8.26691e-23)
(0.996272 -0.00205349 7.20668e-23)
(0.999923 -2.17434e-05 -2.66459e-24)
(1.01344 -0.0275229 4.97363e-23)
(0.989723 -0.00165717 1.91363e-22)
(1.00091 -0.00217373 -4.75041e-23)
(0.999907 -2.20921e-05 -4.97267e-24)
(0.99858 -0.000640084 3.65285e-23)
(0.97468 -0.0637507 -1.69761e-21)
(1.13702 0.0032784 9.14252e-22)
(0.984558 -0.00525944 -1.04666e-21)
(0.999139 -0.0114151 2.91672e-22)
(0.996622 -0.000658584 -2.02672e-22)
(1.04829 -0.0534186 -4.94382e-23)
(0.993684 -0.00138165 -6.47617e-22)
(1.00211 -0.00682332 1.42949e-22)
(1.20973 0.13872 1.32471e-21)
(0.998366 -0.000305775 -2.61252e-22)
(0.999981 -4.18135e-05 -1.2721e-24)
(0.999952 -0.000164658 -7.07419e-25)
(1.00004 -9.63491e-05 4.80786e-24)
(0.980894 -0.00680104 4.78718e-22)
(1.03661 0.0229034 -6.75463e-21)
(0.996416 -0.000501453 7.95819e-24)
(1.02184 -0.0103232 1.43416e-21)
(0.993238 -0.110579 2.00788e-21)
(0.999396 0.103767 -4.84424e-22)
(1.00354 -0.00690974 1.27717e-22)
(1.00602 -0.00440834 -6.03144e-23)
(0.995461 -0.00230005 -2.61261e-22)
(0.992793 0.0708327 -2.35196e-20)
(0.999071 -0.000119041 3.74035e-23)
(1.07448 0.174598 -5.0541e-21)
(1.00976 0.0208505 -7.98996e-21)
(0.999899 -2.71749e-05 5.81821e-24)
(1.0011 -0.0458176 -8.78902e-22)
(0.997043 -0.000696156 -1.86637e-22)
(0.987223 -0.052732 2.66371e-21)
(1.0005 -0.000129972 2.48231e-23)
(1.06604 -0.00891901 1.72404e-21)
(1.00602 -0.0153178 -4.12747e-24)
(1.00564 -0.00397508 3.05061e-23)
(0.999252 -0.000147335 -7.44731e-23)
(1.09437 0.0347024 2.91064e-21)
(1.06116 0.0377808 1.04134e-21)
(0.999915 -0.0596437 1.42709e-21)
(0.981886 -0.0175037 -9.91368e-23)
(0.998089 -0.00340128 -1.00785e-22)
(0.997739 -0.0364416 -1.6108e-21)
(1.19611 -0.00703346 -1.66382e-22)
(0.848302 0.056739 -2.02841e-20)
(1.05572 -0.0918511 -1.45304e-21)
(1.00463 -0.00733978 -5.83247e-23)
(0.999993 -2.47651e-06 -4.11924e-26)
(0.988173 -0.00434666 -8.42108e-22)
(0.997995 -0.000349764 2.43142e-22)
(1.02291 -0.0190523 7.76824e-22)
(0.988799 -0.0892684 -8.55486e-22)
(1.18052 -0.116111 2.44466e-21)
(0.985139 0.0983318 -2.89242e-20)
(1.07111 0.0329453 4.38472e-21)
(1.06408 -0.128432 2.21021e-21)
(1.11697 0.0871476 1.50968e-21)
(0.999568 0.0362281 2.77288e-20)
(1.01861 -0.00266773 1.22227e-21)
(1.00109 -0.00210421 1.09248e-22)
(1.03692 0.0714401 4.53468e-21)
(0.999238 -0.0018594 6.66239e-23)
(0.999839 -0.000152626 5.50456e-24)
(0.983871 -0.00175177 2.92481e-22)
(1.00008 -2.9837e-05 1.41597e-24)
(1.05832 -0.143617 1.01083e-21)
(1.00305 -0.0166689 -6.8203e-23)
(0.985108 -0.03003 1.37915e-21)
(1.00169 -0.00144329 5.62383e-23)
(1.10372 0.075602 8.79906e-21)
(0.998437 -0.000290461 -2.15375e-23)
(0.999978 -3.34714e-05 -1.22394e-25)
(1.00205 -0.103018 1.15107e-21)
(1.0015 -0.00124454 -3.29482e-23)
(1.10839 -0.0403663 -3.03523e-22)
(0.960787 -0.0122645 4.45785e-22)
(0.944216 -0.0142088 2.15667e-22)
(1.25435 -0.0791531 4.57701e-22)
(1.02885 0.019077 -2.56142e-21)
(1.02277 0.00520739 1.58218e-21)
(1.02142 0.00504606 -6.21579e-22)
(0.999821 -3.92907e-05 1.94655e-24)
(1.14582 -0.00350574 5.52396e-22)
(1.08834 -0.00267112 1.61372e-21)
(0.999544 -0.000590931 1.74739e-23)
(0.985233 -0.00572596 1.21571e-21)
(1.00055 -0.000189212 -2.76279e-23)
(1.01032 -0.019411 -5.20372e-22)
(1.00644 -0.026868 -5.46841e-23)
(1.00405 -0.00127669 9.93508e-25)
(0.999325 -0.00117452 -7.91635e-23)
(1.20579 0.0668345 -3.26175e-21)
(0.999981 -2.00528e-05 -2.10232e-24)
(1.00018 -0.000100089 -7.30228e-24)
(1.00179 -0.000979665 -2.39716e-24)
(0.98018 -0.00293304 8.05728e-22)
(1.01786 -0.011663 9.95072e-22)
(0.984803 -0.025328 -1.94524e-21)
(0.975669 -0.00449062 -4.67203e-22)
(1.00505 -0.0579278 8.16763e-22)
(1.0024 -0.121428 -2.14959e-21)
(1.02274 -0.0319132 1.34844e-22)
(1.04276 0.0714831 -2.55745e-20)
(1.21375 -0.116901 -4.73302e-21)
(0.994147 -0.00233288 -3.38198e-23)
(0.884561 0.109065 3.31461e-20)
(0.975878 -0.0471284 2.84202e-21)
(0.99407 -0.00881816 1.35284e-22)
(0.976284 -0.00372864 7.69394e-22)
(0.99756 -0.0166117 -7.55436e-23)
(0.981403 -0.00214548 1.2346e-21)
(0.991087 -0.00349113 -2.46201e-22)
(1.02579 -0.0143645 -1.4911e-21)
(1.09901 -0.0992587 -6.36509e-22)
(0.999977 -3.90473e-05 -1.76658e-25)
(1.02192 -0.0133341 -1.72704e-22)
(0.999915 -2.68722e-05 -2.82998e-24)
(1.02133 0.118 5.49826e-21)
(1.2244 0.0206748 2.72869e-22)
(0.995734 -0.001758 8.26452e-23)
(0.987458 -0.00155084 -1.11759e-21)
(0.999836 -4.86651e-05 -1.42464e-23)
(0.999188 0.0626055 1.72987e-20)
(1.05498 0.133067 1.1985e-20)
(1.14263 -0.01537 -1.73282e-22)
(1.24404 0.106946 -1.85213e-21)
(0.975491 -0.0498828 -1.23302e-21)
(0.998291 0.0109847 -2.68768e-20)
(0.999945 -0.000120608 2.66452e-24)
(1.043 -0.0332346 1.32011e-21)
(0.983551 -0.00133477 -4.53681e-23)
(1.13947 0.0571513 -1.46715e-21)
(0.919749 0.0754185 -2.57397e-20)
(1.19353 -0.0197003 -1.11832e-21)
(1.0618 0.0268887 7.19679e-22)
(0.999766 -0.0113304 -4.96507e-23)
(0.999823 -7.59066e-05 -1.30601e-23)
(1.23273 0.0766235 6.87019e-22)
(1.16222 -0.138743 1.01241e-21)
(0.996528 0.0739049 -5.07331e-22)
(1.10041 -0.0373092 9.53283e-22)
(1.0433 0.055121 7.52799e-21)
(0.9938 -0.00208184 -1.15405e-22)
(0.994013 0.0980664 7.78501e-21)
(1.06023 0.124467 4.11129e-21)
(0.992087 -0.00295837 -6.90688e-22)
(0.993384 -0.00276935 -2.56988e-22)
(1.23838 0.0469361 -1.12415e-22)
(0.942257 -0.0131225 -2.98328e-21)
(0.999925 -0.00014024 -4.13984e-24)
(0.988729 -0.00470459 1.08405e-21)
(0.946332 -0.0185477 2.20013e-21)
(0.982894 -0.0641169 -3.59273e-22)
(1.00887 -0.00234094 -1.04506e-21)
(1.00767 -0.00551484 6.59642e-23)
(0.999891 -0.000174986 -7.72752e-24)
(1.05925 0.14148 -1.80273e-20)
(1.00013 -0.0102993 8.44259e-24)
(0.99991 -5.32012e-05 2.50993e-24)
(1.01242 -0.0560611 1.02731e-21)
(0.999564 -0.000388562 1.5517e-23)
(0.999805 -6.81411e-05 9.89656e-25)
(1.00455 -0.0112239 -6.61319e-23)
(1.08709 0.0806268 1.26699e-20)
(0.999805 -0.0919313 1.58321e-21)
(0.94286 0.0763227 1.50043e-20)
(1.00006 -8.86888e-06 -3.94083e-24)
(1.09635 0.083656 -1.30287e-20)
(1.00809 -0.0473482 7.40521e-22)
(0.999932 -0.000171691 -1.17203e-24)
(1.00002 -5.58938e-06 -1.21133e-24)
(1.00311 0.0121174 -1.31101e-21)
(1.07688 0.06807 4.83541e-21)
(0.996533 -0.0021691 7.17828e-23)
(1.06591 0.0506469 -6.40136e-21)
(1.00002 -1.77971e-05 8.80001e-25)
(1.0679 0.0577922 -8.71007e-21)
(1.0694 -0.159732 2.8918e-21)
(0.991668 -0.00264753 7.59709e-22)
(0.999128 0.0175047 -3.61392e-20)
(0.977384 -0.0397695 1.89921e-21)
(1.2455 0.0905984 1.26446e-21)
(0.977346 -0.00373701 4.69225e-22)
(1.07519 0.0601963 1.13836e-20)
(1.08519 0.0708145 -3.51863e-21)
(0.985926 -0.00708227 1.75834e-21)
(0.981673 -0.00854051 -1.28798e-21)
(0.995524 -0.00885241 4.04007e-22)
(0.99754 -0.000651298 -6.13212e-23)
(0.999826 -0.000169808 1.50145e-23)
(0.999946 -0.00984099 -1.5178e-23)
(1.07417 0.114378 -2.09466e-21)
(0.999976 -3.06924e-05 5.36485e-25)
(1.05917 0.0490605 8.45835e-21)
(1.00975 -0.0955388 2.59456e-21)
(1.01108 0.0753793 6.64917e-21)
(1.05729 0.0431782 -9.72807e-21)
(0.94434 -0.0173228 -2.73056e-22)
(0.951653 0.098163 -3.11438e-20)
(0.998632 -0.00103097 5.2022e-24)
(1.01349 -0.0253767 2.04506e-22)
(1.03245 -0.0795052 7.48674e-22)
(0.98219 -0.00202508 -7.5221e-23)
(0.994483 -0.00293778 3.42843e-22)
(1.00558 -0.0479932 -6.44847e-22)
(1.05213 -0.0273165 -1.31948e-22)
(0.895341 0.0678795 4.05659e-20)
(1.00004 -1.67852e-05 4.26638e-24)
(0.998385 -0.00109834 6.99881e-23)
(1.00689 -0.0686788 3.20218e-23)
(1.00001 -4.49302e-06 1.44146e-25)
(1.02303 0.126694 2.70661e-21)
(1.00152 -0.00107398 0)
(1.00001 -6.05814e-06 1.10279e-25)
(1.00017 -7.78067e-05 1.71524e-23)
(1.00035 -0.000108179 3.4508e-25)
(0.987011 -0.0173804 1.31742e-21)
(1.02074 -0.0176982 -5.53558e-22)
(0.998696 -0.000803696 1.10255e-22)
(0.999927 -1.52493e-05 5.27864e-24)
(0.994124 -0.00274861 1.90324e-22)
(1.00392 -0.0116574 -4.49792e-23)
(0.979799 -0.0916237 -2.3111e-21)
(0.949021 -0.00592136 2.15297e-22)
(1.01729 -0.0103739 1.77016e-21)
(0.999977 -2.4e-06 1.65905e-24)
(1.03516 -0.148369 3.05267e-21)
(0.988928 -0.00328174 -4.34561e-22)
(1.20899 0.0489945 2.22283e-23)
(1.00041 0.0137594 -4.78081e-21)
(1.0011 -0.00317006 2.51839e-23)
(1.18079 0.0451002 -3.58144e-21)
(1.00013 -8.42221e-05 -7.31447e-28)
(0.989446 -0.00368808 1.25357e-23)
(1.02426 0.000457352 -3.13661e-21)
(0.994505 -0.0033432 -1.40394e-22)
(1.09477 0.100217 -7.76598e-22)
(0.989338 -0.00575561 -8.19325e-22)
(1.04519 -0.0312184 -1.20876e-21)
(1.02482 0.00100218 -3.38394e-21)
(1.07843 0.033242 -1.77206e-21)
(1.00639 -0.0141084 -2.54881e-22)
(0.991533 -0.00376799 2.0438e-23)
(1.12101 0.0680764 4.84375e-21)
(0.976749 -0.0686796 -2.00223e-21)
(1.00654 0.125935 2.29275e-20)
(0.992502 -0.00427872 -8.00707e-22)
(1.10904 0.138224 -2.80496e-22)
(0.992491 -0.00375134 2.13911e-22)
(0.999028 -0.000462774 -7.18292e-24)
(1.05998 0.0230571 2.08571e-21)
(1.01163 -0.0285161 -1.99963e-24)
(1.03789 -0.000448296 4.49675e-21)
(1.00157 -0.000755431 3.66338e-23)
(1.00001 -4.82783e-06 5.04904e-26)
(0.984727 -0.10517 8.38077e-22)
(1.20122 0.127477 -5.68479e-21)
(1.00132 -0.00307872 -3.48041e-23)
(1.19532 0.0390038 2.08181e-22)
(0.989922 -0.00537859 -5.36909e-22)
(1.02814 -0.148703 -1.12647e-21)
(1.03776 -0.0459664 -7.69231e-23)
(0.984381 -0.0268721 1.09516e-21)
(0.998597 -0.000898935 -4.65875e-23)
(0.992732 -0.000947244 -1.61959e-22)
(0.9739 -0.0584782 -1.18197e-21)
(0.975512 -0.0080174 1.76375e-21)
(0.99204 -0.003491 5.65237e-22)
(0.999876 -0.000396446 6.64801e-24)
(0.997142 0.13402 -2.89171e-21)
(1.16928 0.0361548 2.01434e-21)
(1.02296 -0.0115215 -5.55181e-22)
(0.999832 -0.000132156 1.00315e-23)
(1.05545 0.11659 -8.06181e-21)
(1 -2.13574e-05 2.14309e-25)
(0.999845 -0.000117909 1.98575e-23)
(1.1562 0.0411453 2.25633e-21)
(1.00834 -0.0234937 1.07862e-22)
(1.208 0.0989349 4.00509e-21)
(1.02303 -0.00333916 1.27944e-21)
(1.01537 -0.0126159 -1.14588e-22)
(1.06893 -0.0855728 9.97381e-22)
(1.01688 -0.11949 2.54937e-21)
(1.24425 -0.0840911 1.97272e-21)
(1.0011 -0.000766671 -8.03405e-23)
(0.962233 -0.0134234 -1.7222e-22)
(0.999984 -5.13509e-05 -3.74147e-25)
(1.00432 -0.0102054 4.74562e-23)
(1.09913 0.0924902 4.62474e-21)
(0.98667 -0.0066487 1.22888e-21)
(0.997669 -0.00130567 9.69419e-23)
(1.01016 -0.0386238 -4.32394e-22)
(0.998358 -0.000969131 6.65634e-24)
(0.999667 -0.000974376 2.0506e-23)
(0.886917 0.015721 7.24167e-21)
(0.992052 -0.00459701 -4.52823e-22)
(0.999544 -0.000645447 -6.04744e-23)
(0.999985 -6.18653e-07 -3.39294e-25)
(1.01833 0.00665331 6.92753e-21)
(0.976917 -0.0222163 -2.67004e-22)
(0.999726 -0.000487495 1.8085e-23)
(0.997679 -0.00075817 1.25025e-22)
(1.02675 0.0218042 2.84416e-21)
(1.07465 -0.00231888 4.34557e-22)
(0.968309 -0.019397 -1.5083e-21)
(1 -1.33993e-05 7.05606e-26)
(1.00136 0.0125888 1.91218e-20)
(0.988195 -0.0151809 -8.9729e-22)
(1.10052 0.0664593 -8.82886e-21)
(1.01163 -0.00120171 -1.59353e-21)
(1.01355 -0.00123573 3.64623e-21)
(0.974102 -0.00994295 2.39876e-21)
(0.99992 -5.66633e-05 -1.64249e-24)
(1.02403 0.000122908 -6.32851e-22)
(1.07866 -0.00728151 -4.96778e-22)
(1.2309 -0.0488237 -2.48223e-21)
(1.01565 -0.0937089 6.02538e-22)
(1.06804 0.107088 6.11818e-21)
(1.00503 -0.00153631 -2.55742e-23)
(1.13258 0.0695191 -6.62273e-21)
(0.999757 -0.01323 -8.51306e-23)
(1.00963 -0.0532252 -1.74861e-21)
(0.999674 -0.000145899 -1.9587e-23)
(1.00238 -0.0177022 1.32884e-22)
(0.999913 -0.000380311 2.49789e-24)
(1.058 0.031722 -6.34016e-21)
(1.14457 0.145718 -1.50015e-20)
(0.998762 -0.00106191 3.70657e-23)
(1.01673 -0.0129461 1.86585e-23)
(0.985506 -0.00399005 4.22018e-22)
(1.0222 -0.0853333 2.80274e-22)
(1.01661 -0.0877337 -1.30698e-21)
(0.998442 -0.00076571 7.35008e-23)
(1.0396 -0.0328415 -4.34224e-22)
(0.89688 0.00461401 -1.22236e-20)
(1.20595 -0.0605814 -2.15084e-21)
(0.999954 -0.000146439 5.74467e-24)
(1.06845 -0.00349177 -1.52053e-21)
(0.997484 -0.00811882 -1.98036e-22)
(0.994115 0.00288177 2.5627e-20)
(0.989928 -0.00470572 7.4615e-22)
(0.995599 -0.0238478 -2.48589e-22)
(1.01309 -0.0349479 -2.34951e-23)
(0.994327 -0.0245298 -3.47185e-23)
(0.998201 -0.0192356 -5.63562e-22)
(0.993736 -0.00297459 1.31011e-22)
(0.998996 -0.0130725 3.02822e-22)
(1.00168 -0.00575353 -3.88972e-23)
(1.05222 -0.0313446 3.23614e-22)
(1.00009 -2.24672e-05 -1.09855e-23)
(1.111 -0.166602 -1.68086e-21)
(1.15382 -0.080671 -9.29041e-22)
(1.04039 0.13943 1.51615e-20)
(0.969854 -0.0184318 2.29063e-21)
(1.18913 0.098497 -2.16708e-21)
(1.00168 -0.000589569 1.30094e-22)
(1.04527 -0.0841336 -9.16708e-24)
(1.00172 -0.0351927 -6.11998e-22)
(1.02539 0.0409433 8.44027e-21)
(0.99416 -0.00360679 3.2563e-22)
(1.00009 -0.00016255 7.24122e-24)
(0.988744 -0.015833 1.17263e-21)
(0.99626 -0.00863725 -1.53239e-22)
(1.03754 -0.0297724 1.08173e-21)
(0.9768 -0.00616485 -1.493e-21)
(0.980761 -0.00794821 4.25288e-22)
(1.10911 -0.0798759 -3.76424e-22)
(0.987748 -0.00261289 -7.33986e-22)
(1.01061 -0.03597 2.89474e-22)
(0.983497 -0.0677996 1.47135e-21)
(1.00001 -7.0911e-06 9.18243e-26)
(1.05635 -0.0245118 1.95682e-21)
(0.985997 -0.0616486 -3.9495e-21)
(1.18745 0.0707521 1.68032e-21)
(1.06566 -0.0912125 -1.83364e-21)
(1.03616 -0.000601056 3.74558e-22)
(1.00552 -0.091085 -3.30056e-21)
(1.07509 0.151333 3.74839e-21)
(1.02834 -0.0382008 2.11515e-22)
(0.97303 -0.0091602 -1.41959e-21)
(1.00885 -0.0443554 -8.74318e-22)
(0.952672 0.00661056 1.15158e-20)
(1.0885 -0.145033 8.80082e-22)
(0.989379 -0.00436643 -2.26879e-22)
(0.999926 -0.109373 -2.46221e-22)
(1.0144 -0.0634663 1.23383e-21)
(1.01287 -0.106767 -3.95419e-22)
(1.02244 -0.0794742 -1.43357e-21)
(1.1164 0.0590383 6.36936e-21)
(0.99769 -0.00150042 6.39302e-24)
(1.01063 0.0496073 3.20814e-21)
(1.0068 -0.00148088 1.87046e-22)
(0.999673 -0.000492885 -2.59133e-23)
(0.999006 -0.00211705 1.83334e-22)
(1.06098 -0.00897207 -4.87826e-22)
(0.83905 0.00545632 3.54636e-22)
(1.00135 -0.00614009 1.93444e-23)
(1.01059 -0.049835 2.49376e-22)
(1.02747 0.0252655 -4.71709e-21)
(1.00002 -6.4726e-06 -2.13274e-25)
(0.982589 -0.00805387 1.029e-21)
(1.02045 -0.0103603 1.27096e-21)
(1.06191 -0.0565186 -2.57324e-22)
(1.00691 -0.000767533 1.05014e-21)
(0.998671 -0.00188087 3.35154e-23)
(0.984633 -0.034023 2.04848e-23)
(0.998076 -0.00782629 -5.91142e-23)
(1.00003 -5.09185e-06 2.3248e-24)
(0.979196 -0.0392073 -3.20757e-21)
(1.07941 0.0950504 -2.11731e-21)
(1.01551 -0.0311882 1.33457e-22)
(0.986134 -0.00452487 -7.89744e-22)
(1.00153 -0.000390383 -4.67227e-23)
(1.03122 0.0268366 6.20258e-21)
(0.999679 -0.000596445 -1.19254e-23)
(0.998961 -0.000606467 -3.72585e-24)
(0.999702 -0.000159405 -1.7877e-23)
(0.999378 -0.00199416 -4.60748e-23)
(1.21988 -0.0315528 -6.57811e-22)
(1.02245 -0.03678 2.00108e-23)
(1.0065 -0.0177431 6.53579e-23)
(0.985174 -0.00664137 -3.60968e-22)
(1.00004 -4.76249e-05 2.25334e-24)
(1.03107 -0.121956 3.54065e-21)
(1.17894 -0.131786 2.97814e-23)
(1.03078 -0.13019 -1.677e-21)
(0.995808 -0.0302645 -4.67399e-22)
(1.01219 -0.00916002 1.18255e-21)
(0.999823 -9.28369e-05 8.24798e-24)
(0.99036 -0.0104246 -4.67601e-22)
(0.964392 -0.0383812 -1.82479e-21)
(1.19851 -0.0464543 4.94751e-22)
(1.00881 0.0731191 -2.34692e-22)
(0.999025 -0.00299547 3.72675e-23)
(0.954761 -0.0264924 1.01173e-21)
(0.996055 -0.00256542 -3.12422e-22)
(1.02719 -0.0351657 3.12559e-23)
(1.13202 0.0477597 4.3841e-22)
(1.00037 -0.000125982 -3.88412e-23)
(0.999869 -0.000200868 -3.05004e-24)
(1.2423 0.0590868 6.92045e-24)
(1.1754 -0.0599124 6.53854e-22)
(1.01575 -0.0156465 4.16924e-22)
(0.997531 -0.00163498 1.65122e-22)
(0.99825 -0.000434363 -1.63669e-23)
(0.969732 -0.0395769 4.46973e-22)
(0.999854 -0.000331554 -1.01221e-23)
(1.01325 -0.0323622 -6.29357e-23)
(0.988863 -0.00129483 1.51867e-21)
(1.00061 0.0158986 -3.98933e-21)
(1.08728 0.101966 -1.12358e-21)
(1.04344 -0.0777202 7.10951e-22)
(0.989027 -0.0626732 1.45091e-21)
(1.00561 -0.00137756 5.20598e-22)
(1.01163 -0.024155 -2.8044e-22)
(1.15276 -0.0665536 -1.51704e-21)
(0.987331 -0.0689566 -9.02671e-22)
(1.0117 -0.0434714 4.99111e-22)
(0.999999 -6.44038e-06 4.06596e-26)
(1.12939 -0.0693278 -1.49227e-21)
(0.978637 -0.00253096 1.41153e-22)
(0.98498 -0.0756785 1.7773e-21)
(1.01545 -0.0287533 -3.21624e-22)
(0.963945 -0.0127782 -3.14114e-22)
(0.999664 -0.000280968 -8.74874e-24)
(0.997495 -0.00122234 -7.36819e-23)
(1.05142 0.0418272 7.52358e-21)
(0.975395 -0.00934747 -5.39949e-22)
(0.999987 -1.90192e-06 3.75053e-25)
(0.997597 -0.000505573 -1.7276e-22)
(1.09628 -0.13469 -5.25211e-21)
(0.999862 -4.79624e-05 2.08934e-23)