/*--------------------------------*- C++ -*----------------------------------*\
  =========                 |
  \\      /  F ield         | OpenFOAM: The Open Source CFD Toolbox
   \\    /   O peration     | Website:  https://openfoam.org
    \\  /    A nd           | Version:  7
     \\/     M anipulation  |
\*---------------------------------------------------------------------------*/
FoamFile
{
    version     2.0;
    format      ascii;
    class       volScalarField;
    location    "5";
    object      p;
}
// * * * * * * * * * * * * * * * * * * * * * * * * * * * * * * * * * * * * * //

dimensions      [0 2 -2 0 0 0 0];

internalField   nonuniform List<scalar> 
30084
(
0.058892
0.55838
-0.0558371
-0.205378
-0.0153585
-0.234741
0.0148694
0.0617547
0.0130222
0.00120389
0.050141
-0.0259366
-0.00302829
-0.000144895
0.750527
-0.0374283
-0.000991767
0.406376
-0.0136297
-0.0652713
-0.00544819
0.0122309
-0.0562723
-0.0134778
1.60225
0.55485
-0.00325628
1.41339
0.74198
-0.00937178
0.0999013
0.295954
-0.287762
-0.0344528
1.42234
-0.0272569
0.66103
-0.167963
0.0356711
0.0345668
0.0027871
-0.0943539
-0.000878789
-0.0501276
0.000217039
-0.0080377
-0.0227877
0.000504684
0.0213788
0.646469
0.082661
-0.182908
0.30366
-0.228252
-0.036582
0.70805
-0.0213888
-0.00559958
-0.0221227
-0.0635154
-0.000368294
-0.0131915
0.487048
-0.0226751
0.954207
1.52081
-0.0378089
-0.0510252
1.46287
0.00290426
0.550291
1.22262
0.0163538
1.5465
-0.0486041
0.223785
0.824981
-0.152605
-0.000272177
-0.0638572
-0.214937
0.716114
0.0586774
4.14372e-05
0.0271181
0.00157027
0.987256
-0.0031409
-0.00292724
-0.317623
-0.114462
-0.15343
0.0197905
0.321988
-0.328921
1.02112
-0.140961
0.00306813
-0.222136
0.827726
-0.000288076
-0.143758
-0.000358725
0.235199
-0.188126
0.491199
1.0893
-0.00281315
-7.60923e-06
-0.241397
-0.290965
0.112841
1.96826e-05
-0.0090508
-0.000956305
1.20326
0.781507
-0.0710334
0.000179069
0.0185747
0.29967
0.588613
0.225449
1.52208
0.00698741
0.288385
0.421457
-0.0411491
0.0258902
0.00019762
-0.0443134
0.807949
1.23569
0.17252
0.232194
0.097022
1.13451
-0.147178
-0.217701
0.809689
0.306287
-0.278835
-0.262994
1.40295e-05
-1.02181e-05
-0.01575
-0.0211664
-0.22604
-0.095165
0.630342
0.170341
0.0886697
0.00280305
-0.000798411
0.740259
0.00339944
-0.0455515
1.10749
0.857072
0.098356
-0.206683
-0.199851
0.725711
-0.000279636
-1.15666e-05
-0.0713845
-0.256718
0.00036721
3.32921e-05
-0.0422077
0.000283614
0.0364814
1.12231
-0.145288
-0.134446
-0.031038
0.0133089
-0.147407
-0.00713858
0.260777
-8.56851e-05
0.000663735
0.985075
-0.0483466
-0.21873
0.754896
-0.0386363
-0.108628
0.0241934
-0.00818236
-0.00171906
0.019942
1.53847
0.731074
-0.0838514
-0.0437499
1.33401
0.674123
-0.323619
0.00736784
-0.0252174
-0.258855
-0.0244708
0.00538547
1.1374
-0.040854
0.0435418
-0.229651
-0.247416
-0.000179386
1.29774
-0.00642898
2.29697e-05
-0.00337516
-0.104091
0.543622
0.00729169
0.0424492
-0.0133434
-0.321007
0.000224528
0.00305164
-0.0143547
0.406419
-0.0170865
-0.0086614
0.285665
0.000850345
0.000202884
0.0331853
-0.156991
-0.131373
-0.0291742
0.545611
-0.0896186
0.0923919
-0.000152351
-0.0184875
0.00502341
-0.0146221
-0.29852
-0.00855311
0.00301484
-0.00931112
0.0190509
-0.063888
-0.000264125
0.013651
0.000319603
0.411775
-0.0207084
0.00096235
0.496932
-0.268211
0.00162221
8.37975e-06
-0.279559
-0.293825
-0.0539054
-0.048372
0.17091
0.952809
0.000525452
-0.152191
0.270935
1.36492
-0.0489387
0.745934
0.23929
-0.0010007
1.77107
-0.00337242
-0.146188
-0.316557
0.0142308
0.419289
-0.0509971
1.25094
-0.0213908
-0.106922
-0.00149671
0.947181
-0.0142756
1.03484
-0.0031694
-0.0356298
1.38395
0.363369
0.284842
-0.185841
-0.000924556
0.0184235
-0.00104714
3.00472e-05
0.42203
0.000255579
-0.11688
0.259028
1.61596
1.22611
-0.23915
-0.105643
-0.125847
0.0957791
0.0236458
-0.109788
-0.24816
0.969766
1.22163
-0.00798313
1.07714
0.411635
0.239024
0.0741875
-0.00585548
-0.00556073
-0.0331336
-0.0166356
-0.000335555
-0.00959978
0.210988
0.962724
0.0104529
-0.161309
0.0862
-0.000201086
-0.243508
1.67529
-0.038778
-0.00803858
0.078822
-0.061224
0.567237
-0.00796349
-0.000171251
1.84047e-05
-0.0168276
1.39121
0.189673
-0.289431
1.23135e-05
-0.310931
0.387617
-0.0317655
-0.3031
-0.00734953
-0.00275274
-0.145789
0.00595075
0.274848
0.0657431
0.743886
-0.000611641
0.0169883
0.584034
0.3022
0.00276827
0.00293598
1.20178
-0.11215
-0.00894233
0.699139
1.37948
0.0669801
-0.0357371
0.551285
-0.00486381
-0.0530912
-0.0209079
0.662616
-5.27577e-05
0.0633461
-0.0403015
1.23323
1.53619
-0.0374908
-0.055173
0.972837
-0.0669184
-0.000325217
0.720479
0.42597
0.43214
-0.0431884
0.154429
1.41046
-0.136344
1.30059
1.23824
3.52599e-06
0.210166
-0.118029
-0.0179266
0.010654
1.38848
0.190588
0.00183587
-0.180926
-0.264897
-0.0349234
-0.000732678
1.06792
0.76827
0.000344207
0.026699
0.0351789
0.0931372
-0.184527
0.000446821
-1.30271e-05
0.00323984
0.577643
-0.166947
0.996355
-0.292486
-0.101392
-0.134321
0.687995
0.487744
-0.00773691
0.0524443
0.00554758
1.31973
-0.155339
0.00709372
-0.0471797
0.326841
-0.00813428
-0.07549
0.00156358
0.00160118
1.69132
-0.0507959
-0.0313834
-0.00266257
-0.00474852
0.922837
-0.0350563
-0.135784
3.5229e-05
2.24654e-05
-0.160592
-0.0424746
-0.0330338
0.108652
0.0404252
-0.0129775
0.341546
-0.108748
1.28685
0.0450242
0.00165523
-0.24019
-0.134407
0.437984
-0.0206933
-0.133784
-8.23244e-05
1.48154
0.121466
0.000589913
1.53821
-0.141011
-8.7912e-05
0.00961568
-0.244287
0.113638
0.289633
-7.79244e-06
-0.0508196
0.00202102
-0.0338936
-0.0030371
-0.0523
1.34326
-0.0512679
-0.072697
0.766965
-0.0181578
1.34567
-9.82206e-05
-0.0913691
-0.226247
-0.129851
0.21346
-0.00960691
0.0233073
-0.000924685
-0.114863
0.103154
-0.00018876
4.82489e-05
-0.0402624
1.26537
0.056548
0.0168441
-0.328717
1.35737e-05
0.00655878
-0.000222338
0.0681943
-0.107765
-0.00251845
-0.048008
-0.0776791
0.00681001
-0.000103918
0.340363
-0.00235155
0.360728
1.16825
0.981541
-0.0198987
0.0398016
0.158474
-0.000534161
-0.0204327
9.9828e-06
1.24925
-0.0841307
0.107118
-0.10639
0.0140022
-0.0194051
-0.000652509
5.79986e-05
-0.0304107
0.310611
0.874614
0.00830563
-0.214884
-0.154964
-0.0498262
0.62726
-0.00863535
0.0115771
-0.0355722
-0.000597729
-0.249013
0.948044
0.715586
-0.137069
0.927033
0.000591465
3.00859e-05
0.712463
0.43619
1.52987
-0.179805
-0.133497
0.345653
0.00788394
-0.0371085
0.00309617
-0.0667219
-0.0790378
-9.90118e-06
-0.00585189
1.22615
-0.000869153
1.44759
1.26156e-05
0.433542
0.349516
0.354702
0.00704385
0.00127672
1.24221
0.374999
-0.23221
0.727405
-0.0362297
-0.0829449
-0.0264143
1.017
-0.155051
0.104933
-0.0459624
1.68226e-05
-0.00853666
0.0398478
-0.111042
-0.133918
-0.251781
-0.112264
0.509847
-0.0140102
-0.313874
-0.0859371
0.000296905
-0.0757872
0.0946113
0.516887
-0.164413
-2.28439e-05
-0.112108
0.00131767
0.00943114
-0.107302
0.994975
0.00610623
-0.0746373
0.0635531
0.364639
1.32423
0.0122943
-0.0227181
0.94953
0.6398
-0.0856029
0.0328536
-0.277621
-1.70966e-06
-0.250754
0.000594499
0.0536494
-0.000170997
0.000201823
-0.0300851
0.505659
1.19902
0.103126
0.0809177
9.1614e-07
-0.0400715
0.000611738
-0.0209682
0.00020187
0.302922
-0.00312916
0.744325
-0.000810553
-0.0801592
-0.218608
-0.0277125
1.31827
-0.103319
-0.162254
-0.0362429
0.256363
-0.228164
0.171345
-0.0183001
-9.35443e-06
-0.0265327
-0.0259539
0.00169179
0.000589389
1.01519
-0.0319833
0.393436
-0.0198722
0.0058027
0.193403
0.00114509
-0.00010689
-0.248065
-0.0229433
0.000222015
0.943971
1.63388
-0.00136717
-0.210375
4.40386e-05
1.42306
0.435243
-0.20543
0.000331208
0.105534
0.316606
0.363793
0.287786
-0.00263561
-0.000865701
-0.0935825
1.68857e-05
1.75383e-05
-0.158347
-0.134512
-0.246321
1.58151
0.0013819
-0.111093
0.0510251
-9.61794e-05
-0.00769012
0.000260967
-0.0366922
0.000303553
-0.00849939
0.166412
1.33448
0.249456
-0.00182274
0.00314788
0.0727252
0.385649
-0.0202666
6.40477e-05
0.85383
-0.23622
-0.17417
-0.087942
-0.000105635
-0.00180867
-0.238777
-0.101329
0.619401
1.28306
-0.158592
-0.00834732
-8.90457e-05
-0.242662
-0.289474
-0.00131455
0.0289153
-0.0827342
-0.0304053
1.21989
-0.00850288
0.0914592
0.843022
-0.0493992
1.5348
1.51382
-0.000171292
-0.000155188
-0.102081
0.100287
-0.203304
0.035399
-0.0478225
-0.00376899
1.39082
0.729525
0.0153196
1.7505
3.36284e-05
0.478048
-0.237139
-0.103731
0.000673197
-0.211063
0.491215
0.0963448
0.33146
-0.00296418
-0.00318015
0.0196279
-0.0225997
-0.0826669
-0.00674423
0.613521
-0.0299121
-0.0333218
-0.337507
1.18718
0.262278
0.189908
-0.00263895
-0.00337678
-0.118364
0.00671242
-0.0170516
-0.000100024
-0.00228511
0.49245
1.24769
-0.000820034
0.935609
-1.06864e-05
-0.0217126
-2.37295e-05
0.0362072
0.32244
-0.000229892
-0.000236261
-0.298064
1.97671e-05
0.29515
-0.127663
-0.000139293
0.770374
1.35027e-05
-0.00262978
-0.000555514
-0.0321105
-0.00233671
-0.039548
-0.255765
-0.00206182
0.0285348
-0.000108713
1.18536
0.0824881
0.264376
-0.19149
-0.132647
-0.007061
0.0196694
0.834987
-0.139211
0.852768
-0.23237
-0.0224379
-1.20309e-05
-0.0367218
1.24154
0.826291
-0.174449
-0.292738
1.15234
-0.0532648
-0.232868
-2.53962e-05
-0.13321
-0.00549482
1.72089
-0.220235
-0.000541753
-0.312205
-0.143414
0.918374
-0.0168445
-0.150254
-0.0219157
-0.027966
-0.00829946
0.914743
-0.298074
-0.113054
-0.0895552
-0.0795424
0.0370609
1.13705
-0.110789
0.727969
0.0183263
0.227637
1.46193
-0.0542306
-0.00148391
0.939709
1.22881
0.0229603
0.191615
-0.0388463
-0.189014
0.946051
-0.247259
-0.000118084
-0.0465821
0.000241683
-0.028647
-0.000125351
-0.0250104
-0.00624704
-0.0195386
0.135533
-0.00387778
-0.00324482
-0.006545
0.7853
-0.0132995
-0.0206936
-0.0184581
0.693982
0.0344846
-0.00219211
1.22989
1.49615
-0.11574
1.39537
-0.102084
1.16121
0.0353948
-0.0339107
0.016863
-0.00291932
0.000110072
0.0169098
-0.0698541
-0.11598
0.716317
-0.133767
-0.117637
-0.00584859
0.173679
-0.130421
0.0424733
-1.89338e-05
0.104557
0.733226
1.21499
0.237867
-0.0775461
0.590572
-0.00191897
0.209188
-0.104302
0.00447092
-0.307685
0.0252344
1.16089
-0.0127715
-0.0033178
-0.00056421
-0.22964
-0.00705655
1.72605
1.77162
0.0724665
-0.000190746
0.0510035
-9.00477e-05
0.40501
-0.00327726
0.131651
1.63352
0.452548
0.00011724
-0.0475276
1.11044e-05
-0.309034
-0.200183
1.37726
0.00144476
0.0699225
0.0261662
0.00177907
-0.0136184
-0.00178757
-0.0348991
-0.183439
-0.130336
0.0559463
0.756683
-0.0758004
0.0384973
-0.114851
-0.00933304
-0.14966
7.37875e-05
0.000286264
-0.0128246
0.167568
-0.122162
-0.0882721
-0.021108
0.0160681
-0.00511543
1.03806
-0.0732792
-1.33482e-05
-0.298997
1.28805
0.161899
-0.0680203
0.503519
4.02775e-05
-0.00390474
-0.159531
-0.000151861
-0.00256237
-9.44013e-05
1.74928
0.0516108
0.0212394
2.96274e-06
1.38646e-05
-9.62404e-06
-3.76869e-06
-0.128401
1.23578
-0.198268
-0.00248949
-0.000889182
-0.0253359
1.36162
-0.232113
1.29231
0.265054
0.57141
-0.000565875
1.34533
-0.0124607
-0.052093
0.192883
0.0628093
0.0688354
0.725688
-0.227859
1.3312
1.06864
-0.0432975
-0.143513
0.0805594
-0.161777
1.60556e-05
-0.00519916
0.0156473
0.334438
-0.035987
-0.128863
-0.0175075
1.58093
-0.244461
-0.000153827
-0.000134351
1.38759
-0.0272869
0.0214552
-0.0727674
-0.0124768
-0.0816233
-0.0527081
0.192602
0.577997
0.275309
-0.0543765
-0.0760334
0.000510165
-0.0314243
-0.00200397
-0.0433928
-0.000127944
0.000337954
-0.0550421
-0.106873
1.31959
-0.0113021
-0.000997676
-0.00800151
-0.00165469
1.22263
0.167126
-0.000157783
-0.121959
-0.0243826
-0.0185189
-0.146529
-0.176539
0.0369779
0.30453
-0.243089
0.000434407
0.0319458
-0.0729419
-3.80267e-05
-0.000302439
0.481534
0.385429
0.30925
-0.269238
-0.225694
0.00286237
1.45652
0.000495441
-0.0624247
1.25259
-0.0916512
-0.191249
2.13505e-05
0.000908118
-0.189007
-0.0499238
0.00738018
-0.177411
0.853339
1.08279
0.00362042
0.00144091
0.865677
-0.0663848
-4.1099e-05
-0.00753633
-0.149788
-0.10788
-0.042739
-0.00390405
0.939095
7.96476e-05
0.342426
1.00759
0.000217526
0.081502
-0.00226914
-0.215714
-0.0717249
-0.00340514
0.132832
0.00115435
0.850167
0.00728272
0.110884
0.221557
1.6151
1.15916
-0.288875
-0.0358228
2.1596e-05
0.385201
-0.0662233
0.640726
1.15149
-0.175848
0.0939673
-0.0784868
-0.0298255
0.565396
-0.000896637
1.3809
0.125278
0.000264007
0.000223497
0.000527007
-0.0596643
-0.0820756
0.00364273
0.458444
0.587234
-0.265702
0.00347912
0.000368827
-0.103326
-0.00016
-0.0128212
-0.0486433
-0.00242943
0.382706
0.0224452
-0.00603216
-0.0169986
-0.0702321
1.15837
1.18508
0.173767
-5.08948e-07
-0.0023751
0.888662
-0.00196497
-0.0959308
-0.000857534
-0.0868552
-0.285831
-0.0008342
-0.000968586
-0.135068
0.00671237
-0.000293569
-0.00572409
0.812588
-0.152805
-0.000127094
0.393977
1.15564
1.19754
0.00304777
-0.131371
-0.0408045
1.28245
-0.262234
-0.267636
0.0450414
-0.0566796
0.13065
-0.112329
1.1956
0.417657
-0.000710034
-0.237131
-0.330963
-0.0161108
-3.54236e-06
-0.00737398
0.758115
-0.000753731
0.0709736
-0.0168806
-0.005082
0.0398117
0.12276
-0.000739003
-0.0004975
-0.017289
-0.206235
-0.15152
-0.28072
0.846966
-0.00165357
-0.00112407
-0.145616
-0.10248
0.0456163
0.0578746
0.000382535
0.297024
0.570911
0.079976
0.107783
-0.00264576
-0.0575158
0.42602
0.00567389
-0.000129133
-0.0375066
-0.0172333
-0.00305801
-0.0455383
-0.00354815
1.03498
-0.0384363
-0.279612
-0.0995752
-0.0458774
0.0502988
1.41894
-0.192617
-0.000466899
1.33847
0.624169
0.0332303
-0.0250421
0.0323691
0.298742
0.593895
0.00154148
-0.00738688
1.62528
0.96901
1.13691
-0.187883
-0.00589789
-0.00518298
-0.000132006
-0.00542629
1.08028
0.332363
0.0479045
-0.00391855
-0.00143379
0.202189
1.52601
1.24487
0.322588
-0.0119484
-0.282813
-0.011076
-0.00302094
-0.0659844
0.0824076
-0.117456
-0.014925
0.00408549
-0.298195
-0.217098
0.12559
-0.103057
0.000649431
-0.111878
-0.000813594
-0.0288659
-0.00287565
1.16872
0.000246025
1.34543e-05
-0.0453015
-0.0844525
-0.123635
0.162387
0.000283606
-0.30891
0.299452
0.719504
1.71678
-0.0193079
-0.146391
0.13188
-0.0086655
0.458798
-0.00248365
0.0451524
-0.000762292
0.977098
0.113863
0.0455593
0.588991
0.451428
0.00654139
0.0162865
1.83927e-05
1.30903
8.07085e-06
-0.19623
0.00148016
0.00765567
0.688297
0.406771
-0.255113
-0.16835
-0.0166099
1.75929
-0.276658
2.20816e-05
-0.0650417
-0.000128494
-0.0346804
0.414215
0.714876
0.00385905
-0.149828
-0.0393467
0.561059
0.467713
-0.138113
1.59692
-0.0413088
0.000306062
-0.138732
1.63707
0.0122649
0.365683
-0.178132
0.6106
0.00802959
0.175939
-0.340096
0.0285842
0.225522
-0.0375018
0.846184
-0.110465
-0.0807691
-0.00327761
-0.00331219
1.45775
-3.09644e-06
-0.0188846
-0.00011836
-0.0337362
0.00154726
-0.029845
0.960075
9.62562e-06
-0.00423695
0.670773
-0.254235
-0.0842593
0.0050456
1.24137
-0.171254
0.636324
-0.0499123
0.585737
0.0332781
-0.00305925
0.18828
0.00336006
1.49244
-0.108292
-0.000439255
0.00958264
0.540427
-0.0469435
-0.00285479
-0.000487688
-0.230299
-0.010807
-0.0395803
-0.275024
1.18635e-05
-0.298576
0.00197586
1.13994
-0.0414007
0.566416
0.0206764
-0.0151633
0.97029
-0.151835
-0.123839
-0.0175926
-0.22714
0.995741
1.0511
-0.0587487
-8.47836e-05
-0.0645653
0.0196934
7.42113e-05
0.391276
1.20365
0.0530405
0.00672433
0.0625368
-0.30367
-0.000669697
0.361076
0.220015
0.33695
0.0559583
0.11693
-0.00157202
0.651375
0.151013
-0.257321
-0.00414875
0.11428
0.566016
0.00344004
-0.315156
0.783829
-0.129588
-0.317634
-0.336971
-0.12786
-0.138399
0.217883
0.780611
-0.214857
1.41791e-05
0.00403365
0.156023
-0.00742923
0.0747219
-4.09966e-06
-0.0239165
0.0168368
-0.0002668
0.232092
-0.00210403
0.467839
-0.131115
-0.0128757
-0.0287961
-0.0360953
-0.258685
-0.024696
-0.00400871
0.0888487
0.324026
0.02152
-0.141285
-0.0123384
0.127713
-0.0397642
-0.0811532
-0.328345
-0.067066
-0.000118819
-0.064134
1.33214
0.000153468
0.731161
-0.0615755
1.56918
0.202582
-0.203493
1.40244e-06
0.00720388
-0.306771
-7.09122e-05
-0.0113208
-1.54459e-05
-0.269807
0.0192458
-0.216033
-0.0979035
-0.000495847
0.941568
0.906057
-0.149426
0.00194206
-0.000685949
1.00438e-05
-0.000218294
1.46023
-0.00551672
0.00967662
0.0910809
0.00410173
-0.00244821
-0.336778
-0.000918865
0.210884
0.0221439
-0.00868665
-0.00303748
-0.110147
-0.175683
0.682361
0.503636
-0.000652405
-0.0552394
0.00237955
-0.0218689
-0.0017637
0.557559
-0.0226361
1.77335
-0.0329975
-0.00607739
0.303787
-0.0803172
1.1299
-0.178494
-0.0480181
-0.0550503
0.0767308
-0.0149759
5.0107e-05
-0.0349348
1.03606
-0.190853
-0.0137313
-0.180884
-0.116515
0.572098
-0.0020993
0.971127
0.0129695
-0.253577
-0.0022
0.0563199
0.19556
0.0159148
1.133
-0.00195065
0.136962
0.353019
0.00230527
-0.000517279
1.53808
0.332688
0.000702778
0.128162
0.124338
0.000597253
-0.0243888
-0.0931718
-0.263653
-0.0416877
1.0847
0.020095
0.796271
-0.00164292
1.2486
-0.311004
-0.0226223
0.0266478
0.131231
-0.236456
-0.113215
-0.0366381
0.000250276
1.6408
-0.0971311
0.00357374
0.0589904
-0.17232
1.14717
0.0129077
-0.06984
-0.000210319
0.473909
0.0345997
-0.166761
0.00354837
-0.0148357
-0.121622
0.000173444
-0.225526
-0.00657183
-0.063275
-0.27871
0.966054
-0.0437824
0.367524
-0.0779843
-0.126974
-6.18405e-05
0.000668648
-0.0157175
0.000180666
-0.0484058
0.366972
-0.0087366
2.77091e-05
1.48459
0.02166
0.00151668
-0.000137074
-0.00903013
1.11785
-0.234392
1.64148
0.686473
0.0970608
0.96181
-1.96234e-06
-0.0581479
-0.0035539
-0.0106018
0.711929
-0.0416239
1.66522
0.902036
-0.241609
0.919516
0.0413587
-0.0604998
0.00969911
-0.0599426
-0.0170875
-0.226305
-0.250054
-0.0129243
0.916376
-0.0424869
0.000640684
-0.0184609
-0.00283
-0.152485
-0.000676014
-0.00535261
-0.00010007
0.60608
-0.0889417
0.941132
0.125873
-0.0117473
-0.125143
-0.0843618
0.295381
-0.0132096
-0.00455177
-0.28983
-0.192327
0.0653316
-0.189476
-0.019402
0.0943183
0.0178301
0.000175008
0.545449
-0.000144843
0.233729
-0.00344212
1.59356e-05
0.00855695
-0.00285107
-0.0052518
-0.067557
0.722163
0.567783
-0.0870988
-0.0542261
0.012602
-0.0223426
-0.0442916
0.000480608
-0.00208728
0.0030498
0.449844
-0.0351761
-0.237427
-0.169758
-0.00792218
-0.071151
-0.0235337
-0.00740429
0.0231313
-0.0542012
0.868278
-0.262364
0.0297318
0.014318
-0.16029
1.62075
-0.0429678
-0.0130274
0.0337602
0.332713
0.0174701
0.0196138
0.920577
-0.00154964
0.193151
-0.0893282
-0.16922
0.0275029
-0.0159637
-0.0239964
0.175434
-0.0157028
-0.00265491
0.0202789
0.0114042
-0.000966307
0.177157
-0.0405186
-0.00879821
-2.75841e-06
0.611746
-0.000139401
-0.118877
0.322615
-0.0906047
0.000687316
0.444581
-0.114158
0.652655
-0.000165784
-0.0166873
0.564019
0.000796703
0.021564
-0.0195673
0.0453291
-0.0896942
-0.142264
-0.0334892
-0.0116394
0.0430012
0.0881363
0.647766
-0.000776329
0.461005
-0.176259
-0.014074
-0.030231
0.00177753
-0.16337
0.000344292
1.34342
0.859586
-0.00209419
-0.0908387
0.00124453
-0.00932595
-0.020049
-0.0368424
0.607261
0.73853
0.1735
0.0442636
-0.324724
0.173527
0.38504
0.454062
-0.225415
0.0911345
0.821864
-0.041389
1.21124
-0.00394461
-0.0475644
-0.191933
-0.000367864
-0.00320974
-0.000152043
1.2033
-0.0447795
0.00121842
-0.0667701
-0.0143173
-0.00136773
-0.0570121
1.02933
0.00456425
0.0479438
-0.109422
-0.00184771
-0.0198077
-0.00340919
1.68102
0.000943638
0.000129897
-0.00771183
-0.058618
0.606731
0.00240798
0.10415
0.32456
-0.000591351
0.00942752
-0.321891
0.507136
-0.0804482
5.56666e-06
0.00154938
0.104458
0.140022
1.05127
0.372685
-0.15246
6.2274e-06
-0.170454
-0.0112951
-0.0530664
-0.0512365
0.663318
1.30373
-0.000421371
0.571381
0.853304
-0.0417231
0.0308942
-0.0874043
-0.0263006
0.000503561
-0.174073
-0.0357724
-0.000403927
-0.00223777
-0.00665323
-0.00807172
-0.00281411
1.04048
1.13551
0.83802
-1.46223e-05
-0.100146
0.362355
0.423046
1.3589
-0.00204835
-0.0865928
-0.0791675
1.11495
-0.0812077
-0.0387613
0.104744
0.583425
0.0013492
-0.00196671
-0.0991495
-0.118604
0.627451
0.294471
-0.143813
-0.091628
0.639748
0.0904924
-0.199215
0.0299607
0.40633
0.700835
-0.00142414
-0.00256148
0.509314
0.000915663
0.247815
0.132637
1.3887e-06
1.09213
-0.0434592
-0.0188802
1.70221
-0.157514
-0.0265941
-0.160038
-0.00939003
1.29462
0.00504879
1.62165
-0.000524495
0.0415723
1.65973
0.0293557
1.29751
-0.024398
6.13195e-05
-0.0615439
1.34406
-0.00662191
-0.0281693
-0.0341447
-0.00419543
-0.0880811
1.32583
0.478271
5.66449e-05
0.089252
-0.0158144
0.127851
-0.00369406
0.0969356
-0.0111478
-0.00184811
1.26968
1.36374
1.27769
-0.221249
0.447107
0.000674794
-0.247505
0.959574
0.0821485
0.00109707
-0.155272
0.00257764
-0.00040439
1.34856
0.000573563
0.0182622
-0.00803853
-0.0366485
1.28626
1.33885
1.35735
0.0509807
0.00214856
0.780974
0.0323198
0.132569
-0.0385098
0.000322946
-0.0123781
-7.83488e-05
-0.0191361
-0.00308041
-0.0235167
-0.00021263
0.57054
0.00902325
-0.22664
-0.0376482
-0.308724
-0.0689269
-0.00319068
1.16014
-0.0455302
5.56703e-05
-9.23088e-05
1.60521
0.000137505
0.0485565
0.261436
-0.0760928
1.03739
-0.0219471
-0.18593
-0.155307
-0.00183154
0.000568164
0.875897
1.35458
-0.0064277
-0.0793417
-0.000935927
1.35504
1.56199
-0.00597677
-0.0264516
0.0812074
0.0136597
-0.10268
0.000348173
0.0430428
-0.157594
0.265067
1.18294
-0.00618277
0.119919
0.573754
0.348971
-0.189637
0.120284
1.52418
0.733031
-0.233736
1.3776
-0.00237046
1.35829
-0.0267678
1.17407
0.351191
-0.0211815
0.186054
0.010279
0.0742891
-0.317398
-0.00276115
-0.097956
1.19743
-0.107095
0.144632
-0.00608563
0.279428
0.717597
-0.038102
0.316698
0.00310787
-0.0148536
-0.100134
-0.0089747
0.00864147
-0.0370466
-0.00203888
0.0103194
1.17022
0.00986853
-0.06725
-0.237236
-0.12029
-0.275237
-0.260903
0.0178962
-3.69481e-06
3.58596e-05
0.912022
-0.174068
0.000281594
0.0153258
0.644948
-0.241822
-0.0619763
0.000521509
-0.00781976
-0.196576
0.60143
-0.0306613
-0.0019428
-0.196199
-0.0782298
1.65846
0.423187
0.295803
-0.187064
-5.45528e-06
-0.0279776
0.260074
-0.00145549
9.05584e-05
0.630539
0.410701
0.00265329
-0.0034819
0.0461475
-0.117426
0.0441964
0.0377708
-0.062611
0.000251102
1.06881
0.00254075
-0.00235397
-0.000908373
-0.000859039
-0.000586315
0.319596
0.00432532
-0.0115313
-0.0393866
-0.0176556
0.120631
-0.0221751
-0.173469
-0.0427764
1.26551
1.08623
-0.00195204
-0.00589294
0.398485
-0.00329137
-0.0729795
0.379865
0.565504
-0.00391394
0.084211
0.162788
0.00567719
0.518424
-0.000373516
0.0308618
0.0809169
0.0579089
-0.0584899
0.1933
0.000340081
0.00732338
0.00125986
-0.00015329
-0.00547001
-0.0395278
-0.0522287
-0.11768
0.359712
0.172559
0.037348
-0.218242
0.0561146
0.0429572
0.0540324
0.000271093
1.32178
-0.033213
-0.0131977
0.137454
1.67748
3.08248e-05
0.473119
4.64099e-05
0.046767
-0.0258637
-0.0850456
0.626966
-0.0160042
-9.41092e-06
0.804657
0.274621
-0.00217209
0.203749
-1.92204e-05
0.572693
0.0356437
-0.110679
-0.000519591
0.86126
0.114715
-0.0824438
0.0002001
0.595871
1.02291
-0.00444312
-7.69191e-05
-0.143055
-0.0360709
0.0720889
0.124023
1.3643
0.874512
0.00202316
1.13635
0.879945
-0.0112487
-0.231654
-0.108416
-0.0539728
-0.1746
0.707827
0.00340287
1.42086
0.57065
0.0504674
0.000453273
0.00263822
4.30462e-05
-0.00212817
-0.0109131
1.51648
6.8221e-05
0.29528
0.106569
-0.000845495
1.43475
1.56649
0.688252
0.77137
0.305316
0.00998047
-0.00106289
-0.0433488
-2.43821e-05
-0.00426408
-0.268
1.61877e-06
-0.00532852
1.45558
-0.0455884
-5.38514e-05
1.48754
0.00193114
-0.142847
-0.273083
-0.00506873
-0.235912
-0.000868429
0.678849
0.0133859
-0.0586347
0.00769629
-0.00243755
-0.00145433
-0.000815714
-0.296023
-0.236137
0.534913
0.0115488
0.0140316
0.831647
0.000332212
1.63076
-0.00185491
-0.355396
0.00901985
0.00647629
0.193484
0.205865
5.1734e-05
-0.01581
0.000466848
-0.0025676
0.00342872
0.311107
0.185299
1.03539
-0.108865
-0.0003459
0.000716673
0.356257
1.16357
-0.0173646
-0.0244541
1.6175
-0.0107565
-0.081072
0.00428796
0.387764
-0.0895213
-0.0331206
0.545385
0.00536096
-0.000887251
0.00654131
0.265572
1.62244
1.3114
-0.0948278
-0.116838
-0.0243509
0.00618733
0.000137863
0.278097
0.727752
5.95019e-05
-0.0282608
-4.98896e-05
0.000595246
1.26047
-3.11374e-07
-0.250145
-0.176602
-0.228146
0.262032
4.86302e-05
0.0393289
-0.0228041
1.18525
0.161466
0.0196624
-0.116841
0.00258166
1.15374
0.694654
0.0457447
0.265066
1.47323
-0.24349
-0.209976
-0.0073027
-0.0272003
-0.00135161
0.134462
-0.000174509
0.569558
0.0115703
0.73507
-0.127608
-1.291e-06
0.238664
-0.000584702
1.86957e-05
-0.00280199
1.59117
1.53553
1.09483
0.000264373
0.749955
1.34951
-0.00369732
0.0117614
-0.0327658
0.427106
1.3591
-0.107193
0.432595
-0.00909861
-0.260057
-0.294953
1.72478
-0.00226083
1.31769
0.321942
0.641856
0.00055324
0.000884485
0.0214288
-0.0344092
0.314878
-0.000158218
0.000297641
1.28923
-0.200833
0.00122591
1.34355
-0.00880129
0.000663555
1.16829
-0.021927
-0.00563677
0.346637
0.672261
0.0013002
-0.00043973
0.0141671
-0.0155852
1.28961
1.58549
0.988798
1.68289
0.642209
-0.182697
1.4832
-0.00024719
-0.0121213
0.701712
-0.012964
-0.00244574
-0.00034
1.34696
0.204894
-0.00242065
1.54609
0.27482
0.96166
0.166597
-0.0103977
-0.0787973
0.629184
0.293838
1.35786
-0.0813297
-0.00293767
1.25458
1.22848
0.0544871
1.04076
-0.138255
-0.0300648
-0.0341169
-0.00238798
-0.00047818
1.26305
-0.236316
0.273112
0.00436919
0.550574
-0.12374
-0.0339633
-0.0034599
-0.0120273
1.38832
-0.00299323
-0.0660118
-0.0113933
1.38387
-0.0715083
0.0765361
-0.0287255
0.00548072
0.528356
-0.0855166
1.40012
0.687722
1.68182
0.796304
-0.241691
0.11746
-0.00665682
0.127536
0.221321
1.30319
1.3784
1.50847
1.08234
1.27172
-0.00128317
1.44361
-8.12557e-05
0.000304483
-0.186746
1.54926
0.1854
0.846643
0.000104345
-0.00815466
0.107622
-0.116284
1.28025
-0.00253199
-0.0294546
1.09386
0.00403795
-0.0160262
1.63929
0.176308
-0.105247
-0.0212917
-0.00195118
0.467634
0.686773
1.70044
0.591967
0.382769
0.0178232
-0.000846413
0.0284906
0.640055
0.0309327
0.000542491
-0.0327246
0.770048
-0.00555412
1.33315
-0.222156
1.34154
0.0100667
-0.0857266
1.47527
-0.0202335
0.402918
-0.00146676
-0.0048966
-0.259366
-0.0861676
-0.142025
-0.0366438
0.115301
-0.0557203
-0.280676
1.34993
0.00109192
0.00299835
-0.0747506
0.437058
-0.106902
-0.228887
5.15381e-05
-0.0290316
0.178734
-0.000339056
-0.224208
0.344232
1.34553
-0.185962
1.34072
-0.0514926
0.496629
0.782682
-0.135661
1.0951
-0.00616216
0.486904
0.00829625
0.302133
0.658361
0.572226
-0.105778
0.0236235
-0.00230105
0.583662
-0.000272354
-0.000434649
-0.00386287
0.117434
0.0756557
0.0570856
1.17079
0.576383
1.6098
1.10172
-0.00568836
-0.127189
-0.000562561
-0.177014
-0.00384022
0.0219408
0.00249222
-0.105012
1.01236
1.30328
-0.00104356
9.76581e-05
0.363883
3.74844e-06
-0.0342101
-0.000613355
0.510164
-0.135788
0.603205
-0.236097
0.000195015
-0.0525119
-0.151014
-0.0804296
-0.0614649
-0.204954
0.303906
-0.000567848
-8.67255e-05
0.00791077
-0.000452131
0.337664
0.56061
0.152613
1.51675
0.169456
-0.24805
-0.344355
-0.0015687
0.18453
-0.000405999
1.27277
0.34208
1.44462
0.000592247
-0.122253
-0.0253884
0.193233
0.829141
1.20818
-0.0280307
0.154714
-0.00715091
-0.0621271
-0.0298092
-0.0226807
0.362818
0.00602018
-0.0219227
-0.0755329
0.929869
0.286241
2.17056e-05
-0.00322406
-0.0230753
-0.00220559
0.449946
-0.00242257
-0.0562539
0.55134
0.000325099
0.831873
0.000364358
-8.55429e-06
-0.287271
-0.0375864
0.000670043
-0.0840252
0.000726259
1.50183
0.0464725
-0.0922949
1.38369
0.422582
-0.119276
1.15351
-0.0101861
-0.00684146
-0.00765643
0.323798
1.78008
-0.00545235
-0.00210374
3.59552e-05
0.0292536
-0.00455279
0.0923182
0.0228661
-0.0787864
-0.224114
0.0690901
0.041722
-0.0687315
-0.00193063
0.138443
1.19477
-0.00655896
-0.0512743
-0.000803342
1.16816
0.211053
1.179
0.0016644
-0.00305263
-0.0865982
1.51436
0.481642
-0.105726
-0.000433956
0.117458
0.472936
0.0154612
0.673817
-0.183033
0.0808735
-0.250995
1.20427
-0.0506535
0.769813
-0.0116483
1.70802
-0.156266
-0.0408077
1.41138
-0.162719
0.534771
-0.272331
0.580326
0.0240027
0.182588
0.976064
0.179093
-0.184722
-0.0358845
-0.0270922
-0.0143988
0.146901
-0.00485838
-0.204062
-0.107345
0.00755965
-0.251513
-0.313818
-9.88019e-05
0.636541
-0.033685
0.683253
1.44551
1.11803
-0.206172
-0.266569
0.00179728
-0.160878
-0.0136019
1.65559
-0.132589
-0.114534
1.10114
0.170633
-0.142279
0.833691
-0.13933
-0.00223762
-0.0434577
0.0375146
0.00269561
1.14965
-0.00992993
0.460707
1.09912
-0.0212386
0.730837
-0.231547
-0.00132727
0.0250331
0.412003
1.10133
-0.00928067
0.340197
-0.253906
0.29409
-0.0849963
1.11637
0.102675
0.00443076
-0.00899739
0.000729108
1.33061
-0.00890926
-0.0661431
-0.000346075
0.647668
-0.000191751
-0.140561
0.00401409
-0.106355
0.00261046
-0.0356586
0.741496
-0.0142711
0.00347606
0.00252626
-0.0150576
0.329428
-0.000261795
-5.37343e-05
-0.0313892
-0.0389884
-0.081362
0.0301476
-0.00696805
0.265443
0.273495
-0.00460439
0.00381907
-0.000668282
1.31744
-0.015512
-0.0249773
1.18901
-0.0670533
1.12774
0.216999
1.33048
0.706974
0.397854
-0.00544356
0.041819
0.284222
0.0958231
-0.0160976
0.000746743
0.0312425
-0.182634
-0.00345108
-0.0306473
-0.029646
-0.0321829
-7.79413e-05
-0.0120209
0.000271205
-0.000241967
0.00326002
0.997655
0.729666
-0.0409929
-0.0103169
-0.171458
-0.0768305
0.918961
1.21479
-0.176366
0.0077046
0.653653
0.0298024
0.00229391
-0.277811
1.48768e-06
0.402644
0.534423
-0.00236579
-0.134188
0.000822133
-0.0288945
-0.0286339
0.393549
0.0921618
-0.198784
-0.000122738
0.0400605
0.00650436
-0.127319
0.0207444
1.34161
0.00146994
-0.014399
-0.119039
0.851819
0.985268
1.08537
0.23872
0.00023442
0.0246147
-0.00228856
-0.00514395
-0.00348535
0.325604
0.677779
-0.0446768
-0.0675612
1.00008
-0.015269
-0.0206923
-0.218671
0.370844
-0.0034945
0.307628
-0.0516798
0.355991
0.534083
-0.220855
0.00194856
-0.00996961
0.362617
0.00505172
-0.000214947
0.65465
-0.00143712
1.13118
0.999973
-0.329396
0.923511
0.143855
-0.0133525
-0.177178
1.079
-0.0753754
0.892368
0.185878
-0.00208429
0.132199
0.00475098
0.56758
0.551797
-0.00694763
0.352992
-0.0270183
0.0198831
0.948834
-0.00476349
-0.0027984
-0.000473902
-0.0338003
0.83329
-0.0213736
-0.0454258
-0.0197677
0.614426
1.49969
0.0025902
0.663558
0.583087
-0.00220266
-0.259882
0.101276
0.805714
-0.034924
-0.0613858
0.92705
0.941637
-0.0959865
0.905112
-0.262976
1.05303
0.510801
-0.262435
-6.77577e-05
-0.0262595
0.265403
-0.0639126
0.634666
-1.29374e-07
1.15222
-0.00557543
0.862174
0.00643275
-0.265679
0.823194
0.000241198
-0.000990027
-0.01992
-0.0125194
-0.157405
-0.00478757
0.184365
-0.114841
1.28291