/*--------------------------------*- C++ -*----------------------------------*\
  =========                 |
  \\      /  F ield         | OpenFOAM: The Open Source CFD Toolbox
   \\    /   O peration     | Website:  https://openfoam.org
    \\  /    A nd           | Version:  7
     \\/     M anipulation  |
\*---------------------------------------------------------------------------*/
FoamFile
{
    version     2.0;
    format      ascii;
    class       volScalarField;
    location    "37.5";
    object      p;
}
// * * * * * * * * * * * * * * * * * * * * * * * * * * * * * * * * * * * * * //

dimensions      [0 2 -2 0 0 0 0];

internalField   nonuniform List<scalar> 
20933
(
0.00148378
0.00164177
0.000527836
-7.01903e-05
-0.00278366
-0.00301459
-0.0906708
0.306373
-0.0381192
0.296851
-0.0878684
0.15705
-0.0228696
0.00133874
-0.000337153
-7.26018e-05
-0.0815278
0.168926
-0.0523368
0.00210813
-0.0358602
0.168328
0.297607
-0.114046
-0.00106277
0.53348
-0.0018732
-0.0214936
-0.150651
-0.0548655
-9.31055e-05
0.616451
0.274035
-0.0103544
-0.000507752
-0.000232237
0.344644
9.93943e-05
-0.00517258
0.137259
0.00260568
0.356701
0.428281
-0.00180027
0.533974
0.00525242
0.262415
0.0337148
0.000133147
-0.0179941
-0.000519904
0.0203463
-0.101213
-0.00115463
-0.124217
-0.00628556
-0.0121561
-0.000356092
-0.0174478
-0.0721351
0.564335
0.00161481
9.25188e-05
0.271784
0.000349316
-0.00213325
0.518745
-0.00216508
-0.0211384
0.530096
-0.0103134
-0.102708
-0.000285103
-0.0144964
0.521074
-0.029721
0.521133
-0.00486967
0.135715
0.48455
-0.00182386
-0.0016001
-0.148955
-0.0359078
0.00262976
0.43252
-0.0187376
0.675333
0.271069
0.559744
0.239325
-0.000137559
-9.3742e-05
0.649355
0.0165639
0.000480724
0.655152
-0.00103523
-0.076811
0.338176
0.56549
-0.00342686
0.574587
-0.0680824
0.0569508
-0.0266292
0.487338
-0.0424103
0.00492569
0.460181
-0.15921
-0.0906995
-0.00857529
-0.00381094
-0.0238639
-1.89984e-05
0.417948
-0.00183928
-0.0877365
0.47713
-0.00013396
-0.0418549
0.155779
-0.0220515
-0.0104125
0.169982
0.233044
-0.0207175
0.624471
0.4289
-0.0267968
-0.0162924
0.00280794
-0.00413639
0.491418
0.0483298
0.0787933
-0.039641
-0.00268837
-0.0461312
-0.0443308
-0.0159636
-0.123345
0.584015
0.0227788
0.498002
0.287833
-0.00228981
0.211864
-0.00217139
-0.00125856
0.522706
-8.63881e-05
-0.0303621
-0.00154151
0.293361
0.441204
-0.117682
-0.00613748
-0.0242456
-0.130083
-0.0834317
-0.000178147
0.0346789
0.104511
0.669047
-0.00261535
-0.136442
-0.0292767
0.337286
0.0649811
0.536915
0.442785
-0.00908718
0.694224
0.262457
0.000964057
0.550713
-0.0211534
0.480341
0.505953
9.37426e-05
0.580419
0.43979
0.00205576
-0.00738071
-0.00922532
0.321449
-0.0728644
0.628767
0.231458
-0.0416645
0.346718
-0.0149111
-0.00766031
0.14019
0.576873
-0.000760828
0.00140769
0.635708
0.0731616
-0.106105
-0.090879
0.61706
0.591709
-0.0105006
-0.0136024
0.0217319
-0.00663313
0.000819673
0.513885
0.547934
-0.00424114
-0.0155163
0.471027
0.520739
0.00234141
0.477253
-0.0348372
-0.00323995
-0.0215827
0.454523
0.602699
0.24185
0.456964
-0.00360515
-0.0128033
-2.1412e-05
0.00189527
-0.00209756
0.152354
-0.0612858
0.479432
-0.0439421
0.44524
-0.0178579
-0.0205709
0.533464
0.661194
0.447014
0.516329
-0.0143274
0.353793
-0.0209489
0.0649081
-0.00142214
-0.146035
-0.00488242
0.0204046
0.000123685
0.00487052
0.6077
0.151231
-0.00605636
-0.023574
-0.059846
-0.114009
0.363304
-0.0431257
0.00616569
-0.0255726
-0.00891577
0.000423734
-0.0169567
-0.0792749
0.58163
-0.0151192
-0.00781695
0.450268
0.588693
-0.0183441
-0.000375115
-0.0315023
0.519075
-0.16414
0.560745
-2.71716e-05
-0.017856
0.45717
0.507783
-0.0266994
-0.010825
0.628312
-0.0814153
-0.0441482
0.571323
0.624705
-0.0205357
0.467034
0.0845233
0.479652
0.394504
-0.000373306
-0.0255326
0.348693
0.0010181
-0.0557739
0.0228618
-0.166586
0.0678704
0.0187237
-6.50735e-05
-0.000702245
0.559374
-0.00363987
-0.0708969
-0.028783
0.175568
0.000624839
0.477851
0.0669529
-0.0272366
-0.0063502
0.319625
0.156217
-5.96082e-05
0.555143
0.433493
0.545541
-0.111993
0.000366932
0.622345
-0.000758167
-0.0172675
0.14283
0.00818248
-0.0180947
-0.093518
0.44417
0.648738
0.50692
0.109993
0.702506
-4.67847e-05
-0.00883067
0.508025
-0.132958
0.344513
-0.0133518
0.52819
0.0619854
-0.000822922
0.0601254
0.414831
-0.122865
0.57218
0.4162
0.000208875
-0.00149744
0.277598
0.181432
0.00291718
0.436664
-0.0154425
0.691934
-0.0431283
-0.00320224
0.00391868
0.502755
0.431036
-0.000243949
0.319319
0.557989
-0.00380001
0.388711
0.430011
0.694908
-0.000482135
0.199984
-0.00667283
-0.00945895
0.000183372
0.526495
0.362132
-0.0156258
0.539783
0.124653
-0.0113555
0.348241
0.107439
0.157985
0.693562
-0.0357002
0.116342
0.545292
-0.0235909
0.0645411
-0.0781017
0.266795
0.00572222
0.247573
-0.0145304
0.110466
-0.00150658
0.267867
0.540711
0.399671
-0.150917
-0.00835456
0.610232
0.611637
-0.0014411
-0.0165614
0.47963
-0.0665477
-0.0269575
0.364863
0.00342322
0.721266
-0.0218107
0.22051
-0.00171625
0.544771
0.411609
0.0246178
-0.0361266
-0.0437377
0.0735664
-0.00113912
0.478301
-0.102469
0.281167
0.684109
-0.113944
-0.022313
-0.00218027
0.0423961
-0.0137485
-0.00786489
0.383402
-0.000400967
-0.0156615
-0.00314141
-0.068342
-0.0160187
0.000115116
-0.025275
0.128288
-0.135373
-0.023441
-0.011329
0.0339907
0.0295693
-0.0203111
-0.00103735
-0.00154221
-0.0207294
-0.0737906
-0.00212468
-0.0233709
0.161663
0.391702
0.0431305
0.000245755
0.642269
-0.00201566
-0.000394642
0.00205259
-0.0156836
-0.0294743
0.586858
-0.0168765
0.0910195
-0.0623912
-0.0677658
0.354134
-0.0176608
-0.0288943
-0.0521812
0.000152721
-0.062149
0.651936
-0.109422
-0.0223567
0.382148
-0.0213903
0.391559
0.217072
-0.000800151
0.000800618
0.436289
0.675823
-0.111143
0.27482
0.116301
-0.0167877
-0.0178244
0.478334
0.0452875
-0.145325
-0.0757442
0.00420622
0.011449
0.607863
0.129795
-8.61381e-05
0.577231
-0.020137
-0.0338479
0.448442
-0.00432191
-0.00155142
0.000150946
-0.0229037
-0.00730093
-3.35615e-05
0.268354
-0.162058
0.482087
0.000418465
-0.00116706
-0.0217181
-7.2966e-06
-0.114158
-0.142352
-0.00110391
-0.0284005
-0.00942088
0.439728
0.546175
-0.000523373
-0.00105931
-0.0420372
0.552897
-0.00986244
0.553434
-0.00247599
0.68417
0.402319
0.228513
0.661368
-0.0925905
0.000702497
-0.00585765
-0.00936626
0.540863
0.475026
-0.00214823
-0.135332
0.052922
-0.0308044
0.0019518
-0.149578
-4.27746e-05
0.447259
-0.00485085
-0.0256231
-0.00930546
-0.0222126
0.224158
0.0528706
0.00180758
-0.0149159
-1.72914e-06
0.683491
0.601777
0.00107335
-0.00402513
-0.00618748
0.473012
-0.0111167
0.118271
-0.0197392
0.513511
0.226203
-0.00831809
0.71399
0.00790112
0.499065
-0.00342871
-0.0781646
0.570037
-0.0125778
0.685281
0.458501
0.695227
0.000539918
0.00209283
-0.0393132
0.00345902
-0.00361992
-0.0343603
0.500907
0.521605
0.397184
0.547367
0.679676
0.281494
0.541419
0.400015
-0.00490342
0.442692
-0.0268381
-0.0199883
6.63963e-05
-0.0310216
-0.0976833
0.320861
0.0303621
0.483879
-0.0191673
0.0754102
0.465732
-0.00906202
-0.0344202
-1.37513e-05
-0.0002513
0.319944
-0.0288539
-0.0181493
-0.000293894
-0.000674453
0.0446335
0.000263782
0.0148838
0.685352
0.287945
0.279505
-0.00172102
0.473666
0.0532497
-0.00926672
-0.00430997
-0.000218196
0.000180507
-0.00169302
-0.00931033
-0.0803725
0.32469
-0.0202667
0.00133242
4.51946e-06
0.505892
-0.0510488
-0.115242
-0.01281
0.0918267
-0.035604
0.00362643
0.465954
0.628067
0.41524
0.0044483
0.422276
-0.000207795
-0.0173922
0.31016
-9.16458e-05
-0.00960376
0.207379
0.275975
-0.00815102
0.466207
0.596654
0.454258
-0.0159779
-0.00455537
-0.0172763
0.111723
0.430895
0.000816948
0.568484
-0.0180393
-0.0798901
0.00307176
0.650317
0.327732
0.480424
-0.14651
0.666366
-0.00710421
-0.0171292
0.700989
0.0169353
-0.0676014
0.491663
0.513339
-0.0151011
0.424728
0.552997
0.508752
0.463466
0.500293
0.404462
-0.000273406
-0.00755602
-0.00217486
-0.0686272
0.540049
-0.0636328
0.165186
0.175446
-0.0199621
0.0239332
0.199981
0.549679
0.0291165
-0.000814029
0.0144768
-0.0206291
-0.084086
-0.101717
-0.0714066
0.458054
0.571383
0.0201019
0.54572
0.67987
0.00204893
-0.00117578
-0.00105622
-0.00123172
0.359718
0.686093
0.135623
0.474033
-0.0078387
0.403547
0.415581
-0.130681
-0.00547047
-0.0134334
0.160957
-0.0142775
-0.00947506
-0.0161729
-0.0168707
0.483374
0.000721397
-0.0208808
0.514153
0.0188622
0.625927
-0.0403123
0.392969
-0.0987063
-0.0299969
0.565944
0.623971
0.539771
-0.0109855
0.629428
-0.0143945
0.56444
-0.00547227
0.537352
-0.0188672
-5.45524e-05
0.53905
0.569984
0.565496
0.53913
0.320216
0.0707806
0.373395
-0.0661111
0.538652
0.46208
-0.0473399
0.0326088
-0.000664062
-0.0888382
0.470368
-0.0130709
-0.000227221
0.550063
0.546619
-0.0250515
0.531349
-0.0824947
0.0765721
0.00416498
0.55712
0.567024
0.679724
0.559025
0.00116654
-0.00883605
0.000117652
-0.0319238
0.621171
0.257876
0.460262
-0.0153241
0.402307
-0.00498205
0.62376
-0.0442367
0.548473
0.00361313
0.606327
0.637443
-0.00885927
0.11223
0.601662
0.00143749
0.647316
-0.0248578
0.00177202
-0.00528319
0.50464
0.200112
-0.0487345
0.538715
0.652281
0.412298
0.00868519
-0.0266941
-0.0136073
0.545549
0.633036
0.706821
0.249237
-0.00253109
0.00516767
0.468386
-0.00231239
0.000240243
-0.00296659
-0.0100655
-0.0833568
-0.123524
0.580687
-0.0151025
7.59773e-05
0.449872
0.237003
-0.00361328
0.132266
-0.000944181
0.198965
0.458586
0.535711
-0.109206
0.137968
-0.00350793
-0.0458148
0.000689293
0.549669
0.585436
-0.14955
-0.138859
-0.121834
-0.0363367
0.541698
-0.0286609
-0.0827421
-0.0941634
-0.0330657
0.662124
-0.115894
0.000424758
0.55216
0.00183134
0.0740137
-0.023945
-0.0873468
0.0010322
-0.000782701
0.659336
0.383708
-0.150981
-0.0496484
0.400242
0.523933
0.458966
-0.0909325
-0.0184394
-0.017342
-0.0188205
0.435955
-0.000438679
-0.0274998
0.000145951
-0.00732091
0.000671698
-0.0971665
0.507756
-0.0736011
0.552222
0.539631
-0.0188203
-0.0100985
0.674789
0.410868
0.00772343
-0.0114364
0.400489
-0.0241623
0.353736
0.659889
0.347754
-0.00116658
-0.0131052
0.493703
-0.0223886
-0.0627384
-0.0288441
0.594979
-0.0154158
-0.0606373
0.390082
0.291173
0.447939
-0.0217387
0.328155
-0.0319313
0.551083
-0.0985829
0.186273
-0.0327255
-0.0331042
0.000117053
0.000715312
-0.000604756
0.597335
-0.0413078
0.387636
0.0651369
-0.0559315
-0.0753195
0.268887
0.680173
0.614265
-0.0649018
0.243776
-0.0196761
0.0360237
0.000496718
0.173067
-0.01568
-0.00193824
0.430775
-0.0300009
-0.00249538
0.588376
0.483587
0.565671
0.0101912
-0.0893756
-0.00802159
0.259553
-0.0217296
-0.000122607
0.59744
0.0995021
0.228055
-0.0467183
0.000140715
-0.00784144
-0.000985699
0.211266
-0.000462545
-0.0154953
-0.0114653
-0.0216376
0.615922
1.60599e-05
-0.0310307
-0.0066008
0.636652
-0.00109004
-7.1746e-06
-0.103672
0.15784
0.446754
-0.00885656
-0.00851141
-0.0210302
0.459363
-0.0126467
0.242236
-0.121278
-0.117122
0.106581
0.434981
0.0858661
0.238496
0.001259
0.481637
0.642778
-0.00352921
0.372749
-0.0390105
0.656091
0.630369
-0.0804415
0.0427667
0.0106884
0.380388
-0.000244195
0.537447
0.692661
0.000700298
0.162029
0.297345
-0.0010478
-0.000499414
-0.00440995
0.681199
-0.0104375
-0.0339497
0.545859
-0.00382722
0.371601
0.56016
-0.0138501
0.606064
-0.0176954
-0.0108342
0.563684
0.253392
0.447284
0.00140227
0.566336
0.206991
0.534969
-0.0565929
-0.0077409
0.168374
0.598482
0.563125
0.610588
0.544971
-0.0920905
-0.00777489
-0.015895
0.404192
0.535906
0.639464
-0.0164825
0.310812
0.649808
0.508224
-0.00104905
-0.0127001
-0.00359413
0.152679
-0.053431
0.581392
0.267213
0.533295
0.112377
-0.0378731
0.536958
-0.056773
0.416177
-0.088265
0.0290075
-0.0120028
-0.0807079
-0.0537419
0.633762
-0.0490286
-0.0169072
-0.0647669
0.214996
0.0531188
-0.0150396
0.0283951
-0.0186948
-0.0625026
0.431519
0.228061
0.473058
-0.131484
0.555485
-0.0697722
-0.000696219
-0.00896435
-0.0172059
-0.111565
-0.127987
-0.00464304
0.30629
0.615133
0.183052
0.0446439
-0.032459
-0.0577002
0.367272
-0.0249737
0.654422
0.315282
-0.00379748
-0.0105552
-0.00887869
-0.0735106
-0.0155542
-0.0252773
-0.0252205
-0.090684
0.297084
0.624675
0.576455
0.258045
0.00194599
-0.0163284
0.000965616
-0.00738932
0.440643
0.00412963
0.420881
-0.0632621
-0.00938803
0.620806
0.634078
-0.000876788
0.543542
0.574114
0.140053
-0.0155358
0.200925
0.438403
0.631926
0.360227
-0.070232
0.6178
0.0878743
-0.0340459
-0.0373396
-0.0803603
0.646786
-0.0219573
0.553664
0.326434
0.613504
-0.0445575
0.38101
0.394298
-0.0817239
0.564339
-0.0252364
0.596147
-0.000441
0.351577
0.419559
0.41622
-0.00225947
-0.0299724
-0.00113194
-0.018879
0.33059
-0.014801
0.384645
0.359913
0.685086
-0.019382
0.600366
-0.0169669
-0.0159269
0.016284
0.542677
0.0908604
-0.0561272
0.0430037
0.469195
-0.0051256
0.671073
-0.00347422
-0.0716503
0.0619398
-0.00463626
0.546616
-0.0397131
0.57876
0.461402
0.14828
0.0167456
0.174406
-0.000821123
0.00666377
0.590922
-0.0301697
-0.0539069
0.337228
0.0469133
-0.00928587
0.0173747
-0.00333685
0.614907
-0.0142969
0.0117798
-0.0765717
-0.0148249
0.533294
0.687904
-0.0099756
-0.0618597
-0.00254912
0.0837945
-0.000891816
0.130824
0.635015
0.608797
-0.0209978
0.191425
-0.000263951
-0.0177348
0.489487
-0.0136021
0.258047
-0.00749362
0.674627
0.470715
-0.0742076
-0.0164527
-0.0271123
0.672149
-0.0160445
-0.000510369
0.00241172
0.142228
-0.070813
-0.00387265
0.110314
0.615043
-0.0868875
0.65021
0.707693
-0.0150703
-0.0536224
-0.000623937
0.00135784
-0.0524648
-0.0280848
0.665434
-0.00757989
0.0022477
0.420628
-0.0510222
0.464427
0.00268353
-0.0489263
0.459729
0.428721
-0.0704679
-0.0189166
-0.0563354
0.512203
-0.0149592
0.283445
-0.017694
-0.00756851
-0.0169883
-0.00839184
-0.00250791
-0.0924861
-0.0892625
-0.110463
-0.00184848
0.117325
-2.39874e-06
-0.0152442
-0.0606798
-0.00929025
-0.0282338
0.617754
0.0259791
-0.0210351
-0.0162123
0.499839
0.000813561
0.436085
-0.0739546
0.00521995
0.00381197
0.459294
0.290241
-0.0185888
-0.0304549
-0.030917
0.36628
-0.000313242
0.425231
0.506172
-0.0104149
-0.0508526
0.134684
0.135784
-0.0612403
0.148873
0.478516
-0.00652055
0.405746
-0.0199107
-0.00155337
0.388348
0.637189
-0.000136466
-0.00511962
0.532919
0.39769
-0.00855173
-0.0327715
-0.106926
0.00611158
-0.00626067
6.60576e-05
0.494762
-0.12547
-0.0558232
0.496008
-0.0680043
-0.0185526
0.282129
0.000872839
0.182174
0.421018
-0.0283555
0.421446
-0.00819267
0.606547
-0.0709624
-0.000300978
0.000117392
-0.0206897
-0.000617022
-0.0085563
0.184022
-0.0489249
-0.00422417
-0.0257705
-0.0101511
0.245892
0.547069
0.000480678
-0.00609714
-0.0163181
0.392718
-0.0543139
-0.0107793
-0.00599028
0.0686971
0.287281
-0.0108081
-0.00127857
-0.0812648
0.45842
0.495363
0.134773
0.431544
0.571574
-0.0102316
0.397332
0.136653
-0.00267608
-0.00709602
-0.015147
0.694549
-0.0132983
-0.0795303
-0.0139844
0.455977
-0.00149403
-0.00173529
-0.0158727
-0.0181617
0.000661533
0.548424
0.316948
0.403939
0.503472
0.434615
0.00210183
0.172494
0.345052
-0.00696831
0.536385
0.230959
0.332042
1.64605e-05
0.351476
-0.0369869
0.215812
0.344626
-0.0853071
0.0928721
0.0678052
-0.0130718
-0.000156775
-0.00216287
0.199526
0.623873
0.219485
-7.66644e-05
0.307475
-0.00638057
0.345968
0.253726
-0.000878831
-0.0137411
0.387591
0.547685
0.11395
-0.0113958
-0.00575577
0.233545
0.406317
-0.0113105
0.487628
-0.00874131
0.177479
-0.0236814
0.583057
-0.000265636
-0.00110316
-0.00113272
-0.00506135
-0.0983896
0.00204239
0.40915
0.498139
-0.0020095
0.290845
-0.00243315
-0.00025439
2.51505e-05
0.244436
-0.00859509
0.295052
4.5394e-05
0.416371
-0.00536119
0.477454
-0.124021
0.514851
-0.0139687
-0.00190255
0.000696798
0.553376
-0.0186327
0.0433323
0.15343
-0.00153557
0.471582
-0.0013035
-0.0120265
-0.00478223
0.000482595
0.551747
-0.00115193
-0.00654671
-0.00652588
-2.25514e-05
0.000111939
0.483808
-0.000666208
-0.01185
-0.00318036
-0.000895168
0.44652
-0.138603
0.0338596
-0.0420214
-0.00106797
-0.0102428
-0.0750285
-0.0033405
-0.00130559
-0.000914928
0.269041
-0.000335922
-0.00151982
-0.0766806
0.162171
0.535189
0.00305467
-0.00193388
-0.00445587
-0.0256538
0.432235
0.489319
0.554669
5.65266e-05
0.212072
-0.0128287
-0.0101496
0.316393
-0.0146612
-0.000323553
0.0010326
-0.00534473
-0.00602835
-0.00611795
-0.000680108
-0.00247951
0.00215586
0.411984
-0.00136143
0.305224
0.0751045
0.0414488
0.243546
0.151521
0.357182
0.0136275
0.401602
-0.000870874
-0.011372
0.373638
-0.0245563
0.439403
0.418382
-0.0119156
-0.00953851
-0.000347478
-0.00283027
-0.0333288
0.000294262
0.000969444
-0.0022709
0.0009834
-0.00321498
-0.0143805
0.000101234
-0.000403657
-0.0154931
0.35798
-0.00259793
0.00116673
-0.00712599
-0.00432639
-0.00384703
0.487553
0.469887
0.234805
0.590942
-0.00972837
-0.0567878
-0.00381542
-0.00295595
-0.00245659
4.22979e-05
3.41691e-05
0.222809
0.107188
7.1039e-05
-0.0960705
0.114366
0.235565
-0.03516
0.00289798
-0.0105363
-0.00193082
-0.00118459
-0.00175886
-0.00412033
-0.03115
0.602853
-0.00333482
-0.0305738
-0.00549191
-0.0148729
0.00222843
0.00512774
-0.000878858
0.000877201
-0.0119113
-0.00312137
-0.0330385
0.063774
-0.00188132
0.288234
-0.00143315
0.000952319
-0.0581403
0.437064
0.457262
0.343293
0.00427479
-0.102604
-0.0330399
-0.114913
-0.020151
-0.114641
-0.0107914
-0.108689
0.00274917
-0.00779495
5.6745e-06
0.0595121
0.00223607
0.000704045
-0.0143638
0.627987
-0.0101899
-0.101758
0.593443
0.609461
0.00199575
0.597846
0.566719
0.443283
-0.00329781
-0.144899
0.610726
0.000765513
-6.93591e-05
-0.00932268
-0.00432098
-0.000380846
-0.0264734
-0.00467192
-0.00217258
0.00131118
-0.0183193
0.000458628
-0.0346541
-0.00106235
0.672811
0.00234121
0.00213436
0.669972
0.000264128
0.638356
0.604644
0.40933
0.00146176
0.673135
0.0640049
0.51914
-0.00764342
-0.000446011
-0.00799745
-0.0193363
0.0325032
0.543419
0.000812219
-0.000618481
-0.00386735
7.32691e-05
-0.146389
0.230822
0.00010534
0.433762
-0.0370031
-0.00129416
-0.0147681
0.00179157
0.144559
-0.000208718
0.610435
-0.00114843
0.567858
-0.00188291
-0.00740952
0.00011522
-0.00043228
-0.00761625
-0.00192043
0.507212
0.540633
5.83268e-05
0.611469
-0.0154128
-0.00192681
-0.020845
0.574765
-0.136196
0.000603885
-0.00013857
-0.00125507
-0.000727131
0.000220484
-0.000464167
0.616707
0.000426772
0.000740389
-0.0186628
0.65699
0.708263
0.00283988
-0.0170667
0.445874
0.663959
-0.0208192
-0.00228684
5.94794e-06
0.0017943
0.553299
0.436172
-0.00105316
-0.000121322
-0.0118971
0.583522
-0.0787049
-0.0077304
-0.00425126
-0.00224076
-0.0216049
0.467745
0.000185232
0.597712
0.00055084
0.6442
-0.000679799
0.609625
0.000564061
0.0536076
-0.0165515
6.29428e-05
-0.000773923
-0.00121346
-0.00327982
-0.00703814
-0.000728973
-0.00279076
0.00130025
-0.0123878
-0.000739316
-0.00117456
-0.00113983
-0.00211291
0.0940591
-0.000592179
0.433833
-0.00182891
-0.0118013
-0.00371717
-0.110595
0.665298
-0.000632163
-0.00193612
-0.00269822
-0.012676
0.00200061
0.41476
0.461988
-0.00226113
0.000715845
-0.0622162
0.122488
0.598929
-0.00696033
0.404627
0.483433
6.36495e-05
-0.0195579
0.0030281
-0.00123074
0.000796013
0.000580084
-0.000989708
0.00189376
-0.000521649
-0.0036941
-0.0134552
-0.00278916
0.240967
-0.0753388
0.432539
0.0973197
-0.081402
6.53382e-05
-0.000716893
0.549643
-0.000916377
-0.012519
0.000534438
-0.00499826
-0.00439083
0.33306
0.0464153
0.620623
-0.000510066
-0.00124112
-0.00154161
0.271688
-0.0016431
0.592975
0.102325
0.00118178
0.00430953
-0.0548023
0.000961427
0.407288
0.024369
0.554807
-0.0100133
-2.31522e-05
-0.000327297
-0.00205444
-0.000230398
-4.46881e-05
0.000942329
-0.00650291
-0.00393304
-0.0089605
0.000110059
-0.0102681
-0.0708124
-1.36327e-05
0.000211612
-0.00184468
-0.0006569
-1.13846e-05
-0.00418129
0.0091455
-0.000921548
0.0399526
0.0018033
0.444124
-0.0075339
-0.049697
3.56918e-05
-0.0463234
-0.0226418
-0.0179432
-0.000828436
4.33964e-05
-0.000394083
0.000158942
-0.0568416
-0.0193262
0.114122
-0.104857
-0.000510409
0.0404656
-0.104949
0.478936
0.358381
0.445883
0.00122715
4.14377e-05
0.000452288
0.00195545
0.572234
0.417927
-0.00103803
-0.0023893
0.29424
0.419269
0.629058
-0.000412572
0.000424298
-0.00357929
2.38701e-05
-0.000400122
0.00013616
-0.00307123
-0.00142677
0.442538
-0.0218147
-0.00068218
-0.00180766
-0.00103352
-0.0362557
-0.00190494
0.282477
-0.00119423
0.156364
-0.0186941
-0.00273165
0.176603
0.117928
-0.000420821
0.188838
0.594444
-0.0133001
0.457445
-0.000484837
0.00197368
0.49545
-0.00115205
0.421171
0.000628738
-0.0354494
-0.0651484
0.00165066
-0.000149837
-0.000866552
-5.3038e-05
0.00444975
4.9054e-05
-0.00117592
-0.00122407
0.602941
-0.0288034
-0.00193676
0.432671
2.70176e-05
-0.000622426
-0.0148254
-0.000741203
0.591485
0.000689686
-0.000737573
-0.000598028
0.0970382
-0.0195469
-0.000975093
0.000502201
0.0403094
-0.00372501
-0.000519787
0.538369
0.652895
-0.00183596
-0.0209141
-0.00142253
0.466681
-6.81291e-06
0.00105139
6.67911e-05
3.31469e-05
-0.0594267
-0.00226042
-0.00089804
-0.118395
-0.000558899
-0.0642486
0.000426633
-8.84116e-05
-0.00167139
0.500841
0.528399
-0.0135922
0.39451
0.0338404
9.52098e-05
0.423778
-0.00590482
-0.00117882
-0.00238898
-0.073135
-0.000179508
-0.015697
0.000712364
-0.0284623
0.187545
-0.00226718
-0.0016737
0.126751
0.334155
0.135004
-5.37855e-05
5.31199e-06
0.00314619
0.259223
-0.00193191
-0.0593824
0.000377759
0.419267
-0.139256
0.501406
0.337398
0.00378565
0.178387
0.000478967
0.438145
-0.0144521
-0.0148072
0.000111904
-0.000909039
0.00473986
0.00515452
0.00392951
0.00459154
0.134406
0.00393987
0.28087
-0.000644819
-0.00178315
0.000477785
0.0607297
-0.0163952
-0.00431166
-1.30112e-05
-0.0160835
0.251686
0.00587126
-0.0154806
-0.0140623
0.0514617
-0.0131321
-0.00024882
-0.000683943
0.482677
0.520328
0.543451
-0.000424524
0.522373
0.472086
0.526667
0.00139875
0.000404063
-0.000432864
0.298451
0.37814
-0.0775465
-0.0130558
0.0054572
-0.00446561
0.0513503
0.00521066
0.00364228
0.401668
-0.00118487
0.00375246
0.000189861
0.00592339
0.525831
-0.0239082
-0.000633693
3.99798e-05
0.576529
0.467198
-0.0357192
0.24157
0.00476202
-0.0448101
0.00485651
-0.0533326
-0.0616008
-0.0657485
0.22199
0.00430885
0.0981058
-0.000234657
0.508992
-0.0170901
-0.00466399
0.446898
-0.00196858
-0.00440217
0.00719062
-0.0759418
0.154222
-0.0119258
0.000381666
0.408271
-0.000551027
-0.00539457
0.0369502
-0.000123935
0.00225967
-0.00107627
-0.00239029
0.00577255
0.0253039
0.000413523
0.0148911
-0.0143913
0.00750071
0.00131667
-0.000562227
-0.000389372
-0.00243667
-0.00125527
0.00490388
0.00479253
0.329603
0.00579201
0.00356495
9.30377e-05
-0.00719324
-0.020839
3.69133e-05
0.325466
0.49667
-0.00358801
0.00071846
0.000403476
0.00398148
0.000329471
-0.00730188
0.00166471
0.0302712
-8.55289e-05
-0.00346805
-0.00406627
0.00610194
-0.000835519
-5.44529e-05
0.31422
0.00147533
0.07274
0.358576
-0.0204621
-0.0147744
0.00615381
0.000231541
0.055754
-0.0010725
0.00527534
0.0381846
0.178298
-2.44993e-05
0.0215901
0.219827
1.65289e-05
0.132372
-0.00117335
-0.0226403
0.405079
0.000296694
-0.000240857
-0.000327761
0.370633
-0.132313
-0.017179
0.00584237
0.00101411
0.00400662
-0.00679498
4.26746e-05
0.107395
0.551861
0.615277
0.448014
-3.61165e-06
0.312251
0.0909892
-0.00205846
0.00617042
0.307205
-0.0059909
-0.154874
2.27015e-05
0.0042223
0.416826
8.38702e-05
-0.0611575
-0.00204623
-0.0474753
-0.000644411
0.455437
-0.00989321
0.442793
-0.00302144
0.00656286
-0.0108536
0.000625157
0.388516
-0.00537855
0.00338998
3.5451e-06
-0.0869918
0.006321
0.15767
-0.00460023
-0.000756783
0.196287
2.29164e-05
0.283663
0.137101
-0.000610484
0.293391
-0.0444007
-3.30595e-05
-0.00294369
0.000607975
-0.000979189
-0.00849615
0.351639
-0.0153337
-0.0012669
-0.0439166
0.00160219
0.371313
0.526762
-0.000509775
-0.00753714
0.00271923
-0.000157203
0.391951
-0.00506748
-0.000717997
0.260448
0.137054
0.445614
-0.0065725
-0.000768626
0.305914
-0.0050332
0.00176304
-0.000968375
0.558791
-0.0312774
-0.00366616
-0.000859125
-0.00176702
0.554739
-0.0091426
0.635814
0.177223
-0.00286509
0.000788253
-0.0202964
-0.0339556
-0.000249606
-0.0055454
0.547227
-2.43166e-05
-0.018978
0.555077
0.000550438
-0.00654081
-0.000288015
0.000764183
-0.000291432
0.0180761
-0.0100208
0.000915897
-0.0897052
-9.02827e-05
-0.000222183
-0.000193648
4.27143e-05
-0.0238248
-0.000222965
0.00104582
-0.028649
-0.0149406
0.633226
0.0333984
-0.00703304
0.00246926
-4.23169e-05
-0.00506772
-0.000154631
0.122691
0.428838
0.000722776
-0.022549
-0.00666369
0.0669054
-0.00256843
0.664701
-0.00153706
0.00122018
0.285598
-0.00279553
-0.000231789
-0.012474
0.429511
0.00069422
0.413681
0.438159
-0.00509319
-0.0139641
0.511238
-0.00470894
0.00148803
-0.0105351
0.318414
0.123056
-0.0226465
6.57685e-05
0.532948
0.000907218
-0.00336498
0.00285471
0.0017902
0.60817
-0.00158034
-0.000122318
-0.00370593
0.236641
0.637891
0.424412
0.674181
0.000244845
0.596377
9.27208e-05
0.332858
0.00220536
0.000525847
0.182888
-0.0121697
0.108449
-0.000267464
-0.0168734
0.643262
-0.0113352
-0.050402
-0.00197572
0.00112922
0.179072
-0.00175082
-0.00801759
-0.000221182
-0.0195367
0.000202387
0.650667
-0.000168964
-0.00170328
0.0712565
-0.0933511
0.171659
0.407244
-0.000328667
-0.0972613
0.230125
0.459701
0.665573
3.48337e-05
-0.107941
-0.0974967
0.00135111
0.261393
0.292341
-0.104487
0.559396
0.126728
0.206436
-0.00121021
0.407418
-0.00100925
-0.000493545
-0.000125707
-0.000231811
0.00059247
-0.00151575
0.000621717
-0.000114981
-0.000842857
-0.00236025
0.000113709
0.283165
-0.038893
1.61779e-05
0.648885
-0.000498884
7.81356e-06
0.526047
0.665935
-0.00573808
-0.0105653
0.506089
0.000567226
0.588178
0.0564673
0.000105194
-0.0522357
-0.0253615
-0.00259946
-0.000721989
0.429133
-3.45313e-05
-0.000366702
0.567322
0.000649304
-0.00229002
-0.0359019
-5.42022e-05
-0.00121891
-0.000344191
0.0493331
0.00051974
-0.000232657
-0.0042241
0.00115254
0.309479
9.44286e-05
6.24434e-05
0.00105838
0.549186
0.00044183
0.00144059
0.000137554
-0.00178785
0.531912
-0.00210401
0.128863
0.507982
0.000606495
0.612384
0.488818
0.00328332
-0.0526469
-0.000480032
-0.000194313
0.588388
-0.00301112
0.000770636
-0.000156463
-0.00194493
0.00295359
0.000850957
-0.000421902
0.603496
-0.000135148
0.448874
-0.0151416
-0.0583703
-0.000161546
-0.0468074
-0.00157399
0.520484
0.530245
0.151143
-0.000642537
-0.0222836
-0.0561074
0.167757
0.106149
0.270032
-0.0700301
-0.0436323
0.00121353
5.19306e-05
-0.000486756
0.000998463
-0.00116162
-0.000781074
-0.000971543
-0.000257061
0.00251176
0.00497219
-0.00266075
-0.00054275
-0.000803876
-0.0001666
-0.00146365
-0.000164373
0.712295
0.0970628
-0.00235584
-0.00337826
-0.00184999
-0.000127295
-0.000220616
-0.000866362
-0.000662098
-0.0178568
-0.000110708
0.000845025
-0.00039394
0.00108828
-0.000281748
-0.00350885
-0.0232753
-0.00119483
0.554751
-0.0113283
0.436773
-0.0237279
0.576637
-0.00861201
-0.0104348
-0.012483
-0.0142369
-0.01466
-0.0166488
-0.0173734
-0.000124957
-0.0184087
-0.0182508
0.526692
-0.0215439
-0.0417552
-0.02234
-0.000250989
-0.05897
-0.00159469
-0.000157928
-0.00308842
-2.84489e-05
-0.000144104
0.0122697
0.00121554
0.217911
0.462443
-0.00298096
-0.00133691
0.000870363
-0.00388559
-0.00194032
-0.00460238
-0.00118276
0.000252084
0.657747
0.0010234
-0.00715504
-0.00403985
0.00130853
-0.00169232
0.000450218
-0.00895596
-0.00244331
0.000615381
0.00339424
0.0034092
-0.000177085
-9.04054e-05
-0.00465099
0.00432994
0.000607514
0.00036277
0.00051551
-0.000179055
-0.000430678
-0.0016039
-0.000400126
0.000592054
0.000248902
0.00141292
0.516973
0.000393555
0.00102558
0.0015137
-0.00182816
-0.000356388
-0.000414176
0.338872
-0.00554394
0.488922
-0.000109849
0.000401805
-0.000181686
0.422568
-0.0645929
-0.00039734
-6.28275e-05
1.64001e-05
-0.000810491
8.80733e-05
-0.0486659
0.000138993
-0.0295345
0.00037747
0.000797781
0.000405596
-0.000346196
-0.00158593
-0.0355499
0.505657
-0.0212042
0.000741723
0.000131944
2.10629e-05
-0.00603913
-0.000164678
-0.0143294
0.00152498
0.00195767
-0.000618363
-0.00622083
-0.00151159
-0.094363
0.000350955
-0.00017138
-0.00205138
0.000320469
-0.000624969
0.00155473
0.0014613
3.78488e-05
0.592476
0.000286934
0.678984
-0.00451402
0.00135338
-0.00191973
-0.000172198
-0.000209529
-0.0192001
-0.000421798
-0.0636634
-0.000248475
-0.100258
-0.00108868
0.000225585
-0.000142517
-0.00397637
0.601036
-0.000195648
-0.0125683
-0.00235248
0.503436
-0.023736
-0.0515389
-0.000212011
-0.105462
0.00223467
-0.107008
-0.0199334
-0.000330755
-0.00468203
0.630821
-0.0473112
-0.0027807
0.00198288
-1.66561e-05
0.441914
0.4998
-4.77722e-05
0.00118692
0.371535
-0.000150211
-0.00314816
-5.54119e-06
-0.0003415
-0.0218201
-0.0117136
-0.114656
-0.010872
-0.000632796
-0.00018468
-0.000114007
-0.0451649
-0.0162424
0.300566
-0.00360281
-6.03102e-05
0.480058
-0.0057153
1.51578e-05
-0.0214822
0.00163271
-0.000820399
-0.000177594
-0.0094834
-0.000402007
-0.010652
-0.000192598
-0.000525652
0.296806
-0.00300133
0.374553
0.57703
-0.00461779
-0.0052177
-0.0606157
-0.00305961
0.642947
-0.00367295
0.000940495
-0.000125367
0.450274
0.600146
0.268898
-0.00586014
-0.0111737
-0.000159258
-5.78036e-05
-0.000359247
-0.00097123
0.00175122
0.411655
-0.013076
-0.000271363
-0.00220779
-0.00100017
0.0651351
0.427569
-0.0173027
0.00273311
-0.00116671
-0.000168068
0.000272867
0.582356
-0.00215779
0.000601809
0.00022494
0.00241869
-0.00512117
0.0716945
-0.00470741
-0.00724703
-0.0173095
0.000162198
-0.00277728
0.409582
-0.000342491
0.000507841
-0.00536336
0.42708
-0.00147587
0.107297
0.515778
-0.000825721
-0.000126175
0.109195
0.376811
0.167917
0.307445
-0.0246567
0.000678086
-0.00049576
0.408138
0.00515365
-0.00194393
-0.0230133
-0.00456557
-0.0593197
-0.00926704
-0.00184878
-0.000519606
0.386021
-0.00250923
-0.00431491
0.528185
-0.00970805
0.49946
5.71082e-05
-0.00307723
0.474816
0.64136
-0.0137574
-0.00428293
-0.00376428
0.000327667
-0.00279472
0.488078
-0.0051723
-0.0139466
-0.00221015
0.000333501
-0.000155683
-0.00285949
0.00029497
0.338936
0.000266979
-0.0116977
-0.000563249
0.00123583
0.000262011
0.221032
0.446349
-0.00722949
-0.0105022
-0.0130428
0.000314604
-0.00214601
0.000249542
-0.0126804
-0.0143126
0.256162
0.452897
-0.0159347
0.233144
0.00108293
-0.0464088
0.000471044
-0.0161548
0.303362
0.190999
-0.018395
0.00384025
0.464382
0.333796
-0.00281766
-0.000279169
0.000839819
0.590766
-0.000608154
-0.000220902
-0.000741167
0.000497346
0.000328577
-0.00156093
0.000551362
-0.00325577