/*--------------------------------*- C++ -*----------------------------------*\
  =========                 |
  \\      /  F ield         | OpenFOAM: The Open Source CFD Toolbox
   \\    /   O peration     | Website:  https://openfoam.org
    \\  /    A nd           | Version:  7
     \\/     M anipulation  |
\*---------------------------------------------------------------------------*/
FoamFile
{
    version     2.0;
    format      ascii;
    class       surfaceScalarField;
    location    "35.5";
    object      phi;
}
// * * * * * * * * * * * * * * * * * * * * * * * * * * * * * * * * * * * * * //

dimensions      [0 3 -1 0 0 0 0];

internalField   nonuniform List<scalar> 
11512
(
138.265
-500.908
362.643
-769.012
3.01042
766.002
410.432
-368.268
-42.1637
645.252
259.539
-904.791
1510.7
-1069.32
-441.381
1216.29
-1527.13
310.84
-49.915
468.629
-418.714
168.433
-841.516
673.083
962.076
-1610.79
648.711
-1764.59
1672.41
92.1811
-542.943
1759.23
-1141.12
1934.84
-793.721
607.717
180.684
-788.4
-25.2393
-1317.43
1342.67
222.048
-1986.64
1021.5
-383.265
-638.238
-190.361
328.626
485.268
190.063
-675.332
1154.45
-1313.82
159.368
-322.881
374.325
-51.4439
1007.82
-1320.43
312.608
1221.54
799.536
-2021.07
74.0215
-1644.1
1570.08
-483.868
-1162.89
1646.76
476.287
181.381
-657.668
-181.5
-319.408
497.978
1012.72
1651.47
-1809.72
158.251
-91.8541
-1690.03
1781.89
-1559.11
654.026
905.081
-308.278
651.635
-343.357
-193.796
-153.872
347.668
1287.91
-1213.89
355.174
-1407.32
1052.15
-1754.37
1754.37
99.9954
1536.05
-1636.05
-1081.19
-477.919
638.075
-687.99
-385.478
941.166
-555.687
1331.94
-1317.3
-14.6398
-1099.68
714.201
624.237
397.266
-406.636
-19.0585
425.695
-457.719
796.052
-338.333
-1618.58
1618.58
1253.59
-1437.89
184.306
-488.799
1710.34
1253.83
-312.668
1660.74
-1161.25
-499.488
61.5507
-384.432
2066.06
-1135.68
-930.38
1817.71
-166.234
455.531
155.457
-610.989
-466.591
974.911
-508.32
-1173.79
1273.78
-567.885
970.127
-402.242
399.009
755.44
660.914
-492.482
-435.831
590.495
-154.664
1190.6
-835.428
2308.2
-1080.67
-1227.53
1163.99
-2009.75
845.76
-1606.12
1580.88
440.584
-1581.7
-759.23
1250.76
-491.53
-670.384
362.106
1661.44
-699.365
-1106.93
-870.894
1977.82
694.377
-383.566
-310.811
689.633
564.201
-258.202
1511.79
102.992
-310.326
207.334
-283.774
760.061
-333.532
565.524
-231.992
-323.656
808.925
-316.145
-144.786
460.932
316.804
93.6278
1464.54
-456.722
-993.074
492.498
500.576
267.746
92.8567
-360.603
948.449
-340.732
-1700.72
645.233
1055.48
19.6097
-860.741
841.131
-279.928
592.598
-312.669
157.431
-1093.66
936.232
1051.82
-1067.3
15.4725
372.492
518.346
-890.838
-244.209
699.74
-1103.46
-482.218
1585.68
-678.853
951.529
-272.675
1354.13
-1445.99
-652.893
288.547
364.346
-470.179
-1011.56
1481.74
-537.525
-794.913
1332.44
576.132
-995.969
419.837
-268.733
-317.884
586.617
399.876
-296.884
-1041.98
575.39
955.26
-797.829
-110.258
944.077
-833.819
-209.685
415.393
-205.708
-633.146
-359.928
-386.417
962.549
1856.39
-1856.39
-478.337
-174.556
-947.194
1561.98
-614.788
498.286
-930.311
432.024
-922.88
354.995
-941.908
-1058.08
-1494.78
343.246
1151.54
-271.619
916.871
-328.688
623.746
-295.058
-1941.9
999.995
-1145.03
-349.754
560.303
-1507.5
1728.49
-1725.7
-2.78899
198.108
-611.141
413.033
-1464.49
974.189
490.297
279.218
218.37
-497.589
309.841
-643.373
244.145
-420.452
176.307
2015.06
-877.809
-1137.25
-548.746
142.11
615.453
837.722
-1453.18
-182.414
426.559
431.301
876.546
-1307.85
-904.511
391.003
513.508
-1048.16
1447.16
-1068.91
309.678
748.406
-96.7709
568.601
-293.905
-274.697
1018.22
-525.718
593.285
-1403.76
810.47
-1342.11
238.646
-544.276
264.348
-1184.3
912.68
1947
-977.891
-969.105
276.805
1579.58
-2096.51
896.509
1200
369.001
-30.0783
-338.923
-223.485
483.997
-260.512
-98.0328
-386.464
484.497
-459.968
143.823
342.039
-129.39
627.677
425.326
377.169
-802.496
-2039.1
1120.28
918.818
459.506
-527.205
67.6989
224.46
-366.72
142.259
1017.46
997.594
1788.82
-252.765
744.948
-456.401
796.348
-1389.32
592.973
361.202
333.175
1058.27
-1038.66
-490.581
-241.615
732.196
469.649
-132.013
-337.636
797.158
-616.475
553.822
-721.42
167.598
503.323
1157.42
-1239.67
702.145
1036.55
-1520.42
-3.13264
-1439.43
1442.56
326.08
823.683
-1149.76
623.131
269.706
-892.837
-2269.26
1142.66
1126.6
-1093.2
-1176.07
196.256
357.566
958.469
-632.388
879.557
-899.188
19.6309
-2099.38
992.454
-231.879
-191.217
423.096
-41.8357
1770.32
-837.401
68.3888
-1029.63
-1066.88
-229.09
453.551
-689.529
211.192
-284.248
-422.694
706.942
1104.02
-1574.2
782.898
-1374.35
591.447
693.806
-434.267
1947.86
-1444.54
-378.278
-1376.09
69.4758
399.153
-534.227
537.237
26.1586
-581.011
554.853
566.459
-287.241
-602.562
279.068
323.494
782.973
-357.647
32.8992
336.102
1188.47
-1191.6
167.637
232.239
393.001
-677.249
619.356
-1005.77
-2026.72
2026.72
-267.551
-443.564
711.115
699.163
405.757
-1104.92
578.371
170.034
410.989
371.984
-2199.75
1328.85
-926.211
-679.461
1605.67
-479.58
-704.719
-250.058
552.46
-302.402
827.755
-203.155
-624.6
-456.626
654.734
361.643
-690.33
-377.91
-128.283
506.193
-1333.21
-476.514
638.818
-1118.4
-374.137
-1244.44
844.334
1463.86
298.943
-943.835
644.892
965.143
-340.906
1391.3
-798.014
438.869
-271.232
-326.14
-871.784
573.044
298.74
-337.174
-534.61
312.828
-410.861
-213.217
-148.532
361.749
-392.657
1091.82
434.735
-244.671
-392.099
1357.8
-171.26
-1186.54
-474.681
298.191
176.49
218.911
269.049
-487.96
21.4298
-742.85
592.114
-1729.02
1136.91
1483.54
-868.083
-1047.81
-416.678
-1056.13
573.441
482.689
1385.39
-411.197
929.023
-1411.24
-159.19
-196.103
355.293
-469.023
579.367
-1627.52
427.964
903.976
297.036
295.629
-592.665
568.079
1186.29
1102.44
-712.049
-390.386
397.655
-213.997
-183.658
-1419.45
445.621
737.608
-1183.23
1473.22
-544.2
-485.199
935.118
-449.919
426.146
1186.16
-1612.3
47.2857
-726.139
-147.608
415.355
226.49
-420.286
537.298
480.918
-610.975
60.6029
550.372
1024.54
-1307.67
283.132
666.713
-255.725
468.273
-1447.21
978.936
396.46
1687.39
-523.4
908.982
1038.01
-659.791
-1684.53
758.32
562.406
406.163
-968.568
455.609
78.8606
1750.01
-1828.87
1443.73
-379.467
-1064.27
1699.14
-1740.97
-366.498
-533.348
723.262
-189.915
-502.588
178.671
290.978
-372.838
-1225.99
214.428
-764.549
-639.206
-646.02
996.29
-350.27
-654.279
644.486
9.79361
655.133
-923.807
268.674
-767.721
389.873
377.848
-648.042
-692.38
343.945
348.434
-932.271
1400.54
-420.558
888.62
-468.063
-2205.31
5.55748
173.782
-530.672
356.89
142.998
1214.8
-104.244
-585.285
156.507
-592.338
1487.07
-704.168
383.686
-460.534
76.8489
-570.638
570.638
1223.12
395.461
1778
-1228.15
589.285
638.863
849.648
-52.4901
1291.88
774.179
-540.29
1336.64
292.721
299.876
268.076
-801.424
245.306
-703.024
231.029
-443.26
212.231
-245.727
579.352
-333.625
115.685
-361.412
-591.788
-564.434
1156.22
-376.99
552.636
-175.646
-1192.16
2032.04
-839.885
1288.82
-330.347
-406.456
137.723
-1980.15
817.258
1539.58
-848.93
-690.648
1986.97
-877.439
-1109.53
713.625
575.19
-238.812
469.84
-673.008
1149.16
-476.152
-769.799
1201.1
551.712
924.565
-1725.25
800.688
-550.458
-81.7638
632.222
307.693
260.909
405.948
-89.0101
-316.938
896.911
-83.4044
-813.507
928.964
-572.32
-356.644
1576.19
-472.162
891.5
-1627.71
736.207
1068.48
879.387
746.106
-438.883
-307.222
-1059.05
-258.255
567.076
575.601
-1142.68
-467.911
523.306
-55.3952
572.093
-339.164
-232.929
-985.613
565.055
594.661
888.876
-441.771
1096.9
1419.14
-783.471
-635.674
392.301
-922.531
530.23
-1037.72
404.576
564.999
-1050.2
470.326
-548.563
78.237
483.719
312.333
-522.104
-48.5345
-793.937
-879.646
1673.58
189.922
207.732
-216.228
412.484
-27.0443
-568.586
595.63
497.255
869.305
-1366.56
-519.14
305.923
985.982
-89.0706
836.061
-1064.54
228.479
406.615
845.798
-1386.09
-455.97
833.14
1979.5
-1285.78
-693.72
270.187
609.371
255.966
795.858
91.7303
-973.504
881.774
1673.72
-1089.03
-584.698
-137.894
1887.91
-1866.07
-160.654
483.583
-621.68
138.097
-1012.16
526.569
485.593
-1730.48
538.319
-955.748
845.491
390.562
199.933
587.752
-288.809
-418.537
708.72
256.424
68.7909
707.581
-776.372
-1122.19
-906.804
2028.99
-542.346
1114.2
-571.849
-481.234
-342.795
110.915
-1655.77
861.835
-855.416
-605.794
1461.21
-332.172
-294.571
626.743
350.082
-650.189
300.107
251.233
-608.879
334.527
194.469
-528.997
361.979
-612.037
621.426
-271.345
311.93
-456.716
678.838
413.094
-194.183
-399.577
-292.803
1223.54
-2.3341
-1221.21
1039.21
-419.858
559.782
410.346
-1782.36
869.815
912.542
488.825
555.629
-1044.45
-535.835
203.663
-263.545
1181.2
-917.655
-1590.88
1212.6
504.498
-1096.29
382.489
1.19609
429.697
313.584
-743.281
371.527
-615.735
-34.8035
757.238
-722.435
-526.201
795.907
394.737
322.52
527.128
652.251
104.843
-416.483
311.64
1058.94
-645.326
-413.614
494.018
-1664.27
1170.25
-1140.39
1753.22
-612.829
1715.83
-1123.72
-332.834
611.902
-1181.38
1273.12
425.328
-798.768
1608.4
-809.627
-275.679
-199.002
-891.145
1470.87
1813.97
-610.814
-1203.16
-404.534
655.497
-1301.52
-124.831
-57.2751
463.223
-684.965
-354.164
-1236.71
-215.427
466.66
903.42
-557.207
170.742
-1674.66
-71.2345
1745.89
-1075.85
533.509
566.502
-1183.72
617.213
900.849
913.123
630.768
619.992
696.662
238.455
-1142.6
469.591
-394.643
420.802
616.012
-514.523
238.456
-729.237
490.781
706.585
-345.383
-334.47
180.598
-613.88
251.237
362.644
-886.593
-741.114
1087.67
-2145.75
398.409
-682.183
-342.778
-724.518
835.239
583.905
-337.656
318.597
378.081
223.35
639.97
-863.32
524.841
624.319
-550.284
172.375
355.095
-622.646
-1030.9
-862.751
1893.65
-1801.42
157.317
1106.83
-1370.38
1159.76
-715.452
-444.311
-503.836
1349.63
-1495.49
627.868
867.622
-289.204
-210.654
499.858
1428.4
558.566
359.384
-487.667
-481.166
-570.605
1051.77
-421.169
594.95
1582.61
-1129.94
-452.675
-784.121
340.557
654.876
404.064
-1623.42
416.163
1207.26
-180.977
515.505
797.651
784.961
203.234
-698.8
495.565
206.087
209.306
-292.66
-107.561
400.221
502.077
-4.69106
-497.386
-1641.68
593.871
-1608.14
1676.5
-68.3615
12.6018
-1620.74
1069.6
777.145
-347.449
-817.391
-220.33
-1134.48
-239.865
-310.715
682.242
-1812.55
-634.088
1209.69
217.629
757.282
-1331.14
-678.611
-465.564
624.762
-327.726
-1013.28
1350.77
-1932.88
582.117
646.674
1288.17
487.472
-3.47438
717.29
708.842
-1426.13
-635.032
330.971
304.061
440.879
-99.3745
-341.504
142.251
319.224
149.011
-468.235
-591.974
1154.38
455.045
-643.557
-461.417
-401.253
862.67
-325.397
166.207
-452.611
155.726
-303.412
-708.751
549.876
-108.997
-573.931
966.233
581.594
-270.207
-311.387
454.969
-778.625
-647.773
456.675
-1129.4
-842.129
1185.37
-569.758
445.342
286.854
-464.032
80.4652
1028.08
-317.835
594.74
-276.905
-509.019
1578.62
-683.254
249.001
364.945
-613.945
226.687
497.731
-35.7734
-461.957
-260.478
-192.133
1022.11
1108.91
564.81
-883.209
948.267
-65.0577
-459.125
169.921
-742.169
319.475
-589.545
325.605
380.98
837.029
-1242.69
405.661
776.244
-811.047
-948.947
-550.356
1499.3
-177.01
472.639
-560.662
266.757
1300.73
788.528
-585.294
1319.6
-680.783
487.032
-667.795
-401.188
-422.986
-377.791
800.778
502.13
-842.862
-469.689
101.952
367.736
-322.739
572.416
727.316
-328.907
-242.324
-172.203
414.527
-487.389
131.771
355.618
1459.68
81.9758
-1541.65
-753.269
1347.93
-1144.74
-466.047
541.799
-176.855
1151.28
-375.032
1083.49
492.695
699.26
-431.184
-885.001
-522.32
-1328.41
-23.2794
984.952
-961.672
591.716
342.77
-934.486
-345.458
-203.288
-674.059
405.524
1621.2
-192.405
379.265
341.172
-720.437
-1839.76
-2106.68
1519.14
587.542
-2036.05
346.014
375.02
531.045
-906.065
-459.968
1019.75
-406.548
-668.785
1075.33
-2030.53
1391.21
639.326
594.37
-1000.92
39.5613
430.765
385.938
189.566
249.303
320.721
969.39
873.815
677.656
-324.536
-353.12
-292.407
618.693
-326.286
571.569
530.866
565.27
514.675
-1079.95
-796.195
-699.294
751.369
399.906
-406.919
707.026
-1193.41
1609.58
431.153
-1099.94
-348.962
543.431
-1380.55
878.217
502.332
-711.446
-349.885
-776.357
352.566
423.791
446.984
718.091
-1165.08
1074.11
-585.288
-420.33
668.636
-248.306
255.411
326.183
-467.661
-431.591
899.252
-229.614
567.681
-962.478
394.797
-458.537
600.597
-1681.27
423.639
670.796
-1094.43
519.828
103.918
113.409
-2212.79
540.73
-95.3885
1444.32
1777.09
-217.551
-1559.54
-438.465
1789.23
-1987.04
1194.49
792.541
399.36
346.746
-41.2661
876.505
-1283.05
718.612
-868.914
-821.919
798.639
294.995
75.4132
-370.408
232.581
187.272
-419.854
1557.94
-840.646
-1530.96
-325.43
508.53
-228.628
-279.902
394.326
365.735
262.683
362.079
-9.96224
1002.26
-992.295
376.798
293.84
-670.639
-734.087
1817.33
-1083.24
-341.841
736.167
-1222.27
-413.777
-914.451
482.86
584.708
-784.447
199.739
759.743
-379.489
-380.254
-434.406
-448.803
450.14
1089.84
1238.94
-672.44
799.83
-344.861
380.19
330.925
-235.217
-225.317
-213.889
610.349
407.317
-846.256
438.939
231.704
347.101
-578.805
-422.038
829.355
754.474
-1147.13
891.543
-54.5145
-486.352
279.211
779.064
-96.1496
1384.32
1890.5
-47.3768
345.568
-314.925
419.768
-1086.88
1076.92
639.481
375.438
384.305
87.3099
421.22
260.504
505.498
-373.304
-261.728
-564.961
-89.3181
-364.062
360.651
3.41127
-256.089
-288.187
1010.96
-1540.67
529.705
-185.264
-183.004
-385.866
679.706
-1640.9
1591
-963.135
271.655
-672.843
584.316
1224.42
-1808.73
607.394
983.609
321.076
-1123.31
704.77
-283.819
-308.846
1381.79
-1450.12
832.099
618.018
438.011
-641.542
203.53
-391.543
484.802
-93.2591
384.556
117.521
1724.1
455.743
-249.655
557.629
-1704.79
1147.16
-96.2372
392.303
341.865
335.791
-448.347
-615.413
1063.76
411.968
-867.938
-640.901
902.715
570.508
-515.501
-252.219
-437.933
-408.324
-307.306
-827.174
1821.12
-1821.12
-102.425
-1594.57
1696.99
293.134
278.959
-917.154
-555.374
1472.53
-407.981
973.251
-603.702
-1037.98
692.991
398.234
-1091.23
471.09
-159.161
573.063
1220.35
-1793.41
-1037.66
2114.09
-1076.43
-375.931
-294.454
-485.714
826.272
-1755.46
1603.89
151.572
1755.46
-1609.31
-146.151
-244.628
521.171
-276.543
-537.278
1620.77
1569.51
-1983.29
1097.57
-293.163
-269.956
563.118
226.61
-575.572
-704.377
297.458
1342.23
637.271
583.121
480.766
-1063.89
270.852
428.408
875.397
500.065
-1375.46
537.015
-1018.18
1574.92
-563.958
-773.099
-357.493
-138.81
496.303
-489.96
1208.05
-741.274
332.892
366.848
381.939
244.261
-626.2
608.549
831.682
-603.203
261.644
686.623
-515.501
-330.055
-243.506
573.561
1168.52
-677.621
608.305
466.835
-1075.14
-1294.4
1294.4
-385.475
760.914
-278.726
-480.526
759.253
497.244
440.918
-938.162
392.732
-671.458
606.784
-868.725
261.941
-366.784
-491.279
1074.4
-660.282
-711.557
1371.84
-378.174
945.855
-1552.71
675.273
33.0516
-430.37
397.319
-521.348
732.539
263.239
316.113
167.001
304.089
-531.264
247.445
1869.83
-1965.98
261.208
-717.834
456.477
-822.478
366.002
-909.318
1419.21
-509.89
-429.399
-485.052
600.755
1124.18
-1724.94
-713.121
337.191
-461.748
1033.32
-790.041
1051.69
-379.026
-625.241
-500.769
746.075
540.141
-358.76
909.212
-314.063
-173.326
1599.02
-1816.57
-348.639
-613.84
-344.695
476.466
277.638
-605.363
-175.869
1068.78
-789.569
197.974
-299.563
-270.454
570.017
390.869
-886.202
495.334
-483.44
-461.324
-943.835
-363.704
597.188
-233.484
-456.656
-439.781
-351.839
-177.158
-405.128
649.389
-444.076
775
-1072.25
623.901
-1405.44
550.022
-28.4087
-1837.47
1865.88
569.912
-449.856
1229.9
-696.39
336.478
-336.478
672.156
-449.585
1037.76
-1641.46
-1158.73
-947.95
291.038
327.655
892.263
716.132
-507.121
-303.421
810.542
1659.33
-1687.74
-434.061
339.304
227.155
1134.37
-526.069
-943.333
1550.48
-607.143
440.075
-250.509
370.224
398.454
-768.678
539.682
467.86
-1007.54
-330.484
663.376
-37.9782
1907.81
1598.06
992.704
-1696.87
726.979
-1176.88
449.905
-492.438
1367.83
837.223
-1341.06
-575.563
282.4
806.099
-399.936
549.051
-1190.44
641.39
-635.251
-1215.53
-695.66
1911.19
-187.514
560.653
-373.139
-182.582
326.063
-513.577
332.907
364.987
-697.894
-1487.07
756.428
730.639
884.077
-1434.43
822.64
-431.638
209.175
-356.783
-608.005
277.95
-650.928
-729.621
698.087
506.503
-1204.59
384.107
-201.572
-182.535
555.436
-957.677
-577.7
-424.835
744.31
-831.303
-1155.73
-1437.94
499.646
938.295
2.94993
-653.31
353.623
299.686
-1319.76
1047.47
272.294
-616.257
-455.991
-665.654
921.62
395.359
-193.928
-201.431
508.231
980.597
-1488.83
980.6
-565.046
167.554
397.492
-414.224
683.703
-422.495
-505.087
160.392
234.216
-1520
526.196
547.917
-774.687
253.339
140.817
-454.881
362.323
-823.647
1954.16
-1195.39
-758.771
426.886
-692.394
265.508
326.104
337.092
106.329
-443.421
-576.594
192.96
262.783
-691.691
1374.29
-682.596
423.801
475.654
-1187.1
265.082
1866.78
-1013.59
-853.188
784.862
-548.84
185.136
1402.35
-975.183
-427.169
326.809
-776.394
-616.515
1725.43
608.87
630.072
324.846
-29.8515
263.373
-1138.41
1725.71
-587.298
-1763.53
820.193
1761.24
-1690.79
-70.4498
-663.252
268.609
575.65
-732.076
231.307
1402.5
-565.282
382.646
450.494
-1858.61
1420.15
570.633
-446.184
-124.449
196.958
-548.797
-287.962
-193.272
-351.758
693.623
-586.9
229.407
616.481
548.229
-1164.71
1113.58
-1947.48
833.905
153.238
352.955
-1699.43
1661.45
307.772
-738.956
-167.623
376.798
759.276
678.767
-1438.04
1081.13
-1083.47
523.392
-1108.68
-626.409
250.626
375.784
540.339
-289.102
-613.777
-1027.69
287.394
-727.175
-912.321
169.11
159.721
224.387
404.551
285.854
-690.405
-634.664
-834.097
-978.455
487.572
-1064.17
-312.217
488.707
533.869
651.506
-281.788
-124.668
-410.717
731.793
263.508
-1201.18
566.519
1311.63
-552.358
441.441
-1019.14
-390.785
160.831
409.802
1023.3
551.618
-1717.43
1615.01
1634.49
-575.005
-1059.49
1904.63
-1893.55
-11.0877
224.086
-539.011
-361.07
559.044
-771.592
-329.913
-333.339
1020.71
705.083
-1511.02
805.938
334.144
-26.1885
1625.21
-1096.02
418.401
-1247.13
474.026
-61.0293
1520.71
1197.23
-470.253
-489.916
-75.1301
-276.139
736.028
-1951.56
-708.396
359.27
-531.788
172.518
192.376
-510.21
1139.92
671.567
-1811.48
-631.103
184.919
941.913
-1497.29
-210.451
678.873
-468.422
869.947
1130.05
-741.709
1350.58
628.166
-494.721
-133.444
-343.216
1175.31
1042.81
-1979.16
936.348
-1175.37
541.279
1488.69
-585.973
-401.202
-149.083
-1243.47
571.033
1160.63
-105.147
946.109
775.691
-1721.8
-197.937
578.549
-1541.69
963.139
486.954
916.614
-1403.57
625.386
584.302
406.429
-1106.64
591.996
1110.27
1216.53
-452.429
-764.106
-1186.2
-1754.93
-5.93593
-1711.5
-203.757
-437.785
1609.03
-631.522
-977.512
-490.774
1121.54
-1319.49
634.65
684.843
-1363.07
1445.04
-1332.23
590.518
1520.46
-388.573
-589.139
187.937
-1484.32
221.85
176.366
242.388
385.778
438.2
407.893
-846.093
506.298
-938.977
900.528
-1444.73
-713.792
236.576
477.215
-1049.47
457.5
-482.315
864.961
694.933
18.4274
-538.936
165.797
-886.565
-1318.74
-713.147
348.521
364.626
400.138
-721.096
320.958
-478.4
-189.256
-709.933
722.441
1539.76
-593.65
820.026
737.91
1344.75
-844.686
-971.181
-570.507
-794.676
427.329
367.347
-1036.12
-639.783
302.675
337.108
-1433.69
-296.783
-788.891
397.069
391.822
-663.719
416.494
247.225
-688.767
266.272
412.205
487.047
389.153
440.203
478.633
384.037
596.421
-969.259
689.439
464.94
453.482
356.069
-809.551
1630.75
-1079.89
-550.864
-504.584
-289.031
-1030.73
453.71
347.068
409.352
593.8
-1003.15
-1382.38
750.862
-530.078
1147.29
362.01
-42.7864
411.633
-864.145
452.512
-1895.91
301.348
441.332
-725.804
284.472
-187.987
398.89
-210.903
-658.947
302.58
356.367
-671.597
318.478
369.942
390.971
612.588
-1020.57
752.45
662.936
-1415.39
438.569
625.191
339.866
392.691
-732.557
408.683
327.484
599.181
673.964
415.876
602.746
-1031.59
428.844
-1669.96
1188.18
481.777
1696.58
-539.169
619.807
-1146.71
526.901
-642.419
347.848
436.929
-934.183
497.254
766.023
-452.439
349.853
343.77
578.581
-927.22
651.937
-1252.31
600.369
388.101
734.513
-1224.47
769.282
509.566
-1278.85
493.716
404.125
-897.841
-501.667
-936.274
-296.121
629.027
352.24
541.7
-893.94
332.33
331.046
-502.18
1944.74
437.032
-846.84
409.809
-917.686
-807.567
-746.582
366.327
-1228.46
438.417
-1738.2
1609.31
128.884
1748.77
-1603.89
-144.875
-782.794
-589.585
264.221
325.364
-1761.24
1983.29
538.564
791.26
-1329.82
439.979
716.243
690.252
385.493
-1075.75
-68.7757
1617.12
-593.815
389.625
840.274
-649.469
326.622
322.847
-377.356
-297.488
552.899
-214.414
432.784
280.723
-665.533
384.81
263.236
-575.905
-281.168
442.315
-1032.93
590.615
538.04
1092.71
365.781
596.768
312.819
353.586
-666.405
1630.84
-925.757
1692.07
-1520.74
-171.327
-326.349
-821.7
413.376
857.497
-1067.95
-603.873
277.587
-1090.59
1628.63
-1589.92
-76.2525
1666.17
-339.652
-348.745
-368.922
538.106
596.268
-500.348
-26.8572
-549.991
502.873
-281.278
-221.595
1753.81
-1303.67
-622.773
298.143
324.63
398.643
357.189
734.63
-295.118
-398.06
-1748.77
1687.74
459.406
-1100.56
641.152
-42.4134
1657.42
571.247
476.27
-1047.52
104.824
1144.71
-1452.01
-12.2774
-1883.64
226.329
-597.507
306.401
291.106
-955.316
612.538
-897.119
467.721
-1128.23
673.241
454.989
382.196
269.09
-776.212
-307.178
1216.14
886.594
699.089
-1182.84
456.062
726.777
494.28
700.569
-1194.85
-357.918
-244.844
404.565
-959.827
438.236
521.591
21.2427
-1879.85
1079.46
-472.672
-505.615
558.262
-1378.03
819.772
-432.448
798.45
-404.586
500.281
-705.6
1727.71
405.345
-180.958
217.265
-166.836
-242.994
409.83
1895.32
-504.115
-1697.72
1051.16
-602.075
304.587
-1013.1
553.136
-310.823
544.281
905.228
-1449.51
-1103.6
437.947
-20.9238
-1945.06
1710.91
-668.103
-540.597
460.641
-1190.31
729.672
193.124
202.235
-282.621
771.526
699.34
837.519
818.246
-462.177
1084.6
-486.782
474.292
-191.981
-282.311
-1923.66
-714.164
-316.784
-644.77
-6.98567
651.756
462.861
-269.901
567.776
1063.07
-808.299
923.976
1244.08
-424.631
-185.818
-228.79
414.608
962.34
-888.507
-318.102
-1067.4
611.406
1560.14
-803.709
537.66
934.868
-397.756
735
-337.244
1130.23
-276.684
340.724
1349.52
-705.869
-216.663
448.209
-1198.51
750.299
-984.76
-123.829
1108.59
441.094
-954.841
513.747
177.489
733.012
483.522
736.13
-96.1604
851.836
-425.206
1182.42
-796.929
552.165
-1465.39
913.223
-1216.65
1800.97
-431.711
-1510.19
879.597
-1401.92
-323.135
-420.145
1457.1
-1525.03
783.917
1491.47
200.118
274.174
-364.27
-1738.2
-285.779
-1013.65
1581.43
-1772.35
1772.35
1569.51
-1004.41
-632.844
-348.552
368.224
605.027
-375.36
-371.395
-1389.79
897.352
1125.13
600.577
1202.68
1789.48
-1216.42
-616.881
270.88
1659.04
-1916.53
257.492
814.945
-1267.62
1545.22
-561.611
792.246
321.949
-355.191
554.921
794.713
672.367
1356.63
-239.799
-444.607
-378.613
497.702
-342.245
471.701
736.35
-309.929
-133.492
-341.045
570.239
-229.194
30.0193
-369.183
1107.43
-1720.26
-451.016
-496.838
-570.659
863.639
696.498
-1596.43
904.737
-451.323
-627.137
-514.193
1251.8
350.165
1723.72
-1702.48
-1659.33
1893.55
-1560.78
840.266
720.517
-388.009
-1797.36
917.711
583.322
819.183
-392.486
1794.33
-680.756
-421.064
683.333
439.736
-1123.07
-1100.68
444.034
753.198
-1617.16
473.175
901.112
174.386
-396.723
222.337
-1599.57
-387.071
-439.055
990.284
-676.954
1442.89
-983.181
1853.13
238.509
-536.032
492.87
-292.752
474.288
893.546
543.136
977.326
-462.573
-427.559
573.984
883.118
-1392.71
-40.9883
1577.05
-839.137
519.935
971.535
-1475.76
-1115.9
1773.76
-1240.87
-532.888
1206.04
-319.037
-886.999
-190.072
449.785
-259.713
-456.908
-247.443
425.602
-178.159
141.283
-386.128
1733.2
-1739.14
-468.622
-530.83
-903.603
439.727
-204.991
-234.736
635.666
-466.568
-359.797
-328.67
688.467
-930.974
396.363
-1167.21
676.438
412.895
-641.318
-432.722
1580.6
-864.471
530.176
-457.668
-570.554
-462.376
373.61
-363.837
-9.77286
-1113.34
416.949
-664.804
-1033.62
1698.42
-608.033
-1423.78
712.22
562.203
-1596.24
1034.03
-404.003
-471.22
160.033
536.629
-1258.21
744.013
539.216
1006
-2133.18
999.988
1133.19
-379.688
420.929
-396.02
-24.9098
1478
-379.192
449.196
1210.39
582.27
906.417
567.311
527.396
-1094.71
161.571
-451.562
-1690.79
247.479
1127.57
-621.108
518.5
1013.72
-1532.22
1092.85
-1643.71
186.164
705.38
555.02
-873.122
-1086.5
-173.518
429.499
-255.981
-587.093
-441.321
-636.758
-629.68
347.06
-1618.99
939.527
-476.657
212.131
-393.089
531.406
-305.077
-615.015
1197.07
-1285.72
925.363
360.354
-1016.82
-385.698
-761.194
-827.782
1691.42
-476.782
1793.12
-1583.15
-209.972
-1556.62
1018.72
537.902
-728.975
-263.971
445.993
-182.022
-599.226
382.615
271.577
-654.192
-523.904
997.543
627.387
-349.801
-1620.27
1050.51
571.766
1103.53
-1675.3
-426.897
-287.579
-371.369
-747.734
-482.485
-328.494
495.496
1557.97
-995.769
-774.903
1497.44
656.963
-317.659
725.88
1152.37
-1878.25
307.645
319.909
-487.078
-1932.94
1720.35
212.594
735.98
-473.645
-262.335
531.825
1060.82
-1592.65
373.61
-1723.77
-233.21
1752.35
-1580.69
1073.78
506.91
-1725.37
1.59241
-521.608
420.929
1699.43
-1720.35
939.544
624.729
-1564.27
385.107
-218.137
-166.969
-423.934
-264.834
67.7527
95.1968
-359.168
-426.836
-441.889
-401.59
213.603
1510.22
378.861
-216.92
-446.799
460.645
-197.862
333.593
1510.75
995.374
-154.27
-841.104
-1104.09
1704.84
-1728.8
1063.99
-707.232
-1021.56
-1265.08
1844.99
-579.903
1155.06
-1771.16
616.1
272.475
-878.029
1675.75
43.4377
-1719.19
-491.152
-1083.05
-1733.2
-981.515
553.956
1019.6
590.227
1133.02
-1723.25
274.522
-451.377
701.617
-383.14
391.873
924.652
681.02
-384.226
-647.364
582.89
1072.55
-1655.44
-403.987
-364.829
768.816
442.854
-1661.45
1520.74
140.703
581.433
-1043.18
544.74
1083.89
-1555.65
994.044
-235.848
222.51
336.534
1904.63
448.106
-70.8023
995.861
722.75
-1718.61
-697.226
1085.34
-1557.5
162.387
-571.17
197.09
263.555
-665.321
-563.137
582.522
1034.59
-711.15
-285.599
-1368.16
674.894
693.265
-410.699
756.242
71.3671
-827.609
561.735
-137.165
1557.31
-208.465
278.53
-774.169
-1932.94
1664.61
1025.95
389.873
310.619
455.404
-929.885
-993.773
-1767.26
633.241
1693.76
505.525
-474.279
1210.63
1087.1
-424.724
1029.75
-976.98
490.433
486.547
700.375
1047.9
-1748.28
481.927
484.306
-1493.96
-745.57
33.5204
778.478
-412.151
-888.757
383.142
-539.115
-801.944
644.892
-577.448
1397.22
1055.14
195.374
234.125
-550.613
1618.52
-773.589
1526.04
-1727.83
575.255
1152.57
540.872
-881.778
-1732.85
1916.53
-183.684
1721.74
179.883
-544.475
374.306
-279.109
-481.354
1211.03
568.266
1128.32
-491.063
426.896
856.214
-458.948
-771.191
430.986
340.205
1419.01
1089.57
-518.19
1422.93
-510.508
-533.554
1044.06
-602.755
489.296
-1204.75
1692.07
1839.58
-687.211
1585.73
-646.186
-1241.02
717.113
-562.542
205.753
-396.97
453.843
-244.538
-519.442
-1246.71
1870.94
-624.235
1172.99
-553.185
1120.28
-1659.45
1698.97
-573.932
-546.338
-549.818
1720.07
-316.766
-688.032
-473.246
1223.55
-1686.53
-1860.1
613.396
311.749
-936.349
165.889
211.592
-1719.02
1204.15
514.873
1162.85
558.887
-512.153
-465.308
1192.08
179.406
219.485
588.444
1251.13
-539.177
-1238.58
1777.76
-1025.32
999.99
866.789
-204.101
-1659.04
1702.48
-510.063
1411.17
-1732.85
-350.027
11.2789
338.748
-256.088
582.723
-326.636
88.3139
484.73
779.444
-379.306
1257.53
1270.79
-413.295
850.784
-437.407
1817.47
-662.402
1586.56
-1723.72
-412.795
-758.928
308.774
450.154
-560.118
-563.341
79.7147
-1138.76
-985.375
-669.899
1655.27
-943.706
-1189.47
158.855
-428.811
-648.044
705.662
1167.44
650.024
1410.18
-590.993
1636.74
1317.87
-573.858
-487.517
194.765
-503.256
1396.8
1239.8
-564.906
-999.989
891.805
56.8007
-948.606
603.433
-506.113
1403.46
1495
-588.581
-382.118
382.118
-589.444
1623.48
1239.36
-486.167
1134.16
-66.9692
1848.86
-386.199
1489.38
-588.856
-507.651
1347.92
-651.573
1218.26
-566.684
1554.77
-591.627
756.351
575.99
-1332.34
-656.286
284.471
504.057
600.355
-1957.3
-998.066
1586.56
382.82
-382.82
-62.5238
386.18
436.46
399.695
-15.1391
-342.558
906.475
-518.374
-426.22
812.4
-241.585
617.369
-428.005
1548.29
-444.315
-884.099
184.592
223.073
-407.665
601.168
1250.77
-1851.94
926.061
-458.341
-363.837
126.151
-1943.02
1816.87
-446.117
174.885
1181.17
-440.395
-740.78
-297.843
-590.914
-493.708
-396.02
-476.92
255.325
1157.72
-561.449
228.305
-372.546
144.241
-22.4097
-107.67
1376.09
-1268.42
34.4505
-599.412
-586.405
-460.827
460.827
-1262.36
1985.11
-1344.38
-211.219
-1822.98
239.837
-1025.75
-974.243
-183.427
-1638.29
708.404
1229.32
-1924.98
365.681
313.761
-679.442
-1850.01
1234.27
615.743
-564.908
564.908
-959.123
-39.8972
-1866.07
-558.141
1650.85
-676.726
1636.16
-601.562
-179.981
-1703.66
-581.237
-448.309
-594.804
-473.882
473.882
-1537.81
194.527
1343.28
172.858
223.82
-396.678
488.044
507.33
996.33
-474.739
1751.3
768.748
-428.061
403.152
521.418
1702.04
-594.614
-552.96
1636.85
467.97
1812.75
-645.31
-1804.08
-1938.07
-646.982
-485.125
485.125
-598.385
219.771
-694.938
1018.87
-465.736
-1073.75
-290.39
1579.58
1852.3
1635.34
-1635.34
-269.962
739.957
1761.49
595.788
1275.15
175.409
209.697
587.275
588.477
1603.53
-1603.53
220.583
-355.415
-436.108
458.929
950.271
-459.838
-639.446
-1131
1706.26
278.642
-1655.69
617.715
-285.856
465.739
1744.64
-592.067
-214.699
-421.299
378.8
731.47
1738.57
-613.433
-511.766
-771.472
1960.53
-870.454
-1090.08
1642.76
-705.793
1223.97
-1824.94
600.974
349.532
-885.564
-185.926
-110.213
1097.85
-486.445
139.108
625.198
-1652.88
432.513
620.024
-1804.08
-583.276
1787.43
883.958
-1162.91
1760.49
-597.571
1783.83
-575.528
-1208.3
436.67
923.568
-1739.14
924.698
-1492.55
262.78
1229.76
-830.823
-1254.22
-385.963
77.751
308.212
581.726
267.568
1030.31
-440.91
844.771
-403.861
820.616
739.794
-1560.41
644.028
1066.31
-24.5312
-663.969
688.5
-1744.33
722.764
704.249
150.532
-1122.67
1936.76
-674.55
-1262.21
-537.172
1665.49
833.331
965.46
-1798.79
1227.86
683.33
-405.681
708.261
823.934
1027.56
-586.47
1761.49
626.433
1773.56
-1185.62
-587.942
-381.118
-343.085
724.202
121.433
-1185.7
1660.55
-540.264
-1437.85
1437.85
1250.57
594.415
1351.53
206.446
-556.533
277.844
-184.987
699.088
1113.66
475.463
-296.057
-869.937
-574.792
1737.54
-1737.54
1013.1
-1013.1
987.331
1025.17
-2012.5
1837.94
-613.974
-581.107
833.997
-947.85
-1052.16
998.265
690.802
-1689.07
-522.104
-360.337
-640.581
-808.425
2042.69
-1246.42
-613.683
1002.97
974.852
1289.77
646.988
324.261
1012.68
223.832
338.534
1186.29
1756.88
-1756.88
671.914
80.2152
-391.603
-997.053
-539.987
1674.14
991.46
1008.54
-1833.28
-221.511
-359.725
611.088
-363.61